A-SYNC WITH FASUDIL
35315
  121NASP     N    1   5.777   2.077   5.640 -0.6449 -0.0224 -0.5687
  121NASP    H1    2   5.865   2.038   5.670  1.3836  1.3129 -4.2046
  121NASP    H2    3   5.797   2.175   5.651  0.8013 -0.3799  0.2790
  121NASP    H3    4   5.773   2.062   5.540  1.0253  0.7884 -0.7930
  121NASP    CA    5   5.656   2.025   5.711  0.2679  0.0405  0.4573
  121NASP    HA    6   5.676   2.033   5.818  1.5234  0.3178  0.2218
  121NASP    CB    7   5.529   2.119   5.694 -0.0584  0.5036  0.8294
  121NASP   HB1    8   5.449   2.075   5.753  0.9489  0.1912  1.9885
  121NASP   HB2    9   5.511   2.117   5.586 -0.1198 -1.3802  0.8517
  121NASP    CG   10   5.554   2.263   5.727  0.0651  0.1633 -0.4886
  121NASP   OD1   11   5.456   2.342   5.715 -0.2974 -0.1725 -0.3260
  121NASP   OD2   12   5.669   2.305   5.752  0.1337  0.1899  0.0543
  121NASP     C   13   5.623   1.877   5.671 -0.8873 -0.3935 -0.4317
  121NASP     O   14   5.610   1.844   5.555 -0.2323 -0.1598 -0.5698
  122ASN      N   15   5.604   1.785   5.766 -0.2012 -0.3355  0.6293
  122ASN      H   16   5.609   1.817   5.861  0.5410  0.9967  0.1675
  122ASN     CA   17   5.605   1.643   5.744 -0.3168  0.5366  0.1065
  122ASN     HA   18   5.593   1.614   5.640  1.5827  3.0577 -0.8971
  122ASN     CB   19   5.753   1.599   5.785  0.3362  0.9162  0.5042
  122ASN    HB1   20   5.774   1.640   5.883 -1.4250  1.2016  0.7851
  122ASN    HB2   21   5.826   1.644   5.718  0.0415  2.1345  0.9824
  122ASN     CG   22   5.777   1.451   5.764 -0.2068 -0.7686 -0.6635
  122ASN    OD1   23   5.694   1.382   5.712 -0.2592 -0.3547 -0.4280
  122ASN    ND2   24   5.893   1.404   5.793 -0.0996  0.2026 -0.6776
  122ASN   HD21   25   5.910   1.311   5.758  0.7168 -0.0940  0.4612
  122ASN   HD22   26   5.962   1.470   5.825 -1.2567  0.3362  1.7708
  122ASN      C   27   5.503   1.563   5.828  0.2075 -0.4980 -0.1370
  122ASN      O   28   5.507   1.554   5.950  0.0753  0.4841 -0.1473
  123GLU      N   29   5.405   1.506   5.757 -0.3516  0.4370 -0.3597
  123GLU      H   30   5.401   1.520   5.657 -0.2546 -2.2586 -0.8346
  123GLU     CA   31   5.292   1.435   5.806 -0.4747  0.4071  0.1511
  123GLU     HA   32   5.264   1.470   5.906 -0.0554  3.5803 -0.7137
  123GLU     CB   33   5.168   1.458   5.714  0.9574  0.3723 -0.0118
  123GLU    HB1   34   5.080   1.414   5.760  1.7631  1.4944  2.8170
  123GLU    HB2   35   5.184   1.416   5.614  3.5657  0.1218  0.4359
  123GLU     CG   36   5.127   1.602   5.699 -0.4208 -0.3247 -0.1241
  123GLU    HG1   37   5.214   1.655   5.661 -0.7859  1.2267  1.1247
  123GLU    HG2   38   5.109   1.642   5.799  0.0437  0.2037 -0.2498
  123GLU     CD   39   5.007   1.627   5.603 -0.3052 -0.5019 -0.1170
  123GLU    OE1   40   5.013   1.715   5.514 -0.8087  0.1246 -0.0636
  123GLU    OE2   41   4.904   1.559   5.608 -0.1293 -0.1895  0.8055
  123GLU      C   42   5.323   1.288   5.824 -0.3059 -0.2278 -0.5854
  123GLU      O   43   5.228   1.208   5.811 -0.4984 -0.1335  0.1431
  124ALA      N   44   5.449   1.251   5.847  0.3175  0.3384  0.0914
  124ALA      H   45   5.515   1.327   5.852 -0.0744  0.8696 -1.9755
  124ALA     CA   46   5.481   1.114   5.877 -0.4842  0.4272  0.6372
  124ALA     HA   47   5.400   1.067   5.933 -1.0543 -0.7446 -1.0711
  124ALA     CB   48   5.505   1.040   5.742  0.4471 -0.2096  0.1258
  124ALA    HB1   49   5.529   0.936   5.766  2.1018 -0.1273 -0.9470
  124ALA    HB2   50   5.593   1.087   5.697 -0.7731 -1.5881 -4.1469
  124ALA    HB3   51   5.418   1.045   5.677  0.4072 -0.6615  0.1372
  124ALA      C   52   5.608   1.102   5.973  0.3745 -1.2349  1.0095
  124ALA      O   53   5.659   1.213   6.005  0.0806  0.2796  0.2643
  125TYR      N   54   5.658   0.983   6.001 -0.4881 -0.0496 -0.2725
  125TYR      H   55   5.607   0.907   5.958 -1.7449  1.0684 -0.8203
  125TYR     CA   56   5.775   0.956   6.079  0.4210 -0.3825 -0.1696
  125TYR     HA   57   5.764   1.023   6.164 -3.1588  0.7388 -1.3491
  125TYR     CB   58   5.754   0.817   6.139 -0.2902  0.0781  0.4749
  125TYR    HB1   59   5.733   0.761   6.048 -0.8313  0.4916  0.3349
  125TYR    HB2   60   5.660   0.814   6.195 -1.3342  1.1943 -1.0938
  125TYR     CG   61   5.875   0.759   6.205  0.1670 -0.2634 -0.2309
  125TYR    CD1   62   5.911   0.817   6.330  0.5786  0.0704 -0.6339
  125TYR    HD1   63   5.848   0.890   6.379  1.8780  1.0780 -0.4180
  125TYR    CE1   64   6.031   0.794   6.387 -0.8641  0.6696  0.2176
  125TYR    HE1   65   6.065   0.853   6.471 -0.6977  2.0981 -0.8183
  125TYR     CZ   66   6.117   0.702   6.332 -0.4728 -0.1951 -0.5099
  125TYR     OH   67   6.240   0.665   6.389  0.1119 -0.5962 -0.5320
  125TYR     HH   68   6.243   0.715   6.471  1.2060 -1.2822 -0.1367
  125TYR    CE2   69   6.080   0.629   6.218 -0.2592 -0.0750 -0.2764
  125TYR    HE2   70   6.147   0.558   6.172  1.2343  0.8610  0.3762
  125TYR    CD2   71   5.961   0.661   6.152  0.1197 -0.2222 -0.8856
  125TYR    HD2   72   5.933   0.617   6.058 -0.9140  0.2176 -0.8031
  125TYR      C   73   5.905   0.974   6.001  0.2172 -0.4793 -0.6371
  125TYR      O   74   5.914   0.963   5.879  0.0991  0.0657 -0.3220
  126GLU      N   75   6.015   1.009   6.071 -0.1137  0.3606 -0.3351
  126GLU      H   76   6.006   1.025   6.171  2.0133 -3.4986  0.7051
  126GLU     CA   77   6.146   1.038   6.009  0.6895 -0.0305  0.6926
  126GLU     HA   78   6.154   0.992   5.911  1.4750  0.7898  0.3492
  126GLU     CB   79   6.150   1.193   5.995  0.0305  0.2179  0.4547
  126GLU    HB1   80   6.189   1.248   6.081 -0.7766  0.6347  0.5564
  126GLU    HB2   81   6.049   1.226   5.974  0.3225  0.2875 -0.9083
  126GLU     CG   82   6.241   1.237   5.889 -0.9041  0.7383  0.0818
  126GLU    HG1   83   6.211   1.197   5.792 -4.4589  0.1006  1.3079
  126GLU    HG2   84   6.338   1.194   5.915 -2.0404 -2.0575  0.0517
  126GLU     CD   85   6.251   1.389   5.883 -0.2036  0.0228 -0.6567
  126GLU    OE1   86   6.363   1.441   5.883  0.1415 -0.4410 -0.1312
  126GLU    OE2   87   6.152   1.464   5.890 -0.4991 -0.0088  0.2795
  126GLU      C   88   6.262   0.995   6.095  0.6318 -0.0705  0.2704
  126GLU      O   89   6.267   1.028   6.211  0.5412  0.0545  0.7598
  127MET      N   90   6.347   0.912   6.035 -0.5810  0.5440 -0.4604
  127MET      H   91   6.336   0.892   5.936 -3.3616 -1.2557  0.1264
  127MET     CA   92   6.466   0.849   6.098  0.7320  0.4107 -0.3778
  127MET     HA   93   6.444   0.823   6.202  2.5145  2.5544  0.6173
  127MET     CB   94   6.503   0.720   6.025  0.7273 -0.5918  0.5587
  127MET    HB1   95   6.588   0.672   6.072 -0.0221 -2.8240 -0.2368
  127MET    HB2   96   6.519   0.742   5.919  1.8727 -0.0451  0.8395
  127MET     CG   97   6.389   0.624   6.031  0.6967  0.3514 -0.3480
  127MET    HG1   98   6.302   0.665   5.980 -1.7707 -2.9644  0.8513
  127MET    HG2   99   6.366   0.605   6.136 -0.6168 -0.4741 -0.7475
  127MET     SD  100   6.448   0.468   5.967  0.4446  0.2980  0.3273
  127MET     CE  101   6.301   0.377   5.944  0.6014 -0.1612 -0.5185
  127MET    HE1  102   6.324   0.279   5.900 -0.2507 -0.2338 -0.8336
  127MET    HE2  103   6.239   0.434   5.874  2.5233 -0.1704 -2.3424
  127MET    HE3  104   6.251   0.362   6.039 -0.7308  1.5994 -0.8989
  127MET      C  105   6.594   0.943   6.128 -0.5404 -0.2349  0.2894
  127MET      O  106   6.618   1.041   6.057 -0.0259  0.7453 -0.2960
  128PRO      N  107   6.674   0.901   6.229 -0.1352  0.3306  0.6114
  128PRO     CD  108   6.652   0.789   6.318  0.1341  0.0738  0.7087
  128PRO    HD1  109   6.675   0.697   6.264  0.4555  0.0882  0.8208
  128PRO    HD2  110   6.552   0.781   6.360 -0.6295  2.3557 -0.5252
  128PRO     CG  111   6.737   0.811   6.451 -0.5231  0.4595  0.3821
  128PRO    HG1  112   6.802   0.723   6.447 -2.0737 -0.6818 -1.4521
  128PRO    HG2  113   6.675   0.816   6.540  0.2973 -0.1621  1.0015
  128PRO     CB  114   6.825   0.938   6.422  0.7652 -0.6140 -0.1561
  128PRO    HB1  115   6.791   1.021   6.484  1.9223  0.7715 -1.2991
  128PRO    HB2  116   6.929   0.923   6.449  0.3488 -1.3396  1.1181
  128PRO     CA  117   6.796   0.969   6.269 -0.2857 -0.4943  0.1428
  128PRO     HA  118   6.772   1.075   6.260 -1.2455 -0.6972  0.1238
  128PRO      C  119   6.920   0.928   6.180  0.0723  0.0251 -0.3061
  128PRO      O  120   6.915   0.824   6.113 -0.5409 -0.2277 -0.3195
  129SER      N  121   7.019   1.018   6.165  0.1628 -0.1068 -0.2813
  129SER      H  122   7.012   1.102   6.221 -0.2428 -0.3444  0.0400
  129SER     CA  123   7.133   1.001   6.075 -0.6704  0.4056  0.0425
  129SER     HA  124   7.092   0.975   5.978 -0.1755 -3.1648  0.6300
  129SER     CB  125   7.215   1.122   6.052 -0.7741 -1.1344  0.6771
  129SER    HB1  126   7.153   1.200   6.010 -1.0707 -1.2037  0.9811
  129SER    HB2  127   7.291   1.086   5.983  0.3606  1.1281  0.6616
  129SER     OG  128   7.297   1.161   6.159 -0.2042  0.1490  0.2974
  129SER    HG1  129   7.366   1.215   6.120  1.4787 -3.3100 -2.1116
  129SER      C  130   7.228   0.887   6.119 -0.0376 -0.8501  1.0425
  129SER      O  131   7.268   0.879   6.235 -0.7704  0.2069  0.7361
  130GLU      N  132   7.267   0.796   6.028  0.1138  0.2830 -0.0219
  130GLU      H  133   7.228   0.808   5.935 -0.1333 -0.1854  0.0160
  130GLU     CA  134   7.331   0.670   6.052 -0.1982  0.3344  0.1550
  130GLU     HA  135   7.275   0.626   6.134 -0.3022  1.2928  0.6193
  130GLU     CB  136   7.333   0.591   5.923  0.0052  0.0095  0.7508
  130GLU    HB1  137   7.391   0.500   5.937 -1.5871 -1.1382  0.2938
  130GLU    HB2  138   7.387   0.646   5.847  1.0499 -1.4509  0.3914
  130GLU     CG  139   7.194   0.552   5.866  0.4545 -0.6193 -0.0625
  130GLU    HG1  140   7.148   0.642   5.824 -0.6838 -1.0882  0.1365
  130GLU    HG2  141   7.124   0.523   5.944  0.1231 -0.2078 -0.1970
  130GLU     CD  142   7.204   0.464   5.746 -0.2650 -0.3547 -0.2572
  130GLU    OE1  143   7.184   0.504   5.633 -0.6339 -0.3326  0.6725
  130GLU    OE2  144   7.239   0.346   5.764  0.5398  0.0010 -0.1769
  130GLU      C  145   7.472   0.686   6.097  0.6044 -0.9427 -0.6301
  130GLU      O  146   7.525   0.598   6.170  0.4322  0.3956  0.4267
  131GLU      N  147   7.532   0.805   6.068  0.4577  0.4558 -0.9425
  131GLU      H  148   7.490   0.867   6.000 -1.9746 -1.2183 -1.0795
  131GLU     CA  149   7.658   0.842   6.135 -0.2488 -0.7623  1.0672
  131GLU     HA  150   7.744   0.784   6.101 -1.9551 -1.8633 -1.7787
  131GLU     CB  151   7.699   0.991   6.093  0.5045  0.9799  0.8989
  131GLU    HB1  152   7.742   1.045   6.177  0.4005  0.6297  1.1780
  131GLU    HB2  153   7.605   1.037   6.066  0.2285  0.0035  0.1223
  131GLU     CG  154   7.793   0.987   5.972 -0.3275  0.4286  0.1459
  131GLU    HG1  155   7.741   0.947   5.885  1.1164  0.4018 -0.7278
  131GLU    HG2  156   7.883   0.929   5.993 -0.5862 -0.0307 -0.0106
  131GLU     CD  157   7.842   1.124   5.926 -0.3991  0.0190 -0.1897
  131GLU    OE1  158   7.946   1.129   5.850 -0.0766  0.1773  0.2704
  131GLU    OE2  159   7.782   1.226   5.963  0.6473 -0.2424 -0.2295
  131GLU      C  160   7.657   0.828   6.287  0.2074  0.2917  0.5256
  131GLU      O  161   7.765   0.805   6.342  0.1656  0.6498 -0.4619
  132GLY      N  162   7.542   0.828   6.351  0.5020 -0.1470 -0.1130
  132GLY      H  163   7.461   0.829   6.290 -0.3117 -1.0317  0.9169
  132GLY     CA  164   7.527   0.800   6.494 -0.2719  0.0280 -0.0308
  132GLY    HA1  165   7.433   0.841   6.531 -0.2554 -0.0322  0.0781
  132GLY    HA2  166   7.604   0.856   6.547  0.3215  1.0305 -1.8498
  132GLY      C  167   7.542   0.655   6.548 -0.4944  0.4546 -0.0331
  132GLY      O  168   7.563   0.643   6.670 -0.1954  0.0130  0.9490
  133TYR      N  169   7.537   0.549   6.472 -0.0900 -0.3581 -0.0995
  133TYR      H  170   7.514   0.567   6.375 -0.4235  0.0766  0.0555
  133TYR     CA  171   7.547   0.413   6.521 -0.2605 -0.0245 -0.0778
  133TYR     HA  172   7.500   0.413   6.619 -2.3394  1.5224 -1.0042
  133TYR     CB  173   7.470   0.321   6.427 -0.2502  0.9854  0.2225
  133TYR    HB1  174   7.460   0.225   6.479 -2.8330  2.2022  2.1789
  133TYR    HB2  175   7.532   0.321   6.337 -0.7218  2.1460 -0.1117
  133TYR     CG  176   7.329   0.376   6.395  0.3060 -0.5757 -0.2307
  133TYR    CD1  177   7.269   0.347   6.270  0.7098 -0.4263  0.0082
  133TYR    HD1  178   7.333   0.302   6.195  0.3871  0.0317 -0.5482
  133TYR    CE1  179   7.136   0.372   6.248  0.7219 -0.0999 -0.0624
  133TYR    HE1  180   7.099   0.352   6.148  0.1717  1.2042 -0.1377
  133TYR     CZ  181   7.061   0.439   6.355  0.1231  0.7395  0.6001
  133TYR     OH  182   6.935   0.487   6.319  0.1759 -0.4970 -0.5650
  133TYR     HH  183   6.912   0.464   6.228  0.3154 -3.1257 -0.0219
  133TYR    CE2  184   7.117   0.460   6.488 -0.2783  0.7621 -0.2410
  133TYR    HE2  185   7.059   0.508   6.566 -3.3782 -2.3527 -0.3486
  133TYR    CD2  186   7.251   0.426   6.504 -0.2505  0.2293 -0.4774
  133TYR    HD2  187   7.296   0.441   6.601 -0.7847 -1.3216  0.0414
  133TYR      C  188   7.690   0.369   6.535  0.9032  0.1173 -0.4430
  133TYR      O  189   7.720   0.256   6.501  0.1896  0.2442  0.6124
  134GLN      N  190   7.777   0.460   6.583  0.0760  0.1077  0.5987
  134GLN      H  191   7.735   0.547   6.611 -1.5578 -0.1463 -0.9067
  134GLN     CA  192   7.921   0.443   6.593 -0.1279 -0.0832 -0.3371
  134GLN     HA  193   7.964   0.426   6.495  2.1654  2.6322  0.0518
  134GLN     CB  194   7.975   0.576   6.641  0.0637  0.1449  0.3428
  134GLN    HB1  195   7.933   0.661   6.587  1.0389  0.9401  0.7897
  134GLN    HB2  196   8.084   0.578   6.636  0.0088  1.5172 -1.7854
  134GLN     CG  197   7.949   0.611   6.785 -0.2282 -0.2667 -0.5519
  134GLN    HG1  198   7.996   0.538   6.851  0.9804  1.2202  0.2978
  134GLN    HG2  199   7.842   0.611   6.804 -0.4714  1.3868 -1.7018
  134GLN     CD  200   7.989   0.752   6.832  0.0029 -0.1130 -0.7418
  134GLN    OE1  201   8.060   0.818   6.758  0.0809  0.0248 -0.0285
  134GLN    NE2  202   7.955   0.794   6.955  0.5885 -0.4220 -0.1019
  134GLN   HE21  203   7.982   0.887   6.985  3.1406 -1.6887  2.0381
  134GLN   HE22  204   7.910   0.739   7.027  0.5262  1.6623  1.5638
  134GLN      C  205   7.984   0.331   6.678  0.6542 -0.1351  0.3633
  134GLN      O  206   7.911   0.289   6.774 -0.5343  0.2268  0.2467
  135ASP      N  207   8.114   0.293   6.649 -0.3538 -0.3224  0.0973
  135ASP      H  208   8.164   0.339   6.575 -2.4677  0.0273 -1.1988
  135ASP     CA  209   8.187   0.211   6.740  0.9370 -0.1256  0.1207
  135ASP     HA  210   8.119   0.153   6.803  0.0728 -0.3697 -1.0173
  135ASP     CB  211   8.277   0.111   6.667 -0.2555  0.0078 -0.2590
  135ASP    HB1  212   8.206   0.037   6.629  0.6052 -0.9529 -0.0544
  135ASP    HB2  213   8.340   0.053   6.735 -1.0907  1.2289  1.6386
  135ASP     CG  214   8.361   0.154   6.540  0.5614 -0.0957 -0.4785
  135ASP    OD1  215   8.336   0.258   6.473 -0.2722 -0.4555  0.2760
  135ASP    OD2  216   8.444   0.077   6.492 -0.0944  0.7217 -0.5727
  135ASP      C  217   8.266   0.296   6.842  0.9127 -0.1624 -0.2177
  135ASP      O  218   8.275   0.418   6.819  0.4835  0.3906 -0.0451
  136TYR      N  219   8.330   0.231   6.937  0.9187  0.2934  0.1376
  136TYR      H  220   8.323   0.130   6.927 -1.6281  0.3709  0.5703
  136TYR     CA  221   8.408   0.291   7.049 -0.7267  1.0591  0.0920
  136TYR     HA  222   8.426   0.392   7.014 -0.0888  1.0011  0.2453
  136TYR     CB  223   8.330   0.293   7.174 -1.1416 -0.4556 -0.8210
  136TYR    HB1  224   8.389   0.328   7.259 -0.1925  2.0824 -2.3944
  136TYR    HB2  225   8.303   0.191   7.201 -0.0534 -0.0992  1.9079
  136TYR     CG  226   8.201   0.375   7.169 -0.5713 -0.7685  0.8089
  136TYR    CD1  227   8.202   0.510   7.200 -0.0125  0.0014  0.5296
  136TYR    HD1  228   8.288   0.564   7.237 -1.0124  1.2934  1.0221
  136TYR    CE1  229   8.088   0.583   7.180  0.8434  0.3636 -0.5708
  136TYR    HE1  230   8.085   0.687   7.208 -0.9857 -0.1173  1.3007
  136TYR     CZ  231   7.964   0.519   7.150  0.1031  0.2630 -1.1526
  136TYR     OH  232   7.856   0.591   7.118  0.0077 -0.7110 -0.3523
  136TYR     HH  233   7.775   0.541   7.110 -0.1378 -0.5224 -0.0961
  136TYR    CE2  234   7.957   0.381   7.146 -0.0520  0.0522  0.3694
  136TYR    HE2  235   7.862   0.336   7.121  0.3582 -0.3386 -0.5522
  136TYR    CD2  236   8.081   0.307   7.138  0.5148 -0.0950  1.0867
  136TYR    HD2  237   8.084   0.206   7.099  0.4743 -0.3942  1.8422
  136TYR      C  238   8.548   0.215   7.055 -0.2832  0.3078 -0.4211
  136TYR      O  239   8.557   0.099   7.023 -0.6557 -0.0044 -0.1190
  137GLU      N  240   8.648   0.294   7.096  0.7910 -0.3061  0.2599
  137GLU      H  241   8.626   0.389   7.123 -2.1813 -1.1581  1.2557
  137GLU     CA  242   8.789   0.247   7.099 -0.6858  0.0953  0.7242
  137GLU     HA  243   8.814   0.213   6.998 -1.0559 -0.7436  0.9062
  137GLU     CB  244   8.898   0.351   7.145 -0.2506  0.2600 -0.2213
  137GLU    HB1  245   8.983   0.294   7.183 -0.6733  0.5225  1.2051
  137GLU    HB2  246   8.846   0.405   7.225  0.3823 -0.8753  1.0097
  137GLU     CG  247   8.938   0.449   7.040 -0.6944  0.2613  0.7841
  137GLU    HG1  248   8.837   0.478   7.013 -1.5006 -4.2337 -2.0913
  137GLU    HG2  249   8.998   0.399   6.964  0.7560 -0.1570  2.1358
  137GLU     CD  250   9.019   0.563   7.096  0.0160 -0.0278  0.2797
  137GLU    OE1  251   9.125   0.604   7.040 -0.4224  0.8656 -0.4175
  137GLU    OE2  252   8.967   0.634   7.187 -0.0028 -0.0548  0.0709
  137GLU      C  253   8.799   0.119   7.185  0.0889  0.5869  0.2644
  137GLU      O  254   8.729   0.110   7.284  0.8176 -0.5122  0.2367
  138PRO      N  255   8.885   0.019   7.148 -0.3324  0.2845  0.1447
  138PRO     CD  256   8.961   0.015   7.016 -0.2831 -0.9309 -0.0794
  138PRO    HD1  257   9.027   0.101   7.010 -1.3439 -0.2010 -2.9711
  138PRO    HD2  258   8.890   0.015   6.933  0.7688 -0.4278 -0.9955
  138PRO     CG  259   9.033  -0.117   7.028 -0.4918  0.2392 -0.2542
  138PRO    HG1  260   9.129  -0.095   7.074 -0.0949  1.3439 -1.5370
  138PRO    HG2  261   9.043  -0.174   6.936  2.2138  1.8745 -1.1038
  138PRO     CB  262   8.961  -0.200   7.127 -0.3146 -0.0434  0.6052
  138PRO    HB1  263   8.878  -0.259   7.090 -0.9665  0.4924  1.1939
  138PRO    HB2  264   9.038  -0.266   7.167 -0.7136 -0.7763  0.1872
  138PRO     CA  265   8.912  -0.100   7.229  0.1322  0.8719  0.0305
  138PRO     HA  266   8.817  -0.134   7.271  0.4270  0.8004  0.6553
  138PRO      C  267   9.011  -0.083   7.348  0.4045 -0.7246  0.4347
  138PRO      O  268   9.074   0.021   7.362 -0.8217  0.3548 -0.2523
  139GLU      N  269   9.022  -0.183   7.434  0.1475  0.4320  0.0285
  139GLU      H  270   8.966  -0.267   7.427 -0.7759  0.9457  0.8817
  139GLU     CA  271   9.116  -0.195   7.542  0.6597 -0.1278  0.6397
  139GLU     HA  272   9.122  -0.105   7.603  1.0485 -0.0601  0.5092
  139GLU     CB  273   9.083  -0.315   7.643 -0.3273  0.4685 -0.0207
  139GLU    HB1  274   9.178  -0.346   7.686 -0.2328 -1.5227 -1.5583
  139GLU    HB2  275   9.046  -0.398   7.584  0.8281 -0.5282  0.6172
  139GLU     CG  276   8.981  -0.281   7.757  0.7246 -0.5421 -0.2433
  139GLU    HG1  277   8.879  -0.274   7.717 -0.0774  1.2760  1.9017
  139GLU    HG2  278   9.005  -0.180   7.790 -1.7404  0.0284  0.0547
  139GLU     CD  279   8.981  -0.374   7.876  0.5433 -0.4451 -0.0936
  139GLU    OE1  280   8.933  -0.334   7.983  0.2110  0.1357  0.1837
  139GLU    OE2  281   9.040  -0.482   7.868  0.2273  0.0530 -0.4149
  139GLU      C  282   9.261  -0.217   7.479  0.6362  0.4592  0.5462
  139GLU      O  283   9.288  -0.311   7.397 -0.0549 -0.1221  0.2608
  140CALA     N  284   9.353  -0.134   7.528  0.2966 -0.2581 -0.5498
  140CALA     H  285   9.322  -0.079   7.607 -0.6677 -1.0852 -0.3340
  140CALA    CA  286   9.495  -0.135   7.483 -0.7225 -0.4511  0.5149
  140CALA    HA  287   9.522  -0.240   7.471  0.9392  0.0987 -1.1034
  140CALA    CB  288   9.500  -0.063   7.344 -0.4087 -0.5096  0.5612
  140CALA   HB1  289   9.439  -0.107   7.266  1.9161 -0.4918 -1.3867
  140CALA   HB2  290   9.601  -0.062   7.303 -0.4299  0.6209  0.5012
  140CALA   HB3  291   9.479   0.043   7.359  1.1968 -0.0716 -0.0155
  140CALA     C  292   9.598  -0.078   7.589 -0.9338  1.1886  0.0583
  140CALA   OC1  293   9.554  -0.018   7.684  0.5271 -0.4031 -0.0352
  140CALA   OC2  294   9.721  -0.094   7.563  0.2118  0.4258  0.4967
  141FAS      C  295   5.611   3.663   0.103 -0.3881 -0.3819 -0.2654
  141FAS     C1  296   5.494   3.761   0.069 -0.1762  0.0874 -0.4272
  141FAS      N  297   5.431   3.728  -0.075 -0.8045  0.2387 -0.3089
  141FAS     C2  298   5.390   3.581  -0.089 -0.2215  0.3105  0.3218
  141FAS     C3  299   5.377   3.493   0.035  0.1645 -0.1873  0.3814
  141FAS     N1  300   5.505   3.448   0.088 -0.6982  0.6176  0.5017
  141FAS     C4  301   5.572   3.540   0.181 -0.4722  0.5879 -0.2156
  141FAS      S  302   5.575   3.319  -0.005 -0.2215 -0.2770 -0.1702
  141FAS      O  303   5.478   3.213   0.019 -0.2717  0.3712  0.1050
  141FAS     O1  304   5.603   3.378  -0.133 -0.2573  0.0328  0.2149
  141FAS     C5  305   5.720   3.282   0.088 -0.0078  0.2139 -0.4406
  141FAS     C6  306   5.842   3.298   0.019  1.0195 -0.2475 -0.0708
  141FAS     C7  307   5.963   3.268   0.078  0.1899  0.4878  0.4518
  141FAS     C8  308   5.968   3.204   0.204  0.3805  0.3402  0.4325
  141FAS     C9  309   5.844   3.173   0.272  0.2341  0.2460  0.3001
  141FAS    C10  310   5.717   3.223   0.218  0.2067  0.3033 -0.2646
  141FAS    C11  311   5.598   3.200   0.292 -0.1914 -0.1247  0.8720
  141FAS    C12  312   5.605   3.121   0.407  0.1451  0.3015  0.8358
  141FAS     N2  313   5.718   3.067   0.454  0.6447 -0.5314 -0.3186
  141FAS    C13  314   5.837   3.101   0.392 -0.1604 -0.1863  0.8469
  141FAS      H  315   5.679   3.719   0.168 -0.7279  0.3244 -0.5165
  141FAS     H1  316   5.675   3.636   0.018 -0.4448  1.8579 -1.0696
  141FAS     H2  317   5.516   3.868   0.063  2.1739 -0.2303  1.2389
  141FAS     H3  318   5.419   3.757   0.148  0.3666  0.2848  0.1048
  141FAS     H4  319   5.348   3.782  -0.101 -3.3762 -2.2769  2.0289
  141FAS     H5  320   5.462   3.536  -0.157  0.0622  1.0932  0.0946
  141FAS     H6  321   5.304   3.587  -0.155  0.2448  0.9658 -0.2446
  141FAS     H7  322   5.314   3.407   0.007 -0.2776  0.8351 -2.0305
  141FAS     H8  323   5.320   3.547   0.111 -2.4602 -3.0086  0.6159
  141FAS     H9  324   5.669   3.497   0.209 -0.5292 -0.4907 -1.5826
  141FAS    H10  325   5.510   3.563   0.269 -1.0870 -0.6625 -0.3034
  141FAS    H11  326   5.840   3.345  -0.079 -2.7461  1.7119  0.7886
  141FAS    H12  327   6.052   3.285   0.017  0.6475 -3.7029 -0.3620
  141FAS    H13  328   6.067   3.194   0.247  0.7428  1.1182 -0.2046
  141FAS    H14  329   5.498   3.234   0.267 -0.0824 -1.9728 -2.6503
  141FAS    H15  330   5.514   3.082   0.453 -0.5663 -0.3635 -1.0177
  141FAS    H16  331   5.932   3.068   0.436  0.6996  2.5457  1.2313
  141FAS    H17  332   5.500   3.754  -0.148 -0.8933 -0.2232 -0.5591
  142SOL     OW  333   0.175   2.850   0.900  0.1754  0.2718 -0.5375
  142SOL    HW2  334   0.263   2.833   0.867  0.2455  1.1535 -0.8282
  142SOL    HW3  335   0.129   2.891   0.827  0.1509  1.7181  0.2428
  142SOL    MW4  336   0.181   2.853   0.886  0.1814  0.5789 -0.4729
  143SOL     OW  337   4.913   2.707   1.303  0.9018  0.1045  0.1146
  143SOL    HW2  338   4.952   2.733   1.220  1.4646 -0.2320  0.2697
  143SOL    HW3  339   4.921   2.611   1.304  1.7029  0.1766  0.9528
  143SOL    MW4  340   4.919   2.698   1.292  1.0817  0.0696  0.2456
  144SOL     OW  341   0.050   3.195   0.454 -0.2921 -0.7525  0.6095
  144SOL    HW2  342  -0.038   3.206   0.491  0.5153  0.9283  2.2580
  144SOL    HW3  343   0.035   3.175   0.362 -2.4086 -0.0578  0.7255
  144SOL    MW4  344   0.036   3.194   0.447 -0.4648 -0.4390  0.8423
  145SOL     OW  345   1.898   1.225   3.394  0.3175  0.0379 -0.4570
  145SOL    HW2  346   1.992   1.231   3.409  0.2596  1.5998 -0.5947
  145SOL    HW3  347   1.860   1.287   3.457 -0.4834  0.7312 -1.5944
  145SOL    MW4  348   1.905   1.234   3.404  0.2042  0.3355 -0.6252
  146SOL     OW  349   1.399   6.425   0.910 -0.6373 -0.0525  0.0910
  146SOL    HW2  350   1.388   6.519   0.928 -0.4976  0.5659 -2.6381
  146SOL    HW3  351   1.488   6.418   0.875 -1.9166 -0.4448 -3.4544
  146SOL    MW4  352   1.409   6.437   0.908 -0.7877 -0.0227 -0.7368
  147SOL     OW  353   0.504   3.747   2.228 -0.1848  0.0189  0.3251
  147SOL    HW2  354   0.580   3.690   2.213  0.8989  1.4415  0.1770
  147SOL    HW3  355   0.430   3.698   2.191  0.4361 -1.9025  1.4857
  147SOL    MW4  356   0.505   3.733   2.221  0.0401 -0.0469  0.4586
  148SOL     OW  357   1.573   5.596   2.328 -0.4135  0.2531  0.1047
  148SOL    HW2  358   1.648   5.582   2.385  1.5508 -0.8367 -2.5207
  148SOL    HW3  359   1.600   5.665   2.268 -0.9534 -0.9609 -1.6515
  148SOL    MW4  360   1.586   5.603   2.327 -0.2255 -0.0509 -0.4734
  149SOL     OW  361   4.132   3.476   5.649 -0.3814 -0.2096  0.0641
  149SOL    HW2  362   4.116   3.389   5.687  0.8528 -0.7155 -0.5066
  149SOL    HW3  363   4.166   3.527   5.722 -1.3298 -0.1163  0.4611
  149SOL    MW4  364   4.134   3.471   5.663 -0.3437 -0.2641  0.0411
  150SOL     OW  365   3.442   1.218   0.836  0.0960 -0.4405 -0.3613
  150SOL    HW2  366   3.488   1.267   0.904  0.1741 -1.1263  0.0935
  150SOL    HW3  367   3.388   1.155   0.884 -1.2688  0.2799 -0.8854
  150SOL    MW4  368   3.441   1.216   0.851 -0.0738 -0.4359 -0.3704
  151SOL     OW  369   0.917   5.090   3.744  0.0907  0.5154 -0.4329
  151SOL    HW2  370   0.871   5.012   3.777 -0.9942  1.2292 -0.2104
  151SOL    HW3  371   0.954   5.062   3.660 -0.2686 -0.2435 -0.3494
  151SOL    MW4  372   0.916   5.076   3.737 -0.0998  0.5094 -0.3925
  152SOL     OW  373   2.883   5.224   1.173  0.6673 -0.2613  0.3111
  152SOL    HW2  374   2.920   5.311   1.189 -0.4054 -0.1984  2.9979
  152SOL    HW3  375   2.789   5.236   1.184  0.4295 -1.6198 -0.0710
  152SOL    MW4  376   2.875   5.237   1.176  0.4944 -0.4322  0.6152
  153SOL     OW  377   0.425   3.173   5.718  0.7783  0.2388  0.0128
  153SOL    HW2  378   0.467   3.159   5.803 -0.3549 -2.0779  0.2729
  153SOL    HW3  379   0.340   3.212   5.739  0.9652  0.7653 -0.1774
  153SOL    MW4  380   0.419   3.176   5.732  0.6535  0.0026  0.0221
  154SOL     OW  381   0.410   4.226   5.358 -0.7991  0.5418  0.0076
  154SOL    HW2  382   0.396   4.258   5.269 -1.6034  1.7391  0.5470
  154SOL    HW3  383   0.391   4.301   5.415 -0.3088 -0.1984  1.1946
  154SOL    MW4  384   0.405   4.240   5.354 -0.8406  0.6021  0.2354
  155SOL     OW  385   6.363   3.717   2.358 -0.6846  0.3320  0.4954
  155SOL    HW2  386   6.330   3.656   2.425  0.3997 -2.0113 -0.9919
  155SOL    HW3  387   6.327   3.683   2.276  2.3256 -0.1726 -0.7459
  155SOL    MW4  388   6.354   3.704   2.356 -0.1443 -0.0437  0.1354
  156SOL     OW  389   4.135   0.694   4.421  0.2004  0.3693 -0.2783
  156SOL    HW2  390   4.199   0.641   4.468  1.1769  2.3403  0.7229
  156SOL    HW3  391   4.174   0.709   4.335  0.1582 -0.0550 -0.3760
  156SOL    MW4  392   4.148   0.689   4.416  0.3237  0.5734 -0.1591
  157SOL     OW  393   1.101   1.733   4.616 -0.0978  0.0292 -0.0870
  157SOL    HW2  394   1.189   1.725   4.653  1.1793  2.1929 -2.3028
  157SOL    HW3  395   1.085   1.828   4.615 -1.9690 -0.2610 -0.8099
  157SOL    MW4  396   1.111   1.745   4.621 -0.1762  0.2764 -0.4747
  158SOL     OW  397   2.898   5.379   2.717  0.0915 -0.3671 -0.4235
  158SOL    HW2  398   2.990   5.375   2.690  0.6665 -0.3707  1.4153
  158SOL    HW3  399   2.886   5.469   2.746  0.3727 -1.0768  2.0731
  158SOL    MW4  400   2.908   5.390   2.717  0.2045 -0.4612  0.1485
  159SOL     OW  401   1.050   6.267   2.763  0.5547  0.2353  0.3901
  159SOL    HW2  402   1.067   6.175   2.780  1.1635  0.4359  0.9177
  159SOL    HW3  403   0.974   6.267   2.704  1.2601 -0.6263 -0.5515
  159SOL    MW4  404   1.042   6.255   2.758  0.7280  0.1481  0.3355
  160SOL     OW  405   4.640   5.166   2.674 -0.4197  0.1416 -0.3339
  160SOL    HW2  406   4.696   5.235   2.706 -0.5987  0.0343  0.2171
  160SOL    HW3  407   4.563   5.211   2.638 -0.2812  0.2529 -0.4911
  160SOL    MW4  408   4.637   5.181   2.673 -0.4250  0.1421 -0.2819
  161SOL     OW  409   2.499   4.255   1.725  0.0066 -0.2845  0.5892
  161SOL    HW2  410   2.530   4.203   1.800  0.5878 -0.7775  0.0238
  161SOL    HW3  411   2.497   4.193   1.652 -2.5080 -0.3064  0.6053
  161SOL    MW4  412   2.503   4.240   1.725 -0.2485 -0.3524  0.5167
  162SOL     OW  413   4.682   2.455   0.305 -0.1860  0.2413  0.1054
  162SOL    HW2  414   4.630   2.403   0.245  0.3118  0.9155 -0.9464
  162SOL    HW3  415   4.627   2.530   0.327  0.6719  1.5372 -1.8837
  162SOL    MW4  416   4.668   2.458   0.300 -0.0071  0.5012 -0.2958
  163SOL     OW  417   5.912   4.885   1.112  0.0928 -0.4173 -0.2327
  163SOL    HW2  418   5.860   4.955   1.151  0.1165 -0.5988  0.1221
  163SOL    HW3  419   5.957   4.844   1.185  0.0003 -0.8698 -0.4253
  163SOL    MW4  420   5.911   4.889   1.126  0.0837 -0.5010 -0.2113
  164SOL     OW  421   5.252   4.810   4.618 -0.1050  0.3689  0.8743
  164SOL    HW2  422   5.343   4.832   4.601 -0.3472  0.5174 -0.3109
  164SOL    HW3  423   5.219   4.776   4.535 -1.7576  2.5503  0.5196
  164SOL    MW4  424   5.260   4.809   4.605 -0.3550  0.6763  0.6711
  165SOL     OW  425   3.990   3.262   5.285 -0.0053  0.1636  0.0128
  165SOL    HW2  426   4.050   3.214   5.342 -1.9691 -1.6373  0.7052
  165SOL    HW3  427   3.920   3.290   5.344 -0.7862  0.5453 -1.0880
  165SOL    MW4  428   3.989   3.260   5.301 -0.3674 -0.0236 -0.0411
  166SOL     OW  429   6.382   4.226   5.324 -0.5058 -0.2053 -0.2361
  166SOL    HW2  430   6.324   4.277   5.381  0.3907  0.2097  0.3255
  166SOL    HW3  431   6.445   4.290   5.291  1.5572 -1.1136  1.6367
  166SOL    MW4  432   6.382   4.241   5.328 -0.1153 -0.2704  0.0851
  167SOL     OW  433   2.629   5.919   4.797  0.1751 -0.0601  0.1070
  167SOL    HW2  434   2.562   5.851   4.784  1.4963 -1.3681 -0.1260
  167SOL    HW3  435   2.580   6.001   4.795 -1.3561 -0.9372 -0.6586
  167SOL    MW4  436   2.614   5.921   4.795  0.1474 -0.3484 -0.0248
  168SOL     OW  437   5.653   3.030   6.178 -0.9964 -0.1566 -0.3534
  168SOL    HW2  438   5.601   3.069   6.107 -0.1704  0.0950 -0.8347
  168SOL    HW3  439   5.743   3.034   6.146 -0.5819  0.1984  0.8230
  168SOL    MW4  440   5.658   3.036   6.164 -0.8328 -0.0766 -0.2617
  169SOL     OW  441   0.538   6.001   2.105 -0.2145 -0.1630  0.5007
  169SOL    HW2  442   0.478   5.927   2.093  0.7443 -1.3075  2.3609
  169SOL    HW3  443   0.614   5.980   2.052 -0.8573  0.6397 -0.7875
  169SOL    MW4  444   0.540   5.989   2.097 -0.1728 -0.2081  0.5762
  170SOL     OW  445   2.892   5.880   5.793  0.6850  0.5134  0.6784
  170SOL    HW2  446   2.922   5.970   5.776  0.6501  0.3478 -0.2739
  170SOL    HW3  447   2.806   5.891   5.834 -0.4016  0.8839 -1.5894
  170SOL    MW4  448   2.885   5.893   5.796  0.5371  0.5404  0.2536
  171SOL     OW  449   3.121   0.919   5.232  0.0708  0.3333  0.1557
  171SOL    HW2  450   3.171   0.988   5.189  0.2098 -0.0010 -0.2140
  171SOL    HW3  451   3.183   0.847   5.243 -0.0802  0.2566  0.5221
  171SOL    MW4  452   3.135   0.918   5.228  0.0692  0.2791  0.1552
  172SOL     OW  453   0.384   1.726   5.162  0.1260  0.4851 -0.2554
  172SOL    HW2  454   0.318   1.680   5.110  0.1085  0.7805 -0.4962
  172SOL    HW3  455   0.362   1.705   5.253  0.0536  0.1071 -0.3581
  172SOL    MW4  456   0.373   1.717   5.167  0.1141  0.4742 -0.3007
  173SOL     OW  457   0.986   5.767   0.109 -0.0540 -0.4756 -0.0211
  173SOL    HW2  458   0.968   5.790   0.018 -0.5051 -0.6107  0.0328
  173SOL    HW3  459   0.905   5.789   0.155  0.6599  0.9902  0.6042
  173SOL    MW4  460   0.973   5.773   0.103 -0.0193 -0.3000  0.0685
  174SOL     OW  461   4.792   2.698   5.608  0.4230 -0.2364  0.2987
  174SOL    HW2  462   4.702   2.686   5.639  0.4086  0.5012  0.5608
  174SOL    HW3  463   4.843   2.636   5.660  0.1540 -0.2019  0.6092
  174SOL    MW4  464   4.786   2.688   5.619  0.3856 -0.1345  0.3742
  175SOL     OW  465   2.773   4.896   2.821 -0.3736  0.2258 -0.1710
  175SOL    HW2  466   2.846   4.847   2.785 -0.0554  1.0372 -0.6554
  175SOL    HW3  467   2.751   4.850   2.902  1.3552  0.5745  0.5391
  175SOL    MW4  468   2.779   4.883   2.827 -0.1035  0.3788 -0.1412
  176SOL     OW  469   2.722   0.614   2.031  0.2759  0.4284 -0.4447
  176SOL    HW2  470   2.738   0.533   2.079  0.2626  0.4360 -0.4278
  176SOL    HW3  471   2.635   0.643   2.059 -0.0244  0.0740 -0.9857
  176SOL    MW4  472   2.712   0.607   2.041  0.2345  0.3827 -0.5139
  177SOL     OW  473   2.497   5.699   5.978 -0.3981  0.1609  0.0172
  177SOL    HW2  474   2.408   5.731   5.973 -0.6380 -0.2124  1.4429
  177SOL    HW3  475   2.501   5.649   6.060  1.3994  1.0918  0.5689
  177SOL    MW4  476   2.486   5.697   5.989 -0.1926  0.2344  0.2781
  178SOL     OW  477   4.809   1.277   3.705  0.5336  0.6649 -0.4539
  178SOL    HW2  478   4.805   1.201   3.763  0.1847 -0.2709 -1.6656
  178SOL    HW3  479   4.806   1.241   3.617 -2.2456  2.1722 -1.1187
  178SOL    MW4  480   4.808   1.263   3.701  0.1209  0.7403 -0.7015
  179SOL     OW  481   0.317   3.311   2.331  0.0909 -0.0639 -0.0227
  179SOL    HW2  482   0.268   3.393   2.343 -0.6022 -0.3651 -0.7254
  179SOL    HW3  483   0.403   3.339   2.301  0.4117  0.4780  1.3110
  179SOL    MW4  484   0.322   3.326   2.329  0.0418 -0.0321  0.0605
  180SOL     OW  485   5.703   1.354   0.927 -0.5944 -0.3932 -0.0961
  180SOL    HW2  486   5.790   1.380   0.898 -1.0095  2.3953  0.8734
  180SOL    HW3  487   5.702   1.259   0.916  1.7394 -0.2876 -2.2600
  180SOL    MW4  488   5.715   1.345   0.922 -0.3412 -0.0113 -0.2537
  181SOL     OW  489   1.850   5.588   1.559  0.1545 -0.0904 -0.7044
  181SOL    HW2  490   1.935   5.551   1.582 -0.0447  0.1448  0.4776
  181SOL    HW3  491   1.794   5.568   1.634 -1.6661 -2.7210 -2.5587
  181SOL    MW4  492   1.854   5.580   1.572 -0.1120 -0.4065 -0.7931
  182SOL     OW  493   3.338   5.888   4.609 -0.6847  0.0322  0.0184
  182SOL    HW2  494   3.309   5.979   4.605  0.2371  0.3814  0.7427
  182SOL    HW3  495   3.322   5.853   4.522 -3.0930  0.2345  0.3285
  182SOL    MW4  496   3.332   5.895   4.597 -0.8808  0.1049  0.1549
  183SOL     OW  497   5.790   1.899   2.807 -0.0233 -0.1128 -0.1461
  183SOL    HW2  498   5.734   1.957   2.755  0.5403 -1.1668 -2.0170
  183SOL    HW3  499   5.879   1.930   2.791  0.1075  0.3000  1.2109
  183SOL    MW4  500   5.795   1.911   2.798  0.0683 -0.1974 -0.2139
  184SOL     OW  501   3.305   4.046   4.831  0.5573 -0.2154  0.9306
  184SOL    HW2  502   3.256   4.006   4.759  1.1519  0.0443  0.3621
  184SOL    HW3  503   3.282   3.995   4.908  0.9477 -1.3615  0.3137
  184SOL    MW4  504   3.295   4.034   4.832  0.6872 -0.3324  0.7742
  185SOL     OW  505   6.121   0.692   1.764  0.1811  0.7947 -0.2420
  185SOL    HW2  506   6.125   0.765   1.826  0.0249  1.0261 -0.5047
  185SOL    HW3  507   6.037   0.650   1.781  0.8139 -0.1069  0.7879
  185SOL    MW4  508   6.110   0.696   1.774  0.2440  0.7063 -0.1408
  186SOL     OW  509   5.937   2.548   5.394  0.3980 -0.1419  0.1484
  186SOL    HW2  510   5.941   2.642   5.414 -0.0356  0.3064 -1.6562
  186SOL    HW3  511   6.025   2.525   5.366  0.6217 -0.3904  1.0542
  186SOL    MW4  512   5.949   2.557   5.393  0.3703 -0.1156  0.0298
  187SOL     OW  513   3.260   4.074   2.374  0.5405  0.5431  0.0168
  187SOL    HW2  514   3.239   4.148   2.431  0.6819  2.4823 -2.2769
  187SOL    HW3  515   3.342   4.100   2.331  1.0599 -1.3637 -0.2215
  187SOL    MW4  516   3.268   4.087   2.376  0.6277  0.5474 -0.3173
  188SOL     OW  517   4.497   2.467   2.800  0.2184 -0.0558  0.2681
  188SOL    HW2  518   4.517   2.471   2.707  2.1362 -0.9535  0.5877
  188SOL    HW3  519   4.472   2.557   2.824 -2.3894 -0.2138 -1.4665
  188SOL    MW4  520   4.496   2.479   2.791  0.1274 -0.1951  0.0814
  189SOL     OW  521   4.888   2.240   1.013  0.2609 -0.0350  0.1920
  189SOL    HW2  522   4.970   2.240   0.963  0.1106 -0.4171 -0.0533
  189SOL    HW3  523   4.910   2.287   1.094  1.0760 -1.2413  0.6998
  189SOL    MW4  524   4.902   2.247   1.017  0.3486 -0.2446  0.2267
  190SOL     OW  525   2.708   5.826   5.554 -0.3529  0.4519 -0.7166
  190SOL    HW2  526   2.763   5.781   5.489  0.1855 -1.0795  0.7350
  190SOL    HW3  527   2.758   5.823   5.635 -2.6824 -1.4186  0.8020
  190SOL    MW4  528   2.722   5.819   5.556 -0.5892  0.0030 -0.3247
  191SOL     OW  529   1.443   3.118   1.443 -0.9051  0.6597  0.1427
  191SOL    HW2  530   1.533   3.128   1.413 -0.5654 -0.7781  0.5817
  191SOL    HW3  531   1.401   3.065   1.375 -0.8884 -0.2616  0.8321
  191SOL    MW4  532   1.450   3.112   1.430 -0.8581  0.3484  0.2916
  192SOL     OW  533   5.666   5.008   1.479  0.1699 -0.4580  0.4350
  192SOL    HW2  534   5.754   4.979   1.504  0.9271  0.8184 -0.6284
  192SOL    HW3  535   5.677   5.044   1.391 -0.9633  1.6989  1.1112
  192SOL    MW4  536   5.679   5.009   1.471  0.1203 -0.0050  0.3839
  193SOL     OW  537   4.325   1.507   2.957 -0.5826 -0.2839 -0.2789
  193SOL    HW2  538   4.385   1.484   3.028 -0.6342 -1.7522 -0.6698
  193SOL    HW3  539   4.361   1.587   2.920 -1.0156  1.0048  1.8994
  193SOL    MW4  540   4.338   1.514   2.962 -0.6465 -0.3076 -0.0431
  194SOL     OW  541   0.285   2.248   3.175 -0.4283 -0.4573 -0.2202
  194SOL    HW2  542   0.248   2.330   3.207 -0.5673 -0.7884  0.4996
  194SOL    HW3  543   0.268   2.185   3.246 -0.8963 -1.2604 -1.0181
  194SOL    MW4  544   0.278   2.250   3.189 -0.5084 -0.6069 -0.2305
  195SOL     OW  545   5.268   4.562   0.526  0.4972  0.1423 -0.3456
  195SOL    HW2  546   5.246   4.619   0.453 -1.0292 -0.4360 -0.3803
  195SOL    HW3  547   5.238   4.609   0.603 -0.1495 -0.2926 -0.3185
  195SOL    MW4  548   5.261   4.575   0.527  0.2105  0.0086 -0.3466
  196SOL     OW  549   5.671   4.977   3.009 -0.1705  0.0450 -0.0719
  196SOL    HW2  550   5.590   5.019   3.037 -1.3512 -0.9412 -1.8107
  196SOL    HW3  551   5.662   4.968   2.914  1.9098 -0.2597 -0.2903
  196SOL    MW4  552   5.659   4.981   3.000 -0.0518 -0.1253 -0.3301
  197SOL     OW  553   1.149   5.287   6.062 -0.1584 -0.1368 -0.1175
  197SOL    HW2  554   1.090   5.214   6.042 -0.0527 -1.0374  2.4729
  197SOL    HW3  555   1.213   5.286   5.992 -0.2897 -2.4312 -0.2938
  197SOL    MW4  556   1.149   5.277   6.050 -0.1618 -0.5583  0.2010
  198SOL     OW  557   1.996   1.520   2.649  1.0397  0.1981  0.8104
  198SOL    HW2  558   2.064   1.456   2.671 -0.9668 -1.9512  1.0485
  198SOL    HW3  559   1.933   1.513   2.721 -0.1332  1.1352 -0.0952
  198SOL    MW4  560   1.997   1.511   2.662  0.6202  0.0382  0.7223
  199SOL     OW  561   3.100   0.959   4.101  0.0040  0.0791  0.2918
  199SOL    HW2  562   3.051   0.909   4.167 -0.3549  0.8962  0.6577
  199SOL    HW3  563   3.060   0.935   4.018  1.1531 -1.7921  0.2083
  199SOL    MW4  564   3.088   0.949   4.099  0.1082 -0.0600  0.3291
  200SOL     OW  565   5.796   2.774   5.760  0.3065  0.8696  0.0515
  200SOL    HW2  566   5.765   2.732   5.840 -1.1596  0.1993 -0.8273
  200SOL    HW3  567   5.888   2.749   5.754 -0.5393 -2.6809 -0.6281
  200SOL    MW4  568   5.804   2.765   5.769  0.0015  0.3127 -0.1541
  201SOL     OW  569   2.985   6.161   1.684 -0.2156  0.5720  0.0253
  201SOL    HW2  570   3.026   6.145   1.599  1.5738 -0.3298  0.9834
  201SOL    HW3  571   2.898   6.122   1.677  1.1719 -2.8993 -0.3040
  201SOL    MW4  572   2.979   6.154   1.672  0.2035 -0.0050  0.1082
  202SOL     OW  573   3.906   2.140   2.916 -0.2944 -0.1056  0.8218
  202SOL    HW2  574   3.881   2.224   2.955 -3.2362 -1.4900  2.2387
  202SOL    HW3  575   3.935   2.087   2.990 -1.7458 -1.3732  0.5212
  202SOL    MW4  576   3.906   2.144   2.931 -0.8740 -0.4555  0.9691
  203SOL     OW  577   4.923   3.714   0.440 -0.1489 -0.1523  0.4016
  203SOL    HW2  578   4.986   3.674   0.500 -1.4200  1.3171  2.9151
  203SOL    HW3  579   4.847   3.656   0.442  0.0557 -0.4678 -0.4149
  203SOL    MW4  580   4.921   3.701   0.448 -0.2896 -0.0000  0.6255
  204SOL     OW  581   5.133   0.704   0.376  0.3202 -0.1466  0.3595
  204SOL    HW2  582   5.063   0.683   0.314 -0.4923  0.5441  1.0217
  204SOL    HW3  583   5.175   0.620   0.394 -1.5336 -0.9150  1.3607
  204SOL    MW4  584   5.129   0.690   0.371 -0.0316 -0.1569  0.5790
  205SOL     OW  585   2.700   1.867   5.642  0.2930 -0.4206  0.7347
  205SOL    HW2  586   2.714   1.915   5.723 -1.6138  0.3569  0.6520
  205SOL    HW3  587   2.684   1.777   5.670 -1.1689 -0.0034  1.3270
  205SOL    MW4  588   2.700   1.861   5.657 -0.1514 -0.2630  0.8019
  206SOL     OW  589   1.510   0.949   1.648  0.2813  0.0633 -0.0188
  206SOL    HW2  590   1.424   0.986   1.625 -0.0677 -1.6387 -1.7135
  206SOL    HW3  591   1.571   0.993   1.589  0.1746 -0.5138 -0.5729
  206SOL    MW4  592   1.507   0.960   1.637  0.2211 -0.2374 -0.3155
  207SOL     OW  593   1.297   4.468   4.941  0.4182 -0.2964 -0.2140
  207SOL    HW2  594   1.208   4.465   4.977  0.1756 -0.7891 -0.8237
  207SOL    HW3  595   1.339   4.389   4.976  0.7116  0.0844  0.3011
  207SOL    MW4  596   1.291   4.457   4.950  0.4249 -0.3111 -0.2265
  208SOL     OW  597   5.186   0.291   4.079  0.0860 -0.4643 -0.3573
  208SOL    HW2  598   5.135   0.319   4.155 -1.3392 -1.5580 -0.8730
  208SOL    HW3  599   5.221   0.206   4.104  1.8336  0.3134  0.0335
  208SOL    MW4  600   5.184   0.284   4.092  0.1285 -0.5060 -0.3738
  209SOL     OW  601   5.799   4.135   4.113  0.0092  0.1795 -0.5447
  209SOL    HW2  602   5.805   4.087   4.030  0.8812  1.3135 -1.1712
  209SOL    HW3  603   5.828   4.224   4.091  1.1268  0.2788  1.1678
  209SOL    MW4  604   5.804   4.141   4.099  0.2717  0.3422 -0.4014
  210SOL     OW  605   6.089   0.150   3.152 -0.0584 -0.0085  0.1031
  210SOL    HW2  606   6.179   0.117   3.156  0.0613  0.3039 -0.0592
  210SOL    HW3  607   6.037   0.080   3.193  0.3620  0.2000  1.0106
  210SOL    MW4  608   6.094   0.136   3.158  0.0128  0.0602  0.2014
  211SOL     OW  609   1.956   0.126   5.514  0.5247  0.5137 -0.4026
  211SOL    HW2  610   2.011   0.204   5.510 -1.0005  1.6186 -0.9289
  211SOL    HW3  611   1.932   0.118   5.606  0.8241  0.5646 -0.3197
  211SOL    MW4  612   1.960   0.135   5.526  0.3630  0.6662 -0.4611
  212SOL     OW  613   3.061   0.768   1.130 -0.5800  1.2316  0.8600
  212SOL    HW2  614   3.123   0.799   1.065 -0.5188  2.1881  1.3564
  212SOL    HW3  615   3.010   0.845   1.154 -1.9166  0.4921  0.5264
  212SOL    MW4  616   3.062   0.782   1.124 -0.7483  1.2602  0.8815
  213SOL     OW  617   3.041   3.860   3.410  0.3556  0.3087  0.4930
  213SOL    HW2  618   3.131   3.858   3.375 -0.0875 -0.1306 -0.6791
  213SOL    HW3  619   3.031   3.949   3.445  0.6481  1.0069 -1.0777
  213SOL    MW4  620   3.052   3.872   3.410  0.3358  0.3429  0.1311
  214SOL     OW  621   0.849   3.060   2.735  0.3522 -0.1219  0.2435
  214SOL    HW2  622   0.892   3.091   2.815 -0.5234  0.8610  0.3555
  214SOL    HW3  623   0.903   3.096   2.664 -0.6660  1.7972  0.3714
  214SOL    MW4  624   0.862   3.069   2.736  0.1023  0.2610  0.2751
  215SOL     OW  625   4.852   6.060   1.177 -0.1362  0.3545 -0.1481
  215SOL    HW2  626   4.874   6.153   1.184  0.6941  0.1562  0.0770
  215SOL    HW3  627   4.808   6.051   1.093  0.7438  0.7851 -0.6714
  215SOL    MW4  628   4.849   6.071   1.167  0.0894  0.3852 -0.1874
  216SOL     OW  629   2.666   4.649   5.020 -0.0553  0.3587  0.4997
  216SOL    HW2  630   2.731   4.666   4.951 -1.1215  3.0609  0.0719
  216SOL    HW3  631   2.647   4.555   5.012  0.7419  0.3537 -2.0980
  216SOL    MW4  632   2.672   4.639   5.010 -0.0908  0.7145  0.1005
  217SOL     OW  633   5.891   0.872   5.190 -0.6447  0.4594 -0.1241
  217SOL    HW2  634   5.865   0.948   5.139 -0.1123 -0.2318 -1.4929
  217SOL    HW3  635   5.980   0.892   5.221 -0.7388  0.6344  0.0333
  217SOL    MW4  636   5.899   0.885   5.187 -0.5868  0.3913 -0.2839
  218SOL     OW  637   4.458   4.702   6.067  0.4453  0.3438 -0.0393
  218SOL    HW2  638   4.363   4.698   6.058  0.4471  1.0850 -0.3855
  218SOL    HW3  639   4.492   4.670   5.983  0.5328 -1.1654  0.5252
  218SOL    MW4  640   4.450   4.697   6.055  0.4571  0.2425 -0.0105
  219SOL     OW  641   1.839   4.285   2.296 -0.2672  0.1165  0.0571
  219SOL    HW2  642   1.790   4.311   2.374 -1.2551 -1.0486 -0.1371
  219SOL    HW3  643   1.807   4.343   2.227 -0.2180  0.3957  0.2658
  219SOL    MW4  644   1.828   4.296   2.297 -0.3910 -0.0004  0.0590
  220SOL     OW  645   2.258   4.673   4.388 -0.1115 -0.0001 -0.1424
  220SOL    HW2  646   2.243   4.762   4.421  0.8670 -0.1923  0.8707
  220SOL    HW3  647   2.351   4.656   4.404  0.5238 -0.0224 -3.3247
  220SOL    MW4  648   2.268   4.682   4.395  0.1014 -0.0284 -0.4286
  221SOL     OW  649   4.851   5.646   0.705 -0.8456  0.4289 -0.5643
  221SOL    HW2  650   4.904   5.566   0.698 -0.6452  0.4372  0.6084
  221SOL    HW3  651   4.895   5.709   0.647 -1.1971 -0.3965 -1.7517
  221SOL    MW4  652   4.864   5.644   0.697 -0.8656  0.3211 -0.5663
  222SOL     OW  653   1.831   3.191   3.704  0.3760  0.2114  0.2087
  222SOL    HW2  654   1.835   3.191   3.800 -0.3715 -0.8355  0.2619
  222SOL    HW3  655   1.745   3.229   3.684 -0.1696 -1.0621  0.0289
  222SOL    MW4  656   1.820   3.196   3.714  0.2054 -0.0947  0.1920
  223SOL     OW  657   4.090   3.076   0.044 -0.0943 -0.3105  0.2294
  223SOL    HW2  658   4.163   3.042   0.095 -0.9254 -2.1301  0.2771
  223SOL    HW3  659   4.012   3.046   0.090 -0.8824 -1.7677 -1.8918
  223SOL    MW4  660   4.089   3.067   0.056 -0.3079 -0.7429 -0.0441
  224SOL     OW  661   4.587   0.796   6.222 -0.7699 -0.1260 -0.4471
  224SOL    HW2  662   4.565   0.840   6.304 -1.7852 -0.7967 -0.3396
  224SOL    HW3  663   4.566   0.860   6.154 -2.6925 -0.5761 -0.3176
  224SOL    MW4  664   4.581   0.810   6.224 -1.1575 -0.2739 -0.4159
  225SOL     OW  665   4.610   0.997   2.562 -0.2451 -0.8495 -0.7948
  225SOL    HW2  666   4.627   0.949   2.482 -0.2049 -1.1840 -0.5887
  225SOL    HW3  667   4.615   1.090   2.537  1.1166 -0.9339 -0.9108
  225SOL    MW4  668   4.613   1.003   2.548 -0.0601 -0.9048 -0.7829
  226SOL     OW  669   0.978   6.396   5.372 -0.2130  0.4774 -0.3224
  226SOL    HW2  670   0.977   6.489   5.353 -1.2847  1.1668  2.6158
  226SOL    HW3  671   0.916   6.385   5.443  1.8232 -2.0592  1.2546
  226SOL    MW4  672   0.970   6.407   5.379 -0.0858  0.2337  0.2733
  227SOL     OW  673   4.150   1.251   5.739 -0.1885  0.4982 -0.1721
  227SOL    HW2  674   4.134   1.206   5.656 -0.3820 -3.8508  1.9520
  227SOL    HW3  675   4.062   1.266   5.775 -0.1256  2.8077 -0.8360
  227SOL    MW4  676   4.136   1.247   5.733 -0.2057  0.2291  0.0206
  228SOL     OW  677  -0.031   4.120   4.923 -0.1890  0.1522 -0.4621
  228SOL    HW2  678  -0.069   4.076   4.847  1.2030 -0.0290 -1.0812
  228SOL    HW3  679   0.041   4.063   4.950 -0.8317  0.0791  1.1762
  228SOL    MW4  680  -0.026   4.106   4.917 -0.0901  0.1186 -0.3276
  229SOL     OW  681   0.919   4.179   3.249 -0.5980 -0.4325 -0.9458
  229SOL    HW2  682   0.901   4.261   3.203  0.4575  0.1663 -0.3264
  229SOL    HW3  683   0.985   4.135   3.195  1.8740  1.0130  0.6951
  229SOL    MW4  684   0.925   4.184   3.236 -0.1326 -0.1627 -0.6476
  230SOL     OW  685   2.335   4.306   2.576  0.2474  0.0171  0.1227
  230SOL    HW2  686   2.347   4.301   2.671  3.6262 -2.8304 -0.2498
  230SOL    HW3  687   2.387   4.382   2.549  2.0955 -1.1130  0.3403
  230SOL    MW4  688   2.343   4.316   2.585  0.9370 -0.5077  0.1023
  231SOL     OW  689   5.232   3.240   0.372  0.5568 -0.6466 -0.1326
  231SOL    HW2  690   5.138   3.246   0.388  0.6940 -0.2044  0.5755
  231SOL    HW3  691   5.241   3.169   0.310 -0.3069 -0.2275 -0.7622
  231SOL    MW4  692   5.221   3.232   0.366  0.4610 -0.5329 -0.1222
  232SOL     OW  693   6.051   3.096   3.636 -0.5876 -0.3870  0.2832
  232SOL    HW2  694   6.037   3.001   3.646 -1.5333 -0.6938 -2.9617
  232SOL    HW3  695   6.145   3.104   3.619 -0.5519 -0.7524  0.2846
  232SOL    MW4  696   6.062   3.084   3.635 -0.7076 -0.4757 -0.1448
  233SOL     OW  697   4.980   2.794   4.532 -0.7362 -0.2986 -0.1094
  233SOL    HW2  698   5.003   2.701   4.534  0.2454 -0.0654  0.1785
  233SOL    HW3  699   4.939   2.807   4.447 -1.2674 -1.0785  0.0166
  233SOL    MW4  700   4.977   2.783   4.521 -0.6768 -0.3708 -0.0548
  234SOL     OW  701   4.095   5.029   0.601 -0.2463  0.4104  0.0319
  234SOL    HW2  702   4.067   5.118   0.581 -0.9305 -0.0059 -0.9075
  234SOL    HW3  703   4.191   5.033   0.602 -0.2648  1.0241 -0.6071
  234SOL    MW4  704   4.104   5.041   0.599 -0.3390  0.4364 -0.1764
  235SOL     OW  705   5.577   0.304   4.774 -0.1074  0.1379  0.0740
  235SOL    HW2  706   5.497   0.347   4.743  0.7902  2.9828  1.3317
  235SOL    HW3  707   5.629   0.289   4.694 -1.9482 -2.1456 -0.8144
  235SOL    MW4  708   5.573   0.308   4.759 -0.2319  0.2120  0.1227
  236SOL     OW  709   2.181   3.906   0.031  0.1289 -0.0373  0.2276
  236SOL    HW2  710   2.119   3.905  -0.042 -0.7902  0.6410  0.9823
  236SOL    HW3  711   2.196   3.813   0.051 -0.6583 -0.2089  0.0477
  236SOL    MW4  712   2.175   3.894   0.024 -0.0962  0.0296  0.3035
  237SOL     OW  713   2.337   2.614   0.123 -0.0393  0.1267  0.2203
  237SOL    HW2  714   2.382   2.655   0.049 -0.0754 -0.0816  0.0846
  237SOL    HW3  715   2.340   2.681   0.192 -1.4384  0.9605 -0.4859
  237SOL    MW4  716   2.343   2.628   0.123 -0.2286  0.2092  0.1092
  238SOL     OW  717   3.127   0.629   2.258  0.0616  0.0233 -0.3902
  238SOL    HW2  718   3.143   0.722   2.272  1.4965  0.0189 -1.7130
  238SOL    HW3  719   3.132   0.618   2.163  0.9408 -1.5615 -0.1877
  238SOL    MW4  720   3.130   0.640   2.247  0.3669 -0.1864 -0.5380
  239SOL     OW  721   6.116   5.975   1.597  0.0625 -0.0512  0.3559
  239SOL    HW2  722   6.031   6.016   1.583 -0.4483 -1.3436 -0.5043
  239SOL    HW3  723   6.116   5.899   1.539  1.5782 -0.4033  0.7728
  239SOL    MW4  724   6.105   5.970   1.588  0.1951 -0.2681  0.2974
  240SOL     OW  725   2.229   5.848   2.964 -0.2376  0.3855  0.6140
  240SOL    HW2  726   2.295   5.847   2.895 -0.7224  2.3220  0.0630
  240SOL    HW3  727   2.152   5.807   2.925 -0.0696  0.1683  0.5061
  240SOL    MW4  728   2.228   5.842   2.950 -0.2794  0.6123  0.5271
  241SOL     OW  729   2.175   0.378   1.453  0.2259 -0.6334  0.3322
  241SOL    HW2  730   2.234   0.318   1.408 -0.3648 -1.7961  1.0748
  241SOL    HW3  731   2.200   0.371   1.545 -0.3272 -0.2675  0.5115
  241SOL    MW4  732   2.186   0.369   1.459  0.0750 -0.7385  0.4539
  242SOL     OW  733   5.300   3.042   0.588  0.5016  0.1143  0.1437
  242SOL    HW2  734   5.217   3.022   0.631  0.7581 -0.7431  0.2501
  242SOL    HW3  735   5.280   3.116   0.531 -0.8093 -1.2631 -1.2649
  242SOL    MW4  736   5.286   3.049   0.586  0.3625 -0.1806 -0.0281
  243SOL     OW  737   5.212   4.004   4.126  0.1211 -0.3967  0.4289
  243SOL    HW2  738   5.185   3.944   4.057 -0.0275 -0.8548  0.8718
  243SOL    HW3  739   5.301   4.030   4.103 -0.2881  0.2634 -0.4692
  243SOL    MW4  740   5.220   4.000   4.114  0.0475 -0.3700  0.3689
  244SOL     OW  741   3.300   0.790   4.590 -0.2179 -0.6769  0.1424
  244SOL    HW2  742   3.368   0.757   4.648  0.5347  0.3959 -0.0903
  244SOL    HW3  743   3.326   0.881   4.572 -2.4263  0.2296  1.1480
  244SOL    MW4  744   3.313   0.798   4.595 -0.4100 -0.4158  0.2443
  245SOL     OW  745   0.199   1.131   1.102  0.3308  0.3061  0.1319
  245SOL    HW2  746   0.202   1.153   1.195  0.7159  0.4038  0.1017
  245SOL    HW3  747   0.135   1.060   1.095 -0.5669  1.0816  0.3053
  245SOL    MW4  748   0.191   1.125   1.113  0.2632  0.4213  0.1508
  246SOL     OW  749   1.886   1.895   4.669 -0.3423 -0.4261 -0.3481
  246SOL    HW2  750   1.848   1.831   4.730 -1.2990  0.6135  0.1990
  246SOL    HW3  751   1.874   1.980   4.713  1.0245  0.1215 -0.9866
  246SOL    MW4  752   1.879   1.898   4.683 -0.2882 -0.2167 -0.3601
  247SOL     OW  753  -0.019   2.736   1.980 -0.1009  0.0544  0.4970
  247SOL    HW2  754  -0.045   2.827   1.964  0.6067  0.4086  1.2760
  247SOL    HW3  755   0.061   2.743   2.031 -0.3219 -1.0120  1.0111
  247SOL    MW4  756  -0.012   2.749   1.985 -0.0367 -0.0396  0.6676
  248SOL     OW  757   2.440   6.270   3.625 -0.3094  0.0903  0.5305
  248SOL    HW2  758   2.426   6.183   3.663  1.7922  0.1677  1.6367
  248SOL    HW3  759   2.521   6.262   3.575 -0.6330  1.1668 -0.2120
  248SOL    MW4  760   2.449   6.258   3.624 -0.0748  0.2425  0.5785
  249SOL     OW  761   2.784   0.221   1.327 -0.2437  0.6353  0.3147
  249SOL    HW2  762   2.879   0.223   1.320 -0.1429  1.9676  1.6780
  249SOL    HW3  763   2.754   0.252   1.241  0.4929 -0.5596 -0.4129
  249SOL    MW4  764   2.792   0.225   1.314 -0.1332  0.6535  0.3986
  250SOL     OW  765  -0.029   1.122   3.534 -0.0282 -0.0650 -0.5531
  250SOL    HW2  766  -0.111   1.154   3.573 -0.1203  1.0245 -1.5825
  250SOL    HW3  767   0.010   1.067   3.602  1.0684  3.6405  2.1711
  250SOL    MW4  768  -0.035   1.119   3.548  0.1044  0.5676 -0.3295
  251SOL     OW  769   0.615   4.071   4.536  0.1793 -0.5039 -0.5152
  251SOL    HW2  770   0.532   4.119   4.528  0.5074 -0.0205 -1.1433
  251SOL    HW3  771   0.638   4.079   4.629  0.0877  0.3399 -0.5532
  251SOL    MW4  772   0.607   4.078   4.547  0.2105 -0.3288 -0.6031
  252SOL     OW  773   0.102   4.395   5.180  0.0494 -0.7015 -0.4978
  252SOL    HW2  774   0.134   4.466   5.237 -1.0167 -0.6577  0.0706
  252SOL    HW3  775   0.181   4.354   5.147  0.7016  0.6231 -0.6711
  252SOL    MW4  776   0.117   4.399   5.183 -0.0052 -0.5210 -0.4457
  253SOL     OW  777   6.106   2.894   2.669  0.8697  0.2717  0.9004
  253SOL    HW2  778   6.130   2.960   2.604 -0.8674  0.7407  0.6970
  253SOL    HW3  779   6.099   2.942   2.751 -0.9438  0.4953  0.6512
  253SOL    MW4  780   6.108   2.909   2.671  0.4013  0.3631  0.8407
  254SOL     OW  781   3.801   0.141   2.964  0.9123 -0.0812 -0.3115
  254SOL    HW2  782   3.883   0.188   2.978  0.9851 -0.4006  0.4180
  254SOL    HW3  783   3.814   0.094   2.882  1.7247 -0.6464  0.1207
  254SOL    MW4  784   3.814   0.141   2.955  1.0291 -0.1979 -0.1582
  255SOL     OW  785   1.509   0.618   4.467  0.4664 -0.1303  0.1999
  255SOL    HW2  786   1.546   0.704   4.487  0.4709 -0.4031  1.4565
  255SOL    HW3  787   1.419   0.636   4.440  1.2332  0.4774 -2.1925
  255SOL    MW4  788   1.502   0.632   4.466  0.5682 -0.0861  0.0500
  256SOL     OW  789   4.969   2.403   0.379  0.0990 -0.0975 -0.5520
  256SOL    HW2  790   4.976   2.386   0.473  0.3888  0.4052 -0.4797
  256SOL    HW3  791   4.878   2.430   0.366  0.2807  0.6636 -0.2757
  256SOL    MW4  792   4.958   2.404   0.390  0.1612  0.0693 -0.5060
  257SOL     OW  793   4.505   5.058   6.320 -0.4535 -0.0228 -0.7109
  257SOL    HW2  794   4.506   4.963   6.327  0.3784  0.0365  0.2708
  257SOL    HW3  795   4.593   5.081   6.289 -1.1644  0.3477 -2.5931
  257SOL    MW4  796   4.517   5.049   6.317 -0.4375  0.0339 -0.8297
  258SOL     OW  797   5.918   4.361   1.671 -0.4977  0.4457 -0.3413
  258SOL    HW2  798   5.889   4.371   1.761  0.7850  1.1741  0.0174
  258SOL    HW3  799   5.853   4.304   1.631 -0.5387 -0.7419  1.3149
  258SOL    MW4  800   5.906   4.355   1.677 -0.3338  0.3851 -0.0755
  259SOL     OW  801   0.464   0.913   2.353  0.2128 -0.4020 -0.5324
  259SOL    HW2  802   0.530   0.937   2.418 -0.1250  0.0338 -0.3505
  259SOL    HW3  803   0.437   0.824   2.378  2.1880 -1.4433 -1.7927
  259SOL    MW4  804   0.469   0.904   2.365  0.4288 -0.4819 -0.6747
  260SOL     OW  805   3.938   2.602   3.161 -0.1062 -0.2073 -0.7731
  260SOL    HW2  806   3.886   2.522   3.158 -0.6982  0.1191  0.1262
  260SOL    HW3  807   3.931   2.632   3.252  3.1193 -1.0688 -0.1249
  260SOL    MW4  808   3.930   2.596   3.172  0.2412 -0.2779 -0.5689
  261SOL     OW  809   2.104   5.270   0.724 -0.2392 -0.0871 -0.0236
  261SOL    HW2  810   2.060   5.353   0.703  1.2815  0.1909 -2.4843
  261SOL    HW3  811   2.166   5.257   0.653 -0.0550 -3.1209  0.5577
  261SOL    MW4  812   2.106   5.280   0.712 -0.0143 -0.4507 -0.2716
  262SOL     OW  813   0.285   5.501   1.700 -0.6058 -0.5299 -0.6328
  262SOL    HW2  814   0.316   5.513   1.790 -1.5359 -2.1006 -0.0641
  262SOL    HW3  815   0.229   5.576   1.684  1.1062  0.8233 -0.6434
  262SOL    MW4  816   0.282   5.512   1.710 -0.5026 -0.5586 -0.5592
  263SOL     OW  817   5.594   2.752   4.841 -0.1823  0.4220 -0.3393
  263SOL    HW2  818   5.620   2.667   4.876 -0.1534  0.9664  1.0056
  263SOL    HW3  819   5.552   2.731   4.757 -1.6190 -1.0849  0.6893
  263SOL    MW4  820   5.592   2.738   4.834 -0.3681  0.2950 -0.0261
  264SOL     OW  821   0.089   5.886  -0.016  0.0763 -0.5005 -0.5602
  264SOL    HW2  822   0.097   5.981  -0.025  1.7531 -0.4086  1.1844
  264SOL    HW3  823   0.095   5.871   0.079 -2.1924 -2.2241 -0.5951
  264SOL    MW4  824   0.091   5.897  -0.004 -0.0018 -0.7158 -0.3347
  265SOL     OW  825   4.307   4.302   5.240 -0.1190  0.5382  0.1921
  265SOL    HW2  826   4.306   4.274   5.149  0.8134 -0.0830  0.3564
  265SOL    HW3  827   4.318   4.397   5.235 -0.1994  0.5239 -0.3447
  265SOL    MW4  828   4.308   4.311   5.227 -0.0066  0.4544  0.1430
  266SOL     OW  829   3.063   0.287   2.131  0.5646  0.1251 -0.3335
  266SOL    HW2  830   3.071   0.203   2.087 -1.6221  0.7510 -2.1506
  266SOL    HW3  831   3.044   0.349   2.061 -1.3101  1.4999  1.2643
  266SOL    MW4  832   3.061   0.284   2.116  0.0288  0.3891 -0.3624
  267SOL     OW  833   2.458   0.158   4.161  0.0557 -0.0756  0.2500
  267SOL    HW2  834   2.387   0.101   4.133 -1.6543  0.8040  2.5285
  267SOL    HW3  835   2.439   0.243   4.121  0.1250  0.0165  0.4100
  267SOL    MW4  836   2.446   0.162   4.152 -0.1608  0.0526  0.5717
  268SOL     OW  837   3.414   5.220   4.497 -0.1824 -0.4054  0.0105
  268SOL    HW2  838   3.383   5.134   4.527  1.1521 -0.4126  1.4983
  268SOL    HW3  839   3.499   5.231   4.540  1.3744  0.1159 -2.9477
  268SOL    MW4  840   3.421   5.210   4.506  0.1990 -0.3376 -0.1835
  269SOL     OW  841   2.761   3.199   3.664  0.0271 -0.1162  0.0019
  269SOL    HW2  842   2.738   3.259   3.593  1.1650 -1.3442 -1.4748
  269SOL    HW3  843   2.678   3.160   3.691 -0.7137  1.8478  0.8409
  269SOL    MW4  844   2.747   3.202   3.659  0.0795 -0.0191 -0.0822
  270SOL     OW  845   2.228   0.068   4.709 -0.3242  0.3442  0.3143
  270SOL    HW2  846   2.208   0.132   4.777  0.4076 -0.4449  1.3104
  270SOL    HW3  847   2.274   0.118   4.641 -0.6873  1.0627  0.5938
  270SOL    MW4  848   2.231   0.083   4.709 -0.2755  0.3349  0.4826
  271SOL     OW  849   2.472   6.399   3.870  0.2990  0.0963  0.3968
  271SOL    HW2  850   2.479   6.352   3.787 -1.3517  0.1394  0.2164
  271SOL    HW3  851   2.386   6.375   3.905  0.5676  0.8285  1.6335
  271SOL    MW4  852   2.462   6.390   3.864  0.1166  0.1986  0.5362
  272SOL     OW  853   5.426   5.096   1.587 -0.2705 -0.3054 -0.1797
  272SOL    HW2  854   5.408   5.058   1.674 -1.0368  1.3629  0.4363
  272SOL    HW3  855   5.514   5.065   1.566 -0.2097 -1.0459  1.0221
  272SOL    MW4  856   5.435   5.087   1.596 -0.3636 -0.1830  0.0601
  273SOL     OW  857   4.060   4.948   0.132 -0.6691  0.4803 -0.1191
  273SOL    HW2  858   4.139   4.919   0.179  0.6881  1.0358 -1.9255
  273SOL    HW3  859   4.040   5.033   0.170 -0.5408  0.2253  0.5299
  273SOL    MW4  860   4.068   4.955   0.143 -0.4731  0.5199 -0.2718
  274SOL     OW  861   1.233   4.443   0.743 -0.1693  0.3293  0.3614
  274SOL    HW2  862   1.278   4.460   0.660 -1.1811 -0.2879 -0.3396
  274SOL    HW3  863   1.287   4.487   0.809  1.1093  0.1364 -0.5116
  274SOL    MW4  864   1.246   4.451   0.741 -0.1341  0.2224  0.1537
  275SOL     OW  865   4.852   5.768   2.412 -0.1312 -0.5930 -0.3238
  275SOL    HW2  866   4.860   5.694   2.472  1.8437  0.5293  0.8884
  275SOL    HW3  867   4.841   5.844   2.468  2.4178  0.5789 -1.2612
  275SOL    MW4  868   4.851   5.768   2.427  0.4657 -0.2903 -0.2875
  276SOL     OW  869   5.275   2.332   1.400 -0.0608 -0.7426 -0.1692
  276SOL    HW2  870   5.203   2.302   1.455  0.8146 -0.5720  1.1051
  276SOL    HW3  871   5.314   2.405   1.448  0.6438 -0.4851 -1.0873
  276SOL    MW4  872   5.271   2.338   1.414  0.1477 -0.6861 -0.1222
  277SOL     OW  873   6.285   4.637   3.697  0.3009 -0.0241  0.0607
  277SOL    HW2  874   6.245   4.704   3.641 -0.6069 -1.0206 -0.5331
  277SOL    HW3  875   6.366   4.677   3.729  0.0155  1.1715 -0.6592
  277SOL    MW4  876   6.291   4.651   3.694  0.1435  0.0022 -0.1126
  278SOL     OW  877   6.145   3.475   1.003  0.8203  0.4157  0.2330
  278SOL    HW2  878   6.137   3.556   0.954  1.8328 -1.2066 -2.8647
  278SOL    HW3  879   6.057   3.457   1.036  0.5472  2.6058  0.8192
  278SOL    MW4  880   6.132   3.483   1.001  0.9178  0.4906 -0.0984
  279SOL     OW  881   2.731   0.574   3.258 -0.0488 -0.1735 -1.0538
  279SOL    HW2  882   2.732   0.541   3.169 -0.1843  0.2964 -1.2337
  279SOL    HW3  883   2.770   0.662   3.252  3.5973 -1.5146 -0.0734
  279SOL    MW4  884   2.737   0.581   3.246  0.4144 -0.2884 -0.9482
  280SOL     OW  885   4.745   5.625   2.719 -0.3679  0.0307  0.4528
  280SOL    HW2  886   4.790   5.548   2.755 -2.3965 -1.5543 -0.1957
  280SOL    HW3  887   4.664   5.631   2.770 -1.0962  0.6123 -0.7276
  280SOL    MW4  888   4.740   5.616   2.731 -0.7317 -0.1017  0.2115
  281SOL     OW  889   5.450   1.765   2.579  0.0248  0.1432  0.1942
  281SOL    HW2  890   5.516   1.713   2.533 -0.0182  0.2892 -0.0324
  281SOL    HW3  891   5.375   1.706   2.587 -0.1508  0.2771 -0.3738
  281SOL    MW4  892   5.449   1.750   2.574 -0.0040  0.1801  0.0894
  282SOL     OW  893   4.229   5.488   5.910  0.2560 -0.2490  0.0959
  282SOL    HW2  894   4.286   5.564   5.924 -1.2142  0.8486  0.3759
  282SOL    HW3  895   4.289   5.417   5.889  1.6139  1.6068 -3.1024
  282SOL    MW4  896   4.245   5.489   5.909  0.2412  0.1406 -0.2891
  283SOL     OW  897   5.167   3.009   4.957 -0.0068  0.4464 -1.0462
  283SOL    HW2  898   5.104   3.014   5.029 -0.4051  0.3464 -1.3865
  283SOL    HW3  899   5.113   3.009   4.878  0.3836 -0.3055 -1.3188
  283SOL    MW4  900   5.151   3.010   4.956 -0.0078  0.3340 -1.1271
  284SOL     OW  901   1.058   3.987   5.291 -0.1717 -0.0617  0.0185
  284SOL    HW2  902   1.051   4.074   5.252 -1.1995  1.2905  2.8862
  284SOL    HW3  903   0.968   3.960   5.306  0.1365 -1.6643 -0.7904
  284SOL    MW4  904   1.045   3.995   5.288 -0.2667 -0.0948  0.2902
  285SOL     OW  905   5.017   5.312   0.853  0.0810 -0.2487  0.0905
  285SOL    HW2  906   5.067   5.236   0.882  0.7780 -1.1297 -2.9943
  285SOL    HW3  907   5.083   5.374   0.823 -0.5223  1.2331  1.6819
  285SOL    MW4  908   5.032   5.310   0.853  0.0934 -0.1695 -0.1065
  286SOL     OW  909   2.838   3.091   0.393 -0.2667  0.1848  0.3902
  286SOL    HW2  910   2.846   3.004   0.431  0.0757 -0.9123 -2.0111
  286SOL    HW3  911   2.745   3.111   0.398 -0.3569 -0.3155  0.9135
  286SOL    MW4  912   2.827   3.082   0.399 -0.2334 -0.0259  0.1424
  287SOL     OW  913   2.074   3.416   4.553 -0.5713  0.7768 -0.4602
  287SOL    HW2  914   2.090   3.345   4.491  0.0113  2.1616 -1.9570
  287SOL    HW3  915   2.126   3.489   4.520  1.4236  1.0220  2.8160
  287SOL    MW4  916   2.083   3.416   4.540 -0.2312  0.9919 -0.2254
  288SOL     OW  917   3.406   6.210   1.758  0.3210 -0.1142  0.4521
  288SOL    HW2  918   3.427   6.230   1.667  0.3905  0.6563  0.6337
  288SOL    HW3  919   3.491   6.192   1.799  0.2729 -0.6542  0.3274
  288SOL    MW4  920   3.420   6.210   1.752  0.3238 -0.0838  0.4596
  289SOL     OW  921   6.292   5.146   3.467  0.0775  0.2327 -0.5446
  289SOL    HW2  922   6.284   5.141   3.372 -1.9724 -0.8762 -0.3573
  289SOL    HW3  923   6.249   5.067   3.500 -1.1165  1.5684  1.3618
  289SOL    MW4  924   6.285   5.135   3.459 -0.3505  0.2626 -0.2684
  290SOL     OW  925   1.860   6.195   0.416  0.2433  0.0361  0.1181
  290SOL    HW2  926   1.859   6.261   0.485  2.7183  0.5496 -0.2571
  290SOL    HW3  927   1.903   6.120   0.456  1.2566  0.1663 -0.6992
  290SOL    MW4  928   1.865   6.194   0.431  0.7035  0.1210 -0.0392
  291SOL     OW  929   2.411   0.684   0.171 -0.0038 -0.0144 -0.3744
  291SOL    HW2  930   2.505   0.670   0.157  0.3091 -0.0755  1.5362
  291SOL    HW3  931   2.406   0.745   0.244 -1.4443 -0.5914  0.0507
  291SOL    MW4  932   2.423   0.690   0.179 -0.1525 -0.0986 -0.0662
  292SOL     OW  933   6.361   1.687   4.456  0.3913 -0.4878 -0.6478
  292SOL    HW2  934   6.419   1.744   4.506 -1.7613  1.4017 -0.1675
  292SOL    HW3  935   6.402   1.680   4.370  1.8810 -0.1371  0.0038
  292SOL    MW4  936   6.374   1.693   4.451  0.3038 -0.1922 -0.4985
  293SOL     OW  937   1.092   2.637   2.647  0.0343  0.3073 -0.0934
  293SOL    HW2  938   1.031   2.700   2.610 -0.9727  0.4901  1.7392
  293SOL    HW3  939   1.041   2.591   2.714  0.8346 -2.2291 -1.1141
  293SOL    MW4  940   1.077   2.639   2.651  0.0070 -0.0033  0.0137
  294SOL     OW  941   0.998   6.252   4.663 -0.5495  0.0431 -0.0199
  294SOL    HW2  942   0.928   6.254   4.598  0.0120  1.4026 -0.6104
  294SOL    HW3  943   0.971   6.183   4.725 -0.9475 -1.4998 -1.8163
  294SOL    MW4  944   0.985   6.243   4.663 -0.5280  0.0189 -0.3348
  295SOL     OW  945   0.716   0.773   0.022 -0.0330  0.2632 -0.1301
  295SOL    HW2  946   0.638   0.742  -0.025  0.9749  0.3939 -1.9512
  295SOL    HW3  947   0.776   0.800  -0.046  1.4512  0.6278  1.2682
  295SOL    MW4  948   0.713   0.773   0.007  0.2958  0.3285 -0.1859
  296SOL     OW  949   5.641   3.275   3.397 -0.2279  0.3047 -0.0608
  296SOL    HW2  950   5.700   3.301   3.327  0.9139 -2.0936 -0.0655
  296SOL    HW3  951   5.668   3.328   3.472  3.0302 -1.6678  0.3598
  296SOL    MW4  952   5.652   3.286   3.398  0.3526 -0.2720 -0.0060
  297SOL     OW  953   0.402   6.223   2.007  0.1933  0.0629  0.1058
  297SOL    HW2  954   0.317   6.220   2.051  0.5833  1.4088  1.0327
  297SOL    HW3  955   0.455   6.158   2.052 -0.3538 -0.8698 -0.5548
  297SOL    MW4  956   0.398   6.214   2.018  0.1726  0.1174  0.1410
  298SOL     OW  957   2.952   2.038   0.890  0.1952 -0.4192 -0.3496
  298SOL    HW2  958   3.002   2.019   0.811 -0.8142  2.2505 -1.7428
  298SOL    HW3  959   3.001   2.106   0.935  0.3974 -1.4219  1.0056
  298SOL    MW4  960   2.965   2.044   0.886  0.0887 -0.1993 -0.3546
  299SOL     OW  961   2.337   3.388   1.162 -0.4188  0.6024 -0.0906
  299SOL    HW2  962   2.365   3.478   1.179 -1.5935  0.7928  0.9226
  299SOL    HW3  963   2.244   3.396   1.138 -0.7172 -0.3989  0.6799
  299SOL    MW4  964   2.328   3.401   1.161 -0.6132  0.4954  0.1447
  300SOL     OW  965   5.057   0.912   1.290  0.1835 -0.3368 -0.2209
  300SOL    HW2  966   4.999   0.859   1.235  0.4226 -1.0977  0.2517
  300SOL    HW3  967   5.043   0.879   1.379 -0.4874  1.1339  0.2599
  300SOL    MW4  968   5.047   0.901   1.294  0.1265 -0.2431 -0.0951
  301SOL     OW  969   3.277   1.441   5.348 -0.3253 -0.5267  0.2752
  301SOL    HW2  970   3.301   1.466   5.437 -1.3492  0.5480  0.2807
  301SOL    HW3  971   3.182   1.428   5.352 -0.3393 -0.7356 -0.5881
  301SOL    MW4  972   3.267   1.443   5.360 -0.4623 -0.4125  0.1620
  302SOL     OW  973   3.011   4.633   5.012  0.6300 -0.0560 -0.1264
  302SOL    HW2  974   3.032   4.542   4.990  3.0279  0.7915 -1.7229
  302SOL    HW3  975   2.977   4.669   4.930  0.8773  0.7935  0.1385
  302SOL    MW4  976   3.009   4.626   4.998  0.9790  0.1679 -0.3021
  303SOL     OW  977   1.589   0.067   2.057  0.6669 -0.0760  0.1322
  303SOL    HW2  978   1.667   0.113   2.088  0.6752  0.4757 -0.6773
  303SOL    HW3  979   1.605  -0.024   2.080  1.2923  0.1143  0.4912
  303SOL    MW4  980   1.602   0.061   2.064  0.7505  0.0219  0.0728
  304SOL     OW  981   5.722   2.174   4.125 -0.5680 -0.0438 -0.4690
  304SOL    HW2  982   5.713   2.223   4.207  0.3031  0.7472 -0.8212
  304SOL    HW3  983   5.725   2.242   4.057  0.8582 -0.5484 -0.9567
  304SOL    MW4  984   5.721   2.190   4.127 -0.2649 -0.0060 -0.5798
  305SOL     OW  985   3.087   5.638   0.775 -0.1026 -0.1699  0.4120
  305SOL    HW2  986   3.014   5.653   0.835 -0.5782 -1.5074  0.2067
  305SOL    HW3  987   3.070   5.697   0.702 -3.1597 -2.9983 -1.4448
  305SOL    MW4  988   3.075   5.648   0.773 -0.5687 -0.7196  0.1399
  306SOL     OW  989   6.277   6.104   6.319  0.1945  0.0448  0.3946
  306SOL    HW2  990   6.363   6.140   6.340  0.0218  0.1444  0.9550
  306SOL    HW3  991   6.295   6.016   6.286  0.4711 -0.1539  1.0662
  306SOL    MW4  992   6.291   6.097   6.317  0.2082  0.0317  0.5572
  307SOL     OW  993   1.510   5.740   0.781 -0.1521 -0.4082  0.4028
  307SOL    HW2  994   1.452   5.703   0.848 -0.0538  0.1204  0.7899
  307SOL    HW3  995   1.523   5.831   0.808 -1.2912  0.2552 -1.1203
  307SOL    MW4  996   1.504   5.748   0.793 -0.2894 -0.2509  0.2529
  308SOL     OW  997   0.967   3.791   1.688 -0.7267  0.3309 -0.0730
  308SOL    HW2  998   0.997   3.874   1.652 -1.1916  0.8994  0.8194
  308SOL    HW3  999   1.040   3.761   1.743 -0.7970  0.4579  0.0911
  308SOL    MW4 1000   0.980   3.798   1.691 -0.7973  0.4226  0.0664
  309SOL     OW 1001   1.276   3.310   3.445  0.4074  0.2147  0.3924
  309SOL    HW2 1002   1.204   3.367   3.415 -1.3640 -1.8167  0.5813
  309SOL    HW3 1003   1.311   3.272   3.364  0.7212  0.5551  0.3654
  309SOL    MW4 1004   1.271   3.313   3.430  0.2151 -0.0084  0.4138
  310SOL     OW 1005   3.298   2.698   0.381  0.2938  0.1487  0.6066
  310SOL    HW2 1006   3.372   2.710   0.439  0.4118 -1.0975  0.7415
  310SOL    HW3 1007   3.298   2.776   0.325  2.0552 -0.1125  0.2075
  310SOL    MW4 1008   3.308   2.710   0.381  0.5418 -0.0502  0.5717
  311SOL     OW 1009   0.750   6.011   5.162  0.3162 -0.0089 -0.2737
  311SOL    HW2 1010   0.727   5.953   5.235 -0.2716  1.1034  0.4537
  311SOL    HW3 1011   0.716   5.967   5.085  0.7735 -1.1159  0.1361
  311SOL    MW4 1012   0.742   5.998   5.162  0.2989 -0.0082 -0.1236
  312SOL     OW 1013   4.477   5.764   1.661 -0.7599  0.3080  0.4282
  312SOL    HW2 1014   4.466   5.797   1.750  0.6074 -0.9851  1.1280
  312SOL    HW3 1015   4.494   5.670   1.673 -2.4032 -0.2782 -1.3242
  312SOL    MW4 1016   4.478   5.756   1.674 -0.7963  0.0600  0.2893
  313SOL     OW 1017   6.051   2.913   2.040 -0.2485 -0.7071 -0.3973
  313SOL    HW2 1018   6.003   2.849   1.986 -0.2492 -1.7134  0.7493
  313SOL    HW3 1019   5.998   2.992   2.035 -3.0405 -2.2098  2.0801
  313SOL    MW4 1020   6.037   2.915   2.032 -0.6169 -1.0381  0.0809
  314SOL     OW 1021   4.680   0.191   6.405 -0.1161 -0.3043  0.4869
  314SOL    HW2 1022   4.754   0.187   6.344  0.4132  0.4633  1.0728
  314SOL    HW3 1023   4.718   0.177   6.491 -0.5208  0.9547  0.8916
  314SOL    MW4 1024   4.694   0.188   6.408 -0.0997 -0.0369  0.6176
  315SOL     OW 1025   3.004   2.443   4.348  0.0480 -0.3513  0.1204
  315SOL    HW2 1026   3.059   2.492   4.287 -0.6735  2.2930  1.4271
  315SOL    HW3 1027   2.916   2.449   4.312  0.0722 -1.4692 -0.1430
  315SOL    MW4 1028   3.000   2.450   4.335 -0.0440 -0.1499  0.2581
  316SOL     OW 1029   4.152   0.280   0.520  0.1271 -0.0739  0.1525
  316SOL    HW2 1030   4.198   0.202   0.549  0.0787  0.0637  0.6120
  316SOL    HW3 1031   4.180   0.293   0.430  0.2857 -0.5066  0.1398
  316SOL    MW4 1032   4.161   0.272   0.512  0.1417 -0.1129  0.2115
  317SOL     OW 1033   0.878   5.774   2.108  0.1772 -0.1823 -0.1304
  317SOL    HW2 1034   0.834   5.830   2.044 -1.1846 -1.4533 -0.3654
  317SOL    HW3 1035   0.957   5.743   2.063 -0.2608 -0.2822 -0.8434
  317SOL    MW4 1036   0.883   5.777   2.093 -0.0603 -0.3632 -0.2555
  318SOL     OW 1037   5.963   5.503   0.567 -0.9471  0.5449 -0.0935
  318SOL    HW2 1038   5.898   5.509   0.637 -0.2659  1.5239  0.4792
  318SOL    HW3 1039   6.033   5.562   0.595  0.1261 -0.3801 -0.7605
  318SOL    MW4 1040   5.963   5.512   0.580 -0.7157  0.5520 -0.1060
  319SOL     OW 1041   1.224   4.840   2.120  0.3384 -0.1319  0.1572
  319SOL    HW2 1042   1.268   4.870   2.040 -2.7726  2.0471 -0.9316
  319SOL    HW3 1043   1.271   4.884   2.191  0.4441  1.5019 -0.8665
  319SOL    MW4 1044   1.236   4.850   2.119 -0.0581  0.3712 -0.1215
  320SOL     OW 1045   0.110   2.249   6.239  0.3089 -0.0660  0.3939
  320SOL    HW2 1046   0.188   2.241   6.294  0.4475  0.0919  0.2208
  320SOL    HW3 1047   0.071   2.162   6.239  1.3156 -0.5334 -0.7708
  320SOL    MW4 1048   0.115   2.237   6.247  0.4600 -0.1068  0.2174
  321SOL     OW 1049   2.301   3.364   5.058 -0.0126  0.4813 -0.1927
  321SOL    HW2 1050   2.268   3.383   4.970  1.1791  3.1400 -0.1657
  321SOL    HW3 1051   2.396   3.369   5.050  0.2185 -1.2681  0.8859
  321SOL    MW4 1052   2.309   3.367   5.045  0.1751  0.6012 -0.0468
  322SOL     OW 1053   1.055   1.656   2.233 -0.4447 -0.3580  0.1768
  322SOL    HW2 1054   1.027   1.565   2.240 -0.0367 -0.6601 -1.7078
  322SOL    HW3 1055   1.142   1.652   2.194  0.2717  0.7936  1.5469
  322SOL    MW4 1056   1.063   1.644   2.229 -0.2963 -0.2459  0.1089
  323SOL     OW 1057   6.017   1.560   0.349  0.3082  0.6154  0.1161
  323SOL    HW2 1058   6.057   1.567   0.436 -1.0281  0.9878  0.7284
  323SOL    HW3 1059   5.930   1.524   0.365 -0.2598  1.4253 -0.9743
  323SOL    MW4 1060   6.011   1.556   0.363  0.0569  0.7714  0.0530
  324SOL     OW 1061   0.091   1.605   4.194  0.0168 -0.1778 -0.0850
  324SOL    HW2 1062   0.049   1.522   4.217  0.0227 -0.7043 -1.8577
  324SOL    HW3 1063   0.022   1.654   4.148  0.1996  0.5534  0.4175
  324SOL    MW4 1064   0.076   1.600   4.191  0.0417 -0.1508 -0.2526
  325SOL     OW 1065   0.828   5.623   4.836  0.1731 -0.1999 -0.2414
  325SOL    HW2 1066   0.809   5.619   4.743 -1.6075  0.9673  0.0405
  325SOL    HW3 1067   0.924   5.618   4.841  0.3535  0.5602 -2.1767
  325SOL    MW4 1068   0.838   5.622   4.825 -0.0380  0.0544 -0.4596
  326SOL     OW 1069   0.014   3.552   4.330 -0.7219 -0.6821  0.7815
  326SOL    HW2 1070  -0.080   3.545   4.309 -0.2777 -1.5737 -1.1193
  326SOL    HW3 1071   0.041   3.635   4.293 -0.7677 -0.3708  1.4321
  326SOL    MW4 1072   0.005   3.562   4.322 -0.6693 -0.7587  0.6165
  327SOL     OW 1073   4.527   0.943   0.784 -0.8048  0.1138  0.3575
  327SOL    HW2 1074   4.446   0.993   0.769 -0.6736  0.1358 -0.3346
  327SOL    HW3 1075   4.597   1.005   0.765 -0.6259  0.0034  0.6516
  327SOL    MW4 1076   4.525   0.958   0.779 -0.7639  0.1022  0.3050
  328SOL     OW 1077   4.335   2.650   6.268  0.2434  0.2017  0.6691
  328SOL    HW2 1078   4.372   2.704   6.338  0.2213  0.3622  0.5552
  328SOL    HW3 1079   4.354   2.697   6.187 -1.4148  0.9963  0.6964
  328SOL    MW4 1080   4.343   2.663   6.267  0.0217  0.3277  0.6576
  329SOL     OW 1081   3.897   4.759   4.240  0.2984 -0.6377 -0.1812
  329SOL    HW2 1082   3.981   4.754   4.193 -0.5829  1.7403 -2.2084
  329SOL    HW3 1083   3.918   4.807   4.320  0.5878  2.0745 -1.7577
  329SOL    MW4 1084   3.911   4.764   4.244  0.2203  0.0339 -0.6566
  330SOL     OW 1085   0.230   1.043   2.492 -0.0311  0.3242  0.1127
  330SOL    HW2 1086   0.276   1.069   2.572  0.0040 -0.3532  0.3198
  330SOL    HW3 1087   0.291   0.984   2.447 -0.3669  0.0761 -0.0209
  330SOL    MW4 1088   0.244   1.039   2.496 -0.0708  0.2021  0.1224
  331SOL     OW 1089   3.689   3.331   2.037 -0.1396 -0.4404  0.0121
  331SOL    HW2 1090   3.766   3.383   2.055 -0.0685 -0.0755 -1.2601
  331SOL    HW3 1091   3.688   3.320   1.942 -1.8570 -0.0901 -0.0588
  331SOL    MW4 1092   3.699   3.336   2.027 -0.3568 -0.3460 -0.1651
  332SOL     OW 1093   0.797   4.664   0.965 -0.3348  0.3176  0.6382
  332SOL    HW2 1094   0.829   4.636   0.879 -3.0294  1.6797 -0.9420
  332SOL    HW3 1095   0.734   4.596   0.990  0.5099 -0.1251  1.6399
  332SOL    MW4 1096   0.793   4.651   0.957 -0.5789  0.4389  0.5619
  333SOL     OW 1097   0.656   2.619   1.139  0.2626 -0.2794 -0.0920
  333SOL    HW2 1098   0.696   2.683   1.080  0.2380  0.3796  0.5944
  333SOL    HW3 1099   0.625   2.550   1.081  0.0674  0.4443 -0.8792
  333SOL    MW4 1100   0.657   2.619   1.123  0.2336 -0.0970 -0.1053
  334SOL     OW 1101   2.571   4.659   3.429 -1.1172  0.0973 -0.3871
  334SOL    HW2 1102   2.503   4.612   3.380 -1.0761 -0.2106 -0.1504
  334SOL    HW3 1103   2.527   4.738   3.460 -0.7062  1.1573 -2.3220
  334SOL    MW4 1104   2.556   4.663   3.426 -1.0576  0.1966 -0.6111
  335SOL     OW 1105   6.080   5.524   0.911 -0.5696 -0.1674  0.0001
  335SOL    HW2 1106   6.070   5.432   0.886  3.7186 -0.8604  0.0263
  335SOL    HW3 1107   6.064   5.525   1.005 -2.1398 -0.5159 -0.2343
  335SOL    MW4 1108   6.077   5.512   0.920 -0.2110 -0.3048 -0.0274
  336SOL     OW 1109   3.381   3.078   5.149 -0.4574 -0.1614 -0.2356
  336SOL    HW2 1110   3.410   3.066   5.059  0.5028  0.0226  0.0353
  336SOL    HW3 1111   3.328   3.001   5.168  0.5137 -0.9036 -0.4990
  336SOL    MW4 1112   3.378   3.066   5.140 -0.2026 -0.2350 -0.2346
  337SOL     OW 1113   3.708   1.291   0.356 -0.3803 -0.0698 -0.0654
  337SOL    HW2 1114   3.642   1.262   0.419  1.1742  1.7080  2.5986
  337SOL    HW3 1115   3.792   1.281   0.402  0.8298  1.5330 -1.7466
  337SOL    MW4 1116   3.710   1.286   0.371 -0.0156  0.3762  0.0643
  338SOL     OW 1117   5.839   1.905   0.436 -0.0473  0.5212  0.1964
  338SOL    HW2 1118   5.767   1.886   0.497  0.1533 -0.4501  0.1391
  338SOL    HW3 1119   5.910   1.935   0.493 -0.0038  0.0369  0.4013
  338SOL    MW4 1120   5.839   1.907   0.452 -0.0151  0.3292  0.2159
  339SOL     OW 1121   5.666   4.078   2.849 -0.3870  0.0318 -0.0486
  339SOL    HW2 1122   5.587   4.119   2.815 -0.3728  0.3470  0.3008
  339SOL    HW3 1123   5.644   4.054   2.939  0.1506  0.7740  0.2881
  339SOL    MW4 1124   5.653   4.080   2.856 -0.3142  0.1713  0.0419
  340SOL     OW 1125   2.811   4.712   1.461 -0.5326  0.4664  0.0169
  340SOL    HW2 1126   2.800   4.618   1.478  0.4355  0.1546 -0.9175
  340SOL    HW3 1127   2.748   4.731   1.392 -0.5754  0.4418  0.0493
  340SOL    MW4 1128   2.801   4.702   1.454 -0.4105  0.4220 -0.1021
  341SOL     OW 1129   4.961   1.431   5.064 -0.5881  0.0604  0.4457
  341SOL    HW2 1130   4.889   1.389   5.112 -0.7159 -0.3348 -0.0877
  341SOL    HW3 1131   4.920   1.467   4.985 -0.5029  1.2975  0.9353
  341SOL    MW4 1132   4.946   1.431   5.060 -0.5937  0.1715  0.4399
  342SOL     OW 1133   5.737   4.438   1.903 -0.4148  0.1134  0.1406
  342SOL    HW2 1134   5.669   4.371   1.898 -1.8852  1.2996  2.5515
  342SOL    HW3 1135   5.705   4.500   1.968  1.4628  2.5295 -1.0836
  342SOL    MW4 1136   5.724   4.437   1.911 -0.3611  0.5887  0.2972
  343SOL     OW 1137   2.134   4.797   1.593 -0.2971 -0.2603 -0.2066
  343SOL    HW2 1138   2.196   4.735   1.557 -1.1002 -0.6528 -0.9582
  343SOL    HW3 1139   2.181   4.880   1.596  0.5731 -0.7661  0.1896
  343SOL    MW4 1140   2.148   4.800   1.589 -0.2883 -0.3788 -0.2535
  344SOL     OW 1141   3.733   1.438   3.739 -0.6921 -0.0071  0.1313
  344SOL    HW2 1142   3.704   1.520   3.781 -0.2845  1.0517 -1.5687
  344SOL    HW3 1143   3.778   1.466   3.660 -1.1616 -1.9202 -0.8764
  344SOL    MW4 1144   3.735   1.453   3.734 -0.7003 -0.1198 -0.2260
  345SOL     OW 1145   2.716   0.431   0.109  0.1917 -0.0490 -0.3158
  345SOL    HW2 1146   2.633   0.441   0.062  0.8940  1.6647 -1.2990
  345SOL    HW3 1147   2.734   0.518   0.144  1.7496 -0.2772 -0.4713
  345SOL    MW4 1148   2.708   0.443   0.107  0.4899  0.1470 -0.4661
  346SOL     OW 1149   4.519   0.093   6.092 -0.5868 -0.0241  0.2241
  346SOL    HW2 1150   4.570   0.148   6.151 -0.7470  0.5053 -0.1178
  346SOL    HW3 1151   4.430   0.128   6.099 -0.7472 -0.4358  0.2323
  346SOL    MW4 1152   4.514   0.105   6.100 -0.6291 -0.0086  0.1801
  347SOL     OW 1153   5.968   6.274   1.867 -0.1677 -0.5848  0.0180
  347SOL    HW2 1154   5.995   6.308   1.952 -1.4731 -1.2060  0.7017
  347SOL    HW3 1155   6.046   6.282   1.812  1.1157 -1.4233  1.6492
  347SOL    MW4 1156   5.982   6.279   1.871 -0.1706 -0.7774  0.3234
  348SOL     OW 1157   5.658   1.403   2.611 -0.4439 -0.1581 -0.4032
  348SOL    HW2 1158   5.743   1.448   2.620 -0.5300 -0.1020  0.2142
  348SOL    HW3 1159   5.604   1.463   2.560 -1.3533  1.6373  2.4314
  348SOL    MW4 1160   5.662   1.417   2.606 -0.5752  0.0862  0.0523
  349SOL     OW 1161   4.787   2.844   4.323 -0.9173  0.2584  0.2470
  349SOL    HW2 1162   4.800   2.934   4.293  0.1305 -0.2588 -0.9730
  349SOL    HW3 1163   4.695   2.840   4.349 -1.6887  1.0502 -2.0665
  349SOL    MW4 1164   4.777   2.855   4.323 -0.8808  0.2946 -0.2192
  350SOL     OW 1165   4.813   3.592   4.818  0.0871  0.0744 -0.2352
  350SOL    HW2 1166   4.837   3.678   4.853 -1.5372  0.8375 -0.8611
  350SOL    HW3 1167   4.776   3.546   4.893  0.6334  0.0506  0.0240
  350SOL    MW4 1168   4.811   3.598   4.833 -0.0552  0.1719 -0.2836
  351SOL     OW 1169   1.156   4.129   5.552  0.3341  0.6553 -0.2529
  351SOL    HW2 1170   1.200   4.193   5.496 -0.0800  0.2316 -1.0769
  351SOL    HW3 1171   1.225   4.068   5.578  1.3535  2.7859  2.6824
  351SOL    MW4 1172   1.171   4.129   5.548  0.4140  0.8805  0.0257
  352SOL     OW 1173   3.166   2.247   4.917 -0.2488  0.2378 -0.1727
  352SOL    HW2 1174   3.120   2.310   4.973 -1.5258  0.2020 -1.1328
  352SOL    HW3 1175   3.242   2.295   4.885  0.9779  0.0090  2.1609
  352SOL    MW4 1176   3.170   2.262   4.920 -0.2555  0.2029  0.0085
  353SOL     OW 1177   3.469   2.069   4.865 -0.0311 -0.1587  0.0450
  353SOL    HW2 1178   3.424   1.985   4.873  0.9466 -0.8434 -1.2368
  353SOL    HW3 1179   3.460   2.110   4.951 -0.4724 -1.6027  0.7082
  353SOL    MW4 1180   3.462   2.063   4.878  0.0397 -0.4395 -0.0366
  354SOL     OW 1181   6.103   1.732   4.571 -0.2440  0.2199  0.2971
  354SOL    HW2 1182   6.074   1.663   4.512 -0.0162 -0.6079  1.1466
  354SOL    HW3 1183   6.199   1.725   4.572 -0.3144 -1.4406  2.6916
  354SOL    MW4 1184   6.112   1.722   4.563 -0.2232 -0.1084  0.7251
  355SOL     OW 1185   3.606   3.380   5.705 -0.1021 -0.0835  0.2301
  355SOL    HW2 1186   3.520   3.345   5.727 -1.0907  3.0923  1.9467
  355SOL    HW3 1187   3.651   3.387   5.789  1.3515 -0.4024 -0.4812
  355SOL    MW4 1188   3.601   3.376   5.719 -0.0408  0.2935  0.3628
  356SOL     OW 1189   0.275   6.014   0.742  0.1924  0.1237  0.0772
  356SOL    HW2 1190   0.321   6.016   0.826 -0.2291  0.6079  0.3015
  356SOL    HW3 1191   0.293   5.927   0.707  1.8044  0.5001 -0.1474
  356SOL    MW4 1192   0.284   6.003   0.748  0.3494  0.2372  0.0772
  357SOL     OW 1193   6.339   2.052   4.032  0.4452  0.3897  0.5377
  357SOL    HW2 1194   6.421   2.047   3.982 -0.7385 -0.7608 -1.4352
  357SOL    HW3 1195   6.273   2.074   3.967 -1.2714 -1.6848  1.4572
  357SOL    MW4 1196   6.341   2.054   4.017  0.0626 -0.0358  0.3987
  358SOL     OW 1197   2.373   4.538   4.756  0.2630  0.5566 -0.3943
  358SOL    HW2 1198   2.427   4.468   4.719 -1.6855 -0.0314 -2.3459
  358SOL    HW3 1199   2.339   4.501   4.837  0.4364 -0.2011 -0.6531
  358SOL    MW4 1200   2.376   4.524   4.762  0.0288  0.3790 -0.6859
  359SOL     OW 1201   3.982   2.776   4.390  0.0643  0.1897  0.2413
  359SOL    HW2 1202   4.025   2.816   4.465  0.4098 -0.5552  0.4598
  359SOL    HW3 1203   3.912   2.723   4.428  1.1323 -1.3262  0.1852
  359SOL    MW4 1204   3.979   2.774   4.405  0.2508 -0.1086  0.2627
  360SOL     OW 1205   1.583   1.416   2.548 -0.5584 -0.4729  0.5309
  360SOL    HW2 1206   1.498   1.415   2.505  0.4164 -0.7848 -1.5196
  360SOL    HW3 1207   1.619   1.503   2.527 -0.5355 -0.1714  1.7582
  360SOL    MW4 1208   1.577   1.427   2.540 -0.4268 -0.4743  0.4223
  361SOL     OW 1209   2.580   0.008   2.546 -0.4777  0.1970 -0.3354
  361SOL    HW2 1210   2.558  -0.007   2.638 -0.1568  1.1999 -0.0836
  361SOL    HW3 1211   2.496   0.025   2.503 -0.8851 -2.3558 -0.6759
  361SOL    MW4 1212   2.566   0.008   2.552 -0.4891 -0.0075 -0.3471
  362SOL     OW 1213   0.961   4.144   4.873  0.1770 -0.1214  0.2341
  362SOL    HW2 1214   0.883   4.188   4.840  0.1519 -0.3205  0.0240
  362SOL    HW3 1215   1.018   4.136   4.797  0.3133 -0.1679  0.3409
  362SOL    MW4 1216   0.958   4.149   4.859  0.1917 -0.1538  0.2204
  363SOL     OW 1217   2.202   4.563   1.784  0.1522 -0.3783  0.5692
  363SOL    HW2 1218   2.253   4.560   1.703 -0.2838  0.4010  0.2569
  363SOL    HW3 1219   2.264   4.535   1.852  0.7368 -0.3149  0.0732
  363SOL    MW4 1220   2.217   4.559   1.782  0.1718 -0.2671  0.4625
  364SOL     OW 1221   0.827   0.210   0.338  0.2299  0.4511  0.1602
  364SOL    HW2 1222   0.772   0.133   0.355  1.1210 -0.0075  1.0846
  364SOL    HW3 1223   0.774   0.284   0.368 -0.8339  0.2826 -1.1842
  364SOL    MW4 1224   0.813   0.210   0.344  0.2071  0.3683  0.1048
  365SOL     OW 1225   0.067   3.729   3.402 -0.2063 -0.0680  0.0905
  365SOL    HW2 1226  -0.020   3.689   3.398 -0.2501 -0.0235  0.5659
  365SOL    HW3 1227   0.121   3.675   3.344 -0.5267 -0.1518 -0.1306
  365SOL    MW4 1228   0.063   3.716   3.394 -0.2543 -0.0732  0.1240
  366SOL     OW 1229   1.193   4.715   3.484  0.2550  0.6034 -0.0748
  366SOL    HW2 1230   1.220   4.712   3.576 -0.5847 -0.4358  0.1541
  366SOL    HW3 1231   1.242   4.644   3.442 -0.3334  0.2275 -0.1429
  366SOL    MW4 1232   1.203   4.705   3.490  0.0666  0.4167 -0.0536
  367SOL     OW 1233   5.050   2.780   2.678  0.2867  0.3001 -0.4545
  367SOL    HW2 1234   5.003   2.731   2.610 -0.4908  0.8022 -0.2855
  367SOL    HW3 1235   5.027   2.735   2.760 -0.4045  0.9173 -0.3018
  367SOL    MW4 1236   5.041   2.767   2.680  0.0930  0.4478 -0.4121
  368SOL     OW 1237   5.924   3.394   1.483 -0.1800 -0.7358  0.2587
  368SOL    HW2 1238   6.005   3.386   1.534 -1.6098 -0.5387  2.7495
  368SOL    HW3 1239   5.944   3.456   1.414  2.0768 -1.5107  0.1470
  368SOL    MW4 1240   5.937   3.401   1.481 -0.0708 -0.8120  0.5726
  369SOL     OW 1241   4.441   0.855   2.959 -0.0464  0.4595  0.0585
  369SOL    HW2 1242   4.387   0.934   2.966 -0.7414  0.0180 -0.1475
  369SOL    HW3 1243   4.523   0.885   2.921 -0.4591  1.0272 -0.4177
  369SOL    MW4 1244   4.445   0.870   2.955 -0.1925  0.4762 -0.0315
  370SOL     OW 1245   1.726   6.065   2.653  0.0317 -0.6245  0.1824
  370SOL    HW2 1246   1.734   6.029   2.741 -0.0402 -1.4178 -0.1275
  370SOL    HW3 1247   1.642   6.110   2.652  0.8596  1.0572  1.0897
  370SOL    MW4 1248   1.716   6.066   2.665  0.1314 -0.5073  0.2612
  371SOL     OW 1249   3.439   3.280   0.267  0.4302  0.6657 -0.1033
  371SOL    HW2 1250   3.404   3.237   0.345 -1.1360  0.8012 -0.6851
  371SOL    HW3 1251   3.487   3.356   0.300  1.5521 -0.4171  0.8231
  371SOL    MW4 1252   3.441   3.284   0.282  0.3716  0.5407 -0.0578
  372SOL     OW 1253   0.933   6.390   2.129 -0.1187  0.6776  0.2140
  372SOL    HW2 1254   0.920   6.485   2.122  3.3387  1.2271 -0.7496
  372SOL    HW3 1255   0.999   6.381   2.198  0.3586 -0.9435 -0.4219
  372SOL    MW4 1256   0.940   6.401   2.137  0.4004  0.5362  0.0029
  373SOL     OW 1257   4.422   2.434   0.574 -0.3400 -0.0997  0.0352
  373SOL    HW2 1258   4.339   2.455   0.618 -0.2723 -0.0156  0.1216
  373SOL    HW3 1259   4.409   2.345   0.540 -0.5281 -0.0242 -0.0970
  373SOL    MW4 1260   4.409   2.425   0.575 -0.3559 -0.0786  0.0291
  374SOL     OW 1261   0.085   4.664   2.934  0.0549 -0.2587  0.3117
  374SOL    HW2 1262   0.092   4.748   2.890 -0.5209 -0.7132 -0.6669
  374SOL    HW3 1263   0.165   4.617   2.909  0.0838 -0.2362  0.3614
  374SOL    MW4 1264   0.097   4.669   2.925 -0.0173 -0.3157  0.1891
  375SOL     OW 1265   3.194   4.293   5.979  0.1599 -0.3491 -0.4808
  375SOL    HW2 1266   3.117   4.319   6.029 -0.7048  0.9236 -2.3665
  375SOL    HW3 1267   3.211   4.203   6.007 -0.9081 -0.0520  1.2795
  375SOL    MW4 1268   3.186   4.285   5.989 -0.0951 -0.1420 -0.4973
  376SOL     OW 1269   2.675   0.013   1.840 -0.4885 -0.4239  0.3278
  376SOL    HW2 1270   2.627  -0.035   1.772  1.1656  0.0602 -1.2730
  376SOL    HW3 1271   2.766  -0.012   1.826 -0.0707 -0.0425  2.1988
  376SOL    MW4 1272   2.680   0.003   1.829 -0.2151 -0.3097  0.3635
  377SOL     OW 1273   3.066   4.792   1.080 -0.1395 -0.1139 -0.0238
  377SOL    HW2 1274   3.025   4.847   1.146  0.8494 -1.7422  2.0711
  377SOL    HW3 1275   2.995   4.736   1.047 -0.4808  0.1295  0.2970
  377SOL    MW4 1276   3.051   4.792   1.084 -0.0541 -0.2966  0.2949
  378SOL     OW 1277   0.276   0.334   1.992 -0.2473  0.4184  0.4436
  378SOL    HW2 1278   0.343   0.267   1.997  0.2950  0.8988 -0.1668
  378SOL    HW3 1279   0.245   0.330   1.901 -1.1397  0.1156  0.7512
  378SOL    MW4 1280   0.281   0.325   1.980 -0.2935  0.4419  0.4036
  379SOL     OW 1281   4.891   1.888   1.525  0.2503  0.2933 -0.6705
  379SOL    HW2 1282   4.907   1.823   1.457 -0.6282 -1.5155  0.7891
  379SOL    HW3 1283   4.977   1.907   1.561  0.3750 -1.3518 -0.0149
  379SOL    MW4 1284   4.904   1.882   1.520  0.1508 -0.1624 -0.3915
  380SOL     OW 1285   1.582   2.178   1.108 -0.5790  0.5354  0.3936
  380SOL    HW2 1286   1.512   2.156   1.046  0.0824 -0.4088 -0.0470
  380SOL    HW3 1287   1.552   2.141   1.191 -0.5806  0.0684  0.1905
  380SOL    MW4 1288   1.569   2.170   1.111 -0.4919  0.3492  0.3087
  381SOL     OW 1289   1.756   3.391   3.965  0.0521 -0.2439  1.0640
  381SOL    HW2 1290   1.798   3.475   3.947  0.6049 -0.4805  1.2487
  381SOL    HW3 1291   1.667   3.415   3.993 -0.2391  0.2095 -0.2021
  381SOL    MW4 1292   1.750   3.406   3.967  0.0866 -0.2153  0.9213
  382SOL     OW 1293   2.026   0.807   2.894 -0.1938 -0.2621  0.0133
  382SOL    HW2 1294   2.006   0.833   2.984 -0.0092  1.3838 -0.3938
  382SOL    HW3 1295   1.945   0.826   2.845  0.4787  1.1520 -0.5964
  382SOL    MW4 1296   2.012   0.813   2.900 -0.0807  0.1416 -0.1209
  383SOL     OW 1297   0.336   3.383   0.270 -0.1313 -0.9156 -0.0741
  383SOL    HW2 1298   0.367   3.349   0.354 -0.7870 -1.7296 -0.1469
  383SOL    HW3 1299   0.396   3.348   0.205 -0.3672 -1.3424 -0.0686
  383SOL    MW4 1300   0.348   3.374   0.273 -0.2489 -1.0793 -0.0830
  384SOL     OW 1301   4.438   1.742   4.702  0.3742  0.5822 -0.1106
  384SOL    HW2 1302   4.469   1.663   4.747  0.2457  0.0544 -0.9132
  384SOL    HW3 1303   4.373   1.779   4.760 -1.7687 -1.5614 -0.9792
  384SOL    MW4 1304   4.434   1.736   4.715  0.0745  0.2297 -0.3311
  385SOL     OW 1305   2.321   4.330   1.417  0.2290  0.5971 -0.0114
  385SOL    HW2 1306   2.382   4.257   1.428 -0.0884  0.4032  0.4668
  385SOL    HW3 1307   2.258   4.299   1.353  0.9216  0.9901 -0.9085
  385SOL    MW4 1308   2.321   4.316   1.410  0.2785  0.6234 -0.0667
  386SOL     OW 1309   5.899   5.244   3.761  0.1471 -0.9688  0.4053
  386SOL    HW2 1310   5.963   5.250   3.689 -1.1583 -0.7423 -0.7759
  386SOL    HW3 1311   5.908   5.154   3.793  2.9182 -0.2287  2.1068
  386SOL    MW4 1312   5.909   5.233   3.755  0.3405 -0.8413  0.4740
  387SOL     OW 1313   2.138   5.896   1.400 -0.1148  0.2256  0.4990
  387SOL    HW2 1314   2.097   5.957   1.339  1.6925 -0.1328 -1.1837
  387SOL    HW3 1315   2.112   5.809   1.368  2.2023 -0.0352 -0.9486
  387SOL    MW4 1316   2.129   5.892   1.388  0.4294  0.1439  0.0860
  388SOL     OW 1317   5.066   5.757   3.960  0.1004 -0.4335  0.2094
  388SOL    HW2 1318   5.075   5.670   4.000  2.4388  0.0012  0.7325
  388SOL    HW3 1319   5.032   5.812   4.030  1.7248 -0.2419  0.8771
  388SOL    MW4 1320   5.063   5.752   3.974  0.6233 -0.3508  0.3665
  389SOL     OW 1321   2.588   5.810   1.648 -0.4836 -0.0454  0.2564
  389SOL    HW2 1322   2.610   5.893   1.606  0.0919  0.5384  1.6630
  389SOL    HW3 1323   2.517   5.832   1.709  0.0648 -0.4602  1.0567
  389SOL    MW4 1324   2.581   5.824   1.650 -0.3353 -0.0231  0.5476
  390SOL     OW 1325   2.331   2.863   4.235  0.5590  0.0076 -0.0820
  390SOL    HW2 1326   2.236   2.868   4.244  0.4431  0.3701 -1.3298
  390SOL    HW3 1327   2.363   2.942   4.278  0.3133 -0.2296  0.5370
  390SOL    MW4 1328   2.323   2.874   4.242  0.5113  0.0241 -0.1650
  391SOL     OW 1329   0.702   3.559   2.144 -0.4991  0.2174 -0.2417
  391SOL    HW2 1330   0.691   3.497   2.071  0.3413 -0.5526  0.2699
  391SOL    HW3 1331   0.779   3.610   2.121 -2.3924  2.6322 -1.7142
  391SOL    MW4 1332   0.711   3.557   2.131 -0.6380  0.4345 -0.3684
  392SOL     OW 1333   0.398   5.678   3.855 -0.2034  0.1712  0.0407
  392SOL    HW2 1334   0.486   5.679   3.892  0.2022 -0.8818 -0.8292
  392SOL    HW3 1335   0.389   5.763   3.812  0.3214  0.3591  0.2955
  392SOL    MW4 1336   0.408   5.689   3.854 -0.0807  0.0571 -0.0405
  393SOL     OW 1337   3.198   5.765   6.321  0.3433  0.3595 -0.4017
  393SOL    HW2 1338   3.243   5.813   6.391 -1.2141  0.8126  0.3185
  393SOL    HW3 1339   3.189   5.676   6.355 -1.6111  0.8925  0.6017
  393SOL    MW4 1340   3.203   5.760   6.335 -0.1200  0.4896 -0.1743
  394SOL     OW 1341   2.963   5.349   4.761 -0.2715 -0.2640 -0.0181
  394SOL    HW2 1342   3.053   5.368   4.737  0.5504 -0.6633  2.4716
  394SOL    HW3 1343   2.964   5.256   4.785 -1.4224 -0.3475 -0.2384
  394SOL    MW4 1344   2.975   5.339   4.761 -0.3149 -0.3277  0.2813
  395SOL     OW 1345   5.891   2.484   2.892  0.4931  0.4995 -0.2192
  395SOL    HW2 1346   5.896   2.474   2.987 -3.0096  0.6597  0.1134
  395SOL    HW3 1347   5.899   2.579   2.878  0.5791  0.5146 -0.0766
  395SOL    MW4 1348   5.893   2.496   2.902  0.0423  0.5226 -0.1565
  396SOL     OW 1349   2.332   1.620   5.730  0.0647 -0.1865  0.7550
  396SOL    HW2 1350   2.266   1.573   5.782 -1.0371  1.3886  0.8406
  396SOL    HW3 1351   2.289   1.636   5.646  0.7292 -0.0498  0.4352
  396SOL    MW4 1352   2.317   1.616   5.725  0.0070  0.0394  0.7241
  397SOL     OW 1353   0.524   1.660   6.015  0.1663 -0.1930  0.0241
  397SOL    HW2 1354   0.467   1.655   6.092  0.2872 -0.1450  0.1181
  397SOL    HW3 1355   0.586   1.588   6.026  0.5077  0.1274  0.2383
  397SOL    MW4 1356   0.524   1.650   6.027  0.2273 -0.1444  0.0648
  398SOL     OW 1357   5.305   4.819   2.620 -0.0239  0.3081 -0.3857
  398SOL    HW2 1358   5.257   4.748   2.662 -0.3911  0.5675 -0.3571
  398SOL    HW3 1359   5.374   4.842   2.682  0.2433 -0.1767 -0.4984
  398SOL    MW4 1360   5.308   4.813   2.633 -0.0371  0.2783 -0.3968
  399SOL     OW 1361   6.123   2.819   3.137 -0.6050 -0.1535 -0.0615
  399SOL    HW2 1362   6.068   2.897   3.147  1.0071  1.1738 -1.0194
  399SOL    HW3 1363   6.197   2.848   3.083  2.6810 -0.9611  3.5104
  399SOL    MW4 1364   6.126   2.833   3.132  0.0412 -0.0849  0.2834
  400SOL     OW 1365   0.319   5.195   4.043  0.4977 -0.0487 -0.7069
  400SOL    HW2 1366   0.302   5.288   4.028  1.1618  0.3377  0.6987
  400SOL    HW3 1367   0.248   5.150   3.998 -0.9405  1.2351  0.1494
  400SOL    MW4 1368   0.307   5.201   4.035  0.3956  0.1717 -0.4085
  401SOL     OW 1369   3.717   0.389   1.245 -0.1089 -0.4148 -0.0345
  401SOL    HW2 1370   3.626   0.379   1.270 -0.6416  1.3349 -1.0841
  401SOL    HW3 1371   3.722   0.354   1.156  0.3533 -0.9325  0.1909
  401SOL    MW4 1372   3.706   0.383   1.236 -0.1182 -0.2522 -0.1432
  402SOL     OW 1373   1.611   2.245   5.162 -0.7360  0.0461 -0.1899
  402SOL    HW2 1374   1.625   2.333   5.198  0.6194 -0.0689 -0.4187
  402SOL    HW3 1375   1.516   2.242   5.145 -1.0957  0.8292  1.4341
  402SOL    MW4 1376   1.600   2.256   5.164 -0.6046  0.1342 -0.0058
  403SOL     OW 1377   3.097   2.628   4.839  0.6070  0.1447  0.0561
  403SOL    HW2 1378   3.126   2.566   4.772  0.4783 -0.9415  0.9628
  403SOL    HW3 1379   3.004   2.609   4.850  0.0173  2.0472 -1.2112
  403SOL    MW4 1380   3.088   2.617   4.832  0.5122  0.2524  0.0085
  404SOL     OW 1381   5.135   2.738   5.443 -0.0925 -0.3949  0.3262
  404SOL    HW2 1382   5.202   2.740   5.375 -0.0450 -1.0325  0.3488
  404SOL    HW3 1383   5.054   2.760   5.396 -0.2349 -1.8507 -0.1669
  404SOL    MW4 1384   5.133   2.741   5.428 -0.1050 -0.6711  0.2641
  405SOL     OW 1385   3.148   1.376   5.824  0.0447  0.1103  0.2053
  405SOL    HW2 1386   3.111   1.290   5.802 -1.7584  0.8228  0.3333
  405SOL    HW3 1387   3.215   1.357   5.889  0.2491 -1.2722 -0.3709
  405SOL    MW4 1388   3.152   1.362   5.829 -0.1663  0.0219  0.1462
  406SOL     OW 1389   1.121   2.768   5.661 -0.3131  0.8070  0.1813
  406SOL    HW2 1390   1.082   2.852   5.635  0.4694  0.6794 -1.5460
  406SOL    HW3 1391   1.062   2.702   5.625  1.0255  0.6196 -1.7670
  406SOL    MW4 1392   1.108   2.770   5.653 -0.0333  0.7655 -0.3037
  407SOL     OW 1393   0.280   3.693  -0.000  0.2629  0.1286  0.6474
  407SOL    HW2 1394   0.299   3.785   0.020 -0.7163  0.5690 -0.3350
  407SOL    HW3 1395   0.250   3.694  -0.090 -0.9103 -0.9862  0.9977
  407SOL    MW4 1396   0.278   3.705  -0.009 -0.0211  0.0396  0.5640
  408SOL     OW 1397   5.692   1.141   3.577 -0.3972 -0.8097  0.1775
  408SOL    HW2 1398   5.608   1.120   3.617 -0.0924 -2.8992 -0.1832
  408SOL    HW3 1399   5.673   1.150   3.484 -0.3712 -0.2406  0.2196
  408SOL    MW4 1400   5.679   1.140   3.570 -0.3535 -1.0103  0.1354
  409SOL     OW 1401   5.264   0.468   2.102  0.0113 -0.2118 -0.1059
  409SOL    HW2 1402   5.236   0.441   2.014  1.6137 -0.0708 -0.6900
  409SOL    HW3 1403   5.359   0.474   2.096  0.0399  1.4379  1.1697
  409SOL    MW4 1404   5.273   0.466   2.090  0.2265  0.0245 -0.0147
  410SOL     OW 1405   1.967   5.822   2.813  0.1899  0.3757 -0.0913
  410SOL    HW2 1406   2.000   5.802   2.725 -3.7495 -0.7671 -1.5502
  410SOL    HW3 1407   1.955   5.736   2.854 -0.0528  0.7766  0.6969
  410SOL    MW4 1408   1.970   5.808   2.807 -0.3619  0.2778 -0.1798
  411SOL     OW 1409   4.581   5.612   3.802 -0.2449 -0.3691 -0.2689
  411SOL    HW2 1410   4.609   5.666   3.876 -2.0723  1.6707 -0.9780
  411SOL    HW3 1411   4.661   5.597   3.752  0.5571  0.4651  0.7136
  411SOL    MW4 1412   4.595   5.617   3.805 -0.3802  0.0101 -0.2328
  412SOL     OW 1413   5.295   4.048   5.253  0.0916  0.8454 -0.2346
  412SOL    HW2 1414   5.242   4.019   5.327  0.0150 -0.9305 -0.9439
  412SOL    HW3 1415   5.378   4.076   5.293  0.4819 -1.1450  0.4752
  412SOL    MW4 1416   5.299   4.048   5.268  0.1330  0.3485 -0.2345
  413SOL     OW 1417   4.344   5.660   0.858  0.0335 -0.2566  0.8078
  413SOL    HW2 1418   4.268   5.691   0.908 -0.0206  0.1182  0.5006
  413SOL    HW3 1419   4.419   5.702   0.900  0.0396 -0.3636  0.9044
  413SOL    MW4 1420   4.344   5.670   0.870  0.0272 -0.2212  0.7800
  414SOL     OW 1421   5.650   1.625   2.901  0.1586 -0.0608 -0.5659
  414SOL    HW2 1422   5.708   1.698   2.878 -1.8112  1.4952 -0.7882
  414SOL    HW3 1423   5.700   1.547   2.877  2.1660  1.1966 -0.7308
  414SOL    MW4 1424   5.665   1.624   2.895  0.1635  0.3104 -0.6170
  415SOL     OW 1425   2.461   5.709   4.759 -0.1226 -0.8387 -0.5874
  415SOL    HW2 1426   2.382   5.668   4.795 -0.2951 -0.3615 -0.4201
  415SOL    HW3 1427   2.531   5.648   4.780  0.2669  0.6255  3.0292
  415SOL    MW4 1428   2.459   5.695   4.766 -0.0940 -0.5826 -0.0881
  416SOL     OW 1429   0.948   0.917   1.610  0.0943  0.0813  0.5667
  416SOL    HW2 1430   0.931   0.986   1.546  1.3988 -0.3163 -0.2420
  416SOL    HW3 1431   0.954   0.963   1.694 -0.4985  0.7523  0.2537
  416SOL    MW4 1432   0.946   0.932   1.613  0.1882  0.1174  0.4187
  417SOL     OW 1433   0.234   6.365   4.554  0.1850  0.3314 -0.1900
  417SOL    HW2 1434   0.326   6.339   4.550  0.4727  0.7762  2.2487
  417SOL    HW3 1435   0.216   6.377   4.647 -2.4230  0.0442 -0.5802
  417SOL    MW4 1436   0.244   6.364   4.565 -0.1211  0.3522  0.0803
  418SOL     OW 1437   2.109   5.881   0.034  0.1801  0.6753  0.6484
  418SOL    HW2 1438   2.157   5.861   0.115  3.8555 -1.0726 -1.6682
  418SOL    HW3 1439   2.143   5.966   0.006  0.8079  0.1467 -0.2382
  418SOL    MW4 1440   2.120   5.890   0.041  0.7478  0.3749  0.2258
  419SOL     OW 1441   0.471   0.981   3.692 -0.0285 -0.1497 -0.5399
  419SOL    HW2 1442   0.488   0.970   3.785  0.2644 -0.2504 -0.6039
  419SOL    HW3 1443   0.441   1.072   3.684  0.3493 -0.0088 -0.4011
  419SOL    MW4 1444   0.470   0.992   3.703  0.0600 -0.1444 -0.5300
  420SOL     OW 1445   5.463   1.358   3.535  0.0080 -0.5133  0.1902
  420SOL    HW2 1446   5.518   1.360   3.457 -0.2273  2.2044 -0.0007
  420SOL    HW3 1447   5.375   1.339   3.502  0.2317 -1.3680  0.0664
  420SOL    MW4 1448   5.459   1.356   3.520  0.0064 -0.2675  0.1487
  421SOL     OW 1449   1.646   5.157   1.086  0.6775 -0.2714  0.4309
  421SOL    HW2 1450   1.580   5.220   1.059  0.4209 -0.9049 -0.4705
  421SOL    HW3 1451   1.608   5.114   1.163  0.9301  0.7628  1.1538
  421SOL    MW4 1452   1.632   5.159   1.093  0.6770 -0.2185  0.4074
  422SOL     OW 1453   1.457   2.973   6.165 -0.7122  0.2134 -0.1209
  422SOL    HW2 1454   1.507   2.954   6.244 -1.4783  0.6554  0.4810
  422SOL    HW3 1455   1.458   2.891   6.116  0.3454  0.1304  0.0129
  422SOL    MW4 1456   1.464   2.960   6.169 -0.6737  0.2608 -0.0238
  423SOL     OW 1457   5.301   3.598   0.447  0.1781  0.0234 -0.0684
  423SOL    HW2 1458   5.242   3.565   0.379 -0.9153  1.2506  0.2394
  423SOL    HW3 1459   5.297   3.693   0.438  1.8118  0.1625  0.2474
  423SOL    MW4 1460   5.293   3.606   0.437  0.2494  0.2037  0.0139
  424SOL     OW 1461   6.025   1.163   2.442 -0.3212  0.0986  0.0444
  424SOL    HW2 1462   6.093   1.172   2.508  0.0850 -0.7708 -0.2533
  424SOL    HW3 1463   5.973   1.088   2.471 -0.0165 -0.4120 -0.7363
  424SOL    MW4 1464   6.027   1.154   2.455 -0.2274 -0.0835 -0.0979
  425SOL     OW 1465   2.775   1.102   0.488 -0.7202 -0.2615  0.0120
  425SOL    HW2 1466   2.730   1.017   0.490  0.3591 -0.8943 -1.1467
  425SOL    HW3 1467   2.867   1.080   0.478 -0.5446  1.0547 -1.7541
  425SOL    MW4 1468   2.781   1.088   0.487 -0.5546 -0.1713 -0.3739
  426SOL     OW 1469   1.456   1.738   1.406  0.6349 -0.0838  0.0211
  426SOL    HW2 1470   1.400   1.723   1.482  0.6727  0.6601  0.2128
  426SOL    HW3 1471   1.398   1.726   1.330  0.1767  0.7783  0.2188
  426SOL    MW4 1472   1.441   1.735   1.406  0.5794  0.1281  0.0725
  427SOL     OW 1473   1.443   2.477   1.625  0.3201  0.1472  0.3235
  427SOL    HW2 1474   1.415   2.415   1.692  0.7369  0.3231  0.6664
  427SOL    HW3 1475   1.512   2.431   1.577  0.7579  0.4050  0.6957
  427SOL    MW4 1476   1.449   2.463   1.628  0.4328  0.2044  0.4179
  428SOL     OW 1477   0.578   3.514   4.376  0.3511 -0.7367  0.2448
  428SOL    HW2 1478   0.496   3.482   4.340 -0.3374  2.4924 -1.3446
  428SOL    HW3 1479   0.642   3.501   4.305  0.2415  0.5155 -0.1080
  428SOL    MW4 1480   0.576   3.508   4.362  0.2458 -0.1454 -0.0115
  429SOL     OW 1481   2.068   0.448   4.331 -0.1918 -0.0097 -0.3333
  429SOL    HW2 1482   2.069   0.358   4.299 -0.4008 -0.2661  0.3553
  429SOL    HW3 1483   2.157   0.463   4.364  0.0485  0.2843 -1.1109
  429SOL    MW4 1484   2.080   0.438   4.331 -0.1877 -0.0047 -0.3450
  430SOL     OW 1485   3.666   2.587   0.769  0.0210  0.1334 -0.5518
  430SOL    HW2 1486   3.681   2.498   0.801 -0.8216 -0.2392 -1.1762
  430SOL    HW3 1487   3.733   2.600   0.702  0.5488  0.2157 -0.0262
  430SOL    MW4 1488   3.677   2.577   0.764 -0.0205  0.0951 -0.5649
  431SOL     OW 1489   4.972   4.850   3.273  0.9088 -0.1955  0.1335
  431SOL    HW2 1490   4.975   4.755   3.274  1.7745 -0.1930  2.0112
  431SOL    HW3 1491   5.061   4.877   3.252  0.4756  0.2445 -1.2889
  431SOL    MW4 1492   4.984   4.841   3.270  0.9659 -0.1371  0.1936
  432SOL     OW 1493   3.326   2.370   0.744 -0.4094  0.1236 -0.0687
  432SOL    HW2 1494   3.252   2.426   0.721 -1.2760 -1.2043 -0.5735
  432SOL    HW3 1495   3.358   2.337   0.661 -0.0778 -0.3540  0.2454
  432SOL    MW4 1496   3.321   2.373   0.730 -0.4800 -0.1146 -0.0938
  433SOL     OW 1497   6.070   5.837   5.220 -0.5677  0.1756  0.0948
  433SOL    HW2 1498   6.148   5.784   5.203 -0.3470 -0.4581  2.6506
  433SOL    HW3 1499   5.997   5.777   5.206 -0.4409 -0.0713  0.4690
  433SOL    MW4 1500   6.071   5.822   5.216 -0.5219  0.0594  0.4814
  434SOL     OW 1501   3.151   5.971   2.739  0.2600  0.1880 -0.0789
  434SOL    HW2 1502   3.087   5.938   2.801 -0.6368  0.0279 -1.0605
  434SOL    HW3 1503   3.215   6.018   2.792  0.4184 -1.3154  1.1350
  434SOL    MW4 1504   3.151   5.973   2.754  0.1626 -0.0315 -0.0483
  435SOL     OW 1505   0.593   4.517   2.148 -0.2269 -0.3138 -0.0508
  435SOL    HW2 1506   0.602   4.432   2.189  2.8010  0.3236  0.8264
  435SOL    HW3 1507   0.518   4.507   2.088 -4.1733 -1.6728  4.4585
  435SOL    MW4 1508   0.584   4.505   2.146 -0.3481 -0.4090  0.6599
  436SOL     OW 1509   5.069   0.665   4.031 -0.0792  0.0318 -0.1912
  436SOL    HW2 1510   5.010   0.710   3.970  1.3822  1.1231 -0.8691
  436SOL    HW3 1511   5.099   0.733   4.090  0.5324 -0.4883  0.1136
  436SOL    MW4 1512   5.065   0.680   4.031  0.1943  0.1072 -0.2404
  437SOL     OW 1513   4.757   3.691   6.277  0.3018 -0.1675  0.1661
  437SOL    HW2 1514   4.693   3.620   6.268 -0.1236  0.2878 -0.4901
  437SOL    HW3 1515   4.736   3.731   6.361 -0.2006 -0.1018  0.0118
  437SOL    MW4 1516   4.746   3.687   6.287  0.1794 -0.0988  0.0592
  438SOL     OW 1517   2.982   2.018   3.640  0.0978 -0.2921 -0.3195
  438SOL    HW2 1518   2.970   1.950   3.707 -1.0504 -0.5472 -0.7519
  438SOL    HW3 1519   2.945   1.980   3.560  0.5143  0.4020 -0.8581
  438SOL    MW4 1520   2.975   2.004   3.638  0.0013 -0.2342 -0.4476
  439SOL     OW 1521   4.001   5.388   3.420  0.3094  0.2432  0.0429
  439SOL    HW2 1522   3.978   5.469   3.467 -0.8656  0.3750 -0.7181
  439SOL    HW3 1523   4.095   5.395   3.406  0.2591  1.4258  0.1273
  439SOL    MW4 1524   4.010   5.400   3.424  0.1477  0.4166 -0.0464
  440SOL     OW 1525   4.257   5.722   0.421  0.0578 -0.0635  0.4109
  440SOL    HW2 1526   4.222   5.672   0.347 -0.1538  0.3243  0.2453
  440SOL    HW3 1527   4.180   5.749   0.470  0.1639  0.1704  0.4510
  440SOL    MW4 1528   4.242   5.719   0.417  0.0439  0.0185  0.3943
  441SOL     OW 1529   3.097   2.205   5.375  0.2281  0.0317  0.0929
  441SOL    HW2 1530   3.120   2.278   5.317  1.1057  0.3869  0.8676
  441SOL    HW3 1531   3.010   2.178   5.345  1.1316 -0.5935 -2.1544
  441SOL    MW4 1532   3.088   2.211   5.364  0.4631 -0.0039 -0.1014
  442SOL     OW 1533   3.250   3.455   5.392  0.5405  0.0317  0.0878
  442SOL    HW2 1534   3.186   3.387   5.373 -0.0689  0.5674  0.2015
  442SOL    HW3 1535   3.203   3.537   5.380  1.7869  0.5271 -2.1017
  442SOL    MW4 1536   3.236   3.457   5.388  0.6246  0.1677 -0.1861
  443SOL     OW 1537   1.913   6.310   1.874 -0.0005 -0.7424  0.0726
  443SOL    HW2 1538   1.823   6.292   1.900 -0.6116  2.4494  0.5474
  443SOL    HW3 1539   1.961   6.318   1.957 -0.2469  1.6313  0.0520
  443SOL    MW4 1540   1.907   6.309   1.889 -0.1136 -0.0081  0.1325
  444SOL     OW 1541   0.505   3.193   2.528 -0.3280 -0.2795 -0.0514
  444SOL    HW2 1542   0.426   3.206   2.476 -0.1209  0.7882 -0.1132
  444SOL    HW3 1543   0.575   3.233   2.476  0.1844 -0.8351  0.2001
  444SOL    MW4 1544   0.504   3.200   2.514 -0.2331 -0.2119 -0.0264
  445SOL     OW 1545   4.690   2.937   5.067  0.1346 -0.3555 -0.0152
  445SOL    HW2 1546   4.618   2.975   5.118 -0.6725  0.2567 -1.5585
  445SOL    HW3 1547   4.768   2.978   5.104 -0.5624  1.3975 -0.3468
  445SOL    MW4 1548   4.690   2.948   5.079 -0.0639 -0.0434 -0.2626
  446SOL     OW 1549   3.294   2.054   0.816  0.0314  0.3132  0.6277
  446SOL    HW2 1550   3.271   2.146   0.804 -1.1935 -0.2232 -1.9853
  446SOL    HW3 1551   3.386   2.048   0.792 -0.5012  0.5502 -1.7776
  446SOL    MW4 1552   3.303   2.065   0.811 -0.2005  0.2737 -0.0344
  447SOL     OW 1553   3.185   6.222   5.008  0.2205  0.0446 -0.2828
  447SOL    HW2 1554   3.185   6.279   5.085 -1.8510  1.1655 -1.0329
  447SOL    HW3 1555   3.140   6.143   5.037 -0.8581  0.5967 -0.3621
  447SOL    MW4 1556   3.179   6.219   5.022 -0.1951  0.2653 -0.3922
  448SOL     OW 1557   5.429   4.124   0.130  0.3945  0.4605 -0.1572
  448SOL    HW2 1558   5.373   4.141   0.054 -1.0319  1.0180  0.9800
  448SOL    HW3 1559   5.458   4.211   0.157  2.4837  0.1393 -1.1713
  448SOL    MW4 1560   5.426   4.138   0.123  0.4819  0.4917 -0.1410
  449SOL     OW 1561   4.613   2.072   3.649  0.2795  0.6256  0.0397
  449SOL    HW2 1562   4.654   2.052   3.733  1.3703 -2.1485 -1.0528
  449SOL    HW3 1563   4.520   2.083   3.670  0.6772  1.0904  1.7226
  449SOL    MW4 1564   4.606   2.071   3.663  0.4759  0.3209  0.1176
  450SOL     OW 1565   2.756   5.082   1.718  0.3173 -0.0549  0.1381
  450SOL    HW2 1566   2.775   5.126   1.801  1.7683  0.9977 -0.7048
  450SOL    HW3 1567   2.841   5.051   1.688 -0.6788 -4.0042  0.9130
  450SOL    MW4 1568   2.770   5.084   1.725  0.3773 -0.4371  0.1291
  451SOL     OW 1569   3.187   5.116   1.252 -0.0047  0.2778  0.0034
  451SOL    HW2 1570   3.170   5.183   1.318  0.2436  1.0412 -0.6863
  451SOL    HW3 1571   3.108   5.062   1.252 -0.0178  0.2778  0.8997
  451SOL    MW4 1572   3.174   5.118   1.261  0.0264  0.3785  0.0306
  452SOL     OW 1573   2.258   0.380   1.710  0.3828  0.1004 -0.1247
  452SOL    HW2 1574   2.225   0.324   1.780 -1.5470  0.4116 -0.7322
  452SOL    HW3 1575   2.324   0.435   1.753  0.1156 -0.5461  1.1710
  452SOL    MW4 1576   2.262   0.380   1.725  0.0930  0.0562 -0.0339
  453SOL     OW 1577   1.222   0.127   2.023 -0.3490  0.2473  0.4484
  453SOL    HW2 1578   1.283   0.094   2.089 -1.3888  0.3166  1.4901
  453SOL    HW3 1579   1.236   0.221   2.021  0.7262  0.0790 -0.5396
  453SOL    MW4 1580   1.232   0.135   2.032 -0.3443  0.2342  0.4554
  454SOL     OW 1581   1.456   5.759   2.723  0.2314 -0.1246  0.5466
  454SOL    HW2 1582   1.546   5.729   2.735  0.6037  0.3121 -0.9616
  454SOL    HW3 1583   1.418   5.758   2.811  1.6388 -0.5312  1.1671
  454SOL    MW4 1584   1.462   5.755   2.736  0.4662 -0.1206  0.4295
  455SOL     OW 1585   2.092   0.444   5.775  0.0608 -0.7402 -0.0795
  455SOL    HW2 1586   2.086   0.402   5.861  0.3952  0.4085  0.5388
  455SOL    HW3 1587   2.022   0.509   5.775  0.8916  0.1960 -0.1123
  455SOL    MW4 1588   2.082   0.447   5.786  0.2145 -0.4651 -0.0023
  456SOL     OW 1589   1.022   1.055   1.010  0.7651 -0.0425 -0.1334
  456SOL    HW2 1590   1.108   1.045   0.969  0.5788  1.4670 -0.9551
  456SOL    HW3 1591   0.965   1.086   0.940 -0.3542 -0.5823  0.5101
  456SOL    MW4 1592   1.026   1.058   0.995  0.5928  0.0854 -0.1569
  457SOL     OW 1593   3.162   4.378   1.012 -0.0242  0.1236 -0.0670
  457SOL    HW2 1594   3.181   4.397   0.920  1.5440 -1.3667 -0.0907
  457SOL    HW3 1595   3.072   4.345   1.012  0.5664 -1.5972 -1.3605
  457SOL    MW4 1596   3.153   4.376   1.000  0.2607 -0.3000 -0.2408
  458SOL     OW 1597   5.600   1.995   3.767  0.1809  0.2253  0.3200
  458SOL    HW2 1598   5.641   2.082   3.776  2.1338 -0.5625 -0.4294
  458SOL    HW3 1599   5.521   2.011   3.715 -0.1400  1.7125  1.1972
  458SOL    MW4 1600   5.595   2.009   3.762  0.3962  0.3176  0.3368
  459SOL     OW 1601   1.176   3.226   0.409 -0.0214 -0.7553 -0.4013
  459SOL    HW2 1602   1.242   3.215   0.341  0.0841 -0.8286 -0.2886
  459SOL    HW3 1603   1.103   3.169   0.382 -1.0699  1.1490 -1.7946
  459SOL    MW4 1604   1.175   3.217   0.397 -0.1458 -0.5138 -0.5703
  460SOL     OW 1605   1.456   4.473   5.263 -0.8335  0.0238 -0.5731
  460SOL    HW2 1606   1.517   4.534   5.221 -0.5762  1.0180  1.1679
  460SOL    HW3 1607   1.436   4.409   5.195 -1.3741  2.2275 -2.6080
  460SOL    MW4 1608   1.461   4.473   5.248 -0.8709  0.4457 -0.6119
  461SOL     OW 1609   0.955   3.865   4.146 -0.0013 -0.2758 -0.0311
  461SOL    HW2 1610   1.011   3.938   4.172  1.3508 -0.8952 -1.0735
  461SOL    HW3 1611   1.016   3.801   4.109 -1.4962 -0.6022 -2.0403
  461SOL    MW4 1612   0.971   3.866   4.145 -0.0201 -0.4006 -0.4337
  462SOL     OW 1613   3.365   0.281  -0.023 -0.3596 -0.1085 -0.0607
  462SOL    HW2 1614   3.314   0.305   0.055  1.9170  0.8561  1.2282
  462SOL    HW3 1615   3.304   0.291  -0.096 -1.5517  2.6865  1.1903
  462SOL    MW4 1616   3.350   0.286  -0.022 -0.2165  0.3875  0.2744
  463SOL     OW 1617   5.332   4.250   3.395 -0.5010  0.2693 -0.9937
  463SOL    HW2 1618   5.374   4.179   3.442  1.1253  1.2811 -0.8448
  463SOL    HW3 1619   5.375   4.330   3.426 -1.7184  1.2701 -1.7215
  463SOL    MW4 1620   5.343   4.251   3.405 -0.4470  0.5348 -1.0701
  464SOL     OW 1621   2.470   4.070   1.943  0.5865  0.1361 -0.5481
  464SOL    HW2 1622   2.426   3.985   1.942 -0.0582  0.4564 -0.2232
  464SOL    HW3 1623   2.429   4.117   2.016 -0.4994  1.4607 -1.9431
  464SOL    MW4 1624   2.459   4.065   1.953  0.3581  0.3531 -0.6893
  465SOL     OW 1625   0.138   0.835   3.316 -0.2231 -0.5702  0.0979
  465SOL    HW2 1626   0.124   0.742   3.302  0.3474 -0.7674  0.7921
  465SOL    HW3 1627   0.132   0.847   3.411 -1.3759  0.2889 -0.0501
  465SOL    MW4 1628   0.135   0.824   3.327 -0.3000 -0.4829  0.1700
  466SOL     OW 1629   3.248   5.945   0.298 -0.2684  0.3814 -0.0255
  466SOL    HW2 1630   3.338   5.962   0.323 -0.3622  0.1508  0.5010
  466SOL    HW3 1631   3.205   6.031   0.301 -0.3142  0.3418  0.8003
  466SOL    MW4 1632   3.254   5.959   0.302 -0.2868  0.3457  0.1529
  467SOL     OW 1633   3.086   3.499   3.931  0.0007 -0.4551  0.0039
  467SOL    HW2 1634   3.162   3.555   3.913 -0.2061  0.0484  0.6399
  467SOL    HW3 1635   3.094   3.427   3.869  1.0429 -0.4552  0.1156
  467SOL    MW4 1636   3.097   3.497   3.920  0.1109 -0.3887  0.1025
  468SOL     OW 1637   4.400   2.301   4.125  0.2008 -0.8906  0.0408
  468SOL    HW2 1638   4.384   2.377   4.071  1.7870 -1.6393 -1.5871
  468SOL    HW3 1639   4.488   2.315   4.161  0.9124 -2.3148 -1.0276
  468SOL    MW4 1640   4.410   2.313   4.123  0.5040 -1.1773 -0.3149
  469SOL     OW 1641   3.376   6.380   5.429  0.6181  0.0931  0.0769
  469SOL    HW2 1642   3.290   6.349   5.399 -0.1314  4.0339 -2.4895
  469SOL    HW3 1643   3.356   6.445   5.496  1.3729  2.1955 -1.6329
  469SOL    MW4 1644   3.362   6.384   5.434  0.6188  0.8905 -0.4873
  470SOL     OW 1645   1.253   0.194   5.265  0.6176 -0.1531  0.0269
  470SOL    HW2 1646   1.157   0.187   5.257  0.6613  0.0300 -0.7332
  470SOL    HW3 1647   1.285   0.109   5.236  0.6943 -0.1317  0.0509
  470SOL    MW4 1648   1.244   0.182   5.260  0.6335 -0.1261 -0.0702
  471SOL     OW 1649   0.757   4.140   1.580 -0.1172 -0.2238  0.3394
  471SOL    HW2 1650   0.756   4.225   1.536 -3.4325 -0.5052 -0.4013
  471SOL    HW3 1651   0.759   4.161   1.673 -3.3853  0.9228  0.2795
  471SOL    MW4 1652   0.757   4.154   1.586 -0.9858 -0.1097  0.2337
  472SOL     OW 1653   3.369   3.607   5.947 -0.2600 -0.5057  0.1906
  472SOL    HW2 1654   3.394   3.599   5.855 -0.8388  0.7992 -0.1095
  472SOL    HW3 1655   3.275   3.590   5.948 -0.5582  0.9568  0.2685
  472SOL    MW4 1656   3.360   3.604   5.935 -0.3757 -0.1406  0.1613
  473SOL     OW 1657   2.416   4.127   6.199  0.0028  0.0245  0.3077
  473SOL    HW2 1658   2.417   4.205   6.144  0.3935  0.1701  0.5176
  473SOL    HW3 1659   2.344   4.074   6.164 -0.1976  0.4308  0.1025
  473SOL    MW4 1660   2.407   4.130   6.187  0.0279  0.0973  0.3084
  474SOL     OW 1661   4.269   3.445   4.717 -0.1308  0.0466  0.3013
  474SOL    HW2 1662   4.329   3.498   4.771  0.3138  0.1444 -0.2780
  474SOL    HW3 1663   4.231   3.382   4.778 -1.5229  1.7215  1.2567
  474SOL    MW4 1664   4.272   3.444   4.732 -0.2558  0.2805  0.3509
  475SOL     OW 1665   5.161   3.943   3.385  0.4568  0.5349 -0.2232
  475SOL    HW2 1666   5.069   3.924   3.367  0.6461 -0.3119 -0.3282
  475SOL    HW3 1667   5.171   3.924   3.479  1.3786 -3.1595 -0.9116
  475SOL    MW4 1668   5.150   3.938   3.395  0.6034 -0.0642 -0.3279
  476SOL     OW 1669   2.274   0.702   3.450  0.5987  0.6792  0.3759
  476SOL    HW2 1670   2.343   0.637   3.433 -0.8207 -0.5027 -1.3055
  476SOL    HW3 1671   2.209   0.654   3.501 -0.9655  0.3388 -1.7830
  476SOL    MW4 1672   2.274   0.687   3.455  0.2051  0.4784 -0.1308
  477SOL     OW 1673   5.591   0.509   0.434 -0.3823 -0.0905 -0.1315
  477SOL    HW2 1674   5.597   0.467   0.349  2.6675  4.0568 -2.3054
  477SOL    HW3 1675   5.537   0.586   0.420 -0.6785  0.1590  1.9926
  477SOL    MW4 1676   5.585   0.514   0.421 -0.0190  0.4896 -0.1381
  478SOL     OW 1677   5.109   2.676   4.211 -0.1242  0.3903 -0.4607
  478SOL    HW2 1678   5.119   2.770   4.229 -2.0778  0.4601  0.4294
  478SOL    HW3 1679   5.100   2.636   4.297  0.2785 -0.5820 -0.8562
  478SOL    MW4 1680   5.109   2.683   4.225 -0.3288  0.2712 -0.3954
  479SOL     OW 1681   1.542   5.566   4.729  0.5257 -0.3645 -0.3853
  479SOL    HW2 1682   1.517   5.602   4.814 -0.8730  0.7520 -1.2248
  479SOL    HW3 1683   1.498   5.622   4.665 -0.8162 -2.8633 -1.8044
  479SOL    MW4 1684   1.533   5.578   4.732  0.1641 -0.5469 -0.6833
  480SOL     OW 1685   4.687   3.333   0.344  0.0612  0.1278  0.6178
  480SOL    HW2 1686   4.702   3.349   0.251 -1.2928  0.6570  0.4735
  480SOL    HW3 1687   4.628   3.258   0.347  1.0274 -0.6245  1.0985
  480SOL    MW4 1688   4.681   3.325   0.332  0.0101  0.0984  0.6622
  481SOL     OW 1689   5.203   5.446   2.353 -0.3869  0.1323 -0.2501
  481SOL    HW2 1690   5.214   5.499   2.274 -0.1571  0.3496 -0.0795
  481SOL    HW3 1691   5.265   5.374   2.342 -1.6060 -0.8168 -1.0597
  481SOL    MW4 1692   5.213   5.444   2.341 -0.5174  0.0357 -0.3344
  482SOL     OW 1693   2.928   1.628   5.558 -0.5044 -0.6223  0.2710
  482SOL    HW2 1694   2.938   1.596   5.648  0.8052  0.2372  0.4682
  482SOL    HW3 1695   2.946   1.721   5.564 -0.0276 -0.6182 -0.9341
  482SOL    MW4 1696   2.932   1.636   5.571 -0.2687 -0.5084  0.1380
  483SOL     OW 1697   5.558   4.934   0.021 -0.5833  0.1603  0.4237
  483SOL    HW2 1698   5.640   4.909   0.064  0.4205  1.7980 -0.4342
  483SOL    HW3 1699   5.531   4.855  -0.026  1.6165  0.1205 -0.9489
  483SOL    MW4 1700   5.566   4.920   0.021 -0.1606  0.3711  0.1294
  484SOL     OW 1701   5.891   3.788   1.546 -0.0707  0.1222 -0.2718
  484SOL    HW2 1702   5.973   3.748   1.575 -0.5913 -0.6762  0.1487
  484SOL    HW3 1703   5.867   3.849   1.616 -0.7044 -0.9140  0.4420
  484SOL    MW4 1704   5.899   3.791   1.559 -0.2230 -0.1199 -0.1222
  485SOL     OW 1705   6.192   3.837   4.066  0.0461  0.0863  0.2599
  485SOL    HW2 1706   6.261   3.903   4.059 -0.1328  0.3773  1.0808
  485SOL    HW3 1707   6.148   3.857   4.149  0.1108 -1.1787  0.6257
  485SOL    MW4 1708   6.196   3.848   4.076  0.0310 -0.0422  0.4165
  486SOL     OW 1709   3.926   5.499   4.049  0.1593 -0.1656 -0.1492
  486SOL    HW2 1710   4.015   5.518   4.019  0.7556 -0.6859  1.2011
  486SOL    HW3 1711   3.928   5.516   4.143 -1.5031  0.9033 -0.2710
  486SOL    MW4 1712   3.938   5.503   4.058  0.0186 -0.0932  0.0129
  487SOL     OW 1713   0.344   6.042   1.010  0.4593  0.1446 -0.5052
  487SOL    HW2 1714   0.290   5.963   1.011 -0.2692  0.6083 -1.5884
  487SOL    HW3 1715   0.380   6.047   1.099  0.7426 -1.5421 -0.4899
  487SOL    MW4 1716   0.342   6.032   1.022  0.4005 -0.0167 -0.6461
  488SOL     OW 1717   4.189   2.421   6.278 -0.5063  0.7859  0.1703
  488SOL    HW2 1718   4.097   2.445   6.288 -0.5540  0.5510  0.3070
  488SOL    HW3 1719   4.237   2.503   6.287 -0.6289  0.7668  1.0983
  488SOL    MW4 1720   4.183   2.435   6.280 -0.5288  0.7524  0.3108
  489SOL     OW 1721   5.930   5.269   5.305 -0.0153  0.1239 -0.0270
  489SOL    HW2 1722   5.879   5.334   5.257 -0.7393 -1.5628 -1.6639
  489SOL    HW3 1723   6.020   5.301   5.302 -0.1269  0.3705 -2.0905
  489SOL    MW4 1724   5.935   5.282   5.298 -0.1256 -0.0661 -0.5152
  490SOL     OW 1725   6.041   1.614   3.626  0.3970  0.6783 -0.4657
  490SOL    HW2 1726   6.022   1.561   3.704  1.0826  2.1321  0.7498
  490SOL    HW3 1727   5.986   1.692   3.636  0.5468  0.9196 -1.4117
  490SOL    MW4 1728   6.031   1.617   3.638  0.5072  0.9019 -0.4301
  491SOL     OW 1729   1.279   3.697   3.737  0.3516 -0.8882  0.2803
  491SOL    HW2 1730   1.351   3.760   3.736 -0.3665 -0.0402  0.6091
  491SOL    HW3 1731   1.322   3.611   3.735  1.3269 -0.3952 -1.1118
  491SOL    MW4 1732   1.294   3.694   3.737  0.3855 -0.7113  0.1400
  492SOL     OW 1733   5.471   2.811   0.542  0.3985  0.2187  0.0757
  492SOL    HW2 1734   5.554   2.797   0.588  0.4100 -0.1162 -0.0465
  492SOL    HW3 1735   5.440   2.895   0.575  0.8308  0.3886  0.0557
  492SOL    MW4 1736   5.478   2.820   0.553  0.4570  0.1969  0.0569
  493SOL     OW 1737   0.526   5.554   2.679 -0.2996  0.1485  0.2435
  493SOL    HW2 1738   0.545   5.488   2.747 -0.4594  1.1213  1.2665
  493SOL    HW3 1739   0.517   5.636   2.728  1.9612  1.3404 -1.1636
  493SOL    MW4 1740   0.528   5.556   2.695 -0.0224  0.4341  0.1929
  494SOL     OW 1741   1.080   0.067   0.315  0.1326  0.3031 -0.0434
  494SOL    HW2 1742   1.098   0.011   0.240  1.6798 -0.9967  1.2293
  494SOL    HW3 1743   1.004   0.118   0.289  0.2806 -0.5180 -2.2594
  494SOL    MW4 1744   1.072   0.066   0.302  0.3562  0.0233 -0.1678
  495SOL     OW 1745   4.696   5.251   1.439  0.5412 -0.3994 -0.4753
  495SOL    HW2 1746   4.767   5.306   1.473  0.4524 -0.8603  0.4852
  495SOL    HW3 1747   4.616   5.291   1.471  0.4402 -0.6812 -0.3718
  495SOL    MW4 1748   4.695   5.263   1.448  0.5161 -0.4974 -0.3349
  496SOL     OW 1749   4.539   2.541   2.048 -0.0596 -0.1902 -0.2738
  496SOL    HW2 1750   4.497   2.529   2.133  1.7625  1.3011  0.9242
  496SOL    HW3 1751   4.469   2.527   1.984 -2.0955  1.0287  1.5352
  496SOL    MW4 1752   4.524   2.538   2.051 -0.0878  0.1674  0.1229
  497SOL     OW 1753   2.676   2.730   1.947  0.3901 -0.4385 -0.1481
  497SOL    HW2 1754   2.700   2.658   2.007  1.8489  0.4946  0.4371
  497SOL    HW3 1755   2.681   2.808   2.001  1.2511  0.3751 -1.3593
  497SOL    MW4 1756   2.680   2.731   1.962  0.6962 -0.2080 -0.2307
  498SOL     OW 1757   4.092   1.814   0.262  0.0092  0.1469  0.2035
  498SOL    HW2 1758   4.173   1.831   0.215  1.0534 -0.5701  1.6956
  498SOL    HW3 1759   4.057   1.735   0.222  1.6651 -1.3311  1.5431
  498SOL    MW4 1760   4.098   1.806   0.251  0.3654 -0.1427  0.5771
  499SOL     OW 1761   5.890   5.583   4.663  0.2601 -0.4801 -0.4219
  499SOL    HW2 1762   5.963   5.602   4.723 -0.9205 -1.4730  1.4449
  499SOL    HW3 1763   5.932   5.556   4.582  1.9445  1.0810 -0.1386
  499SOL    MW4 1764   5.905   5.582   4.660  0.3266 -0.4052 -0.1382
  500SOL     OW 1765   4.341   1.629   4.056 -0.9998 -0.5064  0.2508
  500SOL    HW2 1766   4.310   1.641   4.145 -0.3479 -1.4915  0.6283
  500SOL    HW3 1767   4.309   1.706   4.009 -2.3902 -0.5623  1.0421
  500SOL    MW4 1768   4.333   1.641   4.061 -1.0973 -0.6438  0.4051
  501SOL     OW 1769   1.962   4.208   3.444 -0.5098  0.1690 -0.5747
  501SOL    HW2 1770   1.958   4.143   3.374 -1.4353 -1.2422  0.6908
  501SOL    HW3 1771   1.872   4.239   3.453 -0.1521  1.3116 -0.8703
  501SOL    MW4 1772   1.949   4.203   3.436 -0.5847  0.1335 -0.4468
  502SOL     OW 1773   3.249   0.552   3.600  0.9431  0.2367 -0.2791
  502SOL    HW2 1774   3.185   0.599   3.546  1.5631  1.3715 -0.0688
  502SOL    HW3 1775   3.302   0.621   3.640  1.9595 -0.6586 -0.0202
  502SOL    MW4 1776   3.248   0.567   3.598  1.1590  0.2683 -0.2172
  503SOL     OW 1777   0.323   2.652   6.234  0.3070 -0.9745  0.9129
  503SOL    HW2 1778   0.391   2.718   6.248 -1.1415  0.6948  0.3958
  503SOL    HW3 1779   0.358   2.596   6.165  0.8820  0.2783  0.1615
  503SOL    MW4 1780   0.336   2.654   6.227  0.1917 -0.5890  0.7455
  504SOL     OW 1781   0.987   0.957   2.552 -0.3756  0.2542 -0.3615
  504SOL    HW2 1782   1.018   0.908   2.628  0.9649 -0.1457 -1.1114
  504SOL    HW3 1783   1.001   1.049   2.575  1.2233  0.0935 -0.5730
  504SOL    MW4 1784   0.993   0.963   2.565  0.0122  0.1802 -0.4884
  505SOL     OW 1785   6.389   0.965   1.139  0.3253  0.1243  0.5591
  505SOL    HW2 1786   6.404   0.876   1.105  1.2982  0.1674  0.8318
  505SOL    HW3 1787   6.329   1.005   1.077 -1.9476 -1.4357  1.5938
  505SOL    MW4 1788   6.383   0.958   1.127  0.1538 -0.0758  0.7316
  506SOL     OW 1789   0.809   6.077   3.410  0.4163 -0.4424 -0.3185
  506SOL    HW2 1790   0.842   5.989   3.425  1.7920  0.1552  0.3633
  506SOL    HW3 1791   0.859   6.132   3.470 -0.4575  0.8004 -0.6813
  506SOL    MW4 1792   0.820   6.073   3.420  0.4825 -0.1996 -0.2764
  507SOL     OW 1793   4.299   1.611   0.339 -0.1642  0.0718 -0.1289
  507SOL    HW2 1794   4.266   1.524   0.361 -2.5426  0.8558 -0.3555
  507SOL    HW3 1795   4.224   1.669   0.351  1.5660  2.2696  0.8766
  507SOL    MW4 1796   4.285   1.607   0.344 -0.2497  0.4652 -0.0262
  508SOL     OW 1797   3.774   4.222   5.884 -0.0155 -0.1057  0.2293
  508SOL    HW2 1798   3.685   4.233   5.919 -0.2508  0.5814 -0.5227
  508SOL    HW3 1799   3.762   4.170   5.804  0.5808 -2.1605  1.4278
  508SOL    MW4 1800   3.760   4.217   5.878  0.0321 -0.2862  0.2882
  509SOL     OW 1801   0.593   3.232   4.521  0.2619  0.1090 -0.3081
  509SOL    HW2 1802   0.577   3.222   4.615  1.1241  1.3595  0.0064
  509SOL    HW3 1803   0.596   3.327   4.507  2.8486 -0.0052 -1.0697
  509SOL    MW4 1804   0.592   3.244   4.531  0.7169  0.2589 -0.3670
  510SOL     OW 1805   4.397   0.272   5.814 -0.0508  0.3507  0.2349
  510SOL    HW2 1806   4.376   0.182   5.790 -0.7254  0.3992  0.6133
  510SOL    HW3 1807   4.343   0.290   5.891  1.1177  0.6104  1.0248
  510SOL    MW4 1808   4.387   0.263   5.821  0.0144  0.3914  0.3891
  511SOL     OW 1809   3.860   4.967   3.023 -0.2087  0.6441 -0.0918
  511SOL    HW2 1810   3.781   4.918   3.002 -1.0092  1.1916  1.4692
  511SOL    HW3 1811   3.873   5.025   2.947 -1.4942  0.7729 -0.2357
  511SOL    MW4 1812   3.851   4.968   3.010 -0.4839  0.7333  0.0951
  512SOL     OW 1813   0.096   5.077   0.948 -0.0386 -0.7999 -0.5506
  512SOL    HW2 1814   0.188   5.097   0.967 -0.3490 -0.2149  0.3670
  512SOL    HW3 1815   0.047   5.144   0.994 -0.9007 -0.4975 -1.8680
  512SOL    MW4 1816   0.102   5.088   0.956 -0.1933 -0.6828 -0.6034
  513SOL     OW 1817   5.555   0.420   1.564 -0.3560 -0.1998 -0.2549
  513SOL    HW2 1818   5.504   0.477   1.621 -1.6550 -0.0389 -1.4978
  513SOL    HW3 1819   5.514   0.430   1.478  0.9294 -1.1502 -1.0172
  513SOL    MW4 1820   5.543   0.429   1.560 -0.3578 -0.3040 -0.5195
  514SOL     OW 1821   1.180   0.347   3.861  0.5543 -0.2479  0.0607
  514SOL    HW2 1822   1.211   0.381   3.777  1.1936 -2.1214 -0.5053
  514SOL    HW3 1823   1.252   0.363   3.921  0.5130  0.1431  0.0105
  514SOL    MW4 1824   1.193   0.354   3.858  0.6332 -0.4435 -0.0206
  515SOL     OW 1825   2.501   4.644   3.726  0.0310  0.1674 -0.3842
  515SOL    HW2 1826   2.429   4.631   3.664 -1.6361  1.4254  1.1731
  515SOL    HW3 1827   2.461   4.693   3.798  1.3366 -2.8245  2.6230
  515SOL    MW4 1828   2.486   4.649   3.727 -0.0167 -0.0613  0.2180
  516SOL     OW 1829   3.507   4.489   1.057  0.2761 -0.5563 -0.3559
  516SOL    HW2 1830   3.491   4.423   0.989 -0.2195  0.3931 -1.1942
  516SOL    HW3 1831   3.591   4.464   1.096  1.1200 -0.5452 -2.0480
  516SOL    MW4 1832   3.516   4.477   1.053  0.3221 -0.4296 -0.6897
  517SOL     OW 1833   2.481   2.780   0.944 -0.0556  0.4514  0.0763
  517SOL    HW2 1834   2.547   2.753   0.879 -1.2221 -0.5351 -0.7346
  517SOL    HW3 1835   2.525   2.766   1.028  0.3630 -1.4764 -0.4004
  517SOL    MW4 1836   2.496   2.774   0.947 -0.1543  0.0669 -0.0936
  518SOL     OW 1837   0.842   0.166   3.076  0.2556 -0.7583 -0.0913
  518SOL    HW2 1838   0.875   0.256   3.073 -0.9550 -0.2332  1.3737
  518SOL    HW3 1839   0.750   0.174   3.101  1.0186 -2.4604  4.3990
  518SOL    MW4 1840   0.835   0.179   3.079  0.1966 -0.9136  0.6945
  519SOL     OW 1841   2.436   0.135   3.108 -0.0729  0.0456  0.0131
  519SOL    HW2 1842   2.443   0.195   3.182  0.3728 -0.3462  0.2953
  519SOL    HW3 1843   2.450   0.189   3.031  1.6314  0.0960  0.3274
  519SOL    MW4 1844   2.439   0.150   3.108  0.2108  0.0006  0.0918
  520SOL     OW 1845   2.610   0.628   4.199 -0.3541 -0.2412  0.5302
  520SOL    HW2 1846   2.632   0.571   4.272 -0.8794  0.5782  1.3380
  520SOL    HW3 1847   2.690   0.629   4.145 -0.1948 -1.3733  0.7240
  520SOL    MW4 1848   2.624   0.621   4.201 -0.4024 -0.2824  0.6624
  521SOL     OW 1849   3.181   1.835   1.449  0.0872  0.0009  0.0928
  521SOL    HW2 1850   3.166   1.802   1.360  0.3722 -0.4436  0.2068
  521SOL    HW3 1851   3.096   1.872   1.475  0.2069  0.8415 -0.6517
  521SOL    MW4 1852   3.167   1.836   1.441  0.1406  0.0532  0.0096
  522SOL     OW 1853   3.638   4.977   1.281 -0.2382 -0.4821 -0.1998
  522SOL    HW2 1854   3.556   4.937   1.309 -0.3368  0.7252  1.3502
  522SOL    HW3 1855   3.613   5.037   1.211 -0.5816 -0.5696 -0.1544
  522SOL    MW4 1856   3.624   4.979   1.275 -0.2965 -0.3343  0.0107
  523SOL     OW 1857   3.274   0.165   1.664  0.0675 -1.1094 -0.3399
  523SOL    HW2 1858   3.360   0.193   1.633 -0.6391  1.1500 -0.4515
  523SOL    HW3 1859   3.293   0.113   1.743  1.4993  0.5464  0.4811
  523SOL    MW4 1860   3.288   0.162   1.670  0.1632 -0.5928 -0.2463
  524SOL     OW 1861   1.611   4.293   4.221 -0.1333  0.6891  0.4364
  524SOL    HW2 1862   1.597   4.360   4.287 -3.3823 -1.1066  1.8337
  524SOL    HW3 1863   1.542   4.309   4.156 -0.4509 -0.7889  0.3796
  524SOL    MW4 1864   1.600   4.304   4.221 -0.6039  0.2572  0.6133
  525SOL     OW 1865   0.461   5.666   5.277 -0.0657 -0.1368 -0.0071
  525SOL    HW2 1866   0.454   5.619   5.194  1.3223  0.3589 -0.4332
  525SOL    HW3 1867   0.449   5.599   5.344  2.4925 -1.2824 -0.5881
  525SOL    MW4 1868   0.458   5.651   5.274  0.4549 -0.2225 -0.1400
  526SOL     OW 1869   3.706   0.959   3.959 -0.3565  0.6528  0.9187
  526SOL    HW2 1870   3.680   1.050   3.971 -1.4343  0.2982  1.4778
  526SOL    HW3 1871   3.797   0.956   3.988  0.3608  1.9458 -1.0576
  526SOL    MW4 1872   3.714   0.970   3.965 -0.4041  0.7766  0.7318
  527SOL     OW 1873   2.223   2.311   5.978  0.3484 -0.2835  0.4580
  527SOL    HW2 1874   2.204   2.383   6.038  0.4852  0.3213 -0.2026
  527SOL    HW3 1875   2.226   2.233   6.033 -0.5644  0.1051  1.0751
  527SOL    MW4 1876   2.221   2.310   5.993  0.2460 -0.1524  0.4522
  528SOL     OW 1877   5.634   4.559   4.376  0.7829 -0.0811 -0.1919
  528SOL    HW2 1878   5.647   4.538   4.468 -0.6969  0.5054  0.1822
  528SOL    HW3 1879   5.579   4.488   4.343  1.7857 -0.5997 -0.7904
  528SOL    MW4 1880   5.629   4.547   4.384  0.7200 -0.0722 -0.2215
  529SOL     OW 1881   5.197   5.239   5.650 -0.5526  0.3775  0.1915
  529SOL    HW2 1882   5.243   5.188   5.717 -1.2929 -1.0245 -0.3248
  529SOL    HW3 1883   5.265   5.261   5.586 -0.3036 -0.3814  0.1851
  529SOL    MW4 1884   5.212   5.235   5.650 -0.6174  0.0924  0.1225
  530SOL     OW 1885  -0.017   2.456   0.749  0.2298 -0.2537  1.0743
  530SOL    HW2 1886  -0.022   2.550   0.730  2.3430  0.2744  2.7463
  530SOL    HW3 1887  -0.033   2.450   0.843  1.2612 -1.4136  1.2003
  530SOL    MW4 1888  -0.020   2.468   0.759  0.6447 -0.3370  1.3115
  531SOL     OW 1889   3.071   1.729   2.112  0.0188  0.5590 -0.6429
  531SOL    HW2 1890   3.110   1.777   2.038  0.5542  1.3695  0.1419
  531SOL    HW3 1891   3.074   1.791   2.185  1.6651 -0.9937  0.6973
  531SOL    MW4 1892   3.077   1.744   2.112  0.3066  0.4611 -0.3625
  532SOL     OW 1893   1.402   1.859   4.126  0.0543 -0.0465 -0.3606
  532SOL    HW2 1894   1.314   1.857   4.162  0.2814 -1.8705  0.1861
  532SOL    HW3 1895   1.391   1.835   4.034 -0.0299 -0.1942 -0.3117
  532SOL    MW4 1896   1.389   1.855   4.118  0.0732 -0.3066 -0.2820
  533SOL     OW 1897   2.564   3.831   4.241 -0.5163  0.1179  0.1374
  533SOL    HW2 1898   2.631   3.832   4.310  0.8726 -0.7917 -1.1458
  533SOL    HW3 1899   2.608   3.791   4.166 -1.2710  3.0781 -2.0443
  533SOL    MW4 1900   2.579   3.826   4.240 -0.4327  0.3884 -0.3197
  534SOL     OW 1901   3.407   5.834   6.077  0.0532 -0.3730 -0.4999
  534SOL    HW2 1902   3.340   5.808   6.140  0.1595  3.2251  1.3187
  534SOL    HW3 1903   3.479   5.867   6.131  0.2808  2.6008 -2.3959
  534SOL    MW4 1904   3.408   5.835   6.093  0.0972  0.4940 -0.5101
  535SOL     OW 1905   5.761   1.395   4.087  0.1180 -0.0633 -0.1901
  535SOL    HW2 1906   5.818   1.325   4.056  0.7822 -0.5862  1.9729
  535SOL    HW3 1907   5.740   1.370   4.177 -1.4054  1.4497 -0.0760
  535SOL    MW4 1908   5.766   1.383   4.095  0.0047  0.0674  0.1104
  536SOL     OW 1909   4.206   0.162   1.001  0.2269  0.2123  0.4698
  536SOL    HW2 1910   4.292   0.154   1.041  2.0573 -1.3749 -3.2798
  536SOL    HW3 1911   4.214   0.237   0.942 -0.6049 -0.4793 -0.5730
  536SOL    MW4 1912   4.218   0.171   0.999  0.3586 -0.0884 -0.1625
  537SOL     OW 1913   4.604   3.686   5.662 -0.1095 -0.2143  0.3513
  537SOL    HW2 1914   4.546   3.719   5.593  0.8658  0.5365 -0.1383
  537SOL    HW3 1915   4.690   3.685   5.621  0.2541 -1.1229  1.1301
  537SOL    MW4 1916   4.607   3.691   5.647  0.0672 -0.2351  0.3894
  538SOL     OW 1917   2.421   0.655   5.638  0.3686  0.6319 -0.0655
  538SOL    HW2 1918   2.420   0.610   5.723  2.0479 -2.0391 -1.3117
  538SOL    HW3 1919   2.435   0.747   5.660 -1.2347  0.3576  2.5850
  538SOL    MW4 1920   2.423   0.661   5.652  0.3786  0.2433  0.1198
  539SOL     OW 1921   5.495   6.279   1.186  0.2243  0.0766 -0.5751
  539SOL    HW2 1922   5.440   6.275   1.108 -0.8143  0.3404  0.1337
  539SOL    HW3 1923   5.570   6.332   1.159 -1.0505  1.8085 -0.8496
  539SOL    MW4 1924   5.498   6.285   1.172 -0.0810  0.3399 -0.5178
  540SOL     OW 1925   3.031   1.765   2.963  0.4516 -0.1255  0.2139
  540SOL    HW2 1926   3.007   1.826   2.894 -0.7262 -0.0861  0.6237
  540SOL    HW3 1927   3.117   1.794   2.993 -0.0746  1.3320  0.3871
  540SOL    MW4 1928   3.039   1.777   2.958  0.2268  0.0720  0.2908
  541SOL     OW 1929   2.852   2.496   3.986  0.1333  0.2031 -0.2103
  541SOL    HW2 1930   2.806   2.560   3.931 -0.2965  0.3916  0.3614
  541SOL    HW3 1931   2.942   2.497   3.954 -0.6657 -1.8244 -2.8866
  541SOL    MW4 1932   2.858   2.505   3.975 -0.0288 -0.0395 -0.4880
  542SOL     OW 1933   3.149   2.475   3.475  0.0439  0.1284 -0.6218
  542SOL    HW2 1934   3.212   2.421   3.427  0.2648  1.8269 -2.3352
  542SOL    HW3 1935   3.086   2.412   3.510  0.6663 -1.3160 -1.9717
  542SOL    MW4 1936   3.149   2.459   3.473  0.1551  0.1619 -1.0260
  543SOL     OW 1937   0.315   5.427   0.799 -0.2750 -0.3280 -0.8638
  543SOL    HW2 1938   0.364   5.347   0.779  2.4742  1.2301 -0.7303
  543SOL    HW3 1939   0.321   5.436   0.894 -1.9352 -0.7178 -0.6840
  543SOL    MW4 1940   0.322   5.417   0.809 -0.1313 -0.1739 -0.8225
  544SOL     OW 1941   0.910   0.439   1.905  0.1228 -0.1540  0.1115
  544SOL    HW2 1942   0.845   0.380   1.869  0.4623 -0.2915 -0.2775
  544SOL    HW3 1943   0.991   0.418   1.859  0.8932 -1.2460  1.8530
  544SOL    MW4 1944   0.912   0.429   1.894  0.2692 -0.3162  0.2899
  545SOL     OW 1945   2.083   2.717   4.804 -0.4349 -0.3615 -0.4273
  545SOL    HW2 1946   2.005   2.662   4.805 -0.6402 -0.0967  1.0943
  545SOL    HW3 1947   2.106   2.727   4.897  0.5203  0.8128 -0.7660
  545SOL    MW4 1948   2.076   2.711   4.817 -0.3360 -0.1716 -0.2712
  546SOL     OW 1949   0.761   1.532   4.010 -0.0312 -0.2814  0.2231
  546SOL    HW2 1950   0.819   1.456   4.011  1.3378  0.6696 -1.4513
  546SOL    HW3 1951   0.813   1.603   4.048 -0.7628  0.1656  0.4179
  546SOL    MW4 1952   0.776   1.532   4.015  0.0529 -0.0969  0.0279
  547SOL     OW 1953   5.252   4.827   2.344 -0.3316 -0.2302 -0.0180
  547SOL    HW2 1954   5.217   4.913   2.321  0.0629  0.0594  0.4653
  547SOL    HW3 1955   5.285   4.836   2.433 -0.1860 -0.8538  0.0008
  547SOL    MW4 1956   5.252   4.839   2.352 -0.2604 -0.2743  0.0483
  548SOL     OW 1957   5.926   0.861   4.342 -0.2463 -0.2824 -0.1655
  548SOL    HW2 1958   5.986   0.786   4.342 -1.3109 -1.1641  0.5801
  548SOL    HW3 1959   5.983   0.937   4.351  0.7482 -1.1191  0.9562
  548SOL    MW4 1960   5.942   0.861   4.343 -0.2555 -0.5092  0.0808
  549SOL     OW 1961   3.064   5.654   1.335  0.2477  0.0126 -0.0559
  549SOL    HW2 1962   3.012   5.733   1.349  0.4776  0.4396 -1.4575
  549SOL    HW3 1963   3.065   5.610   1.421 -0.1244  1.3720  0.6707
  549SOL    MW4 1964   3.057   5.658   1.348  0.2290  0.2483 -0.1450
  550SOL     OW 1965   3.090   2.272   0.993 -0.3107  0.1136  0.2695
  550SOL    HW2 1966   3.169   2.275   1.048 -1.2725 -0.2218  1.7257
  550SOL    HW3 1967   3.074   2.363   0.968  0.8872  0.1138 -0.5945
  550SOL    MW4 1968   3.099   2.284   0.997 -0.2795  0.0694  0.3476
  551SOL     OW 1969   3.702   6.300   6.005 -0.3525 -0.1987  0.1563
  551SOL    HW2 1970   3.716   6.252   6.086 -2.0036  1.2921  1.4174
  551SOL    HW3 1971   3.619   6.267   5.971 -0.2684  0.0185 -0.2628
  551SOL    MW4 1972   3.693   6.290   6.011 -0.5592  0.0266  0.2674
  552SOL     OW 1973   2.335   3.490   3.289  0.2428 -0.0843  1.0452
  552SOL    HW2 1974   2.406   3.471   3.228  0.7664 -0.0842  1.6549
  552SOL    HW3 1975   2.283   3.557   3.244  1.3894  0.9192  1.1696
  552SOL    MW4 1976   2.337   3.496   3.275  0.4632  0.0481  1.1421
  553SOL     OW 1977   4.536   2.216   2.352  0.0155 -0.4359 -0.2044
  553SOL    HW2 1978   4.519   2.164   2.430 -1.2817 -0.5894 -0.5736
  553SOL    HW3 1979   4.528   2.154   2.279 -2.7430  0.4445 -0.7518
  553SOL    MW4 1980   4.533   2.201   2.352 -0.5196 -0.3400 -0.3253
  554SOL     OW 1981   1.580   5.719   4.203 -0.2262  0.7475 -0.3931
  554SOL    HW2 1982   1.624   5.781   4.145  0.3702 -0.3427 -1.1433
  554SOL    HW3 1983   1.631   5.721   4.284  2.0213 -1.3319 -1.6283
  554SOL    MW4 1984   1.592   5.728   4.206  0.1490  0.3293 -0.6551
  555SOL     OW 1985   4.233   3.422   4.231 -0.0409 -0.3477  0.4453
  555SOL    HW2 1986   4.299   3.489   4.217 -1.2458  1.0702  1.2190
  555SOL    HW3 1987   4.150   3.464   4.207 -0.6983 -2.0406 -0.4419
  555SOL    MW4 1988   4.231   3.436   4.226 -0.2866 -0.3840  0.4303
  556SOL     OW 1989   4.838   3.967   5.369  0.1396  0.0238 -0.0659
  556SOL    HW2 1990   4.922   3.937   5.401  0.5676  1.0187 -0.2250
  556SOL    HW3 1991   4.782   3.972   5.447 -0.9131 -3.9826 -0.3372
  556SOL    MW4 1992   4.842   3.964   5.383  0.0572 -0.3735 -0.1227
  557SOL     OW 1993   0.558   0.848   4.432 -0.2019 -0.5707  0.8546
  557SOL    HW2 1994   0.540   0.798   4.352 -1.2389  2.0193 -0.6584
  557SOL    HW3 1995   0.600   0.785   4.490 -2.1840 -3.4128 -0.5342
  557SOL    MW4 1996   0.561   0.833   4.429 -0.6003 -0.6040  0.4718
  558SOL     OW 1997   2.168   4.194   4.824 -0.0006  0.6033  0.5812
  558SOL    HW2 1998   2.193   4.187   4.732 -1.4545  1.4297  0.0814
  558SOL    HW3 1999   2.137   4.107   4.848 -1.1193  0.7655 -0.2077
  558SOL    MW4 2000   2.167   4.182   4.815 -0.3400  0.7337  0.4112
  559SOL     OW 2001   2.127   4.590   2.793 -0.3708 -0.0354  0.2044
  559SOL    HW2 2002   2.040   4.600   2.832 -1.1236  0.7020 -1.5550
  559SOL    HW3 2003   2.138   4.668   2.740  0.5602 -1.0192 -1.1030
  559SOL    MW4 2004   2.117   4.601   2.791 -0.3473 -0.0679 -0.2003
  560SOL     OW 2005   2.284   0.083   5.638  0.1040  0.6200  0.1291
  560SOL    HW2 2006   2.213   0.082   5.703  0.0776 -0.3979  0.0949
  560SOL    HW3 2007   2.257   0.019   5.573 -0.0815  1.9280 -1.1368
  560SOL    MW4 2008   2.271   0.075   5.638  0.0761  0.6583 -0.0424
  561SOL     OW 2009   5.388   3.699   3.792 -0.2695  0.4945  0.6811
  561SOL    HW2 2010   5.310   3.722   3.741  0.2614 -2.6074 -1.9020
  561SOL    HW3 2011   5.461   3.727   3.737  0.5295  2.3221  2.5437
  561SOL    MW4 2012   5.387   3.706   3.778 -0.0941  0.3263  0.5861
  562SOL     OW 2013   4.642   2.116   5.273 -0.1897  0.0194 -0.0994
  562SOL    HW2 2014   4.594   2.184   5.320 -0.1141  1.7420 -2.3704
  562SOL    HW3 2015   4.724   2.106   5.322 -0.9843  0.2128  1.3055
  562SOL    MW4 2016   4.647   2.124   5.286 -0.2846  0.2721 -0.2137
  563SOL     OW 2017   3.057   3.258   5.477  0.1004 -0.0056  0.3464
  563SOL    HW2 2018   3.105   3.189   5.432 -1.1781  0.0374 -1.1610
  563SOL    HW3 2019   2.987   3.282   5.417 -0.5004  1.4405  1.5567
  563SOL    MW4 2020   3.054   3.252   5.463 -0.1476  0.1908  0.3072
  564SOL     OW 2021   1.653   3.998   6.041 -0.1267 -0.0733 -0.0564
  564SOL    HW2 2022   1.607   4.081   6.025 -0.6565 -0.3491 -0.0122
  564SOL    HW3 2023   1.661   3.958   5.954 -1.1705 -0.6297  0.0782
  564SOL    MW4 2024   1.648   4.004   6.027 -0.3343 -0.1831 -0.0328
  565SOL     OW 2025   6.268   5.080   2.192 -0.1407 -0.0203 -0.2257
  565SOL    HW2 2026   6.244   5.164   2.231  0.4805  0.9985 -1.9399
  565SOL    HW3 2027   6.346   5.099   2.140  1.9277 -2.3237  1.8007
  565SOL    MW4 2028   6.275   5.094   2.190  0.2142 -0.1898 -0.1845
  566SOL     OW 2029   5.326   0.569   3.610  0.4156  0.1001 -0.2707
  566SOL    HW2 2030   5.255   0.633   3.603  0.3603 -0.0305 -1.0060
  566SOL    HW3 2031   5.289   0.489   3.574  0.9387  0.0381 -0.6883
  566SOL    MW4 2032   5.312   0.567   3.604  0.4774  0.0747 -0.4228
  567SOL     OW 2033   6.090   0.975   1.548 -0.0654  0.0806 -0.8174
  567SOL    HW2 2034   6.132   1.052   1.509  1.1143 -1.3245 -2.4575
  567SOL    HW3 2035   6.162   0.915   1.566 -0.9751 -0.6904  0.3925
  567SOL    MW4 2036   6.105   0.978   1.545 -0.0297 -0.2065 -0.8742
  568SOL     OW 2037   2.046   5.654   3.841 -0.1627  0.0605 -0.2446
  568SOL    HW2 2038   1.974   5.604   3.878  0.3523  0.5313  1.4948
  568SOL    HW3 2039   2.125   5.611   3.874  0.3627 -0.1908 -1.7713
  568SOL    MW4 2040   2.047   5.642   3.850 -0.0254  0.0895 -0.2166
  569SOL     OW 2041   3.566   2.395   4.139  0.3213 -0.7149  0.1898
  569SOL    HW2 2042   3.585   2.460   4.071 -2.0982  1.4918  1.4485
  569SOL    HW3 2043   3.484   2.355   4.112 -0.1748 -0.4878  1.3015
  569SOL    MW4 2044   3.558   2.398   4.127 -0.0634 -0.3938  0.5025
  570SOL     OW 2045   4.631   0.604   1.105  0.0903  0.1035 -0.1955
  570SOL    HW2 2046   4.604   0.539   1.040 -1.1987 -0.4865  0.8919
  570SOL    HW3 2047   4.585   0.683   1.081 -0.9811 -0.3202  0.4147
  570SOL    MW4 2048   4.622   0.606   1.093 -0.2212 -0.0302  0.0285
  571SOL     OW 2049   3.998   2.376   1.916  0.3129  0.1692 -0.0446
  571SOL    HW2 2050   4.018   2.318   1.990  2.8614 -1.0355 -1.5433
  571SOL    HW3 2051   3.944   2.323   1.858 -0.3720  0.5766  0.2076
  571SOL    MW4 2052   3.993   2.361   1.918  0.5588  0.0640 -0.2091
  572SOL     OW 2053   5.712   4.321   2.980  0.8177  0.0953  0.0301
  572SOL    HW2 2054   5.695   4.249   2.919  1.6875 -0.2385  0.1641
  572SOL    HW3 2055   5.802   4.305   3.010  0.3808  0.2088  1.4494
  572SOL    MW4 2056   5.722   4.309   2.976  0.8748  0.0662  0.2350
  573SOL     OW 2057   2.235   2.866   3.142  0.1598 -0.0806  0.1930
  573SOL    HW2 2058   2.305   2.929   3.126  0.4538 -0.5073 -0.2785
  573SOL    HW3 2059   2.196   2.892   3.225  1.1243 -0.0483  0.6516
  573SOL    MW4 2060   2.239   2.878   3.151  0.3258 -0.1326  0.1913
  574SOL     OW 2061   2.546   1.441   4.478 -0.1293 -0.2312  0.3531
  574SOL    HW2 2062   2.494   1.455   4.558  0.8522  1.4725  0.7481
  574SOL    HW3 2063   2.634   1.420   4.510 -0.0557 -1.0098 -0.3109
  574SOL    MW4 2064   2.551   1.440   4.493  0.0099 -0.1091  0.3176
  575SOL     OW 2065   5.416   0.874   5.076 -0.0483 -0.1474 -0.0879
  575SOL    HW2 2066   5.432   0.949   5.018 -0.3261  0.4379  0.5812
  575SOL    HW3 2067   5.482   0.883   5.145  0.5392 -1.0673 -0.5160
  575SOL    MW4 2068   5.427   0.885   5.077 -0.0075 -0.1915 -0.0561
  576SOL     OW 2069   5.551   3.035   3.485 -0.3641 -0.3405 -0.5194
  576SOL    HW2 2070   5.589   3.120   3.462 -0.1827 -0.0013  0.9402
  576SOL    HW3 2071   5.565   3.027   3.580 -0.2223 -2.0781 -0.6510
  576SOL    MW4 2072   5.558   3.045   3.495 -0.3215 -0.5250 -0.3442
  577SOL     OW 2073   4.769   4.685   0.697 -0.2609 -0.5301 -0.1456
  577SOL    HW2 2074   4.681   4.663   0.668 -1.5401  0.4908  2.6655
  577SOL    HW3 2075   4.788   4.768   0.654 -2.0385  0.8623  1.5918
  577SOL    MW4 2076   4.760   4.693   0.687 -0.6642 -0.2117  0.4546
  578SOL     OW 2077   3.950   5.851   4.641  0.3572  0.0818 -0.0008
  578SOL    HW2 2078   3.875   5.849   4.700  1.6939 -3.6750  1.8382
  578SOL    HW3 2079   4.023   5.881   4.695  0.7845  1.0622 -1.0613
  578SOL    MW4 2080   3.950   5.855   4.656  0.5899 -0.2845  0.1019
  579SOL     OW 2081   0.684   4.665   5.452 -0.5588 -0.2050  0.0053
  579SOL    HW2 2082   0.685   4.761   5.458 -4.2824 -0.0455  0.4428
  579SOL    HW3 2083   0.742   4.636   5.522 -1.3606  1.7772  1.6140
  579SOL    MW4 2084   0.692   4.674   5.462 -1.1559  0.0776  0.2753
  580SOL     OW 2085   3.546   0.257   4.693  0.2189  0.6792  0.2029
  580SOL    HW2 2086   3.464   0.287   4.653  0.5693 -0.3925 -1.4210
  580SOL    HW3 2087   3.577   0.331   4.744 -0.8678  1.7194 -0.5955
  580SOL    MW4 2088   3.539   0.271   4.694  0.1218  0.6750 -0.1166
  581SOL     OW 2089   3.624   5.337   3.311  0.3034 -0.0616  0.0555
  581SOL    HW2 2090   3.660   5.311   3.226  1.5285 -2.0865  1.1342
  581SOL    HW3 2091   3.606   5.255   3.356 -0.7650  0.9652  1.6175
  581SOL    MW4 2092   3.626   5.323   3.306  0.3241 -0.1933  0.4039
  582SOL     OW 2093   5.334   2.782   4.983  0.0499  0.5429 -0.4399
  582SOL    HW2 2094   5.422   2.794   4.950 -0.5463  2.6466 -1.4511
  582SOL    HW3 2095   5.288   2.863   4.960 -1.7276  0.1511  1.3924
  582SOL    MW4 2096   5.339   2.794   4.976 -0.2633  0.7687 -0.3315
  583SOL     OW 2097   2.713   4.005   3.403  0.8104  0.6333 -0.1609
  583SOL    HW2 2098   2.758   3.958   3.333  1.4127  0.3692  0.3886
  583SOL    HW3 2099   2.741   4.096   3.394 -0.7713  1.0390 -1.5583
  583SOL    MW4 2100   2.722   4.011   3.393  0.6812  0.6520 -0.2728
  584SOL     OW 2101   2.906   4.912   3.322  0.7005  0.7576 -0.1769
  584SOL    HW2 2102   2.953   4.994   3.308 -1.5307  2.2413  0.5831
  584SOL    HW3 2103   2.857   4.925   3.403 -1.8094 -0.2723 -1.4197
  584SOL    MW4 2104   2.906   4.925   3.331  0.0749  0.8175 -0.2406
  585SOL     OW 2105   1.057   1.204   2.718 -0.0202 -0.3694 -1.0428
  585SOL    HW2 2106   1.029   1.216   2.809 -1.1525 -2.6158 -1.0398
  585SOL    HW3 2107   1.152   1.191   2.724 -0.1251 -0.8122 -0.1300
  585SOL    MW4 2108   1.066   1.204   2.731 -0.1834 -0.7242 -0.9220
  586SOL     OW 2109   0.782   5.646   2.559 -0.0238 -0.6695 -0.3228
  586SOL    HW2 2110   0.720   5.573   2.559 -0.1652 -0.5500  0.0311
  586SOL    HW3 2111   0.763   5.693   2.478  0.5202 -1.4011 -0.8964
  586SOL    MW4 2112   0.772   5.643   2.548  0.0293 -0.7503 -0.3518
  587SOL     OW 2113   5.508   2.501   4.407  0.0241 -0.1983  0.3106
  587SOL    HW2 2114   5.441   2.437   4.430  0.0836  0.0555  1.2045
  587SOL    HW3 2115   5.469   2.553   4.336  0.1428 -1.4897 -0.7320
  587SOL    MW4 2116   5.494   2.500   4.401  0.0476 -0.3352  0.2910
  588SOL     OW 2117   1.046   0.791   1.210  0.5464 -0.0512 -0.5457
  588SOL    HW2 2118   0.982   0.774   1.141  1.3204 -1.8853 -0.8707
  588SOL    HW3 2119   1.131   0.781   1.167  1.0502 -0.1779  0.4501
  588SOL    MW4 2120   1.049   0.788   1.195  0.7150 -0.3099 -0.4572
  589SOL     OW 2121   4.566   0.986   6.028  0.4212 -0.1495 -0.0921
  589SOL    HW2 2122   4.489   1.009   5.975 -0.1568 -1.2887  0.2072
  589SOL    HW3 2123   4.632   0.961   5.964 -0.0741 -0.9196 -0.3236
  589SOL    MW4 2124   4.565   0.986   6.012  0.2796 -0.4014 -0.0832
  590SOL     OW 2125   5.785   2.530   0.335 -0.5640 -0.2783 -0.3898
  590SOL    HW2 2126   5.861   2.524   0.277 -1.2514 -0.3646 -1.3086
  590SOL    HW3 2127   5.815   2.492   0.417  1.1482  1.8782  0.0939
  590SOL    MW4 2128   5.799   2.524   0.338 -0.4288 -0.0051 -0.4472
  591SOL     OW 2129   1.036   0.914   4.432  0.5146 -0.2133 -0.2320
  591SOL    HW2 2130   0.969   0.876   4.374  0.5523 -0.0291 -0.4005
  591SOL    HW3 2131   1.114   0.861   4.417 -0.0674 -1.6152  1.3265
  591SOL    MW4 2132   1.037   0.902   4.422  0.4428 -0.3740 -0.0486
  592SOL     OW 2133   2.356   0.087   2.432  0.0735 -0.1055 -0.7109
  592SOL    HW2 2134   2.384   0.136   2.355  1.2156 -0.1706 -0.3634
  592SOL    HW3 2135   2.325   0.155   2.493  0.8566  0.1217 -0.5526
  592SOL    MW4 2136   2.356   0.103   2.430  0.3275 -0.0841 -0.6441
  593SOL     OW 2137   1.165   2.762   3.878  0.1979 -0.3744  0.2459
  593SOL    HW2 2138   1.113   2.722   3.808  2.0913 -0.3650 -1.2736
  593SOL    HW3 2139   1.112   2.834   3.910 -0.7094 -0.3234 -1.2661
  593SOL    MW4 2140   1.151   2.766   3.873  0.3280 -0.3664 -0.1540
  594SOL     OW 2141   5.743   0.888   4.135  0.1123  0.1699  1.0612
  594SOL    HW2 2142   5.736   0.799   4.099  2.4150 -0.0105  0.9251
  594SOL    HW3 2143   5.802   0.879   4.210  0.5651  1.6063  0.9107
  594SOL    MW4 2144   5.750   0.875   4.140  0.4759  0.3356  1.0234
  595SOL     OW 2145   4.528   4.615   0.580  0.3227 -0.5703 -0.0788
  595SOL    HW2 2146   4.441   4.627   0.618  0.7887  0.0678  0.8471
  595SOL    HW3 2147   4.543   4.521   0.581 -0.1757 -0.6484  0.1938
  595SOL    MW4 2148   4.519   4.604   0.585  0.3185 -0.4964  0.0793
  596SOL     OW 2149   1.053   2.916   0.511  0.2863 -0.1849  0.2145
  596SOL    HW2 2150   1.051   2.923   0.606  0.7249  3.0809  0.0956
  596SOL    HW3 2151   1.145   2.933   0.488  0.2607 -1.2949 -0.8107
  596SOL    MW4 2152   1.065   2.919   0.520  0.3408  0.0996  0.0635
  597SOL     OW 2153  -0.002   3.965   4.030  0.4906 -0.1449  0.0191
  597SOL    HW2 2154   0.021   4.058   4.042  1.6674 -0.3706 -0.3556
  597SOL    HW3 2155  -0.014   3.956   3.935 -0.7806 -0.1345  0.1642
  597SOL    MW4 2156   0.000   3.976   4.019  0.4781 -0.1733 -0.0112
  598SOL     OW 2157   1.558   4.338   1.653  0.3081 -0.1233  0.2767
  598SOL    HW2 2158   1.574   4.413   1.595  0.4540 -0.2003  0.2164
  598SOL    HW3 2159   1.646   4.308   1.678  0.3116 -1.3362 -1.0746
  598SOL    MW4 2160   1.572   4.344   1.648  0.3278 -0.2935  0.0905
  599SOL     OW 2161   4.042   0.770   5.538 -0.0961  0.6999 -0.7197
  599SOL    HW2 2162   4.069   0.678   5.539 -1.2471  0.3309 -1.7723
  599SOL    HW3 2163   4.110   0.815   5.588 -0.2677 -0.9222  1.0977
  599SOL    MW4 2164   4.055   0.764   5.545 -0.2706  0.4372 -0.6188
  600SOL     OW 2165   5.746   4.626   0.587 -0.0083  0.3827  0.3155
  600SOL    HW2 2166   5.717   4.645   0.498  0.4018  1.7937  0.4497
  600SOL    HW3 2167   5.833   4.665   0.592 -0.3677  1.0696  1.5799
  600SOL    MW4 2168   5.754   4.634   0.576 -0.0016  0.6595  0.5000
  601SOL     OW 2169   2.880   3.377   0.379  0.4639 -0.1647 -0.5761
  601SOL    HW2 2170   2.909   3.404   0.292  0.7332 -0.7196 -0.6621
  601SOL    HW3 2171   2.847   3.288   0.368  1.8749 -0.8066  0.1520
  601SOL    MW4 2172   2.879   3.369   0.366  0.6856 -0.3226 -0.4914
  602SOL     OW 2173   5.086   6.140   0.257  0.1092 -0.1073  0.2554
  602SOL    HW2 2174   5.083   6.191   0.338 -0.7667  1.6452 -0.8207
  602SOL    HW3 2175   5.164   6.171   0.211 -0.0475 -0.2346 -0.1040
  602SOL    MW4 2176   5.096   6.151   0.261 -0.0271  0.1071  0.0660
  603SOL     OW 2177   3.540   5.634   2.055  0.0288 -0.0112 -0.0238
  603SOL    HW2 2178   3.478   5.707   2.057  0.6121  0.5517 -1.1672
  603SOL    HW3 2179   3.611   5.662   2.113 -0.1343 -0.0407  0.1927
  603SOL    MW4 2180   3.541   5.648   2.063  0.0843  0.0592 -0.1461
  604SOL     OW 2181   6.082   3.498   3.712 -0.2468  0.4216  0.5525
  604SOL    HW2 2182   6.007   3.444   3.689  0.3696 -0.1982 -0.0708
  604SOL    HW3 2183   6.044   3.580   3.745 -1.1896  0.4269 -0.4833
  604SOL    MW4 2184   6.067   3.502   3.713 -0.2899  0.3406  0.3336
  605SOL     OW 2185   1.381   2.299   1.824  0.4092  0.4700 -0.2048
  605SOL    HW2 2186   1.396   2.341   1.909 -0.9870  1.4020 -0.3760
  605SOL    HW3 2187   1.456   2.242   1.811  0.9237  0.7439  1.3974
  605SOL    MW4 2188   1.393   2.297   1.833  0.2929  0.6291 -0.0160
  606SOL     OW 2189   5.494   2.700   4.601 -0.4058  0.2671  0.0848
  606SOL    HW2 2190   5.502   2.633   4.533  2.0600 -0.6782  1.1817
  606SOL    HW3 2191   5.417   2.751   4.576  0.1530 -0.2953 -3.1549
  606SOL    MW4 2192   5.485   2.698   4.589 -0.0067  0.0682 -0.1979
  607SOL     OW 2193   5.926   3.074   5.440 -0.0774  0.4655  0.6777
  607SOL    HW2 2194   5.923   3.081   5.344  1.3437  0.5693  0.6217
  607SOL    HW3 2195   5.842   3.035   5.463  0.1440 -0.9798 -0.7367
  607SOL    MW4 2196   5.914   3.070   5.430  0.1393  0.2885  0.4837
  608SOL     OW 2197   0.155   5.091   5.371  0.1357  0.0460  0.1874
  608SOL    HW2 2198   0.172   5.066   5.462  0.6545 -1.0989 -0.2058
  608SOL    HW3 2199   0.230   5.146   5.347  0.2071  0.0098  0.3249
  608SOL    MW4 2200   0.167   5.095   5.380  0.2136 -0.1098  0.1537
  609SOL     OW 2201   3.285   4.628   3.953 -0.1289  0.2032 -0.0945
  609SOL    HW2 2202   3.321   4.688   4.018  2.6717 -1.7559  0.3996
  609SOL    HW3 2203   3.355   4.620   3.887 -1.1759 -1.0248 -1.1063
  609SOL    MW4 2204   3.299   4.635   3.953  0.1024 -0.2173 -0.1628
  610SOL     OW 2205   0.894   3.044   3.589 -0.0209  0.4366  0.2594
  610SOL    HW2 2206   0.857   2.987   3.522  1.4088 -1.8314  1.2400
  610SOL    HW3 2207   0.988   3.045   3.569  0.2520  0.7298  1.4913
  610SOL    MW4 2208   0.902   3.036   3.578  0.2037  0.1760  0.5513
  611SOL     OW 2209   5.415   3.406   3.322 -0.6864 -0.0692  0.2702
  611SOL    HW2 2210   5.498   3.365   3.347 -0.6293 -1.2617 -1.6752
  611SOL    HW3 2211   5.440   3.472   3.257 -1.2051  0.0773  0.2179
  611SOL    MW4 2212   5.429   3.409   3.317 -0.7473 -0.2072  0.0067
  612SOL     OW 2213   2.069   0.318   3.487 -0.5686  0.3541 -0.4362
  612SOL    HW2 2214   2.051   0.393   3.543 -2.1846 -0.0310 -0.3803
  612SOL    HW3 2215   2.126   0.261   3.540 -0.5961  0.8311  0.1110
  612SOL    MW4 2216   2.074   0.320   3.502 -0.7854  0.3663 -0.3566
  613SOL     OW 2217   1.302   3.473   1.824  0.0874  0.3550  0.3902
  613SOL    HW2 2218   1.378   3.525   1.798  0.8076 -0.7859  0.1623
  613SOL    HW3 2219   1.277   3.508   1.910  1.3038  0.2704  0.7915
  613SOL    MW4 2220   1.309   3.485   1.832  0.3429  0.1933  0.4131
  614SOL     OW 2221   3.792   0.890   5.478  0.1443  0.5024  0.1933
  614SOL    HW2 2222   3.799   0.955   5.409  1.0995 -1.9466 -2.2221
  614SOL    HW3 2223   3.882   0.861   5.494 -0.2657 -0.4129  0.9867
  614SOL    MW4 2224   3.805   0.895   5.471  0.2163  0.0585 -0.0207
  615SOL     OW 2225   2.871   6.431   5.230  0.0494 -0.0089  0.1193
  615SOL    HW2 2226   2.892   6.477   5.311  0.8936 -1.0862  0.5397
  615SOL    HW3 2227   2.825   6.352   5.258  1.3749 -0.9795 -0.3404
  615SOL    MW4 2228   2.868   6.427   5.244  0.3356 -0.2791  0.1141
  616SOL     OW 2229   2.182   3.579   1.776 -0.3012 -0.2412  0.4158
  616SOL    HW2 2230   2.107   3.520   1.775  0.9083 -1.9196 -1.3478
  616SOL    HW3 2231   2.225   3.561   1.860  0.6023 -2.8072 -0.4689
  616SOL    MW4 2232   2.178   3.569   1.787 -0.0224 -0.8012  0.0664
  617SOL     OW 2233   5.555   6.021   1.810  0.3069 -0.1769 -0.0830
  617SOL    HW2 2234   5.645   6.051   1.813  0.8888 -1.8953  2.4588
  617SOL    HW3 2235   5.558   5.942   1.756  0.3621 -0.2938  0.0893
  617SOL    MW4 2236   5.567   6.014   1.803  0.3910 -0.4191  0.2751
  618SOL     OW 2237   1.514   2.091   6.184 -0.1725  0.3346  0.1565
  618SOL    HW2 2238   1.547   2.178   6.160 -0.6320  0.6267  0.5439
  618SOL    HW3 2239   1.464   2.106   6.264  0.1957 -0.3893  0.5255
  618SOL    MW4 2240   1.511   2.105   6.191 -0.1845  0.2776  0.2563
  619SOL     OW 2241   1.232   1.013   1.568 -0.3740  0.0887  0.0798
  619SOL    HW2 2242   1.271   0.998   1.482 -1.2259 -0.1712 -0.2608
  619SOL    HW3 2243   1.148   0.969   1.565 -0.5092  0.2669  0.9739
  619SOL    MW4 2244   1.226   1.005   1.556 -0.5043  0.0779  0.1529
  620SOL     OW 2245   0.703   2.063  -0.028  0.4032 -0.2760  0.1571
  620SOL    HW2 2246   0.635   1.997  -0.047 -1.3193  1.2490  0.7197
  620SOL    HW3 2247   0.770   2.047  -0.094 -0.1785 -2.2585 -0.0398
  620SOL    MW4 2248   0.703   2.052  -0.039  0.0992 -0.3364  0.2054
  621SOL     OW 2249   1.240   3.068   2.705 -0.1450 -0.0902  0.5068
  621SOL    HW2 2250   1.184   3.085   2.630 -0.5436  0.0545  0.8299
  621SOL    HW3 2251   1.316   3.023   2.669 -0.3198  0.0003  0.0167
  621SOL    MW4 2252   1.243   3.065   2.691 -0.2207 -0.0592  0.4847
  622SOL     OW 2253   3.125   3.741   0.685  0.0683  0.8264 -0.7378
  622SOL    HW2 2254   3.216   3.767   0.700  0.9369 -1.8916 -0.7087
  622SOL    HW3 2255   3.094   3.713   0.771  0.4105 -1.4721 -1.2825
  622SOL    MW4 2256   3.133   3.741   0.698  0.2280  0.1645 -0.8058
  623SOL     OW 2257   0.178   3.178   1.554 -0.7366 -0.4799 -0.1666
  623SOL    HW2 2258   0.265   3.139   1.555 -0.7724 -0.5648  0.6291
  623SOL    HW3 2259   0.189   3.262   1.508 -0.3727 -0.7760 -0.6264
  623SOL    MW4 2260   0.191   3.184   1.548 -0.6933 -0.5302 -0.1223
  624SOL     OW 2261   3.609   2.792   1.583  0.3671  0.2135  0.2614
  624SOL    HW2 2262   3.533   2.741   1.553  0.0758 -0.0873  1.4449
  624SOL    HW3 2263   3.670   2.790   1.509 -0.6292  0.1693 -0.5844
  624SOL    MW4 2264   3.607   2.785   1.569  0.1972  0.1680  0.3060
  625SOL     OW 2265   0.098   2.465   4.756 -0.2493  0.2350 -0.2806
  625SOL    HW2 2266   0.085   2.556   4.782 -1.9004  0.1768 -0.7507
  625SOL    HW3 2267   0.010   2.435   4.732  0.1971 -1.6108  0.2780
  625SOL    MW4 2268   0.085   2.473   4.756 -0.4083 -0.0162 -0.2689
  626SOL     OW 2269   1.406   3.355   5.494  0.0597  0.0844  0.6597
  626SOL    HW2 2270   1.416   3.266   5.528  0.0949  0.6769  2.3001
  626SOL    HW3 2271   1.424   3.347   5.400  0.6312 -1.5302  0.8732
  626SOL    MW4 2272   1.410   3.342   5.486  0.1398 -0.0504  0.9043
  627SOL     OW 2273   1.281   0.406   4.322 -0.0030  1.0882  0.1994
  627SOL    HW2 2274   1.202   0.356   4.301  0.0426  1.8160 -1.8875
  627SOL    HW3 2275   1.332   0.347   4.378 -1.0414 -0.2613 -0.2158
  627SOL    MW4 2276   1.278   0.392   4.327 -0.1340  1.0061 -0.1307
  628SOL     OW 2277   5.203   1.114   4.958 -0.4431  0.5008  0.2856
  628SOL    HW2 2278   5.284   1.152   4.992 -0.7121  0.1875  1.2858
  628SOL    HW3 2279   5.140   1.123   5.028 -0.6585 -1.3224  0.3826
  628SOL    MW4 2280   5.206   1.120   4.972 -0.5070  0.2189  0.4304
  629SOL     OW 2281   4.981   0.856   3.836  0.0953 -0.1353  0.6203
  629SOL    HW2 2282   4.998   0.854   3.741 -0.2318  0.8377  0.5321
  629SOL    HW3 2283   5.062   0.891   3.873  0.0736 -0.1339  0.6653
  629SOL    MW4 2284   4.994   0.860   3.828  0.0493 -0.0068  0.6146
  630SOL     OW 2285   1.973   5.315   2.978  0.3356  0.1110 -0.0796
  630SOL    HW2 2286   2.025   5.237   2.959 -0.7175 -0.3745 -1.1159
  630SOL    HW3 2287   1.891   5.301   2.930 -0.5550  1.0676  1.1012
  630SOL    MW4 2288   1.969   5.303   2.969  0.0792  0.1731 -0.0605
  631SOL     OW 2289   2.020   1.777   2.552  0.4650  0.2769  0.3268
  631SOL    HW2 2290   1.991   1.693   2.587 -2.7178  0.0337 -2.4825
  631SOL    HW3 2291   2.100   1.757   2.504  0.4584 -0.8575  0.7641
  631SOL    MW4 2292   2.027   1.764   2.551  0.0442  0.0951  0.0139
  632SOL     OW 2293   3.504   0.344   5.559 -0.6251  0.0503  0.7039
  632SOL    HW2 2294   3.479   0.322   5.469 -1.6586 -0.3800  1.0769
  632SOL    HW3 2295   3.488   0.438   5.566  0.0804  0.2177  0.2613
  632SOL    MW4 2296   3.499   0.353   5.548 -0.6684  0.0156  0.6947
  633SOL     OW 2297   0.796   3.689   5.564 -0.4897  0.2488  0.0024
  633SOL    HW2 2298   0.802   3.774   5.520  0.9055  1.1393  1.8237
  633SOL    HW3 2299   0.878   3.680   5.612  0.2797 -3.0496 -1.6388
  633SOL    MW4 2300   0.807   3.699   5.564 -0.2041 -0.0689  0.0262
  634SOL     OW 2301   3.257   0.665   4.341  0.2541 -0.2295  0.4075
  634SOL    HW2 2302   3.289   0.704   4.422 -1.8393  0.8716  0.7536
  634SOL    HW3 2303   3.171   0.631   4.363 -0.7030  0.7939 -1.5005
  634SOL    MW4 2304   3.250   0.666   4.355 -0.1483  0.0508  0.2014
  635SOL     OW 2305   1.027   3.379   1.403 -0.1210 -0.1531  0.5842
  635SOL    HW2 2306   1.054   3.462   1.442  0.9208  1.5683 -3.2704
  635SOL    HW3 2307   0.950   3.352   1.453 -0.4826  3.1207  2.0186
  635SOL    MW4 2308   1.020   3.386   1.415 -0.0313  0.5060  0.2649
  636SOL     OW 2309   0.894   4.694   2.958 -0.1919 -0.2696  0.0169
  636SOL    HW2 2310   0.858   4.665   2.874  0.4063  1.5315 -0.9043
  636SOL    HW3 2311   0.960   4.628   2.980 -1.0508 -1.3103 -0.3756
  636SOL    MW4 2312   0.898   4.681   2.950 -0.2263 -0.1693 -0.1564
  637SOL     OW 2313   1.783   5.670   0.809  0.1353  0.2335  0.2329
  637SOL    HW2 2314   1.799   5.671   0.903  1.1106  0.3644  0.0770
  637SOL    HW3 2315   1.689   5.651   0.801  0.0237  0.2931  1.2242
  637SOL    MW4 2316   1.772   5.668   0.820  0.2492  0.2586  0.3431
  638SOL     OW 2317   2.034   5.676   4.992 -0.1220 -0.7971 -0.0338
  638SOL    HW2 2318   2.011   5.733   4.919  0.8845 -0.8058 -0.3746
  638SOL    HW3 2319   2.070   5.735   5.059  2.2352 -1.1153 -0.9249
  638SOL    MW4 2320   2.036   5.691   4.992  0.3218 -0.8403 -0.1964
  639SOL     OW 2321   6.071   3.054   2.872 -0.1451  0.0549 -0.1332
  639SOL    HW2 2322   6.141   3.118   2.887  0.0152 -0.4918  1.8086
  639SOL    HW3 2323   6.006   3.101   2.819  1.7620  0.4910 -2.2017
  639SOL    MW4 2324   6.072   3.069   2.867  0.1277  0.0403 -0.1499
  640SOL     OW 2325   1.217   3.657   6.023  0.5116  0.5857 -0.0640
  640SOL    HW2 2326   1.167   3.737   6.007  1.0229  0.5605 -1.9289
  640SOL    HW3 2327   1.263   3.640   5.941 -0.7574 -2.4512 -0.2789
  640SOL    MW4 2328   1.216   3.665   6.010  0.4116  0.1816 -0.3384
  641SOL     OW 2329   5.668   5.889   0.361 -0.3621  0.1024 -0.1624
  641SOL    HW2 2330   5.757   5.863   0.340 -0.2797  0.9163 -0.8353
  641SOL    HW3 2331   5.657   5.862   0.453 -0.3512 -2.4453 -0.8128
  641SOL    MW4 2332   5.678   5.882   0.371 -0.3498 -0.1264 -0.3370
  642SOL     OW 2333   6.134   5.576   2.121  0.7003 -0.4717  0.3401
  642SOL    HW2 2334   6.090   5.651   2.081 -1.1258 -2.3569 -1.4493
  642SOL    HW3 2335   6.109   5.580   2.213 -1.5154 -0.2532 -0.2093
  642SOL    MW4 2336   6.125   5.587   2.128  0.1671 -0.6916  0.0316
  643SOL     OW 2337   6.193   4.865   3.554  0.1296 -0.1541  0.6829
  643SOL    HW2 2338   6.098   4.877   3.545  0.0203 -0.4450  1.4203
  643SOL    HW3 2339   6.218   4.923   3.626  0.5274 -0.0277  0.4471
  643SOL    MW4 2340   6.184   4.874   3.562  0.1676 -0.1758  0.7491
  644SOL     OW 2341   5.607   1.046   3.296 -0.6953  0.0520 -0.2510
  644SOL    HW2 2342   5.628   1.139   3.289 -2.1688  0.5231  1.0202
  644SOL    HW3 2343   5.539   1.041   3.362 -0.1686 -2.0257  0.2387
  644SOL    MW4 2344   5.601   1.057   3.304 -0.8202 -0.1599 -0.0186
  645SOL     OW 2345   4.468   5.907   6.121 -0.2318 -0.2838 -0.4984
  645SOL    HW2 2346   4.446   5.825   6.077  0.5796  0.3251 -2.0959
  645SOL    HW3 2347   4.527   5.881   6.192 -1.5544 -1.2801  0.2743
  645SOL    MW4 2348   4.473   5.893   6.125 -0.2993 -0.3349 -0.6072
  646SOL     OW 2349   4.058   0.230   3.028  1.0844  0.1346 -0.0593
  646SOL    HW2 2350   4.129   0.274   2.982  1.4005 -0.4833 -0.1832
  646SOL    HW3 2351   4.056   0.270   3.115 -0.2715  2.1400 -0.9302
  646SOL    MW4 2352   4.067   0.241   3.034  0.9472  0.3177 -0.1905
  647SOL     OW 2353   5.313   4.883   5.123 -0.8548 -0.5546  0.5536
  647SOL    HW2 2354   5.232   4.841   5.152 -0.1017 -0.7837  2.4615
  647SOL    HW3 2355   5.378   4.857   5.188  0.8719 -0.7082 -1.1469
  647SOL    MW4 2356   5.311   4.874   5.135 -0.5276 -0.6051  0.5810
  648SOL     OW 2357   1.665   1.106   4.014  0.1573  0.2389 -0.1847
  648SOL    HW2 2358   1.736   1.133   4.073  1.0651 -0.4577 -0.9164
  648SOL    HW3 2359   1.628   1.188   3.981 -0.0208  0.6278  0.9477
  648SOL    MW4 2360   1.670   1.120   4.018  0.2536  0.1983 -0.1318
  649SOL     OW 2361   5.862   3.223   2.767  0.0186 -0.3429 -0.5767
  649SOL    HW2 2362   5.806   3.250   2.840  0.0937  0.4452 -0.8041
  649SOL    HW3 2363   5.813   3.154   2.722 -0.3353 -0.3355 -0.2001
  649SOL    MW4 2364   5.848   3.217   2.771 -0.0182 -0.2379 -0.5570
  650SOL     OW 2365   0.673   4.181   1.873 -0.1821  0.5499  0.8971
  650SOL    HW2 2366   0.739   4.111   1.880  0.7835  0.9374 -2.4010
  650SOL    HW3 2367   0.700   4.246   1.937  1.1798 -0.4241  1.3546
  650SOL    MW4 2368   0.685   4.180   1.882  0.1250  0.4725  0.5223
  651SOL     OW 2369   0.092   1.632   0.315  0.5253 -0.5548  0.1310
  651SOL    HW2 2370   0.035   1.658   0.388 -0.5494 -1.8738 -0.1903
  651SOL    HW3 2371   0.072   1.696   0.246  0.5882 -0.0758  0.5488
  651SOL    MW4 2372   0.082   1.644   0.316  0.3918 -0.6656  0.1438
  652SOL     OW 2373   5.005   5.628   0.155  0.2113  0.2074 -0.7914
  652SOL    HW2 2374   4.942   5.558   0.171  1.7219 -1.0189  0.0450
  652SOL    HW3 2375   4.976   5.699   0.213  0.1216 -0.6894  0.3033
  652SOL    MW4 2376   4.993   5.629   0.165  0.3987 -0.0727 -0.5366
  653SOL     OW 2377   0.265   3.165   4.685 -0.8276 -0.1933  0.1939
  653SOL    HW2 2378   0.271   3.157   4.590 -0.3578  1.0014  0.1018
  653SOL    HW3 2379   0.313   3.090   4.720  0.9596  0.5712 -0.5295
  653SOL    MW4 2380   0.272   3.154   4.677 -0.5298  0.0652  0.0863
  654SOL     OW 2381   4.113   1.040   6.294 -0.0337  0.2205 -0.1972
  654SOL    HW2 2382   4.121   1.102   6.222  2.6442  0.1212 -0.0845
  654SOL    HW3 2383   4.101   1.095   6.372 -1.4156  0.3824 -0.4930
  654SOL    MW4 2384   4.112   1.055   6.295  0.1373  0.2287 -0.2214
  655SOL     OW 2385   3.465   4.915   6.370 -0.5096  0.4041  0.0747
  655SOL    HW2 2386   3.447   4.826   6.399  2.3151  0.3049  1.8446
  655SOL    HW3 2387   3.506   4.905   6.284 -1.6410  0.1727 -0.4638
  655SOL    MW4 2388   3.468   4.902   6.362 -0.2862  0.3605  0.2372
  656SOL     OW 2389   3.526   1.377   1.078  0.6125  0.1072  0.2451
  656SOL    HW2 2390   3.456   1.392   1.141 -0.0067  0.4817 -0.5153
  656SOL    HW3 2391   3.530   1.458   1.027  1.1036 -0.1870 -0.1919
  656SOL    MW4 2392   3.517   1.389   1.079  0.5956  0.1178  0.0871
  657SOL     OW 2393   4.214   6.137   2.092 -0.2034  0.7008  0.1024
  657SOL    HW2 2394   4.124   6.142   2.125 -0.2640 -1.2782  0.3427
  657SOL    HW3 2395   4.259   6.081   2.154  0.9943  1.0009 -0.4772
  657SOL    MW4 2396   4.208   6.130   2.105 -0.0533  0.4793  0.0576
  658SOL     OW 2397   3.680   2.986   3.307 -0.3205  0.0011  0.0644
  658SOL    HW2 2398   3.592   3.024   3.313 -0.6236 -0.8820  2.0116
  658SOL    HW3 2399   3.672   2.918   3.240 -0.4342  1.5420 -1.5597
  658SOL    MW4 2400   3.667   2.982   3.299 -0.3755  0.0879  0.1070
  659SOL     OW 2401   1.561   5.338   6.365  0.3140  0.1161 -0.1711
  659SOL    HW2 2402   1.466   5.347   6.372  0.2216 -0.1333 -1.0081
  659SOL    HW3 2403   1.580   5.351   6.272  0.9939 -0.7822 -0.1755
  659SOL    MW4 2404   1.551   5.341   6.354  0.3915 -0.0353 -0.2821
  660SOL     OW 2405   5.070   5.611   4.906  0.1855  0.2024 -1.0129
  660SOL    HW2 2406   5.079   5.536   4.847  0.6669 -0.3319 -0.2660
  660SOL    HW3 2407   5.013   5.579   4.976  1.6454  0.0237  0.1274
  660SOL    MW4 2408   5.064   5.597   4.908  0.4417  0.1083 -0.7639
  661SOL     OW 2409   3.437   2.038   0.084 -0.8071 -0.0369  0.5117
  661SOL    HW2 2410   3.445   1.945   0.101 -0.9839 -0.2382 -0.4619
  661SOL    HW3 2411   3.349   2.061   0.117 -1.6029 -0.6554 -1.1022
  661SOL    MW4 2412   3.426   2.029   0.091 -0.9355 -0.1450  0.1703
  662SOL     OW 2413   0.687   1.018   3.096  0.3506  0.6514 -0.4183
  662SOL    HW2 2414   0.768   1.037   3.144  0.4357  0.2541 -0.3945
  662SOL    HW3 2415   0.641   1.101   3.092  0.3090  0.6787  0.4319
  662SOL    MW4 2416   0.692   1.031   3.102  0.3563  0.6026 -0.3030
  663SOL     OW 2417   2.472   1.241   6.267 -0.0769 -0.4030  0.1691
  663SOL    HW2 2418   2.449   1.148   6.262  0.9530 -0.6265 -1.0278
  663SOL    HW3 2419   2.459   1.264   6.359 -0.1414 -1.7846  0.5318
  663SOL    MW4 2420   2.467   1.232   6.279  0.0505 -0.6148  0.0590
  664SOL     OW 2421   3.961   4.018   5.450 -0.2896 -0.0483  0.0004
  664SOL    HW2 2422   3.990   4.107   5.431 -0.8372  0.3530  0.9193
  664SOL    HW3 2423   4.031   3.962   5.418  0.1566  0.7231 -0.4098
  664SOL    MW4 2424   3.974   4.022   5.443 -0.3029  0.1064  0.0675
  665SOL     OW 2425   1.301   4.887   5.688  0.0447 -0.4692  0.0084
  665SOL    HW2 2426   1.302   4.892   5.592  2.8912  0.1596 -0.0198
  665SOL    HW3 2427   1.360   4.814   5.709 -1.5878 -1.4738  1.2974
  665SOL    MW4 2428   1.309   4.878   5.678  0.2049 -0.5188  0.1747
  666SOL     OW 2429   5.225   0.397   3.395 -0.0104 -0.2366  0.0321
  666SOL    HW2 2430   5.281   0.340   3.448 -0.4949 -0.7433  0.0220
  666SOL    HW3 2431   5.145   0.406   3.448  0.2510  0.8532  0.2585
  666SOL    MW4 2432   5.222   0.390   3.409 -0.0398 -0.1596  0.0606
  667SOL     OW 2433   0.503   1.852   6.373 -1.0451 -0.0153 -0.1695
  667SOL    HW2 2434   0.481   1.769   6.329 -1.7034 -0.5281  1.0621
  667SOL    HW3 2435   0.419   1.897   6.383 -0.9228  0.0660  0.5831
  667SOL    MW4 2436   0.489   1.847   6.368 -1.1158 -0.0722  0.0923
  668SOL     OW 2437   5.667   0.602   3.768 -0.0836  1.2181  0.3637
  668SOL    HW2 2438   5.613   0.525   3.785  1.2042  0.6394  2.0400
  668SOL    HW3 2439   5.700   0.628   3.853  4.0861  0.1567 -0.6868
  668SOL    MW4 2440   5.664   0.595   3.781  0.6364  1.0017  0.4463
  669SOL     OW 2441   5.903   2.723   1.888  0.0777 -0.1842 -0.1865
  669SOL    HW2 2442   5.832   2.787   1.884  1.5274  1.8476  2.7714
  669SOL    HW3 2443   5.949   2.733   1.805 -1.5765  0.2655 -1.0988
  669SOL    MW4 2444   5.900   2.733   1.876  0.0507  0.1432  0.0834
  670SOL     OW 2445   6.046   0.144   5.857  0.1552  0.3580 -0.0455
  670SOL    HW2 2446   6.027   0.233   5.829  0.5302  0.3052 -0.4714
  670SOL    HW3 2447   6.058   0.095   5.776 -2.1362 -0.5651  0.1014
  670SOL    MW4 2448   6.045   0.149   5.843 -0.0977  0.2293 -0.0823
  671SOL     OW 2449   4.282   2.055   2.474  0.1525  0.3182 -0.0529
  671SOL    HW2 2450   4.245   2.142   2.458 -1.4102 -0.0463  1.2782
  671SOL    HW3 2451   4.320   2.062   2.562  1.2134  0.0100 -0.4749
  671SOL    MW4 2452   4.283   2.067   2.484  0.0863  0.2294  0.0670
  672SOL     OW 2453   2.585   1.470   5.235 -0.3479  0.4463  0.5458
  672SOL    HW2 2454   2.586   1.516   5.151 -1.4499 -1.1560 -0.3830
  672SOL    HW3 2455   2.512   1.409   5.229  1.6330 -2.1765  1.2958
  672SOL    MW4 2456   2.576   1.468   5.223 -0.2319 -0.1112  0.5222
  673SOL     OW 2457   0.479   1.379   1.357  0.0687  0.1845 -0.0657
  673SOL    HW2 2458   0.531   1.374   1.437  2.3838 -0.3684 -1.5167
  673SOL    HW3 2459   0.531   1.331   1.292 -2.4498 -0.6931 -1.5585
  673SOL    MW4 2460   0.493   1.372   1.359  0.0419 -0.0043 -0.4541
  674SOL     OW 2461   2.755   4.066   1.892  0.1851 -0.2020 -0.4222
  674SOL    HW2 2462   2.821   4.104   1.950  0.5633 -3.0398  1.2558
  674SOL    HW3 2463   2.672   4.077   1.939  0.1009 -0.2623 -0.5540
  674SOL    MW4 2464   2.753   4.072   1.906  0.2239 -0.5844 -0.2182
  675SOL     OW 2465   0.695   4.238   5.217  0.3150 -0.3836  0.3914
  675SOL    HW2 2466   0.654   4.153   5.201  0.1864  0.1779 -2.9274
  675SOL    HW3 2467   0.779   4.233   5.171  0.1974  1.3151 -0.0873
  675SOL    MW4 2468   0.700   4.226   5.209  0.2825 -0.0854 -0.1096
  676SOL     OW 2469   1.648   0.075   1.567  0.1913  0.2062 -0.5942
  676SOL    HW2 2470   1.561   0.036   1.578  1.0124 -1.6467 -0.2514
  676SOL    HW3 2471   1.654   0.140   1.637 -1.3999  1.3259 -1.4535
  676SOL    MW4 2472   1.637   0.078   1.578  0.0897  0.1095 -0.6624
  677SOL     OW 2473   6.048   5.516   4.411  0.4979  0.1236  0.2199
  677SOL    HW2 2474   6.127   5.523   4.465  0.8296 -0.1623 -0.2141
  677SOL    HW3 2475   6.053   5.427   4.374 -0.3125 -0.0903  0.6242
  677SOL    MW4 2476   6.059   5.505   4.413  0.4348  0.0577  0.2159
  678SOL     OW 2477   1.182   0.240   1.203  0.0555 -0.6305  0.2437
  678SOL    HW2 2478   1.147   0.305   1.264  1.9283  0.7431 -0.0375
  678SOL    HW3 2479   1.222   0.173   1.258  0.3418 -0.2264  0.5279
  678SOL    MW4 2480   1.183   0.240   1.218  0.3404 -0.3960  0.2441
  679SOL     OW 2481   1.898   2.347   4.338 -0.1537 -0.3963  0.4121
  679SOL    HW2 2482   1.881   2.400   4.260  0.5149  1.7228  1.6193
  679SOL    HW3 2483   1.887   2.257   4.309 -1.5202  0.3907 -1.7162
  679SOL    MW4 2484   1.894   2.342   4.324 -0.2458 -0.0129  0.2905
  680SOL     OW 2485   3.320   0.095   3.087  0.1945 -0.2733  0.0838
  680SOL    HW2 2486   3.311   0.124   2.996 -2.1211 -1.1782 -0.0644
  680SOL    HW3 2487   3.414   0.098   3.105  1.2924 -3.6467 -3.5885
  680SOL    MW4 2488   3.331   0.099   3.077  0.0338 -0.8378 -0.4203
  681SOL     OW 2489   1.028   5.930   5.148  0.1472 -0.2716 -0.1201
  681SOL    HW2 2490   0.932   5.933   5.153  0.0692 -1.8511 -0.3422
  681SOL    HW3 2491   1.057   5.976   5.227 -0.7777  0.4658 -0.1869
  681SOL    MW4 2492   1.019   5.937   5.159  0.0149 -0.3827 -0.1582
  682SOL     OW 2493   4.596   3.139   3.096  0.0756 -0.2027  0.1287
  682SOL    HW2 2494   4.564   3.215   3.048 -1.5232  0.5485  2.2385
  682SOL    HW3 2495   4.520   3.081   3.103  0.7194 -1.0362  0.3628
  682SOL    MW4 2496   4.582   3.141   3.091 -0.0504 -0.2135  0.4379
  683SOL     OW 2497   0.748   1.706   1.543 -0.3357  0.3547 -0.1930
  683SOL    HW2 2498   0.799   1.749   1.474  0.6807 -0.8014 -0.2123
  683SOL    HW3 2499   0.775   1.749   1.623  0.1145  0.2651 -0.2916
  683SOL    MW4 2500   0.758   1.717   1.544 -0.1422  0.1903 -0.2086
  684SOL     OW 2501   3.727   1.414   1.357 -0.5759  0.0236  0.8564
  684SOL    HW2 2502   3.812   1.412   1.399  0.1309  2.0250 -0.3424
  684SOL    HW3 2503   3.740   1.465   1.277 -3.0436  1.1639  1.0515
  684SOL    MW4 2504   3.740   1.421   1.352 -0.8083  0.4381  0.7240
  685SOL     OW 2505   4.142   1.807   3.937 -0.1004  0.1216 -0.5428
  685SOL    HW2 2506   4.118   1.734   3.880  0.0753 -0.1308 -0.2978
  685SOL    HW3 2507   4.068   1.816   3.997  0.6180 -1.0001  0.5527
  685SOL    MW4 2508   4.129   1.799   3.937  0.0176 -0.0597 -0.3659
  686SOL     OW 2509   5.234   1.833   3.452  0.3902 -0.1124  0.5153
  686SOL    HW2 2510   5.224   1.743   3.485  0.6246 -0.2218  0.2996
  686SOL    HW3 2511   5.254   1.821   3.359 -2.0122  0.2263 -0.1192
  686SOL    MW4 2512   5.235   1.819   3.444  0.1042 -0.0821  0.4031
  687SOL     OW 2513   1.389   5.264   4.005 -0.0157 -0.1941 -0.1481
  687SOL    HW2 2514   1.318   5.199   3.998 -1.9193  1.6237  1.0755
  687SOL    HW3 2515   1.404   5.272   4.099  0.2697  1.0585 -0.2906
  687SOL    MW4 2516   1.381   5.256   4.017 -0.2292  0.2110 -0.0054
  688SOL     OW 2517   2.536   4.786   0.857 -0.1176 -0.2235  0.4084
  688SOL    HW2 2518   2.615   4.816   0.902  0.5088  0.0081 -0.8048
  688SOL    HW3 2519   2.517   4.856   0.794 -1.1792 -0.3705  0.5530
  688SOL    MW4 2520   2.544   4.799   0.855 -0.1750 -0.2124  0.2674
  689SOL     OW 2521   1.220   2.361   0.633  0.2871  0.4324 -0.2565
  689SOL    HW2 2522   1.301   2.376   0.584 -0.7300  0.5229 -1.9960
  689SOL    HW3 2523   1.183   2.449   0.646  0.4067  0.3841  0.4388
  689SOL    MW4 2524   1.226   2.375   0.628  0.1687  0.4380 -0.3942
  690SOL     OW 2525   4.808   4.268   0.646 -0.0287 -0.2055 -0.1907
  690SOL    HW2 2526   4.722   4.271   0.605 -0.8068 -2.8525  1.0475
  690SOL    HW3 2527   4.847   4.187   0.614  1.2616  0.0456  0.6579
  690SOL    MW4 2528   4.802   4.258   0.636  0.0389 -0.5216  0.0846
  691SOL     OW 2529   3.726   1.198   2.110 -0.0786 -0.6712  0.2291
  691SOL    HW2 2530   3.819   1.205   2.133  0.6451 -1.8891 -2.0560
  691SOL    HW3 2531   3.704   1.107   2.128 -0.5058 -0.6742 -0.2847
  691SOL    MW4 2532   3.736   1.187   2.115 -0.0395 -0.8323 -0.1402
  692SOL     OW 2533   1.797   4.187   1.440 -0.2398  0.1902  0.4266
  692SOL    HW2 2534   1.713   4.151   1.412  0.1139  0.0903 -0.5647
  692SOL    HW3 2535   1.805   4.269   1.392  0.0924  0.3483  0.7499
  692SOL    MW4 2536   1.787   4.193   1.430 -0.1493  0.1979  0.3385
  693SOL     OW 2537   5.265   3.439   1.462  0.2295 -0.3514 -0.0697
  693SOL    HW2 2538   5.188   3.387   1.483 -0.8416  1.1415 -0.1122
  693SOL    HW3 2539   5.250   3.469   1.372  0.3753  0.7473  0.2541
  693SOL    MW4 2540   5.253   3.436   1.453  0.1074 -0.0094 -0.0326
  694SOL     OW 2541   5.938   5.735   0.359  0.1086 -0.2111 -0.1163
  694SOL    HW2 2542   5.909   5.721   0.449 -1.7476  0.2861 -0.5812
  694SOL    HW3 2543   5.925   5.650   0.316  2.1931 -0.8122  0.3326
  694SOL    MW4 2544   5.932   5.722   0.365  0.1387 -0.2248 -0.1184
  695SOL     OW 2545   5.164   4.710   0.751 -0.4337 -0.1282  0.7844
  695SOL    HW2 2546   5.230   4.670   0.809 -1.0870 -0.7347  1.1302
  695SOL    HW3 2547   5.083   4.709   0.803 -1.4364 -2.2279 -0.6787
  695SOL    MW4 2548   5.162   4.704   0.766 -0.6522 -0.4852  0.6370
  696SOL     OW 2549   0.807   1.775   3.496 -0.0295  0.4987  0.3634
  696SOL    HW2 2550   0.715   1.755   3.510 -0.0165 -0.1156 -0.3898
  696SOL    HW3 2551   0.851   1.690   3.494 -0.1903  0.2577 -4.5469
  696SOL    MW4 2552   0.801   1.762   3.498 -0.0490  0.3858 -0.3838
  697SOL     OW 2553   1.699   4.767   0.206  0.4242  0.1654  0.4587
  697SOL    HW2 2554   1.782   4.815   0.200 -0.0394  0.8388 -1.5978
  697SOL    HW3 2555   1.661   4.796   0.288  2.0157  0.1744  1.2386
  697SOL    MW4 2556   1.705   4.777   0.216  0.5730  0.2554  0.2902
  698SOL     OW 2557   4.991   5.446   2.020  0.1030 -0.3124 -0.1837
  698SOL    HW2 2558   4.925   5.442   2.089 -0.0906  1.5743 -0.1970
  698SOL    HW3 2559   4.940   5.456   1.939  0.3777  0.4313 -0.2706
  698SOL    MW4 2560   4.975   5.447   2.018  0.1137  0.0346 -0.1969
  699SOL     OW 2561   1.377   1.032   1.334 -0.4067 -0.4169 -0.0117
  699SOL    HW2 2562   1.434   0.999   1.265  1.2668  1.8561  0.1869
  699SOL    HW3 2563   1.317   1.092   1.290  0.3243  0.6349  0.3916
  699SOL    MW4 2564   1.377   1.035   1.319 -0.0894  0.0218  0.0677
  700SOL     OW 2565   1.767   3.669   3.231 -0.2084 -0.2290 -0.1647
  700SOL    HW2 2566   1.713   3.703   3.302 -1.5406 -1.0505 -0.7406
  700SOL    HW3 2567   1.854   3.660   3.269 -1.2023 -2.2043  1.8969
  700SOL    MW4 2568   1.771   3.672   3.245 -0.5153 -0.5980  0.0313
  701SOL     OW 2569   3.141   0.861   4.837  0.0499  0.6356 -0.4830
  701SOL    HW2 2570   3.148   0.778   4.885  1.9351  0.9556 -0.1167
  701SOL    HW3 2571   3.180   0.841   4.751  0.8879  1.2109 -0.2513
  701SOL    MW4 2572   3.147   0.847   4.832  0.4092  0.7537 -0.4041
  702SOL     OW 2573   5.029   2.527   5.775 -0.2377 -0.8247  0.3515
  702SOL    HW2 2574   4.977   2.493   5.848  0.3648 -0.2300  1.0776
  702SOL    HW3 2575   5.111   2.555   5.816 -0.1916  0.2249 -0.4353
  702SOL    MW4 2576   5.033   2.526   5.790 -0.1521 -0.6078  0.3435
  703SOL     OW 2577   3.694   4.761   0.922 -0.0854  0.2814 -0.4779
  703SOL    HW2 2578   3.681   4.733   1.013  1.5323  0.2204 -0.2329
  703SOL    HW3 2579   3.755   4.835   0.928  1.7097 -1.0323 -1.6228
  703SOL    MW4 2580   3.700   4.767   0.935  0.3649  0.1000 -0.5966
  704SOL     OW 2581   5.528   4.662   6.341  0.1430 -0.1136  0.0308
  704SOL    HW2 2582   5.481   4.646   6.423 -2.1034  0.8847 -0.9849
  704SOL    HW3 2583   5.462   4.651   6.273  1.7933 -0.2064 -1.6213
  704SOL    MW4 2584   5.513   4.658   6.343  0.0644  0.0059 -0.3212
  705SOL     OW 2585   3.843   0.829   5.880  0.3779  0.1519 -0.3566
  705SOL    HW2 2586   3.918   0.875   5.917  0.1480 -1.7727  2.8575
  705SOL    HW3 2587   3.878   0.744   5.854 -0.0577  0.4808 -2.1462
  705SOL    MW4 2588   3.857   0.824   5.881  0.2901 -0.0586 -0.1686
  706SOL     OW 2589   2.552   0.866   0.868 -0.6217 -0.5042  0.0211
  706SOL    HW2 2590   2.545   0.785   0.817  0.4982 -1.3198  1.1078
  706SOL    HW3 2591   2.646   0.887   0.868 -0.8050  0.3699  0.4180
  706SOL    MW4 2592   2.564   0.858   0.861 -0.4982 -0.4965  0.2168
  707SOL     OW 2593   0.457   5.422   0.178  0.3044  0.0147  0.3939
  707SOL    HW2 2594   0.526   5.403   0.241  1.5645 -1.1854 -1.2744
  707SOL    HW3 2595   0.490   5.495   0.126 -0.3420  0.4230  0.5403
  707SOL    MW4 2596   0.470   5.429   0.179  0.3853 -0.0898  0.1931
  708SOL     OW 2597   3.253   5.519   1.159  0.0699  0.3196 -0.2158
  708SOL    HW2 2598   3.177   5.550   1.209  0.0161  0.7331 -0.5518
  708SOL    HW3 2599   3.250   5.569   1.077  0.2440 -0.2466 -0.5715
  708SOL    MW4 2600   3.243   5.530   1.155  0.0858  0.2995 -0.3071
  709SOL     OW 2601   0.211   0.202   5.006 -0.3019 -0.0450 -0.0019
  709SOL    HW2 2602   0.296   0.245   5.011 -0.6975  0.8930 -0.8370
  709SOL    HW3 2603   0.150   0.273   4.985 -1.2899 -0.7033  0.5847
  709SOL    MW4 2604   0.214   0.217   5.004 -0.4844 -0.0081 -0.0347
  710SOL     OW 2605   6.035   3.242   5.630  0.0304  0.3067  0.4924
  710SOL    HW2 2606   5.995   3.187   5.563  1.6293 -1.9228  1.2342
  710SOL    HW3 2607   6.095   3.183   5.677  0.5771  2.2895  2.4818
  710SOL    MW4 2608   6.038   3.227   5.628  0.3135  0.2742  0.8527
  711SOL     OW 2609   4.419   0.759   0.214 -0.2003 -0.5449 -0.2837
  711SOL    HW2 2610   4.513   0.772   0.202 -0.4056 -0.1612 -1.5681
  711SOL    HW3 2611   4.413   0.685   0.275  0.9341  0.5136  1.2108
  711SOL    MW4 2612   4.430   0.751   0.221 -0.0777 -0.3546 -0.2560
  712SOL     OW 2613   3.379   3.511   4.687  1.0774  0.9495 -0.1635
  712SOL    HW2 2614   3.430   3.541   4.611 -0.9876  1.8543 -1.2529
  712SOL    HW3 2615   3.356   3.421   4.665 -0.6562  1.6284 -1.2988
  712SOL    MW4 2616   3.383   3.503   4.674  0.5762  1.1585 -0.4570
  713SOL     OW 2617   0.616   5.251   1.146 -0.0093  0.1586  0.1593
  713SOL    HW2 2618   0.639   5.241   1.239 -0.4053  0.9823  0.3519
  713SOL    HW3 2619   0.611   5.345   1.132 -3.2889  0.0967  0.1379
  713SOL    MW4 2620   0.619   5.262   1.156 -0.4942  0.2591  0.1819
  714SOL     OW 2621   1.317   6.223   4.062 -0.0366 -0.0227 -0.4611
  714SOL    HW2 2622   1.275   6.143   4.093 -0.2138  0.4946  0.6699
  714SOL    HW3 2623   1.301   6.223   3.968 -2.5525  0.1399 -0.1014
  714SOL    MW4 2624   1.309   6.212   4.054 -0.3919  0.0670 -0.2644
  715SOL     OW 2625   3.694   6.139   6.232  0.6990 -0.4318  0.3367
  715SOL    HW2 2626   3.707   6.051   6.196  1.7351 -0.7722  1.4812
  715SOL    HW3 2627   3.731   6.135   6.320 -0.2408  0.8558  0.8160
  715SOL    MW4 2628   3.701   6.127   6.239  0.7117 -0.3068  0.5509
  716SOL     OW 2629   1.064   2.420   1.067 -0.5608 -0.3051  0.6931
  716SOL    HW2 2630   1.010   2.367   1.008  0.0476  0.3169 -0.4605
  716SOL    HW3 2631   1.130   2.359   1.101  1.4244  0.0361 -2.2174
  716SOL    MW4 2632   1.066   2.405   1.064 -0.2186 -0.1780  0.1569
  717SOL     OW 2633   3.943   0.029   2.714  0.7409 -0.1247  0.0504
  717SOL    HW2 2634   4.014   0.089   2.690  0.3383  0.3494  0.0460
  717SOL    HW3 2635   3.987  -0.056   2.723  1.5380  0.3828  1.2596
  717SOL    MW4 2636   3.958   0.025   2.712  0.7929  0.0048  0.2093
  718SOL     OW 2637   0.327   2.478   0.435 -0.2009 -0.0926 -0.0931
  718SOL    HW2 2638   0.336   2.566   0.473 -1.4992  0.4858 -1.0778
  718SOL    HW3 2639   0.295   2.424   0.507 -0.2862  0.4409  0.2733
  718SOL    MW4 2640   0.324   2.483   0.450 -0.3835  0.0541 -0.1746
  719SOL     OW 2641   0.653   1.625   0.929  0.3103  0.3956  0.4103
  719SOL    HW2 2642   0.671   1.607   1.021 -1.3914  0.1827  0.7301
  719SOL    HW3 2643   0.733   1.667   0.897  1.3982 -0.6410  1.6461
  719SOL    MW4 2644   0.666   1.628   0.937  0.2293  0.2307  0.6156
  720SOL     OW 2645   4.107   4.961   2.092  0.6198 -0.1436  0.2977
  720SOL    HW2 2646   4.175   5.011   2.137  2.0735 -1.8941  0.1793
  720SOL    HW3 2647   4.144   4.873   2.083 -1.6804 -1.1680  0.1876
  720SOL    MW4 2648   4.121   4.956   2.096  0.5081 -0.5097  0.2675
  721SOL     OW 2649   2.357   0.875   1.527  0.0038  0.2369  0.0549
  721SOL    HW2 2650   2.435   0.888   1.580 -1.7410 -0.5460  3.0342
  721SOL    HW3 2651   2.374   0.795   1.477  1.0444 -0.0188  0.7900
  721SOL    MW4 2652   2.369   0.866   1.527 -0.0891  0.0999  0.5449
  722SOL     OW 2653   1.193   2.776   5.928  0.3403  0.1175  0.3635
  722SOL    HW2 2654   1.146   2.703   5.967 -0.5723  0.1530 -0.6011
  722SOL    HW3 2655   1.169   2.773   5.835 -0.9336  2.4767  0.5192
  722SOL    MW4 2656   1.184   2.766   5.921  0.0518  0.4334  0.2568
  723SOL     OW 2657   3.527   0.257   1.579 -0.0736 -0.0796 -0.3985
  723SOL    HW2 2658   3.517   0.351   1.566 -2.1305 -0.3408 -1.0437
  723SOL    HW3 2659   3.622   0.243   1.580  0.3387  1.5863 -3.5449
  723SOL    MW4 2660   3.538   0.267   1.578 -0.2906  0.1057 -0.8988
  724SOL     OW 2661   1.174   0.661   1.627 -0.4719 -0.7296  0.4669
  724SOL    HW2 2662   1.116   0.683   1.700  0.4253  0.0087  0.9834
  724SOL    HW3 2663   1.115   0.645   1.553 -1.3783 -1.1933  1.2761
  724SOL    MW4 2664   1.158   0.662   1.627 -0.4732 -0.6934  0.6418
  725SOL     OW 2665   0.652   3.988   2.338  0.1374 -0.7369 -0.7176
  725SOL    HW2 2666   0.585   3.928   2.305 -1.9807 -0.6601  2.8385
  725SOL    HW3 2667   0.707   3.934   2.394  1.4335 -0.2851 -1.5272
  725SOL    MW4 2668   0.650   3.973   2.341  0.0290 -0.6672 -0.3552
  726SOL     OW 2669   2.549   1.179   2.898  0.0425 -0.2671 -0.1400
  726SOL    HW2 2670   2.518   1.089   2.887 -0.0142 -0.2976  0.2660
  726SOL    HW3 2671   2.643   1.170   2.912  0.2598 -0.1711 -1.4295
  726SOL    MW4 2672   2.557   1.166   2.899  0.0637 -0.2585 -0.2566
  727SOL     OW 2673   4.458   0.136   1.871 -0.1072 -0.3039  0.4539
  727SOL    HW2 2674   4.446   0.231   1.878  1.0214 -0.1206  0.1007
  727SOL    HW3 2675   4.404   0.100   1.942 -2.9373  0.3554 -1.1840
  727SOL    MW4 2676   4.449   0.144   1.882 -0.3317 -0.1927  0.1912
  728SOL     OW 2677   0.135   1.330   2.878 -0.1133  0.1402  0.1553
  728SOL    HW2 2678   0.087   1.349   2.797 -1.3479  4.2768  1.5762
  728SOL    HW3 2679   0.075   1.273   2.927 -0.4025 -0.4626 -0.8521
  728SOL    MW4 2680   0.121   1.325   2.874 -0.3143  0.6064  0.2099
  729SOL     OW 2681   0.879   4.467   3.239  0.4269 -0.1734  0.4377
  729SOL    HW2 2682   0.946   4.497   3.178 -0.1746 -1.3330 -0.8416
  729SOL    HW3 2683   0.799   4.459   3.187 -0.1185 -1.1610  1.3646
  729SOL    MW4 2684   0.877   4.470   3.224  0.2756 -0.4567  0.3912
  730SOL     OW 2685   0.673   5.698   2.310  0.2599  0.0205 -0.0966
  730SOL    HW2 2686   0.582   5.691   2.282 -0.2341  0.4466  1.3364
  730SOL    HW3 2687   0.715   5.751   2.241 -0.9097  1.0671 -0.0408
  730SOL    MW4 2688   0.666   5.704   2.297  0.0404  0.2148  0.0998
  731SOL     OW 2689   1.161   2.971   6.222  0.1619 -0.0421  0.2322
  731SOL    HW2 2690   1.137   3.063   6.225 -1.6674 -0.2907 -2.5854
  731SOL    HW3 2691   1.256   2.971   6.207  0.4669  1.2715  1.8484
  731SOL    MW4 2692   1.170   2.983   6.220 -0.0392  0.0984  0.0737
  732SOL     OW 2693   5.602   0.388   1.116 -0.4734  0.4318 -0.4222
  732SOL    HW2 2694   5.634   0.331   1.186 -0.3703 -0.4414 -1.1557
  732SOL    HW3 2695   5.614   0.477   1.149  2.0602  0.1288 -0.3931
  732SOL    MW4 2696   5.608   0.392   1.130 -0.1256  0.2766 -0.5151
  733SOL     OW 2697   5.313   3.241   5.029 -0.5058  0.1940 -0.1880
  733SOL    HW2 2698   5.230   3.199   5.003 -0.7952 -0.4830  1.6852
  733SOL    HW3 2699   5.369   3.168   5.055  0.1053  0.7685  0.1193
  733SOL    MW4 2700   5.309   3.226   5.029 -0.4634  0.1805  0.0997
  734SOL     OW 2701   4.929   0.784   1.073  0.3152 -0.3644  0.3490
  734SOL    HW2 2702   4.914   0.699   1.114 -2.5018  0.4018  1.1358
  734SOL    HW3 2703   4.880   0.780   0.990 -1.7629  1.1296  1.4023
  734SOL    MW4 2704   4.920   0.773   1.067 -0.3306 -0.0662  0.5917
  735SOL     OW 2705   6.333   5.826   6.241  0.3177 -0.6501 -0.7704
  735SOL    HW2 2706   6.272   5.755   6.263  0.7789 -1.1017 -0.9221
  735SOL    HW3 2707   6.406   5.814   6.302  0.1903 -0.0131 -0.4809
  735SOL    MW4 2708   6.335   5.815   6.252  0.3618 -0.6256 -0.7523
  736SOL     OW 2709   3.479   1.232   0.055 -0.2135 -0.7210  0.1500
  736SOL    HW2 2710   3.574   1.221   0.058 -0.3327 -2.2164 -0.4590
  736SOL    HW3 2711   3.445   1.159   0.108 -1.0160 -0.0659  0.5485
  736SOL    MW4 2712   3.487   1.221   0.062 -0.3351 -0.8318  0.1222
  737SOL     OW 2713   4.876   0.668   1.928 -0.3194  0.0593 -0.3868
  737SOL    HW2 2714   4.796   0.676   1.980 -0.5103  2.4269 -0.9444
  737SOL    HW3 2715   4.857   0.600   1.864 -2.2001  1.0722 -0.9707
  737SOL    MW4 2716   4.863   0.660   1.926 -0.5927  0.5053 -0.5374
  738SOL     OW 2717   1.183   3.661   1.119  0.0711 -0.2531 -0.2857
  738SOL    HW2 2718   1.113   3.618   1.070 -0.7136  0.1657  0.4340
  738SOL    HW3 2719   1.192   3.748   1.079  0.4835 -0.4574 -0.6487
  738SOL    MW4 2720   1.175   3.667   1.108  0.0220 -0.2248 -0.2386
  739SOL     OW 2721   3.076   2.404   4.624  0.2650 -0.3069  0.6182
  739SOL    HW2 2722   3.027   2.431   4.702  0.2605  1.2012  0.1248
  739SOL    HW3 2723   3.022   2.434   4.551  1.3702  0.3890  0.0588
  739SOL    MW4 2724   3.062   2.412   4.625  0.4102 -0.0161  0.4793
  740SOL     OW 2725   5.492   0.463   5.682  0.0461 -0.0665 -0.3811
  740SOL    HW2 2726   5.441   0.407   5.741 -0.3225 -0.7961 -1.3627
  740SOL    HW3 2727   5.574   0.480   5.728 -1.8655  3.0953  2.3588
  740SOL    MW4 2728   5.496   0.458   5.696 -0.2548  0.2544 -0.1491
  741SOL     OW 2729   0.426   6.373   1.493 -0.7556  0.3728 -0.1730
  741SOL    HW2 2730   0.459   6.397   1.407  0.1986 -0.3172 -0.0266
  741SOL    HW3 2731   0.505   6.363   1.547 -1.2784 -0.0722  0.5431
  741SOL    MW4 2732   0.441   6.375   1.489 -0.6986  0.2230 -0.0592
  742SOL     OW 2733   3.693   2.239   2.082 -0.0180  0.0929 -0.0972
  742SOL    HW2 2734   3.721   2.228   1.991  0.2086  0.0580 -0.0248
  742SOL    HW3 2735   3.597   2.239   2.078 -0.0199 -0.5213 -0.2662
  742SOL    MW4 2736   3.684   2.237   2.069  0.0116  0.0072 -0.1100
  743SOL     OW 2737   0.993   1.163   0.157 -0.1380  0.6287 -0.0818
  743SOL    HW2 2738   1.019   1.244   0.200  0.3118 -0.1105  1.0721
  743SOL    HW3 2739   0.915   1.187   0.106  0.0490  1.8009  0.1582
  743SOL    MW4 2740   0.986   1.177   0.156 -0.0540  0.6858  0.1021
  744SOL     OW 2741   6.182   4.657   1.551 -0.1223 -0.1739  0.0422
  744SOL    HW2 2742   6.136   4.693   1.476 -0.5768  0.8888  0.7944
  744SOL    HW3 2743   6.114   4.621   1.607  0.0333  0.5576  0.7215
  744SOL    MW4 2744   6.167   4.657   1.549 -0.1617  0.0628  0.2311
  745SOL     OW 2745   5.678   6.027   0.120 -0.8008  0.1675  0.2525
  745SOL    HW2 2746   5.636   5.961   0.064  0.6095  0.4496 -1.2157
  745SOL    HW3 2747   5.676   5.988   0.207  1.8591 -2.9275 -0.8430
  745SOL    MW4 2748   5.672   6.013   0.124 -0.2638 -0.2036 -0.0858
  746SOL     OW 2749   0.599   0.350   4.820 -0.2009  0.1526  0.5314
  746SOL    HW2 2750   0.659   0.299   4.765 -0.3454  1.6731 -1.1513
  746SOL    HW3 2751   0.626   0.441   4.807 -1.9283  0.7634  0.9024
  746SOL    MW4 2752   0.611   0.356   4.811 -0.4479  0.4338  0.3584
  747SOL     OW 2753   2.563   2.732   2.948 -0.2610 -0.2993  0.0160
  747SOL    HW2 2754   2.535   2.800   2.887 -1.0614 -0.6560 -0.0258
  747SOL    HW3 2755   2.652   2.709   2.920 -0.8070 -0.8214 -1.3441
  747SOL    MW4 2756   2.571   2.738   2.936 -0.4386 -0.4153 -0.1689
  748SOL     OW 2757   3.077   2.675   2.469 -0.0964  0.2943 -0.1770
  748SOL    HW2 2758   3.031   2.676   2.553  1.1940 -0.0167  0.5612
  748SOL    HW3 2759   3.140   2.604   2.478 -0.5640 -0.3469 -1.7708
  748SOL    MW4 2760   3.079   2.666   2.482  0.0121  0.1686 -0.2899
  749SOL     OW 2761   6.099   4.524   5.278  0.0963  0.2841 -0.1012
  749SOL    HW2 2762   6.149   4.605   5.276 -0.2733  0.5054 -1.1597
  749SOL    HW3 2763   6.142   4.467   5.213  0.2618 -0.3124  0.5199
  749SOL    MW4 2764   6.111   4.527   5.269  0.0694  0.2346 -0.1589
  750SOL     OW 2765   1.112   5.631   4.821 -0.0692  0.3044  0.1752
  750SOL    HW2 2766   1.196   5.586   4.815  0.8396  2.0131 -0.6537
  750SOL    HW3 2767   1.134   5.724   4.819 -1.9990  0.8004 -0.5813
  750SOL    MW4 2768   1.126   5.637   4.820 -0.2039  0.5953 -0.0340
  751SOL     OW 2769   1.591   3.513   2.443  0.1216 -0.3856 -0.0285
  751SOL    HW2 2770   1.573   3.593   2.395 -1.0529 -0.2656  0.5779
  751SOL    HW3 2771   1.599   3.541   2.534 -2.9851 -1.2328  0.6068
  751SOL    MW4 2772   1.590   3.527   2.449 -0.4433 -0.4815  0.1353
  752SOL     OW 2773   5.251   2.679   5.880  0.1351  0.1702  0.1035
  752SOL    HW2 2774   5.341   2.650   5.868 -0.3820 -1.6748  0.3986
  752SOL    HW3 2775   5.251   2.724   5.964  1.2684  2.4955 -1.0334
  752SOL    MW4 2776   5.263   2.681   5.889  0.2164  0.2336 -0.0075
  753SOL     OW 2777   0.747   0.922   5.743 -0.0399  0.8689 -0.3907
  753SOL    HW2 2778   0.711   1.011   5.743 -0.3556  0.7724  1.2242
  753SOL    HW3 2779   0.838   0.933   5.773  0.2745  0.7624 -1.2928
  753SOL    MW4 2780   0.754   0.935   5.747 -0.0401  0.8421 -0.2967
  754SOL     OW 2781   1.432   3.944   2.066  0.2532 -0.9077 -0.4332
  754SOL    HW2 2782   1.477   3.890   2.131  3.2101 -2.0712 -3.1646
  754SOL    HW3 2783   1.496   4.010   2.041 -1.0045 -0.0955 -1.6680
  754SOL    MW4 2784   1.446   3.945   2.071  0.4774 -0.9541 -0.9565
  755SOL     OW 2785   0.799   0.709   0.277 -0.3917 -0.1288  0.2611
  755SOL    HW2 2786   0.765   0.706   0.187 -0.6028 -1.4640  0.3621
  755SOL    HW3 2787   0.840   0.795   0.284  0.6300 -0.4138 -1.4892
  755SOL    MW4 2788   0.800   0.720   0.266 -0.2847 -0.3426  0.0435
  756SOL     OW 2789   1.210   2.520   3.184 -0.1068  0.0544  0.1234
  756SOL    HW2 2790   1.287   2.478   3.145 -1.0721 -1.5828 -0.1483
  756SOL    HW3 2791   1.197   2.474   3.267 -0.4563  0.7008  0.4308
  756SOL    MW4 2792   1.218   2.508   3.190 -0.2802 -0.0763  0.1281
  757SOL     OW 2793   5.511   1.114   4.973 -1.1056 -0.0332  0.5434
  757SOL    HW2 2794   5.542   1.156   4.893 -0.2911 -0.7420  0.4608
  757SOL    HW3 2795   5.499   1.185   5.035  2.1986  0.2553  1.0521
  757SOL    MW4 2796   5.514   1.129   4.971 -0.5622 -0.0887  0.5996
  758SOL     OW 2797   0.280   2.913   5.281  0.3914  0.6373 -0.2326
  758SOL    HW2 2798   0.277   2.936   5.374  2.0919  0.6437 -0.1524
  758SOL    HW3 2799   0.224   2.978   5.239  0.0702  0.9959  0.7239
  758SOL    MW4 2800   0.272   2.925   5.287  0.5734  0.6855 -0.0958
  759SOL     OW 2801   2.205   4.954   3.530  0.0506 -0.0411  0.1493
  759SOL    HW2 2802   2.294   4.921   3.530  0.0312 -0.6038  4.0286
  759SOL    HW3 2803   2.150   4.877   3.513  0.2275  0.3103 -2.2607
  759SOL    MW4 2804   2.209   4.940   3.528  0.0714 -0.0690  0.3432
  760SOL     OW 2805  -0.034   3.666   4.651 -0.2133 -0.6187  0.1771
  760SOL    HW2 2806  -0.073   3.692   4.734 -0.6932 -0.6571 -0.0310
  760SOL    HW3 2807   0.056   3.700   4.654 -0.3544 -0.2792  0.5434
  760SOL    MW4 2808  -0.027   3.674   4.662 -0.2952 -0.5790  0.1980
  761SOL     OW 2809   3.474   4.965   5.220 -0.2516 -0.4844 -0.0312
  761SOL    HW2 2810   3.440   4.876   5.218 -1.3451 -0.0795 -0.5599
  761SOL    HW3 2811   3.407   5.015   5.266 -0.2747  0.2907 -0.8658
  761SOL    MW4 2812   3.461   4.960   5.226 -0.3989 -0.3287 -0.2110
  762SOL     OW 2813   2.492   1.722   0.389  0.4314 -0.2596  0.4415
  762SOL    HW2 2814   2.463   1.631   0.392  1.2337 -0.5578 -0.5847
  762SOL    HW3 2815   2.419   1.769   0.348  0.2486 -0.5231  0.4571
  762SOL    MW4 2816   2.478   1.716   0.384  0.5132 -0.3337  0.3081
  763SOL     OW 2817   3.066   1.843   5.802  0.1357  0.3763 -0.2348
  763SOL    HW2 2818   3.156   1.815   5.821  0.3673  2.9100  3.3528
  763SOL    HW3 2819   3.014   1.805   5.874 -1.2685  0.8424 -0.9767
  763SOL    MW4 2820   3.071   1.834   5.814 -0.0190  0.7720  0.1406
  764SOL     OW 2821   0.459   4.265   1.697  1.0761 -0.5486  0.2013
  764SOL    HW2 2822   0.381   4.244   1.749  0.3864  1.9471  0.2817
  764SOL    HW3 2823   0.532   4.229   1.748  0.2073 -0.4812  1.5555
  764SOL    MW4 2824   0.458   4.257   1.711  0.8705 -0.2105  0.3906
  765SOL     OW 2825   5.050   1.745   1.315  0.9191  0.4277  0.3178
  765SOL    HW2 2826   5.109   1.813   1.281  0.2133  0.6469 -0.5113
  765SOL    HW3 2827   5.019   1.700   1.237  1.2540 -0.7639  0.8535
  765SOL    MW4 2828   5.054   1.748   1.300  0.8702  0.2994  0.2791
  766SOL     OW 2829   0.384   1.849   3.431 -0.0265 -0.1834 -0.4522
  766SOL    HW2 2830   0.296   1.823   3.456  0.6763 -1.2399  1.0114
  766SOL    HW3 2831   0.441   1.815   3.500  1.5672  0.2626 -1.4776
  766SOL    MW4 2832   0.380   1.841   3.443  0.2765 -0.2639 -0.3943
  767SOL     OW 2833   5.325   3.991   0.860 -0.5370 -0.2208 -0.8878
  767SOL    HW2 2834   5.368   4.056   0.915  0.2228 -1.6388  0.2811
  767SOL    HW3 2835   5.244   4.033   0.831 -0.3715  1.0059  0.3376
  767SOL    MW4 2836   5.320   4.005   0.864 -0.4149 -0.2461 -0.5719
  768SOL     OW 2837   3.378   1.264   3.466 -0.3599 -0.2466  0.0723
  768SOL    HW2 2838   3.289   1.230   3.451 -0.6479  0.4156  0.2618
  768SOL    HW3 2839   3.394   1.322   3.391 -0.2935  0.0430  0.3093
  768SOL    MW4 2840   3.368   1.267   3.454 -0.3891 -0.1210  0.1286
  769SOL     OW 2841   2.383   2.063   3.281  0.5354 -0.3714 -0.0684
  769SOL    HW2 2842   2.460   2.006   3.281 -0.7133 -2.1673  0.4281
  769SOL    HW3 2843   2.356   2.067   3.373 -0.4364 -0.5093 -0.3288
  769SOL    MW4 2844   2.389   2.056   3.293  0.2424 -0.6266 -0.0372
  770SOL     OW 2845   6.077   2.095   1.038  0.1714  0.0742 -0.5539
  770SOL    HW2 2846   6.031   2.179   1.038  0.7478  0.3921 -0.9336
  770SOL    HW3 2847   6.012   2.032   1.008 -0.3854  0.3108  0.1160
  770SOL    MW4 2848   6.062   2.098   1.034  0.1740  0.1474 -0.5156
  771SOL     OW 2849   5.035   1.729   0.372  0.3476 -0.4138 -0.7711
  771SOL    HW2 2850   5.066   1.819   0.379  3.2322 -1.4078  0.6045
  771SOL    HW3 2851   5.092   1.689   0.307  1.0035 -1.9351  0.6785
  771SOL    MW4 2852   5.046   1.736   0.364  0.8147 -0.7457 -0.3983
  772SOL     OW 2853   0.060   5.713   3.342  0.2545 -0.7412 -0.5197
  772SOL    HW2 2854   0.031   5.731   3.253 -1.1150 -1.4163 -0.2439
  772SOL    HW3 2855   0.057   5.617   3.348  2.7203 -0.8720 -0.4914
  772SOL    MW4 2856   0.056   5.703   3.331  0.3992 -0.8476 -0.4796
  773SOL     OW 2857   4.516   5.698   0.064  0.1513 -0.2628 -0.4197
  773SOL    HW2 2858   4.516   5.741   0.150 -1.9366 -0.3719 -0.3037
  773SOL    HW3 2859   4.594   5.731   0.021  0.6375  0.6856  1.1021
  773SOL    MW4 2860   4.526   5.708   0.070 -0.0600 -0.1521 -0.2036
  774SOL     OW 2861   2.103   5.793   5.312 -0.4711 -0.3646 -0.4198
  774SOL    HW2 2862   2.163   5.844   5.258  1.9130 -0.5480  1.8676
  774SOL    HW3 2863   2.101   5.839   5.396 -2.6697 -1.0413 -0.0248
  774SOL    MW4 2864   2.111   5.805   5.316 -0.4466 -0.4781 -0.0659
  775SOL     OW 2865   3.069   6.064   5.232 -0.0225 -0.5608 -0.2916
  775SOL    HW2 2866   3.094   6.146   5.275  0.4162  0.0318 -1.6286
  775SOL    HW3 2867   3.002   6.026   5.290 -0.7197  1.0660  0.0240
  775SOL    MW4 2868   3.063   6.070   5.245 -0.0566 -0.2680 -0.4264
  776SOL     OW 2869   1.720   4.526   2.707  0.8602  0.0532 -0.4817
  776SOL    HW2 2870   1.658   4.569   2.766 -0.2551  1.6643 -2.6370
  776SOL    HW3 2871   1.786   4.487   2.764 -1.7351 -1.1344  1.9037
  776SOL    MW4 2872   1.720   4.527   2.722  0.3706  0.1091 -0.4514
  777SOL     OW 2873   0.781   2.703   5.990  0.1794  0.0787  0.1378
  777SOL    HW2 2874   0.768   2.780   6.045  0.2638 -0.9669  1.6996
  777SOL    HW3 2875   0.726   2.718   5.914 -1.3221  0.8178  1.3198
  777SOL    MW4 2876   0.772   2.715   5.987 -0.0076  0.0383  0.4998
  778SOL     OW 2877   5.778   4.996   2.358  0.2343  0.6152 -0.4038
  778SOL    HW2 2878   5.709   4.991   2.424 -0.4683 -1.6552 -1.2059
  778SOL    HW3 2879   5.860   4.987   2.407 -0.0208  2.7053  0.4871
  778SOL    MW4 2880   5.780   4.994   2.373  0.1079  0.5914 -0.3921
  779SOL     OW 2881   1.196   5.640   6.327 -0.4730 -0.1572  0.0268
  779SOL    HW2 2882   1.168   5.644   6.418 -1.9155  0.5594 -0.4174
  779SOL    HW3 2883   1.221   5.549   6.313  1.0004 -0.0083  1.4585
  779SOL    MW4 2884   1.196   5.629   6.337 -0.4689 -0.0430  0.1571
  780SOL     OW 2885   1.377   6.341   5.245  0.1257  0.1724  0.2472
  780SOL    HW2 2886   1.339   6.371   5.328 -0.0048  1.1442 -0.1488
  780SOL    HW3 2887   1.303   6.303   5.198 -0.0768  0.7616  0.0719
  780SOL    MW4 2888   1.362   6.340   5.250  0.0817  0.3784  0.1718
  781SOL     OW 2889   6.158   3.542   5.206  0.3958 -0.8120 -1.0466
  781SOL    HW2 2890   6.229   3.603   5.227 -0.3857 -0.4144  0.5679
  781SOL    HW3 2891   6.137   3.499   5.289 -2.4524  0.4120 -1.0160
  781SOL    MW4 2892   6.165   3.544   5.220 -0.0831 -0.5981 -0.8295
  782SOL     OW 2893   4.057   0.416   6.363  0.3311 -0.2122 -0.0559
  782SOL    HW2 2894   4.138   0.433   6.315  0.6874 -0.7393  0.3441
  782SOL    HW3 2895   4.004   0.495   6.350  1.0022  0.2292 -0.1294
  782SOL    MW4 2896   4.061   0.428   6.355  0.4667 -0.2235 -0.0128
  783SOL     OW 2897   3.519   5.460   3.836 -0.1465 -0.3351 -0.6740
  783SOL    HW2 2898   3.556   5.547   3.824 -0.0867 -0.4671 -1.5201
  783SOL    HW3 2899   3.431   5.475   3.871 -0.1419  0.0691 -0.8306
  783SOL    MW4 2900   3.512   5.473   3.839 -0.1380 -0.2992 -0.8063
  784SOL     OW 2901   5.059   3.625   6.300 -0.4659  0.0026 -0.6308
  784SOL    HW2 2902   4.967   3.644   6.317 -0.6645 -1.6143  0.3783
  784SOL    HW3 2903   5.068   3.634   6.205 -1.6921  0.1088 -0.7599
  784SOL    MW4 2904   5.048   3.629   6.289 -0.6539 -0.1967 -0.5147
  785SOL     OW 2905   1.370   0.299   4.072 -0.2723  0.3087 -0.0062
  785SOL    HW2 2906   1.345   0.314   4.164  0.0752  1.6340 -0.0985
  785SOL    HW3 2907   1.396   0.386   4.041 -0.3452 -0.1388 -1.3535
  785SOL    MW4 2908   1.370   0.313   4.080 -0.2361  0.4245 -0.1962
  786SOL     OW 2909   3.049   6.105   5.757  0.0814 -0.0871 -0.1073
  786SOL    HW2 2910   3.127   6.119   5.702 -0.0540 -1.3394 -0.6319
  786SOL    HW3 2911   2.985   6.168   5.724  0.3047 -0.2150 -0.7882
  786SOL    MW4 2912   3.051   6.115   5.746  0.0930 -0.2692 -0.2663
  787SOL     OW 2913   5.615   2.230   3.086  0.1612 -0.1700 -0.0702
  787SOL    HW2 2914   5.638   2.209   3.177  0.6668  4.0781  1.0099
  787SOL    HW3 2915   5.611   2.145   3.042  0.7540 -2.3814  3.6825
  787SOL    MW4 2916   5.618   2.216   3.093  0.3061  0.0987  0.5674
  788SOL     OW 2917   6.152   3.512   4.340 -0.6165 -0.0671 -0.3734
  788SOL    HW2 2918   6.135   3.476   4.253 -2.1915 -1.5946  0.5022
  788SOL    HW3 2919   6.122   3.444   4.400  0.7671  0.8061  1.3832
  788SOL    MW4 2920   6.146   3.498   4.336 -0.6418 -0.1534 -0.0261
  789SOL     OW 2921   6.314   0.634   0.698  0.7760  0.4548 -0.5003
  789SOL    HW2 2922   6.287   0.708   0.643  0.8459  1.0993  0.3155
  789SOL    HW3 2923   6.254   0.563   0.673  1.4660  0.4069 -2.1286
  789SOL    MW4 2924   6.302   0.634   0.688  0.8763  0.5335 -0.6075
  790SOL     OW 2925   5.185   3.977   5.717  0.1480 -0.1750 -0.1535
  790SOL    HW2 2926   5.205   4.060   5.674  0.3985 -0.1512  0.0110
  790SOL    HW3 2927   5.176   3.999   5.809 -1.6384  0.0041 -0.3222
  790SOL    MW4 2928   5.186   3.991   5.723 -0.0547 -0.1483 -0.1541
  791SOL     OW 2929   0.405   4.508   4.949 -0.3116 -0.4630 -0.6617
  791SOL    HW2 2930   0.380   4.596   4.921  1.3886 -0.3169 -1.8915
  791SOL    HW3 2931   0.419   4.460   4.867 -1.5008 -1.9974 -0.0155
  791SOL    MW4 2932   0.404   4.513   4.934 -0.2442 -0.6461 -0.7387
  792SOL     OW 2933   5.437   0.836   3.174 -0.0169  0.0218 -0.2315
  792SOL    HW2 2934   5.459   0.781   3.250 -0.0349  1.0215  0.5141
  792SOL    HW3 2935   5.436   0.925   3.209  0.2964  0.5303 -1.4873
  792SOL    MW4 2936   5.440   0.840   3.189  0.0221  0.2208 -0.2988
  793SOL     OW 2937   3.068   4.001   2.172 -0.9480  0.7279 -0.6990
  793SOL    HW2 2938   2.996   3.975   2.230 -2.1601  0.6633 -2.1880
  793SOL    HW3 2939   3.138   4.028   2.232 -0.7127 -2.9403  0.9395
  793SOL    MW4 2940   3.067   4.001   2.188 -1.0769  0.2354 -0.6792
  794SOL     OW 2941   1.855   4.706   3.199  0.0394 -0.0676 -0.2945
  794SOL    HW2 2942   1.883   4.791   3.167  1.2761 -1.2412 -2.6187
  794SOL    HW3 2943   1.923   4.679   3.261  2.6608 -1.4658 -3.4362
  794SOL    MW4 2944   1.868   4.713   3.203  0.5484 -0.4069 -1.0156
  795SOL     OW 2945   1.840   1.227   4.775  0.1309 -0.9036  0.0613
  795SOL    HW2 2946   1.888   1.291   4.722 -1.2992  1.0467  0.9983
  795SOL    HW3 2947   1.749   1.253   4.767 -0.5389 -2.9732  0.3699
  795SOL    MW4 2948   1.835   1.239   4.767 -0.1462 -0.9193  0.2256
  796SOL     OW 2949   4.697   2.464   4.905 -0.0378  0.3009 -0.1605
  796SOL    HW2 2950   4.790   2.487   4.911 -0.2440  0.9250  0.7637
  796SOL    HW3 2951   4.697   2.368   4.897  0.6654  0.2546  0.3224
  796SOL    MW4 2952   4.710   2.454   4.905  0.0278  0.3771  0.0252
  797SOL     OW 2953   1.167   0.292   2.946  0.0470 -0.4870 -0.0456
  797SOL    HW2 2954   1.152   0.204   2.914 -0.7577 -0.0508 -0.9251
  797SOL    HW3 2955   1.216   0.335   2.876 -0.1627 -0.0438  0.0743
  797SOL    MW4 2956   1.171   0.286   2.933 -0.0868 -0.3710 -0.1458
  798SOL     OW 2957   5.627   0.769   2.377  0.6911  0.2812  0.1165
  798SOL    HW2 2958   5.707   0.753   2.327  0.9653  0.0216  0.6294
  798SOL    HW3 2959   5.583   0.685   2.380 -0.1773  0.6656 -1.1279
  798SOL    MW4 2960   5.632   0.756   2.371  0.6127  0.2976  0.0200
  799SOL     OW 2961   3.660   0.664   4.966 -0.4098 -0.0022  0.4575
  799SOL    HW2 2962   3.620   0.751   4.958 -1.7774 -0.6485 -0.0904
  799SOL    HW3 2963   3.753   0.680   4.951 -0.7075  1.2990 -0.2351
  799SOL    MW4 2964   3.667   0.678   4.963 -0.6295  0.0842  0.2938
  800SOL     OW 2965   1.642   0.872   3.828  0.1005 -0.3804  0.2390
  800SOL    HW2 2966   1.635   0.808   3.899 -0.1887  0.4265  0.9531
  800SOL    HW3 2967   1.681   0.949   3.870  0.9868 -0.2811 -0.7408
  800SOL    MW4 2968   1.646   0.873   3.843  0.1793 -0.2608  0.2039
  801SOL     OW 2969   4.444   1.126   3.466 -0.4585 -0.3563  0.4445
  801SOL    HW2 2970   4.457   1.043   3.421  2.5083 -0.6707  1.6762
  801SOL    HW3 2971   4.381   1.107   3.535  1.3562 -2.0577  1.7197
  801SOL    MW4 2972   4.437   1.113   3.469  0.1723 -0.6222  0.7753
  802SOL     OW 2973   0.206   0.325   1.713 -0.1830 -0.2501 -0.0846
  802SOL    HW2 2974   0.211   0.240   1.670 -0.1289 -0.2504 -0.0777
  802SOL    HW3 2975   0.179   0.385   1.644  0.9276 -0.0631 -0.3734
  802SOL    MW4 2976   0.203   0.322   1.698 -0.0294 -0.2255 -0.1218
  803SOL     OW 2977   1.172   3.057   4.514 -0.3512 -0.1013 -0.6109
  803SOL    HW2 2978   1.229   3.069   4.438 -0.0926  1.6997 -0.1842
  803SOL    HW3 2979   1.086   3.085   4.483 -0.4005 -0.0961 -0.4674
  803SOL    MW4 2980   1.168   3.062   4.500 -0.3236  0.1370 -0.5357
  804SOL     OW 2981   0.173   1.277   0.696 -0.3793  0.4156 -0.0419
  804SOL    HW2 2982   0.140   1.198   0.740 -0.0953  0.9835  1.2343
  804SOL    HW3 2983   0.268   1.268   0.698 -0.3724 -0.0517 -1.5248
  804SOL    MW4 2984   0.181   1.265   0.702 -0.3409  0.4289 -0.0691
  805SOL     OW 2985   2.581   0.926   3.470  0.2980 -0.3044 -0.2638
  805SOL    HW2 2986   2.521   0.905   3.399 -0.4404 -0.1017  0.2958
  805SOL    HW3 2987   2.538   0.895   3.549  1.3168 -0.9354  0.0603
  805SOL    MW4 2988   2.568   0.919   3.471  0.3350 -0.3609 -0.1472
  806SOL     OW 2989   5.847   6.412   5.961 -0.5533  0.1762 -0.0445
  806SOL    HW2 2990   5.913   6.476   5.934 -0.9387  1.7517  2.4672
  806SOL    HW3 2991   5.878   6.380   6.046 -1.8685 -0.7848  0.1057
  806SOL    MW4 2992   5.860   6.416   5.968 -0.7777  0.2572  0.3067
  807SOL     OW 2993   4.633   2.006   3.285 -0.3161 -0.5162  0.0386
  807SOL    HW2 2994   4.671   2.074   3.341 -1.1186  0.0313 -0.0635
  807SOL    HW3 2995   4.610   1.936   3.346  0.2659 -0.5898  0.1804
  807SOL    MW4 2996   4.635   2.006   3.301 -0.3452 -0.4537  0.0438
  808SOL     OW 2997   3.511   5.022   4.935 -0.0258 -0.1098 -0.2115
  808SOL    HW2 2998   3.516   5.019   5.030 -2.2316 -2.3225 -0.0696
  808SOL    HW3 2999   3.432   5.072   4.916 -0.3518 -0.8396 -0.8300
  808SOL    MW4 3000   3.502   5.029   4.945 -0.3598 -0.4980 -0.2744
  809SOL     OW 3001   4.564   5.253   1.143  0.6957 -0.2890  0.5592
  809SOL    HW2 3002   4.647   5.277   1.184  0.7565  1.4893 -0.5406
  809SOL    HW3 3003   4.564   5.157   1.145  2.8985 -0.3480  0.3721
  809SOL    MW4 3004   4.575   5.243   1.149  0.9944 -0.0621  0.3894
  810SOL     OW 3005   6.382   3.108   0.873 -0.5669  0.0909  0.1816
  810SOL    HW2 3006   6.379   3.045   0.946  1.8045 -0.3052  0.0231
  810SOL    HW3 3007   6.410   3.055   0.798 -0.4987  0.9846 -0.4312
  810SOL    MW4 3008   6.385   3.092   0.872 -0.2450  0.1566  0.0799
  811SOL     OW 3009   5.749   0.392   0.865 -0.4706 -0.1626 -0.6320
  811SOL    HW2 3010   5.714   0.451   0.799 -2.7938 -0.1641  0.4870
  811SOL    HW3 3011   5.720   0.429   0.948  4.3034  1.1417  0.7409
  811SOL    MW4 3012   5.741   0.404   0.867 -0.1473  0.0093 -0.3032
  812SOL     OW 3013  -0.012   0.911   3.759  0.1531 -0.0232 -0.3834
  812SOL    HW2 3014  -0.088   0.869   3.718 -0.4965  1.4428 -0.7405
  812SOL    HW3 3015  -0.045   0.942   3.844  0.6426 -0.2570 -0.0996
  812SOL    MW4 3016  -0.027   0.909   3.765  0.1320  0.1394 -0.3931
  813SOL     OW 3017   0.430   3.394   3.381  0.4165 -0.5269 -0.2774
  813SOL    HW2 3018   0.511   3.445   3.379  0.8255 -1.1875 -1.3413
  813SOL    HW3 3019   0.458   3.304   3.397  0.2728 -1.3239 -3.6476
  813SOL    MW4 3020   0.444   3.389   3.383  0.4515 -0.7192 -0.8624
  814SOL     OW 3021   2.417   2.794   6.320  0.3395 -0.0373 -0.3334
  814SOL    HW2 3022   2.395   2.838   6.238 -1.7195  2.1067  1.2233
  814SOL    HW3 3023   2.417   2.863   6.385  1.9911 -1.6536  1.5377
  814SOL    MW4 3024   2.414   2.809   6.317  0.2857  0.0323  0.1188
  815SOL     OW 3025   5.738   5.414   1.476  0.0745 -0.1638  0.2000
  815SOL    HW2 3026   5.651   5.386   1.506  0.7285 -2.9300 -0.2378
  815SOL    HW3 3027   5.792   5.411   1.555 -0.5768  3.9864  1.0614
  815SOL    MW4 3028   5.733   5.410   1.491  0.0748  0.0188  0.2559
  816SOL     OW 3029   1.255   4.574   2.673 -0.5653  0.5626  0.3618
  816SOL    HW2 3030   1.326   4.612   2.621 -0.1489  1.8395  1.7755
  816SOL    HW3 3031   1.203   4.649   2.702 -0.3802  0.0087  2.3140
  816SOL    MW4 3032   1.258   4.589   2.670 -0.4859  0.6580  0.8059
  817SOL     OW 3033   0.776   4.325   5.486  0.5081 -0.0218 -0.5797
  817SOL    HW2 3034   0.842   4.383   5.448  1.4856 -1.6816 -1.5030
  817SOL    HW3 3035   0.721   4.299   5.412  0.3086 -0.5786 -0.2420
  817SOL    MW4 3036   0.777   4.330   5.471  0.6107 -0.3142 -0.6569
  818SOL     OW 3037   4.281   0.286   0.276  0.0520 -0.2626 -0.1020
  818SOL    HW2 3038   4.248   0.225   0.209 -0.2630 -0.5441  0.3006
  818SOL    HW3 3039   4.289   0.369   0.230  0.5703 -0.6242 -0.6897
  818SOL    MW4 3040   4.278   0.289   0.261  0.0788 -0.3475 -0.1265
  819SOL     OW 3041   3.797   4.059   5.669 -0.2530  0.1164 -0.4559
  819SOL    HW2 3042   3.788   3.984   5.728 -1.5905  1.3685  1.0229
  819SOL    HW3 3043   3.857   4.029   5.601 -0.5141 -2.1762  0.2490
  819SOL    MW4 3044   3.804   4.045   5.668 -0.4639 -0.0209 -0.1678
  820SOL     OW 3045   5.951   4.818   0.842 -0.5034  0.1615  0.5564
  820SOL    HW2 3046   5.952   4.855   0.930 -1.2945  0.1795  0.5679
  820SOL    HW3 3047   6.036   4.840   0.805  0.4895 -1.2554  1.8798
  820SOL    MW4 3048   5.962   4.826   0.849 -0.4767 -0.0230  0.7325
  821SOL     OW 3049   1.486   4.192   0.961  0.0712  0.2142  0.2994
  821SOL    HW2 3050   1.575   4.215   0.935 -0.4049  0.9778 -0.7046
  821SOL    HW3 3051   1.490   4.098   0.978  0.6009 -0.2305 -1.9103
  821SOL    MW4 3052   1.499   4.182   0.960  0.0783  0.2562 -0.1246
  822SOL     OW 3053   4.645   0.382   5.571  0.1836 -0.3433  0.0633
  822SOL    HW2 3054   4.696   0.395   5.491 -1.0790 -0.3616 -0.7707
  822SOL    HW3 3055   4.609   0.294   5.562  0.7236 -0.6897  1.0806
  822SOL    MW4 3056   4.647   0.372   5.560  0.0883 -0.3914  0.0875
  823SOL     OW 3057   4.714   2.611   2.358  0.4066  0.2650 -0.0578
  823SOL    HW2 3058   4.754   2.562   2.286  0.7307  1.7878 -0.9467
  823SOL    HW3 3059   4.754   2.698   2.354  1.0443  0.1832  2.4738
  823SOL    MW4 3060   4.725   2.616   2.348  0.5335  0.4551  0.1589
  824SOL     OW 3061   2.917   4.934   1.540  0.5675 -0.6831 -0.1433
  824SOL    HW2 3062   3.008   4.903   1.535 -0.0570 -2.8586  0.6170
  824SOL    HW3 3063   2.865   4.860   1.509 -1.0711 -0.5076  1.9605
  824SOL    MW4 3064   2.922   4.920   1.535  0.2689 -0.9470  0.2346
  825SOL     OW 3065   1.996   0.914   2.569 -0.1287 -0.3203  0.4353
  825SOL    HW2 3066   2.089   0.890   2.569  0.4132  1.6607  1.0252
  825SOL    HW3 3067   1.994   1.002   2.531 -1.9950 -1.0479 -1.3085
  825SOL    MW4 3068   2.008   0.922   2.564 -0.3035 -0.1549  0.2831
  826SOL     OW 3069  -0.022   3.572   2.839  0.0233  0.3807  0.1048
  826SOL    HW2 3070   0.004   3.624   2.915 -2.4788 -0.1405  1.4553
  826SOL    HW3 3071  -0.083   3.629   2.792 -0.5549 -0.2959  0.0309
  826SOL    MW4 3072  -0.027   3.587   2.843 -0.3831  0.2227  0.2732
  827SOL     OW 3073   3.860   1.206   0.769  0.1849 -0.0550  0.0994
  827SOL    HW2 3074   3.832   1.297   0.774 -0.1040 -0.1719  0.7302
  827SOL    HW3 3075   3.886   1.193   0.677  1.6593  1.0755  0.3268
  827SOL    MW4 3076   3.860   1.216   0.757  0.3413  0.0787  0.2126
  828SOL     OW 3077   5.920   0.929   1.030  0.1055 -0.4973 -0.1270
  828SOL    HW2 3078   6.002   0.976   1.011 -0.3042  1.0069  1.5475
  828SOL    HW3 3079   5.946   0.859   1.089  0.2750 -0.4913 -0.1915
  828SOL    MW4 3080   5.934   0.926   1.035  0.0738 -0.2981  0.0854
  829SOL     OW 3081   0.305   2.177   0.311  0.2309  0.2080  0.3886
  829SOL    HW2 3082   0.260   2.116   0.370  1.6307 -1.1898  0.0794
  829SOL    HW3 3083   0.236   2.235   0.280 -1.0020 -0.6522  1.3997
  829SOL    MW4 3084   0.290   2.176   0.315  0.2529 -0.0899  0.4812
  830SOL     OW 3085   4.975   1.637   2.683 -0.1426  0.2551 -0.6305
  830SOL    HW2 3086   4.984   1.675   2.595  1.8094 -2.0407 -1.5396
  830SOL    HW3 3087   4.895   1.585   2.679 -1.0386  1.5714 -0.4240
  830SOL    MW4 3088   4.966   1.635   2.671 -0.0033  0.1258 -0.7232
  831SOL     OW 3089   0.730   5.182   3.304  0.5136  0.1819 -0.0969
  831SOL    HW2 3090   0.694   5.154   3.388 -0.4520  0.4998 -0.3987
  831SOL    HW3 3091   0.809   5.129   3.294 -0.1327 -0.9080  0.3468
  831SOL    MW4 3092   0.736   5.171   3.314  0.3009  0.0800 -0.0781
  832SOL     OW 3093   1.961   5.629   3.546  0.0808 -0.7107 -0.6614
  832SOL    HW2 3094   1.968   5.622   3.641  0.7249  1.9551 -0.4337
  832SOL    HW3 3095   1.873   5.597   3.526  0.3547 -2.4445  0.6283
  832SOL    MW4 3096   1.951   5.623   3.556  0.2019 -0.5878 -0.4612
  833SOL     OW 3097   0.107   0.025   5.208 -0.4570  0.2215 -0.1539
  833SOL    HW2 3098   0.134   0.057   5.121  1.4397 -0.5641  0.0899
  833SOL    HW3 3099   0.182  -0.026   5.239 -1.0972  0.4649  1.9540
  833SOL    MW4 3100   0.121   0.023   5.201 -0.2912  0.1500  0.1564
  834SOL     OW 3101   3.669   6.401   5.652 -0.4985  0.5630  0.4533
  834SOL    HW2 3102   3.753   6.370   5.687 -0.4726 -0.4689 -0.4487
  834SOL    HW3 3103   3.683   6.408   5.557 -1.6780 -0.5760  0.1565
  834SOL    MW4 3104   3.682   6.398   5.644 -0.6507  0.2766  0.2951
  835SOL     OW 3105   5.373   2.120   1.014  0.4958  0.2234 -0.0978
  835SOL    HW2 3106   5.411   2.203   1.040  0.2874  0.1033  0.6211
  835SOL    HW3 3107   5.295   2.144   0.963 -0.7147  0.4982  1.8101
  835SOL    MW4 3108   5.368   2.134   1.010  0.3086  0.2438  0.2488
  836SOL     OW 3109   6.138   5.227   0.519  0.1231 -0.5597 -0.2960
  836SOL    HW2 3110   6.124   5.284   0.595  1.3824  1.2535 -1.3599
  836SOL    HW3 3111   6.071   5.255   0.456  0.0234 -1.0569 -0.4164
  836SOL    MW4 3112   6.127   5.239   0.520  0.2761 -0.3861 -0.4523
  837SOL     OW 3113   2.337   4.358   4.964 -0.3648  0.2694 -0.0526
  837SOL    HW2 3114   2.282   4.295   4.917  0.8603 -1.9392  1.2751
  837SOL    HW3 3115   2.285   4.383   5.040 -0.0210 -0.9376  0.6050
  837SOL    MW4 3116   2.323   4.353   4.967 -0.1578 -0.1812  0.2094
  838SOL     OW 3117   3.466   4.221   0.387 -0.4343 -0.1881  0.5977
  838SOL    HW2 3118   3.472   4.130   0.415  1.0773 -0.3557 -0.1615
  838SOL    HW3 3119   3.426   4.267   0.460  1.4285 -0.9819  2.1958
  838SOL    MW4 3120   3.462   4.215   0.400  0.0109 -0.3149  0.7084
  839SOL     OW 3121   3.081   6.323   6.153  0.1553  0.6262  0.3769
  839SOL    HW2 3122   3.071   6.415   6.132 -0.6802  0.5736  0.5220
  839SOL    HW3 3123   3.135   6.287   6.082  1.3112  1.4092  0.8254
  839SOL    MW4 3124   3.087   6.330   6.141  0.1976  0.7226  0.4552
  840SOL     OW 3125   0.423   3.083   1.488  0.3221 -0.0620 -0.0132
  840SOL    HW2 3126   0.498   3.086   1.429 -0.0808 -0.1430 -0.5389
  840SOL    HW3 3127   0.415   2.991   1.512  0.1333 -0.1236 -0.3020
  840SOL    MW4 3128   0.432   3.072   1.483  0.2440 -0.0808 -0.1206
  841SOL     OW 3129   4.427   3.341   0.069 -0.1443  0.0336 -0.6107
  841SOL    HW2 3130   4.412   3.289  -0.009 -0.0005 -1.2601  0.1904
  841SOL    HW3 3131   4.521   3.354   0.073 -0.1563  0.1429 -0.6784
  841SOL    MW4 3132   4.437   3.336   0.059 -0.1269 -0.1226 -0.5139
  842SOL     OW 3133   4.719   5.433   5.404  0.3009  0.4613  0.2522
  842SOL    HW2 3134   4.689   5.345   5.383  2.3970 -0.1886 -0.2011
  842SOL    HW3 3135   4.692   5.446   5.496  0.7398 -1.0013  0.6077
  842SOL    MW4 3136   4.711   5.423   5.414  0.6353  0.1826  0.2393
  843SOL     OW 3137   6.120   4.279   5.906  0.4860  0.5121  0.0420
  843SOL    HW2 3138   6.083   4.254   5.821  1.2863 -0.3526 -0.0633
  843SOL    HW3 3139   6.076   4.222   5.969  0.1169  0.9455  0.1918
  843SOL    MW4 3140   6.109   4.268   5.903  0.5429  0.4552  0.0479
  844SOL     OW 3141   0.547   1.201   5.450 -0.1007 -0.1701 -0.3095
  844SOL    HW2 3142   0.493   1.123   5.457 -1.1628  0.6448  1.0961
  844SOL    HW3 3143   0.621   1.175   5.395 -1.1208 -1.7541 -0.9848
  844SOL    MW4 3144   0.549   1.187   5.443 -0.3754 -0.2716 -0.2131
  845SOL     OW 3145   4.388   6.128   4.735 -0.4658  0.9224 -0.2253
  845SOL    HW2 3146   4.323   6.190   4.768 -1.0204  0.8546 -1.1382
  845SOL    HW3 3147   4.472   6.166   4.758 -0.8160  0.7161  1.5298
  845SOL    MW4 3148   4.390   6.141   4.742 -0.5852  0.8863 -0.1142
  846SOL     OW 3149   3.663   5.690   0.198  0.0046 -0.3547 -0.6155
  846SOL    HW2 3150   3.629   5.609   0.236 -1.4461  0.0982 -0.8723
  846SOL    HW3 3151   3.748   5.703   0.240 -0.1296 -1.5575  0.0630
  846SOL    MW4 3152   3.670   5.681   0.209 -0.2045 -0.4536 -0.5599
  847SOL     OW 3153   2.241   5.158   4.192  0.3027  0.3358  0.5748
  847SOL    HW2 3154   2.287   5.223   4.139  1.7026  0.1563  1.5071
  847SOL    HW3 3155   2.236   5.081   4.136 -0.4429  0.9149 -0.1676
  847SOL    MW4 3156   2.247   5.157   4.178  0.3891  0.3885  0.5998
  848SOL     OW 3157   0.926   1.940   1.631  0.0808  0.5197  0.3619
  848SOL    HW2 3158   1.014   1.911   1.658 -0.1760  1.4259  2.3353
  848SOL    HW3 3159   0.913   2.022   1.678 -1.0865  1.4026 -1.4231
  848SOL    MW4 3160   0.936   1.947   1.641 -0.1071  0.7557  0.3867
  849SOL     OW 3161   6.139   3.402   4.077 -0.2411  0.4095 -0.1102
  849SOL    HW2 3162   6.057   3.406   4.027 -1.0780  0.1436  1.1863
  849SOL    HW3 3163   6.160   3.308   4.081 -0.7040  0.3418  0.8447
  849SOL    MW4 3164   6.131   3.390   4.071 -0.4126  0.3655  0.1869
  850SOL     OW 3165   2.573   1.627   6.020 -0.5592  0.2003  0.9559
  850SOL    HW2 3166   2.570   1.719   5.994  0.1410 -0.0744 -0.1917
  850SOL    HW3 3167   2.606   1.581   5.942 -1.5655 -1.1174  1.2639
  850SOL    MW4 3168   2.577   1.633   6.006 -0.5996 -0.0098  0.8451
  851SOL     OW 3169   0.785   4.603   2.698  0.0861  0.2586 -0.0618
  851SOL    HW2 3170   0.842   4.626   2.625 -0.3056 -0.0830 -0.4817
  851SOL    HW3 3171   0.700   4.640   2.675  0.5736  2.6309  1.5421
  851SOL    MW4 3172   0.782   4.611   2.686  0.0987  0.5265  0.0944
  852SOL     OW 3173   6.302   5.463   2.857  0.2012  0.0581  0.4975
  852SOL    HW2 3174   6.350   5.536   2.818 -0.8473  0.3464 -0.2720
  852SOL    HW3 3175   6.365   5.391   2.858  0.4435  0.2243 -1.1734
  852SOL    MW4 3176   6.317   5.463   2.852  0.0948  0.1181  0.1755
  853SOL     OW 3177   4.631   3.654   1.094 -0.2300 -0.6354 -0.2014
  853SOL    HW2 3178   4.679   3.731   1.065  1.7171 -1.3257  0.9736
  853SOL    HW3 3179   4.656   3.585   1.032 -0.1014 -0.8747  0.1106
  853SOL    MW4 3180   4.641   3.655   1.082  0.0438 -0.7581 -0.0052
  854SOL     OW 3181   4.839   5.553   5.089  0.1648 -0.2264 -0.3003
  854SOL    HW2 3182   4.755   5.522   5.054  0.7139 -1.5597 -0.5040
  854SOL    HW3 3183   4.818   5.588   5.175 -0.5720 -0.7599 -0.2553
  854SOL    MW4 3184   4.825   5.553   5.096  0.1401 -0.4727 -0.3212
  855SOL     OW 3185   4.799   5.879   1.891 -0.2052 -0.2376  0.2103
  855SOL    HW2 3186   4.891   5.874   1.917 -0.5818 -0.2178  1.5958
  855SOL    HW3 3187   4.759   5.800   1.929 -1.0781  0.5590  0.9811
  855SOL    MW4 3188   4.806   5.868   1.899 -0.3701 -0.1299  0.4948
  856SOL     OW 3189   0.866   5.353   4.592 -0.0307 -0.2126  0.1871
  856SOL    HW2 3190   0.778   5.329   4.564 -0.0103  0.3821 -0.3890
  856SOL    HW3 3191   0.900   5.408   4.521  1.1070 -1.1108  0.0038
  856SOL    MW4 3192   0.859   5.357   4.579  0.1221 -0.2526  0.0869
  857SOL     OW 3193   2.723   5.248   2.203  0.0657 -0.5152  0.4691
  857SOL    HW2 3194   2.747   5.231   2.112  0.5513 -3.1150  1.0021
  857SOL    HW3 3195   2.666   5.325   2.199  0.5901 -0.1666 -1.9260
  857SOL    MW4 3196   2.719   5.256   2.190  0.1990 -0.8122  0.2235
  858SOL     OW 3197   3.117   1.093   6.220  0.0280 -0.0949 -0.5066
  858SOL    HW2 3198   3.089   1.136   6.301 -0.8490  2.4963 -2.0579
  858SOL    HW3 3199   3.066   1.012   6.217 -1.5087  0.7879  0.5032
  858SOL    MW4 3200   3.107   1.088   6.230 -0.2904  0.3635 -0.5780
  859SOL     OW 3201   3.166   2.771   0.615 -0.1345 -0.8679 -0.0996
  859SOL    HW2 3202   3.204   2.747   0.530 -0.0639 -0.6392 -0.1336
  859SOL    HW3 3203   3.240   2.802   0.667 -0.1472 -1.1856  0.1122
  859SOL    MW4 3204   3.181   2.772   0.611 -0.1269 -0.8796 -0.0762
  860SOL     OW 3205   3.748   0.474   4.555  0.5320  0.2009 -0.0247
  860SOL    HW2 3206   3.721   0.385   4.530 -1.3819  1.0333 -1.2011
  860SOL    HW3 3207   3.823   0.492   4.498  0.7745 -0.5632  0.0321
  860SOL    MW4 3208   3.754   0.464   4.544  0.3115  0.2099 -0.1724
  861SOL     OW 3209   2.007   4.153   6.177  0.4901 -0.5178 -0.5553
  861SOL    HW2 3210   1.995   4.064   6.210  0.1131  0.2725  1.6672
  861SOL    HW3 3211   1.980   4.209   6.251  3.1072  1.4384 -0.9480
  861SOL    MW4 3212   2.002   4.149   6.191  0.7856 -0.1554 -0.3139
  862SOL     OW 3213   0.193   1.119   0.440  0.1147  0.1064  0.2212
  862SOL    HW2 3214   0.279   1.134   0.401 -0.0515  0.4456 -0.0215
  862SOL    HW3 3215   0.188   1.180   0.513  0.5425 -0.7322  0.9750
  862SOL    MW4 3216   0.203   1.129   0.445  0.1492  0.0405  0.2886
  863SOL     OW 3217   0.078   5.888   4.659  0.5049  1.0392  0.6308
  863SOL    HW2 3218   0.149   5.952   4.662  0.8407  0.6560  1.0453
  863SOL    HW3 3219  -0.002   5.940   4.656  0.8293  1.4862 -0.8120
  863SOL    MW4 3220   0.077   5.903   4.659  0.5920  1.0476  0.4952
  864SOL     OW 3221   1.023   2.792   6.387  0.4688  0.2899  0.0444
  864SOL    HW2 3222   0.978   2.735   6.325  0.9162  0.1037 -0.1090
  864SOL    HW3 3223   1.067   2.857   6.332  3.0362 -1.3884 -0.0329
  864SOL    MW4 3224   1.023   2.793   6.372  0.8666  0.0439  0.0140
  865SOL     OW 3225   2.658   0.555   4.700  0.0989  0.0099 -0.4725
  865SOL    HW2 3226   2.650   0.647   4.723 -1.4840 -0.5817  1.6680
  865SOL    HW3 3227   2.728   0.522   4.757  0.3584 -0.2069 -0.9120
  865SOL    MW4 3228   2.666   0.562   4.711 -0.0757 -0.0968 -0.2481
  866SOL     OW 3229   6.289   2.021   4.331 -0.2786  0.3566 -0.2553
  866SOL    HW2 3230   6.312   2.047   4.242 -1.3894 -0.6874 -0.8735
  866SOL    HW3 3231   6.336   1.938   4.345 -0.0845  0.5315  0.1530
  866SOL    MW4 3232   6.299   2.013   4.321 -0.3995  0.2419 -0.2830
  867SOL     OW 3233   2.475   4.480   1.236  0.0978 -0.2767 -0.2138
  867SOL    HW2 3234   2.429   4.441   1.310  1.1865 -0.8486  0.1919
  867SOL    HW3 3235   2.407   4.523   1.185 -0.5184  1.3588  1.8478
  867SOL    MW4 3236   2.460   4.481   1.239  0.1602 -0.1364  0.1118
  868SOL     OW 3237   0.560   2.263   6.266 -0.2086 -0.3258 -0.5116
  868SOL    HW2 3238   0.618   2.201   6.310 -1.5153  0.2369  2.2517
  868SOL    HW3 3239   0.496   2.209   6.221 -0.3930 -1.0176  0.5339
  868SOL    MW4 3240   0.560   2.248   6.266 -0.4053 -0.3428 -0.0091
  869SOL     OW 3241   0.030   4.682   2.053  0.9785 -0.5790  0.0787
  869SOL    HW2 3242   0.094   4.743   2.087  1.2111 -1.2611  0.8805
  869SOL    HW3 3243   0.005   4.718   1.968  0.4159  1.1261  0.9295
  869SOL    MW4 3244   0.035   4.695   2.046  0.9350 -0.4440  0.2967
  870SOL     OW 3245   3.759   3.062   4.530  0.1787  0.0829  0.2077
  870SOL    HW2 3246   3.689   3.121   4.499  0.3405  0.2890  0.2294
  870SOL    HW3 3247   3.783   3.097   4.616 -0.5006 -0.6878  0.7218
  870SOL    MW4 3248   3.753   3.075   4.537  0.1104  0.0084  0.2784
  871SOL     OW 3249   3.579   3.471   2.413  0.0548  0.2751 -0.5153
  871SOL    HW2 3250   3.562   3.556   2.371  1.1901  0.1022 -1.3768
  871SOL    HW3 3251   3.510   3.414   2.378  1.2569  0.0049 -2.6373
  871SOL    MW4 3252   3.568   3.475   2.403  0.3632  0.2166 -0.9089
  872SOL     OW 3253   4.564   6.377   0.792 -0.0236 -0.0656  0.4399
  872SOL    HW2 3254   4.596   6.463   0.820  0.1256 -0.1933  0.6585
  872SOL    HW3 3255   4.539   6.390   0.701  1.8807 -0.2982 -0.1593
  872SOL    MW4 3256   4.565   6.390   0.784  0.2474 -0.1132  0.3897
  873SOL     OW 3257   1.591   1.631   5.557  0.5295 -0.0482 -0.0476
  873SOL    HW2 3258   1.641   1.670   5.486 -2.5092  1.9817 -1.2759
  873SOL    HW3 3259   1.620   1.678   5.635  0.4502  1.2282 -0.7566
  873SOL    MW4 3260   1.601   1.642   5.558  0.1181  0.3880 -0.3032
  874SOL     OW 3261   0.224   2.586   3.517 -0.0150 -0.7343  0.1484
  874SOL    HW2 3262   0.194   2.497   3.540 -1.0286 -0.6396 -0.7436
  874SOL    HW3 3263   0.276   2.574   3.438 -0.7853 -0.4552 -0.4117
  874SOL    MW4 3264   0.227   2.572   3.510 -0.2504 -0.6850 -0.0432
  875SOL     OW 3265   0.361   5.214   4.997 -0.2600  0.2671  0.1176
  875SOL    HW2 3266   0.271   5.227   4.967  0.2646  0.6829 -1.3725
  875SOL    HW3 3267   0.354   5.212   5.093 -1.8624  0.1505  0.0309
  875SOL    MW4 3268   0.348   5.216   5.006 -0.4022  0.3066 -0.0904
  876SOL     OW 3269   0.073   2.729   2.352  0.1675  0.0604 -0.7952
  876SOL    HW2 3270  -0.013   2.722   2.311 -1.0145 -0.0770  1.5370
  876SOL    HW3 3271   0.079   2.820   2.381  1.4004  0.4174 -2.0366
  876SOL    MW4 3272   0.062   2.740   2.350  0.1742  0.0894 -0.6513
  877SOL     OW 3273   3.704   0.153   0.773  0.1169 -0.1249  0.4904
  877SOL    HW2 3274   3.781   0.105   0.804 -0.9406 -0.6808  2.4163
  877SOL    HW3 3275   3.649   0.086   0.731 -0.4490 -0.2252  1.3804
  877SOL    MW4 3276   3.707   0.138   0.771 -0.0973 -0.2115  0.8619
  878SOL     OW 3277   5.364   5.555   4.422 -0.4026 -0.2415  0.1739
  878SOL    HW2 3278   5.419   5.601   4.359 -1.2667  0.0433 -0.3942
  878SOL    HW3 3279   5.424   5.497   4.469  0.6312  1.1033  0.5674
  878SOL    MW4 3280   5.379   5.553   4.420 -0.3802 -0.0265  0.1509
  879SOL     OW 3281   0.932   1.428   0.528 -0.4011 -0.3868 -0.0431
  879SOL    HW2 3282   0.989   1.355   0.504 -1.4888 -0.8493 -1.3090
  879SOL    HW3 3283   0.846   1.388   0.542 -1.1687  0.7116 -1.3975
  879SOL    MW4 3284   0.928   1.414   0.527 -0.6459 -0.3029 -0.3888
  880SOL     OW 3285   5.683   1.318   3.327  0.1117  0.0342  0.5157
  880SOL    HW2 3286   5.777   1.337   3.318  0.2811 -1.2598 -1.0071
  880SOL    HW3 3287   5.640   1.396   3.291  0.7259 -0.8867 -2.5663
  880SOL    MW4 3288   5.690   1.331   3.321  0.2151 -0.2581 -0.0918
  881SOL     OW 3289   1.451   0.710   5.720 -0.5058  0.0778 -0.1428
  881SOL    HW2 3290   1.514   0.649   5.680 -1.2673 -0.6289 -0.2874
  881SOL    HW3 3291   1.487   0.797   5.701 -0.0092 -0.2927 -0.9545
  881SOL    MW4 3292   1.464   0.713   5.712 -0.5408 -0.0643 -0.2690
  882SOL     OW 3293   6.299   2.870   4.048 -0.1081 -0.6045  0.7709
  882SOL    HW2 3294   6.363   2.854   3.978 -1.5865 -1.3807 -0.4676
  882SOL    HW3 3295   6.284   2.783   4.085 -1.1081 -0.5906  0.4242
  882SOL    MW4 3296   6.305   2.856   4.043 -0.4351 -0.7050  0.5618
  883SOL     OW 3297   2.084   4.414   3.158 -0.0680 -0.1461  0.1184
  883SOL    HW2 3298   2.063   4.449   3.244  2.2118 -0.5848  0.9343
  883SOL    HW3 3299   2.128   4.486   3.113  0.8877 -0.6156  0.2578
  883SOL    MW4 3300   2.087   4.428   3.163  0.3589 -0.2659  0.2445
  884SOL     OW 3301   2.247   2.360   0.051 -0.1882  0.1973  0.4589
  884SOL    HW2 3302   2.257   2.455   0.042  0.9229 -0.0480 -1.3980
  884SOL    HW3 3303   2.166   2.340   0.004  1.4045 -0.1162 -2.3812
  884SOL    MW4 3304   2.238   2.370   0.044  0.1686  0.1236 -0.1608
  885SOL     OW 3305   3.339   1.308   6.051 -0.1524 -0.1202 -0.3781
  885SOL    HW2 3306   3.389   1.264   6.120 -0.7781 -3.4766 -1.8751
  885SOL    HW3 3307   3.400   1.313   5.977  0.2766  2.7943  0.0325
  885SOL    MW4 3308   3.354   1.303   6.051 -0.1783 -0.1785 -0.5215
  886SOL     OW 3309   2.602   5.291   2.714  0.2156 -0.5459 -0.1793
  886SOL    HW2 3310   2.691   5.324   2.722  0.5865 -1.1474 -1.7164
  886SOL    HW3 3311   2.565   5.338   2.639 -1.0848  0.3429  0.9429
  886SOL    MW4 3312   2.609   5.302   2.705  0.0929 -0.5080 -0.2341
  887SOL     OW 3313   5.866   0.860   1.425  0.7265 -0.0265 -0.2699
  887SOL    HW2 3314   5.935   0.900   1.477 -2.1706  2.7623  1.8030
  887SOL    HW3 3315   5.823   0.933   1.381 -0.6773 -1.6729 -1.7867
  887SOL    MW4 3316   5.870   0.875   1.426  0.1591  0.1243 -0.1966
  888SOL     OW 3317   3.733   1.503   5.547  0.1083  0.2990  0.1655
  888SOL    HW2 3318   3.801   1.562   5.514 -0.2777 -0.0036 -1.2322
  888SOL    HW3 3319   3.781   1.424   5.573  0.1977 -0.5602 -2.3487
  888SOL    MW4 3320   3.749   1.500   5.546  0.0692  0.1457 -0.3506
  889SOL     OW 3321   4.487   5.548   3.242 -0.0872  0.5186 -0.3795
  889SOL    HW2 3322   4.517   5.638   3.252 -0.1968  0.5944 -0.7553
  889SOL    HW3 3323   4.426   5.550   3.169  0.2818  0.0547 -0.7058
  889SOL    MW4 3324   4.483   5.560   3.234 -0.0529  0.4674 -0.4722
  890SOL     OW 3325   6.285   0.773   1.565 -0.3925  0.0348  0.3900
  890SOL    HW2 3326   6.232   0.734   1.635  2.3168  0.7280  3.0679
  890SOL    HW3 3327   6.364   0.803   1.610  2.3304 -0.9819 -3.2987
  890SOL    MW4 3328   6.288   0.772   1.580  0.3242 -0.0079  0.2567
  891SOL     OW 3329   3.814   3.151   6.237 -0.0518 -0.0370 -0.1545
  891SOL    HW2 3330   3.719   3.163   6.241  0.0023  0.1596  0.8841
  891SOL    HW3 3331   3.846   3.187   6.320  0.6910 -2.2344  0.5793
  891SOL    MW4 3332   3.805   3.158   6.249  0.0533 -0.3010  0.0794
  892SOL     OW 3333   4.688   5.870   5.537 -0.7482  0.5229  0.3750
  892SOL    HW2 3334   4.716   5.955   5.504  1.2343  0.4938  1.8461
  892SOL    HW3 3335   4.676   5.817   5.458  2.8061  0.7670 -0.4918
  892SOL    MW4 3336   4.690   5.874   5.522 -0.0177  0.5512  0.4547
  893SOL     OW 3337   3.111   3.950   4.672  0.2550 -0.0905 -0.4034
  893SOL    HW2 3338   3.027   3.951   4.719 -0.6757 -0.8479 -1.9551
  893SOL    HW3 3339   3.144   3.861   4.686  0.7238  0.1540  0.0585
  893SOL    MW4 3340   3.104   3.938   4.680  0.1940 -0.1582 -0.5472
  894SOL     OW 3341   0.888   3.369   0.848 -0.3569 -0.0485 -0.1434
  894SOL    HW2 3342   0.904   3.414   0.765 -2.4727  1.1853  0.0275
  894SOL    HW3 3343   0.931   3.424   0.913  0.4526 -0.4695 -0.3159
  894SOL    MW4 3344   0.896   3.382   0.845 -0.5292  0.0587 -0.1436
  895SOL     OW 3345   5.326   4.714   6.167  0.2251 -0.2594 -0.3000
  895SOL    HW2 3346   5.269   4.647   6.129  0.1382 -0.9825  1.0546
  895SOL    HW3 3347   5.398   4.722   6.105 -0.2634 -0.8939 -0.9649
  895SOL    MW4 3348   5.328   4.707   6.154  0.1492 -0.4385 -0.2090
  896SOL     OW 3349   1.449   5.826   0.076 -0.4105  0.4236 -0.0610
  896SOL    HW2 3350   1.500   5.791   0.149  1.1800  1.2026 -0.7468
  896SOL    HW3 3351   1.358   5.801   0.095  0.0167  0.2668  1.9617
  896SOL    MW4 3352   1.443   5.818   0.088 -0.1443  0.5057  0.1154
  897SOL     OW 3353   4.490   0.704   5.338  0.4315 -0.0640 -0.2954
  897SOL    HW2 3354   4.433   0.773   5.302  0.7827  1.2598  1.5387
  897SOL    HW3 3355   4.470   0.627   5.285  0.6904  1.6216 -3.0646
  897SOL    MW4 3356   4.480   0.703   5.326  0.5120  0.3330 -0.4188
  898SOL     OW 3357   6.220   0.375   2.314 -0.4229  0.4630 -0.2920
  898SOL    HW2 3358   6.239   0.451   2.369  1.4519 -0.1162 -0.0745
  898SOL    HW3 3359   6.287   0.378   2.246 -0.5934 -0.7592 -0.5373
  898SOL    MW4 3360   6.231   0.385   2.312 -0.1980  0.2254 -0.2957
  899SOL     OW 3361   3.005   3.455   0.134 -0.2611 -0.2846 -0.4508
  899SOL    HW2 3362   3.071   3.505   0.181  0.8815  0.7038 -2.9369
  899SOL    HW3 3363   3.052   3.380   0.098 -1.2574 -1.3899  0.4532
  899SOL    MW4 3364   3.020   3.452   0.135 -0.2418 -0.3000 -0.6596
  900SOL     OW 3365   0.692   2.987   5.384  0.1564 -0.3476 -0.2183
  900SOL    HW2 3366   0.625   2.955   5.444  1.3523  0.1065  1.4277
  900SOL    HW3 3367   0.646   2.997   5.300 -1.5357 -1.1175  0.5607
  900SOL    MW4 3368   0.677   2.984   5.381  0.0909 -0.3893  0.1016
  901SOL     OW 3369   5.674   3.557   0.767  0.0966  0.0029  0.1127
  901SOL    HW2 3370   5.688   3.543   0.674  1.3443  0.9729  0.1173
  901SOL    HW3 3371   5.597   3.614   0.772 -0.4625 -0.7039 -0.2659
  901SOL    MW4 3372   5.666   3.562   0.756  0.1875  0.0376  0.0633
  902SOL     OW 3373   0.949   3.493   4.247 -0.2750  0.1669 -0.3186
  902SOL    HW2 3374   0.981   3.480   4.158  1.8368 -0.1843  0.4342
  902SOL    HW3 3375   0.983   3.418   4.296 -0.4776  0.9021  1.0088
  902SOL    MW4 3376   0.958   3.481   4.242 -0.0231  0.2176 -0.0442
  903SOL     OW 3377   0.366   5.611   2.254 -0.0571  0.0681 -0.2908
  903SOL    HW2 3378   0.342   5.567   2.336  0.2627 -0.3618 -0.4231
  903SOL    HW3 3379   0.324   5.697   2.259  0.0426  0.0824  0.3708
  903SOL    MW4 3380   0.358   5.617   2.265 -0.0017  0.0133 -0.2209
  904SOL     OW 3381   3.910   1.849   5.723 -0.3549  0.2898  0.6957
  904SOL    HW2 3382   3.996   1.885   5.744 -0.1559 -0.4621  1.2186
  904SOL    HW3 3383   3.896   1.872   5.631  0.5650  0.0984  0.4997
  904SOL    MW4 3384   3.919   1.857   5.714 -0.2072  0.1653  0.7389
  905SOL     OW 3385   2.234   4.569   1.141 -0.1258 -0.2853 -0.1421
  905SOL    HW2 3386   2.243   4.648   1.088  0.8354  0.5072  1.1573
  905SOL    HW3 3387   2.166   4.591   1.205  1.1193  0.0478  1.1245
  905SOL    MW4 3388   2.226   4.583   1.143  0.1653 -0.1368  0.1964
  906SOL     OW 3389   0.727   0.029   4.470 -0.1899 -0.8352 -0.1752
  906SOL    HW2 3390   0.752  -0.063   4.476 -1.3095 -1.3539 -2.1718
  906SOL    HW3 3391   0.746   0.052   4.379 -2.6973 -0.0037 -0.5533
  906SOL    MW4 3392   0.733   0.020   4.458 -0.6685 -0.7940 -0.4885
  907SOL     OW 3393   0.512   0.449   5.500  0.3231 -0.1764  0.6321
  907SOL    HW2 3394   0.444   0.433   5.566 -1.4972  3.2653 -0.1194
  907SOL    HW3 3395   0.588   0.477   5.551  0.3293 -1.4997  1.3915
  907SOL    MW4 3396   0.513   0.451   5.516  0.0837  0.1031  0.6332
  908SOL     OW 3397   5.374   4.218   1.500 -0.0268 -0.0386  0.7896
  908SOL    HW2 3398   5.427   4.265   1.565 -1.1448  1.9835  0.3060
  908SOL    HW3 3399   5.438   4.186   1.436  0.7510  1.5095  0.7361
  908SOL    MW4 3400   5.390   4.220   1.500 -0.0717  0.4325  0.7187
  909SOL     OW 3401   2.990   0.427   1.910  0.4367 -0.2565  0.5668
  909SOL    HW2 3402   2.906   0.384   1.892 -0.1017  0.8502  0.3271
  909SOL    HW3 3403   3.043   0.409   1.833 -0.1256  0.3140  0.0378
  909SOL    MW4 3404   2.986   0.419   1.898  0.2915 -0.0352  0.4654
  910SOL     OW 3405   1.546   4.624   2.927  0.1886  0.1475  0.0735
  910SOL    HW2 3406   1.506   4.538   2.937  0.4221  0.0257 -0.0405
  910SOL    HW3 3407   1.475   4.680   2.894 -0.0978  0.1210  0.6325
  910SOL    MW4 3408   1.532   4.620   2.924  0.1816  0.1280  0.1322
  911SOL     OW 3409   3.221   5.310   3.368  0.1101 -0.4346 -0.0568
  911SOL    HW2 3410   3.169   5.387   3.388 -1.5292 -1.5836  0.3240
  911SOL    HW3 3411   3.223   5.306   3.273  0.6500  0.3495 -0.0846
  911SOL    MW4 3412   3.215   5.319   3.358 -0.0350 -0.4828 -0.0102
  912SOL     OW 3413   5.311   5.868   3.192 -0.1918  0.1626 -0.3564
  912SOL    HW2 3414   5.403   5.896   3.196  0.2862 -1.2259 -0.9093
  912SOL    HW3 3415   5.263   5.948   3.172  0.8547  0.9826  0.2676
  912SOL    MW4 3416   5.317   5.883   3.190  0.0093  0.0876 -0.3470
  913SOL     OW 3417   5.741   0.128   2.993  0.5444  0.2006 -0.2490
  913SOL    HW2 3418   5.674   0.081   2.942  0.3857 -1.7441  1.5952
  913SOL    HW3 3419   5.693   0.166   3.066  0.9875  1.7216 -0.7213
  913SOL    MW4 3420   5.726   0.127   2.996  0.5819  0.1447 -0.0680
  914SOL     OW 3421   3.721   4.278   5.080 -0.3886 -0.3324 -0.2489
  914SOL    HW2 3422   3.772   4.201   5.054 -0.6583 -0.3464 -0.7561
  914SOL    HW3 3423   3.630   4.247   5.078 -0.4326 -0.2679  0.5015
  914SOL    MW4 3424   3.716   4.264   5.076 -0.4300 -0.3258 -0.2168
  915SOL     OW 3425   2.240   2.066   0.131  0.1002 -0.5237  0.3431
  915SOL    HW2 3426   2.160   2.040   0.086  0.2600 -0.6560  0.1314
  915SOL    HW3 3427   2.244   2.161   0.121  1.5388 -0.7539 -2.3512
  915SOL    MW4 3428   2.230   2.075   0.124  0.3111 -0.5715 -0.0403
  916SOL     OW 3429   2.618   1.596   5.697  0.5506 -0.1175 -0.1673
  916SOL    HW2 3430   2.523   1.585   5.702  0.2779  0.9791 -1.8983
  916SOL    HW3 3431   2.654   1.509   5.710 -0.7532 -0.7477 -0.6601
  916SOL    MW4 3432   2.610   1.583   5.700  0.3426 -0.0560 -0.4607
  917SOL     OW 3433   2.682   2.799   4.402 -0.0679  0.1721 -0.3756
  917SOL    HW2 3434   2.758   2.746   4.426 -0.7831 -0.2234  1.2052
  917SOL    HW3 3435   2.697   2.883   4.445 -1.5523 -0.6727  2.0558
  917SOL    MW4 3436   2.694   2.803   4.411 -0.3581  0.0084  0.1538
  918SOL     OW 3437   3.139   0.654   1.369  0.4022  0.3127  0.1824
  918SOL    HW2 3438   3.201   0.716   1.408 -0.2608  0.9993  0.1802
  918SOL    HW3 3439   3.124   0.687   1.281 -0.2777  0.3957  0.3230
  918SOL    MW4 3440   3.145   0.667   1.363  0.2250  0.4143  0.2006
  919SOL     OW 3441   4.291   0.800   3.868 -0.0114 -0.3811 -0.2586
  919SOL    HW2 3442   4.356   0.742   3.909 -0.9004  0.2523  2.2101
  919SOL    HW3 3443   4.323   0.888   3.886 -0.8817 -0.0761 -0.1738
  919SOL    MW4 3444   4.304   0.804   3.876 -0.2435 -0.2573  0.0783
  920SOL     OW 3445   6.061   6.090   4.845 -0.9242 -0.7192 -0.3160
  920SOL    HW2 3446   6.037   6.098   4.937 -0.2775  1.5896 -0.2944
  920SOL    HW3 3447   5.984   6.051   4.803 -1.8431 -0.3121  0.9393
  920SOL    MW4 3448   6.048   6.086   4.852 -0.9601 -0.3609 -0.1475
  921SOL     OW 3449   5.043   0.493   5.755 -0.0608  0.3858 -0.3200
  921SOL    HW2 3450   5.113   0.557   5.746 -0.8961  1.2159 -1.1486
  921SOL    HW3 3451   5.029   0.461   5.666 -1.1568  0.7050 -0.2733
  921SOL    MW4 3452   5.051   0.497   5.742 -0.3156  0.5374 -0.4232
  922SOL     OW 3453   1.592   2.163   2.208 -0.2701 -0.0203  0.0211
  922SOL    HW2 3454   1.647   2.104   2.157 -1.9510 -0.7524 -1.0273
  922SOL    HW3 3455   1.592   2.127   2.296 -3.3304 -3.3223 -1.0777
  922SOL    MW4 3456   1.599   2.151   2.213 -0.8957 -0.5525 -0.2622
  923SOL     OW 3457   1.894   4.141   4.605 -0.7739 -0.8157  0.5006
  923SOL    HW2 3458   1.909   4.106   4.517  0.5930  0.8621  0.0105
  923SOL    HW3 3459   1.947   4.221   4.608 -0.7026 -0.9068  2.9031
  923SOL    MW4 3460   1.903   4.147   4.594 -0.5841 -0.6064  0.7529
  924SOL     OW 3461   5.035   1.108   3.279  0.5147  0.1402 -0.3514
  924SOL    HW2 3462   5.074   1.105   3.191 -0.9614 -3.6317 -1.0749
  924SOL    HW3 3463   5.038   1.017   3.309 -1.1230  0.9358  2.5693
  924SOL    MW4 3464   5.041   1.095   3.271  0.1039 -0.2525 -0.0615
  925SOL     OW 3465   1.427   1.549   3.390  0.0516  0.1241 -0.1898
  925SOL    HW2 3466   1.431   1.636   3.428  2.0451 -0.1036  0.2716
  925SOL    HW3 3467   1.515   1.513   3.404 -0.5727 -1.7717 -0.7981
  925SOL    MW4 3468   1.439   1.555   3.397  0.2322 -0.1560 -0.2092
  926SOL     OW 3469   2.693   5.562   4.836 -0.4256  0.7175 -0.9479
  926SOL    HW2 3470   2.762   5.558   4.771  0.8817 -0.0824  0.4298
  926SOL    HW3 3471   2.644   5.481   4.824  1.1485 -0.4900  0.4333
  926SOL    MW4 3472   2.695   5.551   4.826 -0.0454  0.4527 -0.5839
  927SOL     OW 3473  -0.003   3.337   2.472  0.0332 -0.3906 -0.2215
  927SOL    HW2 3474  -0.094   3.367   2.482  0.5682  1.3270 -0.1235
  927SOL    HW3 3475   0.028   3.382   2.394  0.5996 -1.5578 -0.6936
  927SOL    MW4 3476  -0.011   3.347   2.463  0.1785 -0.3179 -0.2709
  928SOL     OW 3477   3.538   6.178   3.757  0.1733 -0.2320 -0.6521
  928SOL    HW2 3478   3.572   6.091   3.778  0.3622 -0.2335 -0.9664
  928SOL    HW3 3479   3.448   6.163   3.731  0.2059 -0.3356 -0.7060
  928SOL    MW4 3480   3.531   6.165   3.757  0.2025 -0.2459 -0.7007
  929SOL     OW 3481   4.150   2.971   1.786 -0.2166 -0.8110  0.6050
  929SOL    HW2 3482   4.154   2.899   1.849 -0.7070 -1.5595 -0.1963
  929SOL    HW3 3483   4.106   3.042   1.834 -0.5873 -1.3707  1.1058
  929SOL    MW4 3484   4.144   2.971   1.801 -0.3302 -0.9836  0.5653
  930SOL     OW 3485   3.455   6.007   4.196 -0.1209  0.2466  0.0501
  930SOL    HW2 3486   3.461   6.099   4.169  0.2169  0.4919  0.9232
  930SOL    HW3 3487   3.371   6.000   4.241  0.1935  0.3249  0.6645
  930SOL    MW4 3488   3.445   6.019   4.199 -0.0349  0.2893  0.2464
  931SOL     OW 3489   3.446   2.780   2.407 -0.1885 -0.0001 -0.5944
  931SOL    HW2 3490   3.407   2.706   2.361 -0.3251 -1.9482  2.4020
  931SOL    HW3 3491   3.535   2.751   2.428 -0.8103 -0.1827  2.1861
  931SOL    MW4 3492   3.453   2.766   2.404 -0.2885 -0.2813  0.1678
  932SOL     OW 3493   4.357   4.557   1.517 -0.1558  0.1652  0.0064
  932SOL    HW2 3494   4.383   4.486   1.458  0.2434 -0.9665  1.4851
  932SOL    HW3 3495   4.438   4.584   1.560 -0.6288  0.0514  1.0017
  932SOL    MW4 3496   4.371   4.551   1.515 -0.1655  0.0009  0.3328
  933SOL     OW 3497   4.944   5.046   5.860 -0.5530  0.2435  0.3270
  933SOL    HW2 3498   4.940   5.019   5.952 -1.4130 -0.1966  0.1676
  933SOL    HW3 3499   4.963   5.140   5.864  0.3082  0.0617  0.9283
  933SOL    MW4 3500   4.946   5.055   5.873 -0.5528  0.1614  0.3853
  934SOL     OW 3501   1.523   6.106   5.345 -0.0136  0.0231  0.2695
  934SOL    HW2 3502   1.474   6.170   5.294  0.0674 -0.3123 -0.2401
  934SOL    HW3 3503   1.461   6.034   5.358 -0.3951  0.5599  1.5959
  934SOL    MW4 3504   1.508   6.105   5.340 -0.0532  0.0497  0.3773
  935SOL     OW 3505   3.512   1.679   0.141 -0.5251 -0.4700  0.0827
  935SOL    HW2 3506   3.451   1.606   0.137  1.8533 -2.6532  0.8316
  935SOL    HW3 3507   3.482   1.731   0.215 -2.3826 -0.5019 -0.5870
  935SOL    MW4 3508   3.500   1.676   0.150 -0.4564 -0.7623  0.0932
  936SOL     OW 3509   5.835   0.987   2.526  0.0373 -0.1412  0.0256
  936SOL    HW2 3510   5.823   0.903   2.482  1.2084  1.0178 -2.7290
  936SOL    HW3 3511   5.774   1.046   2.482  0.1413  0.7359  1.0300
  936SOL    MW4 3512   5.826   0.984   2.514  0.2055  0.1274 -0.2053
  937SOL     OW 3513   2.028   1.934   1.361  0.3658  0.3559  0.3209
  937SOL    HW2 3514   1.968   1.962   1.430  1.3817  0.5666  1.1390
  937SOL    HW3 3515   1.984   1.860   1.319  0.1790 -0.4391  1.8629
  937SOL    MW4 3516   2.014   1.928   1.365  0.4752  0.2788  0.6323
  938SOL     OW 3517   3.312   5.683   0.952  0.3680  0.2510  0.2949
  938SOL    HW2 3518   3.300   5.770   0.990 -1.1409  0.0356  0.3920
  938SOL    HW3 3519   3.247   5.679   0.882  1.7946 -0.0725 -1.0654
  938SOL    MW4 3520   3.302   5.694   0.948  0.3571  0.1799  0.1282
  939SOL     OW 3521   4.883   4.662   4.144  0.2543 -0.0878  0.3904
  939SOL    HW2 3522   4.843   4.593   4.197  0.3326 -1.2477 -0.9877
  939SOL    HW3 3523   4.840   4.742   4.172  0.3113 -0.6438  2.2024
  939SOL    MW4 3524   4.872   4.663   4.154  0.2722 -0.3142  0.4477
  940SOL     OW 3525   4.281   1.056   2.179 -0.1355 -0.2197 -0.1920
  940SOL    HW2 3526   4.299   0.989   2.246  0.9916  1.3175  1.1024
  940SOL    HW3 3527   4.196   1.092   2.204 -0.1141 -0.2445 -0.0815
  940SOL    MW4 3528   4.272   1.052   2.191  0.0160 -0.0201 -0.0067
  941SOL     OW 3529   1.081   5.102   5.695 -0.1279 -0.1325 -0.2380
  941SOL    HW2 3530   1.149   5.162   5.725  0.7164 -0.1288 -2.0667
  941SOL    HW3 3531   1.114   5.015   5.716 -0.5267 -0.0736  0.7311
  941SOL    MW4 3532   1.094   5.098   5.702 -0.0691 -0.1242 -0.3514
  942SOL     OW 3533   2.741   2.182   2.083 -0.1183 -0.3917 -0.0918
  942SOL    HW2 3534   2.743   2.109   2.146  1.0118  1.5684  2.3147
  942SOL    HW3 3535   2.811   2.163   2.021  1.0216 -0.7545  1.2704
  942SOL    MW4 3536   2.750   2.170   2.083  0.1812 -0.1810  0.4054
  943SOL     OW 3537   0.427   2.760   3.956 -0.0386  0.1900 -0.0038
  943SOL    HW2 3538   0.419   2.701   3.881  0.4979  1.9411 -1.5373
  943SOL    HW3 3539   0.359   2.732   4.017 -1.1486 -0.6884 -1.5850
  943SOL    MW4 3540   0.417   2.749   3.954 -0.1143  0.3052 -0.4147
  944SOL     OW 3541   0.589   2.300   3.456 -0.0699  0.6135  0.2208
  944SOL    HW2 3542   0.579   2.351   3.375  2.1346 -0.4458 -0.8180
  944SOL    HW3 3543   0.573   2.210   3.430  2.5850 -0.0036  0.3995
  944SOL    MW4 3544   0.586   2.295   3.442  0.5712  0.3923  0.1073
  945SOL     OW 3545   1.397   3.875   2.551 -0.3115  0.3508 -0.1747
  945SOL    HW2 3546   1.388   3.965   2.583 -0.2832 -0.1309  1.2210
  945SOL    HW3 3547   1.413   3.822   2.629 -0.1757 -0.8584 -0.9886
  945SOL    MW4 3548   1.398   3.880   2.565 -0.2899  0.1277 -0.0980
  946SOL     OW 3549   1.711   3.028   4.268  0.5833 -0.3457 -0.2015
  946SOL    HW2 3550   1.704   3.026   4.364  1.3018 -1.1465 -0.1494
  946SOL    HW3 3551   1.660   2.953   4.239  0.6223 -0.2863 -0.4252
  946SOL    MW4 3552   1.704   3.018   4.277  0.6832 -0.4435 -0.2242
  947SOL     OW 3553   5.486   3.154   6.000  0.0772  0.2720  0.5327
  947SOL    HW2 3554   5.542   3.231   6.012  0.0603  0.3349  0.2213
  947SOL    HW3 3555   5.473   3.149   5.905 -1.9243  1.3007  0.7158
  947SOL    MW4 3556   5.492   3.163   5.989 -0.1891  0.4160  0.5158
  948SOL     OW 3557   2.558   1.670   2.042 -0.0391  0.1109  0.0956
  948SOL    HW2 3558   2.521   1.625   1.966  1.7247  0.5972 -1.1146
  948SOL    HW3 3559   2.653   1.668   2.027  0.3454  0.3514  2.2302
  948SOL    MW4 3560   2.566   1.664   2.030  0.2444  0.2068  0.2175
  949SOL     OW 3561   4.215   1.799   1.008 -0.3800  0.0267  0.6694
  949SOL    HW2 3562   4.240   1.890   0.993 -2.1817  0.5530  0.6835
  949SOL    HW3 3563   4.227   1.756   0.924 -0.4063  0.5002  0.4240
  949SOL    MW4 3564   4.220   1.805   0.995 -0.6212  0.1586  0.6389
  950SOL     OW 3565   2.286   3.119   2.779  0.2496 -0.0232 -0.3351
  950SOL    HW2 3566   2.256   3.149   2.865  0.2649  0.5183 -0.5142
  950SOL    HW3 3567   2.229   3.164   2.717  0.0033 -0.6900 -0.6028
  950SOL    MW4 3568   2.274   3.129   2.782  0.2191 -0.0397 -0.3940
  951SOL     OW 3569   6.337   1.388   1.919 -0.0516 -0.5801 -0.5147
  951SOL    HW2 3570   6.250   1.364   1.887  0.5525 -1.9529 -1.1959
  951SOL    HW3 3571   6.337   1.484   1.919 -0.9750 -0.5402 -2.2020
  951SOL    MW4 3572   6.326   1.398   1.914 -0.0937 -0.7560 -0.8272
  952SOL     OW 3573   3.448   4.748   4.901  0.6025  0.2759 -0.2455
  952SOL    HW2 3574   3.464   4.841   4.914  0.9033  0.3511 -1.0739
  952SOL    HW3 3575   3.425   4.715   4.988 -1.4933  1.5107 -0.2350
  952SOL    MW4 3576   3.447   4.756   4.914  0.3657  0.4487 -0.3534
  953SOL     OW 3577   0.013   3.892   2.638 -0.1840  0.4117 -0.1323
  953SOL    HW2 3578   0.087   3.861   2.587  0.6294 -2.3881  2.4595
  953SOL    HW3 3579  -0.054   3.824   2.626 -1.5936  1.8642 -0.7990
  953SOL    MW4 3580   0.014   3.879   2.630 -0.2626  0.2340  0.1217
  954SOL     OW 3581   1.461   5.362   2.203 -0.7948  0.1680  0.0665
  954SOL    HW2 3582   1.481   5.446   2.244 -1.3799  0.4281 -0.1751
  954SOL    HW3 3583   1.366   5.353   2.211 -0.6491 -0.9213  0.9444
  954SOL    MW4 3584   1.451   5.372   2.210 -0.8528  0.0586  0.1505
  955SOL     OW 3585   4.475   2.073   2.103 -0.2787 -0.1538 -0.2651
  955SOL    HW2 3586   4.517   1.987   2.099 -0.4923 -0.3038  0.4135
  955SOL    HW3 3587   4.542   2.134   2.075  0.3208 -0.4136  0.5681
  955SOL    MW4 3588   4.489   2.069   2.099 -0.2278 -0.2079 -0.0656
  956SOL     OW 3589   0.645   2.265   1.920  0.5666  0.3952  0.6211
  956SOL    HW2 3590   0.684   2.249   1.834 -1.4009  0.2023 -0.2960
  956SOL    HW3 3591   0.599   2.184   1.940 -0.3805  1.0340  1.0627
  956SOL    MW4 3592   0.644   2.253   1.911  0.1821  0.4540  0.5584
  957SOL     OW 3593   3.685   1.959   1.404 -0.1085  0.8904 -0.4346
  957SOL    HW2 3594   3.712   1.885   1.349 -0.3010  0.1344  0.4755
  957SOL    HW3 3595   3.612   1.926   1.456  0.4851  1.3897  0.7544
  957SOL    MW4 3596   3.679   1.945   1.403 -0.0555  0.8565 -0.1577
  958SOL     OW 3597   3.862   3.969   2.159 -0.0019 -0.2619  0.0291
  958SOL    HW2 3598   3.852   4.015   2.076 -0.9289 -1.8101 -0.7657
  958SOL    HW3 3599   3.953   3.987   2.185 -0.5289  2.6325  0.2212
  958SOL    MW4 3600   3.873   3.978   2.151 -0.1937 -0.0843 -0.0504
  959SOL     OW 3601   3.405   5.075   2.969  0.2323 -0.5686 -0.4225
  959SOL    HW2 3602   3.370   5.024   3.042 -0.1497 -1.4972 -1.2255
  959SOL    HW3 3603   3.330   5.086   2.910  0.2416  1.1719 -0.1510
  959SOL    MW4 3604   3.390   5.069   2.971  0.1831 -0.4615 -0.4926
  960SOL     OW 3605   0.246   2.132   4.219 -0.1442  0.0095 -0.6185
  960SOL    HW2 3606   0.338   2.154   4.231  0.0164 -0.9133 -0.0851
  960SOL    HW3 3607   0.246   2.047   4.176 -0.6430 -2.1140  3.1252
  960SOL    MW4 3608   0.258   2.124   4.215 -0.1888 -0.3924 -0.0542
  961SOL     OW 3609   6.067   1.212   4.716  0.2371  0.2114  0.3304
  961SOL    HW2 3610   6.011   1.136   4.731 -0.1312  0.0459 -1.5945
  961SOL    HW3 3611   6.110   1.228   4.800 -1.6453 -0.5151  1.4968
  961SOL    MW4 3612   6.065   1.204   4.729 -0.0599  0.0937  0.2304
  962SOL     OW 3613   3.638   0.239   1.035  0.2797 -0.0448 -0.0954
  962SOL    HW2 3614   3.550   0.202   1.042  0.0693  0.2695 -0.9487
  962SOL    HW3 3615   3.662   0.227   0.943  0.9094  0.3596  0.0094
  962SOL    MW4 3616   3.629   0.233   1.024  0.3351  0.0500 -0.1942
  963SOL     OW 3617   5.406   4.832   3.908  0.0252  0.1538  0.6659
  963SOL    HW2 3618   5.379   4.767   3.844 -0.3537 -1.6571  2.5611
  963SOL    HW3 3619   5.326   4.880   3.930  0.4744  2.0622 -1.4506
  963SOL    MW4 3620   5.392   4.830   3.902  0.0344  0.1667  0.6367
  964SOL     OW 3621   0.266   4.052   3.275 -0.3949  0.0175 -0.2244
  964SOL    HW2 3622   0.188   4.003   3.250 -0.8861  0.8874 -0.4396
  964SOL    HW3 3623   0.234   4.121   3.333  0.2869  0.0699  0.0969
  964SOL    MW4 3624   0.252   4.055   3.279 -0.3698  0.1392 -0.2104
  965SOL     OW 3625   6.273   1.830   3.773 -0.2150 -0.6806 -0.4597
  965SOL    HW2 3626   6.234   1.842   3.687 -2.1805  1.0491  0.5736
  965SOL    HW3 3627   6.198   1.811   3.830  0.8425 -0.3206  1.0972
  965SOL    MW4 3628   6.258   1.829   3.769 -0.3348 -0.4049 -0.1180
  966SOL     OW 3629   3.283   5.763   4.368  0.6591  0.2561  0.1505
  966SOL    HW2 3630   3.336   5.737   4.293  0.2987 -1.2131  0.3698
  966SOL    HW3 3631   3.211   5.814   4.330  0.5657 -0.3401 -0.4953
  966SOL    MW4 3632   3.280   5.766   4.353  0.5992 -0.0164  0.0942
  967SOL     OW 3633   3.553   3.734   2.812  0.1080  0.0613  0.7625
  967SOL    HW2 3634   3.584   3.653   2.772 -0.0575 -0.6343  2.0155
  967SOL    HW3 3635   3.631   3.775   2.848  0.0446 -0.0651  1.0460
  967SOL    MW4 3636   3.567   3.729   2.811  0.0778 -0.0472  0.9652
  968SOL     OW 3637   4.888   5.427   1.509  0.1339 -0.0803 -0.0704
  968SOL    HW2 3638   4.866   5.460   1.596 -1.0474  0.0142 -0.3867
  968SOL    HW3 3639   4.924   5.504   1.463 -0.5428  0.2236 -0.1028
  968SOL    MW4 3640   4.890   5.442   1.515 -0.1112 -0.0278 -0.1164
  969SOL     OW 3641   4.711   3.365   0.066  0.0040 -0.0833 -0.8210
  969SOL    HW2 3642   4.784   3.313   0.034  0.7987  0.0121  0.7233
  969SOL    HW3 3643   4.672   3.404  -0.012  1.7629  0.0756 -1.6554
  969SOL    MW4 3644   4.716   3.364   0.052  0.3409 -0.0497 -0.7274
  970SOL     OW 3645   5.078   6.187   3.600  0.1248 -0.3721  0.2050
  970SOL    HW2 3646   5.002   6.233   3.565  0.1665 -0.3097  0.1946
  970SOL    HW3 3647   5.153   6.239   3.569  0.1129  0.5444  1.6607
  970SOL    MW4 3648   5.078   6.200   3.591  0.1287 -0.2430  0.3957
  971SOL     OW 3649   3.965   5.179   0.252  0.1331 -0.1801 -0.0600
  971SOL    HW2 3650   3.959   5.180   0.347  0.1938  2.9789  0.0011
  971SOL    HW3 3651   3.881   5.215   0.222  0.4801 -0.2446 -1.1532
  971SOL    MW4 3652   3.953   5.184   0.261  0.1869  0.2282 -0.1962
  972SOL     OW 3653   2.836   1.880   3.459 -0.2030 -0.2149 -0.2939
  972SOL    HW2 3654   2.801   1.809   3.513  0.4819  0.1164  0.6131
  972SOL    HW3 3655   2.908   1.840   3.411 -0.4465 -0.3728 -0.5278
  972SOL    MW4 3656   2.841   1.865   3.460 -0.1448 -0.1920 -0.2051
  973SOL     OW 3657   4.773   5.446   2.199  0.1773 -1.0442 -0.1644
  973SOL    HW2 3658   4.733   5.359   2.194 -0.4777 -0.7722  0.2998
  973SOL    HW3 3659   4.782   5.462   2.293  0.9223 -0.8896 -0.2573
  973SOL    MW4 3660   4.769   5.437   2.211  0.1892 -0.9879 -0.1154
  974SOL     OW 3661   2.408   5.012   4.719  0.4998  0.0951 -0.1484
  974SOL    HW2 3662   2.368   5.049   4.798 -0.6843 -1.1492 -0.1317
  974SOL    HW3 3663   2.367   5.059   4.647  0.3709  0.0943 -0.0759
  974SOL    MW4 3664   2.397   5.023   4.720  0.3266 -0.0692 -0.1366
  975SOL     OW 3665   1.216   5.249   4.903  0.5840  0.2236 -0.5207
  975SOL    HW2 3666   1.150   5.281   4.964 -0.8276 -1.8906 -0.8311
  975SOL    HW3 3667   1.251   5.328   4.862  0.4628  1.6019  1.8510
  975SOL    MW4 3668   1.212   5.264   4.906  0.3818  0.1265 -0.2488
  976SOL     OW 3669   0.624   4.978   1.848 -0.2536 -0.6544 -0.0653
  976SOL    HW2 3670   0.560   4.929   1.797 -2.3684  0.0731  1.6981
  976SOL    HW3 3671   0.655   4.917   1.915 -0.3744 -0.5352  0.1014
  976SOL    MW4 3672   0.620   4.964   1.850 -0.5486 -0.5427  0.1894
  977SOL     OW 3673   4.044   5.089   1.853 -0.7861 -0.2103 -0.0348
  977SOL    HW2 3674   4.119   5.147   1.854 -0.3552 -0.7241 -1.1471
  977SOL    HW3 3675   4.048   5.043   1.937  0.0402 -0.1144 -0.0194
  977SOL    MW4 3676   4.054   5.090   1.864 -0.6202 -0.2655 -0.1796
  978SOL     OW 3677   4.725   5.685   5.312 -0.5151  0.3772 -0.1547
  978SOL    HW2 3678   4.814   5.705   5.340 -0.8079  0.2014  0.9370
  978SOL    HW3 3679   4.710   5.595   5.341 -0.4065 -0.2761 -1.9951
  978SOL    MW4 3680   4.734   5.675   5.320 -0.5394  0.2678 -0.2535
  979SOL     OW 3681   4.693   2.672   0.611  0.0360 -0.0575  0.4534
  979SOL    HW2 3682   4.765   2.684   0.549  0.3492 -0.6543  0.7033
  979SOL    HW3 3683   4.686   2.578   0.623 -0.4271  0.0227  0.8588
  979SOL    MW4 3684   4.702   2.661   0.604  0.0162 -0.1257  0.5398
  980SOL     OW 3685   5.655   0.132   0.898  0.1005  0.3130 -0.3399
  980SOL    HW2 3686   5.686   0.222   0.902  0.7951  0.1498 -1.6825
  980SOL    HW3 3687   5.561   0.138   0.915  0.3620  1.1187  0.9628
  980SOL    MW4 3688   5.647   0.144   0.901  0.2266  0.3977 -0.3451
  981SOL     OW 3689   5.941   6.152   4.328  0.2257  0.1289  0.2619
  981SOL    HW2 3690   5.859   6.183   4.366  0.7420  0.1285  1.3971
  981SOL    HW3 3691   5.984   6.232   4.297  0.3250  0.2575  0.7241
  981SOL    MW4 3692   5.936   6.167   4.329  0.3069  0.1458  0.4727
  982SOL     OW 3693   2.759   3.622   1.010 -0.2474  0.4743 -0.0076
  982SOL    HW2 3694   2.765   3.566   1.088  0.6004  0.1171 -0.3176
  982SOL    HW3 3695   2.690   3.582   0.957 -0.5851  0.5149  0.4022
  982SOL    MW4 3696   2.751   3.609   1.013 -0.1801  0.4325  0.0056
  983SOL     OW 3697   0.775   3.911   3.939  0.2946 -0.4628 -0.1231
  983SOL    HW2 3698   0.828   3.928   4.016  0.0167  0.7168 -0.1822
  983SOL    HW3 3699   0.689   3.884   3.973  0.2049 -0.0468 -0.0204
  983SOL    MW4 3700   0.770   3.910   3.953  0.2461 -0.2523 -0.1174
  984SOL     OW 3701   5.182   1.617   6.118 -0.1047 -0.0195  0.7519
  984SOL    HW2 3702   5.093   1.598   6.090  0.1601  1.1963 -1.0842
  984SOL    HW3 3703   5.174   1.638   6.211 -1.5536 -0.9684  0.8700
  984SOL    MW4 3704   5.169   1.617   6.127 -0.2609  0.0157  0.5252
  985SOL     OW 3705   5.136   2.157   0.853 -0.1165 -0.5568 -0.1229
  985SOL    HW2 3706   5.126   2.067   0.823 -1.5153 -0.7176  0.7428
  985SOL    HW3 3707   5.105   2.211   0.779  2.2279 -0.6707 -1.2717
  985SOL    MW4 3708   5.130   2.152   0.839  0.0082 -0.5931 -0.1602
  986SOL     OW 3709   0.691   1.439   6.016  0.2767 -0.1058 -0.0934
  986SOL    HW2 3710   0.739   1.415   5.936 -0.6161 -1.0989 -0.3559
  986SOL    HW3 3711   0.758   1.475   6.074  1.1535 -0.4897 -0.8423
  986SOL    MW4 3712   0.706   1.440   6.013  0.2746 -0.2875 -0.2268
  987SOL     OW 3713   5.153   0.234   1.461  0.7777 -0.7676  0.3189
  987SOL    HW2 3714   5.224   0.230   1.396  0.5692 -0.5798  0.0749
  987SOL    HW3 3715   5.197   0.231   1.546  1.3063  1.9256  0.2307
  987SOL    MW4 3716   5.168   0.233   1.463  0.8199 -0.3875  0.2751
  988SOL     OW 3717   3.762   0.693   0.545 -0.5037 -0.0754 -0.3149
  988SOL    HW2 3718   3.733   0.607   0.577  1.5954 -1.0029 -0.7304
  988SOL    HW3 3719   3.784   0.742   0.624  1.3031 -1.0975 -0.1302
  988SOL    MW4 3720   3.761   0.688   0.560  0.0116 -0.3326 -0.3453
  989SOL     OW 3721   4.544   3.308   2.663  0.0479 -0.3234  0.6553
  989SOL    HW2 3722   4.469   3.366   2.674  0.7757  1.5795 -2.7131
  989SOL    HW3 3723   4.617   3.356   2.704  0.0485 -0.4887  0.8478
  989SOL    MW4 3724   4.544   3.322   2.670  0.1440 -0.0941  0.2363
  990SOL     OW 3725   1.398   4.051   4.388 -0.4328 -0.5740  0.4095
  990SOL    HW2 3726   1.437   4.138   4.400 -1.0005 -0.0330 -1.3977
  990SOL    HW3 3727   1.399   4.012   4.476  0.2158  1.0819  1.1772
  990SOL    MW4 3728   1.403   4.057   4.401 -0.4221 -0.2841  0.2724
  991SOL     OW 3729   0.184   5.085   5.656 -0.5822  0.7486  0.1349
  991SOL    HW2 3730   0.248   5.056   5.721  0.0703  2.3606  0.2531
  991SOL    HW3 3731   0.099   5.078   5.701 -0.1289  1.9908  1.2454
  991SOL    MW4 3732   0.181   5.080   5.671 -0.4363  1.1252  0.2970
  992SOL     OW 3733   5.288   5.174   4.630  0.0730  0.4479 -0.1285
  992SOL    HW2 3734   5.294   5.133   4.716 -0.6169 -0.6388 -0.5658
  992SOL    HW3 3735   5.342   5.118   4.574 -2.2563 -0.9781 -1.1075
  992SOL    MW4 3736   5.296   5.161   4.634 -0.3253  0.1164 -0.3153
  993SOL     OW 3737   2.560   1.197   1.618  0.6640  0.4890 -0.1271
  993SOL    HW2 3738   2.500   1.262   1.654  0.9911 -0.7414  3.0263
  993SOL    HW3 3739   2.526   1.113   1.649  2.1543 -0.5429 -1.1188
  993SOL    MW4 3740   2.547   1.195   1.627  0.9038  0.1905  0.1581
  994SOL     OW 3741   3.830   4.152   4.742 -0.1442 -0.1019  0.5334
  994SOL    HW2 3742   3.887   4.143   4.665 -1.8991 -2.6831 -0.5782
  994SOL    HW3 3743   3.777   4.229   4.724 -0.8781 -0.9628 -1.1180
  994SOL    MW4 3744   3.831   4.161   4.730 -0.4726 -0.5560  0.1688
  995SOL     OW 3745   5.486   4.842   2.825  0.3146  0.4646  0.7327
  995SOL    HW2 3746   5.538   4.766   2.800 -1.0210  0.0046 -0.8343
  995SOL    HW3 3747   5.421   4.806   2.886 -1.0952  0.0302 -0.9475
  995SOL    MW4 3748   5.484   4.827   2.830 -0.0476  0.3466  0.3043
  996SOL     OW 3749   1.448   2.755   3.857 -0.4019 -0.1429  0.4042
  996SOL    HW2 3750   1.353   2.759   3.846 -0.4115  2.5397  0.6457
  996SOL    HW3 3751   1.463   2.784   3.948  0.6536  0.3874  0.0861
  996SOL    MW4 3752   1.438   2.760   3.868 -0.2639  0.2810  0.3941
  997SOL     OW 3753   3.557   5.372   1.951  0.1989  0.8973  0.1522
  997SOL    HW2 3754   3.571   5.458   1.991 -0.0767 -0.1025  2.5312
  997SOL    HW3 3755   3.640   5.326   1.964  0.4529  0.8646 -1.3973
  997SOL    MW4 3756   3.570   5.377   1.958  0.1960  0.7611  0.2616
  998SOL     OW 3757   3.996   4.308   2.256  0.1744  0.0264  0.0142
  998SOL    HW2 3758   3.907   4.295   2.223 -0.8998  1.2740  2.2500
  998SOL    HW3 3759   4.026   4.388   2.213 -0.0152 -0.0272 -0.2245
  998SOL    MW4 3760   3.988   4.317   2.246  0.0077  0.1839  0.2777
  999SOL     OW 3761   5.622   0.835   0.143  0.0450 -0.2364 -1.2319
  999SOL    HW2 3762   5.700   0.862   0.192 -1.7737  0.6029  1.3959
  999SOL    HW3 3763   5.615   0.899   0.072 -0.0596  1.7343  0.4783
  999SOL    MW4 3764   5.632   0.847   0.140 -0.2088  0.1344 -0.6596
 1000SOL     OW 3765   5.490   3.215   0.789  0.1940  0.1602 -0.3242
 1000SOL    HW2 3766   5.452   3.255   0.711  0.3542  2.6000  0.7548
 1000SOL    HW3 3767   5.451   3.128   0.793  0.8665 -0.4293 -3.5752
 1000SOL    MW4 3768   5.480   3.209   0.779  0.3038  0.4043 -0.6108
 1001SOL     OW 3769   5.046   0.154   5.032 -0.0422 -0.2380  0.7155
 1001SOL    HW2 3770   5.065   0.208   4.955  2.3625  0.9732  2.0504
 1001SOL    HW3 3771   4.955   0.174   5.054 -0.4067  0.2729 -1.1131
 1001SOL    MW4 3772   5.037   0.164   5.025  0.2270 -0.0108  0.6503
 1002SOL     OW 3773   3.887   6.314   5.794  0.0029  0.1449  0.1472
 1002SOL    HW2 3774   3.886   6.409   5.790  1.7074  0.3044  1.8203
 1002SOL    HW3 3775   3.836   6.293   5.873  0.3529 -0.2538  0.2758
 1002SOL    MW4 3776   3.880   6.324   5.804  0.2740  0.1133  0.3849
 1003SOL     OW 3777   2.538   5.355   4.691  0.0104 -0.2348  0.0793
 1003SOL    HW2 3778   2.543   5.347   4.596 -0.3632 -0.3117  0.0665
 1003SOL    HW3 3779   2.560   5.268   4.724  0.7671 -0.0484  0.0858
 1003SOL    MW4 3780   2.542   5.342   4.683  0.0609 -0.2204  0.0784
 1004SOL     OW 3781   3.507   2.528   3.693 -0.2899 -0.2921  0.9805
 1004SOL    HW2 3782   3.414   2.547   3.704 -0.9346 -3.2910  1.5296
 1004SOL    HW3 3783   3.523   2.543   3.600 -1.7103 -1.1730  0.5684
 1004SOL    MW4 3784   3.497   2.533   3.682 -0.5624 -0.8040  0.9986
 1005SOL     OW 3785   2.522   3.647   3.994 -0.1001  0.0857  0.0952
 1005SOL    HW2 3786   2.533   3.561   3.953  0.9106  0.2747 -0.0743
 1005SOL    HW3 3787   2.491   3.703   3.924 -1.8396 -0.3651  0.4685
 1005SOL    MW4 3788   2.520   3.643   3.979 -0.1962  0.0512  0.1221
 1006SOL     OW 3789   1.411   1.443   0.115 -0.1216  0.2504 -0.1970
 1006SOL    HW2 3790   1.360   1.494   0.053 -1.5529 -1.1027 -0.2053
 1006SOL    HW3 3791   1.388   1.352   0.096  2.1660 -0.4372 -0.0603
 1006SOL    MW4 3792   1.401   1.437   0.104 -0.0087 -0.0188 -0.1801
 1007SOL     OW 3793   3.081   2.786   3.887  0.1139 -0.1985  0.0653
 1007SOL    HW2 3794   3.172   2.770   3.864  0.3764  2.6035 -1.2388
 1007SOL    HW3 3795   3.075   2.881   3.897 -3.0670 -0.0463 -1.8654
 1007SOL    MW4 3796   3.092   2.797   3.885 -0.2711  0.1912 -0.3615
 1008SOL     OW 3797   4.754   6.126   2.354  0.4936  0.2105 -0.2584
 1008SOL    HW2 3798   4.661   6.149   2.357 -0.2581 -1.9267 -3.0195
 1008SOL    HW3 3799   4.772   6.089   2.440 -1.2083  0.6272  0.3245
 1008SOL    MW4 3800   4.744   6.124   2.365  0.1699 -0.0165 -0.5458
 1009SOL     OW 3801   5.705   2.775   0.672 -0.0319 -0.5006 -0.4354
 1009SOL    HW2 3802   5.698   2.689   0.713 -1.6893 -0.4911 -0.6277
 1009SOL    HW3 3803   5.701   2.836   0.745 -0.8267 -0.5451 -0.4339
 1009SOL    MW4 3804   5.704   2.772   0.687 -0.3554 -0.5052 -0.4605
 1010SOL     OW 3805   3.088   4.383   4.924  0.3743 -0.0941  0.7371
 1010SOL    HW2 3806   3.102   4.408   4.833 -3.4440  0.1907  0.0653
 1010SOL    HW3 3807   3.034   4.303   4.920  0.4281 -0.2955  2.7355
 1010SOL    MW4 3808   3.083   4.376   4.912 -0.1224 -0.0831  0.9121
 1011SOL     OW 3809   2.481   6.062   1.921 -0.1502  0.1145 -0.5127
 1011SOL    HW2 3810   2.435   6.140   1.891  0.3103  0.2873 -0.7815
 1011SOL    HW3 3811   2.421   5.990   1.903  0.5832  0.0416 -3.0792
 1011SOL    MW4 3812   2.467   6.062   1.914  0.0073  0.1277 -0.8868
 1012SOL     OW 3813   3.053   6.265   3.897 -0.2470  0.3062 -0.5441
 1012SOL    HW2 3814   3.036   6.359   3.905  1.6724  0.6381 -0.0067
 1012SOL    HW3 3815   2.971   6.224   3.924 -0.8130  1.8035  0.1503
 1012SOL    MW4 3816   3.040   6.272   3.901 -0.0684  0.5476 -0.3816
 1013SOL     OW 3817   5.340   4.546   0.916  0.1451 -0.3700  0.0849
 1013SOL    HW2 3818   5.304   4.539   1.004 -1.0117  2.0666 -0.0995
 1013SOL    HW3 3819   5.288   4.484   0.864  0.0272 -0.9477  0.8707
 1013SOL    MW4 3820   5.329   4.537   0.920 -0.0231 -0.1247  0.1643
 1014SOL     OW 3821   3.894   2.039   1.072 -0.6031 -0.1367  0.0773
 1014SOL    HW2 3822   3.943   2.030   1.154 -0.5539 -0.4222  0.0181
 1014SOL    HW3 3823   3.802   2.034   1.098 -0.5782 -0.8163  0.0487
 1014SOL    MW4 3824   3.889   2.037   1.086 -0.5933 -0.2640  0.0657
 1015SOL     OW 3825   3.926   0.103   5.208  0.3996 -0.5899 -0.4114
 1015SOL    HW2 3826   3.899   0.192   5.232  2.1136  0.0167 -0.5734
 1015SOL    HW3 3827   3.884   0.087   5.124 -1.5114 -0.7338  0.5179
 1015SOL    MW4 3828   3.917   0.113   5.201  0.3736 -0.5288 -0.3102
 1016SOL     OW 3829   0.664   0.688   2.516 -0.2820  0.2057 -0.2772
 1016SOL    HW2 3830   0.734   0.624   2.506  0.9964  1.0138  2.4729
 1016SOL    HW3 3831   0.709   0.771   2.532 -1.7959  0.7450  1.6924
 1016SOL    MW4 3832   0.679   0.691   2.517 -0.3131  0.3835  0.3455
 1017SOL     OW 3833   3.919   5.409   5.168 -0.2999 -0.1037 -0.4602
 1017SOL    HW2 3834   3.907   5.480   5.105 -1.1209 -0.2370 -0.4665
 1017SOL    HW3 3835   3.880   5.333   5.125  0.8536 -0.6386 -0.5836
 1017SOL    MW4 3836   3.912   5.409   5.154 -0.2560 -0.1918 -0.4773
 1018SOL     OW 3837   3.926   0.032   1.463 -0.4644  0.4059 -0.1563
 1018SOL    HW2 3838   4.018   0.008   1.469 -0.6082 -0.0231  0.3351
 1018SOL    HW3 3839   3.903   0.018   1.371 -0.3216 -0.5178 -0.0559
 1018SOL    MW4 3840   3.935   0.027   1.452 -0.4646  0.2274 -0.0782
 1019SOL     OW 3841   1.951   4.015   4.372  0.1546 -0.2056 -0.1883
 1019SOL    HW2 3842   1.997   3.934   4.393  2.9845  1.1680 -0.4949
 1019SOL    HW3 3843   1.955   4.020   4.276 -1.4415 -0.4278 -0.2911
 1019SOL    MW4 3844   1.958   4.005   4.362  0.3174 -0.0537 -0.2423
 1020SOL     OW 3845   4.966   1.585   1.087  0.4591 -0.4239 -0.0448
 1020SOL    HW2 3846   4.894   1.566   1.147  1.0566  0.6382  1.0597
 1020SOL    HW3 3847   4.933   1.558   1.002 -1.0925 -0.3572  0.4897
 1020SOL    MW4 3848   4.952   1.579   1.084  0.3332 -0.2750  0.1714
 1021SOL     OW 3849   3.528   6.332   3.513 -0.5845 -0.0948 -0.0129
 1021SOL    HW2 3850   3.553   6.274   3.585 -0.3034 -1.5349 -1.2477
 1021SOL    HW3 3851   3.544   6.420   3.547  1.0466 -0.7928  1.1249
 1021SOL    MW4 3852   3.533   6.336   3.527 -0.3322 -0.3769 -0.0257
 1022SOL     OW 3853   4.757   3.057   1.612 -0.3047 -0.2809  0.2427
 1022SOL    HW2 3854   4.743   3.008   1.531  0.1892  0.5768 -0.3803
 1022SOL    HW3 3855   4.712   3.006   1.679 -3.5201  0.5563 -1.0832
 1022SOL    MW4 3856   4.749   3.044   1.610 -0.6638 -0.0573 -0.0145
 1023SOL     OW 3857   1.658   0.631   3.140  0.1364 -0.6825 -0.0238
 1023SOL    HW2 3858   1.747   0.598   3.154 -0.0045 -0.8049  0.5956
 1023SOL    HW3 3859   1.660   0.721   3.172  0.0251 -0.7016  0.0370
 1023SOL    MW4 3860   1.670   0.638   3.146  0.1031 -0.7012  0.0660
 1024SOL     OW 3861   4.341   5.218   2.640  0.1800  0.1670  0.1539
 1024SOL    HW2 3862   4.285   5.268   2.581 -1.7957  0.1868  1.9180
 1024SOL    HW3 3863   4.338   5.129   2.606 -0.9093  0.1799  0.1946
 1024SOL    MW4 3864   4.333   5.213   2.627 -0.2244  0.1713  0.3921
 1025SOL     OW 3865   1.574   2.683   1.321  0.2400 -0.9461  0.3346
 1025SOL    HW2 3866   1.487   2.717   1.339  0.8675  2.1581 -1.7472
 1025SOL    HW3 3867   1.559   2.598   1.279 -1.6257 -1.4165  1.8364
 1025SOL    MW4 3868   1.561   2.676   1.318  0.0766 -0.5986  0.2580
 1026SOL     OW 3869   1.056   2.529   5.956 -0.4684 -0.2150 -0.0409
 1026SOL    HW2 3870   0.994   2.541   5.884 -1.7845 -0.5726  0.9865
 1026SOL    HW3 3871   1.007   2.556   6.034  0.6069 -0.7209  0.8330
 1026SOL    MW4 3872   1.041   2.534   5.957 -0.5001 -0.3290  0.2099
 1027SOL     OW 3873   3.720   3.556   0.106 -0.0829  0.1838 -1.1805
 1027SOL    HW2 3874   3.636   3.571   0.062  0.3512  0.4954 -1.9146
 1027SOL    HW3 3875   3.769   3.502   0.044 -0.1480 -0.9505 -0.2733
 1027SOL    MW4 3876   3.715   3.551   0.092 -0.0342  0.0752 -1.1576
 1028SOL     OW 3877   0.960   0.225   2.104  0.2404 -0.0737 -0.2407
 1028SOL    HW2 3878   0.944   0.316   2.075  1.9513 -0.1406 -1.5356
 1028SOL    HW3 3879   1.047   0.205   2.071 -0.3357 -2.4023 -0.4923
 1028SOL    MW4 3880   0.969   0.235   2.096  0.3901 -0.3898 -0.4447
 1029SOL     OW 3881   2.056   4.072   2.703 -0.2559 -0.7651 -0.0131
 1029SOL    HW2 3882   2.133   4.066   2.646 -1.0703  0.7697 -1.3670
 1029SOL    HW3 3883   2.077   4.016   2.778  1.2937 -2.0504 -1.3246
 1029SOL    MW4 3884   2.069   4.063   2.705 -0.1589 -0.7322 -0.3648
 1030SOL     OW 3885   0.365   5.228   5.269 -0.4700 -0.1757  0.3593
 1030SOL    HW2 3886   0.386   5.304   5.323  1.3196  1.5751 -2.5564
 1030SOL    HW3 3887   0.447   5.180   5.261 -0.7366 -0.4970 -0.6305
 1030SOL    MW4 3888   0.378   5.232   5.275 -0.2691  0.0129 -0.1560
 1031SOL     OW 3889   5.472   3.890   2.090 -0.8017 -0.2456  0.1325
 1031SOL    HW2 3890   5.489   3.834   2.014  0.4891 -1.1396  1.0288
 1031SOL    HW3 3891   5.483   3.832   2.165 -0.1977  1.0325  1.0656
 1031SOL    MW4 3892   5.476   3.875   2.090 -0.5517 -0.1949  0.3739
 1032SOL     OW 3893   1.690   5.327   4.701 -0.3881  0.1780 -0.1235
 1032SOL    HW2 3894   1.613   5.290   4.744 -0.8258 -0.8365 -1.7063
 1032SOL    HW3 3895   1.669   5.419   4.690 -1.2623 -0.0316 -0.2899
 1032SOL    MW4 3896   1.677   5.334   4.705 -0.5612  0.0165 -0.3543
 1033SOL     OW 3897   5.471   3.778   3.385  0.4287 -0.7128 -0.2747
 1033SOL    HW2 3898   5.385   3.738   3.403 -0.1344  0.6843  0.2340
 1033SOL    HW3 3899   5.486   3.759   3.293 -0.9757  0.0090 -0.6810
 1033SOL    MW4 3900   5.462   3.770   3.375  0.1691 -0.4333 -0.2612
 1034SOL     OW 3901   4.246   0.130   4.179  0.4268  0.0294  0.3545
 1034SOL    HW2 3902   4.315   0.107   4.241  1.9832  0.6312 -1.0911
 1034SOL    HW3 3903   4.288   0.188   4.116 -1.5431  0.8471 -0.2970
 1034SOL    MW4 3904   4.261   0.134   4.179  0.3723  0.2167  0.0778
 1035SOL     OW 3905   1.044   3.568   4.774 -0.0169 -0.8567  0.3615
 1035SOL    HW2 3906   1.012   3.604   4.857 -1.4260 -1.1851 -0.0134
 1035SOL    HW3 3907   0.991   3.490   4.760  0.7814 -1.2667 -0.4425
 1035SOL    MW4 3908   1.033   3.563   4.783 -0.0975 -0.9542  0.2060
 1036SOL     OW 3909   1.188   4.762   4.083  0.0226  0.0500 -0.1475
 1036SOL    HW2 3910   1.206   4.684   4.135  0.6502  1.1320  1.3667
 1036SOL    HW3 3911   1.272   4.783   4.042  0.1144  0.4268  0.2138
 1036SOL    MW4 3912   1.202   4.755   4.085  0.1175  0.2424  0.0999
 1037SOL     OW 3913   5.106   4.208   2.161  0.2033  0.1046 -0.1619
 1037SOL    HW2 3914   5.094   4.197   2.255 -0.9463 -2.8251 -0.5455
 1037SOL    HW3 3915   5.194   4.174   2.144  0.6883  1.2947 -0.0748
 1037SOL    MW4 3916   5.116   4.202   2.171  0.1156 -0.1249 -0.2010
 1038SOL     OW 3917   5.378   5.811   1.689  0.1103 -0.2365  0.1784
 1038SOL    HW2 3918   5.297   5.809   1.637  0.3911 -0.4528 -0.2618
 1038SOL    HW3 3919   5.389   5.722   1.720  0.2026 -0.2188  0.1965
 1038SOL    MW4 3920   5.369   5.799   1.686  0.1596 -0.2627  0.1227
 1039SOL     OW 3921   4.998   6.002   3.226  0.2821  0.3105 -0.1253
 1039SOL    HW2 3922   4.999   5.915   3.267  1.1114  0.6315  0.5884
 1039SOL    HW3 3923   4.974   5.986   3.135  0.3455 -0.6564  0.0182
 1039SOL    MW4 3924   4.995   5.989   3.220  0.3999  0.2252 -0.0122
 1040SOL     OW 3925   3.551   5.804   4.951  0.2478 -0.3975  0.3979
 1040SOL    HW2 3926   3.546   5.896   4.923  1.1621 -0.6700 -0.7524
 1040SOL    HW3 3927   3.477   5.762   4.908 -0.9901  0.0286  2.0131
 1040SOL    MW4 3928   3.541   5.811   4.941  0.2051 -0.3772  0.4593
 1041SOL     OW 3929   0.981   3.369   2.583 -0.1583  0.0381  0.0737
 1041SOL    HW2 3930   1.067   3.401   2.553 -0.4955  0.3945 -0.5413
 1041SOL    HW3 3931   0.966   3.291   2.531 -0.5981  0.4729 -0.4679
 1041SOL    MW4 3932   0.990   3.363   2.572 -0.2608  0.1425 -0.0789
 1042SOL     OW 3933   2.134   2.699   5.127 -0.0484  0.0971 -0.1268
 1042SOL    HW2 3934   2.192   2.685   5.202  0.1358 -1.4154 -0.5181
 1042SOL    HW3 3935   2.055   2.648   5.147  0.7991 -2.0179 -1.8015
 1042SOL    MW4 3936   2.131   2.690   5.139  0.0877 -0.3815 -0.3994
 1043SOL     OW 3937   3.317   2.137   5.545 -0.6078 -0.5644  0.1175
 1043SOL    HW2 3938   3.253   2.178   5.486 -1.3965 -1.4995  0.2917
 1043SOL    HW3 3939   3.339   2.205   5.608  0.3606  0.5113 -1.3159
 1043SOL    MW4 3940   3.312   2.152   5.545 -0.5841 -0.5459 -0.0487
 1044SOL     OW 3941   3.754   3.052   2.356  0.0294  0.2302  0.1913
 1044SOL    HW2 3942   3.676   3.053   2.300  1.4977  0.8401 -1.9474
 1044SOL    HW3 3943   3.779   3.144   2.365  0.1493  0.0973  1.4207
 1044SOL    MW4 3944   3.747   3.064   2.350  0.2390  0.2931  0.0713
 1045SOL     OW 3945   6.154   3.356   4.578  0.7568 -0.0337 -0.0462
 1045SOL    HW2 3946   6.239   3.393   4.602  0.8423  0.1700 -0.6430
 1045SOL    HW3 3947   6.113   3.334   4.662  1.1066  0.5192  0.2812
 1045SOL    MW4 3948   6.159   3.358   4.592  0.8142  0.0661 -0.0818
 1046SOL     OW 3949   4.611   4.111   3.155  0.0625 -0.0167 -0.2540
 1046SOL    HW2 3950   4.622   4.200   3.186 -0.9984 -0.7191  2.4135
 1046SOL    HW3 3951   4.611   4.057   3.234 -1.1791 -2.1975 -1.6171
 1046SOL    MW4 3952   4.613   4.115   3.169 -0.2413 -0.3971 -0.0819
 1047SOL     OW 3953   2.754   2.442   4.251 -0.6816 -0.8890  0.3290
 1047SOL    HW2 3954   2.661   2.432   4.228 -0.5849 -1.6440  0.2472
 1047SOL    HW3 3955   2.798   2.454   4.167 -0.8502  0.9370  0.4437
 1047SOL    MW4 3956   2.747   2.443   4.237 -0.6911 -0.7477  0.3333
 1048SOL     OW 3957   5.790   4.689   3.427 -0.3156 -0.2041  0.1893
 1048SOL    HW2 3958   5.722   4.678   3.360 -0.5105  0.4100  0.2839
 1048SOL    HW3 3959   5.850   4.616   3.411 -0.5874 -0.3154 -0.3772
 1048SOL    MW4 3960   5.789   4.678   3.416 -0.3771 -0.1378  0.1270
 1049SOL     OW 3961   5.883   1.090   5.641  0.2868 -0.6365 -0.5375
 1049SOL    HW2 3962   5.889   1.046   5.726 -1.4092 -1.5853 -0.8614
 1049SOL    HW3 3963   5.830   1.168   5.658  4.2568  2.1798  0.2923
 1049SOL    MW4 3964   5.877   1.095   5.654  0.5868 -0.3901 -0.4708
 1050SOL     OW 3965   5.879   6.426   4.139 -0.4481 -0.7489 -0.9568
 1050SOL    HW2 3966   5.815   6.356   4.128 -1.6451 -0.2766  2.1252
 1050SOL    HW3 3967   5.858   6.490   4.070 -3.9603 -0.2083  0.4283
 1050SOL    MW4 3968   5.868   6.425   4.128 -1.0694 -0.6153 -0.3674
 1051SOL     OW 3969   1.876   3.142   5.087 -0.0207 -0.4885 -0.3728
 1051SOL    HW2 3970   1.925   3.219   5.115 -0.5700 -0.4802  0.6212
 1051SOL    HW3 3971   1.942   3.074   5.076  0.8544  0.6901 -3.7492
 1051SOL    MW4 3972   1.891   3.143   5.089  0.0223 -0.3319 -0.6871
 1052SOL     OW 3973   3.353   4.727   5.164  0.3046 -0.0197  0.0466
 1052SOL    HW2 3974   3.361   4.684   5.249  0.7862  0.4530  0.2515
 1052SOL    HW3 3975   3.277   4.785   5.173  1.1171  1.0083  0.6162
 1052SOL    MW4 3976   3.344   4.729   5.176  0.4753  0.1783  0.1488
 1053SOL     OW 3977   4.208   2.885   2.140  0.0449  0.0476  0.3066
 1053SOL    HW2 3978   4.200   2.823   2.212 -0.2971 -1.3214 -0.8640
 1053SOL    HW3 3979   4.161   2.963   2.170  0.3449 -0.2991  1.7433
 1053SOL    MW4 3980   4.200   2.887   2.153  0.0394 -0.1788  0.3417
 1054SOL     OW 3981   1.841   2.592   4.164 -0.1506  0.2928  0.0192
 1054SOL    HW2 3982   1.747   2.598   4.181  0.0174 -1.0927  1.7338
 1054SOL    HW3 3983   1.862   2.673   4.117 -1.8632  1.5264  1.2429
 1054SOL    MW4 3984   1.832   2.604   4.160 -0.3544  0.2728  0.4069
 1055SOL     OW 3985   3.615   4.462   3.068  0.2637 -0.5091  0.2798
 1055SOL    HW2 3986   3.676   4.392   3.092  0.2501 -0.6178 -0.0026
 1055SOL    HW3 3987   3.647   4.539   3.115  0.7207 -0.5241 -0.0035
 1055SOL    MW4 3988   3.627   4.463   3.078  0.3222 -0.5254  0.2052
 1056SOL     OW 3989   4.211   1.293   1.377 -0.3122 -0.1834  0.2871
 1056SOL    HW2 3990   4.130   1.326   1.415  0.9154  2.8636  0.4925
 1056SOL    HW3 3991   4.249   1.239   1.446 -2.5363 -2.5265 -0.1705
 1056SOL    MW4 3992   4.205   1.290   1.391 -0.4437 -0.0905  0.2538
 1057SOL     OW 3993   1.113   5.806   1.910  0.3016 -0.4475 -0.0696
 1057SOL    HW2 3994   1.143   5.716   1.926 -0.0453 -0.7127 -0.8739
 1057SOL    HW3 3995   1.054   5.798   1.835  0.8248  0.5521 -0.6042
 1057SOL    MW4 3996   1.109   5.793   1.902  0.3249 -0.3506 -0.2462
 1058SOL     OW 3997   1.670   1.497   2.203 -0.2582  0.1190 -0.1225
 1058SOL    HW2 3998   1.737   1.497   2.271  0.8153 -1.0475 -1.1425
 1058SOL    HW3 3999   1.661   1.589   2.179 -0.7061  0.5744  1.5827
 1058SOL    MW4 4000   1.678   1.509   2.209 -0.1756  0.0252 -0.0321
 1059SOL     OW 4001   1.969   2.901   2.254  0.6359 -0.1996  0.4793
 1059SOL    HW2 4002   2.050   2.881   2.301 -0.7997 -1.9214  2.4023
 1059SOL    HW3 4003   1.925   2.968   2.307  0.5995  0.4619 -0.3562
 1059SOL    MW4 4004   1.974   2.907   2.267  0.4417 -0.3395  0.6228
 1060SOL     OW 4005   1.230   1.111   4.085  0.3865  0.0259  0.6308
 1060SOL    HW2 4006   1.298   1.049   4.111  1.3077  0.6399 -0.2251
 1060SOL    HW3 4007   1.188   1.137   4.167 -0.4019 -2.0970  0.9812
 1060SOL    MW4 4008   1.233   1.106   4.099  0.4041 -0.1732  0.5641
 1061SOL     OW 4009   3.438   0.383   1.290  0.3177 -0.0262  0.0413
 1061SOL    HW2 4010   3.403   0.308   1.242  0.3404  0.1794 -0.2997
 1061SOL    HW3 4011   3.397   0.459   1.249  1.5280  0.2616 -0.7069
 1061SOL    MW4 4012   3.428   0.383   1.278  0.4803  0.0389 -0.1024
 1062SOL     OW 4013   4.199   0.112   5.179  0.1862 -0.8721 -0.0636
 1062SOL    HW2 4014   4.105   0.100   5.192 -0.0712  0.0048 -1.0677
 1062SOL    HW3 4015   4.227   0.164   5.255 -0.1698 -0.9609  0.1330
 1062SOL    MW4 4016   4.190   0.117   5.191  0.1053 -0.7681 -0.1702
 1063SOL     OW 4017   4.714   0.032   3.947 -0.2798 -0.5694  0.4317
 1063SOL    HW2 4018   4.695  -0.061   3.939 -2.4410 -0.2626  1.1272
 1063SOL    HW3 4019   4.727   0.046   4.041 -1.9030  0.1029  0.5884
 1063SOL    MW4 4020   4.713   0.022   3.959 -0.7791 -0.4402  0.5441
 1064SOL     OW 4021   1.399   4.196   0.270 -0.4764 -0.8562 -0.0370
 1064SOL    HW2 4022   1.327   4.154   0.318 -1.9493  1.9807  0.4344
 1064SOL    HW3 4023   1.461   4.222   0.338 -1.3228  0.8593  0.1295
 1064SOL    MW4 4024   1.398   4.194   0.285 -0.7824 -0.2556  0.0471
 1065SOL     OW 4025   2.717   0.360   3.867 -0.0866 -0.0659  0.4054
 1065SOL    HW2 4026   2.715   0.301   3.943  0.7134  1.1124  1.3899
 1065SOL    HW3 4027   2.642   0.333   3.814 -0.1462 -1.5015  1.1659
 1065SOL    MW4 4028   2.707   0.349   3.870  0.0111 -0.0999  0.6356
 1066SOL     OW 4029   5.397   3.277   1.834 -0.1671  0.2174  0.0501
 1066SOL    HW2 4030   5.350   3.285   1.917 -1.2047 -0.6990 -0.4234
 1066SOL    HW3 4031   5.485   3.251   1.858 -0.8840 -1.6168  0.8187
 1066SOL    MW4 4032   5.402   3.275   1.848 -0.3986 -0.1455  0.0890
 1067SOL     OW 4033   2.454   0.305   2.854 -0.4969  0.3079  0.2665
 1067SOL    HW2 4034   2.506   0.273   2.780 -0.7093 -0.8500  0.5970
 1067SOL    HW3 4035   2.507   0.375   2.892  1.0628 -1.1250  0.8594
 1067SOL    MW4 4036   2.468   0.310   2.849 -0.3191 -0.0339  0.3884
 1068SOL     OW 4037   1.916   3.171   4.699 -0.0766 -0.0544  0.3886
 1068SOL    HW2 4038   1.855   3.245   4.705 -1.1805 -0.9195  0.1932
 1068SOL    HW3 4039   1.884   3.108   4.764 -0.3572 -1.1708 -0.7779
 1068SOL    MW4 4040   1.903   3.173   4.708 -0.2593 -0.3158  0.2090
 1069SOL     OW 4041   5.320   2.544   3.538  0.4292  0.1605  0.2467
 1069SOL    HW2 4042   5.300   2.636   3.552  1.4812  0.6033 -0.9837
 1069SOL    HW3 4043   5.234   2.501   3.538  0.0002  0.9187  2.0612
 1069SOL    MW4 4044   5.306   2.550   3.540  0.5114  0.3190  0.3238
 1070SOL     OW 4045   1.078   6.276   3.365 -0.0546  0.5791 -0.3999
 1070SOL    HW2 4046   1.063   6.369   3.347 -0.5636  0.1388 -2.5712
 1070SOL    HW3 4047   1.072   6.234   3.279  0.8915 -1.3786  0.4286
 1070SOL    MW4 4048   1.076   6.282   3.351  0.0031  0.2627 -0.5770
 1071SOL     OW 4049   3.718   2.006   4.763  0.1952 -0.2158  0.1791
 1071SOL    HW2 4050   3.739   1.950   4.838 -1.7647  1.4784  2.1667
 1071SOL    HW3 4051   3.630   2.040   4.783  0.0752  1.2198 -2.3521
 1071SOL    MW4 4052   3.709   2.003   4.775 -0.0792  0.1972  0.1074
 1072SOL     OW 4053   1.595   3.400   3.606  0.3802 -0.1914  0.3441
 1072SOL    HW2 4054   1.640   3.481   3.631  0.6641 -0.1712 -0.2244
 1072SOL    HW3 4055   1.509   3.407   3.647  0.6289  0.1038  0.8364
 1072SOL    MW4 4056   1.590   3.412   3.615  0.4505 -0.1498  0.3340
 1073SOL     OW 4057   3.155   6.077   0.607  0.1393 -0.6113  0.1944
 1073SOL    HW2 4058   3.177   6.088   0.699  0.0100  1.3151  0.0374
 1073SOL    HW3 4059   3.232   6.108   0.559 -0.0197 -1.0381 -0.3576
 1073SOL    MW4 4060   3.168   6.082   0.612  0.1013 -0.4134  0.1009
 1074SOL     OW 4061   2.153   3.606   2.840 -0.5533  0.3715  0.1238
 1074SOL    HW2 4062   2.138   3.700   2.845 -0.8431  0.3795 -0.7178
 1074SOL    HW3 4063   2.081   3.567   2.889 -0.4488  0.5897  0.4488
 1074SOL    MW4 4064   2.142   3.613   2.847 -0.5777  0.4014  0.0556
 1075SOL     OW 4065   1.531   0.616   5.983  0.1422  0.4677  0.7561
 1075SOL    HW2 4066   1.528   0.657   5.896 -0.5922 -2.7298 -0.8793
 1075SOL    HW3 4067   1.441   0.590   6.000  0.5290 -0.2596  1.7817
 1075SOL    MW4 4068   1.519   0.618   5.974  0.0964 -0.0501  0.6756
 1076SOL     OW 4069   0.189   1.748   4.900  0.0019 -0.1764 -0.0369
 1076SOL    HW2 4070   0.108   1.697   4.891 -1.4724  2.0512 -0.0998
 1076SOL    HW3 4071   0.168   1.814   4.966  2.2104 -0.2949  0.8504
 1076SOL    MW4 4072   0.176   1.750   4.908  0.0988  0.1018  0.0718
 1077SOL     OW 4073   1.788   6.072   0.007  0.5095 -0.5270  0.2991
 1077SOL    HW2 4074   1.811   6.015   0.080 -1.2233 -1.9838 -0.1927
 1077SOL    HW3 4075   1.833   6.034  -0.069  1.2313  0.1830  0.3612
 1077SOL    MW4 4076   1.797   6.059   0.006  0.3761 -0.6256  0.2424
 1078SOL     OW 4077   4.342   3.359   6.230  0.3759  0.1606 -0.1482
 1078SOL    HW2 4078   4.357   3.304   6.154  0.6146 -1.2547  0.8815
 1078SOL    HW3 4079   4.248   3.375   6.231  0.4596  0.8133 -1.1260
 1078SOL    MW4 4080   4.332   3.354   6.220  0.4184  0.0600 -0.1413
 1079SOL     OW 4081   2.642   3.247   0.074  0.0625 -0.4043 -0.5264
 1079SOL    HW2 4082   2.653   3.251  -0.021  0.4769  0.0464 -0.4639
 1079SOL    HW3 4083   2.554   3.280   0.089  0.0031 -0.4578 -0.7512
 1079SOL    MW4 4084   2.632   3.252   0.064  0.1093 -0.3519 -0.5478
 1080SOL     OW 4085   0.666   3.881   0.343  0.4552 -0.8029 -0.1658
 1080SOL    HW2 4086   0.601   3.951   0.343  0.9978 -0.2184 -2.5884
 1080SOL    HW3 4087   0.671   3.853   0.434 -1.5879  0.6081  0.4465
 1080SOL    MW4 4088   0.658   3.886   0.355  0.2572 -0.5396 -0.4046
 1081SOL     OW 4089   3.389   4.168   3.971 -0.0259  0.2276 -0.4215
 1081SOL    HW2 4090   3.393   4.130   3.884 -0.3756  2.3726 -1.4493
 1081SOL    HW3 4091   3.312   4.225   3.970  1.7178  2.8124  0.1037
 1081SOL    MW4 4092   3.380   4.171   3.959  0.1580  0.8516 -0.4878
 1082SOL     OW 4093   1.340   4.796   4.627 -0.2134  0.4807  0.3181
 1082SOL    HW2 4094   1.367   4.860   4.561  2.3763 -0.3827  0.4082
 1082SOL    HW3 4095   1.264   4.752   4.589  0.0516  1.3058 -1.2490
 1082SOL    MW4 4096   1.334   4.798   4.614  0.1633  0.4756  0.1232
 1083SOL     OW 4097   2.966   3.567   1.758 -0.0278  0.2993  0.4467
 1083SOL    HW2 4098   3.036   3.558   1.823  1.2711  1.2000 -0.7576
 1083SOL    HW3 4099   3.012   3.569   1.674 -1.4256  1.7666 -0.3313
 1083SOL    MW4 4100   2.982   3.566   1.756 -0.0408  0.6117  0.1852
 1084SOL     OW 4101   4.598   2.127   0.860 -0.6917 -0.2058 -0.3241
 1084SOL    HW2 4102   4.672   2.072   0.886 -1.2114 -0.6147  0.3257
 1084SOL    HW3 4103   4.624   2.215   0.884 -0.7703 -0.4609  0.7525
 1084SOL    MW4 4104   4.611   2.131   0.867 -0.7706 -0.2934 -0.0963
 1085SOL     OW 4105   2.967   2.839   0.172 -0.2700 -0.3378 -0.0413
 1085SOL    HW2 4106   3.028   2.906   0.202 -1.8039  1.2791 -0.3520
 1085SOL    HW3 4107   2.886   2.887   0.153 -1.5540 -2.3470  0.0648
 1085SOL    MW4 4108   2.964   2.854   0.173 -0.6418 -0.3896 -0.0683
 1086SOL     OW 4109   2.011   2.269   6.332  0.1143  0.3145 -0.3605
 1086SOL    HW2 4110   1.931   2.233   6.371  0.8552 -0.3071  0.6276
 1086SOL    HW3 4111   1.979   2.325   6.260 -1.2558  0.8716  0.6270
 1086SOL    MW4 4112   1.996   2.272   6.328  0.0313  0.3060 -0.0998
 1087SOL     OW 4113   3.580   5.630   4.559 -0.2947  0.0894 -0.1381
 1087SOL    HW2 4114   3.670   5.597   4.570 -0.4762 -0.4162 -0.1368
 1087SOL    HW3 4115   3.588   5.724   4.571  0.2236  0.0390 -0.0334
 1087SOL    MW4 4116   3.593   5.638   4.562 -0.2503  0.0160 -0.1241
 1088SOL     OW 4117   5.834   2.583   2.472  0.0629 -0.2883 -0.0181
 1088SOL    HW2 4118   5.741   2.559   2.475  0.3399 -1.3778  0.2688
 1088SOL    HW3 4119   5.840   2.646   2.400 -0.9387 -0.0091  0.1277
 1088SOL    MW4 4120   5.822   2.588   2.463 -0.0327 -0.3952  0.0390
 1089SOL     OW 4121   1.670   5.190   2.182  0.3458 -0.6815  0.3716
 1089SOL    HW2 4122   1.601   5.255   2.191  0.5479 -0.4114 -0.0275
 1089SOL    HW3 4123   1.751   5.237   2.200  0.6324 -0.4589 -1.3323
 1089SOL    MW4 4124   1.672   5.205   2.185  0.4103 -0.6165  0.0941
 1090SOL     OW 4125   2.429   5.870   5.515 -0.0619 -0.1781 -0.6884
 1090SOL    HW2 4126   2.404   5.888   5.605 -2.2391 -3.3033 -0.5260
 1090SOL    HW3 4127   2.519   5.837   5.521 -0.2913 -0.6417  0.3494
 1090SOL    MW4 4128   2.438   5.868   5.527 -0.3794 -0.6516 -0.5301
 1091SOL     OW 4129   2.091   2.988   5.108  0.2131 -0.2708  0.2475
 1091SOL    HW2 4130   2.155   3.023   5.169  3.2196 -0.8694 -2.3014
 1091SOL    HW3 4131   2.077   2.897   5.136  0.0619  0.0023  1.0872
 1091SOL    MW4 4132   2.097   2.981   5.120  0.5899 -0.3138  0.0220
 1092SOL     OW 4133   4.589   0.106   2.422  0.4622  0.0130  0.7859
 1092SOL    HW2 4134   4.604   0.088   2.329 -0.2011  0.8749  0.5018
 1092SOL    HW3 4135   4.668   0.074   2.466  0.5837 -0.8191 -0.0142
 1092SOL    MW4 4136   4.601   0.099   2.416  0.3907  0.0170  0.6429
 1093SOL     OW 4137   4.484   1.637   1.876 -0.4503  0.1131 -0.6976
 1093SOL    HW2 4138   4.570   1.670   1.850 -0.5482 -0.9892 -2.6424
 1093SOL    HW3 4139   4.430   1.648   1.797 -1.7426 -0.3854  0.0907
 1093SOL    MW4 4140   4.488   1.643   1.862 -0.6337 -0.0981 -0.8502
 1094SOL     OW 4141   3.306   1.042   2.969  0.7216  0.4615  0.5521
 1094SOL    HW2 4142   3.303   1.048   2.874  0.4058  0.8481  0.5858
 1094SOL    HW3 4143   3.397   1.018   2.989  1.0346  1.3214  0.2021
 1094SOL    MW4 4144   3.318   1.039   2.959  0.7213  0.6259  0.5103
 1095SOL     OW 4145   5.031   5.150   0.614  0.4045  0.3148 -0.4183
 1095SOL    HW2 4146   5.032   5.205   0.693  0.3315  0.8974 -0.8198
 1095SOL    HW3 4147   5.048   5.210   0.542  0.0235 -0.1425 -0.9005
 1095SOL    MW4 4148   5.033   5.165   0.615  0.3446  0.3313 -0.5349
 1096SOL     OW 4149   1.298   4.171   1.895  0.3940 -0.0027  0.6454
 1096SOL    HW2 4150   1.280   4.265   1.886 -0.5312 -0.2654 -0.3846
 1096SOL    HW3 4151   1.217   4.133   1.929 -0.0779 -0.7486 -1.1781
 1096SOL    MW4 4152   1.285   4.178   1.898  0.2096 -0.1358  0.2689
 1097SOL     OW 4153   4.263   3.582   5.262 -0.1563 -0.5071  0.0174
 1097SOL    HW2 4154   4.207   3.595   5.339 -0.9619 -0.7430 -0.5122
 1097SOL    HW3 4155   4.314   3.504   5.282  0.5295  0.1298  0.8147
 1097SOL    MW4 4156   4.262   3.574   5.275 -0.1721 -0.4542  0.0527
 1098SOL     OW 4157   0.938   2.948   2.085  0.1790 -0.1194  0.2189
 1098SOL    HW2 4158   0.927   2.853   2.084  1.4190 -0.2946 -1.5148
 1098SOL    HW3 4159   0.974   2.969   1.999 -0.8034  2.0343  0.2710
 1098SOL    MW4 4160   0.941   2.938   2.073  0.2130  0.1416 -0.0030
 1099SOL     OW 4161   2.121   2.435   4.663  0.2696 -0.2967 -0.0956
 1099SOL    HW2 4162   2.191   2.450   4.600  0.7057 -0.4862  0.3328
 1099SOL    HW3 4163   2.087   2.523   4.682 -0.1895 -0.2859 -0.9475
 1099SOL    MW4 4164   2.126   2.449   4.658  0.2666 -0.3203 -0.1515
 1100SOL     OW 4165   5.878   3.122   1.216 -0.4592 -0.1813  0.1640
 1100SOL    HW2 4166   5.797   3.100   1.170 -1.7285  1.4806  1.4542
 1100SOL    HW3 4167   5.867   3.086   1.303  0.7655 -0.9998  0.0101
 1100SOL    MW4 4168   5.866   3.114   1.221 -0.4651 -0.0701  0.3139
 1101SOL     OW 4169   0.519   4.920   0.206 -0.1562 -0.5156 -0.2782
 1101SOL    HW2 4170   0.475   4.993   0.250 -0.7168  0.3669 -2.1938
 1101SOL    HW3 4171   0.612   4.940   0.212 -0.3134  0.4348 -0.8688
 1101SOL    MW4 4172   0.526   4.932   0.212 -0.2509 -0.2738 -0.6089
 1102SOL     OW 4173   2.558   0.077   1.456 -0.0207 -0.4313 -0.7021
 1102SOL    HW2 4174   2.629   0.110   1.400  0.9244  0.0298  0.7221
 1102SOL    HW3 4175   2.480   0.121   1.423  0.8504  1.5019 -0.3466
 1102SOL    MW4 4176   2.557   0.087   1.444  0.2190 -0.1154 -0.4673
 1103SOL     OW 4177   5.550   5.280   2.928 -0.2549 -0.4555  0.2482
 1103SOL    HW2 4178   5.549   5.368   2.965 -0.8917 -0.7315  0.9052
 1103SOL    HW3 4179   5.541   5.294   2.834 -0.4845  0.1759  0.3563
 1103SOL    MW4 4180   5.549   5.294   2.921 -0.3692 -0.4086  0.3491
 1104SOL     OW 4181   3.235   5.930   1.044 -0.3742  0.0461  0.1854
 1104SOL    HW2 4182   3.142   5.939   1.065 -0.7743  1.3279 -1.8349
 1104SOL    HW3 4183   3.280   5.980   1.112 -1.3779  1.6519 -0.2834
 1104SOL    MW4 4184   3.229   5.938   1.056 -0.5594  0.4271 -0.1430
 1105SOL     OW 4185   1.557   2.897   5.208  0.7527  0.1236  0.3030
 1105SOL    HW2 4186   1.510   2.942   5.138 -1.0300 -0.5415  1.0201
 1105SOL    HW3 4187   1.642   2.875   5.170 -0.3739 -0.7533 -1.8598
 1105SOL    MW4 4188   1.562   2.900   5.194  0.3689 -0.0799  0.1122
 1106SOL     OW 4189   3.098   0.986   1.473 -0.2933  0.1564 -0.5723
 1106SOL    HW2 4190   3.068   1.014   1.559  2.7159 -0.2746  0.7230
 1106SOL    HW3 4191   3.129   1.067   1.431  1.0192 -0.0186  0.0039
 1106SOL    MW4 4192   3.098   1.000   1.479  0.2769  0.0764 -0.3253
 1107SOL     OW 4193   6.089   0.251   1.918  0.2536 -0.5115  0.4569
 1107SOL    HW2 4194   6.122   0.336   1.949  0.2551  0.2862 -1.5964
 1107SOL    HW3 4195   6.006   0.272   1.875 -0.7080 -1.8576  1.5383
 1107SOL    MW4 4196   6.082   0.265   1.916  0.1269 -0.5839  0.3287
 1108SOL     OW 4197   1.564   1.609   5.914 -0.0048 -0.3017 -0.2869
 1108SOL    HW2 4198   1.540   1.539   5.976  0.9167 -0.0772  0.3461
 1108SOL    HW3 4199   1.537   1.690   5.958 -0.5318 -0.2137 -0.7622
 1108SOL    MW4 4200   1.557   1.610   5.928  0.0473 -0.2604 -0.2661
 1109SOL     OW 4201   2.912   2.143   4.753  0.1194  0.0451  0.5409
 1109SOL    HW2 4202   2.989   2.181   4.796  0.6012 -0.8719  0.5089
 1109SOL    HW3 4203   2.941   2.129   4.663 -0.1013 -0.2630  0.5191
 1109SOL    MW4 4204   2.926   2.147   4.747  0.1538 -0.1165  0.5338
 1110SOL     OW 4205   3.883   2.377   3.624 -0.2634  0.3563  0.6784
 1110SOL    HW2 4206   3.851   2.379   3.715  1.9190  1.5091  1.4909
 1110SOL    HW3 4207   3.920   2.290   3.613 -2.5263 -0.6121  0.0742
 1110SOL    MW4 4208   3.883   2.366   3.634 -0.2740  0.3806  0.7059
 1111SOL     OW 4209   3.501   4.148   1.995 -0.5995  0.0494 -0.9119
 1111SOL    HW2 4210   3.555   4.221   1.966 -0.6665  0.5994  0.2621
 1111SOL    HW3 4211   3.493   4.161   2.090  1.0846 -2.6107 -0.3094
 1111SOL    MW4 4212   3.507   4.160   2.004 -0.3861 -0.2290 -0.6775
 1112SOL     OW 4213   4.778   5.859   1.349 -0.1776  0.2065 -0.0099
 1112SOL    HW2 4214   4.814   5.925   1.290  0.5958 -0.8681 -0.7754
 1112SOL    HW3 4215   4.745   5.909   1.423  3.4639  1.2595  1.0819
 1112SOL    MW4 4216   4.778   5.874   1.351  0.4049  0.2036  0.0332
 1113SOL     OW 4217   5.035   1.295   4.825  0.3939  0.2134  0.0910
 1113SOL    HW2 4218   5.099   1.229   4.854  1.2065  0.5032 -1.0055
 1113SOL    HW3 4219   4.998   1.328   4.907  0.8730 -0.7141  0.7132
 1113SOL    MW4 4220   5.039   1.291   4.840  0.5643  0.1292  0.0284
 1114SOL     OW 4221   6.309   3.138   5.323  0.0871  0.5163  0.6962
 1114SOL    HW2 4222   6.238   3.172   5.268 -0.4401 -0.0132  1.0373
 1114SOL    HW3 4223   6.270   3.065   5.371  0.5242  0.9706  1.7876
 1114SOL    MW4 4224   6.295   3.133   5.322  0.0752  0.5064  0.8852
 1115SOL     OW 4225   3.592   2.047   3.109 -0.1371  0.3429  0.0266
 1115SOL    HW2 4226   3.592   2.016   3.019  0.0614 -0.4452  0.2897
 1115SOL    HW3 4227   3.546   2.131   3.105 -0.7127  0.0087 -0.7039
 1115SOL    MW4 4228   3.586   2.054   3.097 -0.1868  0.1948 -0.0351
 1116SOL     OW 4229   2.490   6.170   4.836 -0.0882  0.2183 -0.5310
 1116SOL    HW2 4230   2.475   6.245   4.778  1.0676  1.0211  0.1621
 1116SOL    HW3 4231   2.473   6.204   4.924  0.9526 -0.1579 -0.1640
 1116SOL    MW4 4232   2.486   6.185   4.840  0.2016  0.2746 -0.3911
 1117SOL     OW 4233   6.235   1.415   1.591 -1.2916 -0.3530  0.4469
 1117SOL    HW2 4234   6.171   1.403   1.661 -0.3453 -0.7678  1.2549
 1117SOL    HW3 4235   6.235   1.331   1.544 -0.1909 -0.9459  1.4464
 1117SOL    MW4 4236   6.227   1.402   1.594 -1.0215 -0.4860  0.6854
 1118SOL     OW 4237   5.247   0.743   6.367 -0.6792 -0.2991  0.0806
 1118SOL    HW2 4238   5.184   0.804   6.406  0.1474 -0.0699  1.0980
 1118SOL    HW3 4239   5.193   0.678   6.323 -1.5959  1.0945 -0.9516
 1118SOL    MW4 4240   5.232   0.743   6.367 -0.6911 -0.0850  0.0787
 1119SOL     OW 4241   0.578   0.251   3.179  0.2059  0.0429  0.5406
 1119SOL    HW2 4242   0.564   0.180   3.242 -0.9653 -1.4568 -1.3028
 1119SOL    HW3 4243   0.497   0.300   3.179  0.6914  0.8679  1.1479
 1119SOL    MW4 4244   0.566   0.248   3.187  0.1154 -0.0461  0.3775
 1120SOL     OW 4245   2.627   4.076   2.235 -0.3232  0.5412 -0.6257
 1120SOL    HW2 4246   2.608   4.141   2.168  0.6359  0.9953 -0.4762
 1120SOL    HW3 4247   2.572   4.101   2.309  0.3689  1.4885 -0.4009
 1120SOL    MW4 4248   2.617   4.088   2.236 -0.1054  0.7261 -0.5763
 1121SOL     OW 4249   4.093   2.545   2.176 -0.4789 -0.3902  0.0812
 1121SOL    HW2 4250   4.152   2.471   2.191 -1.1676 -1.0586 -0.4367
 1121SOL    HW3 4251   4.030   2.512   2.112  0.7880  1.4989 -2.2871
 1121SOL    MW4 4252   4.092   2.531   2.170 -0.4026 -0.2291 -0.2996
 1122SOL     OW 4253   3.219   1.715   2.511 -0.3742 -0.0965 -0.3330
 1122SOL    HW2 4254   3.127   1.706   2.537  0.6771 -0.4570  4.0868
 1122SOL    HW3 4255   3.231   1.648   2.444 -2.3163 -3.6433  2.4625
 1122SOL    MW4 4256   3.208   1.705   2.505 -0.4918 -0.6120  0.6189
 1123SOL     OW 4257   1.135   0.553   0.494 -0.1243  0.1822  0.3684
 1123SOL    HW2 4258   1.116   0.582   0.404  0.1995 -1.3475 -0.2257
 1123SOL    HW3 4259   1.165   0.462   0.484 -1.5199 -0.5345  2.1607
 1123SOL    MW4 4260   1.137   0.545   0.480 -0.2657 -0.1142  0.5265
 1124SOL     OW 4261   1.446   2.063   1.331  0.4621  0.1340 -0.1197
 1124SOL    HW2 4262   1.358   2.030   1.311  0.3433  1.1290 -1.3561
 1124SOL    HW3 4263   1.502   1.986   1.328 -0.3194 -0.4775  0.4481
 1124SOL    MW4 4264   1.442   2.049   1.328  0.3433  0.1846 -0.2079
 1125SOL     OW 4265   5.089   3.992   6.043 -0.2593 -0.6402 -0.3191
 1125SOL    HW2 4266   5.092   3.943   6.125  1.6316 -1.4060 -0.7767
 1125SOL    HW3 4267   5.020   4.057   6.056 -0.2315 -0.9543  1.7446
 1125SOL    MW4 4268   5.080   3.994   6.055 -0.0062 -0.7826 -0.1072
 1126SOL     OW 4269   2.664   0.568   5.938 -0.1234  0.0183 -0.2391
 1126SOL    HW2 4270   2.680   0.543   6.029 -0.8174 -0.4608 -0.2382
 1126SOL    HW3 4271   2.730   0.519   5.888 -2.0516 -2.6798 -0.3298
 1126SOL    MW4 4272   2.675   0.558   5.943 -0.4694 -0.4009 -0.2509
 1127SOL     OW 4273   2.802   5.044   4.575  0.1093  0.0974  0.5651
 1127SOL    HW2 4274   2.793   5.138   4.560 -0.6786  0.3465  2.3108
 1127SOL    HW3 4275   2.896   5.031   4.586  0.5597  0.1562 -2.4198
 1127SOL    MW4 4276   2.813   5.055   4.574  0.0648  0.1380  0.4016
 1128SOL     OW 4277   5.763   4.640   1.685 -0.1974 -0.0265  0.4148
 1128SOL    HW2 4278   5.824   4.581   1.641  1.8634  0.0606  2.9269
 1128SOL    HW3 4279   5.713   4.583   1.743 -1.6840  0.0882 -0.7014
 1128SOL    MW4 4280   5.764   4.625   1.687 -0.1216  0.0001  0.5990
 1129SOL     OW 4281   4.389   1.847   2.962 -0.0417 -0.0273 -0.3064
 1129SOL    HW2 4282   4.475   1.806   2.972 -0.8142 -1.9724 -1.0543
 1129SOL    HW3 4283   4.407   1.941   2.962  2.0598 -0.3747 -0.3710
 1129SOL    MW4 4284   4.403   1.854   2.963  0.1336 -0.3297 -0.4136
 1130SOL     OW 4285   0.730   5.294   0.807  0.1733 -0.2032  0.8567
 1130SOL    HW2 4286   0.802   5.268   0.749  0.0321 -1.9547  1.3925
 1130SOL    HW3 4287   0.773   5.310   0.891 -0.0933 -1.9396  1.3633
 1130SOL    MW4 4288   0.745   5.292   0.811  0.1195 -0.6634  0.9942
 1131SOL     OW 4289   3.889   5.509   4.875 -0.0457  0.1672  0.1176
 1131SOL    HW2 4290   3.913   5.601   4.881  1.0255 -0.1728  1.9844
 1131SOL    HW3 4291   3.795   5.509   4.856 -0.4982  1.6695  2.0788
 1131SOL    MW4 4292   3.880   5.521   4.873  0.0359  0.3205  0.6227
 1132SOL     OW 4293   0.505   2.428   0.986 -0.3761  0.0794 -0.3998
 1132SOL    HW2 4294   0.559   2.353   1.011  0.4098 -0.1474 -2.5588
 1132SOL    HW3 4295   0.550   2.466   0.911 -2.1526  1.1411 -0.9918
 1132SOL    MW4 4296   0.518   2.423   0.979 -0.5068  0.1896 -0.7628
 1133SOL     OW 4297   2.958   5.548   4.200 -0.2021  0.0386  0.1764
 1133SOL    HW2 4298   2.875   5.575   4.161 -0.2156  0.0350  0.2028
 1133SOL    HW3 4299   3.023   5.568   4.133 -0.3218 -0.7259 -0.1802
 1133SOL    MW4 4300   2.956   5.554   4.186 -0.2197 -0.0627  0.1329
 1134SOL     OW 4301   1.974   0.748   2.348  0.0076  0.4362 -0.1619
 1134SOL    HW2 4302   1.993   0.807   2.421 -0.4971  0.3908  0.0084
 1134SOL    HW3 4303   1.906   0.690   2.381 -1.0350  1.1183 -1.0162
 1134SOL    MW4 4304   1.968   0.749   2.362 -0.1966  0.5202 -0.2522
 1135SOL     OW 4305   5.449   4.381   5.506  0.3227 -0.0249  0.2512
 1135SOL    HW2 4306   5.392   4.458   5.509  0.1141 -0.1048 -0.9427
 1135SOL    HW3 4307   5.536   4.416   5.523  0.0968  0.3160  0.7333
 1135SOL    MW4 4308   5.453   4.396   5.509  0.2654  0.0095  0.1573
 1136SOL     OW 4309   3.348   0.013   1.884 -0.5781  0.3881  0.5430
 1136SOL    HW2 4310   3.376  -0.073   1.852 -1.8465 -0.7328  2.2492
 1136SOL    HW3 4311   3.418   0.041   1.943  1.1022  1.8311 -1.9258
 1136SOL    MW4 4312   3.361   0.005   1.887 -0.5238  0.4306  0.4424
 1137SOL     OW 4313   4.028   3.863   2.903 -0.1512  0.0429  0.3408
 1137SOL    HW2 4314   4.109   3.912   2.897 -0.9922  1.8880  2.5853
 1137SOL    HW3 4315   4.040   3.804   2.978 -0.4596 -0.5377 -0.0570
 1137SOL    MW4 4316   4.040   3.862   2.912 -0.3028  0.2097  0.5845
 1138SOL     OW 4317   3.013   0.171   6.112 -0.2320 -0.5916 -0.5464
 1138SOL    HW2 4318   2.973   0.235   6.170 -0.3841 -1.5652  0.4553
 1138SOL    HW3 4319   2.961   0.176   6.032 -0.6631  0.0530 -0.2322
 1138SOL    MW4 4320   3.001   0.180   6.109 -0.3089 -0.6350 -0.3728
 1139SOL     OW 4321   2.574   4.763   4.694  0.3555 -0.2381 -0.0294
 1139SOL    HW2 4322   2.505   4.829   4.699  1.1616  0.5450  1.2590
 1139SOL    HW3 4323   2.533   4.683   4.727  0.0411  0.2138  0.7151
 1139SOL    MW4 4324   2.560   4.761   4.699  0.4204 -0.0751  0.2388
 1140SOL     OW 4325   0.118   5.579   5.138 -0.0202  0.0158  0.0424
 1140SOL    HW2 4326   0.028   5.550   5.126  0.0718 -0.6260  0.8869
 1140SOL    HW3 4327   0.129   5.648   5.072 -1.1820  0.2407  0.0571
 1140SOL    MW4 4328   0.108   5.584   5.127 -0.1614 -0.0392  0.1558
 1141SOL     OW 4329   0.986   1.679   0.395  0.4834  0.2867  0.3364
 1141SOL    HW2 4330   0.916   1.731   0.432 -0.7285 -0.1730 -1.2012
 1141SOL    HW3 4331   0.976   1.593   0.435 -0.2877  0.0298 -0.3760
 1141SOL    MW4 4332   0.976   1.674   0.405  0.2218  0.1921  0.0395
 1142SOL     OW 4333   0.579   1.261   3.138  0.2648  0.1090  0.1428
 1142SOL    HW2 4334   0.495   1.283   3.099 -1.7238 -2.6083  2.4634
 1142SOL    HW3 4335   0.628   1.344   3.139 -2.8133  2.0792 -0.2455
 1142SOL    MW4 4336   0.575   1.275   3.133 -0.4037  0.0104  0.3977
 1143SOL     OW 4337   0.107   5.283   4.892  0.8053  0.6415 -0.4215
 1143SOL    HW2 4338   0.105   5.206   4.837  0.3832  0.8842 -0.7536
 1143SOL    HW3 4339   0.016   5.298   4.917  0.8765  1.0486 -0.3846
 1143SOL    MW4 4340   0.095   5.275   4.888  0.7590  0.7273 -0.4605
 1144SOL     OW 4341   5.025   4.568   3.370  0.2765  0.0700 -0.1746
 1144SOL    HW2 4342   5.034   4.634   3.440 -0.8622 -0.8578  0.8994
 1144SOL    HW3 4343   4.978   4.496   3.412  1.4305 -1.4189 -1.3390
 1144SOL    MW4 4344   5.020   4.567   3.385  0.2785 -0.2489 -0.1865
 1145SOL     OW 4345   4.802   5.742   0.962 -0.2272  0.3238  0.1611
 1145SOL    HW2 4346   4.710   5.723   0.978 -1.1362  2.9216 -1.2183
 1145SOL    HW3 4347   4.815   5.722   0.869  0.5880  0.0327  0.3277
 1145SOL    MW4 4348   4.792   5.737   0.952 -0.2396  0.6282  0.0011
 1146SOL     OW 4349   4.690   6.027   0.077  0.3129  0.2411  0.0335
 1146SOL    HW2 4350   4.759   6.093   0.078 -2.3910  3.3257 -1.0303
 1146SOL    HW3 4351   4.663   6.019   0.168  3.0370 -2.3257  0.7663
 1146SOL    MW4 4352   4.695   6.034   0.089  0.3156  0.3094 -0.0102
 1147SOL     OW 4353   4.055   4.520   0.009 -0.5717  0.1664  0.1805
 1147SOL    HW2 4354   4.053   4.584  -0.062  0.6810 -0.8313 -0.8125
 1147SOL    HW3 4355   4.043   4.436  -0.035 -0.0470 -0.4566  1.1821
 1147SOL    MW4 4356   4.053   4.517  -0.006 -0.3372 -0.0475  0.1816
 1148SOL     OW 4357   3.880   5.188   5.460  0.5292 -0.4717  0.3257
 1148SOL    HW2 4358   3.816   5.234   5.406  0.5168 -1.0492 -0.1584
 1148SOL    HW3 4359   3.876   5.232   5.545 -2.3141 -2.0217  1.1288
 1148SOL    MW4 4360   3.871   5.200   5.464  0.1524 -0.7524  0.3678
 1149SOL     OW 4361   2.041   3.728   6.036 -0.1369 -0.3597  0.2396
 1149SOL    HW2 4362   1.995   3.746   5.954  0.5256  0.1590 -0.0289
 1149SOL    HW3 4363   2.127   3.698   6.008 -0.1622 -0.9089  0.7431
 1149SOL    MW4 4364   2.046   3.727   6.021 -0.0528 -0.3637  0.2706
 1150SOL     OW 4365   2.151   0.045   4.057 -0.9289  0.4268 -0.0155
 1150SOL    HW2 4366   2.126   0.125   4.011 -0.8011  0.2886 -0.3302
 1150SOL    HW3 4367   2.118   0.057   4.146 -2.7365 -0.0551 -0.5881
 1150SOL    MW4 4368   2.143   0.058   4.062 -1.1505  0.3450 -0.1325
 1151SOL     OW 4369   5.831   4.330   2.193  0.2384  0.1459  0.0027
 1151SOL    HW2 4370   5.873   4.406   2.234 -0.2254  2.0810 -2.8488
 1151SOL    HW3 4371   5.873   4.323   2.108 -0.6943 -2.0154 -0.3295
 1151SOL    MW4 4372   5.842   4.339   2.187  0.0541  0.1161 -0.4174
 1152SOL     OW 4373   0.718   2.929   6.151 -0.1095  0.0784 -0.0031
 1152SOL    HW2 4374   0.638   2.923   6.203 -0.7451  1.3638 -0.7875
 1152SOL    HW3 4375   0.692   2.977   6.072  1.3502  0.2064 -0.4377
 1152SOL    MW4 4376   0.704   2.935   6.148 -0.0007  0.2649 -0.1639
 1153SOL     OW 4377   4.082   5.955   3.934  0.1301  0.4262 -0.3438
 1153SOL    HW2 4378   4.089   5.900   3.856  1.4171  0.0991 -0.0104
 1153SOL    HW3 4379   3.995   5.995   3.927 -0.8196 -1.5656 -0.6601
 1153SOL    MW4 4380   4.071   5.953   3.923  0.1746  0.1202 -0.3415
 1154SOL     OW 4381   5.669   6.252   0.735 -0.4284  0.2909  0.5513
 1154SOL    HW2 4382   5.593   6.237   0.791  0.4103 -1.2998  1.3470
 1154SOL    HW3 4383   5.632   6.271   0.649 -1.7210  0.7762  1.1880
 1154SOL    MW4 4384   5.654   6.252   0.731 -0.4883  0.1451  0.7403
 1155SOL     OW 4385   4.881   0.542   4.180 -0.3253 -0.0383  0.4751
 1155SOL    HW2 4386   4.948   0.582   4.125  0.3570 -0.7190  0.7884
 1155SOL    HW3 4387   4.862   0.609   4.246 -0.1086  0.2378  0.2614
 1155SOL    MW4 4388   4.887   0.556   4.182 -0.2067 -0.0917  0.4882
 1156SOL     OW 4389   0.775   6.161   6.260  0.0259 -0.1531  0.0437
 1156SOL    HW2 4390   0.722   6.116   6.194  0.1705 -1.1690  0.6118
 1156SOL    HW3 4391   0.742   6.251   6.258 -0.7097 -0.4169 -0.6502
 1156SOL    MW4 4392   0.764   6.167   6.251 -0.0521 -0.3220  0.0271
 1157SOL     OW 4393   4.685   5.267   4.655  0.2561  0.1627  0.4871
 1157SOL    HW2 4394   4.635   5.336   4.698  1.4470  2.8070 -2.0106
 1157SOL    HW3 4395   4.768   5.263   4.702 -0.6112 -1.2542  2.0103
 1157SOL    MW4 4396   4.689   5.275   4.667  0.2988  0.3247  0.3586
 1158SOL     OW 4397   2.425   2.414   5.251 -0.1861  0.2088 -0.1722
 1158SOL    HW2 4398   2.330   2.401   5.258 -0.0729 -0.0217  1.3218
 1158SOL    HW3 4399   2.461   2.325   5.247 -0.0104  0.2809 -0.1990
 1158SOL    MW4 4400   2.417   2.400   5.252 -0.1480  0.1879  0.0214
 1159SOL     OW 4401   6.367   1.364   0.560 -0.5863 -0.1423  0.7226
 1159SOL    HW2 4402   6.444   1.327   0.604 -0.3694  1.0959  1.4468
 1159SOL    HW3 4403   6.342   1.438   0.615 -1.2512  0.5331 -0.4499
 1159SOL    MW4 4404   6.374   1.369   0.573 -0.6454  0.1102  0.6634
 1160SOL     OW 4405   1.838   5.655   3.054  0.2660  0.3208  0.3393
 1160SOL    HW2 4406   1.926   5.639   3.020  1.0230 -0.9662  2.6536
 1160SOL    HW3 4407   1.833   5.750   3.064  0.8138  0.5427 -1.1336
 1160SOL    MW4 4408   1.849   5.665   3.051  0.4382  0.1803  0.4503
 1161SOL     OW 4409   3.042   1.432   0.250 -0.3556  0.2380 -0.1145
 1161SOL    HW2 4410   3.082   1.369   0.310  2.6445  1.2558 -0.8782
 1161SOL    HW3 4411   3.034   1.385   0.167 -1.2522 -0.1076  0.1558
 1161SOL    MW4 4412   3.046   1.418   0.247 -0.0780  0.3267 -0.1796
 1162SOL     OW 4413   4.272   4.561   5.263  0.5031  0.3560 -0.0842
 1162SOL    HW2 4414   4.356   4.604   5.249  1.3944 -1.1636  0.3429
 1162SOL    HW3 4415   4.254   4.573   5.356 -0.4811  1.8905 -0.4447
 1162SOL    MW4 4416   4.281   4.568   5.273  0.4908  0.3580 -0.0754
 1163SOL     OW 4417   2.413   6.277   4.305  0.3946  0.7770 -0.3000
 1163SOL    HW2 4418   2.340   6.247   4.251  0.2221  2.9723 -1.3908
 1163SOL    HW3 4419   2.485   6.291   4.243  1.8748 -1.4712  0.7689
 1163SOL    MW4 4420   2.413   6.275   4.290  0.5671  0.7700 -0.3029
 1164SOL     OW 4421   1.686   0.299   5.893 -0.0401 -0.1519 -0.2469
 1164SOL    HW2 4422   1.600   0.262   5.914  0.2717 -0.0522  1.2932
 1164SOL    HW3 4423   1.721   0.330   5.976  2.3493 -2.0135 -0.4154
 1164SOL    MW4 4424   1.679   0.298   5.907  0.3163 -0.3844 -0.0660
 1165SOL     OW 4425   0.711   5.597   6.228  0.7905 -0.4422 -0.1252
 1165SOL    HW2 4426   0.742   5.685   6.207  0.7259  0.0528  1.7315
 1165SOL    HW3 4427   0.790   5.543   6.229  0.8855 -0.3279 -0.8022
 1165SOL    MW4 4428   0.726   5.601   6.225  0.7945 -0.3618  0.0304
 1166SOL     OW 4429   1.889   5.932   0.515 -0.3755  0.3305 -0.0834
 1166SOL    HW2 4430   1.977   5.896   0.526 -0.5369 -0.3861 -1.1119
 1166SOL    HW3 4431   1.862   5.955   0.604 -0.0885 -1.6641  0.5539
 1166SOL    MW4 4432   1.897   5.930   0.529 -0.3590 -0.0272 -0.1350
 1167SOL     OW 4433   4.189   4.686   2.018  0.0624 -0.5032 -0.1758
 1167SOL    HW2 4434   4.195   4.608   2.074 -1.7673 -0.0748  0.6754
 1167SOL    HW3 4435   4.127   4.662   1.950  0.1648 -0.0810 -0.4202
 1167SOL    MW4 4436   4.182   4.672   2.017 -0.1655 -0.3910 -0.0957
 1168SOL     OW 4437   2.001   5.859   1.857  0.3412 -0.5159  0.0947
 1168SOL    HW2 4438   1.908   5.858   1.837  0.8011 -1.4771 -2.5078
 1168SOL    HW3 4439   2.027   5.951   1.852 -0.4651 -0.2403  0.9122
 1168SOL    MW4 4440   1.992   5.871   1.854  0.2955 -0.6063 -0.1408
 1169SOL     OW 4441   0.535   3.740   4.810  0.7678 -0.0945 -0.5233
 1169SOL    HW2 4442   0.589   3.661   4.816  0.9120 -0.0843 -1.5757
 1169SOL    HW3 4443   0.512   3.747   4.717 -1.3505 -0.2999 -0.0542
 1169SOL    MW4 4444   0.539   3.731   4.798  0.5074 -0.1203 -0.6003
 1170SOL     OW 4445   5.580   2.739   5.351  0.1704  0.0159  0.3635
 1170SOL    HW2 4446   5.620   2.693   5.425  0.9344 -1.4770 -0.9105
 1170SOL    HW3 4447   5.595   2.681   5.276 -0.2547  1.6464 -1.0419
 1170SOL    MW4 4448   5.587   2.725   5.351  0.2151  0.0341  0.0100
 1171SOL     OW 4449   4.530   2.141   2.620  0.7155 -0.2832 -0.4927
 1171SOL    HW2 4450   4.516   2.129   2.714 -2.1015 -3.6770 -1.1275
 1171SOL    HW3 4451   4.625   2.145   2.610  1.1234 -0.5848  2.3890
 1171SOL    MW4 4452   4.541   2.140   2.631  0.3976 -0.7708 -0.1963
 1172SOL     OW 4453   5.660   0.944   3.823 -0.1304  0.3581  0.4109
 1172SOL    HW2 4454   5.604   1.020   3.809 -0.3053 -0.1886 -2.6908
 1172SOL    HW3 4455   5.600   0.871   3.837 -0.1893  0.1336 -0.8385
 1172SOL    MW4 4456   5.645   0.945   3.823 -0.1613  0.2563 -0.1632
 1173SOL     OW 4457   5.089   5.285   0.038  0.1361  0.4609  0.1274
 1173SOL    HW2 4458   5.138   5.365   0.017  1.9116 -0.9737 -1.5695
 1173SOL    HW3 4459   5.132   5.251   0.117  0.0275  0.6278  0.2615
 1173SOL    MW4 4460   5.101   5.291   0.046  0.3560  0.2937 -0.0788
 1174SOL     OW 4461   3.706   2.733   5.193  0.1164  0.1263  0.4766
 1174SOL    HW2 4462   3.778   2.760   5.136 -2.3000 -0.5847 -3.2867
 1174SOL    HW3 4463   3.627   2.768   5.151 -1.9313 -0.2204  3.6522
 1174SOL    MW4 4464   3.705   2.741   5.180 -0.4726 -0.0132  0.3991
 1175SOL     OW 4465   3.990   1.077   1.592 -0.2528  0.2536 -0.2050
 1175SOL    HW2 4466   4.084   1.094   1.584 -0.4318  1.4701  0.1784
 1175SOL    HW3 4467   3.964   1.048   1.504  0.2126  1.3216 -0.7162
 1175SOL    MW4 4468   3.999   1.075   1.579 -0.2150  0.5550 -0.2219
 1176SOL     OW 4469   4.247   6.305   4.079 -0.5586 -0.0670  0.7756
 1176SOL    HW2 4470   4.307   6.257   4.136 -0.4663  1.2061  1.7787
 1176SOL    HW3 4471   4.246   6.394   4.114 -2.0453  0.2538 -0.0066
 1176SOL    MW4 4472   4.255   6.310   4.091 -0.7425  0.1433  0.8047
 1177SOL     OW 4473   0.044   5.999   3.356 -0.0331 -0.0752  0.9516
 1177SOL    HW2 4474   0.053   5.906   3.334 -0.1306  0.2199 -0.3916
 1177SOL    HW3 4475   0.129   6.023   3.393  1.0176 -0.0360 -1.3126
 1177SOL    MW4 4476   0.056   5.990   3.358  0.0927 -0.0311  0.4757
 1178SOL     OW 4477   0.037   5.130   5.965 -0.2529 -0.7382 -0.3687
 1178SOL    HW2 4478  -0.032   5.191   5.937 -0.9068 -1.4337 -0.3169
 1178SOL    HW3 4479   0.119   5.177   5.950 -0.7854  0.5979  0.7865
 1178SOL    MW4 4480   0.039   5.144   5.959 -0.4094 -0.6537 -0.2095
 1179SOL     OW 4481   0.703   3.528   4.093 -0.0276 -0.1672 -0.5484
 1179SOL    HW2 4482   0.767   3.506   4.160 -0.3762  1.5678  0.4151
 1179SOL    HW3 4483   0.755   3.553   4.017  0.5028  1.2392  0.2264
 1179SOL    MW4 4484   0.718   3.529   4.092 -0.0036  0.2473 -0.3191
 1180SOL     OW 4485   1.409   5.138   2.528 -0.2009 -0.4039 -0.4280
 1180SOL    HW2 4486   1.504   5.134   2.521 -0.0928 -0.4873  0.7453
 1180SOL    HW3 4487   1.391   5.226   2.562 -0.5699 -0.2819 -0.9262
 1180SOL    MW4 4488   1.419   5.149   2.532 -0.2354 -0.3988 -0.3389
 1181SOL     OW 4489   0.249   6.162   1.508  0.1706  0.1623 -0.0516
 1181SOL    HW2 4490   0.305   6.239   1.511 -0.0250  0.2833  0.4803
 1181SOL    HW3 4491   0.228   6.143   1.599 -0.2758 -0.1608 -0.2153
 1181SOL    MW4 4492   0.254   6.169   1.520  0.0859  0.1356 -0.0030
 1182SOL     OW 4493   0.156   2.313   2.193 -0.2409 -0.3829  0.2254
 1182SOL    HW2 4494   0.189   2.375   2.258  0.3399 -0.9404  0.4721
 1182SOL    HW3 4495   0.102   2.366   2.135  1.4465  0.6713 -0.4740
 1182SOL    MW4 4496   0.153   2.328   2.194  0.0583 -0.3174  0.1657
 1183SOL     OW 4497   4.505   1.846   5.238  0.0914 -0.5540 -0.7374
 1183SOL    HW2 4498   4.573   1.793   5.198  1.1412  0.3015 -0.1261
 1183SOL    HW3 4499   4.543   1.933   5.245 -0.6927 -0.2909  0.5304
 1183SOL    MW4 4500   4.519   1.850   5.234  0.1265 -0.4064 -0.4895
 1184SOL     OW 4501   6.281   0.734   3.600 -0.2024 -0.3694  0.5878
 1184SOL    HW2 4502   6.209   0.672   3.599 -1.1852  0.7316  0.8414
 1184SOL    HW3 4503   6.273   0.782   3.517  1.1889 -1.2711 -0.0992
 1184SOL    MW4 4504   6.270   0.732   3.589 -0.1485 -0.3431  0.5306
 1185SOL     OW 4505   0.312   0.489   4.234 -0.1853 -0.1208  0.0945
 1185SOL    HW2 4506   0.382   0.456   4.290  0.1651  1.4047  0.5973
 1185SOL    HW3 4507   0.335   0.580   4.218 -0.1563 -0.5304 -2.7266
 1185SOL    MW4 4508   0.324   0.497   4.239 -0.1353  0.0264 -0.2114
 1186SOL     OW 4509   5.703   5.568   6.264  0.5337  0.0990 -0.3925
 1186SOL    HW2 4510   5.689   5.488   6.315  0.7164  0.8552  0.8885
 1186SOL    HW3 4511   5.685   5.543   6.174 -0.2586 -1.1738  0.1020
 1186SOL    MW4 4512   5.699   5.554   6.259  0.4533  0.0308 -0.1582
 1187SOL     OW 4513   6.267   4.648   1.110 -0.7632  0.0013  0.5037
 1187SOL    HW2 4514   6.285   4.732   1.069 -1.8385  1.5298  2.9055
 1187SOL    HW3 4515   6.351   4.603   1.111  0.2192  1.7479  0.6075
 1187SOL    MW4 4516   6.280   4.653   1.105 -0.7754  0.4334  0.8343
 1188SOL     OW 4517   4.033   3.440   1.488 -0.9164  0.5968 -0.3455
 1188SOL    HW2 4518   3.990   3.426   1.404  0.6238  0.7785 -1.2008
 1188SOL    HW3 4519   4.102   3.373   1.490 -0.1250  1.4192  0.1858
 1188SOL    MW4 4520   4.036   3.429   1.477 -0.6088  0.7293 -0.3883
 1189SOL     OW 4521   3.446   0.826   5.469 -0.4350  0.4562 -0.1572
 1189SOL    HW2 4522   3.415   0.895   5.528 -0.6145  0.5279 -0.3337
 1189SOL    HW3 4523   3.372   0.810   5.410  0.4548  1.9026 -1.7680
 1189SOL    MW4 4524   3.432   0.833   5.469 -0.3413  0.6565 -0.3930
 1190SOL     OW 4525   5.272   0.215   4.465 -0.1241  0.7870  0.3902
 1190SOL    HW2 4526   5.201   0.166   4.506 -0.0243  1.4593  1.3964
 1190SOL    HW3 4527   5.271   0.300   4.509 -0.4742  1.8171 -1.5033
 1190SOL    MW4 4528   5.262   0.220   4.476 -0.1571  1.0116  0.2731
 1191SOL     OW 4529   1.648   6.406   5.619 -0.7763 -0.2163  0.4452
 1191SOL    HW2 4530   1.636   6.312   5.626  0.1191 -0.3183  0.7889
 1191SOL    HW3 4531   1.645   6.425   5.525  0.7522 -0.8476  0.2415
 1191SOL    MW4 4532   1.646   6.396   5.608 -0.4565 -0.3130  0.4637
 1192SOL     OW 4533   3.117   5.307   1.457 -0.2204  0.1802  0.0648
 1192SOL    HW2 4534   3.027   5.336   1.471 -0.4022  0.0740 -0.8469
 1192SOL    HW3 4535   3.144   5.271   1.542 -1.5519 -1.2047 -0.0603
 1192SOL    MW4 4536   3.109   5.306   1.470 -0.4201 -0.0165 -0.0720
 1193SOL     OW 4537   5.095   6.215   2.740  0.1604  0.4084 -0.1520
 1193SOL    HW2 4538   5.141   6.298   2.754  2.0407 -0.3090 -1.6132
 1193SOL    HW3 4539   5.002   6.237   2.751  0.4265  3.1510 -2.2415
 1193SOL    MW4 4540   5.089   6.229   2.743  0.4436  0.6756 -0.6204
 1194SOL     OW 4541   0.998   6.278   3.881  0.4151  0.0345  0.5470
 1194SOL    HW2 4542   0.964   6.293   3.792 -1.4740 -0.7484  1.0907
 1194SOL    HW3 4543   0.998   6.183   3.891 -1.7436  0.1328  2.1910
 1194SOL    MW4 4544   0.993   6.268   3.870 -0.1189 -0.0558  0.8357
 1195SOL     OW 4545   5.596   0.890   2.959  0.1727  0.4191 -0.4696
 1195SOL    HW2 4546   5.642   0.963   3.001  2.8148 -1.8052  0.8364
 1195SOL    HW3 4547   5.541   0.853   3.028  1.4120 -0.7907 -0.0957
 1195SOL    MW4 4548   5.595   0.895   2.974  0.6848 -0.0340 -0.2479
 1196SOL     OW 4549   1.443   3.024   3.500 -0.0750 -0.1631  0.1469
 1196SOL    HW2 4550   1.451   3.032   3.596 -3.2921  2.7636  0.3521
 1196SOL    HW3 4551   1.506   3.087   3.465 -1.5815  1.6500  0.5699
 1196SOL    MW4 4552   1.453   3.033   3.508 -0.6982  0.4623  0.2298
 1197SOL     OW 4553   2.823   6.093   4.390 -0.3773 -0.1758  0.3439
 1197SOL    HW2 4554   2.820   6.046   4.473  2.9544  1.4480  1.5566
 1197SOL    HW3 4555   2.807   6.184   4.413  0.2168  0.2564 -0.8498
 1197SOL    MW4 4556   2.820   6.099   4.404  0.1406  0.0955  0.3464
 1198SOL     OW 4557   1.009   4.682   2.178  0.1506 -0.5965 -0.1238
 1198SOL    HW2 4558   1.083   4.741   2.166  0.1243 -0.2708  1.1107
 1198SOL    HW3 4559   0.937   4.739   2.205 -0.2983 -1.0136 -0.4364
 1198SOL    MW4 4560   1.010   4.697   2.180  0.0879 -0.6086 -0.0022
 1199SOL     OW 4561   1.120   2.862   5.162 -0.0483 -0.0486 -0.2265
 1199SOL    HW2 4562   1.044   2.825   5.118  0.3930  0.0456 -1.0941
 1199SOL    HW3 4563   1.126   2.815   5.245 -1.2662  0.2053  0.0128
 1199SOL    MW4 4564   1.111   2.851   5.167 -0.1508 -0.0027 -0.3094
 1200SOL     OW 4565   3.461   1.878   1.551  0.5004  0.2702 -0.0004
 1200SOL    HW2 4566   3.480   1.784   1.549  0.8489  0.3306  0.3057
 1200SOL    HW3 4567   3.367   1.884   1.534  0.0809 -0.2679  1.9264
 1200SOL    MW4 4568   3.451   1.866   1.548  0.4910  0.2072  0.2942
 1201SOL     OW 4569   4.699   0.341   6.127  0.0366  0.3433 -0.7235
 1201SOL    HW2 4570   4.790   0.340   6.156 -0.2347 -0.4813  0.1660
 1201SOL    HW3 4571   4.704   0.348   6.032  1.0047  1.1192 -0.6282
 1201SOL    MW4 4572   4.712   0.342   6.118  0.1285  0.3369 -0.5936
 1202SOL     OW 4573   4.409   1.337   2.002 -0.8933 -0.2058  0.6656
 1202SOL    HW2 4574   4.348   1.291   1.944 -0.3255  0.2223 -0.3036
 1202SOL    HW3 4575   4.357   1.408   2.040 -0.9856  0.2353 -0.2524
 1202SOL    MW4 4576   4.394   1.340   1.999 -0.8306 -0.0911  0.4166
 1203SOL     OW 4577   2.620   0.862   0.453 -0.2113  0.4771  0.0053
 1203SOL    HW2 4578   2.525   0.857   0.459 -0.2642 -1.2594 -1.2589
 1203SOL    HW3 4579   2.651   0.807   0.525 -0.2558 -0.6838 -0.8271
 1203SOL    MW4 4580   2.611   0.854   0.463 -0.2242  0.0948 -0.2713
 1204SOL     OW 4581   5.490   4.026   5.963  0.0732  0.4953  0.1992
 1204SOL    HW2 4582   5.585   4.032   5.958  0.2727 -0.4892  1.8403
 1204SOL    HW3 4583   5.473   3.936   5.992 -1.5752 -0.6487 -3.6440
 1204SOL    MW4 4584   5.500   4.015   5.966 -0.1180  0.2145 -0.0914
 1205SOL     OW 4585   0.219   0.823   1.860  0.7141  0.1178  0.4414
 1205SOL    HW2 4586   0.195   0.757   1.926  1.6001 -0.4185  0.2493
 1205SOL    HW3 4587   0.138   0.870   1.843 -0.1775 -1.4988 -0.0425
 1205SOL    MW4 4588   0.205   0.820   1.867  0.7134 -0.1663  0.3522
 1206SOL     OW 4589   2.272   6.030   2.566  0.5256  0.1817  0.3316
 1206SOL    HW2 4590   2.311   6.002   2.483 -3.0628 -0.9908 -1.1804
 1206SOL    HW3 4591   2.255   6.123   2.553 -0.7475 -0.1530 -0.6824
 1206SOL    MW4 4592   2.275   6.038   2.553 -0.1158 -0.0171 -0.0017
 1207SOL     OW 4593   4.440   4.985   5.749  0.2662 -0.2281  0.5057
 1207SOL    HW2 4594   4.467   4.902   5.708  1.6014  0.1531  0.5676
 1207SOL    HW3 4595   4.440   5.048   5.677 -2.3920 -0.5748  0.1101
 1207SOL    MW4 4596   4.444   4.982   5.734  0.0916 -0.2235  0.4617
 1208SOL     OW 4597   5.718   2.508   0.778 -0.1857 -0.1752  0.4625
 1208SOL    HW2 4598   5.738   2.543   0.865 -0.6030 -0.0192  0.5021
 1208SOL    HW3 4599   5.626   2.481   0.784 -0.4558  0.5676 -0.1581
 1208SOL    MW4 4600   5.708   2.509   0.790 -0.2764 -0.0566  0.3858
 1209SOL     OW 4601   1.542   2.732   0.045  0.2694 -0.3123 -0.8271
 1209SOL    HW2 4602   1.619   2.680   0.065 -0.0425 -1.3774 -2.2207
 1209SOL    HW3 4603   1.495   2.681  -0.021 -0.7045  1.1417 -1.3186
 1209SOL    MW4 4604   1.546   2.719   0.039  0.0997 -0.2610 -1.0758
 1210SOL     OW 4605   4.388   5.001   0.578  0.0574 -0.3387 -0.3211
 1210SOL    HW2 4606   4.445   4.955   0.516  1.4838  0.6526  0.2007
 1210SOL    HW3 4607   4.385   5.091   0.546 -1.4800 -0.4371 -0.4979
 1210SOL    MW4 4608   4.395   5.006   0.566  0.0427 -0.2209 -0.2756
 1211SOL     OW 4609   3.866   2.923   0.598  0.1743 -0.2576  0.4563
 1211SOL    HW2 4610   3.776   2.916   0.629 -0.4008 -1.7775 -1.3858
 1211SOL    HW3 4611   3.878   2.848   0.539  2.1804  0.7124 -0.4918
 1211SOL    MW4 4612   3.856   2.912   0.594  0.3631 -0.3302  0.0882
 1212SOL     OW 4613   1.210   0.974   2.350  0.4390 -0.0431  0.1663
 1212SOL    HW2 4614   1.178   1.030   2.279  1.9285 -0.0284 -0.5315
 1212SOL    HW3 4615   1.135   0.965   2.409 -0.5176  0.7998 -0.8743
 1212SOL    MW4 4616   1.196   0.980   2.349  0.5093  0.0700 -0.0631
 1213SOL     OW 4617   2.033   0.679   5.279  0.1073  0.4517  0.5319
 1213SOL    HW2 4618   1.968   0.611   5.293 -0.3149  0.6048 -0.5723
 1213SOL    HW3 4619   2.001   0.728   5.202  0.3905  1.8922  1.2895
 1213SOL    MW4 4620   2.020   0.677   5.270  0.0890  0.6620  0.4862
 1214SOL     OW 4621   3.293   5.930   5.157 -0.3426  0.0368  0.6089
 1214SOL    HW2 4622   3.337   5.977   5.086 -0.9020  1.6891  1.3042
 1214SOL    HW3 4623   3.217   5.984   5.178 -1.3362 -1.4879  1.0954
 1214SOL    MW4 4624   3.288   5.944   5.151 -0.5475  0.0536  0.7648
 1215SOL     OW 4625   2.501   2.300   6.042  0.3466 -0.3859 -0.2067
 1215SOL    HW2 4626   2.555   2.319   5.965  1.0739  1.4253  0.6827
 1215SOL    HW3 4627   2.411   2.310   6.010  0.4407 -3.2283 -1.6523
 1215SOL    MW4 4628   2.496   2.304   6.027  0.4550 -0.5219 -0.2801
 1216SOL     OW 4629   6.029   2.008   4.418 -0.0087 -0.0726  0.2521
 1216SOL    HW2 4630   6.115   2.019   4.377 -0.7186 -0.4361 -1.4262
 1216SOL    HW3 4631   5.973   2.072   4.374 -0.8421 -0.5501  0.5838
 1216SOL    MW4 4632   6.033   2.018   4.407 -0.2123 -0.1836  0.0745
 1217SOL     OW 4633   2.371   3.305   3.712 -0.3778  0.3264  0.2351
 1217SOL    HW2 4634   2.296   3.250   3.692  0.7201 -1.1669  0.0363
 1217SOL    HW3 4635   2.388   3.353   3.632 -0.9358  0.4636  0.1936
 1217SOL    MW4 4636   2.363   3.304   3.699 -0.3065  0.1475  0.2034
 1218SOL     OW 4637   5.441   5.414   1.967  0.4250  0.0403 -0.5964
 1218SOL    HW2 4638   5.516   5.472   1.983 -0.6302  1.2076  0.3204
 1218SOL    HW3 4639   5.470   5.329   2.001  0.9436  0.7461  0.8526
 1218SOL    MW4 4640   5.455   5.411   1.974  0.3542  0.2875 -0.2842
 1219SOL     OW 4641   5.639   3.099   3.775  0.3888  0.3165 -0.2384
 1219SOL    HW2 4642   5.671   3.010   3.791  0.7862  0.3615 -0.7770
 1219SOL    HW3 4643   5.546   3.094   3.797  0.1920 -0.4846 -1.1404
 1219SOL    MW4 4644   5.631   3.087   3.780  0.4153  0.2168 -0.4285
 1220SOL     OW 4645   3.991   2.724   3.419 -0.2669 -0.0853  0.4823
 1220SOL    HW2 4646   3.906   2.761   3.442 -0.3644 -0.4546  0.7149
 1220SOL    HW3 4647   4.029   2.695   3.502 -0.5026 -1.1557  0.2317
 1220SOL    MW4 4648   3.985   2.725   3.433 -0.3109 -0.2753  0.4799
 1221SOL     OW 4649   5.093   3.655   6.003  0.0513  0.4600  0.6392
 1221SOL    HW2 4650   5.038   3.591   5.958  0.6068 -0.8247  1.7273
 1221SOL    HW3 4651   5.181   3.618   6.000  0.5576  1.6253  0.4898
 1221SOL    MW4 4652   5.097   3.642   5.997  0.1914  0.4443  0.7630
 1222SOL     OW 4653   2.567   4.081   4.798 -0.6253  0.0858  0.1914
 1222SOL    HW2 4654   2.538   4.123   4.878 -0.9417 -1.6804  1.0452
 1222SOL    HW3 4655   2.663   4.084   4.803 -0.6267 -0.9149  1.1584
 1222SOL    MW4 4656   2.576   4.087   4.809 -0.6672 -0.2792  0.4316
 1223SOL     OW 4657   2.424   4.801   6.011  0.7095 -0.4269  0.6663
 1223SOL    HW2 4658   2.417   4.896   6.000  0.8379 -0.5038 -0.1588
 1223SOL    HW3 4659   2.355   4.765   5.955  0.8762 -0.8301  0.7157
 1223SOL    MW4 4660   2.414   4.809   6.002  0.7484 -0.4902  0.5639
 1224SOL     OW 4661   1.840   0.340   1.937 -0.0048 -0.0544  0.1905
 1224SOL    HW2 4662   1.861   0.267   1.879  1.5579 -0.5633  1.3413
 1224SOL    HW3 4663   1.904   0.407   1.915  0.4321 -0.1556  1.1484
 1224SOL    MW4 4664   1.851   0.339   1.926  0.2590 -0.1349  0.4687
 1225SOL     OW 4665   5.875   2.184   2.522  0.2844 -0.5332  0.1582
 1225SOL    HW2 4666   5.786   2.210   2.548 -0.1416 -2.0037  0.2506
 1225SOL    HW3 4667   5.932   2.243   2.572 -0.6223  0.3492  0.2018
 1225SOL    MW4 4668   5.871   2.195   2.532  0.1086 -0.6108  0.1761
 1226SOL     OW 4669   1.856   5.917   0.222 -0.9272  0.1139  0.2542
 1226SOL    HW2 4670   1.865   5.961   0.307 -1.3742  1.6311 -0.4621
 1226SOL    HW3 4671   1.930   5.855   0.220 -0.6327  0.3913  1.5416
 1226SOL    MW4 4672   1.867   5.914   0.233 -0.9473  0.3506  0.3295
 1227SOL     OW 4673   1.547   3.818   1.276 -0.1204  0.4500  0.2353
 1227SOL    HW2 4674   1.641   3.833   1.288 -0.3256  1.3972  0.8174
 1227SOL    HW3 4675   1.540   3.725   1.254  0.9729  0.4231 -0.0882
 1227SOL    MW4 4676   1.559   3.808   1.275 -0.0033  0.5714  0.2694
 1228SOL     OW 4677   0.819   5.312   2.228 -0.1815  0.1120 -0.3978
 1228SOL    HW2 4678   0.767   5.363   2.167 -1.7387 -0.0565  0.7337
 1228SOL    HW3 4679   0.883   5.374   2.264  0.8633  0.1762 -2.2493
 1228SOL    MW4 4680   0.821   5.327   2.225 -0.2491  0.0983 -0.4928
 1229SOL     OW 4681   5.271   4.969   6.100 -0.1454 -0.6309  0.5914
 1229SOL    HW2 4682   5.191   5.007   6.136 -1.5306 -2.3110 -0.5892
 1229SOL    HW3 4683   5.273   4.880   6.136  0.8132 -0.8442  0.0345
 1229SOL    MW4 4684   5.261   4.962   6.110 -0.2017 -0.8807  0.3621
 1230SOL     OW 4685   3.901   2.719   1.849 -0.2349 -0.2239 -0.3011
 1230SOL    HW2 4686   3.904   2.722   1.753  0.0989 -0.7809 -0.3139
 1230SOL    HW3 4687   3.993   2.724   1.876 -0.4214  2.6085  0.1058
 1230SOL    MW4 4688   3.913   2.720   1.840 -0.2154  0.0763 -0.2491
 1231SOL     OW 4689   4.100   4.351   0.553 -0.0806 -0.1127  0.0129
 1231SOL    HW2 4690   4.006   4.350   0.569 -0.0848  2.3279  0.5615
 1231SOL    HW3 4691   4.138   4.384   0.634  0.6717  4.0595 -1.7559
 1231SOL    MW4 4692   4.092   4.355   0.566  0.0181  0.7598 -0.1481
 1232SOL     OW 4693   4.152   0.740   0.603  0.2333  0.9856 -0.6055
 1232SOL    HW2 4694   4.140   0.824   0.560  0.7798  0.7619 -1.2101
 1232SOL    HW3 4695   4.145   0.676   0.532  0.6953  0.5796 -0.2885
 1232SOL    MW4 4696   4.149   0.742   0.587  0.3663  0.9025 -0.6435
 1233SOL     OW 4697   1.467   1.568   5.239  0.2445 -0.2293  0.1778
 1233SOL    HW2 4698   1.419   1.517   5.303 -1.0058  1.0489  0.3040
 1233SOL    HW3 4699   1.415   1.562   5.159  1.1094 -0.7377 -0.3620
 1233SOL    MW4 4700   1.454   1.561   5.237  0.1937 -0.1277  0.1233
 1234SOL     OW 4701   3.105   3.500   5.941 -0.2246 -0.1445 -0.3960
 1234SOL    HW2 4702   3.095   3.458   5.855  0.3058  0.4226 -0.7469
 1234SOL    HW3 4703   3.033   3.563   5.945 -2.5341 -2.6999  1.1593
 1234SOL    MW4 4704   3.094   3.503   5.930 -0.4593 -0.4069 -0.2371
 1235SOL     OW 4705   1.612   2.047   5.777 -0.0515 -0.1867  0.2643
 1235SOL    HW2 4706   1.702   2.039   5.745 -0.2915 -0.2489 -0.4190
 1235SOL    HW3 4707   1.558   2.035   5.699 -0.6950 -1.3381  0.8519
 1235SOL    MW4 4708   1.617   2.044   5.763 -0.1680 -0.3468  0.2517
 1236SOL     OW 4709   3.400   5.948   3.271  0.4202  0.1698  0.0367
 1236SOL    HW2 4710   3.450   5.899   3.337  1.2973  0.4030 -0.4372
 1236SOL    HW3 4711   3.396   6.037   3.304  2.0005  0.5965 -0.8042
 1236SOL    MW4 4712   3.406   5.953   3.284  0.7444  0.2569 -0.1368
 1237SOL     OW 4713   5.232   5.448   1.123 -0.1165  0.4311 -0.7567
 1237SOL    HW2 4714   5.149   5.495   1.112 -0.1571  0.5882  0.1672
 1237SOL    HW3 4715   5.244   5.402   1.040 -1.7493 -0.5648 -0.5056
 1237SOL    MW4 4716   5.222   5.448   1.111 -0.3373  0.3204 -0.6017
 1238SOL     OW 4717   3.299   4.996   3.702 -0.1454 -0.1045  0.0998
 1238SOL    HW2 4718   3.383   4.982   3.745 -0.3098  0.3923  0.5999
 1238SOL    HW3 4719   3.237   5.006   3.774 -0.6635 -0.6505 -0.2679
 1238SOL    MW4 4720   3.302   4.996   3.718 -0.2354 -0.1110  0.1173
 1239SOL     OW 4721   0.909   0.775   5.045 -0.5373 -0.3688 -0.1238
 1239SOL    HW2 4722   0.952   0.790   5.129  1.3770  0.4749 -1.1864
 1239SOL    HW3 4723   0.847   0.847   5.036  0.9403  0.8896 -0.4495
 1239SOL    MW4 4724   0.906   0.786   5.055 -0.0898 -0.0914 -0.3070
 1240SOL     OW 4725   0.337   4.425   5.539 -0.1399  0.6420 -0.5385
 1240SOL    HW2 4726   0.310   4.495   5.479 -0.7744 -0.0350 -1.0548
 1240SOL    HW3 4727   0.411   4.462   5.587 -0.6917  1.8009 -0.5478
 1240SOL    MW4 4728   0.343   4.439   5.538 -0.2965  0.7056 -0.6078
 1241SOL     OW 4729   4.618   0.230   3.598  0.7470  0.0171  0.2358
 1241SOL    HW2 4730   4.593   0.140   3.619 -0.3098  0.3443  0.4710
 1241SOL    HW3 4731   4.536   0.272   3.570  0.8147  1.4069  1.9251
 1241SOL    MW4 4732   4.603   0.224   3.597  0.6165  0.2436  0.4898
 1242SOL     OW 4733   5.663   3.095   2.205  0.1219  0.3554  0.3444
 1242SOL    HW2 4734   5.677   3.003   2.181  0.5614  0.4450  0.2384
 1242SOL    HW3 4735   5.576   3.097   2.244 -0.6622  0.2192 -1.3342
 1242SOL    MW4 4736   5.653   3.083   2.207  0.0764  0.3492  0.1090
 1243SOL     OW 4737   2.407   4.156   3.646  0.2975  0.3790 -0.2933
 1243SOL    HW2 4738   2.412   4.092   3.576  0.2217  0.0731 -0.0226
 1243SOL    HW3 4739   2.471   4.223   3.623  1.1646 -0.3401 -0.0334
 1243SOL    MW4 4740   2.416   4.157   3.634  0.4019  0.2438 -0.2233
 1244SOL     OW 4741   3.686   1.973   2.270  0.5067  0.3804  0.1741
 1244SOL    HW2 4742   3.765   1.962   2.323  0.9625  0.3140 -0.5094
 1244SOL    HW3 4743   3.719   1.992   2.182 -0.2295 -0.5816 -0.3180
 1244SOL    MW4 4744   3.701   1.974   2.265  0.4697  0.2447  0.0190
 1245SOL     OW 4745   0.678   5.282   6.404  0.2647  0.2268 -0.3513
 1245SOL    HW2 4746   0.603   5.342   6.404 -0.1423 -0.2687 -0.4137
 1245SOL    HW3 4747   0.755   5.339   6.400 -0.1132  0.7409 -0.4074
 1245SOL    MW4 4748   0.678   5.297   6.403  0.1612  0.2293 -0.3669
 1246SOL     OW 4749   3.365   4.046   3.723  0.0837  0.3390  0.3995
 1246SOL    HW2 4750   3.412   4.059   3.641 -0.5330 -0.3730 -0.0799
 1246SOL    HW3 4751   3.344   3.953   3.724  1.5313 -0.0193  2.1687
 1246SOL    MW4 4752   3.368   4.036   3.712  0.1933  0.1978  0.5697
 1247SOL     OW 4753   2.873   4.020   1.647 -0.0669  1.0003 -0.4592
 1247SOL    HW2 4754   2.851   3.927   1.647  2.1941  0.4037  0.7542
 1247SOL    HW3 4755   2.824   4.056   1.721  0.6139  0.3331  0.3330
 1247SOL    MW4 4756   2.864   4.012   1.657  0.3213  0.8336 -0.1946
 1248SOL     OW 4757   3.670   2.404   0.153 -0.9035  0.1720 -0.9904
 1248SOL    HW2 4758   3.700   2.481   0.201  0.9060  0.7178 -2.8855
 1248SOL    HW3 4759   3.586   2.430   0.115 -2.0751 -0.0678  1.2248
 1248SOL    MW4 4760   3.662   2.418   0.155 -0.8193  0.2124 -0.9481
 1249SOL     OW 4761   3.309   3.591   2.620 -0.3442  0.2936 -0.4519
 1249SOL    HW2 4762   3.356   3.661   2.574 -1.9277  2.0749  0.4954
 1249SOL    HW3 4763   3.377   3.540   2.663  1.0486 -0.2923 -3.1337
 1249SOL    MW4 4764   3.324   3.593   2.620 -0.3693  0.4513 -0.6807
 1250SOL     OW 4765   1.289   1.397   2.069 -0.2911 -0.2820  0.1125
 1250SOL    HW2 4766   1.344   1.473   2.048 -0.4399 -0.3387 -0.5158
 1250SOL    HW3 4767   1.341   1.346   2.131 -0.6018  0.8292  1.3363
 1250SOL    MW4 4768   1.303   1.401   2.074 -0.3517 -0.1429  0.1911
 1251SOL     OW 4769   5.470   1.175   3.751  0.3419 -0.3535 -0.0981
 1251SOL    HW2 4770   5.472   1.223   3.834  1.2737 -1.1346  0.3427
 1251SOL    HW3 4771   5.471   1.244   3.684  2.8285  0.3078  0.5051
 1251SOL    MW4 4772   5.470   1.191   3.753  0.7929 -0.3693  0.0397
 1252SOL     OW 4773   1.230   2.716   5.389  0.0159  0.4671  0.1666
 1252SOL    HW2 4774   1.236   2.773   5.466 -0.5154 -0.6049  1.0350
 1252SOL    HW3 4775   1.223   2.628   5.426 -0.0867 -0.0825 -1.1291
 1252SOL    MW4 4776   1.230   2.712   5.404 -0.0677  0.2531  0.1102
 1253SOL     OW 4777   1.466   0.856   3.622  0.5613  0.5751  0.4077
 1253SOL    HW2 4778   1.523   0.852   3.699  0.4071 -0.0248  0.4918
 1253SOL    HW3 4779   1.445   0.949   3.613 -0.0762  0.5530  1.5718
 1253SOL    MW4 4780   1.471   0.868   3.631  0.4568  0.4931  0.5724
 1254SOL     OW 4781   3.996   0.529   1.021 -0.1622  0.0561 -0.6614
 1254SOL    HW2 4782   4.004   0.528   1.117 -2.9540  1.0839 -0.3330
 1254SOL    HW3 4783   4.054   0.599   0.993  1.2925 -0.7593  0.1641
 1254SOL    MW4 4784   4.004   0.538   1.030 -0.3386  0.0841 -0.5091
 1255SOL     OW 4785   4.371   2.123   4.986  0.1295  0.1773  0.0306
 1255SOL    HW2 4786   4.351   2.149   4.896 -0.7060  0.1097  0.1907
 1255SOL    HW3 4787   4.466   2.133   4.993  0.2725 -0.3052 -1.0138
 1255SOL    MW4 4788   4.381   2.127   4.975  0.0382  0.1047 -0.0861
 1256SOL     OW 4789   2.757   5.350   3.735  0.5217  0.0301  0.1177
 1256SOL    HW2 4790   2.760   5.445   3.722 -0.6990  0.1639  0.6909
 1256SOL    HW3 4791   2.690   5.337   3.803  1.2369 -1.1827  0.6248
 1256SOL    MW4 4792   2.748   5.361   3.743  0.4550 -0.1122  0.2602
 1257SOL     OW 4793   4.839   1.055   0.765 -0.8992 -0.2033 -0.2811
 1257SOL    HW2 4794   4.854   0.960   0.761 -2.3757 -0.4453 -0.8382
 1257SOL    HW3 4795   4.853   1.085   0.675  1.5116  0.4898  0.2448
 1257SOL    MW4 4796   4.843   1.046   0.753 -0.7760 -0.1438 -0.2852
 1258SOL     OW 4797   5.774   2.890   3.079  0.1396  0.0127  0.1824
 1258SOL    HW2 4798   5.753   2.851   3.164 -0.5323  0.9617  0.4651
 1258SOL    HW3 4799   5.713   2.962   3.070 -0.1409 -0.3827 -1.3589
 1258SOL    MW4 4800   5.763   2.894   3.089  0.0140  0.0858  0.0164
 1259SOL     OW 4801   4.787   4.874   6.392 -0.3926 -0.5789 -0.4165
 1259SOL    HW2 4802   4.806   4.840   6.479  2.4567 -0.2885 -0.8307
 1259SOL    HW3 4803   4.700   4.840   6.371 -0.0731 -2.7988  1.4846
 1259SOL    MW4 4804   4.778   4.865   6.401  0.0255 -0.8334 -0.2203
 1260SOL     OW 4805   2.736   4.980   5.299  0.4968 -0.2473 -0.1468
 1260SOL    HW2 4806   2.730   5.074   5.320  1.2931 -0.1373 -0.3741
 1260SOL    HW3 4807   2.645   4.951   5.293  0.2152  0.7443 -1.0762
 1260SOL    MW4 4808   2.723   4.989   5.301  0.5647 -0.1020 -0.2994
 1261SOL     OW 4809   5.906   2.369   2.313  0.5610  0.5060  0.5867
 1261SOL    HW2 4810   5.890   2.288   2.360  0.8103 -0.0043 -0.1929
 1261SOL    HW3 4811   5.875   2.438   2.372 -0.7362 -0.2126  0.7605
 1261SOL    MW4 4812   5.900   2.368   2.327  0.4228  0.3439  0.5068
 1262SOL     OW 4813   1.772   2.595   0.118 -0.0031 -0.0693  0.0095
 1262SOL    HW2 4814   1.798   2.614   0.209 -2.2090  1.3597  0.4131
 1262SOL    HW3 4815   1.725   2.512   0.124 -0.9355  0.4696  0.3629
 1262SOL    MW4 4816   1.769   2.586   0.131 -0.4172  0.1903  0.1094
 1263SOL     OW 4817   2.964   3.966   5.926 -0.2562 -0.0015 -0.0105
 1263SOL    HW2 4818   2.940   4.017   6.003  0.9595  1.1446 -0.3398
 1263SOL    HW3 4819   2.994   4.032   5.863  1.8130 -1.1130 -0.2909
 1263SOL    MW4 4820   2.965   3.982   5.928  0.1772  0.0031 -0.0910
 1264SOL     OW 4821   0.799   4.273   4.515  0.5534  0.2435 -0.4449
 1264SOL    HW2 4822   0.765   4.344   4.461 -0.6292 -0.7913 -1.1128
 1264SOL    HW3 4823   0.733   4.204   4.508  2.4679 -1.6224 -1.2833
 1264SOL    MW4 4824   0.786   4.273   4.507  0.6500 -0.1392 -0.6436
 1265SOL     OW 4825   3.963   1.364   1.497 -0.0955 -0.4239 -0.3815
 1265SOL    HW2 4826   3.970   1.419   1.575  3.3360 -0.2935 -0.6396
 1265SOL    HW3 4827   3.952   1.275   1.531  1.0485 -0.3294  0.2726
 1265SOL    MW4 4828   3.963   1.360   1.512  0.5082 -0.3942 -0.3292
 1266SOL     OW 4829   5.584   6.415   2.819 -0.9720  0.3950  0.9843
 1266SOL    HW2 4830   5.563   6.336   2.869  0.3420 -0.5390  0.1219
 1266SOL    HW3 4831   5.498   6.452   2.796 -1.6671 -1.4374  0.4019
 1266SOL    MW4 4832   5.570   6.409   2.822 -0.8903  0.0300  0.7937
 1267SOL     OW 4833   5.126   6.038   1.101  0.0999 -0.1465 -0.1312
 1267SOL    HW2 4834   5.190   5.994   1.158  0.0008 -0.6693 -0.4118
 1267SOL    HW3 4835   5.042   6.022   1.143  0.2688  1.9681  1.1519
 1267SOL    MW4 4836   5.124   6.030   1.114  0.1091  0.0635  0.0011
 1268SOL     OW 4837   3.594   1.439   2.183  0.4401 -0.2356  0.0111
 1268SOL    HW2 4838   3.623   1.349   2.170  1.5486  0.2710 -1.1584
 1268SOL    HW3 4839   3.627   1.487   2.107  1.0126  1.4297  1.2464
 1268SOL    MW4 4840   3.602   1.434   2.171  0.6619  0.0510  0.0198
 1269SOL     OW 4841   0.234   5.833   2.814  0.5019 -0.2905 -0.1289
 1269SOL    HW2 4842   0.328   5.820   2.810  0.7084  0.6327  1.3044
 1269SOL    HW3 4843   0.214   5.889   2.739  1.2543  0.3600  0.1534
 1269SOL    MW4 4844   0.243   5.838   2.803  0.6284 -0.0829  0.0975
 1270SOL     OW 4845   1.921   1.164   3.123 -0.1897 -0.0824 -0.5154
 1270SOL    HW2 4846   1.849   1.207   3.078 -0.8519  0.2954  0.8348
 1270SOL    HW3 4847   1.914   1.194   3.214  2.4234  0.9813 -0.5705
 1270SOL    MW4 4848   1.911   1.174   3.129  0.0677  0.1078 -0.3446
 1271SOL     OW 4849   2.402   1.366   1.758  0.3217 -0.1247  0.2354
 1271SOL    HW2 4850   2.359   1.383   1.841 -0.3122 -1.3945  0.1954
 1271SOL    HW3 4851   2.330   1.365   1.694  1.0201  3.4182 -0.8350
 1271SOL    MW4 4852   2.387   1.368   1.760  0.3302  0.1752  0.0889
 1272SOL     OW 4853   2.517   6.005   4.393  0.0542  0.2362  0.2588
 1272SOL    HW2 4854   2.612   6.020   4.397 -0.1818  2.0486 -0.0056
 1272SOL    HW3 4855   2.482   6.086   4.356 -1.2998 -1.5466 -2.7405
 1272SOL    MW4 4856   2.525   6.018   4.388 -0.1556  0.2401 -0.1718
 1273SOL     OW 4857   0.244   4.731   2.405  0.4077  0.1566  0.3208
 1273SOL    HW2 4858   0.295   4.651   2.417 -0.5121 -0.5746 -0.4874
 1273SOL    HW3 4859   0.245   4.747   2.311 -2.3950 -0.9769  0.0029
 1273SOL    MW4 4860   0.251   4.723   2.395 -0.0834 -0.0894  0.1722
 1274SOL     OW 4861   5.270   4.921   1.411 -0.2915  0.2149  0.4923
 1274SOL    HW2 4862   5.317   4.933   1.493 -1.7815  0.2808  1.3777
 1274SOL    HW3 4863   5.211   4.847   1.428  0.3276 -0.6613 -0.9740
 1274SOL    MW4 4864   5.269   4.913   1.424 -0.4064  0.1080  0.4157
 1275SOL     OW 4865   4.481   1.223   2.288  0.0724 -0.4585  1.1780
 1275SOL    HW2 4866   4.480   1.296   2.226 -0.6479 -1.4410 -0.0053
 1275SOL    HW3 4867   4.401   1.175   2.270 -0.1169 -0.8208  2.8475
 1275SOL    MW4 4868   4.470   1.227   2.277 -0.0476 -0.6360  1.2422
 1276SOL     OW 4869   2.786   6.134   2.260 -0.5789 -0.1598  0.1573
 1276SOL    HW2 4870   2.866   6.186   2.267 -0.1449 -0.8191  0.2020
 1276SOL    HW3 4871   2.716   6.198   2.265 -0.1248  0.2573  2.1689
 1276SOL    MW4 4872   2.788   6.150   2.262 -0.4617 -0.1918  0.4286
 1277SOL     OW 4873   3.697   5.001   4.727 -0.5613 -0.2043  0.1736
 1277SOL    HW2 4874   3.653   5.041   4.802 -1.3823 -0.7090 -0.0310
 1277SOL    HW3 4875   3.699   5.070   4.661  2.1003  0.9885  1.3406
 1277SOL    MW4 4876   3.692   5.015   4.728 -0.3185 -0.1135  0.3006
 1278SOL     OW 4877   3.841   0.623  -0.007  0.1643  0.1115 -0.0710
 1278SOL    HW2 4878   3.835   0.556   0.062 -0.5895  1.6348  1.4234
 1278SOL    HW3 4879   3.760   0.673   0.002  0.1262  0.4575 -2.0076
 1278SOL    MW4 4880   3.829   0.620   0.003  0.0599  0.3581 -0.1293
 1279SOL     OW 4881   2.875   0.466   0.723  0.4141 -0.4109 -0.1124
 1279SOL    HW2 4882   2.796   0.502   0.682  1.7552  2.3828 -0.4828
 1279SOL    HW3 4883   2.891   0.523   0.798  1.7840 -1.2923  0.2931
 1279SOL    MW4 4884   2.866   0.478   0.727  0.7718 -0.1586 -0.1077
 1280SOL     OW 4885   4.499   4.359   3.589 -0.1593 -0.1552  0.1532
 1280SOL    HW2 4886   4.519   4.450   3.614  2.2324 -0.1214 -1.5616
 1280SOL    HW3 4887   4.487   4.363   3.494  0.5762 -1.7210 -0.0217
 1280SOL    MW4 4888   4.500   4.372   3.580  0.2533 -0.3573 -0.0961
 1281SOL     OW 4889   2.746   0.023   2.303  0.4307 -0.7562 -0.0637
 1281SOL    HW2 4890   2.676   0.032   2.239  0.6174  2.7127  0.0680
 1281SOL    HW3 4891   2.702   0.006   2.386 -0.0720 -1.0749 -0.3929
 1281SOL    MW4 4892   2.731   0.022   2.306  0.3890 -0.3406 -0.0897
 1282SOL     OW 4893   5.826   6.010   4.738  0.2352  0.2673  0.9594
 1282SOL    HW2 4894   5.859   5.979   4.653 -2.0177 -0.3762  0.2292
 1282SOL    HW3 4895   5.796   5.930   4.782  0.3366  0.7253  1.8607
 1282SOL    MW4 4896   5.826   5.995   4.732 -0.0486  0.2428  0.9820
 1283SOL     OW 4897   2.523   3.730   3.129  0.3295  0.2042  0.0103
 1283SOL    HW2 4898   2.517   3.745   3.034 -0.0377 -0.7986 -0.1428
 1283SOL    HW3 4899   2.590   3.662   3.138 -1.6394 -1.8595  0.1720
 1283SOL    MW4 4900   2.531   3.723   3.117  0.0213 -0.2004  0.0114
 1284SOL     OW 4901   2.853   3.561   5.408 -0.0724 -0.1342 -0.2793
 1284SOL    HW2 4902   2.910   3.628   5.445  0.6713 -0.2993 -1.0874
 1284SOL    HW3 4903   2.802   3.529   5.482  0.0082  0.8746  0.2340
 1284SOL    MW4 4904   2.854   3.566   5.423  0.0364 -0.0229 -0.3182
 1285SOL     OW 4905   3.331   1.461   5.625 -0.0690 -0.8956 -0.1618
 1285SOL    HW2 4906   3.374   1.377   5.614  0.8966 -0.3617 -0.5359
 1285SOL    HW3 4907   3.265   1.446   5.693 -0.0509 -1.9948 -0.3765
 1285SOL    MW4 4908   3.328   1.448   5.633  0.0608 -0.9702 -0.2395
 1286SOL     OW 4909   4.785   4.794   5.748 -0.1377 -0.2828 -0.2082
 1286SOL    HW2 4910   4.810   4.861   5.684  1.8592 -0.4010  0.3616
 1286SOL    HW3 4911   4.737   4.842   5.815 -0.8581  0.1259 -1.0046
 1286SOL    MW4 4912   4.782   4.809   5.748  0.0308 -0.2445 -0.2381
 1287SOL     OW 4913   0.268   4.300   0.541  0.4338  0.1791 -0.7585
 1287SOL    HW2 4914   0.279   4.285   0.447  0.1954  1.6072 -1.0374
 1287SOL    HW3 4915   0.178   4.275   0.560  0.6095 -0.5109 -0.8148
 1287SOL    MW4 4916   0.258   4.295   0.531  0.4255  0.2765 -0.8027
 1288SOL     OW 4917   4.206   2.399   3.549  1.0844 -0.0330  0.1623
 1288SOL    HW2 4918   4.197   2.401   3.644  0.0864  0.8833  0.0746
 1288SOL    HW3 4919   4.180   2.310   3.524 -0.4651  0.2557  0.6179
 1288SOL    MW4 4920   4.201   2.388   3.558  0.7483  0.1260  0.2108
 1289SOL     OW 4921   3.463   0.495   4.868 -0.4695 -0.1537  0.2742
 1289SOL    HW2 4922   3.394   0.488   4.933  0.5268 -1.8053  1.2134
 1289SOL    HW3 4923   3.524   0.559   4.904 -0.2989 -0.5003  0.6005
 1289SOL    MW4 4924   3.462   0.503   4.881 -0.3155 -0.4174  0.4411
 1290SOL     OW 4925   0.668   1.266   1.164  0.2562 -0.6315  0.0296
 1290SOL    HW2 4926   0.738   1.316   1.206  1.2529 -0.9464 -1.2083
 1290SOL    HW3 4927   0.681   1.176   1.194 -0.7818 -0.4094  1.2640
 1290SOL    MW4 4928   0.679   1.261   1.173  0.2508 -0.6437  0.0291
 1291SOL     OW 4929   6.282   5.650   5.212  0.3892 -0.3355  0.0106
 1291SOL    HW2 4930   6.238   5.569   5.240 -0.4152 -0.4699 -1.4834
 1291SOL    HW3 4931   6.309   5.692   5.293 -0.5688 -1.3452  0.9012
 1291SOL    MW4 4932   6.279   5.645   5.226  0.1567 -0.4865 -0.0690
 1292SOL     OW 4933   0.503   4.979   3.867 -0.2814  0.3002  0.2970
 1292SOL    HW2 4934   0.556   5.052   3.899 -0.9027  0.5330  0.8168
 1292SOL    HW3 4935   0.463   5.012   3.786 -1.7712  1.1022  1.3243
 1292SOL    MW4 4936   0.504   4.993   3.860 -0.5599  0.4368  0.5011
 1293SOL     OW 4937   0.179   0.080   6.064 -0.2948 -0.1870 -0.1445
 1293SOL    HW2 4938   0.175   0.168   6.103  0.2941  0.9770 -2.5267
 1293SOL    HW3 4939   0.269   0.051   6.080 -0.4497 -0.3006  0.5276
 1293SOL    MW4 4940   0.190   0.088   6.071 -0.2375 -0.0484 -0.3701
 1294SOL     OW 4941   4.737   1.723   1.744  0.9368 -0.7307  0.6588
 1294SOL    HW2 4942   4.787   1.646   1.772  1.0651 -0.8777  0.0403
 1294SOL    HW3 4943   4.722   1.709   1.651 -0.0719 -0.5700  0.7948
 1294SOL    MW4 4944   4.742   1.711   1.735  0.8207 -0.7289  0.5951
 1295SOL     OW 4945   2.049   6.106   3.203  0.1285  0.1306 -0.1523
 1295SOL    HW2 4946   2.110   6.060   3.261 -2.3773 -0.1231  2.5065
 1295SOL    HW3 4947   2.075   6.198   3.208  1.4837 -0.1966 -0.7165
 1295SOL    MW4 4948   2.061   6.112   3.211 -0.0233  0.0540  0.1240
 1296SOL     OW 4949   1.668   3.928   1.604  0.0057 -0.3878  0.1307
 1296SOL    HW2 4950   1.678   3.833   1.610  0.9272 -0.3566 -0.6643
 1296SOL    HW3 4951   1.757   3.962   1.608 -0.2969  0.4286  0.1351
 1296SOL    MW4 4952   1.681   3.920   1.605  0.0874 -0.2759  0.0264
 1297SOL     OW 4953   2.873   2.445   6.054  0.0107 -0.0661  0.0825
 1297SOL    HW2 4954   2.848   2.480   6.140  0.6359 -0.8126  0.5773
 1297SOL    HW3 4955   2.948   2.498   6.028 -0.5901  0.6083 -0.3266
 1297SOL    MW4 4956   2.879   2.456   6.062  0.0139 -0.0756  0.0938
 1298SOL     OW 4957   3.966   1.680   2.719 -0.3550 -0.4064 -0.4548
 1298SOL    HW2 4958   3.937   1.678   2.810  2.5766 -2.6240  0.5856
 1298SOL    HW3 4959   4.059   1.703   2.723 -0.2891  0.1409 -2.9797
 1298SOL    MW4 4960   3.975   1.682   2.731  0.0405 -0.6267 -0.6507
 1299SOL     OW 4961   6.175   6.260   5.408 -0.1320 -0.2782  0.1647
 1299SOL    HW2 4962   6.238   6.332   5.406 -0.2643 -0.1629  0.1470
 1299SOL    HW3 4963   6.227   6.182   5.388 -0.2669  0.0124 -1.4772
 1299SOL    MW4 4964   6.190   6.260   5.405 -0.1672 -0.2246 -0.0543
 1300SOL     OW 4965   1.949   2.533   3.576  0.1419 -0.3284 -0.0699
 1300SOL    HW2 4966   2.020   2.471   3.592  2.2552  1.7566 -0.8135
 1300SOL    HW3 4967   1.938   2.579   3.659  0.2944 -0.0319 -0.2138
 1300SOL    MW4 4968   1.957   2.531   3.589  0.4408 -0.0142 -0.1870
 1301SOL     OW 4969   2.333   1.151   4.632 -0.0190  0.4143  0.0798
 1301SOL    HW2 4970   2.267   1.136   4.700 -1.1368 -0.0610 -1.0695
 1301SOL    HW3 4971   2.342   1.066   4.588  0.3362  0.8306 -0.6726
 1301SOL    MW4 4972   2.326   1.138   4.635 -0.1196  0.4065 -0.1711
 1302SOL     OW 4973   0.667   1.691   4.617  0.1828 -0.5589  0.2135
 1302SOL    HW2 4974   0.710   1.697   4.532  0.3439  0.2148  0.3403
 1302SOL    HW3 4975   0.739   1.688   4.680  0.0658  0.2111  0.3953
 1302SOL    MW4 4976   0.682   1.691   4.614  0.1887 -0.3553  0.2542
 1303SOL     OW 4977   5.321   5.884   5.125  0.2592 -0.1568 -0.7658
 1303SOL    HW2 4978   5.258   5.904   5.195  0.2862  0.2147 -0.8467
 1303SOL    HW3 4979   5.319   5.961   5.068  0.6289 -0.2372 -0.8882
 1303SOL    MW4 4980   5.312   5.897   5.127  0.3116 -0.1184 -0.7926
 1304SOL     OW 4981   4.004   4.565   4.668  0.3021  0.3248 -0.1533
 1304SOL    HW2 4982   3.974   4.655   4.680 -0.0073  0.4647 -1.7649
 1304SOL    HW3 4983   3.948   4.530   4.599 -0.5282 -1.5825  1.3714
 1304SOL    MW4 4984   3.993   4.572   4.660  0.1517  0.0917 -0.1648
 1305SOL     OW 4985   0.169   2.911   2.735 -0.1469 -0.0348 -0.0425
 1305SOL    HW2 4986   0.100   2.845   2.733  0.9616 -1.2654  0.1203
 1305SOL    HW3 4987   0.144   2.971   2.806 -2.1029  0.8264 -1.3884
 1305SOL    MW4 4988   0.157   2.910   2.744 -0.2587 -0.0835 -0.1986
 1306SOL     OW 4989   1.203   1.038   2.996 -0.0610  0.2915  0.4583
 1306SOL    HW2 4990   1.138   1.016   3.063  0.8058 -0.5584  1.0417
 1306SOL    HW3 4991   1.216   1.132   3.005  0.7336  0.0636  2.1449
 1306SOL    MW4 4992   1.196   1.048   3.006  0.1582  0.1493  0.7578
 1307SOL     OW 4993   0.893   5.058  -0.018  0.2116 -0.6306 -0.1915
 1307SOL    HW2 4994   0.850   5.015   0.055  0.7407 -1.7624 -0.5250
 1307SOL    HW3 4995   0.822   5.098  -0.068 -0.3347 -1.4096 -0.0505
 1307SOL    MW4 4996   0.878   5.058  -0.015  0.2094 -0.8827 -0.2169
 1308SOL     OW 4997   3.644   5.938   3.756  0.1195 -0.1594 -0.3164
 1308SOL    HW2 4998   3.674   5.954   3.846 -0.9316 -0.4468  0.1033
 1308SOL    HW3 4999   3.566   5.883   3.766 -1.0577  1.2416 -1.2866
 1308SOL    MW4 5000   3.638   5.933   3.769 -0.1745 -0.0125 -0.3890
 1309SOL     OW 5001   0.303   2.266  -0.007 -0.1978  0.3434  0.4284
 1309SOL    HW2 5002   0.267   2.182   0.021 -0.6584  0.6501  0.7451
 1309SOL    HW3 5003   0.393   2.245  -0.033 -0.8337 -0.5911 -1.2129
 1309SOL    MW4 5004   0.310   2.252  -0.007 -0.3425  0.2606  0.2536
 1310SOL     OW 5005   4.347   4.097   4.195 -0.0544 -0.4456  0.2022
 1310SOL    HW2 5006   4.253   4.091   4.176 -0.5070  2.6295  0.9984
 1310SOL    HW3 5007   4.389   4.077   4.111 -1.3823 -1.7981 -0.1844
 1310SOL    MW4 5008   4.340   4.094   4.181 -0.2893 -0.2183  0.2562
 1311SOL     OW 5009   1.827   2.005   5.627 -0.7258 -0.6407  0.3525
 1311SOL    HW2 5010   1.895   1.952   5.668 -1.1095 -1.7708 -0.4092
 1311SOL    HW3 5011   1.804   1.957   5.547 -1.3970  0.4673 -0.1493
 1311SOL    MW4 5012   1.833   1.992   5.622 -0.8650 -0.6436  0.1858
 1312SOL     OW 5013   5.375   2.475   5.495 -0.4030  0.5214 -0.3009
 1312SOL    HW2 5014   5.396   2.413   5.564  0.8548  0.0676 -1.0637
 1312SOL    HW3 5015   5.281   2.465   5.481 -0.5037 -0.0148  0.7216
 1312SOL    MW4 5016   5.365   2.466   5.502 -0.2504  0.3908 -0.2666
 1313SOL     OW 5017   2.991   1.985   5.046 -0.3144  0.0779  0.1474
 1313SOL    HW2 5018   3.020   1.940   5.125 -2.2475 -1.7355 -0.1005
 1313SOL    HW3 5019   3.020   2.076   5.058  4.1345 -1.1537  0.4893
 1313SOL    MW4 5020   2.999   1.991   5.058  0.0176 -0.3238  0.1598
 1314SOL     OW 5021   5.125   1.720   6.376 -0.4124 -0.2401 -0.1906
 1314SOL    HW2 5022   5.081   1.804   6.388  1.1515  0.9899 -2.3602
 1314SOL    HW3 5023   5.189   1.717   6.447  0.8412  1.3884 -1.1846
 1314SOL    MW4 5024   5.128   1.731   6.387 -0.0407  0.1370 -0.6080
 1315SOL     OW 5025   2.105   6.303   0.780  0.4784  0.2979  0.5316
 1315SOL    HW2 5026   2.141   6.222   0.745  1.9850  0.4345  1.6713
 1315SOL    HW3 5027   2.152   6.373   0.735 -0.5235  0.5645 -0.1462
 1315SOL    MW4 5028   2.116   6.301   0.770  0.5450  0.3511  0.5925
 1316SOL     OW 5029   2.093   5.316   3.727  0.3589 -0.2238  0.5833
 1316SOL    HW2 5030   2.041   5.318   3.647 -0.7727  0.9585  1.3145
 1316SOL    HW3 5031   2.097   5.224   3.751  0.1351 -0.5167 -0.4491
 1316SOL    MW4 5032   2.087   5.304   3.719  0.1801 -0.1065  0.5435
 1317SOL     OW 5033   4.462   1.490   0.943 -0.1448 -0.7141 -0.1757
 1317SOL    HW2 5034   4.476   1.398   0.965  2.9847 -0.0530  1.1729
 1317SOL    HW3 5035   4.436   1.531   1.026  0.0468 -0.1144 -0.4078
 1317SOL    MW4 5036   4.460   1.483   0.957  0.2934 -0.5477 -0.0284
 1318SOL     OW 5037   3.281   2.988   4.609  0.2752 -0.6210  0.4534
 1318SOL    HW2 5038   3.191   2.961   4.629  0.2590 -1.1133 -0.2464
 1318SOL    HW3 5039   3.282   3.082   4.626 -0.9638 -0.1853 -1.5121
 1318SOL    MW4 5040   3.269   2.997   4.614  0.1096 -0.6285  0.1018
 1319SOL     OW 5041   2.477   0.819   4.849 -0.0501 -0.3700 -0.1203
 1319SOL    HW2 5042   2.407   0.880   4.873 -0.5608 -0.8987 -0.2333
 1319SOL    HW3 5043   2.537   0.871   4.795 -0.3896  0.0748 -0.0722
 1319SOL    MW4 5044   2.476   0.834   4.845 -0.1623 -0.3811 -0.1289
 1320SOL     OW 5045   6.033   2.735   5.632 -0.0313 -1.0092 -0.1700
 1320SOL    HW2 5046   6.104   2.679   5.664  0.0219  0.2139  2.0322
 1320SOL    HW3 5047   6.077   2.807   5.586  0.1188 -0.6842  0.4794
 1320SOL    MW4 5048   6.048   2.737   5.630 -0.0045 -0.8050  0.2062
 1321SOL     OW 5049   4.169   0.751   1.023  0.4897  0.0906  0.1410
 1321SOL    HW2 5050   4.196   0.734   1.113 -1.7951  1.5258  1.1855
 1321SOL    HW3 5051   4.100   0.817   1.030 -1.2997 -1.2933 -2.4751
 1321SOL    MW4 5052   4.163   0.757   1.035 -0.0478  0.0973 -0.0664
 1322SOL     OW 5053   2.393   1.057   2.521  0.4379 -0.6942  0.2976
 1322SOL    HW2 5054   2.481   1.093   2.512  0.4205 -0.7475 -0.1246
 1322SOL    HW3 5055   2.336   1.126   2.486  0.5962 -2.2510 -3.5096
 1322SOL    MW4 5056   2.397   1.071   2.515  0.4565 -0.9066 -0.2604
 1323SOL     OW 5057   2.414   1.463   1.141 -0.0483  0.1503 -0.0005
 1323SOL    HW2 5058   2.501   1.426   1.156  0.1597  0.2192 -0.9430
 1323SOL    HW3 5059   2.354   1.400   1.181  0.3325 -0.8997 -1.0046
 1323SOL    MW4 5060   2.418   1.450   1.148  0.0294  0.0209 -0.2573
 1324SOL     OW 5061   5.543   4.916   5.809  0.2457 -0.1796  0.3138
 1324SOL    HW2 5062   5.481   4.983   5.838  0.4651 -1.0090  3.0138
 1324SOL    HW3 5063   5.592   4.958   5.738 -0.5870  1.9885  0.9397
 1324SOL    MW4 5064   5.541   4.931   5.804  0.1648 -0.0030  0.7526
 1325SOL     OW 5065   3.716   0.594   2.556  0.0587  0.0467  0.2856
 1325SOL    HW2 5066   3.683   0.566   2.470  2.9036  1.2058 -1.3106
 1325SOL    HW3 5067   3.795   0.543   2.569  0.3381  0.7919  1.6609
 1325SOL    MW4 5068   3.722   0.583   2.546  0.4709  0.2980  0.2565
 1326SOL     OW 5069   4.745   2.903   2.060  0.9864  0.3021  0.1883
 1326SOL    HW2 5070   4.777   2.993   2.065 -0.4566  0.7649  2.1296
 1326SOL    HW3 5071   4.654   2.907   2.089  0.4264 -1.6036 -1.0579
 1326SOL    MW4 5072   4.737   2.915   2.064  0.7221  0.1117  0.2800
 1327SOL     OW 5073   0.561   1.655   3.547  0.1578  0.3120 -0.2692
 1327SOL    HW2 5074   0.598   1.570   3.524  1.3270  1.0214 -1.1887
 1327SOL    HW3 5075   0.473   1.636   3.579  1.1671 -1.4301  1.6866
 1327SOL    MW4 5076   0.554   1.641   3.548  0.4452  0.1758 -0.1325
 1328SOL     OW 5077   5.974   4.543   2.321 -0.0086  0.5165 -0.1515
 1328SOL    HW2 5078   5.933   4.596   2.390  0.2957 -1.0725  1.3368
 1328SOL    HW3 5079   6.052   4.593   2.296 -0.5592  1.5147  0.0451
 1328SOL    MW4 5080   5.979   4.557   2.327 -0.0411  0.4385  0.0708
 1329SOL     OW 5081   4.397   3.776   5.089  0.4848 -0.1458 -0.0286
 1329SOL    HW2 5082   4.328   3.842   5.092  0.1527 -0.4928 -0.0075
 1329SOL    HW3 5083   4.365   3.705   5.144  0.5795 -0.5717 -0.5144
 1329SOL    MW4 5084   4.384   3.775   5.096  0.4534 -0.2478 -0.0899
 1330SOL     OW 5085   0.454   0.282   2.741  0.3723 -0.3026  0.7144
 1330SOL    HW2 5086   0.530   0.336   2.764 -0.4049  1.4511 -0.5325
 1330SOL    HW3 5087   0.409   0.267   2.824  0.6170  1.0193  1.1139
 1330SOL    MW4 5088   0.458   0.287   2.755  0.3021  0.1032  0.6026
 1331SOL     OW 5089   1.651   4.596   1.555  0.2197 -0.4049  0.3457
 1331SOL    HW2 5090   1.745   4.582   1.565  0.2504  0.2812  1.1310
 1331SOL    HW3 5091   1.637   4.593   1.460  1.3412  1.2297  0.0727
 1331SOL    MW4 5092   1.662   4.594   1.544  0.3717 -0.0987  0.4133
 1332SOL     OW 5093   2.681   0.923   5.635 -0.0300  0.2718 -0.2234
 1332SOL    HW2 5094   2.723   0.862   5.575 -1.2004  0.4941 -1.3120
 1332SOL    HW3 5095   2.695   0.885   5.722  0.5454 -0.7439 -0.7426
 1332SOL    MW4 5096   2.689   0.910   5.638 -0.1085  0.1671 -0.4355
 1333SOL     OW 5097   1.366   6.099   2.846  0.6876 -0.8452 -0.1961
 1333SOL    HW2 5098   1.287   6.047   2.861  0.3478 -0.0600  0.8454
 1333SOL    HW3 5099   1.382   6.090   2.752 -0.5111 -1.2013 -0.3954
 1333SOL    MW4 5100   1.357   6.091   2.836  0.4846 -0.7886 -0.0850
 1334SOL     OW 5101   5.251   3.618   3.443  0.2716 -0.6473 -0.0619
 1334SOL    HW2 5102   5.299   3.541   3.412  1.7995 -0.5841  1.9287
 1334SOL    HW3 5103   5.224   3.595   3.532  2.1655  1.6118  1.2152
 1334SOL    MW4 5104   5.254   3.605   3.450  0.7231 -0.3409  0.3692
 1335SOL     OW 5105   5.940   4.231   3.469  0.4712  0.4235 -0.7518
 1335SOL    HW2 5106   5.972   4.294   3.534  0.9960 -1.2761  0.7084
 1335SOL    HW3 5107   6.012   4.169   3.459  0.1386  0.2697 -2.4991
 1335SOL    MW4 5108   5.954   4.231   3.476  0.4965  0.1790 -0.7897
 1336SOL     OW 5109   0.370   2.962   4.886 -0.5621  0.0795  0.2287
 1336SOL    HW2 5110   0.324   2.928   4.963  1.6122 -1.8628  0.7847
 1336SOL    HW3 5111   0.352   2.897   4.818 -0.0784  0.2299 -0.0427
 1336SOL    MW4 5112   0.361   2.949   4.887 -0.2114 -0.1569  0.2663
 1337SOL     OW 5113   1.192   2.434   6.305  0.1081 -0.1337  0.5040
 1337SOL    HW2 5114   1.191   2.349   6.261  0.6807 -0.4912  1.1703
 1337SOL    HW3 5115   1.106   2.472   6.286 -0.7000 -1.4621  1.3562
 1337SOL    MW4 5116   1.181   2.428   6.297  0.0770 -0.3562  0.7044
 1338SOL     OW 5117   3.131   0.527   5.469  0.3217 -0.0158  0.5309
 1338SOL    HW2 5118   3.076   0.486   5.402  0.7095 -0.1830  0.3059
 1338SOL    HW3 5119   3.172   0.453   5.515  0.1221  0.1005  0.9003
 1338SOL    MW4 5120   3.129   0.512   5.466  0.3466 -0.0225  0.5499
 1339SOL     OW 5121   0.320   5.565   4.091 -0.0983  0.5982  0.2280
 1339SOL    HW2 5122   0.226   5.546   4.087  0.2393 -1.5551  0.8790
 1339SOL    HW3 5123   0.338   5.616   4.012 -1.5052 -0.6058 -0.9310
 1339SOL    MW4 5124   0.310   5.569   4.080 -0.2394  0.1552  0.1610
 1340SOL     OW 5125   6.104   1.177   5.483  0.1596  0.3692  0.6557
 1340SOL    HW2 5126   6.040   1.164   5.554  2.1619  0.7157  2.6201
 1340SOL    HW3 5127   6.081   1.262   5.446 -0.4631  0.5378  1.3927
 1340SOL    MW4 5128   6.092   1.186   5.488  0.3416  0.4372  1.0121
 1341SOL     OW 5129   4.840   4.891   1.255 -0.8030  0.7785  0.2424
 1341SOL    HW2 5130   4.901   4.831   1.299 -1.0241  0.5263  0.2058
 1341SOL    HW3 5131   4.848   4.870   1.162 -1.5079  0.2188  0.3034
 1341SOL    MW4 5132   4.849   4.881   1.249 -0.9252  0.6714  0.2456
 1342SOL     OW 5133   5.831   1.495   4.478 -0.2075 -0.0881 -0.0246
 1342SOL    HW2 5134   5.819   1.467   4.569 -1.0261 -2.0945 -0.6948
 1342SOL    HW3 5135   5.777   1.574   4.470 -0.8552 -0.4043  0.9937
 1342SOL    MW4 5136   5.822   1.502   4.489 -0.4010 -0.3945  0.0213
 1343SOL     OW 5137   4.509   3.973   5.569  0.2843 -0.5152 -0.4367
 1343SOL    HW2 5138   4.491   4.056   5.524  2.7019 -0.8920 -2.3386
 1343SOL    HW3 5139   4.469   3.906   5.513  1.2401 -0.8352 -0.7485
 1343SOL    MW4 5140   4.501   3.975   5.556  0.7294 -0.6071 -0.7288
 1344SOL     OW 5141   3.796   1.228   4.435 -0.2056 -0.0641 -0.2226
 1344SOL    HW2 5142   3.858   1.189   4.373  0.2797  1.1806 -0.5590
 1344SOL    HW3 5143   3.828   1.318   4.447 -0.3651 -0.2236  1.7370
 1344SOL    MW4 5144   3.809   1.235   4.428 -0.1626  0.0791 -0.0084
 1345SOL     OW 5145   5.650   3.817   3.703  0.0189 -0.3869 -0.2230
 1345SOL    HW2 5146   5.617   3.859   3.783 -2.4396 -0.8824 -0.8986
 1345SOL    HW3 5147   5.700   3.885   3.659  0.9148  0.0733  1.4255
 1345SOL    MW4 5148   5.652   3.831   3.708 -0.1873 -0.3916 -0.0946
 1346SOL     OW 5149   3.446   5.962   1.934  0.3569  0.3672 -0.1836
 1346SOL    HW2 5150   3.437   5.924   1.846 -0.6403  0.4681 -0.1401
 1346SOL    HW3 5151   3.402   5.899   1.991 -1.1156  1.4313 -0.0781
 1346SOL    MW4 5152   3.439   5.949   1.930  0.0310  0.5209 -0.1639
 1347SOL     OW 5153   1.844   3.143   5.394  0.0069 -0.4787 -0.8163
 1347SOL    HW2 5154   1.803   3.069   5.438  1.1191 -0.4791  0.2726
 1347SOL    HW3 5155   1.858   3.112   5.304 -1.1300 -0.9453 -0.8452
 1347SOL    MW4 5156   1.840   3.129   5.388  0.0037 -0.5403 -0.6765
 1348SOL     OW 5157   3.178   5.682   0.385 -0.6997  0.8611  0.6229
 1348SOL    HW2 5158   3.130   5.716   0.461  0.5115  3.0394  0.4923
 1348SOL    HW3 5159   3.194   5.759   0.330  0.2107 -0.3322 -0.8649
 1348SOL    MW4 5160   3.174   5.697   0.388 -0.4198  0.9911  0.4093
 1349SOL     OW 5161   0.538   0.310   3.993 -0.2652 -0.4258  0.2759
 1349SOL    HW2 5162   0.465   0.370   3.978 -0.7362 -1.3037 -1.0815
 1349SOL    HW3 5163   0.505   0.249   4.059 -0.4625 -0.3392  0.2591
 1349SOL    MW4 5164   0.524   0.310   4.000 -0.3534 -0.5302  0.0946
 1350SOL     OW 5165   5.201   3.463   4.197  0.6652  0.9136  0.1789
 1350SOL    HW2 5166   5.267   3.527   4.172  1.8057  0.1217  1.0594
 1350SOL    HW3 5167   5.243   3.409   4.264 -0.4555 -0.3897 -0.1039
 1350SOL    MW4 5168   5.215   3.464   4.202  0.6678  0.6372  0.2578
 1351SOL     OW 5169   4.986   2.941   5.776 -0.0572 -0.1355 -0.4884
 1351SOL    HW2 5170   5.057   2.896   5.729 -0.4824 -1.2947 -0.0544
 1351SOL    HW3 5171   5.020   2.953   5.865 -0.7789 -1.6702  0.0233
 1351SOL    MW4 5172   5.000   2.936   5.782 -0.2085 -0.4909 -0.3636
 1352SOL     OW 5173   6.141   5.693   0.694 -0.3343  0.2551  0.1758
 1352SOL    HW2 5174   6.125   5.649   0.777 -0.3085  4.0861  2.4285
 1352SOL    HW3 5175   6.071   5.759   0.687  0.2832  0.7856 -2.3260
 1352SOL    MW4 5176   6.130   5.696   0.704 -0.2494  0.8305  0.1429
 1353SOL     OW 5177   5.387   5.481   5.904 -0.6367 -0.0043 -0.3155
 1353SOL    HW2 5178   5.342   5.549   5.954 -0.3552 -0.2953  0.3371
 1353SOL    HW3 5179   5.344   5.400   5.929  0.1787 -0.2726  0.2327
 1353SOL    MW4 5180   5.375   5.479   5.914 -0.4920 -0.0781 -0.1570
 1354SOL     OW 5181   4.807   0.058   5.352  0.1531 -0.4067  0.0339
 1354SOL    HW2 5182   4.899   0.042   5.333 -0.1174 -1.5594 -0.3887
 1354SOL    HW3 5183   4.795   0.028   5.442  0.0632 -0.8536 -0.1229
 1354SOL    MW4 5184   4.817   0.052   5.361  0.1055 -0.6178 -0.0425
 1355SOL     OW 5185   3.370   1.466   3.257 -0.2767 -0.2847  0.1620
 1355SOL    HW2 5186   3.443   1.505   3.210 -1.6509 -0.1114 -1.9545
 1355SOL    HW3 5187   3.348   1.529   3.325  1.3003 -0.1931  0.6132
 1355SOL    MW4 5188   3.377   1.480   3.260 -0.2499 -0.2497 -0.0577
 1356SOL     OW 5189   2.240   4.307   3.939 -0.5928 -0.0458  0.1730
 1356SOL    HW2 5190   2.254   4.214   3.960 -1.3877  0.1167  1.5188
 1356SOL    HW3 5191   2.328   4.345   3.942 -0.1135 -0.9140 -1.3887
 1356SOL    MW4 5192   2.254   4.300   3.942 -0.6344 -0.1389  0.1445
 1357SOL     OW 5193   4.758   3.999   5.653  0.9676  0.3773 -0.1106
 1357SOL    HW2 5194   4.671   3.960   5.644  0.7470  0.4180  1.4978
 1357SOL    HW3 5195   4.800   3.948   5.722  1.4501  1.6443  0.5548
 1357SOL    MW4 5196   4.752   3.987   5.661  1.0022  0.5498  0.1894
 1358SOL     OW 5197   3.597   5.291   4.049  0.4933 -0.4756 -0.1494
 1358SOL    HW2 5198   3.597   5.354   3.976 -1.5520 -0.4515 -0.1806
 1358SOL    HW3 5199   3.509   5.254   4.048  0.7567 -1.2242  1.6984
 1358SOL    MW4 5200   3.586   5.294   4.039  0.2582 -0.5712  0.0903
 1359SOL     OW 5201   5.359   3.892   2.691 -0.4701 -0.2376 -0.1762
 1359SOL    HW2 5202   5.412   3.928   2.620 -1.2504  0.2208 -0.5471
 1359SOL    HW3 5203   5.270   3.919   2.670 -0.6261  0.6667  1.4384
 1359SOL    MW4 5204   5.354   3.901   2.679 -0.5936 -0.0578 -0.0121
 1360SOL     OW 5205   2.924   5.118   2.932  0.0143  0.2062 -0.1889
 1360SOL    HW2 5206   3.006   5.100   2.886  1.8825  1.5204  2.3987
 1360SOL    HW3 5207   2.871   5.039   2.918  1.8767 -0.8687 -1.5941
 1360SOL    MW4 5208   2.928   5.105   2.924  0.5065  0.2378 -0.0329
 1361SOL     OW 5209   3.893   4.446   5.259  0.2570 -0.4224 -0.2360
 1361SOL    HW2 5210   3.806   4.415   5.233  0.3352 -0.3723 -0.5637
 1361SOL    HW3 5211   3.941   4.454   5.176  0.4011  0.0764 -0.1048
 1361SOL    MW4 5212   3.888   4.443   5.245  0.2863 -0.3500 -0.2619
 1362SOL     OW 5213   3.188   1.023   1.898  0.8151  0.2667  0.0905
 1362SOL    HW2 5214   3.194   1.081   1.974  1.3601  2.0764 -1.2681
 1362SOL    HW3 5215   3.279   1.003   1.876  0.8179  2.0029 -1.6851
 1362SOL    MW4 5216   3.201   1.028   1.906  0.8874  0.7345 -0.3230
 1363SOL     OW 5217   6.332   0.717   2.955  0.2215  0.1678  0.2949
 1363SOL    HW2 5218   6.324   0.676   3.041 -0.0325  0.0470  0.2161
 1363SOL    HW3 5219   6.402   0.668   2.911 -0.6582 -0.7738 -0.1218
 1363SOL    MW4 5220   6.340   0.705   2.960  0.0719  0.0277  0.2295
 1364SOL     OW 5221   0.505   4.913   0.598  0.1883  0.4410 -0.3970
 1364SOL    HW2 5222   0.516   4.844   0.533  2.1424  1.2107 -0.9692
 1364SOL    HW3 5223   0.563   4.887   0.670  1.9870  2.0313 -1.1663
 1364SOL    MW4 5224   0.514   4.901   0.599  0.6834  0.7523 -0.5740
 1365SOL     OW 5225   4.497   3.078   5.195 -0.0888 -0.0790 -0.9135
 1365SOL    HW2 5226   4.412   3.055   5.158 -0.0002 -1.1049 -0.5243
 1365SOL    HW3 5227   4.493   3.050   5.286  0.0751  1.4477 -0.4097
 1365SOL    MW4 5228   4.485   3.071   5.202 -0.0555 -0.0129 -0.7957
 1366SOL     OW 5229   2.416   3.304   1.456  0.7493 -0.2537 -0.8472
 1366SOL    HW2 5230   2.329   3.270   1.482  0.9286  0.0760  0.2357
 1366SOL    HW3 5231   2.410   3.315   1.361 -0.6955  0.5891 -0.6882
 1366SOL    MW4 5232   2.403   3.301   1.447  0.5823 -0.0990 -0.6833
 1367SOL     OW 5233   1.703   0.083   4.016  0.2109 -0.1244 -0.1904
 1367SOL    HW2 5234   1.722   0.171   4.049  2.2601 -0.7336  0.4024
 1367SOL    HW3 5235   1.717   0.025   4.091  0.9055 -1.1305 -1.0597
 1367SOL    MW4 5236   1.708   0.087   4.030  0.5729 -0.3375 -0.2269
 1368SOL     OW 5237   1.984   6.307   6.081  0.0263  0.5391  0.7472
 1368SOL    HW2 5238   1.908   6.304   6.023 -0.6189  2.8609  1.3696
 1368SOL    HW3 5239   1.948   6.293   6.168  0.3035  1.5689  1.0369
 1368SOL    MW4 5240   1.969   6.305   6.085 -0.0222  0.9813  0.8675
 1369SOL     OW 5241   4.112   1.800   3.444 -0.1780 -0.1705 -0.0567
 1369SOL    HW2 5242   4.145   1.712   3.458  0.5521  0.2268  0.8344
 1369SOL    HW3 5243   4.108   1.839   3.532 -2.1397  0.1275 -0.2309
 1369SOL    MW4 5244   4.116   1.794   3.457 -0.3405 -0.0788  0.0379
 1370SOL     OW 5245   2.440   2.945   5.642 -0.6497  0.1751  0.1254
 1370SOL    HW2 5246   2.454   2.859   5.680 -0.8043 -0.0616 -0.3421
 1370SOL    HW3 5247   2.418   3.002   5.716 -1.5899 -0.4107  0.3078
 1370SOL    MW4 5248   2.439   2.941   5.656 -0.7941  0.0666  0.0878
 1371SOL     OW 5249   6.151   3.143   0.519 -0.7082  0.5206 -0.5378
 1371SOL    HW2 5250   6.139   3.118   0.611 -0.7050  1.4025 -0.2937
 1371SOL    HW3 5251   6.107   3.228   0.511  3.0668  2.7233 -0.2000
 1371SOL    MW4 5252   6.143   3.151   0.530 -0.2097  0.9275 -0.4610
 1372SOL     OW 5253   2.919   2.616   2.696  0.1410  0.1049  0.2163
 1372SOL    HW2 5254   2.837   2.575   2.670  0.6941 -1.0085  0.1549
 1372SOL    HW3 5255   2.893   2.688   2.754 -0.8617 -0.3760  0.3882
 1372SOL    MW4 5256   2.905   2.620   2.701  0.0817 -0.1055  0.2309
 1373SOL     OW 5257   0.706   0.497   2.284 -0.2380 -0.1609  0.2407
 1373SOL    HW2 5258   0.775   0.559   2.260  1.6946 -2.2470  0.1026
 1373SOL    HW3 5259   0.645   0.501   2.210  0.6620  0.4314 -0.5010
 1373SOL    MW4 5260   0.707   0.506   2.271  0.1357 -0.3580  0.1246
 1374SOL     OW 5261   6.126   0.795   2.778  0.0918 -0.0713  0.1385
 1374SOL    HW2 5262   6.192   0.764   2.840 -2.1190  0.6217  3.0683
 1374SOL    HW3 5263   6.085   0.716   2.745  1.9057 -0.4871 -1.3093
 1374SOL    MW4 5264   6.130   0.781   2.782  0.0394 -0.0347  0.3340
 1375SOL     OW 5265   1.757   1.723   5.781 -0.0824 -0.1835 -0.2231
 1375SOL    HW2 5266   1.774   1.805   5.827 -2.0307  0.0481  0.1776
 1375SOL    HW3 5267   1.698   1.674   5.839  1.0020 -1.8802 -0.4691
 1375SOL    MW4 5268   1.751   1.727   5.795 -0.1964 -0.3768 -0.2027
 1376SOL     OW 5269   5.815   3.327   1.821 -0.5133  0.1620 -0.0179
 1376SOL    HW2 5270   5.750   3.304   1.888 -0.1306  0.2505  0.3887
 1376SOL    HW3 5271   5.763   3.354   1.746 -0.9539 -0.2985  0.1153
 1376SOL    MW4 5272   5.799   3.328   1.820 -0.5209  0.1129  0.0533
 1377SOL     OW 5273   6.328   5.215   4.556 -0.7390  0.4326  0.1005
 1377SOL    HW2 5274   6.262   5.187   4.620  1.1353 -0.3420  1.7829
 1377SOL    HW3 5275   6.316   5.310   4.550 -0.9840  0.5315  1.6235
 1377SOL    MW4 5276   6.317   5.224   4.564 -0.5240  0.3435  0.5234
 1378SOL     OW 5277   6.335   0.031   5.398  0.3478 -0.1750  0.1125
 1378SOL    HW2 5278   6.411   0.020   5.340  0.4406 -0.2710  0.2503
 1378SOL    HW3 5279   6.276   0.088   5.350  0.1277 -0.7973 -0.3650
 1378SOL    MW4 5280   6.338   0.037   5.384  0.3310 -0.2698  0.0677
 1379SOL     OW 5281   4.545   4.782   6.313  0.4172 -0.4971 -1.3574
 1379SOL    HW2 5282   4.527   4.755   6.223 -0.3532  0.6203 -1.5575
 1379SOL    HW3 5283   4.485   4.730   6.366 -0.5229  0.2392 -1.6735
 1379SOL    MW4 5284   4.535   4.772   6.308  0.1915 -0.2525 -1.4255
 1380SOL     OW 5285   4.374   6.263   3.155 -0.3338 -0.2643 -0.1556
 1380SOL    HW2 5286   4.291   6.312   3.155 -0.8277 -1.0838  0.1181
 1380SOL    HW3 5287   4.351   6.176   3.187  0.1442 -1.3681 -2.5764
 1380SOL    MW4 5288   4.360   6.258   3.160 -0.3359 -0.5181 -0.4389
 1381SOL     OW 5289  -0.006   3.920   6.294 -0.5719  0.6502 -0.1327
 1381SOL    HW2 5290  -0.020   3.920   6.389 -1.1916 -0.1326 -0.2081
 1381SOL    HW3 5291   0.070   3.864   6.282 -2.0736 -1.5154 -0.2531
 1381SOL    MW4 5292   0.002   3.913   6.305 -0.8518  0.2612 -0.1585
 1382SOL     OW 5293   0.831   5.577   5.275  0.3310  0.1109 -0.2286
 1382SOL    HW2 5294   0.783   5.495   5.289  0.7409 -0.3578 -1.4303
 1382SOL    HW3 5295   0.816   5.598   5.183  1.5378  0.5311 -0.3403
 1382SOL    MW4 5296   0.823   5.569   5.265  0.5443  0.1045 -0.4019
 1383SOL     OW 5297   1.082   3.991   2.285  0.4085 -0.5743 -0.1253
 1383SOL    HW2 5298   1.173   4.018   2.272  0.0843  0.7033  0.1782
 1383SOL    HW3 5299   1.038   4.069   2.319 -0.6513 -1.3810  0.4092
 1383SOL    MW4 5300   1.088   4.005   2.288  0.2259 -0.5121 -0.0147
 1384SOL     OW 5301   5.967   2.464   3.143 -0.1744 -0.2732 -0.0268
 1384SOL    HW2 5302   6.038   2.526   3.130 -1.4827  1.1389 -0.7205
 1384SOL    HW3 5303   6.011   2.381   3.162  1.6333  0.5927 -0.2271
 1384SOL    MW4 5304   5.982   2.461   3.144 -0.1085  0.0274 -0.1448
 1385SOL     OW 5305   3.660   3.556   3.574 -0.2291 -0.1171 -0.7990
 1385SOL    HW2 5306   3.575   3.518   3.549 -0.2333 -1.0892  0.5878
 1385SOL    HW3 5307   3.724   3.508   3.520 -0.4938  0.0582 -1.2718
 1385SOL    MW4 5308   3.657   3.544   3.564 -0.2646 -0.2222 -0.6784
 1386SOL     OW 5309   1.953   5.808   2.301  0.1416 -0.4163  0.1260
 1386SOL    HW2 5310   1.897   5.766   2.236 -1.6407  0.6926  0.8640
 1386SOL    HW3 5311   2.027   5.842   2.251 -0.3348 -1.0456 -1.0492
 1386SOL    MW4 5312   1.955   5.807   2.286 -0.1564 -0.3531  0.0683
 1387SOL     OW 5313   5.489   3.645   5.235  0.0899 -0.0612 -0.5200
 1387SOL    HW2 5314   5.427   3.572   5.235 -0.3184  0.2466  1.2868
 1387SOL    HW3 5315   5.441   3.717   5.194 -0.6912  0.1007  0.6374
 1387SOL    MW4 5316   5.474   3.645   5.230 -0.0671  0.0007 -0.1289
 1388SOL     OW 5317   0.385   1.905   5.611  0.5031 -0.2059 -0.2250
 1388SOL    HW2 5318   0.393   1.854   5.691 -0.1851  1.6131  1.0780
 1388SOL    HW3 5319   0.465   1.958   5.608  0.0372  0.5122 -0.1510
 1388SOL    MW4 5320   0.396   1.906   5.621  0.3509  0.1289 -0.0433
 1389SOL     OW 5321   2.654   0.165   4.429  0.0440 -0.0125  0.0850
 1389SOL    HW2 5322   2.666   0.203   4.517 -0.1469 -1.6610  0.8538
 1389SOL    HW3 5323   2.559   0.160   4.418  0.0681  0.2080 -0.2396
 1389SOL    MW4 5324   2.643   0.170   4.439  0.0220 -0.2009  0.1436
 1390SOL     OW 5325   1.033   3.642   3.610 -0.3860 -0.6065  0.9827
 1390SOL    HW2 5326   1.124   3.662   3.633 -0.3802  1.5332 -0.5881
 1390SOL    HW3 5327   0.987   3.641   3.694  0.9729 -1.2084  1.7482
 1390SOL    MW4 5328   1.039   3.645   3.624 -0.2059 -0.4036  0.8765
 1391SOL     OW 5329   4.792   2.566   5.240 -0.1745 -0.0149  0.1071
 1391SOL    HW2 5330   4.830   2.482   5.214 -0.9385 -0.3127 -0.0663
 1391SOL    HW3 5331   4.757   2.550   5.328  0.6951  0.4525  0.5519
 1391SOL    MW4 5332   4.793   2.553   5.248 -0.1606  0.0075  0.1429
 1392SOL     OW 5333   0.890   4.075   3.750  0.5939 -0.1179 -0.2508
 1392SOL    HW2 5334   0.841   4.018   3.809 -0.4861  0.2574 -0.7528
 1392SOL    HW3 5335   0.977   4.036   3.745 -0.2070 -1.9218 -0.8394
 1392SOL    MW4 5336   0.895   4.062   3.757  0.3457 -0.3064 -0.3947
 1393SOL     OW 5337   1.025   0.173   0.983 -0.3808  0.5021 -0.1167
 1393SOL    HW2 5338   1.087   0.178   0.910 -0.6609 -0.8593 -0.4760
 1393SOL    HW3 5339   1.080   0.174   1.061  0.2365 -1.8738 -0.4547
 1393SOL    MW4 5340   1.041   0.174   0.984 -0.3363  0.0090 -0.2087
 1394SOL     OW 5341   4.174   0.035   5.528 -0.2322 -0.5711 -0.9038
 1394SOL    HW2 5342   4.082   0.014   5.514 -0.0906  0.3705 -3.7219
 1394SOL    HW3 5343   4.216   0.017   5.445  2.1099 -0.6277  0.2122
 1394SOL    MW4 5344   4.167   0.029   5.515  0.0955 -0.4543 -1.1284
 1395SOL     OW 5345   3.515   3.593   6.366 -0.2470 -0.1628 -0.2853
 1395SOL    HW2 5346   3.533   3.678   6.326 -0.4537 -0.1020 -0.2499
 1395SOL    HW3 5347   3.550   3.529   6.304 -0.5073 -0.0665 -0.5371
 1395SOL    MW4 5348   3.522   3.595   6.352 -0.3086 -0.1421 -0.3138
 1396SOL     OW 5349   1.980   4.405   4.741  0.0728 -0.2719  0.0473
 1396SOL    HW2 5350   2.022   4.447   4.666 -1.5177  1.0097 -0.1794
 1396SOL    HW3 5351   2.044   4.342   4.772  1.3559  0.2204 -1.4762
 1396SOL    MW4 5352   1.994   4.403   4.735  0.0323 -0.0379 -0.1836
 1397SOL     OW 5353   0.034   2.791   3.540  0.9598 -0.1878  0.3800
 1397SOL    HW2 5354   0.041   2.803   3.635 -0.9901 -2.7577  0.9624
 1397SOL    HW3 5355   0.087   2.714   3.521 -0.4070 -1.0326 -0.1968
 1397SOL    MW4 5356   0.042   2.782   3.550  0.5222 -0.6383  0.3807
 1398SOL     OW 5357   1.624   3.967   0.529  0.1451  0.1646  0.7439
 1398SOL    HW2 5358   1.649   3.941   0.441 -2.4554 -0.4759  0.0951
 1398SOL    HW3 5359   1.605   4.060   0.522  0.2151  0.1736  0.6765
 1398SOL    MW4 5360   1.625   3.976   0.517 -0.1888  0.0812  0.6494
 1399SOL     OW 5361   0.743   5.935   4.550  0.3104 -0.2774 -0.6822
 1399SOL    HW2 5362   0.786   5.968   4.629  0.2366  0.2373 -0.8545
 1399SOL    HW3 5363   0.751   5.840   4.557  2.4484 -0.2060 -1.2408
 1399SOL    MW4 5364   0.750   5.927   4.561  0.5827 -0.2000 -0.7786
 1400SOL     OW 5365   4.482   0.598   1.355  0.3500 -0.6285  0.4169
 1400SOL    HW2 5366   4.526   0.635   1.279 -0.1223 -0.3002  0.3000
 1400SOL    HW3 5367   4.492   0.503   1.345  2.2402 -0.5314  1.1235
 1400SOL    MW4 5368   4.489   0.590   1.344  0.5370 -0.5724  0.4947
 1401SOL     OW 5369   3.905   4.459   6.135 -0.2780  1.0657 -0.0298
 1401SOL    HW2 5370   3.884   4.484   6.045 -0.0567 -3.2280 -1.4863
 1401SOL    HW3 5371   3.995   4.426   6.130 -0.7983 -0.6936  1.3485
 1401SOL    MW4 5372   3.914   4.458   6.122 -0.3175  0.2670 -0.0401
 1402SOL     OW 5373   6.133   3.549   6.321 -0.3184 -0.0149  0.2032
 1402SOL    HW2 5374   6.054   3.600   6.301  0.0724  0.7891  0.6742
 1402SOL    HW3 5375   6.200   3.585   6.263 -0.7574 -2.1296 -1.7906
 1402SOL    MW4 5376   6.131   3.561   6.310 -0.3248 -0.1878  0.0023
 1403SOL     OW 5377   5.708   1.901   4.017  0.1852  0.2881  0.6055
 1403SOL    HW2 5378   5.725   1.990   4.046 -0.1217  0.4228  0.3697
 1403SOL    HW3 5379   5.672   1.910   3.929  1.6365 -0.1287 -0.0675
 1403SOL    MW4 5380   5.706   1.914   4.009  0.3362  0.2509  0.4856
 1404SOL     OW 5381   3.738   5.368   4.283 -0.2458  0.2524  0.4238
 1404SOL    HW2 5382   3.683   5.442   4.310 -1.7021 -0.0649 -1.5283
 1404SOL    HW3 5383   3.701   5.339   4.200  2.3378 -0.5656 -0.5382
 1404SOL    MW4 5384   3.726   5.374   4.276 -0.0971  0.1026  0.0393
 1405SOL     OW 5385   3.228   2.743   1.279 -0.2249  0.1809  0.0179
 1405SOL    HW2 5386   3.297   2.802   1.311 -0.5522 -0.1242  1.3527
 1405SOL    HW3 5387   3.156   2.801   1.255  0.4834  0.5060 -1.4224
 1405SOL    MW4 5388   3.228   2.759   1.280 -0.1746  0.1835  0.0040
 1406SOL     OW 5389   2.390   2.192   0.386  0.0943  0.1269  0.3288
 1406SOL    HW2 5390   2.321   2.221   0.445  0.8484 -0.0809  1.3403
 1406SOL    HW3 5391   2.425   2.272   0.347  1.1322  0.5127  1.9405
 1406SOL    MW4 5392   2.386   2.206   0.389  0.3307  0.1504  0.6749
 1407SOL     OW 5393   2.495   1.360   2.717  0.2301  0.1554 -0.0860
 1407SOL    HW2 5394   2.499   1.290   2.783 -0.4162 -0.1820 -0.3921
 1407SOL    HW3 5395   2.574   1.347   2.664  0.5081  0.1340  0.3267
 1407SOL    MW4 5396   2.506   1.349   2.718  0.1815  0.1081 -0.0720
 1408SOL     OW 5397   3.420   1.624   5.178  0.8084  0.2210 -0.1918
 1408SOL    HW2 5398   3.398   1.576   5.258  1.8210 -1.9593 -1.1230
 1408SOL    HW3 5399   3.340   1.672   5.156 -0.0746 -0.5678  1.1397
 1408SOL    MW4 5400   3.406   1.624   5.186  0.8255 -0.1707 -0.1390
 1409SOL     OW 5401   3.105   3.653   1.516 -0.6841 -0.2563 -0.2713
 1409SOL    HW2 5402   3.040   3.671   1.448  0.5562 -0.5846 -1.5838
 1409SOL    HW3 5403   3.183   3.699   1.487 -0.0025 -0.7482  0.7359
 1409SOL    MW4 5404   3.106   3.662   1.503 -0.4305 -0.3645 -0.3116
 1410SOL     OW 5405   4.717   2.907   0.092  0.2790  0.1618  0.6626
 1410SOL    HW2 5406   4.760   2.985   0.056  0.2482 -0.5550 -1.0042
 1410SOL    HW3 5407   4.630   2.907   0.053 -1.1498  1.2708  3.5426
 1410SOL    MW4 5408   4.711   2.917   0.082  0.0864  0.2135  0.8226
 1411SOL     OW 5409   4.211   2.202   1.155  0.5452 -0.7249 -0.1670
 1411SOL    HW2 5410   4.242   2.287   1.124 -1.5478 -0.4429 -1.6541
 1411SOL    HW3 5411   4.243   2.140   1.089  1.0254 -0.9458  0.2644
 1411SOL    MW4 5412   4.220   2.205   1.142  0.3324 -0.7168 -0.3063
 1412SOL     OW 5413   5.765   5.359   1.022  0.0120 -0.4104 -0.5898
 1412SOL    HW2 5414   5.691   5.307   1.052  2.3152 -2.5459  1.9176
 1412SOL    HW3 5415   5.756   5.443   1.068 -1.2128 -0.3642 -0.8966
 1412SOL    MW4 5416   5.754   5.363   1.032  0.1543 -0.6860 -0.2995
 1413SOL     OW 5417   4.296   5.835   1.454  0.5358 -0.3044  0.2145
 1413SOL    HW2 5418   4.209   5.851   1.491 -0.1157 -2.2887 -0.2946
 1413SOL    HW3 5419   4.346   5.801   1.528 -0.2548 -2.6079 -0.2102
 1413SOL    MW4 5420   4.291   5.832   1.469  0.3455 -0.8701  0.0913
 1414SOL     OW 5421   3.812   6.287   3.689 -0.2085 -0.0154  0.3548
 1414SOL    HW2 5422   3.779   6.227   3.622  1.2430  1.1224 -1.4508
 1414SOL    HW3 5423   3.829   6.231   3.765  2.6252 -2.2731 -1.7526
 1414SOL    MW4 5424   3.810   6.272   3.690  0.3569 -0.1631 -0.1615
 1415SOL     OW 5425   5.872   2.138   5.955 -0.1899 -0.1124 -0.2715
 1415SOL    HW2 5426   5.823   2.072   6.004 -1.1791  0.9113  0.1291
 1415SOL    HW3 5427   5.828   2.220   5.973  0.2105  0.4815 -1.8631
 1415SOL    MW4 5428   5.860   2.140   5.964 -0.2676  0.1010 -0.4286
 1416SOL     OW 5429   4.474   2.413   3.508 -0.3786 -0.1316 -0.8218
 1416SOL    HW2 5430   4.486   2.352   3.435 -2.7729 -0.1537 -1.2711
 1416SOL    HW3 5431   4.379   2.418   3.520 -0.1000  0.8989  1.4483
 1416SOL    MW4 5432   4.463   2.406   3.500 -0.6578  0.0014 -0.5816
 1417SOL     OW 5433   2.708   0.225   4.694  0.3630 -0.3295 -0.1818
 1417SOL    HW2 5434   2.650   0.184   4.759 -1.2164  1.0828 -0.6418
 1417SOL    HW3 5435   2.764   0.283   4.746  0.3812 -0.6163  0.1231
 1417SOL    MW4 5436   2.707   0.227   4.710  0.1570 -0.1810 -0.2022
 1418SOL     OW 5437   2.776   0.232   5.645 -0.2032 -0.1279 -0.4094
 1418SOL    HW2 5438   2.795   0.311   5.696  0.5498 -0.9950  0.7017
 1418SOL    HW3 5439   2.684   0.242   5.619 -0.8189  0.0971  1.6337
 1418SOL    MW4 5440   2.766   0.244   5.648 -0.1851 -0.2126  0.0067
 1419SOL     OW 5441   3.554   3.223   4.387 -0.2726 -0.2434  0.0342
 1419SOL    HW2 5442   3.561   3.170   4.307 -1.8175  0.1497 -0.3799
 1419SOL    HW3 5443   3.619   3.292   4.375  0.3433 -0.8640 -0.3255
 1419SOL    MW4 5444   3.564   3.225   4.375 -0.3952 -0.2734 -0.0679
 1420SOL     OW 5445   0.827   4.710   5.164 -0.3891 -0.5708 -0.5242
 1420SOL    HW2 5446   0.871   4.784   5.205  2.5368 -2.9697  1.0806
 1420SOL    HW3 5447   0.765   4.679   5.230  0.1163 -0.9657 -0.2326
 1420SOL    MW4 5448   0.824   4.716   5.178  0.0636 -0.9394 -0.2740
 1421SOL     OW 5449   3.674   5.983   5.523  0.2752  0.1618  0.6536
 1421SOL    HW2 5450   3.676   5.975   5.619 -0.8868 -1.8269  0.5847
 1421SOL    HW3 5451   3.591   6.026   5.504  0.4639  0.4743  0.5331
 1421SOL    MW4 5452   3.664   5.987   5.533  0.1468 -0.0593  0.6286
 1422SOL     OW 5453   3.929   4.632   0.850 -0.1468 -0.2344  0.0417
 1422SOL    HW2 5454   3.977   4.677   0.780  0.0148 -1.0640 -0.4021
 1422SOL    HW3 5455   3.862   4.694   0.877 -0.6390 -0.1338 -1.3235
 1422SOL    MW4 5456   3.927   4.646   0.844 -0.1904 -0.3306 -0.1969
 1423SOL     OW 5457   1.028   3.211   5.180  0.1572  0.8127  0.3236
 1423SOL    HW2 5458   1.102   3.266   5.157  0.9574  0.1107  1.1330
 1423SOL    HW3 5459   1.066   3.124   5.193 -1.0505  0.0752 -0.8010
 1423SOL    MW4 5460   1.043   3.207   5.178  0.1034  0.6228  0.2820
 1424SOL     OW 5461   1.723   5.928   5.257 -0.0670  0.0679  0.1737
 1424SOL    HW2 5462   1.658   5.991   5.289 -0.8051 -0.7103  0.2225
 1424SOL    HW3 5463   1.804   5.979   5.251  0.1151  0.2998  3.1612
 1424SOL    MW4 5464   1.725   5.943   5.260 -0.1403 -0.0042  0.5743
 1425SOL     OW 5465   4.178   0.470   5.951 -0.1464 -0.0531 -0.3559
 1425SOL    HW2 5466   4.112   0.513   5.897  0.4002 -0.2906 -1.2422
 1425SOL    HW3 5467   4.187   0.527   6.027 -0.2090  0.8420 -0.9931
 1425SOL    MW4 5468   4.171   0.483   5.954 -0.0825  0.0336 -0.5569
 1426SOL     OW 5469   4.250   3.569   0.089 -0.3782 -0.0243  0.3922
 1426SOL    HW2 5470   4.312   3.499   0.073  0.6739  0.5549  1.7690
 1426SOL    HW3 5471   4.263   3.593   0.181 -2.9677 -0.1968  0.8802
 1426SOL    MW4 5472   4.260   3.563   0.099 -0.5810  0.0294  0.6382
 1427SOL     OW 5473   5.886   6.025   6.188 -0.6623  0.0620  0.4154
 1427SOL    HW2 5474   5.911   5.980   6.269 -0.9555 -0.8972 -0.0152
 1427SOL    HW3 5475   5.872   6.116   6.215  2.1294  0.4446  0.8875
 1427SOL    MW4 5476   5.887   6.031   6.202 -0.3327 -0.0141  0.4209
 1428SOL     OW 5477   5.811   4.997   0.461  0.0401 -0.2270  0.2157
 1428SOL    HW2 5478   5.871   4.923   0.457  1.2600  0.6591  1.0588
 1428SOL    HW3 5479   5.724   4.958   0.470  0.7486 -1.5653  1.7607
 1428SOL    MW4 5480   5.807   4.982   0.462  0.2946 -0.2866  0.5307
 1429SOL     OW 5481   3.650   2.066   5.305 -0.5965  0.1352 -0.3417
 1429SOL    HW2 5482   3.745   2.058   5.292 -0.8250  0.3105 -2.6116
 1429SOL    HW3 5483   3.639   2.076   5.399  1.4650 -2.2587  0.2600
 1429SOL    MW4 5484   3.661   2.066   5.316 -0.3547 -0.1575 -0.5618
 1430SOL     OW 5485   0.839   1.865   0.522 -0.4040  0.0467  0.0303
 1430SOL    HW2 5486   0.762   1.895   0.474  0.0596 -0.1483 -0.8524
 1430SOL    HW3 5487   0.835   1.911   0.606 -1.3389  0.2323 -0.1140
 1430SOL    MW4 5488   0.829   1.875   0.527 -0.4662  0.0454 -0.1052
 1431SOL     OW 5489   5.894   4.728   3.083 -0.1774 -0.4754  0.5792
 1431SOL    HW2 5490   5.947   4.801   3.115 -1.0989  0.9316 -0.9305
 1431SOL    HW3 5491   5.808   4.742   3.123 -0.2083 -1.0938  0.7438
 1431SOL    MW4 5492   5.889   4.740   3.093 -0.3031 -0.3713  0.4018
 1432SOL     OW 5493   4.686   1.289   1.289 -0.3551  0.2062 -0.2786
 1432SOL    HW2 5494   4.627   1.233   1.340  0.7600 -1.1819 -0.4409
 1432SOL    HW3 5495   4.698   1.241   1.207  2.5573 -0.6151  0.5166
 1432SOL    MW4 5496   4.680   1.275   1.285  0.1763 -0.0853 -0.1951
 1433SOL     OW 5497   2.585   1.644   2.460  0.3999 -0.2669 -0.3637
 1433SOL    HW2 5498   2.520   1.707   2.490 -0.0951 -1.2799  0.7432
 1433SOL    HW3 5499   2.534   1.573   2.422  0.9489 -0.1660 -1.3314
 1433SOL    MW4 5500   2.570   1.643   2.459  0.4071 -0.3872 -0.3453
 1434SOL     OW 5501   2.911   2.740   3.681 -0.1668  0.4762 -0.1626
 1434SOL    HW2 5502   2.975   2.755   3.750  1.8330  1.8071 -2.1454
 1434SOL    HW3 5503   2.826   2.761   3.721  0.7077 -0.2831  2.2488
 1434SOL    MW4 5504   2.908   2.745   3.695  0.2125  0.5516 -0.1060
 1435SOL     OW 5505   2.290   4.223   0.488  0.5483  0.5024 -0.4548
 1435SOL    HW2 5506   2.336   4.287   0.434  2.2689  0.8551  1.3229
 1435SOL    HW3 5507   2.359   4.167   0.522 -0.6344 -0.4958  0.3681
 1435SOL    MW4 5508   2.305   4.224   0.485  0.6193  0.4173 -0.1117
 1436SOL     OW 5509   6.296   3.230   2.888  0.2166  0.0856 -0.6036
 1436SOL    HW2 5510   6.271   3.289   2.817  1.1890  3.1247  1.4338
 1436SOL    HW3 5511   6.262   3.271   2.967  0.4505 -2.4248  0.9085
 1436SOL    MW4 5512   6.288   3.243   2.889  0.3758  0.1553 -0.1353
 1437SOL     OW 5513   2.251   3.031   1.381 -0.3676  0.4667  0.6574
 1437SOL    HW2 5514   2.228   2.951   1.334 -1.5984  1.3227 -0.2503
 1437SOL    HW3 5515   2.169   3.079   1.389  0.4842  2.0339  0.4266
 1437SOL    MW4 5516   2.237   3.027   1.376 -0.4176  0.7864  0.5072
 1438SOL     OW 5517   2.151   6.162   5.900  0.1720 -0.1483 -0.3766
 1438SOL    HW2 5518   2.092   6.199   5.966  0.3839 -0.0829 -0.2239
 1438SOL    HW3 5519   2.097   6.100   5.852  0.2266 -0.7957  0.3765
 1438SOL    MW4 5520   2.136   6.159   5.902  0.2071 -0.2251 -0.2571
 1439SOL     OW 5521   3.343   2.302   3.352 -0.0147 -0.1620  0.2884
 1439SOL    HW2 5522   3.314   2.215   3.325 -0.7607 -0.1543  1.0048
 1439SOL    HW3 5523   3.434   2.289   3.380  0.5247 -0.3080 -1.4207
 1439SOL    MW4 5524   3.351   2.289   3.352 -0.0420 -0.1802  0.1574
 1440SOL     OW 5525   5.741   2.163   4.667 -0.6459 -0.2664 -0.8535
 1440SOL    HW2 5526   5.732   2.181   4.574 -1.4749 -0.9881 -0.9281
 1440SOL    HW3 5527   5.651   2.152   4.698 -0.4674  1.1885  0.2924
 1440SOL    MW4 5528   5.728   2.164   4.659 -0.7317 -0.1696 -0.7122
 1441SOL     OW 5529   5.117   0.866   5.626  0.4259 -0.8278 -0.6017
 1441SOL    HW2 5530   5.152   0.857   5.715  1.1721 -2.2270 -1.0058
 1441SOL    HW3 5531   5.040   0.923   5.636  2.4475  1.9523  0.4054
 1441SOL    MW4 5532   5.111   0.873   5.639  0.7911 -0.6456 -0.5221
 1442SOL     OW 5533   2.598   3.581   4.438 -0.3908 -0.3376  0.4986
 1442SOL    HW2 5534   2.642   3.664   4.456  0.6827 -0.6663 -0.4776
 1442SOL    HW3 5535   2.548   3.598   4.358 -0.8819 -0.3856  0.7928
 1442SOL    MW4 5536   2.597   3.594   4.430 -0.3139 -0.3873  0.4087
 1443SOL     OW 5537   3.275   1.260   4.670 -0.0221 -0.2518 -0.1532
 1443SOL    HW2 5538   3.280   1.340   4.722 -3.6053 -0.8324  1.4030
 1443SOL    HW3 5539   3.266   1.289   4.580  0.8433  0.9909  0.1452
 1443SOL    MW4 5540   3.275   1.274   4.665 -0.3807 -0.1644  0.0915
 1444SOL     OW 5541   2.889   5.629   4.607  0.1353 -0.2006 -0.7405
 1444SOL    HW2 5542   2.878   5.724   4.610 -0.2892 -0.2626  0.7701
 1444SOL    HW3 5543   2.970   5.615   4.558  1.1406  1.0350  0.4850
 1444SOL    MW4 5544   2.898   5.639   4.601  0.2119 -0.0458 -0.3795
 1445SOL     OW 5545   0.496   0.025   1.230 -0.0422  0.0812 -0.2157
 1445SOL    HW2 5546   0.529   0.109   1.262 -0.2407 -0.6584  2.1266
 1445SOL    HW3 5547   0.497   0.033   1.134  0.8451  2.3751 -0.0659
 1445SOL    MW4 5548   0.501   0.037   1.221  0.0487  0.2862  0.1131
 1446SOL     OW 5549   3.870   4.561   0.204  0.0852  0.0709 -0.6168
 1446SOL    HW2 5550   3.932   4.564   0.131  0.7311  0.5904 -0.0537
 1446SOL    HW3 5551   3.879   4.645   0.248 -1.9440  0.6710 -1.2526
 1446SOL    MW4 5552   3.879   4.572   0.200 -0.0973  0.2186 -0.6264
 1447SOL     OW 5553   0.750   1.857   5.054  0.1519 -0.1122 -0.4757
 1447SOL    HW2 5554   0.748   1.784   4.992 -0.6227 -1.2247  0.8324
 1447SOL    HW3 5555   0.673   1.910   5.031 -0.4128 -0.7872 -0.1429
 1447SOL    MW4 5556   0.740   1.855   5.043 -0.0248 -0.3480 -0.2593
 1448SOL     OW 5557   2.623   5.760   2.628 -0.2405  0.3765  0.1965
 1448SOL    HW2 5558   2.550   5.714   2.587  0.5191 -0.3759 -0.3410
 1448SOL    HW3 5559   2.641   5.834   2.569  0.0448  0.0109 -0.1814
 1448SOL    MW4 5560   2.616   5.764   2.615 -0.1026  0.2290  0.0757
 1449SOL     OW 5561   1.476   4.700   0.026 -0.1791 -0.1264  0.5226
 1449SOL    HW2 5562   1.498   4.772  -0.033 -0.1249 -0.6128 -0.0630
 1449SOL    HW3 5563   1.529   4.716   0.104  1.0213 -0.3761 -0.2118
 1449SOL    MW4 5564   1.486   4.712   0.029 -0.0136 -0.2235  0.3484
 1450SOL     OW 5565   5.900   5.919   4.500 -0.3936 -0.2889  0.2720
 1450SOL    HW2 5566   5.927   5.980   4.432  0.7815 -0.1013  0.8782
 1450SOL    HW3 5567   5.841   5.858   4.456 -0.4341  0.4164 -0.6739
 1450SOL    MW4 5568   5.895   5.919   4.485 -0.2439 -0.1711  0.2271
 1451SOL     OW 5569   6.325   1.968   0.340  0.5577  0.3023  0.3630
 1451SOL    HW2 5570   6.337   2.053   0.298 -1.9798  0.1140 -0.9469
 1451SOL    HW3 5571   6.306   1.908   0.268  1.7346 -1.2774  1.3116
 1451SOL    MW4 5572   6.324   1.971   0.325  0.3782  0.0691  0.3154
 1452SOL     OW 5573   1.361   4.101   2.276 -0.2685 -0.0062  0.4745
 1452SOL    HW2 5574   1.387   4.048   2.200  1.0512  1.7389 -0.3699
 1452SOL    HW3 5575   1.438   4.101   2.332  0.5120  2.4939 -0.4598
 1452SOL    MW4 5576   1.374   4.094   2.273  0.0086  0.5539  0.2398
 1453SOL     OW 5577   0.519   3.837   1.259  0.0096 -0.0116  0.1562
 1453SOL    HW2 5578   0.454   3.906   1.245  0.1381  0.2209  0.6862
 1453SOL    HW3 5579   0.559   3.825   1.173  1.6146  2.2205  0.4860
 1453SOL    MW4 5580   0.515   3.845   1.246  0.2383  0.3135  0.2697
 1454SOL     OW 5581   5.911   1.604   3.226 -0.8576  0.0144  0.0409
 1454SOL    HW2 5582   5.921   1.555   3.144 -1.2327  0.0889 -0.0528
 1454SOL    HW3 5583   5.860   1.681   3.201 -2.0528 -0.5654  0.5586
 1454SOL    MW4 5584   5.905   1.607   3.212 -1.0648 -0.0523  0.0968
 1455SOL     OW 5585   3.340   5.390   0.173  0.4502 -0.1565  0.6728
 1455SOL    HW2 5586   3.426   5.386   0.215  0.2841  1.3010  1.2024
 1455SOL    HW3 5587   3.358   5.418   0.083  0.4329  2.3009  1.3556
 1455SOL    MW4 5588   3.354   5.393   0.167  0.4260  0.3600  0.8327
 1456SOL     OW 5589   4.023   5.449   6.361 -0.9252  0.1471  0.1987
 1456SOL    HW2 5590   4.010   5.354   6.358 -0.7451  0.1176  0.3243
 1456SOL    HW3 5591   4.007   5.479   6.272 -0.6258 -0.0492  0.0790
 1456SOL    MW4 5592   4.019   5.441   6.349 -0.8620  0.1173  0.1995
 1457SOL     OW 5593   1.753   3.316   0.159 -0.5341  0.0869  0.2199
 1457SOL    HW2 5594   1.814   3.307   0.233 -0.0274  1.8327  0.0713
 1457SOL    HW3 5595   1.668   3.333   0.200 -0.6514 -0.8987  0.4078
 1457SOL    MW4 5596   1.750   3.317   0.175 -0.4828  0.1872  0.2251
 1458SOL     OW 5597   2.048   2.161   2.949  0.1913  0.5701 -0.5146
 1458SOL    HW2 5598   2.026   2.075   2.913 -0.1587  1.0571 -1.4788
 1458SOL    HW3 5599   2.111   2.198   2.888  0.9650  0.6823  0.3244
 1458SOL    MW4 5600   2.053   2.154   2.936  0.2472  0.6492 -0.5311
 1459SOL     OW 5601   4.853   5.246   3.729  0.1807  0.2300 -0.1412
 1459SOL    HW2 5602   4.859   5.247   3.825 -0.0941  3.5690 -0.0478
 1459SOL    HW3 5603   4.942   5.227   3.700  0.5538  0.4445  0.8176
 1459SOL    MW4 5604   4.865   5.244   3.738  0.1937  0.6988 -0.0024
 1460SOL     OW 5605   0.821   3.737   5.163  0.5008  0.3776 -0.1185
 1460SOL    HW2 5606   0.772   3.800   5.216 -1.1302  0.5983 -1.7734
 1460SOL    HW3 5607   0.821   3.775   5.075  1.0027 -1.1091 -0.7910
 1460SOL    MW4 5608   0.814   3.750   5.158  0.3518  0.2106 -0.4256
 1461SOL     OW 5609   3.845   0.943   6.275 -0.2581  0.6532 -0.0725
 1461SOL    HW2 5610   3.858   0.860   6.321 -0.8365  0.0346 -1.0084
 1461SOL    HW3 5611   3.934   0.977   6.262 -0.0858  0.9959  1.7380
 1461SOL    MW4 5612   3.858   0.937   6.280 -0.3117  0.6168  0.0429
 1462SOL     OW 5613   4.370   4.967   3.741 -0.4746 -0.4267 -0.5880
 1462SOL    HW2 5614   4.343   5.057   3.759 -0.6565 -0.2909 -1.5315
 1462SOL    HW3 5615   4.464   4.973   3.726 -0.1906 -0.6423  0.9279
 1462SOL    MW4 5616   4.379   4.980   3.742 -0.4611 -0.4373 -0.5125
 1463SOL     OW 5617   1.089   5.478   5.277 -0.2806  0.2902 -0.4412
 1463SOL    HW2 5618   1.009   5.529   5.279  0.6852  1.8267  1.3822
 1463SOL    HW3 5619   1.093   5.435   5.362  0.4071 -0.5086 -0.8558
 1463SOL    MW4 5620   1.079   5.479   5.288 -0.0624  0.3876 -0.2553
 1464SOL     OW 5621   2.896   5.513   0.018  0.4558 -0.0807  0.2110
 1464SOL    HW2 5622   2.960   5.522   0.088 -0.4803  0.6077  1.0012
 1464SOL    HW3 5623   2.932   5.445  -0.039  0.8116 -1.3232  1.8437
 1464SOL    MW4 5624   2.909   5.505   0.020  0.3792 -0.1538  0.5307
 1465SOL     OW 5625   2.583   5.439   2.488  0.5117 -0.5211 -0.4440
 1465SOL    HW2 5626   2.531   5.413   2.413  0.2914  0.5064 -0.6575
 1465SOL    HW3 5627   2.672   5.446   2.454  0.6772 -1.5743 -0.2447
 1465SOL    MW4 5628   2.588   5.437   2.474  0.5045 -0.5245 -0.4459
 1466SOL     OW 5629   5.441   4.489   2.643  0.1996  0.4301  0.0089
 1466SOL    HW2 5630   5.526   4.518   2.677  0.0621  0.8510  0.0099
 1466SOL    HW3 5631   5.447   4.504   2.549  0.9351 -1.6482 -0.3210
 1466SOL    MW4 5632   5.453   4.495   2.636  0.2785  0.2114 -0.0345
 1467SOL     OW 5633   1.246   5.800   1.027 -0.1438 -0.1539  0.2353
 1467SOL    HW2 5634   1.184   5.862   1.066 -1.0532 -0.2039 -1.0387
 1467SOL    HW3 5635   1.321   5.853   1.002 -0.7372  0.3939 -0.4607
 1467SOL    MW4 5636   1.247   5.815   1.029 -0.3421 -0.0882 -0.0246
 1468SOL     OW 5637   5.750   5.908   2.084 -0.2148 -0.1676  0.5592
 1468SOL    HW2 5638   5.771   5.823   2.121  0.0176 -1.6604 -2.6981
 1468SOL    HW3 5639   5.656   5.903   2.066  0.3346 -1.1806 -2.6663
 1468SOL    MW4 5640   5.740   5.896   2.086 -0.1116 -0.4982 -0.2962
 1469SOL     OW 5641   4.728   6.220   4.246 -0.1978 -0.1966  0.1399
 1469SOL    HW2 5642   4.752   6.196   4.157  0.7711 -0.3431  0.4343
 1469SOL    HW3 5643   4.633   6.207   4.250 -0.3989  0.7122 -1.1457
 1469SOL    MW4 5644   4.719   6.215   4.235 -0.0965 -0.0960  0.0092
 1470SOL     OW 5645   5.520   3.285   5.415  1.1453 -0.1056  0.0364
 1470SOL    HW2 5646   5.598   3.325   5.377  0.1284  3.5778  1.3343
 1470SOL    HW3 5647   5.448   3.314   5.359  0.4539 -1.7035  0.0411
 1470SOL    MW4 5648   5.520   3.294   5.403  0.9199  0.1696  0.2083
 1471SOL     OW 5649   4.550   3.656   3.441  0.3184 -0.1578 -0.0302
 1471SOL    HW2 5650   4.478   3.651   3.504 -0.4209 -0.4144 -0.8752
 1471SOL    HW3 5651   4.577   3.747   3.443 -1.2579  0.3664 -1.0221
 1471SOL    MW4 5652   4.544   3.667   3.450  0.0129 -0.1225 -0.2726
 1472SOL     OW 5653   0.423   0.304   2.270  0.1648  0.2450 -0.0683
 1472SOL    HW2 5654   0.331   0.278   2.275  0.4184 -0.8283 -0.7002
 1472SOL    HW3 5655   0.462   0.243   2.207  0.8777  1.9530 -1.3690
 1472SOL    MW4 5656   0.416   0.292   2.262  0.2923  0.3288 -0.3233
 1473SOL     OW 5657   0.636   2.008   5.583 -0.1629 -0.1751 -0.1603
 1473SOL    HW2 5658   0.654   1.990   5.491 -0.4424  1.8601 -0.6510
 1473SOL    HW3 5659   0.705   1.962   5.631 -0.0550 -1.3081 -1.3546
 1473SOL    MW4 5660   0.647   2.000   5.578 -0.1855 -0.0561 -0.3826
 1474SOL     OW 5661   2.269   0.832   2.426  0.3441  0.1147  0.5522
 1474SOL    HW2 5662   2.296   0.821   2.334 -0.1654  0.4929  0.3541
 1474SOL    HW3 5663   2.317   0.910   2.455  0.2855  0.1625  0.5206
 1474SOL    MW4 5664   2.279   0.841   2.417  0.2691  0.1709  0.5219
 1475SOL     OW 5665   5.273   2.415   0.135  0.1462 -0.2230  0.3428
 1475SOL    HW2 5666   5.278   2.440   0.042 -0.3091  1.6114  0.7681
 1475SOL    HW3 5667   5.337   2.471   0.178 -0.4665 -0.2193  1.2780
 1475SOL    MW4 5668   5.282   2.426   0.128  0.0053  0.0195  0.5223
 1476SOL     OW 5669   1.037   0.320   2.388 -0.7730  0.5261  0.3716
 1476SOL    HW2 5670   1.063   0.331   2.296 -2.4470  2.4426  0.0611
 1476SOL    HW3 5671   0.993   0.235   2.390 -1.0543  0.6327 -0.6915
 1476SOL    MW4 5672   1.034   0.310   2.376 -1.0310  0.7930  0.1903
 1477SOL     OW 5673   2.872   2.158   6.090 -0.0525 -0.2106  0.2436
 1477SOL    HW2 5674   2.925   2.128   6.017 -1.1764  0.4696 -0.8981
 1477SOL    HW3 5675   2.851   2.249   6.070 -1.5041 -0.4038  0.7147
 1477SOL    MW4 5676   2.876   2.166   6.078 -0.3923 -0.1464  0.1551
 1478SOL     OW 5677   1.454   1.257   2.246  0.3134  0.1400  0.4041
 1478SOL    HW2 5678   1.400   1.306   2.309  1.2112  3.5529 -1.2438
 1478SOL    HW3 5679   1.537   1.304   2.245  1.5196 -1.9284 -0.8351
 1478SOL    MW4 5680   1.458   1.270   2.255  0.5910  0.3174  0.0232
 1479SOL     OW 5681   4.416   3.688   6.060 -0.0093 -0.5610 -0.6578
 1479SOL    HW2 5682   4.392   3.712   6.150  2.8170 -0.2174  0.0958
 1479SOL    HW3 5683   4.410   3.769   6.010 -2.7280 -0.9667 -1.1635
 1479SOL    MW4 5684   4.412   3.702   6.065  0.0049 -0.5692 -0.6251
 1480SOL     OW 5685   5.364   1.646   2.859  0.3404  0.1229 -0.3864
 1480SOL    HW2 5686   5.329   1.602   2.782  1.0367  0.8918 -1.1619
 1480SOL    HW3 5687   5.458   1.651   2.843  0.3544  1.3224 -0.0265
 1480SOL    MW4 5688   5.372   1.640   2.847  0.4341  0.3826 -0.4412
 1481SOL     OW 5689   5.921   1.807   0.177 -0.4862  0.4899  0.6615
 1481SOL    HW2 5690   5.902   1.855   0.258 -1.1499  0.5741  0.4557
 1481SOL    HW3 5691   5.910   1.715   0.201 -1.5575  0.5509  0.4494
 1481SOL    MW4 5692   5.917   1.801   0.191 -0.7151  0.5090  0.6063
 1482SOL     OW 5693   4.976   3.250   0.703 -0.6413 -0.0047 -0.6480
 1482SOL    HW2 5694   4.964   3.305   0.626 -0.9059  2.0728  0.7909
 1482SOL    HW3 5695   4.887   3.229   0.732 -0.5504 -0.2790 -0.5617
 1482SOL    MW4 5696   4.962   3.255   0.697 -0.6642  0.2332 -0.4467
 1483SOL     OW 5697   2.222   1.070   3.617  0.6522  0.9341  0.5590
 1483SOL    HW2 5698   2.238   0.981   3.646 -0.2348  0.6194  0.1130
 1483SOL    HW3 5699   2.309   1.111   3.616  0.9277  0.4151  1.8232
 1483SOL    MW4 5700   2.236   1.064   3.621  0.5715  0.8241  0.6670
 1484SOL     OW 5701   2.092   0.886   3.357  0.8358 -0.0910  0.0401
 1484SOL    HW2 5702   2.148   0.810   3.371 -1.3059 -1.7049  0.4315
 1484SOL    HW3 5703   2.050   0.901   3.441  0.3531  0.8019 -0.3453
 1484SOL    MW4 5704   2.094   0.878   3.370  0.4895 -0.1861  0.0409
 1485SOL     OW 5705   1.366   0.264   0.965 -0.1091 -0.2855 -1.0866
 1485SOL    HW2 5706   1.311   0.295   1.037  1.6452  1.3375 -0.3552
 1485SOL    HW3 5707   1.307   0.262   0.889 -1.2965  0.9981 -0.2590
 1485SOL    MW4 5708   1.351   0.268   0.964 -0.0343  0.0980 -0.8809
 1486SOL     OW 5709   5.283   3.047   3.486  0.1112  0.3136 -0.1953
 1486SOL    HW2 5710   5.248   3.120   3.536  0.5114 -1.1547  2.3782
 1486SOL    HW3 5711   5.378   3.055   3.494  0.1518 -0.9612  0.9328
 1486SOL    MW4 5712   5.291   3.057   3.493  0.1694 -0.0483  0.2930
 1487SOL     OW 5713   3.537   5.435   6.220 -0.3966  0.0163  0.2651
 1487SOL    HW2 5714   3.615   5.452   6.273  0.1451 -0.9742 -0.2061
 1487SOL    HW3 5715   3.510   5.347   6.245 -1.1110  0.1848  0.0948
 1487SOL    MW4 5716   3.544   5.426   6.231 -0.4193 -0.0922  0.1805
 1488SOL     OW 5717   0.964   5.991   5.813  0.0506 -0.2431 -0.0791
 1488SOL    HW2 5718   1.010   6.053   5.870 -0.9852  0.0146  0.5062
 1488SOL    HW3 5719   0.887   6.039   5.783 -0.0436 -0.7919 -0.7277
 1488SOL    MW4 5720   0.959   6.005   5.817 -0.0985 -0.2815 -0.0875
 1489SOL     OW 5721   1.446   2.783   4.800  0.4543  0.4586  0.1683
 1489SOL    HW2 5722   1.367   2.790   4.853 -0.4583 -0.6839 -0.9847
 1489SOL    HW3 5723   1.471   2.874   4.782 -1.2009  0.8473 -0.2905
 1489SOL    MW4 5724   1.439   2.796   4.804  0.1155  0.3591 -0.0444
 1490SOL     OW 5725   4.900   3.668   1.213  0.2346 -0.5106 -0.3592
 1490SOL    HW2 5726   4.808   3.666   1.186  0.3183 -2.1070 -0.5976
 1490SOL    HW3 5727   4.940   3.732   1.154 -0.8075  0.6321  0.1242
 1490SOL    MW4 5728   4.894   3.676   1.201  0.1082 -0.5704 -0.3269
 1491SOL     OW 5729   4.397   0.801   4.732 -0.0414 -0.2000 -0.6486
 1491SOL    HW2 5730   4.407   0.850   4.649 -0.6343 -0.1156 -0.6746
 1491SOL    HW3 5731   4.349   0.861   4.789  1.3750  0.2035  0.1687
 1491SOL    MW4 5732   4.392   0.816   4.728  0.0672 -0.1356 -0.5442
 1492SOL     OW 5733   0.182   2.079   3.379 -0.3316  0.2689  0.1213
 1492SOL    HW2 5734   0.172   2.002   3.322  0.3744  0.3000 -0.0476
 1492SOL    HW3 5735   0.092   2.101   3.404 -0.6435  0.1182 -0.8015
 1492SOL    MW4 5736   0.169   2.071   3.374 -0.2796  0.2531 -0.0227
 1493SOL     OW 5737   3.783   0.896   2.936  0.0919 -0.2008 -0.5274
 1493SOL    HW2 5738   3.775   0.822   2.876 -0.3697 -0.2021 -0.4665
 1493SOL    HW3 5739   3.780   0.857   3.023  0.0259 -0.1287 -0.4971
 1493SOL    MW4 5740   3.782   0.881   2.940  0.0223 -0.1915 -0.5154
 1494SOL     OW 5741   3.517   5.587   5.998  0.3669 -0.2520  0.2141
 1494SOL    HW2 5742   3.475   5.673   6.002 -2.1998 -1.4061 -0.2205
 1494SOL    HW3 5743   3.520   5.557   6.089 -3.3207 -1.6587  0.0498
 1494SOL    MW4 5744   3.512   5.594   6.010 -0.4583 -0.5899  0.1351
 1495SOL     OW 5745   5.770   3.549   3.669 -0.4520 -0.0719  0.5039
 1495SOL    HW2 5746   5.741   3.627   3.717  1.6012 -0.3933  2.4113
 1495SOL    HW3 5747   5.705   3.483   3.691 -1.6251  0.7768 -0.2790
 1495SOL    MW4 5748   5.757   3.551   3.678 -0.3359 -0.0023  0.6523
 1496SOL     OW 5749   2.022   1.413   4.598  0.4925  0.5102  0.2784
 1496SOL    HW2 5750   1.935   1.455   4.597 -0.1423 -0.5878  2.5431
 1496SOL    HW3 5751   2.080   1.481   4.631  0.7092  1.5249 -2.0551
 1496SOL    MW4 5752   2.018   1.428   4.603  0.4373  0.4992  0.2693
 1497SOL     OW 5753   1.316   0.526   3.321 -0.3965  0.1886  0.3089
 1497SOL    HW2 5754   1.257   0.480   3.381  0.4365 -0.9962  0.2485
 1497SOL    HW3 5755   1.348   0.458   3.262  2.5544  0.3509  1.5473
 1497SOL    MW4 5756   1.312   0.511   3.321  0.1028  0.0537  0.4643
 1498SOL     OW 5757   4.812   2.098   2.552  0.0886 -0.1607  0.3157
 1498SOL    HW2 5758   4.856   2.036   2.611  0.6900 -0.6555 -0.6314
 1498SOL    HW3 5759   4.873   2.172   2.547  1.1969 -1.1273 -1.5212
 1498SOL    MW4 5760   4.826   2.100   2.559  0.3142 -0.3535 -0.0517
 1499SOL     OW 5761   4.507   3.842   4.249  0.3242  1.1569  0.2894
 1499SOL    HW2 5762   4.527   3.843   4.155 -0.6166  0.8016  0.0766
 1499SOL    HW3 5763   4.413   3.828   4.253  0.3090  1.4912  1.2899
 1499SOL    MW4 5764   4.497   3.840   4.237  0.1981  1.1541  0.3933
 1500SOL     OW 5765   1.756   5.218   2.794  0.3828 -0.1129  0.8228
 1500SOL    HW2 5766   1.731   5.126   2.803  2.0825 -1.0037 -2.2326
 1500SOL    HW3 5767   1.755   5.234   2.700  1.2795  2.6839  1.2064
 1500SOL    MW4 5768   1.752   5.208   2.783  0.7254  0.1385  0.4703
 1501SOL     OW 5769   5.358   5.167   1.257 -0.7672  0.5236  0.0514
 1501SOL    HW2 5770   5.337   5.249   1.302 -1.4348  0.7574 -0.6541
 1501SOL    HW3 5771   5.323   5.098   1.314 -0.7577  0.7664  0.3490
 1501SOL    MW4 5772   5.350   5.169   1.270 -0.8540  0.5865 -0.0024
 1502SOL     OW 5773   1.129   0.540   5.523 -0.5114 -0.3200 -0.5946
 1502SOL    HW2 5774   1.105   0.626   5.557  1.4909  0.0673 -0.0216
 1502SOL    HW3 5775   1.054   0.513   5.470 -1.6652  1.2453  0.1614
 1502SOL    MW4 5776   1.116   0.548   5.520 -0.3994 -0.0624 -0.4192
 1503SOL     OW 5777   6.055   4.726   1.290 -0.6001  0.1834 -0.0628
 1503SOL    HW2 5778   6.001   4.648   1.301 -0.6044  0.4499  2.4968
 1503SOL    HW3 5779   6.136   4.694   1.250 -1.1266 -0.8912 -0.3036
 1503SOL    MW4 5780   6.058   4.712   1.286 -0.6701  0.0768  0.2431
 1504SOL     OW 5781   4.960   1.197   0.979 -0.8724 -0.5970  0.4428
 1504SOL    HW2 5782   5.046   1.156   0.976 -0.9076 -0.6546  0.1729
 1504SOL    HW3 5783   4.914   1.162   0.902 -1.8482 -2.1179  1.6463
 1504SOL    MW4 5784   4.965   1.187   0.968 -1.0058 -0.8052  0.5659
 1505SOL     OW 5785   1.833   0.792   5.471 -0.3634 -0.1659 -0.2590
 1505SOL    HW2 5786   1.850   0.879   5.505 -2.3336  0.3926 -0.6041
 1505SOL    HW3 5787   1.892   0.784   5.395  2.4000 -0.5739  1.7813
 1505SOL    MW4 5788   1.843   0.802   5.465 -0.2588 -0.1460 -0.0354
 1506SOL     OW 5789   4.762   1.790   0.283 -0.0410 -0.0949 -0.3707
 1506SOL    HW2 5790   4.844   1.745   0.306 -0.2148 -0.7424 -0.9836
 1506SOL    HW3 5791   4.752   1.857   0.350  1.6417  0.8114 -0.9657
 1506SOL    MW4 5792   4.772   1.793   0.295  0.1581 -0.0607 -0.5301
 1507SOL     OW 5793   2.399   1.824   2.587 -0.6087  0.2514 -0.5090
 1507SOL    HW2 5794   2.338   1.800   2.517 -0.0256 -1.5066 -0.4591
 1507SOL    HW3 5795   2.368   1.777   2.664 -1.4304  2.4206  0.5526
 1507SOL    MW4 5796   2.387   1.815   2.588 -0.6402  0.3057 -0.3623
 1508SOL     OW 5797   0.111   5.997   2.610 -0.2781  0.2955  0.2700
 1508SOL    HW2 5798   0.019   6.023   2.617 -0.8234 -1.1695 -0.8841
 1508SOL    HW3 5799   0.146   6.052   2.540 -1.5271 -2.0699 -2.4410
 1508SOL    MW4 5800   0.104   6.007   2.601 -0.5148 -0.2099 -0.2399
 1509SOL     OW 5801   1.560   5.420   3.807  0.2459 -0.0629  0.0876
 1509SOL    HW2 5802   1.503   5.381   3.874 -0.2083 -3.8178 -2.2093
 1509SOL    HW3 5803   1.500   5.443   3.736  1.2062 -1.5132 -1.2563
 1509SOL    MW4 5804   1.545   5.418   3.807  0.3126 -0.7497 -0.3927
 1510SOL     OW 5805   0.642   4.263   5.744 -0.0646 -0.1864 -0.8244
 1510SOL    HW2 5806   0.585   4.338   5.760  0.1390 -0.1678 -0.1845
 1510SOL    HW3 5807   0.689   4.285   5.663  0.4306  0.6461 -0.3240
 1510SOL    MW4 5808   0.641   4.276   5.735  0.0276 -0.0741 -0.6740
 1511SOL     OW 5809   4.393   0.559   0.417  0.4097 -0.0060  0.0872
 1511SOL    HW2 5810   4.370   0.561   0.510 -1.0836 -1.8026 -0.1702
 1511SOL    HW3 5811   4.435   0.474   0.405  1.2735  0.5246 -0.7619
 1511SOL    MW4 5812   4.396   0.548   0.428  0.3266 -0.1730 -0.0588
 1512SOL     OW 5813   4.496   2.894   4.796 -0.4611 -0.1130  0.4714
 1512SOL    HW2 5814   4.527   2.855   4.877  1.2176  1.7851  0.8255
 1512SOL    HW3 5815   4.440   2.827   4.757  0.7588 -2.0840  1.9125
 1512SOL    MW4 5816   4.492   2.880   4.801 -0.0787 -0.1226  0.7083
 1513SOL     OW 5817   1.702   5.624   3.447  0.8868  0.6382  0.1868
 1513SOL    HW2 5818   1.692   5.706   3.398  2.6144 -0.3252 -1.9790
 1513SOL    HW3 5819   1.710   5.557   3.379  0.7322 -1.1733  1.8727
 1513SOL    MW4 5820   1.702   5.626   3.432  1.0944  0.2721  0.1235
 1514SOL     OW 5821   0.357   4.548   1.687  0.2492 -0.4056  0.0485
 1514SOL    HW2 5822   0.419   4.475   1.693 -0.8609 -1.4083 -0.2230
 1514SOL    HW3 5823   0.341   4.558   1.593  2.6618  2.2353 -0.2122
 1514SOL    MW4 5824   0.363   4.539   1.675  0.4210 -0.1895 -0.0217
 1515SOL     OW 5825   0.780   4.511   0.230  0.1217 -0.5998 -0.1947
 1515SOL    HW2 5826   0.796   4.565   0.307 -0.4907 -0.1848 -0.3494
 1515SOL    HW3 5827   0.684   4.511   0.220  0.2526  0.5890 -1.8185
 1515SOL    MW4 5828   0.769   4.518   0.239  0.0581 -0.3882 -0.4293
 1516SOL     OW 5829   6.353   5.128   4.280  0.1241 -0.4156  0.2468
 1516SOL    HW2 5830   6.442   5.095   4.277  0.6002  0.7599  0.7726
 1516SOL    HW3 5831   6.346   5.172   4.365 -1.1557 -1.0073  0.4775
 1516SOL    MW4 5832   6.364   5.130   4.291  0.0180 -0.3385  0.3466
 1517SOL     OW 5833   5.311   2.662   0.918  0.4880 -0.3806  0.1332
 1517SOL    HW2 5834   5.343   2.743   0.878 -1.2283  0.2208 -0.1107
 1517SOL    HW3 5835   5.295   2.685   1.010  0.3338 -0.5558  0.1504
 1517SOL    MW4 5836   5.313   2.676   0.925  0.2412 -0.3244  0.1033
 1518SOL     OW 5837   3.847   3.763   4.910 -0.2076  0.3293  0.3037
 1518SOL    HW2 5838   3.938   3.754   4.882 -0.0023 -0.5619  1.1895
 1518SOL    HW3 5839   3.799   3.780   4.829  1.2484  5.9528  0.1799
 1518SOL    MW4 5840   3.853   3.764   4.896  0.0116  0.9537  0.4042
 1519SOL     OW 5841   4.176   2.153   2.815  0.0497  0.5213 -0.2749
 1519SOL    HW2 5842   4.139   2.209   2.747 -0.2155  1.8783  0.9202
 1519SOL    HW3 5843   4.109   2.151   2.883  0.7059  0.0227  0.3780
 1519SOL    MW4 5844   4.162   2.160   2.815  0.1013  0.6345 -0.0311
 1520SOL     OW 5845   5.376   4.452   5.956  0.5898  0.5385 -0.0891
 1520SOL    HW2 5846   5.294   4.404   5.949  1.0109 -0.0670 -1.0098
 1520SOL    HW3 5847   5.366   4.526   5.897  0.8989  0.1673 -0.6157
 1520SOL    MW4 5848   5.364   4.455   5.947  0.6861  0.4096 -0.2801
 1521SOL     OW 5849   3.279   2.299   4.141  0.1529 -0.5242 -0.1038
 1521SOL    HW2 5850   3.296   2.353   4.218 -0.7244  0.4923 -0.6031
 1521SOL    HW3 5851   3.203   2.246   4.165  1.2479 -1.8870  0.5315
 1521SOL    MW4 5852   3.272   2.299   4.155  0.1817 -0.5699 -0.0859
 1522SOL     OW 5853   1.102   0.031   1.756 -1.0318  0.3430  0.1565
 1522SOL    HW2 5854   1.096   0.121   1.722 -3.1085  0.4410  0.6420
 1522SOL    HW3 5855   1.123   0.043   1.849 -2.0489  0.3910  0.3942
 1522SOL    MW4 5856   1.104   0.045   1.764 -1.4400  0.3623  0.2519
 1523SOL     OW 5857   2.897   3.021   5.975  0.4018  0.1164  0.3812
 1523SOL    HW2 5858   2.970   3.004   6.035  0.6782  0.8631  0.2655
 1523SOL    HW3 5859   2.939   3.052   5.895 -0.0934  3.2233  1.1971
 1523SOL    MW4 5860   2.912   3.022   5.973  0.3729  0.6248  0.4736
 1524SOL     OW 5861   2.925   6.226   0.518 -0.0607 -0.0841 -0.3900
 1524SOL    HW2 5862   3.002   6.179   0.548 -0.8285 -1.7013 -0.8376
 1524SOL    HW3 5863   2.919   6.205   0.425  0.2688  1.9640 -0.9318
 1524SOL    MW4 5864   2.934   6.217   0.510 -0.1185 -0.0273 -0.5205
 1525SOL     OW 5865   1.640   1.151   5.413  0.0713 -0.1022 -0.5438
 1525SOL    HW2 5866   1.670   1.230   5.458  0.2999  0.8662 -2.2832
 1525SOL    HW3 5867   1.629   1.086   5.482  0.4095  1.2894  0.8724
 1525SOL    MW4 5868   1.643   1.153   5.428  0.1461  0.2092 -0.5865
 1526SOL     OW 5869   2.748   5.793   1.239  0.2239  0.1121 -0.0825
 1526SOL    HW2 5870   2.701   5.845   1.305 -1.5383 -0.1570 -1.0612
 1526SOL    HW3 5871   2.783   5.719   1.288  3.1227  2.2644  1.4258
 1526SOL    MW4 5872   2.746   5.790   1.255  0.3739  0.3605 -0.0126
 1527SOL     OW 5873   0.637   5.080   3.566  0.2219  0.0611  0.1867
 1527SOL    HW2 5874   0.545   5.095   3.588  0.5151  0.2102  1.3844
 1527SOL    HW3 5875   0.684   5.097   3.647  1.3688  0.5103 -0.5486
 1527SOL    MW4 5876   0.631   5.084   3.580  0.4119  0.1400  0.2477
 1528SOL     OW 5877   5.836   5.683   4.340 -0.3011  0.2031  0.0725
 1528SOL    HW2 5878   5.846   5.726   4.255 -1.0028 -0.8123 -0.5530
 1528SOL    HW3 5879   5.924   5.653   4.362 -0.1037  0.5146 -0.2799
 1528SOL    MW4 5880   5.849   5.685   4.332 -0.3676  0.1102 -0.0565
 1529SOL     OW 5881   3.278   0.694   5.282  0.6832  0.2907 -0.3061
 1529SOL    HW2 5882   3.277   0.640   5.203 -0.1280 -0.3566  0.1287
 1529SOL    HW3 5883   3.235   0.640   5.349  0.6034  1.1498  0.3563
 1529SOL    MW4 5884   3.272   0.680   5.280  0.5656  0.3186 -0.1614
 1530SOL     OW 5885   0.176   1.941   4.019 -0.6786  1.0706  0.6387
 1530SOL    HW2 5886   0.175   1.855   3.977 -0.6485  0.3091  2.1266
 1530SOL    HW3 5887   0.254   1.984   3.983 -0.7532  0.5318 -0.2006
 1530SOL    MW4 5888   0.186   1.935   4.009 -0.6845  0.8991  0.7243
 1531SOL     OW 5889   4.203   5.712   2.279  0.7688 -0.0884 -0.1316
 1531SOL    HW2 5890   4.125   5.768   2.279  0.6666 -0.1205  2.7047
 1531SOL    HW3 5891   4.168   5.623   2.269  0.5143 -0.0360  0.2846
 1531SOL    MW4 5892   4.188   5.708   2.277  0.7217 -0.0857  0.2976
 1532SOL     OW 5893   0.396   2.123   6.082  0.2671  0.3415 -0.6751
 1532SOL    HW2 5894   0.352   2.065   6.144  1.9026  3.0096  3.4253
 1532SOL    HW3 5895   0.464   2.068   6.042 -0.2729 -1.3331  0.5939
 1532SOL    MW4 5896   0.399   2.108   6.085  0.4116  0.4726  0.0334
 1533SOL     OW 5897   6.160   1.724   3.333 -0.1290 -0.1072 -0.0969
 1533SOL    HW2 5898   6.072   1.690   3.318 -0.0345  0.6257 -2.8615
 1533SOL    HW3 5899   6.148   1.791   3.400 -1.4351 -0.8228  0.4442
 1533SOL    MW4 5900   6.147   1.728   3.340 -0.2889 -0.1049 -0.3902
 1534SOL     OW 5901   2.496   2.084   2.312 -0.3176 -0.6768  0.0599
 1534SOL    HW2 5902   2.470   2.148   2.245  0.1296 -1.6757 -1.0975
 1534SOL    HW3 5903   2.468   2.124   2.394 -0.8536  0.6059 -0.7064
 1534SOL    MW4 5904   2.489   2.098   2.314 -0.3293 -0.6394 -0.1939
 1535SOL     OW 5905   1.760   4.774   2.558 -0.3305 -0.3901  0.3604
 1535SOL    HW2 5906   1.781   4.694   2.607 -0.3254 -0.2823  0.5337
 1535SOL    HW3 5907   1.665   4.768   2.544 -0.2402 -0.7123 -0.1336
 1535SOL    MW4 5908   1.750   4.763   2.562 -0.3179 -0.4183  0.3181
 1536SOL     OW 5909   2.958   1.918   5.545  0.8846  0.6578 -0.6091
 1536SOL    HW2 5910   3.002   1.957   5.620  0.9523 -1.3332  0.4488
 1536SOL    HW3 5911   2.877   1.882   5.581  1.0311 -0.5400 -1.4282
 1536SOL    MW4 5912   2.953   1.919   5.560  0.9129  0.2371 -0.5776
 1537SOL     OW 5913   2.652   1.250   2.516 -0.2198 -0.3614 -0.5291
 1537SOL    HW2 5914   2.682   1.270   2.427 -0.7398 -1.0766 -0.8795
 1537SOL    HW3 5915   2.726   1.203   2.555 -0.8482 -2.2398 -1.4375
 1537SOL    MW4 5916   2.666   1.246   2.509 -0.3713 -0.7036 -0.6952
 1538SOL     OW 5917   0.596   5.792   3.162  0.0308  0.4752  0.7989
 1538SOL    HW2 5918   0.682   5.785   3.121 -0.9712  0.2249 -1.3736
 1538SOL    HW3 5919   0.593   5.720   3.225  0.2387 -1.6265 -1.4336
 1538SOL    MW4 5920   0.607   5.782   3.165 -0.0740  0.1649  0.2177
 1539SOL     OW 5921   4.386   4.223   6.278 -0.4332 -0.0001 -0.0742
 1539SOL    HW2 5922   4.439   4.210   6.198 -2.1364  1.2419 -1.4653
 1539SOL    HW3 5923   4.296   4.216   6.248 -1.1285  0.9877  1.6825
 1539SOL    MW4 5924   4.381   4.220   6.263 -0.7497  0.2941 -0.0259
 1540SOL     OW 5925   3.067   0.057   3.225 -0.1955 -0.3665 -0.0527
 1540SOL    HW2 5926   3.001   0.126   3.216 -0.5740 -0.0666  3.6094
 1540SOL    HW3 5927   3.148   0.098   3.196 -0.8047  0.8026 -0.1989
 1540SOL    MW4 5928   3.069   0.072   3.220 -0.3258 -0.1727  0.4112
 1541SOL     OW 5929   2.893   6.424   3.500 -0.1987 -0.0450 -0.2225
 1541SOL    HW2 5930   2.951   6.483   3.547  1.1531  0.3133 -2.1797
 1541SOL    HW3 5931   2.952   6.359   3.461 -1.2904 -0.6967 -0.8452
 1541SOL    MW4 5932   2.908   6.423   3.501 -0.1644 -0.0837 -0.5629
 1542SOL     OW 5933   2.067   5.577   2.935  0.0229  0.2397 -0.4184
 1542SOL    HW2 5934   2.047   5.485   2.951  0.8032  0.1234 -0.0667
 1542SOL    HW3 5935   2.154   5.576   2.896 -0.3591  0.7729 -1.3257
 1542SOL    MW4 5936   2.076   5.565   2.932  0.0755  0.2947 -0.4917
 1543SOL     OW 5937   0.480   3.379   5.556  0.9254 -0.7886 -0.5635
 1543SOL    HW2 5938   0.574   3.397   5.554  0.8968 -0.3316  0.9832
 1543SOL    HW3 5939   0.474   3.288   5.586  0.8640 -0.8103 -0.6408
 1543SOL    MW4 5940   0.491   3.370   5.559  0.9135 -0.7311 -0.3696
 1544SOL     OW 5941   0.793   2.868   0.116  0.0928 -0.6445 -0.5291
 1544SOL    HW2 5942   0.722   2.930   0.102 -0.8665 -1.0398  2.0416
 1544SOL    HW3 5943   0.855   2.886   0.046 -1.6914  0.9261 -1.8095
 1544SOL    MW4 5944   0.792   2.878   0.104 -0.2692 -0.4895 -0.3589
 1545SOL     OW 5945   0.450   0.757   1.161 -0.5364  0.5643 -0.0867
 1545SOL    HW2 5946   0.498   0.770   1.243 -2.4824 -0.9165  1.3920
 1545SOL    HW3 5947   0.511   0.711   1.104  0.0217 -0.8115  1.5449
 1545SOL    MW4 5948   0.464   0.753   1.165 -0.7195  0.1874  0.3236
 1546SOL     OW 5949   1.782   3.619   6.159 -0.7219 -1.2605 -0.1012
 1546SOL    HW2 5950   1.755   3.701   6.200  0.6456 -1.4193  1.2103
 1546SOL    HW3 5951   1.776   3.636   6.065 -1.8160 -0.1375  0.1513
 1546SOL    MW4 5952   1.778   3.632   6.152 -0.6858 -1.1333  0.1052
 1547SOL     OW 5953   2.966   5.969   4.962  0.4654  0.2750  0.9417
 1547SOL    HW2 5954   3.012   5.932   4.886  0.5400  0.0006  1.1195
 1547SOL    HW3 5955   2.973   5.902   5.029  1.2097  0.9059  1.5031
 1547SOL    MW4 5956   2.973   5.955   4.961  0.5734  0.3220  1.0392
 1548SOL     OW 5957   4.249   6.051   5.096 -0.0411  0.4554  0.5730
 1548SOL    HW2 5958   4.240   6.013   5.183 -0.5804  2.1578  1.2958
 1548SOL    HW3 5959   4.333   6.097   5.097  2.1573 -3.0661 -1.3080
 1548SOL    MW4 5960   4.259   6.052   5.108  0.1778  0.2154  0.4202
 1549SOL     OW 5961   5.412   5.116   4.219 -0.0816  0.0921 -0.4563
 1549SOL    HW2 5962   5.427   5.123   4.313  0.1676  0.0048 -0.4899
 1549SOL    HW3 5963   5.499   5.120   4.180 -0.1621 -0.1520 -0.6654
 1549SOL    MW4 5964   5.425   5.117   4.226 -0.0593  0.0484 -0.4883
 1550SOL     OW 5965   5.880   4.830   2.116  0.4456  1.0390 -0.5489
 1550SOL    HW2 5966   5.839   4.903   2.161  0.1324  0.7169 -0.3056
 1550SOL    HW3 5967   5.973   4.851   2.115  0.3639  1.4035 -0.4159
 1550SOL    MW4 5968   5.887   4.842   2.121  0.3935  1.0446 -0.4993
 1551SOL     OW 5969   1.671   3.928   4.479 -0.1445  0.0482  0.2628
 1551SOL    HW2 5970   1.689   4.004   4.423 -1.6768  1.4613  1.5725
 1551SOL    HW3 5971   1.616   3.963   4.549 -1.4675 -2.4381  0.5709
 1551SOL    MW4 5972   1.667   3.943   4.481 -0.5213 -0.0934  0.4763
 1552SOL     OW 5973   3.114   1.304   2.637  0.4531  0.0498 -0.4467
 1552SOL    HW2 5974   3.178   1.237   2.656  0.3653 -0.4258 -1.7128
 1552SOL    HW3 5975   3.143   1.380   2.687 -0.7516 -1.5317  2.9312
 1552SOL    MW4 5976   3.126   1.306   2.646  0.2826 -0.2216 -0.1681
 1553SOL     OW 5977   3.246   4.617   5.893  0.0676  0.2217  0.6948
 1553SOL    HW2 5978   3.175   4.676   5.869 -0.1279 -0.5621 -0.7989
 1553SOL    HW3 5979   3.217   4.530   5.864  1.1808 -0.2926  1.0345
 1553SOL    MW4 5980   3.233   4.613   5.886  0.1887  0.0504  0.5426
 1554SOL     OW 5981   1.613   1.298   3.468 -0.1501  0.2084  0.4895
 1554SOL    HW2 5982   1.572   1.252   3.541 -1.1597  0.1891 -0.0735
 1554SOL    HW3 5983   1.645   1.229   3.410  2.0879  0.1881  1.6326
 1554SOL    MW4 5984   1.612   1.283   3.470  0.0119  0.2032  0.5660
 1555SOL     OW 5985   4.322   2.090   5.669  0.4200  0.5514  0.1466
 1555SOL    HW2 5986   4.314   2.096   5.573  1.5039  2.7893  0.1283
 1555SOL    HW3 5987   4.407   2.049   5.683  0.7615  1.2234  0.1087
 1555SOL    MW4 5988   4.332   2.086   5.658  0.6080  0.9353  0.1392
 1556SOL     OW 5989   4.505   3.918   2.790 -0.1100 -0.2849 -0.0245
 1556SOL    HW2 5990   4.577   3.973   2.758  1.0813 -0.9113  1.4268
 1556SOL    HW3 5991   4.512   3.837   2.740  0.0109 -0.2415 -0.0782
 1556SOL    MW4 5992   4.515   3.915   2.779  0.0631 -0.3618  0.1599
 1557SOL     OW 5993   0.824   5.460   1.422 -0.4771  0.2158  0.3453
 1557SOL    HW2 5994   0.800   5.369   1.438  0.6473  0.1542  2.0372
 1557SOL    HW3 5995   0.769   5.510   1.484  0.1975  0.4987  0.7277
 1557SOL    MW4 5996   0.814   5.455   1.433 -0.2397  0.2450  0.6190
 1558SOL     OW 5997   3.233   3.555   0.281 -0.7352 -0.2249  0.4588
 1558SOL    HW2 5998   3.191   3.484   0.329 -1.9963 -0.0529 -0.3398
 1558SOL    HW3 5999   3.283   3.602   0.347 -0.9121 -1.1064  1.2394
 1558SOL    MW4 6000   3.234   3.552   0.296 -0.9249 -0.3185  0.4564
 1559SOL     OW 6001   2.437   0.558   1.813 -0.0820 -0.3655 -0.1054
 1559SOL    HW2 6002   2.527   0.568   1.781  0.0447 -0.0823  0.3323
 1559SOL    HW3 6003   2.442   0.581   1.906 -0.6541 -0.0910 -0.1379
 1559SOL    MW4 6004   2.450   0.562   1.821 -0.1407 -0.2919 -0.0519
 1560SOL     OW 6005   1.846   3.969   0.755  0.5256 -0.1165  0.5523
 1560SOL    HW2 6006   1.805   3.959   0.669  1.3619 -1.0091  0.2399
 1560SOL    HW3 6007   1.878   3.881   0.776 -1.0179 -0.3027  2.4875
 1560SOL    MW4 6008   1.845   3.956   0.747  0.4323 -0.2588  0.7664
 1561SOL     OW 6009   3.979   0.495   2.603 -0.5826 -0.4483  0.0649
 1561SOL    HW2 6010   4.053   0.487   2.662  1.7698  0.3392 -2.5378
 1561SOL    HW3 6011   3.979   0.413   2.553 -1.0287 -0.1725 -0.4007
 1561SOL    MW4 6012   3.989   0.483   2.604 -0.3311 -0.3080 -0.3399
 1562SOL     OW 6013   5.442   5.285   0.597  0.4194  0.7942  0.0077
 1562SOL    HW2 6014   5.529   5.273   0.560 -0.2600 -1.1245 -1.1600
 1562SOL    HW3 6015   5.391   5.324   0.527 -0.5055 -1.4770 -0.6897
 1562SOL    MW4 6016   5.447   5.288   0.583  0.2077  0.2414 -0.2384
 1563SOL     OW 6017   1.219   0.944   0.418 -0.5517 -0.4370  0.1378
 1563SOL    HW2 6018   1.298   0.943   0.363  0.3722  2.4154  1.2438
 1563SOL    HW3 6019   1.147   0.933   0.356  0.6170 -2.6121 -0.9675
 1563SOL    MW4 6020   1.220   0.942   0.402 -0.2756 -0.3477  0.1379
 1564SOL     OW 6021   1.937   4.425   5.886 -0.1442 -0.1257  0.0671
 1564SOL    HW2 6022   2.005   4.426   5.953 -0.7296  0.7256  0.6763
 1564SOL    HW3 6023   1.876   4.494   5.913 -1.1081 -0.6902 -0.6112
 1564SOL    MW4 6024   1.938   4.435   5.898 -0.3486 -0.0878  0.0580
 1565SOL     OW 6025   4.084   2.619   5.425 -0.7289 -0.5352 -0.3059
 1565SOL    HW2 6026   4.003   2.582   5.459  0.3987 -1.8256  1.1491
 1565SOL    HW3 6027   4.152   2.584   5.483  0.7035  1.8809 -0.3722
 1565SOL    MW4 6028   4.083   2.610   5.437 -0.3911 -0.3867 -0.1227
 1566SOL     OW 6029   4.599   3.446   1.455  0.8798  0.2468  0.2509
 1566SOL    HW2 6030   4.617   3.535   1.483  1.4517  0.3772 -0.4883
 1566SOL    HW3 6031   4.606   3.394   1.535  1.3627  0.7535  0.5462
 1566SOL    MW4 6032   4.603   3.451   1.470  1.0190  0.3309  0.1923
 1567SOL     OW 6033   5.500   2.139   0.679  0.0274 -0.3458  0.2441
 1567SOL    HW2 6034   5.493   2.144   0.584  0.6062 -1.5047  0.1196
 1567SOL    HW3 6035   5.429   2.081   0.706  0.8197 -1.2912  0.3448
 1567SOL    MW4 6036   5.490   2.132   0.670  0.2083 -0.6234  0.2410
 1568SOL     OW 6037   1.698   0.141   5.361  0.0173 -0.3840 -0.3786
 1568SOL    HW2 6038   1.774   0.146   5.419 -0.1402  1.3758 -0.2880
 1568SOL    HW3 6039   1.648   0.220   5.379 -1.3820 -1.0642 -1.0953
 1568SOL    MW4 6040   1.702   0.152   5.371 -0.1881 -0.2415 -0.4612
 1569SOL     OW 6041   2.744   2.218   5.403  0.1388 -0.0855 -0.6920
 1569SOL    HW2 6042   2.723   2.125   5.401  0.2368 -0.1229 -0.0736
 1569SOL    HW3 6043   2.797   2.232   5.324  1.1576 -0.8033 -0.1536
 1569SOL    MW4 6044   2.748   2.207   5.392  0.2861 -0.1851 -0.5394
 1570SOL     OW 6045   3.546   3.201   6.257 -0.6386  0.0339  0.2612
 1570SOL    HW2 6046   3.469   3.175   6.307 -0.1868 -1.4225  0.2370
 1570SOL    HW3 6047   3.524   3.287   6.222 -1.9618 -0.0456  0.8517
 1570SOL    MW4 6048   3.533   3.209   6.259 -0.7536 -0.1687  0.3359
 1571SOL     OW 6049   2.463   0.712   1.214  0.1578  0.0014  0.0846
 1571SOL    HW2 6050   2.495   0.798   1.241 -1.1713  0.9461 -1.1934
 1571SOL    HW3 6051   2.413   0.681   1.288  0.2246  0.5620  0.3710
 1571SOL    MW4 6052   2.461   0.719   1.227 -0.0088  0.2000 -0.0462
 1572SOL     OW 6053   4.082   3.688   1.751 -0.1389  0.4937 -0.3284
 1572SOL    HW2 6054   4.057   3.595   1.749 -0.6264  0.6366 -0.9009
 1572SOL    HW3 6055   4.176   3.686   1.770  0.1132 -0.1771 -1.5444
 1572SOL    MW4 6056   4.091   3.675   1.754 -0.1700  0.4240 -0.5644
 1573SOL     OW 6057   1.305   1.383   1.363  0.1440 -0.0566 -0.8705
 1573SOL    HW2 6058   1.295   1.338   1.279  0.4231 -0.6616 -0.5908
 1573SOL    HW3 6059   1.234   1.350   1.417 -0.5400  0.9629 -1.1223
 1573SOL    MW4 6060   1.295   1.373   1.359  0.0906 -0.0019 -0.8668
 1574SOL     OW 6061   5.833   0.553   1.505 -0.1321 -0.1345  0.1634
 1574SOL    HW2 6062   5.796   0.642   1.509 -1.0147 -0.4395 -0.9222
 1574SOL    HW3 6063   5.767   0.498   1.548  0.3009 -0.3152  0.6109
 1574SOL    MW4 6064   5.819   0.558   1.511 -0.1914 -0.1986  0.0792
 1575SOL     OW 6065   0.146   1.767   1.872 -0.3957  0.2900  0.2035
 1575SOL    HW2 6066   0.200   1.812   1.808  1.4636 -1.4565  0.4247
 1575SOL    HW3 6067   0.202   1.696   1.904 -2.4161 -0.8582  1.3762
 1575SOL    MW4 6068   0.160   1.763   1.868 -0.4170 -0.0920  0.3874
 1576SOL     OW 6069   5.623   3.735   3.131 -0.2151 -0.0849 -0.2851
 1576SOL    HW2 6070   5.617   3.830   3.126 -0.9567 -0.1611 -1.3072
 1576SOL    HW3 6071   5.549   3.704   3.078  0.7332 -1.2284 -0.9925
 1576SOL    MW4 6072   5.612   3.743   3.123 -0.1878 -0.2459 -0.5133
 1577SOL     OW 6073   0.554   5.432   4.189  0.1270 -0.2790 -0.3960
 1577SOL    HW2 6074   0.465   5.467   4.180  0.3535  0.0664 -1.3426
 1577SOL    HW3 6075   0.541   5.343   4.221 -0.4403  1.2117  4.3690
 1577SOL    MW4 6076   0.540   5.425   4.192  0.0820 -0.0367  0.1078
 1578SOL     OW 6077   0.188   4.894   6.181  0.0936  0.1357 -0.1449
 1578SOL    HW2 6078   0.210   4.987   6.187 -0.4341  0.2809 -0.4373
 1578SOL    HW3 6079   0.267   4.853   6.146  0.3307  0.4710 -0.0087
 1578SOL    MW4 6080   0.201   4.901   6.177  0.0553  0.1991 -0.1655
 1579SOL     OW 6081   2.982   0.117   4.041 -0.1251  0.1424 -0.6707
 1579SOL    HW2 6082   2.895   0.144   4.072 -2.2637 -2.7850 -3.4051
 1579SOL    HW3 6083   3.011   0.189   3.984 -1.1232  0.8355 -0.3255
 1579SOL    MW4 6084   2.974   0.130   4.038 -0.5389 -0.1524 -0.9859
 1580SOL     OW 6085   4.347   3.357   3.633 -0.3085 -0.0363  0.1754
 1580SOL    HW2 6086   4.267   3.323   3.674  0.3052 -0.9637  0.6580
 1580SOL    HW3 6087   4.333   3.346   3.539 -0.6548 -0.4255  0.2688
 1580SOL    MW4 6088   4.335   3.351   3.626 -0.2732 -0.2100  0.2514
 1581SOL     OW 6089   5.137   0.526   6.235  1.0740 -0.1697 -0.2791
 1581SOL    HW2 6090   5.212   0.489   6.189  0.5282 -1.4283 -0.2008
 1581SOL    HW3 6091   5.096   0.584   6.171  0.1005 -2.1908 -1.5804
 1581SOL    MW4 6092   5.142   0.529   6.221  0.8736 -0.6024 -0.4405
 1582SOL     OW 6093   3.138   0.382   0.613  0.0795  0.0631  0.0555
 1582SOL    HW2 6094   3.151   0.460   0.559 -0.5390 -0.0881 -0.3164
 1582SOL    HW3 6095   3.054   0.398   0.656 -0.3062 -0.6399 -0.4316
 1582SOL    MW4 6096   3.128   0.395   0.612 -0.0530 -0.0496 -0.0578
 1583SOL     OW 6097   5.366   0.284   5.940 -0.0754  0.2605 -0.1026
 1583SOL    HW2 6098   5.377   0.215   6.006 -0.6703 -0.2082 -0.4855
 1583SOL    HW3 6099   5.274   0.277   5.913  0.6213 -0.8682 -2.4096
 1583SOL    MW4 6100   5.355   0.274   5.945 -0.0620  0.0498 -0.4575
 1584SOL     OW 6101   0.743   3.088   1.081 -0.0746 -0.1555 -1.3226
 1584SOL    HW2 6102   0.832   3.052   1.081 -0.0126 -0.0047 -1.5728
 1584SOL    HW3 6103   0.750   3.168   1.029 -0.1646  0.3316 -0.6002
 1584SOL    MW4 6104   0.756   3.094   1.074 -0.0783 -0.0714 -1.2603
 1585SOL     OW 6105   2.424   6.292   6.296  0.4416  0.3909  0.5442
 1585SOL    HW2 6106   2.395   6.369   6.248  0.3662  1.4260  2.1796
 1585SOL    HW3 6107   2.440   6.226   6.228  0.6971  1.8861 -0.9181
 1585SOL    MW4 6108   2.423   6.293   6.281  0.4654  0.7247  0.5671
 1586SOL     OW 6109   5.444   0.845   1.057 -0.0295 -0.2235  0.0630
 1586SOL    HW2 6110   5.471   0.905   0.987  0.1660 -0.4546 -0.0624
 1586SOL    HW3 6111   5.368   0.800   1.021  1.0611 -1.5640 -0.6923
 1586SOL    MW4 6112   5.438   0.847   1.043  0.1402 -0.4309 -0.0532
 1587SOL     OW 6113   3.535   1.667   5.626  0.5545 -0.4884 -0.0781
 1587SOL    HW2 6114   3.608   1.612   5.600  1.3835  1.2047 -1.4773
 1587SOL    HW3 6115   3.457   1.616   5.602  1.2743 -0.3271 -3.1223
 1587SOL    MW4 6116   3.534   1.653   5.620  0.7588 -0.2437 -0.6643
 1588SOL     OW 6117   3.822   4.507   5.869 -0.4868 -0.0318  0.1473
 1588SOL    HW2 6118   3.737   4.547   5.885  0.4471  1.2413  2.3094
 1588SOL    HW3 6119   3.801   4.417   5.844 -2.4572 -0.0919  1.7159
 1588SOL    MW4 6120   3.808   4.500   5.868 -0.6236  0.1282  0.6395
 1589SOL     OW 6121   5.245   3.685   4.969 -0.3067  0.0231 -0.1066
 1589SOL    HW2 6122   5.310   3.615   4.982  0.7911  1.0150 -0.0473
 1589SOL    HW3 6123   5.182   3.648   4.908  0.6173 -0.7952 -0.6026
 1589SOL    MW4 6124   5.245   3.671   4.963 -0.0400  0.0460 -0.1642
 1590SOL     OW 6125   5.992   2.032   4.693 -0.0349 -0.6657 -0.1816
 1590SOL    HW2 6126   5.911   2.082   4.699  0.0018 -0.5209 -0.8509
 1590SOL    HW3 6127   6.017   2.037   4.601  1.9438  1.2319  0.3458
 1590SOL    MW4 6128   5.985   2.039   4.682  0.2310 -0.3962 -0.2003
 1591SOL     OW 6129   1.830   3.190   1.687  0.1057  0.8834 -0.3288
 1591SOL    HW2 6130   1.846   3.106   1.729  0.9109 -1.1119 -4.1282
 1591SOL    HW3 6131   1.738   3.209   1.706  0.6473  0.7309  2.9754
 1591SOL    MW4 6132   1.820   3.181   1.695  0.2834  0.6000 -0.3941
 1592SOL     OW 6133   2.807   6.184   5.026  0.1711  0.3371  0.4155
 1592SOL    HW2 6134   2.865   6.108   5.037 -1.1464 -0.5647  1.3209
 1592SOL    HW3 6135   2.813   6.204   4.933  1.1683 -0.3513  0.3046
 1592SOL    MW4 6136   2.816   6.177   5.015  0.1289  0.1273  0.5204
 1593SOL     OW 6137   2.557   3.781   2.852  0.0242 -0.0972 -0.5601
 1593SOL    HW2 6138   2.595   3.746   2.771 -1.1360 -0.6323 -0.9030
 1593SOL    HW3 6139   2.614   3.853   2.876  0.9339 -0.5284 -1.3419
 1593SOL    MW4 6140   2.569   3.786   2.844 -0.0089 -0.2247 -0.7085
 1594SOL     OW 6141   4.364   0.835   2.353 -0.5861  0.1281  0.1441
 1594SOL    HW2 6142   4.343   0.879   2.435 -0.4289 -1.3710  1.0283
 1594SOL    HW3 6143   4.297   0.767   2.345 -0.6164  0.2639 -1.0046
 1594SOL    MW4 6144   4.352   0.832   2.363 -0.5694 -0.0518  0.1092
 1595SOL     OW 6145   2.556   2.395   0.292  0.2109 -0.5219 -0.0818
 1595SOL    HW2 6146   2.524   2.457   0.357  3.2674  0.0488  1.0128
 1595SOL    HW3 6147   2.618   2.339   0.340  0.3713 -1.9995 -1.8857
 1595SOL    MW4 6148   2.560   2.396   0.307  0.6353 -0.6415 -0.1754
 1596SOL     OW 6149   6.002   5.003   4.456  0.7025 -0.0464  0.1065
 1596SOL    HW2 6150   5.965   5.072   4.400  2.0804  1.1101  0.5749
 1596SOL    HW3 6151   6.039   5.049   4.531  1.8172 -1.2789  0.3560
 1596SOL    MW4 6152   6.002   5.018   4.458  1.0313 -0.0564  0.2013
 1597SOL     OW 6153   6.318   4.962   4.849 -0.4166 -0.6005  0.1688
 1597SOL    HW2 6154   6.269   4.885   4.879  0.6973 -1.0256  0.9198
 1597SOL    HW3 6155   6.410   4.939   4.861 -0.0600  0.8578  0.4054
 1597SOL    MW4 6156   6.323   4.948   4.854 -0.2226 -0.4642  0.2991
 1598SOL     OW 6157   4.093   1.477   0.691  0.3161  0.5140 -0.4252
 1598SOL    HW2 6158   4.167   1.529   0.722  1.5281  0.2304 -2.6693
 1598SOL    HW3 6159   4.023   1.541   0.678  0.3338  0.8771  1.0869
 1598SOL    MW4 6160   4.093   1.492   0.694  0.4784  0.5245 -0.5218
 1599SOL     OW 6161   6.374   4.198   2.490 -0.2839 -0.2569  0.4060
 1599SOL    HW2 6162   6.342   4.110   2.506 -0.2514 -0.1385  1.1680
 1599SOL    HW3 6163   6.296   4.249   2.467 -0.3410 -0.4220  0.2333
 1599SOL    MW4 6164   6.360   4.193   2.489 -0.2872 -0.2631  0.4837
 1600SOL     OW 6165   5.753   5.965   3.927  0.0945 -0.5522 -0.0309
 1600SOL    HW2 6166   5.817   5.960   3.856  0.1494 -2.4462  0.0877
 1600SOL    HW3 6167   5.671   5.936   3.887 -0.7417  1.7718 -0.1610
 1600SOL    MW4 6168   5.750   5.960   3.912 -0.0086 -0.4955 -0.0324
 1601SOL     OW 6169   4.697   5.142   0.340 -0.4885 -0.0653 -0.3954
 1601SOL    HW2 6170   4.666   5.233   0.339  0.7741  0.4191  1.0934
 1601SOL    HW3 6171   4.767   5.139   0.275  0.0345  0.2515  0.1481
 1601SOL    MW4 6172   4.702   5.154   0.331 -0.2529  0.0404 -0.1272
 1602SOL     OW 6173   3.281   4.214   5.452  0.2209 -0.9844  0.0954
 1602SOL    HW2 6174   3.362   4.212   5.401  0.5135  2.3048  0.2181
 1602SOL    HW3 6175   3.237   4.294   5.424 -1.2973 -0.8629  2.5167
 1602SOL    MW4 6176   3.286   4.224   5.442  0.0592 -0.5344  0.4311
 1603SOL     OW 6177   2.586   2.124   0.979  0.3294 -0.2023  0.1210
 1603SOL    HW2 6178   2.644   2.158   0.912  0.7223  0.1001  0.6132
 1603SOL    HW3 6179   2.621   2.157   1.061 -0.0596 -0.6935  0.4920
 1603SOL    MW4 6180   2.598   2.133   0.981  0.3299 -0.2272  0.2349
 1604SOL     OW 6181   3.136   6.281   2.849 -0.2864  0.3189 -0.1551
 1604SOL    HW2 6182   3.044   6.254   2.843 -0.2307 -0.1368  1.0054
 1604SOL    HW3 6183   3.163   6.292   2.757 -1.1238 -0.7738 -0.5499
 1604SOL    MW4 6184   3.127   6.279   2.836 -0.3895  0.1146 -0.0541
 1605SOL     OW 6185   1.854   3.797   3.544  0.3933  0.0587  0.8589
 1605SOL    HW2 6186   1.879   3.746   3.621  0.2880  1.8019  2.1183
 1605SOL    HW3 6187   1.759   3.803   3.548  0.3464 -0.2714  0.3002
 1605SOL    MW4 6188   1.845   3.791   3.555  0.3732  0.2451  0.9514
 1606SOL     OW 6189   6.348   2.597   6.110 -0.2581 -0.0050 -0.3315
 1606SOL    HW2 6190   6.299   2.525   6.069 -1.1859  0.4314 -0.0279
 1606SOL    HW3 6191   6.372   2.564   6.196 -0.0933 -0.2004 -0.4544
 1606SOL    MW4 6192   6.344   2.583   6.116 -0.3588  0.0268 -0.3076
 1607SOL     OW 6193   1.249   1.996   3.453  0.4348  0.3081 -0.1934
 1607SOL    HW2 6194   1.224   1.990   3.361 -0.7129  0.1558  0.1078
 1607SOL    HW3 6195   1.307   2.072   3.458 -0.5397  1.1179 -0.8299
 1607SOL    MW4 6196   1.253   2.005   3.442  0.1548  0.3949 -0.2377
 1608SOL     OW 6197   4.667   2.415   0.692  0.5897  0.1906 -0.7851
 1608SOL    HW2 6198   4.585   2.404   0.643 -0.6797 -0.5913  1.3938
 1608SOL    HW3 6199   4.639   2.435   0.781  2.8154  1.1137 -0.2350
 1608SOL    MW4 6200   4.653   2.416   0.697  0.7159  0.2092 -0.4250
 1609SOL     OW 6201   4.026   3.113   2.212 -0.0521  0.4964  0.0720
 1609SOL    HW2 6202   4.040   3.162   2.293 -1.3190  0.8685  0.0837
 1609SOL    HW3 6203   3.934   3.086   2.215  0.3133 -0.9283 -0.4679
 1609SOL    MW4 6204   4.016   3.116   2.223 -0.1711  0.3576  0.0023
 1610SOL     OW 6205   4.065   3.011   1.305 -0.4297  0.1227  0.1135
 1610SOL    HW2 6206   4.104   2.939   1.255  0.7019  0.5317  0.3741
 1610SOL    HW3 6207   3.991   2.972   1.350 -0.9175 -0.4657 -1.1492
 1610SOL    MW4 6208   4.060   2.996   1.304 -0.3447  0.0990 -0.0187
 1611SOL     OW 6209   6.340   3.669   6.172  0.1489  0.3768  0.1049
 1611SOL    HW2 6210   6.366   3.745   6.224  1.4965  0.7728 -1.1098
 1611SOL    HW3 6211   6.396   3.598   6.204 -0.3700  0.1382  0.5036
 1611SOL    MW4 6212   6.351   3.670   6.183  0.2582  0.3976 -0.0028
 1612SOL     OW 6213   1.383   2.440   4.929  0.0200 -0.2490  0.3353
 1612SOL    HW2 6214   1.339   2.496   4.993 -1.0188 -1.5372  0.7856
 1612SOL    HW3 6215   1.364   2.350   4.958 -1.0319 -0.9061 -2.1174
 1612SOL    MW4 6216   1.375   2.435   4.941 -0.2559 -0.5056  0.0711
 1613SOL     OW 6217   2.117   4.716   4.769 -0.0147  0.4677 -0.3958
 1613SOL    HW2 6218   2.057   4.697   4.698  0.8632  1.7603 -1.5497
 1613SOL    HW3 6219   2.194   4.662   4.751 -0.2764 -0.1663  0.3196
 1613SOL    MW4 6220   2.120   4.707   4.757  0.0666  0.5546 -0.4537
 1614SOL     OW 6221   6.306   3.542   0.559  0.1880  0.0116 -0.6116
 1614SOL    HW2 6222   6.299   3.510   0.649 -2.6429 -1.2026 -1.1620
 1614SOL    HW3 6223   6.382   3.600   0.560 -0.4598  1.0101  2.8634
 1614SOL    MW4 6224   6.315   3.546   0.571 -0.2710 -0.0168 -0.2257
 1615SOL     OW 6225   0.589   1.966   4.517 -0.5304 -0.5786  0.5696
 1615SOL    HW2 6226   0.651   1.924   4.577  1.0152  0.0499 -0.5339
 1615SOL    HW3 6227   0.507   1.918   4.531  0.6160 -2.5506  0.8921
 1615SOL    MW4 6228   0.586   1.954   4.527 -0.1753 -0.7559  0.4665
 1616SOL     OW 6229   3.732   3.516   4.027  0.0168  0.1869  0.9807
 1616SOL    HW2 6230   3.654   3.527   3.973  0.7367 -0.7043 -0.2802
 1616SOL    HW3 6231   3.743   3.422   4.035  1.5148  0.2854  0.2971
 1616SOL    MW4 6232   3.723   3.505   4.021  0.3095  0.0823  0.7242
 1617SOL     OW 6233   5.118   1.984   1.694 -0.0067 -0.0299 -0.0207
 1617SOL    HW2 6234   5.198   2.004   1.742  0.2202 -0.5627 -0.1739
 1617SOL    HW3 6235   5.048   1.986   1.759  0.4692 -2.0937  0.6138
 1617SOL    MW4 6236   5.119   1.987   1.709  0.0860 -0.3725  0.0428
 1618SOL     OW 6237   5.831   4.790   4.529  0.8236  0.1998 -0.2918
 1618SOL    HW2 6238   5.891   4.864   4.518  3.1062 -1.2901  1.1668
 1618SOL    HW3 6239   5.887   4.718   4.559 -1.8280 -1.1006  1.9968
 1618SOL    MW4 6240   5.846   4.790   4.531  0.7749 -0.1683  0.2026
 1619SOL     OW 6241   1.554   0.050   4.868 -0.7251 -0.3037  0.2364
 1619SOL    HW2 6242   1.602  -0.027   4.836  1.0065  0.1907  1.4757
 1619SOL    HW3 6243   1.555   0.040   4.963 -0.3359  1.3124  0.4256
 1619SOL    MW4 6244   1.560   0.039   4.876 -0.4453 -0.0252  0.4248
 1620SOL     OW 6245   6.179   3.510   3.459  0.5733 -0.2654 -0.4202
 1620SOL    HW2 6246   6.116   3.464   3.403 -1.6287  1.8260  0.1776
 1620SOL    HW3 6247   6.145   3.498   3.548  2.6379 -1.4259  0.2757
 1620SOL    MW4 6248   6.166   3.502   3.464  0.5552 -0.1426 -0.2495
 1621SOL     OW 6249   2.682   3.446   2.008  0.0194 -0.3496 -0.2098
 1621SOL    HW2 6250   2.599   3.400   2.026 -0.8291  0.6415 -1.4062
 1621SOL    HW3 6251   2.749   3.380   2.025 -0.9884 -1.1244  0.9976
 1621SOL    MW4 6252   2.680   3.431   2.012 -0.2255 -0.3211 -0.2084
 1622SOL     OW 6253  -0.022   0.154   6.300 -0.1344 -0.0924 -0.2720
 1622SOL    HW2 6254  -0.029   0.249   6.300  3.2994  0.2977 -0.7760
 1622SOL    HW3 6255  -0.068   0.126   6.220 -2.8530  0.8406  0.8528
 1622SOL    MW4 6256  -0.029   0.163   6.289 -0.0400  0.0822 -0.1901
 1623SOL     OW 6257   0.788   5.284   0.334  0.4838 -0.4865 -0.0953
 1623SOL    HW2 6258   0.777   5.233   0.415 -0.5860 -0.7913 -0.4098
 1623SOL    HW3 6259   0.765   5.374   0.359 -0.2559 -0.6527 -0.1362
 1623SOL    MW4 6260   0.783   5.289   0.348  0.2451 -0.5486 -0.1422
 1624SOL     OW 6261   4.655   3.959   1.374 -0.0252  0.0186 -0.0230
 1624SOL    HW2 6262   4.567   3.941   1.409  0.1961 -1.3414 -0.1240
 1624SOL    HW3 6263   4.639   4.004   1.291 -0.6870 -1.4203 -0.7122
 1624SOL    MW4 6264   4.641   3.963   1.368 -0.0834 -0.3507 -0.1273
 1625SOL     OW 6265   4.564   3.883   3.961  0.3300  0.2870 -0.1626
 1625SOL    HW2 6266   4.648   3.928   3.961  0.4464  0.0723 -0.2564
 1625SOL    HW3 6267   4.503   3.948   3.925  0.3293  0.6621  0.5098
 1625SOL    MW4 6268   4.567   3.898   3.956  0.3453  0.3082 -0.0863
 1626SOL     OW 6269   1.797   3.617   4.201  0.2919  0.1134  0.2157
 1626SOL    HW2 6270   1.853   3.672   4.257 -1.2287  0.6427  1.2818
 1626SOL    HW3 6271   1.810   3.528   4.234  1.7889 -0.0440 -0.6853
 1626SOL    MW4 6272   1.806   3.613   4.212  0.2888  0.1624  0.2375
 1627SOL     OW 6273   5.064   4.382   4.092 -0.0697 -0.2841  0.0048
 1627SOL    HW2 6274   5.107   4.453   4.044  0.4957  1.0510  2.3263
 1627SOL    HW3 6275   5.126   4.357   4.160 -0.4988 -2.6908 -0.3984
 1627SOL    MW4 6276   5.078   4.388   4.095 -0.0517 -0.4255  0.2579
 1628SOL     OW 6277   0.251   3.390   1.753 -0.0713 -0.1453  0.0166
 1628SOL    HW2 6278   0.281   3.468   1.708  0.1726 -0.7386 -0.8618
 1628SOL    HW3 6279   0.166   3.370   1.713  0.0926 -0.6098 -0.1083
 1628SOL    MW4 6280   0.243   3.397   1.742 -0.0175 -0.2848 -0.1158
 1629SOL     OW 6281   4.113   0.664   6.165  0.1753  0.1689  0.4403
 1629SOL    HW2 6282   4.021   0.669   6.138 -0.0313 -2.1304  0.4838
 1629SOL    HW3 6283   4.113   0.691   6.257 -0.4008  0.5756  0.3204
 1629SOL    MW4 6284   4.101   0.668   6.174  0.0720 -0.0808  0.4302
 1630SOL     OW 6285   1.698   3.870   6.273  0.4037 -0.0275  0.2244
 1630SOL    HW2 6286   1.680   3.905   6.185 -1.0043 -0.8478  0.1512
 1630SOL    HW3 6287   1.611   3.857   6.311  0.9998  0.2198  1.7186
 1630SOL    MW4 6288   1.684   3.873   6.266  0.2966 -0.1031  0.4119
 1631SOL     OW 6289   0.763   0.254   1.785 -0.3616 -0.1643  0.0085
 1631SOL    HW2 6290   0.680   0.283   1.749 -0.6689 -0.9242  0.0791
 1631SOL    HW3 6291   0.740   0.190   1.852  0.2004  1.4106  1.7711
 1631SOL    MW4 6292   0.749   0.249   1.789 -0.3280 -0.0567  0.2504
 1632SOL     OW 6293   0.409   0.958   5.466 -0.4048 -0.1915 -0.0608
 1632SOL    HW2 6294   0.328   0.967   5.517 -0.4166 -0.1701 -0.0832
 1632SOL    HW3 6295   0.381   0.914   5.385 -0.7130  1.3254 -0.8324
 1632SOL    MW4 6296   0.394   0.953   5.462 -0.4471  0.0115 -0.1656
 1633SOL     OW 6297   6.186   5.484   4.096 -0.1277  0.0120 -0.1642
 1633SOL    HW2 6298   6.130   5.511   4.023 -1.1927 -0.9413  0.2814
 1633SOL    HW3 6299   6.258   5.437   4.054 -0.1579  0.4060 -0.6721
 1633SOL    MW4 6300   6.188   5.481   4.081 -0.2722 -0.0618 -0.1724
 1634SOL     OW 6301   0.096   2.604   4.376  0.5139 -0.5819 -0.0225
 1634SOL    HW2 6302   0.126   2.522   4.416 -1.0512 -1.2744 -0.1691
 1634SOL    HW3 6303   0.115   2.671   4.442  2.1890 -0.9821 -0.0707
 1634SOL    MW4 6304   0.102   2.602   4.390  0.5284 -0.7261 -0.0482
 1635SOL     OW 6305   4.592   4.335   0.492  0.2652  0.0144  0.3877
 1635SOL    HW2 6306   4.620   4.407   0.436  2.1642 -1.6822 -1.0143
 1635SOL    HW3 6307   4.501   4.319   0.468  0.4608  0.5938 -0.7988
 1635SOL    MW4 6308   4.584   4.343   0.482  0.5416 -0.1330  0.0462
 1636SOL     OW 6309   5.588   2.309   2.555  0.3524 -0.1473 -0.3142
 1636SOL    HW2 6310   5.564   2.380   2.614  0.8169 -0.0851 -0.1909
 1636SOL    HW3 6311   5.562   2.230   2.602  1.8023 -0.1685  0.5452
 1636SOL    MW4 6312   5.582   2.308   2.569  0.6050 -0.1419 -0.1845
 1637SOL     OW 6313   0.913   1.295   3.982 -0.2177  0.5981  0.4042
 1637SOL    HW2 6314   0.925   1.295   4.077  1.1444 -1.8472  0.2989
 1637SOL    HW3 6315   0.836   1.240   3.968 -0.7853  1.4547  0.0908
 1637SOL    MW4 6316   0.905   1.288   3.993 -0.1129  0.3885  0.3489
 1638SOL     OW 6317   0.454   0.266   3.552  0.0558 -0.1491  0.1961
 1638SOL    HW2 6318   0.374   0.257   3.500  1.8362 -1.9401 -2.5302
 1638SOL    HW3 6319   0.458   0.185   3.603 -0.6303  0.6633  1.5718
 1638SOL    MW4 6320   0.444   0.254   3.552  0.2002 -0.2782  0.0179
 1639SOL     OW 6321   0.294   5.814   0.217  0.0146 -0.3138 -0.1020
 1639SOL    HW2 6322   0.262   5.723   0.220  0.8194 -0.5847  1.7396
 1639SOL    HW3 6323   0.367   5.815   0.278 -0.4210  1.7569  0.4423
 1639SOL    MW4 6324   0.300   5.802   0.225  0.0633 -0.0763  0.2128
 1640SOL     OW 6325   4.070   3.616   4.753 -0.0931  0.1988  0.3057
 1640SOL    HW2 6326   4.140   3.558   4.722 -0.5526 -0.0559 -0.2728
 1640SOL    HW3 6327   4.116   3.689   4.794  0.6097  1.2604 -2.1982
 1640SOL    MW4 6328   4.086   3.618   4.754 -0.0610  0.3053 -0.1010
 1641SOL     OW 6329   3.550   0.085   5.235  0.5575 -0.1599  0.4873
 1641SOL    HW2 6330   3.477   0.026   5.253  0.3437  0.0869  0.4174
 1641SOL    HW3 6331   3.623   0.047   5.285 -0.0434  0.5487  1.9539
 1641SOL    MW4 6332   3.550   0.072   5.244  0.4500 -0.0339  0.6715
 1642SOL     OW 6333   4.624   5.839   5.804  0.3925 -0.4527 -0.1851
 1642SOL    HW2 6334   4.676   5.910   5.842 -0.5566  0.1888 -0.0395
 1642SOL    HW3 6335   4.640   5.846   5.709 -1.1360  1.2000 -0.3825
 1642SOL    MW4 6336   4.633   5.850   5.796  0.0656 -0.1500 -0.1919
 1643SOL     OW 6337   5.404   2.163   5.095 -0.5063 -0.1924 -0.4313
 1643SOL    HW2 6338   5.384   2.114   5.174 -0.8192 -1.4814 -1.2774
 1643SOL    HW3 6339   5.337   2.136   5.032  0.0712  0.3603 -1.3121
 1643SOL    MW4 6340   5.393   2.153   5.097 -0.4714 -0.2895 -0.6592
 1644SOL     OW 6341   5.997   0.516   0.502 -0.2352 -0.2572  0.3955
 1644SOL    HW2 6342   5.999   0.593   0.559  2.0182 -0.1222  0.2489
 1644SOL    HW3 6343   6.076   0.467   0.526 -0.8456 -1.7589 -0.5359
 1644SOL    MW4 6344   6.008   0.520   0.513 -0.0184 -0.4375  0.2533
 1645SOL     OW 6345   0.330   6.255   0.592 -0.4003 -0.0656 -0.6610
 1645SOL    HW2 6346   0.295   6.171   0.622  1.6238 -0.5879  0.4894
 1645SOL    HW3 6347   0.397   6.231   0.528  0.4161  0.6364 -0.0834
 1645SOL    MW4 6348   0.334   6.240   0.588 -0.0255 -0.0419 -0.4330
 1646SOL     OW 6349   6.087   1.733   2.113 -0.2532  0.2844  0.1934
 1646SOL    HW2 6350   6.134   1.815   2.123  1.2355 -0.5795  0.5707
 1646SOL    HW3 6351   6.148   1.675   2.068 -1.5846 -0.3830 -0.8482
 1646SOL    MW4 6352   6.101   1.736   2.109 -0.2324  0.0823  0.1058
 1647SOL     OW 6353   3.032   1.316   1.363 -0.0770  0.4468  0.1140
 1647SOL    HW2 6354   2.947   1.286   1.395 -1.5563  3.0520 -1.1350
 1647SOL    HW3 6355   3.041   1.276   1.277  0.4005 -0.4785  0.5715
 1647SOL    MW4 6356   3.022   1.306   1.356 -0.2092  0.6685  0.0095
 1648SOL     OW 6357   4.191   4.837   2.515 -0.0356 -0.3771 -0.6464
 1648SOL    HW2 6358   4.280   4.865   2.536  0.4743 -1.9250 -0.6630
 1648SOL    HW3 6359   4.201   4.748   2.483 -1.5016 -0.2564 -1.5143
 1648SOL    MW4 6360   4.204   4.829   2.513 -0.1617 -0.5654 -0.7631
 1649SOL     OW 6361   4.371   6.085   5.931 -0.6963  0.6871 -0.2667
 1649SOL    HW2 6362   4.299   6.043   5.884 -1.9170  1.1384  1.1078
 1649SOL    HW3 6363   4.405   6.016   5.988  0.0555  0.4476 -0.9839
 1649SOL    MW4 6364   4.366   6.070   5.932 -0.7582  0.7150 -0.1800
 1650SOL     OW 6365   0.784   2.241   3.918  0.4137  0.4120  0.1579
 1650SOL    HW2 6366   0.848   2.193   3.866  0.7001  1.4884 -0.5032
 1650SOL    HW3 6367   0.712   2.259   3.858 -0.0849  0.0565  0.6367
 1650SOL    MW4 6368   0.783   2.237   3.903  0.3857  0.5071  0.1339
 1651SOL     OW 6369   0.748   0.035   4.162  0.6544  0.7972 -0.2124
 1651SOL    HW2 6370   0.814   0.082   4.111 -0.4712  0.3971 -2.1444
 1651SOL    HW3 6371   0.732  -0.045   4.112  0.0504 -0.0083  1.2065
 1651SOL    MW4 6372   0.755   0.030   4.149  0.4262  0.6381 -0.2801
 1652SOL     OW 6373   6.153   5.818   4.534  0.1351  0.4728  0.5200
 1652SOL    HW2 6374   6.061   5.843   4.522 -0.2795 -0.7803  0.8901
 1652SOL    HW3 6375   6.193   5.895   4.575 -0.3659  1.6180 -1.0624
 1652SOL    MW4 6376   6.146   5.832   4.538  0.0143  0.4586  0.3600
 1653SOL     OW 6377   0.580   0.823   1.401  0.1776  0.5458  0.6246
 1653SOL    HW2 6378   0.499   0.872   1.418 -0.6646 -1.0715  1.5124
 1653SOL    HW3 6379   0.638   0.887   1.360 -1.2746  1.9627  0.6557
 1653SOL    MW4 6380   0.577   0.838   1.398 -0.1251  0.5193  0.7458
 1654SOL     OW 6381   2.622   0.485   3.002  0.1684  0.6164 -0.5692
 1654SOL    HW2 6382   2.547   0.520   3.051 -0.2038  1.2207 -1.5548
 1654SOL    HW3 6383   2.661   0.561   2.960  1.9210  0.4558  0.6628
 1654SOL    MW4 6384   2.617   0.500   3.003  0.3505  0.6749 -0.5367
 1655SOL     OW 6385   0.577   4.285   2.525  0.4407  0.0221 -0.5946
 1655SOL    HW2 6386   0.536   4.207   2.487 -0.7190  1.3862 -2.2675
 1655SOL    HW3 6387   0.562   4.276   2.619 -0.2538 -1.4508 -0.8199
 1655SOL    MW4 6388   0.569   4.273   2.533  0.1961  0.0078 -0.8451
 1656SOL     OW 6389   3.567   0.376   3.838 -0.1350  0.1576  0.1162
 1656SOL    HW2 6390   3.503   0.307   3.819 -0.7776  0.3320  1.5522
 1656SOL    HW3 6391   3.529   0.424   3.912  2.0292 -0.2620  1.5805
 1656SOL    MW4 6392   3.553   0.373   3.845  0.0657  0.1252  0.4989
 1657SOL     OW 6393   3.829   1.524   3.497 -0.3136  0.4676  0.1934
 1657SOL    HW2 6394   3.815   1.599   3.439 -1.4499 -0.6299 -1.0041
 1657SOL    HW3 6395   3.818   1.447   3.441  2.4570 -0.6529  1.0048
 1657SOL    MW4 6396   3.826   1.524   3.482 -0.0980  0.1750  0.1424
 1658SOL     OW 6397   1.204   6.078   2.092 -0.0281  0.3889 -0.2121
 1658SOL    HW2 6398   1.189   5.984   2.083  0.3217  0.0273  2.1888
 1658SOL    HW3 6399   1.121   6.118   2.066 -2.3199 -1.0109  3.9038
 1658SOL    MW4 6400   1.191   6.071   2.088 -0.2843  0.1565  0.6477
 1659SOL     OW 6401   5.007   4.481   3.765 -0.9091  0.1301  0.1935
 1659SOL    HW2 6402   5.067   4.423   3.810 -0.1485  0.7176 -0.0381
 1659SOL    HW3 6403   4.931   4.487   3.822 -0.8417 -0.7857  0.3920
 1659SOL    MW4 6404   5.005   4.474   3.778 -0.7998  0.0867  0.1891
 1660SOL     OW 6405   4.305   5.226   1.860  0.1432 -0.5800 -0.3600
 1660SOL    HW2 6406   4.311   5.200   1.768  1.7796 -0.2011 -0.3896
 1660SOL    HW3 6407   4.388   5.269   1.878  0.3284 -1.6594  1.6149
 1660SOL    MW4 6408   4.317   5.228   1.850  0.3835 -0.6724 -0.1033
 1661SOL     OW 6409  -0.036   1.587   5.251 -0.7131  0.4602 -0.4457
 1661SOL    HW2 6410  -0.091   1.566   5.176 -1.6066 -0.6611  0.4800
 1661SOL    HW3 6411  -0.080   1.546   5.326  0.0359  1.7053  0.7311
 1661SOL    MW4 6412  -0.049   1.579   5.251 -0.7322  0.4765 -0.1683
 1662SOL     OW 6413   4.829   3.678   2.593 -0.4190  0.9233  0.2008
 1662SOL    HW2 6414   4.734   3.677   2.579 -0.4044 -0.3732  0.0667
 1662SOL    HW3 6415   4.864   3.615   2.530  0.2191 -0.7342  2.0920
 1662SOL    MW4 6416   4.821   3.669   2.583 -0.3329  0.5336  0.4327
 1663SOL     OW 6417   3.945   1.444   6.223  0.0076 -0.9204 -0.5639
 1663SOL    HW2 6418   3.935   1.481   6.135 -2.6579 -1.3572 -0.5063
 1663SOL    HW3 6419   3.869   1.387   6.235  1.6053 -2.9146  1.0911
 1663SOL    MW4 6420   3.934   1.441   6.213 -0.1333 -1.2411 -0.3380
 1664SOL     OW 6421   5.010   3.001   4.728  0.1568 -0.4759 -0.2799
 1664SOL    HW2 6422   5.076   3.046   4.674  0.6956 -0.5836  0.2708
 1664SOL    HW3 6423   4.956   2.953   4.665  1.1794 -1.1411 -0.6805
 1664SOL    MW4 6424   5.012   3.001   4.712  0.3628 -0.5779 -0.2601
 1665SOL     OW 6425   2.011   0.803   0.857 -0.4810 -0.0676  0.1289
 1665SOL    HW2 6426   2.080   0.851   0.904  0.7433 -1.1299 -0.5034
 1665SOL    HW3 6427   2.055   0.724   0.826 -1.6702 -0.1712 -1.3883
 1665SOL    MW4 6428   2.026   0.799   0.859 -0.4764 -0.2214 -0.1547
 1666SOL     OW 6429   5.179   6.120   3.014 -1.0159  0.1642  0.3081
 1666SOL    HW2 6430   5.098   6.090   2.971 -0.4839 -1.6719  0.5088
 1666SOL    HW3 6431   5.152   6.143   3.103 -1.4571  0.3577  0.1280
 1666SOL    MW4 6432   5.164   6.119   3.020 -1.0039 -0.0525  0.3108
 1667SOL     OW 6433   5.677   4.302   5.777  0.2695  0.1179 -0.1932
 1667SOL    HW2 6434   5.727   4.364   5.831  0.4414  0.7117 -1.0186
 1667SOL    HW3 6435   5.734   4.225   5.771  0.8252  0.5549 -0.6140
 1667SOL    MW4 6436   5.691   4.300   5.784  0.3655  0.2539 -0.3576
 1668SOL     OW 6437   6.230   3.065   1.642 -0.4194  0.1625 -0.4111
 1668SOL    HW2 6438   6.231   3.044   1.548 -0.0446  1.2063 -0.6531
 1668SOL    HW3 6439   6.223   3.161   1.645 -2.3872  0.0501  0.6361
 1668SOL    MW4 6440   6.229   3.075   1.630 -0.6295  0.2854 -0.3049
 1669SOL     OW 6441   3.890   1.343   4.151  0.0398  0.1161 -0.1311
 1669SOL    HW2 6442   3.806   1.306   4.127 -0.1954  0.5515  0.0095
 1669SOL    HW3 6443   3.942   1.268   4.180 -0.9171  0.0732  1.5805
 1669SOL    MW4 6444   3.886   1.328   4.152 -0.1175  0.1679  0.1132
 1670SOL     OW 6445   1.727   0.796   6.091 -0.3098 -0.4060  0.1043
 1670SOL    HW2 6446   1.693   0.833   6.172  0.0983  0.1184  0.0373
 1670SOL    HW3 6447   1.656   0.740   6.058 -0.1355 -1.3878  1.3140
 1670SOL    MW4 6448   1.713   0.793   6.097 -0.2330 -0.4663  0.2551
 1671SOL     OW 6449   4.862   4.357   2.148  0.0460  0.0337  0.2889
 1671SOL    HW2 6450   4.833   4.380   2.060 -0.5135  0.0971  0.4846
 1671SOL    HW3 6451   4.937   4.299   2.135  0.8679  1.1976 -0.2171
 1671SOL    MW4 6452   4.868   4.352   2.135  0.0806  0.1957  0.2480
 1672SOL     OW 6453   6.176   0.878   2.212 -0.3450  0.1417 -0.5245
 1672SOL    HW2 6454   6.110   0.824   2.256 -0.8542  1.4644  0.3784
 1672SOL    HW3 6455   6.258   0.829   2.224 -0.9930 -1.0724 -0.8751
 1672SOL    MW4 6456   6.179   0.864   2.220 -0.4977  0.1560 -0.4516
 1673SOL     OW 6457   5.240   2.824   3.659 -0.3472 -0.2079  0.1441
 1673SOL    HW2 6458   5.263   2.907   3.617  0.9618 -1.1448 -1.0679
 1673SOL    HW3 6459   5.308   2.811   3.725 -0.3234 -0.4977  0.0638
 1673SOL    MW4 6460   5.252   2.834   3.662 -0.1713 -0.3697 -0.0264
 1674SOL     OW 6461   2.033   2.178   1.224  0.6588 -0.3696 -0.3629
 1674SOL    HW2 6462   1.968   2.187   1.154  1.5842  1.1331 -1.0907
 1674SOL    HW3 6463   2.006   2.100   1.272 -1.2178 -0.2332 -1.1095
 1674SOL    MW4 6464   2.021   2.169   1.221  0.5333 -0.1533 -0.5575
 1675SOL     OW 6465   3.345   3.615   1.214 -0.7197 -0.4066  0.0159
 1675SOL    HW2 6466   3.330   3.683   1.279 -3.0979 -0.7926 -0.0294
 1675SOL    HW3 6467   3.335   3.533   1.262  2.1937 -0.8098  0.0905
 1675SOL    MW4 6468   3.341   3.613   1.229 -0.6491 -0.5107  0.0198
 1676SOL     OW 6469   6.030   4.828   6.397 -0.1668 -0.0794 -0.0685
 1676SOL    HW2 6470   6.018   4.864   6.309 -1.8319 -0.6000 -0.0884
 1676SOL    HW3 6471   6.051   4.736   6.383 -0.2443 -0.1194  0.0769
 1676SOL    MW4 6472   6.032   4.821   6.384 -0.3967 -0.1534 -0.0519
 1677SOL     OW 6473   1.381   4.354   4.527  0.3066  0.1545 -0.1163
 1677SOL    HW2 6474   1.463   4.305   4.530  0.8158  1.0196  2.2607
 1677SOL    HW3 6475   1.407   4.445   4.513 -0.2421  0.4019  0.3793
 1677SOL    MW4 6476   1.395   4.359   4.526  0.3014  0.3013  0.2627
 1678SOL     OW 6477   1.142   2.648   0.574 -0.3754  0.2248  0.1252
 1678SOL    HW2 6478   1.237   2.648   0.585 -0.3725  0.8082  0.1650
 1678SOL    HW3 6479   1.122   2.737   0.546 -1.1792  0.9246  2.6938
 1678SOL    MW4 6480   1.152   2.660   0.572 -0.4811  0.3941  0.4694
 1679SOL     OW 6481   0.575   4.686   4.486 -0.1850 -0.2364 -0.3019
 1679SOL    HW2 6482   0.581   4.781   4.480 -1.6660 -0.2089 -1.7378
 1679SOL    HW3 6483   0.482   4.666   4.476  0.2874 -1.9405 -1.9947
 1679SOL    MW4 6484   0.564   4.696   4.484 -0.3181 -0.4576 -0.7147
 1680SOL     OW 6485   6.173   0.788   0.494 -0.1265  0.2482 -0.1393
 1680SOL    HW2 6486   6.180   0.799   0.399  2.4286  0.5286  0.0118
 1680SOL    HW3 6487   6.112   0.856   0.522 -0.3541  0.6297 -1.4898
 1680SOL    MW4 6488   6.166   0.799   0.485  0.1806  0.3355 -0.2976
 1681SOL     OW 6489   2.368   1.482   0.481 -0.8721 -0.3744  1.1410
 1681SOL    HW2 6490   2.288   1.442   0.446 -0.6347  0.8560 -0.9575
 1681SOL    HW3 6491   2.437   1.419   0.459 -0.8511 -0.0205  0.1603
 1681SOL    MW4 6492   2.367   1.468   0.473 -0.8380 -0.1653  0.7347
 1682SOL     OW 6493   4.452   2.233   3.275 -0.3361  0.3040 -0.5501
 1682SOL    HW2 6494   4.494   2.148   3.286 -0.5887  0.4139  1.7496
 1682SOL    HW3 6495   4.358   2.214   3.276 -0.4376  0.6673  1.3663
 1682SOL    MW4 6496   4.445   2.219   3.276 -0.3828  0.3665  0.0062
 1683SOL     OW 6497   5.878   4.051   0.316 -0.3100  0.0706  0.4099
 1683SOL    HW2 6498   5.868   4.146   0.311  0.5935  0.2188  1.1615
 1683SOL    HW3 6499   5.945   4.038   0.383  0.9171 -1.0143 -0.9819
 1683SOL    MW4 6500   5.886   4.062   0.324 -0.0289 -0.0530  0.3255
 1684SOL     OW 6501   3.443   2.093   4.135 -0.1996  0.6903  0.5706
 1684SOL    HW2 6502   3.380   2.165   4.140  1.3251  2.1770 -0.4454
 1684SOL    HW3 6503   3.484   2.092   4.222 -0.0766  1.2153  0.5251
 1684SOL    MW4 6504   3.440   2.103   4.147  0.0178  0.9557  0.4305
 1685SOL     OW 6505   0.923   1.548   2.985 -0.5426 -0.0200 -0.0708
 1685SOL    HW2 6506   0.868   1.578   2.913  0.8868  1.1587 -0.7379
 1685SOL    HW3 6507   0.906   1.454   2.991 -0.8350 -0.1213 -1.8379
 1685SOL    MW4 6508   0.913   1.540   2.976 -0.3926  0.1222 -0.3919
 1686SOL     OW 6509   2.551   3.789   5.071  0.6048 -0.6292 -0.2284
 1686SOL    HW2 6510   2.555   3.753   4.982  3.4499 -0.0182 -0.4559
 1686SOL    HW3 6511   2.623   3.745   5.117  0.7236  0.8365  1.0551
 1686SOL    MW4 6512   2.561   3.778   5.065  0.9958 -0.3552 -0.0891
 1687SOL     OW 6513   2.262   4.231   4.564  0.4864 -0.3171 -0.2099
 1687SOL    HW2 6514   2.357   4.232   4.570  0.4981  0.1183 -0.4466
 1687SOL    HW3 6515   2.237   4.324   4.561 -0.0530 -0.3749  1.5565
 1687SOL    MW4 6516   2.271   4.244   4.564  0.4168 -0.2673 -0.0080
 1688SOL     OW 6517   1.296   5.761   5.859  0.0889 -0.2920 -0.2721
 1688SOL    HW2 6518   1.242   5.831   5.822 -0.3701 -1.2571 -1.4795
 1688SOL    HW3 6519   1.234   5.704   5.905  0.3338 -0.4157 -0.0937
 1688SOL    MW4 6520   1.281   5.763   5.860  0.0606 -0.4356 -0.4079
 1689SOL     OW 6521   1.469   5.081   5.782 -0.0081  0.3936 -0.0183
 1689SOL    HW2 6522   1.490   5.037   5.865  2.1745 -2.6582 -1.9669
 1689SOL    HW3 6523   1.414   5.019   5.735  1.1317  0.7295 -1.9132
 1689SOL    MW4 6524   1.465   5.067   5.787  0.4302  0.0353 -0.5254
 1690SOL     OW 6525   2.937   5.584   6.085 -0.3237  0.4237 -0.3912
 1690SOL    HW2 6526   2.868   5.575   6.019 -1.3883  2.1233  0.3929
 1690SOL    HW3 6527   2.999   5.645   6.045  1.0570 -1.4886 -1.2976
 1690SOL    MW4 6528   2.936   5.591   6.071 -0.2820  0.3956 -0.4074
 1691SOL     OW 6529   2.892   4.332   2.618 -0.1647  0.5578 -0.4709
 1691SOL    HW2 6530   2.985   4.357   2.622  0.0198 -0.1135 -0.3506
 1691SOL    HW3 6531   2.848   4.394   2.675  0.2342  0.7972 -0.4183
 1691SOL    MW4 6532   2.899   4.343   2.626 -0.0877  0.5008 -0.4480
 1692SOL     OW 6533   6.368   3.641   3.696  0.4186 -0.4598 -0.1263
 1692SOL    HW2 6534   6.293   3.585   3.679 -0.7640  1.3267 -1.1248
 1692SOL    HW3 6535   6.382   3.635   3.791 -1.7343  0.0601  0.2655
 1692SOL    MW4 6536   6.360   3.633   3.706 -0.0215 -0.1555 -0.2064
 1693SOL     OW 6537   2.028   5.897   3.551  0.3129 -0.5816  0.3479
 1693SOL    HW2 6538   2.000   5.806   3.562  0.3176 -0.5214  0.8699
 1693SOL    HW3 6539   2.029   5.933   3.640  1.8070 -0.5067  0.3242
 1693SOL    MW4 6540   2.025   5.890   3.564  0.5106 -0.5638  0.4136
 1694SOL     OW 6541   4.636   0.776   3.573  0.5439 -0.3802 -0.2530
 1694SOL    HW2 6542   4.645   0.681   3.561  0.4070 -0.3803 -0.3603
 1694SOL    HW3 6543   4.562   0.800   3.517  0.1950 -0.3037  0.2339
 1694SOL    MW4 6544   4.627   0.767   3.564  0.4798 -0.3701 -0.2029
 1695SOL     OW 6545   3.338   1.036   0.184  0.1249 -0.2400  0.3187
 1695SOL    HW2 6546   3.322   0.991   0.267 -0.8801  0.0363  0.2878
 1695SOL    HW3 6547   3.309   0.973   0.118  0.0229 -0.0820  0.2149
 1695SOL    MW4 6548   3.332   1.022   0.186 -0.0211 -0.1827  0.3009
 1696SOL     OW 6549   3.160   0.605   3.859  0.1483  0.3567  0.6128
 1696SOL    HW2 6550   3.222   0.583   3.929 -0.0968  2.0548  1.4179
 1696SOL    HW3 6551   3.209   0.590   3.778  0.8259 -0.5350  1.1716
 1696SOL    MW4 6552   3.175   0.600   3.858  0.2054  0.4631  0.7928
 1697SOL     OW 6553   5.726   6.431   1.145  0.2338 -0.5070  0.1140
 1697SOL    HW2 6554   5.706   6.475   1.062 -1.4492  0.9547  1.2117
 1697SOL    HW3 6555   5.792   6.366   1.123  1.6293  1.4543 -1.9475
 1697SOL    MW4 6556   5.732   6.428   1.131  0.1958 -0.0554 -0.0131
 1698SOL     OW 6557   3.590   2.976   0.661  0.6154  0.0498  0.4397
 1698SOL    HW2 6558   3.590   3.001   0.753 -1.5270  0.7549  0.2859
 1698SOL    HW3 6559   3.518   3.025   0.622  1.2685 -0.4763 -1.5619
 1698SOL    MW4 6560   3.581   2.986   0.668  0.4189  0.0734  0.1553
 1699SOL     OW 6561   2.633   6.029   2.977  0.4406 -0.2075  0.6260
 1699SOL    HW2 6562   2.539   6.047   2.977 -0.0597 -2.5619  0.6774
 1699SOL    HW3 6563   2.664   6.062   3.061 -1.1085 -2.7266  2.3037
 1699SOL    MW4 6564   2.624   6.036   2.988  0.1702 -0.8505  0.8541
 1700SOL     OW 6565   4.068   5.340   0.740 -0.0823 -0.2502 -0.3182
 1700SOL    HW2 6566   4.088   5.348   0.646  0.6423  0.3394 -0.1225
 1700SOL    HW3 6567   3.983   5.297   0.742  0.0723 -0.6388 -1.2427
 1700SOL    MW4 6568   4.060   5.336   0.728  0.0337 -0.2237 -0.4143
 1701SOL     OW 6569   3.881   3.379   3.766  0.2097  0.2846  0.3988
 1701SOL    HW2 6570   3.843   3.297   3.735 -2.2482  1.8990 -1.2939
 1701SOL    HW3 6571   3.821   3.410   3.834  0.6387  1.0503  0.4505
 1701SOL    MW4 6572   3.868   3.373   3.771 -0.0580  0.5986  0.1823
 1702SOL     OW 6573   4.201   4.200   3.782  0.2288 -0.2118 -0.1760
 1702SOL    HW2 6574   4.152   4.264   3.833 -0.4314  0.2540 -1.3502
 1702SOL    HW3 6575   4.146   4.122   3.782 -0.1166  0.0230 -0.7535
 1702SOL    MW4 6576   4.188   4.198   3.789  0.0961 -0.1194 -0.4071
 1703SOL     OW 6577   3.214   6.378   2.607  0.2483 -0.6466  0.2779
 1703SOL    HW2 6578   3.290   6.323   2.586 -0.2780 -1.4392  0.3907
 1703SOL    HW3 6579   3.148   6.352   2.543  0.3285  0.6252 -0.3487
 1703SOL    MW4 6580   3.215   6.367   2.596  0.1895 -0.5834  0.2101
 1704SOL     OW 6581   1.495   3.281   4.398 -0.3370  0.2640 -0.2628
 1704SOL    HW2 6582   1.578   3.264   4.442 -0.4369  2.1703  0.7919
 1704SOL    HW3 6583   1.432   3.294   4.469 -0.7909  2.1383 -0.9391
 1704SOL    MW4 6584   1.498   3.281   4.413 -0.4101  0.7628 -0.2129
 1705SOL     OW 6585   3.034   1.935   0.621 -0.6004 -0.2211  0.1057
 1705SOL    HW2 6586   3.006   2.003   0.560 -0.9745 -0.2239  0.2737
 1705SOL    HW3 6587   2.997   1.854   0.585  2.9869 -1.0396 -2.2928
 1705SOL    MW4 6588   3.025   1.933   0.608 -0.1765 -0.3294 -0.1886
 1706SOL     OW 6589   5.935   2.712   2.241  0.2361 -0.1527  0.1293
 1706SOL    HW2 6590   5.967   2.796   2.207  0.1799 -0.3703 -0.4776
 1706SOL    HW3 6591   5.983   2.646   2.191 -0.0252 -0.4810  0.3071
 1706SOL    MW4 6592   5.945   2.715   2.230  0.1942 -0.2248  0.0727
 1707SOL     OW 6593   3.615   5.890   2.418  0.3197  0.2778  0.4575
 1707SOL    HW2 6594   3.631   5.848   2.503 -1.5049  0.8225  1.1253
 1707SOL    HW3 6595   3.521   5.909   2.418  0.4182  0.9679 -1.3891
 1707SOL    MW4 6596   3.605   5.887   2.429  0.0919  0.4407  0.3019
 1708SOL     OW 6597   1.196   4.386   0.206 -0.0051  0.0105  0.1484
 1708SOL    HW2 6598   1.280   4.342   0.220  0.7601  1.7964  1.5889
 1708SOL    HW3 6599   1.143   4.322   0.158  1.5386 -1.8525  0.8041
 1708SOL    MW4 6600   1.200   4.372   0.201  0.2995  0.0003  0.4250
 1709SOL     OW 6601   2.871   1.452   2.888  0.5925  0.4637 -0.2679
 1709SOL    HW2 6602   2.958   1.479   2.860  0.2189  1.7837 -0.2063
 1709SOL    HW3 6603   2.812   1.488   2.822  0.0788 -0.3077 -0.2369
 1709SOL    MW4 6604   2.874   1.460   2.876  0.4754  0.5361 -0.2557
 1710SOL     OW 6605   0.526   0.517   2.005  0.3618  0.3902  0.0853
 1710SOL    HW2 6606   0.440   0.476   2.018 -0.2991  2.2551  2.4279
 1710SOL    HW3 6607   0.524   0.547   1.914 -2.4294  2.2717  0.6307
 1710SOL    MW4 6608   0.514   0.515   1.995 -0.0936  0.8845  0.4663
 1711SOL     OW 6609   2.936   2.789   1.794 -0.2565 -0.1255 -0.5690
 1711SOL    HW2 6610   2.962   2.699   1.774 -0.9437 -0.0554 -1.8287
 1711SOL    HW3 6611   2.854   2.780   1.841  0.5698 -0.2146  0.9214
 1711SOL    MW4 6612   2.929   2.776   1.798 -0.2382 -0.1280 -0.5385
 1712SOL     OW 6613   0.394   4.912   4.124  0.3653  0.2211  0.0484
 1712SOL    HW2 6614   0.471   4.857   4.140 -0.5300 -0.8514  0.8021
 1712SOL    HW3 6615   0.410   4.951   4.038  1.1510 -1.0195 -0.3956
 1712SOL    MW4 6616   0.406   4.910   4.115  0.3508 -0.0841  0.0893
 1713SOL     OW 6617   1.221   0.301   0.436 -0.5267  0.4113 -0.0100
 1713SOL    HW2 6618   1.167   0.232   0.396  0.0820 -0.8096  1.2016
 1713SOL    HW3 6619   1.308   0.287   0.399 -1.0535  2.8131 -2.5037
 1713SOL    MW4 6620   1.225   0.290   0.426 -0.5159  0.5671 -0.1791
 1714SOL     OW 6621   4.487   5.756   2.815  0.4948 -0.5206  0.2022
 1714SOL    HW2 6622   4.485   5.803   2.731  0.8277 -2.0078 -0.6727
 1714SOL    HW3 6623   4.545   5.807   2.870 -0.5106  1.0373 -0.1109
 1714SOL    MW4 6624   4.494   5.769   2.811  0.4060 -0.5113  0.0455
 1715SOL     OW 6625   4.180   6.438   0.587 -0.5758  0.3872  0.3567
 1715SOL    HW2 6626   4.089   6.420   0.560 -0.0697  0.4121 -1.4978
 1715SOL    HW3 6627   4.190   6.391   0.670 -1.5060 -1.8289 -0.7082
 1715SOL    MW4 6628   4.169   6.430   0.594 -0.6317  0.0981 -0.0285
 1716SOL     OW 6629   2.225   2.768   2.430 -0.4308  0.9244  0.5005
 1716SOL    HW2 6630   2.239   2.675   2.447 -2.7493  0.5580  0.7647
 1716SOL    HW3 6631   2.264   2.783   2.344  1.2404  0.0746  1.0729
 1716SOL    MW4 6632   2.232   2.758   2.421 -0.5162  0.7640  0.6109
 1717SOL     OW 6633   0.363   5.131   0.287 -0.0221  0.0099 -0.2331
 1717SOL    HW2 6634   0.365   5.196   0.216 -3.6377 -1.4219 -1.9368
 1717SOL    HW3 6635   0.399   5.177   0.363 -0.2806  3.2579 -1.8842
 1717SOL    MW4 6636   0.368   5.146   0.288 -0.5332  0.2495 -0.6757
 1718SOL     OW 6637   1.196   5.530   4.058  0.1860 -0.4355 -0.3381
 1718SOL    HW2 6638   1.125   5.594   4.054  1.5474  1.0975 -1.4865
 1718SOL    HW3 6639   1.239   5.548   4.141  1.3125  1.0673 -1.1907
 1718SOL    MW4 6640   1.192   5.541   4.068  0.5142 -0.0350 -0.6021
 1719SOL     OW 6641   0.197   3.600   5.267  0.2636 -0.3197 -0.0377
 1719SOL    HW2 6642   0.178   3.602   5.173 -0.9784 -0.9003  0.1769
 1719SOL    HW3 6643   0.154   3.679   5.302 -2.5949 -2.0012  0.5581
 1719SOL    MW4 6644   0.189   3.611   5.259 -0.2774 -0.6181  0.0692
 1720SOL     OW 6645   2.003   3.203   1.396  0.0013  0.0257  0.3620
 1720SOL    HW2 6646   1.949   3.225   1.473 -0.1811 -0.3419  0.3429
 1720SOL    HW3 6647   2.038   3.287   1.367 -0.6101  0.2842  0.3433
 1720SOL    MW4 6648   2.000   3.217   1.403 -0.1035  0.0113  0.3570
 1721SOL     OW 6649   1.218   1.561   2.924 -0.1541 -0.2710 -0.1519
 1721SOL    HW2 6650   1.131   1.591   2.953  0.6970  1.4727  0.7550
 1721SOL    HW3 6651   1.226   1.594   2.834 -1.0270 -1.8072 -0.8217
 1721SOL    MW4 6652   1.207   1.570   2.916 -0.1570 -0.2436 -0.1206
 1722SOL     OW 6653   2.478   0.874   4.270 -0.6067 -0.3289 -0.6767
 1722SOL    HW2 6654   2.525   0.793   4.249  0.9786  0.8933 -2.0309
 1722SOL    HW3 6655   2.393   0.864   4.225  0.4665 -0.3004 -2.8381
 1722SOL    MW4 6656   2.473   0.862   4.261 -0.2559 -0.1639 -1.1406
 1723SOL     OW 6657   4.559   5.978   3.894  0.6253  0.3557 -0.0629
 1723SOL    HW2 6658   4.620   5.908   3.916 -0.6760 -0.8208 -0.1193
 1723SOL    HW3 6659   4.543   5.967   3.800  0.7985  1.0603 -0.1840
 1723SOL    MW4 6660   4.565   5.968   3.884  0.4764  0.2935 -0.0863
 1724SOL     OW 6661   5.702   5.375   4.129 -0.5120  0.0052  0.1320
 1724SOL    HW2 6662   5.629   5.425   4.092 -1.1479 -0.1235  1.1937
 1724SOL    HW3 6663   5.683   5.284   4.105 -0.3765  0.0400 -0.1128
 1724SOL    MW4 6664   5.690   5.369   4.121 -0.5780 -0.0072  0.2398
 1725SOL     OW 6665   4.151   0.994   0.482  0.1949  0.1290  0.3172
 1725SOL    HW2 6666   4.188   1.029   0.563  1.0398 -0.6760  0.3075
 1725SOL    HW3 6667   4.226   0.990   0.421  0.4389 -2.6582  0.6699
 1725SOL    MW4 6668   4.166   0.998   0.484  0.3386 -0.3449  0.3625
 1726SOL     OW 6669   4.773   4.385   1.895  0.9747 -0.3346  0.4007
 1726SOL    HW2 6670   4.833   4.346   1.830 -0.9027 -0.9233 -1.0574
 1726SOL    HW3 6671   4.785   4.479   1.885  2.2590 -0.4433  0.7389
 1726SOL    MW4 6672   4.783   4.392   1.885  0.8965 -0.4266  0.2529
 1727SOL     OW 6673   4.099   0.451   2.176  0.1359  0.1691 -0.0503
 1727SOL    HW2 6674   4.142   0.498   2.104  1.4479 -0.2778  0.4039
 1727SOL    HW3 6675   4.007   0.447   2.150  0.4705  0.5513 -1.4143
 1727SOL    MW4 6676   4.093   0.457   2.163  0.3531  0.1606 -0.1704
 1728SOL     OW 6677   1.315   6.160   3.454 -0.3744  0.5866 -0.2077
 1728SOL    HW2 6678   1.398   6.163   3.407 -0.6473  0.5414 -0.7023
 1728SOL    HW3 6679   1.252   6.201   3.395 -0.9229 -0.3695 -0.3173
 1728SOL    MW4 6680   1.317   6.166   3.440 -0.4828  0.4545 -0.2874
 1729SOL     OW 6681   5.411   1.482   6.207  0.0011 -0.1966  0.3802
 1729SOL    HW2 6682   5.318   1.501   6.192  0.3251  1.6016  0.4286
 1729SOL    HW3 6683   5.455   1.512   6.127  0.7241  0.7465  1.1082
 1729SOL    MW4 6684   5.404   1.488   6.195  0.1392  0.1651  0.4826
 1730SOL     OW 6685   1.292   1.177   3.813 -0.0386 -0.6585  0.1079
 1730SOL    HW2 6686   1.276   1.266   3.843  0.6870 -0.2711 -0.6047
 1730SOL    HW3 6687   1.259   1.121   3.883  0.0324  0.1783  0.8207
 1730SOL    MW4 6688   1.286   1.181   3.826  0.0665 -0.4970  0.1079
 1731SOL     OW 6689   0.346   1.370   4.308  0.9701  0.1873  0.0310
 1731SOL    HW2 6690   0.269   1.420   4.333  2.3303  1.5286  1.8463
 1731SOL    HW3 6691   0.413   1.436   4.290  1.6916 -0.9302 -1.6598
 1731SOL    MW4 6692   0.345   1.385   4.309  1.2448  0.2168  0.0475
 1732SOL     OW 6693   3.230   4.568   0.409  0.3945 -0.5723 -0.0756
 1732SOL    HW2 6694   3.197   4.478   0.404  0.0756 -0.4199 -1.0648
 1732SOL    HW3 6695   3.243   4.593   0.318  0.7758  0.2822  0.2063
 1732SOL    MW4 6696   3.227   4.559   0.396  0.4027 -0.4395 -0.1689
 1733SOL     OW 6697   1.627   5.876   3.985 -0.3881  0.1607  0.0604
 1733SOL    HW2 6698   1.641   5.848   3.894 -1.5598 -1.3800  0.3224
 1733SOL    HW3 6699   1.557   5.941   3.980 -0.6509 -0.1331 -0.1177
 1733SOL    MW4 6700   1.620   5.881   3.972 -0.5774 -0.0814  0.0715
 1734SOL     OW 6701   4.615   1.122   4.530  0.1515 -0.5461 -0.6268
 1734SOL    HW2 6702   4.673   1.100   4.458 -0.5204  1.3614 -1.8151
 1734SOL    HW3 6703   4.602   1.216   4.523  0.7738 -0.0957  2.5346
 1734SOL    MW4 6704   4.621   1.131   4.520  0.1449 -0.2350 -0.3665
 1735SOL     OW 6705   3.049   4.701   4.638 -0.2317  0.6508  0.3991
 1735SOL    HW2 6706   3.043   4.763   4.566 -0.1298  0.4953  0.2564
 1735SOL    HW3 6707   2.979   4.727   4.698 -0.7493  0.3631 -0.0776
 1735SOL    MW4 6708   3.039   4.713   4.637 -0.2866  0.5923  0.3174
 1736SOL     OW 6709   2.299   4.096   5.807 -0.1983  0.2867 -0.0401
 1736SOL    HW2 6710   2.361   4.032   5.772  0.1439  0.1037  0.8674
 1736SOL    HW3 6711   2.328   4.179   5.771  0.2728  0.1294 -0.0412
 1736SOL    MW4 6712   2.311   4.098   5.798 -0.0910  0.2418  0.0795
 1737SOL     OW 6713   0.303   3.618   2.617 -0.1733 -0.5019  0.1184
 1737SOL    HW2 6714   0.257   3.539   2.645 -0.5406 -0.4428 -0.3086
 1737SOL    HW3 6715   0.387   3.585   2.583 -0.9976 -0.8965 -1.6305
 1737SOL    MW4 6716   0.308   3.603   2.616 -0.3305 -0.5462 -0.1687
 1738SOL     OW 6717   3.432   5.810   2.804 -0.2981  0.0364  0.3583
 1738SOL    HW2 6718   3.445   5.890   2.856 -0.3315  0.9444 -0.9753
 1738SOL    HW3 6719   3.475   5.742   2.854  0.6984  1.1055  1.0120
 1738SOL    MW4 6720   3.439   5.812   2.817 -0.1711  0.2973  0.2686
 1739SOL     OW 6721   6.172   1.155   2.207 -0.2156 -0.0748 -0.3109
 1739SOL    HW2 6722   6.138   1.203   2.282 -0.9169 -0.0300 -0.6416
 1739SOL    HW3 6723   6.181   1.065   2.238 -0.3176 -0.0199 -0.1195
 1739SOL    MW4 6724   6.169   1.149   2.221 -0.3216 -0.0616 -0.3293
 1740SOL     OW 6725   3.557   5.415   4.860 -0.4731 -0.2532  0.7504
 1740SOL    HW2 6726   3.504   5.349   4.905  0.6971 -1.3052  0.6236
 1740SOL    HW3 6727   3.497   5.489   4.847 -1.1702 -0.3423  3.0146
 1740SOL    MW4 6728   3.542   5.416   4.865 -0.4106 -0.4037  1.0324
 1741SOL     OW 6729   2.917   5.283   0.911  0.4671 -0.1812 -0.3382
 1741SOL    HW2 6730   2.895   5.286   1.003 -2.5453  1.7958 -1.0037
 1741SOL    HW3 6731   3.013   5.286   0.909  0.6874 -1.6650  2.6546
 1741SOL    MW4 6732   2.927   5.283   0.923  0.0987 -0.1161 -0.0311
 1742SOL     OW 6733   5.445   1.861   4.079  0.0943 -0.2811  0.2795
 1742SOL    HW2 6734   5.535   1.863   4.046 -0.2688  0.8598 -0.7331
 1742SOL    HW3 6735   5.434   1.944   4.124 -1.1375  0.6866 -1.6569
 1742SOL    MW4 6736   5.455   1.872   4.080 -0.1161 -0.0029 -0.1096
 1743SOL     OW 6737   2.272   5.386   5.082 -0.3431  0.5821  0.0207
 1743SOL    HW2 6738   2.261   5.436   5.001  0.7177  2.9674  1.2624
 1743SOL    HW3 6739   2.183   5.363   5.108 -0.6973 -0.3674 -1.8622
 1743SOL    MW4 6740   2.259   5.390   5.075 -0.2499  0.7715 -0.0639
 1744SOL     OW 6741   1.139   2.728   4.842 -0.3365  0.0093 -0.2828
 1744SOL    HW2 6742   1.133   2.824   4.848 -0.9078  0.0446 -1.2290
 1744SOL    HW3 6743   1.190   2.712   4.763 -1.2283 -0.4666 -0.7777
 1744SOL    MW4 6744   1.145   2.739   4.833 -0.5296 -0.0489 -0.4729
 1745SOL     OW 6745   5.967   1.486   3.868  0.2690  0.2449  0.1999
 1745SOL    HW2 6746   6.041   1.425   3.872  1.6817  1.9128  0.2956
 1745SOL    HW3 6747   5.893   1.432   3.839  1.4681 -1.4940  0.2514
 1745SOL    MW4 6748   5.967   1.470   3.865  0.6136  0.2355  0.2193
 1746SOL     OW 6749   5.206   1.238   3.475  0.2634  0.2714 -0.2887
 1746SOL    HW2 6750   5.152   1.255   3.552 -0.5461 -0.4793 -0.6715
 1746SOL    HW3 6751   5.149   1.188   3.416  1.0006  0.4738 -1.2003
 1746SOL    MW4 6752   5.191   1.234   3.477  0.2539  0.1991 -0.4595
 1747SOL     OW 6753   4.014   0.094   4.369 -0.8177  0.0300 -0.1510
 1747SOL    HW2 6754   4.019   0.033   4.294  0.2056  2.3167 -2.0801
 1747SOL    HW3 6755   3.922   0.119   4.373 -0.7270  0.6832 -1.4097
 1747SOL    MW4 6756   4.002   0.089   4.359 -0.6707  0.4179 -0.5716
 1748SOL     OW 6757   4.737   6.081   5.842 -0.2141  0.0167 -0.1644
 1748SOL    HW2 6758   4.802   6.129   5.790 -0.0167 -0.2381 -0.1541
 1748SOL    HW3 6759   4.666   6.144   5.856  0.0865  0.3338 -0.0701
 1748SOL    MW4 6760   4.736   6.096   5.837 -0.1484  0.0249 -0.1506
 1749SOL     OW 6761   0.581   1.579   6.334  0.5374  0.0983  0.4196
 1749SOL    HW2 6762   0.576   1.496   6.286  0.6881  1.1147 -1.4600
 1749SOL    HW3 6763   0.509   1.575   6.397 -1.9024  0.0130 -2.1611
 1749SOL    MW4 6764   0.571   1.568   6.336  0.2354  0.2212 -0.1689
 1750SOL     OW 6765   5.093   4.227   3.545 -0.0654 -0.0778  0.3711
 1750SOL    HW2 6766   5.041   4.206   3.468 -0.3448  1.1113  0.2077
 1750SOL    HW3 6767   5.182   4.241   3.511  0.0100 -0.4827  0.4033
 1750SOL    MW4 6768   5.098   4.226   3.530 -0.0923  0.0256  0.3538
 1751SOL     OW 6769   6.048   2.084   6.350 -0.4042  0.6061  0.3337
 1751SOL    HW2 6770   6.047   2.145   6.424 -1.5398  1.2439 -0.1820
 1751SOL    HW3 6771   5.967   2.034   6.359 -0.6650  0.8432 -0.5968
 1751SOL    MW4 6772   6.037   2.085   6.361 -0.5884  0.7215  0.1429
 1752SOL     OW 6773   5.260   5.502   6.363 -0.2956  0.8617 -0.5023
 1752SOL    HW2 6774   5.234   5.520   6.272 -0.5892 -0.3552 -0.6702
 1752SOL    HW3 6775   5.271   5.589   6.402 -0.2510  1.4004 -1.6765
 1752SOL    MW4 6776   5.258   5.516   6.356 -0.3284  0.7722 -0.6794
 1753SOL     OW 6777   2.029   4.311   1.569 -0.4812  0.0996 -0.1492
 1753SOL    HW2 6778   1.977   4.259   1.507  1.8542 -1.5838 -0.8730
 1753SOL    HW3 6779   2.065   4.246   1.629  0.5560  1.2142  0.4685
 1753SOL    MW4 6780   2.027   4.295   1.569 -0.0362  0.0246 -0.1632
 1754SOL     OW 6781   4.357   3.643   1.516 -0.4312  0.1883  0.0235
 1754SOL    HW2 6782   4.265   3.666   1.506 -0.5215 -0.0993  0.1806
 1754SOL    HW3 6783   4.381   3.600   1.433 -0.0716  1.4561 -0.5536
 1754SOL    MW4 6784   4.348   3.640   1.504 -0.3956  0.3177 -0.0319
 1755SOL     OW 6785   2.561   1.545   0.752 -0.1806  0.7196  0.3009
 1755SOL    HW2 6786   2.549   1.540   0.657 -0.6309  0.9782  0.3374
 1755SOL    HW3 6787   2.476   1.521   0.788  0.2347 -0.2285  0.6649
 1755SOL    MW4 6788   2.548   1.541   0.744 -0.1853  0.6286  0.3538
 1756SOL     OW 6789   4.093   0.964   5.954 -0.0160 -0.0186  0.4407
 1756SOL    HW2 6790   4.153   0.954   6.028 -0.6293 -1.9850  0.7510
 1756SOL    HW3 6791   4.144   0.938   5.878 -0.8283 -3.5239  0.9172
 1756SOL    MW4 6792   4.108   0.959   5.954 -0.2041 -0.7405  0.5445
 1757SOL     OW 6793   5.598   3.851   1.196 -0.0454  0.4582 -0.5634
 1757SOL    HW2 6794   5.552   3.850   1.280 -0.2827  0.2199 -0.6956
 1757SOL    HW3 6795   5.553   3.785   1.144  0.6052  0.0501 -0.6136
 1757SOL    MW4 6796   5.586   3.842   1.201  0.0091  0.3729 -0.5875
 1758SOL     OW 6797   4.934   4.107   1.106 -0.0807 -0.1388 -0.2790
 1758SOL    HW2 6798   4.930   4.157   1.024 -2.2533  1.6934  0.8333
 1758SOL    HW3 6799   4.899   4.021   1.083 -0.0509  0.1294 -1.4017
 1758SOL    MW4 6800   4.929   4.103   1.092 -0.3634  0.1383 -0.2804
 1759SOL     OW 6801   0.874   6.142   5.512  0.0951  0.0892 -0.2345
 1759SOL    HW2 6802   0.794   6.187   5.486  0.3029 -0.4899 -2.0077
 1759SOL    HW3 6803   0.901   6.187   5.593 -1.3458  1.0848 -0.2645
 1759SOL    MW4 6804   0.867   6.154   5.520 -0.0676  0.1442 -0.4724
 1760SOL     OW 6805   4.783   5.702   4.709 -0.0827 -0.2500 -0.7041
 1760SOL    HW2 6806   4.871   5.672   4.685  0.0854  1.8915 -3.0596
 1760SOL    HW3 6807   4.798   5.769   4.776 -0.1711 -1.7448  0.8959
 1760SOL    MW4 6808   4.797   5.707   4.715 -0.0722 -0.1647 -0.8038
 1761SOL     OW 6809   3.803   3.816   0.192  0.4571 -0.0949  0.0117
 1761SOL    HW2 6810   3.779   3.724   0.192 -0.8821  0.1912 -1.7448
 1761SOL    HW3 6811   3.794   3.844   0.284 -0.3639 -1.4048  0.3490
 1761SOL    MW4 6812   3.799   3.808   0.204  0.1721 -0.2300 -0.1756
 1762SOL     OW 6813   5.352   0.416   4.662  0.0236  0.0436  0.2990
 1762SOL    HW2 6814   5.281   0.477   4.681 -1.4017 -0.8183 -1.8964
 1762SOL    HW3 6815   5.394   0.451   4.583  0.6268 -0.6254  0.3036
 1762SOL    MW4 6816   5.348   0.429   4.654 -0.0849 -0.1584  0.0100
 1763SOL     OW 6817   2.888   1.131   2.647 -0.0513 -0.2381 -0.3857
 1763SOL    HW2 6818   2.856   1.133   2.737  0.0727 -3.7326 -0.0928
 1763SOL    HW3 6819   2.955   1.199   2.643  1.0893 -1.0198  2.7089
 1763SOL    MW4 6820   2.892   1.140   2.658  0.1156 -0.8023  0.0612
 1764SOL     OW 6821   5.599   5.997   4.265  0.2273  0.1272 -0.5137
 1764SOL    HW2 6822   5.636   6.074   4.221  1.2462  1.0585  1.8098
 1764SOL    HW3 6823   5.648   5.991   4.347  0.6732 -3.4597 -0.8976
 1764SOL    MW4 6824   5.610   6.006   4.270  0.4205 -0.2232 -0.2578
 1765SOL     OW 6825   5.650   3.138   4.910 -0.2363 -0.3835 -0.2853
 1765SOL    HW2 6826   5.674   3.215   4.962 -1.2376  0.1850 -0.6327
 1765SOL    HW3 6827   5.684   3.064   4.960 -0.4547  0.2044  0.7726
 1765SOL    MW4 6828   5.658   3.138   4.924 -0.3973 -0.2309 -0.1916
 1766SOL     OW 6829   2.855   4.759   0.707  0.3442 -0.4192  0.0051
 1766SOL    HW2 6830   2.891   4.702   0.639  0.2330  1.4316 -1.7021
 1766SOL    HW3 6831   2.932   4.791   0.754  0.4183 -1.7514  0.8499
 1766SOL    MW4 6832   2.870   4.756   0.704  0.3393 -0.3508 -0.1087
 1767SOL     OW 6833   4.241   4.205   1.207 -0.4731  0.4281 -0.0628
 1767SOL    HW2 6834   4.210   4.219   1.118  1.0305  0.9033 -0.5324
 1767SOL    HW3 6835   4.173   4.244   1.262  0.6238  4.2561 -1.1446
 1767SOL    MW4 6836   4.228   4.212   1.203 -0.1300  0.9959 -0.2675
 1768SOL     OW 6837   2.983   5.292   2.306 -0.2162 -0.0573  0.0235
 1768SOL    HW2 6838   2.892   5.293   2.277 -0.9343  0.0915  2.1296
 1768SOL    HW3 6839   2.987   5.224   2.373  1.2698 -0.1661 -0.1298
 1768SOL    MW4 6840   2.972   5.284   2.311 -0.1149 -0.0521  0.2811
 1769SOL     OW 6841   0.343   1.306   1.981  0.4210 -0.2211 -0.2174
 1769SOL    HW2 6842   0.344   1.251   2.059 -2.3742  0.4164  0.3893
 1769SOL    HW3 6843   0.402   1.263   1.920  1.8502 -1.3278  1.8506
 1769SOL    MW4 6844   0.351   1.293   1.983  0.2408 -0.2830  0.1355
 1770SOL     OW 6845   6.046   0.721   3.941  0.5141 -0.1404 -0.2460
 1770SOL    HW2 6846   6.100   0.767   4.005  0.4263 -1.0534  0.5193
 1770SOL    HW3 6847   6.091   0.638   3.927 -0.0596 -0.4164 -0.5130
 1770SOL    MW4 6848   6.059   0.716   3.948  0.4268 -0.2973 -0.1802
 1771SOL     OW 6849   4.981   0.333   2.722 -0.6365 -0.0511 -0.1097
 1771SOL    HW2 6850   4.996   0.319   2.816 -0.7392 -0.3320 -0.1359
 1771SOL    HW3 6851   4.902   0.283   2.702 -2.2267  2.1859  0.2211
 1771SOL    MW4 6852   4.973   0.325   2.732 -0.8599  0.2070 -0.0695
 1772SOL     OW 6853   3.609   5.878   0.012  0.2309  0.0955 -0.3721
 1772SOL    HW2 6854   3.600   5.804   0.071  0.4292  0.7203  0.4578
 1772SOL    HW3 6855   3.520   5.908  -0.003  0.1076 -0.5778 -1.0861
 1772SOL    MW4 6856   3.596   5.872   0.017  0.2408  0.0891 -0.3568
 1773SOL     OW 6857   2.371   0.343   5.009  0.1229  0.0886  0.4706
 1773SOL    HW2 6858   2.365   0.271   5.072  1.0682  1.8555  2.7288
 1773SOL    HW3 6859   2.336   0.419   5.056 -1.5869  1.0283 -2.1014
 1773SOL    MW4 6860   2.366   0.343   5.024  0.0220  0.4457  0.4292
 1774SOL     OW 6861   1.111   5.750   3.664 -0.5443  0.3993 -0.2814
 1774SOL    HW2 6862   1.122   5.844   3.651  0.2493  0.7831  2.4369
 1774SOL    HW3 6863   1.076   5.742   3.753 -0.3972 -1.8714 -0.3622
 1774SOL    MW4 6864   1.108   5.761   3.674 -0.4201  0.1503  0.0666
 1775SOL     OW 6865   3.629   2.045   4.355  0.3280  0.5453 -0.2892
 1775SOL    HW2 6866   3.616   2.112   4.423  1.3797 -0.3183  0.8139
 1775SOL    HW3 6867   3.611   1.962   4.400 -0.0410  0.0114 -1.3829
 1775SOL    MW4 6868   3.625   2.043   4.370  0.4181  0.3610 -0.2879
 1776SOL     OW 6869   6.135   5.101   1.144  0.0101 -0.1349 -0.3185
 1776SOL    HW2 6870   6.159   5.013   1.116 -0.3227  0.5196 -2.9760
 1776SOL    HW3 6871   6.068   5.128   1.081 -0.6950  1.6084  1.1146
 1776SOL    MW4 6872   6.129   5.093   1.132 -0.1268  0.1814 -0.4800
 1777SOL     OW 6873   1.121   4.058   4.332  0.4356 -0.2168  0.6085
 1777SOL    HW2 6874   1.086   4.088   4.416  0.1526  3.2224 -0.5758
 1777SOL    HW3 6875   1.215   4.052   4.345  0.3564 -0.0634  1.2615
 1777SOL    MW4 6876   1.129   4.061   4.344  0.3878  0.2572  0.5384
 1778SOL     OW 6877   5.647   4.808   3.634 -0.2059  0.1276  0.3456
 1778SOL    HW2 6878   5.692   4.754   3.569 -0.6552  0.5956 -0.3702
 1778SOL    HW3 6879   5.558   4.773   3.635  0.0095 -0.4120  1.3204
 1778SOL    MW4 6880   5.641   4.796   3.625 -0.2368  0.1181  0.3798
 1779SOL     OW 6881   3.287   3.896   4.052 -0.1271  0.0615 -0.1006
 1779SOL    HW2 6882   3.365   3.870   4.101  0.8412  0.1336 -1.5387
 1779SOL    HW3 6883   3.300   3.989   4.034 -1.0710  0.3275  0.5733
 1779SOL    MW4 6884   3.299   3.905   4.056 -0.1238  0.1061 -0.2014
 1780SOL     OW 6885   2.287   5.348   3.394  0.6613 -0.0897 -0.1736
 1780SOL    HW2 6886   2.316   5.368   3.483  0.8073 -0.2200 -0.1913
 1780SOL    HW3 6887   2.222   5.415   3.374  1.5010  0.6655 -0.4105
 1780SOL    MW4 6888   2.282   5.359   3.403  0.7914 -0.0072 -0.2072
 1781SOL     OW 6889   3.396   2.888   0.045  0.1034 -0.7045 -0.2831
 1781SOL    HW2 6890   3.422   2.898   0.137 -0.2373  0.6990 -0.3264
 1781SOL    HW3 6891   3.428   2.801   0.021 -0.7534 -1.5487  1.4790
 1781SOL    MW4 6892   3.404   2.878   0.054 -0.0546 -0.6307 -0.0563
 1782SOL     OW 6893   2.310   5.172   0.286 -0.3273 -0.3154 -0.3215
 1782SOL    HW2 6894   2.219   5.189   0.262 -0.0055  2.1341 -0.0315
 1782SOL    HW3 6895   2.361   5.224   0.225  0.8406 -0.7172  0.2814
 1782SOL    MW4 6896   2.305   5.181   0.275 -0.1308 -0.0452 -0.2037
 1783SOL     OW 6897   0.054   0.570   3.320 -0.9281  0.5261  0.2184
 1783SOL    HW2 6898  -0.042   0.568   3.311 -0.8119 -1.7054 -1.1771
 1783SOL    HW3 6899   0.070   0.541   3.410 -1.5570 -0.4381  0.0375
 1783SOL    MW4 6900   0.043   0.566   3.331 -0.9957  0.1045  0.0104
 1784SOL     OW 6901   2.236   2.123   4.748 -0.5036  0.1837 -0.4850
 1784SOL    HW2 6902   2.172   2.158   4.687 -1.1090  0.1788  0.1274
 1784SOL    HW3 6903   2.316   2.173   4.732 -1.3818  2.0055  0.4801
 1784SOL    MW4 6904   2.238   2.134   4.738 -0.6993  0.4234 -0.2769
 1785SOL     OW 6905   3.422   4.849   0.789 -0.2640 -0.1373  0.0151
 1785SOL    HW2 6906   3.431   4.944   0.796  0.5796 -0.3145  2.0395
 1785SOL    HW3 6907   3.419   4.819   0.880 -1.8088 -1.9556 -0.5775
 1785SOL    MW4 6908   3.423   4.858   0.802 -0.3565 -0.4006  0.2040
 1786SOL     OW 6909   6.162   6.157   3.167  0.1169  0.9118 -0.1487
 1786SOL    HW2 6910   6.080   6.186   3.127 -0.1161  0.4551 -0.0107
 1786SOL    HW3 6911   6.226   6.157   3.096  0.4544  2.9976  0.0974
 1786SOL    MW4 6912   6.160   6.160   3.153  0.1307  1.1267 -0.0980
 1787SOL     OW 6913   3.027   2.170   1.521  0.0555  0.9191 -0.0138
 1787SOL    HW2 6914   2.979   2.091   1.544  1.5920 -0.5360 -1.5761
 1787SOL    HW3 6915   2.958   2.236   1.507 -1.3531 -0.5033 -0.1188
 1787SOL    MW4 6916   3.011   2.169   1.522  0.0724  0.5395 -0.2338
 1788SOL     OW 6917   2.696   2.058   4.908  0.3576 -0.1645 -0.2560
 1788SOL    HW2 6918   2.778   2.076   4.862  1.1083 -0.5662  0.9048
 1788SOL    HW3 6919   2.720   2.001   4.980 -1.1291 -1.2204 -0.5426
 1788SOL    MW4 6920   2.710   2.053   4.911  0.2605 -0.3568 -0.1407
 1789SOL     OW 6921   2.158   4.109   0.884  0.0149  0.3218 -0.4886
 1789SOL    HW2 6922   2.113   4.088   0.802  0.8239  2.0395 -1.4445
 1789SOL    HW3 6923   2.159   4.205   0.886  0.8588  0.3031  1.0650
 1789SOL    MW4 6924   2.152   4.119   0.873  0.2330  0.5460 -0.4098
 1790SOL     OW 6925   3.563   6.420   3.884 -0.0081 -0.1819 -0.2598
 1790SOL    HW2 6926   3.571   6.341   3.830 -1.4424 -1.1776  0.9214
 1790SOL    HW3 6927   3.569   6.493   3.821  0.7747 -1.2254 -1.4347
 1790SOL    MW4 6928   3.565   6.420   3.869 -0.0940 -0.4510 -0.2589
 1791SOL     OW 6929   0.557   3.235   4.809 -0.1460  0.1875 -0.0825
 1791SOL    HW2 6930   0.607   3.190   4.877  1.4918 -0.5372 -1.6637
 1791SOL    HW3 6931   0.471   3.193   4.810  0.4590 -1.0906  0.3292
 1791SOL    MW4 6932   0.553   3.223   4.818  0.1499 -0.0768 -0.2368
 1792SOL     OW 6933   4.072   1.484   3.987  1.1981  0.0663  0.2435
 1792SOL    HW2 6934   4.109   1.531   4.061 -1.5123  0.9584  1.1255
 1792SOL    HW3 6935   4.010   1.423   4.025  0.4295 -0.1304 -1.2350
 1792SOL    MW4 6936   4.069   1.482   4.001  0.7391  0.1580  0.1648
 1793SOL     OW 6937   3.707   3.927   4.006 -0.8384 -0.1050 -0.4951
 1793SOL    HW2 6938   3.689   3.904   3.915 -1.2245 -2.7786  0.1764
 1793SOL    HW3 6939   3.769   3.860   4.036 -0.3537  0.9952  1.0884
 1793SOL    MW4 6940   3.713   3.915   3.998 -0.8254 -0.3126 -0.1976
 1794SOL     OW 6941   4.250   4.018   5.678 -0.1590 -0.1592 -0.1600
 1794SOL    HW2 6942   4.339   4.006   5.644 -0.1696  1.1560 -0.6895
 1794SOL    HW3 6943   4.195   3.969   5.617  0.2241 -1.4201  0.4633
 1794SOL    MW4 6944   4.255   4.010   5.666 -0.1099 -0.1520 -0.1477
 1795SOL     OW 6945   3.514   3.609   4.465 -0.4512 -0.1692  0.1075
 1795SOL    HW2 6946   3.553   3.568   4.388  2.0642  0.6299  0.8640
 1795SOL    HW3 6947   3.426   3.635   4.437  0.1636 -0.4783 -2.2790
 1795SOL    MW4 6948   3.507   3.607   4.451 -0.0382 -0.1045 -0.1076
 1796SOL     OW 6949   1.289   5.548   0.833  0.4976 -0.3953 -0.1174
 1796SOL    HW2 6950   1.298   5.563   0.739 -0.9612  0.8431 -0.0972
 1796SOL    HW3 6951   1.340   5.469   0.850  1.5797 -0.0918 -1.7696
 1796SOL    MW4 6952   1.297   5.539   0.823  0.4479 -0.1919 -0.3327
 1797SOL     OW 6953   4.455   0.813   1.023 -0.2254  0.1410 -0.2489
 1797SOL    HW2 6954   4.481   0.863   0.945  0.0449  3.0513  1.5547
 1797SOL    HW3 6955   4.360   0.813   1.021 -0.2336 -1.1676 -1.3199
 1797SOL    MW4 6956   4.446   0.820   1.013 -0.1908  0.3523 -0.1522
 1798SOL     OW 6957   0.803   6.204   4.451  0.3737  0.2926  0.5486
 1798SOL    HW2 6958   0.842   6.225   4.366 -1.1326  0.7044 -0.0771
 1798SOL    HW3 6959   0.764   6.118   4.438  0.4890  0.1775  0.9584
 1798SOL    MW4 6960   0.803   6.195   4.438  0.1902  0.3317  0.5201
 1799SOL     OW 6961   0.570   1.365   1.617 -0.2296  0.1421  0.2725
 1799SOL    HW2 6962   0.590   1.440   1.672  1.7449 -1.1372  1.4459
 1799SOL    HW3 6963   0.515   1.308   1.671  0.8962 -0.6665  0.6037
 1799SOL    MW4 6964   0.566   1.367   1.631  0.1795 -0.1334  0.4710
 1800SOL     OW 6965   0.955   5.479   0.050 -0.0963  0.5162 -0.5148
 1800SOL    HW2 6966   0.941   5.573   0.065 -0.3744  0.5221 -0.8125
 1800SOL    HW3 6967   0.975   5.444   0.137  0.7227  0.9715 -0.5083
 1800SOL    MW4 6968   0.956   5.487   0.063 -0.0250  0.5771 -0.5532
 1801SOL     OW 6969   3.777   2.377   3.355 -0.1471 -0.0618 -0.1254
 1801SOL    HW2 6970   3.697   2.430   3.353 -0.4635 -0.4159  1.5981
 1801SOL    HW3 6971   3.823   2.406   3.433  0.5712 -1.0610 -0.1550
 1801SOL    MW4 6972   3.773   2.388   3.365 -0.0941 -0.2403  0.0981
 1802SOL     OW 6973   5.443   5.844   6.220 -0.1465  0.6185 -0.3659
 1802SOL    HW2 6974   5.398   5.919   6.259 -0.4129 -0.0526  0.6741
 1802SOL    HW3 6975   5.502   5.813   6.290 -0.6017 -0.5942 -0.4930
 1802SOL    MW4 6976   5.445   5.850   6.235 -0.2417  0.3700 -0.2454
 1803SOL     OW 6977  -0.026   1.861   1.415  0.0446  0.0328 -0.2682
 1803SOL    HW2 6978  -0.042   1.943   1.462 -1.4829 -1.9844  3.1199
 1803SOL    HW3 6979   0.063   1.835   1.441  0.9654  0.9776 -2.1933
 1803SOL    MW4 6980  -0.016   1.869   1.425 -0.0354 -0.1087 -0.0752
 1804SOL     OW 6981   0.147   2.358   1.514 -0.8653 -0.4505  0.1402
 1804SOL    HW2 6982   0.177   2.275   1.551  0.1062  0.5941  1.8114
 1804SOL    HW3 6983   0.066   2.377   1.560 -0.0018  0.5190  1.3356
 1804SOL    MW4 6984   0.140   2.350   1.525 -0.6232 -0.1848  0.5184
 1805SOL     OW 6985   3.063   5.539   1.858 -0.1521  0.3933  0.4928
 1805SOL    HW2 6986   3.046   5.632   1.868 -3.2056 -0.0895  0.6914
 1805SOL    HW3 6987   3.088   5.529   1.766 -0.0768  1.3633  0.3990
 1805SOL    MW4 6988   3.064   5.550   1.847 -0.5450  0.4576  0.5066
 1806SOL     OW 6989   6.012   1.511   6.119 -0.1578  0.0681 -0.0776
 1806SOL    HW2 6990   6.064   1.480   6.044  0.0938 -0.9904  0.5144
 1806SOL    HW3 6991   5.937   1.452   6.123 -1.4898  1.6091 -0.9431
 1806SOL    MW4 6992   6.009   1.500   6.109 -0.3003  0.1318 -0.1137
 1807SOL     OW 6993   1.348   5.656   2.494  0.1601 -0.1126 -0.7030
 1807SOL    HW2 6994   1.426   5.653   2.439  0.1966  5.5279 -1.6093
 1807SOL    HW3 6995   1.379   5.691   2.578 -1.0806  0.1626 -0.3289
 1807SOL    MW4 6996   1.362   5.660   2.498  0.0012  0.6679 -0.7732
 1808SOL     OW 6997   5.780   5.103   1.242 -0.3406 -0.3304 -0.0040
 1808SOL    HW2 6998   5.713   5.132   1.181 -0.8048  0.1251  0.7140
 1808SOL    HW3 6999   5.837   5.179   1.254 -0.2993 -0.3919  0.2015
 1808SOL    MW4 7000   5.779   5.117   1.236 -0.3964 -0.2784  0.1178
 1809SOL     OW 7001   2.924   3.964   6.342  0.9374  0.7671 -0.0327
 1809SOL    HW2 7002   2.910   3.981   6.435  1.1154  1.5556 -0.1401
 1809SOL    HW3 7003   3.019   3.953   6.334  0.8385 -0.1508  0.0080
 1809SOL    MW4 7004   2.935   3.965   6.353  0.9478  0.7500 -0.0415
 1810SOL     OW 7005   3.365   1.801   4.856 -0.2480 -0.3976 -0.5508
 1810SOL    HW2 7006   3.292   1.830   4.802 -0.0651 -0.1753 -0.6859
 1810SOL    HW3 7007   3.407   1.732   4.804 -1.2682 -1.6357  0.2038
 1810SOL    MW4 7008   3.361   1.796   4.842 -0.3585 -0.5316 -0.4691
 1811SOL     OW 7009   1.461   6.072   3.783  0.0489 -0.1398  0.4516
 1811SOL    HW2 7010   1.398   6.143   3.785  0.2375  0.0248  2.4231
 1811SOL    HW3 7011   1.432   6.015   3.711  0.0083  1.9618 -1.2992
 1811SOL    MW4 7012   1.449   6.074   3.774  0.0684  0.1592  0.4807
 1812SOL     OW 7013   2.669   0.317   4.986  0.2755  0.1485 -0.0739
 1812SOL    HW2 7014   2.582   0.347   4.958  1.2402  2.4286 -0.8464
 1812SOL    HW3 7015   2.730   0.376   4.942  2.1240  0.3816  2.5784
 1812SOL    MW4 7016   2.665   0.329   4.977  0.6467  0.4801  0.1741
 1813SOL     OW 7017   0.132   0.666   2.058  0.0192 -0.1020  0.5708
 1813SOL    HW2 7018   0.208   0.635   2.105  0.6430  1.4483  0.6587
 1813SOL    HW3 7019   0.087   0.724   2.120  0.2608  1.1095 -0.3450
 1813SOL    MW4 7020   0.136   0.670   2.072  0.1334  0.2624  0.4616
 1814SOL     OW 7021   2.454   2.658   4.512  0.0338 -0.4511  0.1385
 1814SOL    HW2 7022   2.437   2.720   4.582 -0.7872 -1.9653  1.3259
 1814SOL    HW3 7023   2.533   2.691   4.470 -0.6199  1.6305  0.4232
 1814SOL    MW4 7024   2.462   2.671   4.515 -0.1608 -0.3762  0.3327
 1815SOL     OW 7025   3.463   5.534   3.155 -0.0101  0.3961 -0.1552
 1815SOL    HW2 7026   3.531   5.592   3.190  0.4774  0.8382 -1.7693
 1815SOL    HW3 7027   3.497   5.445   3.171  0.9833  0.6172 -1.0079
 1815SOL    MW4 7028   3.476   5.530   3.162  0.1853  0.4836 -0.4806
 1816SOL     OW 7029   0.849   1.222   1.582  0.2343 -0.1318 -0.0240
 1816SOL    HW2 7030   0.858   1.194   1.673 -0.3917 -0.1981  0.0204
 1816SOL    HW3 7031   0.779   1.288   1.584  1.2888  1.0285 -0.2160
 1816SOL    MW4 7032   0.841   1.227   1.594  0.2909  0.0126 -0.0434
 1817SOL     OW 7033   4.230   6.048   3.298 -0.2256 -0.5051 -0.2331
 1817SOL    HW2 7034   4.206   5.959   3.276 -1.4965 -0.6566  1.4884
 1817SOL    HW3 7035   4.146   6.095   3.304  0.2671  0.2921  0.8086
 1817SOL    MW4 7036   4.216   6.043   3.296 -0.3283 -0.4199  0.1314
 1818SOL     OW 7037   2.576   5.150   0.495 -0.5612  0.1675 -0.4397
 1818SOL    HW2 7038   2.554   5.099   0.418  0.0186 -0.0663 -0.4558
 1818SOL    HW3 7039   2.664   5.120   0.520 -0.8926 -0.0347  0.5392
 1818SOL    MW4 7040   2.585   5.140   0.488 -0.5285  0.1100 -0.3127
 1819SOL     OW 7041   4.674   0.314   5.854  0.4186 -0.0202 -0.8584
 1819SOL    HW2 7042   4.585   0.286   5.838 -0.5196  2.4811 -0.5186
 1819SOL    HW3 7043   4.698   0.365   5.777  0.8862  0.7392 -0.2356
 1819SOL    MW4 7044   4.666   0.317   5.842  0.3565  0.4100 -0.7314
 1820SOL     OW 7045   4.028   1.934   4.346  0.3536 -0.4019 -0.1822
 1820SOL    HW2 7046   4.113   1.953   4.307 -0.3505 -0.4942 -1.8143
 1820SOL    HW3 7047   3.981   2.017   4.343 -0.2066 -0.7371 -0.8178
 1820SOL    MW4 7048   4.033   1.948   4.341  0.1868 -0.4583 -0.4814
 1821SOL     OW 7049   5.456   4.325   0.525 -0.2809  0.1177  0.2354
 1821SOL    HW2 7050   5.527   4.330   0.589 -0.0504 -0.7700  0.0596
 1821SOL    HW3 7051   5.397   4.396   0.550  0.4596  0.6164  0.6274
 1821SOL    MW4 7052   5.458   4.335   0.536 -0.1528  0.0664  0.2639
 1822SOL     OW 7053   5.684   4.221   5.048  1.1657  0.1004  0.0695
 1822SOL    HW2 7054   5.603   4.205   4.999 -0.1592  2.6728  1.2208
 1822SOL    HW3 7055   5.699   4.140   5.096  0.5573 -1.2235 -1.8354
 1822SOL    MW4 7056   5.675   4.208   5.048  0.9106  0.2651 -0.0299
 1823SOL     OW 7057   6.163   5.243   6.194 -0.5418 -1.1021 -0.0970
 1823SOL    HW2 7058   6.256   5.257   6.177 -0.4965 -1.0859  0.1577
 1823SOL    HW3 7059   6.142   5.302   6.267 -0.2536 -2.6197  1.2534
 1823SOL    MW4 7060   6.172   5.253   6.202 -0.4978 -1.3002  0.1148
 1824SOL     OW 7061   2.631   4.073   5.533 -0.0875  0.6396 -0.2700
 1824SOL    HW2 7062   2.715   4.034   5.508 -0.5833  0.4148 -1.6641
 1824SOL    HW3 7063   2.644   4.102   5.623  1.0578 -0.5911 -0.0126
 1824SOL    MW4 7064   2.644   4.071   5.541 -0.0018  0.4476 -0.4200
 1825SOL     OW 7065   4.290   5.247   0.541  0.3448 -0.7189 -0.2085
 1825SOL    HW2 7066   4.335   5.322   0.580 -0.0435 -0.2956 -0.5697
 1825SOL    HW3 7067   4.291   5.264   0.447  3.2915 -2.8055 -0.7203
 1825SOL    MW4 7068   4.296   5.259   0.534  0.6823 -0.9384 -0.3237
 1826SOL     OW 7069   3.862   1.731   5.422  1.0229  0.2403 -0.0704
 1826SOL    HW2 7070   3.810   1.752   5.345  1.7373  0.6083 -0.4609
 1826SOL    HW3 7071   3.950   1.715   5.388  1.2217 -0.1409  0.6054
 1826SOL    MW4 7072   3.867   1.731   5.408  1.1434  0.2385 -0.0327
 1827SOL     OW 7073   6.041   0.210   5.521 -0.1070 -0.1761 -0.1970
 1827SOL    HW2 7074   5.963   0.263   5.507 -0.2742 -0.5127 -0.5769
 1827SOL    HW3 7075   6.113   0.273   5.526 -0.0685  0.0187 -2.3301
 1827SOL    MW4 7076   6.040   0.225   5.520 -0.1240 -0.1948 -0.5286
 1828SOL     OW 7077   5.081   3.537   3.658  0.1755 -0.2118 -0.4180
 1828SOL    HW2 7078   5.138   3.500   3.726  0.7864 -0.5100 -1.0694
 1828SOL    HW3 7079   4.992   3.521   3.690  0.4502 -0.4176  0.2714
 1828SOL    MW4 7080   5.077   3.530   3.671  0.2924 -0.2783 -0.4130
 1829SOL     OW 7081   0.367   2.976   0.512  0.1592 -0.5893 -0.1374
 1829SOL    HW2 7082   0.425   2.913   0.468 -1.1500 -1.6926 -0.3496
 1829SOL    HW3 7083   0.322   3.020   0.440 -1.8938 -2.3046  0.0107
 1829SOL    MW4 7084   0.369   2.974   0.496 -0.2844 -0.9612 -0.1459
 1830SOL     OW 7085   1.663   3.015   2.022  0.3870 -0.2313  0.3645
 1830SOL    HW2 7086   1.741   2.968   1.992 -0.9273 -1.5071 -1.2203
 1830SOL    HW3 7087   1.616   2.951   2.076 -1.0985 -0.5748 -1.2737
 1830SOL    MW4 7088   1.668   3.000   2.025  0.0176 -0.4449 -0.0607
 1831SOL     OW 7089   0.146   4.707   0.502  0.2229 -0.0302  0.2261
 1831SOL    HW2 7090   0.184   4.792   0.522 -2.9995  0.9826  3.0768
 1831SOL    HW3 7091   0.053   4.724   0.488 -0.6056 -3.0391  1.1334
 1831SOL    MW4 7092   0.139   4.720   0.503 -0.3116 -0.2936  0.7219
 1832SOL     OW 7093   5.014   4.508   2.959  0.4329  0.8822  0.1312
 1832SOL    HW2 7094   4.967   4.471   3.033 -0.2233  1.8045  0.1942
 1832SOL    HW3 7095   4.978   4.596   2.948  0.5506  0.7938 -1.2444
 1832SOL    MW4 7096   5.003   4.515   2.967  0.3619  0.9922 -0.0420
 1833SOL     OW 7097   3.912   0.454   0.224 -0.0485 -0.3246 -0.0844
 1833SOL    HW2 7098   3.972   0.496   0.286  0.4416 -0.0840 -0.7043
 1833SOL    HW3 7099   3.920   0.361   0.243  0.3860 -0.2808 -0.0312
 1833SOL    MW4 7100   3.921   0.448   0.235  0.0735 -0.2870 -0.1592
 1834SOL     OW 7101   4.660   2.278   1.235  0.4248 -0.2926 -0.0819
 1834SOL    HW2 7102   4.695   2.189   1.244  0.2791 -0.3568 -0.1487
 1834SOL    HW3 7103   4.738   2.333   1.225  0.5660 -0.2786  1.0310
 1834SOL    MW4 7104   4.675   2.273   1.235  0.4242 -0.2992  0.0561
 1835SOL     OW 7105   1.824   3.348   2.706 -0.4463 -0.6336 -0.2622
 1835SOL    HW2 7106   1.730   3.361   2.720  0.0524  1.8901  1.3803
 1835SOL    HW3 7107   1.846   3.272   2.762 -1.4500 -1.1458 -0.5347
 1835SOL    MW4 7108   1.814   3.339   2.716 -0.5130 -0.3682 -0.0815
 1836SOL     OW 7109   0.875   6.338   2.978 -0.1664 -0.0709 -0.3410
 1836SOL    HW2 7110   0.946   6.342   2.914 -1.2141 -1.1410 -1.6423
 1836SOL    HW3 7111   0.837   6.425   2.977 -1.1906 -0.4623 -2.4769
 1836SOL    MW4 7112   0.880   6.350   2.969 -0.4397 -0.2637 -0.7945
 1837SOL     OW 7113   4.447   1.269   0.505 -0.1577  0.3012  0.2241
 1837SOL    HW2 7114   4.481   1.289   0.418 -2.2553  1.3067 -0.4392
 1837SOL    HW3 7115   4.512   1.304   0.566  1.7314 -1.1257 -0.8932
 1837SOL    MW4 7116   4.460   1.276   0.502 -0.1852  0.2456 -0.0108
 1838SOL     OW 7117   6.147   4.877   5.914 -0.2879  0.1322 -0.7821
 1838SOL    HW2 7118   6.232   4.898   5.876  0.2275 -1.2253 -0.4205
 1838SOL    HW3 7119   6.117   4.801   5.866 -0.5170 -0.4320  0.2209
 1838SOL    MW4 7120   6.154   4.870   5.903 -0.2501 -0.1214 -0.6021
 1839SOL     OW 7121   2.759   1.310   6.231  0.2497  0.0849  0.1441
 1839SOL    HW2 7122   2.671   1.278   6.249  0.3404  0.1362  0.7015
 1839SOL    HW3 7123   2.756   1.403   6.254  0.0269  0.4639 -1.3300
 1839SOL    MW4 7124   2.747   1.318   6.236  0.2323  0.1416  0.0231
 1840SOL     OW 7125   3.938   1.241   3.720 -0.1428 -0.2846 -0.2090
 1840SOL    HW2 7126   3.863   1.300   3.731 -0.5443 -0.9235  0.5543
 1840SOL    HW3 7127   3.986   1.277   3.645 -0.3096  1.0686  0.3192
 1840SOL    MW4 7128   3.934   1.253   3.711 -0.2178 -0.1904 -0.0386
 1841SOL     OW 7129   2.765   1.616   4.188  0.7977  0.6723  0.8256
 1841SOL    HW2 7130   2.798   1.528   4.170 -0.5586  0.3114 -0.0504
 1841SOL    HW3 7131   2.671   1.604   4.202  0.1070  2.2275 -1.7533
 1841SOL    MW4 7132   2.757   1.603   4.187  0.5276  0.8299  0.3698
 1842SOL     OW 7133   2.041   6.137   2.297  0.0839 -0.0957  0.1351
 1842SOL    HW2 7134   1.961   6.147   2.349  0.5533  0.5920  0.7523
 1842SOL    HW3 7135   2.111   6.138   2.362  0.6330 -0.0765 -0.4500
 1842SOL    MW4 7136   2.040   6.138   2.313  0.2183 -0.0024  0.1393
 1843SOL     OW 7137   1.204   3.987   0.654 -0.6032 -0.0855  0.2961
 1843SOL    HW2 7138   1.147   4.048   0.702  2.1779  1.9294  1.3494
 1843SOL    HW3 7139   1.182   4.001   0.562 -0.4368  2.1884  0.5425
 1843SOL    MW4 7140   1.193   3.997   0.648 -0.2143  0.4803  0.4676
 1844SOL     OW 7141   0.143   3.826   1.466  0.0682  0.1093  0.2639
 1844SOL    HW2 7142   0.064   3.867   1.500 -0.1563  1.0630 -1.3241
 1844SOL    HW3 7143   0.176   3.887   1.400  1.4224 -0.8663 -0.0169
 1844SOL    MW4 7144   0.137   3.839   1.462  0.2172  0.1064  0.0174
 1845SOL     OW 7145   5.560   4.738   0.770 -0.0722 -0.3486 -0.5529
 1845SOL    HW2 7146   5.539   4.672   0.837  1.1784 -1.2287 -0.9721
 1845SOL    HW3 7147   5.622   4.693   0.712 -2.5372 -0.2585 -3.4417
 1845SOL    MW4 7148   5.566   4.723   0.771 -0.2324 -0.4529 -0.9893
 1846SOL     OW 7149   0.569   5.225   2.648 -0.0952 -0.1911  0.3187
 1846SOL    HW2 7150   0.602   5.143   2.611 -0.6782 -0.2744 -0.0317
 1846SOL    HW3 7151   0.593   5.292   2.583 -0.3116 -0.2015  0.2278
 1846SOL    MW4 7152   0.577   5.223   2.634 -0.2007 -0.2034  0.2605
 1847SOL     OW 7153   5.436   5.094   3.097 -0.0570  0.0101 -0.0643
 1847SOL    HW2 7154   5.469   5.104   3.187 -1.1843 -0.7535  0.4623
 1847SOL    HW3 7155   5.477   5.165   3.049  0.9757  0.1347  0.9396
 1847SOL    MW4 7156   5.446   5.105   3.103 -0.0694 -0.0742  0.1376
 1848SOL     OW 7157   2.110   5.522   3.308  0.2405 -0.2066  0.6500
 1848SOL    HW2 7158   2.067   5.445   3.269  0.9610  0.0582 -0.7402
 1848SOL    HW3 7159   2.058   5.542   3.385 -0.3601 -1.6920  0.6643
 1848SOL    MW4 7160   2.098   5.514   3.313  0.2563 -0.3677  0.4685
 1849SOL     OW 7161   5.477   6.214   5.229  0.0625  0.0540  0.3314
 1849SOL    HW2 7162   5.391   6.173   5.225 -0.7582  1.6960 -0.1058
 1849SOL    HW3 7163   5.465   6.298   5.184  2.3702 -0.4595 -1.4118
 1849SOL    MW4 7164   5.464   6.220   5.222  0.2587  0.2029  0.0438
 1850SOL     OW 7165   5.465   5.506   3.995 -0.0522  0.3423 -0.2570
 1850SOL    HW2 7166   5.398   5.438   4.000  1.0572 -0.7168  0.7536
 1850SOL    HW3 7167   5.421   5.586   4.023 -0.5126 -0.6516  2.0548
 1850SOL    MW4 7168   5.450   5.508   3.999  0.0334  0.0714  0.1813
 1851SOL     OW 7169   5.740   5.107   3.549 -0.3890  0.0595  0.1295
 1851SOL    HW2 7170   5.800   5.151   3.608 -2.3585 -0.2996  2.5405
 1851SOL    HW3 7171   5.796   5.051   3.495  1.7193  2.2989 -0.1512
 1851SOL    MW4 7172   5.755   5.105   3.549 -0.3707  0.3076  0.4105
 1852SOL     OW 7173   0.478   2.542   4.770 -0.1207  0.4099 -0.4816
 1852SOL    HW2 7174   0.445   2.497   4.848 -0.3641  0.2661 -0.6610
 1852SOL    HW3 7175   0.558   2.495   4.748 -0.6281 -0.2677 -0.9495
 1852SOL    MW4 7176   0.484   2.530   4.777 -0.2198  0.3015 -0.5670
 1853SOL     OW 7177   0.886   5.239   5.457  0.1029 -0.2059  0.3555
 1853SOL    HW2 7178   0.963   5.295   5.457  1.2913 -1.7561 -0.5608
 1853SOL    HW3 7179   0.832   5.272   5.385  2.6727 -2.4890 -2.9632
 1853SOL    MW4 7180   0.889   5.250   5.447  0.5987 -0.7117 -0.2033
 1854SOL     OW 7181   3.569   5.460   1.023  0.4323 -0.0571  0.4771
 1854SOL    HW2 7182   3.484   5.501   1.042  0.1972 -0.5448  0.5108
 1854SOL    HW3 7183   3.621   5.474   1.101  0.2084 -0.1854  0.6521
 1854SOL    MW4 7184   3.564   5.467   1.036  0.3718 -0.1384  0.5046
 1855SOL     OW 7185   3.799   1.731   2.969  0.0512  0.3639 -0.6415
 1855SOL    HW2 7186   3.735   1.786   2.923  0.0784  0.8404 -0.1170
 1855SOL    HW3 7187   3.833   1.787   3.039 -1.1055 -0.8162  0.9499
 1855SOL    MW4 7188   3.795   1.746   2.972 -0.0978  0.2711 -0.3623
 1856SOL     OW 7189   0.019   4.594   0.854  0.1448  0.1373 -0.0382
 1856SOL    HW2 7190   0.013   4.507   0.892  0.0599  0.2266  0.1571
 1856SOL    HW3 7191   0.082   4.640   0.910 -0.1764  0.3498  0.1502
 1856SOL    MW4 7192   0.026   4.589   0.866  0.0912  0.1771  0.0124
 1857SOL     OW 7193   5.826   5.121   6.292  0.1402  0.2677  0.2241
 1857SOL    HW2 7194   5.858   5.135   6.381  1.9140 -1.4278 -0.0800
 1857SOL    HW3 7195   5.894   5.069   6.250 -0.1028  1.9913 -2.5245
 1857SOL    MW4 7196   5.839   5.116   6.298  0.3422  0.2714 -0.1787
 1858SOL     OW 7197   2.739   4.069   1.359  0.7173  0.2836 -0.2461
 1858SOL    HW2 7198   2.734   3.977   1.332 -2.4333  0.1713  0.3581
 1858SOL    HW3 7199   2.768   4.066   1.450 -0.3678 -0.2256  0.0971
 1858SOL    MW4 7200   2.742   4.056   1.367  0.1585  0.2016 -0.1211
 1859SOL     OW 7201   5.440   0.441   4.140  0.9517  0.5088  0.1608
 1859SOL    HW2 7202   5.437   0.526   4.096  0.9664  0.5271  0.1948
 1859SOL    HW3 7203   5.361   0.395   4.110  1.5107  0.1043 -0.7173
 1859SOL    MW4 7204   5.429   0.446   4.130  1.0274  0.4579  0.0494
 1860SOL     OW 7205   3.878   3.398   4.696 -1.1512 -0.4976  0.0752
 1860SOL    HW2 7206   3.818   3.342   4.746 -1.4425  1.2331  1.7657
 1860SOL    HW3 7207   3.921   3.452   4.762 -0.3981  0.8317 -1.4369
 1860SOL    MW4 7208   3.876   3.397   4.712 -1.0903 -0.0938  0.0987
 1861SOL     OW 7209   4.475   2.786   0.030 -0.4306 -0.2912 -0.1294
 1861SOL    HW2 7210   4.510   2.731   0.100  0.7670  0.2317 -0.2928
 1861SOL    HW3 7211   4.425   2.853   0.074  0.4310  0.1160  0.2514
 1861SOL    MW4 7212   4.473   2.787   0.045 -0.1589 -0.1685 -0.1007
 1862SOL     OW 7213   1.364   4.945   2.754  0.2138  0.2091  0.5005
 1862SOL    HW2 7214   1.352   4.988   2.670  2.9902 -0.6939 -0.5054
 1862SOL    HW3 7215   1.287   4.889   2.764 -0.1010  0.1995 -1.5443
 1862SOL    MW4 7216   1.353   4.943   2.744  0.5386  0.0887  0.0980
 1863SOL     OW 7217   5.146   0.151   6.375  0.0179 -0.5984  0.4743
 1863SOL    HW2 7218   5.231   0.194   6.381 -0.0931 -0.5976  3.3408
 1863SOL    HW3 7219   5.138   0.102   6.456 -3.6905  1.3289  1.5239
 1863SOL    MW4 7220   5.156   0.150   6.387 -0.4860 -0.3440  0.9910
 1864SOL     OW 7221   4.806   5.007   0.862 -0.0331  0.2754 -1.3617
 1864SOL    HW2 7222   4.724   4.958   0.862 -0.1561  0.4689 -0.4558
 1864SOL    HW3 7223   4.780   5.098   0.844 -0.0807  0.4174 -0.6184
 1864SOL    MW4 7224   4.792   5.013   0.860 -0.0556  0.3196 -1.1441
 1865SOL     OW 7225   4.115   5.847   1.797  0.1304  0.2080  0.6767
 1865SOL    HW2 7226   4.068   5.851   1.713  1.2207  0.0771  0.0415
 1865SOL    HW3 7227   4.153   5.935   1.807  1.4154 -0.2688  0.1769
 1865SOL    MW4 7228   4.114   5.859   1.787  0.4438  0.1279  0.5269
 1866SOL     OW 7229   1.394   1.168   0.052 -0.0996  0.4303  0.0110
 1866SOL    HW2 7230   1.399   1.094   0.112  1.4663  1.1535  0.8250
 1866SOL    HW3 7231   1.456   1.148  -0.018  1.2122  1.4574  0.8372
 1866SOL    MW4 7232   1.403   1.156   0.051  0.2801  0.6612  0.2274
 1867SOL     OW 7233   0.029   1.271   4.578 -0.8789  0.2166 -0.2149
 1867SOL    HW2 7234  -0.010   1.184   4.581 -2.6346  0.9169 -1.1025
 1867SOL    HW3 7235   0.007   1.310   4.663  0.2680 -0.3164  0.3491
 1867SOL    MW4 7236   0.021   1.265   4.589 -0.9592  0.2387 -0.2576
 1868SOL     OW 7237   1.522   4.733   5.107  0.0031  0.4533  0.6532
 1868SOL    HW2 7238   1.527   4.807   5.168  2.3416  0.4370  0.5836
 1868SOL    HW3 7239   1.494   4.772   5.024  0.0403  1.0519  0.9188
 1868SOL    MW4 7240   1.519   4.748   5.104  0.3165  0.5301  0.6791
 1869SOL     OW 7241   3.365   4.744   1.038 -0.2493  0.2407  0.4750
 1869SOL    HW2 7242   3.412   4.661   1.033 -0.4393  0.1436  0.2860
 1869SOL    HW3 7243   3.273   4.720   1.030 -0.3293  0.4365  0.7772
 1869SOL    MW4 7244   3.359   4.730   1.037 -0.2850  0.2537  0.4899
 1870SOL     OW 7245   4.243   5.127   2.272  0.4872 -0.4572  0.0479
 1870SOL    HW2 7246   4.159   5.167   2.296  0.4994 -0.9438  0.9542
 1870SOL    HW3 7247   4.289   5.195   2.223 -0.5788 -0.3063 -0.7821
 1870SOL    MW4 7248   4.238   5.141   2.269  0.3482 -0.5015  0.0579
 1871SOL     OW 7249   0.810   3.302   6.191 -0.4202  0.4062  0.4006
 1871SOL    HW2 7250   0.715   3.307   6.184 -0.4317 -1.1990 -1.4964
 1871SOL    HW3 7251   0.838   3.392   6.210 -2.2884  0.8880  1.0309
 1871SOL    MW4 7252   0.802   3.315   6.192 -0.6682  0.2580  0.2335
 1872SOL     OW 7253   6.271   5.835   4.009  0.0232 -0.7756 -0.0449
 1872SOL    HW2 7254   6.229   5.837   4.095 -1.3815 -0.0682 -0.7132
 1872SOL    HW3 7255   6.212   5.782   3.955 -0.3570  0.7348 -1.1633
 1872SOL    MW4 7256   6.258   5.828   4.013 -0.2123 -0.4829 -0.2806
 1873SOL     OW 7257   4.234   6.096   1.817 -0.2064 -0.4579 -0.2979
 1873SOL    HW2 7258   4.214   6.136   1.902  0.8687 -1.9085  0.6890
 1873SOL    HW3 7259   4.302   6.151   1.780 -0.9901  0.4376 -0.4515
 1873SOL    MW4 7260   4.240   6.108   1.824 -0.1679 -0.5311 -0.1879
 1874SOL     OW 7261   4.106   4.481   3.391 -0.5962 -0.1635 -0.4231
 1874SOL    HW2 7262   4.079   4.446   3.476  1.0224 -0.5303 -0.0136
 1874SOL    HW3 7263   4.087   4.575   3.396  0.2071 -0.0377  0.6721
 1874SOL    MW4 7264   4.100   4.489   3.403 -0.2766 -0.1953 -0.2246
 1875SOL     OW 7265   2.043   4.676   3.769 -0.1050 -0.6244  0.2372
 1875SOL    HW2 7266   2.021   4.587   3.798 -0.3486 -0.6174  0.0769
 1875SOL    HW3 7267   2.076   4.719   3.847  1.2194 -1.2424  0.0411
 1875SOL    MW4 7268   2.044   4.670   3.783  0.0376 -0.7050  0.1902
 1876SOL     OW 7269   0.208   2.147   1.924 -0.1374 -0.4937 -0.2366
 1876SOL    HW2 7270   0.200   2.187   2.011 -0.3711  1.1275 -0.9809
 1876SOL    HW3 7271   0.238   2.217   1.867  1.7273 -1.9640 -1.1676
 1876SOL    MW4 7272   0.211   2.162   1.928  0.0778 -0.4738 -0.4577
 1877SOL     OW 7273   1.273   1.721   3.153  0.2093 -0.3241  0.0282
 1877SOL    HW2 7274   1.225   1.673   3.221 -0.6442  0.9421  0.3585
 1877SOL    HW3 7275   1.265   1.666   3.075 -1.6078 -0.2777  0.1299
 1877SOL    MW4 7276   1.265   1.707   3.152 -0.1430 -0.1509  0.0852
 1878SOL     OW 7277   0.397   1.910   3.010 -0.2374 -0.3993 -0.6153
 1878SOL    HW2 7278   0.420   2.003   3.013 -0.3330 -0.3906 -0.0377
 1878SOL    HW3 7279   0.441   1.877   2.931  2.1218 -0.4670  0.6410
 1878SOL    MW4 7280   0.406   1.918   3.000  0.0612 -0.4071 -0.3734
 1879SOL     OW 7281   2.026   6.097   1.223  0.4580  1.0471  0.9234
 1879SOL    HW2 7282   1.934   6.116   1.242  0.3618  1.0613  0.4495
 1879SOL    HW3 7283   2.025   6.054   1.137  0.9232  1.3329  0.7702
 1879SOL    MW4 7284   2.014   6.093   1.214  0.5067  1.0867  0.8407
 1880SOL     OW 7285   3.565   4.944   3.821 -0.1665  0.3167 -0.9377
 1880SOL    HW2 7286   3.644   4.890   3.822 -0.1018  0.4044  0.1112
 1880SOL    HW3 7287   3.596   5.032   3.802 -0.2564  0.0250 -2.5239
 1880SOL    MW4 7288   3.579   4.948   3.819 -0.1698  0.2898 -1.0086
 1881SOL     OW 7289   2.272   1.450   6.181 -1.3639  0.5019  0.2516
 1881SOL    HW2 7290   2.350   1.410   6.220 -2.0992  1.1723  2.5540
 1881SOL    HW3 7291   2.219   1.376   6.153 -0.3320  0.0187 -0.4976
 1881SOL    MW4 7292   2.275   1.435   6.183 -1.3248  0.5266  0.4565
 1882SOL     OW 7293   5.276   2.127   0.266  0.7094 -0.0745  0.7438
 1882SOL    HW2 7294   5.291   2.058   0.203 -0.2596 -0.9191  1.4001
 1882SOL    HW3 7295   5.240   2.200   0.215 -0.8694 -1.0402  0.4075
 1882SOL    MW4 7296   5.273   2.128   0.251  0.3733 -0.3134  0.7860
 1883SOL     OW 7297   5.053   3.215   2.333 -0.0639 -0.7289  0.0446
 1883SOL    HW2 7298   5.004   3.287   2.293  1.2621  0.5891  0.7008
 1883SOL    HW3 7299   5.143   3.247   2.336  0.3704 -2.0199  1.3002
 1883SOL    MW4 7300   5.059   3.229   2.328  0.1684 -0.7253  0.2969
 1884SOL     OW 7301   3.475   6.299   4.651 -0.0273  0.0719  0.3033
 1884SOL    HW2 7302   3.507   6.370   4.595 -1.8988  0.0806 -0.8441
 1884SOL    HW3 7303   3.425   6.343   4.719  2.8780  0.1252  2.6181
 1884SOL    MW4 7304   3.473   6.314   4.653  0.1091  0.0800  0.4573
 1885SOL     OW 7305   5.016   0.738   6.099 -0.0599 -0.2775 -0.0975
 1885SOL    HW2 7306   4.959   0.710   6.027 -0.5882 -0.8139  0.5206
 1885SOL    HW3 7307   4.958   0.745   6.175  0.4155  0.7047  0.1854
 1885SOL    MW4 7308   5.001   0.735   6.099 -0.0669 -0.2187  0.0214
 1886SOL     OW 7309   1.352   2.998   1.995 -0.1886  1.0537 -0.2172
 1886SOL    HW2 7310   1.300   3.069   1.959  1.5277  1.3992 -2.2475
 1886SOL    HW3 7311   1.307   2.918   1.967 -0.5669  1.3438 -0.4352
 1886SOL    MW4 7312   1.339   2.997   1.987 -0.0121  1.1375 -0.5138
 1887SOL     OW 7313   5.823   4.097   0.022  0.6970 -0.2511  0.0125
 1887SOL    HW2 7314   5.793   4.087   0.112  0.1909  2.2303  0.1714
 1887SOL    HW3 7315   5.743   4.101  -0.030  0.9652 -0.7932 -0.4517
 1887SOL    MW4 7316   5.809   4.096   0.027  0.6656  0.0047 -0.0278
 1888SOL     OW 7317   5.439   6.237   0.884  0.2575  0.4243 -0.4814
 1888SOL    HW2 7318   5.390   6.156   0.868  0.1906  0.3162  0.2553
 1888SOL    HW3 7319   5.414   6.295   0.811  0.1138 -0.1228 -0.8724
 1888SOL    MW4 7320   5.429   6.234   0.872  0.2297  0.3379 -0.4358
 1889SOL     OW 7321   5.539   3.540   2.102  0.1100 -0.3670  0.3001
 1889SOL    HW2 7322   5.581   3.529   2.187 -2.5309  1.4214  1.9842
 1889SOL    HW3 7323   5.446   3.546   2.122 -0.6251  0.1231 -2.7492
 1889SOL    MW4 7324   5.532   3.539   2.116 -0.3354 -0.0664  0.1199
 1890SOL     OW 7325   2.018   3.369   5.150  0.0258 -0.0247 -0.0440
 1890SOL    HW2 7326   2.044   3.385   5.241  1.6071  2.8579 -0.8532
 1890SOL    HW3 7327   2.101   3.360   5.103 -0.7166 -0.1801 -1.3786
 1890SOL    MW4 7328   2.033   3.370   5.155  0.1365  0.3351 -0.3269
 1891SOL     OW 7329   5.002   1.743   5.177 -0.0339 -0.0027 -0.6862
 1891SOL    HW2 7330   5.045   1.705   5.253  1.0863 -0.9197 -1.7312
 1891SOL    HW3 7331   4.909   1.720   5.189 -0.1164  1.0894  1.0667
 1891SOL    MW4 7332   4.995   1.735   5.189  0.1030  0.0204 -0.5928
 1892SOL     OW 7333   1.266   5.972   0.590 -0.6797  0.0095 -0.4089
 1892SOL    HW2 7334   1.231   5.933   0.510 -2.3305 -0.1031  0.3309
 1892SOL    HW3 7335   1.269   6.066   0.573  0.9569 -0.1650 -1.3079
 1892SOL    MW4 7336   1.262   5.979   0.577 -0.6816 -0.0284 -0.4299
 1893SOL     OW 7337   3.488   4.600   3.754 -0.6788  0.2259  0.1812
 1893SOL    HW2 7338   3.432   4.650   3.695 -1.3401 -0.9442 -0.2154
 1893SOL    HW3 7339   3.507   4.519   3.707  1.0939  0.4434  0.4490
 1893SOL    MW4 7340   3.483   4.596   3.740 -0.5322  0.1002  0.1642
 1894SOL     OW 7341   4.322   1.662   0.772  0.3043  0.0537 -0.0005
 1894SOL    HW2 7342   4.383   1.708   0.714  0.7991 -0.3096  0.2212
 1894SOL    HW3 7343   4.377   1.596   0.816 -0.2002 -0.1044  0.3915
 1894SOL    MW4 7344   4.338   1.659   0.770  0.3030 -0.0151  0.0805
 1895SOL     OW 7345   3.338   2.241   4.683 -0.1974  0.3019  0.1846
 1895SOL    HW2 7346   3.245   2.232   4.704  0.0816 -1.1613  0.9202
 1895SOL    HW3 7347   3.382   2.183   4.745  1.1854  0.7086 -0.3837
 1895SOL    MW4 7348   3.331   2.232   4.694  0.0219  0.1625  0.2067
 1896SOL     OW 7349   2.394   5.796   6.401 -0.3549 -0.0214 -0.2077
 1896SOL    HW2 7350   2.478   5.840   6.392 -0.5910  0.1050 -2.1341
 1896SOL    HW3 7351   2.329   5.865   6.387 -0.7761 -0.3039  0.3163
 1896SOL    MW4 7352   2.396   5.811   6.398 -0.4416 -0.0420 -0.3927
 1897SOL     OW 7353   5.041   2.515   4.455 -0.2893  0.4067 -0.7284
 1897SOL    HW2 7354   4.987   2.473   4.522  0.9064 -1.3050 -0.7917
 1897SOL    HW3 7355   5.119   2.460   4.448  1.0184  2.2146 -1.3839
 1897SOL    MW4 7356   5.044   2.502   4.463  0.0410  0.4194 -0.8232
 1898SOL     OW 7357   0.967   3.947   1.291 -0.5809 -0.1733 -0.0811
 1898SOL    HW2 7358   1.053   3.987   1.304 -0.9185  1.3341 -2.0293
 1898SOL    HW3 7359   0.971   3.865   1.340  0.9617  1.1405  2.1735
 1898SOL    MW4 7360   0.979   3.941   1.299 -0.4219  0.1989 -0.0407
 1899SOL     OW 7361   3.595   4.427   3.362 -0.7746  0.1077 -0.2384
 1899SOL    HW2 7362   3.658   4.357   3.346 -0.3311  0.3262  0.5222
 1899SOL    HW3 7363   3.642   4.507   3.342 -1.1382  0.2227 -0.6536
 1899SOL    MW4 7364   3.609   4.428   3.357 -0.7640  0.1517 -0.1929
 1900SOL     OW 7365   6.369   4.027   1.137  0.0291 -0.0084 -0.0503
 1900SOL    HW2 7366   6.317   3.981   1.203  0.6583  1.5075  1.6075
 1900SOL    HW3 7367   6.440   3.967   1.115 -1.1270 -1.1931 -0.6382
 1900SOL    MW4 7368   6.371   4.013   1.143 -0.0404  0.0353  0.0908
 1901SOL     OW 7369   4.223   2.202   1.576  0.2575  0.1136 -0.3359
 1901SOL    HW2 7370   4.271   2.145   1.515 -0.0770  0.7750 -1.2380
 1901SOL    HW3 7371   4.291   2.255   1.617  0.4834 -0.3228 -0.1339
 1901SOL    MW4 7372   4.238   2.201   1.573  0.2432  0.1433 -0.4283
 1902SOL     OW 7373   5.661   0.543   6.279  0.0093  0.0606 -0.5366
 1902SOL    HW2 7374   5.567   0.536   6.259 -0.4352  0.7947  1.0712
 1902SOL    HW3 7375   5.705   0.508   6.203 -1.6025 -1.2512 -0.9122
 1902SOL    MW4 7376   5.654   0.538   6.267 -0.2620 -0.0156 -0.3740
 1903SOL     OW 7377  -0.029   5.748   0.959  0.1560 -0.0508 -0.1852
 1903SOL    HW2 7378   0.008   5.763   0.872 -0.2044 -0.9932 -0.5097
 1903SOL    HW3 7379  -0.113   5.793   0.958 -0.5951 -1.4502 -0.9011
 1903SOL    MW4 7380  -0.035   5.756   0.948  0.0094 -0.3598 -0.3225
 1904SOL     OW 7381   1.541   2.433   1.222 -0.3509 -0.2939 -0.0641
 1904SOL    HW2 7382   1.445   2.433   1.220 -0.3322 -0.1338 -1.5525
 1904SOL    HW3 7383   1.567   2.375   1.150  0.6776  0.2634 -0.1615
 1904SOL    MW4 7384   1.532   2.425   1.212 -0.2128 -0.1993 -0.2733
 1905SOL     OW 7385   3.406   1.685   4.587 -0.3371 -0.0273 -0.0030
 1905SOL    HW2 7386   3.437   1.613   4.531 -0.5774 -0.1577  0.0319
 1905SOL    HW3 7387   3.327   1.717   4.544 -0.1114  0.3639 -0.1362
 1905SOL    MW4 7388   3.400   1.679   4.574 -0.3390  0.0071 -0.0160
 1906SOL     OW 7389   2.117   0.064   5.864  0.6305  0.0928 -0.1983
 1906SOL    HW2 7390   2.025   0.075   5.842  0.2217  0.2940  1.4959
 1906SOL    HW3 7391   2.120  -0.016   5.917  1.7070 -0.8993 -1.6543
 1906SOL    MW4 7392   2.105   0.055   5.868  0.7186 -0.0115 -0.1669
 1907SOL     OW 7393   0.070   1.863   2.129 -0.2098 -0.3137 -0.6594
 1907SOL    HW2 7394  -0.014   1.906   2.118  0.1932  0.7372  0.1165
 1907SOL    HW3 7395   0.085   1.816   2.048 -2.3286 -1.9624 -0.1721
 1907SOL    MW4 7396   0.061   1.862   2.117 -0.4362 -0.3926 -0.4927
 1908SOL     OW 7397   2.424   1.063   0.219  0.1063 -0.3858 -0.8961
 1908SOL    HW2 7398   2.516   1.038   0.213  0.8119  1.6555  0.2871
 1908SOL    HW3 7399   2.387   1.003   0.284  0.7727 -0.7585 -0.8561
 1908SOL    MW4 7400   2.431   1.052   0.227  0.2873 -0.1657 -0.7347
 1909SOL     OW 7401   3.331   0.075   5.041  0.1957 -0.1350 -0.0295
 1909SOL    HW2 7402   3.259   0.138   5.044 -0.0320 -0.3218 -0.9884
 1909SOL    HW3 7403   3.321   0.032   4.956 -0.1898 -2.1137  0.9855
 1909SOL    MW4 7404   3.321   0.078   5.030  0.1148 -0.4207 -0.0221
 1910SOL     OW 7405   4.727   6.172   0.532 -0.4769 -0.3997  0.1428
 1910SOL    HW2 7406   4.681   6.140   0.455  1.1005  1.0117 -1.4689
 1910SOL    HW3 7407   4.669   6.151   0.605 -1.2515 -3.3787 -1.1626
 1910SOL    MW4 7408   4.714   6.165   0.532 -0.3710 -0.6065 -0.2420
 1911SOL     OW 7409   3.389   3.666   0.489 -0.1120  0.4583 -0.0091
 1911SOL    HW2 7410   3.356   3.595   0.544  1.4907  0.4100  0.9421
 1911SOL    HW3 7411   3.391   3.743   0.546  1.6926  0.3819  0.0983
 1911SOL    MW4 7412   3.385   3.667   0.503  0.3376  0.4419  0.1306
 1912SOL     OW 7413   1.407   6.434   2.500 -0.3697 -0.0263  0.4623
 1912SOL    HW2 7414   1.486   6.487   2.512  0.4037 -1.0160 -0.0937
 1912SOL    HW3 7415   1.335   6.492   2.524  0.3041  1.8099 -1.6440
 1912SOL    MW4 7416   1.408   6.449   2.505 -0.1787  0.0854  0.1111
 1913SOL     OW 7417   0.835   3.780   3.436 -0.2230  0.3006  0.2936
 1913SOL    HW2 7418   0.783   3.843   3.486 -0.6321 -0.9109  1.4595
 1913SOL    HW3 7419   0.913   3.765   3.490 -1.3973 -2.2069  1.4658
 1913SOL    MW4 7420   0.838   3.786   3.450 -0.4319 -0.1901  0.6021
 1914SOL     OW 7421   6.040   3.988   4.945  0.4582  0.0827 -0.2755
 1914SOL    HW2 7422   6.104   3.921   4.920  0.7348  0.7462 -1.3828
 1914SOL    HW3 7423   6.046   3.992   5.041  1.9294 -0.0156 -0.3438
 1914SOL    MW4 7424   6.049   3.980   4.955  0.6888  0.1573 -0.4306
 1915SOL     OW 7425   5.151   4.211   2.824  0.0543  0.0124  0.0055
 1915SOL    HW2 7426   5.148   4.266   2.903  0.8810  0.5944 -0.3548
 1915SOL    HW3 7427   5.104   4.132   2.849 -2.2989  1.3715  0.1364
 1915SOL    MW4 7428   5.145   4.208   2.838 -0.1471  0.2685 -0.0248
 1916SOL     OW 7429   4.798   1.444   1.856  0.9506 -0.8101  0.0075
 1916SOL    HW2 7430   4.876   1.434   1.802  1.4878  0.5503  0.4963
 1916SOL    HW3 7431   4.725   1.435   1.795  1.5489  1.2245 -1.0862
 1916SOL    MW4 7432   4.798   1.441   1.841  1.1004 -0.3622 -0.0723
 1917SOL     OW 7433   1.506   4.619   2.268  0.2135 -0.3935 -0.2723
 1917SOL    HW2 7434   1.558   4.661   2.200 -2.2917  2.6787 -0.4821
 1917SOL    HW3 7435   1.462   4.547   2.222 -0.4351  0.8163 -1.6308
 1917SOL    MW4 7436   1.507   4.615   2.253 -0.2026  0.1714 -0.4792
 1918SOL     OW 7437   3.261   0.156   4.562 -0.2464 -0.0956 -0.4383
 1918SOL    HW2 7438   3.228   0.238   4.599  1.5383 -0.0759  1.3046
 1918SOL    HW3 7439   3.187   0.119   4.515 -2.5916  0.2126  2.6629
 1918SOL    MW4 7440   3.247   0.162   4.561 -0.3203 -0.0524  0.2008
 1919SOL     OW 7441   4.695   4.022   4.498 -0.0555  0.1390  0.1658
 1919SOL    HW2 7442   4.719   3.959   4.565 -0.5310  0.5384  0.7213
 1919SOL    HW3 7443   4.599   4.025   4.501 -0.1021 -0.1010 -0.7748
 1919SOL    MW4 7444   4.685   4.014   4.507 -0.1244  0.1600  0.1150
 1920SOL     OW 7445   2.183   6.039   4.851 -0.2120  0.1664  0.3737
 1920SOL    HW2 7446   2.144   6.127   4.855 -2.5717 -0.8047  0.7674
 1920SOL    HW3 7447   2.236   6.040   4.772  0.5935  2.2142  0.8634
 1920SOL    MW4 7448   2.185   6.051   4.841 -0.4171  0.3084  0.4903
 1921SOL     OW 7449   0.632   6.414   0.685  0.0911  0.6540  0.1092
 1921SOL    HW2 7450   0.676   6.419   0.770 -1.3757  1.3615  0.8686
 1921SOL    HW3 7451   0.619   6.320   0.671  1.3064  0.4636  0.1212
 1921SOL    MW4 7452   0.636   6.402   0.694  0.0579  0.7222  0.2110
 1922SOL     OW 7453   5.669   2.794   2.847 -0.4991 -0.3035  0.1206
 1922SOL    HW2 7454   5.737   2.734   2.816 -0.5400 -0.9629  1.2649
 1922SOL    HW3 7455   5.690   2.808   2.939 -0.9541  0.8214  0.0598
 1922SOL    MW4 7456   5.681   2.788   2.855 -0.5645 -0.2421  0.2635
 1923SOL     OW 7457   4.628   5.148   3.487  0.3402  0.0358  0.0335
 1923SOL    HW2 7458   4.714   5.111   3.508 -0.0189 -0.4906  0.5840
 1923SOL    HW3 7459   4.587   5.162   3.572  0.0981  0.8211 -0.2083
 1923SOL    MW4 7460   4.634   5.145   3.501  0.2609  0.0700  0.0743
 1924SOL     OW 7461   4.820   0.048   0.200 -0.6749 -0.1077  0.0314
 1924SOL    HW2 7462   4.846  -0.040   0.175 -1.8461  0.0695 -2.0025
 1924SOL    HW3 7463   4.828   0.049   0.295  1.2232 -1.7720 -0.0483
 1924SOL    MW4 7464   4.824   0.037   0.209 -0.5790 -0.3039 -0.2475
 1925SOL     OW 7465   6.108   5.844   5.515  0.7991 -0.4254 -0.4744
 1925SOL    HW2 7466   6.097   5.862   5.421 -1.6000  3.4301  0.2966
 1925SOL    HW3 7467   6.025   5.805   5.541 -0.0822  1.9761  0.5678
 1925SOL    MW4 7468   6.096   5.842   5.506  0.3663  0.4001 -0.2352
 1926SOL     OW 7469   5.134   2.657   1.969  0.8431 -0.1323  0.5314
 1926SOL    HW2 7470   5.118   2.584   2.029  1.5182 -0.5569  0.2124
 1926SOL    HW3 7471   5.050   2.671   1.925  0.2738  0.3357  1.7129
 1926SOL    MW4 7472   5.121   2.649   1.971  0.8570 -0.1266  0.6452
 1927SOL     OW 7473   2.323   4.381   6.377  0.3322  0.1905  0.3317
 1927SOL    HW2 7474   2.270   4.444   6.327  0.7014  0.0170 -0.2827
 1927SOL    HW3 7475   2.321   4.301   6.325  0.2461 -0.1746  0.8851
 1927SOL    MW4 7476   2.316   4.379   6.364  0.3695  0.1195  0.3237
 1928SOL     OW 7477   4.152   6.356   3.404  0.1301 -0.4201  0.1216
 1928SOL    HW2 7478   4.085   6.413   3.443 -0.8235 -1.7091  0.4279
 1928SOL    HW3 7479   4.141   6.367   3.310 -1.0333 -1.1737  0.1516
 1928SOL    MW4 7480   4.141   6.365   3.397 -0.1492 -0.6896  0.1660
 1929SOL     OW 7481   2.682   4.175   6.393  0.5948  0.2655  0.0891
 1929SOL    HW2 7482   2.755   4.181   6.331  1.5331  1.9809  1.2522
 1929SOL    HW3 7483   2.676   4.263   6.430 -1.5489 -0.0748  0.6398
 1929SOL    MW4 7484   2.691   4.187   6.390  0.4358  0.4469  0.3152
 1930SOL     OW 7485   3.233   0.829   0.891 -0.4828  0.2669 -0.1122
 1930SOL    HW2 7486   3.268   0.910   0.929 -1.5757  1.2177 -1.0490
 1930SOL    HW3 7487   3.310   0.774   0.876  0.5993  2.0341 -1.5351
 1930SOL    MW4 7488   3.247   0.833   0.894 -0.4842  0.6255 -0.4235
 1931SOL     OW 7489   2.699   2.515   3.306  0.3937  0.0988 -0.2126
 1931SOL    HW2 7490   2.780   2.565   3.293  0.0284  0.2673 -2.2293
 1931SOL    HW3 7491   2.630   2.574   3.275 -0.4504 -0.2892  0.8760
 1931SOL    MW4 7492   2.701   2.529   3.300  0.2341  0.0698 -0.3350
 1932SOL     OW 7493   5.630   2.124   2.040  0.6105  0.3459  0.5329
 1932SOL    HW2 7494   5.638   2.195   2.104  0.1746 -0.6030  1.6789
 1932SOL    HW3 7495   5.564   2.066   2.077  1.0775 -0.7451 -0.2991
 1932SOL    MW4 7496   5.622   2.126   2.054  0.6146  0.0768  0.5744
 1933SOL     OW 7497   4.746   4.735   5.385 -0.5079  0.4208 -0.7943
 1933SOL    HW2 7498   4.721   4.684   5.307 -1.5140 -1.8004  0.8587
 1933SOL    HW3 7499   4.838   4.710   5.400 -0.6511 -0.0356 -0.6490
 1933SOL    MW4 7500   4.755   4.725   5.377 -0.6595  0.0675 -0.5570
 1934SOL     OW 7501   3.897   6.031   2.585 -0.3925 -0.2980  0.0446
 1934SOL    HW2 7502   3.902   6.011   2.679 -1.0892 -1.9962 -0.2586
 1934SOL    HW3 7503   3.823   6.092   2.578 -0.2642 -0.0674  0.6002
 1934SOL    MW4 7504   3.888   6.037   2.597 -0.4675 -0.4916  0.0779
 1935SOL     OW 7505   1.702   4.325   3.469  0.0241 -0.1876  0.7046
 1935SOL    HW2 7506   1.638   4.325   3.397  0.0862 -0.7127  0.6421
 1935SOL    HW3 7507   1.729   4.416   3.477  2.5443 -0.5312 -2.1751
 1935SOL    MW4 7508   1.697   4.337   3.461  0.3648 -0.3022  0.3164
 1936SOL     OW 7509   2.401   1.362   0.065 -0.6938  0.4285  0.1709
 1936SOL    HW2 7510   2.461   1.346   0.138 -0.9608 -2.0930 -0.0979
 1936SOL    HW3 7511   2.323   1.311   0.086  0.0142 -2.2210 -2.7972
 1936SOL    MW4 7512   2.399   1.353   0.077 -0.6356 -0.2537 -0.2562
 1937SOL     OW 7513   2.479   2.156   5.132 -0.3286 -0.1092  0.0217
 1937SOL    HW2 7514   2.559   2.182   5.087 -0.3066 -1.4828 -0.7906
 1937SOL    HW3 7515   2.409   2.194   5.080 -0.2572 -0.6394 -0.4766
 1937SOL    MW4 7516   2.480   2.164   5.120 -0.3163 -0.3604 -0.1512
 1938SOL     OW 7517   1.559   3.301   0.709  0.1689 -1.1759 -0.0504
 1938SOL    HW2 7518   1.471   3.263   0.707 -0.1604 -0.6009  1.6671
 1938SOL    HW3 7519   1.609   3.251   0.644 -1.8063 -0.4721 -2.2746
 1938SOL    MW4 7520   1.554   3.289   0.700 -0.1351 -1.0071 -0.1173
 1939SOL     OW 7521   5.309   6.084   4.474 -0.3070 -0.0828 -0.0959
 1939SOL    HW2 7522   5.318   6.179   4.467  1.3572 -0.2303 -0.4955
 1939SOL    HW3 7523   5.399   6.052   4.481 -0.8151 -1.6552 -0.3004
 1939SOL    MW4 7524   5.322   6.092   4.474 -0.1545 -0.3097 -0.1756
 1940SOL     OW 7525   2.119   4.619   5.425 -0.4243 -0.2039  0.1316
 1940SOL    HW2 7526   2.133   4.708   5.456  0.3306 -0.2571 -0.0474
 1940SOL    HW3 7527   2.038   4.625   5.373  0.4704  0.7389 -1.2358
 1940SOL    MW4 7528   2.110   4.631   5.422 -0.2066 -0.0865 -0.0724
 1941SOL     OW 7529   2.825   5.683   3.438 -0.0108 -0.5040  0.3899
 1941SOL    HW2 7530   2.825   5.647   3.527 -0.6882  0.0824  0.6358
 1941SOL    HW3 7531   2.737   5.665   3.405 -0.3833  0.9503  0.5423
 1941SOL    MW4 7532   2.813   5.676   3.446 -0.1493 -0.2347  0.4424
 1942SOL     OW 7533   5.485   0.735   5.926 -0.3069  0.2769  0.0278
 1942SOL    HW2 7534   5.434   0.783   5.992 -0.7189 -0.5830  0.3533
 1942SOL    HW3 7535   5.421   0.712   5.859 -0.4033 -0.9579  0.5212
 1942SOL    MW4 7536   5.470   0.738   5.926 -0.3740  0.0006  0.1359
 1943SOL     OW 7537   5.679   5.806   4.907  0.4585 -0.2931 -0.2148
 1943SOL    HW2 7538   5.721   5.741   4.962 -0.3559 -1.7543 -1.2384
 1943SOL    HW3 7539   5.661   5.880   4.965  0.7978 -1.2521  1.1421
 1943SOL    MW4 7540   5.682   5.807   4.922  0.3958 -0.6124 -0.1708
 1944SOL     OW 7541   3.522   4.157   2.315  0.4544 -0.0936  0.3492
 1944SOL    HW2 7542   3.497   4.202   2.396  0.8609  0.2774  0.2749
 1944SOL    HW3 7543   3.558   4.073   2.344 -0.4029 -0.4213  0.4838
 1944SOL    MW4 7544   3.523   4.152   2.330  0.3949 -0.0879  0.3572
 1945SOL     OW 7545   3.638   0.271   5.026 -0.3859  0.4854  0.1991
 1945SOL    HW2 7546   3.600   0.201   5.079  0.7416 -0.0163  0.3819
 1945SOL    HW3 7547   3.569   0.296   4.965 -0.8796 -0.6177  0.2937
 1945SOL    MW4 7548   3.624   0.265   5.025 -0.3023  0.2737  0.2357
 1946SOL     OW 7549   0.107   3.111   5.138 -0.1103 -0.0057  0.1198
 1946SOL    HW2 7550   0.084   3.105   5.045  0.1288  1.3989 -0.0586
 1946SOL    HW3 7551   0.027   3.144   5.180 -0.0375 -0.0777  0.3167
 1946SOL    MW4 7552   0.093   3.115   5.131 -0.0692  0.1701  0.1222
 1947SOL     OW 7553  -0.015   4.265   6.317  0.5275  0.0541  0.1555
 1947SOL    HW2 7554  -0.099   4.222   6.337  0.3248  0.2178 -0.3246
 1947SOL    HW3 7555  -0.021   4.287   6.225  0.2747  1.8727  0.5695
 1947SOL    MW4 7556  -0.027   4.262   6.308  0.4674  0.3157  0.1468
 1948SOL     OW 7557   1.051   4.523   3.885 -0.4344 -0.1005  0.1526
 1948SOL    HW2 7558   1.012   4.438   3.862  0.7827 -0.9153  0.9880
 1948SOL    HW3 7559   1.039   4.530   3.979 -1.2422  1.0548 -0.0239
 1948SOL    MW4 7560   1.044   4.513   3.894 -0.3804 -0.0556  0.2395
 1949SOL     OW 7561   1.775   3.687   2.631 -0.4990 -0.1976 -0.3601
 1949SOL    HW2 7562   1.817   3.646   2.556 -0.5585  1.1516 -1.1462
 1949SOL    HW3 7563   1.767   3.616   2.695  1.1727 -0.9376 -0.9274
 1949SOL    MW4 7564   1.779   3.672   2.630 -0.2863 -0.1172 -0.5387
 1950SOL     OW 7565   4.722   4.133   2.865 -0.1422  0.8741  0.5600
 1950SOL    HW2 7566   4.671   4.116   2.944 -0.6917 -1.0194 -0.1484
 1950SOL    HW3 7567   4.745   4.226   2.871  0.6116  0.5944  3.3608
 1950SOL    MW4 7568   4.718   4.143   2.876 -0.1153  0.5874  0.8361
 1951SOL     OW 7569   0.083   0.705   4.328  0.3922 -0.2222 -0.4459
 1951SOL    HW2 7570   0.148   0.762   4.370 -3.2057  2.0719  2.5860
 1951SOL    HW3 7571   0.081   0.735   4.237  1.5425  1.6050  0.0740
 1951SOL    MW4 7572   0.091   0.716   4.322  0.0693  0.3216  0.0228
 1952SOL     OW 7573   0.570   1.319   2.768 -0.4081 -0.0892  0.0306
 1952SOL    HW2 7574   0.642   1.256   2.769 -0.1605  0.1940  0.2280
 1952SOL    HW3 7575   0.509   1.287   2.834  0.5272  0.8099  1.3670
 1952SOL    MW4 7576   0.572   1.306   2.777 -0.2521  0.0668  0.2330
 1953SOL     OW 7577   1.579   6.291   2.266 -0.2750  0.2709  0.8621
 1953SOL    HW2 7578   1.655   6.307   2.321  0.6070  0.2719 -0.3168
 1953SOL    HW3 7579   1.545   6.207   2.296  0.0800  0.3575  1.5229
 1953SOL    MW4 7580   1.585   6.282   2.277 -0.1118  0.2825  0.7937
 1954SOL     OW 7581   1.954   0.009   4.576 -0.1534  0.3987 -0.6483
 1954SOL    HW2 7582   2.024   0.070   4.598 -0.4547  1.0999 -1.5461
 1954SOL    HW3 7583   1.874   0.053   4.604 -0.2059 -0.9206  1.4997
 1954SOL    MW4 7584   1.953   0.023   4.582 -0.2001  0.3171 -0.4834
 1955SOL     OW 7585   3.449   1.622   1.734 -0.0180 -0.3058  0.5302
 1955SOL    HW2 7586   3.358   1.650   1.749 -0.0182  0.8378 -1.3660
 1955SOL    HW3 7587   3.442   1.557   1.664  0.6914  0.4194 -0.2237
 1955SOL    MW4 7588   3.436   1.617   1.727  0.0756 -0.0593  0.1806
 1956SOL     OW 7589   5.313   5.532   1.743 -0.1147  0.1567  0.4684
 1956SOL    HW2 7590   5.345   5.471   1.810  2.0593  0.2428 -0.4207
 1956SOL    HW3 7591   5.235   5.571   1.782  0.9085 -0.0152  2.8461
 1956SOL    MW4 7592   5.307   5.529   1.757  0.3071  0.1454  0.6648
 1957SOL     OW 7593   4.971   4.816   0.983  0.2746  0.4283 -0.0479
 1957SOL    HW2 7594   4.924   4.732   0.981 -0.5875  0.8813  0.4974
 1957SOL    HW3 7595   4.919   4.872   0.925  1.3365  0.3526 -1.1065
 1957SOL    MW4 7596   4.958   4.812   0.975  0.3009  0.4781 -0.1156
 1958SOL     OW 7597   6.184   4.392   5.506  0.2533 -0.1637  0.1525
 1958SOL    HW2 7598   6.117   4.330   5.536  0.5545  0.5139  2.4072
 1958SOL    HW3 7599   6.145   4.433   5.429 -0.6571 -1.9191 -0.3801
 1958SOL    MW4 7600   6.170   4.389   5.500  0.1729 -0.3059  0.3797
 1959SOL     OW 7601   5.920   3.717   6.342 -0.1433 -0.3317  0.0133
 1959SOL    HW2 7602   5.950   3.808   6.346 -0.5158 -0.2193  0.4321
 1959SOL    HW3 7603   5.917   3.689   6.434  3.0929 -1.8444 -0.2075
 1959SOL    MW4 7604   5.923   3.726   6.355  0.2346 -0.5164  0.0394
 1960SOL     OW 7605   5.270   2.248   2.707  0.4661  0.4739 -0.0109
 1960SOL    HW2 7606   5.285   2.171   2.652 -3.0073  0.4050 -1.1540
 1960SOL    HW3 7607   5.265   2.214   2.796 -0.9543 -0.6969 -0.4930
 1960SOL    MW4 7608   5.271   2.233   2.711 -0.1796  0.3103 -0.2253
 1961SOL     OW 7609   3.322   5.804   2.151 -0.4252  0.4464  0.2878
 1961SOL    HW2 7610   3.325   5.834   2.242  1.1566  2.0646 -0.2357
 1961SOL    HW3 7611   3.235   5.766   2.142 -0.1828 -0.9660  2.8193
 1961SOL    MW4 7612   3.311   5.803   2.162 -0.1845  0.4736  0.5527
 1962SOL     OW 7613   0.502   3.400   1.931  0.5731  0.9244 -0.3666
 1962SOL    HW2 7614   0.503   3.328   1.995  1.8693  0.5370 -0.7937
 1962SOL    HW3 7615   0.455   3.364   1.856 -0.8694  1.3484  0.3005
 1962SOL    MW4 7616   0.496   3.386   1.929  0.5538  0.9293 -0.3349
 1963SOL     OW 7617   1.538   3.674   5.181  0.0139  0.5201  0.0344
 1963SOL    HW2 7618   1.502   3.740   5.122  1.4354 -0.2654 -1.7962
 1963SOL    HW3 7619   1.630   3.699   5.192 -0.1047  0.3685  1.5528
 1963SOL    MW4 7620   1.546   3.686   5.175  0.1858  0.3964 -0.0068
 1964SOL     OW 7621   0.667   3.493   1.094  0.2696  0.1954  0.4186
 1964SOL    HW2 7622   0.606   3.462   1.162  1.1555  1.1978  1.7278
 1964SOL    HW3 7623   0.638   3.449   1.014 -4.0353  2.8106  0.2223
 1964SOL    MW4 7624   0.655   3.483   1.093 -0.1815  0.6727  0.5654
 1965SOL     OW 7625   2.805   5.036   3.543 -0.1076  0.3731  0.4159
 1965SOL    HW2 7626   2.900   5.047   3.543  0.2536 -1.9743 -0.6068
 1965SOL    HW3 7627   2.771   5.116   3.503  1.4630  1.0353  0.3298
 1965SOL    MW4 7628   2.813   5.048   3.538  0.1472  0.1508  0.2696
 1966SOL     OW 7629   4.777   4.243   5.798 -0.1879 -0.1685 -0.1044
 1966SOL    HW2 7630   4.761   4.160   5.753 -0.4054 -0.6955  0.9285
 1966SOL    HW3 7631   4.860   4.274   5.762  0.4393 -1.3660  0.2731
 1966SOL    MW4 7632   4.786   4.236   5.787 -0.1338 -0.3960  0.0817
 1967SOL     OW 7633   3.154   0.806   2.977  0.0393  0.1814 -0.1225
 1967SOL    HW2 7634   3.213   0.737   2.947  2.6748  1.0811  2.5399
 1967SOL    HW3 7635   3.202   0.888   2.963 -1.9853  1.3081 -0.9110
 1967SOL    MW4 7636   3.168   0.808   2.971  0.1199  0.4488  0.1247
 1968SOL     OW 7637   2.011   1.480   1.718  0.2006 -0.0961  0.3471
 1968SOL    HW2 7638   2.071   1.457   1.647  0.4692  0.2721  0.4500
 1968SOL    HW3 7639   1.930   1.433   1.698 -0.6607  2.0639 -1.6988
 1968SOL    MW4 7640   2.008   1.471   1.706  0.1224  0.2374  0.0907
 1969SOL     OW 7641   5.249   4.997   1.844  0.6907 -0.2946  0.5279
 1969SOL    HW2 7642   5.208   5.043   1.770  0.3182 -1.0544  0.2520
 1969SOL    HW3 7643   5.215   5.043   1.922  1.2630  0.6561  0.2344
 1969SOL    MW4 7644   5.239   5.009   1.845  0.7171 -0.2694  0.4528
 1970SOL     OW 7645   5.377   5.322   0.867 -0.4971 -0.4515  0.1315
 1970SOL    HW2 7646   5.409   5.293   0.781  0.7872  0.7720  0.1736
 1970SOL    HW3 7647   5.438   5.283   0.929  0.1191  0.7654  0.3077
 1970SOL    MW4 7648   5.389   5.313   0.864 -0.2463 -0.1296  0.1603
 1971SOL     OW 7649   5.001   4.651   5.488 -0.1865 -0.0040 -0.1679
 1971SOL    HW2 7650   5.006   4.686   5.578  2.2533 -0.5269 -0.0355
 1971SOL    HW3 7651   4.960   4.565   5.498 -1.5692  0.6638  0.1742
 1971SOL    MW4 7652   4.996   4.645   5.501 -0.0470  0.0151 -0.1053
 1972SOL     OW 7653   1.536   4.108   1.375 -0.1863  0.3235  0.3398
 1972SOL    HW2 7654   1.546   4.014   1.357 -1.9754 -0.0368  0.9391
 1972SOL    HW3 7655   1.502   4.145   1.293  0.0821  0.3545  0.2437
 1972SOL    MW4 7656   1.533   4.100   1.362 -0.3870  0.2800  0.4062
 1973SOL     OW 7657   5.845   4.381   4.862  0.6339 -0.3010 -0.2039
 1973SOL    HW2 7658   5.786   4.321   4.906  0.7598  0.8929  1.7376
 1973SOL    HW3 7659   5.931   4.340   4.870  0.5747 -0.3502  0.2121
 1973SOL    MW4 7660   5.849   4.368   4.869  0.6427 -0.1500  0.1072
 1974SOL     OW 7661   1.880   1.981   6.233  0.2882 -0.0144 -0.4872
 1974SOL    HW2 7662   1.959   1.980   6.287 -0.5655 -1.0747  0.7797
 1974SOL    HW3 7663   1.823   2.045   6.275 -1.1121 -2.1364  1.0298
 1974SOL    MW4 7664   1.883   1.990   6.246 -0.0092 -0.4342 -0.1199
 1975SOL     OW 7665   2.812   2.788   1.542  0.3096 -0.6868 -0.0589
 1975SOL    HW2 7666   2.743   2.722   1.555 -1.3150  1.1605  1.2190
 1975SOL    HW3 7667   2.870   2.777   1.618  0.9928 -1.6921 -0.7040
 1975SOL    MW4 7668   2.810   2.778   1.554  0.1854 -0.5757  0.0246
 1976SOL     OW 7669   6.209   2.149   5.827 -0.3028  0.2195 -0.0186
 1976SOL    HW2 7670   6.283   2.092   5.808 -0.9065 -0.4621 -0.3708
 1976SOL    HW3 7671   6.189   2.134   5.919  0.1477  0.6014  0.1500
 1976SOL    MW4 7672   6.216   2.140   5.836 -0.3230  0.1799 -0.0428
 1977SOL     OW 7673   3.126   1.568   0.698 -0.4628 -0.0753 -0.2536
 1977SOL    HW2 7674   3.035   1.565   0.727 -0.1543 -1.4912  0.7108
 1977SOL    HW3 7675   3.165   1.488   0.733  0.8619 -0.1052 -1.6659
 1977SOL    MW4 7676   3.119   1.557   0.706 -0.2473 -0.2661 -0.3127
 1978SOL     OW 7677   2.379   1.859   4.346 -0.2271  1.0507  0.2312
 1978SOL    HW2 7678   2.297   1.889   4.387 -0.6888 -0.0324  0.1225
 1978SOL    HW3 7679   2.445   1.870   4.413 -0.4123  2.1424  0.2525
 1978SOL    MW4 7680   2.377   1.865   4.360 -0.3124  1.0518  0.2197
 1979SOL     OW 7681   0.677   0.486   4.181  0.2945 -0.3751  0.3867
 1979SOL    HW2 7682   0.640   0.418   4.125 -0.7206  0.9638 -0.6321
 1979SOL    HW3 7683   0.730   0.539   4.122 -0.8149  1.0717  0.6273
 1979SOL    MW4 7684   0.679   0.484   4.166  0.0142 -0.0075  0.2840
 1980SOL     OW 7685   4.601   4.998   4.668 -0.2280  0.3606 -0.0285
 1980SOL    HW2 7686   4.514   5.013   4.632 -0.2880 -0.2684 -0.1554
 1980SOL    HW3 7687   4.641   5.085   4.671 -1.4811  0.9396  1.6887
 1980SOL    MW4 7688   4.595   5.012   4.664 -0.4013  0.3540  0.1813
 1981SOL     OW 7689   2.895   6.145   0.225  0.1794  0.6901 -0.4424
 1981SOL    HW2 7690   2.884   6.197   0.146 -0.2682 -0.9331 -1.4935
 1981SOL    HW3 7691   2.870   6.056   0.199  3.9744 -0.8011  0.3694
 1981SOL    MW4 7692   2.890   6.140   0.211  0.6210  0.2792 -0.4740
 1982SOL     OW 7693   3.263   2.962   4.333 -0.7789 -0.0900 -0.4558
 1982SOL    HW2 7694   3.176   2.992   4.310 -0.9540  0.0695  0.4009
 1982SOL    HW3 7695   3.269   2.973   4.428  0.7880  1.5312 -0.6912
 1982SOL    MW4 7696   3.253   2.967   4.343 -0.5953  0.1450 -0.3738
 1983SOL     OW 7697   5.974   6.132   3.435  0.1778 -0.5873  0.1766
 1983SOL    HW2 7698   5.983   6.224   3.411  0.0437 -0.5180  0.3937
 1983SOL    HW3 7699   6.061   6.094   3.418  0.0519 -0.5677 -0.5295
 1983SOL    MW4 7700   5.987   6.139   3.430  0.1435 -0.5756  0.1120
 1984SOL     OW 7701   1.652   1.364   0.243 -0.3325  0.3021  0.0747
 1984SOL    HW2 7702   1.586   1.406   0.188 -0.4864 -0.1621 -0.1014
 1984SOL    HW3 7703   1.719   1.335   0.182 -0.5716 -0.3420  0.1036
 1984SOL    MW4 7704   1.652   1.366   0.228 -0.3843  0.1559  0.0553
 1985SOL     OW 7705   3.632   1.009   5.662 -0.1325 -0.3336  0.1757
 1985SOL    HW2 7706   3.577   0.955   5.719  1.9803 -0.2590  2.4616
 1985SOL    HW3 7707   3.696   0.948   5.626  0.1551  0.0740 -0.0108
 1985SOL    MW4 7708   3.633   0.994   5.664  0.1842 -0.2700  0.4527
 1986SOL     OW 7709   3.959   3.522   4.198 -0.1454  0.3521 -0.0822
 1986SOL    HW2 7710   3.891   3.541   4.133 -0.9812 -1.2604  0.2902
 1986SOL    HW3 7711   3.911   3.495   4.276  0.8906 -2.8618 -0.4393
 1986SOL    MW4 7712   3.944   3.521   4.200 -0.1190 -0.2847 -0.0801
 1987SOL     OW 7713   1.063   6.199   1.725 -0.1141  0.0466 -0.0142
 1987SOL    HW2 7714   1.089   6.291   1.728  0.6444 -0.1635  0.0597
 1987SOL    HW3 7715   1.129   6.157   1.669 -1.3674 -0.1701 -1.3921
 1987SOL    MW4 7716   1.075   6.205   1.718 -0.1793 -0.0097 -0.1863
 1988SOL     OW 7717   3.220   1.790   0.878 -0.3259  0.0575 -0.3491
 1988SOL    HW2 7718   3.154   1.743   0.827 -1.1342  0.5085  0.2589
 1988SOL    HW3 7719   3.243   1.866   0.824 -0.2429 -0.1413 -0.5949
 1988SOL    MW4 7720   3.215   1.794   0.864 -0.4216  0.0908 -0.3013
 1989SOL     OW 7721   4.646   4.579   3.674 -0.2735  0.4531  0.7731
 1989SOL    HW2 7722   4.703   4.556   3.748 -0.4741 -0.3702  0.6875
 1989SOL    HW3 7723   4.662   4.672   3.659  1.7799  0.0262  0.0976
 1989SOL    MW4 7724   4.655   4.588   3.682 -0.0291  0.2882  0.6727
 1990SOL     OW 7725   0.406   5.372   3.421 -0.2615 -0.0397 -0.6990
 1990SOL    HW2 7726   0.391   5.302   3.484 -0.1943 -0.9944 -1.7086
 1990SOL    HW3 7727   0.361   5.343   3.342 -1.9008  1.9839 -0.5857
 1990SOL    MW4 7728   0.398   5.359   3.419 -0.4689  0.1013 -0.8173
 1991SOL     OW 7729   5.958   5.666   6.266 -0.1387  0.0844  0.2173
 1991SOL    HW2 7730   5.952   5.732   6.334  0.1827  0.7154 -0.3491
 1991SOL    HW3 7731   5.873   5.622   6.267  0.1869 -0.5693  1.6489
 1991SOL    MW4 7732   5.946   5.669   6.275 -0.0534  0.0814  0.3314
 1992SOL     OW 7733   2.521   3.038   1.981  0.2221 -0.3419  0.3917
 1992SOL    HW2 7734   2.439   2.989   1.993 -0.2284  0.4593  0.6999
 1992SOL    HW3 7735   2.583   2.994   2.039 -0.5545  0.3053  1.7545
 1992SOL    MW4 7736   2.518   3.025   1.990  0.0602 -0.1508  0.6122
 1993SOL     OW 7737   5.593   5.173   0.229 -0.4003 -0.2876  0.4625
 1993SOL    HW2 7738   5.589   5.087   0.186  1.6693 -0.2837  0.1832
 1993SOL    HW3 7739   5.517   5.220   0.195 -0.2876 -1.2094 -1.1619
 1993SOL    MW4 7740   5.582   5.168   0.219 -0.1123 -0.4087  0.2114
 1994SOL     OW 7741   5.914   1.451   3.447  0.7230 -1.0093  0.1424
 1994SOL    HW2 7742   5.965   1.504   3.510  2.0107 -2.4087  0.3388
 1994SOL    HW3 7743   5.908   1.506   3.369 -0.1165  0.3986  1.1566
 1994SOL    MW4 7744   5.920   1.466   3.445  0.7821 -1.0082  0.3021
 1995SOL     OW 7745   4.384   1.528   1.385  0.4634  0.1336 -0.2262
 1995SOL    HW2 7746   4.314   1.463   1.376 -0.9063  1.5128  0.1133
 1995SOL    HW3 7747   4.386   1.571   1.300 -0.1655  1.1074  0.2350
 1995SOL    MW4 7748   4.375   1.525   1.372  0.1997  0.4440 -0.1206
 1996SOL     OW 7749   4.494   4.315   2.432 -0.1456 -0.2724  0.1030
 1996SOL    HW2 7750   4.428   4.369   2.476 -0.2628  0.1970 -0.6312
 1996SOL    HW3 7751   4.573   4.326   2.486 -0.1265  0.7609 -0.1195
 1996SOL    MW4 7752   4.495   4.324   2.445 -0.1586 -0.0741 -0.0232
 1997SOL     OW 7753   2.292   2.246   4.318 -0.1212 -0.2781 -0.3305
 1997SOL    HW2 7754   2.260   2.213   4.234  0.3289 -1.3622 -0.0936
 1997SOL    HW3 7755   2.220   2.229   4.379  0.0825 -0.7938 -0.2237
 1997SOL    MW4 7756   2.278   2.239   4.315 -0.0349 -0.4892 -0.2851
 1998SOL     OW 7757   4.564   3.308   2.357  0.1693 -0.2812 -0.5906
 1998SOL    HW2 7758   4.560   3.214   2.340  0.9784 -0.0771 -2.1620
 1998SOL    HW3 7759   4.570   3.316   2.452 -1.3839 -1.7382 -0.3279
 1998SOL    MW4 7760   4.565   3.297   2.367  0.0711 -0.4465 -0.7632
 1999SOL     OW 7761   0.352   2.742   2.874 -0.0879 -0.4640  0.8292
 1999SOL    HW2 7762   0.292   2.792   2.820  1.4447  0.1937 -0.3599
 1999SOL    HW3 7763   0.352   2.654   2.835  1.7141  0.2402 -0.9690
 1999SOL    MW4 7764   0.344   2.737   2.861  0.3521 -0.2843  0.4351
 2000SOL     OW 7765   0.684   4.344   3.918  0.2062  0.2423 -0.1323
 2000SOL    HW2 7766   0.617   4.333   3.852 -0.1680  1.1363  0.0769
 2000SOL    HW3 7767   0.676   4.267   3.974 -0.4665  0.2067 -0.2689
 2000SOL    MW4 7768   0.674   4.333   3.917  0.0681  0.3555 -0.1227
 2001SOL     OW 7769   5.785   0.456   0.083 -0.0951  0.1547 -0.0654
 2001SOL    HW2 7770   5.751   0.498   0.004 -0.1732 -0.6935 -0.4964
 2001SOL    HW3 7771   5.863   0.508   0.106  0.6501 -0.3006 -1.4156
 2001SOL    MW4 7772   5.791   0.468   0.075 -0.0071 -0.0173 -0.3004
 2002SOL     OW 7773   0.709   4.590   4.728  0.0723 -0.2461  0.0158
 2002SOL    HW2 7774   0.667   4.628   4.651  0.3561 -0.1826 -0.1103
 2002SOL    HW3 7775   0.697   4.656   4.796 -0.0199 -0.2216 -0.0238
 2002SOL    MW4 7776   0.702   4.604   4.727  0.0976 -0.2345 -0.0060
 2003SOL     OW 7777   0.167   1.911   5.399 -0.3278 -0.2726 -0.3459
 2003SOL    HW2 7778   0.239   1.900   5.462 -0.5435  0.8494  0.1132
 2003SOL    HW3 7779   0.091   1.874   5.443 -0.5555  0.8399  0.2202
 2003SOL    MW4 7780   0.167   1.904   5.413 -0.3863  0.0222 -0.2107
 2004SOL     OW 7781   3.160   5.404   0.613 -0.0816  0.4716 -0.0571
 2004SOL    HW2 7782   3.100   5.379   0.542 -0.3184 -2.6967  1.0913
 2004SOL    HW3 7783   3.109   5.466   0.666 -1.4777 -0.3044 -0.4333
 2004SOL    MW4 7784   3.145   5.409   0.611 -0.2970 -0.0488  0.0448
 2005SOL     OW 7785   1.735   3.673   1.603  0.6210  0.0143 -0.2170
 2005SOL    HW2 7786   1.648   3.645   1.631  0.8979  1.6372  2.6899
 2005SOL    HW3 7787   1.788   3.667   1.682  2.5842  1.1526 -1.3877
 2005SOL    MW4 7788   1.730   3.669   1.617  0.9166  0.3786  0.0121
 2006SOL     OW 7789   1.206   1.401   3.958 -0.1574  0.2633  0.4135
 2006SOL    HW2 7790   1.192   1.320   4.008  0.5215 -0.8109 -1.0416
 2006SOL    HW3 7791   1.120   1.420   3.921 -0.6865  1.1145  1.9836
 2006SOL    MW4 7792   1.192   1.393   3.960 -0.1376  0.2339  0.4287
 2007SOL     OW 7793   0.637   2.165   4.803 -0.2301  0.3384 -0.4863
 2007SOL    HW2 7794   0.578   2.165   4.727  0.7036  1.1273 -1.2385
 2007SOL    HW3 7795   0.697   2.092   4.786  0.1054  0.6422 -0.6109
 2007SOL    MW4 7796   0.637   2.155   4.791 -0.0626  0.4825 -0.6020
 2008SOL     OW 7797   3.316   3.307   1.700 -0.2289 -0.2785  0.1210
 2008SOL    HW2 7798   3.245   3.282   1.641  0.5056  0.5336 -1.1471
 2008SOL    HW3 7799   3.396   3.287   1.652  0.4715 -1.8497  1.8088
 2008SOL    MW4 7800   3.317   3.301   1.686 -0.0396 -0.3787  0.1764
 2009SOL     OW 7801   0.600   6.404   5.896  0.4894 -0.2448  0.4225
 2009SOL    HW2 7802   0.689   6.401   5.930  0.7084  0.0130 -0.1147
 2009SOL    HW3 7803   0.589   6.494   5.865 -0.5849  0.2428  2.1075
 2009SOL    MW4 7804   0.610   6.415   5.896  0.3765 -0.1464  0.5739
 2010SOL     OW 7805   3.062   4.500   2.788 -0.0831 -0.4629 -0.0120
 2010SOL    HW2 7806   3.011   4.476   2.865 -0.1736  0.7833  0.3366
 2010SOL    HW3 7807   3.151   4.475   2.809 -0.0630  0.1075  0.6131
 2010SOL    MW4 7808   3.067   4.494   2.801 -0.0924 -0.2232  0.1165
 2011SOL     OW 7809   1.252   4.445   1.881  0.6766  0.0030 -0.0938
 2011SOL    HW2 7810   1.210   4.433   1.966 -0.3185 -0.1526 -0.5878
 2011SOL    HW3 7811   1.337   4.484   1.901 -0.6621  2.7197  0.8427
 2011SOL    MW4 7812   1.257   4.448   1.894  0.3687  0.3409 -0.0354
 2012SOL     OW 7813   0.900   4.866   0.467 -0.4319 -0.2482 -0.0772
 2012SOL    HW2 7814   0.870   4.775   0.478 -0.1411 -0.5095 -1.3104
 2012SOL    HW3 7815   0.996   4.860   0.471 -0.4349  0.1661  0.8856
 2012SOL    MW4 7816   0.909   4.853   0.469 -0.3939 -0.2280 -0.1129
 2013SOL     OW 7817   1.987   6.134   2.653 -0.5965  0.1018  0.6426
 2013SOL    HW2 7818   2.020   6.125   2.742 -0.7938 -4.7265  0.4640
 2013SOL    HW3 7819   1.893   6.116   2.660 -0.8858  1.0118 -0.4401
 2013SOL    MW4 7820   1.979   6.131   2.665 -0.6607 -0.4152  0.4762
 2014SOL     OW 7821   3.960   2.710   6.377  0.0006 -0.1014  0.4693
 2014SOL    HW2 7822   3.895   2.780   6.377 -0.9555 -0.9333  2.0481
 2014SOL    HW3 7823   3.930   2.648   6.311  0.4092  0.5628 -0.3551
 2014SOL    MW4 7824   3.948   2.711   6.368 -0.0716 -0.1235  0.5689
 2015SOL     OW 7825   0.270   0.802   2.737 -0.1042 -0.3264  0.0331
 2015SOL    HW2 7826   0.200   0.805   2.671 -1.1531  0.3086  1.1251
 2015SOL    HW3 7827   0.233   0.752   2.810  0.3726  0.4435  0.8355
 2015SOL    MW4 7828   0.256   0.796   2.738 -0.1797 -0.1411  0.2830
 2016SOL     OW 7829   6.295   6.437   4.096  0.6267  0.2344  0.4381
 2016SOL    HW2 7830   6.294   6.511   4.157 -0.0294  1.2895 -0.8233
 2016SOL    HW3 7831   6.250   6.367   4.144  0.2844  0.9752  1.2412
 2016SOL    MW4 7832   6.289   6.437   4.111  0.4950  0.4713  0.3777
 2017SOL     OW 7833   1.771   2.196   0.545 -0.1862 -0.0233 -0.7560
 2017SOL    HW2 7834   1.686   2.152   0.552 -0.4653  0.6580  0.5516
 2017SOL    HW3 7835   1.819   2.166   0.622  0.4441  0.2531 -1.0383
 2017SOL    MW4 7836   1.766   2.186   0.556 -0.1398  0.1030 -0.6207
 2018SOL     OW 7837   3.031   3.354   4.662  0.3264 -0.4691  0.5872
 2018SOL    HW2 7838   3.015   3.301   4.584  1.1777 -0.7630  0.6057
 2018SOL    HW3 7839   2.963   3.325   4.724  0.3770 -1.0708  0.3684
 2018SOL    MW4 7840   3.020   3.343   4.660  0.4454 -0.5873  0.5608
 2019SOL     OW 7841   3.746   3.844   5.841 -0.7614 -0.6869  0.4560
 2019SOL    HW2 7842   3.722   3.769   5.786 -1.5569 -0.1383  0.0357
 2019SOL    HW3 7843   3.837   3.826   5.867 -0.6645 -1.3981 -0.3021
 2019SOL    MW4 7844   3.755   3.831   5.837 -0.8536 -0.7084  0.3005
 2020SOL     OW 7845   2.114   5.600   1.306 -0.1425  0.2107  0.1191
 2020SOL    HW2 7846   2.176   5.574   1.374  0.1255 -0.6478 -0.4268
 2020SOL    HW3 7847   2.045   5.533   1.310  0.2521 -0.2923 -0.9221
 2020SOL    MW4 7848   2.113   5.587   1.315 -0.0551  0.0311 -0.0903
 2021SOL     OW 7849   5.100   3.934   2.646  0.3929 -0.5105 -0.5522
 2021SOL    HW2 7850   5.086   3.859   2.588 -0.0913 -0.6232 -0.2987
 2021SOL    HW3 7851   5.059   4.008   2.600 -0.4303 -0.6964 -0.1433
 2021SOL    MW4 7852   5.093   3.934   2.632  0.2204 -0.5499 -0.4648
 2022SOL     OW 7853   2.842   4.138   5.280 -0.1852 -0.2211 -0.3672
 2022SOL    HW2 7854   2.928   4.099   5.298  0.0098 -0.6124 -1.9359
 2022SOL    HW3 7855   2.844   4.223   5.324  0.4343 -0.8360  0.8327
 2022SOL    MW4 7856   2.854   4.144   5.288 -0.0777 -0.3539 -0.4159
 2023SOL     OW 7857   4.073   1.703   4.562 -0.3251  0.2757 -0.9111
 2023SOL    HW2 7858   3.979   1.690   4.571 -0.2518  0.4530  0.1650
 2023SOL    HW3 7859   4.091   1.784   4.608  0.6339 -0.7245  0.5608
 2023SOL    MW4 7860   4.063   1.712   4.569 -0.1889  0.1671 -0.5749
 2024SOL     OW 7861   1.760   1.784   5.408  0.1656  0.1328  0.1671
 2024SOL    HW2 7862   1.740   1.831   5.327 -1.1148  0.2483  0.5217
 2024SOL    HW3 7863   1.834   1.727   5.385 -0.3555 -0.0629 -1.1738
 2024SOL    MW4 7864   1.767   1.783   5.394 -0.0721  0.1222  0.0370
 2025SOL     OW 7865   0.018   6.030   0.660  0.5309 -0.6594 -0.3120
 2025SOL    HW2 7866   0.056   6.058   0.577  0.6858  0.5999  0.1560
 2025SOL    HW3 7867   0.092   6.026   0.721  0.3439 -1.0763 -0.1044
 2025SOL    MW4 7868   0.033   6.033   0.657  0.5266 -0.5483 -0.2229
 2026SOL     OW 7869   1.303   0.828   4.624  0.4454 -0.2683 -0.4441
 2026SOL    HW2 7870   1.215   0.843   4.659  0.6986 -0.2784  0.2078
 2026SOL    HW3 7871   1.343   0.767   4.686  1.6461  1.3636  0.4426
 2026SOL    MW4 7872   1.297   0.822   4.637  0.6372 -0.0543 -0.2411
 2027SOL     OW 7873   3.518   4.221   2.865 -0.1272  0.3447 -0.4760
 2027SOL    HW2 7874   3.601   4.224   2.912 -0.0675 -0.0657 -0.5508
 2027SOL    HW3 7875   3.520   4.138   2.818 -0.1280  0.8047 -1.3089
 2027SOL    MW4 7876   3.529   4.211   2.865 -0.1194  0.3512 -0.5958
 2028SOL     OW 7877   1.908   5.110   2.427  0.8373 -0.1580  0.1133
 2028SOL    HW2 7878   1.980   5.128   2.487  0.9466 -1.0501  0.2639
 2028SOL    HW3 7879   1.950   5.073   2.350  0.5188 -0.9439  0.3123
 2028SOL    MW4 7880   1.923   5.108   2.425  0.8097 -0.3794  0.1594
 2029SOL     OW 7881   4.292   1.148   4.854  0.4064 -0.2456 -0.7569
 2029SOL    HW2 7882   4.255   1.066   4.886  0.4715  0.1860  0.4445
 2029SOL    HW3 7883   4.248   1.163   4.770 -1.9246  0.0926  0.4674
 2029SOL    MW4 7884   4.282   1.139   4.847  0.1075 -0.1440 -0.4369
 2030SOL     OW 7885   0.213   1.284   1.335 -0.5908 -0.3085  0.3190
 2030SOL    HW2 7886   0.304   1.308   1.324 -0.7997  0.3080 -0.1207
 2030SOL    HW3 7887   0.208   1.243   1.422  0.1471 -0.6085  0.2211
 2030SOL    MW4 7888   0.224   1.282   1.345 -0.5210 -0.2667  0.2481
 2031SOL     OW 7889   0.410   5.359   6.342  0.7181  0.3311  0.1661
 2031SOL    HW2 7890   0.403   5.264   6.326 -2.7989  0.7542 -1.7435
 2031SOL    HW3 7891   0.385   5.370   6.434  0.2017 -0.5380  0.1457
 2031SOL    MW4 7892   0.406   5.348   6.352  0.1860  0.2723 -0.0886
 2032SOL     OW 7893   5.492   1.771   5.332 -0.4203 -0.2631  0.1321
 2032SOL    HW2 7894   5.544   1.798   5.407  1.0553 -1.4209 -0.4397
 2032SOL    HW3 7895   5.428   1.709   5.368 -2.5408  2.3091  1.1025
 2032SOL    MW4 7896   5.490   1.766   5.346 -0.5054 -0.0765  0.1847
 2033SOL     OW 7897   1.578   3.987   4.004  0.0171 -0.2102  0.1424
 2033SOL    HW2 7898   1.517   3.944   4.065 -1.0480  1.0757  0.0307
 2033SOL    HW3 7899   1.550   4.078   4.002  0.7350  0.0143 -1.4118
 2033SOL    MW4 7900   1.566   3.993   4.012 -0.0287 -0.0109 -0.0774
 2034SOL     OW 7901   5.372   1.374   2.325  0.7690 -0.0280 -0.3924
 2034SOL    HW2 7902   5.280   1.402   2.319  0.3927 -1.3412 -1.0264
 2034SOL    HW3 7903   5.375   1.291   2.279  2.4106  0.2453 -0.8437
 2034SOL    MW4 7904   5.360   1.367   2.319  0.9359 -0.1652 -0.5356
 2035SOL     OW 7905   2.702   5.411   0.505 -0.4662  0.3643  0.3965
 2035SOL    HW2 7906   2.780   5.375   0.463 -1.0906 -1.5812  0.7936
 2035SOL    HW3 7907   2.640   5.338   0.507 -1.6464  1.3398  1.7168
 2035SOL    MW4 7908   2.704   5.396   0.500 -0.7043  0.2363  0.6231
 2036SOL     OW 7909   4.264   2.808   5.073 -0.1177  0.0825 -0.1252
 2036SOL    HW2 7910   4.332   2.755   5.032 -0.5454 -0.0997 -0.6122
 2036SOL    HW3 7911   4.196   2.745   5.098 -1.6545  0.5574 -2.7067
 2036SOL    MW4 7912   4.264   2.793   5.071 -0.3769  0.1211 -0.5300
 2037SOL     OW 7913   1.606   4.804   2.072 -0.2700 -0.8740 -0.2387
 2037SOL    HW2 7914   1.585   4.858   2.148 -0.8241 -0.8420 -0.4104
 2037SOL    HW3 7915   1.701   4.810   2.064 -0.1950 -0.9384  0.4955
 2037SOL    MW4 7916   1.616   4.812   2.081 -0.3332 -0.8783 -0.1645
 2038SOL     OW 7917   2.582   3.300   6.228 -0.2029  0.0104 -0.0331
 2038SOL    HW2 7918   2.650   3.294   6.162  0.5632  1.6121  0.5522
 2038SOL    HW3 7919   2.506   3.334   6.182  0.2109  0.7537 -0.1758
 2038SOL    MW4 7920   2.581   3.304   6.214 -0.0472  0.3198  0.0253
 2039SOL     OW 7921   0.450   6.249   5.670  0.3582 -0.1555  0.4039
 2039SOL    HW2 7922   0.409   6.163   5.676 -0.0202 -0.0014  0.1418
 2039SOL    HW3 7923   0.496   6.261   5.753 -1.1115  0.1519  1.2080
 2039SOL    MW4 7924   0.450   6.239   5.682  0.1144 -0.0946  0.4754
 2040SOL     OW 7925   5.048   4.113   0.366  0.0617  0.5250  0.4192
 2040SOL    HW2 7926   4.982   4.056   0.405  1.4063 -2.2219 -0.9833
 2040SOL    HW3 7927   5.118   4.118   0.431  0.2041  0.0163  0.3110
 2040SOL    MW4 7928   5.049   4.106   0.379  0.2579  0.0955  0.2199
 2041SOL     OW 7929   4.497   1.924   3.937 -0.3451  0.0215  0.5207
 2041SOL    HW2 7930   4.486   1.961   4.025 -1.2739 -0.5781  0.6756
 2041SOL    HW3 7931   4.438   1.975   3.882 -0.7699 -0.4731  0.5118
 2041SOL    MW4 7932   4.488   1.935   3.941 -0.5237 -0.1228  0.5400
 2042SOL     OW 7933   0.161   5.603   1.379  0.6408  0.4110  0.2736
 2042SOL    HW2 7934   0.080   5.638   1.417  0.5600  0.9233 -0.3519
 2042SOL    HW3 7935   0.169   5.647   1.295  0.5965 -0.9978 -0.5087
 2042SOL    MW4 7936   0.151   5.613   1.373  0.6243  0.2927  0.0879
 2043SOL     OW 7937   2.091   5.173   2.625 -0.4272  0.1707 -0.1260
 2043SOL    HW2 7938   2.088   5.142   2.716 -0.0646  0.5193  0.0110
 2043SOL    HW3 7939   2.169   5.132   2.588 -1.4642 -1.2926 -0.7922
 2043SOL    MW4 7940   2.101   5.163   2.632 -0.5162  0.0236 -0.1958
 2044SOL     OW 7941   3.049   3.783   2.006  0.5269  0.4043 -0.0452
 2044SOL    HW2 7942   3.046   3.867   2.052 -1.2124  0.7369 -0.6705
 2044SOL    HW3 7943   3.037   3.806   1.914 -0.2418 -0.5316 -0.1990
 2044SOL    MW4 7944   3.047   3.797   2.000  0.1960  0.3247 -0.1480
 2045SOL     OW 7945   1.713   2.688   3.265  0.6424  0.4870 -0.1866
 2045SOL    HW2 7946   1.773   2.748   3.310 -0.5612 -0.8581  3.6571
 2045SOL    HW3 7947   1.709   2.612   3.323 -1.9636 -1.0058 -2.1478
 2045SOL    MW4 7948   1.720   2.686   3.279  0.1397  0.1126  0.0618
 2046SOL     OW 7949   4.479   1.487   5.967 -0.2759 -0.3280 -0.0694
 2046SOL    HW2 7950   4.462   1.550   5.897 -0.4288  1.5891  1.5811
 2046SOL    HW3 7951   4.418   1.511   6.037 -0.2213 -2.2402  0.7025
 2046SOL    MW4 7952   4.469   1.499   5.967 -0.2889 -0.3273  0.2502
 2047SOL     OW 7953   4.802   1.939   3.999  0.1469 -0.4520 -1.2385
 2047SOL    HW2 7954   4.727   1.927   4.058  0.5034  2.1718 -0.1159
 2047SOL    HW3 7955   4.792   2.028   3.966  2.3458 -0.3193 -1.6743
 2047SOL    MW4 7956   4.790   1.949   4.003  0.4841 -0.0883 -1.1479
 2048SOL     OW 7957   3.099   6.248   2.137 -0.3617  0.0129  0.6051
 2048SOL    HW2 7958   3.098   6.167   2.086 -2.2828 -0.3917  1.1773
 2048SOL    HW3 7959   3.098   6.318   2.072 -0.3226 -0.4574  0.0934
 2048SOL    MW4 7960   3.099   6.247   2.122 -0.6100 -0.1025  0.6131
 2049SOL     OW 7961   3.035   2.714   5.923  0.2919 -0.0872 -0.1423
 2049SOL    HW2 7962   2.947   2.731   5.889 -0.6094 -0.4865  1.8807
 2049SOL    HW3 7963   3.046   2.776   5.995  1.3109 -0.6616  0.2192
 2049SOL    MW4 7964   3.025   2.725   5.928  0.3074 -0.2157  0.1723
 2050SOL     OW 7965   5.343   0.834   0.246  0.1963 -0.3354 -0.1704
 2050SOL    HW2 7966   5.393   0.764   0.203  1.0637 -0.0595  0.3669
 2050SOL    HW3 7967   5.269   0.789   0.286  0.9012 -1.0018  0.4189
 2050SOL    MW4 7968   5.340   0.819   0.246  0.4038 -0.3869 -0.0218
 2051SOL     OW 7969   0.663   2.738   1.883 -0.2953 -0.0160  0.2370
 2051SOL    HW2 7970   0.655   2.830   1.907  0.2823 -0.3221  1.7306
 2051SOL    HW3 7971   0.676   2.693   1.967  1.3661 -1.2332 -0.6271
 2051SOL    MW4 7972   0.663   2.744   1.898  0.0001 -0.2169  0.3201
 2052SOL     OW 7973   5.863   6.067   1.493 -0.2156 -0.2819  0.3086
 2052SOL    HW2 7974   5.789   6.125   1.510  0.0710  0.1477  0.0966
 2052SOL    HW3 7975   5.838   6.018   1.415  0.4321  1.1021 -0.8295
 2052SOL    MW4 7976   5.850   6.068   1.485 -0.0923 -0.0426  0.1304
 2053SOL     OW 7977   1.265   2.153   1.530 -0.1314 -0.2097 -0.6396
 2053SOL    HW2 7978   1.250   2.075   1.584 -2.3770  0.8910  0.4520
 2053SOL    HW3 7979   1.313   2.120   1.454  0.2913 -2.3804  0.4852
 2053SOL    MW4 7980   1.269   2.138   1.527 -0.3719 -0.3509 -0.3472
 2054SOL     OW 7981   1.427   1.625   0.585 -0.5444  0.2190 -0.3827
 2054SOL    HW2 7982   1.487   1.690   0.550 -0.0991  0.4164  0.7045
 2054SOL    HW3 7983   1.373   1.599   0.511  1.1206 -0.2346 -1.4982
 2054SOL    MW4 7984   1.428   1.630   0.571 -0.2660  0.1852 -0.3865
 2055SOL     OW 7985   6.289   2.957   1.906  0.2549 -0.5183 -0.1219
 2055SOL    HW2 7986   6.275   2.968   1.812  0.5144  0.7444 -0.0405
 2055SOL    HW3 7987   6.202   2.953   1.943  0.0480 -3.9964 -0.6428
 2055SOL    MW4 7988   6.276   2.958   1.898  0.2619 -0.8106 -0.1799
 2056SOL     OW 7989   4.775   1.836   5.532 -0.1781  0.5149 -0.1565
 2056SOL    HW2 7990   4.858   1.789   5.526 -0.4635 -0.2447  1.1614
 2056SOL    HW3 7991   4.780   1.883   5.616 -0.9983  0.5757 -0.1271
 2056SOL    MW4 7992   4.786   1.836   5.543 -0.3240  0.4227  0.0213
 2057SOL     OW 7993   6.163   0.130   2.421  0.0952  0.0498  0.0155
 2057SOL    HW2 7994   6.178   0.216   2.381 -0.1809  0.1537  0.1293
 2057SOL    HW3 7995   6.141   0.151   2.512 -2.2131  0.0160 -0.4794
 2057SOL    MW4 7996   6.162   0.144   2.428 -0.2458  0.0591 -0.0348
 2058SOL     OW 7997   2.678   4.247   4.032  0.6375 -0.2273  0.3841
 2058SOL    HW2 7998   2.617   4.315   4.003  0.8953  0.1278  0.6694
 2058SOL    HW3 7999   2.645   4.167   3.992  0.1541  0.0131  0.2946
 2058SOL    MW4 8000   2.665   4.245   4.023  0.6077 -0.1487  0.4099
 2059SOL     OW 8001   3.041   4.758   3.909 -0.0206 -0.4647 -0.2646
 2059SOL    HW2 8002   3.022   4.760   3.815  1.2997 -0.0132 -0.5590
 2059SOL    HW3 8003   3.129   4.719   3.914 -0.6077 -1.7057  0.9002
 2059SOL    MW4 8004   3.050   4.753   3.897  0.0762 -0.5689 -0.1498
 2060SOL     OW 8005   0.285   4.596   4.068 -0.5336  0.5936  0.5512
 2060SOL    HW2 8006   0.247   4.631   3.987 -0.7969  1.4846  1.0455
 2060SOL    HW3 8007   0.210   4.575   4.123 -0.3651 -0.4122  0.4109
 2060SOL    MW4 8008   0.270   4.598   4.065 -0.5461  0.5785  0.5979
 2061SOL     OW 8009   0.480   3.964   4.950 -0.3096  0.1532  0.2246
 2061SOL    HW2 8010   0.493   3.890   4.891 -1.5174  0.6240 -0.6640
 2061SOL    HW3 8011   0.413   3.934   5.012 -0.0451  0.1513  0.5152
 2061SOL    MW4 8012   0.473   3.950   4.951 -0.4340  0.2151  0.1457
 2062SOL     OW 8013   1.690   1.051   1.479 -0.5033 -0.5685 -0.1580
 2062SOL    HW2 8014   1.683   1.042   1.384  0.9387 -2.7851 -0.1364
 2062SOL    HW3 8015   1.770   1.100   1.493 -0.6818 -0.2979 -0.0729
 2062SOL    MW4 8016   1.699   1.056   1.468 -0.3366 -0.8253 -0.1440
 2063SOL     OW 8017   2.622   3.474   0.838 -0.0091  0.7679 -0.3120
 2063SOL    HW2 8018   2.683   3.460   0.766  0.0094  2.3175 -0.6359
 2063SOL    HW3 8019   2.546   3.418   0.817 -0.3940  1.8462 -2.0248
 2063SOL    MW4 8020   2.620   3.465   0.826 -0.0575  1.1146 -0.5807
 2064SOL     OW 8021   5.557   5.176   3.336 -0.3133  0.4663 -0.3402
 2064SOL    HW2 8022   5.473   5.217   3.356  0.6628  3.0087 -1.1298
 2064SOL    HW3 8023   5.587   5.141   3.420 -1.2438  1.3000  0.3653
 2064SOL    MW4 8024   5.550   5.176   3.349 -0.3073  0.9117 -0.3513
 2065SOL     OW 8025   5.341   4.691   5.822  0.0027 -0.0381  0.2174
 2065SOL    HW2 8026   5.411   4.750   5.793 -0.8764  1.5188  1.1062
 2065SOL    HW3 8027   5.261   4.742   5.811 -0.9354 -1.5244 -0.1112
 2065SOL    MW4 8028   5.340   4.706   5.817 -0.2370 -0.0288  0.2913
 2066SOL     OW 8029   3.371   5.777   1.280  0.2756 -0.6090  0.5862
 2066SOL    HW2 8030   3.306   5.768   1.210  1.1095 -0.7920 -0.1836
 2066SOL    HW3 8031   3.393   5.687   1.304 -0.4960 -0.5559  1.5772
 2066SOL    MW4 8032   3.365   5.764   1.274  0.2838 -0.6262  0.6154
 2067SOL     OW 8033   3.273   4.128   4.297  0.2736  0.0112 -0.5204
 2067SOL    HW2 8034   3.361   4.121   4.334 -0.6436  1.5320  2.2377
 2067SOL    HW3 8035   3.282   4.190   4.225  1.4204  0.4471 -0.0205
 2067SOL    MW4 8036   3.286   4.136   4.293  0.3039  0.2693 -0.0905
 2068SOL     OW 8037   4.767   3.473   3.360 -1.0425  0.1695 -0.7837
 2068SOL    HW2 8038   4.711   3.535   3.406 -0.5706  0.2727 -0.3511
 2068SOL    HW3 8039   4.753   3.493   3.267 -1.1813  0.6644 -0.6586
 2068SOL    MW4 8040   4.757   3.484   3.354 -0.9985  0.2484 -0.7101
 2069SOL     OW 8041   2.306   5.996   3.685 -0.5111  0.0550  0.4255
 2069SOL    HW2 8042   2.322   6.025   3.775 -0.4991  0.0721  0.4179
 2069SOL    HW3 8043   2.219   6.030   3.664 -0.2951  0.5105  0.2472
 2069SOL    MW4 8044   2.297   6.004   3.694 -0.4810  0.1174  0.4010
 2070SOL     OW 8045   4.624   4.222   2.217  0.1441  0.4261 -0.1317
 2070SOL    HW2 8046   4.700   4.277   2.200 -0.0124  0.9553  0.7921
 2070SOL    HW3 8047   4.573   4.272   2.282 -0.0651 -0.7394  0.6255
 2070SOL    MW4 8048   4.627   4.236   2.224  0.0959  0.3421  0.0901
 2071SOL     OW 8049   5.640   3.670   1.503  0.0578 -0.1506 -0.5047
 2071SOL    HW2 8050   5.726   3.711   1.513 -0.2922  0.2635  1.1019
 2071SOL    HW3 8051   5.653   3.579   1.529 -0.3023  0.3045  1.3936
 2071SOL    MW4 8052   5.653   3.664   1.508 -0.0359 -0.0359 -0.0423
 2072SOL     OW 8053   3.041   6.249   3.354  0.2343 -0.1453  0.1489
 2072SOL    HW2 8054   3.126   6.226   3.393 -0.7148  0.4219  2.7176
 2072SOL    HW3 8055   3.057   6.332   3.309  1.1499 -0.3140  0.1342
 2072SOL    MW4 8056   3.054   6.257   3.353  0.2299 -0.0927  0.4859
 2073SOL     OW 8057   6.210   2.828   6.241  0.0202  0.0321  0.2267
 2073SOL    HW2 8058   6.235   2.736   6.231 -0.0909 -0.1227  1.2589
 2073SOL    HW3 8059   6.269   2.862   6.308  0.8497  1.0520 -0.9551
 2073SOL    MW4 8060   6.221   2.820   6.248  0.1150  0.1462  0.2070
 2074SOL     OW 8061   0.760   3.421   5.525  0.1985  0.4231  0.1136
 2074SOL    HW2 8062   0.843   3.381   5.501  0.1682 -0.4464  1.3551
 2074SOL    HW3 8063   0.772   3.514   5.508  0.8191  0.1159 -1.3300
 2074SOL    MW4 8064   0.773   3.428   5.519  0.2764  0.2679  0.0869
 2075SOL     OW 8065   3.159   3.330   0.409 -0.2237 -0.6241  0.2105
 2075SOL    HW2 8066   3.064   3.335   0.400 -0.1268  0.8716 -0.1861
 2075SOL    HW3 8067   3.176   3.345   0.502 -0.3586 -0.7462  0.2546
 2075SOL    MW4 8068   3.149   3.333   0.420 -0.2287 -0.4429  0.1640
 2076SOL     OW 8069   1.718   1.546   3.345  0.5560 -0.7214 -0.0805
 2076SOL    HW2 8070   1.800   1.535   3.297  0.4646 -2.0901  0.0497
 2076SOL    HW3 8071   1.707   1.464   3.393 -0.6243 -0.3457  0.3124
 2076SOL    MW4 8072   1.727   1.534   3.345  0.3882 -0.8524 -0.0115
 2077SOL     OW 8073   4.534   4.625   5.816  0.1615 -0.2838 -0.4109
 2077SOL    HW2 8074   4.578   4.558   5.868  0.9028 -0.4233 -1.2078
 2077SOL    HW3 8075   4.604   4.669   5.769 -0.3354  0.9863  0.0135
 2077SOL    MW4 8076   4.549   4.622   5.817  0.1937 -0.1346 -0.4600
 2078SOL     OW 8077   1.542   4.355   3.244  0.4782 -0.1419 -0.2270
 2078SOL    HW2 8078   1.562   4.322   3.156 -0.3512  5.9796 -3.1905
 2078SOL    HW3 8079   1.446   4.360   3.247  0.5418  1.1928  0.3013
 2078SOL    MW4 8080   1.532   4.351   3.233  0.3772  0.8419 -0.5483
 2079SOL     OW 8081   5.168   4.933   1.149 -0.0847  0.4164 -0.0998
 2079SOL    HW2 8082   5.175   4.898   1.237  1.8358 -0.0459 -0.4077
 2079SOL    HW3 8083   5.095   4.884   1.110  0.0135 -0.4278  0.7496
 2079SOL    MW4 8084   5.159   4.922   1.155  0.1817  0.2440 -0.0284
 2080SOL     OW 8085   6.011   5.057   4.981 -0.2709 -0.5015  0.0473
 2080SOL    HW2 8086   6.091   5.108   4.994  1.0155 -1.8300 -2.0433
 2080SOL    HW3 8087   5.949   5.118   4.941  0.5207 -0.0206 -0.4686
 2080SOL    MW4 8088   6.014   5.072   4.977  0.0032 -0.6133 -0.2966
 2081SOL     OW 8089   2.241   2.867   3.461  0.0178  0.0279 -0.1301
 2081SOL    HW2 8090   2.162   2.818   3.440  0.3443 -0.8747  0.6799
 2081SOL    HW3 8091   2.210   2.939   3.517 -0.3282  0.1551 -0.4807
 2081SOL    MW4 8092   2.226   2.870   3.466  0.0152 -0.0744 -0.0695
 2082SOL     OW 8093   4.305   1.075   0.694  0.1492 -0.3970 -0.0143
 2082SOL    HW2 8094   4.241   1.111   0.756 -1.0812 -1.6017 -0.5194
 2082SOL    HW3 8095   4.339   1.151   0.648  0.0521  0.3890  1.1728
 2082SOL    MW4 8096   4.301   1.090   0.696 -0.0260 -0.4523  0.0757
 2083SOL     OW 8097   0.070   4.199   4.167 -0.3099  0.7013  0.0709
 2083SOL    HW2 8098   0.016   4.262   4.120  0.2235  1.0033 -0.1542
 2083SOL    HW3 8099   0.149   4.248   4.190  0.4751 -0.0972 -0.8296
 2083SOL    MW4 8100   0.074   4.214   4.164 -0.1359  0.6358 -0.0776
 2084SOL     OW 8101   5.797   2.483   4.608 -0.3097 -0.3008  0.3681
 2084SOL    HW2 8102   5.770   2.543   4.538 -0.1676 -0.0142  0.5540
 2084SOL    HW3 8103   5.891   2.472   4.596 -0.4087 -0.8372  0.0709
 2084SOL    MW4 8104   5.806   2.490   4.598 -0.3040 -0.3338  0.3534
 2085SOL     OW 8105   0.783   5.783   5.914  0.1154 -0.0471  0.3054
 2085SOL    HW2 8106   0.826   5.703   5.945  3.2321  1.6108  0.6089
 2085SOL    HW3 8107   0.854   5.836   5.878 -2.1538  1.7003 -1.9626
 2085SOL    MW4 8108   0.798   5.779   5.913  0.2272  0.4022  0.0462
 2086SOL     OW 8109   4.859   5.006   3.514  0.0121 -0.2211 -0.2406
 2086SOL    HW2 8110   4.948   5.012   3.549 -0.3875  0.2299  0.7326
 2086SOL    HW3 8111   4.868   4.956   3.433  1.1421 -0.2244 -0.1221
 2086SOL    MW4 8112   4.872   5.000   3.508  0.1084 -0.1620 -0.0966
 2087SOL     OW 8113   6.034   3.006   4.950 -0.0834 -0.2403 -0.4545
 2087SOL    HW2 8114   6.027   3.083   4.893 -2.9342 -0.1879 -0.1818
 2087SOL    HW3 8115   5.984   2.938   4.905 -0.0945 -1.0304  0.7061
 2087SOL    MW4 8116   6.026   3.007   4.936 -0.4610 -0.3377 -0.2654
 2088SOL     OW 8117   5.201   3.116   5.305 -0.3802  0.0825 -0.1450
 2088SOL    HW2 8118   5.206   3.137   5.212  0.0306  1.1357  0.0913
 2088SOL    HW3 8119   5.192   3.021   5.309  3.5895 -0.5261 -1.1656
 2088SOL    MW4 8120   5.201   3.107   5.293  0.1978  0.1412 -0.2485
 2089SOL     OW 8121   0.139   0.308   4.118 -0.2058 -0.3489 -0.3125
 2089SOL    HW2 8122   0.174   0.390   4.153 -2.3511  0.7673 -0.6254
 2089SOL    HW3 8123   0.180   0.240   4.172  0.7336  0.9737  0.7192
 2089SOL    MW4 8124   0.149   0.309   4.130 -0.3649 -0.0271 -0.2177
 2090SOL     OW 8125   4.720   3.482   2.812 -0.0152 -0.2053 -0.4591
 2090SOL    HW2 8126   4.740   3.572   2.786  1.7458  0.0553  1.5030
 2090SOL    HW3 8127   4.806   3.441   2.825 -0.7838 -1.9281 -0.4716
 2090SOL    MW4 8128   4.734   3.488   2.810  0.1157 -0.3982 -0.2019
 2091SOL     OW 8129   0.333   5.769   6.323 -0.0501 -0.1990 -0.4603
 2091SOL    HW2 8130   0.254   5.787   6.374  0.3971 -0.5885  0.3771
 2091SOL    HW3 8131   0.307   5.699   6.263 -0.2053 -0.6743  0.1543
 2091SOL    MW4 8132   0.319   5.762   6.322 -0.0116 -0.3131 -0.2687
 2092SOL     OW 8133   1.447   3.609   0.896 -0.0931  0.0252  0.3745
 2092SOL    HW2 8134   1.396   3.612   0.976 -0.7098 -0.7119  0.0245
 2092SOL    HW3 8135   1.430   3.693   0.853 -0.6328 -0.0217  0.4881
 2092SOL    MW4 8136   1.438   3.620   0.901 -0.2457 -0.0783  0.3433
 2093SOL     OW 8137   5.850   0.647   1.843  0.2118  0.0266 -0.1665
 2093SOL    HW2 8138   5.781   0.690   1.793  1.2177  0.1561 -1.4659
 2093SOL    HW3 8139   5.835   0.553   1.828  0.2909  0.0519 -0.4008
 2093SOL    MW4 8140   5.839   0.640   1.835  0.3550  0.0470 -0.3688
 2094SOL     OW 8141   6.291   0.565   3.952 -0.1293 -0.1808  0.1631
 2094SOL    HW2 8142   6.265   0.517   4.031 -1.2677 -1.1020 -0.7308
 2094SOL    HW3 8143   6.321   0.497   3.892 -1.1709  0.2551 -0.9018
 2094SOL    MW4 8144   6.291   0.550   3.955 -0.4169 -0.2449 -0.0953
 2095SOL     OW 8145   2.242   6.385   2.775 -0.2636  0.0148 -0.2998
 2095SOL    HW2 8146   2.333   6.365   2.799 -0.9141 -1.9203  0.7418
 2095SOL    HW3 8147   2.233   6.350   2.686  0.2318  1.1120 -0.8203
 2095SOL    MW4 8148   2.253   6.378   2.766 -0.2841 -0.0958 -0.2311
 2096SOL     OW 8149   2.634   4.034   6.018 -0.3733  0.0171  0.0699
 2096SOL    HW2 8150   2.561   4.047   6.079 -1.5500  0.7303 -1.4102
 2096SOL    HW3 8151   2.622   3.945   5.984  0.2097 -0.3340  0.7513
 2096SOL    MW4 8152   2.623   4.024   6.022 -0.4516  0.0649 -0.0355
 2097SOL     OW 8153   5.109   5.033   5.474  0.2581 -0.2150 -0.1691
 2097SOL    HW2 8154   5.140   5.046   5.385  0.8510  2.4889  0.3389
 2097SOL    HW3 8155   5.122   5.118   5.517 -0.3229 -1.3165  2.4029
 2097SOL    MW4 8156   5.115   5.046   5.468  0.2596 -0.0035  0.2373
 2098SOL     OW 8157   3.806   2.598   4.522  0.0858  0.2847 -0.2942
 2098SOL    HW2 8158   3.853   2.515   4.510 -1.0865 -1.2194  3.7659
 2098SOL    HW3 8159   3.721   2.584   4.480  0.0799 -0.4249 -0.0653
 2098SOL    MW4 8160   3.801   2.585   4.515 -0.0697 -0.0074  0.2717
 2099SOL     OW 8161   0.449   3.908   6.208  0.0361  0.1032  0.4234
 2099SOL    HW2 8162   0.424   3.996   6.178 -1.1385 -0.3939 -0.1101
 2099SOL    HW3 8163   0.461   3.858   6.127 -1.2689 -0.7428  0.7162
 2099SOL    MW4 8164   0.447   3.913   6.194 -0.2911 -0.0740  0.3917
 2100SOL     OW 8165   5.451   5.949   3.486  0.2759  0.2953 -0.3681
 2100SOL    HW2 8166   5.407   6.007   3.424 -0.2844 -1.4136 -1.6450
 2100SOL    HW3 8167   5.427   5.983   3.572 -1.1515  1.1333 -1.0577
 2100SOL    MW4 8168   5.442   5.961   3.489  0.0136  0.1804 -0.6276
 2101SOL     OW 8169   1.798   1.412   1.190  0.0056  0.1458 -0.5315
 2101SOL    HW2 8170   1.754   1.430   1.106  1.0769  0.5052 -1.0359
 2101SOL    HW3 8171   1.733   1.432   1.256 -1.6660 -2.2568 -1.2836
 2101SOL    MW4 8172   1.784   1.417   1.187 -0.0736 -0.1237 -0.6973
 2102SOL     OW 8173   0.691   4.886   0.836  0.2459 -0.2066 -0.2975
 2102SOL    HW2 8174   0.667   4.936   0.914 -0.5843 -0.4827 -0.3741
 2102SOL    HW3 8175   0.695   4.795   0.867  1.6951 -0.1324 -0.1712
 2102SOL    MW4 8176   0.689   4.881   0.851  0.3276 -0.2333 -0.2910
 2103SOL     OW 8177   3.634   2.654   1.933 -0.2749  0.0749 -0.3374
 2103SOL    HW2 8178   3.576   2.729   1.918  0.1015  0.4376  0.0046
 2103SOL    HW3 8179   3.717   2.680   1.894 -0.6389 -0.8890 -1.8323
 2103SOL    MW4 8180   3.637   2.668   1.926 -0.2733 -0.0044 -0.4895
 2104SOL     OW 8181   3.104   5.556   4.438 -0.3832  0.2418 -0.1016
 2104SOL    HW2 8182   3.052   5.541   4.359  0.1589  0.3568 -0.4878
 2104SOL    HW3 8183   3.178   5.609   4.408  1.3095 -1.9544 -0.1011
 2104SOL    MW4 8184   3.107   5.561   4.423 -0.0883 -0.0328 -0.1525
 2105SOL     OW 8185   3.088   6.001   2.473 -0.5271 -0.0797  0.0324
 2105SOL    HW2 8186   3.025   5.931   2.455 -0.7143  0.3787 -1.1902
 2105SOL    HW3 8187   3.106   5.993   2.567 -1.8728 -0.6685  0.2713
 2105SOL    MW4 8188   3.082   5.991   2.483 -0.7294 -0.0969 -0.0974
 2106SOL     OW 8189   2.567   5.608   0.357 -0.5239  0.3401  0.4116
 2106SOL    HW2 8190   2.631   5.554   0.403 -1.0878 -0.9570 -0.2876
 2106SOL    HW3 8191   2.491   5.609   0.416 -0.6748 -0.0091  0.2252
 2106SOL    MW4 8192   2.566   5.601   0.371 -0.6182  0.1229  0.2948
 2107SOL     OW 8193   2.833   5.209   1.950  0.2181  0.6523 -0.3017
 2107SOL    HW2 8194   2.929   5.206   1.943  0.2798  2.0239 -0.2659
 2107SOL    HW3 8195   2.809   5.296   1.917 -1.0526  0.1946 -0.6483
 2107SOL    MW4 8196   2.843   5.220   1.945  0.0586  0.7729 -0.3427
 2108SOL     OW 8197   2.500   2.328   2.056 -0.3658  0.1869 -0.1027
 2108SOL    HW2 8198   2.431   2.271   2.020  0.1019  0.3397 -1.3028
 2108SOL    HW3 8199   2.575   2.270   2.068 -0.9188 -0.1492  1.9713
 2108SOL    MW4 8200   2.500   2.313   2.053 -0.3770  0.1627  0.0126
 2109SOL     OW 8201   2.865   0.925   6.196  0.5368  0.7387  0.2134
 2109SOL    HW2 8202   2.906   0.853   6.149 -2.4543  0.0885 -1.7020
 2109SOL    HW3 8203   2.859   0.995   6.132  1.5679  2.0045  1.4471
 2109SOL    MW4 8204   2.870   0.925   6.181  0.2782  0.8199  0.1234
 2110SOL     OW 8205   1.028   3.007   1.829  0.1090  0.2186  0.1243
 2110SOL    HW2 8206   1.075   3.090   1.829  0.6489 -0.0696 -0.7777
 2110SOL    HW3 8207   1.073   2.953   1.764 -0.5742 -0.5866  0.2869
 2110SOL    MW4 8208   1.040   3.011   1.820  0.0901  0.0743  0.0267
 2111SOL     OW 8209   4.049   1.211   2.955 -0.0871  0.0450  0.6004
 2111SOL    HW2 8210   4.037   1.276   2.887 -1.6613 -0.7438  0.0882
 2111SOL    HW3 8211   4.093   1.258   3.026 -2.7743  2.1917  0.9885
 2111SOL    MW4 8212   4.053   1.226   2.956 -0.6493  0.2242  0.5840
 2112SOL     OW 8213   1.456   4.007   0.050 -0.1172 -0.4706 -0.5055
 2112SOL    HW2 8214   1.424   4.063  -0.020  0.2140 -0.7018 -0.8508
 2112SOL    HW3 8215   1.463   4.064   0.127 -0.7022 -0.2690 -0.5981
 2112SOL    MW4 8216   1.453   4.022   0.051 -0.1507 -0.4745 -0.5633
 2113SOL     OW 8217   2.506   4.620   0.215 -0.5317 -0.6646  0.5701
 2113SOL    HW2 8218   2.432   4.672   0.185 -0.5175 -2.0644 -2.2464
 2113SOL    HW3 8219   2.554   4.677   0.274 -3.0289  0.7859  1.3293
 2113SOL    MW4 8220   2.502   4.634   0.219 -0.8593 -0.6579  0.2987
 2114SOL     OW 8221   2.578   2.071   0.166  0.2822  0.0337 -0.6645
 2114SOL    HW2 8222   2.540   1.984   0.171  1.0333 -0.2181  1.4030
 2114SOL    HW3 8223   2.513   2.129   0.206  0.5025  0.1529 -0.4731
 2114SOL    MW4 8224   2.565   2.067   0.172  0.4104  0.0162 -0.3665
 2115SOL     OW 8225   5.337   4.600   1.457 -0.2550  0.1182  0.2784
 2115SOL    HW2 8226   5.293   4.578   1.539 -1.6065  2.3065  0.2110
 2115SOL    HW3 8227   5.413   4.651   1.483 -0.5582  0.6154  0.2208
 2115SOL    MW4 8228   5.341   4.604   1.471 -0.4733  0.4725  0.2619
 2116SOL     OW 8229   2.404   4.339   6.035  0.6332 -0.3183  0.1937
 2116SOL    HW2 8230   2.443   4.424   6.053 -0.0732 -0.2840  1.6929
 2116SOL    HW3 8231   2.310   4.357   6.030  0.6176 -0.7052 -1.4793
 2116SOL    MW4 8232   2.397   4.353   6.036  0.5380 -0.3648  0.1707
 2117SOL     OW 8233   0.342   5.908   1.360 -0.1048 -0.0392 -0.5022
 2117SOL    HW2 8234   0.280   5.865   1.301  0.2136  2.0624 -2.5504
 2117SOL    HW3 8235   0.292   5.979   1.400  0.5503  0.7843 -1.0811
 2117SOL    MW4 8236   0.327   5.912   1.357  0.0237  0.3467 -0.8488
 2118SOL     OW 8237   5.770   0.648   4.007 -0.8348  0.4714 -0.3388
 2118SOL    HW2 8238   5.766   0.585   4.079  2.0263 -1.1081 -1.3911
 2118SOL    HW3 8239   5.863   0.664   3.994 -1.2706  1.3667 -3.1116
 2118SOL    MW4 8240   5.782   0.642   4.014 -0.5148  0.3811 -0.8435
 2119SOL     OW 8241   4.751   4.253   4.648 -0.1780 -0.1605  0.1320
 2119SOL    HW2 8242   4.744   4.191   4.575  1.2667 -1.6304  1.1605
 2119SOL    HW3 8243   4.797   4.328   4.612 -1.9814  0.4052 -1.1521
 2119SOL    MW4 8244   4.756   4.254   4.633 -0.2253 -0.2798  0.0983
 2120SOL     OW 8245   0.059   5.274   2.867 -0.0224  0.0129  0.3028
 2120SOL    HW2 8246   0.086   5.253   2.778  0.3290  1.1409  0.1308
 2120SOL    HW3 8247   0.135   5.319   2.905 -0.4770  0.3018  0.8847
 2120SOL    MW4 8248   0.073   5.277   2.861 -0.0360  0.1999  0.3569
 2121SOL     OW 8249   0.100   5.734   1.721  0.4813  0.3502 -0.0501
 2121SOL    HW2 8250   0.179   5.773   1.758  1.4725 -1.6961  0.1398
 2121SOL    HW3 8251   0.049   5.707   1.797  0.0520  0.7943 -0.1781
 2121SOL    MW4 8252   0.104   5.735   1.736  0.5554  0.1388 -0.0420
 2122SOL     OW 8253   2.307   3.050   5.317  0.3110  0.0075  0.2633
 2122SOL    HW2 8254   2.275   3.092   5.397  0.7920  0.9485 -0.0238
 2122SOL    HW3 8255   2.388   3.096   5.296  0.6435 -0.8059 -0.2979
 2122SOL    MW4 8256   2.313   3.062   5.325  0.4184  0.0243  0.1514
 2123SOL     OW 8257   4.500   2.808   2.435  0.0872 -0.3523 -0.0112
 2123SOL    HW2 8258   4.428   2.754   2.403  0.2288 -0.9482  0.6443
 2123SOL    HW3 8259   4.579   2.756   2.419  0.1967 -0.4910  0.8920
 2123SOL    MW4 8260   4.501   2.794   2.429  0.1204 -0.4493  0.1945
 2124SOL     OW 8261   3.143   4.474   2.375  0.4364 -0.1463  0.1734
 2124SOL    HW2 8262   3.090   4.540   2.419  1.4587  0.4649  0.5055
 2124SOL    HW3 8263   3.156   4.406   2.441  1.5181  0.5198  0.6639
 2124SOL    MW4 8264   3.138   4.474   2.389  0.7140  0.0222  0.2819
 2125SOL     OW 8265   0.526   0.593   1.740  0.4590  0.1688 -0.3438
 2125SOL    HW2 8266   0.447   0.632   1.701 -0.9347 -0.9684  1.1786
 2125SOL    HW3 8267   0.598   0.629   1.689 -1.0478  1.1247 -1.9230
 2125SOL    MW4 8268   0.525   0.603   1.728  0.0763  0.1449 -0.3513
 2126SOL     OW 8269   2.227   4.648   5.156  0.3923 -0.8352 -0.0406
 2126SOL    HW2 8270   2.222   4.630   5.249  0.7190  0.4742  0.2556
 2126SOL    HW3 8271   2.137   4.638   5.124 -0.1449  0.8542  0.8543
 2126SOL    MW4 8272   2.214   4.644   5.164  0.3645 -0.4395  0.1166
 2127SOL     OW 8273   4.945   5.414   0.487 -0.8845  0.0907  0.4823
 2127SOL    HW2 8274   4.991   5.498   0.480  1.4380 -1.2134 -2.7377
 2127SOL    HW3 8275   4.901   5.405   0.402 -0.6110 -2.1444  0.5374
 2127SOL    MW4 8276   4.945   5.424   0.475 -0.5420 -0.3763  0.0648
 2128SOL     OW 8277   1.581   2.801   2.195  0.4871  0.1270 -0.0210
 2128SOL    HW2 8278   1.582   2.742   2.120 -1.3110  0.6184 -0.4866
 2128SOL    HW3 8279   1.665   2.786   2.239  0.5966 -1.8486 -0.8140
 2128SOL    MW4 8280   1.592   2.791   2.191  0.2643 -0.0688 -0.1871
 2129SOL     OW 8281   5.321   5.287   3.460  0.1971 -0.0387 -0.0141
 2129SOL    HW2 8282   5.312   5.382   3.473  0.9538  0.1077 -0.4984
 2129SOL    HW3 8283   5.374   5.258   3.534 -1.8385 -0.4616  1.3475
 2129SOL    MW4 8284   5.327   5.296   3.471  0.0283 -0.0752  0.1016
 2130SOL     OW 8285   3.956   0.492   4.340  0.2409  0.1566 -0.4521
 2130SOL    HW2 8286   4.031   0.547   4.363 -1.7622  3.0672 -0.3341
 2130SOL    HW3 8287   3.914   0.538   4.268 -1.6974 -1.1521 -0.2413
 2130SOL    MW4 8288   3.960   0.505   4.333 -0.2791  0.3679 -0.4087
 2131SOL     OW 8289   2.289   2.583   4.115 -0.6895  0.4347  0.0268
 2131SOL    HW2 8290   2.372   2.538   4.129 -0.1862 -0.3128 -4.1077
 2131SOL    HW3 8291   2.285   2.647   4.186  2.0861 -1.2527  1.9217
 2131SOL    MW4 8292   2.300   2.586   4.126 -0.2569  0.1135 -0.2687
 2132SOL     OW 8293   0.035   2.654   0.125 -0.0040 -0.0100  0.8694
 2132SOL    HW2 8294   0.118   2.627   0.087 -0.2431 -1.4725  1.3328
 2132SOL    HW3 8295   0.059   2.703   0.204  0.4257  0.7376  0.2898
 2132SOL    MW4 8296   0.049   2.657   0.130  0.0211 -0.1044  0.8540
 2133SOL     OW 8297   1.340   3.415   3.711  0.2177 -0.7508  0.5708
 2133SOL    HW2 8298   1.356   3.373   3.796  2.1581 -2.0025 -0.3393
 2133SOL    HW3 8299   1.305   3.345   3.656 -1.9263  0.2760  0.5353
 2133SOL    MW4 8300   1.337   3.400   3.715  0.1908 -0.7805  0.4460
 2134SOL     OW 8301   1.313   2.287   0.899  0.1548  0.2359  0.3149
 2134SOL    HW2 8302   1.379   2.349   0.929  1.2742 -0.5644 -0.3971
 2134SOL    HW3 8303   1.289   2.318   0.811 -0.4459  0.5447  0.5865
 2134SOL    MW4 8304   1.318   2.299   0.891  0.2232  0.1711  0.2568
 2135SOL     OW 8305   0.380   3.436   3.675  0.6536  0.3731 -0.4373
 2135SOL    HW2 8306   0.396   3.343   3.689  0.9592  0.7779  2.3508
 2135SOL    HW3 8307   0.402   3.450   3.582  3.5199 -1.7569 -0.2236
 2135SOL    MW4 8308   0.385   3.426   3.664  1.0721  0.1454 -0.0412
 2136SOL     OW 8309   0.790   3.478   2.754  0.4359 -0.5198  0.0838
 2136SOL    HW2 8310   0.854   3.433   2.698 -0.4460 -3.8004  1.4614
 2136SOL    HW3 8311   0.728   3.410   2.779 -0.6848  1.3668  2.9644
 2136SOL    MW4 8312   0.790   3.463   2.750  0.1717 -0.7037  0.6456
 2137SOL     OW 8313   5.994   1.632   4.809 -0.2780  0.0835 -0.1055
 2137SOL    HW2 8314   6.029   1.670   4.729 -2.5483  0.6271 -0.9255
 2137SOL    HW3 8315   5.920   1.689   4.832 -0.3911 -0.7415  1.7162
 2137SOL    MW4 8316   5.989   1.644   4.801 -0.5925  0.0464  0.0266
 2138SOL     OW 8317   4.868   6.433   5.624  0.2761  0.3813  0.6995
 2138SOL    HW2 8318   4.815   6.455   5.701  1.5424 -0.8926  2.0135
 2138SOL    HW3 8319   4.945   6.491   5.630  0.2782  0.4258  0.2713
 2138SOL    MW4 8320   4.872   6.444   5.635  0.4434  0.2191  0.8164
 2139SOL     OW 8321   1.414   0.094   2.254  0.3241 -0.4817  0.1451
 2139SOL    HW2 8322   1.486   0.073   2.195 -0.1078  0.2236 -0.6491
 2139SOL    HW3 8323   1.428   0.037   2.329  0.7892 -1.5258 -0.7060
 2139SOL    MW4 8324   1.425   0.084   2.256  0.3285 -0.5264 -0.0720
 2140SOL     OW 8325   0.541   3.756   4.515  0.2983 -0.2197  0.0590
 2140SOL    HW2 8326   0.546   3.667   4.478  2.7252  0.7164 -2.2376
 2140SOL    HW3 8327   0.506   3.809   4.444 -1.6043  0.6720  1.5799
 2140SOL    MW4 8328   0.537   3.751   4.501  0.3675  0.0214 -0.0434
 2141SOL     OW 8329   1.392   6.386   1.575  0.1288  0.1165  0.4193
 2141SOL    HW2 8330   1.364   6.446   1.644 -0.8442  1.2673 -0.9528
 2141SOL    HW3 8331   1.336   6.406   1.500  0.1147 -2.1602 -0.2565
 2141SOL    MW4 8332   1.381   6.396   1.574 -0.0014 -0.0321  0.1491
 2142SOL     OW 8333   4.069   3.989   3.874  0.2116  0.1530  0.0978
 2142SOL    HW2 8334   4.133   3.919   3.889  0.6441  0.1805 -1.4503
 2142SOL    HW3 8335   3.997   3.947   3.829  1.3642  0.9815 -2.7703
 2142SOL    MW4 8336   4.068   3.974   3.870  0.4208  0.2660 -0.4849
 2143SOL     OW 8337   0.258   6.418   4.826 -0.7522  0.2900  0.3949
 2143SOL    HW2 8338   0.343   6.380   4.849 -0.1732  1.7814  0.8282
 2143SOL    HW3 8339   0.261   6.506   4.862 -2.5249  0.3470  0.4766
 2143SOL    MW4 8340   0.270   6.425   4.834 -0.9097  0.4943  0.4629
 2144SOL     OW 8341   0.170   2.245   1.270  0.1282  0.1256 -0.1721
 2144SOL    HW2 8342   0.241   2.181   1.280 -0.9736 -0.8360  2.8296
 2144SOL    HW3 8343   0.177   2.300   1.348 -1.2324  1.2823 -0.8251
 2144SOL    MW4 8344   0.180   2.244   1.282 -0.1967  0.1513  0.1378
 2145SOL     OW 8345   5.402   2.639   4.190 -0.3548 -0.1958 -0.1573
 2145SOL    HW2 8346   5.424   2.728   4.162 -2.3032  0.9079  1.5707
 2145SOL    HW3 8347   5.307   2.640   4.202 -0.0127 -1.1952  4.0482
 2145SOL    MW4 8348   5.393   2.651   4.188 -0.5667 -0.1821  0.6255
 2146SOL     OW 8349   3.694   4.253   4.363  0.1205 -0.3585  0.2131
 2146SOL    HW2 8350   3.663   4.305   4.290 -1.5520 -1.5024  0.0407
 2146SOL    HW3 8351   3.713   4.317   4.432  0.2052  0.6104 -0.6870
 2146SOL    MW4 8352   3.693   4.268   4.363 -0.0890 -0.3816  0.0716
 2147SOL     OW 8353   2.370   5.869   4.123  0.2570  0.5139  0.5418
 2147SOL    HW2 8354   2.410   5.922   4.193  0.0771 -1.0182  1.8508
 2147SOL    HW3 8355   2.289   5.836   4.162  0.0196 -0.1540 -0.4915
 2147SOL    MW4 8356   2.365   5.872   4.138  0.2019  0.2236  0.5782
 2148SOL     OW 8357   0.351   4.372   4.447  0.5464  0.0820  0.2302
 2148SOL    HW2 8358   0.324   4.280   4.449  0.6572  0.0482  2.3986
 2148SOL    HW3 8359   0.272   4.420   4.470  0.5505  0.5372 -0.6630
 2148SOL    MW4 8360   0.337   4.366   4.451  0.5615  0.1376  0.3985
 2149SOL     OW 8361   0.678   2.710   3.058 -0.1513 -0.6535 -0.2094
 2149SOL    HW2 8362   0.595   2.723   3.104  0.4054  0.0926  0.6257
 2149SOL    HW3 8363   0.675   2.771   2.984 -0.1010 -0.1879  0.1689
 2149SOL    MW4 8364   0.667   2.720   3.054 -0.0712 -0.4936 -0.0493
 2150SOL     OW 8365   5.024   3.299   1.546  0.2080  0.1220 -0.0896
 2150SOL    HW2 8366   4.939   3.313   1.505 -0.1099 -0.1297  0.4858
 2150SOL    HW3 8367   5.031   3.204   1.555  0.6206  0.1299 -0.2727
 2150SOL    MW4 8368   5.014   3.288   1.542  0.2205  0.0898 -0.0378
 2151SOL     OW 8369   1.314   4.435   2.913  0.5836  0.4380  0.0018
 2151SOL    HW2 8370   1.359   4.351   2.900  1.9235  1.1850 -0.4098
 2151SOL    HW3 8371   1.279   4.457   2.827 -1.8216 -0.7848  0.6019
 2151SOL    MW4 8372   1.316   4.427   2.900  0.4430  0.3753  0.0266
 2152SOL     OW 8373   4.439   2.273   1.719  0.4916 -0.5166  0.4796
 2152SOL    HW2 8374   4.519   2.313   1.687  0.3066 -0.9583 -0.5702
 2152SOL    HW3 8375   4.452   2.179   1.705 -0.4644 -0.5444 -0.3421
 2152SOL    MW4 8376   4.451   2.266   1.713  0.3410 -0.5786  0.2326
 2153SOL     OW 8377   1.812   6.380   4.233  0.5351 -0.8105 -0.5274
 2153SOL    HW2 8378   1.795   6.394   4.326 -0.8715  0.4335 -0.9230
 2153SOL    HW3 8379   1.821   6.286   4.224  0.4286 -0.9736  0.8156
 2153SOL    MW4 8380   1.811   6.370   4.244  0.3354 -0.6679 -0.4024
 2154SOL     OW 8381   3.985   1.142   2.264 -0.4064  0.0450  0.4738
 2154SOL    HW2 8382   3.953   1.202   2.333  1.1149  1.5484 -0.0551
 2154SOL    HW3 8383   3.989   1.057   2.307  1.3244  1.0765  2.5761
 2154SOL    MW4 8384   3.981   1.139   2.279  0.0227  0.3794  0.6814
 2155SOL     OW 8385   4.850   4.397   3.535 -0.0915 -0.7018 -0.0915
 2155SOL    HW2 8386   4.771   4.444   3.560  0.1243 -0.1732 -0.3950
 2155SOL    HW3 8387   4.906   4.404   3.613  0.5987  0.9882 -0.6851
 2155SOL    MW4 8388   4.847   4.404   3.549  0.0281 -0.4091 -0.2099
 2156SOL     OW 8389   1.582   4.279   2.947 -0.2291  0.6020 -0.6608
 2156SOL    HW2 8390   1.670   4.304   2.976 -0.0880  1.3051 -1.6749
 2156SOL    HW3 8391   1.595   4.239   2.861 -0.6006 -1.8607  0.3333
 2156SOL    MW4 8392   1.595   4.277   2.940 -0.2595  0.3699 -0.6635
 2157SOL     OW 8393   3.770   2.606   2.812 -0.2920  0.1752 -0.2829
 2157SOL    HW2 8394   3.805   2.533   2.761  0.9616  1.3127 -1.1327
 2157SOL    HW3 8395   3.846   2.644   2.856 -1.3151 -0.7300  2.5166
 2157SOL    MW4 8396   3.785   2.601   2.811 -0.2616  0.2058 -0.0257
 2158SOL     OW 8397   4.389   1.194   5.904  0.7065  0.4134 -0.5868
 2158SOL    HW2 8398   4.313   1.208   5.848 -0.3407  1.7715  1.0493
 2158SOL    HW3 8399   4.438   1.277   5.899 -1.2800  2.0721  3.0477
 2158SOL    MW4 8400   4.385   1.207   5.896  0.3062  0.8114  0.1086
 2159SOL     OW 8401   2.219   4.662   5.904 -0.3576 -0.2799  0.2607
 2159SOL    HW2 8402   2.199   4.590   5.844 -2.0259  0.2934  0.0834
 2159SOL    HW3 8403   2.137   4.678   5.950  0.1910  1.0357  0.8145
 2159SOL    MW4 8404   2.205   4.654   5.902 -0.5053 -0.0307  0.3104
 2160SOL     OW 8405   0.440   0.544   2.973  0.2303  0.4316 -0.0292
 2160SOL    HW2 8406   0.492   0.532   2.893 -0.3454 -1.6502 -0.1407
 2160SOL    HW3 8407   0.482   0.618   3.017  2.5514 -0.3887 -0.6975
 2160SOL    MW4 8408   0.453   0.552   2.968  0.4606  0.0487 -0.1321
 2161SOL     OW 8409   2.304   3.000   3.953  0.6497  0.6379  0.0959
 2161SOL    HW2 8410   2.265   2.914   3.965 -2.3403  1.8954  0.4015
 2161SOL    HW3 8411   2.338   3.024   4.040 -0.2391  0.4913  0.4978
 2161SOL    MW4 8412   2.303   2.992   3.966  0.1380  0.7845  0.1893
 2162SOL     OW 8413   4.057   4.111   4.551 -0.0870 -0.6782 -0.4522
 2162SOL    HW2 8414   4.103   4.037   4.510  0.1682  0.0495 -1.5172
 2162SOL    HW3 8415   4.053   4.178   4.482 -1.2133 -0.0736  0.1768
 2162SOL    MW4 8416   4.063   4.110   4.536 -0.2020 -0.5024 -0.5097
 2163SOL     OW 8417   1.206   5.941   5.646 -0.1984 -0.5587 -0.0859
 2163SOL    HW2 8418   1.114   5.953   5.669 -0.4303 -0.9268 -0.7901
 2163SOL    HW3 8419   1.247   6.026   5.663 -0.4097 -0.7400  1.4007
 2163SOL    MW4 8420   1.199   5.954   5.651 -0.2569 -0.6312  0.0173
 2164SOL     OW 8421   0.686   4.931   2.599 -0.7093  0.2990 -0.0178
 2164SOL    HW2 8422   0.650   4.846   2.626 -2.1577  0.9683  0.2481
 2164SOL    HW3 8423   0.711   4.973   2.681 -0.1663  0.2210 -0.1376
 2164SOL    MW4 8424   0.685   4.925   2.613 -0.8288  0.3770  0.0015
 2165SOL     OW 8425   1.457   0.327   1.698 -0.3107  0.3847 -0.7239
 2165SOL    HW2 8426   1.452   0.242   1.741  1.4657  0.6537  0.1087
 2165SOL    HW3 8427   1.462   0.390   1.770  1.9112  0.9080 -1.2593
 2165SOL    MW4 8428   1.457   0.324   1.713  0.2168  0.4892 -0.6847
 2166SOL     OW 8429   4.877   5.890   3.702 -0.2140  0.2093 -0.2936
 2166SOL    HW2 8430   4.884   5.970   3.753 -1.7933  0.0425  0.2460
 2166SOL    HW3 8431   4.784   5.883   3.681  0.0810 -0.8628 -1.3614
 2166SOL    MW4 8432   4.865   5.899   3.706 -0.3834  0.0458 -0.3633
 2167SOL     OW 8433   6.376   1.391   4.791  0.3144 -0.6022 -0.3290
 2167SOL    HW2 8434   6.337   1.478   4.784 -0.0367 -0.8384 -1.5279
 2167SOL    HW3 8435   6.317   1.342   4.848  1.2588  0.3149  1.5594
 2167SOL    MW4 8436   6.363   1.396   4.798  0.3927 -0.5123 -0.2380
 2168SOL     OW 8437   1.000   5.996   3.936 -0.1067  0.0217 -0.4004
 2168SOL    HW2 8438   1.087   5.956   3.933 -0.1305 -0.0398 -0.3047
 2168SOL    HW3 8439   0.963   5.966   4.020 -0.8516 -1.2837 -1.1476
 2168SOL    MW4 8440   1.006   5.986   3.947 -0.2081 -0.1587 -0.4863
 2169SOL     OW 8441   2.434   1.686   6.262  0.5504 -0.0119 -0.1426
 2169SOL    HW2 8442   2.344   1.665   6.237  0.2067  1.3739 -0.1565
 2169SOL    HW3 8443   2.486   1.666   6.185  0.1541 -0.1628 -0.3728
 2169SOL    MW4 8444   2.429   1.680   6.249  0.4528  0.1510 -0.1748
 2170SOL     OW 8445   4.061   4.110   4.138 -0.8311 -0.2088 -0.3603
 2170SOL    HW2 8446   3.986   4.084   4.191 -1.0093  1.3248  0.1935
 2170SOL    HW3 8447   4.044   4.073   4.052 -2.8866  1.1505 -0.6057
 2170SOL    MW4 8448   4.049   4.102   4.134 -1.1258  0.1729 -0.3196
 2171SOL     OW 8449   0.605   5.076   5.233 -0.1379  0.3377 -0.1833
 2171SOL    HW2 8450   0.659   5.052   5.308  1.6797  0.2854 -1.4340
 2171SOL    HW3 8451   0.668   5.087   5.161 -1.9273 -1.1882 -2.1096
 2171SOL    MW4 8452   0.620   5.075   5.233 -0.1342  0.1295 -0.6025
 2172SOL     OW 8453   0.783   2.029   1.235  0.8077  0.1159 -0.1250
 2172SOL    HW2 8454   0.704   1.995   1.279 -0.2759  0.6403 -1.5843
 2172SOL    HW3 8455   0.796   2.116   1.273  1.3566 -0.3959  0.9037
 2172SOL    MW4 8456   0.774   2.036   1.246  0.7372  0.1176 -0.1818
 2173SOL     OW 8457   4.435   0.008   4.573 -0.3039 -0.4813  0.7030
 2173SOL    HW2 8458   4.491  -0.047   4.629 -0.9161 -2.2618 -0.3729
 2173SOL    HW3 8459   4.361  -0.048   4.551 -0.0081  0.0543 -2.0290
 2173SOL    MW4 8460   4.433  -0.007   4.578 -0.3456 -0.6456  0.2006
 2174SOL     OW 8461   1.890   5.289   3.496 -0.4496  0.4163 -0.3582
 2174SOL    HW2 8462   1.934   5.289   3.410  0.5601 -0.2099  0.1412
 2174SOL    HW3 8463   1.803   5.253   3.478 -0.8245  1.7050 -1.3726
 2174SOL    MW4 8464   1.884   5.285   3.482 -0.3658  0.5037 -0.4262
 2175SOL     OW 8465   2.583   6.055   0.011  0.4312 -0.0724  0.3991
 2175SOL    HW2 8466   2.549   6.131   0.058  0.9765  1.2838 -1.2984
 2175SOL    HW3 8467   2.633   6.007   0.077  0.2062  1.1310  1.4865
 2175SOL    MW4 8468   2.585   6.059   0.026  0.4734  0.2653  0.3186
 2176SOL     OW 8469   0.032   5.435   3.661  0.5575 -0.0830 -0.2086
 2176SOL    HW2 8470   0.029   5.529   3.678 -0.0353  0.1857 -1.7109
 2176SOL    HW3 8471   0.041   5.427   3.566 -2.2540 -1.5441 -0.4561
 2176SOL    MW4 8472   0.033   5.446   3.651  0.1083 -0.2403 -0.4395
 2177SOL     OW 8473   3.316   6.094   5.675  0.4270 -0.2197 -0.4010
 2177SOL    HW2 8474   3.351   6.018   5.722 -4.9200 -1.7580  1.8265
 2177SOL    HW3 8475   3.337   6.077   5.583  1.9448 -2.8394  0.3276
 2177SOL    MW4 8476   3.324   6.082   5.669 -0.0782 -0.7683 -0.0110
 2178SOL     OW 8477   2.460   3.312   2.066  0.0676 -0.7700  0.7715
 2178SOL    HW2 8478   2.465   3.315   2.162  0.4873  0.0906  0.7335
 2178SOL    HW3 8479   2.461   3.219   2.045  0.7617 -0.9596  1.5690
 2178SOL    MW4 8480   2.461   3.300   2.076  0.2145 -0.6815  0.8717
 2179SOL     OW 8481   5.412   4.675   4.839  0.2137  0.6158  0.1110
 2179SOL    HW2 8482   5.348   4.711   4.778 -0.0685  0.0883  0.0922
 2179SOL    HW3 8483   5.452   4.752   4.879 -0.6832  0.9617  0.3799
 2179SOL    MW4 8484   5.409   4.690   4.836  0.0581  0.5918  0.1440
 2180SOL     OW 8485   4.046   2.673   5.156  0.3836  0.0587 -0.2474
 2180SOL    HW2 8486   3.992   2.744   5.121 -0.5234 -0.0554  0.8722
 2180SOL    HW3 8487   4.023   2.669   5.248 -0.0218 -2.0656 -0.4009
 2180SOL    MW4 8488   4.036   2.682   5.163  0.2104 -0.2366 -0.1200
 2181SOL     OW 8489   2.092   6.113   1.838 -0.0130 -0.0566 -0.0456
 2181SOL    HW2 8490   2.031   6.187   1.840  1.0479  0.9041  2.6887
 2181SOL    HW3 8491   2.133   6.117   1.752 -0.4967  2.1396 -0.2208
 2181SOL    MW4 8492   2.089   6.123   1.827  0.0631  0.3599  0.2921
 2182SOL     OW 8493  -0.011   4.037   5.643 -0.3709 -0.2151 -0.1006
 2182SOL    HW2 8494   0.054   4.107   5.650  0.6728 -1.0233 -1.3116
 2182SOL    HW3 8495   0.004   3.982   5.720 -0.2048  0.0765  0.0778
 2182SOL    MW4 8496   0.000   4.039   5.654 -0.2113 -0.2833 -0.2368
 2183SOL     OW 8497   5.229   3.975   1.257  0.4875  0.4456  0.2004
 2183SOL    HW2 8498   5.284   4.041   1.215  0.1294  0.8530  0.3595
 2183SOL    HW3 8499   5.285   3.939   1.326  1.1961 -0.4711 -0.8188
 2183SOL    MW4 8500   5.244   3.979   1.261  0.5338  0.3784  0.0869
 2184SOL     OW 8501   1.074   1.964   2.601  0.3944 -0.1252 -0.3762
 2184SOL    HW2 8502   1.027   1.909   2.664  0.9942 -1.6319 -1.2018
 2184SOL    HW3 8503   1.058   2.053   2.631 -1.3697 -0.6838  0.4921
 2184SOL    MW4 8504   1.066   1.968   2.613  0.2408 -0.3977 -0.3706
 2185SOL     OW 8505   0.149   0.222   5.637 -0.4775 -0.8125  0.5501
 2185SOL    HW2 8506   0.138   0.251   5.546 -0.8844  0.4313  0.9840
 2185SOL    HW3 8507   0.107   0.135   5.638 -2.7806  0.2139  0.1147
 2185SOL    MW4 8508   0.142   0.214   5.625 -0.8351 -0.5130  0.5499
 2186SOL     OW 8509   3.440   0.352   5.289  0.6855  0.2603 -0.1681
 2186SOL    HW2 8510   3.516   0.405   5.267  2.2266 -0.8404  2.1456
 2186SOL    HW3 8511   3.463   0.264   5.261 -1.2294  0.3825 -2.5548
 2186SOL    MW4 8512   3.453   0.347   5.282  0.6362  0.1312 -0.1777
 2187SOL     OW 8513   3.693   2.685   2.508  0.3868 -0.3960  0.1764
 2187SOL    HW2 8514   3.739   2.750   2.561 -0.2490  1.5839 -1.5590
 2187SOL    HW3 8515   3.749   2.673   2.431  0.3309 -1.7009  0.3202
 2187SOL    MW4 8516   3.706   2.692   2.505  0.2955 -0.3069 -0.0336
 2188SOL     OW 8517   0.396   5.923   2.434 -0.2342 -0.0208 -0.3396
 2188SOL    HW2 8518   0.342   5.987   2.388 -1.9244 -1.2372 -0.1427
 2188SOL    HW3 8519   0.410   5.962   2.521 -0.8412  0.2955 -0.3766
 2188SOL    MW4 8520   0.390   5.937   2.440 -0.5373 -0.1396 -0.3185
 2189SOL     OW 8521   3.080   2.523   1.299  0.5803 -0.2738 -0.1104
 2189SOL    HW2 8522   3.137   2.445   1.303  1.4762  0.0688 -3.3710
 2189SOL    HW3 8523   3.141   2.596   1.293 -0.2654  0.4831  0.3285
 2189SOL    MW4 8524   3.096   2.522   1.299  0.5869 -0.1288 -0.4827
 2190SOL     OW 8525   5.913   3.087   4.307 -0.3630 -0.3050  1.3308
 2190SOL    HW2 8526   5.910   3.016   4.371 -0.9901 -3.4444 -1.8448
 2190SOL    HW3 8527   5.987   3.066   4.250 -1.1120  1.0443 -0.2519
 2190SOL    MW4 8528   5.922   3.074   4.308 -0.5445 -0.5412  0.7030
 2191SOL     OW 8529   4.118   4.849   1.330  0.0537 -0.2193 -0.3854
 2191SOL    HW2 8530   4.047   4.894   1.284 -0.2274 -0.4063 -0.1367
 2191SOL    HW3 8531   4.143   4.778   1.271 -0.5513 -0.6813 -0.1012
 2191SOL    MW4 8532   4.112   4.846   1.316 -0.0632 -0.3050 -0.3151
 2192SOL     OW 8533   3.953   3.793   4.145  0.2700  0.0216 -0.2709
 2192SOL    HW2 8534   3.964   3.704   4.180  0.2762 -0.0081 -0.3498
 2192SOL    HW3 8535   3.917   3.842   4.219 -2.3461 -0.6733 -0.9886
 2192SOL    MW4 8536   3.950   3.787   4.159 -0.0744 -0.0740 -0.3760
 2193SOL     OW 8537   0.031   2.098   4.674  0.8264  0.6948 -0.1797
 2193SOL    HW2 8538   0.087   2.085   4.750  0.3191 -1.1849 -0.0759
 2193SOL    HW3 8539   0.073   2.048   4.604 -0.3741 -0.2640 -0.2492
 2193SOL    MW4 8540   0.044   2.090   4.675  0.6011  0.3203 -0.1752
 2194SOL     OW 8541   0.911   5.034   2.159  0.1044  0.8138 -0.6931
 2194SOL    HW2 8542   0.966   5.052   2.083  0.1865 -0.4055 -0.9444
 2194SOL    HW3 8543   0.884   5.120   2.190 -0.2040  1.3186 -2.2888
 2194SOL    MW4 8544   0.915   5.048   2.153  0.0745  0.7195 -0.9368
 2195SOL     OW 8545   5.898   0.320   3.434 -0.2748  0.1129 -0.1280
 2195SOL    HW2 8546   5.846   0.355   3.362 -2.0568 -1.6500  0.1997
 2195SOL    HW3 8547   5.858   0.357   3.513 -1.1202 -1.2841  0.1306
 2195SOL    MW4 8548   5.886   0.329   3.435 -0.6214 -0.3040 -0.0507
 2196SOL     OW 8549   1.104   4.265   4.147  0.2003  0.1825  0.2379
 2196SOL    HW2 8550   1.020   4.312   4.149  0.5475  0.8838 -0.6649
 2196SOL    HW3 8551   1.096   4.198   4.215 -1.4998 -0.4547 -0.5371
 2196SOL    MW4 8552   1.092   4.262   4.156  0.0218  0.1910  0.0165
 2197SOL     OW 8553   0.347   0.566   2.232  0.1324 -0.1773 -0.3390
 2197SOL    HW2 8554   0.393   0.482   2.222 -1.4202 -1.1495  0.3999
 2197SOL    HW3 8555   0.360   0.589   2.324  0.1412  0.1449 -0.4220
 2197SOL    MW4 8556   0.355   0.558   2.243 -0.0713 -0.2630 -0.2524
 2198SOL     OW 8557   3.830   3.823   3.767  0.1794  0.0327  0.3351
 2198SOL    HW2 8558   3.810   3.797   3.677  2.7448  1.3561 -0.7368
 2198SOL    HW3 8559   3.880   3.750   3.803 -0.2094 -0.1906  0.4206
 2198SOL    MW4 8560   3.834   3.810   3.760  0.4666  0.1778  0.2049
 2199SOL     OW 8561   5.791   5.375   0.102  0.4739  0.0997 -0.2260
 2199SOL    HW2 8562   5.717   5.327   0.139  0.3799 -0.2154 -0.8009
 2199SOL    HW3 8563   5.846   5.396   0.177 -0.1437  0.2388  0.1922
 2199SOL    MW4 8564   5.788   5.371   0.117  0.3800  0.0765 -0.2467
 2200SOL     OW 8565   4.158   4.584   0.347  0.2082  0.0367  0.0329
 2200SOL    HW2 8566   4.083   4.571   0.289  2.1780 -1.0933 -2.4160
 2200SOL    HW3 8567   4.153   4.511   0.409 -1.5381  0.8815  0.9917
 2200SOL    MW4 8568   4.147   4.573   0.348  0.2377 -0.0009 -0.1637
 2201SOL     OW 8569   4.445   2.892   3.034  0.6567 -0.0181  0.4450
 2201SOL    HW2 8570   4.528   2.875   3.078 -0.4450 -1.5132  2.0470
 2201SOL    HW3 8571   4.399   2.808   3.035 -1.5901  1.1474  1.1403
 2201SOL    MW4 8572   4.450   2.879   3.040  0.2149 -0.0616  0.7481
 2202SOL     OW 8573   4.806   4.602   2.255  0.1085 -0.2383  0.2392
 2202SOL    HW2 8574   4.829   4.527   2.200 -1.2938 -0.3326 -0.2655
 2202SOL    HW3 8575   4.826   4.574   2.344 -0.7843 -1.3799  0.0958
 2202SOL    MW4 8576   4.812   4.589   2.259 -0.1943 -0.4014  0.1537
 2203SOL     OW 8577   1.697   3.063   4.548 -0.0219  0.6005 -0.1641
 2203SOL    HW2 8578   1.624   3.059   4.610 -0.2069 -0.3841 -0.4330
 2203SOL    HW3 8579   1.772   3.090   4.602  0.3933 -2.6181  1.1117
 2203SOL    MW4 8580   1.698   3.066   4.564  0.0085  0.0460 -0.0312
 2204SOL     OW 8581   0.005   0.077   3.625  0.1938  0.0481  0.8054
 2204SOL    HW2 8582  -0.072   0.021   3.615  0.4209 -0.1872  0.3461
 2204SOL    HW3 8583   0.010   0.095   3.719  0.7795 -1.6612  1.1422
 2204SOL    MW4 8584  -0.004   0.072   3.636  0.3010 -0.2084  0.7892
 2205SOL     OW 8585   5.422   3.927   0.340 -0.0718 -0.4712 -0.3186
 2205SOL    HW2 8586   5.505   3.930   0.388 -0.2208 -3.1571  0.2514
 2205SOL    HW3 8587   5.428   3.999   0.278  0.7716  2.2413  2.6473
 2205SOL    MW4 8588   5.434   3.937   0.339  0.0198 -0.4677  0.1479
 2206SOL     OW 8589   5.027   1.214   1.250 -0.1645 -0.3389 -0.6443
 2206SOL    HW2 8590   4.959   1.211   1.183 -0.9660  0.1079  0.1379
 2206SOL    HW3 8591   5.038   1.122   1.276  0.3542 -0.5492 -1.5758
 2206SOL    MW4 8592   5.019   1.201   1.245 -0.2018 -0.3077 -0.6640
 2207SOL     OW 8593   2.654   0.334   1.598 -0.7920  0.0012 -0.0555
 2207SOL    HW2 8594   2.629   0.255   1.551  0.7550  0.0979 -1.1233
 2207SOL    HW3 8595   2.575   0.389   1.596 -1.4620 -0.9462 -0.4892
 2207SOL    MW4 8596   2.640   0.331   1.591 -0.6763 -0.1111 -0.2536
 2208SOL     OW 8597   1.769   6.316   3.384 -0.3305 -0.5927  0.6263
 2208SOL    HW2 8598   1.781   6.362   3.467  0.3734 -0.0286  0.2181
 2208SOL    HW3 8599   1.766   6.385   3.318  3.0308 -1.1397 -0.2748
 2208SOL    MW4 8600   1.770   6.331   3.386  0.2058 -0.5904  0.4536
 2209SOL     OW 8601   1.628   2.656   5.862  0.3300 -0.0057  0.1740
 2209SOL    HW2 8602   1.711   2.608   5.861  0.7290  0.6501 -1.3185
 2209SOL    HW3 8603   1.576   2.614   5.794 -0.1280  0.3349  0.3123
 2209SOL    MW4 8604   1.632   2.644   5.853  0.3222  0.1257 -0.0047
 2210SOL     OW 8605   0.362   0.026   2.622  0.3523  0.3344  0.0829
 2210SOL    HW2 8606   0.379  -0.044   2.685 -0.2010  0.8062  0.7674
 2210SOL    HW3 8607   0.429   0.091   2.640  0.2723  0.4115  0.1036
 2210SOL    MW4 8608   0.373   0.025   2.633  0.2687  0.4068  0.1759
 2211SOL     OW 8609   5.890   3.402   1.128 -0.4443  0.4252 -0.2049
 2211SOL    HW2 8610   5.891   3.317   1.172  0.2048  0.2759 -0.4928
 2211SOL    HW3 8611   5.826   3.392   1.058  0.5460 -0.2741 -1.0567
 2211SOL    MW4 8612   5.882   3.390   1.124 -0.2280  0.3132 -0.3553
 2212SOL     OW 8613   5.675   2.215   3.368  0.1494  0.2322 -1.1111
 2212SOL    HW2 8614   5.723   2.297   3.363  0.2514  0.1509 -1.5613
 2212SOL    HW3 8615   5.617   2.225   3.443  1.1506  0.1760 -0.3171
 2212SOL    MW4 8616   5.674   2.227   3.377  0.2949  0.2140 -1.0658
 2213SOL     OW 8617   4.559   3.978   3.405  0.2081 -0.0103 -0.0128
 2213SOL    HW2 8618   4.634   4.003   3.458  1.3614 -1.7466 -0.7502
 2213SOL    HW3 8619   4.484   4.020   3.448  1.2847 -0.1092  2.0916
 2213SOL    MW4 8620   4.559   3.987   3.418  0.5023 -0.2525  0.1676
 2214SOL     OW 8621   4.520   3.095   4.281 -0.3764 -0.2173  0.1643
 2214SOL    HW2 8622   4.430   3.105   4.249 -0.5014  1.5176  0.9457
 2214SOL    HW3 8623   4.569   3.063   4.205 -1.6451 -1.2370 -0.2670
 2214SOL    MW4 8624   4.514   3.092   4.267 -0.5603 -0.1230  0.2105
 2215SOL     OW 8625   1.937   4.902   2.839 -0.4936 -0.2539  0.6154
 2215SOL    HW2 8626   1.951   4.923   2.931  0.5286 -0.5206  0.5354
 2215SOL    HW3 8627   1.844   4.918   2.824 -0.6283 -0.0300  1.6445
 2215SOL    MW4 8628   1.927   4.907   2.849 -0.3765 -0.2595  0.7406
 2216SOL     OW 8629   2.079   5.962   4.102 -0.0546 -0.0528 -0.0914
 2216SOL    HW2 8630   2.083   5.991   4.011 -0.7981  0.1388 -0.0650
 2216SOL    HW3 8631   2.032   5.879   4.099  0.8214 -0.5703  0.0064
 2216SOL    MW4 8632   2.073   5.955   4.089 -0.0371 -0.0958 -0.0750
 2217SOL     OW 8633   0.060   2.215   4.380 -0.0054  0.1698  0.3473
 2217SOL    HW2 8634  -0.014   2.154   4.384 -0.2964  0.5100  0.2146
 2217SOL    HW3 8635   0.110   2.187   4.304 -2.0667  2.2315 -1.9633
 2217SOL    MW4 8636   0.057   2.204   4.370 -0.3157  0.4867  0.0250
 2218SOL     OW 8637   2.378   5.283   2.332 -0.2557  0.0102 -0.2139
 2218SOL    HW2 8638   2.380   5.220   2.404 -0.0862  0.7043  0.3937
 2218SOL    HW3 8639   2.374   5.228   2.253  0.3067 -0.7688  0.2816
 2218SOL    MW4 8640   2.378   5.267   2.331 -0.1591 -0.0010 -0.0684
 2219SOL     OW 8641   4.691   3.578   4.548 -0.5075 -0.5199 -0.4135
 2219SOL    HW2 8642   4.742   3.533   4.615 -0.0856 -1.7209 -1.4985
 2219SOL    HW3 8643   4.671   3.510   4.483 -1.1611  0.5331 -1.3594
 2219SOL    MW4 8644   4.695   3.563   4.548 -0.5380 -0.5394 -0.6815
 2220SOL     OW 8645   1.153   3.499   4.457 -0.3151  0.9032 -0.1001
 2220SOL    HW2 8646   1.173   3.588   4.487 -0.4613  0.5682  1.0447
 2220SOL    HW3 8647   1.065   3.482   4.491 -0.0703  0.1236  0.1606
 2220SOL    MW4 8648   1.144   3.508   4.465 -0.3021  0.7562  0.0854
 2221SOL     OW 8649   4.913   2.356   4.634 -0.0892  0.1891 -0.3576
 2221SOL    HW2 8650   4.941   2.268   4.609 -0.8563 -0.6236  1.4327
 2221SOL    HW3 8651   4.944   2.365   4.724 -0.0998  1.7416 -0.4927
 2221SOL    MW4 8652   4.921   2.345   4.643 -0.1918  0.2867 -0.1392
 2222SOL     OW 8653   0.373   4.966   2.829 -0.0625  0.7611 -0.0419
 2222SOL    HW2 8654   0.405   4.886   2.869 -0.2729  1.0006  0.6088
 2222SOL    HW3 8655   0.279   4.953   2.819 -0.1069  0.9502  0.1221
 2222SOL    MW4 8656   0.365   4.954   2.833 -0.0961  0.8176  0.0656
 2223SOL     OW 8657   3.453   2.757   4.585  0.1288 -0.7586  0.3891
 2223SOL    HW2 8658   3.394   2.832   4.597  1.6087  0.2095  1.9628
 2223SOL    HW3 8659   3.397   2.681   4.597 -1.0461  0.1026  0.5831
 2223SOL    MW4 8660   3.438   2.757   4.588  0.1690 -0.5173  0.6223
 2224SOL     OW 8661   1.181   0.154   0.734  0.3912  0.2833 -0.3148
 2224SOL    HW2 8662   1.220   0.094   0.671  1.3931  0.8428 -0.2480
 2224SOL    HW3 8663   1.201   0.241   0.700  1.6113  0.6075  1.1491
 2224SOL    MW4 8664   1.189   0.158   0.722  0.6844  0.3999 -0.1128
 2225SOL     OW 8665   3.487   3.956   0.442 -0.2207 -0.4039  0.7593
 2225SOL    HW2 8666   3.579   3.930   0.438 -0.0038  0.4672 -1.0888
 2225SOL    HW3 8667   3.451   3.929   0.357 -1.3451  0.4192  0.9550
 2225SOL    MW4 8668   3.494   3.949   0.430 -0.3404 -0.1804  0.5413
 2226SOL     OW 8669   1.815   6.282   2.399  0.2274  0.4794 -0.3625
 2226SOL    HW2 8670   1.799   6.265   2.491  1.4813 -0.7991 -0.3504
 2226SOL    HW3 8671   1.847   6.372   2.397 -2.2679  1.4482  0.1066
 2226SOL    MW4 8672   1.817   6.292   2.411  0.0636  0.4385 -0.2990
 2227SOL     OW 8673   3.013   3.426   1.333  0.2022  0.5210  0.3605
 2227SOL    HW2 8674   2.981   3.382   1.254 -0.8274  1.0108  0.4964
 2227SOL    HW3 8675   3.032   3.515   1.305 -0.7370  0.8632  0.7945
 2227SOL    MW4 8676   3.011   3.432   1.319 -0.0575  0.6308  0.4357
 2228SOL     OW 8677   5.206   1.883   2.837 -0.4231 -0.1096  0.3033
 2228SOL    HW2 8678   5.222   1.923   2.751  1.4741  1.0109  1.1305
 2228SOL    HW3 8679   5.267   1.810   2.841 -0.4444 -0.1056  0.7247
 2228SOL    MW4 8680   5.216   1.879   2.826 -0.1756  0.0388  0.4680
 2229SOL     OW 8681   3.982   3.738   4.504  0.4430  0.0913 -0.2682
 2229SOL    HW2 8682   3.894   3.773   4.516  0.6980  1.4638 -1.9987
 2229SOL    HW3 8683   3.994   3.677   4.577 -1.8382  0.0415  0.1350
 2229SOL    MW4 8684   3.972   3.735   4.515  0.1756  0.2658 -0.4433
 2230SOL     OW 8685   5.515   3.775   6.086  0.7295  0.2904 -0.5782
 2230SOL    HW2 8686   5.468   3.714   6.030  1.8806  0.2774 -1.5666
 2230SOL    HW3 8687   5.605   3.744   6.086  0.8475  0.5225  0.9879
 2230SOL    MW4 8688   5.520   3.763   6.079  0.8969  0.3193 -0.5020
 2231SOL     OW 8689   1.912   0.568   0.184  0.0141 -0.0025  0.5937
 2231SOL    HW2 8690   1.996   0.542   0.146  0.5679  1.6262  0.6526
 2231SOL    HW3 8691   1.893   0.499   0.248 -0.0218 -1.8081 -1.2324
 2231SOL    MW4 8692   1.920   0.555   0.187  0.0824 -0.0258  0.3605
 2232SOL     OW 8693   3.536   5.346   5.183  0.1076 -0.1409  0.5587
 2232SOL    HW2 8694   3.598   5.318   5.116  0.9294 -0.6418  1.5224
 2232SOL    HW3 8695   3.521   5.439   5.164 -1.1979 -0.6937 -1.5060
 2232SOL    MW4 8696   3.542   5.355   5.171  0.0438 -0.2799  0.4134
 2233SOL     OW 8697   0.246   5.341   5.947  0.1048  0.4525 -0.5164
 2233SOL    HW2 8698   0.292   5.386   5.876 -0.5459  1.3489 -0.3908
 2233SOL    HW3 8699   0.179   5.403   5.975 -1.2834 -0.8463 -0.7905
 2233SOL    MW4 8700   0.243   5.355   5.941 -0.1642  0.3994 -0.5360
 2234SOL     OW 8701   1.800   5.219   1.555  0.1600  0.2815  0.0585
 2234SOL    HW2 8702   1.852   5.281   1.503 -0.5924 -0.3786 -1.5454
 2234SOL    HW3 8703   1.830   5.233   1.645  2.7729  0.2836 -0.7118
 2234SOL    MW4 8704   1.811   5.229   1.560  0.4055  0.1947 -0.2548
 2235SOL     OW 8705   3.338   3.969   0.190  0.2776  0.8130  0.5671
 2235SOL    HW2 8706   3.350   4.056   0.151 -1.6372  0.4252 -1.0418
 2235SOL    HW3 8707   3.272   3.927   0.136 -0.3773 -0.9085  2.5622
 2235SOL    MW4 8708   3.331   3.975   0.178 -0.0615  0.5347  0.6181
 2236SOL     OW 8709   0.552   3.723   1.670 -0.0663  0.1041  0.1357
 2236SOL    HW2 8710   0.608   3.667   1.616 -1.6950  0.0254 -1.5958
 2236SOL    HW3 8711   0.548   3.805   1.621 -0.0620  0.7172  1.1495
 2236SOL    MW4 8712   0.559   3.726   1.656 -0.2806  0.1746  0.0410
 2237SOL     OW 8713   3.451   0.838   4.067  0.3357  0.7860 -0.0425
 2237SOL    HW2 8714   3.405   0.916   4.098  1.2792  1.4839 -0.3707
 2237SOL    HW3 8715   3.534   0.870   4.034  0.8397 -0.3928  0.0219
 2237SOL    MW4 8716   3.456   0.853   4.067  0.5266  0.7226 -0.0773
 2238SOL     OW 8717   3.581   0.223   0.231  0.1652  0.3008 -0.1247
 2238SOL    HW2 8718   3.655   0.189   0.181 -1.5681 -1.3878 -1.7232
 2238SOL    HW3 8719   3.554   0.150   0.287 -0.6084  0.7060  0.0479
 2238SOL    MW4 8720   3.587   0.209   0.232 -0.1656  0.1314 -0.3128
 2239SOL     OW 8721   0.042   4.013   4.441  0.0491 -0.2193  0.4095
 2239SOL    HW2 8722   0.013   3.922   4.447  2.4925 -1.0319  1.0056
 2239SOL    HW3 8723   0.037   4.033   4.347 -2.7029 -0.1036  0.4889
 2239SOL    MW4 8724   0.037   4.003   4.429  0.0084 -0.3113  0.4986
 2240SOL     OW 8725   0.566   5.223   4.821 -0.0055  0.0615  0.2286
 2240SOL    HW2 8726   0.585   5.129   4.813 -1.4025 -0.4058  1.7691
 2240SOL    HW3 8727   0.492   5.227   4.882 -0.6733  2.1150 -0.6305
 2240SOL    MW4 8728   0.559   5.211   4.828 -0.2779  0.2708  0.3185
 2241SOL     OW 8729   4.877   1.179   1.522 -0.2131  0.1097 -0.2960
 2241SOL    HW2 8730   4.920   1.236   1.458  0.1116  0.0481 -0.1377
 2241SOL    HW3 8731   4.785   1.206   1.521 -0.0730  0.5922 -0.2652
 2241SOL    MW4 8732   4.871   1.190   1.513 -0.1518  0.1652 -0.2710
 2242SOL     OW 8733   4.659   1.332   3.474 -0.2830 -0.5239  0.3345
 2242SOL    HW2 8734   4.656   1.258   3.414 -0.4467 -0.8936  0.7925
 2242SOL    HW3 8735   4.575   1.328   3.521 -0.2741 -0.0746  0.3931
 2242SOL    MW4 8736   4.647   1.322   3.473 -0.3034 -0.5134  0.4026
 2243SOL     OW 8737   5.288   5.025   4.882  0.3726 -0.3259  0.3258
 2243SOL    HW2 8738   5.321   4.992   4.966  0.7829 -1.5018 -0.2814
 2243SOL    HW3 8739   5.209   4.974   4.865 -0.9090  1.3386  0.9603
 2243SOL    MW4 8740   5.282   5.014   4.891  0.2577 -0.2614  0.3294
 2244SOL     OW 8741   3.480   6.271   5.828  0.2312  0.3365  0.2070
 2244SOL    HW2 8742   3.539   6.308   5.762  0.1959  1.5183  0.8066
 2244SOL    HW3 8743   3.423   6.212   5.779  1.8882 -0.8559 -0.3897
 2244SOL    MW4 8744   3.480   6.268   5.813  0.4451  0.3351  0.2074
 2245SOL     OW 8745   4.119   2.324   3.137 -0.1575  0.2248 -0.8225
 2245SOL    HW2 8746   4.181   2.317   3.065 -1.2961  0.0814 -1.8288
 2245SOL    HW3 8747   4.097   2.417   3.140  0.0407  0.2613 -0.5294
 2245SOL    MW4 8748   4.124   2.335   3.128 -0.2816  0.2107 -0.9166
 2246SOL     OW 8749   4.417   1.198   0.980  0.3491  0.0100  0.1672
 2246SOL    HW2 8750   4.342   1.220   0.925  0.2370 -1.6786 -0.4098
 2246SOL    HW3 8751   4.379   1.177   1.065  0.0269 -1.5904 -0.3265
 2246SOL    MW4 8752   4.402   1.198   0.984  0.2918 -0.4239  0.0259
 2247SOL     OW 8753   4.589   5.902   4.601  0.1922  0.3059 -0.5073
 2247SOL    HW2 8754   4.670   5.883   4.554 -0.4215  0.3313 -1.5915
 2247SOL    HW3 8755   4.542   5.965   4.546  0.1143  1.5015  0.8402
 2247SOL    MW4 8756   4.593   5.908   4.588  0.1009  0.4670 -0.4726
 2248SOL     OW 8757   3.188   3.404   6.195 -0.0429 -0.3878  0.9869
 2248SOL    HW2 8758   3.195   3.493   6.228 -0.5339 -0.2900  0.8347
 2248SOL    HW3 8759   3.169   3.414   6.102  0.2939 -0.6541  0.8892
 2248SOL    MW4 8760   3.186   3.417   6.187 -0.0633 -0.4100  0.9540
 2249SOL     OW 8761   5.278   5.750   6.009 -0.4004 -0.0384 -0.5555
 2249SOL    HW2 8762   5.334   5.790   5.942  0.5959  0.7903  0.7176
 2249SOL    HW3 8763   5.321   5.772   6.092 -2.8432  1.0298  0.5354
 2249SOL    MW4 8764   5.291   5.758   6.011 -0.5913  0.2119 -0.2436
 2250SOL     OW 8765   5.287   0.857   6.105 -0.1196 -0.2673 -0.4140
 2250SOL    HW2 8766   5.296   0.812   6.189  1.1283  0.8726  0.0846
 2250SOL    HW3 8767   5.194   0.845   6.082 -0.6333 -0.1009  1.4124
 2250SOL    MW4 8768   5.276   0.850   6.113 -0.0227 -0.0949 -0.1073
 2251SOL     OW 8769   5.147   1.627   1.860  0.4093 -0.3106 -0.1008
 2251SOL    HW2 8770   5.155   1.656   1.770 -1.2240 -0.4812 -0.3390
 2251SOL    HW3 8771   5.230   1.651   1.901  0.8309  0.5728 -1.4126
 2251SOL    MW4 8772   5.159   1.634   1.854  0.2494 -0.2165 -0.3053
 2252SOL     OW 8773   2.540   4.163   3.027  0.3074 -0.3133  0.3816
 2252SOL    HW2 8774   2.605   4.109   2.983 -0.0563 -1.5336  1.2796
 2252SOL    HW3 8775   2.521   4.116   3.108 -1.1219  0.4099  0.4961
 2252SOL    MW4 8776   2.546   4.149   3.032  0.0709 -0.3789  0.5152
 2253SOL     OW 8777   6.172   6.374   1.046  0.3599  0.0478  0.1358
 2253SOL    HW2 8778   6.261   6.409   1.057  1.8963 -3.2523 -0.6303
 2253SOL    HW3 8779   6.119   6.450   1.021  3.1625  1.9747 -0.3564
 2253SOL    MW4 8780   6.177   6.389   1.044  0.9324 -0.1334 -0.0302
 2254SOL     OW 8781   3.255   1.894   4.006  0.0705 -0.1913  0.3371
 2254SOL    HW2 8782   3.317   1.829   3.974  1.4924  1.5983 -0.7496
 2254SOL    HW3 8783   3.309   1.960   4.048 -1.2300  0.7662  0.5592
 2254SOL    MW4 8784   3.270   1.894   4.007  0.0865  0.1712  0.2230
 2255SOL     OW 8785  -0.037   5.929   1.360 -0.0778 -0.5158 -0.4345
 2255SOL    HW2 8786  -0.111   5.869   1.367 -0.0449 -0.5838 -0.6712
 2255SOL    HW3 8787  -0.037   5.977   1.443 -3.0580  2.6071 -2.0209
 2255SOL    MW4 8788  -0.047   5.928   1.372 -0.4667 -0.1128 -0.6750
 2256SOL     OW 8789   4.106   2.956   3.703  0.6851  0.3850 -0.1950
 2256SOL    HW2 8790   4.144   2.878   3.662  0.1216 -0.5962  1.0512
 2256SOL    HW3 8791   4.063   3.002   3.632  0.9664 -0.4924 -0.9600
 2256SOL    MW4 8792   4.105   2.952   3.688  0.6479  0.1398 -0.1315
 2257SOL     OW 8793   0.411   2.705   0.814  0.3216 -0.2520 -0.6877
 2257SOL    HW2 8794   0.439   2.767   0.882 -2.0199  0.1418  0.0004
 2257SOL    HW3 8795   0.488   2.650   0.800  1.4631  0.7917  0.9898
 2257SOL    MW4 8796   0.425   2.706   0.821  0.1633 -0.0623 -0.3756
 2258SOL     OW 8797   1.004   5.269   5.101  0.0382  0.9522 -0.2138
 2258SOL    HW2 8798   0.935   5.311   5.050 -4.7333  0.5285  4.9110
 2258SOL    HW3 8799   1.038   5.339   5.157  0.7214  0.3039  0.1956
 2258SOL    MW4 8800   0.999   5.284   5.102 -0.5012  0.8107  0.5163
 2259SOL     OW 8801   4.354   3.534   2.728  0.4201 -0.2338  0.1963
 2259SOL    HW2 8802   4.289   3.547   2.659  0.4466 -2.3302 -0.3141
 2259SOL    HW3 8803   4.302   3.514   2.806  0.3811 -1.6485 -0.1516
 2259SOL    MW4 8804   4.338   3.533   2.729  0.4185 -0.6971  0.0831
 2260SOL     OW 8805   5.915   3.504   2.628 -0.1154  0.0782  0.1953
 2260SOL    HW2 8806   5.857   3.428   2.640  0.9104 -0.5367  1.5043
 2260SOL    HW3 8807   5.941   3.528   2.717 -0.4455  2.0184 -0.1867
 2260SOL    MW4 8808   5.911   3.497   2.641 -0.0236  0.2530  0.3176
 2261SOL     OW 8809   4.520   1.807   2.094  0.2548  0.2307  0.1156
 2261SOL    HW2 8810   4.530   1.749   2.170  3.4490  0.8273  0.2932
 2261SOL    HW3 8811   4.499   1.749   2.021 -1.6101 -0.4893  1.1561
 2261SOL    MW4 8812   4.519   1.792   2.095  0.4302  0.2144  0.2763
 2262SOL     OW 8813   2.060   1.125   3.860 -0.6419 -0.1888 -0.0029
 2262SOL    HW2 8814   2.110   1.109   3.780 -0.9290  0.2316 -0.2688
 2262SOL    HW3 8815   2.082   1.214   3.885 -1.3037  0.0173 -0.1534
 2262SOL    MW4 8816   2.070   1.134   3.853 -0.7671 -0.1061 -0.0579
 2263SOL     OW 8817   4.552   6.375   3.662 -0.0907 -0.0022  0.5495
 2263SOL    HW2 8818   4.531   6.344   3.574  1.0738  0.8992 -0.0803
 2263SOL    HW3 8819   4.474   6.355   3.714 -1.1328  0.2021 -0.8793
 2263SOL    MW4 8820   4.539   6.368   3.658 -0.0745  0.1437  0.2779
 2264SOL     OW 8821   3.529   5.953   0.336  0.4129 -0.1192 -0.3719
 2264SOL    HW2 8822   3.609   5.979   0.381  0.2620 -0.0654 -0.1305
 2264SOL    HW3 8823   3.527   5.857   0.344  0.5574 -0.1383 -0.5580
 2264SOL    MW4 8824   3.539   5.944   0.343  0.4120 -0.1146 -0.3646
 2265SOL     OW 8825   6.196   1.672   1.475 -0.5603  0.5668 -0.3468
 2265SOL    HW2 8826   6.232   1.593   1.516 -0.7162  0.3185 -0.6766
 2265SOL    HW3 8827   6.273   1.725   1.453 -0.4301  0.3393 -0.4497
 2265SOL    MW4 8828   6.211   1.668   1.477 -0.5637  0.5040 -0.4039
 2266SOL     OW 8829   2.165   3.738   1.398  0.0118  0.2017  0.4044
 2266SOL    HW2 8830   2.174   3.826   1.433 -1.0587  0.7389 -0.5736
 2266SOL    HW3 8831   2.139   3.751   1.306  1.4073 -1.1334 -0.2243
 2266SOL    MW4 8832   2.163   3.751   1.390  0.0547  0.0964  0.1924
 2267SOL     OW 8833   0.672   3.952  -0.008  0.2862  0.0598  0.5404
 2267SOL    HW2 8834   0.684   4.024   0.054 -0.1163 -0.9888  1.8904
 2267SOL    HW3 8835   0.593   3.974  -0.056  0.6526  0.9294  0.3160
 2267SOL    MW4 8836   0.663   3.964  -0.006  0.2815  0.0362  0.6889
 2268SOL     OW 8837   5.026   2.748   3.493 -0.2853 -0.3952  0.4377
 2268SOL    HW2 8838   5.108   2.773   3.537 -0.2741 -1.2807  0.9524
 2268SOL    HW3 8839   5.053   2.726   3.404  0.5537 -3.2990  1.2959
 2268SOL    MW4 8840   5.041   2.748   3.487 -0.1732 -0.8952  0.6189
 2269SOL     OW 8841   2.788   6.093   5.461 -0.2629 -0.2967  0.7640
 2269SOL    HW2 8842   2.762   6.001   5.467 -0.4438 -0.1665  2.7086
 2269SOL    HW3 8843   2.742   6.126   5.384  1.1454 -2.2120 -1.0298
 2269SOL    MW4 8844   2.778   6.085   5.452 -0.1010 -0.5323  0.7839
 2270SOL     OW 8845   0.020   0.925   3.061 -0.2568  0.2942  0.7041
 2270SOL    HW2 8846  -0.028   0.850   3.026 -1.0991  0.6683  1.0286
 2270SOL    HW3 8847   0.035   0.903   3.153  1.2117 -0.3188  0.3355
 2270SOL    MW4 8848   0.015   0.912   3.069 -0.1742  0.2627  0.6983
 2271SOL     OW 8849   3.084   5.355   5.873 -0.5098 -0.4331 -0.0003
 2271SOL    HW2 8850   3.015   5.421   5.889  1.8217  1.5353  3.0836
 2271SOL    HW3 8851   3.038   5.271   5.880 -2.7439  0.7766  1.2914
 2271SOL    MW4 8852   3.069   5.353   5.876 -0.4969 -0.0138  0.5770
 2272SOL     OW 8853   1.440   5.789   6.251 -0.3174  0.1353  0.0760
 2272SOL    HW2 8854   1.406   5.700   6.241 -2.2993  0.9361 -0.9795
 2272SOL    HW3 8855   1.451   5.799   6.346 -3.5086 -0.1465  0.6175
 2272SOL    MW4 8856   1.437   5.778   6.262 -0.9999  0.2038  0.0082
 2273SOL     OW 8857   0.346   3.375   2.902  0.1818 -0.3122 -0.0231
 2273SOL    HW2 8858   0.277   3.361   2.837  0.5196  1.3228 -0.8049
 2273SOL    HW3 8859   0.423   3.330   2.866 -0.4659 -2.3092  0.9477
 2273SOL    MW4 8860   0.347   3.367   2.888  0.1409 -0.3599  0.0018
 2274SOL     OW 8861   4.294   1.856   4.915  0.1002  0.3903 -0.4838
 2274SOL    HW2 8862   4.350   1.929   4.940  0.1739  0.0301  0.4471
 2274SOL    HW3 8863   4.208   1.879   4.950  0.3411 -0.4041  0.6803
 2274SOL    MW4 8864   4.290   1.868   4.923  0.1417  0.2380 -0.2074
 2275SOL     OW 8865   4.785   4.662   1.881 -0.1653  0.0328 -0.5723
 2275SOL    HW2 8866   4.703   4.710   1.886 -1.1220 -1.4898 -1.0593
 2275SOL    HW3 8867   4.837   4.696   1.953 -1.3434  0.7955 -0.0519
 2275SOL    MW4 8868   4.781   4.673   1.891 -0.4470 -0.0674 -0.5679
 2276SOL     OW 8869   2.400   3.401   6.043  0.2958  0.0210  0.3221
 2276SOL    HW2 8870   2.375   3.493   6.032 -0.1052 -0.0568  0.5652
 2276SOL    HW3 8871   2.327   3.351   6.007  1.0749 -0.2085 -1.0152
 2276SOL    MW4 8872   2.387   3.406   6.037  0.3457 -0.0195  0.1778
 2277SOL     OW 8873   2.737   1.579   2.669 -0.5794 -0.3240 -0.4618
 2277SOL    HW2 8874   2.709   1.658   2.716 -0.4290 -0.3414 -0.3429
 2277SOL    HW3 8875   2.680   1.575   2.592 -0.5319 -0.0546 -0.5113
 2277SOL    MW4 8876   2.726   1.589   2.665 -0.5533 -0.2908 -0.4526
 2278SOL     OW 8877   0.343   1.406   3.257  0.2550  0.0733  0.4902
 2278SOL    HW2 8878   0.260   1.365   3.279  1.2097 -1.6681  1.0112
 2278SOL    HW3 8879   0.319   1.483   3.206 -1.6927  0.0379  1.2702
 2278SOL    MW4 8880   0.329   1.411   3.253  0.1240 -0.1612  0.6618
 2279SOL     OW 8881   0.554   0.035   2.958  0.2531  0.1769  0.5035
 2279SOL    HW2 8882   0.498   0.113   2.963 -2.1170 -1.4290  0.5935
 2279SOL    HW3 8883   0.532  -0.015   3.037  0.9900 -1.0536 -0.0543
 2279SOL    MW4 8884   0.543   0.039   2.969  0.0376 -0.1973  0.4418
 2280SOL     OW 8885   4.026   1.190   0.086  0.1386  0.5335 -0.0969
 2280SOL    HW2 8886   3.933   1.214   0.076  0.5735  2.2723 -0.2850
 2280SOL    HW3 8887   4.024   1.104   0.128 -1.6116 -1.5059 -3.8143
 2280SOL    MW4 8888   4.013   1.182   0.090 -0.0349  0.4938 -0.6122
 2281SOL     OW 8889   6.302   4.453   0.136  0.6993  0.0001  0.3530
 2281SOL    HW2 8890   6.382   4.498   0.164  0.4871  0.2197  0.6167
 2281SOL    HW3 8891   6.257   4.516   0.081  0.9512 -0.3106 -0.2262
 2281SOL    MW4 8892   6.307   4.467   0.133  0.7045 -0.0119  0.3114
 2282SOL     OW 8893   4.241   2.783   1.239 -0.0069 -0.0327  0.0548
 2282SOL    HW2 8894   4.198   2.701   1.266 -0.5603  0.6390  1.3293
 2282SOL    HW3 8895   4.293   2.808   1.315 -1.3764  1.7973  0.4713
 2282SOL    MW4 8896   4.242   2.776   1.253 -0.2606  0.2974  0.2779
 2283SOL     OW 8897   4.951   2.571   2.495 -0.1368  0.2252  0.5457
 2283SOL    HW2 8898   4.968   2.486   2.536  2.5033 -0.0542 -0.9041
 2283SOL    HW3 8899   4.870   2.558   2.446  1.3135 -2.2588 -1.4648
 2283SOL    MW4 8900   4.943   2.558   2.494  0.4029 -0.1394  0.0892
 2284SOL     OW 8901   1.418   5.305   4.288  0.0100  0.1614  0.0782
 2284SOL    HW2 8902   1.506   5.334   4.310  0.3824 -0.5702 -0.4017
 2284SOL    HW3 8903   1.366   5.323   4.367  0.0447  2.6668 -0.3916
 2284SOL    MW4 8904   1.422   5.311   4.302  0.0637  0.3955 -0.0471
 2285SOL     OW 8905   5.038   5.304   5.882 -0.4692 -0.3643 -0.5029
 2285SOL    HW2 8906   5.105   5.300   5.951 -0.1344  1.2396 -0.6889
 2285SOL    HW3 8907   5.085   5.283   5.801  0.0402  1.4676 -0.7387
 2285SOL    MW4 8908   5.053   5.301   5.880 -0.3578  0.0890 -0.5586
 2286SOL     OW 8909   1.309   1.406   2.434 -0.0809  0.1538  0.0030
 2286SOL    HW2 8910   1.341   1.496   2.439  1.5316 -0.3268 -0.8679
 2286SOL    HW3 8911   1.228   1.406   2.484  0.1108  1.9902  0.3692
 2286SOL    MW4 8912   1.303   1.418   2.441  0.1571  0.3327 -0.0636
 2287SOL     OW 8913   5.467   6.348   5.482  0.0566  0.1016 -0.0744
 2287SOL    HW2 8914   5.377   6.381   5.482 -0.2240 -0.5848  1.1885
 2287SOL    HW3 8915   5.480   6.313   5.394 -0.7398  0.6459 -0.4197
 2287SOL    MW4 8916   5.457   6.348   5.470 -0.0855  0.0829  0.0466
 2288SOL     OW 8917   0.997   2.782   4.500  0.0292  1.2045  0.1855
 2288SOL    HW2 8918   0.952   2.790   4.584  0.4812 -1.3106  0.7324
 2288SOL    HW3 8919   1.089   2.801   4.520  0.3182 -0.4026  0.5355
 2288SOL    MW4 8920   1.004   2.786   4.514  0.1270  0.6607  0.3038
 2289SOL     OW 8921   5.041   4.087   4.356 -0.4011  0.1051 -0.4380
 2289SOL    HW2 8922   5.052   4.031   4.433 -2.6431  1.8451  1.3151
 2289SOL    HW3 8923   5.094   4.046   4.288  0.2732 -2.5253  1.5177
 2289SOL    MW4 8924   5.049   4.074   4.357 -0.6080 -0.0124  0.0513
 2290SOL     OW 8925   0.291   2.054   3.640 -0.0234  0.4666  0.4850
 2290SOL    HW2 8926   0.331   1.967   3.634  1.8109  1.2193  1.2558
 2290SOL    HW3 8927   0.248   2.066   3.555 -0.6776 -1.3384  0.5079
 2290SOL    MW4 8928   0.290   2.044   3.628  0.1323  0.3278  0.5897
 2291SOL     OW 8929   1.233   6.095   0.168  0.3084 -0.3437 -0.1104
 2291SOL    HW2 8930   1.303   6.059   0.113 -0.1806  1.1660 -1.8426
 2291SOL    HW3 8931   1.205   6.174   0.122 -3.5970 -1.6614 -0.4332
 2291SOL    MW4 8932   1.238   6.100   0.154 -0.2714 -0.3184 -0.3815
 2292SOL     OW 8933   0.721   0.981   2.513  0.4947 -0.4360 -0.3272
 2292SOL    HW2 8934   0.814   0.959   2.524  0.6430  0.0667 -0.5427
 2292SOL    HW3 8935   0.693   1.010   2.599  1.0427  1.2402 -0.6752
 2292SOL    MW4 8936   0.730   0.982   2.526  0.5865 -0.1485 -0.4015
 2293SOL     OW 8937   4.045   6.125   1.424  0.5313  0.4794 -0.4042
 2293SOL    HW2 8938   3.958   6.152   1.454 -0.1389 -1.9243  0.0199
 2293SOL    HW3 8939   4.036   6.113   1.330  1.1206  2.5789 -0.7794
 2293SOL    MW4 8940   4.033   6.127   1.415  0.5206  0.4393 -0.3978
 2294SOL     OW 8941   3.936   1.749   2.150  0.4253 -0.1021 -0.5342
 2294SOL    HW2 8942   3.876   1.689   2.106  1.1023 -2.1836  1.2192
 2294SOL    HW3 8943   3.920   1.834   2.108 -2.4487 -0.9224 -1.3322
 2294SOL    MW4 8944   3.926   1.752   2.139  0.1354 -0.4850 -0.4082
 2295SOL     OW 8945   4.517   0.554   6.090 -0.0829 -0.3053 -0.1174
 2295SOL    HW2 8946   4.583   0.493   6.122  0.1483 -0.1920 -0.3779
 2295SOL    HW3 8947   4.528   0.631   6.146  0.1835 -0.1863 -0.3303
 2295SOL    MW4 8948   4.527   0.556   6.102 -0.0172 -0.2746 -0.1798
 2296SOL     OW 8949   5.290   3.063   0.170 -0.8133 -0.0326 -0.3217
 2296SOL    HW2 8950   5.223   3.039   0.105 -0.6873 -0.2925 -0.3575
 2296SOL    HW3 8951   5.355   3.113   0.120 -2.1484  2.3114  0.1694
 2296SOL    MW4 8952   5.290   3.066   0.155 -0.9728  0.2424 -0.2616
 2297SOL     OW 8953   3.199   3.707   4.715 -0.3389  0.2593 -0.0493
 2297SOL    HW2 8954   3.136   3.656   4.767  1.1783  1.2386  2.9775
 2297SOL    HW3 8955   3.269   3.644   4.695  0.5342  0.5220  1.8874
 2297SOL    MW4 8956   3.200   3.692   4.719 -0.0235  0.4232  0.6056
 2298SOL     OW 8957   4.307   1.357   3.859  0.2131  0.4639 -0.7781
 2298SOL    HW2 8958   4.382   1.364   3.919 -0.3393 -3.1370  0.5827
 2298SOL    HW3 8959   4.237   1.406   3.902 -0.3173 -2.4370  2.0372
 2298SOL    MW4 8960   4.308   1.364   3.873  0.0702 -0.3939 -0.2271
 2299SOL     OW 8961   1.021   4.073   0.996  0.1704 -0.0124  0.0674
 2299SOL    HW2 8962   1.108   4.034   1.004  1.3934  2.3353 -0.8722
 2299SOL    HW3 8963   0.963   3.999   0.979  2.2394 -1.4919 -0.9481
 2299SOL    MW4 8964   1.024   4.058   0.995  0.6048  0.1022 -0.1905
 2300SOL     OW 8965   3.261   4.849   4.225 -0.4697 -0.0741 -0.2251
 2300SOL    HW2 8966   3.336   4.878   4.173  0.1123 -0.0605  0.5922
 2300SOL    HW3 8967   3.216   4.930   4.249 -0.8398 -0.0913 -0.8361
 2300SOL    MW4 8968   3.265   4.864   4.221 -0.4417 -0.0746 -0.1979
 2301SOL     OW 8969   2.152   0.563   0.802  0.0909 -0.0951  0.1352
 2301SOL    HW2 8970   2.178   0.594   0.715  0.1758  0.7085  0.4344
 2301SOL    HW3 8971   2.231   0.571   0.855  0.9173 -3.4666 -0.4109
 2301SOL    MW4 8972   2.166   0.568   0.797  0.2111 -0.4339  0.1026
 2302SOL     OW 8973   4.999   2.546   3.990  0.4168  0.1597  0.5326
 2302SOL    HW2 8974   5.062   2.538   3.918 -0.9446  0.5585 -0.7513
 2302SOL    HW3 8975   5.048   2.592   4.059  1.8238 -0.4343 -0.0250
 2302SOL    MW4 8976   5.014   2.551   3.990  0.4228  0.1340  0.2897
 2303SOL     OW 8977   2.763   3.612   5.155 -0.1320 -0.3944  0.0255
 2303SOL    HW2 8978   2.791   3.603   5.246  2.8485 -1.3485 -0.8608
 2303SOL    HW3 8979   2.681   3.562   5.150 -0.1219 -0.7078  2.0471
 2303SOL    MW4 8980   2.756   3.604   5.166  0.2626 -0.5616  0.1753
 2304SOL     OW 8981   3.961   5.801   0.555  0.1705 -0.0046  0.2770
 2304SOL    HW2 8982   3.934   5.788   0.464 -0.6692  0.8071  0.3941
 2304SOL    HW3 8983   4.004   5.887   0.555 -0.3244  0.2492  0.7449
 2304SOL    MW4 8984   3.963   5.811   0.543 -0.0056  0.1360  0.3541
 2305SOL     OW 8985   0.066   5.342   0.702  0.4240 -0.3249 -0.1384
 2305SOL    HW2 8986   0.042   5.275   0.766  0.1591 -1.0754 -1.0064
 2305SOL    HW3 8987   0.146   5.381   0.737 -1.0797  1.1138  1.9898
 2305SOL    MW4 8988   0.073   5.338   0.715  0.1906 -0.2341  0.0279
 2306SOL     OW 8989   2.962   0.128   4.451 -0.2730 -0.0511 -0.0211
 2306SOL    HW2 8990   2.879   0.171   4.432 -0.4281 -0.7737 -1.0342
 2306SOL    HW3 8991   2.957   0.044   4.406  0.1772 -0.9873  1.5996
 2306SOL    MW4 8992   2.950   0.123   4.443 -0.2340 -0.2700  0.0591
 2307SOL     OW 8993   0.391   4.747   3.234 -0.1574 -0.2672 -0.5562
 2307SOL    HW2 8994   0.422   4.746   3.144  2.1899 -1.0752  0.1875
 2307SOL    HW3 8995   0.421   4.831   3.269 -0.9621 -0.0040 -0.4784
 2307SOL    MW4 8996   0.399   4.758   3.227  0.0461 -0.3391 -0.4478
 2308SOL     OW 8997   5.262   5.283   4.039 -0.0065  0.0299 -0.0413
 2308SOL    HW2 8998   5.324   5.229   4.087  1.9237  1.0310 -1.3053
 2308SOL    HW3 8999   5.211   5.327   4.107  0.5935 -0.8576  1.0149
 2308SOL    MW4 9000   5.263   5.282   4.054  0.3273  0.0449 -0.0687
 2309SOL     OW 9001   1.338   5.600   4.282 -0.1549  0.1544  0.3019
 2309SOL    HW2 9002   1.416   5.647   4.251 -0.4577  0.3294 -0.2028
 2309SOL    HW3 9003   1.371   5.514   4.308  0.4924  0.7935  1.7082
 2309SOL    MW4 9004   1.353   5.595   4.281 -0.1095  0.2618  0.4209
 2310SOL     OW 9005   5.084   5.747   3.343 -0.7107 -0.8561  0.1045
 2310SOL    HW2 9006   5.095   5.794   3.426  1.2506 -2.5206  0.8796
 2310SOL    HW3 9007   5.158   5.774   3.290 -1.3769 -0.6171 -0.7204
 2310SOL    MW4 9008   5.095   5.756   3.347 -0.5398 -1.0442  0.0980
 2311SOL     OW 9009   3.047   0.478   6.200  0.4664 -0.0542 -0.5390
 2311SOL    HW2 9010   2.956   0.503   6.184  0.4023 -0.8272 -1.4981
 2311SOL    HW3 9011   3.053   0.469   6.295 -0.6400 -0.6132 -0.5008
 2311SOL    MW4 9012   3.036   0.480   6.210  0.3120 -0.2299 -0.6605
 2312SOL     OW 9013   3.786   1.066   2.692  0.1834  0.1262 -0.2873
 2312SOL    HW2 9014   3.872   1.028   2.674  0.0970 -0.0693 -0.2903
 2312SOL    HW3 9015   3.757   1.023   2.773  1.4003  2.3598  1.4531
 2312SOL    MW4 9016   3.793   1.055   2.701  0.3326  0.3951 -0.0580
 2313SOL     OW 9017   6.374   5.428   6.228 -0.2808  0.7441 -0.0016
 2313SOL    HW2 9018   6.307   5.493   6.207 -0.7435  0.2799  0.0318
 2313SOL    HW3 9019   6.382   5.433   6.324  0.3639  1.4096 -0.0752
 2313SOL    MW4 9020   6.366   5.438   6.238 -0.2568  0.7707 -0.0069
 2314SOL     OW 9021   5.499   6.359   3.264 -0.1732 -0.2108  0.2997
 2314SOL    HW2 9022   5.457   6.431   3.216 -0.8666  0.8236  2.3598
 2314SOL    HW3 9023   5.587   6.353   3.226  0.4781  2.8068  1.0509
 2314SOL    MW4 9024   5.505   6.368   3.252 -0.1787  0.3238  0.6706
 2315SOL     OW 9025   1.973   2.787   3.408  0.0835  0.5266 -0.1456
 2315SOL    HW2 9026   1.913   2.856   3.439 -1.3699 -1.7049  2.4162
 2315SOL    HW3 9027   1.955   2.712   3.464  1.9650 -1.8479 -2.4420
 2315SOL    MW4 9028   1.962   2.786   3.419  0.1400 -0.0811 -0.1106
 2316SOL     OW 9029   5.090   0.363   3.130  0.0348  0.0658 -0.1850
 2316SOL    HW2 9030   5.141   0.431   3.085  0.5196 -1.1486 -1.5358
 2316SOL    HW3 9031   5.122   0.364   3.220  1.0135  0.6832 -0.5257
 2316SOL    MW4 9032   5.101   0.372   3.136  0.2279 -0.0129 -0.4082
 2317SOL     OW 9033   4.279   4.824   0.232  0.9405  0.4458  0.0142
 2317SOL    HW2 9034   4.231   4.748   0.265 -0.6628  0.6759 -1.6396
 2317SOL    HW3 9035   4.361   4.824   0.281 -0.6119 -0.1137  2.8551
 2317SOL    MW4 9036   4.283   4.814   0.243  0.5242  0.4024  0.1708
 2318SOL     OW 9037   4.637   5.611   1.363 -0.5878 -0.2968  0.5796
 2318SOL    HW2 9038   4.668   5.593   1.452  1.2753 -0.7261 -0.1086
 2318SOL    HW3 9039   4.690   5.685   1.334 -0.7152 -0.5729 -0.3963
 2318SOL    MW4 9040   4.648   5.618   1.371 -0.3588 -0.3899  0.3600
 2319SOL     OW 9041   6.003   4.712   4.006 -0.4482 -0.0695  0.3562
 2319SOL    HW2 9042   5.948   4.728   4.083 -0.3018  0.5832  0.3334
 2319SOL    HW3 9043   6.089   4.691   4.042 -1.1666 -3.2286  0.4616
 2319SOL    MW4 9044   6.007   4.712   4.021 -0.5237 -0.4002  0.3671
 2320SOL     OW 9045   1.964   5.167   5.863  0.2238 -0.1183 -0.0046
 2320SOL    HW2 9046   2.047   5.163   5.815  0.6168 -1.0219  0.7000
 2320SOL    HW3 9047   1.956   5.259   5.889  1.4404 -0.1651  0.6257
 2320SOL    MW4 9048   1.974   5.179   5.860  0.4362 -0.2437  0.1715
 2321SOL     OW 9049   5.654   5.784   0.620  0.3830 -0.3986  0.0681
 2321SOL    HW2 9050   5.638   5.702   0.665  1.1238  0.1048  1.2866
 2321SOL    HW3 9051   5.735   5.817   0.658 -1.2290  2.1865  1.5479
 2321SOL    MW4 9052   5.662   5.778   0.631  0.2681  0.0089  0.4241
 2322SOL     OW 9053   1.882   0.115   2.404  0.5148  0.2254  0.5891
 2322SOL    HW2 9054   1.873   0.148   2.315 -0.0166 -0.6263  0.3102
 2322SOL    HW3 9055   1.799   0.137   2.447 -0.2223 -1.4471  0.1326
 2322SOL    MW4 9056   1.870   0.122   2.398  0.3474 -0.1077  0.4921
 2323SOL     OW 9057   4.962   4.493   0.625  0.0050  0.3174  0.2512
 2323SOL    HW2 9058   4.912   4.569   0.654  0.3514  1.0714 -1.0311
 2323SOL    HW3 9059   4.905   4.418   0.642  0.2706  0.6435  3.0098
 2323SOL    MW4 9060   4.948   4.493   0.631  0.0857  0.4599  0.4460
 2324SOL     OW 9061   0.205   2.397   1.794 -0.2345  0.0085  0.6395
 2324SOL    HW2 9062   0.284   2.449   1.810 -1.4110  1.6654  1.3912
 2324SOL    HW3 9063   0.187   2.409   1.700  0.2665 -0.1727  0.5189
 2324SOL    MW4 9064   0.213   2.405   1.783 -0.3236  0.2032  0.7228
 2325SOL     OW 9065   2.962   4.204   2.032  0.0790  0.4467  0.4837
 2325SOL    HW2 9066   2.945   4.280   2.088 -2.7779 -1.1008  1.9465
 2325SOL    HW3 9067   3.014   4.145   2.086  0.8352  0.6222 -0.0334
 2325SOL    MW4 9068   2.967   4.206   2.046 -0.1981  0.2656  0.6085
 2326SOL     OW 9069   5.261   5.519   2.840 -0.4272  1.1816  0.2459
 2326SOL    HW2 9070   5.272   5.602   2.794 -2.6208  1.8784  0.8639
 2326SOL    HW3 9071   5.254   5.544   2.932 -1.2924  0.3462  0.4235
 2326SOL    MW4 9072   5.262   5.533   2.846 -0.8308  1.1633  0.3509
 2327SOL     OW 9073   0.409   1.069   5.856 -0.0184 -0.7238 -0.5015
 2327SOL    HW2 9074   0.320   1.074   5.891  0.2552 -0.5990  0.1835
 2327SOL    HW3 9075   0.411   0.987   5.807  0.3240 -2.1957  1.8500
 2327SOL    MW4 9076   0.397   1.059   5.854  0.0629 -0.9015 -0.1009
 2328SOL     OW 9077   3.246   5.128   0.609 -0.1192 -0.7076  0.9609
 2328SOL    HW2 9078   3.212   5.051   0.564 -0.3487 -0.0837  0.0314
 2328SOL    HW3 9079   3.170   5.186   0.618 -0.0431 -0.7565  2.0364
 2328SOL    MW4 9080   3.232   5.126   0.604 -0.1394 -0.6317  0.9801
 2329SOL     OW 9081   5.263   5.561   3.485 -0.1942 -0.1300 -0.2407
 2329SOL    HW2 9082   5.339   5.598   3.441  1.3195  0.5363  2.6860
 2329SOL    HW3 9083   5.188   5.606   3.445  1.0796  0.8991 -1.6063
 2329SOL    MW4 9084   5.263   5.572   3.474  0.1736  0.0937 -0.0347
 2330SOL     OW 9085   6.109   3.729   0.879 -0.5838  0.4448 -0.3009
 2330SOL    HW2 9086   6.199   3.760   0.861 -0.5815  0.0315 -1.0463
 2330SOL    HW3 9087   6.073   3.796   0.937 -0.0393  1.0145 -0.5918
 2330SOL    MW4 9088   6.116   3.742   0.884 -0.5117  0.4654 -0.4377
 2331SOL     OW 9089   3.132   1.673   0.431 -0.0644  0.2126 -0.3085
 2331SOL    HW2 9090   3.086   1.611   0.375  0.9248  1.3107 -2.4770
 2331SOL    HW3 9091   3.137   1.630   0.516 -0.4867 -2.1251 -1.3918
 2331SOL    MW4 9092   3.127   1.659   0.435  0.0104  0.0491 -0.7376
 2332SOL     OW 9093   0.934   2.277   4.185  0.1010 -0.1844 -0.0404
 2332SOL    HW2 9094   0.927   2.190   4.145  1.5272  0.0227 -0.8070
 2332SOL    HW3 9095   0.892   2.335   4.123  0.3541 -0.1497 -0.1793
 2332SOL    MW4 9096   0.927   2.273   4.172  0.3226 -0.1525 -0.1599
 2333SOL     OW 9097   4.651   4.869   3.684  0.1764 -0.0395  0.3334
 2333SOL    HW2 9098   4.726   4.903   3.635  1.1955 -1.2464  1.0153
 2333SOL    HW3 9099   4.672   4.887   3.775  0.7859 -2.4720  0.7367
 2333SOL    MW4 9100   4.664   4.876   3.689  0.3913 -0.5196  0.4766
 2334SOL     OW 9101   3.884   0.221   0.441  0.4247  0.1686  0.0586
 2334SOL    HW2 9102   3.951   0.237   0.506  0.4611  1.4399 -0.2760
 2334SOL    HW3 9103   3.809   0.273   0.470 -0.1602 -0.6133  0.0020
 2334SOL    MW4 9104   3.883   0.230   0.453  0.3524  0.2332  0.0070
 2335SOL     OW 9105   6.243   6.048   2.609  0.0187  0.1125 -0.2899
 2335SOL    HW2 9106   6.209   6.132   2.578 -0.7974 -0.0254  0.1866
 2335SOL    HW3 9107   6.212   5.985   2.543  0.1533  0.1073 -0.3492
 2335SOL    MW4 9108   6.234   6.051   2.596 -0.0712  0.0936 -0.2349
 2336SOL     OW 9109   3.274   1.983   2.637  0.3071  0.2667 -0.1321
 2336SOL    HW2 9110   3.354   2.027   2.607 -0.1978  0.7715 -0.7650
 2336SOL    HW3 9111   3.267   1.905   2.581 -0.1360  0.7156 -0.7103
 2336SOL    MW4 9112   3.284   1.978   2.626  0.1820  0.3926 -0.2919
 2337SOL     OW 9113   3.378   3.842   0.753  0.2461  0.0384  0.3775
 2337SOL    HW2 9114   3.473   3.853   0.752  0.2896 -0.2623  0.9588
 2337SOL    HW3 9115   3.356   3.828   0.845 -0.1813 -1.5163  0.0665
 2337SOL    MW4 9116   3.387   3.842   0.765  0.1955 -0.2064  0.4132
 2338SOL     OW 9117   5.919   5.919   3.085 -0.0862  0.1113  0.0942
 2338SOL    HW2 9118   5.985   5.872   3.137 -1.1499 -0.6946  0.7727
 2338SOL    HW3 9119   5.845   5.858   3.080 -0.9211  1.1255 -0.3478
 2338SOL    MW4 9120   5.918   5.904   3.091 -0.3367  0.1388  0.1254
 2339SOL     OW 9121   5.064   1.609   4.699 -0.4063  0.0067  0.5651
 2339SOL    HW2 9122   5.125   1.626   4.771  0.7452  0.8640 -0.5625
 2339SOL    HW3 9123   5.081   1.518   4.674  0.3185  0.1888  0.3644
 2339SOL    MW4 9124   5.074   1.599   4.705 -0.1587  0.1438  0.3899
 2340SOL     OW 9125   4.787   3.879   1.022  0.5410 -0.0057  0.1785
 2340SOL    HW2 9126   4.799   3.861   0.929 -2.3480 -4.1131  0.3337
 2340SOL    HW3 9127   4.726   3.953   1.025  0.1400 -0.2559 -1.2036
 2340SOL    MW4 9128   4.781   3.886   1.010  0.1070 -0.5806  0.0166
 2341SOL     OW 9129   2.426   6.132   6.072  0.1370 -0.1030 -0.2154
 2341SOL    HW2 9130   2.348   6.132   6.016 -0.3921  2.1601  0.4190
 2341SOL    HW3 9131   2.495   6.166   6.015  0.1776 -0.1062 -0.1676
 2341SOL    MW4 9132   2.425   6.136   6.057  0.0726  0.1952 -0.1254
 2342SOL     OW 9133   1.549   1.604   2.877 -0.8488  0.3439 -0.9592
 2342SOL    HW2 9134   1.490   1.663   2.829 -1.3894  0.5922 -0.0265
 2342SOL    HW3 9135   1.550   1.640   2.966  0.8073  0.4004 -0.9764
 2342SOL    MW4 9136   1.541   1.617   2.882 -0.7016  0.3841 -0.8384
 2343SOL     OW 9137   0.227   4.667   1.028  0.4813  0.2850 -0.0325
 2343SOL    HW2 9138   0.285   4.605   0.984 -1.1634 -0.5283 -1.1601
 2343SOL    HW3 9139   0.186   4.616   1.098  1.3394  0.9444  0.9758
 2343SOL    MW4 9140   0.229   4.652   1.032  0.3775  0.2647 -0.0482
 2344SOL     OW 9141   3.323   1.578   6.115 -0.2551  0.1532  0.3270
 2344SOL    HW2 9142   3.231   1.603   6.126  0.2551  2.1964  0.2510
 2344SOL    HW3 9143   3.321   1.482   6.109 -2.2802  0.1051  1.1396
 2344SOL    MW4 9144   3.311   1.568   6.115 -0.4550  0.4164  0.4242
 2345SOL     OW 9145   3.622   5.704   5.470  0.0619 -0.2591 -0.4925
 2345SOL    HW2 9146   3.604   5.682   5.378 -0.8192  0.1462 -0.4311
 2345SOL    HW3 9147   3.636   5.799   5.469  2.7151 -0.5803 -0.5903
 2345SOL    MW4 9148   3.621   5.714   5.458  0.2957 -0.2480 -0.4973
 2346SOL     OW 9149   4.243   3.072   5.104  0.0364  0.2424  0.1323
 2346SOL    HW2 9150   4.207   3.074   5.192  1.7055  0.2996  0.8548
 2346SOL    HW3 9151   4.243   2.979   5.080 -1.6823  0.3440 -0.3937
 2346SOL    MW4 9152   4.239   3.060   5.112  0.0299  0.2633  0.1582
 2347SOL     OW 9153   5.303   4.443   5.216  0.0329 -0.0229  0.4782
 2347SOL    HW2 9154   5.398   4.440   5.211  0.0284 -1.0067  0.6149
 2347SOL    HW3 9155   5.284   4.420   5.308 -0.3232  0.5442  0.5485
 2347SOL    MW4 9156   5.313   4.439   5.228 -0.0147 -0.0779  0.5055
 2348SOL     OW 9157   2.100   5.178   2.015  0.2953 -0.3362  0.0351
 2348SOL    HW2 9158   2.055   5.233   2.079  1.0169  0.1428  0.1359
 2348SOL    HW3 9159   2.193   5.191   2.033  0.4959 -0.5395 -0.8231
 2348SOL    MW4 9160   2.106   5.187   2.026  0.4170 -0.2999 -0.0649
 2349SOL     OW 9161   1.682   5.446   1.371 -0.4073 -0.2943  0.0625
 2349SOL    HW2 9162   1.668   5.473   1.280  0.4950 -0.3279 -0.1026
 2349SOL    HW3 9163   1.727   5.520   1.411  1.6293 -1.2740 -0.2595
 2349SOL    MW4 9164   1.686   5.459   1.364 -0.0196 -0.4280 -0.0018
 2350SOL     OW 9165   3.591   0.934   4.974  0.1160  0.3451  0.1628
 2350SOL    HW2 9166   3.598   0.941   5.069 -2.1961 -0.9102  0.4933
 2350SOL    HW3 9167   3.511   0.981   4.952  1.1899  1.5969 -1.3701
 2350SOL    MW4 9168   3.582   0.941   4.984 -0.0474  0.3447  0.0041
 2351SOL     OW 9169   3.578   0.822   4.342 -0.0453 -0.2732 -0.8952
 2351SOL    HW2 9170   3.562   0.752   4.406 -0.8478  0.4007 -0.3377
 2351SOL    HW3 9171   3.522   0.800   4.268  1.4917 -1.5014 -1.7592
 2351SOL    MW4 9172   3.568   0.810   4.341  0.0516 -0.3463 -0.9357
 2352SOL     OW 9173   0.260   3.533   3.169 -0.4428  0.0388 -0.2347
 2352SOL    HW2 9174   0.277   3.485   3.088 -0.1828 -1.8698  0.8841
 2352SOL    HW3 9175   0.322   3.495   3.232 -0.6711  1.4352  0.8688
 2352SOL    MW4 9176   0.271   3.521   3.167 -0.4386 -0.0288  0.0585
 2353SOL     OW 9177   3.020   1.118   5.784  0.2210 -0.3562 -0.3305
 2353SOL    HW2 9178   2.953   1.138   5.719 -1.0317 -1.4915  0.5539
 2353SOL    HW3 9179   2.975   1.128   5.869  1.7223  0.7963  0.3670
 2353SOL    MW4 9180   3.005   1.122   5.787  0.2538 -0.3539 -0.1218
 2354SOL     OW 9181   2.545   4.022   3.889  0.1461 -0.5524  0.1832
 2354SOL    HW2 9182   2.483   4.042   3.819 -0.6949  0.0672  1.0815
 2354SOL    HW3 9183   2.618   3.978   3.845 -0.8481 -1.1469 -0.9238
 2354SOL    MW4 9184   2.546   4.019   3.874 -0.0961 -0.5491  0.1557
 2355SOL     OW 9185   1.668   3.252   2.352  0.0617  0.0950 -0.3347
 2355SOL    HW2 9186   1.658   3.344   2.380 -2.4958 -0.2317  0.0277
 2355SOL    HW3 9187   1.686   3.257   2.258 -0.0704  0.9765 -0.3220
 2355SOL    MW4 9188   1.669   3.265   2.344 -0.2932  0.1682 -0.2852
 2356SOL     OW 9189   0.816   1.963   4.722  0.2264  0.5089 -0.7684
 2356SOL    HW2 9190   0.888   2.005   4.675 -0.3012  2.7309  0.2674
 2356SOL    HW3 9191   0.860   1.911   4.790  0.9235  2.1476  0.1061
 2356SOL    MW4 9192   0.832   1.962   4.725  0.2488  1.0183 -0.5163
 2357SOL     OW 9193   1.911   4.869   5.815  0.4052 -0.0511  0.5986
 2357SOL    HW2 9194   1.877   4.793   5.863  1.7185 -1.4414 -0.5616
 2357SOL    HW3 9195   1.834   4.919   5.791 -0.7148 -2.1396 -0.4332
 2357SOL    MW4 9196   1.897   4.865   5.818  0.4307 -0.5100  0.3094
 2358SOL     OW 9197   2.792   6.227   5.701  0.3704 -0.3281  0.1992
 2358SOL    HW2 9198   2.780   6.188   5.615 -0.8325  0.2228  0.0975
 2358SOL    HW3 9199   2.764   6.318   5.691 -0.8441 -0.5223  1.4044
 2358SOL    MW4 9200   2.787   6.234   5.689  0.0514 -0.2811  0.3448
 2359SOL     OW 9201   4.345   5.050   1.321 -0.0359  0.4362  0.0059
 2359SOL    HW2 9202   4.284   5.110   1.278  0.5456 -0.1854 -1.7653
 2359SOL    HW3 9203   4.297   4.967   1.329  0.2772  0.1893 -0.6169
 2359SOL    MW4 9204   4.331   5.047   1.317  0.0822  0.3216 -0.3099
 2360SOL     OW 9205   3.639   1.969   1.930  0.0220  0.0751 -0.2568
 2360SOL    HW2 9206   3.664   1.895   1.874 -1.5121  0.3248 -1.3240
 2360SOL    HW3 9207   3.614   2.038   1.869 -0.7951  0.6837  0.7382
 2360SOL    MW4 9208   3.639   1.968   1.915 -0.2882  0.1884 -0.2663
 2361SOL     OW 9209   1.126   4.426   6.027 -0.2708 -0.0135  0.2074
 2361SOL    HW2 9210   1.185   4.364   5.984  0.8666 -0.2029  1.9204
 2361SOL    HW3 9211   1.039   4.389   6.015  0.0298 -0.2084 -1.5996
 2361SOL    MW4 9212   1.122   4.413   6.020 -0.0811 -0.0642  0.1950
 2362SOL     OW 9213   5.748   1.514   5.021  0.1210  0.2492 -0.3752
 2362SOL    HW2 9214   5.713   1.558   5.099 -0.5628 -1.6385  0.4453
 2362SOL    HW3 9215   5.692   1.545   4.950 -1.7631 -0.8930  0.5397
 2362SOL    MW4 9216   5.736   1.524   5.022 -0.2178 -0.1506 -0.1462
 2363SOL     OW 9217   4.135   3.956   5.090  0.3479 -0.4016  0.2172
 2363SOL    HW2 9218   4.122   3.904   5.010  0.3802  1.0181 -0.7651
 2363SOL    HW3 9219   4.054   4.006   5.100  0.2381 -0.7700  1.2496
 2363SOL    MW4 9220   4.123   3.956   5.080  0.3377 -0.2629  0.2238
 2364SOL     OW 9221   3.886   1.140   5.333  0.0707  0.3148  0.0701
 2364SOL    HW2 9222   3.844   1.226   5.326  1.6440  1.0863 -0.3151
 2364SOL    HW3 9223   3.938   1.133   5.253 -1.3503 -1.7742 -0.7655
 2364SOL    MW4 9224   3.887   1.151   5.321  0.0908  0.1410 -0.0910
 2365SOL     OW 9225   1.414   4.180   0.650  0.0437  0.6334  0.3645
 2365SOL    HW2 9226   1.350   4.110   0.638  1.3371 -0.6224  0.5250
 2365SOL    HW3 9227   1.425   4.187   0.744 -0.1527  1.1362  0.3527
 2365SOL    MW4 9228   1.407   4.172   0.661  0.1884  0.5340  0.3841
 2366SOL     OW 9229   0.901   3.434   4.559  0.4681 -0.4270  0.2345
 2366SOL    HW2 9230   0.811   3.443   4.592  0.4663  0.9799 -0.0925
 2366SOL    HW3 9231   0.916   3.339   4.557 -1.9639 -0.8954 -2.2754
 2366SOL    MW4 9232   0.891   3.423   4.563  0.1470 -0.3031 -0.1397
 2367SOL     OW 9233   2.706   0.614   1.759  0.1125 -0.6021 -0.1468
 2367SOL    HW2 9234   2.791   0.586   1.725 -0.0296 -0.3927 -0.6855
 2367SOL    HW3 9235   2.720   0.623   1.853  0.9353  0.2955 -0.3415
 2367SOL    MW4 9236   2.719   0.611   1.767  0.2023 -0.4560 -0.2435
 2368SOL     OW 9237   1.618   0.472   5.685 -0.7176  0.1057 -0.0529
 2368SOL    HW2 9238   1.604   0.432   5.599  2.3257 -2.0344  0.2972
 2368SOL    HW3 9239   1.631   0.399   5.745  0.3440  1.5497  1.6097
 2368SOL    MW4 9240   1.618   0.457   5.681 -0.1760  0.0138  0.2126
 2369SOL     OW 9241   2.120   0.267   3.883  0.8002 -0.3158  0.0070
 2369SOL    HW2 9242   2.031   0.248   3.852  0.7046 -1.3623  0.8679
 2369SOL    HW3 9243   2.174   0.256   3.805  0.3384 -1.0777 -0.2267
 2369SOL    MW4 9244   2.115   0.263   3.869  0.7266 -0.5544  0.0897
 2370SOL     OW 9245   3.587   0.596   3.657  0.1423 -0.1709  0.8110
 2370SOL    HW2 9246   3.584   0.685   3.692  1.8601 -0.5049  1.9166
 2370SOL    HW3 9247   3.563   0.540   3.731  0.4336 -0.7081  0.5057
 2370SOL    MW4 9248   3.583   0.600   3.671  0.4074 -0.2858  0.9166
 2371SOL     OW 9249   5.202   4.874   6.396  0.0701  0.4428 -0.2718
 2371SOL    HW2 9250   5.130   4.873   6.333 -0.5018  0.0232  0.3805
 2371SOL    HW3 9251   5.257   4.801   6.371  0.3376  0.8312 -0.8410
 2371SOL    MW4 9252   5.200   4.864   6.384  0.0299  0.4387 -0.2608
 2372SOL     OW 9253   4.683   0.929   2.849  0.0725  0.1858 -0.1620
 2372SOL    HW2 9254   4.667   0.953   2.758 -1.1808 -0.0133 -0.0064
 2372SOL    HW3 9255   4.690   1.012   2.896 -0.5797  0.2769 -0.2275
 2372SOL    MW4 9256   4.682   0.943   2.844 -0.1789  0.1715 -0.1501
 2373SOL     OW 9257   6.213   1.865   5.454 -0.2674 -0.4222 -0.2270
 2373SOL    HW2 9258   6.206   1.815   5.373  2.0144 -0.9103 -0.1846
 2373SOL    HW3 9259   6.205   1.957   5.427 -1.6563 -0.6398 -0.6665
 2373SOL    MW4 9260   6.211   1.871   5.440 -0.1496 -0.5153 -0.2794
 2374SOL     OW 9261   3.597   4.889   4.495  0.1696 -0.6437 -0.4615
 2374SOL    HW2 9262   3.641   4.962   4.452  2.1485 -1.7857 -0.4917
 2374SOL    HW3 9263   3.624   4.896   4.587  0.0961 -1.1397 -0.4014
 2374SOL    MW4 9264   3.606   4.900   4.502  0.4210 -0.8598 -0.4575
 2375SOL     OW 9265   3.580   1.521   4.407  0.1422 -0.2694  0.3449
 2375SOL    HW2 9266   3.660   1.555   4.447  0.1513 -1.0756  1.0472
 2375SOL    HW3 9267   3.601   1.515   4.313  0.4951  0.6294  0.3623
 2375SOL    MW4 9268   3.593   1.524   4.400  0.1900 -0.2572  0.4398
 2376SOL     OW 9269   4.104   2.946   3.974  0.3651 -0.1880  0.6107
 2376SOL    HW2 9270   4.195   2.971   3.990 -0.0948  1.7220  0.5221
 2376SOL    HW3 9271   4.097   2.938   3.879  0.7784 -1.8210  0.7042
 2376SOL    MW4 9272   4.115   2.948   3.963  0.3589 -0.1514  0.6114
 2377SOL     OW 9273   4.425   0.829   3.404 -0.0079  0.0963  0.3015
 2377SOL    HW2 9274   4.440   0.776   3.326  0.2896  0.6647 -0.0314
 2377SOL    HW3 9275   4.349   0.789   3.446 -0.1104 -0.2690 -0.2251
 2377SOL    MW4 9276   4.417   0.817   3.399  0.0178  0.1231  0.1881
 2378SOL     OW 9277   5.415   0.080   6.138  0.0984 -0.1635  0.1587
 2378SOL    HW2 9278   5.405  -0.006   6.099  0.0947 -1.0407  1.9876
 2378SOL    HW3 9279   5.507   0.102   6.125  0.6915 -1.5401  1.7517
 2378SOL    MW4 9280   5.426   0.072   6.131  0.1761 -0.4609  0.6102
 2379SOL     OW 9281   5.737   1.891   6.021  0.2939 -0.4755  0.1386
 2379SOL    HW2 9282   5.691   1.890   6.105  2.0794  1.8504  1.2821
 2379SOL    HW3 9283   5.826   1.864   6.043  0.6083 -0.5220 -1.1481
 2379SOL    MW4 9284   5.743   1.887   6.035  0.5709 -0.1748  0.1197
 2380SOL     OW 9285   5.829   6.307   5.702  0.1945 -0.6945 -0.0018
 2380SOL    HW2 9286   5.834   6.324   5.796  1.2669  0.3313 -0.2273
 2380SOL    HW3 9287   5.920   6.293   5.675 -0.2334 -2.5580 -0.6299
 2380SOL    MW4 9288   5.842   6.307   5.711  0.2795 -0.8050 -0.1144
 2381SOL     OW 9289   3.380   5.479   2.252 -0.0237  0.2006 -0.4511
 2381SOL    HW2 9290   3.290   5.479   2.220 -0.5654  0.6122  0.9601
 2381SOL    HW3 9291   3.426   5.542   2.197 -0.6232  0.0440 -1.1378
 2381SOL    MW4 9292   3.374   5.487   2.241 -0.1743  0.2342 -0.3555
 2382SOL     OW 9293   1.085   5.648   4.499  0.4284 -0.1343  0.0608
 2382SOL    HW2 9294   1.049   5.734   4.481 -2.4721 -1.2906 -0.1375
 2382SOL    HW3 9295   1.049   5.624   4.584  0.5332 -1.4672 -0.2478
 2382SOL    MW4 9296   1.076   5.656   4.508  0.0596 -0.4627 -0.0061
 2383SOL     OW 9297   3.169   5.611   4.037  0.0958 -0.1284  0.5232
 2383SOL    HW2 9298   3.183   5.537   3.977  0.0998 -0.0017  0.3652
 2383SOL    HW3 9299   3.256   5.632   4.070  0.2272  0.3923 -0.1373
 2383SOL    MW4 9300   3.182   5.604   4.033  0.1136 -0.0430  0.4152
 2384SOL     OW 9301   1.350   6.427   6.127 -0.3713 -0.2223 -0.6258
 2384SOL    HW2 9302   1.352   6.403   6.220  0.1719 -0.6225 -0.7356
 2384SOL    HW3 9303   1.395   6.512   6.123 -1.5384  0.4316 -0.3544
 2384SOL    MW4 9304   1.356   6.435   6.139 -0.4537 -0.1889 -0.6044
 2385SOL     OW 9305   2.634   0.916   1.268 -0.3440  0.5354  0.2399
 2385SOL    HW2 9306   2.708   0.925   1.209  0.0542 -2.7987  0.0407
 2385SOL    HW3 9307   2.673   0.911   1.355 -0.0243 -2.5973  0.0411
 2385SOL    MW4 9308   2.649   0.916   1.272 -0.2493 -0.3178  0.1874
 2386SOL     OW 9309   5.870   3.464   5.660  0.1761 -0.4731 -0.0430
 2386SOL    HW2 9310   5.928   3.388   5.660 -0.1662 -0.8665  3.2299
 2386SOL    HW3 9311   5.783   3.427   5.645  0.2394 -0.4181 -0.5845
 2386SOL    MW4 9312   5.866   3.449   5.658  0.1393 -0.5178  0.3174
 2387SOL     OW 9313   3.956   3.137   5.992 -0.3427  0.1883  0.1633
 2387SOL    HW2 9314   3.937   3.131   6.086 -0.5594  0.1758  0.1198
 2387SOL    HW3 9315   3.956   3.047   5.961 -1.0336  0.2355  0.0060
 2387SOL    MW4 9316   3.954   3.124   6.000 -0.4624  0.1929  0.1368
 2388SOL     OW 9317   1.438   2.650   5.184  0.5412  0.4432 -0.4896
 2388SOL    HW2 9318   1.379   2.648   5.259 -1.4508 -0.4454 -1.9935
 2388SOL    HW3 9319   1.469   2.741   5.180 -2.1359  1.4159 -0.6665
 2388SOL    MW4 9320   1.435   2.662   5.194 -0.0748  0.4543 -0.7114
 2389SOL     OW 9321   1.071   5.462   1.544 -0.1374  0.2128 -0.3143
 2389SOL    HW2 9322   1.110   5.389   1.496 -0.5268 -0.2327  0.0384
 2389SOL    HW3 9323   0.982   5.468   1.510 -0.7403 -0.7451  1.0336
 2389SOL    MW4 9324   1.065   5.453   1.533 -0.2683  0.0276 -0.0899
 2390SOL     OW 9325   4.885   3.830   5.839  0.2406 -0.0678  0.2687
 2390SOL    HW2 9326   4.946   3.865   5.904 -0.4627  1.6947  0.0278
 2390SOL    HW3 9327   4.800   3.829   5.883  0.2342 -1.5976  0.2863
 2390SOL    MW4 9328   4.882   3.835   5.853  0.1470 -0.0371  0.2392
 2391SOL     OW 9329   1.284   1.529   0.348 -0.0650  0.1385 -0.1159
 2391SOL    HW2 9330   1.325   1.488   0.272  0.1431 -0.2646  0.2129
 2391SOL    HW3 9331   1.251   1.613   0.315 -0.9343 -0.4977 -0.9160
 2391SOL    MW4 9332   1.285   1.535   0.334 -0.1522  0.0014 -0.1781
 2392SOL     OW 9333   1.488   2.201   3.240 -0.5005  0.8775 -0.9281
 2392SOL    HW2 9334   1.517   2.111   3.221 -1.9496  0.7805 -3.1545
 2392SOL    HW3 9335   1.494   2.209   3.335 -0.4887 -1.6449 -0.6418
 2392SOL    MW4 9336   1.493   2.190   3.250 -0.6902  0.5319 -1.1840
 2393SOL     OW 9337   6.221   6.365   3.539 -0.1805  0.6354  0.2710
 2393SOL    HW2 9338   6.210   6.413   3.457  0.1404  0.8015  0.3236
 2393SOL    HW3 9339   6.222   6.273   3.513 -0.6288  0.6620  0.1513
 2393SOL    MW4 9340   6.219   6.359   3.525 -0.1973  0.6608  0.2621
 2394SOL     OW 9341   5.351   4.612   4.173  0.0599  0.0999 -0.2392
 2394SOL    HW2 9342   5.291   4.629   4.100 -0.2163  2.2373  0.4048
 2394SOL    HW3 9343   5.438   4.631   4.137 -0.0856  1.2598 -0.0347
 2394SOL    MW4 9344   5.355   4.617   4.159  0.0043  0.5350 -0.1272
 2395SOL     OW 9345   2.424   5.688   5.317  0.0410  0.2515 -0.1256
 2395SOL    HW2 9346   2.413   5.756   5.383 -0.1313 -0.5871  0.7240
 2395SOL    HW3 9347   2.381   5.723   5.239 -0.5041  0.8916  0.4528
 2395SOL    MW4 9348   2.417   5.702   5.315 -0.0537  0.2253  0.0628
 2396SOL     OW 9349   1.746   2.945   0.685  0.5408 -0.8630  0.3090
 2396SOL    HW2 9350   1.741   2.869   0.627 -0.0419  0.2684 -1.1880
 2396SOL    HW3 9351   1.836   2.946   0.717  1.0776 -1.1297 -1.1466
 2396SOL    MW4 9352   1.757   2.935   0.682  0.5347 -0.7489 -0.0805
 2397SOL     OW 9353   6.199   4.271   3.233  0.5096 -0.0732  0.0522
 2397SOL    HW2 9354   6.229   4.359   3.212 -0.7019  0.4396  0.3796
 2397SOL    HW3 9355   6.232   4.254   3.322  1.2293 -0.1956 -0.2287
 2397SOL    MW4 9356   6.207   4.280   3.242  0.4447 -0.0217  0.0584
 2398SOL     OW 9357   0.957   1.838   3.082  0.0306 -0.2224 -0.1082
 2398SOL    HW2 9358   1.042   1.869   3.112  0.1191 -1.5800  1.1711
 2398SOL    HW3 9359   0.964   1.743   3.084 -0.9112 -0.3643 -1.8272
 2398SOL    MW4 9360   0.969   1.830   3.086 -0.0820 -0.4203 -0.1662
 2399SOL     OW 9361   6.016   5.971   2.326  0.0146  0.1009  0.7478
 2399SOL    HW2 9362   6.012   6.048   2.383 -2.2741  0.6108  0.0094
 2399SOL    HW3 9363   5.929   5.931   2.334  0.5826 -1.4107 -0.2431
 2399SOL    MW4 9364   6.004   5.976   2.335 -0.2124 -0.0313  0.5197
 2400SOL     OW 9365   0.790   3.207   5.717  0.2945 -0.3199 -0.2241
 2400SOL    HW2 9366   0.877   3.174   5.736  0.9361  0.3837 -1.7832
 2400SOL    HW3 9367   0.798   3.250   5.632 -1.6046 -0.3539 -0.4725
 2400SOL    MW4 9368   0.802   3.209   5.708  0.1286 -0.2315 -0.4626
 2401SOL     OW 9369   2.860   2.532   5.311  0.2779 -0.3101  0.3055
 2401SOL    HW2 9370   2.842   2.557   5.221  2.0553 -0.3075 -0.0755
 2401SOL    HW3 9371   2.923   2.597   5.342 -0.0745 -0.4946  1.4602
 2401SOL    MW4 9372   2.866   2.544   5.304  0.4659 -0.3341  0.4076
 2402SOL     OW 9373   4.215   5.182   3.207 -0.1589 -0.0451 -0.0210
 2402SOL    HW2 9374   4.241   5.230   3.286  0.9478 -2.3469  1.0859
 2402SOL    HW3 9375   4.120   5.173   3.215  0.0583 -1.2353  1.6672
 2402SOL    MW4 9376   4.206   5.187   3.218  0.0158 -0.5059  0.3478
 2403SOL     OW 9377   4.539   1.354   5.344 -0.1007 -0.0371 -0.3167
 2403SOL    HW2 9378   4.472   1.294   5.312 -0.3212  0.0205  0.0309
 2403SOL    HW3 9379   4.603   1.359   5.272 -0.3731 -0.2340 -0.5765
 2403SOL    MW4 9380   4.539   1.347   5.330 -0.1657 -0.0555 -0.3051
 2404SOL     OW 9381   4.832   4.432   0.104  0.1522 -0.0794  0.2527
 2404SOL    HW2 9382   4.750   4.430   0.152  0.8319  3.0351  1.8266
 2404SOL    HW3 9383   4.900   4.418   0.171  1.0523  2.7639  0.0601
 2404SOL    MW4 9384   4.830   4.430   0.119  0.3607  0.7067  0.4349
 2405SOL     OW 9385   2.240   2.522   6.194 -0.0065  0.2063 -0.3297
 2405SOL    HW2 9386   2.328   2.555   6.174  0.7863 -1.3731  0.3914
 2405SOL    HW3 9387   2.195   2.597   6.234  0.8781  1.1414 -1.0216
 2405SOL    MW4 9388   2.246   2.536   6.196  0.2148  0.1213 -0.3259
 2406SOL     OW 9389   4.781   0.269   3.827 -0.1449  0.0448 -0.1061
 2406SOL    HW2 9390   4.745   0.274   3.739 -0.1903 -0.2097 -0.1027
 2406SOL    HW3 9391   4.768   0.178   3.853  0.6210 -0.0872 -0.1523
 2406SOL    MW4 9392   4.775   0.258   3.819 -0.0498 -0.0062 -0.1118
 2407SOL     OW 9393   5.397   0.447   6.181 -0.3510  0.1724 -0.1857
 2407SOL    HW2 9394   5.408   0.400   6.098  2.3590  1.3489 -0.5927
 2407SOL    HW3 9395   5.395   0.379   6.248  0.1997 -0.6781 -1.0176
 2407SOL    MW4 9396   5.398   0.432   6.179  0.0792  0.2154 -0.3492
 2408SOL     OW 9397   4.810   4.425   2.809  0.1466  0.5680 -0.0775
 2408SOL    HW2 9398   4.741   4.485   2.839  0.2221  0.8058 -0.3807
 2408SOL    HW3 9399   4.887   4.448   2.861  0.0060  0.3098  0.2538
 2408SOL    MW4 9400   4.811   4.436   2.820  0.1380  0.5653 -0.0738
 2409SOL     OW 9401   2.621   4.725   1.256 -0.3368 -0.1530  0.7077
 2409SOL    HW2 9402   2.577   4.642   1.271 -2.6927  0.4269 -2.0246
 2409SOL    HW3 9403   2.554   4.792   1.274  0.2150  0.9042 -0.8854
 2409SOL    MW4 9404   2.606   4.723   1.260 -0.5748  0.0630  0.1370
 2410SOL     OW 9405   5.469   3.239   1.511 -0.5295  0.2469 -0.1840
 2410SOL    HW2 9406   5.404   3.310   1.510  0.0563  0.8212  0.6206
 2410SOL    HW3 9407   5.426   3.168   1.558 -1.0346  0.1483 -0.7802
 2410SOL    MW4 9408   5.455   3.239   1.517 -0.5188  0.3096 -0.1565
 2411SOL     OW 9409   5.336   0.092   2.791 -0.2447 -0.0134 -0.0572
 2411SOL    HW2 9410   5.288   0.111   2.711  1.2362  2.1622 -0.5348
 2411SOL    HW3 9411   5.364   0.178   2.823  1.5663 -1.0139  1.2686
 2411SOL    MW4 9412   5.333   0.106   2.785  0.1897  0.1416  0.0547
 2412SOL     OW 9413   3.298   1.295   0.430 -0.4246  0.0339  0.6646
 2412SOL    HW2 9414   3.324   1.358   0.362 -1.5436  0.2223  0.3973
 2412SOL    HW3 9415   3.381   1.254   0.457  0.0564  0.0343 -0.7290
 2412SOL    MW4 9416   3.313   1.298   0.425 -0.5088  0.0588  0.4454
 2413SOL     OW 9417   3.118   1.548   1.086 -0.3334 -0.9773 -0.9798
 2413SOL    HW2 9418   3.161   1.511   1.008  1.6706  1.0139 -0.9324
 2413SOL    HW3 9419   3.085   1.633   1.057 -0.1826 -0.5191  0.1487
 2413SOL    MW4 9420   3.120   1.554   1.072 -0.0491 -0.6541 -0.8247
 2414SOL     OW 9421   5.071   0.002   5.272  0.2408  0.2198 -0.1863
 2414SOL    HW2 9422   5.061   0.057   5.194  1.9384  0.7639 -0.0735
 2414SOL    HW3 9423   5.090  -0.085   5.238 -2.5741 -0.4010 -0.3690
 2414SOL    MW4 9424   5.072  -0.002   5.258  0.0934  0.2097 -0.1955
 2415SOL     OW 9425   2.898   0.060   5.823 -0.0786  0.1415  0.2385
 2415SOL    HW2 9426   2.859   0.103   5.747  0.0958  0.6311  0.4248
 2415SOL    HW3 9427   2.833   0.069   5.892 -0.7050 -1.2379 -0.1220
 2415SOL    MW4 9428   2.885   0.067   5.822 -0.1383  0.0241  0.2155
 2416SOL     OW 9429   2.312   2.807   5.916  0.0981  0.4692 -0.2173
 2416SOL    HW2 9430   2.314   2.882   5.975  1.7401  1.2351 -1.2071
 2416SOL    HW3 9431   2.358   2.738   5.964 -2.8644 -0.5639  1.4171
 2416SOL    MW4 9432   2.318   2.808   5.930 -0.0761  0.4339 -0.1323
 2417SOL     OW 9433   3.485   3.283   1.043 -0.0032  0.3455 -0.2564
 2417SOL    HW2 9434   3.535   3.222   0.989  0.7608  0.9447 -0.2352
 2417SOL    HW3 9435   3.448   3.346   0.981  0.7009  0.9113 -0.1061
 2417SOL    MW4 9436   3.487   3.283   1.028  0.1905  0.4992 -0.2338
 2418SOL     OW 9437   3.086   3.435   2.558 -0.1565 -0.3634 -1.3352
 2418SOL    HW2 9438   3.119   3.348   2.538 -0.1047 -1.3034  2.2200
 2418SOL    HW3 9439   3.163   3.492   2.550  0.6551 -1.2734 -0.4019
 2418SOL    MW4 9440   3.101   3.431   2.554 -0.0426 -0.6075 -0.7430
 2419SOL     OW 9441   1.562   0.535   2.627 -0.4283  0.3871 -0.7387
 2419SOL    HW2 9442   1.482   0.485   2.608 -1.6411  2.0769 -0.2639
 2419SOL    HW3 9443   1.575   0.525   2.721 -0.1819  0.2800 -0.7822
 2419SOL    MW4 9444   1.553   0.527   2.636 -0.5558  0.5959 -0.6818
 2420SOL     OW 9445   2.522   0.533   2.587 -0.0986  0.3218  0.1895
 2420SOL    HW2 9446   2.428   0.513   2.588 -0.2152  0.3402 -2.7062
 2420SOL    HW3 9447   2.564   0.451   2.612 -0.8440 -0.3022 -0.5621
 2420SOL    MW4 9448   2.515   0.520   2.591 -0.2123  0.2419 -0.2917
 2421SOL     OW 9449   4.399   6.306   1.193 -0.0595 -0.4827 -0.4251
 2421SOL    HW2 9450   4.328   6.319   1.255 -0.3908  0.3747 -0.9623
 2421SOL    HW3 9451   4.458   6.245   1.236 -0.9640 -0.9616  0.1570
 2421SOL    MW4 9452   4.398   6.300   1.206 -0.2226 -0.4328 -0.4192
 2422SOL     OW 9453   0.289   3.087   0.266  0.0096 -0.3509 -0.3279
 2422SOL    HW2 9454   0.373   3.071   0.222  0.4933 -0.1926  0.5128
 2422SOL    HW3 9455   0.289   3.181   0.284 -0.2820 -0.3760 -0.1873
 2422SOL    MW4 9456   0.300   3.098   0.262  0.0350 -0.3334 -0.1984
 2423SOL     OW 9457   1.233   0.249   5.886  0.2652  0.2061  0.6552
 2423SOL    HW2 9458   1.312   0.200   5.861  1.2484  1.1093  1.8919
 2423SOL    HW3 9459   1.188   0.264   5.803  1.9993  0.6823 -0.2547
 2423SOL    MW4 9460   1.237   0.245   5.871  0.6237  0.3881  0.6983
 2424SOL     OW 9461   5.989   4.178   6.154 -0.0347 -0.8151 -0.6341
 2424SOL    HW2 9462   5.968   4.222   6.237 -1.3971 -0.1272 -1.3120
 2424SOL    HW3 9463   6.072   4.134   6.171  0.7165  0.9250  0.5152
 2424SOL    MW4 9464   5.997   4.178   6.167 -0.1154 -0.4948 -0.5719
 2425SOL     OW 9465   2.657   1.930   5.374  0.8754  0.1573  0.0226
 2425SOL    HW2 9466   2.667   1.899   5.464 -0.3461  0.3762  0.2511
 2425SOL    HW3 9467   2.576   1.890   5.343  0.8259  0.7702 -0.6846
 2425SOL    MW4 9468   2.648   1.921   5.381  0.7077  0.2670 -0.0405
 2426SOL     OW 9469   0.299   6.078   5.039 -0.1054  0.3181 -0.2125
 2426SOL    HW2 9470   0.340   6.106   5.120 -0.8820 -2.7477  1.3971
 2426SOL    HW3 9471   0.372   6.067   4.978  1.2511 -2.1666  1.6795
 2426SOL    MW4 9472   0.315   6.080   5.041 -0.0289 -0.4142  0.2495
 2427SOL     OW 9473   5.930   3.806   5.826 -0.1740  0.8991  0.1591
 2427SOL    HW2 9474   5.996   3.784   5.892 -1.0474 -0.3278  0.6730
 2427SOL    HW3 9475   5.860   3.742   5.841  0.8459 -1.5752 -3.8874
 2427SOL    MW4 9476   5.930   3.794   5.837 -0.1546  0.4108 -0.3070
 2428SOL     OW 9477   1.335   4.136   1.611  0.2937 -0.5903 -0.5315
 2428SOL    HW2 9478   1.418   4.162   1.571  0.4360  0.0408  0.1406
 2428SOL    HW3 9479   1.357   4.121   1.703 -0.4678  0.2802 -0.1974
 2428SOL    MW4 9480   1.349   4.137   1.618  0.2120 -0.3922 -0.3987
 2429SOL     OW 9481   6.302   1.270   1.181 -0.7066 -0.6047  0.2656
 2429SOL    HW2 9482   6.227   1.322   1.155  0.5726  1.6871  0.8495
 2429SOL    HW3 9483   6.376   1.312   1.137  0.8989  0.5538  3.6822
 2429SOL    MW4 9484   6.302   1.283   1.172 -0.3260 -0.1495  0.7934
 2430SOL     OW 9485   5.084   5.440   3.217  0.7376 -0.1650 -1.2128
 2430SOL    HW2 9486   5.061   5.436   3.310 -1.8489 -1.9162 -1.8006
 2430SOL    HW3 9487   5.173   5.475   3.215  1.1705 -0.7897  1.9566
 2430SOL    MW4 9488   5.093   5.444   3.229  0.4535 -0.4785 -0.8722
 2431SOL     OW 9489   5.937   1.553  -0.026 -0.1798  0.1095  0.0923
 2431SOL    HW2 9490   6.016   1.527   0.021 -1.6780 -1.5316  1.8768
 2431SOL    HW3 9491   5.955   1.529  -0.117  1.1377 -0.8579  0.5715
 2431SOL    MW4 9492   5.950   1.547  -0.032 -0.2036 -0.2346  0.3909
 2432SOL     OW 9493   2.608   3.561   4.882  0.1811 -0.4260  0.3898
 2432SOL    HW2 9494   2.615   3.475   4.924  1.3584 -1.1139 -1.0983
 2432SOL    HW3 9495   2.557   3.543   4.802  0.8508  0.1448 -0.1755
 2432SOL    MW4 9496   2.602   3.547   4.877  0.4248 -0.4414  0.1189
 2433SOL     OW 9497   2.164   4.710   0.384  0.0876 -1.1444 -1.0196
 2433SOL    HW2 9498   2.238   4.761   0.350 -1.4039  2.0252  0.1482
 2433SOL    HW3 9499   2.175   4.713   0.479 -0.6732 -2.0589 -0.8883
 2433SOL    MW4 9500   2.176   4.717   0.392 -0.2096 -0.8468 -0.8482
 2434SOL     OW 9501   3.587   5.198   2.284  0.3708  0.0394  0.1317
 2434SOL    HW2 9502   3.596   5.104   2.267 -1.2618 -0.7950  3.1142
 2434SOL    HW3 9503   3.503   5.222   2.246  0.1874 -0.0403  0.4803
 2434SOL    MW4 9504   3.577   5.189   2.277  0.1312 -0.0812  0.5712
 2435SOL     OW 9505   0.080   0.807   2.533  0.0348  0.0899 -0.1088
 2435SOL    HW2 9506   0.105   0.900   2.526  1.2688 -0.2618 -0.7806
 2435SOL    HW3 9507  -0.016   0.808   2.534  0.0280  1.3882  0.1548
 2435SOL    MW4 9508   0.071   0.820   2.532  0.1967  0.2148 -0.1626
 2436SOL     OW 9509   1.505   3.503   0.345  0.1636 -0.3137 -0.1907
 2436SOL    HW2 9510   1.541   3.564   0.280  0.8334 -0.9541 -0.4289
 2436SOL    HW3 9511   1.535   3.537   0.429  1.2356 -0.7575 -0.3754
 2436SOL    MW4 9512   1.514   3.516   0.348  0.3935 -0.4568 -0.2465
 2437SOL     OW 9513   3.287   5.418   5.686 -0.0211 -0.6080  0.1615
 2437SOL    HW2 9514   3.222   5.412   5.756 -0.1022  2.8612  0.5960
 2437SOL    HW3 9515   3.237   5.408   5.605 -0.8935  0.5022  0.5320
 2437SOL    MW4 9516   3.272   5.416   5.685 -0.1469 -0.0038  0.2677
 2438SOL     OW 9517   3.052   5.399   6.241 -0.7791 -0.4957 -0.3979
 2438SOL    HW2 9518   3.037   5.309   6.213  0.0453 -1.2058  1.2719
 2438SOL    HW3 9519   3.005   5.452   6.178  0.4280 -1.9741 -2.6722
 2438SOL    MW4 9520   3.044   5.394   6.229 -0.5110 -0.7844 -0.4776
 2439SOL     OW 9521   5.425   1.065   2.526  0.0591 -0.0703 -0.4778
 2439SOL    HW2 9522   5.412   1.010   2.449  0.9087 -0.7184 -0.1815
 2439SOL    HW3 9523   5.438   1.003   2.598  0.0738  0.5229  0.0451
 2439SOL    MW4 9524   5.425   1.050   2.525  0.1732 -0.0775 -0.3697
 2440SOL     OW 9525   0.497   5.159   4.291 -0.2302 -0.0245  0.4082
 2440SOL    HW2 9526   0.472   5.114   4.210 -0.2921 -0.3575  0.6093
 2440SOL    HW3 9527   0.545   5.093   4.340 -2.0694 -0.5204  1.6093
 2440SOL    MW4 9528   0.500   5.144   4.286 -0.4811 -0.1339  0.5932
 2441SOL     OW 9529   2.602   2.812   3.734  0.0071 -0.0628  0.3269
 2441SOL    HW2 9530   2.540   2.778   3.670  2.1219 -0.0377 -1.8533
 2441SOL    HW3 9531   2.581   2.905   3.740  0.2290  0.0796 -0.8930
 2441SOL    MW4 9532   2.591   2.820   3.726  0.3154 -0.0407 -0.1217
 2442SOL     OW 9533   4.484   3.551   4.231  0.0444 -0.4904 -0.5243
 2442SOL    HW2 9534   4.517   3.624   4.283 -1.0307  0.4200 -1.0827
 2442SOL    HW3 9535   4.530   3.558   4.147  0.6161 -1.0206 -0.2663
 2442SOL    MW4 9536   4.494   3.561   4.227 -0.0220 -0.4402 -0.5639
 2443SOL     OW 9537   0.791   2.391   2.130 -0.0000 -0.1346 -0.3090
 2443SOL    HW2 9538   0.752   2.338   2.060  0.6302 -0.0195 -0.7492
 2443SOL    HW3 9539   0.882   2.362   2.135  0.3448  0.8599 -0.5230
 2443SOL    MW4 9540   0.798   2.380   2.122  0.1286  0.0118 -0.3953
 2444SOL     OW 9541   4.740   1.066   5.314 -0.2375 -0.0985  0.4882
 2444SOL    HW2 9542   4.804   0.998   5.338  0.2796  0.1971 -0.0609
 2444SOL    HW3 9543   4.702   1.093   5.398  0.0013 -0.6199  0.7695
 2444SOL    MW4 9544   4.743   1.060   5.329 -0.1378 -0.1283  0.4529
 2445SOL     OW 9545   6.273   5.834   2.244  0.3092 -0.5219 -0.1754
 2445SOL    HW2 9546   6.189   5.881   2.244  0.4917 -0.1848  0.9770
 2445SOL    HW3 9547   6.251   5.748   2.209 -0.9873 -1.2031  2.0941
 2445SOL    MW4 9548   6.259   5.829   2.239  0.1622 -0.5673  0.2761
 2446SOL     OW 9549   5.423   6.332   4.467  0.4455  0.2194  0.0964
 2446SOL    HW2 9550   5.402   6.320   4.559  1.4109 -0.0733  0.2976
 2446SOL    HW3 9551   5.464   6.419   4.463  0.7188  0.0889  0.0127
 2446SOL    MW4 9552   5.426   6.342   4.479  0.6090  0.1636  0.1119
 2447SOL     OW 9553   3.150   1.121   3.371  0.0565  0.2132 -0.2779
 2447SOL    HW2 9554   3.119   1.190   3.312 -0.0865  1.6563  1.4028
 2447SOL    HW3 9555   3.076   1.106   3.430  1.1478  0.9026  1.3342
 2447SOL    MW4 9556   3.136   1.128   3.371  0.1816  0.4945  0.1566
 2448SOL     OW 9557   4.669   0.170   0.947  0.1127 -0.3123 -0.3583
 2448SOL    HW2 9558   4.760   0.143   0.958 -0.6083 -2.5631  0.8397
 2448SOL    HW3 9559   4.626   0.142   1.028 -1.4728  1.5816 -0.4785
 2448SOL    MW4 9560   4.675   0.163   0.959 -0.1916 -0.3594 -0.2161
 2449SOL     OW 9561   1.184   2.382   4.728 -0.7803 -0.0027 -0.2975
 2449SOL    HW2 9562   1.193   2.297   4.684 -2.0642  1.2826 -3.2967
 2449SOL    HW3 9563   1.271   2.399   4.765  0.2286 -1.4948 -1.8309
 2449SOL    MW4 9564   1.197   2.373   4.727 -0.8166 -0.0300 -0.8955
 2450SOL     OW 9565   2.484   5.270   3.852 -0.4713 -0.1289  0.0699
 2450SOL    HW2 9566   2.468   5.306   3.765 -0.4710  0.1075  0.1655
 2450SOL    HW3 9567   2.485   5.175   3.840 -0.7479 -0.1054 -0.1411
 2450SOL    MW4 9568   2.482   5.262   3.839 -0.5078 -0.0946  0.0547
 2451SOL     OW 9569   3.505   4.268   0.134 -0.1964  0.3693 -0.6068
 2451SOL    HW2 9570   3.495   4.239   0.225  2.3535 -0.2946 -0.4675
 2451SOL    HW3 9571   3.556   4.199   0.092  1.9860  2.3863 -1.5073
 2451SOL    MW4 9572   3.511   4.255   0.141  0.4279  0.5478 -0.7072
 2452SOL     OW 9573   1.058   0.125   3.722 -0.0394  0.7336  0.5199
 2452SOL    HW2 9574   1.100   0.210   3.731  0.5471  0.5087 -0.0115
 2452SOL    HW3 9575   1.124   0.070   3.679 -0.0326 -0.2685  1.7475
 2452SOL    MW4 9576   1.072   0.129   3.718  0.0389  0.5717  0.6118
 2453SOL     OW 9577   0.446   3.633   0.403 -0.2804 -0.0140  0.0599
 2453SOL    HW2 9578   0.497   3.655   0.325 -1.0641 -0.3961 -0.5630
 2453SOL    HW3 9579   0.388   3.562   0.376  1.0486 -1.8124  1.5937
 2453SOL    MW4 9580   0.445   3.626   0.389 -0.2085 -0.3017  0.1801
 2454SOL     OW 9581   1.247   5.073   6.345 -0.3460 -0.0548 -1.0221
 2454SOL    HW2 9582   1.168   5.046   6.298 -0.0738 -1.4483 -0.7388
 2454SOL    HW3 9583   1.234   5.041   6.434  0.1288  0.5432 -0.7308
 2454SOL    MW4 9584   1.235   5.065   6.350 -0.2475 -0.1597 -0.9463
 2455SOL     OW 9585   4.665   1.985   1.368  0.3758 -0.3263  0.8533
 2455SOL    HW2 9586   4.715   2.004   1.447  0.7460  1.1907  0.2906
 2455SOL    HW3 9587   4.587   2.040   1.375  1.8100  2.1834 -1.1531
 2455SOL    MW4 9588   4.661   1.995   1.379  0.6139  0.2049  0.5143
 2456SOL     OW 9589   1.577   1.134   0.365  0.5606 -0.6179  0.3993
 2456SOL    HW2 9590   1.590   1.209   0.307  1.4167 -1.0319  0.0356
 2456SOL    HW3 9591   1.664   1.097   0.377  0.2689 -1.0858  1.2261
 2456SOL    MW4 9592   1.590   1.139   0.359  0.6351 -0.7342  0.4604
 2457SOL     OW 9593   6.290   3.760   1.866 -0.5207 -0.4120 -0.3636
 2457SOL    HW2 9594   6.382   3.735   1.878 -0.3001  0.5378  0.1059
 2457SOL    HW3 9595   6.288   3.853   1.892 -1.4758 -0.2348 -1.0362
 2457SOL    MW4 9596   6.302   3.769   1.871 -0.6176 -0.2633 -0.3904
 2458SOL     OW 9597   0.374   4.761   4.826  0.0339 -0.1883  0.1269
 2458SOL    HW2 9598   0.345   4.821   4.895  2.9861  2.0581 -0.3989
 2458SOL    HW3 9599   0.301   4.761   4.763 -0.4892  2.1155  0.6347
 2458SOL    MW4 9600   0.360   4.769   4.827  0.3544  0.4120  0.1246
 2459SOL     OW 9601   0.278   2.745   4.738 -0.0242 -0.3248 -0.5558
 2459SOL    HW2 9602   0.202   2.724   4.792 -0.0775  0.0835 -0.4755
 2459SOL    HW3 9603   0.335   2.667   4.746  0.7876  0.4083  1.4938
 2459SOL    MW4 9604   0.276   2.732   4.746  0.0759 -0.1742 -0.2748
 2460SOL     OW 9605   0.427   5.614   4.574 -0.3248 -0.0138  0.0615
 2460SOL    HW2 9606   0.414   5.662   4.655  0.1508  0.5631 -0.1973
 2460SOL    HW3 9607   0.435   5.522   4.600 -1.8831 -0.0549  0.5074
 2460SOL    MW4 9608   0.426   5.608   4.588 -0.4677  0.0569  0.0862
 2461SOL     OW 9609   1.429   1.876   5.226  0.0706 -0.1228  0.2691
 2461SOL    HW2 9610   1.518   1.902   5.204  0.6651 -1.0584  1.4429
 2461SOL    HW3 9611   1.431   1.780   5.225 -0.8217 -0.1557  0.6207
 2461SOL    MW4 9612   1.441   1.867   5.223  0.0313 -0.2506  0.4704
 2462SOL     OW 9613   0.840   2.053   6.134  0.3305  0.2936 -0.6819
 2462SOL    HW2 9614   0.915   2.107   6.110  0.7102 -0.8099 -2.0812
 2462SOL    HW3 9615   0.778   2.064   6.062 -0.2912  0.1590 -0.1780
 2462SOL    MW4 9616   0.842   2.062   6.121  0.2986  0.1302 -0.8001
 2463SOL     OW 9617   2.052   5.432   0.407 -0.0918 -0.2934 -0.2074
 2463SOL    HW2 9618   2.041   5.513   0.357  2.4906  0.2400 -0.0780
 2463SOL    HW3 9619   2.031   5.456   0.497  0.0579  0.0904 -0.2727
 2463SOL    MW4 9620   2.048   5.446   0.412  0.2687 -0.1724 -0.1989
 2464SOL     OW 9621   1.162   1.960   4.254  0.5330 -0.0001  0.0446
 2464SOL    HW2 9622   1.181   2.048   4.287  0.5859  0.4097 -1.0262
 2464SOL    HW3 9623   1.086   1.972   4.196 -0.6465 -0.9817  1.3331
 2464SOL    MW4 9624   1.154   1.974   4.250  0.3843 -0.0756  0.0733
 2465SOL     OW 9625   3.127   3.193   2.384 -0.2752 -0.0859 -0.0755
 2465SOL    HW2 9626   3.110   3.113   2.433 -0.6059  0.6499  1.0388
 2465SOL    HW3 9627   3.118   3.167   2.292 -1.3671 -1.1017  0.2951
 2465SOL    MW4 9628   3.124   3.179   2.378 -0.4629 -0.1228  0.1204
 2466SOL     OW 9629   3.049   0.254   1.260 -0.0957 -0.2504  0.7407
 2466SOL    HW2 9630   3.072   0.161   1.254  0.0809 -0.1962  0.5201
 2466SOL    HW3 9631   3.093   0.284   1.339  1.5814  0.1148 -0.2852
 2466SOL    MW4 9632   3.058   0.245   1.269  0.1488 -0.1951  0.5762
 2467SOL     OW 9633   2.621   0.113   5.296  0.8879 -0.2876 -0.6331
 2467SOL    HW2 9634   2.658   0.200   5.282  0.1847  0.2102  0.4705
 2467SOL    HW3 9635   2.679   0.054   5.248  1.7000  0.7235 -0.9187
 2467SOL    MW4 9636   2.633   0.117   5.288  0.9023 -0.0885 -0.5252
 2468SOL     OW 9637   1.853   3.818   4.665  0.6158  0.1094 -0.0454
 2468SOL    HW2 9638   1.792   3.786   4.732  0.7183 -1.3690 -0.6244
 2468SOL    HW3 9639   1.798   3.871   4.607 -0.2160 -1.3533 -0.6629
 2468SOL    MW4 9640   1.837   3.820   4.666  0.5196 -0.2786 -0.2033
 2469SOL     OW 9641   5.261   3.404   3.869 -0.1405  0.4414  0.0054
 2469SOL    HW2 9642   5.247   3.325   3.817  1.3801 -2.0517  2.9977
 2469SOL    HW3 9643   5.213   3.387   3.950  2.3423  1.3325  1.7717
 2469SOL    MW4 9644   5.253   3.391   3.873  0.3877  0.2300  0.6332
 2470SOL     OW 9645   3.242   2.483   1.762  0.0305 -0.0088  0.0786
 2470SOL    HW2 9646   3.160   2.518   1.728  0.7802  0.8830 -0.8541
 2470SOL    HW3 9647   3.238   2.389   1.744 -0.3925  0.1751 -0.7915
 2470SOL    MW4 9648   3.231   2.475   1.755  0.0736  0.1331 -0.1593
 2471SOL     OW 9649   6.323   6.361   2.633  0.0269  0.2190  0.3953
 2471SOL    HW2 9650   6.340   6.407   2.551  1.2165  0.6402  0.8467
 2471SOL    HW3 9651   6.406   6.316   2.653 -0.5412 -0.6550  0.8821
 2471SOL    MW4 9652   6.336   6.361   2.625  0.1089  0.1593  0.5191
 2472SOL     OW 9653   2.821   4.619   4.038 -0.0201 -0.0026 -0.4774
 2472SOL    HW2 9654   2.895   4.668   4.002  0.5717 -0.3465  0.2476
 2472SOL    HW3 9655   2.855   4.578   4.118 -0.4910 -1.6361 -1.0753
 2472SOL    MW4 9656   2.835   4.620   4.044 -0.0041 -0.2635 -0.4606
 2473SOL     OW 9657   3.656   6.190   2.536 -0.1137  0.5713  0.0042
 2473SOL    HW2 9658   3.667   6.282   2.560  2.1682  0.5410 -0.7291
 2473SOL    HW3 9659   3.651   6.189   2.441 -0.2448 -0.0562  0.0079
 2473SOL    MW4 9660   3.657   6.202   2.527  0.1700  0.4845 -0.0921
 2474SOL     OW 9661   5.638   4.272   3.765  0.1282  0.2668  0.4798
 2474SOL    HW2 9662   5.665   4.324   3.840 -1.0475  0.5126  0.7389
 2474SOL    HW3 9663   5.572   4.325   3.721  0.3974 -0.1216 -0.4136
 2474SOL    MW4 9664   5.633   4.286   3.769  0.0086  0.2480  0.3961
 2475SOL     OW 9665   6.289   6.219   0.407 -0.3516  0.2970 -0.0326
 2475SOL    HW2 9666   6.272   6.251   0.496 -1.0811 -1.5200  0.5235
 2475SOL    HW3 9667   6.225   6.150   0.394 -0.4394  0.7161 -2.1063
 2475SOL    MW4 9668   6.278   6.214   0.417 -0.4594  0.1126 -0.2328
 2476SOL     OW 9669   0.535   6.136   3.698 -0.4564 -0.8986  0.5407
 2476SOL    HW2 9670   0.566   6.081   3.626 -1.8221  0.1378 -0.9063
 2476SOL    HW3 9671   0.508   6.217   3.656 -1.3913 -0.2890  2.2255
 2476SOL    MW4 9672   0.536   6.139   3.683 -0.7599 -0.6814  0.5720
 2477SOL     OW 9673   6.081   5.203   4.064  0.3683  0.3402  0.5887
 2477SOL    HW2 9674   6.052   5.287   4.029  0.5194 -0.4879 -1.6755
 2477SOL    HW3 9675   6.176   5.203   4.052  0.3919 -0.0698  0.7550
 2477SOL    MW4 9676   6.090   5.214   4.058  0.3914  0.1768  0.3119
 2478SOL     OW 9677   2.975   2.589   3.291  0.2304  0.1143  0.0100
 2478SOL    HW2 9678   3.018   2.543   3.362  1.0643 -0.1812 -0.6730
 2478SOL    HW3 9679   2.981   2.530   3.216 -0.5911  0.4374 -0.3259
 2478SOL    MW4 9680   2.981   2.575   3.290  0.2321  0.1180 -0.1245
 2479SOL     OW 9681   0.000   3.980   3.283  0.5795  0.0526 -0.4614
 2479SOL    HW2 9682  -0.075   4.022   3.326  0.8419  0.7230 -0.6438
 2479SOL    HW3 9683   0.025   3.909   3.341  1.6530  1.6310  1.0883
 2479SOL    MW4 9684  -0.007   3.976   3.296  0.7558  0.3493 -0.2810
 2480SOL     OW 9685   2.835   1.259   3.482 -0.7440 -0.5659  0.5373
 2480SOL    HW2 9686   2.752   1.229   3.446 -0.5770  0.8237 -1.1528
 2480SOL    HW3 9687   2.880   1.298   3.408  2.8853 -4.0786  0.5323
 2480SOL    MW4 9688   2.830   1.260   3.468 -0.2431 -0.8460  0.3136
 2481SOL     OW 9689   4.663   0.236   2.063  0.5135  0.0154 -0.2708
 2481SOL    HW2 9690   4.605   0.160   2.065 -0.0839  0.4755  0.2075
 2481SOL    HW3 9691   4.619   0.301   2.118  0.9171  0.7777 -0.8283
 2481SOL    MW4 9692   4.649   0.235   2.070  0.4879  0.1767 -0.2812
 2482SOL     OW 9693   6.028   1.089   1.783  0.3315 -0.4075  0.6003
 2482SOL    HW2 9694   6.044   1.048   1.697  0.0203 -0.9563  0.7949
 2482SOL    HW3 9695   5.932   1.092   1.790  0.3501  0.4130  0.5732
 2482SOL    MW4 9696   6.017   1.084   1.773  0.2929 -0.3717  0.6224
 2483SOL     OW 9697   1.758   4.914   4.671 -0.2695 -0.4548 -0.3676
 2483SOL    HW2 9698   1.798   4.832   4.640 -0.2976 -0.0358 -1.5591
 2483SOL    HW3 9699   1.754   4.969   4.593 -3.4796 -0.5858 -0.4199
 2483SOL    MW4 9700   1.763   4.910   4.657 -0.6967 -0.4168 -0.5317
 2484SOL     OW 9701   4.202   5.439   5.191  0.2759  0.2783 -0.0033
 2484SOL    HW2 9702   4.240   5.403   5.111 -0.2812  1.8662 -1.0513
 2484SOL    HW3 9703   4.108   5.442   5.173  0.0935  0.2111  0.8998
 2484SOL    MW4 9704   4.194   5.435   5.178  0.1783  0.4789 -0.0224
 2485SOL     OW 9705   1.580   4.016   3.156 -0.1944  0.5419  0.1477
 2485SOL    HW2 9706   1.515   3.953   3.124  0.6576 -0.3502  0.1390
 2485SOL    HW3 9707   1.566   4.093   3.101  0.5917 -0.6166 -1.8070
 2485SOL    MW4 9708   1.569   4.018   3.144  0.0217  0.2714 -0.1114
 2486SOL     OW 9709   0.292   1.309   6.142  0.6785 -0.2292 -0.7162
 2486SOL    HW2 9710   0.256   1.384   6.095  0.8468  1.3289  1.4749
 2486SOL    HW3 9711   0.215   1.265   6.178  0.6465 -0.4640 -1.0647
 2486SOL    MW4 9712   0.277   1.313   6.140  0.6965 -0.0546 -0.4731
 2487SOL     OW 9713   3.296   5.501   6.359 -0.5826  0.3105  0.2900
 2487SOL    HW2 9714   3.369   5.466   6.308 -1.5695 -1.8480  0.2253
 2487SOL    HW3 9715   3.220   5.450   6.329 -1.2258 -1.0423  3.8143
 2487SOL    MW4 9716   3.296   5.490   6.348 -0.7977 -0.1528  0.7465
 2488SOL     OW 9717   0.100   6.091   0.414 -0.0320 -0.7842 -0.0951
 2488SOL    HW2 9718   0.013   6.129   0.401 -0.1149 -0.6699  0.6940
 2488SOL    HW3 9719   0.098   6.008   0.367  0.0770  0.0723 -1.6772
 2488SOL    MW4 9720   0.089   6.085   0.406 -0.0285 -0.6561 -0.1997
 2489SOL     OW 9721   6.353   2.397   1.671  0.5792  0.5383  0.3345
 2489SOL    HW2 9722   6.268   2.380   1.711  1.1220 -2.7631  0.3714
 2489SOL    HW3 9723   6.363   2.492   1.676 -3.8804  1.3387 -1.4327
 2489SOL    MW4 9724   6.343   2.407   1.677  0.0624  0.2083  0.1062
 2490SOL     OW 9725   3.022   6.255   2.397  0.1827  0.0204  0.2861
 2490SOL    HW2 9726   3.052   6.168   2.422 -1.4754 -0.5741  0.3399
 2490SOL    HW3 9727   3.058   6.270   2.310  2.8146  0.4867  1.3799
 2490SOL    MW4 9728   3.031   6.246   2.389  0.3112  0.0035  0.4375
 2491SOL     OW 9729   3.941   3.111   0.963 -0.0718 -0.1599 -0.2320
 2491SOL    HW2 9730   3.966   3.183   0.906 -1.6867  0.8887  0.2917
 2491SOL    HW3 9731   3.906   3.153   1.041  0.7144 -1.5443  0.9173
 2491SOL    MW4 9732   3.940   3.126   0.966 -0.1811 -0.2042 -0.0113
 2492SOL     OW 9733   5.049   3.452   5.313  0.0663  0.0709 -0.0687
 2492SOL    HW2 9734   5.064   3.445   5.408 -1.9438  1.8511  0.4660
 2492SOL    HW3 9735   4.985   3.382   5.294  1.7150 -1.3842 -0.5009
 2492SOL    MW4 9736   5.042   3.442   5.323  0.0186  0.1138 -0.0552
 2493SOL     OW 9737   4.470   3.754   4.585  0.0728  0.5988 -0.1961
 2493SOL    HW2 9738   4.547   3.700   4.566  1.4384  1.7765  1.6194
 2493SOL    HW3 9739   4.451   3.737   4.677  0.0052  2.4997  0.1907
 2493SOL    MW4 9740   4.478   3.745   4.595  0.2441  1.0050  0.0945
 2494SOL     OW 9741   0.536   2.820   0.364 -0.4476 -0.1807  0.3196
 2494SOL    HW2 9742   0.466   2.787   0.308 -1.1274  2.4011 -0.4885
 2494SOL    HW3 9743   0.580   2.886   0.311  0.4373  0.6441  2.0081
 2494SOL    MW4 9744   0.533   2.824   0.350 -0.4206  0.2688  0.4358
 2495SOL     OW 9745   2.788   1.894   1.875 -0.6984  0.1890  0.4888
 2495SOL    HW2 9746   2.862   1.944   1.911 -0.1832  0.3680 -0.7788
 2495SOL    HW3 9747   2.805   1.804   1.904  0.5437  0.0538 -0.5449
 2495SOL    MW4 9748   2.800   1.888   1.884 -0.4665  0.1948  0.1852
 2496SOL     OW 9749   3.065   1.455   1.759 -0.0093  0.5543  0.5647
 2496SOL    HW2 9750   3.127   1.392   1.722  0.5944 -0.0350  2.4491
 2496SOL    HW3 9751   3.107   1.540   1.746 -0.1862  0.4530 -0.7676
 2496SOL    MW4 9752   3.079   1.458   1.753  0.0470  0.4632  0.6375
 2497SOL     OW 9753   2.176   1.217   0.138  0.0229  0.6651  0.0891
 2497SOL    HW2 9754   2.148   1.231   0.228  1.4973  0.8258  0.5553
 2497SOL    HW3 9755   2.219   1.132   0.138 -1.6392 -0.2195 -0.9144
 2497SOL    MW4 9756   2.178   1.208   0.150 -0.0019  0.5696  0.0182
 2498SOL     OW 9757   6.118   1.752   5.865 -0.3451  0.4819 -0.3252
 2498SOL    HW2 9758   6.073   1.793   5.940  0.0332  0.6248 -0.1758
 2498SOL    HW3 9759   6.110   1.658   5.881 -1.0782  0.4923 -0.5853
 2498SOL    MW4 9760   6.111   1.745   5.877 -0.3919  0.5022 -0.3398
 2499SOL     OW 9761   5.100   4.835   5.708  0.4487 -0.3764 -0.6721
 2499SOL    HW2 9762   5.057   4.896   5.768  2.7219  0.1483  0.5503
 2499SOL    HW3 9763   5.108   4.883   5.626 -0.2701 -0.0968 -0.5851
 2499SOL    MW4 9764   5.096   4.849   5.705  0.6538 -0.2703 -0.4993
 2500SOL     OW 9765   2.505   2.877   1.359 -0.0695 -0.0867  0.1152
 2500SOL    HW2 9766   2.424   2.925   1.374 -0.2829 -0.0972 -0.9457
 2500SOL    HW3 9767   2.574   2.936   1.390 -0.3843  0.5615 -0.3959
 2500SOL    MW4 9768   2.503   2.891   1.365 -0.1392 -0.0026 -0.0922
 2501SOL     OW 9769   2.047   6.295   4.890 -0.1116 -0.3319  0.4799
 2501SOL    HW2 9770   1.981   6.306   4.959 -0.7626  1.8433 -0.3939
 2501SOL    HW3 9771   1.997   6.300   4.809  0.7467 -2.0923 -0.1996
 2501SOL    MW4 9772   2.032   6.297   4.889 -0.0843 -0.2772  0.2749
 2502SOL     OW 9773   2.618   3.774   5.882  0.6418  0.2642 -0.1173
 2502SOL    HW2 9774   2.559   3.800   5.812 -0.4641 -0.6713  0.4330
 2502SOL    HW3 9775   2.625   3.679   5.873  1.0221  0.2124  0.6279
 2502SOL    MW4 9776   2.611   3.765   5.872  0.5461  0.1340  0.0536
 2503SOL     OW 9777   0.105   4.931   1.281  0.1530  0.1352  1.0428
 2503SOL    HW2 9778   0.098   4.875   1.359 -0.4144 -4.9821 -2.1693
 2503SOL    HW3 9779   0.196   4.919   1.252  0.6224  2.7007  1.2832
 2503SOL    MW4 9780   0.116   4.922   1.287  0.1401 -0.2015  0.6507
 2504SOL     OW 9781   1.061   2.329   3.033  0.4396  0.5279  0.2436
 2504SOL    HW2 9782   1.017   2.264   3.088 -0.5406  0.3466 -0.7054
 2504SOL    HW3 9783   1.113   2.381   3.094  0.4030 -0.4683  1.1631
 2504SOL    MW4 9784   1.062   2.327   3.048  0.3054  0.3725  0.2397
 2505SOL     OW 9785   5.246   0.464   0.351 -0.5158  0.3931  0.0471
 2505SOL    HW2 9786   5.204   0.380   0.370 -2.4212  1.4469  0.8279
 2505SOL    HW3 9787   5.222   0.483   0.261  0.5061 -0.2104 -0.3592
 2505SOL    MW4 9788   5.237   0.455   0.342 -0.6324  0.4525  0.0965
 2506SOL     OW 9789   5.583   1.009   4.330  1.0616 -0.4073 -0.1127
 2506SOL    HW2 9790   5.638   1.049   4.397  1.5660  1.0294 -1.3226
 2506SOL    HW3 9791   5.644   0.961   4.274  0.5288 -2.4747  0.9723
 2506SOL    MW4 9792   5.598   1.008   4.331  1.0579 -0.4905 -0.1292
 2507SOL     OW 9793   6.281   4.706   4.552 -0.1880  0.1451 -0.0536
 2507SOL    HW2 9794   6.243   4.766   4.488  1.1203 -0.1384 -1.1477
 2507SOL    HW3 9795   6.368   4.742   4.570  0.2304 -0.8775  0.0303
 2507SOL    MW4 9796   6.288   4.719   4.546  0.0398 -0.0272 -0.1869
 2508SOL     OW 9797   1.272   4.375   5.447 -1.2608  0.1613  0.4203
 2508SOL    HW2 9798   1.230   4.447   5.494 -2.4266 -0.0864 -0.1990
 2508SOL    HW3 9799   1.328   4.418   5.382 -2.1848  0.5360 -0.1555
 2508SOL    MW4 9800   1.273   4.390   5.445 -1.5365  0.1781  0.2626
 2509SOL     OW 9801   2.420   5.168   6.312  0.2304  0.2179 -0.1237
 2509SOL    HW2 9802   2.324   5.170   6.310  0.0883 -2.9602 -1.5515
 2509SOL    HW3 9803   2.442   5.092   6.364  2.0851  1.4334  0.9973
 2509SOL    MW4 9804   2.410   5.158   6.318  0.4564 -0.0410 -0.1642
 2510SOL     OW 9805   3.672   0.373   2.827 -0.9374  0.0378 -0.1029
 2510SOL    HW2 9806   3.582   0.357   2.798 -1.4005  2.1059  0.0176
 2510SOL    HW3 9807   3.693   0.299   2.883 -3.1216  0.2127  1.0642
 2510SOL    MW4 9808   3.663   0.361   2.830 -1.2866  0.3337  0.0670
 2511SOL     OW 9809   0.626   3.555   3.786  0.4045  0.2778 -0.5115
 2511SOL    HW2 9810   0.548   3.570   3.733  1.6712 -1.0508 -2.9514
 2511SOL    HW3 9811   0.616   3.465   3.819 -0.0236  0.8370  0.9539
 2511SOL    MW4 9812   0.615   3.545   3.783  0.5152  0.1763 -0.6401
 2512SOL     OW 9813   1.126   4.627   4.482  0.2267 -0.0328  0.5705
 2512SOL    HW2 9814   1.050   4.665   4.439  0.8118 -0.9175 -1.3794
 2512SOL    HW3 9815   1.090   4.579   4.556 -1.3379 -1.5667 -1.0837
 2512SOL    MW4 9816   1.111   4.625   4.486  0.0975 -0.3519  0.0950
 2513SOL     OW 9817   3.915   6.094   4.261 -0.0803  0.3196 -0.2631
 2513SOL    HW2 9818   3.826   6.097   4.296 -0.2594 -3.3246 -0.0500
 2513SOL    HW3 9819   3.970   6.124   4.333 -1.0010  1.0052  0.1759
 2513SOL    MW4 9820   3.911   6.099   4.275 -0.2254 -0.0707 -0.1771
 2514SOL     OW 9821   5.671   2.603   5.582 -0.7033 -0.5420 -0.5503
 2514SOL    HW2 9822   5.730   2.647   5.644 -1.4994  1.0355 -0.8568
 2514SOL    HW3 9823   5.588   2.599   5.629 -1.0911 -0.0912 -1.1849
 2514SOL    MW4 9824   5.668   2.609   5.597 -0.8595 -0.2744 -0.6745
 2515SOL     OW 9825   2.778   3.770   1.709  0.2577 -0.0531 -0.2566
 2515SOL    HW2 9826   2.838   3.710   1.753  1.7611  0.1424 -1.9235
 2515SOL    HW3 9827   2.701   3.774   1.766  1.0040 -1.8728  0.9526
 2515SOL    MW4 9828   2.776   3.763   1.722  0.5545 -0.2674 -0.3170
 2516SOL     OW 9829   6.314   2.646   1.380  0.0835  0.3694  0.2868
 2516SOL    HW2 9830   6.407   2.664   1.396 -0.0318  1.6072 -0.3465
 2516SOL    HW3 9831   6.306   2.643   1.285 -0.2442 -1.4823  0.3260
 2516SOL    MW4 9832   6.325   2.648   1.370  0.0251  0.2884  0.2084
 2517SOL     OW 9833   5.022   1.107   5.158  0.4877 -0.2543 -0.5465
 2517SOL    HW2 9834   4.999   1.163   5.232  0.7616 -0.5376 -0.2433
 2517SOL    HW3 9835   5.067   1.032   5.197 -0.5252 -1.0629 -0.8697
 2517SOL    MW4 9836   5.025   1.105   5.173  0.3902 -0.3984 -0.5491
 2518SOL     OW 9837   2.743   2.457   0.718  0.1011 -0.0702 -0.0358
 2518SOL    HW2 9838   2.755   2.363   0.708  2.1087  0.2161 -0.6306
 2518SOL    HW3 9839   2.794   2.496   0.647 -0.9082  1.4716  0.0347
 2518SOL    MW4 9840   2.751   2.450   0.707  0.2328  0.1710 -0.1050
 2519SOL     OW 9841  -0.012   0.872   4.751  0.1418 -0.2688 -0.2558
 2519SOL    HW2 9842  -0.064   0.920   4.816  1.3280  0.3198  0.3065
 2519SOL    HW3 9843  -0.059   0.790   4.737  0.2065 -0.7350  1.9175
 2519SOL    MW4 9844  -0.025   0.868   4.758  0.3068 -0.2526  0.1052
 2520SOL     OW 9845   0.940   2.474   2.829 -0.2766  0.0553  0.2863
 2520SOL    HW2 9846   0.979   2.421   2.899 -1.9201 -0.2663  1.0068
 2520SOL    HW3 9847   0.847   2.454   2.833 -0.5189  0.6848 -1.4708
 2520SOL    MW4 9848   0.933   2.464   2.839 -0.5254  0.0959  0.1495
 2521SOL     OW 9849   0.145   2.577   3.871 -0.3509 -0.3335 -0.8319
 2521SOL    HW2 9850   0.210   2.539   3.931 -1.5979 -0.8185  0.2701
 2521SOL    HW3 9851   0.155   2.526   3.790 -1.1214 -2.2321  0.1925
 2521SOL    MW4 9852   0.155   2.565   3.868 -0.6171 -0.6480 -0.5514
 2522SOL     OW 9853   2.692   6.335   4.513  0.2497  0.4759 -0.2129
 2522SOL    HW2 9854   2.601   6.312   4.530 -0.0446  0.3248 -1.8344
 2522SOL    HW3 9855   2.690   6.428   4.489  0.4260  0.3037 -0.9128
 2522SOL    MW4 9856   2.680   6.345   4.512  0.2341  0.4332 -0.5192
 2523SOL     OW 9857   2.131   0.280   4.884  0.6093 -0.4539 -0.2338
 2523SOL    HW2 9858   2.219   0.309   4.906  0.4731  0.4132 -0.7884
 2523SOL    HW3 9859   2.107   0.331   4.807 -0.2874 -0.8483 -0.2316
 2523SOL    MW4 9860   2.139   0.291   4.877  0.4731 -0.3915 -0.3067
 2524SOL     OW 9861   0.073   6.223   4.909  0.3729  0.5789 -0.0913
 2524SOL    HW2 9862   0.130   6.293   4.877 -0.0184  1.4010  0.9742
 2524SOL    HW3 9863   0.132   6.150   4.927  0.8325  0.7603 -0.8043
 2524SOL    MW4 9864   0.088   6.223   4.907  0.3819  0.7113 -0.0448
 2525SOL     OW 9865   3.125   4.612   1.290  0.0312  0.0015  0.4024
 2525SOL    HW2 9866   3.074   4.533   1.271 -1.6199  0.9376  0.7486
 2525SOL    HW3 9867   3.100   4.673   1.221  1.5779  0.1442 -0.0749
 2525SOL    MW4 9868   3.115   4.609   1.278  0.0174  0.1438  0.3851
 2526SOL     OW 9869   1.807   3.038   3.217  0.1085  0.3671 -0.0936
 2526SOL    HW2 9870   1.887   3.003   3.177 -0.3704  0.3865 -1.1179
 2526SOL    HW3 9871   1.743   3.038   3.145 -0.7402  0.5786  0.6490
 2526SOL    MW4 9872   1.809   3.034   3.202 -0.0666  0.3976 -0.1308
 2527SOL     OW 9873   3.578   0.927   5.925 -0.0513 -0.2475  0.1288
 2527SOL    HW2 9874   3.665   0.896   5.901  0.0092 -0.8001  1.0094
 2527SOL    HW3 9875   3.594   0.993   5.993 -0.3390 -0.9057  0.8557
 2527SOL    MW4 9876   3.592   0.932   5.931 -0.0813 -0.4073  0.3409
 2528SOL     OW 9877   3.608   4.264   1.454  0.5882 -0.0215  0.1200
 2528SOL    HW2 9878   3.659   4.278   1.374 -0.2861 -1.1183 -0.6611
 2528SOL    HW3 9879   3.623   4.342   1.506  2.4862  0.0116 -0.3925
 2528SOL    MW4 9880   3.617   4.276   1.450  0.7232 -0.1619 -0.0506
 2529SOL     OW 9881   3.326   4.090   5.708 -0.3052 -0.0368  0.0292
 2529SOL    HW2 9882   3.315   4.116   5.617  1.7861 -0.3122 -0.3520
 2529SOL    HW3 9883   3.352   4.169   5.753  0.1227 -0.2055  0.0821
 2529SOL    MW4 9884   3.328   4.104   5.702  0.0272 -0.0954 -0.0141
 2530SOL     OW 9885   2.190   6.187   4.192 -0.0954 -0.3677 -0.2646
 2530SOL    HW2 9886   2.141   6.241   4.130 -0.5755 -0.1271  0.3191
 2530SOL    HW3 9887   2.152   6.099   4.183 -1.9693  0.1864  1.5190
 2530SOL    MW4 9888   2.179   6.182   4.182 -0.4060 -0.2629  0.0477
 2531SOL     OW 9889   2.640   5.123   4.785  0.0036  0.3978  0.3312
 2531SOL    HW2 9890   2.709   5.084   4.732 -0.7931 -0.5332 -0.0554
 2531SOL    HW3 9891   2.564   5.065   4.773 -0.2960  0.3127  2.2523
 2531SOL    MW4 9892   2.639   5.110   4.776 -0.1411  0.2637  0.5337
 2532SOL     OW 9893   5.261   0.016   2.126 -0.5534 -0.4811  0.4533
 2532SOL    HW2 9894   5.187  -0.009   2.070 -0.8590 -1.2418  1.1844
 2532SOL    HW3 9895   5.292  -0.066   2.163 -0.7883  0.0696  1.9242
 2532SOL    MW4 9896   5.255   0.002   2.123 -0.6247 -0.5088  0.7438
 2533SOL     OW 9897   5.452   0.077   2.442  0.0811  0.0394  0.6503
 2533SOL    HW2 9898   5.407   0.142   2.388  2.2864  0.1223 -1.2239
 2533SOL    HW3 9899   5.497   0.129   2.509 -0.6868  0.1456  1.0949
 2533SOL    MW4 9900   5.452   0.093   2.444  0.2707  0.0643  0.4617
 2534SOL     OW 9901   0.709   0.953   5.004 -0.0706  0.7958  0.1794
 2534SOL    HW2 9902   0.627   0.973   4.960 -0.4609 -0.5741  0.2485
 2534SOL    HW3 9903   0.743   1.038   5.032 -2.3167  1.2769  1.6654
 2534SOL    MW4 9904   0.703   0.967   5.002 -0.4184  0.6785  0.3845
 2535SOL     OW 9905   0.581   1.593   4.949  0.0173 -0.3409  0.0406
 2535SOL    HW2 9906   0.538   1.664   4.996  1.4232  0.6107 -0.0594
 2535SOL    HW3 9907   0.536   1.590   4.864  0.8696  1.4364 -0.5222
 2535SOL    MW4 9908   0.569   1.602   4.944  0.3152  0.0191 -0.0469
 2536SOL     OW 9909   1.341   2.422   5.939 -0.5125  0.6407 -0.5464
 2536SOL    HW2 9910   1.372   2.489   6.000 -0.4525  0.3315 -0.2334
 2536SOL    HW3 9911   1.252   2.449   5.916 -1.1906 -0.1530  1.0348
 2536SOL    MW4 9912   1.334   2.434   5.944 -0.5940  0.4952 -0.2965
 2537SOL     OW 9913   1.448   3.284   5.213  0.4507  0.4542  0.3280
 2537SOL    HW2 9914   1.535   3.322   5.226  1.2872 -1.2094 -0.0435
 2537SOL    HW3 9915   1.461   3.219   5.144 -0.9915 -0.1467  0.5936
 2537SOL    MW4 9916   1.461   3.280   5.206  0.3708  0.1554  0.3140
 2538SOL     OW 9917   2.551   1.580   3.973  0.5264  0.5431  0.3692
 2538SOL    HW2 9918   2.500   1.592   4.053 -0.1787  0.6641 -0.0794
 2538SOL    HW3 9919   2.619   1.647   3.978  0.1388  0.9307  0.6074
 2538SOL    MW4 9920   2.553   1.591   3.984  0.3822  0.6102  0.3415
 2539SOL     OW 9921   3.252   4.234   3.463 -0.0166 -0.0668  0.1987
 2539SOL    HW2 9922   3.286   4.279   3.385  0.7533 -0.8057  0.1060
 2539SOL    HW3 9923   3.257   4.300   3.532 -2.7954  1.3581 -0.8117
 2539SOL    MW4 9924   3.257   4.249   3.462 -0.2816  0.0237  0.0532
 2540SOL     OW 9925   5.205   6.243   3.983  0.2476  0.1898  0.5868
 2540SOL    HW2 9926   5.217   6.180   4.054 -2.2031  0.2092  1.1159
 2540SOL    HW3 9927   5.117   6.277   3.996  0.3400  1.4211 -1.5318
 2540SOL    MW4 9928   5.195   6.239   3.994 -0.0636  0.3548  0.3771
 2541SOL     OW 9929   2.796   2.540   5.606 -0.0782  0.7279 -0.1200
 2541SOL    HW2 9930   2.784   2.545   5.512 -0.7403  0.3159 -0.0670
 2541SOL    HW3 9931   2.878   2.491   5.618 -2.2148 -3.3835 -0.5023
 2541SOL    MW4 9932   2.805   2.534   5.595 -0.4474  0.1311 -0.1635
 2542SOL     OW 9933   1.151   2.370   4.037  0.1396 -0.1035  0.5024
 2542SOL    HW2 9934   1.101   2.323   4.104 -0.1898 -1.4541 -0.6524
 2542SOL    HW3 9935   1.084   2.413   3.983  0.4381  1.9473  1.6591
 2542SOL    MW4 9936   1.136   2.370   4.039  0.1355 -0.0111  0.5026
 2543SOL     OW 9937   2.470   4.079   1.494 -0.3134  0.2833 -0.7242
 2543SOL    HW2 9938   2.555   4.065   1.451  0.4231  0.8104  0.4966
 2543SOL    HW3 9939   2.446   3.994   1.528  1.2114  0.6316  1.4727
 2543SOL    MW4 9940   2.478   4.066   1.492 -0.0151  0.3988 -0.2733
 2544SOL     OW 9941   4.958   6.257   5.044 -0.2454  0.0021 -0.3783
 2544SOL    HW2 9942   4.965   6.353   5.052 -1.1583  0.0259  0.3714
 2544SOL    HW3 9943   4.929   6.242   4.954 -1.7055  0.5592 -0.0421
 2544SOL    MW4 9944   4.955   6.268   5.033 -0.5585  0.0787 -0.2350
 2545SOL     OW 9945   2.757   0.694   0.238 -0.2299 -0.0259 -0.3130
 2545SOL    HW2 9946   2.711   0.764   0.284  1.4862 -0.7739  2.8458
 2545SOL    HW3 9947   2.844   0.730   0.220  0.3459 -0.9524  0.4810
 2545SOL    MW4 9948   2.762   0.708   0.242  0.0725 -0.2468  0.2086
 2546SOL     OW 9949   2.932   5.145   2.538 -0.6202 -0.1013 -0.5211
 2546SOL    HW2 9950   2.902   5.227   2.577 -2.3148 -1.0804  0.3815
 2546SOL    HW3 9951   2.851   5.100   2.513  0.2895 -1.2551 -1.5099
 2546SOL    MW4 9952   2.917   5.150   2.540 -0.7238 -0.3827 -0.5325
 2547SOL     OW 9953   4.180   5.637   3.953  0.4648  0.1342  0.8319
 2547SOL    HW2 9954   4.213   5.701   4.015  1.1319  0.5784  0.0374
 2547SOL    HW3 9955   4.173   5.685   3.870 -1.4873 -0.1480  0.8007
 2547SOL    MW4 9956   4.184   5.652   3.950  0.2952  0.1555  0.7230
 2548SOL     OW 9957   3.659   2.512   2.166  0.0028 -0.0549  0.2906
 2548SOL    HW2 9958   3.657   2.568   2.088  2.0163  0.1379  0.3235
 2548SOL    HW3 9959   3.679   2.425   2.133  0.7335  0.0038  0.5482
 2548SOL    MW4 9960   3.662   2.508   2.152  0.3649 -0.0217  0.3289
 2549SOL     OW 9961   3.099   3.956   3.057  0.3467 -1.2215 -0.1341
 2549SOL    HW2 9962   3.129   3.925   3.142 -0.1618  0.2109  0.6076
 2549SOL    HW3 9963   3.004   3.956   3.064  0.2945 -1.4137 -0.8302
 2549SOL    MW4 9964   3.091   3.952   3.069  0.2727 -1.0579 -0.1281
 2550SOL     OW 9965   4.265   4.927   5.133 -0.3320  0.1833 -0.1159
 2550SOL    HW2 9966   4.216   4.951   5.054  0.5605  0.5008 -0.5963
 2550SOL    HW3 9967   4.288   5.011   5.173  0.5596  0.0747 -0.3754
 2550SOL    MW4 9968   4.262   4.942   5.128 -0.0966  0.2109 -0.2135
 2551SOL     OW 9969   6.116   2.529   2.109  0.4962  0.0586 -0.4917
 2551SOL    HW2 9970   6.151   2.458   2.164  0.2942  1.7415  2.0024
 2551SOL    HW3 9971   6.117   2.494   2.020  2.3100 -2.3192  0.3561
 2551SOL    MW4 9972   6.121   2.515   2.105  0.7089 -0.0331 -0.0508
 2552SOL     OW 9973   0.720   1.560   2.775 -0.1469  0.2579 -0.1524
 2552SOL    HW2 9974   0.656   1.631   2.765  0.9121  0.9164 -3.4419
 2552SOL    HW3 9975   0.667   1.481   2.781 -1.3851  0.8733 -1.8961
 2552SOL    MW4 9976   0.704   1.559   2.774 -0.1705  0.4260 -0.8165
 2553SOL     OW 9977   2.986   1.224   1.105  0.3365 -0.1895 -0.3497
 2553SOL    HW2 9978   3.043   1.193   1.035  0.8553  1.1495 -0.5383
 2553SOL    HW3 9979   2.950   1.306   1.073  1.7086  1.2191  1.4643
 2553SOL    MW4 9980   2.989   1.231   1.092  0.5860  0.1730 -0.1352
 2554SOL     OW 9981   5.156   4.084   1.779 -0.1622  0.4732  0.4382
 2554SOL    HW2 9982   5.134   4.144   1.708  0.8948 -0.1987 -0.4913
 2554SOL    HW3 9983   5.157   3.997   1.738  3.2055  0.3351  0.5565
 2554SOL    MW4 9984   5.153   4.080   1.765  0.4216  0.3663  0.3312
 2555SOL     OW 9985   4.787   2.180   3.876  0.2367  0.1872 -0.5183
 2555SOL    HW2 9986   4.880   2.193   3.860  0.0082  2.2436 -0.4100
 2555SOL    HW3 9987   4.743   2.240   3.816 -0.9879 -0.2157 -0.0579
 2555SOL    MW4 9988   4.793   2.189   3.866  0.0449  0.4054 -0.4433
 2556SOL     OW 9989   2.009   5.069   4.636 -0.0391  0.0841  0.2497
 2556SOL    HW2 9990   2.053   5.028   4.710  1.4996 -1.0181 -1.1973
 2556SOL    HW3 9991   1.916   5.051   4.650  0.4678 -2.9443  0.3017
 2556SOL    MW4 9992   2.003   5.061   4.648  0.2308 -0.4609  0.0657
 2557SOL     OW 9993   5.441   4.530   2.355  0.3287 -0.2031  0.6316
 2557SOL    HW2 9994   5.502   4.603   2.355 -0.3655  0.4815 -2.0877
 2557SOL    HW3 9995   5.472   4.472   2.285 -2.0797  0.1954 -0.8670
 2557SOL    MW4 9996   5.453   4.532   2.346 -0.0806 -0.0602  0.0751
 2558SOL     OW 9997   4.694   2.832   3.180 -0.4358  0.2239  0.3179
 2558SOL    HW2 9998   4.760   2.896   3.204 -0.3411  0.4796 -0.5950
 2558SOL    HW3 9999   4.744   2.760   3.141 -0.6149 -0.0138  0.5255
 2558SOL    MW410000   4.709   2.831   3.178 -0.4469  0.2263  0.2248
 2559SOL     OW10001   3.711   1.731   1.806 -0.2206 -0.1025 -0.1673
 2559SOL    HW210002   3.623   1.706   1.778  0.5992 -1.4299 -1.7086
 2559SOL    HW310003   3.769   1.699   1.737  1.4732  0.9844  0.6658
 2559SOL    MW410004   3.707   1.724   1.793  0.1111 -0.1342 -0.2608
 2560SOL     OW10005   2.566   4.562   6.085 -0.0812  0.6124  0.2316
 2560SOL    HW210006   2.620   4.523   6.016  0.4461 -0.8432  1.4307
 2560SOL    HW310007   2.510   4.624   6.038  0.3921 -0.1892 -1.4853
 2560SOL    MW410008   2.565   4.565   6.069  0.0508  0.3146  0.1633
 2561SOL     OW10009   2.960   2.571   0.093  0.3862 -0.2701 -0.1234
 2561SOL    HW210010   2.916   2.576   0.008 -0.5009 -0.5858  0.3064
 2561SOL    HW310011   2.982   2.661   0.115  0.1912 -0.1417 -0.4624
 2561SOL    MW410012   2.957   2.583   0.085  0.2434 -0.2948 -0.1114
 2562SOL     OW10013   1.117   3.038   5.623  0.4178  0.3433 -0.8361
 2562SOL    HW210014   1.106   3.101   5.694  0.4335 -0.2285 -0.3134
 2562SOL    HW310015   1.065   3.073   5.551  0.2845  0.8594 -0.4942
 2562SOL    MW410016   1.109   3.051   5.623  0.4023  0.3359 -0.7220
 2563SOL     OW10017   1.050   3.414   6.020 -0.2882 -0.2378  0.1339
 2563SOL    HW210018   0.966   3.460   6.015  0.2400  0.7901  0.4862
 2563SOL    HW310019   1.115   3.483   6.028  0.4750 -1.0608  1.4693
 2563SOL    MW410020   1.047   3.429   6.021 -0.1178 -0.2108  0.3566
 2564SOL     OW10021   5.475   3.529   2.658 -0.1779 -0.2649  0.4375
 2564SOL    HW210022   5.515   3.591   2.718  1.0311 -1.8207  1.3082
 2564SOL    HW310023   5.386   3.563   2.644  0.3600  1.4987  1.0546
 2564SOL    MW410024   5.468   3.542   2.664  0.0526 -0.2375  0.6338
 2565SOL     OW10025   2.209   1.494   3.963 -0.5918  0.1798 -0.0139
 2565SOL    HW210026   2.224   1.587   3.981 -0.2481  0.0908  0.1587
 2565SOL    HW310027   2.208   1.489   3.867 -0.9656  0.4145 -0.0290
 2565SOL    MW410028   2.211   1.506   3.952 -0.5958  0.1990  0.0069
 2566SOL     OW10029   4.025   1.614   1.811 -0.1735  0.5160 -0.3466
 2566SOL    HW210030   4.060   1.644   1.894 -0.0134  1.3302 -0.6962
 2566SOL    HW310031   3.997   1.694   1.766 -2.0953 -0.0517 -0.2659
 2566SOL    MW410032   4.026   1.629   1.816 -0.4059  0.5485 -0.3821
 2567SOL     OW10033   5.429   4.622   0.166  0.2378 -0.1927 -0.2369
 2567SOL    HW210034   5.496   4.653   0.227  0.6460 -0.2104 -0.6696
 2567SOL    HW310035   5.347   4.651   0.204  0.5419  0.4875 -0.0758
 2567SOL    MW410036   5.427   4.630   0.179  0.3318 -0.1053 -0.2727
 2568SOL     OW10037   4.708   3.971   2.550 -0.0017  0.1009  0.4531
 2568SOL    HW210038   4.708   3.970   2.455  1.2863  0.4576  0.4358
 2568SOL    HW310039   4.745   3.886   2.576 -1.2345 -0.3895  0.6625
 2568SOL    MW410040   4.713   3.960   2.541  0.0056  0.0832  0.4784
 2569SOL     OW10041   0.461   6.409   3.659  0.0590  0.1426 -0.0835
 2569SOL    HW210042   0.375   6.405   3.619  0.0708 -1.5122 -0.0206
 2569SOL    HW310043   0.445   6.402   3.753  0.3038 -2.5346 -0.1559
 2569SOL    MW410044   0.448   6.407   3.666  0.0929 -0.4290 -0.0848
 2570SOL     OW10045   3.606   1.332   2.895  0.3101 -0.5010 -0.2945
 2570SOL    HW210046   3.677   1.365   2.950 -0.0228 -0.1485 -0.0720
 2570SOL    HW310047   3.602   1.239   2.915 -2.1658  0.1537  3.0514
 2570SOL    MW410048   3.615   1.324   2.904 -0.0605 -0.3681  0.1763
 2571SOL     OW10049   0.191   0.453   0.051 -0.0136  0.4361  0.4925
 2571SOL    HW210050   0.249   0.420   0.120  0.6854  2.1975  0.8016
 2571SOL    HW310051   0.238   0.435  -0.030  0.6043  1.1144  0.6913
 2571SOL    MW410052   0.205   0.446   0.050  0.1601  0.7580  0.5595
 2572SOL     OW10053   6.201   1.596   5.072 -0.0852  0.4030  0.2508
 2572SOL    HW210054   6.121   1.562   5.032 -0.2821  0.4538  0.6023
 2572SOL    HW310055   6.173   1.675   5.118  0.2807  0.7766 -0.1552
 2572SOL    MW410056   6.187   1.602   5.073 -0.0629  0.4590  0.2436
 2573SOL     OW10057   2.926   2.904   0.666  0.2513 -0.0461  0.1085
 2573SOL    HW210058   2.950   2.990   0.703  1.5721  0.6662 -2.2145
 2573SOL    HW310059   3.010   2.861   0.651 -0.3851 -1.5241  0.6507
 2573SOL    MW410060   2.940   2.910   0.669  0.3416 -0.1471 -0.1265
 2574SOL     OW10061   1.643   1.191   1.848 -0.1440  0.8538 -0.3025
 2574SOL    HW210062   1.670   1.229   1.932  1.9890  1.0190 -0.9988
 2574SOL    HW310063   1.659   1.097   1.859 -0.6306  0.7743 -0.2616
 2574SOL    MW410064   1.649   1.184   1.861  0.0732  0.8651 -0.3889
 2575SOL     OW10065   2.227   4.641   3.057 -0.3273  0.0791  0.0904
 2575SOL    HW210066   2.244   4.631   2.964  2.1366 -1.5676  0.6275
 2575SOL    HW310067   2.253   4.731   3.077 -1.1942  0.5503 -0.8358
 2575SOL    MW410068   2.232   4.651   3.047 -0.1166 -0.0760  0.0390
 2576SOL     OW10069   5.023   6.127   1.512  0.4813 -0.3168  0.2581
 2576SOL    HW210070   4.966   6.154   1.584 -0.1799  0.2151 -0.4389
 2576SOL    HW310071   5.104   6.176   1.525 -0.8635  2.5662 -1.2606
 2576SOL    MW410072   5.026   6.137   1.523  0.2166  0.1337 -0.0342
 2577SOL     OW10073   3.761   0.037   4.116  0.2099 -0.4920 -0.7473
 2577SOL    HW210074   3.746   0.030   4.021  1.3756  0.7079 -1.0613
 2577SOL    HW310075   3.837  -0.019   4.132  1.2139  0.7618 -0.9046
 2577SOL    MW410076   3.769   0.029   4.105  0.4962 -0.1683 -0.8095
 2578SOL     OW10077   3.113   3.050   5.751 -0.1617  0.0609  0.3175
 2578SOL    HW210078   3.171   2.980   5.781 -0.7246  0.0911  1.5674
 2578SOL    HW310079   3.164   3.098   5.686  1.0171 -0.2106  1.0184
 2578SOL    MW410080   3.127   3.047   5.746 -0.0804  0.0291  0.5749
 2579SOL     OW10081   0.514   2.572   5.686  0.2177 -0.2226 -0.0791
 2579SOL    HW210082   0.441   2.554   5.745  1.0274 -0.7248  0.7980
 2579SOL    HW310083   0.559   2.487   5.678  1.7623  0.4649  0.8719
 2579SOL    MW410084   0.510   2.558   5.692  0.5283 -0.1982  0.1621
 2580SOL     OW10085   4.645   0.582   2.537  0.2770  0.1928 -0.2341
 2580SOL    HW210086   4.600   0.661   2.508  0.6165 -0.7205 -3.6410
 2580SOL    HW310087   4.684   0.546   2.458  0.9944 -2.8794  1.3648
 2580SOL    MW410088   4.644   0.588   2.523  0.4165 -0.3330 -0.4726
 2581SOL     OW10089   3.375   4.522   1.786  0.2900 -0.6998  0.3632
 2581SOL    HW210090   3.452   4.473   1.814 -0.2741 -0.8891  1.6518
 2581SOL    HW310091   3.321   4.458   1.741 -0.7518 -1.5056  2.6163
 2581SOL    MW410092   3.378   4.507   1.784  0.0782 -0.8311  0.8305
 2582SOL     OW10093   1.071   0.742   4.781  0.0895 -0.2246 -0.1900
 2582SOL    HW210094   1.017   0.682   4.730  1.0006 -2.8822  1.7408
 2582SOL    HW310095   1.024   0.752   4.864 -1.4236  4.0819 -1.2856
 2582SOL    MW410096   1.058   0.736   4.786  0.0100 -0.0070 -0.0798
 2583SOL     OW10097   4.174   2.161   3.369  0.5322 -0.1083  0.5803
 2583SOL    HW210098   4.205   2.084   3.322 -0.3406 -0.2847  0.2666
 2583SOL    HW310099   4.138   2.217   3.300  0.7591  0.3777  0.8568
 2583SOL    MW410100   4.173   2.158   3.354  0.4470 -0.0675  0.5754
 2584SOL     OW10101   2.401   5.760   1.373  0.1600 -0.3393 -0.3734
 2584SOL    HW210102   2.328   5.819   1.388  0.4925 -0.2535  1.0965
 2584SOL    HW310103   2.479   5.815   1.386  0.5608 -0.1127 -3.1369
 2584SOL    MW410104   2.402   5.775   1.377  0.2568 -0.2981 -0.5441
 2585SOL     OW10105   2.097   0.399   2.692 -0.2673 -0.4900 -0.6866
 2585SOL    HW210106   2.061   0.437   2.772 -0.1893 -2.3481  0.2770
 2585SOL    HW310107   2.132   0.474   2.643 -1.9218  0.8888  0.1535
 2585SOL    MW410108   2.097   0.414   2.696 -0.4753 -0.5532 -0.4486
 2586SOL     OW10109   2.447   0.621   2.077  0.0888 -0.2898 -0.4993
 2586SOL    HW210110   2.484   0.604   2.164  1.2602  0.9568 -0.7221
 2586SOL    HW310111   2.360   0.655   2.095 -0.2008 -1.2989  0.1179
 2586SOL    MW410112   2.441   0.623   2.091  0.2051 -0.2585 -0.4473
 2587SOL     OW10113   1.666   1.930   0.887  0.1002 -0.3570  0.4457
 2587SOL    HW210114   1.621   1.984   0.952 -0.2141  0.0107 -0.0678
 2587SOL    HW310115   1.622   1.950   0.804  0.7400 -0.5359  0.0544
 2587SOL    MW410116   1.654   1.940   0.884  0.1432 -0.3321  0.3263
 2588SOL     OW10117   3.219   1.286   3.108  0.2589  0.3458 -0.6633
 2588SOL    HW210118   3.279   1.350   3.147 -0.1890  0.1897  0.3260
 2588SOL    HW310119   3.277   1.222   3.066  0.7643  0.6096 -0.3852
 2588SOL    MW410120   3.235   1.286   3.108  0.2665  0.3600 -0.4961
 2589SOL     OW10121   4.460   0.294   1.332 -0.1854  0.5693  0.0815
 2589SOL    HW210122   4.400   0.294   1.407 -0.0892  1.4772  0.1724
 2589SOL    HW310123   4.547   0.287   1.372 -0.0714  1.9755  0.1397
 2589SOL    MW410124   4.464   0.293   1.347 -0.1577  0.8746  0.1012
 2590SOL     OW10125   3.864   3.540   2.905 -0.6153  0.8498  0.8433
 2590SOL    HW210126   3.838   3.450   2.885  0.0032  1.0093 -0.8980
 2590SOL    HW310127   3.861   3.585   2.820 -0.3155  2.3147  1.5762
 2590SOL    MW410128   3.860   3.534   2.891 -0.4941  1.0641  0.7103
 2591SOL     OW10129   6.219   0.738   4.343  0.0236  0.3493 -0.4684
 2591SOL    HW210130   6.208   0.645   4.366 -0.5434  0.4108 -0.4767
 2591SOL    HW310131   6.303   0.762   4.380 -1.3769  0.7910  2.7022
 2591SOL    MW410132   6.229   0.729   4.351 -0.2360  0.4157 -0.0511
 2592SOL     OW10133   0.202   3.777   6.185 -0.0372 -0.3941 -0.3129
 2592SOL    HW210134   0.194   3.729   6.103  1.0117  0.0352 -0.6705
 2592SOL    HW310135   0.287   3.820   6.181 -1.0590  1.8049 -0.1750
 2592SOL    MW410136   0.212   3.777   6.174 -0.0337 -0.0473 -0.3419
 2593SOL     OW10137   2.889   0.620   0.964  0.4820  0.3165  0.3852
 2593SOL    HW210138   2.934   0.686   1.018 -1.6155  1.0911  1.2874
 2593SOL    HW310139   2.809   0.600   1.012 -1.3878  0.8587 -2.2822
 2593SOL    MW410140   2.884   0.626   0.978 -0.0414  0.4902  0.1523
 2594SOL     OW10141   4.013   4.730   6.245  0.1808  0.1710 -0.0954
 2594SOL    HW210142   3.953   4.782   6.299 -0.6941 -0.7610 -0.1504
 2594SOL    HW310143   3.958   4.664   6.204  1.1594 -0.3486 -0.6101
 2594SOL    MW410144   3.998   4.728   6.247  0.1944 -0.0205 -0.1706
 2595SOL     OW10145   5.588   4.211   1.282 -0.3478  0.0482 -0.2407
 2595SOL    HW210146   5.536   4.165   1.216 -0.3152  1.0370 -0.9875
 2595SOL    HW310147   5.580   4.304   1.259 -0.8350  0.4811  1.5332
 2595SOL    MW410148   5.580   4.217   1.270 -0.4078  0.2357 -0.1052
 2596SOL     OW10149   6.223   2.883   5.480 -0.1360 -0.0460 -0.1403
 2596SOL    HW210150   6.271   2.828   5.417  0.4337  0.0584  0.1956
 2596SOL    HW310151   6.273   2.876   5.561 -2.1851 -2.1546  1.0554
 2596SOL    MW410152   6.236   2.875   5.482 -0.3312 -0.3104  0.0618
 2597SOL     OW10153   0.374   0.470   3.272  0.2972 -0.3701 -0.4067
 2597SOL    HW210154   0.335   0.392   3.310  0.5579 -0.8828 -1.1588
 2597SOL    HW310155   0.330   0.481   3.188  0.1924  0.3566 -0.2672
 2597SOL    MW410156   0.363   0.461   3.266  0.3177 -0.3419 -0.4876
 2598SOL     OW10157   1.900   3.999   3.028  0.8095  0.1394  0.7008
 2598SOL    HW210158   1.869   3.995   3.118 -1.8875 -1.2834 -0.1563
 2598SOL    HW310159   1.905   4.092   3.008 -1.4976  0.5126  1.4935
 2598SOL    MW410160   1.896   4.011   3.037  0.1493  0.0009  0.6923
 2599SOL     OW10161   5.863   4.588   5.063  0.0170 -0.4428  0.5589
 2599SOL    HW210162   5.895   4.655   5.002 -1.1214  0.3882  0.8305
 2599SOL    HW310163   5.844   4.513   5.007  0.4337 -0.2242  0.1068
 2599SOL    MW410164   5.865   4.587   5.047 -0.0782 -0.3043  0.5351
 2600SOL     OW10165   4.094   4.034   2.275  0.1568 -0.1422 -0.0046
 2600SOL    HW210166   4.076   4.125   2.296 -1.0161 -0.7752  2.1254
 2600SOL    HW310167   4.181   4.034   2.237  0.1800  1.8596 -0.0180
 2600SOL    MW410168   4.103   4.046   2.273  0.0051  0.0384  0.2746
 2601SOL     OW10169   1.208   3.901   3.280  0.1090 -0.2608  0.7336
 2601SOL    HW210170   1.224   3.972   3.217  0.4707  0.5045  1.6544
 2601SOL    HW310171   1.268   3.831   3.253 -1.5934 -1.0192 -1.3473
 2601SOL    MW410172   1.218   3.901   3.268 -0.0679 -0.2599  0.5806
 2602SOL     OW10173   1.307   0.601   1.302  0.1700  0.7893  0.1670
 2602SOL    HW210174   1.377   0.544   1.270  0.1577  0.2983  0.9852
 2602SOL    HW310175   1.339   0.631   1.387 -1.0375 -0.2540  1.0240
 2602SOL    MW410176   1.320   0.597   1.309  0.0091  0.5869  0.3881
 2603SOL     OW10177   5.945   5.333   1.297  0.1510  0.0535  0.1789
 2603SOL    HW210178   5.972   5.256   1.347 -0.7486 -0.3258  0.1011
 2603SOL    HW310179   5.871   5.368   1.347 -0.5171 -0.1088 -0.6850
 2603SOL    MW410180   5.939   5.328   1.310 -0.0559 -0.0180  0.0546
 2604SOL     OW10181   4.249   0.766   2.696  0.0154  0.8072  0.0088
 2604SOL    HW210182   4.259   0.850   2.652 -0.0508  0.9482  0.2583
 2604SOL    HW310183   4.224   0.789   2.786 -1.6492  0.4919 -0.3446
 2604SOL    MW410184   4.247   0.780   2.702 -0.2129  0.7842 -0.0049
 2605SOL     OW10185   2.811   5.142   4.066 -0.2413  0.2607  0.2567
 2605SOL    HW210186   2.716   5.136   4.072 -0.3615 -0.7475 -1.7807
 2605SOL    HW310187   2.837   5.193   4.143 -2.3464 -0.0158  1.2181
 2605SOL    MW410188   2.802   5.148   4.077 -0.5349  0.0912  0.1148
 2606SOL     OW10189   3.041   5.820   2.083 -0.1151 -0.7066 -0.3304
 2606SOL    HW210190   3.035   5.911   2.053  0.9761 -0.6160 -0.3138
 2606SOL    HW310191   2.994   5.819   2.166 -0.0460 -0.1300 -0.2798
 2606SOL    MW410192   3.034   5.832   2.090  0.0380 -0.6185 -0.3216
 2607SOL     OW10193   0.964   3.731   4.402 -0.8415  0.3790  0.4154
 2607SOL    HW210194   0.969   3.640   4.373  1.2571  0.8651 -0.9050
 2607SOL    HW310195   0.952   3.782   4.322  1.5763  1.4799  0.6580
 2607SOL    MW410196   0.963   3.726   4.388 -0.2456  0.5884  0.2732
 2608SOL     OW10197   6.311   2.139   1.517 -0.0010  0.4839 -0.0648
 2608SOL    HW210198   6.361   2.159   1.596 -0.0628 -0.7020  0.2965
 2608SOL    HW310199   6.310   2.221   1.468  0.9815  0.9427  0.6407
 2608SOL    MW410200   6.317   2.153   1.521  0.1205  0.3880  0.0759
 2609SOL     OW10201   2.404   2.689   1.555 -0.8105  0.3461  0.0019
 2609SOL    HW210202   2.477   2.662   1.610  0.1935 -2.5234 -2.4784
 2609SOL    HW310203   2.440   2.758   1.499 -0.6365  0.3721  0.1461
 2609SOL    MW410204   2.418   2.695   1.555 -0.6551 -0.0291 -0.3063
 2610SOL     OW10205   5.865   5.016   5.206 -0.5135 -0.0630 -0.2272
 2610SOL    HW210206   5.924   5.031   5.132 -0.0275  0.5748  0.2772
 2610SOL    HW310207   5.882   5.089   5.265 -1.1182 -0.3989  0.3740
 2610SOL    MW410208   5.875   5.027   5.204 -0.5291 -0.0232 -0.0813
 2611SOL     OW10209   2.235   3.899   2.050 -0.0362  0.2040  0.1332
 2611SOL    HW210210   2.209   3.991   2.055  1.9421  0.8662 -0.5080
 2611SOL    HW310211   2.183   3.863   1.978  0.1380  1.2135 -0.5228
 2611SOL    MW410212   2.225   3.907   2.041  0.2478  0.4246 -0.0379
 2612SOL     OW10213   3.809   1.771   1.255  0.0676 -0.9288 -0.0116
 2612SOL    HW210214   3.897   1.737   1.266 -0.3286 -1.5045  1.5965
 2612SOL    HW310215   3.763   1.703   1.205  0.0447 -1.4773  0.7432
 2612SOL    MW410216   3.814   1.758   1.250  0.0123 -1.0771  0.3002
 2613SOL     OW10217   0.423   1.516   4.735 -0.5677 -0.0633 -0.1160
 2613SOL    HW210218   0.447   1.464   4.658 -0.1233  0.9825 -0.7026
 2613SOL    HW310219   0.370   1.456   4.789  0.4173 -1.3180 -0.4745
 2613SOL    MW410220   0.419   1.501   4.732 -0.3791 -0.0908 -0.2407
 2614SOL     OW10221   5.497   1.358   0.713 -0.6691 -0.1567  0.0144
 2614SOL    HW210222   5.553   1.382   0.787 -0.1416  1.6191 -0.8881
 2614SOL    HW310223   5.410   1.346   0.751 -0.4063  0.7175  0.9288
 2614SOL    MW410224   5.493   1.360   0.728 -0.5648  0.1929  0.0160
 2615SOL     OW10225   4.061   2.349   4.936 -0.5396 -0.4425  0.1886
 2615SOL    HW210226   4.043   2.287   4.865 -0.3894  0.6885 -0.8624
 2615SOL    HW310227   4.141   2.395   4.908 -0.7682  0.3716  0.8433
 2615SOL    MW410228   4.069   2.347   4.923 -0.5500 -0.1858  0.1363
 2616SOL     OW10229   3.894   3.601   0.440  0.1685 -0.1656  0.1936
 2616SOL    HW210230   3.911   3.548   0.362  3.4576 -0.0286  0.7033
 2616SOL    HW310231   3.975   3.598   0.490 -0.4500  3.0676  1.6490
 2616SOL    MW410232   3.907   3.594   0.436  0.5209  0.2790  0.4529
 2617SOL     OW10233   3.724   1.706  -0.012  0.1870  0.0400 -0.0889
 2617SOL    HW210234   3.653   1.681   0.048  2.0911 -2.3959  1.3315
 2617SOL    HW310235   3.703   1.661  -0.094  1.4325 -3.2779  1.2157
 2617SOL    MW410236   3.712   1.697  -0.015  0.6025 -0.7191  0.2707
 2618SOL     OW10237   3.803   5.080   4.103  0.0615  0.3860 -0.1679
 2618SOL    HW210238   3.795   5.002   4.048  0.1238 -0.6925  1.2927
 2618SOL    HW310239   3.745   5.144   4.062 -0.7111 -0.7307 -0.9007
 2618SOL    MW410240   3.794   5.078   4.090 -0.0322  0.0964 -0.0719
 2619SOL     OW10241   0.857   3.624   2.973  0.1433  0.0803  0.0404
 2619SOL    HW210242   0.840   3.573   2.894 -2.8234  1.0569 -0.0973
 2619SOL    HW310243   0.775   3.672   2.988  1.2492  1.3421  2.6720
 2619SOL    MW410244   0.844   3.624   2.965 -0.1022  0.3756  0.3694
 2620SOL     OW10245   1.653   3.179   6.070 -0.3488 -0.3467 -0.2798
 2620SOL    HW210246   1.681   3.214   6.154  0.9015  0.5252 -1.0268
 2620SOL    HW310247   1.569   3.137   6.088  0.7048 -1.7248  1.7484
 2620SOL    MW410248   1.645   3.178   6.083 -0.0448 -0.4134 -0.1108
 2621SOL     OW10249   5.777   3.027   4.086 -0.1731 -0.0519  0.1754
 2621SOL    HW210250   5.850   3.015   4.026 -0.9535 -2.0870 -0.4517
 2621SOL    HW310251   5.816   3.067   4.164  1.4446 -0.3514 -0.4438
 2621SOL    MW410252   5.792   3.031   4.088 -0.0626 -0.3599  0.0109
 2622SOL     OW10253   5.057   3.569   0.627 -0.3459  0.3926 -0.0190
 2622SOL    HW210254   5.042   3.554   0.720 -1.7401 -0.9731 -0.4208
 2622SOL    HW310255   5.146   3.538   0.611  0.8576  2.9195  1.2827
 2622SOL    MW410256   5.067   3.563   0.637 -0.3710  0.5458  0.0997
 2623SOL     OW10257   3.469   4.349   2.554  0.5026 -0.1744 -0.1002
 2623SOL    HW210258   3.470   4.295   2.634  1.0100 -0.2287 -0.1413
 2623SOL    HW310259   3.488   4.437   2.585 -1.5289  0.2308  0.1327
 2623SOL    MW410260   3.471   4.353   2.569  0.3015 -0.1281 -0.0749
 2624SOL     OW10261   4.202   6.029   2.557  0.5285 -0.2050  0.4400
 2624SOL    HW210262   4.213   5.980   2.476  0.9775  2.5140 -1.2561
 2624SOL    HW310263   4.113   6.063   2.552  0.2986 -0.6176  1.4779
 2624SOL    MW410264   4.192   6.027   2.546  0.5574  0.0993  0.3532
 2625SOL     OW10265   6.370   0.419   6.353  0.3632 -0.0448  0.2049
 2625SOL    HW210266   6.311   0.495   6.357 -1.4639 -1.1333 -2.5328
 2625SOL    HW310267   6.454   0.452   6.384  0.0470  3.5604 -2.1657
 2625SOL    MW410268   6.373   0.433   6.358  0.0804  0.2872 -0.4691
 2626SOL     OW10269   2.215   2.769   0.650  0.1186  0.0023  0.1684
 2626SOL    HW210270   2.263   2.700   0.604 -0.5195  0.5104 -1.3048
 2626SOL    HW310271   2.211   2.739   0.741  1.2710 -1.1074 -0.1251
 2626SOL    MW410272   2.221   2.756   0.656  0.1865 -0.0771 -0.0647
 2627SOL     OW10273   5.032   6.089   6.224  0.0532  0.3792 -0.3410
 2627SOL    HW210274   4.939   6.094   6.245 -0.0517 -0.2994 -0.6089
 2627SOL    HW310275   5.042   6.134   6.141  0.2091  1.7073  0.3782
 2627SOL    MW410276   5.021   6.095   6.216  0.0600  0.4649 -0.2815
 2628SOL     OW10277   2.708   5.662   5.113  0.1473 -0.1874  0.1247
 2628SOL    HW210278   2.670   5.589   5.162 -0.5883  0.4144  0.4783
 2628SOL    HW310279   2.691   5.642   5.021 -1.7750  0.4380  0.3001
 2628SOL    MW410280   2.701   5.650   5.107 -0.2034 -0.0255  0.1945
 2629SOL     OW10281   0.974   0.084   4.766  0.0772  0.0136 -0.2040
 2629SOL    HW210282   0.966  -0.005   4.730 -0.1011 -0.0827  0.0698
 2629SOL    HW310283   1.062   0.087   4.803 -0.5417 -0.6474  1.3815
 2629SOL    MW410284   0.984   0.072   4.766 -0.0280 -0.0863  0.0413
 2630SOL     OW10285   5.050   3.237   6.000 -0.5182 -0.3473 -0.2137
 2630SOL    HW210286   5.109   3.237   6.075 -1.6290 -1.5531  0.7080
 2630SOL    HW310287   5.000   3.318   6.009  0.3026  0.2065 -0.4699
 2630SOL    MW410288   5.051   3.247   6.011 -0.5565 -0.4333 -0.1259
 2631SOL     OW10289   5.986   3.493   0.757 -0.2652 -0.6876 -0.2794
 2631SOL    HW210290   5.981   3.399   0.776 -0.8537 -0.3880  1.1594
 2631SOL    HW310291   5.901   3.528   0.784  1.2705  0.8806  3.0275
 2631SOL    MW410292   5.974   3.485   0.763 -0.1402 -0.4412  0.3467
 2632SOL     OW10293   4.172   5.654   4.900 -0.2932  0.2990  0.6205
 2632SOL    HW210294   4.187   5.746   4.882 -1.4649  0.2931 -0.5806
 2632SOL    HW310295   4.153   5.615   4.815  0.4985 -1.1293  1.0542
 2632SOL    MW410296   4.171   5.661   4.887 -0.3433  0.1098  0.5193
 2633SOL     OW10297   1.175   4.779   3.135 -0.6459 -0.2062  0.5289
 2633SOL    HW210298   1.245   4.805   3.194 -1.4533 -1.1929  1.9974
 2633SOL    HW310299   1.132   4.860   3.110  0.9917  0.4188 -0.4338
 2633SOL    MW410300   1.179   4.793   3.139 -0.5364 -0.2539  0.5957
 2634SOL     OW10301   4.211   1.309   5.058  0.9303 -0.1810 -0.4766
 2634SOL    HW210302   4.241   1.271   4.975 -0.9075  1.4424 -2.0028
 2634SOL    HW310303   4.218   1.404   5.045 -2.4662  0.2423 -0.1254
 2634SOL    MW410304   4.216   1.317   5.045  0.2397  0.0891 -0.6316
 2635SOL     OW10305   4.712   0.375   1.463 -0.1198 -0.0594 -0.1711
 2635SOL    HW210306   4.788   0.429   1.442  0.1141  0.1702  1.1641
 2635SOL    HW310307   4.749   0.297   1.503 -0.6075  1.0344  2.6030
 2635SOL    MW410308   4.727   0.372   1.465 -0.1533  0.1152  0.3711
 2636SOL     OW10309   3.958   0.787   2.651  0.1599 -0.2219 -0.2649
 2636SOL    HW210310   3.962   0.693   2.634 -0.2774  0.1441 -2.6325
 2636SOL    HW310311   4.047   0.810   2.677  0.9979 -0.8774 -2.3429
 2636SOL    MW410312   3.970   0.777   2.652  0.2128 -0.2601 -0.8514
 2637SOL     OW10313   3.344   3.858   1.032 -0.2186 -0.1219  0.1366
 2637SOL    HW210314   3.342   3.782   1.090 -0.7202 -0.2897 -0.0978
 2637SOL    HW310315   3.398   3.922   1.078  0.2589 -0.6415  0.3112
 2637SOL    MW410316   3.351   3.857   1.045 -0.2218 -0.2126  0.1287
 2638SOL     OW10317   3.164   3.027   3.107 -0.1862 -0.0065  0.4485
 2638SOL    HW210318   3.163   2.939   3.144  1.2439 -0.1623  0.1470
 2638SOL    HW310319   3.172   3.085   3.183  0.4715 -0.2167  0.5444
 2638SOL    MW410320   3.165   3.023   3.122  0.0893 -0.0548  0.4214
 2639SOL     OW10321   6.377   4.889   3.933 -0.5936 -0.0658  0.1869
 2639SOL    HW210322   6.326   4.934   3.865  1.4682 -0.5821 -1.8649
 2639SOL    HW310323   6.315   4.830   3.975 -2.7365  2.6528  1.1157
 2639SOL    MW410324   6.362   4.887   3.929 -0.6043  0.2248  0.0388
 2640SOL     OW10325   1.241   4.879   5.420 -0.1453  0.0030  0.2705
 2640SOL    HW210326   1.149   4.896   5.440 -0.4137 -1.3905  0.3258
 2640SOL    HW310327   1.239   4.804   5.361  0.9664 -0.1607  0.4188
 2640SOL    MW410328   1.228   4.871   5.415 -0.0340 -0.2024  0.2974
 2641SOL     OW10329   6.222   1.688   0.979 -0.1617 -0.2174 -0.8771
 2641SOL    HW210330   6.150   1.675   1.040 -1.5603  0.4323 -2.3211
 2641SOL    HW310331   6.294   1.718   1.034 -1.7872  1.7568  0.3284
 2641SOL    MW410332   6.222   1.691   0.995 -0.5607  0.1288 -0.9086
 2642SOL     OW10333   3.510   5.806   3.474  0.5071 -0.1394  0.1748
 2642SOL    HW210334   3.423   5.811   3.515  0.0684  0.4445 -0.7904
 2642SOL    HW310335   3.526   5.712   3.465 -0.2743 -0.2566 -0.1251
 2642SOL    MW410336   3.501   5.794   3.479  0.3461 -0.0778  0.0079
 2643SOL     OW10337   6.262   5.116   3.187  0.4274  0.2196  0.0173
 2643SOL    HW210338   6.225   5.185   3.132 -1.4439  0.3363  1.3150
 2643SOL    HW310339   6.350   5.101   3.152  0.9374  3.2862 -0.2789
 2643SOL    MW410340   6.269   5.123   3.175  0.2478  0.6396  0.1494
 2644SOL     OW10341   1.989   5.264   3.245  0.3508 -0.3010 -0.3835
 2644SOL    HW210342   2.052   5.192   3.250  0.6153 -0.0278  0.3845
 2644SOL    HW310343   1.970   5.272   3.151  0.8778 -0.8841 -0.5515
 2644SOL    MW410344   1.995   5.256   3.233  0.4553 -0.3419 -0.3043
 2645SOL     OW10345   4.390   3.268   1.259  0.0310 -0.3474 -0.3123
 2645SOL    HW210346   4.333   3.241   1.331 -0.0008 -1.1331 -0.6219
 2645SOL    HW310347   4.410   3.360   1.278  1.4343 -0.9831  1.6675
 2645SOL    MW410348   4.385   3.276   1.271  0.2120 -0.5349 -0.0919
 2646SOL     OW10349   1.749   0.183   4.641  0.0159 -0.2656 -0.1648
 2646SOL    HW210350   1.810   0.256   4.651  0.9328 -0.8842 -1.0027
 2646SOL    HW310351   1.662   0.224   4.638  0.5882  0.9716 -2.1056
 2646SOL    MW410352   1.746   0.198   4.642  0.2124 -0.1840 -0.5314
 2647SOL     OW10353   3.730   0.450   5.956  0.3257  0.1332  0.0907
 2647SOL    HW210354   3.634   0.458   5.957  0.2083  0.0867  3.7301
 2647SOL    HW310355   3.745   0.356   5.962  0.4870  0.2392  1.7200
 2647SOL    MW410356   3.719   0.438   5.957  0.3315  0.1411  0.7859
 2648SOL     OW10357   0.732   5.783   0.221  0.4314  0.1001 -0.1026
 2648SOL    HW210358   0.682   5.714   0.177 -0.5163  0.5898  0.1812
 2648SOL    HW310359   0.728   5.857   0.160  0.6798  0.1855 -0.0124
 2648SOL    MW410360   0.725   5.784   0.207  0.3392  0.1760 -0.0533
 2649SOL     OW10361   4.048   6.241   6.212  0.0620  0.3054 -0.1227
 2649SOL    HW210362   4.012   6.289   6.287  0.2056  1.0668 -0.5274
 2649SOL    HW310363   4.041   6.303   6.139  0.4547 -0.2218 -0.6126
 2649SOL    MW410364   4.042   6.256   6.212  0.1328  0.3363 -0.2407
 2650SOL     OW10365   2.060   2.914   4.297  0.3365 -0.1921 -0.2009
 2650SOL    HW210366   2.001   2.901   4.223  0.4313 -1.0745 -0.1286
 2650SOL    HW310367   2.038   2.843   4.358  1.3844 -0.4555 -0.1206
 2650SOL    MW410368   2.049   2.903   4.295  0.4873 -0.3432 -0.1807
 2651SOL     OW10369   5.261   2.019   4.907 -0.3045  0.2409 -0.0802
 2651SOL    HW210370   5.302   1.962   4.972  0.2620 -1.0124 -1.4949
 2651SOL    HW310371   5.334   2.054   4.856 -0.7642  0.9519 -0.2611
 2651SOL    MW410372   5.276   2.016   4.909 -0.2904  0.1694 -0.2907
 2652SOL     OW10373   4.332   2.408   1.014  0.4402  0.1509 -0.2886
 2652SOL    HW210374   4.418   2.447   0.996 -0.5821  1.8683 -1.8953
 2652SOL    HW310375   4.294   2.395   0.927 -0.8341 -0.8058  0.3908
 2652SOL    MW410376   4.338   2.412   1.000  0.1372  0.2512 -0.4109
 2653SOL     OW10377   3.094   0.158   3.615 -0.1515  0.2420 -0.5426
 2653SOL    HW210378   3.094   0.210   3.534 -0.1916  1.4905  0.2387
 2653SOL    HW310379   3.054   0.216   3.680  1.6106 -0.0023  0.8244
 2653SOL    MW410380   3.089   0.173   3.613  0.0757  0.3745 -0.2591
 2654SOL     OW10381   5.406   1.023   3.470  0.2866  0.5496  0.0644
 2654SOL    HW210382   5.343   1.089   3.501  0.5576  1.1081 -0.5470
 2654SOL    HW310383   5.367   0.939   3.496  0.7415  0.9817  2.3795
 2654SOL    MW410384   5.392   1.021   3.478  0.3824  0.6803  0.2892
 2655SOL     OW10385   0.914   0.434   3.036  0.1271 -0.4869  0.1536
 2655SOL    HW210386   0.909   0.505   3.100  1.0086 -0.0493 -0.2508
 2655SOL    HW310387   1.004   0.437   3.004 -0.3418 -0.5792 -1.2462
 2655SOL    MW410388   0.925   0.444   3.040  0.1815 -0.4413 -0.0845
 2656SOL     OW10389   0.995   6.104   3.123  0.9191  0.0355 -0.6326
 2656SOL    HW210390   0.938   6.178   3.103  1.8419  1.0467  0.3137
 2656SOL    HW310391   0.943   6.049   3.181  0.5374  0.3995 -0.6227
 2656SOL    MW410392   0.981   6.107   3.128  0.9905  0.2170 -0.5065
 2657SOL     OW10393   0.411   3.299   0.538 -0.3974  0.0733  0.3275
 2657SOL    HW210394   0.433   3.235   0.605  0.6819  1.0232  0.9154
 2657SOL    HW310395   0.440   3.383   0.574 -1.5282  0.8741 -0.5348
 2657SOL    MW410396   0.418   3.302   0.551 -0.4042  0.3043  0.2913
 2658SOL     OW10397   4.364   2.137   3.766  0.1118  0.5959 -0.0810
 2658SOL    HW210398   4.284   2.100   3.727  0.7671  0.7917 -1.6535
 2658SOL    HW310399   4.333   2.212   3.817 -0.8737 -0.2394  0.5945
 2658SOL    MW410400   4.349   2.142   3.768  0.0682  0.5115 -0.1994
 2659SOL     OW10401   4.144   0.289   5.661  0.2879 -0.4177 -0.6690
 2659SOL    HW210402   4.132   0.199   5.629  0.6820 -0.5601 -0.4285
 2659SOL    HW310403   4.215   0.282   5.725 -0.8301 -0.2345  0.6372
 2659SOL    MW410404   4.152   0.276   5.665  0.1924 -0.4123 -0.4650
 2660SOL     OW10405   0.778   1.114   5.346 -0.5688 -0.1634 -0.4232
 2660SOL    HW210406   0.850   1.051   5.359  0.6222  0.9450 -1.3729
 2660SOL    HW310407   0.795   1.153   5.261 -1.5172  1.1455 -0.0480
 2660SOL    MW410408   0.790   1.111   5.337 -0.5368  0.1555 -0.4990
 2661SOL     OW10409   5.557   4.014   1.699  0.0588 -0.3300 -0.2258
 2661SOL    HW210410   5.475   3.990   1.742  0.4658  1.3784  1.6697
 2661SOL    HW310411   5.626   3.983   1.759  0.8069 -1.1220 -1.4469
 2661SOL    MW410412   5.556   4.007   1.713  0.2112 -0.2091 -0.1368
 2662SOL     OW10413   1.900   4.336   5.044  0.5895  0.2852 -0.2034
 2662SOL    HW210414   1.872   4.339   5.136 -1.7701  1.1509 -0.8903
 2662SOL    HW310415   1.919   4.427   5.022  0.5237  0.1599 -0.7782
 2662SOL    MW410416   1.899   4.348   5.053  0.2695  0.3829 -0.3699
 2663SOL     OW10417   0.045   4.237   3.133 -0.6190  0.2981  0.4984
 2663SOL    HW210418  -0.047   4.211   3.125  0.1738 -2.4036 -1.2041
 2663SOL    HW310419   0.084   4.170   3.189  0.6670  0.2878 -0.3810
 2663SOL    MW410420   0.038   4.225   3.139 -0.3448 -0.0597  0.1578
 2664SOL     OW10421   5.713   2.370   5.400  0.2220  0.0990 -0.0435
 2664SOL    HW210422   5.659   2.418   5.463 -0.8195 -0.6719 -0.3425
 2664SOL    HW310423   5.797   2.416   5.402  0.9717 -1.0637  3.4303
 2664SOL    MW410424   5.717   2.383   5.409  0.1835 -0.1561  0.3754
 2665SOL     OW10425   4.381   5.753   5.684 -0.1753 -0.2243 -0.5478
 2665SOL    HW210426   4.423   5.683   5.636  1.4806 -0.1601  0.7263
 2665SOL    HW310427   4.442   5.775   5.755 -1.3663  1.3918  0.0642
 2665SOL    MW410428   4.394   5.747   5.687 -0.1140 -0.0026 -0.2990
 2666SOL     OW10429   3.700   5.432   2.415  0.3421 -0.0926 -0.2735
 2666SOL    HW210430   3.649   5.359   2.380 -0.0836  0.3033 -0.4889
 2666SOL    HW310431   3.726   5.483   2.338 -1.0651  1.0844 -0.0162
 2666SOL    MW410432   3.696   5.429   2.400  0.1003  0.1149 -0.2679
 2667SOL     OW10433   3.466   3.113   4.856  0.4672  0.4693  0.3761
 2667SOL    HW210434   3.387   3.167   4.856  0.3644  0.3376  1.2363
 2667SOL    HW310435   3.538   3.176   4.863  0.3877  0.5479  0.5067
 2667SOL    MW410436   3.465   3.129   4.857  0.4432  0.4623  0.5068
 2668SOL     OW10437   5.749   2.501   1.875  0.0555  0.1078  0.3454
 2668SOL    HW210438   5.792   2.585   1.884  1.9451 -0.9596  2.4231
 2668SOL    HW310439   5.807   2.449   1.819  0.2562 -0.5783  1.1630
 2668SOL    MW410440   5.762   2.505   1.869  0.3313 -0.1235  0.7274
 2669SOL     OW10441   4.010   1.636   3.755 -0.0239 -1.1289  0.2068
 2669SOL    HW210442   4.010   1.578   3.831  0.8134 -0.2474  0.8996
 2669SOL    HW310443   3.977   1.582   3.683 -1.2753 -1.8514  1.2895
 2669SOL    MW410444   4.005   1.621   3.755 -0.0785 -1.1079  0.4411
 2670SOL     OW10445   0.994   2.973   5.984  0.0477  0.0915 -0.2164
 2670SOL    HW210446   1.039   2.991   6.066  0.0907  1.0705 -0.4424
 2670SOL    HW310447   1.045   2.902   5.944  1.7255  1.4746 -0.6902
 2670SOL    MW410448   1.007   2.966   5.989  0.2748  0.4032 -0.3087
 2671SOL     OW10449   6.395   2.117   1.198  0.4422 -0.0176  0.0199
 2671SOL    HW210450   6.490   2.120   1.196  0.4051  1.2323 -1.2789
 2671SOL    HW310451   6.369   2.203   1.232 -0.2297 -0.1013 -0.2709
 2671SOL    MW410452   6.404   2.129   1.202  0.3486  0.1362 -0.1898
 2672SOL     OW10453   2.625   5.215   1.498 -0.6300 -0.4350  0.2867
 2672SOL    HW210454   2.685   5.156   1.544 -0.0421  0.7998  1.1594
 2672SOL    HW310455   2.566   5.247   1.566  0.0031  1.1153  0.1459
 2672SOL    MW410456   2.625   5.211   1.513 -0.4689 -0.0675  0.3833
 2673SOL     OW10457   0.323   2.524   1.283 -0.3462 -0.0437  0.1577
 2673SOL    HW210458   0.375   2.599   1.255 -0.8084  0.2909  0.1804
 2673SOL    HW310459   0.256   2.515   1.216 -1.5475  0.8500  1.1843
 2673SOL    MW410460   0.321   2.533   1.271 -0.5657  0.1184  0.2961
 2674SOL     OW10461   4.307   1.091   2.940 -0.8144  0.2932  0.0625
 2674SOL    HW210462   4.341   1.149   2.871 -0.3309 -0.0918 -0.0247
 2674SOL    HW310463   4.216   1.118   2.950 -0.5253  1.2585  0.2094
 2674SOL    MW410464   4.300   1.103   2.932 -0.7125  0.3698  0.0704
 2675SOL     OW10465   3.928   1.223   5.906 -0.0874 -0.7133  0.0955
 2675SOL    HW210466   3.840   1.202   5.937  0.6000  0.8375  3.6355
 2675SOL    HW310467   3.986   1.168   5.958  1.1526  0.9948  0.6028
 2675SOL    MW410468   3.924   1.213   5.917  0.1669 -0.2833  0.6295
 2676SOL     OW10469   3.677   5.422   1.502 -0.1449 -0.1696  0.2118
 2676SOL    HW210470   3.662   5.510   1.467  1.7150  0.2936  0.4714
 2676SOL    HW310471   3.593   5.396   1.539 -0.8989  1.2281 -0.4643
 2676SOL    MW410472   3.664   5.430   1.502  0.0010  0.0759  0.1569
 2677SOL     OW10473   4.481   3.087   0.652 -0.0711  0.4136 -0.1330
 2677SOL    HW210474   4.452   3.095   0.743 -0.0321 -1.3532  0.0763
 2677SOL    HW310475   4.466   2.994   0.630  1.5740  0.3926 -1.3449
 2677SOL    MW410476   4.475   3.076   0.661  0.1511  0.1777 -0.2653
 2678SOL     OW10477   3.234   3.489   0.656  0.0962  0.0569 -0.0501
 2678SOL    HW210478   3.186   3.571   0.667  0.4897  0.4844 -1.2665
 2678SOL    HW310479   3.281   3.477   0.738 -1.5083  0.0015  0.8883
 2678SOL    MW410480   3.234   3.498   0.668 -0.0636  0.1060 -0.0868
 2679SOL     OW10481   2.752   1.961   2.319  0.0341 -0.1194 -0.2051
 2679SOL    HW210482   2.806   1.998   2.389 -0.8639  1.2656 -0.2070
 2679SOL    HW310483   2.662   1.985   2.343 -0.3066  0.1976 -1.7206
 2679SOL    MW410484   2.747   1.969   2.331 -0.1293  0.1051 -0.4053
 2680SOL     OW10485   4.865   6.254   2.137  0.1013  0.1515  0.5935
 2680SOL    HW210486   4.840   6.346   2.134  1.8648  0.7181  1.7742
 2680SOL    HW310487   4.835   6.223   2.223 -2.2978 -1.0176 -0.5471
 2680SOL    MW410488   4.858   6.262   2.148  0.0174  0.0720  0.5988
 2681SOL     OW10489   1.993   4.392   3.833  0.5576 -0.0086 -0.1746
 2681SOL    HW210490   1.937   4.338   3.888 -0.0824  1.8534  1.1227
 2681SOL    HW310491   2.082   4.363   3.853  0.2421 -0.4282  0.6427
 2681SOL    MW410492   1.998   4.381   3.843  0.4315  0.1817  0.1044
 2682SOL     OW10493   4.701   1.583   3.601  0.1153  0.1088  0.0714
 2682SOL    HW210494   4.662   1.499   3.578  0.5907 -0.0566 -0.1358
 2682SOL    HW310495   4.671   1.600   3.690 -1.4493  0.5889 -0.5245
 2682SOL    MW410496   4.692   1.574   3.610 -0.0284  0.1503 -0.0346
 2683SOL     OW10497   0.800   4.745   3.312 -0.2350  0.0915  0.2043
 2683SOL    HW210498   0.748   4.721   3.388 -1.8537 -1.8600 -1.3981
 2683SOL    HW310499   0.831   4.662   3.277  0.5024  0.9441 -1.2647
 2683SOL    MW410500   0.798   4.731   3.317 -0.3513 -0.0535 -0.2010
 2684SOL     OW10501  -0.029   0.769   5.396 -0.5887 -0.2025 -0.0070
 2684SOL    HW210502   0.052   0.806   5.362  0.6744 -0.0062  2.9847
 2684SOL    HW310503  -0.001   0.706   5.462 -2.8626 -1.9146 -0.5468
 2684SOL    MW410504  -0.015   0.766   5.400 -0.7221 -0.4025  0.3165
 2685SOL     OW10505   2.184   5.864   0.560  0.2136  0.8474 -0.2130
 2685SOL    HW210506   2.218   5.910   0.483 -1.4426  0.3304 -1.3280
 2685SOL    HW310507   2.216   5.774   0.549 -0.9448  0.4997 -0.9527
 2685SOL    MW410508   2.192   5.858   0.548 -0.1577  0.7333 -0.4577
 2686SOL     OW10509   3.830   3.998   4.301 -0.1681  0.5808 -0.0279
 2686SOL    HW210510   3.794   3.947   4.373  1.9458 -0.4292  0.4007
 2686SOL    HW310511   3.806   4.088   4.321  1.1050  0.4649  2.4947
 2686SOL    MW410512   3.822   4.003   4.313  0.2788  0.4322  0.3615
 2687SOL     OW10513   1.009   4.802   6.323  0.2618  0.1507 -0.0253
 2687SOL    HW210514   0.996   4.853   6.243  2.0265  0.2566 -0.2929
 2687SOL    HW310515   1.000   4.866   6.393  0.1434  0.3586 -0.2282
 2687SOL    MW410516   1.006   4.817   6.321  0.4790  0.1921 -0.0874
 2688SOL     OW10517   0.818   2.008   2.203  0.4215 -0.2234 -0.0795
 2688SOL    HW210518   0.772   2.074   2.256  0.3459  0.0944 -0.5317
 2688SOL    HW310519   0.855   1.947   2.267 -0.7490 -0.5694  0.2927
 2688SOL    MW410520   0.817   2.009   2.219  0.2571 -0.2272 -0.0900
 2689SOL     OW10521   2.460   3.518   2.573  0.1797  0.1167  0.3550
 2689SOL    HW210522   2.461   3.478   2.660  1.4054 -1.7795 -0.4725
 2689SOL    HW310523   2.512   3.598   2.583  1.1668 -0.6059  1.1444
 2689SOL    MW410524   2.467   3.524   2.586  0.4716 -0.2288  0.3500
 2690SOL     OW10525   5.707   2.472   4.856  0.4195 -0.0606 -0.4314
 2690SOL    HW210526   5.789   2.485   4.904 -0.1807 -0.1627  0.6385
 2690SOL    HW310527   5.733   2.476   4.764  1.7003 -0.5607 -0.1098
 2690SOL    MW410528   5.721   2.474   4.850  0.5093 -0.1400 -0.2478
 2691SOL     OW10529   2.994   3.737   2.427  0.2244  0.3660 -0.3059
 2691SOL    HW210530   2.937   3.804   2.389  1.6694  1.4353 -0.6685
 2691SOL    HW310531   3.013   3.678   2.355  0.1849  0.4237 -0.3638
 2691SOL    MW410532   2.989   3.738   2.413  0.4099  0.5147 -0.3614
 2692SOL     OW10533   0.062   5.611   4.721  0.0623  0.0593 -0.1425
 2692SOL    HW210534   0.139   5.588   4.668 -0.0529  0.8083 -0.6470
 2692SOL    HW310535   0.054   5.706   4.712 -1.6249 -0.1252 -1.0791
 2692SOL    MW410536   0.071   5.620   4.713 -0.1755  0.1338 -0.3327
 2693SOL     OW10537   2.893   4.136   1.134 -0.0196 -0.2765 -0.2191
 2693SOL    HW210538   2.832   4.098   1.197 -0.7360  1.0732 -0.0514
 2693SOL    HW310539   2.949   4.063   1.108 -0.0976 -1.0109  1.5115
 2693SOL    MW410540   2.892   4.121   1.139 -0.1244 -0.1953  0.0313
 2694SOL     OW10541   0.096   4.218   1.543  0.2919  0.1366  0.5333
 2694SOL    HW210542   0.016   4.172   1.568  0.7231 -1.1644 -0.3838
 2694SOL    HW310543   0.166   4.160   1.571  0.8242 -0.5926 -2.1412
 2694SOL    MW410544   0.095   4.205   1.550  0.4190 -0.1313  0.0595
 2695SOL     OW10545   3.492   1.526   0.516 -0.3738 -0.0651 -0.2230
 2695SOL    HW210546   3.477   1.609   0.562 -1.5416 -0.9600  1.1072
 2695SOL    HW310547   3.473   1.545   0.425 -1.1299  1.0157  0.1401
 2695SOL    MW410548   3.488   1.540   0.510 -0.6276 -0.0406  0.0004
 2696SOL     OW10549   3.343   1.212   1.518  0.6522  0.4800 -0.2201
 2696SOL    HW210550   3.392   1.294   1.520  1.1742  0.1713 -0.2238
 2696SOL    HW310551   3.408   1.145   1.536 -0.0225  0.1724  1.2090
 2696SOL    MW410552   3.358   1.214   1.521  0.6321  0.3987 -0.0320
 2697SOL     OW10553   5.181   4.539   1.673  0.3895 -0.0680  0.0236
 2697SOL    HW210554   5.227   4.536   1.757  1.3522 -0.9084 -0.5180
 2697SOL    HW310555   5.094   4.573   1.695  1.0358  0.9159  1.1640
 2697SOL    MW410556   5.176   4.543   1.687  0.6018 -0.0491  0.1026
 2698SOL     OW10557   0.471   0.091   2.091 -0.4650  0.0373  0.6958
 2698SOL    HW210558   0.456   0.030   2.163  0.5993 -1.0434  0.0333
 2698SOL    HW310559   0.406   0.066   2.025 -2.4777  1.9986  1.7824
 2698SOL    MW410560   0.460   0.080   2.092 -0.5901  0.1535  0.7517
 2699SOL     OW10561   2.461   0.839   6.186 -0.5574  0.5808  0.1051
 2699SOL    HW210562   2.491   0.883   6.107 -0.5362  2.6862  1.1925
 2699SOL    HW310563   2.398   0.774   6.156  0.3322  0.5103 -1.6964
 2699SOL    MW410564   2.457   0.837   6.172 -0.4373  0.8492  0.0109
 2700SOL     OW10565   2.068   3.804   1.838  0.6084  0.1659 -0.6099
 2700SOL    HW210566   2.113   3.724   1.813 -0.1560 -0.5127  0.1137
 2700SOL    HW310567   1.994   3.774   1.890  0.0200  1.3230 -0.7561
 2700SOL    MW410568   2.064   3.789   1.842  0.4299  0.2291 -0.5337
 2701SOL     OW10569   4.713   1.573   0.559  0.0876 -0.3128  0.1010
 2701SOL    HW210570   4.630   1.618   0.573 -0.2391 -0.5615 -0.9365
 2701SOL    HW310571   4.779   1.637   0.584 -0.3976 -0.5430  2.1749
 2701SOL    MW410572   4.711   1.587   0.564 -0.0195 -0.3760  0.2378
 2702SOL     OW10573   0.518   3.126   0.705 -0.6416  0.4943  0.5891
 2702SOL    HW210574   0.610   3.127   0.679 -0.7831  0.8148  0.0910
 2702SOL    HW310575   0.481   3.051   0.658 -0.8027  0.8257  0.1732
 2702SOL    MW410576   0.525   3.116   0.695 -0.6815  0.5803  0.4685
 2703SOL     OW10577   5.019   5.784   2.781 -0.4748  0.2268  0.0514
 2703SOL    HW210578   4.975   5.722   2.839  0.9987 -1.1221 -0.2341
 2703SOL    HW310579   5.059   5.731   2.713  1.8057  1.3364  0.4252
 2703SOL    MW410580   5.018   5.769   2.780  0.0205  0.1952  0.0630
 2704SOL     OW10581   3.513   1.195   1.943  0.3079 -0.5036 -0.3167
 2704SOL    HW210582   3.587   1.187   2.004 -0.5093 -2.2543  0.5161
 2704SOL    HW310583   3.437   1.211   1.999 -0.2828 -0.9917 -0.9665
 2704SOL    MW410584   3.513   1.196   1.959  0.1221 -0.7990 -0.2925
 2705SOL     OW10585   5.416   4.156   5.732  0.4155  0.3732  0.4644
 2705SOL    HW210586   5.429   4.138   5.825  1.5450  1.4416  0.5362
 2705SOL    HW310587   5.481   4.223   5.711 -0.2788  0.6418 -0.9417
 2705SOL    MW410588   5.426   4.162   5.742  0.4729  0.5496  0.2884
 2706SOL     OW10589   4.795   1.932   2.337 -0.3864  0.1930  0.3209
 2706SOL    HW210590   4.712   1.908   2.379 -0.4327  0.2274  0.2514
 2706SOL    HW310591   4.819   2.015   2.379 -0.8710  0.6672 -0.3128
 2706SOL    MW410592   4.787   1.940   2.348 -0.4565  0.2601  0.2281
 2707SOL     OW10593   3.128   3.050   6.168  0.5069  0.0064 -0.7758
 2707SOL    HW210594   3.145   2.962   6.200 -1.4239 -0.1661 -0.0621
 2707SOL    HW310595   3.113   3.102   6.248 -0.3079  0.5109 -1.2405
 2707SOL    MW410596   3.128   3.045   6.183  0.1447  0.0502 -0.7430
 2708SOL     OW10597   5.664   2.242   5.015  0.6889  0.2495  0.2664
 2708SOL    HW210598   5.689   2.291   4.937  0.2925  2.9738  1.7203
 2708SOL    HW310599   5.571   2.225   5.005  0.2133  2.2301  0.8808
 2708SOL    MW410600   5.655   2.247   5.004  0.5739  0.8703  0.5393
 2709SOL     OW10601   0.557   4.163   4.080 -0.0936 -0.2468  0.3354
 2709SOL    HW210602   0.481   4.182   4.135 -0.3890  0.5275 -0.3083
 2709SOL    HW310603   0.618   4.118   4.138  0.1757  1.7140  1.7085
 2709SOL    MW410604   0.555   4.160   4.095 -0.0971  0.1140  0.4317
 2710SOL     OW10605   0.183   2.575   1.049 -0.2442  0.2174  0.5853
 2710SOL    HW210606   0.271   2.542   1.030 -0.8448 -0.5073 -1.1981
 2710SOL    HW310607   0.173   2.650   0.990 -0.7376  0.4400  0.9461
 2710SOL    MW410608   0.193   2.581   1.039 -0.3885  0.1512  0.3976
 2711SOL     OW10609   2.132   3.941   5.054 -0.4288  0.2275 -0.2093
 2711SOL    HW210610   2.175   3.879   5.114 -0.7447  0.7296  0.5485
 2711SOL    HW310611   2.079   3.997   5.111  0.2142  1.5086 -0.8345
 2711SOL    MW410612   2.130   3.940   5.069 -0.3856  0.4628 -0.1918
 2712SOL     OW10613   1.982   4.610   5.018 -0.2451 -0.1511  0.0629
 2712SOL    HW210614   1.899   4.655   5.003  0.9911  3.0549  1.7174
 2712SOL    HW310615   2.027   4.612   4.933 -1.0312 -0.0765 -0.3577
 2712SOL    MW410616   1.977   4.616   5.005 -0.1857  0.2817  0.2257
 2713SOL     OW10617   3.451   0.481   4.357  0.4228 -0.3427  0.2235
 2713SOL    HW210618   3.376   0.539   4.345 -1.3563 -2.5288  0.0360
 2713SOL    HW310619   3.495   0.480   4.272 -1.3258 -1.5532 -0.7251
 2713SOL    MW410620   3.447   0.489   4.344 -0.0427 -0.7908  0.0736
 2714SOL     OW10621   0.887   0.774   4.241  0.5123  0.0085 -0.1586
 2714SOL    HW210622   0.964   0.764   4.186  1.0101 -0.2938  0.5706
 2714SOL    HW310623   0.870   0.685   4.274 -0.6942 -0.1026 -1.0202
 2714SOL    MW410624   0.895   0.761   4.238  0.4188 -0.0460 -0.1760
 2715SOL     OW10625   0.664   4.347   1.241  0.3379 -0.5975  0.1181
 2715SOL    HW210626   0.692   4.378   1.327 -1.5063 -1.7076  1.1928
 2715SOL    HW310627   0.723   4.273   1.223  1.0218 -0.0868  0.1926
 2715SOL    MW410628   0.676   4.341   1.250  0.1848 -0.6766  0.2697
 2716SOL     OW10629   5.081   0.865   4.862 -0.4478 -0.5797 -0.5033
 2716SOL    HW210630   4.991   0.896   4.868 -0.4150 -0.4251 -0.7992
 2716SOL    HW310631   5.134   0.939   4.890 -0.3836 -0.4544 -0.9422
 2716SOL    MW410632   5.076   0.878   4.867 -0.4350 -0.5427 -0.6002
 2717SOL     OW10633   2.852   3.339   6.110  0.1198  0.0704 -0.3797
 2717SOL    HW210634   2.939   3.303   6.093  0.0907 -0.9542  1.4310
 2717SOL    HW310635   2.868   3.417   6.162 -0.0552 -0.6316  0.7549
 2717SOL    MW410636   2.866   3.345   6.114  0.0928 -0.1574  0.0089
 2718SOL     OW10637   4.401   5.678   4.610  1.0410 -0.1327 -0.7597
 2718SOL    HW210638   4.462   5.750   4.627 -1.7202  2.2419 -0.1056
 2718SOL    HW310639   4.322   5.720   4.577 -0.8307 -2.8514 -0.1157
 2718SOL    MW410640   4.398   5.693   4.608  0.4298 -0.1781 -0.5884
 2719SOL     OW10641   2.408   2.162   5.678 -0.3940 -0.0464 -0.4292
 2719SOL    HW210642   2.425   2.101   5.749 -0.3241 -1.2057 -1.4215
 2719SOL    HW310643   2.493   2.202   5.659 -0.1344 -0.7660 -0.7906
 2719SOL    MW410644   2.421   2.159   5.685 -0.3506 -0.2943 -0.6078
 2720SOL     OW10645   3.368   5.623   4.799 -0.2835 -0.4723 -0.5617
 2720SOL    HW210646   3.360   5.655   4.709 -1.3224  1.8551  0.2985
 2720SOL    HW310647   3.279   5.599   4.824 -0.4021  0.9771  0.5298
 2720SOL    MW410648   3.355   5.624   4.791 -0.4362  0.0260 -0.3042
 2721SOL     OW10649   0.119   5.092   4.633  0.4868  0.1659 -0.2894
 2721SOL    HW210650   0.038   5.127   4.597 -0.0207 -0.0495  0.6225
 2721SOL    HW310651   0.180   5.166   4.630 -0.6813  1.3450  1.9832
 2721SOL    MW410652   0.117   5.107   4.628  0.2657  0.2930  0.1308
 2722SOL     OW10653   4.281   5.888   5.326  0.2814 -0.2990  0.1472
 2722SOL    HW210654   4.288   5.938   5.407 -0.2189  2.8332 -1.5658
 2722SOL    HW310655   4.372   5.879   5.296  0.3249  0.5463 -0.0089
 2722SOL    MW410656   4.294   5.894   5.333  0.2211  0.2258 -0.0994
 2723SOL     OW10657   4.488   0.706   1.751  0.0831 -0.0578  0.1144
 2723SOL    HW210658   4.407   0.707   1.701 -0.6697  1.1243  1.2802
 2723SOL    HW310659   4.530   0.624   1.728 -1.2604 -0.5167 -0.8068
 2723SOL    MW410660   4.483   0.696   1.742 -0.1935  0.0376  0.1466
 2724SOL     OW10661   1.371   5.373   2.647  0.2782 -0.0974 -1.0970
 2724SOL    HW210662   1.289   5.354   2.693 -0.1484  0.5344 -1.5656
 2724SOL    HW310663   1.348   5.443   2.586  1.0596 -0.2451 -1.5783
 2724SOL    MW410664   1.357   5.380   2.645  0.3250 -0.0335 -1.2223
 2725SOL     OW10665   2.537   2.226   4.759 -0.3403 -0.6399 -0.5582
 2725SOL    HW210666   2.593   2.172   4.815 -2.9680 -1.3347  1.6011
 2725SOL    HW310667   2.523   2.172   4.681 -1.5289 -2.4781  0.8297
 2725SOL    MW410668   2.542   2.211   4.756 -0.8438 -0.9741 -0.0902
 2726SOL     OW10669   3.436   5.722   0.455  0.1074  0.5224  0.2155
 2726SOL    HW210670   3.433   5.796   0.516 -1.4641  2.1245 -1.6909
 2726SOL    HW310671   3.348   5.717   0.418  0.8918 -0.6179 -1.6606
 2726SOL    MW410672   3.424   5.731   0.458  0.0036  0.5833 -0.2836
 2727SOL     OW10673   5.004   2.098   6.135 -0.2579  0.2613  0.3788
 2727SOL    HW210674   4.910   2.099   6.118  0.2143 -0.3741 -2.8556
 2727SOL    HW310675   5.032   2.009   6.114  1.1046  0.4582  1.2105
 2727SOL    MW410676   4.996   2.086   6.130 -0.0158  0.2034  0.0618
 2728SOL     OW10677   4.141   0.232   1.271 -0.0299 -0.2999  0.3151
 2728SOL    HW210678   4.141   0.223   1.176  1.8055  1.1140  0.1144
 2728SOL    HW310679   4.131   0.143   1.305  0.8757 -1.0170 -1.2185
 2728SOL    MW410680   4.139   0.219   1.263  0.3317 -0.2080  0.0863
 2729SOL     OW10681   2.281   0.712   2.901  1.0991  0.1319  0.4374
 2729SOL    HW210682   2.190   0.741   2.900  0.1741 -2.3869  1.5156
 2729SOL    HW310683   2.333   0.791   2.887 -1.2575  1.3524 -2.5253
 2729SOL    MW410684   2.276   0.726   2.899  0.6661 -0.0394  0.1888
 2730SOL     OW10685   3.297   1.203   1.234 -0.0154 -0.1886  0.0346
 2730SOL    HW210686   3.253   1.250   1.305 -1.6603 -2.5734  0.7342
 2730SOL    HW310687   3.368   1.155   1.277  0.4293  0.1243 -0.3398
 2730SOL    MW410688   3.300   1.202   1.249 -0.1737 -0.4619  0.0775
 2731SOL     OW10689   3.724   4.652   1.198 -0.5923 -0.7204 -0.1874
 2731SOL    HW210690   3.811   4.640   1.236 -0.5287 -0.7183 -0.3294
 2731SOL    HW310691   3.665   4.656   1.273 -0.2718  1.0749  0.0014
 2731SOL    MW410692   3.728   4.651   1.213 -0.5416 -0.4833 -0.1812
 2732SOL     OW10693   5.888   5.283   2.241 -0.2726  0.0560  0.0830
 2732SOL    HW210694   5.816   5.258   2.299  1.4023 -1.2389  1.7567
 2732SOL    HW310695   5.967   5.265   2.292  1.2726  0.7425 -1.9208
 2732SOL    MW410696   5.889   5.277   2.255  0.1522 -0.0243  0.0395
 2733SOL     OW10697   4.958   1.429   3.090 -0.1953  0.1046 -0.0529
 2733SOL    HW210698   5.015   1.506   3.090  0.3725 -0.2915  1.4475
 2733SOL    HW310699   4.916   1.429   3.176 -1.9925  0.0164 -0.8869
 2733SOL    MW410700   4.960   1.439   3.101 -0.3575  0.0407  0.0351
 2734SOL     OW10701   2.644   4.112   4.441 -0.4011  0.7260  0.6228
 2734SOL    HW210702   2.599   4.163   4.373  1.2912  1.6447  0.1219
 2734SOL    HW310703   2.704   4.175   4.482  1.8294 -0.8262 -0.0486
 2734SOL    MW410704   2.646   4.127   4.438  0.1165  0.6424  0.4681
 2735SOL     OW10705   1.726   0.985   4.881 -0.3238 -0.2489 -0.3670
 2735SOL    HW210706   1.796   1.034   4.838  3.6263 -2.1733  3.0945
 2735SOL    HW310707   1.694   1.045   4.949 -0.0534 -0.3044 -0.1905
 2735SOL    MW410708   1.731   1.000   4.885  0.2330 -0.5102  0.1130
 2736SOL     OW10709   0.636   2.547   0.772 -0.1845 -0.0916 -0.1953
 2736SOL    HW210710   0.717   2.588   0.803 -0.3207 -0.1863  0.3004
 2736SOL    HW310711   0.653   2.527   0.680  0.9072 -1.4840  0.2720
 2736SOL    MW410712   0.649   2.550   0.764 -0.0584 -0.2878 -0.0683
 2737SOL     OW10713   0.480   6.300   3.158 -1.0427 -0.3627  0.2670
 2737SOL    HW210714   0.502   6.280   3.249 -0.5556  1.7605  0.6852
 2737SOL    HW310715   0.511   6.225   3.109 -1.5408 -1.6784  1.8617
 2737SOL    MW410716   0.487   6.288   3.164 -1.0442 -0.2562  0.5326
 2738SOL     OW10717   3.496   5.500   2.643  0.3234  0.7234  0.1654
 2738SOL    HW210718   3.427   5.440   2.612  0.1280  1.2075 -0.3683
 2738SOL    HW310719   3.532   5.537   2.563  0.2241  1.5551  0.4933
 2738SOL    MW410720   3.491   5.497   2.628  0.2845  0.8970  0.1382
 2739SOL     OW10721   3.204   3.264   4.880  0.2468 -0.1386  0.6899
 2739SOL    HW210722   3.182   3.312   4.800  0.7221  2.1733  1.8632
 2739SOL    HW310723   3.154   3.183   4.874 -0.9510  0.6732 -1.2055
 2739SOL    MW410724   3.195   3.260   4.868  0.1515  0.2735  0.5946
 2740SOL     OW10725   5.987   2.218   4.148 -0.0833  0.1827 -0.0814
 2740SOL    HW210726   5.992   2.307   4.182 -0.7102  0.7471 -1.3976
 2740SOL    HW310727   5.894   2.203   4.131  0.1232 -0.3218 -0.8497
 2740SOL    MW410728   5.976   2.228   4.150 -0.1388  0.1906 -0.3564
 2741SOL     OW10729   3.968   5.697   5.100 -0.0620 -0.0001  0.0090
 2741SOL    HW210730   4.037   5.674   5.039 -0.6780 -0.6395 -0.4620
 2741SOL    HW310731   3.912   5.757   5.051 -1.9376 -2.3923 -0.9947
 2741SOL    MW410732   3.969   5.702   5.085 -0.3907 -0.4001 -0.1856
 2742SOL     OW10733   4.845   0.662   5.895 -0.5893  0.1766 -0.2709
 2742SOL    HW210734   4.754   0.635   5.880 -0.3022 -0.4268 -1.0045
 2742SOL    HW310735   4.897   0.599   5.846  0.1366  1.6875 -1.5582
 2742SOL    MW410736   4.840   0.650   5.886 -0.4557  0.2963 -0.5375
 2743SOL     OW10737   0.664   3.643   6.044  0.3772 -0.0304 -0.6782
 2743SOL    HW210738   0.574   3.667   6.019  0.6785  0.1629 -1.6071
 2743SOL    HW310739   0.693   3.585   5.974  0.4152 -1.4414  0.4519
 2743SOL    MW410740   0.656   3.638   6.032  0.4219 -0.1910 -0.6517
 2744SOL     OW10741   1.954   1.108   0.017  0.0811 -0.1913 -0.2604
 2744SOL    HW210742   2.023   1.140   0.075 -0.7922  0.7017  0.3166
 2744SOL    HW310743   1.911   1.039   0.067  0.3033 -0.4814 -0.4661
 2744SOL    MW410744   1.957   1.103   0.031 -0.0048 -0.1117 -0.2114
 2745SOL     OW10745   3.988   1.018   1.871  0.4222  0.2242 -0.3478
 2745SOL    HW210746   4.017   1.094   1.922 -1.6240 -0.1803  1.5659
 2745SOL    HW310747   3.981   1.051   1.781 -1.3514  2.6399  0.5722
 2745SOL    MW410748   3.991   1.032   1.866 -0.0818  0.4895  0.0261
 2746SOL     OW10749   5.004   0.823   3.312 -0.2093 -0.0506 -0.2217
 2746SOL    HW210750   5.054   0.816   3.231 -0.8534  0.4109 -0.6695
 2746SOL    HW310751   4.918   0.788   3.290 -0.6170  0.7655  0.0463
 2746SOL    MW410752   5.000   0.818   3.298 -0.3481  0.1179 -0.2455
 2747SOL     OW10753   1.803   6.281   5.045  0.6614 -0.1774  0.4722
 2747SOL    HW210754   1.739   6.347   5.072  1.3734  1.2027 -1.0453
 2747SOL    HW310755   1.753   6.220   4.992  0.3528  0.2119  0.3100
 2747SOL    MW410756   1.788   6.282   5.042  0.7146  0.0561  0.2506
 2748SOL     OW10757   0.481   4.389   4.705 -0.1715  0.6724  0.4805
 2748SOL    HW210758   0.432   4.401   4.624 -1.1658 -1.2303  0.7401
 2748SOL    HW310759   0.563   4.436   4.691  1.5290 -2.8350 -3.2938
 2748SOL    MW410760   0.485   4.397   4.693 -0.0783 -0.0414  0.0167
 2749SOL     OW10761   4.573   5.849   3.649 -0.1074  0.2081  0.6374
 2749SOL    HW210762   4.538   5.768   3.686 -1.4031  1.0161  1.2619
 2749SOL    HW310763   4.504   5.881   3.591  1.0705  0.0277 -0.9330
 2749SOL    MW410764   4.559   5.843   3.646 -0.1230  0.2909  0.5126
 2750SOL     OW10765   2.912   1.546   5.856  0.6561 -0.0314  0.0334
 2750SOL    HW210766   2.851   1.473   5.849  0.8923 -0.2709  0.3743
 2750SOL    HW310767   2.999   1.504   5.858  0.7611  0.2068  0.8895
 2750SOL    MW410768   2.916   1.531   5.856  0.7011 -0.0316  0.1913
 2751SOL     OW10769   3.806   3.319   2.371 -0.1652  0.6938  0.4635
 2751SOL    HW210770   3.839   3.375   2.301  2.5369  2.4302  2.9015
 2751SOL    HW310771   3.725   3.362   2.400 -0.6110  0.6711 -0.7063
 2751SOL    MW410772   3.800   3.332   2.366  0.1325  0.9199  0.6308
 2752SOL     OW10773   5.917   6.072   2.591 -0.0715 -0.3818  0.3980
 2752SOL    HW210774   5.946   6.136   2.656  0.1832 -0.7022  0.6043
 2752SOL    HW310775   5.824   6.090   2.579 -0.2774 -0.7486  1.3493
 2752SOL    MW410776   5.909   6.083   2.598 -0.0650 -0.4724  0.5508
 2753SOL     OW10777   0.487   4.523   0.197 -0.5490 -0.2586 -0.0090
 2753SOL    HW210778   0.470   4.561   0.111 -1.6912  0.2668  0.4178
 2753SOL    HW310779   0.432   4.444   0.199  0.6231 -1.1152 -0.3040
 2753SOL    MW410780   0.477   4.517   0.186 -0.5450 -0.3023  0.0084
 2754SOL     OW10781   4.948   0.247   1.258  0.3163 -0.3517  0.1901
 2754SOL    HW210782   4.995   0.258   1.341 -0.3557 -1.3847  0.7241
 2754SOL    HW310783   4.890   0.172   1.273 -0.4573  0.0041 -0.9286
 2754SOL    MW410784   4.947   0.238   1.271  0.1256 -0.4411  0.1130
 2755SOL     OW10785   6.124   6.089   0.119 -0.6916  0.4095 -0.5052
 2755SOL    HW210786   6.087   6.177   0.124  0.5769  0.9615 -0.3234
 2755SOL    HW310787   6.173   6.088   0.037  0.5903  0.4395  0.2144
 2755SOL    MW410788   6.126   6.101   0.109 -0.3551  0.4863 -0.3863
 2756SOL     OW10789   1.381   2.844   2.369  0.2760 -0.3207 -0.0177
 2756SOL    HW210790   1.443   2.813   2.303  0.2800  0.2731 -0.3015
 2756SOL    HW310791   1.436   2.871   2.442  0.2924 -0.6790  0.1029
 2756SOL    MW410792   1.396   2.843   2.370  0.2787 -0.2896 -0.0393
 2757SOL     OW10793   5.486   3.759   2.327  0.3146  0.0933 -0.2330
 2757SOL    HW210794   5.517   3.815   2.398 -0.0264 -1.3379  1.0982
 2757SOL    HW310795   5.554   3.691   2.318  0.0610 -0.0863 -0.8764
 2757SOL    MW410796   5.499   3.758   2.335  0.2362 -0.1192 -0.1422
 2758SOL     OW10797   5.373   1.843   5.097  0.2535 -0.3820  0.0701
 2758SOL    HW210798   5.451   1.841   5.042  1.0286  1.7107  0.9988
 2758SOL    HW310799   5.406   1.833   5.186 -0.4995  0.6252  0.4822
 2758SOL    MW410800   5.388   1.842   5.102  0.2564  0.0270  0.2470
 2759SOL     OW10801   1.184   1.923   1.685 -0.1699  0.0471 -0.2162
 2759SOL    HW210802   1.251   1.862   1.655 -0.7092 -0.0333 -1.3141
 2759SOL    HW310803   1.177   1.907   1.779  0.8796 -0.3938 -0.2049
 2759SOL    MW410804   1.192   1.913   1.694 -0.1026 -0.0217 -0.3596
 2760SOL     OW10805   5.872   5.260   4.808 -0.1296  0.2932  0.4515
 2760SOL    HW210806   5.855   5.354   4.806 -0.8319  0.1621 -0.3630
 2760SOL    HW310807   5.789   5.221   4.836  0.7372  0.0119  2.9259
 2760SOL    MW410808   5.859   5.267   4.812 -0.1079  0.2388  0.6705
 2761SOL     OW10809   0.719   4.737   1.469 -0.5363 -0.1557  0.2448
 2761SOL    HW210810   0.794   4.690   1.432  0.1085  0.2235  1.0132
 2761SOL    HW310811   0.647   4.719   1.410 -0.2319 -1.8507  0.3348
 2761SOL    MW410812   0.720   4.729   1.457 -0.4111 -0.3293  0.3581
 2762SOL     OW10813   0.349   3.240   5.104  0.3772  0.0560 -0.6240
 2762SOL    HW210814   0.259   3.208   5.103  0.4629 -0.2346  0.0234
 2762SOL    HW310815   0.362   3.271   5.193  0.6185  0.9820 -0.9753
 2762SOL    MW410816   0.339   3.240   5.116  0.4203  0.1398 -0.5849
 2763SOL     OW10817   2.734   5.293   0.167 -0.1090  0.3697  0.3130
 2763SOL    HW210818   2.655   5.346   0.172  0.1287  0.6103  2.0174
 2763SOL    HW310819   2.800   5.353   0.132 -0.3647  0.5637  0.1586
 2763SOL    MW410820   2.733   5.308   0.163 -0.1114  0.4270  0.5175
 2764SOL     OW10821   3.872   5.789   0.998  0.1006  0.2483  0.0029
 2764SOL    HW210822   3.865   5.815   0.906  0.6724 -1.3968 -0.5259
 2764SOL    HW310823   3.790   5.820   1.037  0.4421  2.1992 -0.7198
 2764SOL    MW410824   3.860   5.797   0.991  0.2211  0.2886 -0.1622
 2765SOL     OW10825   1.033   2.969   4.033  0.3468 -0.0087  0.4430
 2765SOL    HW210826   0.969   2.971   3.962  1.7821 -0.6418 -0.9491
 2765SOL    HW310827   0.982   2.950   4.111 -1.3704  1.2339 -0.3140
 2765SOL    MW410828   1.018   2.966   4.034  0.3096  0.0717  0.1594
 2766SOL     OW10829   0.992   3.276   5.486  0.3164 -0.3162 -0.4964
 2766SOL    HW210830   1.055   3.329   5.535  0.1765 -2.0996  1.7815
 2766SOL    HW310831   1.027   3.273   5.397  1.7416  1.3264 -0.0495
 2766SOL    MW410832   1.005   3.283   5.481  0.4860 -0.3348 -0.1369
 2767SOL     OW10833   5.923   3.997   3.842  0.3011  0.2193 -0.8016
 2767SOL    HW210834   6.011   4.034   3.831 -0.0924  1.5100  0.1480
 2767SOL    HW310835   5.876   4.023   3.763  0.1622  1.4310 -0.3443
 2767SOL    MW410836   5.929   4.005   3.830  0.2309  0.5495 -0.6160
 2768SOL     OW10837   2.357   1.721   5.041  0.0883 -0.4947 -0.4894
 2768SOL    HW210838   2.342   1.638   5.087  1.0663 -0.8039 -0.7019
 2768SOL    HW310839   2.362   1.787   5.110 -0.7202 -0.5989 -0.3179
 2768SOL    MW410840   2.356   1.719   5.056  0.1107 -0.5493 -0.4948
 2769SOL     OW10841   6.088   3.599   1.289  0.2505 -0.5040 -0.3280
 2769SOL    HW210842   6.144   3.574   1.215  0.7008 -0.7589  0.0924
 2769SOL    HW310843   6.014   3.644   1.249 -0.9054 -2.9517 -1.2086
 2769SOL    MW410844   6.086   3.601   1.274  0.1574 -0.8605 -0.3887
 2770SOL     OW10845   2.444   2.360   3.912  0.2104 -0.1731 -0.2928
 2770SOL    HW210846   2.441   2.332   3.821 -0.2279  2.4374 -1.1562
 2770SOL    HW310847   2.482   2.448   3.909 -0.2533  0.1657  2.0060
 2770SOL    MW410848   2.449   2.368   3.900  0.0914  0.2160 -0.1034
 2771SOL     OW10849   4.859   2.617   3.128 -0.5100  0.0878 -0.5563
 2771SOL    HW210850   4.819   2.552   3.186  1.2302 -1.1012 -0.6225
 2771SOL    HW310851   4.927   2.658   3.182 -0.3149  0.5160 -1.1244
 2771SOL    MW410852   4.862   2.614   3.143 -0.2547 -0.0126 -0.6400
 2772SOL     OW10853   2.919   5.806   3.892  0.1989 -0.2451  0.5880
 2772SOL    HW210854   2.861   5.821   3.967 -0.0588 -2.3460  0.8629
 2772SOL    HW310855   3.004   5.839   3.920 -0.1631  0.0623  1.3561
 2772SOL    MW410856   2.922   5.812   3.906  0.1172 -0.4817  0.7256
 2773SOL     OW10857   6.260   6.085   3.503  0.4510  0.6461  0.9746
 2773SOL    HW210858   6.321   6.050   3.438 -1.1821 -0.0821 -0.2072
 2773SOL    HW310859   6.292   6.050   3.587  1.6572  0.3015  0.3915
 2773SOL    MW410860   6.272   6.076   3.506  0.3947  0.5045  0.7418
 2774SOL     OW10861   0.182   2.576   5.524 -0.4183 -0.1131 -0.0565
 2774SOL    HW210862   0.266   2.570   5.479  0.4148  1.2696  1.2414
 2774SOL    HW310863   0.204   2.584   5.616 -1.9490  0.8129  0.2657
 2774SOL    MW410864   0.196   2.576   5.530 -0.5103  0.1915  0.1573
 2775SOL     OW10865   4.520   1.190   0.018 -0.7092  0.4944  0.5970
 2775SOL    HW210866   4.485   1.250  -0.049 -0.3607  0.8606  0.7429
 2775SOL    HW310867   4.467   1.110   0.008  0.5603 -0.1643 -1.3839
 2775SOL    MW410868   4.508   1.187   0.008 -0.4957  0.4558  0.3549
 2776SOL     OW10869   1.324   5.314   5.839  0.9201  0.6193 -0.4899
 2776SOL    HW210870   1.382   5.240   5.819  0.1015  0.1475 -1.2201
 2776SOL    HW310871   1.350   5.382   5.777  0.3614  0.2129 -1.1964
 2776SOL    MW410872   1.335   5.313   5.828  0.7384  0.5034 -0.6795
 2777SOL     OW10873   0.217   1.431   3.961 -0.2559  0.1942  0.1919
 2777SOL    HW210874   0.147   1.487   3.995  0.4073  1.7366 -0.8869
 2777SOL    HW310875   0.295   1.457   4.011 -0.3015 -1.1290  0.9996
 2777SOL    MW410876   0.218   1.442   3.972 -0.1744  0.2231  0.1561
 2778SOL     OW10877   5.863   0.117   2.213 -0.1098  0.2161  0.3165
 2778SOL    HW210878   5.926   0.176   2.255  0.3947  0.1672 -0.3475
 2778SOL    HW310879   5.823   0.069   2.285 -0.9843  1.7939  0.9454
 2778SOL    MW410880   5.866   0.119   2.228 -0.1586  0.4178  0.3118
 2779SOL     OW10881   3.991   5.208   3.706 -0.6049 -0.9759  0.1719
 2779SOL    HW210882   3.917   5.267   3.720 -0.1828 -0.5516  0.6336
 2779SOL    HW310883   3.978   5.174   3.617 -0.0132  1.0026 -0.7071
 2779SOL    MW410884   3.979   5.211   3.696 -0.4711 -0.6589  0.1168
 2780SOL     OW10885   3.847   2.913   2.572 -0.5077 -0.1522 -1.0223
 2780SOL    HW210886   3.940   2.900   2.551 -0.0560  2.1154 -0.6748
 2780SOL    HW310887   3.810   2.949   2.492 -1.2894 -1.7318 -1.3984
 2780SOL    MW410888   3.855   2.916   2.559 -0.5513 -0.0614 -1.0261
 2781SOL     OW10889   1.797   4.569   3.529  0.1032 -0.0055 -0.0869
 2781SOL    HW210890   1.737   4.634   3.492  0.7409  1.3145  1.1023
 2781SOL    HW310891   1.791   4.583   3.624  2.5228  0.4168  0.0564
 2781SOL    MW410892   1.788   4.580   3.537  0.5066  0.2243  0.0889
 2782SOL     OW10893   1.980   2.956   1.767  0.2679  0.0031  0.3639
 2782SOL    HW210894   1.930   2.913   1.837  1.7810  1.1699  2.2672
 2782SOL    HW310895   2.039   3.016   1.813  2.5446 -0.3893 -1.8189
 2782SOL    MW410896   1.981   2.958   1.782  0.7679  0.1053  0.3271
 2783SOL     OW10897   3.586   5.430   0.335 -0.4254 -0.0350 -0.0349
 2783SOL    HW210898   3.645   5.460   0.404 -0.8922 -0.8582  0.7459
 2783SOL    HW310899   3.634   5.360   0.291 -0.5114 -0.1781  0.0974
 2783SOL    MW410900   3.600   5.425   0.338 -0.4984 -0.1625  0.0855
 2784SOL     OW10901   1.582   4.154   1.981 -0.5579  0.3764  0.2412
 2784SOL    HW210902   1.522   4.212   1.934  1.4685  3.2477  0.9127
 2784SOL    HW310903   1.661   4.153   1.927 -0.7653 -2.6069 -0.1914
 2784SOL    MW410904   1.585   4.162   1.968 -0.3179  0.3616  0.2728
 2785SOL     OW10905   0.138   1.379   3.700  0.0930  0.1598 -0.4899
 2785SOL    HW210906   0.162   1.415   3.786 -0.9631  0.6908 -0.3978
 2785SOL    HW310907   0.050   1.414   3.683  0.7377  1.0241 -2.3296
 2785SOL    MW410908   0.129   1.389   3.709  0.0387  0.3439 -0.7205
 2786SOL     OW10909   3.153   4.853   1.470  0.1008 -0.3900 -0.5576
 2786SOL    HW210910   3.220   4.886   1.410  0.4920 -0.3292 -0.0965
 2786SOL    HW310911   3.141   4.762   1.445  3.0282 -1.5405  1.6412
 2786SOL    MW410912   3.160   4.845   1.459  0.5386 -0.5338 -0.2067
 2787SOL     OW10913   3.258   4.618   4.371  0.5077 -0.1674 -0.3240
 2787SOL    HW210914   3.263   4.699   4.320  0.7672 -1.0166 -1.7001
 2787SOL    HW310915   3.164   4.606   4.387  0.4366  0.1955 -0.4512
 2787SOL    MW410916   3.246   4.627   4.366  0.5326 -0.2315 -0.5223
 2788SOL     OW10917   6.299   0.038   2.913  0.7603  0.2191 -0.5468
 2788SOL    HW210918   6.357   0.001   2.847  1.0838 -0.1726 -0.0511
 2788SOL    HW310919   6.314  -0.015   2.991 -0.1627  0.1990 -0.3652
 2788SOL    MW410920   6.308   0.026   2.914  0.6812  0.1648 -0.4574
 2789SOL     OW10921   3.214   2.139   0.234 -0.8214  0.1228  0.4463
 2789SOL    HW210922   3.218   2.231   0.259 -1.8030  0.3424 -0.1814
 2789SOL    HW310923   3.245   2.092   0.312 -0.2906  0.9700  0.7612
 2789SOL    MW410924   3.219   2.145   0.248 -0.8808  0.2636  0.4050
 2790SOL     OW10925   5.187   0.787   0.947  0.4222  0.6369 -0.4456
 2790SOL    HW210926   5.132   0.747   1.014  2.0690  0.1051  0.6553
 2790SOL    HW310927   5.151   0.756   0.864 -0.4609 -0.2799  0.2598
 2790SOL    MW410928   5.175   0.778   0.945  0.5230  0.4458 -0.2073
 2791SOL     OW10929   1.246   0.939   5.434 -0.3078 -0.7146  0.2384
 2791SOL    HW210930   1.314   0.964   5.372  0.6406 -0.2001  1.4399
 2791SOL    HW310931   1.208   1.021   5.463  0.6988 -0.7620  1.8680
 2791SOL    MW410932   1.250   0.953   5.430 -0.0499 -0.6530  0.6119
 2792SOL     OW10933   0.561   5.638   0.025 -0.5227 -0.3855  0.2251
 2792SOL    HW210934   0.509   5.707  -0.018  0.7235  0.0201 -0.6870
 2792SOL    HW310935   0.615   5.603  -0.045  0.1954 -1.0279  1.0924
 2792SOL    MW410936   0.561   5.643   0.010 -0.2635 -0.4167  0.2192
 2793SOL     OW10937   2.073   1.521   1.199  0.3758  0.4416 -0.1867
 2793SOL    HW210938   1.987   1.487   1.176  1.2392 -0.3034 -2.5683
 2793SOL    HW310939   2.122   1.444   1.228  0.5128  0.7108  0.2994
 2793SOL    MW410940   2.068   1.506   1.200  0.5078  0.3788 -0.4368
 2794SOL     OW10941   3.625   3.492   2.701  0.2589  0.4354  0.6782
 2794SOL    HW210942   3.572   3.413   2.710 -0.1228  0.6379  0.2098
 2794SOL    HW310943   3.644   3.498   2.607  1.3191  0.2303  0.8648
 2794SOL    MW410944   3.621   3.482   2.690  0.3484  0.4351  0.6410
 2795SOL     OW10945   1.213   4.510   4.227  0.3183 -0.3665 -0.3421
 2795SOL    HW210946   1.156   4.550   4.293 -0.8303  0.7584 -1.9382
 2795SOL    HW310947   1.171   4.426   4.207 -0.3470  0.0768 -0.8821
 2795SOL    MW410948   1.200   4.505   4.233  0.0790 -0.1596 -0.6239
 2796SOL     OW10949   2.070   3.778   1.124  0.5385 -0.2585  0.2464
 2796SOL    HW210950   2.149   3.778   1.069 -0.6601  1.3318 -1.6092
 2796SOL    HW310951   2.033   3.865   1.113 -1.2181 -0.7993  1.4759
 2796SOL    MW410952   2.076   3.789   1.115  0.1486 -0.1200  0.1638
 2797SOL     OW10953   3.899   2.943   0.195 -0.1234 -0.7100 -0.1950
 2797SOL    HW210954   3.842   3.008   0.237 -0.2078 -1.3150  0.6505
 2797SOL    HW310955   3.852   2.919   0.115  0.4013  1.0224 -1.0763
 2797SOL    MW410956   3.885   2.949   0.190 -0.0653 -0.5613 -0.1997
 2798SOL     OW10957   1.957   0.840   5.862 -0.0267 -0.4189 -0.4516
 2798SOL    HW210958   1.918   0.774   5.805 -0.0757 -1.7604  1.0690
 2798SOL    HW310959   1.985   0.791   5.940 -0.9457  1.4987  1.1531
 2798SOL    MW410960   1.956   0.825   5.865 -0.1544 -0.3429 -0.0393
 2799SOL     OW10961   6.037   5.599   2.910  0.5928 -0.1242  0.4037
 2799SOL    HW210962   6.038   5.593   3.005  0.3664 -0.0017  0.4133
 2799SOL    HW310963   6.110   5.544   2.882  0.6006 -0.2363  0.6435
 2799SOL    MW410964   6.047   5.591   2.918  0.5640 -0.1229  0.4366
 2800SOL     OW10965   5.788   1.966  -0.005  0.1332 -0.0696  0.6134
 2800SOL    HW210966   5.761   2.031   0.060  0.2103 -0.3536  0.9324
 2800SOL    HW310967   5.819   1.892   0.047  1.4404  0.2119  0.2572
 2800SOL    MW410968   5.788   1.965   0.011  0.3158 -0.0699  0.6085
 2801SOL     OW10969   1.095   0.164   6.110 -0.1391 -0.1330  0.0608
 2801SOL    HW210970   1.146   0.190   6.033  1.2200 -3.0607 -0.1443
 2801SOL    HW310971   1.159   0.161   6.181 -0.9112  0.2709  0.7855
 2801SOL    MW410972   1.110   0.167   6.109 -0.0616 -0.4659  0.1293
 2802SOL     OW10973   1.417   0.095   1.824 -0.6249  0.1746 -0.0100
 2802SOL    HW210974   1.336   0.092   1.874 -1.1653 -0.9775 -0.8955
 2802SOL    HW310975   1.487   0.092   1.889 -1.3034 -0.3173  0.7014
 2802SOL    MW410976   1.416   0.094   1.839 -0.7857 -0.0423 -0.0330
 2803SOL     OW10977   2.187   2.717   1.728 -0.1456  0.3512 -0.2162
 2803SOL    HW210978   2.272   2.715   1.683  0.5423  0.5331  1.0415
 2803SOL    HW310979   2.135   2.781   1.679  1.8189  3.3213  1.3156
 2803SOL    MW410980   2.191   2.725   1.715  0.2044  0.7671  0.1518
 2804SOL     OW10981   2.472   0.484   3.453 -0.0466 -0.5388 -0.0360
 2804SOL    HW210982   2.449   0.402   3.410 -1.3000  0.5694 -1.6185
 2804SOL    HW310983   2.562   0.502   3.426 -0.3242 -0.5910 -1.0286
 2804SOL    MW410984   2.481   0.476   3.444 -0.2486 -0.3995 -0.3758
 2805SOL     OW10985   1.932   0.793   1.529  0.4859  0.0207 -0.1013
 2805SOL    HW210986   1.849   0.781   1.483  0.2317 -0.6493  0.5054
 2805SOL    HW310987   1.999   0.765   1.466  0.1175 -1.2703  0.0408
 2805SOL    MW410988   1.930   0.787   1.514  0.4038 -0.2380 -0.0025
 2806SOL     OW10989   4.127   6.402   3.114 -0.2272 -0.0224  0.5197
 2806SOL    HW210990   4.072   6.345   3.060 -0.2273  0.2308  0.2441
 2806SOL    HW310991   4.107   6.491   3.081  0.9155  0.0178 -0.1148
 2806SOL    MW410992   4.117   6.406   3.102 -0.0765  0.0163  0.3996
 2807SOL     OW10993   5.386   2.500   2.634 -0.4180  0.2760  0.2147
 2807SOL    HW210994   5.349   2.418   2.667 -0.3274  0.6519  1.2955
 2807SOL    HW310995   5.380   2.560   2.708  1.2614  0.6945  0.0482
 2807SOL    MW410996   5.380   2.497   2.649 -0.1845  0.3808  0.3354
 2808SOL     OW10997   2.923   1.748   2.540  0.0972  0.1995 -0.2757
 2808SOL    HW210998   2.883   1.757   2.453 -0.6860 -0.2926  0.0289
 2808SOL    HW310999   2.861   1.694   2.590  2.1525 -2.6202 -0.5026
 2808SOL    MW411000   2.910   1.742   2.535  0.2650 -0.2374 -0.2654
 2809SOL     OW11001   1.309   0.678   2.948 -0.4231  0.0885  0.2262
 2809SOL    HW211002   1.339   0.592   2.919  0.2852  0.4852 -0.2588
 2809SOL    HW311003   1.333   0.736   2.876 -2.5836  0.4039 -0.3137
 2809SOL    MW411004   1.316   0.674   2.935 -0.6147  0.1824  0.0910
 2810SOL     OW11005   0.813   1.559   2.517  0.0032  0.2200  0.3328
 2810SOL    HW211006   0.757   1.563   2.595 -0.5175  0.3149 -0.0347
 2810SOL    HW311007   0.838   1.650   2.501 -1.9788  0.5905 -1.0638
 2810SOL    MW411008   0.809   1.571   2.525 -0.3270  0.2814  0.1001
 2811SOL     OW11009   0.884   0.445   5.409  0.4090  0.4973  0.0743
 2811SOL    HW211010   0.831   0.463   5.486 -1.3835 -2.3611 -0.3474
 2811SOL    HW311011   0.833   0.480   5.336 -0.5477 -1.3706 -0.2300
 2811SOL    MW411012   0.870   0.452   5.410  0.0462 -0.1263 -0.0214
 2812SOL     OW11013   2.719   4.012   2.890 -0.7810  0.4169  0.3272
 2812SOL    HW211014   2.716   4.028   2.796 -1.7928  0.7534  0.4036
 2812SOL    HW311015   2.812   4.009   2.911 -0.5438 -0.2633 -0.7756
 2812SOL    MW411016   2.731   4.014   2.881 -0.8832  0.3715  0.1918
 2813SOL     OW11017   4.570   1.146   1.570 -0.2893  0.5838 -0.7761
 2813SOL    HW211018   4.564   1.078   1.637 -2.0076  1.9154  0.5109
 2813SOL    HW311019   4.540   1.103   1.490 -2.2679  0.0048  0.2022
 2813SOL    MW411020   4.565   1.131   1.568 -0.7771  0.6831 -0.4772
 2814SOL     OW11021   1.346   2.465   5.478 -0.2237  0.6485 -0.4092
 2814SOL    HW211022   1.402   2.399   5.438  0.2568  0.4360  0.5845
 2814SOL    HW311023   1.385   2.481   5.564 -0.9233  1.4757 -0.2285
 2814SOL    MW411024   1.358   2.459   5.484 -0.2526  0.7296 -0.2543
 2815SOL     OW11025   1.272   6.407   3.092  0.5028 -0.0008  0.3697
 2815SOL    HW211026   1.342   6.456   3.135  1.1651  0.8422 -1.5498
 2815SOL    HW311027   1.296   6.409   2.999 -1.4914 -0.6780 -0.1953
 2815SOL    MW411028   1.285   6.414   3.085  0.3271  0.0211  0.0419
 2816SOL     OW11029   2.956   0.089   2.492 -0.0736 -0.0183  0.2769
 2816SOL    HW211030   2.954  -0.003   2.465  0.8635  0.0263  0.0149
 2816SOL    HW311031   2.909   0.136   2.423 -1.8992 -0.4672  1.1793
 2816SOL    MW411032   2.950   0.083   2.479 -0.1908 -0.0716  0.3614
 2817SOL     OW11033   2.177   5.424   4.541  0.2069 -0.5934 -0.4080
 2817SOL    HW211034   2.209   5.343   4.501 -0.8769 -0.8845 -0.7544
 2817SOL    HW311035   2.138   5.397   4.624  1.6719 -0.1093  0.4732
 2817SOL    MW411036   2.176   5.410   4.546  0.2572 -0.5679 -0.3374
 2818SOL     OW11037   3.996   0.461   1.319  0.5394 -0.8155 -0.5164
 2818SOL    HW211038   3.903   0.443   1.333  0.7348 -0.2605  2.0738
 2818SOL    HW311039   4.037   0.375   1.314 -0.2604 -1.1266 -3.6811
 2818SOL    MW411040   3.989   0.448   1.320  0.4596 -0.7833 -0.5922
 2819SOL     OW11041   4.686   3.704   1.531  0.2706 -0.1860 -0.4528
 2819SOL    HW211042   4.706   3.774   1.468  1.4038  1.1842  1.2977
 2819SOL    HW311043   4.662   3.751   1.611 -0.5714 -1.8573  0.3159
 2819SOL    MW411044   4.686   3.720   1.534  0.3090 -0.2258 -0.1204
 2820SOL     OW11045   3.243   2.221   1.685  0.9897  0.0629  0.7010
 2820SOL    HW211046   3.308   2.155   1.659 -0.0788 -0.5236 -0.6205
 2820SOL    HW311047   3.179   2.220   1.614 -0.4553  0.6384  1.9493
 2820SOL    MW411048   3.243   2.212   1.672  0.6580  0.0615  0.6913
 2821SOL     OW11049   2.918   2.808   1.284  0.7229 -0.2894 -0.0880
 2821SOL    HW211050   2.891   2.767   1.366 -0.4247  0.9794  0.1936
 2821SOL    HW311051   2.939   2.898   1.308  1.4751 -0.2053 -1.0044
 2821SOL    MW411052   2.917   2.814   1.298  0.6707 -0.1109 -0.1718
 2822SOL     OW11053   6.136   4.886   2.033 -0.0028  0.4809  0.5777
 2822SOL    HW211054   6.091   4.938   1.967 -0.3261 -1.5008 -0.8554
 2822SOL    HW311055   6.189   4.950   2.082 -2.8702  2.6198  1.1302
 2822SOL    MW411056   6.137   4.901   2.031 -0.4238  0.5017  0.4615
 2823SOL     OW11057   6.041   5.594   2.374 -0.2270 -0.2358 -0.0589
 2823SOL    HW211058   5.964   5.640   2.341  0.0746 -0.2680 -0.8404
 2823SOL    HW311059   6.007   5.520   2.423 -0.7064  0.3501  0.5005
 2823SOL    MW411060   6.027   5.591   2.376 -0.2505 -0.1628 -0.0882
 2824SOL     OW11061   5.455   0.515   4.426  0.0156  0.5040 -0.1935
 2824SOL    HW211062   5.418   0.493   4.340 -1.7929  3.0466 -0.1757
 2824SOL    HW311063   5.406   0.592   4.454  1.2673  0.3650  2.6977
 2824SOL    MW411064   5.444   0.522   4.418 -0.0578  0.8212  0.1903
 2825SOL     OW11065   3.756   5.516   6.391  1.1586  0.3807 -0.1055
 2825SOL    HW211066   3.851   5.523   6.394  1.0259  3.1643  0.7028
 2825SOL    HW311067   3.725   5.571   6.463 -1.0713  0.5049 -1.0464
 2825SOL    MW411068   3.764   5.524   6.401  0.8469  0.7643 -0.1230
 2826SOL     OW11069   2.706   4.677   1.802  0.6141  0.6168 -0.3318
 2826SOL    HW211070   2.651   4.748   1.770  1.0409 -0.0896 -2.8968
 2826SOL    HW311071   2.795   4.713   1.802  0.3969  1.3522  2.5519
 2826SOL    MW411072   2.711   4.691   1.798  0.6418  0.6207 -0.2897
 2827SOL     OW11073   3.698   4.928   5.427 -0.9549  0.4089 -0.3774
 2827SOL    HW211074   3.633   4.960   5.364 -0.1359 -1.0864 -2.0792
 2827SOL    HW311075   3.749   5.006   5.449 -2.0075  1.2030 -0.6023
 2827SOL    MW411076   3.696   4.943   5.421 -0.9857  0.3164 -0.6316
 2828SOL     OW11077   2.680   0.764   6.361  0.8561 -0.2673 -0.7123
 2828SOL    HW211078   2.590   0.755   6.331  0.4515 -1.8917  0.8364
 2828SOL    HW311079   2.714   0.840   6.313 -1.5417  0.8392 -0.7855
 2828SOL    MW411080   2.673   0.773   6.350  0.4863 -0.3356 -0.5176
 2829SOL     OW11081   1.162   5.923   6.142  0.0963 -0.6799 -0.8110
 2829SOL    HW211082   1.218   5.866   6.194  0.6658  0.6072  0.0272
 2829SOL    HW311083   1.221   5.962   6.077  0.1150  0.3739 -0.1786
 2829SOL    MW411084   1.177   5.920   6.140  0.1739 -0.3711 -0.6170
 2830SOL     OW11085   4.401   4.628   0.047  0.1319 -0.2986 -0.2420
 2830SOL    HW211086   4.324   4.571   0.038 -1.1433  1.0526  1.3884
 2830SOL    HW311087   4.379   4.687   0.119  1.7181  1.7326 -1.3010
 2830SOL    MW411088   4.388   4.628   0.056  0.1729  0.1476 -0.1666
 2831SOL     OW11089   4.328   3.057   0.881  0.3741 -0.3043 -0.0502
 2831SOL    HW211090   4.330   3.145   0.917 -2.3666 -0.5542  1.0065
 2831SOL    HW311091   4.366   3.002   0.950  1.1756 -0.0838 -0.3055
 2831SOL    MW411092   4.333   3.061   0.895  0.1182 -0.3081  0.0556
 2832SOL     OW11093   0.419   2.559   2.134 -0.2555 -0.2604  0.2035
 2832SOL    HW211094   0.500   2.610   2.143 -0.9918  1.0445 -0.1611
 2832SOL    HW311095   0.418   2.532   2.042  0.1596 -0.9837  0.4091
 2832SOL    MW411096   0.430   2.562   2.123 -0.2979 -0.1837  0.1826
 2833SOL     OW11097   0.610   0.629   4.905  0.1541  0.5104  0.6373
 2833SOL    HW211098   0.515   0.638   4.899  0.3109  1.4075 -1.1177
 2833SOL    HW311099   0.643   0.676   4.828  1.9151 -1.3983  0.1411
 2833SOL    MW411100   0.601   0.636   4.894  0.4072  0.3769  0.3403
 2834SOL     OW11101   5.871   0.104   5.261  0.3112  0.0521  0.2388
 2834SOL    HW211102   5.925   0.037   5.220 -1.9957 -1.3473 -0.7068
 2834SOL    HW311103   5.851   0.068   5.348 -1.3425 -0.8162 -0.4532
 2834SOL    MW411104   5.876   0.090   5.267 -0.2114 -0.2471  0.0227
 2835SOL     OW11105   5.606   2.630   5.110 -0.7300  0.1782  0.5957
 2835SOL    HW211106   5.531   2.571   5.119  0.0875 -1.4307 -2.1271
 2835SOL    HW311107   5.683   2.573   5.112  0.3915  1.6106  1.5987
 2835SOL    MW411108   5.606   2.615   5.112 -0.4741  0.1549  0.3688
 2836SOL     OW11109   5.684   1.352   2.874 -0.0861  0.1581 -0.0962
 2836SOL    HW211110   5.686   1.356   2.778 -0.2008 -0.2424 -0.1172
 2836SOL    HW311111   5.716   1.264   2.895  1.2896  0.7296  0.2959
 2836SOL    MW411112   5.688   1.341   2.864  0.0803  0.1806 -0.0473
 2837SOL     OW11113   0.235   4.955   0.571 -0.7471 -0.3078 -1.0300
 2837SOL    HW211114   0.257   5.019   0.503  0.0096 -0.2828 -0.7705
 2837SOL    HW311115   0.317   4.942   0.619 -1.2763 -0.3317 -0.1258
 2837SOL    MW411116   0.249   4.961   0.568 -0.7171 -0.3077 -0.8765
 2838SOL     OW11117   3.657   4.657   4.151 -0.0032 -0.2232  0.5500
 2838SOL    HW211118   3.735   4.702   4.183 -0.8523  2.0543 -0.4037
 2838SOL    HW311119   3.609   4.631   4.231 -0.4989  2.4577  1.2006
 2838SOL    MW411120   3.661   4.659   4.166 -0.1806  0.4310  0.5100
 2839SOL     OW11121   1.947   2.247   5.386  0.3280  0.0059 -0.1989
 2839SOL    HW211122   1.964   2.181   5.454 -0.2276  1.1853  1.1486
 2839SOL    HW311123   1.871   2.213   5.338  0.4836 -0.6626  0.0130
 2839SOL    MW411124   1.939   2.234   5.389  0.2752  0.0733  0.0068
 2840SOL     OW11125   1.478   2.995   0.719 -0.1448 -0.8797  0.7656
 2840SOL    HW211126   1.432   2.955   0.645 -2.4756  0.6916  1.2509
 2840SOL    HW311127   1.568   3.004   0.689 -0.5770 -2.1637 -1.0790
 2840SOL    MW411128   1.484   2.991   0.705 -0.5094 -0.8418  0.5863
 2841SOL     OW11129   5.929   1.720   1.234  0.1425 -0.1201  0.3801
 2841SOL    HW211130   5.927   1.632   1.270 -1.8272 -0.6341 -0.8226
 2841SOL    HW311131   6.016   1.753   1.256  0.2843 -1.6547  2.4542
 2841SOL    MW411132   5.940   1.713   1.242 -0.0987 -0.3904  0.4951
 2842SOL     OW11133   4.321   4.933   3.139 -0.0702 -0.3728 -0.8516
 2842SOL    HW211134   4.320   5.018   3.181 -0.5058 -1.3724  1.2911
 2842SOL    HW311135   4.234   4.897   3.154  0.5994 -1.8526 -0.2297
 2842SOL    MW411136   4.309   4.939   3.146 -0.0394 -0.6999 -0.4869
 2843SOL     OW11137   1.811   3.856   1.307 -0.1016  0.5245 -0.3912
 2843SOL    HW211138   1.855   3.777   1.339  2.9792  0.8897 -3.1489
 2843SOL    HW311139   1.811   3.916   1.381  2.2991 -0.2904  0.3480
 2843SOL    MW411140   1.817   3.854   1.321  0.6217  0.4651 -0.6575
 2844SOL     OW11141   4.708   1.193   6.132 -0.4329  0.2638 -0.3375
 2844SOL    HW211142   4.647   1.125   6.101  0.4693 -1.2217  0.9904
 2844SOL    HW311143   4.745   1.230   6.051 -0.6572 -1.1261 -1.1213
 2844SOL    MW411144   4.705   1.189   6.117 -0.3435 -0.1156 -0.2657
 2845SOL     OW11145   3.067   3.780   5.047 -0.0445  0.0439 -0.3449
 2845SOL    HW211146   3.127   3.712   5.019  0.6044  0.9027 -1.0905
 2845SOL    HW311147   3.001   3.784   4.978  1.1736  1.6858 -1.5043
 2845SOL    MW411148   3.066   3.772   5.034  0.2018  0.3739 -0.5963
 2846SOL     OW11149   5.624   2.728   0.079  0.1134  0.3407  0.6457
 2846SOL    HW211150   5.631   2.634   0.060  0.1295  0.1674  1.4682
 2846SOL    HW311151   5.565   2.732   0.155 -0.8699  1.0821 -0.1341
 2846SOL    MW411152   5.617   2.716   0.087 -0.0142  0.4157  0.6514
 2847SOL     OW11153   6.249   1.119   0.213 -0.3176  0.2461 -0.0735
 2847SOL    HW211154   6.216   1.168   0.288  2.0411  0.9658  0.5685
 2847SOL    HW311155   6.247   1.182   0.140 -3.9054 -0.8229 -1.1331
 2847SOL    MW411156   6.244   1.134   0.213 -0.4798  0.2000 -0.1286
 2848SOL     OW11157   2.359   0.148   5.193  0.3852  0.1877  0.4359
 2848SOL    HW211158   2.444   0.178   5.227  0.1225  0.4995  0.8380
 2848SOL    HW311159   2.318   0.104   5.268 -0.4954  1.4874  0.7639
 2848SOL    MW411160   2.365   0.146   5.208  0.2344  0.4003  0.5322
 2849SOL     OW11161   1.933   5.974   4.455 -0.6697  0.4860  0.3407
 2849SOL    HW211162   1.876   5.903   4.429  1.4706 -0.4137 -2.3412
 2849SOL    HW311163   2.019   5.933   4.468  0.1925  2.2826  0.7104
 2849SOL    MW411164   1.937   5.959   4.454 -0.2736  0.6044  0.0356
 2850SOL     OW11165   3.767   3.857   0.488  0.2787  0.3674 -0.6314
 2850SOL    HW211166   3.818   3.776   0.481  0.7978  0.2959  2.5326
 2850SOL    HW311167   3.832   3.927   0.478  0.3314  0.3411 -0.4757
 2850SOL    MW411168   3.782   3.856   0.486  0.3542  0.3545 -0.1934
 2851SOL     OW11169   2.843   5.122   6.406 -0.0066 -0.2539  0.7170
 2851SOL    HW211170   2.912   5.096   6.467 -1.9711 -1.7147  2.4673
 2851SOL    HW311171   2.782   5.173   6.459 -1.1729 -0.5042 -0.3387
 2851SOL    MW411172   2.844   5.125   6.421 -0.4197 -0.4797  0.8086
 2852SOL     OW11173   5.697   4.038   2.092  0.0032 -0.0697 -0.1045
 2852SOL    HW211174   5.627   3.973   2.081 -1.0102  1.0103 -0.2932
 2852SOL    HW311175   5.679   4.103   2.024  0.4029  0.9047  0.7024
 2852SOL    MW411176   5.685   4.038   2.081 -0.0778  0.2014 -0.0229
 2853SOL     OW11177   5.981   2.212   5.262 -0.0673 -0.6060  0.8720
 2853SOL    HW211178   6.056   2.162   5.294  0.5870 -0.7138 -0.7320
 2853SOL    HW311179   5.976   2.191   5.169  0.0229  1.9971  0.1841
 2853SOL    MW411180   5.990   2.203   5.254  0.0309 -0.2768  0.5696
 2854SOL     OW11181   2.972   3.977   3.993  0.3057 -0.5991  0.2698
 2854SOL    HW211182   2.942   4.033   3.921 -0.4697  0.3984  1.3309
 2854SOL    HW311183   3.061   3.953   3.969  0.0133 -0.4035 -1.0845
 2854SOL    MW411184   2.980   3.981   3.980  0.1648 -0.4417  0.2311
 2855SOL     OW11185   0.913   0.656   2.227  0.3519  0.1069 -0.2037
 2855SOL    HW211186   0.983   0.682   2.287  0.7954 -0.0419 -0.6461
 2855SOL    HW311187   0.894   0.735   2.176  0.9975 -0.1432 -0.8575
 2855SOL    MW411188   0.920   0.670   2.228  0.4956  0.0543 -0.3483
 2856SOL     OW11189   2.719   1.402   4.904 -0.3431 -0.1294  0.3707
 2856SOL    HW211190   2.777   1.377   4.976  0.6782 -0.5131 -0.5537
 2856SOL    HW311191   2.695   1.493   4.923  0.8314  0.1478  0.6119
 2856SOL    MW411192   2.724   1.411   4.916 -0.0534 -0.1434  0.2805
 2857SOL     OW11193   0.565   1.930   1.383 -0.2810  0.5781 -0.3518
 2857SOL    HW211194   0.572   1.963   1.473  2.8454  0.0800 -0.2995
 2857SOL    HW311195   0.513   1.850   1.391 -1.1632  1.2384  0.7837
 2857SOL    MW411196   0.559   1.924   1.396  0.0151  0.5995 -0.1951
 2858SOL     OW11197   3.883   3.772   6.227  0.1489  0.0990  0.5119
 2858SOL    HW211198   3.917   3.711   6.161  1.2499  1.1784  0.0336
 2858SOL    HW311199   3.959   3.795   6.279 -0.0614  1.7103  0.1452
 2858SOL    MW411200   3.897   3.767   6.225  0.2664  0.4540  0.4004
 2859SOL     OW11201   3.829   1.760   3.341  0.0594  0.2252  0.1349
 2859SOL    HW211202   3.920   1.760   3.371 -0.1009 -0.8570  0.6799
 2859SOL    HW311203   3.782   1.812   3.406  0.4670  1.8659 -0.8246
 2859SOL    MW411204   3.835   1.767   3.353  0.0920  0.2989  0.0802
 2860SOL     OW11205   3.630   2.776   0.979  0.0057 -0.1159  0.6451
 2860SOL    HW211206   3.534   2.767   0.983 -0.1530 -0.4678 -1.8637
 2860SOL    HW311207   3.654   2.730   0.898  2.5044 -1.3013  1.9444
 2860SOL    MW411208   3.620   2.769   0.969  0.3145 -0.3187  0.4855
 2861SOL     OW11209   5.593   5.297   6.225 -0.1608  0.5598  0.1995
 2861SOL    HW211210   5.523   5.235   6.245 -0.0486  0.0610 -0.9275
 2861SOL    HW311211   5.672   5.257   6.262 -0.1506  0.2104 -0.2001
 2861SOL    MW411212   5.594   5.284   6.232 -0.1446  0.4479 -0.0019
 2862SOL     OW11213   5.467   2.498   1.849  0.1486 -0.4931  0.1424
 2862SOL    HW211214   5.562   2.498   1.856  0.1105  1.8780  1.8484
 2862SOL    HW311215   5.442   2.590   1.859 -2.3002 -0.9517 -0.9962
 2862SOL    MW411216   5.476   2.510   1.851 -0.1795 -0.2408  0.2172
 2863SOL     OW11217   1.290   2.164   4.591 -0.3711 -0.2446 -0.0620
 2863SOL    HW211218   1.381   2.134   4.594 -0.8137 -1.7563 -0.5881
 2863SOL    HW311219   1.278   2.196   4.502 -0.3996 -0.1918 -0.0392
 2863SOL    MW411220   1.300   2.164   4.580 -0.4332 -0.4371 -0.1284
 2864SOL     OW11221   0.784   0.416   3.300 -0.2955 -0.4336 -0.3413
 2864SOL    HW211222   0.790   0.495   3.246  1.9068 -1.3564 -1.5917
 2864SOL    HW311223   0.723   0.359   3.254 -0.0581 -0.3787 -0.7287
 2864SOL    MW411224   0.777   0.419   3.287  0.0264 -0.5482 -0.5574
 2865SOL     OW11225   0.350   4.566   1.988  0.0781 -0.3376 -0.3337
 2865SOL    HW211226   0.345   4.566   1.893 -2.3146  0.7932 -0.2939
 2865SOL    HW311227   0.271   4.520   2.016  1.2818 -1.6188  1.1322
 2865SOL    MW411228   0.339   4.560   1.979 -0.0788 -0.3575 -0.1351
 2866SOL     OW11229   5.465   5.854   5.850 -0.4588  0.2089  0.0743
 2866SOL    HW211230   5.417   5.923   5.805 -0.9478 -0.3347 -0.2634
 2866SOL    HW311231   5.546   5.895   5.878 -1.2980  1.2623  1.0313
 2866SOL    MW411232   5.469   5.868   5.848 -0.6341  0.2762  0.1560
 2867SOL     OW11233   3.453   2.915   1.317  0.1074  0.6080  0.3044
 2867SOL    HW211234   3.536   2.931   1.272  0.6028  0.5544  1.1788
 2867SOL    HW311235   3.399   2.991   1.296 -0.8293 -0.7540 -2.8576
 2867SOL    MW411236   3.457   2.927   1.309  0.0491  0.4212  0.0026
 2868SOL     OW11237   3.910   4.983   1.176  0.1060  0.0005  0.4441
 2868SOL    HW211238   3.819   4.992   1.205 -0.0166 -0.4899  0.2334
 2868SOL    HW311239   3.905   4.993   1.081 -0.1169 -2.5546  0.1168
 2868SOL    MW411240   3.897   4.986   1.167  0.0604 -0.4013  0.3731
 2869SOL     OW11241   2.098   3.443   5.412  0.3113 -0.6401 -0.0713
 2869SOL    HW211242   2.010   3.477   5.433  0.5952  1.3321 -1.7318
 2869SOL    HW311243   2.106   3.363   5.464 -1.9689 -0.1885  1.1034
 2869SOL    MW411244   2.087   3.437   5.421  0.0479 -0.3203 -0.1354
 2870SOL     OW11245   5.301   4.142   6.114  0.2874 -0.4698  0.0373
 2870SOL    HW211246   5.375   4.102   6.067  0.1991 -0.7480  0.1320
 2870SOL    HW311247   5.225   4.092   6.086  0.2548 -0.7494  0.5948
 2870SOL    MW411248   5.301   4.130   6.104  0.2714 -0.5434  0.1234
 2871SOL     OW11249   0.408   1.546   0.106 -0.6916  0.5426  0.3031
 2871SOL    HW211250   0.325   1.500   0.097 -1.5469  2.1732 -0.7034
 2871SOL    HW311251   0.411   1.571   0.199 -0.8961 -0.2595  0.5332
 2871SOL    MW411252   0.397   1.544   0.117 -0.8314  0.6519  0.2007
 2872SOL     OW11253   5.682   6.311   4.792  0.2937  0.5989 -0.0043
 2872SOL    HW211254   5.738   6.385   4.813 -1.2835  1.4300  1.5477
 2872SOL    HW311255   5.737   6.234   4.807  1.0315  1.3731  1.4412
 2872SOL    MW411256   5.697   6.311   4.797  0.1830  0.8107  0.3912
 2873SOL     OW11257   2.714   3.851   4.453 -0.0704 -0.5050  0.3495
 2873SOL    HW211258   2.692   3.943   4.464 -1.4792 -1.0215  2.3222
 2873SOL    HW311259   2.808   3.851   4.433 -0.3193  1.3916 -1.1261
 2873SOL    MW411260   2.724   3.863   4.452 -0.2891 -0.3229  0.4151
 2874SOL     OW11261   5.425   3.108   2.324 -0.4673  0.0907  0.2548
 2874SOL    HW211262   5.448   3.061   2.405 -0.2155  0.8804  0.6511
 2874SOL    HW311263   5.397   3.194   2.354  0.0885  0.5559 -0.5284
 2874SOL    MW411264   5.425   3.113   2.339 -0.3607  0.2563  0.2037
 2875SOL     OW11265   4.580   6.088   0.318 -0.6165 -0.1874 -0.3975
 2875SOL    HW211266   4.537   6.004   0.337 -1.4152  0.5780  1.4047
 2875SOL    HW311267   4.507   6.149   0.305 -0.0776  0.7192  0.7103
 2875SOL    MW411268   4.564   6.085   0.319 -0.6508  0.0332 -0.0135
 2876SOL     OW11269   2.552   5.307   1.157 -0.5229  0.2299 -0.3786
 2876SOL    HW211270   2.470   5.321   1.203  0.0710  0.8500  0.5252
 2876SOL    HW311271   2.577   5.394   1.126  0.2944  0.2156  0.2238
 2876SOL    MW411272   2.544   5.320   1.159 -0.3367  0.3098 -0.1799
 2877SOL     OW11273   2.875   1.171   4.413  0.7312  0.1118  0.2882
 2877SOL    HW211274   2.851   1.224   4.489  0.6743  1.6078 -0.7170
 2877SOL    HW311275   2.818   1.094   4.419  1.0646 -0.0509  1.9866
 2877SOL    MW411276   2.864   1.168   4.424  0.7677  0.2877  0.3797
 2878SOL     OW11277   2.210   6.408   3.517  0.3796 -0.2264  0.4189
 2878SOL    HW211278   2.271   6.351   3.563 -0.1986 -0.3245  1.0863
 2878SOL    HW311279   2.221   6.387   3.425  0.8536 -0.7332  0.5902
 2878SOL    MW411280   2.219   6.398   3.511  0.3658 -0.3062  0.5295
 2879SOL     OW11281   0.001   3.587   1.433  0.4113  0.0312  0.1317
 2879SOL    HW211282  -0.014   3.534   1.355  0.6546 -0.0861  0.1654
 2879SOL    HW311283   0.083   3.634   1.415  0.1323  0.4932  0.0465
 2879SOL    MW411284   0.010   3.586   1.420  0.4066  0.0767  0.1249
 2880SOL     OW11285   0.348   0.595   0.391  0.0920 -0.4115 -0.1363
 2880SOL    HW211286   0.426   0.648   0.381  0.4212 -0.9551 -0.5545
 2880SOL    HW311287   0.339   0.581   0.485  2.7103 -3.5199 -0.1873
 2880SOL    MW411288   0.357   0.600   0.402  0.4809 -0.8933 -0.1982
 2881SOL     OW11289   6.264   5.630   3.527 -0.0853  0.0619 -0.3058
 2881SOL    HW211290   6.342   5.672   3.562 -1.2929  2.8785 -0.7333
 2881SOL    HW311291   6.255   5.665   3.439 -1.4329 -0.8006 -0.5502
 2881SOL    MW411292   6.273   5.640   3.520 -0.4224  0.3197 -0.3944
 2882SOL     OW11293   5.450   4.684   3.362 -1.0456  0.4260  0.0535
 2882SOL    HW211294   5.398   4.613   3.323 -0.6291 -0.1255  0.5062
 2882SOL    HW311295   5.504   4.717   3.290 -0.0030 -0.8414  0.2299
 2882SOL    MW411296   5.450   4.679   3.347 -0.8531  0.1860  0.1365
 2883SOL     OW11297   4.226   0.063   1.671  0.4786 -0.5674  0.0562
 2883SOL    HW211298   4.288   0.135   1.665  0.3014 -0.5258 -2.1636
 2883SOL    HW311299   4.170   0.085   1.746  2.7972 -0.3979  1.8343
 2883SOL    MW411300   4.227   0.076   1.680  0.7611 -0.5395 -0.0021
 2884SOL     OW11301   5.063   6.430   1.802 -0.2772  0.0233  0.2763
 2884SOL    HW211302   5.007   6.499   1.839  0.9662 -0.0808  2.5335
 2884SOL    HW311303   5.035   6.422   1.711 -3.0861  0.8016  0.9884
 2884SOL    MW411304   5.052   6.438   1.795 -0.4837  0.1122  0.6681
 2885SOL     OW11305   3.100   5.765   5.914 -0.2582  0.2469 -0.0657
 2885SOL    HW211306   3.149   5.836   5.954  0.2540  0.5769 -1.2466
 2885SOL    HW311307   3.025   5.807   5.872 -0.8676 -0.1114  0.6315
 2885SOL    MW411308   3.096   5.780   5.914 -0.2710  0.2431 -0.1295
 2886SOL     OW11309   5.097   0.233   0.415 -0.1723  0.2078  0.3623
 2886SOL    HW211310   5.114   0.182   0.336 -1.6493 -0.2563  0.3061
 2886SOL    HW311311   5.004   0.258   0.408  0.1910  1.8979  0.9653
 2886SOL    MW411312   5.087   0.230   0.404 -0.3192  0.3696  0.4344
 2887SOL     OW11313   6.102   2.453   6.222  0.1343  1.0200  0.1702
 2887SOL    HW211314   6.179   2.432   6.274 -0.3217 -0.7814  0.1670
 2887SOL    HW311315   6.089   2.377   6.166 -2.0955  0.9278  0.7083
 2887SOL    MW411316   6.110   2.440   6.221 -0.2201  0.7702  0.2408
 2888SOL     OW11317   0.776   4.398   4.932  0.3044  0.0659  0.5457
 2888SOL    HW211318   0.719   4.432   5.001  0.3935  0.0149  0.6454
 2888SOL    HW311319   0.754   4.450   4.855 -1.8559 -1.7587 -0.1645
 2888SOL    MW411320   0.766   4.409   4.931  0.0312 -0.1816  0.4652
 2889SOL     OW11321   6.017   4.123   5.242 -0.1914  0.6380  0.5519
 2889SOL    HW211322   6.065   4.108   5.323  0.4808  2.1777  0.4708
 2889SOL    HW311323   5.962   4.200   5.261 -1.8439 -0.4201  0.2944
 2889SOL    MW411324   6.016   4.131   5.255 -0.3207  0.7016  0.5072
 2890SOL     OW11325   2.985   4.761   2.677 -0.3994  0.5427 -0.2021
 2890SOL    HW211326   2.990   4.719   2.592  1.0813  0.3475 -0.0553
 2890SOL    HW311327   2.999   4.690   2.740 -0.7610  0.7970  0.1746
 2890SOL    MW411328   2.988   4.747   2.674 -0.2518  0.5505 -0.1330
 2891SOL     OW11329   1.822   0.718   4.654  0.2564 -0.4102  0.0049
 2891SOL    HW211330   1.787   0.680   4.735 -0.6022 -0.3199 -0.3141
 2891SOL    HW311331   1.745   0.745   4.605  0.7858 -0.1161 -0.6815
 2891SOL    MW411332   1.807   0.716   4.659  0.2129 -0.3595 -0.1278
 2892SOL     OW11333   1.215   1.426   3.521  0.5871 -0.4186 -1.0142
 2892SOL    HW211334   1.184   1.472   3.599  0.5828  0.4312 -1.5067
 2892SOL    HW311335   1.306   1.453   3.512  0.6576 -0.7070 -1.1655
 2892SOL    MW411336   1.223   1.436   3.530  0.5959 -0.3446 -1.0992
 2893SOL     OW11337   3.730   5.016   1.549  0.3911 -0.7152 -0.2506
 2893SOL    HW211338   3.692   4.999   1.463 -1.0244  1.8265 -0.2154
 2893SOL    HW311339   3.788   5.091   1.536  0.6838 -0.7189  0.9014
 2893SOL    MW411340   3.733   5.023   1.536  0.2429 -0.3803 -0.0939
 2894SOL     OW11341   3.413   3.062   3.337 -0.1511  0.3448  0.4505
 2894SOL    HW211342   3.371   2.980   3.361  1.2330 -0.1313  1.3854
 2894SOL    HW311343   3.341   3.121   3.317 -1.2278 -0.6540  1.2565
 2894SOL    MW411344   3.398   3.059   3.338 -0.1105  0.1502  0.6802
 2895SOL     OW11345   0.802   3.080   1.679  0.2200 -0.3324  0.3851
 2895SOL    HW211346   0.745   3.063   1.754  1.4196  0.8377  1.6173
 2895SOL    HW311347   0.890   3.077   1.716  1.1458 -3.3143 -1.6737
 2895SOL    MW411348   0.806   3.077   1.694  0.5004 -0.5714  0.2760
 2896SOL     OW11349   5.695   3.484   0.496 -0.1355 -0.2037  0.1022
 2896SOL    HW211350   5.729   3.566   0.460  0.7332 -0.2265  0.8362
 2896SOL    HW311351   5.743   3.416   0.449 -0.6526 -0.2961 -0.3043
 2896SOL    MW411352   5.706   3.486   0.485 -0.0891 -0.2189  0.1454
 2897SOL     OW11353   5.046   6.183   5.503  0.3684  0.0466 -0.2890
 2897SOL    HW211354   5.078   6.259   5.551  0.8553  1.1336 -2.2216
 2897SOL    HW311355   5.049   6.111   5.566  1.8272  1.1946  1.0195
 2897SOL    MW411356   5.051   6.183   5.518  0.6251  0.3415 -0.3713
 2898SOL     OW11357   6.025   6.117   5.958 -0.5052 -0.1626  0.1857
 2898SOL    HW211358   5.980   6.067   6.026  3.3194 -1.5579  1.9800
 2898SOL    HW311359   6.068   6.188   6.005 -0.9475  1.2691 -1.4621
 2898SOL    MW411360   6.025   6.120   5.973 -0.0589 -0.1578  0.2051
 2899SOL     OW11361   5.563   3.061   3.032 -0.3926 -0.0805  0.0092
 2899SOL    HW211362   5.512   3.094   3.106  0.7065  0.6584  0.4791
 2899SOL    HW311363   5.592   3.140   2.986  0.7735 -0.4284  0.0947
 2899SOL    MW411364   5.560   3.076   3.036 -0.0937 -0.0289  0.0825
 2900SOL     OW11365   3.682   5.931   4.064  0.2959 -0.0152 -0.5392
 2900SOL    HW211366   3.700   5.842   4.096  0.1687 -0.7749 -2.4463
 2900SOL    HW311367   3.598   5.954   4.104  0.8602 -0.3003  0.8487
 2900SOL    MW411368   3.673   5.922   4.074  0.3536 -0.1530 -0.6077
 2901SOL     OW11369   2.262   2.257   4.993 -0.0784  0.2557 -0.0420
 2901SOL    HW211370   2.327   2.313   4.950  0.7209 -0.4704  0.1877
 2901SOL    HW311371   2.241   2.190   4.928  1.1438 -0.8559  0.6300
 2901SOL    MW411372   2.268   2.255   4.979  0.1883  0.0132  0.0770
 2902SOL     OW11373   3.639   5.782   1.787  0.1792  0.1465 -0.2037
 2902SOL    HW211374   3.568   5.752   1.844  0.2792 -1.0541 -0.6772
 2902SOL    HW311375   3.696   5.706   1.778  1.1100  0.8560 -0.4788
 2902SOL    MW411376   3.637   5.768   1.793  0.3152  0.0817 -0.3025
 2903SOL     OW11377   2.629   3.187   2.916 -0.4908  0.4022  0.6005
 2903SOL    HW211378   2.706   3.143   2.952 -0.6829  1.8437  2.9575
 2903SOL    HW311379   2.665   3.256   2.860 -0.1589 -0.6883 -0.5736
 2903SOL    MW411380   2.644   3.191   2.913 -0.4723  0.4485  0.7565
 2904SOL     OW11381   1.912   5.259   1.042 -0.3397 -0.2049  0.5627
 2904SOL    HW211382   1.824   5.222   1.046  0.0835 -1.1566  1.4059
 2904SOL    HW311383   1.967   5.187   1.012  0.2516  0.2037  0.6486
 2904SOL    MW411384   1.908   5.244   1.038 -0.2058 -0.2766  0.6852
 2905SOL     OW11385   3.410   6.058   4.937  0.1601 -0.0481 -0.2342
 2905SOL    HW211386   3.327   6.106   4.930  0.9214  1.5182  0.9149
 2905SOL    HW311387   3.477   6.124   4.923  1.2669 -1.3939 -1.6821
 2905SOL    MW411388   3.408   6.073   4.934  0.4066 -0.0190 -0.2736
 2906SOL     OW11389   0.765   0.473   0.455  0.1932  0.5383  0.6833
 2906SOL    HW211390   0.802   0.547   0.407  0.9392 -0.2788 -0.0327
 2906SOL    HW311391   0.828   0.455   0.524 -0.3388  1.0090  1.3037
 2906SOL    MW411392   0.778   0.481   0.457  0.2215  0.4926  0.6707
 2907SOL     OW11393   6.074   5.696   5.826 -0.0970 -0.1423  0.7183
 2907SOL    HW211394   6.103   5.786   5.811 -1.4008  0.1104 -0.4572
 2907SOL    HW311395   5.988   5.705   5.867 -0.7129 -0.8215 -0.3745
 2907SOL    MW411396   6.066   5.709   5.830 -0.3503 -0.1986  0.4191
 2908SOL     OW11397   0.104   1.876   3.211 -0.6925  0.0385  0.3436
 2908SOL    HW211398   0.147   1.898   3.128  0.0902 -1.2035  0.4043
 2908SOL    HW311399   0.012   1.861   3.186 -0.3118 -1.0822 -0.4470
 2908SOL    MW411400   0.097   1.877   3.196 -0.5390 -0.2732  0.2473
 2909SOL     OW11401   0.758   0.362   3.799 -0.1105 -0.1178 -0.0943
 2909SOL    HW211402   0.708   0.387   3.721  0.5162 -0.2577 -0.5487
 2909SOL    HW311403   0.691   0.331   3.861 -0.4479 -3.0676 -1.7164
 2909SOL    MW411404   0.742   0.361   3.796 -0.0724 -0.5254 -0.3682
 2910SOL     OW11405   0.042   0.581   5.604 -0.5120 -0.1481  0.2580
 2910SOL    HW211406   0.130   0.543   5.609 -0.3186  0.3178  0.4165
 2910SOL    HW311407   0.032   0.629   5.685 -0.4724  0.7534 -0.2600
 2910SOL    MW411408   0.052   0.582   5.615 -0.4813  0.0323  0.2105
 2911SOL     OW11409   1.569   4.917   6.303  0.0319  0.0638  0.7339
 2911SOL    HW211410   1.618   4.986   6.349  1.5388 -0.3033 -0.2260
 2911SOL    HW311411   1.518   4.964   6.237  0.4537  0.3305  0.5907
 2911SOL    MW411412   1.569   4.932   6.300  0.2864  0.0505  0.5884
 2912SOL     OW11413   0.933   4.544   0.756 -0.4093  0.2367  0.0206
 2912SOL    HW211414   0.999   4.577   0.817  0.3490 -0.5796 -0.3263
 2912SOL    HW311415   0.949   4.449   0.753 -0.1764  0.2918 -1.7212
 2912SOL    MW411416   0.944   4.536   0.764 -0.2785  0.1363 -0.2550
 2913SOL     OW11417   2.149   1.039   5.853  0.3876 -0.4712 -0.6276
 2913SOL    HW211418   2.169   1.090   5.932 -0.9599  0.7032 -1.0050
 2913SOL    HW311419   2.072   0.988   5.876 -0.1781  0.0855 -1.2709
 2913SOL    MW411420   2.142   1.039   5.866  0.1352 -0.2428 -0.7623
 2914SOL     OW11421   3.654   3.863   1.369 -0.1944  0.1589 -0.6067
 2914SOL    HW211422   3.629   3.872   1.461  1.1230  0.7160 -0.2749
 2914SOL    HW311423   3.630   3.774   1.345 -1.4126  0.3025 -0.0148
 2914SOL    MW411424   3.647   3.853   1.378 -0.1813  0.2514 -0.4848
 2915SOL     OW11425   6.239   4.244   2.896 -0.1548  1.0219 -0.2238
 2915SOL    HW211426   6.163   4.220   2.948  1.1070 -1.6323  0.5903
 2915SOL    HW311427   6.288   4.304   2.951  0.1407 -0.1563  0.8415
 2915SOL    MW411428   6.235   4.248   2.910  0.0506  0.5163  0.0242
 2916SOL     OW11429   5.427   2.392   1.013  0.0335 -0.6827 -0.3925
 2916SOL    HW211430   5.410   2.420   0.923 -1.6623  0.5506  0.2702
 2916SOL    HW311431   5.345   2.408   1.059  1.0406 -0.7499  1.5163
 2916SOL    MW411432   5.414   2.398   1.007 -0.0574 -0.5288 -0.0532
 2917SOL     OW11433   3.414   3.470   3.489 -0.5021 -0.0561  0.1785
 2917SOL    HW211434   3.418   3.432   3.402  0.6684 -1.0469  0.6414
 2917SOL    HW311435   3.330   3.517   3.491  0.3200  1.6942 -2.1440
 2917SOL    MW411436   3.403   3.471   3.478 -0.2392  0.0441 -0.0669
 2918SOL     OW11437   6.288   4.494   3.022 -0.5370  0.5229  0.1739
 2918SOL    HW211438   6.269   4.536   3.105 -0.6957  1.0143 -0.1102
 2918SOL    HW311439   6.350   4.552   2.979  0.1297 -0.1074  0.2646
 2918SOL    MW411440   6.294   4.507   3.027 -0.4700  0.5046  0.1484
 2919SOL     OW11441   2.390   5.564   6.202  0.8959 -0.0127  0.0252
 2919SOL    HW211442   2.475   5.530   6.229  0.4508 -0.4381  0.9346
 2919SOL    HW311443   2.380   5.645   6.251  0.3012 -0.5371  0.8087
 2919SOL    MW411444   2.400   5.570   6.212  0.7587 -0.1380  0.2486
 2920SOL     OW11445   0.915   2.827   2.563 -0.3449 -0.2035  0.1030
 2920SOL    HW211446   0.887   2.883   2.635 -1.3409  1.1108 -1.2581
 2920SOL    HW311447   0.837   2.816   2.509  0.0092 -2.3583 -0.0522
 2920SOL    MW411448   0.901   2.833   2.566 -0.4296 -0.3144 -0.0970
 2921SOL     OW11449   1.728   5.878   1.758  0.2182  0.0971 -0.1976
 2921SOL    HW211450   1.732   5.928   1.676  1.3450  0.3323 -0.0098
 2921SOL    HW311451   1.677   5.933   1.817  0.3886  0.4558 -0.3837
 2921SOL    MW411452   1.722   5.892   1.755  0.3894  0.1754 -0.1974
 2922SOL     OW11453   1.458   2.717   1.768  0.3518  0.8301  0.0316
 2922SOL    HW211454   1.482   2.788   1.708  1.4346 -0.1061 -0.6881
 2922SOL    HW311455   1.464   2.638   1.715 -0.3072  0.1391  0.9575
 2922SOL    MW411456   1.462   2.716   1.753  0.4077  0.6154  0.0588
 2923SOL     OW11457   3.027   2.111   5.839  0.3637  0.1640 -0.4339
 2923SOL    HW211458   2.948   2.139   5.792 -0.6219  2.3879  2.2932
 2923SOL    HW311459   3.031   2.016   5.825 -1.4568  0.3141 -2.5215
 2923SOL    MW411460   3.017   2.102   5.831 -0.0065  0.4772 -0.3495
 2924SOL     OW11461   1.002   4.480   1.390  0.4292  0.4460  0.0611
 2924SOL    HW211462   1.041   4.420   1.326  0.5228 -0.3579  0.8558
 2924SOL    HW311463   1.041   4.455   1.474  0.2714  1.4528  0.4556
 2924SOL    MW411464   1.012   4.469   1.393  0.4207  0.4727  0.2180
 2925SOL     OW11465   1.378   3.907   2.890  0.4321 -0.0417  0.1167
 2925SOL    HW211466   1.412   3.834   2.838  1.5073  0.6939 -0.2661
 2925SOL    HW311467   1.284   3.905   2.876  0.5622 -0.6927 -0.7701
 2925SOL    MW411468   1.370   3.897   2.881  0.5911 -0.0306 -0.0508
 2926SOL     OW11469   1.728   2.005   2.037  0.1840  0.2447 -0.1405
 2926SOL    HW211470   1.725   1.936   2.103 -0.0672 -0.0308 -0.4371
 2926SOL    HW311471   1.650   1.990   1.984  0.4365  0.4029 -0.5564
 2926SOL    MW411472   1.717   1.994   2.039  0.1841  0.2292 -0.2345
 2927SOL     OW11473   0.502   0.656   3.845  0.0823  0.1961 -0.0377
 2927SOL    HW211474   0.473   0.568   3.823 -0.7388  0.3814  0.2353
 2927SOL    HW311475   0.541   0.689   3.764  0.5794 -0.4871 -0.0794
 2927SOL    MW411476   0.503   0.649   3.831  0.0395  0.1304 -0.0072
 2928SOL     OW11477   5.253   1.661   0.206  0.0531  0.0408  0.0224
 2928SOL    HW211478   5.268   1.570   0.234  1.8586  0.0959 -0.6140
 2928SOL    HW311479   5.299   1.714   0.271 -1.0563  0.5214  0.4324
 2928SOL    MW411480   5.261   1.656   0.218  0.1449  0.1115 -0.0074
 2929SOL     OW11481   1.745   1.639   3.997 -0.0436 -0.2963 -0.2186
 2929SOL    HW211482   1.680   1.641   4.067  1.0786 -1.4917  0.9067
 2929SOL    HW311483   1.823   1.599   4.037  2.1782  2.9996 -0.8538
 2929SOL    MW411484   1.747   1.634   4.012  0.3976 -0.0192 -0.1540
 2930SOL     OW11485   3.661   1.430   2.625  0.0745 -0.1970  0.1543
 2930SOL    HW211486   3.635   1.401   2.712 -0.4063  0.4101  0.2155
 2930SOL    HW311487   3.591   1.398   2.567  0.1002 -0.1009  0.0699
 2930SOL    MW411488   3.648   1.422   2.629  0.0145 -0.1042  0.1512
 2931SOL     OW11489   5.162   4.985   3.112  0.2365 -0.7484 -0.4731
 2931SOL    HW211490   5.088   5.041   3.092 -0.5787 -1.9706 -1.0304
 2931SOL    HW311491   5.233   5.045   3.136 -0.4971  0.5044 -1.3572
 2931SOL    MW411492   5.162   5.000   3.112  0.0322 -0.7444 -0.6633
 2932SOL     OW11493   6.156   5.124   5.539 -0.4335 -0.4648  0.5234
 2932SOL    HW211494   6.091   5.148   5.606 -0.1497 -0.8225  0.9290
 2932SOL    HW311495   6.140   5.031   5.522 -0.2530 -0.4690  0.3686
 2932SOL    MW411496   6.145   5.115   5.546 -0.3722 -0.5125  0.5565
 2933SOL     OW11497   0.971   3.189   2.945 -0.3949 -0.1059 -0.1211
 2933SOL    HW211498   1.004   3.140   3.020 -0.4727  1.3014  0.8705
 2933SOL    HW311499   0.908   3.250   2.982 -2.1468 -0.8982 -1.6317
 2933SOL    MW411500   0.967   3.191   2.960 -0.6363 -0.0247 -0.1895
 2934SOL     OW11501   0.743   6.353   0.435 -0.3950  0.1511 -0.3611
 2934SOL    HW211502   0.818   6.294   0.440 -0.7506 -0.2528  0.4362
 2934SOL    HW311503   0.742   6.397   0.520 -0.0109  1.4756 -1.0139
 2934SOL    MW411504   0.752   6.351   0.447 -0.3913  0.2725 -0.3420
 2935SOL     OW11505   0.899   2.012   1.935 -0.1931  0.2443 -0.1712
 2935SOL    HW211506   0.980   2.061   1.921  0.0376 -0.1442 -0.2208
 2935SOL    HW311507   0.877   2.029   2.027 -0.6684  1.2479 -0.4529
 2935SOL    MW411508   0.907   2.021   1.945 -0.2254  0.3254 -0.2149
 2936SOL     OW11509   0.346   1.088   3.295 -0.4368 -0.1713 -0.4593
 2936SOL    HW211510   0.295   1.033   3.235 -1.3932  1.4009 -1.1313
 2936SOL    HW311511   0.396   1.025   3.348 -2.2630 -1.7317 -0.4951
 2936SOL    MW411512   0.346   1.072   3.294 -0.8040 -0.1697 -0.5527
 2937SOL     OW11513   2.711   3.529   1.510  0.1363  0.1627  0.1929
 2937SOL    HW211514   2.709   3.608   1.565  0.4528  1.2454 -1.2652
 2937SOL    HW311515   2.707   3.456   1.571  1.4055  1.2955  1.7155
 2937SOL    MW411516   2.711   3.530   1.525  0.3455  0.4550  0.2014
 2938SOL     OW11517   6.365   5.176   1.634 -0.2200 -0.5537 -0.2489
 2938SOL    HW211518   6.313   5.099   1.659  2.5776 -1.9982  1.7736
 2938SOL    HW311519   6.412   5.148   1.556 -1.2252  0.1814 -1.1477
 2938SOL    MW411520   6.364   5.162   1.627  0.0165 -0.6473 -0.1006
 2939SOL     OW11521   4.024   2.046   5.515 -0.1274 -0.7749  0.4916
 2939SOL    HW211522   4.119   2.053   5.501 -0.3081 -1.3165 -1.3350
 2939SOL    HW311523   3.998   2.133   5.545  1.0074 -0.7854  1.6180
 2939SOL    MW411524   4.033   2.058   5.517 -0.0015 -0.8478  0.3992
 2940SOL     OW11525   3.335   1.064   4.874  0.1233  0.7854  0.4079
 2940SOL    HW211526   3.318   1.115   4.795  0.8252  0.5594  0.1011
 2940SOL    HW311527   3.268   0.996   4.874  1.5214 -0.6939 -1.2953
 2940SOL    MW411528   3.324   1.062   4.863  0.4004  0.5604  0.1427
 2941SOL     OW11529   3.574   1.029   1.558  0.1299  0.0768 -0.0941
 2941SOL    HW211530   3.543   0.984   1.636  2.0076 -4.3463 -1.5830
 2941SOL    HW311531   3.627   1.102   1.591 -1.3908  0.0781  2.5916
 2941SOL    MW411532   3.577   1.033   1.573  0.1770 -0.5066  0.0638
 2942SOL     OW11533   1.828   0.101   5.768 -0.5883 -0.0098 -0.1713
 2942SOL    HW211534   1.785   0.180   5.801  0.1235  0.0664  0.6122
 2942SOL    HW311535   1.757   0.048   5.732 -1.2678  0.3530  0.6117
 2942SOL    MW411536   1.813   0.105   5.768 -0.5840  0.0481  0.0354
 2943SOL     OW11537   4.374   5.939   2.272  0.1975 -0.3861 -0.2404
 2943SOL    HW211538   4.460   5.902   2.294  0.2515 -1.0736 -1.4999
 2943SOL    HW311539   4.320   5.863   2.250 -0.8157  0.0263  0.7513
 2943SOL    MW411540   4.378   5.924   2.272  0.0709 -0.4224 -0.2757
 2944SOL     OW11541   4.233   2.633   2.825  0.1310 -0.3238  0.3775
 2944SOL    HW211542   4.231   2.556   2.768  0.8747 -0.1159  0.0479
 2944SOL    HW311543   4.289   2.695   2.778 -1.3835  0.8626  0.0881
 2944SOL    MW411544   4.240   2.631   2.811  0.0293 -0.1399  0.2958
 2945SOL     OW11545   5.293   4.697   2.965 -0.0945  0.3536 -0.5315
 2945SOL    HW211546   5.332   4.610   2.976  0.3320  0.7074  0.9470
 2945SOL    HW311547   5.225   4.701   3.032 -1.1175  0.6211 -1.5670
 2945SOL    MW411548   5.290   4.686   2.975 -0.1732  0.4356 -0.4731
 2946SOL     OW11549   6.096   2.465   4.553  0.5508 -0.0285  0.0583
 2946SOL    HW211550   6.143   2.549   4.555 -1.5498  1.2318 -0.3829
 2946SOL    HW311551   6.150   2.406   4.605  2.1757  1.5521  0.2578
 2946SOL    MW411552   6.109   2.469   4.560  0.4880  0.3463  0.0264
 2947SOL     OW11553   3.356   3.366   1.413 -0.1063  0.3079  0.5927
 2947SOL    HW211554   3.319   3.287   1.373 -0.1541  0.5496  0.1509
 2947SOL    HW311555   3.282   3.408   1.457 -0.4289  0.9084 -0.4800
 2947SOL    MW411556   3.342   3.361   1.414 -0.1552  0.4190  0.3929
 2948SOL     OW11557   4.824   2.671   3.848 -0.0546 -0.7726  0.1570
 2948SOL    HW211558   4.829   2.628   3.763 -0.4100 -2.2665  0.8443
 2948SOL    HW311559   4.894   2.632   3.899 -0.5454 -0.7274  0.8864
 2948SOL    MW411560   4.834   2.660   3.844 -0.1663 -0.9637  0.3439
 2949SOL     OW11561   3.422   0.706   1.929 -0.2104 -0.1866 -0.3035
 2949SOL    HW211562   3.334   0.682   1.899 -0.1460 -0.7766 -0.0281
 2949SOL    HW311563   3.476   0.629   1.911 -0.1631 -0.5567  1.2617
 2949SOL    MW411564   3.417   0.693   1.923 -0.1957 -0.3133 -0.0607
 2950SOL     OW11565   3.835   2.551   0.539  0.1789  0.0373 -0.2914
 2950SOL    HW211566   3.885   2.606   0.478  0.4719 -0.6892 -0.7128
 2950SOL    HW311567   3.882   2.468   0.540  0.1896  0.0491  0.9524
 2950SOL    MW411568   3.848   2.548   0.531  0.2190 -0.0570 -0.1829
 2951SOL     OW11569   4.217   2.274   5.181  0.0098 -0.3755 -0.4665
 2951SOL    HW211570   4.269   2.228   5.114 -3.1582 -1.1957 -2.5974
 2951SOL    HW311571   4.137   2.299   5.135 -1.7705  0.2691  2.7341
 2951SOL    MW411572   4.213   2.271   5.166 -0.6430 -0.3986 -0.3254
 2952SOL     OW11573   0.164   6.051   5.929  0.1886 -0.9000 -0.0319
 2952SOL    HW211574   0.101   5.979   5.924  0.0862 -0.7469 -1.8959
 2952SOL    HW311575   0.110   6.129   5.944  0.2313 -1.0982  1.2392
 2952SOL    MW411576   0.148   6.052   5.930  0.1807 -0.9060 -0.1101
 2953SOL     OW11577   4.112   1.968   2.278  0.1256 -0.3314 -0.1750
 2953SOL    HW211578   4.031   1.957   2.326  1.3670 -0.7772  1.9679
 2953SOL    HW311579   4.175   1.999   2.343  2.1997 -2.0401 -1.2072
 2953SOL    MW411580   4.110   1.970   2.293  0.5631 -0.6156 -0.0285
 2954SOL     OW11581   0.223   0.262   0.556  0.3952  0.5615 -0.2290
 2954SOL    HW211582   0.173   0.328   0.606 -0.3996 -0.0286 -0.2259
 2954SOL    HW311583   0.247   0.307   0.475  0.2215  0.9919 -0.0466
 2954SOL    MW411584   0.220   0.277   0.552  0.2674  0.5405 -0.2046
 2955SOL     OW11585   0.140   4.785   4.582  0.1364 -0.0308 -0.7784
 2955SOL    HW211586   0.112   4.875   4.598  1.6079  0.6089 -1.5976
 2955SOL    HW311587   0.175   4.786   4.493  0.2457 -1.4026 -0.7733
 2955SOL    MW411588   0.141   4.797   4.572  0.3449 -0.1274 -0.8858
 2956SOL     OW11589   2.047   4.458   0.379  0.6635  0.4500 -0.4492
 2956SOL    HW211590   2.105   4.535   0.376  2.4101 -0.8148 -0.8961
 2956SOL    HW311591   2.068   4.410   0.300  0.0491 -0.7961  0.1252
 2956SOL    MW411592   2.058   4.462   0.368  0.8129  0.1187 -0.4324
 2957SOL     OW11593   4.324   0.325   5.330  0.0856 -0.2261 -0.0588
 2957SOL    HW211594   4.259   0.379   5.375  0.1340 -1.4973  1.6454
 2957SOL    HW311595   4.372   0.282   5.400  2.9720  0.8261 -1.2362
 2957SOL    MW411596   4.322   0.326   5.345  0.4728 -0.2550  0.0107
 2958SOL     OW11597   1.642   0.860   4.501  0.1903  0.2877 -0.2845
 2958SOL    HW211598   1.669   0.840   4.412  2.7978  0.8476  0.2887
 2958SOL    HW311599   1.697   0.934   4.527  2.1430 -2.0166  2.9056
 2958SOL    MW411600   1.653   0.867   4.493  0.7920  0.0575  0.2120
 2959SOL     OW11601   2.881   5.710   2.716 -0.0406 -0.3992  0.3759
 2959SOL    HW211602   2.869   5.700   2.811  0.7975  0.8481  0.6299
 2959SOL    HW311603   2.794   5.736   2.684 -0.5234 -1.5641  0.6590
 2959SOL    MW411604   2.868   5.712   2.724  0.0062 -0.3884  0.4467
 2960SOL     OW11605   4.163   0.241   2.599  0.3696 -0.4463  0.0273
 2960SOL    HW211606   4.199   0.259   2.686  1.2673 -1.6846 -0.0622
 2960SOL    HW311607   4.211   0.164   2.568 -0.3886 -0.4242 -1.3019
 2960SOL    MW411608   4.174   0.234   2.606  0.3880 -0.6067 -0.1599
 2961SOL     OW11609   5.079   6.326   3.249 -0.6894 -0.6463  0.0460
 2961SOL    HW211610   5.122   6.364   3.172  0.4962  1.5389  1.6902
 2961SOL    HW311611   4.986   6.326   3.226 -0.3578 -0.2157 -1.4431
 2961SOL    MW411612   5.073   6.331   3.236 -0.4892 -0.3012  0.0664
 2962SOL     OW11613   0.420   0.181   4.704 -0.0733 -0.0882 -0.0672
 2962SOL    HW211614   0.336   0.216   4.674  0.0953 -0.4027 -0.9437
 2962SOL    HW311615   0.457   0.250   4.758 -0.1401  0.7514 -1.0527
 2962SOL    MW411616   0.414   0.195   4.707 -0.0599 -0.0189 -0.3128
 2963SOL     OW11617   3.508   4.821   3.160  0.3204  0.1722 -0.3371
 2963SOL    HW211618   3.491   4.873   3.238  1.0073 -0.5821  0.3316
 2963SOL    HW311619   3.584   4.767   3.182  0.8489  0.3067 -1.7033
 2963SOL    MW411620   3.516   4.821   3.173  0.4808  0.0904 -0.4291
 2964SOL     OW11621   6.202   5.269   5.915 -1.0889  0.4059  0.0106
 2964SOL    HW211622   6.162   5.279   6.001  0.7516  1.4414  0.8140
 2964SOL    HW311623   6.233   5.357   5.892  0.9477 -0.3483 -0.3809
 2964SOL    MW411624   6.201   5.282   5.923 -0.5774  0.4430  0.0650
 2965SOL     OW11625   4.452   5.463   3.614  0.6596  0.3343  0.6749
 2965SOL    HW211626   4.504   5.530   3.658 -1.0977  1.4728  1.0918
 2965SOL    HW311627   4.383   5.441   3.677  1.3479 -2.1234  0.6767
 2965SOL    MW411628   4.450   5.469   3.628  0.5185  0.1603  0.7302
 2966SOL     OW11629   5.883   1.196   3.761  0.0165 -0.6490  0.3504
 2966SOL    HW211630   5.928   1.116   3.734 -0.4269 -1.3576  1.6307
 2966SOL    HW311631   5.813   1.206   3.697  0.8633 -0.5317 -0.5959
 2966SOL    MW411632   5.880   1.187   3.749  0.0698 -0.7270  0.3944
 2967SOL     OW11633   1.900   0.450   1.363 -0.2608  0.9520 -0.7100
 2967SOL    HW211634   1.848   0.511   1.416 -0.0745 -2.1432  3.6083
 2967SOL    HW311635   1.991   0.474   1.382 -0.1953 -0.0800  0.4355
 2967SOL    MW411636   1.905   0.461   1.373 -0.2275  0.4075  0.0109
 2968SOL     OW11637   1.308   5.440   4.745  0.3462  0.1123  0.4526
 2968SOL    HW211638   1.282   5.421   4.655 -1.5817  2.3351  0.4419
 2968SOL    HW311639   1.402   5.460   4.739  0.0862  1.0064 -1.2314
 2968SOL    MW411640   1.317   5.440   4.732  0.0576  0.5235  0.2290
 2969SOL     OW11641   0.521   1.741   2.799 -0.3671 -0.7319 -0.4003
 2969SOL    HW211642   0.446   1.690   2.832 -1.5305  1.5879  0.8184
 2969SOL    HW311643   0.492   1.773   2.714 -1.3564  1.1840  0.5981
 2969SOL    MW411644   0.507   1.739   2.792 -0.6511 -0.1731 -0.1078
 2970SOL     OW11645   2.153   2.036   1.690  0.1741 -0.1819 -0.1799
 2970SOL    HW211646   2.106   2.089   1.754  1.0471  0.6719 -0.2130
 2970SOL    HW311647   2.086   1.982   1.649 -0.8970  1.4475 -0.6760
 2970SOL    MW411648   2.138   2.036   1.693  0.1479  0.1457 -0.2497
 2971SOL     OW11649   3.186   2.438   0.229 -0.4927 -0.1778 -0.4164
 2971SOL    HW211650   3.218   2.515   0.275  0.5221 -0.7569 -0.1121
 2971SOL    HW311651   3.111   2.469   0.179 -0.9499  0.7118  0.7612
 2971SOL    MW411652   3.181   2.452   0.229 -0.4191 -0.1368 -0.2209
 2972SOL     OW11653   2.728   1.109   1.829 -0.1693  0.2301 -0.1214
 2972SOL    HW211654   2.678   1.152   1.759 -0.3241  0.7811  0.3191
 2972SOL    HW311655   2.793   1.057   1.783 -1.4277 -0.8639 -0.7134
 2972SOL    MW411656   2.730   1.108   1.814 -0.3558  0.1585 -0.1414
 2973SOL     OW11657   1.009   4.210   0.074 -0.1036 -0.6018  0.4557
 2973SOL    HW211658   0.974   4.265   0.004 -0.4193 -0.7663  0.4855
 2973SOL    HW311659   0.938   4.201   0.137  1.1111  2.1912  2.4412
 2973SOL    MW411660   0.995   4.216   0.073  0.0150 -0.2550  0.7216
 2974SOL     OW11661   3.230   2.576   2.911  0.0692 -0.4334  0.4966
 2974SOL    HW211662   3.233   2.624   2.828 -2.4167  0.6094  0.9206
 2974SOL    HW311663   3.297   2.508   2.902  2.2373  1.7271 -0.9990
 2974SOL    MW411664   3.239   2.573   2.899  0.0272 -0.0108  0.3552
 2975SOL     OW11665   6.319   1.565   2.989 -0.1405 -1.0965  0.2031
 2975SOL    HW211666   6.280   1.544   2.904  1.6344 -1.1574 -0.6411
 2975SOL    HW311667   6.332   1.479   3.030 -0.3248 -1.1165  0.2204
 2975SOL    MW411668   6.315   1.551   2.983  0.0694 -1.1072  0.0940
 2976SOL     OW11669   6.271   2.715   4.285 -0.5641  0.0616  0.1392
 2976SOL    HW211670   6.224   2.633   4.271  0.2812 -0.4119 -0.0444
 2976SOL    HW311671   6.362   2.688   4.299  0.1181  1.0754 -1.8867
 2976SOL    MW411672   6.277   2.701   4.285 -0.3625  0.1329 -0.1523
 2977SOL     OW11673   4.854   5.514   1.779  0.1547  0.1262  0.0995
 2977SOL    HW211674   4.924   5.578   1.775  1.3229 -1.1153  0.0201
 2977SOL    HW311675   4.779   5.562   1.815  1.0338  1.4734  0.1739
 2977SOL    MW411676   4.853   5.528   1.783  0.4248  0.1402  0.0989
 2978SOL     OW11677   6.090   6.395   4.290  0.1914  0.7799 -0.1848
 2978SOL    HW211678   6.013   6.411   4.236  0.5777  0.3489 -0.8631
 2978SOL    HW311679   6.063   6.423   4.378 -0.5799  1.0680 -0.5050
 2978SOL    MW411680   6.076   6.401   4.295  0.1406  0.7611 -0.3166
 2979SOL     OW11681   3.048   3.023   4.870 -0.2751  0.6382  0.0228
 2979SOL    HW211682   3.046   2.948   4.810  1.9528 -0.6221  1.4048
 2979SOL    HW311683   2.958   3.055   4.870 -1.4252 -2.2674 -0.3668
 2979SOL    MW411684   3.036   3.018   4.862 -0.1329  0.0886  0.1537
 2980SOL     OW11685   4.344   1.703   1.634 -0.0863 -0.5350 -0.6680
 2980SOL    HW211686   4.271   1.742   1.587  1.0302 -0.8686 -2.7950
 2980SOL    HW311687   4.376   1.634   1.576  0.8324 -1.5794  0.9960
 2980SOL    MW411688   4.339   1.699   1.621  0.1823 -0.7168 -0.7291
 2981SOL     OW11689   5.900   1.151   2.055  0.1477  0.3232  0.2242
 2981SOL    HW211690   5.982   1.146   2.104 -0.1878  2.1139  1.0711
 2981SOL    HW311691   5.848   1.077   2.088  1.3616 -0.7874 -0.2730
 2981SOL    MW411692   5.904   1.141   2.066  0.2636  0.4129  0.2703
 2982SOL     OW11693   5.773   5.633   3.652  0.3257 -0.3917 -0.5023
 2982SOL    HW211694   5.753   5.666   3.564  1.0768  0.2883 -0.4281
 2982SOL    HW311695   5.848   5.685   3.680  1.4515 -2.0594 -0.3066
 2982SOL    MW411696   5.780   5.645   3.644  0.5733 -0.5220 -0.4667
 2983SOL     OW11697   0.457   3.185   2.105 -0.3760  0.3043  0.2561
 2983SOL    HW211698   0.390   3.160   2.169 -0.0186 -1.6879 -0.0567
 2983SOL    HW311699   0.540   3.170   2.151 -0.1340 -0.1639 -0.3178
 2983SOL    MW411700   0.459   3.179   2.120 -0.2969 -0.0203  0.1391
 2984SOL     OW11701   0.218   5.516   6.195  0.1114 -0.1079  0.1537
 2984SOL    HW211702   0.128   5.488   6.214 -0.0902 -1.1686 -1.9804
 2984SOL    HW311703   0.273   5.454   6.243 -0.3302 -0.4404  0.2419
 2984SOL    MW411704   0.213   5.504   6.204  0.0265 -0.2917 -0.1162
 2985SOL     OW11705   3.417   4.652   6.401  0.4488  0.1073 -0.3944
 2985SOL    HW211706   3.487   4.589   6.419  2.4145  1.7141 -2.0147
 2985SOL    HW311707   3.370   4.614   6.327  0.8251 -0.0604 -0.5503
 2985SOL    MW411708   3.420   4.639   6.394  0.7578  0.2971 -0.6288
 2986SOL     OW11709   4.067   3.936   0.977 -0.0957 -0.0976 -0.4869
 2986SOL    HW211710   3.983   3.928   1.022 -0.0795 -0.5253 -0.5383
 2986SOL    HW311711   4.049   3.909   0.887  0.5021 -1.9965 -0.0725
 2986SOL    MW411712   4.054   3.932   0.971 -0.0147 -0.4046 -0.4390
 2987SOL     OW11713   5.604   1.368   6.406  0.5646  0.5746  0.2290
 2987SOL    HW211714   5.622   1.458   6.434 -1.7226  1.3394 -0.5226
 2987SOL    HW311715   5.527   1.375   6.350 -1.2028 -2.1318  2.0655
 2987SOL    MW411716   5.597   1.381   6.403  0.0296  0.3184  0.3722
 2988SOL     OW11717   1.478   0.183   3.530  0.8603 -0.5677 -0.2001
 2988SOL    HW211718   1.573   0.199   3.529  0.7525  0.0888 -0.4561
 2988SOL    HW311719   1.456   0.159   3.440  0.5662  0.6970 -0.4916
 2988SOL    MW411720   1.488   0.182   3.518  0.8073 -0.3142 -0.2724
 2989SOL     OW11721   2.997   4.528   3.603 -0.4436  0.0188  0.7499
 2989SOL    HW211722   3.087   4.499   3.618 -0.0005  0.6756 -0.4821
 2989SOL    HW311723   2.980   4.509   3.511 -1.8189 -0.7070  1.1285
 2989SOL    MW411724   3.007   4.522   3.593 -0.5666  0.0097  0.6373
 2990SOL     OW11725   1.627   5.771   5.578 -0.4472  0.7067  0.4997
 2990SOL    HW211726   1.556   5.770   5.514  1.1497 -1.1023 -1.4011
 2990SOL    HW311727   1.661   5.682   5.578  0.3014  0.9070  3.1668
 2990SOL    MW411728   1.622   5.759   5.569 -0.1377  0.4944  0.6008
 2991SOL     OW11729   2.904   3.145   2.971  0.4228  0.0537 -0.2283
 2991SOL    HW211730   2.935   3.174   2.885  0.0653  1.5007  0.1079
 2991SOL    HW311731   2.982   3.112   3.015  0.9775  1.0992 -0.4070
 2991SOL    MW411732   2.918   3.145   2.965  0.4488  0.3826 -0.2075
 2992SOL     OW11733   0.158   5.858   5.051  0.0594  0.7016 -0.0532
 2992SOL    HW211734   0.220   5.930   5.041 -1.4239  2.0101 -0.2510
 2992SOL    HW311735   0.167   5.831   5.143  1.5317  0.2410 -0.3062
 2992SOL    MW411736   0.168   5.864   5.062  0.0579  0.8134 -0.1127
 2993SOL     OW11737   5.200   4.599   2.207  0.3569  0.2602 -0.1758
 2993SOL    HW211738   5.202   4.679   2.259  1.7707  0.8539 -1.0874
 2993SOL    HW311739   5.212   4.529   2.271 -0.8478  0.7480  0.6278
 2993SOL    MW411740   5.202   4.600   2.222  0.3845  0.4029 -0.1901
 2994SOL     OW11741   5.878   0.691   1.186  0.1283  0.4341  0.1223
 2994SOL    HW211742   5.783   0.684   1.184  0.2002 -0.5307 -1.6265
 2994SOL    HW311743   5.898   0.719   1.275 -1.5959 -2.5680  1.5922
 2994SOL    MW411744   5.868   0.694   1.197 -0.0897 -0.0893  0.0855
 2995SOL     OW11745   3.578   2.472   4.407 -0.6949 -0.2238 -0.3016
 2995SOL    HW211746   3.589   2.383   4.441  1.0644  0.2482  0.4407
 2995SOL    HW311747   3.571   2.460   4.312  0.7847 -1.0882 -0.3314
 2995SOL    MW411748   3.578   2.458   4.399 -0.2676 -0.2756 -0.2076
 2996SOL     OW11749   4.527   1.592   6.319  0.0602 -0.4316  0.8027
 2996SOL    HW211750   4.461   1.524   6.332 -1.2983  0.7658  0.4564
 2996SOL    HW311751   4.547   1.624   6.407 -3.0291  2.0501  0.7984
 2996SOL    MW411752   4.521   1.587   6.332 -0.5266  0.0538  0.7565
 2997SOL     OW11753   0.684   2.406   6.080  0.0760  0.3190 -0.1197
 2997SOL    HW211754   0.741   2.356   6.021  0.7298  0.1187  0.6626
 2997SOL    HW311755   0.655   2.343   6.145 -1.8015  0.2111 -1.0115
 2997SOL    MW411756   0.688   2.391   6.081 -0.0854  0.2783 -0.1341
 2998SOL     OW11757   4.813   0.694   3.044 -0.4036 -0.0726  0.1670
 2998SOL    HW211758   4.735   0.748   3.032 -0.0354  0.5893  0.6275
 2998SOL    HW311759   4.874   0.723   2.976 -0.3137 -0.1202  0.2259
 2998SOL    MW411760   4.811   0.705   3.034 -0.3432  0.0084  0.2355
 2999SOL     OW11761   3.554   4.687   1.415 -0.1324  0.2923 -0.3760
 2999SOL    HW211762   3.501   4.737   1.477 -0.8370  1.5836 -1.9479
 2999SOL    HW311763   3.495   4.620   1.382  0.8741 -1.8535  1.8890
 2999SOL    MW411764   3.539   4.685   1.419 -0.0926  0.1796 -0.2845
 3000SOL     OW11765   5.886   0.436   3.692 -0.0340 -0.5709  0.0576
 3000SOL    HW211766   5.921   0.423   3.780  1.6533  0.6121 -0.3850
 3000SOL    HW311767   5.810   0.493   3.704 -1.3987 -2.4603  0.9518
 3000SOL    MW411768   5.880   0.442   3.705  0.0086 -0.6641  0.1172
 3001SOL     OW11769   4.045   2.622   3.684 -0.3496 -0.0220  0.0730
 3001SOL    HW211770   4.019   2.532   3.666 -0.6712  0.1525 -0.3644
 3001SOL    HW311771   4.140   2.623   3.670 -0.5686  0.1067 -1.7425
 3001SOL    MW411772   4.054   2.611   3.680 -0.4209  0.0180 -0.2242
 3002SOL     OW11773   4.810   4.954   0.541 -0.1397  0.3048  0.2313
 3002SOL    HW211774   4.854   4.994   0.616  3.4114 -0.6105 -1.1678
 3002SOL    HW311775   4.819   5.019   0.471 -0.5366 -0.1543 -0.2529
 3002SOL    MW411776   4.817   4.968   0.542  0.2764  0.1235 -0.0171
 3003SOL     OW11777   3.444   5.484   0.597  0.1347  0.1664  0.1488
 3003SOL    HW211778   3.351   5.461   0.603 -0.2882  1.9398  1.2869
 3003SOL    HW311779   3.446   5.561   0.540  0.9380  0.0683  0.0261
 3003SOL    MW411780   3.432   5.491   0.590  0.1849  0.3874  0.2828
 3004SOL     OW11781   5.606   2.759   1.296  0.8208  0.7384  0.3096
 3004SOL    HW211782   5.598   2.672   1.257  3.3714  1.3044 -1.7768
 3004SOL    HW311783   5.629   2.742   1.388  3.2069 -0.9222 -0.4852
 3004SOL    MW411784   5.608   2.745   1.303  1.4721  0.5940 -0.0705
 3005SOL     OW11785   2.954   4.495   3.325 -0.3808  0.1786 -0.7273
 3005SOL    HW211786   2.879   4.548   3.298 -0.2576  0.5355 -0.3693
 3005SOL    HW311787   3.023   4.558   3.342 -1.0003  0.1611  2.2845
 3005SOL    MW411788   2.953   4.510   3.323 -0.4463  0.2233 -0.2827
 3006SOL     OW11789   0.729   3.463   0.076  0.1235  0.3025 -0.4978
 3006SOL    HW211790   0.702   3.527   0.141  1.5837 -1.9465  2.5828
 3006SOL    HW311791   0.824   3.457   0.086  0.4098 -0.2589 -2.8086
 3006SOL    MW411792   0.738   3.470   0.086  0.3539 -0.0683 -0.3962
 3007SOL     OW11793   4.589   1.649   3.882 -0.1198  0.0659  0.1062
 3007SOL    HW211794   4.587   1.744   3.896 -0.0464  0.0349  0.3462
 3007SOL    HW311795   4.539   1.613   3.956  1.5698 -0.1959  1.1907
 3007SOL    MW411796   4.582   1.657   3.894  0.1128  0.0273  0.2810
 3008SOL     OW11797   2.078   1.107   2.789 -0.0247  0.3661 -0.3612
 3008SOL    HW211798   2.012   1.092   2.721  2.4455 -1.1841 -2.6349
 3008SOL    HW311799   2.066   1.034   2.850  0.9677 -1.3111 -2.0541
 3008SOL    MW411800   2.068   1.095   2.788  0.4322 -0.0597 -0.8845
 3009SOL     OW11801   5.554   4.506   1.290  0.0882 -0.0987 -0.2587
 3009SOL    HW211802   5.555   4.585   1.235  0.7440 -0.4506 -0.7732
 3009SOL    HW311803   5.484   4.521   1.352  1.0694  1.5124  0.5331
 3009SOL    MW411804   5.545   4.518   1.291  0.3042  0.0675 -0.2221
 3010SOL     OW11805   1.073   2.032   0.875 -0.2096 -0.6722  0.2106
 3010SOL    HW211806   1.049   1.961   0.935  2.8088  0.3351  2.9421
 3010SOL    HW311807   1.127   1.990   0.809 -0.5580 -1.2825  0.3050
 3010SOL    MW411808   1.077   2.017   0.875  0.1426 -0.6199  0.5834
 3011SOL     OW11809   5.691   4.866   3.906 -0.1358 -0.0966 -0.2720
 3011SOL    HW211810   5.597   4.862   3.923 -0.3354 -0.3063 -1.3800
 3011SOL    HW311811   5.699   4.849   3.812  0.9709  0.3618 -0.2708
 3011SOL    MW411812   5.679   4.863   3.896 -0.0162 -0.0638 -0.4180
 3012SOL     OW11813   5.994   3.303   2.285  0.5096  0.0577 -0.0733
 3012SOL    HW211814   5.967   3.305   2.193 -0.2529  0.9505  0.1628
 3012SOL    HW311815   5.938   3.238   2.326  0.2322  0.3029 -0.0585
 3012SOL    MW411816   5.983   3.295   2.278  0.3724  0.2078 -0.0402
 3013SOL     OW11817   0.050   5.639   4.063  0.2595  0.0705 -0.1915
 3013SOL    HW211818   0.034   5.622   4.156  2.1729  0.4337  0.2491
 3013SOL    HW311819  -0.023   5.696   4.036 -0.9451 -0.9696  0.7587
 3013SOL    MW411820   0.038   5.645   4.072  0.3530 -0.0188 -0.0080
 3014SOL     OW11821   6.244   4.044   6.127 -0.3701  0.6556  0.8569
 3014SOL    HW211822   6.292   4.125   6.108 -0.1234  0.6590  1.4743
 3014SOL    HW311823   6.301   3.994   6.185 -1.1903  0.7728  1.8067
 3014SOL    MW411824   6.258   4.048   6.132 -0.4458  0.6715  1.0637
 3015SOL     OW11825   1.053   4.056   1.661  0.4088 -0.1873  0.9066
 3015SOL    HW211826   1.005   4.135   1.637  1.0845  0.1238  0.5828
 3015SOL    HW311827   1.145   4.081   1.657  0.6145 -0.8885  1.1622
 3015SOL    MW411828   1.059   4.070   1.657  0.5251 -0.2387  0.8976
 3016SOL     OW11829   3.565   3.080   1.580  0.3737 -0.1105  0.0464
 3016SOL    HW211830   3.597   3.111   1.496  0.0281  2.5743  0.8212
 3016SOL    HW311831   3.568   2.985   1.573  1.8643  0.0393 -2.3923
 3016SOL    MW411832   3.569   3.072   1.568  0.5248  0.2635 -0.1732
 3017SOL     OW11833   0.672   5.406   2.431  0.1806 -0.3836 -0.2633
 3017SOL    HW211834   0.717   5.345   2.373  2.3413 -0.1172  1.0120
 3017SOL    HW311835   0.676   5.490   2.385 -1.7361 -0.8895 -1.4768
 3017SOL    MW411836   0.679   5.409   2.417  0.2128 -0.4152 -0.2552
 3018SOL     OW11837   1.047   3.492   0.188 -0.0363  0.0110 -0.3493
 3018SOL    HW211838   1.009   3.523   0.270 -0.1844  1.6340 -0.9985
 3018SOL    HW311839   1.051   3.397   0.198  1.0077  0.2172  1.9905
 3018SOL    MW411840   1.043   3.483   0.200  0.0819  0.2523 -0.1262
 3019SOL     OW11841   0.108   0.102   0.290  0.1343  0.3151  0.4079
 3019SOL    HW211842   0.196   0.117   0.255 -0.4884  0.4532 -1.1829
 3019SOL    HW311843   0.122   0.060   0.375  1.7850  2.6206  1.3665
 3019SOL    MW411844   0.121   0.099   0.297  0.2699  0.6375  0.3245
 3020SOL     OW11845   4.658   3.952   2.263 -0.6489  0.7268  0.5007
 3020SOL    HW211846   4.669   4.038   2.221  1.4679  0.6946  0.8518
 3020SOL    HW311847   4.657   3.890   2.190  0.2169  0.8969  0.3199
 3020SOL    MW411848   4.660   3.955   2.248 -0.2554  0.7450  0.5231
 3021SOL     OW11849   5.332   4.110   1.998  0.1493  0.2335  0.1757
 3021SOL    HW211850   5.369   4.027   2.027  0.4054 -0.2149 -1.3274
 3021SOL    HW311851   5.276   4.087   1.923 -0.6548  1.2858  0.4303
 3021SOL    MW411852   5.330   4.096   1.992  0.0770  0.3132  0.0110
 3022SOL     OW11853   5.672   1.803   0.671 -0.2781  0.5526 -0.2729
 3022SOL    HW211854   5.638   1.859   0.741 -0.3709 -0.9819  0.9671
 3022SOL    HW311855   5.765   1.793   0.691 -0.4621 -0.5249  0.1119
 3022SOL    MW411856   5.680   1.809   0.683 -0.3146  0.2080 -0.0585
 3023SOL     OW11857   5.936   3.199   6.122 -0.0732 -0.0775  0.1118
 3023SOL    HW211858   5.894   3.257   6.058  1.1136  0.1554 -0.4818
 3023SOL    HW311859   5.991   3.140   6.070 -0.1974 -0.8388  0.8128
 3023SOL    MW411860   5.938   3.199   6.107  0.0670 -0.1472  0.1260
 3024SOL     OW11861   3.575   5.182   1.065 -0.2120 -0.1785  0.5616
 3024SOL    HW211862   3.569   5.277   1.071  2.9103  0.1435  0.0552
 3024SOL    HW311863   3.511   5.158   0.998  0.4440  1.8212 -0.8613
 3024SOL    MW411864   3.566   5.192   1.057  0.2865  0.1278  0.3070
 3025SOL     OW11865   5.098   6.180   1.954  0.4753 -0.1044 -1.1415
 3025SOL    HW211866   5.035   6.223   1.895 -3.5806 -3.2762  0.4087
 3025SOL    HW311867   5.064   6.197   2.042  1.5587 -2.2890 -0.2321
 3025SOL    MW411868   5.085   6.188   1.958  0.0832 -0.8111 -0.8170
 3026SOL     OW11869   3.209   3.550   5.001  0.5849 -0.1553 -0.0578
 3026SOL    HW211870   3.142   3.493   5.040  1.9323 -0.7665  1.4532
 3026SOL    HW311871   3.267   3.490   4.954 -0.6394  0.5103 -2.5807
 3026SOL    MW411872   3.208   3.534   5.000  0.6011 -0.1481 -0.1913
 3027SOL     OW11873   2.955   1.616   5.143 -0.1014 -0.3942  0.2620
 3027SOL    HW211874   2.878   1.664   5.173  1.1833  1.7314  0.3453
 3027SOL    HW311875   3.028   1.678   5.154  1.2433 -1.4014 -2.2046
 3027SOL    MW411876   2.955   1.631   5.148  0.2455 -0.2467 -0.0525
 3028SOL     OW11877   5.899   0.944   2.791 -0.7545  0.0375  0.2570
 3028SOL    HW211878   5.864   0.942   2.702 -0.3145  0.1292  0.0793
 3028SOL    HW311879   5.981   0.896   2.785  0.0257  1.3314  0.2870
 3028SOL    MW411880   5.905   0.937   2.778 -0.5935  0.2203  0.2375
 3029SOL     OW11881   3.990   5.009   3.480  0.5579  0.6259 -0.4034
 3029SOL    HW211882   4.056   4.942   3.462 -3.8530 -3.9414 -1.5037
 3029SOL    HW311883   3.980   5.055   3.396  0.2847 -0.7691 -1.1690
 3029SOL    MW411884   3.998   5.006   3.466 -0.0601 -0.1608 -0.6496
 3030SOL     OW11885   4.407   5.882   1.970  0.2784 -0.0715  0.2790
 3030SOL    HW211886   4.482   5.935   1.997  0.7621 -0.3214 -0.5370
 3030SOL    HW311887   4.356   5.939   1.913  1.1739 -0.6803 -1.1745
 3030SOL    MW411888   4.410   5.896   1.966  0.4604 -0.1848 -0.0204
 3031SOL     OW11889   0.241   3.967   1.911  0.4466 -0.1243  0.4079
 3031SOL    HW211890   0.324   3.949   1.956  0.0051  0.0117  1.2846
 3031SOL    HW311891   0.263   3.961   1.818  0.7127 -3.6319  0.5606
 3031SOL    MW411892   0.255   3.964   1.905  0.4234 -0.5691  0.5437
 3032SOL     OW11893   1.020   1.074   4.856  0.2785  0.6391 -0.3623
 3032SOL    HW211894   1.057   1.156   4.824  0.9780 -0.4909 -2.6152
 3032SOL    HW311895   1.088   1.037   4.913  0.7799  0.6858 -0.9265
 3032SOL    MW411896   1.034   1.080   4.859  0.4369  0.4962 -0.7339
 3033SOL     OW11897   2.440   6.044   5.273 -0.3158  0.2311  0.7998
 3033SOL    HW211898   2.466   6.004   5.357  1.0996  0.3177  0.4315
 3033SOL    HW311899   2.458   5.977   5.208  1.1756  1.0910  0.2813
 3033SOL    MW411900   2.446   6.030   5.276  0.0677  0.3560  0.6828
 3034SOL     OW11901   1.217   4.990   1.295  0.2006 -0.5836  0.1825
 3034SOL    HW211902   1.215   4.974   1.390  1.9129 -1.3231  0.1241
 3034SOL    HW311903   1.206   4.904   1.256 -1.2418 -0.1938 -0.3448
 3034SOL    MW411904   1.215   4.977   1.303  0.2362 -0.6298  0.1052
 3035SOL     OW11905   2.649   3.137   5.892  0.1748  0.3743  0.3006
 3035SOL    HW211906   2.661   3.157   5.799 -0.9108 -1.7148 -0.3440
 3035SOL    HW311907   2.735   3.105   5.920 -0.1485 -1.5671 -0.7423
 3035SOL    MW411908   2.662   3.136   5.883 -0.0111 -0.1575  0.0780
 3036SOL     OW11909   3.621   5.878   1.114  0.2347  0.7620  0.2403
 3036SOL    HW211910   3.611   5.970   1.138  0.1700  0.5117  1.2314
 3036SOL    HW311911   3.545   5.835   1.154  0.3855  0.2457 -0.0220
 3036SOL    MW411912   3.610   5.884   1.122  0.2460  0.6609  0.3365
 3037SOL     OW11913   3.973   4.546   2.825 -0.0973  0.7509  0.4622
 3037SOL    HW211914   3.973   4.452   2.809 -0.0963  1.0808 -1.8341
 3037SOL    HW311915   3.881   4.570   2.833 -0.0611  0.4277  2.2174
 3037SOL    MW411916   3.961   4.537   2.824 -0.0924  0.7518  0.3908
 3038SOL     OW11917   6.333   0.227   4.257 -0.0478 -0.4884 -0.3727
 3038SOL    HW211918   6.416   0.255   4.219  0.3425 -2.2909 -0.9685
 3038SOL    HW311919   6.356   0.199   4.346 -0.5575  1.6186  0.4705
 3038SOL    MW411920   6.347   0.227   4.264 -0.0636 -0.4482 -0.3401
 3039SOL     OW11921   2.744   0.817   5.873  0.4155 -0.2821 -0.6242
 3039SOL    HW211922   2.684   0.879   5.913  0.7070 -0.4852  0.1352
 3039SOL    HW311923   2.711   0.731   5.899  0.3562 -0.4361 -1.1817
 3039SOL    MW411924   2.732   0.813   5.882  0.4461 -0.3292 -0.5976
 3040SOL     OW11925   1.682   5.803   1.091 -0.3820 -0.2513 -0.6220
 3040SOL    HW211926   1.642   5.720   1.065  1.6430 -0.6909 -2.7876
 3040SOL    HW311927   1.749   5.778   1.155 -0.4427 -0.1598 -0.5231
 3040SOL    MW411928   1.686   5.788   1.096 -0.1228 -0.2972 -0.8947
 3041SOL     OW11929   2.741   0.428   3.544  0.3106 -0.5752 -0.0039
 3041SOL    HW211930   2.758   0.471   3.460 -0.5566 -0.6551 -0.2387
 3041SOL    HW311931   2.781   0.485   3.609 -1.4950  1.0815 -0.2369
 3041SOL    MW411932   2.748   0.441   3.542 -0.0420 -0.3672 -0.0656
 3042SOL     OW11933   3.165   3.397   4.380 -0.3059  0.0195  0.1881
 3042SOL    HW211934   3.205   3.333   4.323  0.0928 -0.3761  0.8923
 3042SOL    HW311935   3.116   3.455   4.322  1.4249  0.6299 -0.7232
 3042SOL    MW411936   3.164   3.397   4.365 -0.0249  0.0478  0.1608
 3043SOL     OW11937   1.525   6.148   1.729  0.1864 -0.0254 -0.0548
 3043SOL    HW211938   1.489   6.068   1.767 -0.3795  0.0227 -0.4725
 3043SOL    HW311939   1.450   6.193   1.691  0.7195 -0.0562 -1.1882
 3043SOL    MW411940   1.511   6.144   1.729  0.1821 -0.0231 -0.2594
 3044SOL     OW11941   0.689   4.320   3.561  0.3356  0.5204 -0.1682
 3044SOL    HW211942   0.688   4.364   3.475 -1.5393 -0.1740 -0.5410
 3044SOL    HW311943   0.779   4.331   3.591  0.7814  1.7184 -1.7371
 3044SOL    MW411944   0.701   4.328   3.553  0.1471  0.5869 -0.4244
 3045SOL     OW11945   0.284   5.402   2.974 -0.4676 -0.2123 -0.1458
 3045SOL    HW211946   0.261   5.494   2.992 -1.0632 -0.5695  1.0923
 3045SOL    HW311947   0.368   5.406   2.930  0.4433  0.8903  1.5587
 3045SOL    MW411948   0.292   5.415   2.971 -0.4260 -0.1140  0.2424
 3046SOL     OW11949   4.814   5.959   2.608  0.6904  0.0440 -0.4609
 3046SOL    HW211950   4.850   5.909   2.681  0.5750 -1.4367 -1.3773
 3046SOL    HW311951   4.720   5.961   2.624  0.8834  2.0224  0.7794
 3046SOL    MW411952   4.807   5.953   2.619  0.7007  0.1097 -0.4182
 3047SOL     OW11953   1.123   5.089   2.450  0.0738  0.2968  0.5802
 3047SOL    HW211954   1.097   5.126   2.535  0.9773  1.5987  0.3316
 3047SOL    HW311955   1.219   5.088   2.454  0.1597  1.2222 -0.7544
 3047SOL    MW411956   1.132   5.094   2.462  0.2044  0.5907  0.3713
 3048SOL     OW11957   1.293   1.814   3.862  0.7950  0.0795  0.6812
 3048SOL    HW211958   1.314   1.724   3.837 -0.4890 -1.6735  5.0320
 3048SOL    HW311959   1.197   1.816   3.867  0.7429  2.0110 -0.0691
 3048SOL    MW411960   1.283   1.803   3.859  0.6187  0.1030  1.1562
 3049SOL     OW11961   1.342   3.817   5.012  0.3478  0.5226 -0.2458
 3049SOL    HW211962   1.261   3.768   5.027 -0.6327  2.8780  3.6732
 3049SOL    HW311963   1.315   3.894   4.961  0.4996  0.3899 -0.5274
 3049SOL    MW411964   1.328   3.821   5.007  0.2384  0.8158  0.2341
 3050SOL     OW11965   1.374   1.001   2.085  0.5566 -0.4130 -0.4252
 3050SOL    HW211966   1.452   0.946   2.078  0.2121 -0.8960 -0.5267
 3050SOL    HW311967   1.408   1.089   2.103  1.2517 -0.1220 -2.8070
 3050SOL    MW411968   1.389   1.006   2.087  0.6029 -0.4383 -0.7529
 3051SOL     OW11969   0.916   1.205   0.768 -0.3552 -0.1080  0.0502
 3051SOL    HW211970   0.986   1.270   0.772 -1.3701  1.0473 -0.6985
 3051SOL    HW311971   0.837   1.252   0.793 -1.1234 -1.0247 -0.5793
 3051SOL    MW411972   0.915   1.219   0.772 -0.5904 -0.0765 -0.1317
 3052SOL     OW11973   1.549   5.851   5.996 -0.4952  0.2063 -0.6735
 3052SOL    HW211974   1.530   5.857   6.089  0.2928  1.7141 -0.5743
 3052SOL    HW311975   1.464   5.830   5.956 -1.0484  0.5273  0.2947
 3052SOL    MW411976   1.535   5.849   6.003 -0.4642  0.4476 -0.5327
 3053SOL     OW11977   0.958   1.860   1.365  0.2607 -0.0139  0.5468
 3053SOL    HW211978   0.898   1.921   1.320 -0.9880 -1.5512  0.0356
 3053SOL    HW311979   0.968   1.898   1.452  0.4900  1.5474 -0.1165
 3053SOL    MW411980   0.951   1.873   1.370  0.1262 -0.0107  0.3919
 3054SOL     OW11981   1.584   3.790   3.424  0.7037  0.0249 -0.1409
 3054SOL    HW211982   1.551   3.860   3.368  2.6788  1.2569  0.1190
 3054SOL    HW311983   1.531   3.714   3.401 -0.7491  1.3134 -1.2653
 3054SOL    MW411984   1.573   3.789   3.413  0.7726  0.3574 -0.2550
 3055SOL     OW11985   5.785   0.365   3.201  0.6459 -0.0565  0.5433
 3055SOL    HW211986   5.696   0.398   3.183  1.0616  1.2094  0.6733
 3055SOL    HW311987   5.840   0.442   3.191  1.8593 -1.0086 -0.4256
 3055SOL    MW411988   5.780   0.380   3.197  0.8608 -0.0151  0.4326
 3056SOL     OW11989   2.652   4.446   3.040 -0.1409  0.2400  0.0545
 3056SOL    HW211990   2.589   4.479   3.104 -0.5498  1.4547 -0.9479
 3056SOL    HW311991   2.636   4.351   3.037 -0.6839  0.2893  1.1118
 3056SOL    MW411992   2.642   4.438   3.048 -0.2665  0.4068  0.0617
 3057SOL     OW11993   4.249   4.006   2.827  0.0650 -0.0311 -0.2408
 3057SOL    HW211994   4.336   3.979   2.796  0.9109  1.1141  0.9970
 3057SOL    HW311995   4.259   4.100   2.844 -1.1806 -0.0637  0.7308
 3057SOL    MW411996   4.262   4.015   2.825  0.0122  0.1157  0.0507
 3058SOL     OW11997   3.422   0.435   3.015  0.7156  0.2622  0.3568
 3058SOL    HW211998   3.437   0.528   2.996 -1.3844  0.5338 -0.2316
 3058SOL    HW311999   3.411   0.394   2.930  4.7060 -1.2595  0.3519
 3058SOL    MW412000   3.422   0.442   3.002  0.9650  0.0972  0.2786
 3059SOL     OW12001   5.552   0.368   0.164 -0.0755 -0.1987 -0.0107
 3059SOL    HW212002   5.631   0.409   0.129  0.3865 -0.0986  1.1077
 3059SOL    HW312003   5.484   0.435   0.154  0.3082  0.2483  0.3184
 3059SOL    MW412004   5.553   0.383   0.158  0.0361 -0.1265  0.1803
 3060SOL     OW12005   2.194   1.033   1.848 -0.0745 -0.8740 -0.1420
 3060SOL    HW212006   2.219   0.943   1.828 -0.7727 -1.1493  0.1790
 3060SOL    HW312007   2.129   1.055   1.781 -1.4465 -1.3444  0.9815
 3060SOL    MW412008   2.189   1.024   1.836 -0.3476 -0.9724  0.0486
 3061SOL     OW12009   1.094   1.615   1.378  1.0086 -0.0343 -0.2787
 3061SOL    HW212010   1.083   1.574   1.463 -1.2128 -0.5973 -0.7672
 3061SOL    HW312011   1.038   1.693   1.382 -0.0983 -0.7180 -1.5901
 3061SOL    MW412012   1.085   1.620   1.389  0.5695 -0.1988 -0.5162
 3062SOL     OW12013   3.912   2.061   5.277  0.2038  0.1718 -0.0690
 3062SOL    HW212014   3.925   2.155   5.260  0.2181  0.2563  0.3947
 3062SOL    HW312015   3.954   2.046   5.361  1.2428 -0.5032 -0.6825
 3062SOL    MW412016   3.920   2.072   5.286  0.3428  0.0939 -0.0888
 3063SOL     OW12017   1.009   0.945   5.810  0.0152  0.6506 -0.5780
 3063SOL    HW212018   1.047   1.032   5.800  2.1634  0.0555  1.5568
 3063SOL    HW312019   1.070   0.887   5.763  0.8095 -0.1105  1.3115
 3063SOL    MW412020   1.022   0.949   5.802  0.4034  0.4717 -0.0470
 3064SOL     OW12021   1.124   1.422   0.798 -0.0689 -0.1623 -0.6779
 3064SOL    HW212022   1.215   1.416   0.770  0.7425  1.7768  1.2632
 3064SOL    HW312023   1.104   1.515   0.796 -0.7070 -0.1033  2.5775
 3064SOL    MW412024   1.133   1.433   0.794 -0.0460  0.1014  0.0077
 3065SOL     OW12025   4.249   0.757   4.161  0.1826 -0.2429  0.4174
 3065SOL    HW212026   4.244   0.783   4.069 -1.9470 -0.1676  0.5045
 3065SOL    HW312027   4.283   0.667   4.159  1.5966  0.2725 -0.2978
 3065SOL    MW412028   4.253   0.748   4.149  0.0882 -0.1650  0.3345
 3066SOL     OW12029   2.141   1.282   3.049 -0.6455  0.0404 -0.1666
 3066SOL    HW212030   2.215   1.223   3.062  0.4826  1.7781  2.1235
 3066SOL    HW312031   2.064   1.229   3.070  0.2447 -0.9207  0.8226
 3066SOL    MW412032   2.140   1.268   3.054 -0.3792  0.1428  0.2660
 3067SOL     OW12033   0.676   2.215   1.054 -0.1568 -0.5334 -0.4074
 3067SOL    HW212034   0.762   2.217   1.011 -0.5181 -1.5523 -1.2160
 3067SOL    HW312035   0.681   2.141   1.114 -0.0240  0.2337  0.5491
 3067SOL    MW412036   0.688   2.206   1.056 -0.1869 -0.5666 -0.3879
 3068SOL     OW12037   5.184   4.213   5.073 -0.4087  0.2142 -0.4371
 3068SOL    HW212038   5.200   4.299   5.111  2.9670 -0.0071 -0.9972
 3068SOL    HW312039   5.221   4.152   5.137 -1.3249 -0.7108 -0.7665
 3068SOL    MW412040   5.191   4.216   5.086 -0.0842  0.0629 -0.5544
 3069SOL     OW12041   5.265   0.048   4.213 -0.0075  0.2833 -0.1097
 3069SOL    HW212042   5.261   0.122   4.274 -3.0658  0.1201  0.0061
 3069SOL    HW312043   5.176   0.013   4.211  0.5628 -1.2653 -2.8249
 3069SOL    MW412044   5.253   0.053   4.221 -0.3358  0.0575 -0.4526
 3070SOL     OW12045   0.313   4.068   4.460 -0.6516 -0.6755 -0.2293
 3070SOL    HW212046   0.338   4.023   4.380  0.7686  0.6085 -0.5277
 3070SOL    HW312047   0.219   4.051   4.468 -1.0247 -0.0295 -2.6693
 3070SOL    MW412048   0.304   4.060   4.451 -0.5135 -0.4209 -0.5906
 3071SOL     OW12049   4.654   3.602   3.998  0.3260 -0.2054 -0.7337
 3071SOL    HW212050   4.640   3.696   4.012  1.2325 -0.2936  1.0711
 3071SOL    HW312051   4.743   3.586   4.029 -0.9761 -2.2298  2.4879
 3071SOL    MW412052   4.664   3.612   4.004  0.2738 -0.4841 -0.0705
 3072SOL     OW12053   1.373   1.117   3.563  0.3018  0.0888  0.0546
 3072SOL    HW212054   1.361   1.142   3.472 -2.1853 -1.9439 -0.3125
 3072SOL    HW312055   1.310   1.171   3.611  0.5353  0.0940  0.3609
 3072SOL    MW412056   1.363   1.127   3.558  0.0044 -0.1787  0.0466
 3073SOL     OW12057   1.085   2.765   3.130 -0.8764  0.1472 -0.5115
 3073SOL    HW212058   1.117   2.795   3.044  1.1374  0.1897  0.1982
 3073SOL    HW312059   1.101   2.671   3.130  0.6783  0.3716  0.3778
 3073SOL    MW412060   1.091   2.757   3.119 -0.4056  0.1824 -0.3006
 3074SOL     OW12061   3.693   6.303   1.681 -0.1501  0.2076  0.0232
 3074SOL    HW212062   3.703   6.290   1.587  1.8308  1.5619 -0.0106
 3074SOL    HW312063   3.781   6.294   1.716 -1.0463 -1.7279  1.9934
 3074SOL    MW412064   3.706   6.300   1.673 -0.0070  0.1309  0.2787
 3075SOL     OW12065   5.174   0.081   3.838  0.0020 -0.2039 -0.1926
 3075SOL    HW212066   5.123   0.039   3.908  0.2625 -0.0880  0.0702
 3075SOL    HW312067   5.130   0.165   3.823  0.6480  0.3114  0.6855
 3075SOL    MW412068   5.162   0.087   3.846  0.1216 -0.1206 -0.0421
 3076SOL     OW12069   2.450   3.035   6.024 -0.1093  0.0423 -0.4148
 3076SOL    HW212070   2.515   3.091   5.982 -2.0826  1.3656 -1.8579
 3076SOL    HW312071   2.447   3.065   6.115  0.6410  0.5665 -0.5572
 3076SOL    MW412072   2.458   3.046   6.031 -0.2707  0.2861 -0.6240
 3077SOL     OW12073   6.090   2.216   3.158  0.0479  0.0435 -0.7651
 3077SOL    HW212074   6.183   2.218   3.132  0.1117 -0.9209 -0.6503
 3077SOL    HW312075   6.047   2.169   3.087  0.0554 -1.6839  0.3064
 3077SOL    MW412076   6.097   2.210   3.145  0.0573 -0.3116 -0.6086
 3078SOL     OW12077   3.747   4.133   0.790 -0.4106 -0.0324  0.0163
 3078SOL    HW212078   3.760   4.164   0.700  0.5033  0.3329  0.2621
 3078SOL    HW312079   3.778   4.205   0.844 -0.1781 -0.5816  0.6202
 3078SOL    MW412080   3.752   4.147   0.785 -0.2594 -0.0567  0.1284
 3079SOL     OW12081   2.470   2.289   3.634  0.0889 -0.0536  0.2296
 3079SOL    HW212082   2.561   2.275   3.609 -0.3432 -0.7843 -1.0378
 3079SOL    HW312083   2.442   2.363   3.581 -0.7003 -1.3083 -1.1753
 3079SOL    MW412084   2.478   2.297   3.624 -0.0722 -0.3155 -0.1230
 3080SOL     OW12085   1.554   5.391   2.868 -0.1563  0.5745  0.4164
 3080SOL    HW212086   1.490   5.380   2.797 -0.2322  0.1603  0.5459
 3080SOL    HW312087   1.622   5.327   2.848 -0.1089  0.5547  0.6430
 3080SOL    MW412088   1.555   5.381   2.856 -0.1601  0.5172  0.4634
 3081SOL     OW12089   5.142   5.515   5.455 -0.5081  0.1580  0.0458
 3081SOL    HW212090   5.081   5.452   5.417  1.0382 -0.4696 -1.5301
 3081SOL    HW312091   5.121   5.515   5.549 -1.8164 -1.2624 -0.2052
 3081SOL    MW412092   5.132   5.507   5.463 -0.4767 -0.1122 -0.1952
 3082SOL     OW12093   5.763   1.400   2.027  0.2493  0.3997 -0.1539
 3082SOL    HW212094   5.809   1.316   2.033 -2.4842 -1.0977  2.0048
 3082SOL    HW312095   5.678   1.378   1.990 -0.7640  2.0952  1.0331
 3082SOL    MW412096   5.758   1.386   2.023 -0.2451  0.4258  0.2875
 3083SOL     OW12097   0.925   0.478   0.706  0.1356  0.2030  0.1044
 3083SOL    HW212098   0.879   0.425   0.771  1.5328  0.2735  1.1939
 3083SOL    HW312099   0.908   0.568   0.731  0.9801  0.2304  0.6327
 3083SOL    MW412100   0.917   0.483   0.718  0.4314  0.2159  0.3179
 3084SOL     OW12101   4.076   5.660   2.648 -0.2754 -0.2837  0.3513
 3084SOL    HW212102   4.061   5.690   2.738  0.7870  0.1196  0.4049
 3084SOL    HW312103   4.167   5.684   2.630 -0.5231 -0.2343 -0.8799
 3084SOL    MW412104   4.086   5.667   2.658 -0.1679 -0.2239  0.1960
 3085SOL     OW12105   0.358   5.717   4.822 -0.9103  0.5943  0.2776
 3085SOL    HW212106   0.348   5.653   4.892  0.8473  0.5852  0.5481
 3085SOL    HW312107   0.297   5.787   4.845 -1.2810  0.0052  1.1216
 3085SOL    MW412108   0.348   5.718   4.834 -0.7273  0.5154  0.4246
 3086SOL     OW12109   5.710   5.227   4.594  0.1203  0.0326  0.6379
 3086SOL    HW212110   5.800   5.230   4.626  1.0005  0.9996 -1.6704
 3086SOL    HW312111   5.703   5.302   4.534 -2.2612  0.0483  0.8255
 3086SOL    MW412112   5.721   5.238   4.590 -0.0777  0.1623  0.3581
 3087SOL     OW12113   6.360   2.629   5.422  0.2244 -0.3279  0.2736
 3087SOL    HW212114   6.330   2.554   5.372 -1.4947  0.1539  0.5199
 3087SOL    HW312115   6.448   2.604   5.453  0.0341 -1.8708 -0.3515
 3087SOL    MW412116   6.368   2.616   5.420 -0.0275 -0.4679  0.2236
 3088SOL     OW12117   4.684   5.378   3.349  0.0977  0.3335 -0.1785
 3088SOL    HW212118   4.649   5.310   3.407 -0.4608  1.7000  1.1344
 3088SOL    HW312119   4.610   5.436   3.331  0.3389  0.1552 -2.0344
 3088SOL    MW412120   4.670   5.377   3.354  0.0558  0.4903 -0.2501
 3089SOL     OW12121   4.548   5.094   2.921 -0.1935  0.1472  0.1112
 3089SOL    HW212122   4.587   5.127   2.840  2.0272 -1.4082  0.4675
 3089SOL    HW312123   4.588   5.148   2.990  0.2200 -0.4837  0.3732
 3089SOL    MW412124   4.559   5.106   2.919  0.1540 -0.1413  0.1928
 3090SOL     OW12125   1.058   1.988   4.587  0.3665 -0.3441 -0.0073
 3090SOL    HW212126   1.122   2.053   4.615  1.1309 -1.6699  1.5473
 3090SOL    HW312127   1.019   2.024   4.508  2.6086  0.7989 -0.6652
 3090SOL    MW412128   1.062   2.001   4.580  0.7631 -0.3683  0.1110
 3091SOL     OW12129   1.323   5.949   4.214 -0.3532 -0.8313  0.0436
 3091SOL    HW212130   1.271   5.896   4.153 -0.9359  0.5554 -0.7195
 3091SOL    HW312131   1.261   5.977   4.281 -0.4253  0.0928 -0.3822
 3091SOL    MW412132   1.308   5.946   4.215 -0.4396 -0.5264 -0.1133
 3092SOL     OW12133   0.250   2.141   2.876 -0.3162 -0.0321  0.4119
 3092SOL    HW212134   0.302   2.131   2.797 -1.5003 -1.6654 -0.2016
 3092SOL    HW312135   0.304   2.195   2.934  1.9745 -1.4854 -0.2543
 3092SOL    MW412136   0.264   2.147   2.874 -0.1702 -0.4394  0.2431
 3093SOL     OW12137   1.231   5.005   5.093 -0.5491  0.0714  0.1762
 3093SOL    HW212138   1.266   4.936   5.036  0.7814  0.4891  0.4464
 3093SOL    HW312139   1.201   5.073   5.033 -0.2666 -0.0139 -0.0663
 3093SOL    MW412140   1.232   5.005   5.078 -0.3363  0.1152  0.1799
 3094SOL     OW12141   5.419   0.932   2.290 -0.4486  0.7240  0.1585
 3094SOL    HW212142   5.493   0.873   2.301 -0.8816 -0.0306 -0.8344
 3094SOL    HW312143   5.342   0.876   2.298 -0.8877  1.3237  0.1919
 3094SOL    MW412144   5.419   0.917   2.292 -0.5636  0.7036  0.0319
 3095SOL     OW12145   0.764   5.112   0.540 -0.1006  1.0942  0.3987
 3095SOL    HW212146   0.816   5.033   0.528  1.4281  2.3611 -2.1395
 3095SOL    HW312147   0.686   5.083   0.588  0.9457 -1.6714  0.5919
 3095SOL    MW412148   0.761   5.098   0.545  0.2391  0.8965  0.0893
 3096SOL     OW12149   1.689   4.826   5.529  0.0542 -0.4795  0.2138
 3096SOL    HW212150   1.618   4.781   5.575 -0.2889 -0.4743 -0.3033
 3096SOL    HW312151   1.720   4.892   5.591  0.2259 -1.0858  0.7854
 3096SOL    MW412152   1.684   4.829   5.543  0.0316 -0.5588  0.2210
 3097SOL     OW12153   5.975   0.638   3.502 -0.0645 -0.4281  0.9413
 3097SOL    HW212154   5.944   0.701   3.568 -2.5008 -0.4162 -0.0885
 3097SOL    HW312155   5.961   0.552   3.542 -1.8277 -0.4332  0.4088
 3097SOL    MW412156   5.969   0.635   3.516 -0.6185 -0.4272  0.7352
 3098SOL     OW12157   1.062   6.182   6.281  0.4171  0.3629  0.3520
 3098SOL    HW212158   1.084   6.104   6.229 -0.0536  1.7608 -2.1377
 3098SOL    HW312159   0.966   6.181   6.284  0.2618  1.9999 -1.7836
 3098SOL    MW412160   1.052   6.172   6.274  0.3345  0.7633 -0.2583
 3099SOL     OW12161   5.571   6.003   1.137  0.6121 -0.1563 -0.4517
 3099SOL    HW212162   5.599   5.999   1.046 -3.5181  2.6113 -2.1278
 3099SOL    HW312163   5.543   6.094   1.150 -0.9166 -0.9529  2.9117
 3099SOL    MW412164   5.571   6.015   1.127 -0.1345  0.1037 -0.2291
 3100SOL     OW12165   1.783   1.352   0.486  0.5301  0.0789 -0.1725
 3100SOL    HW212166   1.720   1.361   0.415  0.7701  0.9042 -0.2887
 3100SOL    HW312167   1.840   1.428   0.478  0.0261  0.6821  1.4455
 3100SOL    MW412168   1.782   1.363   0.476  0.4953  0.2674  0.0256
 3101SOL     OW12169   1.028   0.315   3.385  0.0096  0.2072  0.0870
 3101SOL    HW212170   1.044   0.254   3.314 -2.6316  0.9008 -1.2231
 3101SOL    HW312171   0.948   0.360   3.361  0.9459  3.0716  1.7721
 3101SOL    MW412172   1.020   0.313   3.373 -0.2153  0.6766  0.1365
 3102SOL     OW12173   6.378   0.030   2.241  0.1527 -0.5442  0.1924
 3102SOL    HW212174   6.344   0.039   2.152  0.1527  0.7680  0.3022
 3102SOL    HW312175   6.302   0.039   2.297  0.5045  1.7144  0.4111
 3102SOL    MW412176   6.364   0.033   2.236  0.1991 -0.0731  0.2358
 3103SOL     OW12177   5.673   3.396   5.015  0.1971 -0.8956 -0.5037
 3103SOL    HW212178   5.726   3.448   4.955 -1.8799 -0.4220 -2.0251
 3103SOL    HW312179   5.584   3.431   5.005 -0.6525 -2.4684  1.0245
 3103SOL    MW412180   5.668   3.408   5.006 -0.1890 -1.0406 -0.5028
 3104SOL     OW12181   5.494   5.168   3.659 -0.0127 -0.2450 -0.2069
 3104SOL    HW212182   5.573   5.114   3.649 -0.1129 -0.0067 -2.8628
 3104SOL    HW312183   5.527   5.256   3.674  0.1701 -0.4149  0.4602
 3104SOL    MW412184   5.509   5.172   3.660 -0.0018 -0.2359 -0.4693
 3105SOL     OW12185   4.508   4.876   0.883  0.7647 -0.1563  0.4737
 3105SOL    HW212186   4.481   4.960   0.845 -0.6134 -1.1868 -0.9869
 3105SOL    HW312187   4.500   4.888   0.977 -1.7432  0.6658  0.2253
 3105SOL    MW412188   4.503   4.889   0.890  0.2520 -0.1838  0.2482
 3106SOL     OW12189   2.351   0.454   4.359  0.4582  0.1675  0.7112
 3106SOL    HW212190   2.434   0.470   4.404  0.2666  2.6935  0.3139
 3106SOL    HW312191   2.373   0.452   4.266  0.1547  0.2998  0.6333
 3106SOL    MW412192   2.365   0.456   4.353  0.3929  0.5183  0.6485
 3107SOL     OW12193   0.220   0.110   1.570 -0.9758 -0.3753 -0.3856
 3107SOL    HW212194   0.171   0.122   1.489 -0.2950  2.4107 -0.4785
 3107SOL    HW312195   0.304   0.074   1.542 -0.3524  1.5242 -1.1298
 3107SOL    MW412196   0.225   0.107   1.556 -0.8038  0.2429 -0.4960
 3108SOL     OW12197   6.067   1.380   1.089 -0.2383  0.0407 -0.6659
 3108SOL    HW212198   5.982   1.390   1.132  0.4496  1.7297  0.4247
 3108SOL    HW312199   6.049   1.397   0.996 -1.4713 -2.1178 -0.8864
 3108SOL    MW412200   6.053   1.384   1.082 -0.3102 -0.0212 -0.5511
 3109SOL     OW12201   2.085   1.907   4.463 -0.9710  0.1531  0.0213
 3109SOL    HW212202   2.046   1.843   4.402 -0.2700 -0.1391 -0.1339
 3109SOL    HW312203   2.049   1.884   4.548  0.4821 -1.5010  0.2465
 3109SOL    MW412204   2.075   1.895   4.466 -0.6868 -0.1037  0.0305
 3110SOL     OW12205   2.225   3.993   6.057  0.3829  0.4381  0.3167
 3110SOL    HW212206   2.251   4.003   5.966 -0.9397  1.4275  0.0126
 3110SOL    HW312207   2.136   4.030   6.061 -1.4759 -3.5725  1.0447
 3110SOL    MW412208   2.217   3.999   6.046 -0.0368  0.0395  0.3726
 3111SOL     OW12209   0.430   5.750   4.284 -0.0218 -0.0398 -0.2137
 3111SOL    HW212210   0.339   5.758   4.313  0.1323 -0.0067  0.2602
 3111SOL    HW312211   0.427   5.686   4.213 -0.0448 -1.9920  1.4797
 3111SOL    MW412212   0.418   5.743   4.278 -0.0045 -0.2930  0.0722
 3112SOL     OW12213   1.753   0.552   3.923 -0.6324 -0.9212 -0.0902
 3112SOL    HW212214   1.798   0.500   3.990 -1.2590 -1.0113  0.2707
 3112SOL    HW312215   1.699   0.489   3.875 -3.8955 -0.2722  2.3802
 3112SOL    MW412216   1.752   0.537   3.926 -1.1456 -0.8475  0.2833
 3113SOL     OW12217   5.742   3.368   5.292  0.2379 -0.2592  0.3709
 3113SOL    HW212218   5.799   3.292   5.281  0.0578 -0.3665  0.1612
 3113SOL    HW312219   5.719   3.393   5.203  0.4246  0.1394  0.4340
 3113SOL    MW412220   5.746   3.361   5.279  0.2388 -0.2208  0.3516
 3114SOL     OW12221   2.766   0.232   6.251  0.6669  0.1082 -0.4732
 3114SOL    HW212222   2.739   0.180   6.326 -0.2579  0.2906 -0.6755
 3114SOL    HW312223   2.743   0.178   6.175 -1.1259  1.1625 -0.7199
 3114SOL    MW412224   2.760   0.218   6.251  0.3084  0.2714 -0.5324
 3115SOL     OW12225   0.396   0.061   0.185  0.2045 -0.6017  0.4580
 3115SOL    HW212226   0.364  -0.027   0.208 -1.0887 -0.0964  0.7057
 3115SOL    HW312227   0.362   0.076   0.097  0.6199 -0.4397  0.3264
 3115SOL    MW412228   0.387   0.051   0.176  0.0887 -0.5137  0.4734
 3116SOL     OW12229   5.183   5.791   0.922 -0.3069 -0.1494  0.0868
 3116SOL    HW212230   5.216   5.861   0.865  0.5057 -0.3591  0.2765
 3116SOL    HW312231   5.127   5.836   0.985 -0.7564  0.1600 -0.5290
 3116SOL    MW412232   5.180   5.806   0.923 -0.2590 -0.1362  0.0306
 3117SOL     OW12233   5.810   3.781   0.898  0.1669  0.6616 -0.1987
 3117SOL    HW212234   5.814   3.864   0.851 -2.6163  1.6077  1.0548
 3117SOL    HW312235   5.763   3.722   0.839  3.3217 -0.6218 -1.6878
 3117SOL    MW412236   5.805   3.784   0.884  0.2159  0.6171 -0.2297
 3118SOL     OW12237   2.807   0.180   0.774  0.9156 -0.0770  0.2883
 3118SOL    HW212238   2.817   0.270   0.807  2.8318 -0.1062 -0.1024
 3118SOL    HW312239   2.754   0.136   0.841  1.5380  0.8464  1.4311
 3118SOL    MW412240   2.801   0.186   0.787  1.2506  0.0410  0.3875
 3119SOL     OW12241   2.153   2.374   2.338 -0.4077 -0.1326  0.5524
 3119SOL    HW212242   2.246   2.388   2.319 -0.5780  0.9614  0.4841
 3119SOL    HW312243   2.151   2.292   2.387  0.5487 -0.3875  0.1867
 3119SOL    MW412244   2.165   2.365   2.342 -0.3040 -0.0219  0.4951
 3120SOL     OW12245   1.100   2.335   2.124 -0.4147  0.7620 -0.3129
 3120SOL    HW212246   1.094   2.429   2.140  2.3195  0.9294  0.1713
 3120SOL    HW312247   1.099   2.327   2.028 -1.2965  1.1962 -0.3499
 3120SOL    MW412248   1.099   2.346   2.113 -0.1703  0.8414 -0.2539
 3121SOL     OW12249   2.479   5.016   1.333  0.1746  0.0684  0.0165
 3121SOL    HW212250   2.491   5.025   1.238 -0.5915  1.5785  0.0344
 3121SOL    HW312251   2.535   5.085   1.370  0.6214 -0.6398  0.6882
 3121SOL    MW412252   2.488   5.026   1.325  0.1324  0.1742  0.1075
 3122SOL     OW12253   3.831   0.285   2.394  0.1152  0.2520 -0.2291
 3122SOL    HW212254   3.825   0.346   2.321  0.6878 -0.1640 -0.6402
 3122SOL    HW312255   3.837   0.199   2.352  2.0858  0.1200  0.2386
 3122SOL    MW412256   3.831   0.281   2.379  0.4507  0.1797 -0.2217
 3123SOL     OW12257   3.644   2.104   3.920 -0.4512  0.4880  0.5356
 3123SOL    HW212258   3.582   2.080   3.989 -0.2060 -2.0768 -0.0307
 3123SOL    HW312259   3.589   2.132   3.847 -0.9713 -1.2116  0.2363
 3123SOL    MW412260   3.628   2.105   3.920 -0.4875 -0.0746  0.4214
 3124SOL     OW12261   4.247   0.587   4.792  0.2470  0.0286 -0.2125
 3124SOL    HW212262   4.197   0.619   4.866 -1.7074  0.5677 -1.6824
 3124SOL    HW312263   4.302   0.661   4.765 -1.7458  1.1181 -1.5012
 3124SOL    MW412264   4.248   0.601   4.798 -0.2738  0.2434 -0.5764
 3125SOL     OW12265   1.506   0.440   1.122  0.5891  0.0665  0.4547
 3125SOL    HW212266   1.486   0.373   1.058 -0.2884  0.3743  0.3897
 3125SOL    HW312267   1.538   0.391   1.199  1.9669 -0.2798 -0.2984
 3125SOL    MW412268   1.508   0.425   1.124  0.6551  0.0614  0.3467
 3126SOL     OW12269   4.803   3.849   4.678  0.4706 -0.3966  0.3227
 3126SOL    HW212270   4.803   3.882   4.768 -2.9306  3.9109 -0.8849
 3126SOL    HW312271   4.745   3.773   4.680 -1.5627  1.0811  1.5346
 3126SOL    MW412272   4.795   3.843   4.690 -0.2464  0.3667  0.3232
 3127SOL     OW12273   4.809   4.436   1.310  0.5206 -0.2492 -0.6789
 3127SOL    HW212274   4.760   4.363   1.348 -2.5329  2.0952  0.1873
 3127SOL    HW312275   4.892   4.396   1.283 -0.0118 -3.5516  1.8531
 3127SOL    MW412276   4.814   4.421   1.311  0.0475 -0.3756 -0.2305
 3128SOL     OW12277   1.782   1.554   4.519  0.1726 -0.6442  0.3002
 3128SOL    HW212278   1.831   1.589   4.445  0.1709 -0.7429  0.2513
 3128SOL    HW312279   1.744   1.473   4.485 -2.5069  0.8694 -0.6254
 3128SOL    MW412280   1.783   1.548   4.505 -0.1811 -0.4575  0.1716
 3129SOL     OW12281   4.005   5.294   2.934  0.8554 -0.5496  0.6237
 3129SOL    HW212282   3.975   5.375   2.893  1.2355 -0.8112 -0.2121
 3129SOL    HW312283   4.100   5.300   2.932  1.0633 -2.3716 -2.4982
 3129SOL    MW412284   4.014   5.305   2.928  0.9330 -0.8245  0.1015
 3130SOL     OW12285   2.187   2.495   3.235 -0.1262  0.4543  0.4419
 3130SOL    HW212286   2.253   2.444   3.189 -0.5064  0.4779 -0.1382
 3130SOL    HW312287   2.221   2.503   3.325  0.7590  0.6544  0.0988
 3130SOL    MW412288   2.200   2.489   3.241 -0.0596  0.4838  0.3201
 3131SOL     OW12289   5.476   6.357   4.033 -0.3217  0.6397  0.2194
 3131SOL    HW212290   5.405   6.305   3.996 -0.2344  0.4959  0.2555
 3131SOL    HW312291   5.444   6.384   4.119 -0.4629  0.8474  0.1025
 3131SOL    MW412292   5.462   6.354   4.039 -0.3288  0.6482  0.2087
 3132SOL     OW12293   0.654   0.459   3.555 -0.4760  0.3917 -0.0633
 3132SOL    HW212294   0.701   0.439   3.474 -0.4610  2.9166 -0.7788
 3132SOL    HW312295   0.574   0.408   3.550  1.3859 -2.9192  0.5140
 3132SOL    MW412296   0.650   0.450   3.544 -0.2284  0.2880 -0.0815
 3133SOL     OW12297   6.322   2.086   0.881 -0.5325 -0.0452 -0.1081
 3133SOL    HW212298   6.301   2.146   0.809 -1.3788  0.4722  0.5459
 3133SOL    HW312299   6.256   2.105   0.947  0.4226 -0.2739  0.9409
 3133SOL    MW412300   6.311   2.097   0.880 -0.5182 -0.0071  0.1166
 3134SOL     OW12301   0.004   1.819   5.587  0.4109 -0.7079 -0.3847
 3134SOL    HW212302   0.001   1.886   5.655 -2.2512 -1.5693  0.4835
 3134SOL    HW312303  -0.083   1.822   5.547  0.4173 -3.1962 -0.7432
 3134SOL    MW412304  -0.008   1.829   5.591  0.0605 -1.1499 -0.3174
 3135SOL     OW12305   2.782   5.751   1.860  0.2886  0.3286  0.1562
 3135SOL    HW212306   2.732   5.761   1.779 -0.8831  0.7987  0.9105
 3135SOL    HW312307   2.752   5.823   1.915 -1.8897 -2.1269  2.4874
 3135SOL    MW412308   2.771   5.762   1.857 -0.1534  0.0667  0.5633
 3136SOL     OW12309   5.054   4.738   1.380  0.2378  0.1402 -0.1552
 3136SOL    HW212310   5.103   4.665   1.343  0.6555  0.6176 -0.5479
 3136SOL    HW312311   5.018   4.704   1.462 -0.2589 -0.7616 -0.7339
 3136SOL    MW412312   5.056   4.724   1.386  0.2274  0.0842 -0.2833
 3137SOL     OW12313   2.572   5.735   3.035 -0.2067  0.6242  0.1664
 3137SOL    HW212314   2.491   5.689   3.013 -1.1920  1.5702  1.5912
 3137SOL    HW312315   2.559   5.823   3.000  1.3088  0.1222 -1.8176
 3137SOL    MW412316   2.559   5.741   3.027 -0.1367  0.6828  0.0926
 3138SOL     OW12317   0.077   2.439   2.966  1.0936  0.2110  0.0136
 3138SOL    HW212318   0.063   2.392   2.883 -1.4390 -0.9450  0.9944
 3138SOL    HW312319   0.014   2.511   2.963  0.6656 -0.1049  1.0945
 3138SOL    MW412320   0.067   2.442   2.955  0.7030  0.0168  0.2856
 3139SOL     OW12321   6.312   3.354   0.123  0.7888 -0.0311 -0.1621
 3139SOL    HW212322   6.342   3.268   0.153 -0.6206 -0.6665 -0.5014
 3139SOL    HW312323   6.391   3.398   0.091  1.2287 -2.0408 -2.0453
 3139SOL    MW412324   6.326   3.349   0.123  0.6609 -0.3801 -0.4554
 3140SOL     OW12325   6.024   4.041   4.254  0.2074  0.1972 -0.3124
 3140SOL    HW212326   5.939   4.061   4.214 -0.8296  0.2180  1.7784
 3140SOL    HW312327   6.036   4.109   4.319  2.0236  0.3710 -0.7970
 3140SOL    MW412328   6.014   4.052   4.257  0.3102  0.2229 -0.1005
 3141SOL     OW12329   2.980   4.654   1.868 -0.2834  0.4570  0.6040
 3141SOL    HW212330   2.988   4.563   1.840 -2.6901  0.8069 -1.5937
 3141SOL    HW312331   3.070   4.688   1.865  0.7954 -1.9731  2.3002
 3141SOL    MW412332   2.993   4.646   1.864 -0.4586  0.1825  0.5378
 3142SOL     OW12333   1.257   1.097   0.847  0.0856  0.1023  0.2837
 3142SOL    HW212334   1.270   1.133   0.759  0.6815  0.2189  0.4176
 3142SOL    HW312335   1.302   1.013   0.846 -0.9471 -0.4683  0.1053
 3142SOL    MW412336   1.265   1.091   0.835  0.0279  0.0424  0.2778
 3143SOL     OW12337   4.565   2.686   4.984  0.0485 -0.1190 -0.0395
 3143SOL    HW212338   4.637   2.728   5.031  2.3511 -1.6251 -1.9676
 3143SOL    HW312339   4.603   2.605   4.950 -2.8065 -1.3602 -0.5674
 3143SOL    MW412340   4.580   2.681   4.986 -0.0244 -0.4814 -0.3635
 3144SOL     OW12341   0.952   1.245   2.981 -0.4788 -0.7720 -0.0352
 3144SOL    HW212342   0.942   1.156   3.016  2.1161 -0.5898  1.4217
 3144SOL    HW312343   1.037   1.274   3.013  0.4441  0.8906 -3.5184
 3144SOL    MW412344   0.962   1.237   2.990 -0.0147 -0.5286 -0.3026
 3145SOL     OW12345   0.480   1.659   1.409 -0.0670  0.4577  0.3869
 3145SOL    HW212346   0.467   1.565   1.396  0.9443  0.4929 -1.0799
 3145SOL    HW312347   0.545   1.665   1.479  1.2125 -0.0097 -0.7172
 3145SOL    MW412348   0.487   1.647   1.416  0.2352  0.4007  0.0477
 3146SOL     OW12349   2.635   6.060   3.776 -0.8008  0.3856  0.1444
 3146SOL    HW212350   2.632   5.984   3.719 -0.5153  0.1791  0.4016
 3146SOL    HW312351   2.558   6.051   3.832 -0.9180  0.4328 -0.0084
 3146SOL    MW412352   2.624   6.049   3.776 -0.7786  0.3646  0.1582
 3147SOL     OW12353   5.743   3.115   4.637  0.2235  0.1024  0.0042
 3147SOL    HW212354   5.698   3.189   4.596  1.8080  0.7445 -0.6289
 3147SOL    HW312355   5.709   3.114   4.727 -1.3427  0.2843 -0.5466
 3147SOL    MW412356   5.732   3.125   4.644  0.2259  0.2111 -0.1520
 3148SOL     OW12357   2.344   5.854   1.791  0.2241  0.2696  0.1861
 3148SOL    HW212358   2.265   5.902   1.767 -0.0835  0.4959  1.5323
 3148SOL    HW312359   2.313   5.781   1.844  0.9458  0.8543  1.4672
 3148SOL    MW412360   2.330   5.851   1.795  0.2787  0.3766  0.5327
 3149SOL     OW12361   2.283   1.864   3.677 -0.1189 -0.3087 -0.6637
 3149SOL    HW212362   2.346   1.792   3.669 -0.8525 -1.1036  0.4052
 3149SOL    HW312363   2.199   1.824   3.657 -0.4347  0.4781 -0.9347
 3149SOL    MW412364   2.280   1.849   3.673 -0.2574 -0.3098 -0.5584
 3150SOL     OW12365   3.217   0.183   2.415 -0.1917 -0.4105 -0.0437
 3150SOL    HW212366   3.130   0.149   2.436  0.0699  0.8103  3.8914
 3150SOL    HW312367   3.276   0.111   2.437 -0.0576  0.0573  1.2377
 3150SOL    MW412368   3.213   0.169   2.421 -0.1395 -0.1877  0.6446
 3151SOL     OW12369   2.549   2.052   0.556  0.3042  0.3996 -0.2332
 3151SOL    HW212370   2.491   2.098   0.496  1.1033 -0.7572 -1.9573
 3151SOL    HW312371   2.504   1.970   0.576 -0.8374  1.5205  2.3591
 3151SOL    MW412372   2.536   2.048   0.551  0.2590  0.3949 -0.1186
 3152SOL     OW12373   1.464   3.817   0.706  0.2194  0.1018 -0.4172
 3152SOL    HW212374   1.526   3.859   0.647 -0.3557  2.7594  0.7071
 3152SOL    HW312375   1.383   3.867   0.695 -0.0233  0.4628  2.2538
 3152SOL    MW412376   1.461   3.829   0.697  0.1115  0.5001  0.0835
 3153SOL     OW12377   4.386   4.482   2.641  0.2987 -0.0920 -0.0467
 3153SOL    HW212378   4.409   4.570   2.610 -2.5466  0.1954 -1.7684
 3153SOL    HW312379   4.316   4.497   2.705 -1.3970 -1.0336 -1.5578
 3153SOL    MW412380   4.380   4.496   2.645 -0.3005 -0.1783 -0.4732
 3154SOL     OW12381   4.031   3.120   3.491  0.2460 -0.4574 -0.3714
 3154SOL    HW212382   3.942   3.126   3.524  0.2557 -1.6301 -0.0828
 3154SOL    HW312383   4.021   3.092   3.400  0.3065  0.1366 -0.5662
 3154SOL    MW412384   4.018   3.117   3.483  0.2552 -0.5337 -0.3590
 3155SOL     OW12385   6.192   3.491   5.881 -0.0446 -0.2199  0.6576
 3155SOL    HW212386   6.205   3.517   5.789 -0.5832 -3.6065 -0.5076
 3155SOL    HW312387   6.260   3.426   5.898 -1.4981 -1.5327  1.7707
 3155SOL    MW412388   6.203   3.486   5.871 -0.3074 -0.8399  0.6507
 3156SOL     OW12389   5.309   3.488   4.679  0.1777  0.1353  0.5913
 3156SOL    HW212390   5.303   3.577   4.643 -0.3706 -0.2942 -0.4333
 3156SOL    HW312391   5.221   3.469   4.711 -0.8515 -1.4056 -2.6834
 3156SOL    MW412392   5.297   3.497   4.678 -0.0304 -0.1247  0.0240
 3157SOL     OW12393   1.303   1.640   5.712 -0.0256 -0.4477 -0.1581
 3157SOL    HW212394   1.398   1.644   5.713 -0.0252  0.2871 -1.1903
 3157SOL    HW312395   1.277   1.639   5.804  0.9557 -0.2122  0.1271
 3157SOL    MW412396   1.312   1.640   5.724  0.1039 -0.3197 -0.2567
 3158SOL     OW12397   5.568   1.521   3.163 -0.5992  0.1840 -0.1803
 3158SOL    HW212398   5.615   1.536   3.081  2.0782  0.1372  1.2322
 3158SOL    HW312399   5.577   1.603   3.212 -0.8539 -0.2777  0.6740
 3158SOL    MW412400   5.575   1.534   3.159 -0.2796  0.1169  0.1188
 3159SOL     OW12401   5.871   4.656   2.558 -0.0042  0.5745 -0.0422
 3159SOL    HW212402   5.909   4.741   2.581 -0.7623  1.4726 -1.9586
 3159SOL    HW312403   5.875   4.606   2.639  2.8181  1.5303  0.5263
 3159SOL    MW412404   5.877   4.661   2.572  0.2681  0.8191 -0.2201
 3160SOL     OW12405   1.565   2.948   1.654 -0.3554  0.1787  0.1760
 3160SOL    HW212406   1.542   3.020   1.595 -2.9598  0.0099  0.8739
 3160SOL    HW312407   1.572   2.989   1.740 -0.3287 -0.1586  0.3353
 3160SOL    MW412408   1.563   2.963   1.657 -0.6955  0.1119  0.2891
 3161SOL     OW12409   3.364   3.791   3.601 -0.1551  0.0058 -0.0585
 3161SOL    HW212410   3.302   3.743   3.546  0.2899  0.2553 -0.7883
 3161SOL    HW312411   3.441   3.803   3.546  0.3412  0.1753  0.6567
 3161SOL    MW412412   3.366   3.786   3.586 -0.0309  0.0611 -0.0605
 3162SOL     OW12413   0.875   4.076   5.603  0.2823 -0.3271  0.1187
 3162SOL    HW212414   0.962   4.072   5.562  0.0330  0.0190 -0.4523
 3162SOL    HW312415   0.841   4.162   5.578 -0.4938 -0.7189 -0.2154
 3162SOL    MW412416   0.882   4.087   5.594  0.1470 -0.3331 -0.0007
 3163SOL     OW12417   0.037   4.884   5.838 -0.6493 -0.4445 -0.2398
 3163SOL    HW212418   0.064   4.962   5.888  2.3989 -1.8959  0.6509
 3163SOL    HW312419   0.014   4.820   5.904 -1.9128 -0.7237 -0.9285
 3163SOL    MW412420   0.038   4.886   5.853 -0.4138 -0.6728 -0.2131
 3164SOL     OW12421   5.456   0.582   1.783 -0.1046  0.3631 -0.4477
 3164SOL    HW212422   5.375   0.597   1.734 -0.3453 -0.5485 -0.3519
 3164SOL    HW312423   5.481   0.669   1.816 -1.4910  0.5375  0.2266
 3164SOL    MW412424   5.449   0.596   1.781 -0.3193  0.2658 -0.3461
 3165SOL     OW12425   0.409   1.804   3.744  0.4192 -0.3866  0.1253
 3165SOL    HW212426   0.364   1.729   3.784 -1.1494 -1.1581 -2.8020
 3165SOL    HW312427   0.500   1.795   3.773  0.0027 -2.6302  0.9588
 3165SOL    MW412428   0.415   1.793   3.753  0.1573 -0.7844 -0.1509
 3166SOL     OW12429   0.101   5.062   3.118 -0.6120 -0.1753  0.3227
 3166SOL    HW212430   0.117   5.039   3.027 -0.6544  1.3272 -0.0826
 3166SOL    HW312431   0.112   4.979   3.166  1.1484 -0.6401 -0.8035
 3166SOL    MW412432   0.104   5.048   3.112 -0.3853 -0.0384  0.1206
 3167SOL     OW12433   4.440   5.536   5.538  0.1089  0.1510 -0.1568
 3167SOL    HW212434   4.346   5.521   5.528  0.2102 -0.4353 -0.2681
 3167SOL    HW312435   4.475   5.533   5.448  0.1346  1.1323 -0.1992
 3167SOL    MW412436   4.432   5.534   5.525  0.1257  0.2031 -0.1771
 3168SOL     OW12437   5.085   6.280   0.537  0.4898 -0.0760  0.5272
 3168SOL    HW212438   5.003   6.326   0.520  0.4436 -0.0835  0.7187
 3168SOL    HW312439   5.151   6.350   0.543  0.2088  0.1069  2.1145
 3168SOL    MW412440   5.083   6.295   0.536  0.4466 -0.0528  0.7619
 3169SOL     OW12441   4.240   3.877   4.506  0.1261  0.3493 -0.1336
 3169SOL    HW212442   4.167   3.815   4.507 -0.2660  0.8055  0.2775
 3169SOL    HW312443   4.317   3.823   4.520  0.0009 -0.2852 -1.6934
 3169SOL    MW412444   4.240   3.862   4.508  0.0579  0.3258 -0.2851
 3170SOL     OW12445   0.139   1.951   0.922  0.0464  0.3846 -0.1500
 3170SOL    HW212446   0.107   1.883   0.980  0.5172  1.1265  1.0162
 3170SOL    HW312447   0.065   2.010   0.911  0.0124  0.3428 -0.1444
 3170SOL    MW412448   0.125   1.950   0.928  0.1040  0.4769  0.0046
 3171SOL     OW12449   5.944   1.702   0.788 -0.5868 -0.1723 -0.8269
 3171SOL    HW212450   5.936   1.796   0.805  2.1364 -0.1467  1.1511
 3171SOL    HW312451   6.004   1.697   0.714  0.3187 -0.3036 -0.1044
 3171SOL    MW412452   5.951   1.714   0.781 -0.1081 -0.1863 -0.4706
 3172SOL     OW12453   0.144   3.776   4.166 -0.2334 -0.1775  0.3190
 3172SOL    HW212454   0.101   3.848   4.121 -1.6335 -1.8924 -1.2716
 3172SOL    HW312455   0.154   3.708   4.099  1.3518 -1.3567  1.6504
 3172SOL    MW412456   0.140   3.776   4.151 -0.2090 -0.5593  0.2848
 3173SOL     OW12457   5.289   0.197   1.726  0.3631 -0.3688 -0.0197
 3173SOL    HW212458   5.261   0.107   1.745 -1.1720 -0.2907 -1.7174
 3173SOL    HW312459   5.381   0.188   1.701  1.0148 -1.0850  2.3414
 3173SOL    MW412460   5.297   0.184   1.725  0.2466 -0.4530  0.0678
 3174SOL     OW12461   2.119   2.279   1.874 -0.0330  0.8402 -0.3804
 3174SOL    HW212462   2.179   2.266   1.947 -0.0493  1.4796 -0.2482
 3174SOL    HW312463   2.034   2.294   1.914  0.0381  1.6398 -0.5003
 3174SOL    MW412464   2.116   2.279   1.889 -0.0257  1.0301 -0.3788
 3175SOL     OW12465   1.233   3.047   2.250 -0.1295 -0.0853 -0.0642
 3175SOL    HW212466   1.277   2.968   2.281  1.5837  0.6455 -0.4658
 3175SOL    HW312467   1.261   3.057   2.159  0.7195  1.6001  0.3239
 3175SOL    MW412468   1.243   3.038   2.242  0.2085  0.2335 -0.0659
 3176SOL     OW12469   1.298   3.902   5.641 -0.2283  0.4047  0.2100
 3176SOL    HW212470   1.374   3.861   5.601 -0.1966  0.7094 -0.0481
 3176SOL    HW312471   1.320   3.908   5.734  0.2511  0.9115  0.0652
 3176SOL    MW412472   1.311   3.897   5.648 -0.1609  0.5117  0.1569
 3177SOL     OW12473   1.659   4.461   0.622  0.7056  0.3207 -0.4280
 3177SOL    HW212474   1.627   4.381   0.582 -0.0851  0.0218  0.7412
 3177SOL    HW312475   1.742   4.436   0.663 -0.3390 -0.3692  1.3706
 3177SOL    MW412476   1.666   4.447   0.622  0.4635  0.1903 -0.0364
 3178SOL     OW12477   2.575   5.023   2.695 -0.4282 -0.1748  0.5436
 3178SOL    HW212478   2.585   5.116   2.713 -1.7374  0.5851 -2.1118
 3178SOL    HW312479   2.651   4.982   2.736  1.7605  2.4129 -0.5754
 3178SOL    MW412480   2.586   5.030   2.703 -0.3121  0.2669  0.0456
 3179SOL     OW12481   1.048   1.110   2.156  0.1801 -0.2518 -0.4841
 3179SOL    HW212482   1.101   1.127   2.078  0.0560 -0.0953 -0.5344
 3179SOL    HW312483   0.989   1.039   2.130  0.3688 -0.4290 -0.4265
 3179SOL    MW412484   1.047   1.103   2.142  0.1886 -0.2545 -0.4831
 3180SOL     OW12485   1.835   5.916   3.085  0.7898 -0.5775 -0.2978
 3180SOL    HW212486   1.899   5.987   3.093  0.4636 -0.3719  0.7241
 3180SOL    HW312487   1.780   5.925   3.163  0.7744 -1.9842 -0.1065
 3180SOL    MW412488   1.837   5.926   3.097  0.7447 -0.7359 -0.1378
 3181SOL     OW12489   2.253   0.474   0.299 -0.9493 -0.1051  0.3448
 3181SOL    HW212490   2.303   0.537   0.248 -1.8658 -0.1792 -0.6806
 3181SOL    HW312491   2.314   0.402   0.315 -0.2843  0.4678  0.4398
 3181SOL    MW412492   2.268   0.473   0.295 -0.9825 -0.0393  0.2220
 3182SOL     OW12493   5.238   5.106   5.253 -0.8601 -0.3879 -0.2168
 3182SOL    HW212494   5.267   5.026   5.209  0.3466 -0.5652  0.8435
 3182SOL    HW312495   5.307   5.124   5.317 -1.8245  0.7038  0.5451
 3182SOL    MW412496   5.251   5.098   5.256 -0.8281 -0.2673  0.0236
 3183SOL     OW12497   4.185   0.725   3.509  0.0167  0.2770  0.1798
 3183SOL    HW212498   4.129   0.769   3.573  1.3534  1.5357  0.5558
 3183SOL    HW312499   4.238   0.665   3.562  0.9456  1.1366  0.2740
 3183SOL    MW412500   4.185   0.723   3.525  0.3156  0.5565  0.2418
 3184SOL     OW12501   2.940   4.286   4.211 -0.2681 -0.7733  0.6933
 3184SOL    HW212502   2.942   4.195   4.243 -0.6414 -1.0381 -0.0178
 3184SOL    HW312503   2.877   4.285   4.139 -1.6955  0.4559  1.8705
 3184SOL    MW412504   2.932   4.274   4.206 -0.5056 -0.6461  0.7548
 3185SOL     OW12505   4.919   2.087   0.225  0.4182 -0.1914 -0.3985
 3185SOL    HW212506   4.985   2.062   0.291 -0.2393 -1.0382 -0.0315
 3185SOL    HW312507   4.948   2.172   0.193  0.7322  0.2788  1.0360
 3185SOL    MW412508   4.932   2.095   0.230  0.3729 -0.2411 -0.1608
 3186SOL     OW12509   0.352   0.070   1.838 -0.0945 -0.1628 -0.3390
 3186SOL    HW212510   0.270   0.021   1.846  0.3825 -1.1689 -1.3592
 3186SOL    HW312511   0.418   0.003   1.824  0.9408  0.6291  0.5721
 3186SOL    MW412512   0.350   0.055   1.837  0.1050 -0.1911 -0.3534
 3187SOL     OW12513   0.070   0.898   5.075  0.0319 -0.0207  0.5028
 3187SOL    HW212514   0.142   0.915   5.014 -0.3102 -1.8582 -0.4908
 3187SOL    HW312515   0.019   0.827   5.033 -0.3797 -1.1577  2.7815
 3187SOL    MW412516   0.072   0.891   5.061 -0.0675 -0.4131  0.6724
 3188SOL     OW12517   5.901   1.859   3.555  0.6914  0.6978 -0.2542
 3188SOL    HW212518   5.812   1.825   3.558  1.2297 -0.8377 -0.7914
 3188SOL    HW312519   5.898   1.928   3.489  0.0061  0.3387 -0.6055
 3188SOL    MW412520   5.889   1.863   3.547  0.6720  0.4478 -0.3714
 3189SOL     OW12521   2.999   4.692   5.500  0.0571 -0.6268 -0.1110
 3189SOL    HW212522   2.947   4.678   5.421 -1.9627 -0.7540  1.1872
 3189SOL    HW312523   2.940   4.672   5.573  1.5529  0.4055  1.4827
 3189SOL    MW412524   2.985   4.687   5.499 -0.0121 -0.5074  0.2705
 3190SOL     OW12525   6.197   1.351   3.126 -0.7326  0.1322 -0.0737
 3190SOL    HW212526   6.141   1.411   3.076 -0.9228  0.6721  0.7648
 3190SOL    HW312527   6.208   1.394   3.210  0.5858 -0.1957 -0.0701
 3190SOL    MW412528   6.191   1.365   3.130 -0.5838  0.1601  0.0374
 3191SOL     OW12529   3.138   5.154   5.079 -0.5192  0.3034 -0.6054
 3191SOL    HW212530   3.106   5.064   5.073  2.1975 -0.6979 -1.6841
 3191SOL    HW312531   3.188   5.156   5.161 -0.7113  0.8978 -0.4993
 3191SOL    MW412532   3.141   5.142   5.089 -0.1861  0.2497 -0.7337
 3192SOL     OW12533   4.990   4.939   4.675  0.8357 -0.2242 -0.6978
 3192SOL    HW212534   5.081   4.937   4.644  1.4918  1.2322  0.9882
 3192SOL    HW312535   4.992   4.892   4.759 -0.2569 -1.2942 -1.2366
 3192SOL    MW412536   5.003   4.932   4.682  0.7781 -0.1732 -0.5464
 3193SOL     OW12537   4.840   6.186   1.711 -0.3500 -0.4877  0.3487
 3193SOL    HW212538   4.773   6.216   1.650  0.0571 -2.0891 -0.9490
 3193SOL    HW312539   4.809   6.101   1.742 -0.0526 -0.1600  1.5905
 3193SOL    MW412540   4.827   6.179   1.707 -0.2571 -0.6558  0.3413
 3194SOL     OW12541   5.307   3.793   2.950  0.3638  0.4889 -0.1114
 3194SOL    HW212542   5.311   3.825   2.860 -0.0123  0.6662 -0.0670
 3194SOL    HW312543   5.314   3.871   3.004  2.7462  0.2209  0.0748
 3194SOL    MW412544   5.309   3.807   2.945  0.6285  0.4769 -0.0810
 3195SOL     OW12545   3.667   3.567   0.892 -0.0535  0.0696  0.3004
 3195SOL    HW212546   3.727   3.571   0.966  0.0946 -1.1068  0.2644
 3195SOL    HW312547   3.659   3.657   0.862  1.6054  0.2718  0.3819
 3195SOL    MW412548   3.673   3.579   0.898  0.1849 -0.0589  0.3064
 3196SOL     OW12549   0.967   3.435   1.119 -0.2453  0.2844 -0.0076
 3196SOL    HW212550   0.875   3.428   1.095  0.3358 -1.5011 -2.0048
 3196SOL    HW312551   0.973   3.393   1.205 -1.0917 -0.8089 -0.4636
 3196SOL    MW412552   0.956   3.429   1.127 -0.2803 -0.0954 -0.3312
 3197SOL     OW12553   3.858   5.297   1.912  0.2255 -0.4162  0.1280
 3197SOL    HW212554   3.927   5.235   1.890  0.9384  0.7682 -1.1341
 3197SOL    HW312555   3.863   5.306   2.007  0.8300 -1.4381  0.2053
 3197SOL    MW412556   3.867   5.290   1.921  0.3993 -0.3947 -0.0283
 3198SOL     OW12557   1.450   1.038   5.251 -0.0272  0.1755 -0.0965
 3198SOL    HW212558   1.497   1.085   5.320 -0.3122  0.9224 -0.4031
 3198SOL    HW312559   1.491   0.951   5.248 -0.6430 -0.2296  1.6924
 3198SOL    MW412560   1.461   1.032   5.260 -0.1460  0.2206  0.0990
 3199SOL     OW12561   1.439   2.363   4.135 -0.2940 -0.2159 -0.4335
 3199SOL    HW212562   1.427   2.274   4.102 -1.6675 -0.4673  0.6327
 3199SOL    HW312563   1.360   2.409   4.106 -1.1704 -0.2487  1.7284
 3199SOL    MW412564   1.427   2.357   4.127 -0.5908 -0.2534 -0.0076
 3200SOL     OW12565   4.187   0.885   4.935  0.1131  0.2491  0.2165
 3200SOL    HW212566   4.196   0.842   5.020  1.0942 -0.4672 -0.2323
 3200SOL    HW312567   4.095   0.872   4.911  0.1246 -0.6208  0.6083
 3200SOL    MW412568   4.176   0.878   4.943  0.2441  0.0398  0.2090
 3201SOL     OW12569   3.393   4.963   3.368  0.0932  0.0188  0.2897
 3201SOL    HW212570   3.454   5.017   3.419  0.5628 -1.8065  1.7841
 3201SOL    HW312571   3.376   4.887   3.424 -1.8822 -0.5740 -1.0063
 3201SOL    MW412572   3.399   4.960   3.382 -0.1055 -0.3002  0.3159
 3202SOL     OW12573   5.651   3.517   2.338 -0.3662 -0.0007 -0.0229
 3202SOL    HW212574   5.691   3.591   2.384 -2.7583  1.3137  0.1291
 3202SOL    HW312575   5.669   3.441   2.394 -0.7633  1.0768  1.6453
 3202SOL    MW412576   5.659   3.517   2.352 -0.7342  0.3149  0.2173
 3203SOL     OW12577   2.037   5.947   3.828  0.0597  0.5514  0.1704
 3203SOL    HW212578   2.024   5.852   3.834 -1.0916  0.5440 -1.8399
 3203SOL    HW312579   1.956   5.984   3.861  0.3749  0.8497  0.6242
 3203SOL    MW412580   2.025   5.939   3.833 -0.0506  0.5898 -0.0349
 3204SOL     OW12581   2.208   0.825   4.110 -0.6307 -0.0318 -0.5355
 3204SOL    HW212582   2.156   0.792   4.183 -0.1827 -0.7720 -0.5325
 3204SOL    HW312583   2.215   0.749   4.051  0.9554 -0.1395 -0.2409
 3204SOL    MW412584   2.202   0.810   4.112 -0.3623 -0.1437 -0.4962
 3205SOL     OW12585   0.231   6.095   4.614 -0.3888  0.2634 -0.6722
 3205SOL    HW212586   0.307   6.067   4.563 -0.0279  1.2659 -0.7040
 3205SOL    HW312587   0.208   6.181   4.578 -0.3735  0.8143  0.5873
 3205SOL    MW412588   0.238   6.103   4.603 -0.3392  0.4684 -0.5102
 3206SOL     OW12589   0.853   2.542   4.094 -0.2326 -0.3673  0.0229
 3206SOL    HW212590   0.810   2.570   4.014 -3.3317  1.2618  2.0732
 3206SOL    HW312591   0.941   2.579   4.088 -0.4654 -0.0472 -2.4335
 3206SOL    MW412592   0.859   2.551   4.083 -0.6722 -0.1101 -0.0307
 3207SOL     OW12593   3.718   5.627   3.705 -0.6188  0.2300  0.1000
 3207SOL    HW212594   3.729   5.722   3.719  0.3874  0.1715 -0.1687
 3207SOL    HW312595   3.659   5.621   3.630 -0.1197  0.6688 -0.3378
 3207SOL    MW412596   3.712   5.639   3.697 -0.4202  0.2802  0.0068
 3208SOL     OW12597   2.803   2.585   6.293 -0.4625  0.1937  0.1442
 3208SOL    HW212598   2.772   2.674   6.276 -1.3428 -0.3639 -1.3404
 3208SOL    HW312599   2.733   2.545   6.344 -0.7133 -0.0625 -0.3930
 3208SOL    MW412600   2.790   2.592   6.297 -0.6118  0.0863 -0.1226
 3209SOL     OW12601   2.175   5.224   1.728 -0.1999  0.0014 -0.3977
 3209SOL    HW212602   2.159   5.197   1.819  2.3039 -2.1459 -0.4399
 3209SOL    HW312603   2.109   5.178   1.677 -0.7771  0.1399  0.2111
 3209SOL    MW412604   2.164   5.214   1.733  0.0543 -0.2637 -0.3229
 3210SOL     OW12605   3.145   2.555   6.178 -0.3332  0.3215 -0.3750
 3210SOL    HW212606   3.179   2.499   6.247 -0.1544  0.1652 -0.5857
 3210SOL    HW312607   3.165   2.644   6.206  3.8247  0.2047 -2.2369
 3210SOL    MW412608   3.152   2.559   6.190  0.2390  0.2855 -0.6484
 3211SOL     OW12609   0.029   1.766   2.828 -0.2356 -0.7130 -0.5297
 3211SOL    HW212610  -0.032   1.707   2.873 -1.9688  1.5623  0.3324
 3211SOL    HW312611  -0.001   1.767   2.737 -0.2902 -1.0310 -0.5169
 3211SOL    MW412612   0.017   1.758   2.822 -0.4715 -0.4548 -0.4143
 3212SOL     OW12613   4.121   3.600   0.590 -0.1905 -0.4095 -0.5763
 3212SOL    HW212614   4.163   3.515   0.578  0.1823 -0.1259 -1.4225
 3212SOL    HW312615   4.147   3.650   0.512  0.9563  1.0459  0.6946
 3212SOL    MW412616   4.130   3.596   0.578  0.0100 -0.1801 -0.5203
 3213SOL     OW12617   4.567   2.498   6.337  0.3062  0.5019  0.3539
 3213SOL    HW212618   4.615   2.472   6.258  0.2958 -1.1323  0.8426
 3213SOL    HW312619   4.480   2.522   6.306  0.4738  0.4134 -0.1948
 3213SOL    MW412620   4.562   2.498   6.322  0.3270  0.2746  0.3460
 3214SOL     OW12621   6.140   4.728   0.266 -0.5748 -0.2271  0.0337
 3214SOL    HW212622   6.223   4.725   0.313 -1.2879 -0.0398  1.3562
 3214SOL    HW312623   6.131   4.819   0.239 -0.3958 -0.2261 -0.0249
 3214SOL    MW412624   6.150   4.739   0.269 -0.6453 -0.2023  0.2005
 3215SOL     OW12625   4.806   1.951   3.027  0.3088  0.2046  0.4955
 3215SOL    HW212626   4.741   1.942   3.096  0.8342  1.8273  1.2570
 3215SOL    HW312627   4.884   1.908   3.061 -0.2090 -1.3850 -0.2497
 3215SOL    MW412628   4.808   1.944   3.040  0.3098  0.2090  0.4977
 3216SOL     OW12629   4.202   0.901   3.170 -0.0839  0.3337 -0.4780
 3216SOL    HW212630   4.288   0.865   3.150 -0.9631 -1.2269 -1.6465
 3216SOL    HW312631   4.146   0.824   3.180 -1.4560  1.3318 -0.2708
 3216SOL    MW412632   4.206   0.886   3.169 -0.3810  0.2595 -0.6048
 3217SOL     OW12633   6.387   2.786   2.997  0.0437  0.2829 -0.2178
 3217SOL    HW212634   6.432   2.870   2.988 -0.7102  0.8341  0.9725
 3217SOL    HW312635   6.387   2.750   2.908  1.5517  0.9024 -0.5122
 3217SOL    MW412636   6.393   2.792   2.984  0.1432  0.4373 -0.0996
 3218SOL     OW12637   4.613   1.368   0.698 -0.3704  0.2187 -0.1207
 3218SOL    HW212638   4.570   1.406   0.775 -0.8507 -0.3079 -0.1135
 3218SOL    HW312639   4.656   1.441   0.655 -0.3233  0.5662  0.5060
 3218SOL    MW412640   4.613   1.382   0.702 -0.4275  0.1951 -0.0371
 3219SOL     OW12641   4.533   0.426   0.046 -0.2088 -0.4300  0.2919
 3219SOL    HW212642   4.453   0.444  -0.003  0.1355  2.1702  0.5638
 3219SOL    HW312643   4.582   0.365  -0.010 -1.2898 -0.1373 -1.0257
 3219SOL    MW412644   4.529   0.420   0.032 -0.3060 -0.0483  0.1540
 3220SOL     OW12645   5.953   5.436   1.653  0.3921 -0.3849  0.6193
 3220SOL    HW212646   6.020   5.388   1.604  0.8578 -0.0246  0.8953
 3220SOL    HW312647   5.941   5.385   1.734 -1.5468 -1.8867 -0.5292
 3220SOL    MW412648   5.960   5.423   1.658  0.1977 -0.5355  0.5042
 3221SOL     OW12649   5.397   1.596   1.998 -0.7337 -0.0207  0.1501
 3221SOL    HW212650   5.413   1.639   2.081 -0.7835 -1.0994  0.7404
 3221SOL    HW312651   5.433   1.508   2.009 -1.3321 -0.3944 -0.7331
 3221SOL    MW412652   5.404   1.590   2.010 -0.8192 -0.2123  0.1115
 3222SOL     OW12653   3.453   3.254   2.156  0.1412  0.5238 -0.1879
 3222SOL    HW212654   3.545   3.269   2.134 -0.0264  0.4743 -0.9758
 3222SOL    HW312655   3.452   3.242   2.251  1.1522 -0.9233 -0.3264
 3222SOL    MW412656   3.465   3.254   2.165  0.2525  0.3263 -0.3101
 3223SOL     OW12657   3.755   0.094   0.056 -0.2164 -0.1334  0.6094
 3223SOL    HW212658   3.676   0.048   0.029 -1.2076  1.7984  0.0709
 3223SOL    HW312659   3.756   0.173   0.002  1.6677  0.2732  1.1690
 3223SOL    MW412660   3.745   0.098   0.045 -0.0986  0.1751  0.6122
 3224SOL     OW12661   2.177   0.966   5.426  0.6734 -0.1513  0.6652
 3224SOL    HW212662   2.106   1.029   5.433  0.3075 -0.4810 -0.0482
 3224SOL    HW312663   2.151   0.895   5.485  0.5984 -0.0999  0.6945
 3224SOL    MW412664   2.164   0.965   5.435  0.6152 -0.1880  0.5750
 3225SOL     OW12665   2.163   1.231   3.389  0.3116  0.5289 -0.4199
 3225SOL    HW212666   2.189   1.169   3.457 -1.4235  0.8599  0.5887
 3225SOL    HW312667   2.207   1.199   3.310  0.2638 -1.3904  0.2744
 3225SOL    MW412668   2.172   1.219   3.387  0.0764  0.3193 -0.1952
 3226SOL     OW12669   6.098   4.862   5.472  0.7100 -0.1595  0.2655
 3226SOL    HW212670   6.134   4.779   5.504  1.1241 -0.3893 -0.7324
 3226SOL    HW312671   6.016   4.836   5.428  1.6945 -0.3110 -1.5590
 3226SOL    MW412672   6.092   4.847   5.470  0.8945 -0.2098 -0.1069
 3227SOL     OW12673  -0.007   3.396   4.653 -0.1133 -0.0680  0.0683
 3227SOL    HW212674  -0.025   3.487   4.633 -2.3050 -0.2795  0.8154
 3227SOL    HW312675   0.027   3.360   4.571 -1.2068  0.9566 -0.8843
 3227SOL    MW412676  -0.005   3.403   4.640 -0.5468  0.0393  0.0412
 3228SOL     OW12677   5.289   2.341   4.502  0.0370 -0.0194  0.4184
 3228SOL    HW212678   5.296   2.246   4.492 -1.0418 -0.0239 -0.5380
 3228SOL    HW312679   5.296   2.357   4.596 -0.3693 -1.0958  0.6391
 3228SOL    MW412680   5.291   2.331   4.513 -0.1589 -0.1620  0.3213
 3229SOL     OW12681   3.433   3.443   3.219 -0.0899 -0.0312  0.4609
 3229SOL    HW212682   3.492   3.421   3.148 -0.8283 -1.5481  0.2862
 3229SOL    HW312683   3.430   3.539   3.219  2.0045  0.0700  0.2179
 3229SOL    MW412684   3.440   3.453   3.210  0.0890 -0.2180  0.4058
 3230SOL     OW12685   5.523   2.210   0.396  0.7067 -0.2446  0.0810
 3230SOL    HW212686   5.603   2.193   0.346  1.1757  0.6088  0.5149
 3230SOL    HW312687   5.454   2.165   0.347  1.2439  0.1158 -1.0452
 3230SOL    MW412688   5.525   2.202   0.383  0.8395 -0.0844 -0.0103
 3231SOL     OW12689   4.362   3.198   4.540  0.0254 -0.5124  0.3934
 3231SOL    HW212690   4.437   3.229   4.489  0.2052  0.8067  1.4077
 3231SOL    HW312691   4.321   3.277   4.573 -0.3177 -1.3063  1.9647
 3231SOL    MW412692   4.367   3.212   4.537  0.0039 -0.4431  0.7345
 3232SOL     OW12693   1.552   5.971   5.035  0.1162  0.1760 -0.4508
 3232SOL    HW212694   1.620   5.990   4.971  0.4957  1.0047  0.1780
 3232SOL    HW312695   1.600   5.947   5.114 -0.3247  0.3495 -0.1251
 3232SOL    MW412696   1.567   5.970   5.037  0.1081  0.3083 -0.3249
 3233SOL     OW12697   5.616   0.647   1.160 -0.0431  0.6476 -0.4223
 3233SOL    HW212698   5.587   0.678   1.246 -2.1649 -0.5308 -0.6474
 3233SOL    HW312699   5.575   0.708   1.098 -0.6898 -0.0167 -0.6705
 3233SOL    MW412700   5.606   0.659   1.163 -0.4084  0.4045 -0.4848
 3234SOL     OW12701   1.530   3.006   0.033 -0.0384  0.2558 -0.1670
 3234SOL    HW212702   1.547   2.912   0.039 -1.4527 -0.0526 -0.7792
 3234SOL    HW312703   1.439   3.017   0.059 -0.5855  1.1538 -2.2163
 3234SOL    MW412704   1.521   2.995   0.037 -0.2972  0.3336 -0.5182
 3235SOL     OW12705   5.223   3.817   1.671  0.3453 -0.4797 -0.4402
 3235SOL    HW212706   5.259   3.786   1.588  0.3910  1.8254 -1.3525
 3235SOL    HW312707   5.285   3.786   1.737  0.6299 -1.8424 -1.3044
 3235SOL    MW412708   5.236   3.809   1.669  0.3888 -0.3554 -0.6746
 3236SOL     OW12709   5.662   3.658   5.803 -0.4016 -0.5603 -0.1130
 3236SOL    HW212710   5.570   3.674   5.778  0.4179  1.4745 -2.2373
 3236SOL    HW312711   5.704   3.631   5.722  1.5619  2.0898 -0.0947
 3236SOL    MW412712   5.655   3.657   5.789 -0.0344  0.0578 -0.3909
 3237SOL     OW12713   4.500   1.732   5.817  0.2574 -0.2619 -0.4031
 3237SOL    HW212714   4.585   1.694   5.794  1.2669  2.0065 -0.6377
 3237SOL    HW312715   4.451   1.733   5.735  1.1465  1.1167 -0.9582
 3237SOL    MW412716   4.505   1.727   5.804  0.5079  0.2193 -0.5073
 3238SOL     OW12717   0.878   2.566   1.530 -0.6637 -0.2602  0.2539
 3238SOL    HW212718   0.873   2.561   1.435  1.9029  3.8422 -0.3536
 3238SOL    HW312719   0.950   2.508   1.553  1.3723  1.6008 -0.9789
 3238SOL    MW412720   0.887   2.558   1.520 -0.0564  0.5266  0.0111
 3239SOL     OW12721   1.922   2.638   3.832  0.1158  0.0662  0.5030
 3239SOL    HW212722   1.898   2.555   3.873  0.9419  0.8147  2.6283
 3239SOL    HW312723   1.839   2.672   3.798 -1.0400  0.2128  3.1564
 3239SOL    MW412724   1.908   2.632   3.833  0.0723  0.1843  1.1334
 3240SOL     OW12725   2.273   2.776   0.330  0.3687 -0.2546 -0.6790
 3240SOL    HW212726   2.303   2.711   0.393 -2.5447 -0.2376  0.9078
 3240SOL    HW312727   2.290   2.860   0.373 -4.0447 -0.2490  1.6546
 3240SOL    MW412728   2.279   2.778   0.344 -0.5980 -0.2516 -0.1618
 3241SOL     OW12729   3.613   3.847   6.262  0.3460  0.0604  0.4260
 3241SOL    HW212730   3.580   3.845   6.172  0.2908  0.3649  0.4388
 3241SOL    HW312731   3.706   3.826   6.253  0.5753  1.1438  0.1806
 3241SOL    MW412732   3.621   3.844   6.249  0.3690  0.2435  0.3953
 3242SOL     OW12733   2.331   0.179   1.337  0.3535  0.6656 -0.3062
 3242SOL    HW212734   2.255   0.121   1.341  1.5416 -0.9027  0.3826
 3242SOL    HW312735   2.330   0.214   1.248 -0.3641 -0.4600 -0.7599
 3242SOL    MW412736   2.321   0.176   1.326  0.4156  0.3102 -0.2752
 3243SOL     OW12737   3.678   4.016   0.019  0.2281  0.3017 -0.5578
 3243SOL    HW212738   3.719   3.953   0.078 -2.1803 -1.9019 -1.0763
 3243SOL    HW312739   3.655   3.965  -0.058 -0.0139  2.3121 -1.8831
 3243SOL    MW412740   3.680   4.001   0.017 -0.1216  0.2762 -0.8011
 3244SOL     OW12741   6.264   1.283  -0.028 -1.2042  0.5834 -0.5655
 3244SOL    HW212742   6.347   1.263  -0.072 -1.0918  2.7331 -1.4314
 3244SOL    HW312743   6.199   1.230  -0.075 -0.5905  0.2339 -1.0505
 3244SOL    MW412744   6.267   1.273  -0.040 -1.1084  0.8209 -0.7437
 3245SOL     OW12745  -0.028   0.437   2.091 -0.3136  0.5221  0.4308
 3245SOL    HW212746   0.036   0.509   2.094  1.4189 -0.9065 -0.0696
 3245SOL    HW312747  -0.019   0.401   2.003  1.5750 -2.5461  1.6951
 3245SOL    MW412748  -0.018   0.442   2.080  0.1641 -0.0712  0.5316
 3246SOL     OW12749   3.238   0.306   0.887 -0.4918 -0.0778  0.4197
 3246SOL    HW212750   3.177   0.355   0.942  0.1556  1.6168 -0.3042
 3246SOL    HW312751   3.199   0.310   0.800  0.3068  0.4495  0.0776
 3246SOL    MW412752   3.225   0.313   0.883 -0.3011  0.2153  0.2790
 3247SOL     OW12753   2.617   2.024   6.211 -0.0570  0.2553  0.7101
 3247SOL    HW212754   2.675   2.096   6.187 -0.2167  0.2018  0.1526
 3247SOL    HW312755   2.543   2.066   6.255  0.2643  0.3481  1.1708
 3247SOL    MW412756   2.615   2.039   6.214 -0.0357  0.2605  0.6973
 3248SOL     OW12757   3.022   2.374   5.672 -0.3324 -0.2925  0.3067
 3248SOL    HW212758   3.079   2.357   5.597  1.2982  1.6427  1.0436
 3248SOL    HW312759   3.062   2.325   5.744 -0.4333 -0.0718  0.5124
 3248SOL    MW412760   3.035   2.365   5.671 -0.1306 -0.0080  0.4311
 3249SOL     OW12761   2.452   0.258   0.299  0.2070 -0.4803  0.4072
 3249SOL    HW212762   2.533   0.210   0.278 -0.6372 -1.9695  0.3915
 3249SOL    HW312763   2.398   0.248   0.221 -0.2011  0.0367  0.6247
 3249SOL    MW412764   2.456   0.250   0.286  0.0418 -0.6086  0.4338
 3250SOL     OW12765   2.229   1.015   4.869 -0.1534  0.3628  0.0219
 3250SOL    HW212766   2.235   1.025   4.964  0.3230  0.9472 -0.0571
 3250SOL    HW312767   2.165   0.946   4.855 -1.0155  0.9976  0.7452
 3250SOL    MW412768   2.221   1.007   4.879 -0.2043  0.5236  0.1069
 3251SOL     OW12769   3.876   5.839   3.359 -0.6843 -0.7685  0.3043
 3251SOL    HW212770   3.820   5.794   3.296  0.3460 -0.0573 -1.1805
 3251SOL    HW312771   3.826   5.917   3.385 -1.5887 -1.6381  1.2879
 3251SOL    MW412772   3.862   5.844   3.354 -0.6677 -0.7894  0.2382
 3252SOL     OW12773   5.803   6.370   2.673 -0.3931  0.4911 -0.2828
 3252SOL    HW212774   5.734   6.382   2.739 -1.2951 -0.5059 -1.0065
 3252SOL    HW312775   5.761   6.319   2.604  1.4453 -1.3896 -0.1251
 3252SOL    MW412776   5.788   6.364   2.673 -0.2695  0.1114 -0.3575
 3253SOL     OW12777   5.693   3.629   3.431  0.0889  0.0406 -0.7375
 3253SOL    HW212778   5.699   3.603   3.522  1.1692  1.1214 -0.4696
 3253SOL    HW312779   5.614   3.683   3.427  1.0059  1.4957 -0.0138
 3253SOL    MW412780   5.683   3.633   3.442  0.3524  0.3752 -0.6067
 3254SOL     OW12781   3.827   2.116   2.655  0.2277  0.0138  0.2221
 3254SOL    HW212782   3.733   2.108   2.638 -0.0046  1.4425  0.6857
 3254SOL    HW312783   3.834   2.123   2.751  0.7344  0.6624  0.1446
 3254SOL    MW412784   3.816   2.116   2.666  0.2639  0.2879  0.2730
 3255SOL     OW12785   4.590   4.998   1.444  0.2003 -0.0630 -0.4411
 3255SOL    HW212786   4.501   5.017   1.414  0.8776  1.4672 -1.5974
 3255SOL    HW312787   4.633   5.083   1.450  1.3748 -0.6988  0.8833
 3255SOL    MW412788   4.584   5.011   1.441  0.4446  0.0550 -0.4189
 3256SOL     OW12789   3.138   4.382   5.203  0.3766  0.0058 -0.0908
 3256SOL    HW212790   3.175   4.470   5.207 -0.7383  0.5492 -1.1399
 3256SOL    HW312791   3.147   4.355   5.112  0.8737 -1.0689  0.2515
 3256SOL    MW412792   3.144   4.390   5.192  0.2951 -0.0643 -0.1841
 3257SOL     OW12793   4.860   2.794   5.367 -0.1525 -0.0794  0.7528
 3257SOL    HW212794   4.839   2.729   5.301  0.7276 -0.6612  1.0251
 3257SOL    HW312795   4.824   2.759   5.449  0.2000 -0.1603  0.8756
 3257SOL    MW412796   4.853   2.781   5.369  0.0102 -0.1669  0.8049
 3258SOL     OW12797   3.072   3.030   1.338  0.2871  0.0366  0.4821
 3258SOL    HW212798   3.066   3.114   1.384 -1.6537  0.2765 -0.1515
 3258SOL    HW312799   3.120   3.050   1.258  0.8962  0.2657  0.8908
 3258SOL    MW412800   3.078   3.044   1.334  0.1114  0.0985  0.4524
 3259SOL     OW12801   3.732   1.125   6.069 -0.0578 -0.1966 -0.1629
 3259SOL    HW212802   3.698   1.207   6.104  2.0749  0.3737  0.6976
 3259SOL    HW312803   3.764   1.077   6.145  2.6176  0.0954 -1.0140
 3259SOL    MW412804   3.732   1.129   6.083  0.5766 -0.0828 -0.1617
 3260SOL     OW12805   5.104   2.182   5.332 -0.1121  0.2967 -0.1399
 3260SOL    HW212806   5.025   2.144   5.370 -0.7452  0.5831 -1.1252
 3260SOL    HW312807   5.097   2.275   5.349  1.3289  0.0641  2.0699
 3260SOL    MW412808   5.093   2.189   5.339 -0.0055  0.3038  0.0216
 3261SOL     OW12809   3.093   3.625   3.197 -0.0941 -0.2541  0.2694
 3261SOL    HW212810   3.012   3.583   3.168 -0.3334  0.9204 -0.8382
 3261SOL    HW312811   3.129   3.665   3.118  0.6712  0.7273  1.0889
 3261SOL    MW412812   3.087   3.625   3.182 -0.0247  0.0304  0.2314
 3262SOL     OW12813   1.970   0.584   4.966 -0.2176  0.1385 -0.3089
 3262SOL    HW212814   1.884   0.587   4.923  0.2388  0.3915 -1.2211
 3262SOL    HW312815   1.978   0.493   4.997 -0.3487 -0.1819 -1.1938
 3262SOL    MW412816   1.959   0.572   4.965 -0.1747  0.1296 -0.5460
 3263SOL     OW12817   5.864   0.837   0.265 -0.0788  0.3393  0.1429
 3263SOL    HW212818   5.822   0.842   0.350 -1.3898  0.7304 -0.5074
 3263SOL    HW312819   5.915   0.756   0.268 -1.3671 -0.4755  0.7482
 3263SOL    MW412820   5.866   0.827   0.277 -0.4218  0.2834  0.1369
 3264SOL     OW12821   3.633   4.526   0.759  0.4476 -0.0785  0.0550
 3264SOL    HW212822   3.672   4.599   0.808  0.9017 -0.7802  0.7630
 3264SOL    HW312823   3.616   4.459   0.826 -0.7667 -0.3031 -0.4457
 3264SOL    MW412824   3.636   4.527   0.775  0.3473 -0.2007  0.0823
 3265SOL     OW12825   4.474   5.590   4.357  0.3689  0.1127 -0.3190
 3265SOL    HW212826   4.448   5.498   4.361 -0.0656  0.1987 -1.0405
 3265SOL    HW312827   4.464   5.622   4.447 -0.7820 -0.1924 -0.3313
 3265SOL    MW412828   4.470   5.582   4.369  0.1597  0.0838 -0.4158
 3266SOL     OW12829   2.489   0.820   3.211 -0.2393 -0.0546 -0.2557
 3266SOL    HW212830   2.583   0.809   3.196  0.1074  1.2928  0.7293
 3266SOL    HW312831   2.453   0.732   3.201  1.1706 -0.6541 -0.3373
 3266SOL    MW412832   2.497   0.807   3.207 -0.0075  0.0441 -0.1365
 3267SOL     OW12833   5.186   1.513   3.400  0.2010 -0.2479 -0.3308
 3267SOL    HW212834   5.218   1.507   3.310 -0.1303 -0.2129 -0.4546
 3267SOL    HW312835   5.173   1.422   3.427 -0.8138 -0.2423 -0.7341
 3267SOL    MW412836   5.188   1.501   3.392  0.0234 -0.2425 -0.4003
 3268SOL     OW12837   4.296   0.452   4.552  0.4080 -0.4615 -0.0214
 3268SOL    HW212838   4.257   0.365   4.549 -2.6032  0.8026 -0.4980
 3268SOL    HW312839   4.251   0.497   4.624  1.1627  1.0402 -0.4405
 3268SOL    MW412840   4.285   0.446   4.561  0.1103 -0.0966 -0.1396
 3269SOL     OW12841   0.652   1.710   0.185 -0.4469  0.1197  0.7047
 3269SOL    HW212842   0.623   1.751   0.267 -1.0837  2.1675 -0.4577
 3269SOL    HW312843   0.597   1.751   0.118  1.4026 -0.0283 -0.9716
 3269SOL    MW412844   0.641   1.721   0.187 -0.2869  0.3703  0.3302
 3270SOL     OW12845   3.469   3.591   5.230  0.1648 -0.0194  0.2443
 3270SOL    HW212846   3.494   3.596   5.138 -2.4192  4.1539 -0.4708
 3270SOL    HW312847   3.386   3.543   5.230 -0.0443  0.3370  0.3185
 3270SOL    MW412848   3.461   3.585   5.218 -0.2037  0.5782  0.1598
 3271SOL     OW12849   3.407   0.044   6.064  0.0509 -0.7460 -0.3176
 3271SOL    HW212850   3.419   0.026   5.970 -2.2077 -1.1940 -0.5684
 3271SOL    HW312851   3.490   0.083   6.091  0.9460 -1.0575 -2.3840
 3271SOL    MW412852   3.420   0.047   6.055 -0.1290 -0.8462 -0.6233
 3272SOL     OW12853   0.688   1.863   3.149  0.4320  0.1949  0.4490
 3272SOL    HW212854   0.634   1.908   3.085  2.1131  1.1807 -0.3574
 3272SOL    HW312855   0.773   1.852   3.105  0.5954 -2.2657  1.2550
 3272SOL    MW412856   0.692   1.868   3.135  0.6754  0.0003  0.4490
 3273SOL     OW12857   2.568   3.096   1.709 -0.0657  0.0019  0.3246
 3273SOL    HW212858   2.574   3.192   1.704  2.2854 -0.1039 -0.1515
 3273SOL    HW312859   2.577   3.077   1.803  1.2753  0.2148  0.2652
 3273SOL    MW412860   2.570   3.106   1.721  0.4214  0.0160  0.2539
 3274SOL     OW12861   4.169   0.820   5.222  0.5782 -0.3716 -0.5225
 3274SOL    HW212862   4.121   0.739   5.207  1.7007 -1.0686 -0.4556
 3274SOL    HW312863   4.131   0.856   5.302 -2.8072  1.3839 -2.6812
 3274SOL    MW412864   4.158   0.814   5.231  0.2796 -0.2320 -0.7985
 3275SOL     OW12865   0.779   1.983   0.777 -0.1238  0.3640 -0.0068
 3275SOL    HW212866   0.870   2.009   0.789  0.3655 -0.8925 -0.8549
 3275SOL    HW312867   0.738   2.058   0.733  0.5880  0.7927  0.0541
 3275SOL    MW412868   0.786   1.997   0.773  0.0347  0.2548 -0.1107
 3276SOL     OW12869   5.713   5.530   0.396 -0.7726  0.3101  0.0858
 3276SOL    HW212870   5.725   5.436   0.412 -0.9358  0.0206 -1.3462
 3276SOL    HW312871   5.702   5.568   0.483 -2.7688 -1.2716  0.5967
 3276SOL    MW412872   5.713   5.522   0.409 -1.0575  0.0632 -0.0357
 3277SOL     OW12873   1.905   2.492   5.569  0.0717 -0.6823  0.9306
 3277SOL    HW212874   1.893   2.410   5.522 -0.8814 -0.3955  0.6596
 3277SOL    HW312875   1.999   2.509   5.563 -0.0244 -0.6563 -0.8602
 3277SOL    MW412876   1.916   2.483   5.562 -0.0668 -0.6410  0.6586
 3278SOL     OW12877   1.273   6.119   3.154 -0.5703 -0.5986  0.4395
 3278SOL    HW212878   1.291   6.208   3.124 -0.0272 -0.5422  0.9066
 3278SOL    HW312879   1.187   6.097   3.117 -0.6952  0.1075  0.3077
 3278SOL    MW412880   1.264   6.128   3.145 -0.5151 -0.4980  0.4837
 3279SOL     OW12881   5.537   6.003   3.145 -0.3755 -0.1367  0.0176
 3279SOL    HW212882   5.536   6.078   3.086 -0.7314 -1.0769 -1.2186
 3279SOL    HW312883   5.606   6.023   3.208 -0.6170  1.3114 -0.1499
 3279SOL    MW412884   5.546   6.016   3.146 -0.4543 -0.0697 -0.1676
 3280SOL     OW12885   1.274   6.078   1.567 -0.1067  0.2021 -0.1766
 3280SOL    HW212886   1.298   6.146   1.504  0.5074  0.2115  0.0652
 3280SOL    HW312887   1.343   6.013   1.560  0.3313  0.5279  0.9755
 3280SOL    MW412888   1.286   6.079   1.558  0.0321  0.2464  0.0073
 3281SOL     OW12889   2.131   2.408   5.286  0.0582 -0.3559 -0.2684
 3281SOL    HW212890   2.060   2.348   5.308  0.3569 -0.6688 -0.1394
 3281SOL    HW312891   2.148   2.456   5.367 -1.5972  1.4260 -0.9161
 3281SOL    MW412892   2.124   2.406   5.300 -0.1208 -0.1621 -0.3368
 3282SOL     OW12893   3.128   0.878   2.654  0.1061 -0.3699 -0.1182
 3282SOL    HW212894   3.101   0.902   2.742  0.5585  1.9084 -0.5306
 3282SOL    HW312895   3.049   0.886   2.601  0.1113 -0.4685 -0.1417
 3282SOL    MW412896   3.114   0.882   2.658  0.1665 -0.0824 -0.1757
 3283SOL     OW12897   2.419   6.086   3.951 -0.4338 -0.1695  0.3568
 3283SOL    HW212898   2.392   6.007   3.997 -0.8359 -0.3744 -0.2204
 3283SOL    HW312899   2.347   6.148   3.966  0.1751  0.3261  1.3623
 3283SOL    MW412900   2.406   6.084   3.959 -0.4065 -0.1311  0.4133
 3284SOL     OW12901   2.966   3.062   2.712  0.2019 -0.4588  0.1928
 3284SOL    HW212902   3.048   3.013   2.707 -0.9462 -2.4730  0.2236
 3284SOL    HW312903   2.921   3.042   2.629 -0.0479  1.0813 -0.0826
 3284SOL    MW412904   2.971   3.053   2.700  0.0174 -0.5214  0.1605
 3285SOL     OW12905   4.488   6.403   3.379 -0.4760  0.0523  0.7969
 3285SOL    HW212906   4.438   6.481   3.403 -2.1066 -0.7695  0.1979
 3285SOL    HW312907   4.429   6.352   3.324  1.7519  0.0526 -1.8087
 3285SOL    MW412908   4.474   6.407   3.375 -0.3972 -0.0561  0.3741
 3286SOL     OW12909   5.711   6.249   4.502  0.0122 -0.3990 -0.1540
 3286SOL    HW212910   5.724   6.263   4.595  0.1707 -0.9179 -0.0992
 3286SOL    HW312911   5.629   6.295   4.482 -0.2192 -0.6130  0.3128
 3286SOL    MW412912   5.702   6.257   4.512  0.0026 -0.4957 -0.0852
 3287SOL     OW12913   6.263   5.169   5.038 -0.1676  0.7920  0.6135
 3287SOL    HW212914   6.268   5.097   4.975 -1.4361  0.4595  0.8590
 3287SOL    HW312915   6.283   5.129   5.123  1.5344  1.2377  0.4493
 3287SOL    MW412916   6.266   5.154   5.041 -0.1104  0.8069  0.6242
 3288SOL     OW12917   0.958   6.148   1.987  0.2055 -0.4020  0.3929
 3288SOL    HW212918   0.953   6.235   2.027  0.4899  0.6082 -1.6012
 3288SOL    HW312919   0.976   6.166   1.894 -1.8651 -2.5192 -0.5082
 3288SOL    MW412920   0.960   6.162   1.980 -0.0302 -0.5481  0.0109
 3289SOL     OW12921   0.583   3.696   0.167 -0.4317  0.3343  0.1380
 3289SOL    HW212922   0.601   3.783   0.204  0.1636  0.6522 -0.8614
 3289SOL    HW312923   0.550   3.714   0.079  0.6800 -0.4848 -0.4653
 3289SOL    MW412924   0.581   3.710   0.160 -0.2065  0.2682 -0.0735
 3290SOL     OW12925   2.882   0.420   4.240  0.4328  0.7639 -0.0304
 3290SOL    HW212926   2.870   0.474   4.162  0.5692  0.2841 -0.3913
 3290SOL    HW312927   2.976   0.400   4.241  0.3399  0.3236 -0.0427
 3290SOL    MW412928   2.893   0.425   4.230  0.4386  0.6425 -0.0796
 3291SOL     OW12929   1.593   0.023   5.132  0.8366 -0.9206 -0.2757
 3291SOL    HW212930   1.516  -0.018   5.171  0.7302 -0.6404 -0.1825
 3291SOL    HW312931   1.638   0.064   5.206  0.0424  0.5677 -0.5634
 3291SOL    MW412932   1.589   0.023   5.147  0.7178 -0.6873 -0.3013
 3292SOL     OW12933   5.277   0.223   2.294  0.1858 -0.2050  0.1361
 3292SOL    HW212934   5.263   0.153   2.231 -0.0122  1.6282 -2.0091
 3292SOL    HW312935   5.277   0.303   2.241 -3.0770  1.7984  2.7824
 3292SOL    MW412936   5.276   0.225   2.278 -0.2708  0.3012  0.2022
 3293SOL     OW12937   5.131   3.024   6.358  0.3286  0.0812 -0.2479
 3293SOL    HW212938   5.159   3.028   6.266  3.4427 -0.1767  0.5804
 3293SOL    HW312939   5.115   2.931   6.374 -0.0230  0.1045 -0.4296
 3293SOL    MW412940   5.132   3.013   6.348  0.6931  0.0503 -0.1626
 3294SOL     OW12941   5.278   1.812   5.947  0.1183 -0.1442 -0.2966
 3294SOL    HW212942   5.301   1.890   5.997 -0.7555  1.4127 -2.1884
 3294SOL    HW312943   5.305   1.738   6.003  2.3151  1.4800  0.9266
 3294SOL    MW412944   5.284   1.812   5.961  0.2929  0.2755 -0.3848
 3295SOL     OW12945   5.963   1.425   0.826  0.2375 -0.3746  0.5046
 3295SOL    HW212946   5.978   1.384   0.741  0.6900 -1.1439  0.9379
 3295SOL    HW312947   5.953   1.518   0.807  0.6007 -0.5059 -0.3638
 3295SOL    MW412948   5.964   1.432   0.813  0.3452 -0.4934  0.4472
 3296SOL     OW12949   4.463   4.385   1.335 -0.1159 -0.1714  0.3079
 3296SOL    HW212950   4.520   4.323   1.381 -0.2714 -0.4523  0.1252
 3296SOL    HW312951   4.390   4.331   1.305 -0.2785  0.1139  0.1958
 3296SOL    MW412952   4.461   4.370   1.337 -0.1579 -0.1708  0.2690
 3297SOL     OW12953   0.369   5.803   1.735  0.4388  0.5159  0.5525
 3297SOL    HW212954   0.374   5.770   1.645 -0.4716  1.0662  0.2917
 3297SOL    HW312955   0.418   5.885   1.733  1.3558 -0.0075  0.8313
 3297SOL    MW412956   0.376   5.809   1.723  0.4397  0.5195  0.5549
 3298SOL     OW12957   3.186   0.846   0.593 -0.0843 -0.5547 -0.1935
 3298SOL    HW212958   3.174   0.755   0.565  3.4467 -0.9981 -0.7372
 3298SOL    HW312959   3.189   0.840   0.689  1.0601 -1.2106 -0.2508
 3298SOL    MW412960   3.185   0.833   0.602  0.5326 -0.6997 -0.2728
 3299SOL     OW12961   1.545   2.482   0.906 -0.0687 -0.3688  0.5296
 3299SOL    HW212962   1.528   2.576   0.901 -1.9076 -0.7220 -0.6479
 3299SOL    HW312963   1.639   2.473   0.890 -0.2333  1.1182 -1.5221
 3299SOL    MW412964   1.556   2.493   0.903 -0.3331 -0.2192  0.1035
 3300SOL     OW12965   0.448   0.956   4.820 -0.2101  0.4137  0.4054
 3300SOL    HW212966   0.498   1.014   4.762  0.3099 -0.0637  0.3759
 3300SOL    HW312967   0.370   1.007   4.842 -0.3396  0.6700 -0.5807
 3300SOL    MW412968   0.444   0.971   4.815 -0.1586  0.3845  0.2714
 3301SOL     OW12969   4.782   2.171   3.445  0.2063 -0.6769 -0.5458
 3301SOL    HW212970   4.735   2.155   3.526 -0.5817 -0.6516 -0.9885
 3301SOL    HW312971   4.858   2.113   3.449  0.5355 -0.1926  0.5029
 3301SOL    MW412972   4.786   2.161   3.456  0.1457 -0.6097 -0.4658
 3302SOL     OW12973   5.418   3.855   5.074  0.2756 -0.4493  0.1210
 3302SOL    HW212974   5.388   3.923   5.134  0.2424 -0.3834  0.0288
 3302SOL    HW312975   5.337   3.810   5.047  0.3311 -0.7945  0.5083
 3302SOL    MW412976   5.403   3.858   5.078  0.2786 -0.4862  0.1600
 3303SOL     OW12977   5.696   5.268   0.449 -0.4244 -0.8937 -0.3037
 3303SOL    HW212978   5.779   5.224   0.469  1.2655  1.0826 -2.4227
 3303SOL    HW312979   5.663   5.224   0.371 -0.4985 -0.6119 -0.4336
 3303SOL    MW412980   5.702   5.257   0.442 -0.2112 -0.5957 -0.6004
 3304SOL     OW12981   1.475   0.097   3.251  0.2731  0.0811  0.1358
 3304SOL    HW212982   1.442   0.178   3.213  0.5611 -0.8013 -2.1624
 3304SOL    HW312983   1.565   0.090   3.217  0.8439 -0.3885  1.6673
 3304SOL    MW412984   1.483   0.107   3.242  0.3864 -0.0973  0.0346
 3305SOL     OW12985   5.051   0.828   1.559 -0.2934 -0.1478 -0.1458
 3305SOL    HW212986   5.025   0.899   1.618  0.6815 -0.0968  0.2411
 3305SOL    HW312987   4.973   0.773   1.552 -0.5733  0.1063  0.8147
 3305SOL    MW412988   5.038   0.830   1.566 -0.2017 -0.1075  0.0320
 3306SOL     OW12989   5.264   4.216   3.903 -0.5798  0.2755  0.1139
 3306SOL    HW212990   5.345   4.175   3.874 -0.7301  1.2768 -1.9411
 3306SOL    HW312991   5.283   4.249   3.991  0.5947 -1.1585  0.4265
 3306SOL    MW412992   5.277   4.215   3.911 -0.4447  0.2184 -0.1160
 3307SOL     OW12993   5.188   2.551   3.794 -0.0474  0.0841  0.3009
 3307SOL    HW212994   5.261   2.607   3.822  0.6351 -1.3239  1.4784
 3307SOL    HW312995   5.231   2.478   3.748 -0.7823 -0.3273  0.2568
 3307SOL    MW412996   5.203   2.548   3.792 -0.0543 -0.1559  0.4505
 3308SOL     OW12997   1.639   0.877   2.095  0.2782 -0.3094  0.1647
 3308SOL    HW212998   1.633   0.781   2.089  0.6941 -0.2774 -1.0190
 3308SOL    HW312999   1.691   0.902   2.018 -0.9427  0.9756 -0.2651
 3308SOL    MW413000   1.645   0.867   2.084  0.1720 -0.1357 -0.0482
 3309SOL     OW13001   2.129   1.307   0.685  0.3312  0.0998 -0.2538
 3309SOL    HW213002   2.134   1.402   0.694  1.0261  0.1983 -1.4389
 3309SOL    HW313003   2.041   1.284   0.716 -0.2955  1.2757 -1.1173
 3309SOL    MW413004   2.118   1.316   0.690  0.3402  0.2679 -0.5241
 3310SOL     OW13005   0.319   6.313   4.239 -0.5607 -0.1255 -0.1906
 3310SOL    HW213006   0.366   6.396   4.231  0.1738 -0.2510  2.0977
 3310SOL    HW313007   0.226   6.338   4.231 -0.3294  0.8489  0.0142
 3310SOL    MW413008   0.313   6.327   4.237 -0.4333 -0.0135  0.1383
 3311SOL     OW13009   1.611   0.406   5.418  0.5846  0.4104 -0.1964
 3311SOL    HW213010   1.544   0.464   5.383  0.1615 -0.1630 -0.3442
 3311SOL    HW313011   1.692   0.433   5.373  0.3920  0.8826 -0.2610
 3311SOL    MW413012   1.613   0.417   5.407  0.5034  0.3971 -0.2244
 3312SOL     OW13013   6.001   2.518   0.173  0.1419  0.2997 -0.7319
 3312SOL    HW213014   6.058   2.582   0.215  0.4986 -0.4991  0.0226
 3312SOL    HW313015   5.976   2.560   0.090  1.6714  0.7435 -1.0053
 3312SOL    MW413016   6.005   2.532   0.168  0.3908  0.2529 -0.6684
 3313SOL     OW13017   6.224   2.406   3.738 -0.2783  0.2861  0.1087
 3313SOL    HW213018   6.251   2.332   3.791  1.3341  1.2511  0.6992
 3313SOL    HW313019   6.252   2.483   3.788 -0.3656  1.2545 -1.2726
 3313SOL    MW413020   6.231   2.407   3.751 -0.0771  0.5412  0.0044
 3314SOL     OW13021   4.106   5.586   0.147  0.3456 -0.2161  0.1179
 3314SOL    HW213022   4.097   5.533   0.068 -0.0213 -0.4132  0.2868
 3314SOL    HW313023   4.176   5.648   0.127  2.1996 -2.0252  0.6039
 3314SOL    MW413024   4.114   5.587   0.134  0.5418 -0.4808  0.2043
 3315SOL     OW13025  -0.041   5.716   1.973  0.4161 -0.1518 -0.4272
 3315SOL    HW213026  -0.134   5.712   1.951  0.5992  0.8552 -1.4683
 3315SOL    HW313027  -0.029   5.650   2.041 -1.4169  0.9035  1.0088
 3315SOL    MW413028  -0.051   5.707   1.979  0.1984  0.1203 -0.3751
 3316SOL     OW13029   2.361   3.928   3.468  0.5170 -0.3060 -0.2156
 3316SOL    HW213030   2.278   3.887   3.444  0.4648 -0.1225 -0.3434
 3316SOL    HW313031   2.404   3.945   3.385  1.1110 -1.2915 -0.1257
 3316SOL    MW413032   2.356   3.925   3.454  0.5885 -0.4119 -0.2206
 3317SOL     OW13033   0.429   4.134   6.042  1.0601  0.0353 -0.4643
 3317SOL    HW213034   0.451   4.221   6.076  1.4231 -0.5487  0.8661
 3317SOL    HW313035   0.514   4.094   6.021  0.9166 -0.1121 -0.7671
 3317SOL    MW413036   0.443   4.140   6.044  1.0890 -0.0612 -0.3287
 3318SOL     OW13037   5.987   0.591   2.655  0.1849  0.6718  0.0131
 3318SOL    HW213038   6.060   0.533   2.676 -0.7959  0.2179  2.3724
 3318SOL    HW313039   5.918   0.534   2.622  0.0698  0.7979  0.0313
 3318SOL    MW413040   5.988   0.576   2.653  0.0403  0.6286  0.3268
 3319SOL     OW13041   6.176   3.335   1.659  0.3552  0.7767 -0.0900
 3319SOL    HW213042   6.259   3.383   1.655 -0.3925  2.0999 -0.3459
 3319SOL    HW313043   6.120   3.388   1.717 -0.1249 -0.4089  0.5638
 3319SOL    MW413044   6.179   3.348   1.666  0.1932  0.7948 -0.0375
 3320SOL     OW13045   4.813   1.513   4.848 -0.6528  0.4568  0.7927
 3320SOL    HW213046   4.871   1.573   4.800  0.6567 -0.6873  0.8879
 3320SOL    HW313047   4.730   1.518   4.801 -0.9020  3.0284  1.3410
 3320SOL    MW413048   4.810   1.522   4.836 -0.5129  0.6451  0.8776
 3321SOL     OW13049   2.368   5.648   4.483  0.4982  0.2801 -0.1792
 3321SOL    HW213050   2.346   5.556   4.495 -0.3877  0.3395 -1.2858
 3321SOL    HW313051   2.401   5.676   4.569  3.2099 -1.6943 -0.4439
 3321SOL    MW413052   2.370   5.640   4.496  0.7391  0.0275 -0.3601
 3322SOL     OW13053   0.954   4.947   1.169 -0.4428 -0.1275  0.9483
 3322SOL    HW213054   0.944   4.855   1.190  2.9809 -0.9929 -0.4980
 3322SOL    HW313055   1.041   4.970   1.201  0.1141  1.6521 -1.4876
 3322SOL    MW413056   0.964   4.938   1.176  0.0824 -0.0069  0.4361
 3323SOL     OW13057   3.766   3.422   5.954  0.0160 -0.5417 -0.3790
 3323SOL    HW213058   3.838   3.480   5.929  0.8663 -0.2611  2.3383
 3323SOL    HW313059   3.808   3.337   5.968  0.0773 -0.1702  2.0841
 3323SOL    MW413060   3.781   3.418   5.953  0.1363 -0.4556  0.3045
 3324SOL     OW13061   1.341   3.373   1.370 -1.1848 -0.1504  0.0892
 3324SOL    HW213062   1.286   3.397   1.445 -0.1904  2.2954  0.1332
 3324SOL    HW313063   1.375   3.287   1.393 -1.5864  0.1605  2.0809
 3324SOL    MW413064   1.339   3.365   1.383 -1.1066  0.2133  0.3578
 3325SOL     OW13065   1.822   5.949   0.785 -0.9618 -0.1364  0.5889
 3325SOL    HW213066   1.881   5.951   0.861  2.5510  0.4963 -1.8778
 3325SOL    HW313067   1.787   5.860   0.785  1.1387 -1.0314  1.4739
 3325SOL    MW413068   1.825   5.937   0.795 -0.2212 -0.1710  0.3802
 3326SOL     OW13069   5.523   1.212   0.244 -0.2316 -0.1172 -0.0167
 3326SOL    HW213070   5.475   1.185   0.166 -1.4050  0.4328  0.4872
 3326SOL    HW313071   5.481   1.294   0.271 -0.0439 -0.4422  1.3453
 3326SOL    MW413072   5.511   1.219   0.238 -0.3616 -0.0875  0.2295
 3327SOL     OW13073   2.822   0.586   4.027  0.2325  0.7925 -0.0588
 3327SOL    HW213074   2.800   0.533   3.950  0.7078  1.4017 -0.6231
 3327SOL    HW313075   2.860   0.666   3.991  1.3859  0.6713  0.8185
 3327SOL    MW413076   2.824   0.589   4.012  0.4474  0.8569 -0.0175
 3328SOL     OW13077   0.600   0.522   0.966 -0.1171  0.2239  0.3415
 3328SOL    HW213078   0.655   0.471   0.906  0.4257  1.7288 -0.4938
 3328SOL    HW313079   0.565   0.592   0.912 -2.3496 -0.2806  1.0306
 3328SOL    MW413080   0.603   0.524   0.951 -0.3400  0.3559  0.3222
 3329SOL     OW13081   3.950   5.649   3.547 -0.0564 -0.0212 -0.0489
 3329SOL    HW213082   3.873   5.645   3.603  0.3839  0.2948  0.5860
 3329SOL    HW313083   3.931   5.718   3.484 -0.2539  0.1069  0.1540
 3329SOL    MW413084   3.937   5.657   3.546 -0.0243  0.0374  0.0616
 3330SOL     OW13085   3.318   0.445   4.640 -0.7888 -0.2385  0.2226
 3330SOL    HW213086   3.363   0.482   4.716 -0.0945 -0.9136  0.1488
 3330SOL    HW313087   3.369   0.476   4.565 -1.6478  0.6771 -0.0051
 3330SOL    MW413088   3.331   0.454   4.641 -0.8106 -0.2068  0.1828
 3331SOL     OW13089   0.563   5.381   2.898  0.0965  0.1300  0.0935
 3331SOL    HW213090   0.601   5.409   2.981 -0.9189 -0.6036  0.8278
 3331SOL    HW313091   0.593   5.292   2.886  4.3586  1.6561 -2.8664
 3331SOL    MW413092   0.572   5.373   2.907  0.5249  0.2346 -0.2002
 3332SOL     OW13093   1.424   2.586   0.526 -0.1024  0.1934  0.4757
 3332SOL    HW213094   1.405   2.599   0.434 -0.8049  1.0695  0.7353
 3332SOL    HW313095   1.508   2.629   0.539  2.2027 -3.4683 -0.6135
 3332SOL    MW413096   1.433   2.593   0.516  0.1090 -0.1741  0.3662
 3333SOL     OW13097   3.293   3.147   1.197  0.8506  0.0078 -0.1307
 3333SOL    HW213098   3.368   3.191   1.158 -1.5023  3.0077 -1.7743
 3333SOL    HW313099   3.242   3.114   1.123 -1.7762  2.3996  0.4041
 3333SOL    MW413100   3.296   3.149   1.182  0.1936  0.7192 -0.2770
 3334SOL     OW13101   4.339   3.264   5.543  0.4833  0.1901  0.0029
 3334SOL    HW213102   4.284   3.320   5.597  1.0244  0.0509  0.7075
 3334SOL    HW313103   4.386   3.208   5.605  0.6221 -0.4294 -0.6409
 3334SOL    MW413104   4.338   3.264   5.558  0.5730  0.0900  0.0109
 3335SOL     OW13105   1.991   4.056   4.110 -0.5163 -0.1498  0.0317
 3335SOL    HW213106   1.944   4.002   4.047 -1.1255 -0.6180  0.8799
 3335SOL    HW313107   2.075   4.075   4.066 -2.3436  2.8786 -2.6435
 3335SOL    MW413108   1.996   4.051   4.096 -0.8377  0.1880 -0.2093
 3336SOL     OW13109   0.110   1.403   1.043  0.3763 -0.0682 -0.1392
 3336SOL    HW213110   0.135   1.456   1.119 -1.6389 -0.9517  1.2350
 3336SOL    HW313111   0.153   1.318   1.057  1.4357  0.3043 -0.9567
 3336SOL    MW413112   0.119   1.398   1.055  0.2502 -0.1356 -0.0657
 3337SOL     OW13113   2.083   3.449   1.076 -0.2763 -0.1963 -0.2808
 3337SOL    HW213114   2.042   3.365   1.058 -0.4210 -0.4284  1.0161
 3337SOL    HW313115   2.043   3.510   1.015  0.7630 -1.2932 -2.1322
 3337SOL    MW413116   2.073   3.446   1.066 -0.1583 -0.3717 -0.3540
 3338SOL     OW13117   0.635   5.794   3.995  0.0985  0.0119 -0.2050
 3338SOL    HW213118   0.674   5.844   3.923  0.8744 -1.1357 -0.6058
 3338SOL    HW313119   0.621   5.859   4.063 -2.0880  1.4536 -1.8953
 3338SOL    MW413120   0.639   5.809   3.994 -0.0876  0.0507 -0.4809
 3339SOL     OW13121   3.661   4.256   5.505  0.2686  0.1974 -0.6280
 3339SOL    HW213122   3.679   4.167   5.538 -0.8809  0.5809  1.1835
 3339SOL    HW313123   3.747   4.295   5.492  0.8165 -1.3858 -2.1470
 3339SOL    MW413124   3.674   4.249   5.507  0.1892  0.0391 -0.5894
 3340SOL     OW13125   1.123   2.859   3.437 -0.0642  0.2896 -0.5157
 3340SOL    HW213126   1.193   2.795   3.445  1.2370  1.7174  0.0247
 3340SOL    HW313127   1.100   2.859   3.344  0.5195 -0.3449 -0.6607
 3340SOL    MW413128   1.129   2.851   3.426  0.1845  0.3943 -0.4635
 3341SOL     OW13129   3.547   2.451   2.585 -0.1840  0.4193  0.7298
 3341SOL    HW213130   3.571   2.543   2.576  1.7392  0.0488  1.7388
 3341SOL    HW313131   3.521   2.425   2.496  0.3656  1.6235  0.1914
 3341SOL    MW413132   3.547   2.460   2.572  0.1423  0.5293  0.7919
 3342SOL     OW13133   3.746   5.958   5.802  1.0912  0.4702  0.5595
 3342SOL    HW213134   3.661   5.934   5.838  1.0874 -1.9793 -0.8758
 3342SOL    HW313135   3.791   6.002   5.874 -0.8567  0.5897  1.7787
 3342SOL    MW413136   3.741   5.961   5.816  0.8337  0.1628  0.5310
 3343SOL     OW13137   0.336   0.434   3.758 -0.4478  0.1955  0.6468
 3343SOL    HW213138   0.268   0.480   3.708  0.4371  0.1672 -0.6170
 3343SOL    HW313139   0.309   0.342   3.756 -0.9896  0.3310  1.1922
 3343SOL    MW413140   0.323   0.428   3.751 -0.4025  0.2096  0.5520
 3344SOL     OW13141   4.366   2.457   4.541 -0.2964 -0.2497 -0.1427
 3344SOL    HW213142   4.345   2.528   4.480 -0.7072  0.1789  0.4850
 3344SOL    HW313143   4.430   2.403   4.494 -0.2236  0.3550 -0.7516
 3344SOL    MW413144   4.371   2.459   4.527 -0.3410 -0.1134 -0.1402
 3345SOL     OW13145   3.416   4.974   1.948  0.6515  0.0840  0.2038
 3345SOL    HW213146   3.418   4.996   1.855 -0.0295 -2.6959 -0.5713
 3345SOL    HW313147   3.353   4.902   1.954  2.6606 -1.6746  2.3653
 3345SOL    MW413148   3.408   4.967   1.937  0.8267 -0.5148  0.3867
 3346SOL     OW13149   4.987   2.915   3.807  0.4261 -0.3880 -0.7356
 3346SOL    HW213150   4.917   2.851   3.819  0.4427 -0.1937  0.5014
 3346SOL    HW313151   5.064   2.863   3.783  0.3717 -0.8090 -0.0169
 3346SOL    MW413152   4.988   2.900   3.806  0.4211 -0.4179 -0.4776
 3347SOL     OW13153   5.156   4.631   0.253 -0.5636  0.9309  0.3828
 3347SOL    HW213154   5.098   4.707   0.262 -2.1867 -0.2724  0.6074
 3347SOL    HW313155   5.102   4.556   0.281  0.3380 -0.5580 -1.5713
 3347SOL    MW413156   5.141   4.631   0.258 -0.6588  0.5757  0.1546
 3348SOL     OW13157   4.139   3.282   4.912  0.1191 -0.6473 -0.7179
 3348SOL    HW213158   4.111   3.358   4.962  0.2191 -0.2183 -1.3110
 3348SOL    HW313159   4.188   3.229   4.975  1.1863  0.4160 -0.6228
 3348SOL    MW413160   4.142   3.285   4.927  0.2731 -0.4504 -0.7836
 3349SOL     OW13161   2.457   0.196   5.844  0.1698  0.2961 -0.3362
 3349SOL    HW213162   2.402   0.245   5.906  0.5834  0.2404  0.0782
 3349SOL    HW313163   2.395   0.143   5.794 -0.1844  0.4657 -0.0822
 3349SOL    MW413164   2.442   0.196   5.845  0.1776  0.3111 -0.2480
 3350SOL     OW13165   2.234   1.305   4.417  0.2831  0.2852 -0.4528
 3350SOL    HW213166   2.281   1.266   4.490  0.8177 -1.7027 -1.7771
 3350SOL    HW313167   2.162   1.353   4.457 -0.1974 -1.7845  1.3492
 3350SOL    MW413168   2.231   1.306   4.432  0.2902 -0.2502 -0.3898
 3351SOL     OW13169   3.686   2.954   1.211 -0.5481 -0.3956 -0.2278
 3351SOL    HW213170   3.742   2.902   1.269 -1.0189 -1.0800 -0.3819
 3351SOL    HW313171   3.674   2.899   1.134 -0.2627  0.3478 -0.8110
 3351SOL    MW413172   3.692   2.940   1.209 -0.5726 -0.3878 -0.3251
 3352SOL     OW13173   0.613   5.538   1.243 -0.1499  0.2176 -0.5856
 3352SOL    HW213174   0.583   5.596   1.312  0.3229 -0.1387 -0.0767
 3352SOL    HW313175   0.695   5.502   1.275 -0.4425 -0.7440 -0.8806
 3352SOL    MW413176   0.620   5.541   1.256 -0.1261  0.0437 -0.5574
 3353SOL     OW13177   0.263   4.598   5.998 -0.1524  0.3836  0.1121
 3353SOL    HW213178   0.175   4.603   6.034 -1.4006  2.4652 -2.8076
 3353SOL    HW313179   0.249   4.591   5.903  2.8293  0.5294 -0.4237
 3353SOL    MW413180   0.249   4.598   5.990  0.0763  0.6775 -0.3438
 3354SOL     OW13181   4.381   6.343   5.360 -0.5343 -0.1447  0.3129
 3354SOL    HW213182   4.440   6.306   5.294  0.4368  0.6607  0.6897
 3354SOL    HW313183   4.379   6.277   5.430  1.6357  0.6576  1.2365
 3354SOL    MW413184   4.389   6.329   5.361 -0.1199  0.0674  0.4845
 3355SOL     OW13185   4.844   0.755   0.806 -0.7545 -0.2625  0.3551
 3355SOL    HW213186   4.916   0.746   0.742 -0.2825 -1.7347  1.0606
 3355SOL    HW313187   4.765   0.742   0.754 -0.5474  1.2542 -0.4116
 3355SOL    MW413188   4.843   0.752   0.790 -0.6649 -0.2566  0.3470
 3356SOL     OW13189   4.777   0.346   5.330  0.3642 -0.2866  0.7662
 3356SOL    HW213190   4.765   0.251   5.332  0.4196 -0.2899  0.9801
 3356SOL    HW313191   4.853   0.362   5.387  2.1978 -0.3825 -1.4880
 3356SOL    MW413192   4.786   0.335   5.338  0.6134 -0.2997  0.4970
 3357SOL     OW13193   4.434   1.459   3.225  0.5136 -0.0141  0.1923
 3357SOL    HW213194   4.355   1.494   3.266  0.2132 -0.5360  0.0706
 3357SOL    HW313195   4.472   1.401   3.291  0.0920 -0.7660 -0.2043
 3357SOL    MW413196   4.428   1.456   3.239  0.4183 -0.1821  0.1239
 3358SOL     OW13197   0.119   4.380   2.605  0.1731  0.4042  0.7011
 3358SOL    HW213198   0.141   4.331   2.684 -0.5490  1.8432  1.8486
 3358SOL    HW313199   0.070   4.318   2.551 -2.6652  0.3868  3.0579
 3358SOL    MW413200   0.115   4.365   2.608 -0.2966  0.5918  1.1635
 3359SOL     OW13201   6.154   0.518   2.021  0.1135 -0.0575  0.0766
 3359SOL    HW213202   6.170   0.576   1.946 -0.7221 -3.2054 -2.7702
 3359SOL    HW313203   6.242   0.493   2.051  0.4614  1.5341  0.4778
 3359SOL    MW413204   6.168   0.523   2.015  0.0492 -0.2629 -0.2461
 3360SOL     OW13205   4.052   1.286   2.016  0.8056  0.0190 -0.0321
 3360SOL    HW213206   4.095   1.372   2.024 -1.6968  1.2596  1.0320
 3360SOL    HW313207   4.077   1.239   2.096  1.7121 -0.0507 -0.3446
 3360SOL    MW413208   4.061   1.291   2.028  0.5951  0.1735  0.0671
 3361SOL     OW13209   5.808   5.705   5.176  0.4348  0.5252 -0.0748
 3361SOL    HW213210   5.734   5.752   5.214  1.0323  1.3148  0.1395
 3361SOL    HW313211   5.793   5.614   5.200  1.6229  1.1249  3.5991
 3361SOL    MW413212   5.796   5.699   5.185  0.6704  0.7085  0.4382
 3362SOL     OW13213   3.560   0.887   6.250  0.2119  0.3162  0.0480
 3362SOL    HW213214   3.502   0.962   6.241 -0.4638 -0.0622  1.0908
 3362SOL    HW313215   3.648   0.924   6.251 -0.0038  0.9254 -1.2493
 3362SOL    MW413216   3.564   0.901   6.249  0.0943  0.3466  0.0144
 3363SOL     OW13217   5.536   6.427   3.529 -0.2017  0.7897 -0.5615
 3363SOL    HW213218   5.627   6.456   3.521  0.1938 -0.4106 -0.7105
 3363SOL    HW313219   5.508   6.410   3.439  0.2058 -1.0203 -0.3910
 3363SOL    MW413220   5.544   6.429   3.516 -0.0957  0.3925 -0.5587
 3364SOL     OW13221   4.661   5.639   1.991 -0.2979  0.1981  0.8643
 3364SOL    HW213222   4.569   5.629   1.967 -0.6038  1.1621  1.5658
 3364SOL    HW313223   4.675   5.570   2.056 -0.3601 -0.3202  0.3342
 3364SOL    MW413224   4.650   5.628   1.997 -0.3465  0.2569  0.8869
 3365SOL     OW13225   0.670   5.576   0.759  0.1582 -0.0505 -0.2537
 3365SOL    HW213226   0.729   5.604   0.689  0.7206  2.3421  1.0472
 3365SOL    HW313227   0.703   5.491   0.786  3.2118  1.2219  0.5024
 3365SOL    MW413228   0.682   5.569   0.753  0.6352  0.4330  0.0177
 3366SOL     OW13229   2.985   5.985   3.227  0.3765  0.1509  0.4936
 3366SOL    HW213230   2.921   5.945   3.286 -2.0066 -0.8428 -2.5582
 3366SOL    HW313231   3.002   6.071   3.266 -2.5077  0.2860  1.6956
 3366SOL    MW413232   2.979   5.991   3.240 -0.3184  0.0376  0.2496
 3367SOL     OW13233   5.391   4.411   3.670  0.3191 -0.3464  0.0238
 3367SOL    HW213234   5.412   4.501   3.695  1.0676 -0.9885  1.8460
 3367SOL    HW313235   5.335   4.379   3.740  1.3583 -1.7983  0.2290
 3367SOL    MW413236   5.386   4.419   3.682  0.5550 -0.6227  0.2913
 3368SOL     OW13237   3.423   1.578   2.330  0.3367 -0.7387  0.0086
 3368SOL    HW213238   3.473   1.549   2.253 -1.5711 -0.6916 -1.3182
 3368SOL    HW313239   3.409   1.498   2.380  0.4291 -1.0261 -0.4168
 3368SOL    MW413240   3.428   1.563   2.326  0.0972 -0.7704 -0.2226
 3369SOL     OW13241   2.486   2.759   4.774  0.2757  0.3212 -0.1474
 3369SOL    HW213242   2.465   2.777   4.866 -0.8489 -1.0737 -0.0981
 3369SOL    HW313243   2.581   2.773   4.768  0.2370  1.2614  0.9998
 3369SOL    MW413244   2.496   2.763   4.785  0.1222  0.2612  0.0105
 3370SOL     OW13245   4.554   0.460   4.448  0.0582  0.3399 -0.3170
 3370SOL    HW213246   4.463   0.461   4.479 -0.2428  0.3066 -1.1440
 3370SOL    HW313247   4.549   0.415   4.363  1.2602 -2.0749  0.8053
 3370SOL    MW413248   4.541   0.455   4.441  0.1771  0.0169 -0.2780
 3371SOL     OW13249   5.530   4.007   3.086  0.3756  0.7080 -0.5317
 3371SOL    HW213250   5.440   4.009   3.120  0.9631 -0.5690  1.2292
 3371SOL    HW313251   5.581   4.052   3.153  1.3013 -0.1967 -0.6126
 3371SOL    MW413252   5.525   4.013   3.099  0.5752  0.4201 -0.3100
 3372SOL     OW13253   5.759   4.534   5.933  0.3219  0.0700 -0.1309
 3372SOL    HW213254   5.796   4.593   5.868  0.8465  1.3886  1.3059
 3372SOL    HW313255   5.807   4.553   6.013 -0.5726 -1.2173  0.7596
 3372SOL    MW413256   5.770   4.544   5.935  0.2731  0.0741  0.1762
 3373SOL     OW13257   6.241   0.929   2.533  0.5823 -0.0158 -0.2105
 3373SOL    HW213258   6.214   0.877   2.609 -0.3509 -0.6587 -0.9439
 3373SOL    HW313259   6.168   0.920   2.472 -0.0117  2.8605 -0.0783
 3373SOL    MW413260   6.228   0.921   2.535  0.3808  0.2789 -0.2898
 3374SOL     OW13261   5.690   2.451   0.009  0.7301 -0.7276 -0.2298
 3374SOL    HW213262   5.752   2.484  -0.056  0.6841 -1.4516 -0.6495
 3374SOL    HW313263   5.639   2.384  -0.038  0.6812 -1.2395  0.5419
 3374SOL    MW413264   5.691   2.446  -0.006  0.7176 -0.8907 -0.1833
 3375SOL     OW13265   1.581   0.818   2.636  0.0834  0.6423 -0.1993
 3375SOL    HW213266   1.546   0.856   2.556  0.6972  0.0842 -0.7442
 3375SOL    HW313267   1.558   0.725   2.630  0.6092  0.4961  0.0108
 3375SOL    MW413268   1.573   0.810   2.625  0.2337  0.5493 -0.2435
 3376SOL     OW13269   3.054   4.922   4.473 -0.4258  0.3033 -0.1793
 3376SOL    HW213270   3.030   4.901   4.383 -0.5848 -1.6124  0.2694
 3376SOL    HW313271   3.147   4.941   4.469 -0.3089 -0.3239 -0.6869
 3376SOL    MW413272   3.063   4.922   4.460 -0.4313 -0.0322 -0.1871
 3377SOL     OW13273   6.217   0.439   5.591 -0.1179 -0.3884  0.0649
 3377SOL    HW213274   6.306   0.473   5.600  0.1595 -0.4403 -2.0090
 3377SOL    HW313275   6.175   0.498   5.528 -0.8491 -1.6153 -0.6400
 3377SOL    MW413276   6.223   0.451   5.584 -0.1778 -0.5571 -0.3017
 3378SOL     OW13277   0.733   5.653   4.560 -0.2491 -0.3923 -0.1662
 3378SOL    HW213278   0.775   5.617   4.482 -0.2687  0.2005 -0.4609
 3378SOL    HW313279   0.641   5.628   4.553 -0.3411  0.0452 -0.5740
 3378SOL    MW413280   0.726   5.645   4.549 -0.2639 -0.2563 -0.2589
 3379SOL     OW13281   4.373   3.034   4.021  0.5938  0.2925  0.1386
 3379SOL    HW213282   4.362   3.129   4.015  1.4722  0.3855 -0.0856
 3379SOL    HW313283   4.463   3.018   3.992  0.4214 -0.6191  0.0806
 3379SOL    MW413284   4.383   3.045   4.017  0.6869  0.1845  0.1014
 3380SOL     OW13285   2.359   3.230   0.144 -0.0289 -0.6259  0.0541
 3380SOL    HW213286   2.338   3.278   0.225  1.6153  0.0069  0.1389
 3380SOL    HW313287   2.290   3.255   0.083 -0.5808 -0.1026  0.8721
 3380SOL    MW413288   2.347   3.240   0.147  0.1152 -0.4734  0.1732
 3381SOL     OW13289   4.361   1.520   2.456  0.3046 -0.2033 -0.0788
 3381SOL    HW213290   4.335   1.589   2.395 -0.2337 -1.0944 -0.8812
 3381SOL    HW313291   4.357   1.561   2.542  2.2878  1.4577 -0.7023
 3381SOL    MW413292   4.357   1.535   2.459  0.4953 -0.1017 -0.2670
 3382SOL     OW13293   4.645   1.023   2.083 -0.2134  0.0620 -0.8564
 3382SOL    HW213294   4.713   1.055   2.024 -1.4087  1.4482 -1.5483
 3382SOL    HW313295   4.581   1.094   2.087 -0.0701  0.1608  2.3441
 3382SOL    MW413296   4.645   1.037   2.076 -0.3522  0.2579 -0.5254
 3383SOL     OW13297   5.257   2.791   1.551  0.1708  0.7565 -0.6408
 3383SOL    HW213298   5.167   2.766   1.571  0.4560  0.9176  0.9504
 3383SOL    HW313299   5.301   2.709   1.527 -0.3986  0.6902 -1.4971
 3383SOL    MW413300   5.251   2.777   1.550  0.1333  0.7690 -0.5439
 3384SOL     OW13301   2.630   1.896   5.950 -0.0487  0.1612  0.1677
 3384SOL    HW213302   2.616   1.946   6.031  1.0259 -0.5931  0.8378
 3384SOL    HW313303   2.549   1.908   5.901 -0.4586  1.1980  1.0456
 3384SOL    MW413304   2.617   1.904   5.954  0.0390  0.1985  0.3720
 3385SOL     OW13305   1.948   3.511   0.035  0.0518 -0.2287  0.0781
 3385SOL    HW213306   1.891   3.435   0.039 -2.1433  1.2396 -1.4157
 3385SOL    HW313307   1.966   3.523  -0.058  1.2454  0.4718  0.3722
 3385SOL    MW413308   1.943   3.503   0.023 -0.0803  0.0574 -0.0802
 3386SOL     OW13309   3.108   4.845   2.257  0.0311 -0.6110  0.2481
 3386SOL    HW213310   3.044   4.867   2.190 -0.0159 -1.4041  0.0312
 3386SOL    HW313311   3.146   4.930   2.283  1.3069 -0.4222 -1.9978
 3386SOL    MW413312   3.105   4.859   2.252  0.1932 -0.6907 -0.0768
 3387SOL     OW13313   3.090   5.816   4.741 -0.6774  0.0619  0.2481
 3387SOL    HW213314   3.101   5.732   4.785 -0.2810  0.6446  1.3070
 3387SOL    HW313315   3.170   5.828   4.690  0.1116  0.6390  1.5843
 3387SOL    MW413316   3.102   5.807   4.740 -0.5210  0.2149  0.5641
 3388SOL     OW13317   0.452   0.409   6.047  0.3328 -0.0362  0.0637
 3388SOL    HW213318   0.484   0.352   5.977  0.7929 -0.6425  0.7495
 3388SOL    HW313319   0.453   0.497   6.010  1.6084 -0.2053 -0.3412
 3388SOL    MW413320   0.456   0.413   6.033  0.5618 -0.1385  0.1007
 3389SOL     OW13321   5.939   0.465   4.677 -0.2463  0.1845  0.0604
 3389SOL    HW213322   6.015   0.406   4.679 -0.5327 -0.2226 -0.8348
 3389SOL    HW313323   5.874   0.422   4.732  0.2610  0.6801  1.0777
 3389SOL    MW413324   5.941   0.452   4.685 -0.2172  0.1962  0.0765
 3390SOL     OW13325   1.480   5.012   0.202 -0.0713 -0.2177 -0.3252
 3390SOL    HW213326   1.500   5.013   0.296 -0.2241 -0.8370 -0.2823
 3390SOL    HW313327   1.566   5.021   0.159  0.0125 -0.0666 -0.1238
 3390SOL    MW413328   1.494   5.013   0.209 -0.0804 -0.2795 -0.2930
 3391SOL     OW13329   6.266   2.157   5.387 -0.2083  0.3272 -0.0022
 3391SOL    HW213330   6.357   2.172   5.413 -0.1173  0.0915 -0.1700
 3391SOL    HW313331   6.217   2.230   5.424  0.3823  1.7071 -1.7844
 3391SOL    MW413332   6.272   2.168   5.395 -0.1183  0.4782 -0.2595
 3392SOL     OW13333   2.986   3.473   2.821 -0.4215 -0.6722  0.6141
 3392SOL    HW213334   3.024   3.468   2.733 -1.9683  1.4477 -0.2641
 3392SOL    HW313335   3.059   3.455   2.880  1.0239 -0.5747 -1.0696
 3392SOL    MW413336   3.001   3.470   2.817 -0.4349 -0.3796  0.2761
 3393SOL     OW13337   1.126   0.325   1.734  0.5582 -0.0533 -0.0897
 3393SOL    HW213338   1.085   0.321   1.648  2.0194  0.1306 -0.8284
 3393SOL    HW313339   1.219   0.340   1.716  0.5263  2.7951  1.5803
 3393SOL    MW413340   1.133   0.326   1.720  0.7468  0.3468  0.0332
 3394SOL     OW13341   4.470   0.544   2.864 -0.1217  0.0140 -0.0166
 3394SOL    HW213342   4.409   0.596   2.811 -2.0446 -1.4295  0.6740
 3394SOL    HW313343   4.538   0.517   2.802  0.2402  2.2027 -0.6685
 3394SOL    MW413344   4.471   0.547   2.849 -0.3276  0.1123 -0.0115
 3395SOL     OW13345   3.822   1.263   5.640 -0.1578 -0.1442 -0.1721
 3395SOL    HW213346   3.851   1.245   5.730 -0.7843  0.5120  0.1801
 3395SOL    HW313347   3.766   1.189   5.618 -1.4116  0.5154  0.6558
 3395SOL    MW413348   3.818   1.251   5.649 -0.4059  0.0294 -0.0164
 3396SOL     OW13349   0.736   4.584   1.767 -0.1802 -0.0235  0.3920
 3396SOL    HW213350   0.673   4.656   1.756 -2.3256 -1.8072  0.4485
 3396SOL    HW313351   0.818   4.629   1.787 -1.2040  2.4492 -0.4611
 3396SOL    MW413352   0.738   4.600   1.768 -0.5984  0.0674  0.2869
 3397SOL     OW13353   1.195   3.230   1.871 -0.2777  0.1528 -0.1270
 3397SOL    HW213354   1.169   3.253   1.960 -0.8669  0.7800 -0.4554
 3397SOL    HW313355   1.236   3.310   1.836  2.5045 -0.8828  0.4873
 3397SOL    MW413356   1.197   3.244   1.878  0.0116  0.0990 -0.0893
 3398SOL     OW13357   5.830   5.051   0.732  0.4319  0.0375 -0.6729
 3398SOL    HW213358   5.822   5.033   0.638 -0.6342  0.8896 -0.7674
 3398SOL    HW313359   5.850   4.966   0.771 -2.6973 -1.1015 -1.2584
 3398SOL    MW413360   5.832   5.037   0.725 -0.1216 -0.0004 -0.7626
 3399SOL     OW13361   5.887   4.643   4.256  0.0414 -0.4579 -0.2242
 3399SOL    HW213362   5.825   4.602   4.316 -0.5386  0.2940 -0.2879
 3399SOL    HW313363   5.971   4.640   4.303 -0.4029  0.1135  0.6506
 3399SOL    MW413364   5.890   4.637   4.270 -0.0937 -0.2833 -0.1172
 3400SOL     OW13365   6.077   5.606   3.180 -0.1370 -0.5476  0.0673
 3400SOL    HW213366   6.035   5.578   3.262  0.2491  0.2800  0.5491
 3400SOL    HW313367   6.109   5.694   3.198 -0.1944 -0.2905 -1.0321
 3400SOL    MW413368   6.075   5.614   3.193 -0.0936 -0.4045 -0.0142
 3401SOL     OW13369   4.573   1.374   1.720 -0.0459  0.7645 -1.0762
 3401SOL    HW213370   4.562   1.290   1.677  0.8875  0.3341 -0.5109
 3401SOL    HW313371   4.499   1.380   1.781  0.1047  0.1653 -0.8293
 3401SOL    MW413372   4.562   1.364   1.723  0.0972  0.6287 -0.9690
 3402SOL     OW13373   3.840   5.487   4.547  0.4119  0.5145 -0.1687
 3402SOL    HW213374   3.895   5.461   4.472 -2.1002 -3.6975 -0.8628
 3402SOL    HW313375   3.903   5.503   4.618  2.7059  1.0526 -2.1669
 3402SOL    MW413376   3.856   5.486   4.546  0.3831  0.0298 -0.5239
 3403SOL     OW13377   5.445   0.444   5.109 -0.0185 -0.6287 -0.3138
 3403SOL    HW213378   5.514   0.388   5.072  0.0975 -0.4648 -0.3481
 3403SOL    HW313379   5.435   0.514   5.045  1.0987  0.3782  0.5640
 3403SOL    MW413380   5.453   0.446   5.095  0.1442 -0.4742 -0.2026
 3404SOL     OW13381   4.348   6.260   0.300 -0.2699 -0.8031  0.6112
 3404SOL    HW213382   4.258   6.291   0.301 -0.0088  0.1145 -0.6557
 3404SOL    HW313383   4.401   6.340   0.293  0.6824 -1.2819  1.9378
 3404SOL    MW413384   4.343   6.275   0.299 -0.1098 -0.7452  0.6191
 3405SOL     OW13385   1.123   5.473   3.638  0.3909  0.2698 -0.3206
 3405SOL    HW213386   1.146   5.565   3.628 -0.0185  0.5985  1.4391
 3405SOL    HW313387   1.068   5.470   3.716  1.9437 -1.6948  0.8160
 3405SOL    MW413388   1.119   5.485   3.647  0.5418  0.0540  0.0615
 3406SOL     OW13389   1.008   3.434   3.980 -0.4565 -0.1140 -0.2912
 3406SOL    HW213390   0.996   3.516   3.932 -0.2782 -0.0515 -0.2310
 3406SOL    HW313391   1.002   3.366   3.913 -1.5801 -0.1182 -0.2004
 3406SOL    MW413392   1.006   3.436   3.965 -0.5812 -0.1063 -0.2713
 3407SOL     OW13393   1.903   2.425   2.244  0.0010  0.1849  0.5633
 3407SOL    HW213394   1.890   2.380   2.161  1.4106  2.0049 -0.7355
 3407SOL    HW313395   1.992   2.401   2.271 -0.6446 -0.8450  1.8910
 3407SOL    MW413396   1.913   2.416   2.236  0.1018  0.2891  0.5671
 3408SOL     OW13397   1.527   3.103   0.306 -0.2824 -0.0547  0.1737
 3408SOL    HW213398   1.459   3.166   0.281  0.3987  0.5381 -0.1840
 3408SOL    HW313399   1.554   3.063   0.223  2.0726  2.0018 -0.1554
 3408SOL    MW413400   1.521   3.106   0.292  0.1182  0.2948  0.0831
 3409SOL     OW13401   3.017   2.472   3.045 -0.0360 -0.7426 -0.0242
 3409SOL    HW213402   3.086   2.514   2.994  1.0051 -0.1756  1.7467
 3409SOL    HW313403   3.020   2.380   3.020 -0.1042 -0.3587 -1.5256
 3409SOL    MW413404   3.026   2.466   3.035  0.0923 -0.6171  0.0113
 3410SOL     OW13405   5.616   1.386   5.427 -0.1137  0.2127  0.4367
 3410SOL    HW213406   5.636   1.396   5.520  1.8581 -0.0701  0.0848
 3410SOL    HW313407   5.558   1.310   5.423 -1.6452  1.2584  1.5551
 3410SOL    MW413408   5.611   1.378   5.438 -0.0556  0.3134  0.5378
 3411SOL     OW13409   4.968   3.391   2.906  0.2436 -0.7220  0.3259
 3411SOL    HW213410   4.959   3.368   2.998  1.1434 -0.7686  0.4043
 3411SOL    HW313411   5.036   3.458   2.904  0.5314 -1.0263 -0.3492
 3411SOL    MW413412   4.976   3.397   2.918  0.4003 -0.7683  0.2472
 3412SOL     OW13413   5.197   1.872   5.423 -0.0636  0.2949  0.1249
 3412SOL    HW213414   5.151   1.916   5.352  0.6436  2.9646  1.1985
 3412SOL    HW313415   5.140   1.798   5.446 -1.9480  1.3214 -0.9986
 3412SOL    MW413416   5.183   1.868   5.417 -0.2189  0.7826  0.1183
 3413SOL     OW13417   3.817   3.622   1.132  0.3277 -0.2477  0.0115
 3413SOL    HW213418   3.861   3.701   1.163 -0.0195  0.0829 -0.3367
 3413SOL    HW313419   3.885   3.555   1.132  0.3168 -0.3172  1.6705
 3413SOL    MW413420   3.831   3.624   1.136  0.2805 -0.2132  0.1845
 3414SOL     OW13421   1.101   4.006   2.008 -0.3423 -0.3846 -0.1609
 3414SOL    HW213422   1.078   4.003   2.100  0.6187  0.7261  0.1420
 3414SOL    HW313423   1.017   4.006   1.962 -0.8268 -1.1057  0.6837
 3414SOL    MW413424   1.087   4.005   2.014 -0.2794 -0.3332 -0.0095
 3415SOL     OW13425   3.366   0.145   1.042  0.3384  0.9049 -0.3502
 3415SOL    HW213426   3.320   0.067   1.075 -0.0638  1.4156  0.3041
 3415SOL    HW313427   3.304   0.186   0.982  0.5523  0.7248 -0.6975
 3415SOL    MW413428   3.352   0.140   1.038  0.3136  0.9485 -0.3097
 3416SOL     OW13429   2.055   5.042   3.759 -0.0247 -0.2826 -0.2443
 3416SOL    HW213430   1.969   5.000   3.750 -0.0997 -0.1294 -0.2363
 3416SOL    HW313431   2.107   5.005   3.688 -0.0793 -0.4180 -0.2155
 3416SOL    MW413432   2.050   5.032   3.749 -0.0418 -0.2803 -0.2394
 3417SOL     OW13433   1.422   1.775   3.554 -0.2050  0.2127 -0.3801
 3417SOL    HW213434   1.362   1.849   3.543 -3.3440 -2.1944 -0.6009
 3417SOL    HW313435   1.413   1.751   3.646 -0.8131 -1.1278 -0.7727
 3417SOL    MW413436   1.413   1.782   3.565 -0.6994 -0.2817 -0.4611
 3418SOL     OW13437   0.070   3.048   2.969 -0.2874  0.0990  0.1955
 3418SOL    HW213438   0.014   3.118   2.935  1.2300  1.1473 -0.2590
 3418SOL    HW313439   0.127   3.091   3.033  0.6844 -0.6899 -0.1021
 3418SOL    MW413440   0.070   3.063   2.973  0.0410  0.1332  0.0962
 3419SOL     OW13441   2.262   1.766   4.038  0.2491  0.0311  0.0661
 3419SOL    HW213442   2.209   1.792   4.113  0.6658 -0.4912  0.5469
 3419SOL    HW313443   2.291   1.849   4.000 -0.6579  0.3150 -0.0279
 3419SOL    MW413444   2.259   1.781   4.043  0.1844 -0.0003  0.1171
 3420SOL     OW13445   1.705   6.076   4.824  0.2358 -0.1161 -0.1616
 3420SOL    HW213446   1.694   5.994   4.775  2.8527 -1.2819  0.9924
 3420SOL    HW313447   1.779   6.119   4.782  0.8187  0.1535  1.0815
 3420SOL    MW413448   1.713   6.071   4.812  0.6580 -0.2343  0.1547
 3421SOL     OW13449   5.378   1.551   5.459 -0.0141  0.4720 -0.4123
 3421SOL    HW213450   5.451   1.497   5.432 -1.1361 -0.9180 -0.7887
 3421SOL    HW313451   5.307   1.529   5.398 -0.5904  2.2227 -0.4646
 3421SOL    MW413452   5.378   1.541   5.447 -0.2382  0.5195 -0.4689
 3422SOL     OW13453   1.535   2.233   5.474  0.2712 -0.0262 -0.1802
 3422SOL    HW213454   1.624   2.201   5.488  0.5032  0.5347 -0.3329
 3422SOL    HW313455   1.482   2.154   5.466  0.8040 -0.3690 -0.3787
 3422SOL    MW413456   1.540   2.218   5.474  0.3721  0.0026 -0.2265
 3423SOL     OW13457   1.158   5.253   2.205 -0.5313 -0.1537  0.6715
 3423SOL    HW213458   1.133   5.196   2.133 -1.7350 -0.1297  1.0454
 3423SOL    HW313459   1.154   5.196   2.283 -0.2535  0.0691  0.8497
 3423SOL    MW413460   1.154   5.238   2.206 -0.6535 -0.1211  0.7443
 3424SOL     OW13461   2.588   4.322   5.257  0.4104 -0.1271 -0.0376
 3424SOL    HW213462   2.496   4.310   5.278 -0.1965 -0.3463 -2.6013
 3424SOL    HW313463   2.631   4.245   5.295 -0.2894  0.3486  1.8295
 3424SOL    MW413464   2.582   4.310   5.265  0.2380 -0.0932 -0.1295
 3425SOL     OW13465   3.583   0.154   3.620  0.0387  0.1373  0.1623
 3425SOL    HW213466   3.510   0.206   3.588 -1.8719 -0.8227  2.6682
 3425SOL    HW313467   3.658   0.184   3.568 -2.0076  1.3869 -2.2948
 3425SOL    MW413468   3.583   0.165   3.609 -0.4833  0.1755  0.1688
 3426SOL     OW13469   4.780   3.472   0.927  0.6110  0.6198  0.0540
 3426SOL    HW213470   4.758   3.385   0.895 -0.4219  1.0924 -0.5721
 3426SOL    HW313471   4.874   3.469   0.941  0.4705 -0.8471  0.8466
 3426SOL    MW413472   4.789   3.460   0.925  0.4561  0.4886  0.0759
 3427SOL     OW13473   1.337   1.840   0.173 -0.3099  0.6233 -0.1676
 3427SOL    HW213474   1.426   1.875   0.168 -0.1720  0.2642 -0.2334
 3427SOL    HW313475   1.296   1.890   0.244  0.5308 -0.4919  1.1647
 3427SOL    MW413476   1.343   1.851   0.182 -0.1808  0.4288 -0.0005
 3428SOL     OW13477   0.931   5.399   4.314 -0.1504  0.9589 -0.2508
 3428SOL    HW213478   0.892   5.484   4.293  0.2774  1.5111  1.0895
 3428SOL    HW313479   0.861   5.335   4.297 -1.0171  1.7434  0.3100
 3428SOL    MW413480   0.916   5.401   4.309 -0.2083  1.1353  0.0000
 3429SOL     OW13481   0.090   1.623   6.370  0.4946  0.4036 -0.5948
 3429SOL    HW213482   0.023   1.581   6.317 -0.0428 -1.9106  1.7303
 3429SOL    HW313483   0.162   1.639   6.310 -0.3917 -1.3193 -2.2069
 3429SOL    MW413484   0.090   1.620   6.355  0.3068 -0.1291 -0.5007
 3430SOL     OW13485   0.745   3.819   2.535 -0.4123  0.2229 -0.1017
 3430SOL    HW213486   0.752   3.860   2.622 -2.1351  2.0436 -0.7442
 3430SOL    HW313487   0.821   3.762   2.529 -0.4911 -0.3450  2.8014
 3430SOL    MW413488   0.756   3.817   2.546 -0.6500  0.3882  0.1965
 3431SOL     OW13489   0.114   1.282   3.338 -0.7830  0.4250  0.2397
 3431SOL    HW213490   0.062   1.241   3.407 -1.5044 -0.3254 -0.7264
 3431SOL    HW313491   0.165   1.210   3.300 -1.8032  0.4293 -1.2375
 3431SOL    MW413492   0.114   1.267   3.342 -1.0128  0.3266 -0.0827
 3432SOL     OW13493   2.938   6.417   1.739  0.0444  0.1000 -0.0727
 3432SOL    HW213494   2.947   6.327   1.709 -1.0658 -0.2489  0.6068
 3432SOL    HW313495   2.950   6.470   1.660 -0.1774 -0.6774 -0.6398
 3432SOL    MW413496   2.941   6.412   1.725 -0.1313 -0.0486 -0.0579
 3433SOL     OW13497   3.205   3.508   1.896 -0.1774  0.2086  0.0364
 3433SOL    HW213498   3.251   3.582   1.856 -0.5975 -0.4761 -1.8290
 3433SOL    HW313499   3.244   3.431   1.854 -0.7517 -0.5592  0.8773
 3433SOL    MW413500   3.216   3.508   1.885 -0.3086  0.0169 -0.0988
 3434SOL     OW13501   0.951   4.638   3.618 -0.1012  0.3702 -0.2758
 3434SOL    HW213502   1.013   4.661   3.549 -0.5889 -0.7039 -1.1149
 3434SOL    HW313503   0.965   4.545   3.632 -0.2405  0.5108  0.8579
 3434SOL    MW413504   0.961   4.629   3.611 -0.1839  0.2470 -0.2370
 3435SOL     OW13505   1.090   0.753   3.097  0.1194 -0.5999 -0.0127
 3435SOL    HW213506   1.120   0.768   3.187  1.1295 -0.2827 -0.3936
 3435SOL    HW313507   1.169   0.734   3.048 -0.4251 -0.7710 -0.8439
 3435SOL    MW413508   1.104   0.753   3.102  0.1808 -0.5806 -0.1726
 3436SOL     OW13509   3.851   0.656   6.120  0.8680  0.1632 -0.0699
 3436SOL    HW213510   3.807   0.581   6.079  2.4177 -1.0177  0.3134
 3436SOL    HW313511   3.833   0.729   6.061 -1.8549 -0.1395  0.2599
 3436SOL    MW413512   3.843   0.655   6.106  0.7132 -0.0325  0.0242
 3437SOL     OW13513   2.953   5.922   2.940  0.2742  0.1263 -0.5559
 3437SOL    HW213514   2.979   5.945   3.029  1.1991  0.0359 -0.7904
 3437SOL    HW313515   2.887   5.853   2.951  0.4051  0.0904  0.0497
 3437SOL    MW413516   2.947   5.916   2.953  0.4135  0.1097 -0.5069
 3438SOL     OW13517   0.304   4.713   4.367  0.3327 -0.2859 -0.1967
 3438SOL    HW213518   0.259   4.644   4.319 -1.1702  0.2158  0.4165
 3438SOL    HW313519   0.338   4.771   4.300  1.5111 -1.5329 -0.7180
 3438SOL    MW413520   0.302   4.711   4.352  0.2899 -0.3843 -0.1846
 3439SOL     OW13521   0.798   3.911   5.407  0.3710 -0.0441  0.3388
 3439SOL    HW213522   0.805   3.970   5.482  1.1324  0.8672 -0.4319
 3439SOL    HW313523   0.717   3.938   5.363  0.3839  0.0048  0.3449
 3439SOL    MW413524   0.788   3.922   5.411  0.4731  0.0826  0.2379
 3440SOL     OW13525   3.513   5.014   2.660 -0.5876  0.3108 -0.1376
 3440SOL    HW213526   3.568   5.001   2.737 -1.2278 -0.5477  0.1892
 3440SOL    HW313527   3.551   4.955   2.594 -1.7943 -1.2010  0.4605
 3440SOL    MW413528   3.525   5.004   2.661 -0.8313 -0.0020 -0.0156
 3441SOL     OW13529   5.939   0.235   0.054  0.3008  0.1173  0.3524
 3441SOL    HW213530   5.935   0.188   0.138 -2.1362  0.3661  0.4407
 3441SOL    HW313531   5.879   0.309   0.065 -0.2413  0.0344 -1.6829
 3441SOL    MW413532   5.930   0.239   0.067 -0.0923  0.1392  0.0955
 3442SOL     OW13533   4.067   2.543   1.005  0.0248  0.0303 -0.2616
 3442SOL    HW213534   4.121   2.529   1.083  0.1526 -0.3010 -0.4023
 3442SOL    HW313535   4.131   2.564   0.936 -0.2596  3.3072  0.3169
 3442SOL    MW413536   4.083   2.544   1.006  0.0041  0.4189 -0.2038
 3443SOL     OW13537   4.135   3.247   5.794 -0.7180 -0.0320 -0.3625
 3443SOL    HW213538   4.078   3.195   5.737  1.2986 -2.9941  0.0410
 3443SOL    HW313539   4.100   3.234   5.882 -0.3105 -0.6378 -0.2811
 3443SOL    MW413540   4.123   3.238   5.798 -0.3981 -0.5027 -0.2986
 3444SOL     OW13541   5.344   1.091   6.242 -0.2668 -0.1485 -0.0732
 3444SOL    HW213542   5.324   1.016   6.186 -0.1477 -0.2402  0.0037
 3444SOL    HW313543   5.271   1.151   6.230 -0.8355 -0.6954  0.5785
 3444SOL    MW413544   5.332   1.089   6.233 -0.3261 -0.2328  0.0229
 3445SOL     OW13545   2.166   6.396   1.352  0.1749 -0.3198 -0.7001
 3445SOL    HW213546   2.072   6.397   1.333  0.1443 -2.3881 -0.8404
 3445SOL    HW313547   2.203   6.339   1.285  1.5329  0.4071 -0.5881
 3445SOL    MW413548   2.158   6.389   1.341  0.3500 -0.4968 -0.7039
 3446SOL     OW13549   0.695   2.511   0.485  0.4464  0.3862  0.3534
 3446SOL    HW213550   0.763   2.555   0.435  0.2283 -0.1073 -0.3992
 3446SOL    HW313551   0.626   2.492   0.421  0.8776 -1.7680  0.4226
 3446SOL    MW413552   0.695   2.514   0.470  0.4745  0.0369  0.2632
 3447SOL     OW13553   4.702   6.258   4.536  0.0951 -0.3715  0.7967
 3447SOL    HW213554   4.755   6.198   4.587  2.4334  0.9396  0.0816
 3447SOL    HW313555   4.729   6.241   4.445 -0.4910  0.5303  0.4458
 3447SOL    MW413556   4.713   6.248   4.530  0.3263 -0.0795  0.6560
 3448SOL     OW13557   1.885   0.448   4.540  0.3065 -0.1877  0.2583
 3448SOL    HW213558   1.876   0.538   4.571 -0.3847  0.7747 -2.5031
 3448SOL    HW313559   1.929   0.455   4.456 -0.6900 -2.3082 -0.5313
 3448SOL    MW413560   1.889   0.461   4.533  0.0838 -0.3405 -0.2102
 3449SOL     OW13561   3.780   0.794   1.450  0.4196  0.2371  0.4812
 3449SOL    HW213562   3.733   0.876   1.441 -0.4977 -0.1498  1.4405
 3449SOL    HW313563   3.755   0.742   1.374 -1.1595 -0.1471  1.2042
 3449SOL    MW413564   3.771   0.798   1.439  0.0902  0.1353  0.7032
 3450SOL     OW13565   5.326   5.172   2.576 -0.0645  0.0415  0.3931
 3450SOL    HW213566   5.282   5.122   2.508 -1.1317 -0.1306  1.1820
 3450SOL    HW313567   5.295   5.133   2.658 -0.1004  1.2940  0.9972
 3450SOL    MW413568   5.316   5.160   2.578 -0.2101  0.1840  0.5769
 3451SOL     OW13569   0.591   3.973   5.197  0.3083  0.1306 -0.6635
 3451SOL    HW213570   0.563   3.988   5.107 -0.0984 -0.5533 -0.6560
 3451SOL    HW313571   0.547   3.892   5.223  0.0658  0.5576  0.3015
 3451SOL    MW413572   0.582   3.964   5.189  0.2227  0.0967 -0.5352
 3452SOL     OW13573   2.526   4.087   0.259  0.3709 -0.6302  0.2465
 3452SOL    HW213574   2.488   4.054   0.177  2.6995  0.0117 -1.1712
 3452SOL    HW313575   2.556   4.008   0.305 -0.1217 -0.9288  0.0658
 3452SOL    MW413576   2.525   4.072   0.254  0.6131 -0.5849  0.0356
 3453SOL     OW13577   1.635   5.769   2.100  0.6735 -0.0323 -1.2337
 3453SOL    HW213578   1.576   5.704   2.064  1.4117 -0.4757 -1.6647
 3453SOL    HW313579   1.588   5.852   2.092 -0.5630 -0.5763 -0.0425
 3453SOL    MW413580   1.621   5.772   2.094  0.6078 -0.1626 -1.1334
 3454SOL     OW13581   5.690   1.655   1.940  0.7243 -0.2927 -0.0587
 3454SOL    HW213582   5.734   1.582   1.983  2.4508  1.4506  1.3362
 3454SOL    HW313583   5.614   1.673   1.995 -0.3395 -1.6682 -1.0183
 3454SOL    MW413584   5.686   1.648   1.953  0.8118 -0.2442 -0.0012
 3455SOL     OW13585   1.147   1.164   6.353 -0.1797 -0.0293  0.2204
 3455SOL    HW213586   1.232   1.178   6.396 -0.6865  0.4386  1.0950
 3455SOL    HW313587   1.085   1.156   6.425 -1.2926  2.2434 -0.4053
 3455SOL    MW413588   1.150   1.165   6.368 -0.3934  0.3323  0.2533
 3456SOL     OW13589   1.855   0.843   0.178  0.2052  0.3405 -0.4467
 3456SOL    HW213590   1.876   0.751   0.195 -0.9546 -0.3757 -2.6362
 3456SOL    HW313591   1.762   0.851   0.201  0.6133  1.3672  1.0414
 3456SOL    MW413592   1.846   0.832   0.183  0.1060  0.3815 -0.5392
 3457SOL     OW13593   3.761   5.518   1.743 -0.0363 -0.3931  0.0326
 3457SOL    HW213594   3.718   5.494   1.660 -1.6974 -0.2682  0.8218
 3457SOL    HW313595   3.778   5.434   1.786  0.9306 -0.4654 -0.4413
 3457SOL    MW413596   3.758   5.504   1.737 -0.1279 -0.3862  0.0742
 3458SOL     OW13597   0.041   1.842   5.147  0.3509  0.2328 -0.0650
 3458SOL    HW213598   0.087   1.876   5.223  0.3522  1.4749 -0.5993
 3458SOL    HW313599   0.027   1.749   5.167  1.7792  0.1585  0.7326
 3458SOL    MW413600   0.045   1.834   5.160  0.5395  0.3869 -0.0303
 3459SOL     OW13601   2.372   4.925   3.118 -0.0743 -0.3391  0.0334
 3459SOL    HW213602   2.455   4.939   3.165  0.3021 -0.3349 -0.6250
 3459SOL    HW313603   2.397   4.924   3.026 -1.2147  3.3306 -0.4945
 3459SOL    MW413604   2.386   4.927   3.112 -0.1751  0.1457 -0.1231
 3460SOL     OW13605   4.238   0.530   0.152  0.7156 -0.0514 -0.2450
 3460SOL    HW213606   4.255   0.622   0.132 -0.5502 -0.0055 -1.1875
 3460SOL    HW313607   4.158   0.509   0.105  0.6713 -1.4931  0.4164
 3460SOL    MW413608   4.230   0.539   0.143  0.5428 -0.2356 -0.2821
 3461SOL     OW13609   4.233   5.216   1.560  0.7067  0.1867  0.0504
 3461SOL    HW213610   4.243   5.159   1.484  1.0597 -0.9113  0.8994
 3461SOL    HW313611   4.167   5.280   1.533 -0.3123 -1.1129 -0.6608
 3461SOL    MW413612   4.225   5.217   1.547  0.6189 -0.1296  0.0686
 3462SOL     OW13613   3.530   4.048   4.422 -0.6603  0.0584  0.5229
 3462SOL    HW213614   3.594   4.114   4.395 -0.6344  0.2833  1.1193
 3462SOL    HW313615   3.525   4.058   4.517 -1.0865 -0.4106  0.5488
 3462SOL    MW413616   3.538   4.058   4.431 -0.7132  0.0262  0.6050
 3463SOL     OW13617   3.423   1.937   2.099  0.0853  0.0466  0.4665
 3463SOL    HW213618   3.417   1.927   2.194 -0.7680 -0.5687  0.3566
 3463SOL    HW313619   3.517   1.930   2.081  0.2099 -0.3585  1.2156
 3463SOL    MW413620   3.435   1.935   2.109 -0.0108 -0.0880  0.5509
 3464SOL     OW13621   2.932   5.448   5.373 -0.1523 -0.3971 -0.0773
 3464SOL    HW213622   2.863   5.383   5.388 -0.4610 -0.4978 -1.7222
 3464SOL    HW313623   2.971   5.422   5.290  0.1062  1.1800 -0.4788
 3464SOL    MW413624   2.928   5.436   5.364 -0.1589 -0.2023 -0.3473
 3465SOL     OW13625   4.130   5.155   1.187 -0.0139 -0.5863  0.4639
 3465SOL    HW213626   4.159   5.165   1.097 -0.2372 -1.2888  0.3045
 3465SOL    HW313627   4.064   5.086   1.183  0.2872 -0.9317  1.2230
 3465SOL    MW413628   4.125   5.147   1.175 -0.0036 -0.7246  0.5430
 3466SOL     OW13629   1.563   3.405   5.932  0.0211  0.0098  0.1498
 3466SOL    HW213630   1.612   3.338   5.980  2.2046  0.1881 -1.6931
 3466SOL    HW313631   1.491   3.357   5.891  0.1173 -0.7420  0.8298
 3466SOL    MW413632   1.560   3.390   5.933  0.3219 -0.0658 -0.0036
 3467SOL     OW13633   3.607   2.019   1.123  0.1189  0.1000  0.2229
 3467SOL    HW213634   3.540   1.952   1.109  0.2490  0.1339 -0.6466
 3467SOL    HW313635   3.610   2.031   1.218  1.2725 -2.3295  0.5606
 3467SOL    MW413636   3.598   2.012   1.133  0.2883 -0.2160  0.1528
 3468SOL     OW13637   2.746   3.964   0.627 -0.2839 -0.2042  0.0468
 3468SOL    HW213638   2.758   3.908   0.704  0.8997  0.6574  0.5082
 3468SOL    HW313639   2.801   3.924   0.560 -0.5531 -0.4032 -0.0550
 3468SOL    MW413640   2.755   3.951   0.629 -0.1633 -0.1168  0.0943
 3469SOL     OW13641   0.559   2.259   5.379  0.0662 -0.7119  0.5099
 3469SOL    HW213642   0.499   2.187   5.360  0.0101 -0.7655  0.8768
 3469SOL    HW313643   0.622   2.257   5.307  0.4623 -1.5580  0.8662
 3469SOL    MW413644   0.560   2.249   5.367  0.1110 -0.8306  0.6053
 3470SOL     OW13645   4.880   2.418   6.306  0.5384 -0.5012 -0.3412
 3470SOL    HW213646   4.865   2.499   6.355 -3.9139 -1.6475  0.7444
 3470SOL    HW313647   4.927   2.361   6.367  0.3527  0.0557  0.3306
 3470SOL    MW413648   4.884   2.421   6.321 -0.0736 -0.5790 -0.1093
 3471SOL     OW13649   1.642   2.619   4.885 -0.2131 -0.0574 -0.3336
 3471SOL    HW213650   1.601   2.538   4.915  1.3058 -0.3791  1.0151
 3471SOL    HW313651   1.568   2.676   4.863 -1.3409 -1.2399  0.2307
 3471SOL    MW413652   1.627   2.616   4.886 -0.1615 -0.2559 -0.0812
 3472SOL     OW13653   4.776   2.687   2.876  0.0663  0.2931  0.1407
 3472SOL    HW213654   4.776   2.783   2.877  2.9547  0.3845  1.2983
 3472SOL    HW313655   4.810   2.662   2.963 -1.1424 -1.8108  0.0782
 3472SOL    MW413656   4.781   2.696   2.888  0.2879  0.0276  0.2852
 3473SOL     OW13657   1.604   1.141   6.271  0.1219 -0.0505 -0.1510
 3473SOL    HW213658   1.651   1.116   6.191 -0.4735 -0.3334 -0.4152
 3473SOL    HW313659   1.671   1.184   6.325  0.7160 -0.5469 -0.4742
 3473SOL    MW413660   1.619   1.143   6.268  0.1218 -0.1533 -0.2285
 3474SOL     OW13661   3.601   1.783   0.646 -0.3289 -0.4067 -0.4959
 3474SOL    HW213662   3.681   1.730   0.644  0.2459  0.4194  0.1518
 3474SOL    HW313663   3.601   1.829   0.561  0.4340  0.3679 -0.0904
 3474SOL    MW413664   3.611   1.782   0.634 -0.1524 -0.1955 -0.3570
 3475SOL     OW13665   6.215   6.315   1.660  0.7583  0.3441 -0.0268
 3475SOL    HW213666   6.205   6.408   1.641 -0.2464  0.0470 -1.0337
 3475SOL    HW313667   6.279   6.284   1.595 -0.3323 -0.0338 -0.9516
 3475SOL    MW413668   6.222   6.323   1.649  0.4819  0.2551 -0.2817
 3476SOL     OW13669   1.230   6.308   4.533 -0.2201  0.1829  0.6072
 3476SOL    HW213670   1.217   6.367   4.459  0.3221 -0.6478 -0.1752
 3476SOL    HW313671   1.148   6.312   4.582 -0.4263  1.0734  0.2036
 3476SOL    MW413672   1.218   6.316   4.530 -0.1758  0.1908  0.4508
 3477SOL     OW13673   0.174   0.187   2.243  0.6001  0.3797 -0.5568
 3477SOL    HW213674   0.102   0.124   2.251 -0.5211  1.7388  0.8281
 3477SOL    HW313675   0.150   0.241   2.168 -0.6748  1.7465  0.7497
 3477SOL    MW413676   0.161   0.186   2.234  0.2839  0.7394 -0.2017
 3478SOL     OW13677   4.287   4.241   4.973  0.7037 -0.2112 -0.3296
 3478SOL    HW213678   4.312   4.148   4.965  0.3006 -0.3751  0.3112
 3478SOL    HW313679   4.224   4.254   4.902 -1.2164 -1.1146  1.1030
 3478SOL    MW413680   4.282   4.230   4.962  0.3972 -0.3520 -0.0560
 3479SOL     OW13681   3.080   5.113   3.519  0.1518  0.5893  0.7544
 3479SOL    HW213682   3.135   5.156   3.454  0.5308  0.6063  1.0790
 3479SOL    HW313683   3.121   5.027   3.533  0.0632  0.5784  0.9566
 3479SOL    MW413684   3.093   5.107   3.513  0.1901  0.5901  0.8239
 3480SOL     OW13685   2.243   5.669   2.218  0.4665 -0.1393 -0.1171
 3480SOL    HW213686   2.231   5.762   2.199 -2.2642 -0.1842  0.9121
 3480SOL    HW313687   2.301   5.668   2.294 -0.8053  0.8846  0.9287
 3480SOL    MW413688   2.249   5.682   2.226 -0.0616 -0.0102  0.1567
 3481SOL     OW13689   1.331   2.118   6.391 -0.2872  0.6004  0.0041
 3481SOL    HW213690   1.259   2.060   6.414  0.6433  0.1077  1.8226
 3481SOL    HW313691   1.354   2.162   6.473 -0.0155  2.4751 -1.0287
 3481SOL    MW413692   1.325   2.116   6.405 -0.1286  0.7828  0.1077
 3482SOL     OW13693   1.114   1.820   1.933  0.0217 -0.5759 -0.0261
 3482SOL    HW213694   1.045   1.881   1.958 -0.9710 -1.8063  0.3535
 3482SOL    HW313695   1.068   1.739   1.910  1.3860 -2.1106  2.1762
 3482SOL    MW413696   1.099   1.817   1.934  0.0707 -0.9407  0.3146
 3483SOL     OW13697   0.145   4.249   0.952  0.2227  0.5437 -0.1011
 3483SOL    HW213698   0.223   4.202   0.983 -0.7450 -1.3137 -0.3017
 3483SOL    HW313699   0.083   4.240   1.024  0.4118  2.7348  0.4017
 3483SOL    MW413700   0.147   4.241   0.966  0.1200  0.5877 -0.0612
 3484SOL     OW13701   3.594   3.054   4.169  0.6348 -0.1221  0.1628
 3484SOL    HW213702   3.680   3.013   4.180 -0.5209 -2.3434  1.8100
 3484SOL    HW313703   3.533   2.980   4.164 -1.3263  1.3960  0.4193
 3484SOL    MW413704   3.597   3.039   4.169  0.2236 -0.2149  0.4140
 3485SOL     OW13705   4.531   4.141   6.046  0.7827  0.1118  0.0875
 3485SOL    HW213706   4.593   4.074   6.075  0.3184  1.0318  3.6579
 3485SOL    HW313707   4.585   4.217   6.027  0.9307  0.6523  2.3888
 3485SOL    MW413708   4.546   4.142   6.047  0.7410  0.3045  0.8622
 3486SOL     OW13709   6.124   3.098   2.481  0.2140  0.4800 -0.6481
 3486SOL    HW213710   6.033   3.084   2.457  0.4549  1.3360 -2.1596
 3486SOL    HW313711   6.173   3.088   2.399  1.6607 -1.2498  0.3440
 3486SOL    MW413712   6.119   3.095   2.467  0.4367  0.3647 -0.7166
 3487SOL     OW13713   5.188   3.841   3.633  0.0701  0.0200  0.0024
 3487SOL    HW213714   5.128   3.767   3.624  0.0527  0.2031 -1.8129
 3487SOL    HW313715   5.139   3.907   3.681 -1.0962  0.0227 -1.1382
 3487SOL    MW413716   5.174   3.840   3.638 -0.0861  0.0445 -0.3876
 3488SOL     OW13717   4.844   5.826   5.006 -0.2037 -0.2624  1.0507
 3488SOL    HW213718   4.764   5.867   4.974  0.7163 -0.1030 -1.2131
 3488SOL    HW313719   4.839   5.736   4.975  1.1299  0.1354 -0.5161
 3488SOL    MW413720   4.833   5.820   4.998  0.0936 -0.1889  0.5453
 3489SOL     OW13721   6.391   0.081   1.125  0.7655 -0.0770 -0.4955
 3489SOL    HW213722   6.382   0.136   1.047  0.5693  1.7904  0.7814
 3489SOL    HW313723   6.485   0.069   1.135  0.8126  0.0721 -0.7478
 3489SOL    MW413724   6.402   0.086   1.116  0.7458  0.1891 -0.3603
 3490SOL     OW13725   0.280   3.861   0.683 -0.5782 -0.5434  0.2116
 3490SOL    HW213726   0.236   3.808   0.617  0.0712  0.5508 -1.1682
 3490SOL    HW313727   0.215   3.926   0.709  0.1308  1.1448 -1.9117
 3490SOL    MW413728   0.266   3.863   0.678 -0.3990 -0.1763 -0.2506
 3491SOL     OW13729   2.515   2.676   5.723  0.5032 -0.0319  0.1453
 3491SOL    HW213730   2.538   2.702   5.812  0.3682  0.1312  0.1335
 3491SOL    HW313731   2.468   2.594   5.733  2.0769 -0.9798  0.0895
 3491SOL    MW413732   2.512   2.669   5.736  0.6931 -0.1355  0.1364
 3492SOL     OW13733   3.336   2.902   0.792  0.3687  0.0014 -0.4489
 3492SOL    HW213734   3.275   2.974   0.804  0.7532  0.1584  0.6898
 3492SOL    HW313735   3.331   2.853   0.874  1.2710 -0.3565 -0.5997
 3492SOL    MW413736   3.328   2.905   0.804  0.5385 -0.0251 -0.3185
 3493SOL     OW13737   2.816   4.423   1.506  0.2599  0.1364 -0.3576
 3493SOL    HW213738   2.852   4.393   1.590  3.0200 -1.1701 -1.8466
 3493SOL    HW313739   2.726   4.448   1.525  1.4553  2.3489  3.5115
 3493SOL    MW413740   2.809   4.422   1.520  0.7818  0.2560 -0.0436
 3494SOL     OW13741   1.465   5.005   0.485  0.6424 -0.0401  0.3802
 3494SOL    HW213742   1.373   4.979   0.478  0.6002 -0.1084  1.1222
 3494SOL    HW313743   1.501   4.949   0.553  1.0560  0.4730  0.5931
 3494SOL    MW413744   1.457   4.995   0.493  0.6914  0.0186  0.5062
 3495SOL     OW13745   1.675   4.276   3.753  0.1884 -0.0302 -0.1255
 3495SOL    HW213746   1.741   4.212   3.778  0.1093 -0.1143 -0.1281
 3495SOL    HW313747   1.710   4.319   3.675  0.2302 -0.0876 -0.1378
 3495SOL    MW413748   1.688   4.273   3.746  0.1835 -0.0488 -0.1275
 3496SOL     OW13749   5.152   1.622   2.298 -0.0123  0.0773 -0.0381
 3496SOL    HW213750   5.088   1.619   2.226 -0.2732  0.5854  0.1686
 3496SOL    HW313751   5.119   1.561   2.363 -0.7287  0.9407  0.4236
 3496SOL    MW413752   5.140   1.614   2.297 -0.1413  0.2583  0.0501
 3497SOL     OW13753   4.667   3.574   0.458 -0.2826  0.0256  0.3154
 3497SOL    HW213754   4.668   3.485   0.423 -1.5779  0.0549  0.1585
 3497SOL    HW313755   4.667   3.563   0.553 -1.3359 -0.1762  0.3006
 3497SOL    MW413756   4.667   3.561   0.466 -0.5925  0.0028  0.2927
 3498SOL     OW13757   3.143   2.815   3.287  0.4875  0.4594  0.2815
 3498SOL    HW213758   3.089   2.736   3.285  0.7642  0.2905 -1.2189
 3498SOL    HW313759   3.168   2.824   3.379 -1.5628  0.1974  0.9195
 3498SOL    MW413760   3.139   2.806   3.299  0.2535  0.4026  0.1677
 3499SOL     OW13761   3.516   0.857   2.745 -0.0213 -0.1614  0.2980
 3499SOL    HW213762   3.467   0.799   2.687 -0.1459  0.9530 -0.7559
 3499SOL    HW313763   3.593   0.883   2.694  0.0962  0.4931  0.7928
 3499SOL    MW413764   3.520   0.853   2.731 -0.0223  0.0720  0.2242
 3500SOL     OW13765   0.558   2.427   3.197 -0.2766 -0.0457 -0.2406
 3500SOL    HW213766   0.625   2.493   3.182 -0.1823 -0.1952 -0.4910
 3500SOL    HW313767   0.573   2.361   3.129 -1.9512  0.9288 -1.6256
 3500SOL    MW413768   0.568   2.427   3.186 -0.4851  0.0632 -0.4563
 3501SOL     OW13769   3.475   3.853   1.978 -0.6009  0.0988 -0.0276
 3501SOL    HW213770   3.558   3.813   2.000 -1.3748 -1.5474  0.0365
 3501SOL    HW313771   3.485   3.945   2.003  0.5136 -0.4810  1.8029
 3501SOL    MW413772   3.487   3.860   1.984 -0.5560 -0.1949  0.2224
 3502SOL     OW13773   3.245   4.736   1.929 -0.6065  0.3979 -0.0423
 3502SOL    HW213774   3.306   4.676   1.886 -1.7802 -1.1079  0.2690
 3502SOL    HW313775   3.269   4.732   2.022 -0.7012  0.3709 -0.0186
 3502SOL    MW413776   3.256   4.727   1.936 -0.7738  0.1957  0.0019
 3503SOL     OW13777   1.084   5.414   5.545 -0.1815 -0.5383  0.8168
 3503SOL    HW213778   1.163   5.445   5.590 -0.0914  1.0140 -0.3244
 3503SOL    HW313779   1.017   5.477   5.568 -0.6756 -0.9254  0.4544
 3503SOL    MW413780   1.086   5.426   5.554 -0.2348 -0.3846  0.6184
 3504SOL     OW13781   5.353   4.703   3.618  0.1770  0.0219  0.1756
 3504SOL    HW213782   5.263   4.692   3.589 -0.0809  1.3045  0.3994
 3504SOL    HW313783   5.406   4.685   3.541 -0.4424  2.3604 -0.8861
 3504SOL    MW413784   5.348   4.700   3.604  0.0613  0.4997  0.0651
 3505SOL     OW13785   2.572   2.880   2.404 -0.2944  0.2186  0.1203
 3505SOL    HW213786   2.643   2.942   2.422  0.1689 -0.6629  1.4730
 3505SOL    HW313787   2.538   2.858   2.491 -0.8290 -0.9811 -0.3867
 3505SOL    MW413788   2.577   2.886   2.418 -0.3038 -0.0560  0.2318
 3506SOL     OW13789   5.918   6.054   5.089 -0.0963 -0.0748  0.1878
 3506SOL    HW213790   5.981   5.993   5.130  2.9322  1.4901 -1.7563
 3506SOL    HW313791   5.950   6.141   5.113 -1.3560  0.8062 -1.1650
 3506SOL    MW413792   5.931   6.057   5.098  0.1371  0.2479 -0.2472
 3507SOL     OW13793   4.137   3.548   2.534  0.2454  0.1109 -0.3878
 3507SOL    HW213794   4.129   3.619   2.470  0.3516  1.4238  1.0020
 3507SOL    HW313795   4.156   3.471   2.481  0.1790  1.1111 -1.9535
 3507SOL    MW413796   4.138   3.547   2.518  0.2506  0.4161 -0.4110
 3508SOL     OW13797   5.802   5.757   3.390  0.2943  0.2388  0.2023
 3508SOL    HW213798   5.714   5.719   3.386  0.5312 -0.3238  0.3044
 3508SOL    HW313799   5.787   5.851   3.400 -0.2931  0.2577 -0.7992
 3508SOL    MW413800   5.788   5.765   3.391  0.2480  0.1671  0.0836
 3509SOL     OW13801   4.812   0.919   5.897  0.1145  0.2001 -0.1166
 3509SOL    HW213802   4.894   0.939   5.943  0.0537  1.2206 -0.4179
 3509SOL    HW313803   4.811   0.824   5.889  0.4063  0.0358  1.4846
 3509SOL    MW413804   4.822   0.909   5.902  0.1450  0.3131  0.0549
 3510SOL     OW13805   1.033   6.184   5.995  0.0583 -0.0582 -0.4029
 3510SOL    HW213806   1.031   6.256   6.057  2.6756  0.1692 -0.4886
 3510SOL    HW313807   1.121   6.147   6.003  0.3793 -0.3087 -3.5955
 3510SOL    MW413808   1.044   6.188   6.004  0.4460 -0.0612 -0.8354
 3511SOL     OW13809   4.242   2.225   0.027 -0.5559 -0.6311 -0.0081
 3511SOL    HW213810   4.223   2.274  -0.053  0.3902 -0.1231  0.0580
 3511SOL    HW313811   4.331   2.251   0.050  0.6570 -3.5866 -0.8598
 3511SOL    MW413812   4.252   2.235   0.019 -0.2710 -0.9540 -0.1118
 3512SOL     OW13813   3.093   3.055   0.308  0.2599 -0.3140  0.6150
 3512SOL    HW213814   3.141   3.136   0.297  0.1441 -0.4336 -1.0463
 3512SOL    HW313815   3.005   3.083   0.334  1.2501 -0.1195  4.2858
 3512SOL    MW413816   3.087   3.069   0.310  0.3753 -0.3041  0.8802
 3513SOL     OW13817   2.785   5.731   6.345 -0.2879 -0.4073  0.4945
 3513SOL    HW213818   2.845   5.758   6.275 -0.7518 -1.9048 -0.5349
 3513SOL    HW313819   2.831   5.662   6.391 -0.0822  0.4187  1.5631
 3513SOL    MW413820   2.799   5.726   6.342 -0.3220 -0.4959  0.4997
 3514SOL     OW13821   5.089   2.243   1.585  0.1328  0.6396  0.1680
 3514SOL    HW213822   5.106   2.165   1.639  3.1797  1.4735  0.5657
 3514SOL    HW313823   5.072   2.313   1.648 -1.7747  0.5414 -0.1747
 3514SOL    MW413824   5.089   2.242   1.601  0.2831  0.7367  0.1753
 3515SOL     OW13825   6.258   1.563   2.460  0.0766  0.1873 -0.2654
 3515SOL    HW213826   6.310   1.641   2.483  1.2900 -0.3899 -0.9317
 3515SOL    HW313827   6.309   1.520   2.392 -1.5602 -0.1655 -1.3149
 3515SOL    MW413828   6.272   1.568   2.454  0.0207  0.0646 -0.4918
 3516SOL     OW13829   2.234   3.249   3.018 -0.2488 -0.1060 -0.6228
 3516SOL    HW213830   2.154   3.241   3.069 -1.0538  0.4401 -1.7647
 3516SOL    HW313831   2.291   3.179   3.051 -0.2825  0.9049  1.7836
 3516SOL    MW413832   2.231   3.238   3.029 -0.3594  0.0994 -0.4559
 3517SOL     OW13833   4.390   3.912   1.890 -0.2192  0.0107  0.4797
 3517SOL    HW213834   4.385   3.959   1.973  1.0541  0.4412  0.3226
 3517SOL    HW313835   4.359   3.974   1.825  1.1878  0.5561  0.3106
 3517SOL    MW413836   4.385   3.926   1.892  0.1344  0.1394  0.4366
 3518SOL     OW13837   5.671   2.104   5.363 -0.0032  0.0642  0.5078
 3518SOL    HW213838   5.667   2.200   5.369  1.4809  0.4435 -2.4683
 3518SOL    HW313839   5.580   2.078   5.348 -0.4419  0.9766  1.4277
 3518SOL    MW413840   5.659   2.113   5.362  0.1348  0.2346  0.2365
 3519SOL     OW13841   3.943   5.164   3.237  0.2061 -0.1524 -0.0452
 3519SOL    HW213842   3.861   5.190   3.281  0.7283  0.0692  0.8278
 3519SOL    HW313843   3.914   5.110   3.164 -0.9805  3.2087 -2.2991
 3519SOL    MW413844   3.928   5.160   3.233  0.1184  0.3203 -0.2274
 3520SOL     OW13845   5.075   1.049   5.970  0.6334  0.4597  0.3603
 3520SOL    HW213846   5.080   1.078   6.060  2.2114  2.1617 -0.2141
 3520SOL    HW313847   5.153   1.086   5.928  1.0813 -2.0066 -1.2219
 3520SOL    MW413848   5.086   1.058   5.976  0.9007  0.3589  0.0758
 3521SOL     OW13849   1.497   1.875   4.798 -0.0035 -0.1446 -0.1453
 3521SOL    HW213850   1.510   1.953   4.745  0.7599  1.1104  1.7684
 3521SOL    HW313851   1.434   1.901   4.865 -2.2222 -2.1681 -1.3090
 3521SOL    MW413852   1.490   1.889   4.800 -0.1955 -0.2460 -0.0463
 3522SOL     OW13853   1.852   3.914   3.919  0.1025 -0.4030  0.4524
 3522SOL    HW213854   1.880   3.959   3.840  1.6019  0.7599  1.5742
 3522SOL    HW313855   1.765   3.948   3.937  0.0298 -0.1646 -0.3177
 3522SOL    MW413856   1.844   3.924   3.911  0.2907 -0.2181  0.4988
 3523SOL     OW13857   0.246   2.983   1.921 -0.6480  0.1093  0.2874
 3523SOL    HW213858   0.317   3.020   1.868 -0.7512  0.4824  0.4080
 3523SOL    HW313859   0.290   2.930   1.987 -0.5128 -0.2636 -0.1004
 3523SOL    MW413860   0.261   2.981   1.922 -0.6438  0.1093  0.2521
 3524SOL     OW13861   0.448   3.005   3.092 -0.5345  0.5754 -0.5283
 3524SOL    HW213862   0.463   2.939   3.158 -0.9584  0.7597 -0.2454
 3524SOL    HW313863   0.517   2.990   3.027 -1.0628 -0.6002 -0.8384
 3524SOL    MW413864   0.459   2.995   3.092 -0.6601  0.4446 -0.5319
 3525SOL     OW13865   0.654   2.304   5.677 -0.5800  0.0588 -1.0223
 3525SOL    HW213866   0.574   2.293   5.727  0.2613 -2.2348 -0.0251
 3525SOL    HW313867   0.648   2.240   5.606  0.2923 -0.0391 -1.0243
 3525SOL    MW413868   0.643   2.294   5.674 -0.3539 -0.2567 -0.8910
 3526SOL     OW13869   2.253   3.647   0.100  0.5718 -0.5424  0.2312
 3526SOL    HW213870   2.189   3.584   0.068 -0.1133 -0.0820  0.6450
 3526SOL    HW313871   2.338   3.611   0.076  0.1181 -0.5654 -1.4229
 3526SOL    MW413872   2.256   3.634   0.093  0.4216 -0.4847  0.0676
 3527SOL     OW13873   2.906   2.278   5.137  0.2478 -0.1447  0.1540
 3527SOL    HW213874   2.863   2.328   5.067  1.9970 -1.3529 -1.9414
 3527SOL    HW313875   2.957   2.343   5.185  0.2508  0.5223 -0.7160
 3527SOL    MW413876   2.907   2.293   5.134  0.4790 -0.2161 -0.2372
 3528SOL     OW13877   1.400   5.988   0.898 -0.6318  0.3346  0.7029
 3528SOL    HW213878   1.456   6.065   0.906 -0.6201  0.5662 -1.2177
 3528SOL    HW313879   1.333   6.013   0.834 -1.9547 -0.5109  1.6999
 3528SOL    MW413880   1.399   6.002   0.891 -0.8048  0.2536  0.5810
 3529SOL     OW13881   2.345   3.081   4.937 -0.2194 -0.5307  0.3172
 3529SOL    HW213882   2.301   3.161   4.965 -1.9241 -1.4638  0.4842
 3529SOL    HW313883   2.302   3.059   4.853  1.2396 -0.5118 -0.4615
 3529SOL    MW413884   2.333   3.088   4.929 -0.2519 -0.6513  0.2365
 3530SOL     OW13885   5.028   2.068   1.198 -0.3080  0.3770 -0.0420
 3530SOL    HW213886   5.116   2.032   1.205 -0.0642  0.9524 -0.0726
 3530SOL    HW313887   4.980   2.004   1.147 -0.1042 -0.2901  0.5852
 3530SOL    MW413888   5.033   2.055   1.192 -0.2490  0.3649  0.0367
 3531SOL     OW13889   5.124   5.258   5.032  0.0799  0.4249 -0.4874
 3531SOL    HW213890   5.053   5.295   5.083 -1.5164  1.0566 -2.9655
 3531SOL    HW313891   5.167   5.196   5.090 -0.7916  1.9783  1.9454
 3531SOL    MW413892   5.120   5.255   5.046 -0.2457  0.7132 -0.4934
 3532SOL     OW13893   4.951   2.218   2.992 -0.0469 -0.6310 -0.0962
 3532SOL    HW213894   4.913   2.295   2.950  0.5714  0.4085  1.1427
 3532SOL    HW313895   4.877   2.159   3.008 -0.8787  0.5791  0.7006
 3532SOL    MW413896   4.936   2.220   2.988 -0.0751 -0.3342  0.1724
 3533SOL     OW13897   0.247   5.769   0.625 -0.3531  0.7282  0.5012
 3533SOL    HW213898   0.272   5.736   0.711  0.4248  2.3898  0.9493
 3533SOL    HW313899   0.152   5.756   0.620 -0.1347 -1.2617  0.7393
 3533SOL    MW413900   0.238   5.763   0.636 -0.2217  0.6849  0.5918
 3534SOL     OW13901   3.237   2.495   2.032  0.3674  0.2899 -0.4378
 3534SOL    HW213902   3.262   2.491   1.940 -1.4945  0.7636 -1.0084
 3534SOL    HW313903   3.188   2.577   2.040 -1.0457 -0.6127  0.5463
 3534SOL    MW413904   3.234   2.506   2.021 -0.0647  0.2333 -0.3832
 3535SOL     OW13905   0.724   2.421   4.736 -0.9712  0.3570 -0.0205
 3535SOL    HW213906   0.715   2.409   4.641 -2.9350  1.7592 -0.0735
 3535SOL    HW313907   0.686   2.342   4.773 -0.2478 -0.1743 -0.3745
 3535SOL    MW413908   0.718   2.409   4.728 -1.1348  0.4719 -0.0742
 3536SOL     OW13909   1.406   5.072   6.132 -0.8819  0.5839 -0.0932
 3536SOL    HW213910   1.343   5.093   6.201 -2.0065  1.5204 -1.3640
 3536SOL    HW313911   1.456   5.153   6.119 -1.4856  0.7959 -1.1847
 3536SOL    MW413912   1.405   5.085   6.139 -1.1099  0.7354 -0.4049
 3537SOL     OW13913   1.244   5.668   1.460  0.0226 -0.4994 -0.2993
 3537SOL    HW213914   1.182   5.599   1.484  0.8179 -0.5673  1.7451
 3537SOL    HW313915   1.328   5.638   1.495  0.9600  0.2127 -1.8527
 3537SOL    MW413916   1.247   5.655   1.468  0.2512 -0.4144 -0.2345
 3538SOL     OW13917   5.085   2.442   1.780  0.2632  0.2145  0.5521
 3538SOL    HW213918   5.005   2.399   1.811 -0.6647  0.6382 -1.1713
 3538SOL    HW313919   5.118   2.489   1.857 -1.2000  0.1288  1.2690
 3538SOL    MW413920   5.079   2.442   1.794 -0.0523  0.2591  0.4193
 3539SOL     OW13921   5.833   3.719   0.434 -0.3306  0.4863 -0.3514
 3539SOL    HW213922   5.918   3.735   0.476 -1.1594 -0.2598  1.7629
 3539SOL    HW313923   5.778   3.792   0.464 -1.0181 -0.2097  0.1306
 3539SOL    MW413924   5.837   3.731   0.444 -0.5307  0.2960 -0.0089
 3540SOL     OW13925   0.340   3.290   3.967 -0.1246 -0.4982  0.1721
 3540SOL    HW213926   0.295   3.216   3.925  0.6318 -0.9754  0.1956
 3540SOL    HW313927   0.359   3.259   4.055  0.6258 -0.4552  0.0299
 3540SOL    MW413928   0.336   3.276   3.973  0.0742 -0.5555  0.1564
 3541SOL     OW13929   0.261   4.762   3.582 -0.4189  0.3565 -0.2424
 3541SOL    HW213930   0.253   4.832   3.518  1.9012 -0.6904 -1.8104
 3541SOL    HW313931   0.211   4.690   3.545  0.8774 -0.2311 -0.9308
 3541SOL    MW413932   0.253   4.762   3.569  0.0583  0.1408 -0.5401
 3542SOL     OW13933   2.201   6.188   5.206 -0.3214  0.4639 -0.1507
 3542SOL    HW213934   2.266   6.120   5.225 -0.3895  0.0081 -1.4256
 3542SOL    HW313935   2.224   6.219   5.118 -0.9603  1.3168 -0.0270
 3542SOL    MW413936   2.212   6.183   5.197 -0.4147  0.5163 -0.3026
 3543SOL     OW13937   0.504   5.832   3.542 -0.0201  0.0671  0.0563
 3543SOL    HW213938   0.451   5.756   3.562  0.3784 -0.2368 -0.0170
 3543SOL    HW313939   0.594   5.799   3.541  0.2649  0.7649  1.1406
 3543SOL    MW413940   0.509   5.818   3.544  0.0701  0.1190  0.1897
 3544SOL     OW13941   3.011   5.914   3.630  0.5991 -0.3007  0.0839
 3544SOL    HW213942   2.981   5.865   3.707 -0.9544 -0.9606 -0.8934
 3544SOL    HW313943   2.931   5.939   3.585  1.3489  2.6359  0.1717
 3544SOL    MW413944   2.997   5.911   3.634  0.4931 -0.0003 -0.0334
 3545SOL     OW13945   0.832   0.988   0.559 -0.1771  0.8652 -0.0784
 3545SOL    HW213946   0.738   0.990   0.578 -0.2005 -0.2267 -0.0196
 3545SOL    HW313947   0.871   1.048   0.623 -0.8534  1.4870 -0.2470
 3545SOL    MW413948   0.825   0.996   0.570 -0.2694  0.8032 -0.0929
 3546SOL     OW13949   0.428   2.885   6.003  0.3519 -0.1244 -0.5702
 3546SOL    HW213950   0.418   2.790   6.011  2.0931 -0.1991  1.4322
 3546SOL    HW313951   0.510   2.897   5.955  0.2067  0.3718 -0.6997
 3546SOL    MW413952   0.437   2.874   5.998  0.5625 -0.0688 -0.3231
 3547SOL     OW13953   1.620   3.156   3.009  0.1307  0.6457 -0.2445
 3547SOL    HW213954   1.568   3.078   2.991 -3.5878  2.6719  0.7629
 3547SOL    HW313955   1.565   3.230   2.982  1.7593  3.0973  2.4518
 3547SOL    MW413956   1.606   3.156   3.003 -0.1450  1.2365  0.2442
 3548SOL     OW13957   6.328   1.664   4.835 -0.0050  0.4438  0.1634
 3548SOL    HW213958   6.266   1.640   4.904 -0.5972 -0.4556 -0.6690
 3548SOL    HW313959   6.299   1.751   4.806  1.0616  1.4562  1.9417
 3548SOL    MW413960   6.316   1.672   4.841  0.0576  0.4587  0.2882
 3549SOL     OW13961   0.362   0.769   1.635  0.2397  1.0220 -0.6675
 3549SOL    HW213962   0.380   0.857   1.601 -1.0661  1.0691 -1.2967
 3549SOL    HW313963   0.306   0.784   1.712  0.9260  0.7828 -0.1136
 3549SOL    MW413964   0.357   0.783   1.641  0.1579  0.9967 -0.6774
 3550SOL     OW13965   1.494   2.867   4.131  0.2378  1.0223 -0.4427
 3550SOL    HW213966   1.490   2.794   4.192  0.5710  0.6454 -0.8662
 3550SOL    HW313967   1.434   2.932   4.168  0.8564  1.0362  0.5807
 3550SOL    MW413968   1.486   2.866   4.144  0.3633  0.9744 -0.3635
 3551SOL     OW13969   2.435   3.127   1.142 -0.2689  0.1826 -0.4330
 3551SOL    HW213970   2.414   3.218   1.121  0.0002  0.2265 -0.5141
 3551SOL    HW313971   2.351   3.081   1.133 -0.5235  0.5161  0.1495
 3551SOL    MW413972   2.421   3.133   1.138 -0.2670  0.2324 -0.3668
 3552SOL     OW13973   0.128   3.310   1.131 -0.5110  0.1921 -0.5555
 3552SOL    HW213974   0.041   3.347   1.143  0.3185  1.6828  1.4896
 3552SOL    HW313975   0.118   3.216   1.149 -1.9155  0.0475 -1.8813
 3552SOL    MW413976   0.115   3.302   1.135 -0.5869  0.3697 -0.4606
 3553SOL     OW13977   0.465   2.352   2.495 -0.1103 -0.3428 -0.4181
 3553SOL    HW213978   0.548   2.390   2.467  0.3614 -0.2648  1.0303
 3553SOL    HW313979   0.399   2.415   2.465  0.3512 -0.2810 -1.3539
 3553SOL    MW413980   0.467   2.365   2.487  0.0128 -0.3244 -0.3505
 3554SOL     OW13981   2.781   5.940   3.441  0.3393 -0.0636  0.8600
 3554SOL    HW213982   2.686   5.936   3.427  0.2238 -1.0155  1.7709
 3554SOL    HW313983   2.809   5.849   3.439  0.8525 -0.0085  2.9545
 3554SOL    MW413984   2.772   5.927   3.439  0.3918 -0.1819  1.2565
 3555SOL     OW13985   1.151   4.429   6.300  0.1452 -0.0791 -0.4917
 3555SOL    HW213986   1.186   4.517   6.314  1.2379 -0.5401 -0.2118
 3555SOL    HW313987   1.144   4.420   6.205  0.6725  0.0720 -0.5457
 3555SOL    MW413988   1.154   4.439   6.289  0.3589 -0.1200 -0.4619
 3556SOL     OW13989   1.390   1.286   3.267  0.6006 -0.2718  0.1382
 3556SOL    HW213990   1.401   1.373   3.306 -0.3774  0.5703 -1.4003
 3556SOL    HW313991   1.477   1.247   3.272  1.6664  1.7599 -1.3718
 3556SOL    MW413992   1.403   1.292   3.273  0.6122  0.1074 -0.2640
 3557SOL     OW13993   2.490   1.593   4.251 -0.3348  0.2444 -0.0169
 3557SOL    HW213994   2.469   1.678   4.290  1.4191  0.4991  0.4683
 3557SOL    HW313995   2.493   1.533   4.326  0.5357  0.2095 -0.0711
 3557SOL    MW413996   2.488   1.596   4.266  0.0114  0.2734  0.0399
 3558SOL     OW13997   4.198   1.294   3.182 -0.3213  0.0385  0.6802
 3558SOL    HW213998   4.288   1.273   3.158 -0.2697 -1.7424  2.1837
 3558SOL    HW313999   4.174   1.225   3.244 -2.9669  0.0581 -0.2202
 3558SOL    MW414000   4.207   1.282   3.187 -0.6636 -0.1939  0.7597
 3559SOL     OW14001   5.777   1.565   2.263  0.4792  0.1689  0.0911
 3559SOL    HW214002   5.768   1.496   2.198 -2.0422  0.6316 -0.1477
 3559SOL    HW314003   5.866   1.554   2.298  0.9711 -1.6916 -1.5715
 3559SOL    MW414004   5.788   1.555   2.259  0.2114 -0.0155 -0.1598
 3560SOL     OW14005   0.687   5.416   3.133  0.9661  0.0004 -0.2253
 3560SOL    HW214006   0.658   5.469   3.207 -1.2174  1.6528 -2.1092
 3560SOL    HW314007   0.704   5.330   3.170 -0.7231  0.5564  2.0683
 3560SOL    MW414008   0.686   5.412   3.147  0.4551  0.2918 -0.1713
 3561SOL     OW14009   3.564   3.294   2.998 -0.1653 -0.3849  0.5755
 3561SOL    HW214010   3.654   3.283   2.966 -0.2882 -1.7957  0.6395
 3561SOL    HW314011   3.535   3.204   3.016 -1.9414 -0.0334 -0.4096
 3561SOL    MW414012   3.572   3.280   2.997 -0.4158 -0.5247  0.4540
 3562SOL     OW14013   2.675   5.919   5.962  0.1013  0.1795  0.3099
 3562SOL    HW214014   2.689   5.962   6.046  1.0097  1.7996 -0.6273
 3562SOL    HW314015   2.624   5.841   5.983  1.7145 -0.3465  2.5832
 3562SOL    MW414016   2.670   5.914   5.976  0.4340  0.3238  0.4862
 3563SOL     OW14017   2.551   4.369   2.137  0.1473  0.3631 -0.0033
 3563SOL    HW214018   2.614   4.411   2.079  1.7286 -1.7395  0.0621
 3563SOL    HW314019   2.596   4.364   2.221  0.2071 -1.6915 -0.0973
 3563SOL    MW414020   2.566   4.374   2.140  0.3639 -0.1854 -0.0071
 3564SOL     OW14021   2.213   2.554   4.423  0.2126 -0.1118  0.3602
 3564SOL    HW214022   2.299   2.595   4.437  0.8667 -1.3625  0.1168
 3564SOL    HW314023   2.225   2.500   4.345 -1.2503  0.8682 -0.5960
 3564SOL    MW414024   2.226   2.552   4.414  0.1059 -0.1475  0.2019
 3565SOL     OW14025   3.446   0.602   2.627  0.1832 -0.3223  0.1942
 3565SOL    HW214026   3.541   0.592   2.621  0.1692 -0.9423  0.8600
 3565SOL    HW314027   3.413   0.554   2.551  0.3854 -0.4699  0.1985
 3565SOL    MW414028   3.454   0.594   2.616  0.2080 -0.4236  0.2826
 3566SOL     OW14029   4.402   3.160   4.820 -0.4549  0.7211 -0.1992
 3566SOL    HW214030   4.406   3.168   4.724  1.8286 -0.6863 -0.2835
 3566SOL    HW314031   4.442   3.075   4.839 -0.4029  1.1893  2.0450
 3566SOL    MW414032   4.408   3.150   4.810 -0.1468  0.5972  0.0858
 3567SOL     OW14033   5.679   1.720   4.505 -0.3620  0.0813  0.0445
 3567SOL    HW214034   5.584   1.714   4.516 -0.4771  0.3816 -0.6999
 3567SOL    HW314035   5.691   1.788   4.438  0.3798  0.0906  0.1764
 3567SOL    MW414036   5.668   1.729   4.498 -0.2793  0.1221 -0.0363
 3568SOL     OW14037   4.745   6.140   5.465  0.0996  0.1213  0.2509
 3568SOL    HW214038   4.837   6.150   5.489 -0.2913  1.7098  1.2364
 3568SOL    HW314039   4.738   6.180   5.379 -0.2383  3.2555  1.5823
 3568SOL    MW414040   4.756   6.147   5.457  0.0035  0.7444  0.5566
 3569SOL     OW14041   3.744   4.671   3.644 -0.0713  0.4529  0.4521
 3569SOL    HW214042   3.665   4.641   3.689  0.2360 -2.7272 -0.9269
 3569SOL    HW314043   3.814   4.661   3.709 -0.0055 -1.8274  0.0791
 3569SOL    MW414044   3.743   4.666   3.659 -0.0221 -0.2676  0.2210
 3570SOL     OW14045   1.685   5.675   5.160  0.0765  0.0494 -0.7226
 3570SOL    HW214046   1.637   5.653   5.240  0.7414 -0.6820 -0.5094
 3570SOL    HW314047   1.711   5.766   5.171 -0.4065  0.1501 -0.3991
 3570SOL    MW414048   1.682   5.684   5.172  0.1005 -0.0338 -0.6518
 3571SOL     OW14049   5.699   6.057   3.358  0.3099 -0.0679  0.1059
 3571SOL    HW214050   5.789   6.084   3.378  0.0424  2.2366 -1.3759
 3571SOL    HW314051   5.652   6.071   3.440  0.8845  0.9283  0.2880
 3571SOL    MW414052   5.705   6.063   3.372  0.3504  0.3676 -0.0656
 3572SOL     OW14053   2.396   5.730   1.103  0.0688 -0.1665  0.2118
 3572SOL    HW214054   2.466   5.670   1.077 -0.4155 -1.2415  1.2831
 3572SOL    HW314055   2.406   5.739   1.198 -0.2260  1.0139  0.1494
 3572SOL    MW414056   2.407   5.723   1.112 -0.0340 -0.1526  0.3449
 3573SOL     OW14057   3.987   5.257   4.840 -0.6768 -0.5114  0.1027
 3573SOL    HW214058   4.024   5.257   4.751 -0.2162  0.7159  0.2823
 3573SOL    HW314059   3.964   5.348   4.856  0.4482 -0.4802  1.7372
 3573SOL    MW414060   3.989   5.269   4.830 -0.4676 -0.3453  0.3421
 3574SOL     OW14061   0.470   2.500   1.877 -0.6457 -0.1815  0.1414
 3574SOL    HW214062   0.529   2.425   1.882  0.7176  0.6962 -1.7597
 3574SOL    HW314063   0.527   2.574   1.859 -1.9694  1.3577  1.9030
 3574SOL    MW414064   0.485   2.500   1.875 -0.6405  0.1374  0.1230
 3575SOL     OW14065   6.160   4.649   2.797  0.4988  0.1772  1.2417
 3575SOL    HW214066   6.227   4.627   2.731 -0.4466 -1.5280  0.7965
 3575SOL    HW314067   6.188   4.603   2.876  0.5548  0.5692  1.4538
 3575SOL    MW414068   6.173   4.640   2.798  0.3814  0.0039  1.2109
 3576SOL     OW14069   6.119   4.419   1.014 -0.1972  0.3592  0.0480
 3576SOL    HW214070   6.175   4.486   1.053 -0.3190 -0.1314  1.1089
 3576SOL    HW314071   6.060   4.393   1.084 -0.3785 -0.6114 -0.4376
 3576SOL    MW414072   6.119   4.424   1.028 -0.2372  0.1664  0.1239
 3577SOL     OW14073   4.301   2.448   1.900 -0.0916  0.5861 -0.1763
 3577SOL    HW214074   4.212   2.417   1.917  0.2292 -0.8656 -0.9617
 3577SOL    HW314075   4.334   2.391   1.831  2.1713 -0.3146  1.4955
 3577SOL    MW414076   4.294   2.436   1.893  0.2493  0.2757 -0.0593
 3578SOL     OW14077   3.852   6.163   5.258 -0.1804 -0.0107 -0.1122
 3578SOL    HW214078   3.897   6.104   5.319 -0.4965  1.0901  1.2492
 3578SOL    HW314079   3.920   6.189   5.196  0.0476 -1.5072 -0.5179
 3578SOL    MW414080   3.867   6.158   5.258 -0.1920 -0.0629  0.0139
 3579SOL     OW14081   0.180   5.812   4.371 -0.2392 -0.5667  0.0415
 3579SOL    HW214082   0.163   5.877   4.303  1.1654 -1.3625 -1.1408
 3579SOL    HW314083   0.152   5.854   4.452 -1.6344  0.5567 -0.9604
 3579SOL    MW414084   0.174   5.826   4.373 -0.2380 -0.5234 -0.2467
 3580SOL     OW14085   0.395   6.086   4.085 -0.1066 -0.1267 -0.4784
 3580SOL    HW214086   0.326   6.020   4.091 -0.6657  0.4856  0.1084
 3580SOL    HW314087   0.362   6.159   4.138  0.7855  0.3638 -0.5829
 3580SOL    MW414088   0.381   6.087   4.093 -0.0627  0.0188 -0.4148
 3581SOL     OW14089   1.598   2.007   1.616  0.0448 -0.5447  0.2393
 3581SOL    HW214090   1.576   1.947   1.545 -0.3366  0.2799 -0.3438
 3581SOL    HW314091   1.554   1.970   1.693 -2.0668  0.1738 -0.5532
 3581SOL    MW414092   1.590   1.994   1.617 -0.2841 -0.3411  0.0578
 3582SOL     OW14093   2.931   5.059   0.448  0.4088 -0.4452 -0.0632
 3582SOL    HW214094   2.909   5.044   0.540  0.6547 -0.1147  0.0502
 3582SOL    HW314095   3.009   5.006   0.433  0.3903 -0.4703 -0.0709
 3582SOL    MW414096   2.938   5.050   0.458  0.4388 -0.4049 -0.0493
 3583SOL     OW14097   5.124   0.830   4.252 -0.3481 -0.3449 -0.1661
 3583SOL    HW214098   5.149   0.920   4.275  0.6256 -0.8921  1.0740
 3583SOL    HW314099   5.034   0.821   4.282  0.3691 -0.5326  2.1968
 3583SOL    MW414100   5.116   0.841   4.259 -0.1250 -0.4418  0.3093
 3584SOL     OW14101   4.795   4.733   2.603  0.1602  0.5265  0.2495
 3584SOL    HW214102   4.794   4.817   2.556 -0.2265  0.3726 -0.0221
 3584SOL    HW314103   4.805   4.757   2.695 -2.0862  1.0048  0.4286
 3584SOL    MW414104   4.796   4.747   2.609 -0.1872  0.5693  0.2373
 3585SOL     OW14105   2.373   3.582   1.981  0.4087  0.6621  0.7210
 3585SOL    HW214106   2.398   3.492   1.965 -0.2484  0.7324 -0.8860
 3585SOL    HW314107   2.373   3.591   2.077 -0.4143 -1.2846  0.9419
 3585SOL    MW414108   2.377   3.572   1.992  0.2134  0.4145  0.5381
 3586SOL     OW14109   6.102   2.351   0.832 -0.7155 -0.2301  0.1527
 3586SOL    HW214110   6.126   2.444   0.827 -1.1499 -0.1344 -0.2461
 3586SOL    HW314111   6.156   2.309   0.765  1.9157 -0.8283  2.4766
 3586SOL    MW414112   6.112   2.358   0.822 -0.4257 -0.2964  0.4067
 3587SOL     OW14113   5.305   1.073   0.105 -0.0012 -0.5776 -0.0690
 3587SOL    HW214114   5.300   1.063   0.010  1.5000 -2.0106 -0.0396
 3587SOL    HW314115   5.334   0.988   0.136  2.2971  0.6665  1.4012
 3587SOL    MW414116   5.308   1.060   0.096  0.5001 -0.6025  0.1289
 3588SOL     OW14117   4.487   5.157   0.838  0.2359 -0.1824  0.1669
 3588SOL    HW214118   4.568   5.200   0.866 -0.1462  0.2198  0.6647
 3588SOL    HW314119   4.488   5.165   0.742  2.0829 -2.5409 -0.0789
 3588SOL    MW414120   4.498   5.164   0.829  0.4292 -0.4405  0.2002
 3589SOL     OW14121   4.158   3.326   2.381  0.3406 -0.4030 -0.7293
 3589SOL    HW214122   4.182   3.260   2.446 -0.8567 -0.6453 -0.5133
 3589SOL    HW314123   4.236   3.337   2.328  2.8943  2.6749  3.0786
 3589SOL    MW414124   4.171   3.319   2.383  0.5196 -0.0289 -0.1984
 3590SOL     OW14125   5.444   4.597   2.034  0.2149 -0.3509  0.3845
 3590SOL    HW214126   5.377   4.626   2.096 -2.6395 -1.4548 -1.9607
 3590SOL    HW314127   5.524   4.593   2.086 -1.6913  0.0500  3.6417
 3590SOL    MW414128   5.445   4.600   2.049 -0.4132 -0.4436  0.5048
 3591SOL     OW14129   1.573   4.719   3.192 -0.1129 -0.1624 -0.2609
 3591SOL    HW214130   1.563   4.690   3.101  0.0591  0.6134 -0.5301
 3591SOL    HW314131   1.668   4.728   3.204 -0.1406 -0.1785 -0.0335
 3591SOL    MW414132   1.584   4.716   3.182 -0.0939 -0.0622 -0.2665
 3592SOL     OW14133   3.160   4.905   0.475 -0.1192  0.1229 -0.4757
 3592SOL    HW214134   3.237   4.881   0.423  0.2030 -0.0657  0.0789
 3592SOL    HW314135   3.163   4.846   0.550 -0.6020  0.3655 -0.2657
 3592SOL    MW414136   3.171   4.894   0.478 -0.1404  0.1300 -0.3749
 3593SOL     OW14137   2.778   1.489   0.095 -1.0940  0.3069  0.1164
 3593SOL    HW214138   2.758   1.515   0.005  0.6301 -0.0294 -0.4078
 3593SOL    HW314139   2.840   1.555   0.126  0.0473 -0.7968  0.2495
 3593SOL    MW414140   2.783   1.501   0.087 -0.7160  0.1169  0.0648
 3594SOL     OW14141   1.969   4.735   4.535  0.9125 -0.3699  0.0206
 3594SOL    HW214142   1.939   4.670   4.470 -2.1264  1.1928 -0.3005
 3594SOL    HW314143   2.036   4.785   4.488 -1.3421  0.8492 -2.1271
 3594SOL    MW414144   1.974   4.733   4.520  0.2141 -0.0028 -0.3051
 3595SOL     OW14145   1.824   0.623   3.420 -0.0111  0.4903  0.4708
 3595SOL    HW214146   1.794   0.713   3.412 -0.7921  0.1781 -0.2249
 3595SOL    HW314147   1.746   0.570   3.405  0.0020 -0.2983  2.7417
 3595SOL    MW414148   1.810   0.627   3.417 -0.1124  0.3450  0.6786
 3596SOL     OW14149   0.783   5.497   3.791 -0.3092 -0.0432  0.3153
 3596SOL    HW214150   0.838   5.426   3.823  0.6192 -0.1615 -1.4667
 3596SOL    HW314151   0.695   5.475   3.822  0.1505 -1.3665  0.7345
 3596SOL    MW414152   0.779   5.485   3.800 -0.1261 -0.2334  0.1355
 3597SOL     OW14153   2.530   4.919   1.737 -0.3931 -0.0571 -0.0852
 3597SOL    HW214154   2.440   4.930   1.707 -0.1335  1.2040 -0.4456
 3597SOL    HW314155   2.581   4.981   1.685  0.5754 -0.2152  0.6383
 3597SOL    MW414156   2.525   4.929   1.726 -0.2310  0.0884 -0.0373
 3598SOL     OW14157   3.072   0.344   3.394 -0.2624  0.0200 -0.1218
 3598SOL    HW214158   3.066   0.436   3.419  0.6000  0.2504 -0.7336
 3598SOL    HW314159   3.005   0.333   3.327  0.0771  0.3692 -0.5220
 3598SOL    MW414160   3.062   0.355   3.389 -0.1038  0.0965 -0.2553
 3599SOL     OW14161   2.130   1.095   4.243 -0.1359 -0.2680  0.5941
 3599SOL    HW214162   2.204   1.078   4.185  1.2873 -0.7371  2.4487
 3599SOL    HW314163   2.163   1.161   4.305 -1.5861  0.1838  0.9188
 3599SOL    MW414164   2.144   1.102   4.244 -0.1395 -0.2703  0.8816
 3600SOL     OW14165   0.126   4.424   2.079 -0.5336 -0.3312 -0.6043
 3600SOL    HW214166   0.057   4.490   2.067  0.0147  0.8174  1.9437
 3600SOL    HW314167   0.121   4.400   2.171  2.0778 -0.6819 -0.4721
 3600SOL    MW414168   0.116   4.429   2.089 -0.1167 -0.2259 -0.2506
 3601SOL     OW14169   1.632   2.652   1.971 -0.2181 -0.0663 -0.1954
 3601SOL    HW214170   1.581   2.583   2.014 -1.0315  0.4532 -0.3097
 3601SOL    HW314171   1.570   2.695   1.913  0.5719  0.0351 -0.9809
 3601SOL    MW414172   1.618   2.649   1.969 -0.2212  0.0156 -0.3141
 3602SOL     OW14173   4.832   1.255   4.094 -0.5232  1.0349  0.0487
 3602SOL    HW214174   4.824   1.190   4.024 -0.9373  1.3639 -0.2116
 3602SOL    HW314175   4.754   1.309   4.086  0.4121  2.3491 -0.5358
 3602SOL    MW414176   4.821   1.253   4.084 -0.4544  1.2517 -0.0627
 3603SOL     OW14177   1.052   3.096   3.179  0.7063  0.0495 -0.3251
 3603SOL    HW214178   1.047   3.177   3.229  2.8076  0.1413 -0.1756
 3603SOL    HW314179   1.141   3.064   3.194  0.0022 -2.1908 -0.5534
 3603SOL    MW414180   1.063   3.102   3.187  0.8906 -0.2340 -0.3355
 3604SOL     OW14181   0.871   4.424   6.342  0.0283 -0.3815  0.2697
 3604SOL    HW214182   0.834   4.513   6.345  0.8770  0.1354 -2.3723
 3604SOL    HW314183   0.964   4.437   6.355  0.1244 -0.9060  0.1112
 3604SOL    MW414184   0.878   4.437   6.344  0.1530 -0.3825 -0.0998
 3605SOL     OW14185   6.312   6.378   0.655  0.1739 -0.0498  0.3378
 3605SOL    HW214186   6.392   6.404   0.610  0.3517 -0.1484  0.5946
 3605SOL    HW314187   6.263   6.460   0.667 -0.5993 -0.2078 -1.4073
 3605SOL    MW414188   6.316   6.392   0.651  0.0954 -0.0837  0.1415
 3606SOL     OW14189   5.779   2.472   3.371 -0.1898 -0.1146  0.1352
 3606SOL    HW214190   5.695   2.513   3.352  1.3031  3.1176 -0.2551
 3606SOL    HW314191   5.832   2.489   3.294  1.6826  0.6348  1.5061
 3606SOL    MW414192   5.775   2.480   3.358  0.2542  0.4107  0.2646
 3607SOL     OW14193   1.743   6.249   1.447  0.6022  0.0175  0.2390
 3607SOL    HW214194   1.674   6.274   1.385  0.7809 -0.6823 -0.2615
 3607SOL    HW314195   1.723   6.298   1.526  0.6406  1.3108 -0.5240
 3607SOL    MW414196   1.731   6.259   1.449  0.6309  0.0958  0.0723
 3608SOL     OW14197   1.802   0.892   2.773  0.4298  0.2797  0.3689
 3608SOL    HW214198   1.850   0.911   2.692 -1.8816  1.7880 -0.7358
 3608SOL    HW314199   1.716   0.862   2.743  0.3212 -1.5783  2.2906
 3608SOL    MW414200   1.797   0.890   2.758  0.1105  0.2336  0.4767
 3609SOL     OW14201   4.170   4.114   0.261 -0.3606  0.2314  0.6336
 3609SOL    HW214202   4.144   4.037   0.210  1.6375  0.3896 -0.7324
 3609SOL    HW314203   4.090   4.166   0.268 -1.2543 -0.9629 -0.2302
 3609SOL    MW414204   4.156   4.110   0.255 -0.2149  0.0947  0.3394
 3610SOL     OW14205   5.952   4.030   1.401 -0.0115 -0.1976 -0.2762
 3610SOL    HW214206   5.884   4.086   1.438 -0.3057  0.6172 -1.9574
 3610SOL    HW314207   5.949   3.950   1.455 -2.6289 -0.3918 -0.5644
 3610SOL    MW414208   5.943   4.027   1.413 -0.3957 -0.1157 -0.5361
 3611SOL     OW14209  -0.004   4.535   1.475 -0.0471 -0.3070 -0.0531
 3611SOL    HW214210  -0.092   4.564   1.500 -1.0940 -2.1560 -1.2801
 3611SOL    HW314211   0.027   4.484   1.550 -1.7419 -2.9575 -1.0019
 3611SOL    MW414212  -0.012   4.532   1.488 -0.4088 -0.9006 -0.3402
 3612SOL     OW14213   0.317   5.843   2.009  0.2050  0.0782 -0.2590
 3612SOL    HW214214   0.235   5.892   2.001  0.0262  0.3639  2.4169
 3612SOL    HW314215   0.344   5.827   1.918 -0.9309  3.0732 -1.2774
 3612SOL    MW414216   0.309   5.848   1.996  0.0315  0.5110 -0.0403
 3613SOL     OW14217   5.280   2.142   2.309 -0.2647  0.3563  0.5301
 3613SOL    HW214218   5.338   2.218   2.316 -0.3702  0.3971  1.0186
 3613SOL    HW314219   5.300   2.089   2.386  0.1319 -0.3435 -0.0471
 3613SOL    MW414220   5.290   2.145   2.320 -0.2263  0.2693  0.5184
 3614SOL     OW14221   2.562   1.235   0.851 -0.4004  0.0855 -0.0722
 3614SOL    HW214222   2.592   1.260   0.764 -1.8986  2.5788  0.0354
 3614SOL    HW314223   2.611   1.291   0.911 -1.2559  0.2452  0.4892
 3614SOL    MW414224   2.572   1.246   0.847 -0.7109  0.4356  0.0161
 3615SOL     OW14225   3.068   5.486   0.215  0.1492 -0.0376  0.0101
 3615SOL    HW214226   3.155   5.446   0.211 -0.2760 -1.0773  0.7270
 3615SOL    HW314227   3.081   5.565   0.268  0.5440 -0.5278  0.6637
 3615SOL    MW414228   3.081   5.491   0.221  0.1452 -0.2394  0.1909
 3616SOL     OW14229   2.077   5.057   0.947  0.0975 -0.4714  0.5873
 3616SOL    HW214230   2.132   5.094   0.877 -0.0669 -1.6830 -0.2246
 3616SOL    HW314231   2.140   5.028   1.013  0.3061 -0.0135  0.5947
 3616SOL    MW414232   2.093   5.058   0.946  0.1034 -0.5709  0.4812
 3617SOL     OW14233   3.849   4.851  -0.028 -0.5941 -0.0189  0.4033
 3617SOL    HW214234   3.790   4.919  -0.060 -1.2167 -0.7455 -0.0192
 3617SOL    HW314235   3.906   4.896   0.034  1.1318  1.6089 -2.1749
 3617SOL    MW414236   3.849   4.866  -0.024 -0.4485  0.1000  0.0074
 3618SOL     OW14237   0.784   3.359   1.877 -0.1499  0.0757  0.3151
 3618SOL    HW214238   0.812   3.442   1.838  2.0771 -1.1192 -0.8176
 3618SOL    HW314239   0.688   3.362   1.874 -0.1012  1.5862 -1.9409
 3618SOL    MW414240   0.775   3.370   1.872  0.1503  0.1173 -0.1320
 3619SOL     OW14241   6.375   1.025   4.524  0.0716 -0.0029  0.1067
 3619SOL    HW214242   6.367   0.974   4.604 -0.7058 -0.9763 -0.5747
 3619SOL    HW314243   6.284   1.040   4.495  0.3558 -0.4793 -1.0884
 3619SOL    MW414244   6.362   1.020   4.531  0.0065 -0.1942 -0.1409
 3620SOL     OW14245   5.735   4.438   6.261 -0.3326 -0.0511 -0.4796
 3620SOL    HW214246   5.692   4.388   6.193 -1.8914  0.3484  0.1793
 3620SOL    HW314247   5.669   4.500   6.291  0.2986 -0.2197  1.3855
 3620SOL    MW414248   5.721   4.439   6.256 -0.4550 -0.0206 -0.1466
 3621SOL     OW14249   0.567   0.296   0.339 -0.0650  0.4380  0.1537
 3621SOL    HW214250   0.610   0.380   0.349 -0.0413  0.2690  1.7212
 3621SOL    HW314251   0.537   0.274   0.427  0.3549 -1.4157 -0.1260
 3621SOL    MW414252   0.569   0.304   0.352 -0.0065  0.1712  0.3236
 3622SOL     OW14253   4.658   0.444   4.022 -0.4496 -0.1904 -0.3340
 3622SOL    HW214254   4.695   0.380   3.961 -0.1774 -1.1714  0.8350
 3622SOL    HW314255   4.731   0.468   4.079 -0.6050  1.0122 -0.5943
 3622SOL    MW414256   4.673   0.439   4.021 -0.4342 -0.1611 -0.2141
 3623SOL     OW14257   2.946   3.842   0.487 -0.0376 -0.2350 -0.2930
 3623SOL    HW214258   2.934   3.788   0.409 -0.5017 -0.7649  0.1312
 3623SOL    HW314259   2.996   3.786   0.547  0.2972  0.1591 -0.2015
 3623SOL    MW414260   2.951   3.828   0.485 -0.0546 -0.2530 -0.2250
 3624SOL     OW14261   4.819   6.379   6.097  0.1099  0.3189 -0.1017
 3624SOL    HW214262   4.896   6.421   6.137  0.3492  0.5081 -0.7439
 3624SOL    HW314263   4.749   6.444   6.107  0.1912  0.3994 -0.0538
 3624SOL    MW414264   4.820   6.393   6.103  0.1522  0.3545 -0.1802
 3625SOL     OW14265   1.537   0.578   4.183  1.1209 -0.9773  0.4845
 3625SOL    HW214266   1.516   0.563   4.275  0.4263 -2.2649  0.1460
 3625SOL    HW314267   1.593   0.655   4.183  0.0454 -0.1525  1.8703
 3625SOL    MW414268   1.541   0.586   4.195  0.8873 -1.0384  0.6227
 3626SOL     OW14269   3.315   1.032   5.911 -0.0529 -0.1395  0.4366
 3626SOL    HW214270   3.329   1.106   5.970  1.7962 -1.6752  2.0673
 3626SOL    HW314271   3.402   0.994   5.900 -0.4269 -0.3064 -2.8660
 3626SOL    MW414272   3.328   1.037   5.917  0.1417 -0.3641  0.2160
 3627SOL     OW14273   5.085   4.051   3.758  0.0529 -0.0570 -0.0568
 3627SOL    HW214274   5.153   4.109   3.793 -0.9746  0.0312  1.9235
 3627SOL    HW314275   5.056   4.093   3.677  0.1636  1.5776  0.7156
 3627SOL    MW414276   5.090   4.064   3.752 -0.0680  0.1703  0.3064
 3628SOL     OW14277   3.548   2.750   2.835  0.0007  0.3342  0.4104
 3628SOL    HW214278   3.590   2.835   2.819  0.5276  0.1300  0.6556
 3628SOL    HW314279   3.622   2.689   2.842 -0.4036 -0.3362 -0.8212
 3628SOL    MW414280   3.564   2.753   2.834  0.0169  0.2188  0.2802
 3629SOL     OW14281   4.574   0.092   4.972  0.1158 -0.0710  0.0045
 3629SOL    HW214282   4.481   0.106   4.957 -0.3984 -1.7759  1.3167
 3629SOL    HW314283   4.608   0.179   4.995 -1.3228  0.4016  0.4345
 3629SOL    MW414284   4.566   0.106   4.973 -0.1418 -0.2336  0.2344
 3630SOL     OW14285   0.793   6.243   1.650  0.0661 -0.1622  0.3397
 3630SOL    HW214286   0.887   6.237   1.666  0.4754 -0.4221 -1.8671
 3630SOL    HW314287   0.781   6.208   1.562 -2.1120 -0.1282  0.5644
 3630SOL    MW414288   0.804   6.237   1.641 -0.1673 -0.1920  0.0782
 3631SOL     OW14289   3.768   6.388   2.073 -0.1719 -0.0448  0.2535
 3631SOL    HW214290   3.839   6.328   2.094  0.9944 -0.1641 -3.2921
 3631SOL    HW314291   3.701   6.333   2.033 -1.1618  0.4196  1.2385
 3631SOL    MW414292   3.769   6.373   2.070 -0.1487  0.0008 -0.0844
 3632SOL     OW14293   1.567   1.254   4.721 -0.1521 -0.1102  0.7961
 3632SOL    HW214294   1.508   1.253   4.796  0.5083 -1.6218  1.3339
 3632SOL    HW314295   1.528   1.192   4.659 -0.4298  0.7597  0.0788
 3632SOL    MW414296   1.554   1.245   4.723 -0.1016 -0.1948  0.7724
 3633SOL     OW14297   5.857   5.703   0.917  0.1338 -0.2536 -0.0109
 3633SOL    HW214298   5.796   5.705   0.991 -0.3201  1.6184 -0.3814
 3633SOL    HW314299   5.930   5.649   0.947 -0.5495 -0.4342  1.3998
 3633SOL    MW414300   5.859   5.696   0.931 -0.0163 -0.0305  0.1264
 3634SOL     OW14301   5.901   1.382   5.386  0.7051 -0.2674 -0.5611
 3634SOL    HW214302   5.909   1.475   5.409 -0.5636  0.3427 -2.3560
 3634SOL    HW314303   5.809   1.361   5.401  1.3112 -1.7698  1.4835
 3634SOL    MW414304   5.890   1.391   5.391  0.6177 -0.3851 -0.5282
 3635SOL     OW14305   1.044   6.349   0.568 -0.4606 -0.1764 -0.4822
 3635SOL    HW214306   0.988   6.423   0.593  0.8000  0.3107  1.0010
 3635SOL    HW314307   1.100   6.385   0.499  0.2425  0.3109  0.3297
 3635SOL    MW414308   1.044   6.364   0.562 -0.2015 -0.0478 -0.1794
 3636SOL     OW14309   1.929   0.883   3.132  0.3198  0.4084  0.2087
 3636SOL    HW214310   1.983   0.869   3.209  0.0112 -0.5938  0.2468
 3636SOL    HW314311   1.905   0.976   3.136  1.7136  0.7748  0.3846
 3636SOL    MW414312   1.933   0.894   3.142  0.4630  0.3246  0.2369
 3637SOL     OW14313   5.839   4.101   1.086  0.2517 -0.0232  0.1540
 3637SOL    HW214314   5.933   4.087   1.074  0.1146  0.4124 -1.6957
 3637SOL    HW314315   5.812   4.031   1.146  1.5940 -0.6875  0.0273
 3637SOL    MW414316   5.847   4.090   1.093  0.4107 -0.0533 -0.1068
 3638SOL     OW14317   3.815   1.607   4.546  0.0169  0.0639  0.0942
 3638SOL    HW214318   3.760   1.684   4.558  1.4285  1.1144 -0.0319
 3638SOL    HW314319   3.852   1.617   4.459  2.7096  0.9176  1.2541
 3638SOL    MW414320   3.813   1.618   4.536  0.5584  0.3151  0.2306
 3639SOL     OW14321   5.018   5.776   5.883 -0.4444 -0.1373 -0.1438
 3639SOL    HW214322   4.947   5.801   5.942 -1.7496 -1.2175 -1.2115
 3639SOL    HW314323   5.089   5.747   5.942 -1.2795 -0.0956  0.9131
 3639SOL    MW414324   5.018   5.775   5.899 -0.7268 -0.2743 -0.1452
 3640SOL     OW14325   1.694   4.916   3.940 -0.5281 -0.0695 -0.1618
 3640SOL    HW214326   1.603   4.891   3.923 -0.9463  1.5856 -0.4451
 3640SOL    HW314327   1.701   5.006   3.909  1.2179 -0.1659 -0.1432
 3640SOL    MW414328   1.683   4.924   3.934 -0.3529  0.1362 -0.1967
 3641SOL     OW14329   2.359   3.336   0.805  0.0890 -0.0401 -0.5381
 3641SOL    HW214330   2.302   3.285   0.862 -0.3337 -1.5728 -2.2669
 3641SOL    HW314331   2.331   3.427   0.818 -1.4359 -0.5716  0.0713
 3641SOL    MW414332   2.348   3.341   0.815 -0.1680 -0.3124 -0.6858
 3642SOL     OW14333   0.025   2.040   1.734  0.0682  0.8010 -0.5735
 3642SOL    HW214334   0.063   2.077   1.813 -0.7578 -0.7647  0.6256
 3642SOL    HW314335  -0.069   2.032   1.754 -0.4693  1.9703 -2.3791
 3642SOL    MW414336   0.017   2.043   1.747 -0.1117  0.7487 -0.6535
 3643SOL     OW14337   0.504   5.856   0.387 -0.0621  0.0532 -0.2462
 3643SOL    HW214338   0.514   5.951   0.393  1.0588 -0.0944  0.5959
 3643SOL    HW314339   0.582   5.828   0.338 -1.4855 -0.2472 -2.4639
 3643SOL    MW414340   0.516   5.865   0.381 -0.1020 -0.0059 -0.4277
 3644SOL     OW14341   0.052   5.977   2.000  0.2510 -0.5738  0.5647
 3644SOL    HW214342  -0.019   6.039   1.985 -0.6853 -1.4602  1.2187
 3644SOL    HW314343   0.009   5.892   2.011  1.4148 -1.1558  0.8837
 3644SOL    MW414344   0.037   5.974   1.999  0.2810 -0.7676  0.6931
 3645SOL     OW14345   5.057   0.285   5.964 -0.6910 -0.6959 -0.5070
 3645SOL    HW214346   5.049   0.361   5.907  1.9993 -1.5171 -2.1489
 3645SOL    HW314347   4.989   0.225   5.935 -2.0917  0.5517  0.0479
 3645SOL    MW414348   5.047   0.288   5.953 -0.5208 -0.6396 -0.6504
 3646SOL     OW14349   6.157   4.992   0.684  0.3554 -0.4883 -0.2534
 3646SOL    HW214350   6.134   5.062   0.623 -0.7532 -1.0446 -0.4939
 3646SOL    HW314351   6.253   4.996   0.691  0.3348  0.8599 -0.4795
 3646SOL    MW414352   6.167   5.002   0.677  0.2064 -0.3838 -0.3150
 3647SOL     OW14353   3.677   5.867   6.164 -0.3948 -0.1627 -0.7048
 3647SOL    HW214354   3.729   5.789   6.143  0.1716  0.1437 -0.4639
 3647SOL    HW314355   3.654   5.856   6.256  0.2234  0.2623 -0.4998
 3647SOL    MW414356   3.681   5.855   6.173 -0.2385 -0.0662 -0.6460
 3648SOL     OW14357   0.006   4.745   5.590 -0.4866 -0.0920  0.4505
 3648SOL    HW214358  -0.079   4.704   5.578 -0.0865 -0.8444  0.1602
 3648SOL    HW314359   0.001   4.786   5.677 -0.7095 -1.2107  0.9757
 3648SOL    MW414360  -0.006   4.745   5.600 -0.4632 -0.3389  0.4815
 3649SOL     OW14361   4.958   4.337   0.880 -0.0688  0.3517 -0.0399
 3649SOL    HW214362   4.923   4.422   0.908  2.3456  1.9506 -1.3894
 3649SOL    HW314363   4.915   4.320   0.796  1.9222  2.1769 -1.5686
 3649SOL    MW414364   4.948   4.346   0.872  0.5124  0.8034 -0.4196
 3650SOL     OW14365   0.543   2.142   3.103  0.1465 -0.2580 -0.3930
 3650SOL    HW214366   0.582   2.104   3.182 -1.0643 -3.1025 -1.0270
 3650SOL    HW314367   0.466   2.189   3.135 -0.2495 -1.2654  0.1886
 3650SOL    MW414368   0.538   2.143   3.118 -0.0655 -0.7662 -0.3999
 3651SOL     OW14369   2.358   1.613   2.770  0.1730  0.5251  0.0865
 3651SOL    HW214370   2.401   1.534   2.737 -0.5087  1.4675 -3.5230
 3651SOL    HW314371   2.295   1.581   2.835  1.2367 -1.6369  0.1492
 3651SOL    MW414372   2.356   1.598   2.774  0.2234  0.3642 -0.3815
 3652SOL     OW14373   1.822   5.511   3.936 -0.0365  0.1859 -0.2341
 3652SOL    HW214374   1.871   5.429   3.949  0.8849  0.8561  0.6329
 3652SOL    HW314375   1.747   5.485   3.883 -0.6914 -1.5679  1.4131
 3652SOL    MW414376   1.818   5.496   3.931 -0.0013  0.0430  0.0976
 3653SOL     OW14377   0.759   1.530   2.040 -0.5306 -0.6131  0.1800
 3653SOL    HW214378   0.731   1.616   2.009  0.4866  0.1192  1.2192
 3653SOL    HW314379   0.725   1.524   2.129  0.3446 -0.7930  0.5188
 3653SOL    MW414380   0.751   1.541   2.048 -0.2809 -0.5402  0.3618
 3654SOL     OW14381   4.598   5.804   3.218 -0.3280 -0.2115  0.0407
 3654SOL    HW214382   4.679   5.770   3.256  0.3830  0.3502 -0.9421
 3654SOL    HW314383   4.571   5.875   3.277  1.5052  1.5786 -1.1689
 3654SOL    MW414384   4.605   5.809   3.231  0.0077  0.0988 -0.2485
 3655SOL     OW14385   2.239   3.963   2.499  0.3712  0.0834  0.6930
 3655SOL    HW214386   2.185   3.957   2.420  2.2767  2.3718 -0.9233
 3655SOL    HW314387   2.249   3.873   2.528 -2.2150 -0.6448 -0.3383
 3655SOL    MW414388   2.233   3.950   2.492  0.2814  0.2892  0.3436
 3656SOL     OW14389   0.322   4.301   4.188  0.3577  0.3178  0.0519
 3656SOL    HW214390   0.305   4.383   4.142  3.2614  1.2487  0.4230
 3656SOL    HW314391   0.357   4.327   4.273 -1.0386 -1.3562  1.2060
 3656SOL    MW414392   0.325   4.315   4.193  0.5566  0.2198  0.2532
 3657SOL     OW14393   3.335   2.124   1.094 -0.1912  0.0195  0.1958
 3657SOL    HW214394   3.429   2.109   1.101 -0.4952 -2.1260  0.5566
 3657SOL    HW314395   3.310   2.078   1.013 -0.9573  0.3141  0.2563
 3657SOL    MW414396   3.344   2.116   1.084 -0.3324 -0.2247  0.2514
 3658SOL     OW14397   2.395   1.903   1.654 -0.0607 -0.1240 -0.1954
 3658SOL    HW214398   2.334   1.976   1.659  1.3852  1.0964  0.8634
 3658SOL    HW314399   2.433   1.908   1.567 -0.8883 -0.4066 -0.5755
 3658SOL    MW414400   2.392   1.913   1.643  0.0209 -0.0003 -0.1058
 3659SOL     OW14401   2.091   4.832   6.406 -0.8578  0.2309  0.1714
 3659SOL    HW214402   2.157   4.843   6.338  0.7837  1.5655  1.8885
 3659SOL    HW314403   2.045   4.916   6.409  0.1790  0.7972  1.7272
 3659SOL    MW414404   2.094   4.844   6.398 -0.5044  0.4817  0.6032
 3660SOL     OW14405   5.111   5.656   2.534 -0.7005 -0.1006 -0.8237
 3660SOL    HW214406   5.087   5.718   2.465  2.0993  0.9534 -0.9852
 3660SOL    HW314407   5.116   5.571   2.490  1.6493  0.6485 -2.1978
 3660SOL    MW414408   5.109   5.653   2.519 -0.0211  0.1373 -1.0263
 3661SOL     OW14409   4.925   0.673   4.592 -0.3669  0.0252 -0.0246
 3661SOL    HW214410   4.976   0.754   4.592 -1.2207  0.5924 -0.9532
 3661SOL    HW314411   4.846   0.694   4.643 -0.4619 -0.3077 -0.0310
 3661SOL    MW414412   4.921   0.686   4.598 -0.4921  0.0561 -0.1480
 3662SOL     OW14413   4.153   2.910   6.259  0.4399  0.0876 -0.0531
 3662SOL    HW214414   4.137   2.825   6.300  0.1892  0.1370 -0.0444
 3662SOL    HW314415   4.121   2.974   6.324 -2.4250  0.1203 -1.3293
 3662SOL    MW414416   4.147   2.908   6.273  0.0288  0.0985 -0.2204
 3663SOL     OW14417   2.655   6.375   3.064  0.0457  0.2454  0.2923
 3663SOL    HW214418   2.582   6.431   3.090 -0.5851 -0.9712  1.2585
 3663SOL    HW314419   2.666   6.314   3.138  1.8050  0.1683  0.0124
 3663SOL    MW414420   2.647   6.374   3.077  0.1946  0.0747  0.3829
 3664SOL     OW14421   1.410   1.560   3.852 -0.4206 -0.2500 -0.3188
 3664SOL    HW214422   1.483   1.497   3.852  0.0192  0.1780  1.6894
 3664SOL    HW314423   1.339   1.514   3.896 -0.7005  0.0210 -0.4904
 3664SOL    MW414424   1.410   1.546   3.858 -0.3995 -0.1578 -0.0765
 3665SOL     OW14425   4.759   0.211   1.688  0.3556  0.0002 -0.2638
 3665SOL    HW214426   4.799   0.142   1.635  2.0364  0.8331 -0.1300
 3665SOL    HW314427   4.691   0.166   1.738  1.9519 -1.7302  0.4502
 3665SOL    MW414428   4.755   0.196   1.687  0.7880 -0.1182 -0.1519
 3666SOL     OW14429   3.950   5.067   6.064  0.0297 -0.1030  0.8978
 3666SOL    HW214430   4.033   5.035   6.027 -0.2134  0.3509 -0.0781
 3666SOL    HW314431   3.887   4.998   6.045 -0.2701  0.4730 -0.2877
 3666SOL    MW414432   3.953   5.054   6.057 -0.0419  0.0329  0.6126
 3667SOL     OW14433   3.524   2.703   0.562  0.4413 -0.1900  0.0529
 3667SOL    HW214434   3.555   2.669   0.646 -0.9117 -0.0848  0.6195
 3667SOL    HW314435   3.535   2.798   0.570 -0.0975 -0.1443  0.2942
 3667SOL    MW414436   3.529   2.711   0.574  0.1917 -0.1701  0.1595
 3668SOL     OW14437   2.578   4.826   5.639 -0.3939  0.6458 -0.0017
 3668SOL    HW214438   2.497   4.870   5.661  0.2009  2.3309 -1.0078
 3668SOL    HW314439   2.561   4.785   5.554 -0.2007  0.9805 -0.2021
 3668SOL    MW414440   2.565   4.826   5.631 -0.2899  0.9123 -0.1609
 3669SOL     OW14441   3.381   2.219   2.443 -0.5172  0.2416  0.4226
 3669SOL    HW214442   3.293   2.180   2.450  0.2691 -1.7023  0.1420
 3669SOL    HW314443   3.393   2.233   2.350 -0.2874 -0.1081  0.3983
 3669SOL    MW414444   3.371   2.216   2.432 -0.3831 -0.0610  0.3824
 3670SOL     OW14445   5.356   3.429   5.758  0.0289  0.3378 -0.0470
 3670SOL    HW214446   5.310   3.392   5.683  0.4395 -2.0550  0.8104
 3670SOL    HW314447   5.448   3.433   5.731 -0.0075  0.7864 -0.1267
 3670SOL    MW414448   5.362   3.425   5.744  0.0783  0.0813  0.0556
 3671SOL     OW14449   1.919   0.218   3.201  1.0241  0.2151 -0.2844
 3671SOL    HW214450   1.942   0.181   3.286 -1.1488 -0.0167  0.2637
 3671SOL    HW314451   1.989   0.190   3.142  0.8689 -2.4777  0.6912
 3671SOL    MW414452   1.931   0.210   3.204  0.7169 -0.1708 -0.0834
 3672SOL     OW14453   6.314   0.786   5.751 -0.6811  0.2473  0.4414
 3672SOL    HW214454   6.284   0.855   5.691 -1.3100  0.1877  0.6745
 3672SOL    HW314455   6.233   0.748   5.786 -0.4083 -1.5803 -0.7574
 3672SOL    MW414456   6.299   0.790   5.748 -0.7281 -0.0017  0.3140
 3673SOL     OW14457   3.489   2.509   6.169 -0.0260 -0.1422  0.2395
 3673SOL    HW214458   3.512   2.438   6.229  0.8668  0.4628  0.6502
 3673SOL    HW314459   3.399   2.491   6.142  0.5483 -2.0063 -0.5252
 3673SOL    MW414460   3.480   2.498   6.174  0.1676 -0.3083  0.1928
 3674SOL     OW14461   3.830   1.921   3.848  0.3313  0.2242 -0.0555
 3674SOL    HW214462   3.748   1.971   3.845  0.7430  0.9163 -3.6898
 3674SOL    HW314463   3.836   1.879   3.762  1.8296 -3.2289  1.5291
 3674SOL    MW414464   3.820   1.922   3.836  0.5833 -0.1401 -0.3259
 3675SOL     OW14465   5.095   4.944   2.753 -0.2048  0.1741 -0.0062
 3675SOL    HW214466   5.166   4.900   2.706 -1.1950  0.0477 -1.4487
 3675SOL    HW314467   5.044   4.987   2.684 -0.9759  1.0652  1.0968
 3675SOL    MW414468   5.097   4.943   2.738 -0.4372  0.2750 -0.0510
 3676SOL     OW14469   3.814   4.835   3.931 -0.0019 -0.1564 -0.3031
 3676SOL    HW214470   3.815   4.765   3.995 -0.9003  1.7143  1.8968
 3676SOL    HW314471   3.907   4.852   3.912  0.3798  0.2070  1.6737
 3676SOL    MW414472   3.827   4.828   3.937 -0.0700  0.1384  0.2480
 3677SOL     OW14473  -0.024   1.102   4.237  0.0858 -0.3481 -0.5014
 3677SOL    HW214474  -0.057   1.043   4.305 -1.6650 -0.0434 -1.0255
 3677SOL    HW314475  -0.035   1.190   4.274  0.1495 -0.2270 -0.7709
 3677SOL    MW414476  -0.030   1.106   4.251 -0.1368 -0.2919 -0.6061
 3678SOL     OW14477   3.787   0.622   5.586  0.1088 -0.2497  0.4863
 3678SOL    HW214478   3.694   0.627   5.610  0.1698  1.6291  0.4722
 3678SOL    HW314479   3.804   0.704   5.541  1.8964 -0.3983  0.8445
 3678SOL    MW414480   3.777   0.633   5.583  0.3527 -0.0214  0.5317
 3679SOL     OW14481   3.265   4.144   1.130 -0.2219  0.0766 -0.5982
 3679SOL    HW214482   3.253   4.188   1.214 -0.6604 -0.5661 -0.3179
 3679SOL    HW314483   3.229   4.205   1.066 -1.1804 -0.0258 -0.1773
 3679SOL    MW414484   3.259   4.158   1.133 -0.4062 -0.0217 -0.5057
 3680SOL     OW14485   5.052   3.888   4.541  0.0347 -0.4188  0.3585
 3680SOL    HW214486   5.120   3.823   4.561  0.2815 -0.3125 -0.1350
 3680SOL    HW314487   4.971   3.838   4.541  0.1449 -0.6063  0.6257
 3680SOL    MW414488   5.051   3.873   4.544  0.0818 -0.4295  0.3286
 3681SOL     OW14489   4.434   3.658   4.840 -0.4168  0.1925  0.5428
 3681SOL    HW214490   4.502   3.591   4.848 -0.9435 -0.3447  0.6426
 3681SOL    HW314491   4.428   3.696   4.928 -1.5773 -1.1066  1.0631
 3681SOL    MW414492   4.442   3.654   4.853 -0.6394 -0.0498  0.6246
 3682SOL     OW14493   2.020   3.634   3.304  0.4843 -0.4795 -0.0662
 3682SOL    HW214494   2.056   3.723   3.301  1.5414 -0.9040 -0.4393
 3682SOL    HW314495   2.022   3.611   3.397  0.9073 -0.3870 -0.0500
 3682SOL    MW414496   2.025   3.643   3.316  0.6796 -0.5233 -0.1133
 3683SOL     OW14497   4.045   0.088   1.880 -0.3201 -0.1173 -0.0396
 3683SOL    HW214498   4.002   0.010   1.844  1.2625 -1.4757  0.8951
 3683SOL    HW314499   4.107   0.055   1.944  3.5082  1.5122 -2.5334
 3683SOL    MW414500   4.048   0.074   1.883  0.3938 -0.0815 -0.2453
 3684SOL     OW14501   5.407   2.722   2.828  0.1283 -0.5512  1.3959
 3684SOL    HW214502   5.366   2.806   2.849  0.7900 -0.0217  0.6377
 3684SOL    HW314503   5.500   2.743   2.818  0.1894 -1.2264  0.4546
 3684SOL    MW414504   5.413   2.736   2.829  0.2237 -0.5704  1.1717
 3685SOL     OW14505   4.619   2.278   1.927  0.2126  0.3958 -0.0352
 3685SOL    HW214506   4.604   2.359   1.976  1.3000  1.3723 -1.2737
 3685SOL    HW314507   4.545   2.272   1.867  0.0604  0.3894  0.1521
 3685SOL    MW414508   4.607   2.288   1.926  0.3360  0.5238 -0.1739
 3686SOL     OW14509   6.048   2.117   1.988  0.1162 -0.0307  0.1026
 3686SOL    HW214510   5.998   2.057   1.933  0.1870  0.0466 -0.0464
 3686SOL    HW314511   5.998   2.122   2.070  0.7933 -1.3147  0.6163
 3686SOL    MW414512   6.035   2.110   1.992  0.2149 -0.1899  0.1507
 3687SOL     OW14513   3.478   1.465   1.494 -0.0002  0.1060 -0.3516
 3687SOL    HW214514   3.570   1.448   1.473 -0.5308 -4.0794 -0.0831
 3687SOL    HW314515   3.438   1.486   1.410  0.6836 -1.2299 -1.0504
 3687SOL    MW414516   3.485   1.466   1.480  0.0200 -0.6225 -0.4083
 3688SOL     OW14517   5.476   0.547   2.345  0.2222 -0.4969  0.4780
 3688SOL    HW214518   5.472   0.532   2.440  1.6557 -0.1212  0.6189
 3688SOL    HW314519   5.509   0.464   2.309  0.2265 -0.4465  0.3672
 3688SOL    MW414520   5.480   0.534   2.353  0.4119 -0.4407  0.4820
 3689SOL     OW14521   1.063   1.452   5.101 -0.0134  0.0819 -0.4748
 3689SOL    HW214522   1.029   1.498   5.178 -0.4827  0.6139 -0.9861
 3689SOL    HW314523   0.987   1.443   5.044  0.1652 -0.9924 -0.5514
 3689SOL    MW414524   1.048   1.457   5.104 -0.0518  0.0104 -0.5523
 3690SOL     OW14525   2.381   0.978   3.955 -0.6825 -0.2735 -0.0679
 3690SOL    HW214526   2.353   1.068   3.973 -1.8038 -0.9616  1.9275
 3690SOL    HW314527   2.319   0.923   4.003  0.5505 -2.1027 -0.4513
 3690SOL    MW414528   2.369   0.982   3.964 -0.6678 -0.6056  0.1448
 3691SOL     OW14529   3.112   6.060   1.928 -0.0232  0.3069  0.0787
 3691SOL    HW214530   3.050   6.096   1.865 -0.2925 -1.0383 -0.4583
 3691SOL    HW314531   3.198   6.084   1.893 -0.2094  2.0148  0.7302
 3691SOL    MW414532   3.115   6.068   1.915 -0.0833  0.3547  0.0938
 3692SOL     OW14533   2.251   5.275   5.440  0.0515  0.1063  0.0842
 3692SOL    HW214534   2.297   5.194   5.417  1.9567  0.9071  0.8979
 3692SOL    HW314535   2.178   5.279   5.378 -0.0345 -2.1628 -0.0466
 3692SOL    MW414536   2.247   5.264   5.428  0.2915 -0.0874  0.1743
 3693SOL     OW14537   2.866   2.839   3.125 -0.4329  0.3444  0.0880
 3693SOL    HW214538   2.823   2.898   3.186  2.1909  1.7624  0.7192
 3693SOL    HW314539   2.908   2.774   3.181  2.1234  1.7430 -0.0469
 3693SOL    MW414540   2.866   2.838   3.141  0.2505  0.7160  0.1535
 3694SOL     OW14541   1.982   1.636   5.652 -0.0098  0.0366  0.1218
 3694SOL    HW214542   2.031   1.578   5.711 -2.3710 -2.4385 -0.1395
 3694SOL    HW314543   1.898   1.649   5.696 -0.4665  1.2015 -1.0442
 3694SOL    MW414544   1.977   1.630   5.666 -0.3816 -0.1363 -0.0665
 3695SOL     OW14545   0.533   4.811   6.279  0.3758 -0.6014  0.2805
 3695SOL    HW214546   0.530   4.888   6.336  1.1320 -0.9691  0.8367
 3695SOL    HW314547   0.606   4.759   6.313  1.2100 -0.5712 -1.3568
 3695SOL    MW414548   0.542   4.814   6.291  0.5856 -0.6460  0.1378
 3696SOL     OW14549   1.737   3.782   2.203 -0.0185  0.4025  0.3318
 3696SOL    HW214550   1.791   3.750   2.275 -0.3914  0.0694  0.4701
 3696SOL    HW314551   1.766   3.873   2.190 -0.8974  0.9412  1.8460
 3696SOL    MW414552   1.748   3.790   2.211 -0.1837  0.4296  0.5498
 3697SOL     OW14553   1.241   5.389   4.484 -0.2901 -0.3764  0.6826
 3697SOL    HW214554   1.191   5.457   4.439  1.1753  1.3800  1.5436
 3697SOL    HW314555   1.196   5.307   4.463 -2.1527  0.8512 -0.3774
 3697SOL    MW414556   1.228   5.387   4.475 -0.3425  0.0173  0.6563
 3698SOL     OW14557   0.875   0.958   4.643  0.2384  0.7841 -0.2541
 3698SOL    HW214558   0.933   0.945   4.568  0.2930  2.8427 -0.6114
 3698SOL    HW314559   0.928   1.004   4.708  0.3272 -1.3342  1.3202
 3698SOL    MW414560   0.889   0.962   4.642  0.2573  0.7763 -0.0935
 3699SOL     OW14561   2.496   1.109   1.122 -0.1744  0.3744  0.5946
 3699SOL    HW214562   2.536   1.054   1.190  1.9526  2.0095  0.7514
 3699SOL    HW314563   2.547   1.190   1.123 -0.5795  0.7863 -2.3955
 3699SOL    MW414564   2.508   1.112   1.131  0.0528  0.6445  0.2208
 3700SOL     OW14565   2.659   6.237   5.248  0.2588 -0.1268  0.3143
 3700SOL    HW214566   2.585   6.177   5.265  0.8222 -0.5013  1.5563
 3700SOL    HW314567   2.689   6.212   5.161  0.5087 -1.7220  0.8163
 3700SOL    MW414568   2.653   6.226   5.239  0.3661 -0.3867  0.5444
 3701SOL     OW14569   6.027   6.352   4.765  0.3640 -0.3473 -0.0192
 3701SOL    HW214570   5.970   6.408   4.818  1.4168 -0.0845  0.8611
 3701SOL    HW314571   6.030   6.269   4.812  0.6381 -0.3829 -0.0962
 3701SOL    MW414572   6.020   6.349   4.778  0.5391 -0.3173  0.0868
 3702SOL     OW14573   2.882   0.087   2.975 -0.1431 -0.0741 -0.1418
 3702SOL    HW214574   2.950   0.020   2.986 -1.1492 -1.1928 -0.5666
 3702SOL    HW314575   2.807   0.052   3.023 -0.7623  0.6431 -0.5810
 3702SOL    MW414576   2.881   0.074   2.983 -0.3576 -0.1271 -0.2558
 3703SOL     OW14577   3.307   2.043   0.493 -0.2741  0.5914 -0.0561
 3703SOL    HW214578   3.353   2.093   0.561 -0.4159  0.8109 -0.1216
 3703SOL    HW314579   3.217   2.036   0.526 -0.7656  2.0894 -0.9519
 3703SOL    MW414580   3.301   2.049   0.506 -0.3576  0.8180 -0.1829
 3704SOL     OW14581   1.403   1.412   0.757 -0.2524 -0.2987  0.2718
 3704SOL    HW214582   1.474   1.351   0.740 -1.3003 -1.2979 -0.7969
 3704SOL    HW314583   1.417   1.483   0.694  0.3308  0.0105  0.7390
 3704SOL    MW414584   1.414   1.414   0.746 -0.3137 -0.3897  0.1925
 3705SOL     OW14585   1.114   1.271   1.536  0.0869  0.2278  0.3084
 3705SOL    HW214586   1.024   1.242   1.551  0.4098 -1.3381 -0.6472
 3705SOL    HW314587   1.168   1.201   1.573  0.8908  0.0091 -1.2141
 3705SOL    MW414588   1.109   1.258   1.543  0.2356 -0.0077 -0.0186
 3706SOL     OW14589   1.527   1.690   4.498  0.0595  0.6343  0.0124
 3706SOL    HW214590   1.444   1.724   4.465  0.0571  1.3700  0.7504
 3706SOL    HW314591   1.504   1.605   4.536 -0.1098  0.2277 -0.9722
 3706SOL    MW414592   1.513   1.684   4.499  0.0369  0.6777 -0.0202
 3707SOL     OW14593   3.879   2.352   5.185 -0.5932 -0.0006  0.4262
 3707SOL    HW214594   3.942   2.348   5.113 -0.6149 -0.5705  0.4384
 3707SOL    HW314595   3.807   2.406   5.152  0.1169  1.0707  0.5819
 3707SOL    MW414596   3.878   2.359   5.171 -0.5024  0.0656  0.4483
 3708SOL     OW14597   2.675   2.757   0.746 -0.5904  0.2970 -0.0068
 3708SOL    HW214598   2.763   2.791   0.732  1.0860 -3.1607  1.0352
 3708SOL    HW314599   2.651   2.717   0.662 -0.7178  0.2958  0.0291
 3708SOL    MW414600   2.683   2.756   0.733 -0.3861 -0.1594  0.1354
 3709SOL     OW14601   0.395   1.686   3.201  0.2435  0.2559 -0.4990
 3709SOL    HW214602   0.394   1.706   3.294 -0.6296 -0.3351 -0.3816
 3709SOL    HW314603   0.387   1.772   3.158  0.9607  0.5578 -0.0509
 3709SOL    MW414604   0.394   1.700   3.207  0.2230  0.2177 -0.4244
 3710SOL     OW14605   2.507   5.094   6.054  0.5040  0.7099  0.0047
 3710SOL    HW214606   2.473   5.123   6.138  0.5068  1.7767 -0.3393
 3710SOL    HW314607   2.465   5.152   5.990 -1.1367 -1.4545 -0.9665
 3710SOL    MW414608   2.497   5.106   6.056  0.2879  0.5651 -0.1688
 3711SOL     OW14609   3.244   5.792   3.559  0.0530 -0.2001  0.6897
 3711SOL    HW214610   3.162   5.831   3.589 -0.5902  0.1145 -1.3029
 3711SOL    HW314611   3.216   5.726   3.495  1.3421  2.0231 -2.4146
 3711SOL    MW414612   3.229   5.788   3.555  0.1382  0.1348  0.0172
 3712SOL     OW14613   5.185   3.164   0.884  0.5622  0.0509 -1.1473
 3712SOL    HW214614   5.251   3.216   0.929 -0.4177 -0.3906  0.9275
 3712SOL    HW314615   5.148   3.223   0.819  0.6146  1.4237  0.0337
 3712SOL    MW414616   5.189   3.178   0.881  0.4398  0.1738 -0.7177
 3713SOL     OW14617   3.505   0.447   1.884 -0.0285 -1.0365 -0.1576
 3713SOL    HW214618   3.437   0.423   1.947  0.5021 -1.2592  0.3393
 3713SOL    HW314619   3.578   0.390   1.905  0.0368 -1.3669 -1.2209
 3713SOL    MW414620   3.505   0.437   1.895  0.0501 -1.1094 -0.2324
 3714SOL     OW14621   3.443   3.303   2.740  0.2369 -0.6838  0.3878
 3714SOL    HW214622   3.481   3.302   2.828  1.8320 -0.0837 -0.2463
 3714SOL    HW314623   3.444   3.211   2.712  0.4902 -0.7762  0.6944
 3714SOL    MW414624   3.448   3.291   2.748  0.4808 -0.6168  0.3446
 3715SOL     OW14625   1.702   5.172   3.790 -0.7429  0.1200 -0.2609
 3715SOL    HW214626   1.728   5.152   3.700 -0.0225 -1.2936  0.2275
 3715SOL    HW314627   1.642   5.245   3.782 -1.1003 -0.3148 -1.9399
 3715SOL    MW414628   1.697   5.179   3.777 -0.6950 -0.1238 -0.4180
 3716SOL     OW14629   3.155   0.321   4.203  0.4218  0.1558 -0.4074
 3716SOL    HW214630   3.217   0.377   4.155 -0.3501 -0.3509 -2.0591
 3716SOL    HW314631   3.208   0.247   4.231  1.6725  1.9891  2.5721
 3716SOL    MW414632   3.170   0.319   4.200  0.4849  0.3308 -0.2322
 3717SOL     OW14633   1.101   6.407   2.363  0.2395 -0.0520  0.3939
 3717SOL    HW214634   1.193   6.424   2.382  0.2278  0.8665 -0.3098
 3717SOL    HW314635   1.090   6.313   2.379  1.5541 -0.3941 -0.5088
 3717SOL    MW414636   1.112   6.397   2.367  0.4114  0.0240  0.1819
 3718SOL     OW14637   3.000   4.805   3.635 -0.1760 -0.0721 -0.2970
 3718SOL    HW214638   3.009   4.722   3.589 -2.1272 -1.6020  1.8924
 3718SOL    HW314639   2.909   4.807   3.664  0.8049  0.8889  3.2192
 3718SOL    MW414640   2.989   4.795   3.632 -0.3040 -0.1471  0.4558
 3719SOL     OW14641   4.377   3.038   1.615  0.1301 -0.3585  0.7261
 3719SOL    HW214642   4.385   2.959   1.563 -1.1659 -1.6025  2.2827
 3719SOL    HW314643   4.313   3.015   1.683 -1.4165  2.4769  0.3817
 3719SOL    MW414644   4.370   3.024   1.617 -0.2449 -0.1485  0.8860
 3720SOL     OW14645   5.425   2.735   3.850  0.0292 -0.0311 -0.0473
 3720SOL    HW214646   5.510   2.690   3.844 -0.3744 -0.8585  0.2417
 3720SOL    HW314647   5.436   2.797   3.922  0.5537  0.2460 -0.3569
 3720SOL    MW414648   5.438   2.737   3.858  0.0452 -0.1037 -0.0500
 3721SOL     OW14649   3.550   4.589   5.860  0.0898 -0.2279  0.1957
 3721SOL    HW214650   3.480   4.644   5.895  0.6108  1.1428 -0.7827
 3721SOL    HW314651   3.506   4.511   5.826 -0.9435  0.4901 -0.1618
 3721SOL    MW414652   3.535   4.586   5.860  0.0222  0.0477  0.0195
 3722SOL     OW14653   0.572   1.899   0.412  0.5065 -0.6611 -0.0447
 3722SOL    HW214654   0.548   1.990   0.425 -0.0059 -0.8454  0.3420
 3722SOL    HW314655   0.530   1.852   0.484 -1.0285 -1.4878 -1.3978
 3722SOL    MW414656   0.564   1.904   0.423  0.2364 -0.7945 -0.1722
 3723SOL     OW14657   3.654   4.548   2.385 -0.4447 -0.7341 -0.2937
 3723SOL    HW214658   3.654   4.619   2.449  0.6953 -0.7419 -0.2498
 3723SOL    HW314659   3.731   4.496   2.408  0.3294 -0.4181 -2.0051
 3723SOL    MW414660   3.664   4.550   2.396 -0.1921 -0.6935 -0.5137
 3724SOL     OW14661   3.737   1.079   1.085 -0.5647 -0.5270 -0.2287
 3724SOL    HW214662   3.660   1.094   1.141 -0.1450  0.9984 -0.0091
 3724SOL    HW314663   3.700   1.062   0.998 -1.1696 -0.8955  0.0902
 3724SOL    MW414664   3.722   1.079   1.081 -0.5891 -0.3743 -0.1577
 3725SOL     OW14665   1.817   2.640   1.490  0.5235 -0.2598 -0.1471
 3725SOL    HW214666   1.731   2.668   1.460 -0.3081 -0.6841  1.7138
 3725SOL    HW314667   1.801   2.595   1.572  2.1893 -3.0690 -1.2038
 3725SOL    MW414668   1.804   2.638   1.496  0.6335 -0.6864 -0.0410
 3726SOL     OW14669   1.868   4.401   1.276  0.4296 -0.0812 -0.0261
 3726SOL    HW214670   1.792   4.433   1.226 -0.7233 -1.5489  0.6984
 3726SOL    HW314671   1.900   4.478   1.323 -1.1042  0.4253  0.2494
 3726SOL    MW414672   1.862   4.415   1.275  0.0751 -0.2080  0.1058
 3727SOL     OW14673   2.477   1.224   5.176 -0.3469 -0.2231  0.7248
 3727SOL    HW214674   2.504   1.211   5.085 -0.9065 -1.3761  0.7044
 3727SOL    HW314675   2.541   1.174   5.227  0.1021  0.6107  0.9929
 3727SOL    MW414676   2.489   1.216   5.171 -0.3615 -0.2652  0.7575
 3728SOL     OW14677   3.397   2.609   1.554  0.7195  0.0544  0.0095
 3728SOL    HW214678   3.342   2.687   1.558  1.6718  0.7002  1.1773
 3728SOL    HW314679   3.361   2.550   1.620  1.9662  0.8832  1.4946
 3728SOL    MW414680   3.385   2.611   1.563  1.0096  0.2490  0.3595
 3729SOL     OW14681   2.862   3.879   3.190  0.0838  0.0356  0.0020
 3729SOL    HW214682   2.852   3.799   3.138  1.8962  1.9122 -3.6031
 3729SOL    HW314683   2.924   3.854   3.259 -2.0068 -2.4302  1.1891
 3729SOL    MW414684   2.869   3.865   3.192  0.0471 -0.0421 -0.3170
 3730SOL     OW14685   5.105   4.445   1.946  1.1343  0.5730  0.3234
 3730SOL    HW214686   5.137   4.360   1.976  1.7042  0.7520  0.2513
 3730SOL    HW314687   5.107   4.500   2.024 -2.9805 -0.4331  1.3881
 3730SOL    MW414688   5.110   4.441   1.960  0.6666  0.4639  0.4544
 3731SOL     OW14689   0.961   2.239   5.056 -0.4274  0.2215  0.2329
 3731SOL    HW214690   1.013   2.275   5.128 -1.1323  1.9194 -0.0558
 3731SOL    HW314691   0.964   2.306   4.988 -1.9444 -0.1894 -0.2850
 3731SOL    MW414692   0.968   2.253   5.057 -0.7205  0.3913  0.1265
 3732SOL     OW14693   2.205   6.018   0.300 -0.4419  0.0304 -0.8377
 3732SOL    HW214694   2.273   6.086   0.305  1.9442 -2.2921  0.8867
 3732SOL    HW314695   2.133   6.060   0.253  1.0901  3.5439 -0.3642
 3732SOL    MW414696   2.204   6.033   0.294  0.0750  0.1876 -0.5477
 3733SOL     OW14697   3.370   6.221   0.518  0.0133 -0.3390 -0.0005
 3733SOL    HW214698   3.401   6.264   0.598 -1.0388  0.2937  0.0792
 3733SOL    HW314699   3.338   6.292   0.463 -1.1873 -0.9466 -0.1203
 3733SOL    MW414700   3.370   6.236   0.521 -0.2839 -0.3357 -0.0058
 3734SOL     OW14701   1.874   5.952   6.204  0.1734 -0.2429 -0.4848
 3734SOL    HW214702   1.880   5.868   6.158  1.5740 -0.4102 -0.0234
 3734SOL    HW314703   1.838   6.012   6.138  0.2672 -0.9334 -1.1840
 3734SOL    MW414704   1.870   5.949   6.189  0.3706 -0.3561 -0.5162
 3735SOL     OW14705   0.983   2.711   1.734  0.9799 -0.3704 -0.1000
 3735SOL    HW214706   0.961   2.677   1.647  0.5083 -0.7965  0.1805
 3735SOL    HW314707   0.899   2.713   1.780  0.9139  1.5245 -0.2240
 3735SOL    MW414708   0.969   2.707   1.728  0.9090 -0.1766 -0.0794
 3736SOL     OW14709   0.109   2.915   1.672  0.3977  0.2322  0.6688
 3736SOL    HW214710   0.149   2.932   1.757  0.1059  0.1103  0.8303
 3736SOL    HW314711   0.109   3.001   1.629  0.7233  0.2569  0.7107
 3736SOL    MW414712   0.115   2.929   1.677  0.4021  0.2194  0.6956
 3737SOL     OW14713   2.524   4.628   6.339  0.0020 -0.0303  0.5472
 3737SOL    HW214714   2.475   4.552   6.372 -0.1747 -0.5528 -0.8665
 3737SOL    HW314715   2.535   4.611   6.246 -0.4748  1.9233  0.0942
 3737SOL    MW414716   2.519   4.616   6.331 -0.0842  0.1585  0.3009
 3738SOL     OW14717   4.868   5.977   4.440 -0.2022  0.2359  0.3538
 3738SOL    HW214718   4.924   5.925   4.382  0.2124  1.9793 -0.8951
 3738SOL    HW314719   4.922   6.051   4.466 -2.4974  3.4973 -3.0617
 3738SOL    MW414720   4.882   5.980   4.436 -0.4503  0.8962 -0.2616
 3739SOL     OW14721   4.753   1.450   6.242 -0.1139  0.1628  0.1177
 3739SOL    HW214722   4.711   1.366   6.227  0.1498  0.3358 -1.8666
 3739SOL    HW314723   4.681   1.511   6.258 -0.3852 -0.1825  0.2063
 3739SOL    MW414724   4.738   1.447   6.242 -0.1149  0.1401 -0.1324
 3740SOL     OW14725   4.508   0.486   4.912  0.0764  1.0427 -0.4225
 3740SOL    HW214726   4.495   0.492   5.007  1.6439 -1.0251 -0.0110
 3740SOL    HW314727   4.422   0.503   4.875 -0.7861  0.9383  1.4226
 3740SOL    MW414728   4.495   0.489   4.920  0.1694  0.7561 -0.1248
 3741SOL     OW14729   1.279   2.488   1.404 -0.0103  0.1176  0.0654
 3741SOL    HW214730   1.224   2.411   1.390 -0.8911  0.9371 -1.3251
 3741SOL    HW314731   1.332   2.467   1.480 -1.6061 -1.0848  0.9044
 3741SOL    MW414732   1.278   2.475   1.412 -0.3371  0.0671 -0.0073
 3742SOL     OW14733   4.726   0.750   5.147 -0.1075 -0.1356  0.3186
 3742SOL    HW214734   4.730   0.827   5.090  0.9544 -0.8465 -0.6096
 3742SOL    HW314735   4.632   0.737   5.163 -0.2908  1.6481  0.9502
 3742SOL    MW414736   4.714   0.759   5.141  0.0084  0.0060  0.2795
 3743SOL     OW14737   3.962   3.833   3.253 -0.1526  0.2566  0.4125
 3743SOL    HW214738   4.044   3.792   3.223  0.6951  1.4236  1.0540
 3743SOL    HW314739   3.938   3.783   3.331 -1.0487 -1.2271 -0.7568
 3743SOL    MW414740   3.970   3.821   3.259 -0.1590  0.2148  0.3428
 3744SOL     OW14741   5.555   4.752   1.534  0.1733 -0.0713  0.1747
 3744SOL    HW214742   5.630   4.703   1.567  0.5084  0.1477 -0.2420
 3744SOL    HW314743   5.591   4.837   1.508 -0.6329  0.9293  2.1569
 3744SOL    MW414744   5.569   4.757   1.535  0.1111  0.0896  0.3813
 3745SOL     OW14745   3.410   1.022   4.453 -0.1581 -0.2640 -0.0447
 3745SOL    HW214746   3.486   0.966   4.437  0.1946  0.0432  0.5138
 3745SOL    HW314747   3.447   1.104   4.486 -0.6825  0.2070 -0.6068
 3745SOL    MW414748   3.425   1.025   4.456 -0.1808 -0.1613 -0.0451
 3746SOL     OW14749   4.138   5.591   1.902 -0.7087 -0.7148 -0.3009
 3746SOL    HW214750   4.137   5.682   1.874  0.5544 -0.7911 -0.6331
 3746SOL    HW314751   4.120   5.541   1.822 -0.3986 -0.7966 -0.3202
 3746SOL    MW414752   4.136   5.596   1.888 -0.5011 -0.7357 -0.3473
 3747SOL     OW14753   4.727   0.480   3.557  0.2773 -0.0581  0.2346
 3747SOL    HW214754   4.684   0.395   3.564  0.7789 -0.1917  4.8376
 3747SOL    HW314755   4.820   0.459   3.546  0.2525 -0.0934  0.0996
 3747SOL    MW414756   4.734   0.466   3.557  0.3402 -0.0804  0.8241
 3748SOL     OW14757   0.220   4.265   3.457  0.4607  0.1171  0.2753
 3748SOL    HW214758   0.260   4.243   3.541 -0.7434  0.9678  1.0982
 3748SOL    HW314759   0.279   4.330   3.418  2.4896 -2.2378 -0.8576
 3748SOL    MW414760   0.233   4.271   3.463  0.5695 -0.0814  0.2344
 3749SOL     OW14761   3.947   3.359   2.600 -0.3125  0.5231 -0.5453
 3749SOL    HW214762   3.960   3.453   2.607 -0.7980  0.5502  0.0343
 3749SOL    HW314763   3.939   3.343   2.506 -0.4056  1.0844 -0.6357
 3749SOL    MW414764   3.947   3.369   2.588 -0.3888  0.6008 -0.4808
 3750SOL     OW14765   3.864   6.185   4.962  0.5083 -0.0595  0.2480
 3750SOL    HW214766   3.814   6.182   4.880 -0.3226  0.1392  0.7288
 3750SOL    HW314767   3.897   6.275   4.966 -1.2384  0.5884  1.1314
 3750SOL    MW414768   3.861   6.197   4.952  0.1682  0.0522  0.4280
 3751SOL     OW14769   3.991   1.027   3.897 -0.1028  0.3759  0.0363
 3751SOL    HW214770   3.987   1.092   3.827  0.5969 -1.0781 -1.4065
 3751SOL    HW314771   3.986   0.943   3.853  1.4506 -0.6296  1.6266
 3751SOL    MW414772   3.990   1.025   3.882  0.1945  0.0514  0.0557
 3752SOL     OW14773   0.082   5.769   2.358  0.0049 -0.3158 -0.1584
 3752SOL    HW214774  -0.008   5.781   2.327  0.2894 -0.5499 -1.1008
 3752SOL    HW314775   0.090   5.830   2.432 -1.2062 -0.9526  0.5194
 3752SOL    MW414776   0.071   5.779   2.364 -0.1174 -0.4307 -0.1933
 3753SOL     OW14777   2.729   4.011   2.609  0.0031 -0.0399  0.0317
 3753SOL    HW214778   2.663   4.048   2.550 -1.6454 -0.3332  1.5894
 3753SOL    HW314779   2.722   3.916   2.596  1.3202 -0.0281 -0.9733
 3753SOL    MW414780   2.719   4.003   2.600 -0.0406 -0.0770  0.1046
 3754SOL     OW14781   1.896   0.496   3.180 -0.1732 -0.2127 -0.0008
 3754SOL    HW214782   1.942   0.540   3.251 -0.3906  1.0269 -0.5927
 3754SOL    HW314783   1.908   0.403   3.197  2.5034  0.0520 -0.0931
 3754SOL    MW414784   1.903   0.490   3.191  0.1513 -0.0142 -0.0911
 3755SOL     OW14785   4.220   1.263   2.469  0.0915  0.3740 -0.2637
 3755SOL    HW214786   4.267   1.345   2.454  1.2718 -0.4503 -1.2420
 3755SOL    HW314787   4.129   1.290   2.481  0.4958  1.8481 -0.2763
 3755SOL    MW414788   4.214   1.277   2.468  0.3006  0.4598 -0.3944
 3756SOL     OW14789   3.185   1.695   1.702 -0.2213  0.0305  0.1132
 3756SOL    HW214790   3.177   1.767   1.765  0.2993  0.6884 -0.5481
 3756SOL    HW314791   3.180   1.738   1.617  1.3807 -0.5491 -0.3040
 3756SOL    MW414792   3.184   1.710   1.699  0.0587  0.0408 -0.0291
 3757SOL     OW14793   0.829   0.859   3.351  0.1662  0.2007  0.3630
 3757SOL    HW214794   0.907   0.883   3.402  0.4985 -0.5073  0.2012
 3757SOL    HW314795   0.771   0.817   3.415  0.7713 -1.0965  0.0914
 3757SOL    MW414796   0.832   0.856   3.366  0.2899 -0.0639  0.3058
 3758SOL     OW14797   5.541   1.900   0.891 -0.1074 -0.1645 -0.3107
 3758SOL    HW214798   5.596   1.862   0.958 -0.2719  0.8134  0.4084
 3758SOL    HW314799   5.495   1.972   0.935 -1.7115 -0.7404 -0.9669
 3758SOL    MW414800   5.542   1.905   0.905 -0.3407 -0.1114 -0.3024
 3759SOL     OW14801   1.368   0.548   1.864 -0.2744  0.1917 -0.5340
 3759SOL    HW214802   1.318   0.554   1.783  0.6329 -1.2316 -1.2267
 3759SOL    HW314803   1.441   0.608   1.851 -0.2804  0.1724 -0.6607
 3759SOL    MW414804   1.371   0.557   1.852 -0.1555  0.0014 -0.6421
 3760SOL     OW14805   5.920   3.076   1.726  0.0443 -0.5778  0.3106
 3760SOL    HW214806   6.014   3.088   1.716 -0.2867  0.8529 -1.4082
 3760SOL    HW314807   5.888   3.160   1.760 -0.8048 -0.4860 -0.6632
 3760SOL    MW414808   5.928   3.088   1.729 -0.1114 -0.3769 -0.0447
 3761SOL     OW14809   5.060   0.175   0.690 -0.3422  0.2789  0.4066
 3761SOL    HW214810   5.021   0.259   0.715  0.6775  0.9481 -0.1787
 3761SOL    HW314811   5.096   0.190   0.603 -2.0946 -1.4343 -0.6840
 3761SOL    MW414812   5.059   0.188   0.682 -0.4388  0.1412  0.1855
 3762SOL     OW14813   3.558   6.183   2.021  0.5969 -0.4367  0.0599
 3762SOL    HW214814   3.489   6.208   2.081  2.4619 -1.3876  2.8007
 3762SOL    HW314815   3.530   6.098   1.985 -1.3639  0.9673 -1.9696
 3762SOL    MW414816   3.545   6.175   2.024  0.5843 -0.3769  0.1537
 3763SOL     OW14817   6.233   3.345   2.055  0.4770 -0.2874  0.0243
 3763SOL    HW214818   6.231   3.391   1.971  0.7882 -2.2611 -1.1163
 3763SOL    HW314819   6.326   3.331   2.073  0.3431 -2.3426 -0.7465
 3763SOL    MW414820   6.245   3.349   2.047  0.5004 -0.8190 -0.2279
 3764SOL     OW14821   1.400   5.111   3.205 -0.2321 -0.1509  0.7712
 3764SOL    HW214822   1.370   5.193   3.245 -0.2563 -0.2900  1.0455
 3764SOL    HW314823   1.387   5.045   3.274  0.1069 -0.3218  0.6732
 3764SOL    MW414824   1.395   5.113   3.220 -0.1906 -0.1918  0.7944
 3765SOL     OW14825   4.627   4.927   5.959 -0.2847 -0.3010  0.1126
 3765SOL    HW214826   4.573   4.959   5.886  0.1506 -0.4950 -0.3052
 3765SOL    HW314827   4.565   4.903   6.027 -0.6459  3.7934  1.4968
 3765SOL    MW414828   4.612   4.928   5.958 -0.2750  0.2136  0.2401
 3766SOL     OW14829   5.918   0.999   4.758  1.0486 -0.1522 -0.0987
 3766SOL    HW214830   5.963   0.919   4.782 -0.7990 -1.6668 -1.3600
 3766SOL    HW314831   5.876   1.028   4.839  2.2775 -0.0508  0.5202
 3766SOL    MW414832   5.918   0.993   4.772  0.9670 -0.3386 -0.1835
 3767SOL     OW14833   5.993   3.208   1.995 -0.2116 -0.2987 -0.4826
 3767SOL    HW214834   6.065   3.270   1.983 -0.9445  0.0672 -4.4245
 3767SOL    HW314835   5.922   3.243   1.941 -2.8933 -1.4777  1.9723
 3767SOL    MW414836   5.993   3.221   1.987 -0.6622 -0.4060 -0.6788
 3768SOL     OW14837   6.152   4.567   5.947 -0.0130 -0.1040 -0.1103
 3768SOL    HW214838   6.153   4.472   5.948 -0.5184 -0.1070  0.8541
 3768SOL    HW314839   6.074   4.592   5.996 -1.1611  0.8020 -2.2553
 3768SOL    MW414840   6.142   4.558   5.954 -0.2312  0.0151 -0.2661
 3769SOL     OW14841   0.286   1.791   4.285 -0.7813 -0.5466  0.4280
 3769SOL    HW214842   0.219   1.738   4.244  1.0335 -1.2826 -1.7956
 3769SOL    HW314843   0.357   1.730   4.304 -0.2586  0.3953  1.6227
 3769SOL    MW414844   0.287   1.776   4.282 -0.4729 -0.5195  0.2922
 3770SOL     OW14845   4.555   0.729   4.351 -0.6359 -0.3884  0.7794
 3770SOL    HW214846   4.509   0.793   4.407  1.7271  0.5272  1.8069
 3770SOL    HW314847   4.557   0.649   4.403  1.5736  0.4662  2.1512
 3770SOL    MW414848   4.549   0.727   4.365 -0.0326 -0.1549  1.0960
 3771SOL     OW14849   5.275   5.765   0.057  0.2685 -0.3574 -0.2111
 3771SOL    HW214850   5.265   5.814  -0.024 -0.6020 -0.8014 -0.3939
 3771SOL    HW314851   5.190   5.772   0.100  0.8917  0.3418  0.9444
 3771SOL    MW414852   5.262   5.772   0.052  0.2359 -0.3237 -0.0827
 3772SOL     OW14853   5.222   1.380   4.551 -0.8001  0.4980  0.2478
 3772SOL    HW214854   5.299   1.421   4.591  1.0541 -0.8951 -1.6113
 3772SOL    HW314855   5.226   1.406   4.459 -2.1696 -0.1896 -0.0325
 3772SOL    MW414856   5.233   1.389   4.544 -0.7362  0.2235 -0.0345
 3773SOL     OW14857   6.170   4.399   0.441  0.7214  0.7984 -0.2218
 3773SOL    HW214858   6.195   4.431   0.355 -0.7540  0.2372 -0.8917
 3773SOL    HW314859   6.192   4.471   0.501  1.3433  1.3707 -1.1264
 3773SOL    MW414860   6.176   4.413   0.438  0.6088  0.7998 -0.4296
 3774SOL     OW14861   6.251   0.009   0.016  0.1850 -0.5226  0.0916
 3774SOL    HW214862   6.325  -0.030   0.062  0.1589 -0.8176 -0.1177
 3774SOL    HW314863   6.290   0.075  -0.042  0.3438 -1.1470 -0.5166
 3774SOL    MW414864   6.266   0.013   0.015  0.2025 -0.6439 -0.0162
 3775SOL     OW14865   3.795   0.339   5.529 -0.0738 -0.5514 -0.2914
 3775SOL    HW214866   3.704   0.331   5.500 -0.3939 -1.2929  0.8798
 3775SOL    HW314867   3.805   0.432   5.551 -1.1130 -0.8010  1.3480
 3775SOL    MW414868   3.784   0.351   5.528 -0.2531 -0.6822  0.0794
 3776SOL     OW14869   4.413   0.691   3.171  0.2802  0.6102  0.1614
 3776SOL    HW214870   4.460   0.608   3.171  0.2897  0.6161  0.2423
 3776SOL    HW314871   4.430   0.728   3.084 -0.0820  0.3237 -0.0382
 3776SOL    MW414872   4.421   0.685   3.159  0.2337  0.5732  0.1458
 3777SOL     OW14873   3.958   1.441   4.778  0.0719  0.9952 -0.4155
 3777SOL    HW214874   3.955   1.458   4.872  0.0846  2.5932 -0.6694
 3777SOL    HW314875   3.867   1.450   4.749 -0.2948 -1.5538 -0.2834
 3777SOL    MW414876   3.946   1.445   4.786  0.0252  0.8697 -0.4316
 3778SOL     OW14877   3.028   2.836   4.652  0.2424 -0.1822  0.4529
 3778SOL    HW214878   3.002   2.797   4.569 -0.7313  1.8478 -0.2677
 3778SOL    HW314879   3.063   2.763   4.703 -0.1990 -1.6910 -1.2954
 3778SOL    MW414880   3.029   2.822   4.648  0.0557 -0.1135  0.1271
 3779SOL     OW14881   3.812   3.684   2.467 -0.0493 -0.1958 -0.3156
 3779SOL    HW214882   3.885   3.685   2.405 -0.1180 -1.1422 -0.4246
 3779SOL    HW314883   3.851   3.714   2.550  0.2177  0.3163 -0.6233
 3779SOL    MW414884   3.827   3.688   2.470 -0.0232 -0.2531 -0.3706
 3780SOL     OW14885   1.657   1.892   1.311 -0.7128  0.6528  0.3527
 3780SOL    HW214886   1.599   1.816   1.318 -1.6379  1.3400  0.3830
 3780SOL    HW314887   1.738   1.857   1.275 -0.6739 -0.5664  1.5305
 3780SOL    MW414888   1.660   1.877   1.308 -0.8297  0.5826  0.5121
 3781SOL     OW14889   0.658   2.735   2.458 -0.2409 -0.4446 -0.3621
 3781SOL    HW214890   0.658   2.667   2.526 -2.2443  1.7320  2.0213
 3781SOL    HW314891   0.566   2.757   2.445  0.3070  1.5224 -1.3270
 3781SOL    MW414892   0.646   2.729   2.465 -0.4329  0.1021 -0.1750
 3782SOL     OW14893   5.866   2.809   4.765 -0.5931  0.2770  0.4843
 3782SOL    HW214894   5.772   2.803   4.782 -0.6777 -0.7267 -0.2003
 3782SOL    HW314895   5.903   2.730   4.806 -0.3742 -0.4819 -1.0730
 3782SOL    MW414896   5.858   2.798   4.772 -0.5754  0.0445  0.1885
 3783SOL     OW14897   3.950   2.737   0.373 -0.1857 -0.3563  0.5119
 3783SOL    HW214898   4.046   2.728   0.366 -0.2037 -0.8934  0.8608
 3783SOL    HW314899   3.929   2.812   0.317  0.8701  2.2129  3.2974
 3783SOL    MW414900   3.960   2.746   0.365 -0.0488 -0.0882  0.9254
 3784SOL     OW14901   2.330   6.386   4.991 -0.2959 -0.4177  0.2351
 3784SOL    HW214902   2.246   6.364   4.951  0.6156 -0.7313 -1.5882
 3784SOL    HW314903   2.310   6.460   5.048 -1.7963 -0.4550 -0.1907
 3784SOL    MW414904   2.316   6.393   4.993 -0.3736 -0.4640 -0.0617
 3785SOL     OW14905   5.837   4.963   5.944  0.2599  0.0439 -0.3549
 3785SOL    HW214906   5.769   5.017   5.985  1.0021  2.1190 -1.6951
 3785SOL    HW314907   5.904   4.953   6.011 -1.2026 -1.9540  0.9603
 3785SOL    MW414908   5.837   4.969   5.958  0.1649  0.0541 -0.3582
 3786SOL     OW14909   3.060   4.808   5.884 -0.5549  0.2654  0.0965
 3786SOL    HW214910   3.054   4.808   5.980 -1.1551 -0.8173  0.0781
 3786SOL    HW314911   3.100   4.892   5.862 -0.1084  0.3881  1.3157
 3786SOL    MW414912   3.064   4.819   5.894 -0.5751  0.1387  0.2549
 3787SOL     OW14913   4.444   4.043   2.477 -0.5502  0.1539 -0.1263
 3787SOL    HW214914   4.536   4.032   2.501 -0.3214  0.3243 -0.8976
 3787SOL    HW314915   4.432   4.138   2.471 -0.7410  0.1293 -0.1594
 3787SOL    MW414916   4.454   4.054   2.480 -0.5452  0.1731 -0.2324
 3788SOL     OW14917   3.296   1.797   3.024 -0.1314 -0.7928  0.1099
 3788SOL    HW214918   3.352   1.805   3.101 -0.7403 -2.2825  0.7457
 3788SOL    HW314919   3.356   1.772   2.953  0.5356  1.2332 -0.1144
 3788SOL    MW414920   3.311   1.795   3.024 -0.1237 -0.7220  0.1642
 3789SOL     OW14921   4.206   6.321   4.491  0.3066  0.6060  0.0080
 3789SOL    HW214922   4.147   6.248   4.505  0.9833  0.0573  0.0325
 3789SOL    HW314923   4.158   6.379   4.432  0.5021 -0.7605 -1.5600
 3789SOL    MW414924   4.192   6.319   4.485  0.4217  0.3533 -0.1956
 3790SOL     OW14925   5.778   4.911   4.270  0.0479 -0.3845 -0.3394
 3790SOL    HW214926   5.714   4.913   4.341 -0.6375 -0.6022 -0.9379
 3790SOL    HW314927   5.815   4.823   4.274  1.6212  0.2775  1.1176
 3790SOL    MW414928   5.774   4.900   4.280  0.1650 -0.3259 -0.2261
 3791SOL     OW14929   1.502   5.554   1.943 -0.2804 -0.0928 -0.0511
 3791SOL    HW214930   1.501   5.478   2.002  0.2865 -0.5674 -0.6413
 3791SOL    HW314931   1.427   5.541   1.885 -1.6645  1.0664  1.3894
 3791SOL    MW414932   1.492   5.542   1.943 -0.3882 -0.0025  0.0611
 3792SOL     OW14933   1.743   5.969   1.496  0.2056 -0.7058  0.2683
 3792SOL    HW214934   1.738   6.064   1.490 -0.3602 -0.7910 -0.9342
 3792SOL    HW314935   1.788   5.942   1.416 -0.8510 -1.5206 -0.0763
 3792SOL    MW414936   1.748   5.978   1.485 -0.0084 -0.8245  0.0642
 3793SOL     OW14937   3.641   1.840   4.548 -0.3381  0.0415 -0.2069
 3793SOL    HW214938   3.663   1.887   4.628 -0.0771  1.7905 -1.2731
 3793SOL    HW314939   3.552   1.807   4.564 -0.9805  1.8414  0.1821
 3793SOL    MW414940   3.632   1.842   4.561 -0.3884  0.5097 -0.2963
 3794SOL     OW14941   0.408   2.086   3.909  0.1248  0.5033 -0.1675
 3794SOL    HW214942   0.389   2.051   3.822 -0.5713 -0.8598  0.5169
 3794SOL    HW314943   0.480   2.032   3.941 -1.8911 -1.3943  1.4788
 3794SOL    MW414944   0.415   2.074   3.901 -0.2330  0.0731  0.1400
 3795SOL     OW14945   5.422   4.171   4.917 -0.1708 -0.2626  0.6130
 3795SOL    HW214946   5.457   4.257   4.895  1.2226 -0.5346  1.6760
 3795SOL    HW314947   5.355   4.188   4.983 -2.7991  0.3381 -1.9751
 3795SOL    MW414948   5.418   4.185   4.923 -0.3337 -0.2192  0.4118
 3796SOL     OW14949   5.963   0.910   3.756  0.2612  0.0998  0.1388
 3796SOL    HW214950   6.005   0.843   3.809 -0.2787  0.7719  1.4537
 3796SOL    HW314951   5.871   0.906   3.782 -0.1165  0.0917 -1.1471
 3796SOL    MW414952   5.956   0.900   3.766  0.1401  0.1874  0.1426
 3797SOL     OW14953   2.980   5.915   6.211  0.5722  0.0103 -0.6495
 3797SOL    HW214954   3.055   5.865   6.245  0.5065 -0.6155 -1.3936
 3797SOL    HW314955   3.015   5.963   6.136  0.9661  2.1992  0.8377
 3797SOL    MW414956   2.994   5.914   6.206  0.6155  0.2165 -0.5515
 3798SOL     OW14957   0.108   1.543   1.273  0.6502  0.2203  0.0096
 3798SOL    HW214958   0.110   1.457   1.315  3.3466  0.2955  0.2121
 3798SOL    HW314959   0.149   1.602   1.336 -0.8882  1.6381 -0.2426
 3798SOL    MW414960   0.114   1.540   1.287  0.8030  0.4173  0.0030
 3799SOL     OW14961   4.246   1.027   4.265 -0.1182 -0.1797 -0.5536
 3799SOL    HW214962   4.211   0.943   4.237 -0.5403  0.0607 -0.7734
 3799SOL    HW314963   4.331   1.034   4.221  0.0837 -0.6469 -0.2410
 3799SOL    MW414964   4.252   1.017   4.256 -0.1472 -0.2096 -0.5413
 3800SOL     OW14965   1.611   4.203   4.558 -0.4410 -0.5687 -0.7599
 3800SOL    HW214966   1.700   4.171   4.544 -0.8839 -1.1345 -2.5477
 3800SOL    HW314967   1.608   4.225   4.651  2.4612  2.1645 -1.1121
 3800SOL    MW414968   1.623   4.202   4.568 -0.1165 -0.2828 -1.0423
 3801SOL     OW14969   6.003   0.767   4.955  0.2126 -0.4481 -0.0345
 3801SOL    HW214970   6.022   0.674   4.952 -2.0798 -0.9296 -1.3865
 3801SOL    HW314971   5.970   0.783   5.043  0.7084 -0.8604  0.2317
 3801SOL    MW414972   6.001   0.757   4.966 -0.0244 -0.5660 -0.1778
 3802SOL     OW14973   2.101   4.994   6.076  0.6169 -0.7750 -0.4697
 3802SOL    HW214974   2.088   4.899   6.075 -1.3096 -0.6336  1.6758
 3802SOL    HW314975   2.041   5.026   6.008 -0.4166 -0.9803  0.3250
 3802SOL    MW414976   2.091   4.986   6.067  0.2264 -0.7834 -0.0818
 3803SOL     OW14977   1.473   4.265   3.981 -0.1621  0.2162 -0.1957
 3803SOL    HW214978   1.388   4.269   3.939  0.1304 -0.8477 -0.9442
 3803SOL    HW314979   1.535   4.290   3.913  0.1442  0.8991  0.3184
 3803SOL    MW414980   1.470   4.268   3.967 -0.0831  0.1659 -0.2267
 3804SOL     OW14981   2.863   2.487   1.131 -0.2309 -0.2325 -0.0143
 3804SOL    HW214982   2.881   2.510   1.040 -0.5828  0.6966  0.1465
 3804SOL    HW314983   2.944   2.508   1.178 -0.2731 -0.1003 -0.0018
 3804SOL    MW414984   2.876   2.493   1.125 -0.2829 -0.0924  0.0086
 3805SOL     OW14985   0.391   5.260   2.138 -0.2504  0.1411  0.5000
 3805SOL    HW214986   0.433   5.179   2.167  0.7400  0.6324  0.4969
 3805SOL    HW314987   0.304   5.257   2.177  0.1607 -0.4093  1.4267
 3805SOL    MW414988   0.385   5.249   2.147 -0.0655  0.1333  0.6218
 3806SOL     OW14989   1.240   4.677   5.245 -0.3985  0.2466 -0.1089
 3806SOL    HW214990   1.201   4.688   5.158 -1.0842 -1.4659 -0.0482
 3806SOL    HW314991   1.319   4.625   5.230 -0.1409  0.5432  0.2123
 3806SOL    MW414992   1.245   4.672   5.232 -0.4550  0.0598 -0.0585
 3807SOL     OW14993   5.333   5.135   5.873 -0.9634 -0.0739 -0.5103
 3807SOL    HW214994   5.410   5.179   5.909 -0.8246 -0.1255 -0.7360
 3807SOL    HW314995   5.297   5.085   5.946 -1.5473  0.9778 -0.0628
 3807SOL    MW414996   5.339   5.134   5.887 -1.0222  0.0580 -0.4810
 3808SOL     OW14997   5.934   0.108   0.299 -0.1236 -0.2849 -0.0832
 3808SOL    HW214998   5.843   0.084   0.314 -0.6787  1.5935 -0.2220
 3808SOL    HW314999   5.960   0.158   0.376  1.1376 -1.6221  0.4122
 3808SOL    MW415000   5.925   0.111   0.311 -0.0305 -0.2135 -0.0361
 3809SOL     OW15001   1.543   4.456   6.040 -0.5441 -0.2483  0.2461
 3809SOL    HW215002   1.537   4.446   6.135  0.0913  0.4137  0.3657
 3809SOL    HW315003   1.519   4.370   6.005  0.2798 -0.8292  1.0546
 3809SOL    MW415004   1.539   4.443   6.048 -0.3515 -0.2376  0.3686
 3810SOL     OW15005   5.453   3.039   4.312  0.2906  0.0455 -0.6997
 3810SOL    HW215006   5.495   3.124   4.301  2.0081 -0.7791 -0.8015
 3810SOL    HW315007   5.513   2.989   4.368 -1.3741 -0.6380  0.5747
 3810SOL    MW415008   5.466   3.043   4.318  0.2975 -0.1535 -0.5450
 3811SOL     OW15009   5.512   4.422   4.909  0.1351  0.1833  0.3373
 3811SOL    HW215010   5.462   4.496   4.873  2.9967  0.7767 -2.9057
 3811SOL    HW315011   5.550   4.456   4.991 -0.0384  1.7012 -0.1857
 3811SOL    MW415012   5.510   4.436   4.915  0.4898  0.4618 -0.1596
 3812SOL     OW15013   4.699   0.780   4.740  0.4665 -0.2470 -0.5734
 3812SOL    HW215014   4.720   0.842   4.810  0.6737 -0.0725 -0.7906
 3812SOL    HW315015   4.603   0.772   4.744  0.4609 -0.1107 -0.3801
 3812SOL    MW415016   4.689   0.787   4.750  0.4931 -0.2060 -0.5765
 3813SOL     OW15017   3.959   6.015   5.461  0.1113 -0.2105  0.2570
 3813SOL    HW215018   3.873   6.010   5.504  0.4424  1.1173  1.1369
 3813SOL    HW315019   3.981   5.925   5.439 -0.4067 -0.8516  2.2444
 3813SOL    MW415020   3.950   6.003   5.463  0.0866 -0.1199  0.6353
 3814SOL     OW15021   4.307   2.174   0.479  0.1028 -0.0220 -0.3706
 3814SOL    HW215022   4.248   2.137   0.544  0.0874  0.2556 -0.2249
 3814SOL    HW315023   4.320   2.104   0.415 -0.7146  0.0634 -0.6298
 3814SOL    MW415024   4.301   2.160   0.479 -0.0071  0.0259 -0.3856
 3815SOL     OW15025   1.278   2.120   2.956  0.0862  0.7760 -0.0809
 3815SOL    HW215026   1.219   2.195   2.964  0.5038  1.3325 -1.7181
 3815SOL    HW315027   1.360   2.157   2.925  0.6288 -0.2442  0.0792
 3815SOL    MW415028   1.281   2.134   2.953  0.2129  0.7148 -0.2758
 3816SOL     OW15029   1.129   3.940   0.089 -0.7912 -0.6849 -0.4667
 3816SOL    HW215030   1.052   3.884   0.084 -2.3560  1.1050  1.6317
 3816SOL    HW315031   1.096   4.029   0.077  0.8037  0.2059  1.1988
 3816SOL    MW415032   1.115   3.944   0.087 -0.7872 -0.3312  0.0299
 3817SOL     OW15033   4.879   4.468   6.237 -0.0628  0.3633  0.6179
 3817SOL    HW215034   4.787   4.478   6.263 -0.7369  0.5347 -1.5824
 3817SOL    HW315035   4.889   4.375   6.220  0.1776  0.3445  0.8661
 3817SOL    MW415036   4.868   4.457   6.238 -0.1201  0.3835  0.3604
 3818SOL     OW15037   4.783   1.056   3.889 -0.1600  0.2515 -0.0463
 3818SOL    HW215038   4.853   0.992   3.880 -0.2211  0.1040  0.5206
 3818SOL    HW315039   4.706   1.012   3.853 -0.6486 -0.7549  2.1211
 3818SOL    MW415040   4.782   1.042   3.883 -0.2325  0.0993  0.3144
 3819SOL     OW15041   1.348   3.022   5.043 -0.1275  0.6818 -0.4551
 3819SOL    HW215042   1.307   3.028   4.957 -1.0559  2.5143  0.0723
 3819SOL    HW315043   1.291   2.963   5.093  0.6889 -0.8012 -1.1877
 3819SOL    MW415044   1.335   3.015   5.038 -0.1423  0.7279 -0.4822
 3820SOL     OW15045   2.123   1.688   0.889  0.0957  0.2663 -0.4746
 3820SOL    HW215046   2.035   1.675   0.925 -0.4111  0.7246 -1.5235
 3820SOL    HW315047   2.165   1.749   0.949 -0.1116 -0.3485  0.3169
 3820SOL    MW415048   2.117   1.694   0.902  0.0015  0.2457 -0.5085
 3821SOL     OW15049   4.857   5.135   0.125 -0.1673 -0.6166  0.4715
 3821SOL    HW215050   4.937   5.181   0.099 -2.1891  2.2672 -1.1993
 3821SOL    HW315051   4.847   5.066   0.060 -0.8609  1.3669 -1.6637
 3821SOL    MW415052   4.867   5.132   0.113 -0.5256  0.0256 -0.0307
 3822SOL     OW15053   2.340   4.304   2.850  0.5550 -0.5097 -0.0514
 3822SOL    HW215054   2.410   4.266   2.904 -0.1253  0.0847  1.3124
 3822SOL    HW315055   2.342   4.398   2.872 -0.4976 -0.4458 -0.1656
 3822SOL    MW415056   2.350   4.311   2.860  0.3264 -0.4229  0.1135
 3823SOL     OW15057   2.618   3.373   3.852 -0.3113  0.2313 -0.4370
 3823SOL    HW215058   2.529   3.364   3.819  0.1236  2.0972 -2.3730
 3823SOL    HW315059   2.672   3.328   3.786  0.2720  0.0951  0.1251
 3823SOL    MW415060   2.613   3.366   3.839 -0.1770  0.4595 -0.6183
 3824SOL     OW15061   4.615   5.618   0.538 -0.1199 -0.0923  0.6808
 3824SOL    HW215062   4.537   5.618   0.593 -0.7702  0.8082 -0.2299
 3824SOL    HW315063   4.686   5.591   0.598 -1.0920 -0.8822  1.5204
 3824SOL    MW415064   4.614   5.614   0.553 -0.3339 -0.0777  0.6714
 3825SOL     OW15065   2.108   0.358   5.484 -0.1867 -0.3544 -0.6145
 3825SOL    HW215066   2.134   0.379   5.574 -0.4683 -0.5311 -0.4941
 3825SOL    HW315067   2.179   0.394   5.430 -0.0677 -0.1609 -0.3293
 3825SOL    MW415068   2.121   0.366   5.489 -0.2081 -0.3522 -0.5610
 3826SOL     OW15069   0.408   5.523   5.806 -0.3088  0.3488 -0.3804
 3826SOL    HW215070   0.467   5.571   5.748 -0.2240  1.4100  0.5629
 3826SOL    HW315071   0.451   5.525   5.892 -0.7198 -0.6803 -0.1348
 3826SOL    MW415072   0.422   5.529   5.810 -0.3518  0.3530 -0.2235
 3827SOL     OW15073   4.850   0.795   6.291  0.6831  0.0618  0.6780
 3827SOL    HW215074   4.768   0.803   6.242  0.2363  1.5476  1.5938
 3827SOL    HW315075   4.875   0.886   6.308  2.1205 -0.3991  1.0857
 3827SOL    MW415076   4.842   0.808   6.287  0.8138  0.1970  0.8527
 3828SOL     OW15077   4.715   4.871   4.238 -0.1283  0.5948  0.1323
 3828SOL    HW215078   4.668   4.789   4.220  1.7407 -0.4673 -0.1492
 3828SOL    HW315079   4.735   4.867   4.332 -0.2201  0.8388  0.1631
 3828SOL    MW415080   4.711   4.860   4.248  0.1062  0.4868  0.0993
 3829SOL     OW15081   0.400   1.978   1.013  0.2980  0.2801 -0.0798
 3829SOL    HW215082   0.319   1.963   0.965  0.6277  0.1012 -0.5908
 3829SOL    HW315083   0.456   1.904   0.991  0.2120 -0.1678  1.1302
 3829SOL    MW415084   0.397   1.966   1.004  0.3302  0.1974  0.0124
 3830SOL     OW15085   2.396   1.766   1.152 -0.0938 -0.0985  0.1296
 3830SOL    HW215086   2.302   1.782   1.151 -0.5851 -2.2760 -2.8620
 3830SOL    HW315087   2.404   1.672   1.169  1.5345 -0.0019  0.0416
 3830SOL    MW415088   2.385   1.756   1.154  0.0562 -0.3730 -0.2767
 3831SOL     OW15089   3.956   3.829   1.259  0.1648 -0.3508 -0.6485
 3831SOL    HW215090   3.880   3.837   1.317 -0.5684  1.2864 -1.7347
 3831SOL    HW315091   4.028   3.803   1.316 -0.6069  0.8314  0.9282
 3831SOL    MW415092   3.955   3.827   1.274 -0.0337  0.0212 -0.5838
 3832SOL     OW15093   2.706   0.963   4.426  0.0012  0.3039 -0.8441
 3832SOL    HW215094   2.619   0.966   4.388  0.0327  2.2519 -0.8349
 3832SOL    HW315095   2.691   0.969   4.521  0.1705  1.6825 -0.8939
 3832SOL    MW415096   2.692   0.964   4.434  0.0277  0.7428 -0.8494
 3833SOL     OW15097   5.172   1.108   4.301 -0.3389  0.6312  0.0530
 3833SOL    HW215098   5.256   1.154   4.302 -0.5509  1.0238  0.8679
 3833SOL    HW315099   5.124   1.145   4.375 -0.7274 -0.4996  0.3865
 3833SOL    MW415100   5.177   1.119   4.311 -0.4181  0.5338  0.2045
 3834SOL     OW15101   1.464   6.012   2.039 -0.1304 -0.2240 -0.0135
 3834SOL    HW215102   1.377   6.051   2.031  0.1818  0.7214  1.0378
 3834SOL    HW315103   1.468   5.948   1.968 -2.3147 -1.5101  0.9138
 3834SOL    MW415104   1.453   6.009   2.028 -0.3774 -0.2690  0.2476
 3835SOL     OW15105   1.599   2.922   5.739 -0.3837  0.3327  0.2387
 3835SOL    HW215106   1.634   2.899   5.653 -1.5408 -0.0828 -0.1334
 3835SOL    HW315107   1.599   2.840   5.788 -0.0935  0.4894  0.4997
 3835SOL    MW415108   1.604   2.908   5.734 -0.4981  0.2985  0.2241
 3836SOL     OW15109   0.721   1.611   1.212  0.0215 -0.3390 -0.5456
 3836SOL    HW215110   0.645   1.629   1.268  0.5908 -0.1121  0.1704
 3836SOL    HW315111   0.781   1.562   1.268  0.0633 -1.2440 -1.3615
 3836SOL    MW415112   0.719   1.607   1.227  0.1021 -0.4285 -0.5588
 3837SOL     OW15113   3.451   1.854   2.378  0.0094 -0.1707 -0.8564
 3837SOL    HW215114   3.429   1.763   2.360 -0.2539 -0.1233 -0.7799
 3837SOL    HW315115   3.534   1.868   2.333 -0.2833 -0.2563 -1.4366
 3837SOL    MW415116   3.459   1.844   2.370 -0.0639 -0.1758 -0.9229
 3838SOL     OW15117   3.369   1.321   2.489  0.0613  0.1379  0.0864
 3838SOL    HW215118   3.439   1.256   2.494  0.3242  0.4572  0.7729
 3838SOL    HW315119   3.296   1.276   2.448 -0.2565 -1.0372  1.8084
 3838SOL    MW415120   3.369   1.307   2.485  0.0540  0.0250  0.4041
 3839SOL     OW15121   0.337   6.039   3.431  0.0306  0.1841  0.1356
 3839SOL    HW215122   0.384   5.986   3.496  0.2392 -0.4431 -0.5143
 3839SOL    HW315123   0.391   6.117   3.420 -0.2307  0.5087  1.0350
 3839SOL    MW415124   0.350   6.042   3.438  0.0236  0.1442  0.1685
 3840SOL     OW15125   1.694   4.398   2.087 -0.0212 -0.3230  0.2928
 3840SOL    HW215126   1.654   4.311   2.084  0.9934 -0.7763 -1.4532
 3840SOL    HW315127   1.645   4.449   2.022  0.1524  0.0642  0.4655
 3840SOL    MW415128   1.682   4.393   2.078  0.1355 -0.3317  0.0852
 3841SOL     OW15129   0.420   2.588   5.402 -0.5634  0.5572  0.0732
 3841SOL    HW215130   0.471   2.586   5.483 -1.0699  0.7099  0.4010
 3841SOL    HW315131   0.483   2.570   5.333 -0.5223 -2.1090  0.6974
 3841SOL    MW415132   0.435   2.585   5.404 -0.6248  0.2256  0.1988
 3842SOL     OW15133   2.831   1.649   1.974  0.3026  0.4830 -0.4403
 3842SOL    HW215134   2.901   1.660   2.037 -0.0265 -0.5764  0.1415
 3842SOL    HW315135   2.861   1.580   1.916 -0.3705 -0.2083  0.0082
 3842SOL    MW415136   2.844   1.641   1.975  0.1704  0.2520 -0.3043
 3843SOL     OW15137   6.153   1.889   2.372  0.2229  0.0099  0.0880
 3843SOL    HW215138   6.086   1.932   2.319 -0.4695 -1.8223 -0.6185
 3843SOL    HW315139   6.230   1.885   2.315 -0.0182 -0.5256 -0.2097
 3843SOL    MW415140   6.154   1.894   2.358  0.0997 -0.3025 -0.0445
 3844SOL     OW15141   3.410   5.495   1.714  0.2469 -0.1454 -0.3944
 3844SOL    HW215142   3.454   5.475   1.797 -0.1262  1.0935  0.1283
 3844SOL    HW315143   3.424   5.589   1.703  1.1704 -0.4688 -2.2665
 3844SOL    MW415144   3.418   5.505   1.724  0.3195 -0.0246 -0.5724
 3845SOL     OW15145   1.026   5.818   3.143  0.3837  0.1614 -0.2133
 3845SOL    HW215146   1.010   5.724   3.134  0.1310  0.3597 -2.2143
 3845SOL    HW315147   1.009   5.836   3.236 -0.0623 -1.6623  0.0995
 3845SOL    MW415148   1.022   5.808   3.154  0.2915 -0.0530 -0.4360
 3846SOL     OW15149   6.353   2.862   5.739  0.1604 -0.1197  0.2941
 3846SOL    HW215150   6.295   2.936   5.760 -1.4672 -1.1382 -0.3492
 3846SOL    HW315151   6.438   2.887   5.775 -0.7829  1.2533  1.7143
 3846SOL    MW415152   6.356   2.875   5.747 -0.1788 -0.0729  0.3966
 3847SOL     OW15153   0.134   5.306   0.430  0.1809  0.3734 -0.2669
 3847SOL    HW215154   0.101   5.304   0.520  0.4734  1.3858 -0.1239
 3847SOL    HW315155   0.228   5.293   0.438  0.3919  1.6755 -0.2934
 3847SOL    MW415156   0.142   5.304   0.443  0.2473  0.6788 -0.2515
 3848SOL     OW15157   3.641   5.364   5.440  0.1766  0.6114  0.4373
 3848SOL    HW215158   3.599   5.350   5.355 -0.5381  2.3740  0.4660
 3848SOL    HW315159   3.598   5.302   5.499 -0.7255  0.7517 -0.0570
 3848SOL    MW415160   3.630   5.354   5.436 -0.0367  0.8624  0.3759
 3849SOL     OW15161   5.233   2.142   2.972 -0.0951 -0.3099  0.0594
 3849SOL    HW215162   5.216   2.054   2.938 -1.1500  0.1319 -0.6073
 3849SOL    HW315163   5.148   2.186   2.969  0.1428  0.3368  1.6057
 3849SOL    MW415164   5.220   2.136   2.967 -0.2029 -0.1663  0.1754
 3850SOL     OW15165   5.036   1.892   0.831  0.0255  0.6401  0.1076
 3850SOL    HW215166   4.997   1.838   0.763  1.8778 -0.9314  0.1987
 3850SOL    HW315167   5.121   1.851   0.848 -0.4719  0.7656  3.5858
 3850SOL    MW415168   5.042   1.879   0.824  0.2043  0.4493  0.5785
 3851SOL     OW15169   1.598   2.384   0.044  0.4276 -0.5134  0.5553
 3851SOL    HW215170   1.550   2.426  -0.028  0.4946 -0.4447  0.5515
 3851SOL    HW315171   1.648   2.314   0.001  1.8790  0.6610  0.2649
 3851SOL    MW415172   1.598   2.380   0.029  0.6280 -0.3494  0.5165
 3852SOL     OW15173   3.135   2.885   5.118  0.5987  0.1896 -0.3064
 3852SOL    HW215174   3.146   2.933   5.035  3.3300  0.3323  0.0391
 3852SOL    HW315175   3.116   2.953   5.182 -0.5608  0.1885 -0.6292
 3852SOL    MW415176   3.134   2.901   5.115  0.8061  0.2083 -0.3034
 3853SOL     OW15177   4.571   5.289   1.913  0.4472 -0.7518 -0.2457
 3853SOL    HW215178   4.631   5.222   1.881  0.2931 -1.3168  0.6203
 3853SOL    HW315179   4.586   5.292   2.007  1.0568  1.0407 -0.3656
 3853SOL    MW415180   4.581   5.281   1.921  0.5073 -0.5898 -0.1473
 3854SOL     OW15181   1.408   0.147   4.410  0.1516  0.1023 -0.0131
 3854SOL    HW215182   1.439   0.072   4.359  2.2514  0.6959  0.3163
 3854SOL    HW315183   1.398   0.113   4.499  2.1184  0.3935  0.3648
 3854SOL    MW415184   1.411   0.132   4.415  0.6881  0.2190  0.0802
 3855SOL     OW15185   3.390   2.585   5.715  0.6135 -0.2230 -0.2246
 3855SOL    HW215186   3.389   2.556   5.807  1.3121 -0.1360 -0.1804
 3855SOL    HW315187   3.355   2.674   5.717  0.3574 -0.3273 -0.0802
 3855SOL    MW415188   3.385   2.593   5.728  0.6719 -0.2253 -0.1997
 3856SOL     OW15189   0.686   4.133   4.802  0.3689  0.2260 -0.4313
 3856SOL    HW215190   0.666   4.077   4.876  4.7370  2.0416  2.5510
 3856SOL    HW315191   0.631   4.210   4.815 -0.8773 -0.5749 -0.7680
 3856SOL    MW415192   0.676   4.136   4.813  0.7808  0.3599 -0.0822
 3857SOL     OW15193   0.485   2.024   1.986  0.6562 -0.1385  0.0169
 3857SOL    HW215194   0.506   1.933   2.008  0.5398  0.3046  2.1083
 3857SOL    HW315195   0.423   2.017   1.913 -1.4128 -1.8773  1.8184
 3857SOL    MW415196   0.479   2.011   1.979  0.3679 -0.3094  0.5305
 3858SOL     OW15197   1.958   3.198   6.162 -0.1199  0.5554 -0.4300
 3858SOL    HW215198   1.994   3.285   6.183 -0.6387  1.0382 -1.4681
 3858SOL    HW315199   1.893   3.183   6.231 -0.4706  1.2861 -0.5818
 3858SOL    MW415200   1.954   3.208   6.174 -0.2346  0.7155 -0.5870
 3859SOL     OW15201   2.228   1.281   1.269  0.1882  0.2769  0.1007
 3859SOL    HW215202   2.228   1.252   1.178 -0.1244  0.7217 -0.0471
 3859SOL    HW315203   2.223   1.200   1.321 -0.6373  0.0601 -0.2963
 3859SOL    MW415204   2.227   1.267   1.264  0.0380  0.3070  0.0288
 3860SOL     OW15205   3.798   0.277   6.283 -0.6486 -0.1263  0.2311
 3860SOL    HW215206   3.789   0.221   6.206  0.5778 -0.1530  0.0943
 3860SOL    HW315207   3.892   0.294   6.290 -0.6041 -0.9474  2.3053
 3860SOL    MW415208   3.809   0.272   6.274 -0.4809 -0.2381  0.4867
 3861SOL     OW15209   2.576   5.667   3.310  0.1442 -0.6907 -0.6723
 3861SOL    HW215210   2.495   5.616   3.317  0.1477 -0.6550 -0.3487
 3861SOL    HW315211   2.594   5.670   3.216  0.3627 -1.6327 -0.6684
 3861SOL    MW415212   2.567   5.660   3.299  0.1735 -0.8102 -0.6291
 3862SOL     OW15213   2.947   5.267   4.272 -0.4363  0.4949 -0.1124
 3862SOL    HW215214   3.035   5.234   4.291 -0.6298 -0.1362 -0.2915
 3862SOL    HW315215   2.961   5.356   4.238  0.2906 -0.3386 -2.1346
 3862SOL    MW415216   2.961   5.275   4.270 -0.3659  0.3017 -0.4029
 3863SOL     OW15217   4.715   0.195   0.595  0.2635  0.2469 -0.4052
 3863SOL    HW215218   4.628   0.154   0.602  0.8416 -1.0078 -0.3767
 3863SOL    HW315219   4.698   0.288   0.611 -1.3042  0.2761 -1.9273
 3863SOL    MW415220   4.701   0.202   0.598  0.1329  0.0852 -0.6022
 3864SOL     OW15221   2.166   1.944   5.356  0.3249 -0.0815 -0.2403
 3864SOL    HW215222   2.182   2.010   5.423 -0.5067 -0.6178  0.5208
 3864SOL    HW315223   2.087   1.973   5.311 -0.2320 -0.6806  0.3082
 3864SOL    MW415224   2.157   1.956   5.359  0.1417 -0.2313 -0.0675
 3865SOL     OW15225   0.750   1.070   0.014 -0.1938 -0.4730 -0.1376
 3865SOL    HW215226   0.718   0.982   0.037 -2.1160  0.2310  0.0497
 3865SOL    HW315227   0.784   1.060  -0.075 -0.2354 -1.4413 -0.0601
 3865SOL    MW415228   0.750   1.057   0.005 -0.4529 -0.5079 -0.1027
 3866SOL     OW15229   4.204   0.430   2.833 -0.2355  0.0889  0.0866
 3866SOL    HW215230   4.144   0.477   2.892  0.9037  0.5950  0.8730
 3866SOL    HW315231   4.291   0.459   2.860  0.3803 -0.8071 -0.8931
 3866SOL    MW415232   4.207   0.440   2.845 -0.0040  0.0375  0.0611
 3867SOL     OW15233   5.512   2.900   4.078  0.1655 -0.3810  0.1772
 3867SOL    HW215234   5.483   2.951   4.154  0.3776 -1.9494  1.3843
 3867SOL    HW315235   5.606   2.915   4.073  0.5027 -1.7978  1.5060
 3867SOL    MW415236   5.520   2.909   4.087  0.2379 -0.7749  0.5118
 3868SOL     OW15237   1.829   2.087   4.272  0.2157  0.0801 -0.0070
 3868SOL    HW215238   1.762   2.106   4.206 -0.1656 -0.7445  0.1239
 3868SOL    HW315239   1.788   2.022   4.329  0.4963  0.8685  1.1231
 3868SOL    MW415240   1.815   2.081   4.271  0.2024  0.0753  0.1594
 3869SOL     OW15241   6.187   0.902   1.931  0.0080 -0.1148  0.0778
 3869SOL    HW215242   6.116   0.958   1.897 -1.1969 -1.2767  0.5753
 3869SOL    HW315243   6.177   0.906   2.026 -1.0420 -2.2541  0.1243
 3869SOL    MW415244   6.176   0.910   1.939 -0.2895 -0.5503  0.1496
 3870SOL     OW15245   0.850   3.971   1.913  1.2336 -0.4885  0.4232
 3870SOL    HW215246   0.887   3.922   1.840  0.6612 -2.6272  1.4881
 3870SOL    HW315247   0.832   3.905   1.980  0.2360  1.1684  1.8901
 3870SOL    MW415248   0.853   3.956   1.912  1.0265 -0.5520  0.7572
 3871SOL     OW15249   0.337   5.002   2.507 -0.0503  0.0950 -0.3708
 3871SOL    HW215250   0.305   4.916   2.479 -1.7065  0.4634  0.2714
 3871SOL    HW315251   0.400   4.982   2.576  0.1971 -0.6322 -0.7961
 3871SOL    MW415252   0.341   4.988   2.512 -0.2361  0.0477 -0.3422
 3872SOL     OW15253   5.677   5.414   2.471  0.4628  0.1730 -0.0772
 3872SOL    HW215254   5.626   5.351   2.420  0.8193 -0.4377  0.3069
 3872SOL    HW315255   5.633   5.417   2.556  0.3546  0.5659 -0.1457
 3872SOL    MW415256   5.664   5.406   2.476  0.4956  0.1443 -0.0355
 3873SOL     OW15257   1.514   3.931   1.022  0.3027  0.1526  0.1315
 3873SOL    HW215258   1.555   3.895   1.101  1.4172  2.8523  0.9084
 3873SOL    HW315259   1.553   3.881   0.950  1.2994 -0.5658  1.1271
 3873SOL    MW415260   1.524   3.919   1.023  0.5813  0.4140  0.3653
 3874SOL     OW15261   0.315   5.492   2.517  0.1693 -0.6237 -0.4808
 3874SOL    HW215262   0.394   5.535   2.550  1.8459 -1.4762 -3.0422
 3874SOL    HW315263   0.308   5.412   2.569  1.3384 -0.8132 -0.5959
 3874SOL    MW415264   0.324   5.487   2.528  0.5448 -0.7612 -0.8339
 3875SOL     OW15265   4.347   0.329   1.593  0.1140  0.2191  0.5069
 3875SOL    HW215266   4.273   0.389   1.582 -1.5574 -1.1334  3.1629
 3875SOL    HW315267   4.394   0.362   1.669  0.7100 -0.3859  0.4103
 3875SOL    MW415268   4.343   0.341   1.601 -0.0279 -0.0392  0.8446
 3876SOL     OW15269   1.973   2.130   0.757 -0.5765 -0.4732  0.3206
 3876SOL    HW215270   2.029   2.052   0.760  0.6662  0.4142  1.5366
 3876SOL    HW315271   1.930   2.132   0.843  1.4789  1.5793  1.4108
 3876SOL    MW415272   1.975   2.120   0.769 -0.1414 -0.0853  0.6249
 3877SOL     OW15273   3.942   1.604   0.127  0.3219  0.0510  0.0045
 3877SOL    HW215274   3.879   1.632   0.061  0.1181 -1.7819 -0.6128
 3877SOL    HW315275   4.009   1.558   0.079  1.4871  0.8317  0.8218
 3877SOL    MW415276   3.942   1.602   0.112  0.4487 -0.0878  0.0309
 3878SOL     OW15277   3.400   5.816   3.787  0.0228  0.1809  0.1605
 3878SOL    HW215278   3.320   5.843   3.832  0.1387 -0.0662  0.5157
 3878SOL    HW315279   3.371   5.799   3.697 -0.2757  0.3372  0.2245
 3878SOL    MW415280   3.385   5.817   3.781 -0.0013  0.1689  0.2158
 3879SOL     OW15281   2.900   1.152   4.039  0.3449 -0.4492  0.2291
 3879SOL    HW215282   2.949   1.091   4.094  1.1666 -0.7547 -0.8054
 3879SOL    HW315283   2.815   1.108   4.025  1.0106 -1.5136 -0.7012
 3879SOL    MW415284   2.895   1.138   4.044  0.5412 -0.6299 -0.0301
 3880SOL     OW15285   3.454   0.707   2.971  0.8214 -0.2158  0.2780
 3880SOL    HW215286   3.451   0.765   3.047 -0.3879  0.6963 -0.4097
 3880SOL    HW315287   3.462   0.766   2.896  1.8867 -1.0886 -0.3249
 3880SOL    MW415288   3.454   0.722   2.971  0.8024 -0.2106  0.1078
 3881SOL     OW15289   0.261   1.126   4.503  0.0752 -0.0431  0.0185
 3881SOL    HW215290   0.331   1.188   4.527 -0.6407  0.7496  0.0966
 3881SOL    HW315291   0.180   1.175   4.518 -0.5064 -1.0518  0.1957
 3881SOL    MW415292   0.260   1.141   4.508 -0.0960 -0.0716  0.0522
 3882SOL     OW15293   1.899   1.768   1.196 -0.3525  0.4979 -0.2646
 3882SOL    HW215294   1.960   1.696   1.210 -0.4491  0.5764  0.6033
 3882SOL    HW315295   1.882   1.767   1.102  0.8716  0.3908 -0.4914
 3882SOL    MW415296   1.905   1.758   1.185 -0.2037  0.4941 -0.1800
 3883SOL     OW15297   2.084   5.125   1.455  0.4049 -0.0026  0.5302
 3883SOL    HW215298   2.037   5.053   1.413 -0.5631  0.5152  0.7037
 3883SOL    HW315299   2.037   5.204   1.426  1.1591  0.5283  0.7220
 3883SOL    MW415300   2.072   5.126   1.445  0.3767  0.1358  0.5784
 3884SOL     OW15301   1.072   3.195   5.831 -0.1642 -0.0510  0.4145
 3884SOL    HW215302   1.030   3.130   5.887 -2.0822 -1.1080 -2.0252
 3884SOL    HW315303   1.039   3.279   5.863 -1.4424 -0.6466  0.7326
 3884SOL    MW415304   1.062   3.197   5.843 -0.5859 -0.2691  0.1346
 3885SOL     OW15305   4.085   1.639   5.790  0.0033  0.0072  0.3890
 3885SOL    HW215306   4.110   1.581   5.719  1.1989  2.0097 -0.9353
 3885SOL    HW315307   4.007   1.684   5.757  1.0749  1.5868 -0.1007
 3885SOL    MW415308   4.078   1.637   5.776  0.3024  0.4798  0.1497
 3886SOL     OW15309   0.035   3.151   1.983  0.7032 -0.1608  0.3915
 3886SOL    HW215310   0.112   3.096   1.969 -0.6321 -1.7941 -0.9111
 3886SOL    HW315311  -0.038   3.101   1.946 -0.5423  2.7027 -1.3527
 3886SOL    MW415312   0.035   3.137   1.976  0.3627  0.0015 -0.0105
 3887SOL     OW15313   1.114   2.526   4.374 -0.4041  0.3071  0.1036
 3887SOL    HW215314   1.104   2.587   4.301  0.0994 -0.3804 -0.5527
 3887SOL    HW315315   1.173   2.572   4.434  0.3894  0.2745 -0.6241
 3887SOL    MW415316   1.120   2.540   4.372 -0.2330  0.2121 -0.0790
 3888SOL     OW15317   5.989   5.357   0.336  0.7377 -0.4103  0.0669
 3888SOL    HW215318   6.073   5.395   0.309  1.6417 -0.2461  2.8748
 3888SOL    HW315319   5.962   5.410   0.411 -1.1972 -1.3695  0.1017
 3888SOL    MW415320   5.996   5.369   0.342  0.6017 -0.5152  0.4420
 3889SOL     OW15321   4.943   4.538   5.808  0.1022 -0.3054  1.2197
 3889SOL    HW215322   4.889   4.617   5.808  0.0483 -0.3410  1.4171
 3889SOL    HW315323   4.912   4.487   5.733  1.7167  0.9283 -0.3823
 3889SOL    MW415324   4.932   4.541   5.798  0.3081 -0.1473  1.0344
 3890SOL     OW15325   0.607   5.956   4.215 -0.1481 -0.0805  0.2237
 3890SOL    HW215326   0.562   5.895   4.273  0.7500 -0.2272  0.7848
 3890SOL    HW315327   0.540   6.021   4.192 -1.0162 -1.0485 -0.0786
 3890SOL    MW415328   0.592   5.956   4.220 -0.1441 -0.2276  0.2578
 3891SOL     OW15329   0.724   0.016   1.957  0.7336  0.0363 -0.0306
 3891SOL    HW215330   0.784  -0.024   2.019  0.7650 -0.3628 -0.3153
 3891SOL    HW315331   0.644   0.031   2.008  1.2725  1.1608  0.5221
 3891SOL    MW415332   0.721   0.013   1.972  0.8089  0.1320  0.0048
 3892SOL     OW15333   1.174   1.971   3.181  0.1440 -0.1806 -0.0031
 3892SOL    HW215334   1.215   2.026   3.113 -0.3601  0.7395  0.4129
 3892SOL    HW315335   1.227   1.892   3.183  1.7671  0.8759  0.3607
 3892SOL    MW415336   1.186   1.968   3.172  0.2916  0.0802  0.0998
 3893SOL     OW15337   4.465   4.236   4.727  0.0127 -0.3161 -0.6141
 3893SOL    HW215338   4.559   4.235   4.708  0.0608  1.3255 -0.5774
 3893SOL    HW315339   4.424   4.220   4.642  0.3101 -0.8049 -0.6730
 3893SOL    MW415340   4.472   4.233   4.713  0.0583 -0.1640 -0.6170
 3894SOL     OW15341   3.271   2.067   3.576 -0.5614  0.0699 -0.1901
 3894SOL    HW215342   3.282   2.050   3.483 -0.6566 -3.2468  0.2951
 3894SOL    HW315343   3.177   2.057   3.591 -0.5524  0.6359  0.2682
 3894SOL    MW415344   3.260   2.063   3.566 -0.5728 -0.2931 -0.0656
 3895SOL     OW15345   5.173   4.565   4.963 -0.2274  0.2361  0.4005
 3895SOL    HW215346   5.192   4.579   5.056  1.7595 -1.8741  0.4048
 3895SOL    HW315347   5.246   4.606   4.917  0.2739 -1.1315 -0.0564
 3895SOL    MW415348   5.185   4.572   4.969  0.1009 -0.2228  0.3408
 3896SOL     OW15349   2.324   2.477   3.496 -0.3755 -0.4502  0.1256
 3896SOL    HW215350   2.258   2.434   3.551 -1.4958  1.1446  0.0884
 3896SOL    HW315351   2.346   2.557   3.542  2.4218 -1.4345  0.6867
 3896SOL    MW415352   2.318   2.482   3.509 -0.1542 -0.3697  0.1947
 3897SOL     OW15353   1.816   1.596   3.735  0.4268  0.0299  0.0760
 3897SOL    HW215354   1.770   1.660   3.681  0.8182  0.1011 -0.1755
 3897SOL    HW315355   1.794   1.620   3.825  1.1650  0.9897  0.0195
 3897SOL    MW415356   1.807   1.608   3.740  0.5758  0.1659  0.0354
 3898SOL     OW15357   1.469   2.285   2.504 -0.6061 -0.0194  0.0450
 3898SOL    HW215358   1.558   2.315   2.520 -0.9113  0.9031  0.0621
 3898SOL    HW315359   1.442   2.331   2.424 -0.4062 -1.7381 -1.0615
 3898SOL    MW415360   1.477   2.295   2.496 -0.6200 -0.1245 -0.0987
 3899SOL     OW15361   5.454   3.366   0.546 -0.0727 -0.1971  0.2417
 3899SOL    HW215362   5.536   3.409   0.523 -0.6141 -0.0253 -1.5573
 3899SOL    HW315363   5.386   3.420   0.504 -1.0054 -0.9796  0.7054
 3899SOL    MW415364   5.456   3.379   0.537 -0.2672 -0.2777  0.0656
 3900SOL     OW15365   2.431   3.389   5.604  0.3643  0.4201 -0.2705
 3900SOL    HW215366   2.434   3.395   5.508 -0.3382  2.5387 -0.2083
 3900SOL    HW315367   2.522   3.388   5.631  0.5902 -1.3215 -0.9820
 3900SOL    MW415368   2.443   3.390   5.595  0.3015  0.4698 -0.3561
 3901SOL     OW15369   3.240   4.215  -0.017  0.3337  0.2353  0.0431
 3901SOL    HW215370   3.171   4.268   0.025  0.6453 -0.5125  1.5764
 3901SOL    HW315371   3.322   4.257   0.009  0.5313 -0.1394  0.0273
 3901SOL    MW415372   3.241   4.228  -0.008  0.4009  0.0872  0.2433
 3902SOL     OW15373   4.173   2.516   5.999  0.5589 -0.7627 -0.0936
 3902SOL    HW215374   4.181   2.474   6.085  1.3457 -0.1012  0.1710
 3902SOL    HW315375   4.175   2.443   5.936 -0.9058 -1.3336  0.4580
 3902SOL    MW415376   4.174   2.501   6.002  0.4694 -0.7507  0.0141
 3903SOL     OW15377   5.303   2.182   3.262  0.0190 -0.3944  0.5062
 3903SOL    HW215378   5.305   2.163   3.168 -2.3726 -1.9774  0.6732
 3903SOL    HW315379   5.343   2.104   3.303  0.7214  0.1269  0.8409
 3903SOL    MW415380   5.309   2.169   3.255 -0.2039 -0.5344  0.5724
 3904SOL     OW15381   0.425   0.624   4.647  0.1555  0.0771 -0.2998
 3904SOL    HW215382   0.493   0.690   4.662  0.0126  0.2851 -0.5465
 3904SOL    HW315383   0.350   0.675   4.615 -0.4546 -0.0119  0.9248
 3904SOL    MW415384   0.424   0.640   4.645  0.0561  0.0928 -0.1708
 3905SOL     OW15385   2.461   3.486   4.653  0.1473  0.9591  0.6501
 3905SOL    HW215386   2.381   3.538   4.657 -0.9534 -0.6794  0.9742
 3905SOL    HW315387   2.515   3.528   4.586 -2.7208 -0.1891 -2.6665
 3905SOL    MW415388   2.458   3.498   4.645 -0.3763  0.5915  0.2553
 3906SOL     OW15389   2.038   1.745   3.609 -0.4759 -0.1489 -0.0537
 3906SOL    HW215390   1.982   1.695   3.669  1.6225 -2.0221  0.4750
 3906SOL    HW315391   2.043   1.691   3.531  1.0582 -0.3467  0.1501
 3906SOL    MW415392   2.031   1.732   3.607  0.0034 -0.4221  0.0430
 3907SOL     OW15393   1.866   3.551   0.479 -0.0360  0.3065  0.3620
 3907SOL    HW215394   1.779   3.551   0.521 -0.8273  2.1634 -1.1194
 3907SOL    HW315395   1.920   3.607   0.535 -0.0972  0.0171  0.7133
 3907SOL    MW415396   1.861   3.558   0.492 -0.1485  0.5133  0.2129
 3908SOL     OW15397   4.045   3.479   5.113 -0.1081 -0.5841 -0.3288
 3908SOL    HW215398   4.029   3.429   5.193 -1.8201  0.4346  0.0084
 3908SOL    HW315399   4.115   3.540   5.136  0.2124 -1.0764  0.0235
 3908SOL    MW415400   4.052   3.480   5.126 -0.2917 -0.5146 -0.2378
 3909SOL     OW15401   1.327   3.005   3.229  0.1974 -0.1678  0.1886
 3909SOL    HW215402   1.347   2.972   3.317 -0.1681  1.6410  1.0122
 3909SOL    HW315403   1.363   2.940   3.169  1.8040 -0.7044  1.6695
 3909SOL    MW415404   1.335   2.992   3.233  0.3612  0.0000  0.4926
 3910SOL     OW15405   1.625   3.189   4.982 -0.2799 -0.5318 -0.4149
 3910SOL    HW215406   1.625   3.284   4.979  0.1323 -0.4321 -5.0298
 3910SOL    HW315407   1.713   3.165   5.010 -0.7967  0.3031  2.1425
 3910SOL    MW415408   1.637   3.198   4.985 -0.2937 -0.4085 -0.6863
 3911SOL     OW15409   2.526   5.317   4.371  0.0007  0.5399  0.0609
 3911SOL    HW215410   2.611   5.352   4.397  0.2265  0.3571 -0.4173
 3911SOL    HW315411   2.495   5.377   4.304 -0.5632  0.9882  0.7136
 3911SOL    MW415412   2.533   5.330   4.366 -0.0439  0.5750  0.0839
 3912SOL     OW15413   0.504   2.989   5.150  0.6913 -0.2904  0.0237
 3912SOL    HW215414   0.441   2.938   5.201 -1.3001  1.0251 -0.9696
 3912SOL    HW315415   0.471   3.079   5.154  3.6036  0.8328  1.0166
 3912SOL    MW415416   0.491   2.994   5.157  0.8128  0.0314  0.0236
 3913SOL     OW15417   5.271   1.752   0.843  0.0006 -0.3652  0.0429
 3913SOL    HW215418   5.358   1.787   0.864  0.2652 -0.9500 -0.0612
 3913SOL    HW315419   5.271   1.664   0.880 -0.8400 -0.0894  0.7277
 3913SOL    MW415420   5.282   1.745   0.851 -0.0754 -0.4059  0.1196
 3914SOL     OW15421   5.794   0.830   3.327 -0.1534 -0.0875 -0.0588
 3914SOL    HW215422   5.796   0.792   3.415  0.6978 -0.2598 -0.1411
 3914SOL    HW315423   5.720   0.890   3.328 -0.5637 -0.5933  0.5638
 3914SOL    MW415424   5.784   0.833   3.338 -0.0952 -0.1770  0.0125
 3915SOL     OW15425   0.644   1.840   2.426  0.6731  0.3926  0.5735
 3915SOL    HW215426   0.739   1.843   2.416  0.6371 -0.2204 -0.0657
 3915SOL    HW315427   0.611   1.906   2.365  0.7552  2.1533  2.3514
 3915SOL    MW415428   0.652   1.849   2.417  0.6792  0.5440  0.7237
 3916SOL     OW15429   5.611   4.852   4.918  0.0503  0.1836 -0.1042
 3916SOL    HW215430   5.617   4.854   5.013  0.5101 -1.6107 -0.0576
 3916SOL    HW315431   5.698   4.824   4.889 -0.2328  0.2219 -1.0230
 3916SOL    MW415432   5.623   4.849   4.926  0.0736 -0.0481 -0.2193
 3917SOL     OW15433   1.562   1.310   3.836  0.6056 -0.4062 -0.6019
 3917SOL    HW215434   1.497   1.245   3.808  0.5704 -0.1004 -1.2463
 3917SOL    HW315435   1.643   1.281   3.795  0.6820 -0.2808 -0.5380
 3917SOL    MW415436   1.564   1.298   3.827  0.6110 -0.3493 -0.6785
 3918SOL     OW15437   1.800   4.229   1.781 -0.4832  0.5046 -0.1575
 3918SOL    HW215438   1.844   4.167   1.723  0.0205 -0.8201  1.5813
 3918SOL    HW315439   1.864   4.299   1.794  0.1778 -0.1977  0.4130
 3918SOL    MW415440   1.814   4.230   1.775 -0.3295  0.2372  0.1472
 3919SOL     OW15441   2.271   1.030   5.156  0.0051 -0.6350  0.0076
 3919SOL    HW215442   2.256   0.980   5.236  0.2068 -0.5185  0.1188
 3919SOL    HW315443   2.328   1.102   5.183 -0.0706 -0.4956 -0.2049
 3919SOL    MW415444   2.276   1.033   5.170  0.0217 -0.6013 -0.0057
 3920SOL     OW15445   2.999   3.510   4.187  0.1127  0.1256 -0.4166
 3920SOL    HW215446   3.050   3.505   4.107  0.4590 -0.4010 -0.1658
 3920SOL    HW315447   2.950   3.592   4.179  0.6289  0.3930 -0.8743
 3920SOL    MW415448   2.999   3.520   4.176  0.2265  0.0914 -0.4439
 3921SOL     OW15449   3.657   0.971   0.113  0.0106  0.2948  0.5358
 3921SOL    HW215450   3.572   0.989   0.153 -0.2510  0.1786  0.0348
 3921SOL    HW315451   3.698   0.909   0.173 -1.4701 -2.0185 -0.6737
 3921SOL    MW415452   3.651   0.965   0.126 -0.2193 -0.0258  0.3101
 3922SOL     OW15453   1.858   0.454   5.325 -0.1539 -0.0232 -1.0063
 3922SOL    HW215454   1.933   0.432   5.381 -1.4142  1.4974  1.4524
 3922SOL    HW315455   1.887   0.432   5.236  2.5975 -0.9471  0.0151
 3922SOL    MW415456   1.872   0.448   5.321  0.0429  0.0555 -0.5472
 3923SOL     OW15457   3.830   3.103   4.823  0.0495 -0.8185 -0.7363
 3923SOL    HW215458   3.840   3.132   4.913  0.1453 -1.1401 -0.6386
 3923SOL    HW315459   3.784   3.019   4.830  1.8454 -1.8631 -0.8309
 3923SOL    MW415460   3.826   3.095   4.836  0.2991 -0.9988 -0.7359
 3924SOL     OW15461   5.917   5.981   1.050  0.0419 -0.1038 -0.1398
 3924SOL    HW215462   5.930   6.073   1.072  0.5848  0.1429 -1.3888
 3924SOL    HW315463   5.880   5.942   1.129 -0.1682  1.1762  0.4123
 3924SOL    MW415464   5.914   5.988   1.063  0.0858  0.0977 -0.2317
 3925SOL     OW15465   5.540   1.342   5.110  0.8123  0.0413 -0.4073
 3925SOL    HW215466   5.562   1.355   5.202  1.1545  0.2264 -0.5107
 3925SOL    HW315467   5.607   1.392   5.063  0.3780  0.3105 -0.7460
 3925SOL    MW415468   5.552   1.350   5.116  0.8001  0.1012 -0.4656
 3926SOL     OW15469   1.738   1.636   1.903 -0.2223 -0.1492 -0.4080
 3926SOL    HW215470   1.787   1.713   1.875  1.4145 -0.8748  0.3056
 3926SOL    HW315471   1.767   1.567   1.844  0.4471 -0.8247  0.6607
 3926SOL    MW415472   1.749   1.637   1.892  0.0820 -0.3341 -0.1728
 3927SOL     OW15473   6.191   3.316   6.206  0.1114  0.1046  0.0338
 3927SOL    HW215474   6.116   3.259   6.196 -0.0600  0.0470  1.5113
 3927SOL    HW315475   6.154   3.401   6.231  0.5000  0.2446  0.1426
 3927SOL    MW415476   6.176   3.320   6.208  0.1401  0.1155  0.2431
 3928SOL     OW15477   5.073   5.667   0.521 -0.3965  0.3750  0.5502
 3928SOL    HW215478   5.098   5.609   0.593 -2.1128 -3.4564 -1.5968
 3928SOL    HW315479   5.155   5.686   0.475  0.1100 -1.9357  0.3663
 3928SOL    MW415480   5.087   5.662   0.524 -0.5561 -0.4354  0.2426
 3929SOL     OW15481   0.220   2.492   2.636 -0.1053 -0.0525 -0.2823
 3929SOL    HW215482   0.163   2.417   2.652 -0.2288 -0.0831 -0.8488
 3929SOL    HW315483   0.231   2.494   2.541  0.2323  0.4010 -0.2370
 3929SOL    MW415484   0.214   2.482   2.625 -0.0770  0.0033 -0.3510
 3930SOL     OW15485   0.295   4.868   2.149 -0.2267 -0.0168 -0.0161
 3930SOL    HW215486   0.369   4.808   2.136 -1.6322 -2.0282  0.8181
 3930SOL    HW315487   0.332   4.940   2.201  1.2121 -0.8445  0.1716
 3930SOL    MW415488   0.310   4.869   2.154 -0.2223 -0.3914  0.1188
 3931SOL     OW15489   4.940   1.281   0.140  0.2914 -0.4509  0.1008
 3931SOL    HW215490   4.948   1.352   0.077 -0.5638 -1.3057 -1.0169
 3931SOL    HW315491   4.881   1.314   0.207 -0.9286 -0.4371 -0.9415
 3931SOL    MW415492   4.934   1.294   0.140  0.0176 -0.5619 -0.1842
 3932SOL     OW15493   0.147   0.142   2.740 -0.0703 -0.0721 -0.0705
 3932SOL    HW215494   0.136   0.229   2.703  0.1600 -0.2416 -0.5431
 3932SOL    HW315495   0.229   0.110   2.703  0.9452  0.3269  1.7554
 3932SOL    MW415496   0.156   0.149   2.730  0.0941 -0.0418  0.1080
 3933SOL     OW15497   6.092   5.116   1.425  0.4887  0.0387  0.3635
 3933SOL    HW215498   6.125   5.203   1.445  0.0439  0.1473  0.6432
 3933SOL    HW315499   6.125   5.097   1.338  0.5152  0.5255  0.2650
 3933SOL    MW415500   6.100   5.125   1.417  0.4335  0.1173  0.3874
 3934SOL     OW15501   1.098   5.676   2.353 -0.1657  0.5205 -0.1929
 3934SOL    HW215502   1.064   5.765   2.365 -1.2799  0.0226  0.4757
 3934SOL    HW315503   1.160   5.664   2.425 -1.1387  0.2393  0.6159
 3934SOL    MW415504   1.102   5.686   2.364 -0.4411  0.4177  0.0021
 3935SOL     OW15505   1.930   2.208   5.829 -0.6327  0.1132  0.1934
 3935SOL    HW215506   1.954   2.169   5.745 -1.3662 -0.2991  0.1687
 3935SOL    HW315507   2.013   2.237   5.867 -0.3562  0.8818 -0.9587
 3935SOL    MW415508   1.944   2.207   5.823 -0.6930  0.1602  0.0381
 3936SOL     OW15509   1.836   6.070   3.937  0.3994 -0.4145  0.2124
 3936SOL    HW215510   1.782   6.143   3.907  1.4290  0.4307  0.3457
 3936SOL    HW315511   1.773   6.004   3.967 -0.6912 -0.8749 -2.7201
 3936SOL    MW415512   1.821   6.071   3.937  0.3913 -0.3637 -0.1569
 3937SOL     OW15513   3.917   4.281  -0.022  0.0924  0.1944 -0.2676
 3937SOL    HW215514   3.844   4.258  -0.079  0.7194  0.7535 -1.3216
 3937SOL    HW315515   3.900   4.232   0.059 -1.3092  0.1274 -0.5745
 3937SOL    MW415516   3.905   4.271  -0.019 -0.0098  0.2593 -0.4472
 3938SOL     OW15517   2.878   4.267   0.263  0.6522  0.4156 -0.3263
 3938SOL    HW215518   2.935   4.261   0.339 -1.2090 -1.2071  1.0379
 3938SOL    HW315519   2.875   4.178   0.227 -0.4140  0.6230 -0.8115
 3938SOL    MW415520   2.885   4.255   0.268  0.2660  0.2289 -0.2103
 3939SOL     OW15521   3.682   4.618   2.857  0.0094 -0.5246 -0.2219
 3939SOL    HW215522   3.671   4.543   2.916 -0.1289 -1.8031 -1.8072
 3939SOL    HW315523   3.612   4.609   2.793 -0.4384  1.3860 -0.0542
 3939SOL    MW415524   3.672   4.607   2.856 -0.0679 -0.4412 -0.4089
 3940SOL     OW15525   1.414   2.216   3.519 -0.2974 -0.1011 -0.5277
 3940SOL    HW215526   1.410   2.300   3.474  0.2524  0.0943 -0.2333
 3940SOL    HW315527   1.493   2.223   3.574 -0.9187 -0.3363  0.4240
 3940SOL    MW415528   1.424   2.228   3.521 -0.3069 -0.1064 -0.3633
 3941SOL     OW15529   6.268   2.755   2.215  0.8337  0.4767  0.6170
 3941SOL    HW215530   6.318   2.780   2.138  1.0578  2.0652  1.2567
 3941SOL    HW315531   6.211   2.684   2.184  1.7172  0.3157 -0.7107
 3941SOL    MW415532   6.267   2.749   2.201  0.9798  0.6650  0.5262
 3942SOL     OW15533   0.188   1.527   0.829  0.0907  0.0652  0.2257
 3942SOL    HW215534   0.204   1.461   0.762  1.1548 -0.9285  1.4081
 3942SOL    HW315535   0.168   1.477   0.908 -0.3731  1.1870  0.8412
 3942SOL    MW415536   0.188   1.512   0.831  0.1699  0.0821  0.4629
 3943SOL     OW15537   2.576   4.707   5.349 -0.0556  0.0504  0.4418
 3943SOL    HW215538   2.543   4.740   5.265  1.1754 -1.0774 -0.5174
 3943SOL    HW315539   2.546   4.616   5.353  1.0954 -0.3438  0.5390
 3943SOL    MW415540   2.568   4.700   5.339  0.2587 -0.1504  0.3280
 3944SOL     OW15541   0.679   0.979   0.841 -0.7005  0.4439 -0.1406
 3944SOL    HW215542   0.726   0.934   0.911 -0.7779  1.1652  0.3904
 3944SOL    HW315543   0.602   1.015   0.884  0.4455  2.9702  0.0035
 3944SOL    MW415544   0.675   0.978   0.856 -0.5595  0.8724 -0.0515
 3945SOL     OW15545   1.382   3.880   5.920 -0.1388 -0.3817  0.1585
 3945SOL    HW215546   1.400   3.943   5.990  0.3374 -1.3795  0.9598
 3945SOL    HW315547   1.467   3.863   5.880 -0.4257  0.2614 -0.7476
 3945SOL    MW415548   1.395   3.886   5.924 -0.1138 -0.4285  0.1447
 3946SOL     OW15549   3.730   5.681   3.195 -0.2117 -0.3427  0.3009
 3946SOL    HW215550   3.702   5.667   3.105  0.5652 -0.8188  0.1298
 3946SOL    HW315551   3.776   5.601   3.219 -0.7779 -0.4034  1.2703
 3946SOL    MW415552   3.732   5.668   3.186 -0.1839 -0.4135  0.4062
 3947SOL     OW15553   1.768   6.125   5.995  0.1898 -0.2192  0.0639
 3947SOL    HW215554   1.674   6.131   6.013  0.3706  0.3851  0.8431
 3947SOL    HW315555   1.773   6.085   5.908 -0.7742 -0.7642  0.2398
 3947SOL    MW415556   1.756   6.120   5.986  0.0865 -0.2114  0.1899
 3948SOL     OW15557   0.060   5.416   3.361 -0.7003 -0.7231  0.2358
 3948SOL    HW215558   0.015   5.416   3.277  0.1843  1.0426 -0.2744
 3948SOL    HW315559   0.098   5.328   3.368 -2.7718 -1.7037 -0.0633
 3948SOL    MW415560   0.059   5.404   3.351 -0.8569 -0.6195  0.1290
 3949SOL     OW15561   3.704   5.224   0.187 -0.1209 -0.0054 -0.4461
 3949SOL    HW215562   3.682   5.133   0.208 -0.8297 -0.0877 -1.4715
 3949SOL    HW315563   3.714   5.225   0.092  1.7003  0.6219 -0.2951
 3949SOL    MW415564   3.702   5.212   0.178  0.0259  0.0665 -0.5614
 3950SOL     OW15565   3.980   5.463   6.090 -0.0145  0.4072 -0.6621
 3950SOL    HW215566   3.932   5.541   6.064  1.3300  1.8473  0.9608
 3950SOL    HW315567   4.052   5.457   6.028 -1.3639 -0.9436 -2.2124
 3950SOL    MW415568   3.983   5.472   6.078 -0.0151  0.4190 -0.6525
 3951SOL     OW15569   0.600   1.386   3.790  0.4032  0.0887 -0.2058
 3951SOL    HW215570   0.564   1.407   3.876  1.0409 -0.6329  0.2505
 3951SOL    HW315571   0.647   1.304   3.803 -1.0658 -1.0573 -1.6575
 3951SOL    MW415572   0.601   1.378   3.803  0.2935 -0.1577 -0.3371
 3952SOL     OW15573   2.001   4.009   5.336 -0.2651 -0.2411 -0.0673
 3952SOL    HW215574   1.996   3.967   5.422 -0.9035  1.1808  0.6429
 3952SOL    HW315575   2.033   4.098   5.355 -0.7111  0.1951 -1.2595
 3952SOL    MW415576   2.005   4.015   5.350 -0.4081  0.0040 -0.1309
 3953SOL     OW15577   1.253   5.372   0.556  0.0745 -0.3583  0.3895
 3953SOL    HW215578   1.332   5.337   0.597  0.4074 -1.9776 -1.4879
 3953SOL    HW315579   1.282   5.402   0.470 -1.4597 -1.8840 -0.7416
 3953SOL    MW415580   1.267   5.371   0.550 -0.0840 -0.7732 -0.0074
 3954SOL     OW15581   1.408   4.330   3.559 -0.2422 -0.0209 -0.2862
 3954SOL    HW215582   1.369   4.401   3.508  0.0751  0.3260 -0.0468
 3954SOL    HW315583   1.496   4.319   3.521 -1.1260 -1.9758 -2.0140
 3954SOL    MW415584   1.414   4.338   3.547 -0.3169 -0.2330 -0.4826
 3955SOL     OW15585   2.829   2.885   5.030 -0.7908  0.2675  0.5701
 3955SOL    HW215586   2.773   2.873   5.107  0.1268 -0.6247  1.1293
 3955SOL    HW315587   2.916   2.901   5.067 -0.2911 -0.4335 -0.2896
 3955SOL    MW415588   2.833   2.886   5.045 -0.6038  0.0573  0.5304
 3956SOL     OW15589   5.910   4.520   2.782 -0.0719  0.6277  0.3227
 3956SOL    HW215590   5.923   4.438   2.735 -2.1458  1.1561 -1.3493
 3956SOL    HW315591   5.998   4.557   2.791  0.5247  0.1738 -2.6458
 3956SOL    MW415592   5.924   4.514   2.777 -0.2668  0.6375 -0.2896
 3957SOL     OW15593   5.229   1.510   3.780  0.2006  0.5669 -0.5538
 3957SOL    HW215594   5.154   1.544   3.730  0.6283 -0.0419 -1.6439
 3957SOL    HW315595   5.206   1.528   3.871 -1.0135  0.9155 -0.8961
 3957SOL    MW415596   5.216   1.517   3.785  0.0968  0.5326 -0.7428
 3958SOL     OW15597   0.899   4.691   1.220  0.2159  0.5192  0.1004
 3958SOL    HW215598   0.936   4.622   1.274 -1.7075 -0.5290  0.1818
 3958SOL    HW315599   0.901   4.657   1.131 -0.0100  0.6797  0.0315
 3958SOL    MW415600   0.904   4.678   1.215 -0.0677  0.4021  0.1021
 3959SOL     OW15601   0.132   0.453   2.382  0.1613  0.1225 -0.8433
 3959SOL    HW215602   0.211   0.468   2.330  1.6968 -1.4592  0.8517
 3959SOL    HW315603   0.101   0.367   2.355 -0.8066  0.5805 -1.2415
 3959SOL    MW415604   0.138   0.444   2.372  0.2362 -0.0257 -0.6722
 3960SOL     OW15605   4.558   0.976   1.800 -0.1281 -0.3909 -0.0529
 3960SOL    HW215606   4.514   0.893   1.815  1.5758 -1.3193  0.0770
 3960SOL    HW315607   4.649   0.952   1.783  0.0053  1.2970 -2.1820
 3960SOL    MW415608   4.564   0.962   1.800  0.1143 -0.2907 -0.3167
 3961SOL     OW15609   2.406   5.129   0.771  0.3707 -0.2858  0.0417
 3961SOL    HW215610   2.490   5.164   0.742 -0.4015  1.2106 -0.4653
 3961SOL    HW315611   2.424   5.092   0.858  1.2584  1.3687  0.6009
 3961SOL    MW415612   2.419   5.128   0.779  0.3859  0.1299  0.0486
 3962SOL     OW15613   0.521   1.240   0.063  0.1577 -0.1965  0.0457
 3962SOL    HW215614   0.591   1.175   0.060  0.1332 -0.2008 -1.1711
 3962SOL    HW315615   0.512   1.269  -0.028 -0.8393  0.4277  0.3285
 3962SOL    MW415616   0.529   1.235   0.050  0.0229 -0.1147 -0.0775
 3963SOL     OW15617   3.493   4.185   5.264 -0.7050  0.2074 -0.0455
 3963SOL    HW215618   3.560   4.247   5.294 -1.2639 -0.1574  2.1619
 3963SOL    HW315619   3.464   4.220   5.180  1.4841  0.9451 -0.5746
 3963SOL    MW415620   3.498   4.198   5.257 -0.4899  0.2566  0.1759
 3964SOL     OW15621   3.514   2.890   0.327  0.0532  0.5988 -1.0072
 3964SOL    HW215622   3.572   2.815   0.332  2.0805  2.1536  2.2250
 3964SOL    HW315623   3.571   2.963   0.303 -1.2813  1.6418 -1.1439
 3964SOL    MW415624   3.529   2.890   0.324  0.1446  0.9416 -0.5988
 3965SOL     OW15625   6.297   3.381   0.796  0.0620  0.2201  0.0182
 3965SOL    HW215626   6.314   3.293   0.829 -1.4702 -0.1880 -0.1672
 3965SOL    HW315627   6.226   3.414   0.852 -1.5703  0.0747 -1.8319
 3965SOL    MW415628   6.290   3.373   0.808 -0.3555  0.1471 -0.2504
 3966SOL     OW15629   0.244   2.576   5.783 -0.5515 -0.2436 -0.0245
 3966SOL    HW215630   0.254   2.653   5.839  3.6312  0.0647 -0.8705
 3966SOL    HW315631   0.225   2.505   5.844 -0.6319  0.8035  1.2269
 3966SOL    MW415632   0.243   2.577   5.799 -0.0102 -0.0648  0.0290
 3967SOL     OW15633   0.557   2.532   6.395 -0.2987 -0.2125  0.4457
 3967SOL    HW215634   0.536   2.509   6.485 -0.2586 -1.2166  0.2061
 3967SOL    HW315635   0.534   2.454   6.344  0.2954  0.0997 -0.3233
 3967SOL    MW415636   0.551   2.519   6.400 -0.2150 -0.3038  0.3126
 3968SOL     OW15637   3.095   2.165   6.269 -0.1184  0.2654  0.1478
 3968SOL    HW215638   3.056   2.151   6.355 -0.6963  1.4210  0.0927
 3968SOL    HW315639   3.022   2.153   6.208  0.2849 -0.5291 -0.1779
 3968SOL    MW415640   3.080   2.162   6.272 -0.1414  0.3131  0.0975
 3969SOL     OW15641   0.960   1.165   3.631  0.4925  0.2179 -0.0876
 3969SOL    HW215642   1.011   1.194   3.706  1.1683  2.0719 -1.2031
 3969SOL    HW315643   0.924   1.080   3.658  1.7922  0.2069  1.7967
 3969SOL    MW415644   0.962   1.158   3.645  0.7531  0.4610  0.0139
 3970SOL     OW15645   0.109   4.604   6.366  0.2850 -0.0879  0.5079
 3970SOL    HW215646   0.044   4.535   6.358  1.3698 -0.9951 -1.2957
 3970SOL    HW315647   0.063   4.684   6.339  0.2303 -0.9656 -2.3586
 3970SOL    MW415648   0.094   4.606   6.361  0.4209 -0.3234 -0.1083
 3971SOL     OW15649   5.240   5.107   2.327  0.2601 -0.2005  0.7982
 3971SOL    HW215650   5.230   5.152   2.243  0.8863 -1.1412  0.1893
 3971SOL    HW315651   5.153   5.073   2.347 -0.0563  0.6757  0.9105
 3971SOL    MW415652   5.227   5.108   2.319  0.3009 -0.2090  0.7327
 3972SOL     OW15653   0.870   2.677   0.327 -0.7867  0.3430 -0.2170
 3972SOL    HW215654   0.824   2.751   0.289 -1.6509 -0.0064  0.1370
 3972SOL    HW315655   0.876   2.613   0.256  1.0875  1.2001 -0.9229
 3972SOL    MW415656   0.865   2.678   0.313 -0.6534  0.4100 -0.2634
 3973SOL     OW15657   2.416   2.577   0.480  0.3865  0.6107  0.2391
 3973SOL    HW215658   2.499   2.623   0.471  0.9001 -0.3513 -0.1433
 3973SOL    HW315659   2.413   2.549   0.571  0.4728  0.6579  0.2555
 3973SOL    MW415660   2.426   2.579   0.491  0.4656  0.4900  0.1908
 3974SOL     OW15661   1.975   3.047   5.927  0.1174  0.4562 -0.6323
 3974SOL    HW215662   1.891   3.071   5.888 -0.7812 -2.0609 -0.4610
 3974SOL    HW315663   1.964   3.061   6.021  0.2265  1.0240 -0.7039
 3974SOL    MW415664   1.962   3.052   5.934  0.0133  0.1990 -0.6191
 3975SOL     OW15665   5.271   1.254   1.116  0.1887  0.3074 -0.0471
 3975SOL    HW215666   5.290   1.346   1.100  0.4431  0.8104  2.7053
 3975SOL    HW315667   5.189   1.255   1.166  0.1726 -0.9466 -0.0111
 3975SOL    MW415668   5.262   1.266   1.121  0.2201  0.2083  0.3208
 3976SOL     OW15669   2.850   0.459   0.399 -0.3885 -0.6126 -0.9197
 3976SOL    HW215670   2.800   0.538   0.377 -0.3515 -0.1715  0.4544
 3976SOL    HW315671   2.837   0.448   0.493  2.0336 -0.5154 -0.4994
 3976SOL    MW415672   2.842   0.468   0.409 -0.0641 -0.5415 -0.6830
 3977SOL     OW15673   1.652   4.255   0.436 -0.0945  0.1941  0.3866
 3977SOL    HW215674   1.687   4.332   0.391 -0.3713 -0.1003 -0.3563
 3977SOL    HW315675   1.723   4.191   0.435  0.0275  0.3259  0.7107
 3977SOL    MW415676   1.666   4.256   0.430 -0.1149  0.1726  0.3313
 3978SOL     OW15677   2.226   4.971   1.171  0.3615  0.3251 -0.5000
 3978SOL    HW215678   2.169   4.944   1.242  1.5957 -0.6948  0.1357
 3978SOL    HW315679   2.269   5.050   1.203 -0.3232  0.8311 -0.8001
 3978SOL    MW415680   2.224   4.978   1.184  0.4340  0.2573 -0.4557
 3979SOL     OW15681   2.899   1.558   1.478  0.3101 -0.0782 -0.4923
 3979SOL    HW215682   2.966   1.553   1.547  1.1409  2.2853 -1.0361
 3979SOL    HW315683   2.934   1.503   1.407  1.2175  0.3402 -0.3854
 3979SOL    MW415684   2.913   1.550   1.477  0.5395  0.2888 -0.5499
 3980SOL     OW15685   3.928   6.056   6.032 -0.4510  1.2173 -0.0092
 3980SOL    HW215686   3.999   5.998   6.007 -1.3174 -0.3898  1.1109
 3980SOL    HW315687   3.967   6.117   6.095  0.1711  1.0240 -0.2052
 3980SOL    MW415688   3.942   6.057   6.037 -0.4832  0.9797  0.1127
 3981SOL     OW15689   3.505   0.034   6.372  0.2641  0.1621  0.1400
 3981SOL    HW215690   3.447   0.110   6.379  0.4304  0.1593  2.3292
 3981SOL    HW315691   3.450  -0.036   6.338 -0.3743  0.7690 -0.1012
 3981SOL    MW415692   3.490   0.035   6.369  0.2018  0.2418  0.3970
 3982SOL     OW15693   1.471   3.575   6.114 -0.0629  0.0516  0.3366
 3982SOL    HW215694   1.509   3.508   6.058  0.7742  1.7794 -1.3006
 3982SOL    HW315695   1.391   3.602   6.069  0.4894  1.2835  0.0194
 3982SOL    MW415696   1.466   3.570   6.100  0.1204  0.4421  0.0787
 3983SOL     OW15697   5.103   0.633   5.318  0.0427  0.3001  0.1941
 3983SOL    HW215698   5.027   0.669   5.365  1.2793  1.1053  1.7113
 3983SOL    HW315699   5.074   0.625   5.227 -0.7507  4.0849 -0.0469
 3983SOL    MW415700   5.089   0.637   5.312  0.1011  0.9057  0.3625
 3984SOL     OW15701   1.724   2.926   6.232  0.1154  0.2939 -0.4437
 3984SOL    HW215702   1.763   2.840   6.247  0.5707  0.4802 -0.5329
 3984SOL    HW315703   1.718   2.933   6.137  1.1208  0.8109 -0.4772
 3984SOL    MW415704   1.729   2.915   6.222  0.3081  0.3867 -0.4599
 3985SOL     OW15705   4.140   3.874   6.345  0.0371  0.0515  0.0936
 3985SOL    HW215706   4.227   3.839   6.325 -0.1016 -0.7696  0.8441
 3985SOL    HW315707   4.142   3.964   6.313  0.6325 -0.4389 -1.3027
 3985SOL    MW415708   4.152   3.881   6.338  0.0973 -0.1215  0.0084
 3986SOL     OW15709   5.431   1.727   3.718  0.5035 -0.0501  0.5268
 3986SOL    HW215710   5.369   1.656   3.737  1.8092 -1.5778 -0.7088
 3986SOL    HW315711   5.382   1.807   3.740 -1.1243 -1.2757  1.6637
 3986SOL    MW415712   5.416   1.728   3.724  0.4610 -0.4134  0.5138
 3987SOL     OW15713   1.343   3.776   1.499 -0.5845 -0.5289 -0.2725
 3987SOL    HW215714   1.353   3.837   1.572  0.3932  1.1790 -1.7564
 3987SOL    HW315715   1.424   3.784   1.449 -0.6555 -2.6572 -0.8523
 3987SOL    MW415716   1.355   3.785   1.502 -0.4648 -0.5844 -0.5447
 3988SOL     OW15717   0.948   4.945   5.479  0.3984  0.3692 -0.1720
 3988SOL    HW215718   0.957   5.028   5.525 -0.7385  0.0676  0.6411
 3988SOL    HW315719   0.962   4.967   5.386 -0.5194  1.5893 -0.0412
 3988SOL    MW415720   0.951   4.959   5.473  0.1273  0.4904 -0.0475
 3989SOL     OW15721   3.191   5.543   2.961 -0.2731 -0.7912  0.6966
 3989SOL    HW215722   3.206   5.580   2.874 -2.3102 -0.2051  0.5463
 3989SOL    HW315723   3.220   5.612   3.021  0.5886 -0.9667  0.5009
 3989SOL    MW415724   3.197   5.557   2.958 -0.4281 -0.7371  0.6510
 3990SOL     OW15725   1.714   2.488   3.456  0.2269 -0.0595 -0.6022
 3990SOL    HW215726   1.799   2.509   3.496 -0.2677  0.3411  0.2758
 3990SOL    HW315727   1.734   2.421   3.391  0.8616 -1.9930  1.4565
 3990SOL    MW415728   1.728   2.482   3.453  0.2454 -0.2618 -0.2147
 3991SOL     OW15729   4.832   3.630   5.474 -0.3447 -0.4451  0.5085
 3991SOL    HW215730   4.816   3.537   5.490 -0.3580 -0.2924  1.4454
 3991SOL    HW315731   4.780   3.651   5.397 -0.5737 -1.1499  0.4697
 3991SOL    MW415732   4.823   3.621   5.466 -0.3767 -0.5180  0.6270
 3992SOL     OW15733   6.346   3.949   1.523  0.0530  0.1589 -0.0120
 3992SOL    HW215734   6.294   3.906   1.456  1.7464 -0.8238 -0.7648
 3992SOL    HW315735   6.288   3.956   1.599 -1.2376 -0.5858 -0.9039
 3992SOL    MW415736   6.331   3.944   1.524  0.1062 -0.0690 -0.2290
 3993SOL     OW15737   5.754   0.653   2.106  0.3027 -0.0933  0.1549
 3993SOL    HW215738   5.673   0.602   2.099  0.6254 -0.8123  1.3350
 3993SOL    HW315739   5.785   0.661   2.016 -1.0602  0.1740 -0.3133
 3993SOL    MW415740   5.747   0.647   2.093  0.1655 -0.1529  0.2488
 3994SOL     OW15741   4.338   1.359   6.330  0.2508 -0.2419  0.3436
 3994SOL    HW215742   4.309   1.291   6.269  1.4851  1.1730 -1.9541
 3994SOL    HW315743   4.258   1.384   6.377 -1.6686  1.0868 -3.2445
 3994SOL    MW415744   4.324   1.353   6.328  0.1604  0.1201 -0.4330
 3995SOL     OW15745   5.689   0.337   5.481 -0.1625 -0.3119  0.0604
 3995SOL    HW215746   5.733   0.348   5.565  0.1578  0.0654 -0.1564
 3995SOL    HW315747   5.670   0.243   5.476 -0.9102 -0.2188  0.9131
 3995SOL    MW415748   5.692   0.326   5.491 -0.2189 -0.2499  0.1443
 3996SOL     OW15749   3.921   2.474   6.204  0.3546 -0.6831  0.1564
 3996SOL    HW215750   3.873   2.394   6.227  0.9952 -0.7164  1.4646
 3996SOL    HW315751   3.941   2.465   6.111 -1.4523 -1.0433 -0.2396
 3996SOL    MW415752   3.917   2.462   6.195  0.2007 -0.7350  0.2768
 3997SOL     OW15753   4.038   1.968   5.057  0.3080 -0.1027  0.2066
 3997SOL    HW215754   3.963   1.921   5.020 -0.2382  0.9014 -0.0038
 3997SOL    HW315755   4.004   2.009   5.136  0.5633  0.5781 -0.0333
 3997SOL    MW415756   4.024   1.967   5.063  0.2696  0.1196  0.1472
 3998SOL     OW15757   6.133   0.225   5.234  0.2298 -0.4809 -0.1504
 3998SOL    HW215758   6.095   0.227   5.146  1.0049 -1.8590 -0.5486
 3998SOL    HW315759   6.063   0.189   5.289 -0.6815  1.5011  0.0633
 3998SOL    MW415760   6.119   0.220   5.230  0.2118 -0.4012 -0.1748
 3999SOL     OW15761   6.370   0.944   0.044  0.1224  0.3338  0.4631
 3999SOL    HW215762   6.339   1.006   0.110  0.3942  2.0823 -0.9884
 3999SOL    HW315763   6.332   0.975  -0.038  1.7492 -0.3503 -0.5958
 3999SOL    MW415764   6.361   0.956   0.042  0.3729  0.4742  0.1319
 4000SOL     OW15765   4.216   6.073   0.107 -0.5596 -0.6181 -0.1835
 4000SOL    HW215766   4.236   6.119   0.026  1.2903 -1.5220 -0.3067
 4000SOL    HW315767   4.273   6.115   0.173 -1.3354 -0.5170  0.4361
 4000SOL    MW415768   4.226   6.085   0.105 -0.4179 -0.7240 -0.1180
 4001SOL     OW15769   4.374   0.011   2.846 -0.1404  0.7244 -0.5479
 4001SOL    HW215770   4.467   0.032   2.842 -0.2997  1.4208 -0.6767
 4001SOL    HW315771   4.344   0.049   2.929 -0.4007  0.8864 -0.7127
 4001SOL    MW415772   4.382   0.019   2.856 -0.1958  0.8377 -0.5866
 4002SOL     OW15773   1.744   3.175   6.332  0.0761 -0.0160 -0.0018
 4002SOL    HW215774   1.708   3.210   6.414 -0.9281  1.3330 -0.9843
 4002SOL    HW315775   1.717   3.083   6.331 -1.8015  0.4881  0.1814
 4002SOL    MW415776   1.736   3.167   6.343 -0.3041  0.2285 -0.1072
 4003SOL     OW15777   4.983   3.681   3.363  0.4016 -0.0952 -0.2237
 4003SOL    HW215778   4.933   3.599   3.353  0.1766  0.0010  0.1220
 4003SOL    HW315779   5.072   3.652   3.383 -0.0890 -0.2575  1.9511
 4003SOL    MW415780   4.988   3.666   3.364  0.3072 -0.1039  0.1088
 4004SOL     OW15781   2.709   5.289   3.460  0.2574 -0.0232 -0.7860
 4004SOL    HW215782   2.773   5.333   3.404 -0.2654  1.8876  0.0380
 4004SOL    HW315783   2.736   5.312   3.549 -1.9317  1.4394 -0.4380
 4004SOL    MW415784   2.721   5.298   3.464 -0.1004  0.4219 -0.6314
 4005SOL     OW15785   0.653   6.135   2.983  0.2716 -0.0846 -0.2593
 4005SOL    HW215786   0.689   6.047   2.981  0.4621 -0.0216  0.2186
 4005SOL    HW315787   0.726   6.191   2.955 -0.3139 -0.2106 -2.1606
 4005SOL    MW415788   0.667   6.131   2.979  0.2195 -0.0929 -0.4471
 4006SOL     OW15789   1.129   5.526   1.860  0.4856 -0.1177  0.5197
 4006SOL    HW215790   1.036   5.532   1.841  0.8291  1.4197 -0.9350
 4006SOL    HW315791   1.134   5.499   1.952 -1.3941  1.2639  1.0685
 4006SOL    MW415792   1.118   5.523   1.870  0.2829  0.2674  0.4002
 4007SOL     OW15793   2.989   1.630   4.842  0.3688 -0.3460 -0.0527
 4007SOL    HW215794   2.905   1.586   4.832 -1.6719  2.6282  2.4162
 4007SOL    HW315795   3.003   1.635   4.936  2.2570  1.1499 -0.3451
 4007SOL    MW415796   2.980   1.625   4.853  0.3487  0.2438  0.2345
 4008SOL     OW15797   2.162   0.156   3.064 -0.3930  0.2087  0.5896
 4008SOL    HW215798   2.256   0.137   3.062 -0.2355  0.9468  0.6550
 4008SOL    HW315799   2.132   0.140   2.975 -0.0502  0.7185  0.3800
 4008SOL    MW415800   2.171   0.151   3.052 -0.3270  0.3734  0.5706
 4009SOL     OW15801   2.149   5.480   6.118  0.0836 -0.3657  0.3872
 4009SOL    HW215802   2.171   5.481   6.024 -1.2449  0.5997  0.0666
 4009SOL    HW315803   2.220   5.529   6.159  0.2411 -0.0699 -0.2197
 4009SOL    MW415804   2.161   5.486   6.111 -0.0709 -0.1993  0.2648
 4010SOL     OW15805   4.499   5.313   4.413  0.3356 -0.3382 -0.0590
 4010SOL    HW215806   4.472   5.231   4.373  0.2358 -0.9587  1.2418
 4010SOL    HW315807   4.541   5.288   4.495  0.0218  0.9148  0.5211
 4010SOL    MW415808   4.501   5.299   4.418  0.2810 -0.2547  0.1891
 4011SOL     OW15809   2.699   3.803   1.323  0.3209  0.2849 -0.6149
 4011SOL    HW215810   2.633   3.766   1.265  0.5120  0.7146 -1.1163
 4011SOL    HW315811   2.778   3.752   1.305 -0.0852 -0.8144  0.6227
 4011SOL    MW415812   2.701   3.792   1.313  0.2925  0.1966 -0.5178
 4012SOL     OW15813   1.327   4.449   3.790 -0.1877 -0.0952 -0.4336
 4012SOL    HW215814   1.373   4.419   3.712 -1.4539  2.0490 -2.1129
 4012SOL    HW315815   1.251   4.390   3.797  0.4019 -0.8433 -0.2806
 4012SOL    MW415816   1.323   4.437   3.781 -0.2770  0.0890 -0.6350
 4013SOL     OW15817   2.572   3.021   0.807  0.2508 -0.3513  0.6473
 4013SOL    HW215818   2.537   3.015   0.895 -0.3477 -1.9956  0.3427
 4013SOL    HW315819   2.593   2.930   0.783  0.5375  0.0692 -0.8386
 4013SOL    MW415820   2.570   3.008   0.815  0.2097 -0.5128  0.4111
 4014SOL     OW15821   1.128   3.240   6.249  0.0460  0.6896 -0.4675
 4014SOL    HW215822   1.187   3.300   6.295 -1.1072  0.3144  1.6547
 4014SOL    HW315823   1.085   3.294   6.183  1.3033  1.4211 -0.7267
 4014SOL    MW415824   1.130   3.255   6.247  0.0598  0.7366 -0.2217
 4015SOL     OW15825   2.265   4.604   3.569 -0.0155 -0.0075  0.3353
 4015SOL    HW215826   2.199   4.629   3.634 -1.0248  1.2737 -1.1138
 4015SOL    HW315827   2.261   4.508   3.567  0.0318 -0.0724  2.1146
 4015SOL    MW415828   2.256   4.594   3.577 -0.1424  0.1530  0.3789
 4016SOL     OW15829   2.850   4.138   6.146  0.1055  0.0504  0.3294
 4016SOL    HW215830   2.769   4.118   6.098 -0.3235  1.7966  0.2503
 4016SOL    HW315831   2.866   4.060   6.198 -1.3665 -0.5412 -0.0364
 4016SOL    MW415832   2.841   4.125   6.146 -0.1453  0.2027  0.2707
 4017SOL     OW15833   2.764   0.829   3.132 -0.2364 -0.4296 -0.2947
 4017SOL    HW215834   2.813   0.910   3.124 -1.5220  0.2900 -1.1320
 4017SOL    HW315835   2.731   0.811   3.044 -3.0162  0.1202  0.5311
 4017SOL    MW415836   2.766   0.837   3.119 -0.7728 -0.2621 -0.2962
 4018SOL     OW15837   1.023   5.417   0.313 -0.2863 -0.0845 -0.6581
 4018SOL    HW215838   1.027   5.495   0.368 -0.8989  1.0839 -2.1937
 4018SOL    HW315839   0.952   5.365   0.350 -0.1015  0.2465  0.1807
 4018SOL    MW415840   1.014   5.420   0.325 -0.3428  0.1133 -0.7500
 4019SOL     OW15841   0.516   1.630   4.368  0.1198 -0.1246 -0.1827
 4019SOL    HW215842   0.531   1.657   4.458  0.3804  1.3423 -0.6471
 4019SOL    HW315843   0.589   1.571   4.348 -0.4115 -1.1707  0.8115
 4019SOL    MW415844   0.528   1.626   4.377  0.0841 -0.0691 -0.1128
 4020SOL     OW15845   2.883   1.790   6.010 -0.1231 -0.1449  0.2409
 4020SOL    HW215846   2.870   1.703   5.972 -0.8844 -0.3387  0.9209
 4020SOL    HW315847   2.809   1.841   5.978 -0.3351 -0.0892  0.8203
 4020SOL    MW415848   2.872   1.785   6.001 -0.2515 -0.1631  0.4071
 4021SOL     OW15849   2.962   4.786   0.259  0.0804  0.1737 -0.6165
 4021SOL    HW215850   3.016   4.730   0.204 -0.3329  0.4054 -1.2772
 4021SOL    HW315851   2.966   4.746   0.346  1.4046  0.2708 -0.6223
 4021SOL    MW415852   2.969   4.773   0.263  0.2006  0.2171 -0.7044
 4022SOL     OW15853   3.219   3.392   2.990  0.1805 -0.0600 -0.2259
 4022SOL    HW215854   3.269   3.452   3.046  0.3941  0.5894 -1.0769
 4022SOL    HW315855   3.283   3.363   2.925 -0.4921  0.6557 -1.2387
 4022SOL    MW415856   3.234   3.396   2.989  0.1200  0.1201 -0.4718
 4023SOL     OW15857   4.263   1.712   4.333  0.1367  0.4743  0.6734
 4023SOL    HW215858   4.184   1.724   4.386 -1.7292 -0.8307 -1.6041
 4023SOL    HW315859   4.333   1.750   4.386 -1.6587 -0.0555  3.7043
 4023SOL    MW415860   4.262   1.718   4.347 -0.3463  0.2322  0.7728
 4024SOL     OW15861   4.804   3.762   4.379  0.2643  0.0528  0.2458
 4024SOL    HW215862   4.776   3.684   4.426 -1.3008 -0.0026 -0.7015
 4024SOL    HW315863   4.725   3.817   4.375  1.6292  2.3039  2.0099
 4024SOL    MW415864   4.790   3.759   4.385  0.2379  0.3425  0.3536
 4025SOL     OW15865   4.757   1.601   4.420  0.5809 -0.4655  0.2829
 4025SOL    HW215866   4.811   1.675   4.447 -0.7288 -0.1650  2.3325
 4025SOL    HW315867   4.817   1.543   4.374  2.1145  0.8895  0.4786
 4025SOL    MW415868   4.772   1.603   4.418  0.6104 -0.2471  0.5791
 4026SOL     OW15869   3.776   1.566   2.010 -0.1413  0.0845  0.5499
 4026SOL    HW215870   3.736   1.634   1.956  0.0801  0.9740  1.4746
 4026SOL    HW315871   3.794   1.495   1.949  0.4490  1.1897 -0.6176
 4026SOL    MW415872   3.773   1.566   1.995 -0.0342  0.3477  0.5179
 4027SOL     OW15873   5.779   4.033   4.514  0.5027 -0.4038  0.3291
 4027SOL    HW215874   5.782   4.017   4.608 -1.4733 -1.6304  0.2322
 4027SOL    HW315875   5.855   4.088   4.497  1.9850 -1.6923  2.3289
 4027SOL    MW415876   5.789   4.038   4.524  0.4376 -0.7356  0.5802
 4028SOL     OW15877   1.248   4.969   1.557  0.8686  0.3030  0.3464
 4028SOL    HW215878   1.166   4.953   1.603  0.7073  1.5224  0.5235
 4028SOL    HW315879   1.304   4.895   1.579  0.5447  0.5095  1.9436
 4028SOL    MW415880   1.245   4.957   1.566  0.8045  0.4912  0.5805
 4029SOL     OW15881   1.093   5.322   3.394  0.0804  0.1462  0.0209
 4029SOL    HW215882   1.031   5.250   3.406  0.9598 -0.5516  0.5013
 4029SOL    HW315883   1.099   5.362   3.480 -1.8026  2.0130 -0.6275
 4029SOL    MW415884   1.085   5.317   3.407 -0.0520  0.3004 -0.0013
 4030SOL     OW15885   6.098   6.394   5.640  0.6222 -0.2333  0.2081
 4030SOL    HW215886   6.075   6.473   5.590 -0.1417 -0.8156 -0.3777
 4030SOL    HW315887   6.138   6.336   5.576  0.4929 -0.6172  0.4726
 4030SOL    MW415888   6.100   6.397   5.625  0.5043 -0.3608  0.1657
 4031SOL     OW15889   3.270   2.434   5.516  0.3436  0.0542  0.5727
 4031SOL    HW215890   3.297   2.475   5.599  0.7904  1.0970 -0.0585
 4031SOL    HW315891   3.352   2.412   5.472  0.1149 -0.2568  0.2923
 4031SOL    MW415892   3.284   2.437   5.521  0.3723  0.1507  0.4524
 4032SOL     OW15893   5.997   5.572   3.458  0.0220 -0.3511 -0.5892
 4032SOL    HW215894   6.071   5.620   3.495 -0.5136 -0.0329  0.0823
 4032SOL    HW315895   5.922   5.630   3.470 -0.5127 -1.0662 -0.4137
 4032SOL    MW415896   5.997   5.586   3.464 -0.1192 -0.4034 -0.4774
 4033SOL     OW15897   5.938   5.400   2.534  0.1726  0.5853  0.2967
 4033SOL    HW215898   5.850   5.421   2.504 -0.0550 -0.1610  0.4282
 4033SOL    HW315899   5.945   5.442   2.620 -0.3756 -0.1051  0.6857
 4033SOL    MW415900   5.927   5.408   2.541  0.0702  0.3957  0.3654
 4034SOL     OW15901   5.596   6.165   5.670 -0.0225 -0.0159 -0.4101
 4034SOL    HW215902   5.534   6.224   5.627  0.0714 -1.0394 -2.0446
 4034SOL    HW315903   5.680   6.211   5.667 -0.2642  0.4409 -0.2056
 4034SOL    MW415904   5.599   6.179   5.664 -0.0420 -0.0907 -0.5988
 4035SOL     OW15905   2.517   1.652   1.724  0.0901 -0.7074 -0.4775
 4035SOL    HW215906   2.464   1.727   1.698 -0.3764 -0.6157  0.6769
 4035SOL    HW315907   2.457   1.577   1.723  0.1321 -0.7539  0.0192
 4035SOL    MW415908   2.502   1.652   1.721  0.0341 -0.7014 -0.2597
 4036SOL     OW15909   3.358   2.819   3.877 -0.3810  0.6750  0.5960
 4036SOL    HW215910   3.383   2.815   3.970  0.7071  2.3157  0.4178
 4036SOL    HW315911   3.362   2.912   3.855  0.4752  0.2161 -1.3967
 4036SOL    MW415912   3.362   2.831   3.887 -0.1245  0.8309  0.3096
 4037SOL     OW15913   4.765   1.133   4.752  0.3150  0.4198  0.5479
 4037SOL    HW215914   4.721   1.140   4.667  0.3118  0.0228  0.5143
 4037SOL    HW315915   4.838   1.194   4.746 -0.0438  0.8501  0.4879
 4037SOL    MW415916   4.769   1.142   4.740  0.2673  0.4242  0.5356
 4038SOL     OW15917   5.951   1.145   6.341  0.1496 -0.0457 -0.3163
 4038SOL    HW215918   5.954   1.117   6.432 -0.0422 -2.6336 -1.0225
 4038SOL    HW315919   5.866   1.187   6.330  0.2493  0.4393  0.7068
 4038SOL    MW415920   5.940   1.147   6.351  0.1374 -0.3231 -0.2745
 4039SOL     OW15921   1.883   0.648   0.536  0.1186  0.6848  0.5422
 4039SOL    HW215922   1.823   0.608   0.599 -2.0426  2.2356 -0.3941
 4039SOL    HW315923   1.863   0.604   0.453  1.4639  0.1055  0.5003
 4039SOL    MW415924   1.872   0.637   0.533  0.0110  0.8130  0.4131
 4040SOL     OW15925   6.077   0.387   3.006 -0.3986  0.3391 -0.1761
 4040SOL    HW215926   6.064   0.302   3.048  0.5743  0.9977  1.5571
 4040SOL    HW315927   6.028   0.449   3.061  0.4026  1.1480 -0.3506
 4040SOL    MW415928   6.069   0.384   3.019 -0.1645  0.5327  0.0295
 4041SOL     OW15929   1.731   2.455   4.548 -0.2449  0.3481 -0.3401
 4041SOL    HW215930   1.809   2.435   4.496 -0.7547 -0.7213 -0.7369
 4041SOL    HW315931   1.765   2.475   4.636  0.4645 -0.2699 -0.4608
 4041SOL    MW415932   1.746   2.455   4.553 -0.2186  0.1254 -0.4084
 4042SOL     OW15933   1.803   2.688   2.637 -0.0641 -0.4186 -0.5197
 4042SOL    HW215934   1.804   2.710   2.544  0.0736 -3.0443 -1.2164
 4042SOL    HW315935   1.866   2.616   2.645  2.0069  1.5015  2.1407
 4042SOL    MW415936   1.812   2.681   2.626  0.2273 -0.5117 -0.2606
 4043SOL     OW15937   4.061   5.009   4.943  0.0526 -0.6547 -0.4450
 4043SOL    HW215938   4.034   5.094   4.908  2.2739 -0.3778 -1.7047
 4043SOL    HW315939   4.032   4.946   4.878 -2.5474 -1.0767  0.9967
 4043SOL    MW415940   4.053   5.012   4.930  0.0026 -0.6739 -0.4210
 4044SOL     OW15941   2.835   3.446   0.653 -0.1392  0.2313  0.1161
 4044SOL    HW215942   2.828   3.429   0.559 -2.2596 -0.5550  0.3595
 4044SOL    HW315943   2.907   3.391   0.682 -0.6524 -0.9558 -0.7599
 4044SOL    MW415944   2.844   3.436   0.644 -0.4867 -0.0291  0.0326
 4045SOL     OW15945   1.638   4.984   2.368 -0.0746  0.0870  0.4127
 4045SOL    HW215946   1.644   5.053   2.301 -1.1764 -1.5705 -1.5235
 4045SOL    HW315947   1.720   4.990   2.416  1.5091  0.4307 -2.1263
 4045SOL    MW415948   1.650   4.994   2.365 -0.0110 -0.0863 -0.1778
 4046SOL     OW15949   4.849   3.991   0.511  0.1066 -0.0413 -0.2783
 4046SOL    HW215950   4.882   3.902   0.500  0.0556 -0.3095  1.4470
 4046SOL    HW315951   4.757   3.986   0.485  0.8658  0.3079 -3.3693
 4046SOL    MW415952   4.841   3.979   0.506  0.2001 -0.0306 -0.4585
 4047SOL     OW15953   1.819   0.972   1.900  0.2685  0.4522  0.3029
 4047SOL    HW215954   1.849   0.885   1.874 -0.1376  0.0717  1.0761
 4047SOL    HW315955   1.878   0.998   1.971  0.2287  0.6951  0.2480
 4047SOL    MW415956   1.831   0.964   1.906  0.2097  0.4341  0.3977
 4048SOL     OW15957   4.657   3.613   0.747 -0.3175 -0.4792  0.1112
 4048SOL    HW215958   4.715   3.559   0.801  0.3774  0.0149 -0.1294
 4048SOL    HW315959   4.696   3.701   0.750 -2.2815  0.4281  1.7960
 4048SOL    MW415960   4.670   3.618   0.754 -0.4849 -0.2943  0.3018
 4049SOL     OW15961   6.147   1.272   0.407 -0.2669 -0.2204  0.4773
 4049SOL    HW215962   6.119   1.360   0.381 -0.1552 -0.4071 -0.3054
 4049SOL    HW315963   6.214   1.287   0.475 -0.5246  0.2823  0.6256
 4049SOL    MW415964   6.152   1.286   0.413 -0.2862 -0.1787  0.3936
 4050SOL     OW15965   0.561   1.075   0.468  0.6892  0.0235  0.1277
 4050SOL    HW215966   0.515   1.066   0.552  1.4091 -2.0783  0.3573
 4050SOL    HW315967   0.507   1.135   0.417 -1.4360 -1.0638  0.9756
 4050SOL    MW415968   0.548   1.082   0.473  0.5038 -0.3972  0.2699
 4051SOL     OW15969   1.365   2.034   2.101  0.3887  0.1281 -0.3076
 4051SOL    HW215970   1.441   2.071   2.146  0.3774 -0.9485  0.6357
 4051SOL    HW315971   1.296   2.031   2.168  0.0180 -0.4228 -0.7039
 4051SOL    MW415972   1.366   2.038   2.116  0.3383 -0.0866 -0.2354
 4052SOL     OW15973   2.703   2.278   3.923 -0.2534  0.4299 -0.1747
 4052SOL    HW215974   2.615   2.312   3.908 -0.5788 -0.7115 -1.0423
 4052SOL    HW315975   2.755   2.354   3.948 -1.4592  1.1332  0.2506
 4052SOL    MW415976   2.698   2.292   3.924 -0.4554  0.3721 -0.2330
 4053SOL     OW15977   2.916   1.890   4.189 -0.9292  0.5362  0.1824
 4053SOL    HW215978   2.844   1.883   4.251 -0.6801 -0.8749  0.3423
 4053SOL    HW315979   2.972   1.814   4.209 -0.2702  0.6889 -1.0252
 4053SOL    MW415980   2.914   1.879   4.200 -0.8094  0.3702  0.0442
 4054SOL     OW15981   0.281   1.165   3.971 -0.3066 -0.0664  0.8429
 4054SOL    HW215982   0.266   1.152   4.065  0.7849  1.6153  1.2947
 4054SOL    HW315983   0.279   1.260   3.959 -2.6769 -0.2801 -1.2856
 4054SOL    MW415984   0.279   1.176   3.982 -0.4753  0.1273  0.6217
 4055SOL     OW15985   0.897   2.260   3.509 -0.0048 -0.2386 -0.2635
 4055SOL    HW215986   0.802   2.250   3.502 -0.1611  0.9515 -0.0529
 4055SOL    HW315987   0.926   2.180   3.553 -0.7863 -1.0286 -1.1403
 4055SOL    MW415988   0.888   2.248   3.514 -0.1286 -0.1858 -0.3514
 4056SOL     OW15989   1.312   2.773   1.378 -0.2904 -0.8568 -0.7322
 4056SOL    HW215990   1.252   2.701   1.359  0.8113 -2.0889  0.3023
 4056SOL    HW315991   1.273   2.816   1.454 -0.8684 -0.4025 -1.2609
 4056SOL    MW415992   1.299   2.769   1.385 -0.2213 -0.9594 -0.6655
 4057SOL     OW15993   2.343   2.236   1.269 -0.0971 -0.1582 -0.3215
 4057SOL    HW215994   2.305   2.187   1.195 -2.3889 -0.6856  1.0922
 4057SOL    HW315995   2.267   2.262   1.321  1.3967  0.9279  1.4098
 4057SOL    MW415996   2.328   2.233   1.266 -0.2024 -0.0845  0.0935
 4058SOL     OW15997   2.960   0.801   3.906 -0.3046  0.3188  0.4090
 4058SOL    HW215998   2.983   0.874   3.849  0.3648 -0.2034 -0.0147
 4058SOL    HW315999   3.034   0.740   3.896 -1.5897 -1.1533 -0.5181
 4058SOL    MW416000   2.973   0.803   3.897 -0.3859  0.0557  0.2308
 4059SOL     OW16001   0.002   2.700   2.730 -0.4137  0.5164 -0.3751
 4059SOL    HW216002  -0.059   2.703   2.657  1.7850  0.1014 -2.3550
 4059SOL    HW316003   0.078   2.652   2.697 -0.0558 -1.4385  2.8200
 4059SOL    MW416004   0.004   2.694   2.716 -0.0764  0.2037 -0.2148
 4060SOL     OW16005   1.833   2.363   3.877  0.4200  0.0429 -0.2687
 4060SOL    HW216006   1.779   2.326   3.947 -0.7382 -0.0516 -1.1927
 4060SOL    HW316007   1.923   2.351   3.908 -0.0298 -0.9010  0.7552
 4060SOL    MW416008   1.837   2.356   3.890  0.2078 -0.0941 -0.2555
 4061SOL     OW16009   5.461   1.157   5.395 -0.1708 -0.3575  0.9492
 4061SOL    HW216010   5.487   1.074   5.356 -4.1144 -0.0978 -2.9979
 4061SOL    HW316011   5.380   1.138   5.442  1.2119  0.6107  4.0109
 4061SOL    MW416012   5.454   1.144   5.396 -0.5087 -0.1955  0.8324
 4062SOL     OW16013   4.282   0.351   0.808  0.3088 -0.1654 -0.0269
 4062SOL    HW216014   4.264   0.331   0.716  0.8162  1.2790 -0.4797
 4062SOL    HW316015   4.280   0.447   0.812  2.4967 -0.0995  0.9700
 4062SOL    MW416016   4.280   0.361   0.796  0.6644  0.0339  0.0449
 4063SOL     OW16017   2.756   4.600   2.080 -0.1302  0.3570 -0.1556
 4063SOL    HW216018   2.835   4.556   2.111 -0.1134  0.5877  0.1299
 4063SOL    HW316019   2.761   4.592   1.985  0.1598  0.2365 -0.1328
 4063SOL    MW416020   2.767   4.593   2.071 -0.0897  0.3716 -0.1149
 4064SOL     OW16021   5.158   0.639   0.702 -0.3583 -0.2916  0.8619
 4064SOL    HW216022   5.097   0.566   0.692  0.5061 -0.7678 -1.5510
 4064SOL    HW316023   5.134   0.700   0.632  2.8746 -1.2928 -1.3466
 4064SOL    MW416024   5.147   0.638   0.691  0.1823 -0.4866  0.2521
 4065SOL     OW16025   1.396   3.870   4.168 -0.2298 -0.4983 -0.7574
 4065SOL    HW216026   1.458   3.819   4.221 -0.7046  0.2464  0.5707
 4065SOL    HW316027   1.375   3.946   4.222 -2.9553 -1.1404 -0.7621
 4065SOL    MW416028   1.402   3.873   4.182 -0.6520 -0.4847 -0.5828
 4066SOL     OW16029   5.227   1.082   0.920 -0.1683  0.1075  0.4952
 4066SOL    HW216030   5.255   1.127   1.000  0.2930  0.9504 -0.1265
 4066SOL    HW316031   5.216   0.991   0.947  1.2588  0.1217  1.2421
 4066SOL    MW416032   5.229   1.076   0.934  0.0809  0.2206  0.5117
 4067SOL     OW16033   1.952   1.132   2.407 -0.7032  0.3410  0.4104
 4067SOL    HW216034   1.959   1.069   2.334  1.4813 -1.5604  2.1016
 4067SOL    HW316035   1.858   1.137   2.425 -0.9896 -2.5035  0.1896
 4067SOL    MW416036   1.941   1.124   2.400 -0.4528 -0.2852  0.6044
 4068SOL     OW16037   0.802   3.620   1.816  0.3345  0.1659  0.1661
 4068SOL    HW216038   0.713   3.650   1.797  0.5696  1.2352  0.6260
 4068SOL    HW316039   0.858   3.681   1.767  0.8133 -0.6501 -0.3163
 4068SOL    MW416040   0.798   3.632   1.807  0.4287  0.1993  0.1631
 4069SOL     OW16041   4.523   6.226   6.407 -0.3383  0.5094 -0.6052
 4069SOL    HW216042   4.446   6.190   6.362 -0.5742  0.0968  0.1123
 4069SOL    HW316043   4.568   6.149   6.441 -0.1644  0.8196 -0.1339
 4069SOL    MW416044   4.519   6.211   6.405 -0.3465  0.4959 -0.4484
 4070SOL     OW16045   5.100   2.695   3.239 -0.6055 -0.5375 -0.1583
 4070SOL    HW216046   5.094   2.725   3.148 -1.4211  0.4684  0.2008
 4070SOL    HW316047   5.122   2.602   3.232 -0.4527 -0.4330 -1.3750
 4070SOL    MW416048   5.102   2.687   3.226 -0.6930 -0.3910 -0.2714
 4071SOL     OW16049   1.597   1.370   5.608 -0.1323 -0.5443  0.1159
 4071SOL    HW216050   1.517   1.357   5.660  1.2264 -1.9419  1.9795
 4071SOL    HW316051   1.597   1.464   5.588 -0.6656  0.1102  2.8173
 4071SOL    MW416052   1.586   1.381   5.612 -0.0234 -0.6424  0.7182
 4072SOL     OW16053   4.249   1.552   6.135  0.3967  0.8559 -0.2959
 4072SOL    HW216054   4.179   1.600   6.179  0.0489  0.2528 -0.1888
 4072SOL    HW316055   4.278   1.487   6.199  0.2586  0.3336 -0.7542
 4072SOL    MW416056   4.244   1.550   6.150  0.3326  0.7074 -0.3422
 4073SOL     OW16057   4.771   3.109   5.896  0.5719  0.3759 -0.0488
 4073SOL    HW216058   4.848   3.054   5.881 -0.4300 -0.5530 -2.2272
 4073SOL    HW316059   4.699   3.047   5.911 -0.0360  1.1819  0.4643
 4073SOL    MW416060   4.771   3.094   5.896  0.3595  0.3597 -0.2685
 4074SOL     OW16061   4.456   5.883   1.223 -0.5185 -0.5470 -0.2139
 4074SOL    HW216062   4.387   5.915   1.164  0.1917  2.8838  0.5770
 4074SOL    HW316063   4.409   5.854   1.301 -1.1878 -0.2537 -0.4997
 4074SOL    MW416064   4.441   5.884   1.225 -0.5131 -0.0556 -0.1472
 4075SOL     OW16065   5.965   2.328   1.271 -0.3403  0.5668  0.4059
 4075SOL    HW216066   5.911   2.330   1.350 -1.6506 -0.0635 -0.4479
 4075SOL    HW316067   5.903   2.324   1.198  0.8308 -0.8003 -0.5937
 4075SOL    MW416068   5.950   2.327   1.272 -0.3587  0.3033  0.1614
 4076SOL     OW16069   2.155   5.020   3.265  0.1897 -0.5816 -0.1140
 4076SOL    HW216070   2.176   5.012   3.359  0.8319  1.8785  0.0267
 4076SOL    HW316071   2.236   4.994   3.221 -0.2730 -2.2236 -0.0285
 4076SOL    MW416072   2.169   5.016   3.272  0.2134 -0.4737 -0.0841
 4077SOL     OW16073   4.041   4.343   3.994  0.2406  0.3476 -0.4453
 4077SOL    HW216074   3.950   4.373   3.999  0.0357 -0.4117  0.6217
 4077SOL    HW316075   4.041   4.260   4.041  1.2345 -0.2845 -1.5241
 4077SOL    MW416076   4.029   4.336   4.001  0.3447  0.1640 -0.4468
 4078SOL     OW16077   1.801   2.152   4.710 -0.9776  0.0265 -0.0471
 4078SOL    HW216078   1.779   2.234   4.665 -0.4305  0.0443 -0.2899
 4078SOL    HW316079   1.855   2.180   4.784  2.0826 -0.3171 -1.9805
 4078SOL    MW416080   1.805   2.167   4.714 -0.5017 -0.0165 -0.3342
 4079SOL     OW16081   4.885   1.914   2.743 -0.1325 -0.3218  0.0389
 4079SOL    HW216082   4.864   1.925   2.835  0.5617  0.3663  0.1156
 4079SOL    HW316083   4.931   1.830   2.738  0.7710  0.1434  0.4765
 4079SOL    MW416084   4.888   1.904   2.754  0.0783 -0.1697  0.1067
 4080SOL     OW16085   3.002   2.568   1.662 -0.2354 -0.5019 -0.2622
 4080SOL    HW216086   3.028   2.599   1.575  0.1223 -2.1998 -0.7996
 4080SOL    HW316087   2.916   2.529   1.649 -0.2019 -0.7202  0.1599
 4080SOL    MW416088   2.994   2.567   1.649 -0.1838 -0.7548 -0.2775
 4081SOL     OW16089   5.275   0.272   5.504 -0.0553 -0.5718 -0.2229
 4081SOL    HW216090   5.260   0.279   5.410  0.2652 -0.5887 -0.2765
 4081SOL    HW316091   5.350   0.329   5.521 -0.7485  0.2472  0.1887
 4081SOL    MW416092   5.283   0.280   5.494 -0.1045 -0.4660 -0.1757
 4082SOL     OW16093   0.377   5.152   1.010  0.2978  0.1055 -0.6949
 4082SOL    HW216094   0.364   5.070   1.058  1.9077  0.6668  0.8427
 4082SOL    HW316095   0.436   5.203   1.067 -2.1398  3.1341 -0.6448
 4082SOL    MW416096   0.383   5.148   1.024  0.1886  0.5792 -0.4854
 4083SOL     OW16097   0.992   4.432   5.350  0.3525 -0.2418  0.1012
 4083SOL    HW216098   1.047   4.357   5.372  0.9446  0.2181  0.2122
 4083SOL    HW316099   1.052   4.507   5.348  0.0496 -0.0097 -1.5389
 4083SOL    MW416100   1.007   4.432   5.353  0.3906 -0.1505 -0.1006
 4084SOL     OW16101   6.230   1.489   5.451  0.5072  0.0974 -0.3226
 4084SOL    HW216102   6.149   1.531   5.480 -0.2589 -2.9545  2.5826
 4084SOL    HW316103   6.298   1.525   5.509  0.5082 -0.1271 -0.1847
 4084SOL    MW416104   6.228   1.499   5.463  0.4063 -0.3349  0.0789
 4085SOL     OW16105   2.099   0.988   6.225  0.3594 -0.2662  0.8641
 4085SOL    HW216106   2.191   0.999   6.250 -0.0443  2.4689  1.3555
 4085SOL    HW316107   2.050   1.008   6.305 -0.7301 -1.6256  0.5847
 4085SOL    MW416108   2.104   0.992   6.239  0.1624 -0.0847  0.8921
 4086SOL     OW16109   4.298   2.346   5.806  0.1066 -0.0318 -0.2767
 4086SOL    HW216110   4.356   2.313   5.874 -1.7054 -0.3131  1.2396
 4086SOL    HW316111   4.290   2.274   5.744  0.3813 -0.4690  0.1850
 4086SOL    MW416112   4.304   2.332   5.807 -0.0962 -0.1266 -0.0157
 4087SOL     OW16113   0.580   3.588   2.573 -0.2653 -0.3666 -0.1591
 4087SOL    HW216114   0.608   3.678   2.555  1.1091 -1.0852 -1.9666
 4087SOL    HW316115   0.647   3.554   2.633  2.3919 -1.7094 -3.5508
 4087SOL    MW416116   0.593   3.596   2.579  0.2666 -0.6386 -0.8450
 4088SOL     OW16117   1.172   3.300   2.135 -0.3495 -0.6992  0.7467
 4088SOL    HW216118   1.080   3.302   2.163  0.0907  0.6214  2.2677
 4088SOL    HW316119   1.220   3.274   2.213  0.6634 -0.3393  0.2575
 4088SOL    MW416120   1.166   3.297   2.149 -0.1578 -0.4775  0.8828
 4089SOL     OW16121   4.973   6.121   3.845 -0.6201 -0.3737 -0.3439
 4089SOL    HW216122   5.050   6.084   3.889 -1.1468  0.2226  1.1613
 4089SOL    HW316123   5.009   6.164   3.767  1.0672  2.2008  1.6488
 4089SOL    MW416124   4.988   6.122   3.841 -0.4670  0.0446  0.1176
 4090SOL     OW16125   3.955   3.345   0.310  0.1516 -0.5970  0.7740
 4090SOL    HW216126   4.048   3.325   0.302 -0.3567 -2.5465 -0.9406
 4090SOL    HW316127   3.928   3.300   0.390  0.6820  0.1692  1.4081
 4090SOL    MW416128   3.963   3.337   0.320  0.1545 -0.7532  0.6315
 4091SOL     OW16129   4.985   5.589   2.982 -0.2127  0.4853  0.1740
 4091SOL    HW216130   4.891   5.582   3.003 -0.2279  1.1880  0.3431
 4091SOL    HW316131   5.028   5.539   3.052 -0.5884 -2.3870 -1.4664
 4091SOL    MW416132   4.978   5.581   2.994 -0.2643  0.1990 -0.0201
 4092SOL     OW16133   2.967   2.280   3.590  0.4065 -0.1324  0.8748
 4092SOL    HW216134   2.877   2.310   3.579  0.0094 -1.9476 -1.5971
 4092SOL    HW316135   2.960   2.186   3.605  1.8429  0.0322  2.8873
 4092SOL    MW416136   2.954   2.272   3.590  0.5436 -0.3502  0.8142
 4093SOL     OW16137   1.936   3.858   5.800 -0.2453  0.2589  0.5523
 4093SOL    HW216138   1.845   3.880   5.778  0.2728 -0.1402 -2.4416
 4093SOL    HW316139   1.987   3.930   5.764  0.7659 -0.7194 -0.0177
 4093SOL    MW416140   1.931   3.870   5.793 -0.0435  0.0772  0.0821
 4094SOL     OW16141   1.557   0.405   4.650 -0.2564  0.3304  0.4079
 4094SOL    HW216142   1.622   0.457   4.697 -0.7494  0.9411  0.4308
 4094SOL    HW316143   1.533   0.459   4.575 -0.2559 -0.1792  0.0312
 4094SOL    MW416144   1.562   0.419   4.646 -0.3214  0.3438  0.3612
 4095SOL     OW16145   2.794   5.328   4.524 -0.0721  0.0648 -0.3806
 4095SOL    HW216146   2.856   5.308   4.453  0.5053  0.1131  0.0980
 4095SOL    HW316147   2.850   5.353   4.597 -0.6578 -0.1025  0.1293
 4095SOL    MW416148   2.810   5.329   4.524 -0.0732  0.0491 -0.2502
 4096SOL     OW16149   5.511   1.349   1.971 -0.5433 -0.1995  0.2269
 4096SOL    HW216150   5.419   1.344   1.943 -0.5225 -0.4408  0.1990
 4096SOL    HW316151   5.513   1.303   2.055 -0.8725  1.7152  1.3232
 4096SOL    MW416152   5.499   1.342   1.978 -0.5840  0.0213  0.3679
 4097SOL     OW16153   0.139   3.639   0.542 -0.0844  0.1491  0.0041
 4097SOL    HW216154   0.159   3.659   0.450 -1.1505  0.3001 -0.2030
 4097SOL    HW316155   0.170   3.549   0.553  0.8468  0.4225 -0.2485
 4097SOL    MW416156   0.146   3.630   0.531 -0.1022  0.2051 -0.0566
 4098SOL     OW16157   3.247   3.809   5.603  0.1211  0.0931  0.5809
 4098SOL    HW216158   3.256   3.881   5.666 -2.1284 -0.1416  1.2504
 4098SOL    HW316159   3.321   3.821   5.543  1.0700  1.6321  1.9568
 4098SOL    MW416160   3.258   3.820   5.603 -0.0505  0.2651  0.8507
 4099SOL     OW16161   1.269   1.755   4.397 -0.2258 -0.3482  0.3671
 4099SOL    HW216162   1.223   1.833   4.367 -0.3549 -0.4379  0.3324
 4099SOL    HW316163   1.213   1.718   4.465  0.4441  0.2934  1.2872
 4099SOL    MW416164   1.256   1.761   4.402 -0.1545 -0.2754  0.4839
 4100SOL     OW16165   4.486   1.757   0.558  0.0028  0.4059 -0.0722
 4100SOL    HW216166   4.427   1.749   0.483  0.6145  0.3641 -0.5643
 4100SOL    HW316167   4.507   1.850   0.562  0.0374  0.3955 -0.0149
 4100SOL    MW416168   4.481   1.768   0.548  0.0881  0.3990 -0.1296
 4101SOL     OW16169   2.572   0.549   2.307 -0.1781  0.4129  0.5268
 4101SOL    HW216170   2.548   0.557   2.400  1.1858  0.0045  0.9380
 4101SOL    HW316171   2.668   0.553   2.307 -0.2038  1.6160 -1.0069
 4101SOL    MW416172   2.582   0.550   2.320 -0.0015  0.5177  0.3787
 4102SOL     OW16173   1.841   2.347   2.919  0.1348  0.3937 -0.4666
 4102SOL    HW216174   1.909   2.281   2.929 -0.6042 -0.2365  0.6565
 4102SOL    HW316175   1.873   2.422   2.969 -0.6673 -0.4793  1.4673
 4102SOL    MW416176   1.854   2.348   2.927 -0.0685  0.1954 -0.0633
 4103SOL     OW16177   5.754   4.082   2.354 -0.1486  0.2310  0.2540
 4103SOL    HW216178   5.703   4.056   2.278 -1.1547  1.1500  0.5917
 4103SOL    HW316179   5.800   4.162   2.327  2.2371 -1.2872 -0.4924
 4103SOL    MW416180   5.753   4.089   2.341  0.0334  0.1519  0.2001
 4104SOL     OW16181   2.417   2.457   2.279  0.7732  0.1071 -0.2249
 4104SOL    HW216182   2.445   2.420   2.196  2.9299 -0.0973  0.5468
 4104SOL    HW316183   2.497   2.489   2.321 -0.0940 -0.5400  2.1361
 4104SOL    MW416184   2.431   2.456   2.274  0.9434 -0.0053  0.1884
 4105SOL     OW16185   4.535   4.944   2.248  0.6985 -0.3510  0.1991
 4105SOL    HW216186   4.498   4.937   2.160 -0.1249 -0.3938  0.5359
 4105SOL    HW316187   4.461   4.971   2.302  0.8037 -1.8502  1.1566
 4105SOL    MW416188   4.520   4.947   2.243  0.6038 -0.5544  0.3699
 4106SOL     OW16189   1.086   3.656   5.063  0.3422 -0.2236  0.5419
 4106SOL    HW216190   1.092   3.566   5.096 -1.9404 -1.5411 -2.1133
 4106SOL    HW316191   0.996   3.683   5.084  0.2855  0.5683 -0.6365
 4106SOL    MW416192   1.075   3.648   5.070  0.0335 -0.2930  0.0361
 4107SOL     OW16193   5.166   0.028   1.093 -0.0622  0.3191  0.1432
 4107SOL    HW216194   5.090   0.066   1.050 -1.3550 -0.3934  1.7038
 4107SOL    HW316195   5.131  -0.016   1.170  2.0731  0.9127  1.5293
 4107SOL    MW416196   5.152   0.027   1.097  0.0490  0.3034  0.5320
 4108SOL     OW16197   6.215   3.621   5.639  0.3121 -0.0309 -0.7412
 4108SOL    HW216198   6.157   3.691   5.609 -1.2026  0.4732  2.8804
 4108SOL    HW316199   6.211   3.556   5.569 -2.4517  1.2136 -1.9119
 4108SOL    MW416200   6.207   3.622   5.625 -0.2524  0.1998 -0.4178
 4109SOL     OW16201   3.508   3.861   4.201  1.1358  0.1550 -0.2659
 4109SOL    HW216202   3.517   3.924   4.273  1.0876  0.6371 -0.6782
 4109SOL    HW316203   3.581   3.880   4.142 -0.9428  2.4278 -2.3537
 4109SOL    MW416204   3.519   3.872   4.203  0.8552  0.5184 -0.5958
 4110SOL     OW16205   1.042   1.401   2.532 -0.1283  0.3907 -0.3877
 4110SOL    HW216206   1.038   1.323   2.587  0.6256  0.3062 -0.4339
 4110SOL    HW316207   0.969   1.456   2.562 -1.9581 -1.1931 -1.7264
 4110SOL    MW416208   1.032   1.398   2.544 -0.2703  0.1706 -0.5704
 4111SOL     OW16209   1.673   4.946   0.717  0.3909  0.6980  0.4774
 4111SOL    HW216210   1.745   5.001   0.684  1.5926 -0.2968  1.3609
 4111SOL    HW316211   1.666   4.875   0.654 -0.5631  1.3345 -0.1750
 4111SOL    MW416212   1.681   4.944   0.704  0.4236  0.6507  0.5079
 4112SOL     OW16213   0.030   4.599   4.965  0.8989  0.3139  0.0184
 4112SOL    HW216214   0.030   4.540   4.889 -1.0749  0.5715 -0.2382
 4112SOL    HW316215   0.026   4.541   5.041  2.8839  0.0535 -0.0063
 4112SOL    MW416216   0.030   4.583   4.965  0.9004  0.3135 -0.0187
 4113SOL     OW16217   3.731   4.659   3.230  0.0015 -0.4737 -0.2918
 4113SOL    HW216218   3.816   4.637   3.192 -0.1999  1.2816 -1.8960
 4113SOL    HW316219   3.752   4.717   3.303  0.2043 -0.1272 -0.6186
 4113SOL    MW416220   3.745   4.664   3.234  0.0017 -0.1964 -0.5465
 4114SOL     OW16221   3.545   2.321   3.103  0.1423 -0.2554 -0.2726
 4114SOL    HW216222   3.487   2.356   3.170  0.0067  0.7004 -0.8708
 4114SOL    HW316223   3.514   2.359   3.021  2.1350  1.0594 -0.5074
 4114SOL    MW416224   3.533   2.331   3.101  0.3873  0.0441 -0.3825
 4115SOL     OW16225   4.837   3.943   4.049 -0.1271 -0.1368 -0.0566
 4115SOL    HW216226   4.867   4.025   4.010  0.1298 -0.3658 -0.3492
 4115SOL    HW316227   4.828   3.962   4.142  0.6471  0.0180 -0.0044
 4115SOL    MW416228   4.840   3.956   4.056  0.0090 -0.1466 -0.0883
 4116SOL     OW16229   4.325   6.015   5.593 -0.4005 -0.1255 -0.1952
 4116SOL    HW216230   4.252   6.043   5.647 -2.4418 -2.3427 -1.5893
 4116SOL    HW316231   4.345   5.927   5.624  0.7646 -0.0778 -0.7553
 4116SOL    MW416232   4.318   6.007   5.604 -0.5161 -0.4117 -0.4530
 4117SOL     OW16233   1.910   4.327   6.401  0.1633  0.6432 -0.6189
 4117SOL    HW216234   1.822   4.303   6.432 -0.6626  1.7112 -1.9625
 4117SOL    HW316235   1.968   4.304   6.473 -1.1667 -0.4754  0.1563
 4117SOL    MW416236   1.906   4.321   6.414 -0.1212  0.6365 -0.6939
 4118SOL     OW16237   0.034   2.117   3.742 -0.5951  0.0328 -0.5393
 4118SOL    HW216238   0.119   2.081   3.718 -0.3957  0.0083  0.1852
 4118SOL    HW316239  -0.027   2.045   3.729 -0.0666 -0.9264  1.8217
 4118SOL    MW416240   0.037   2.103   3.737 -0.4991 -0.0970 -0.1322
 4119SOL     OW16241   0.698   4.709   3.558 -0.5045  0.1522  0.1655
 4119SOL    HW216242   0.644   4.729   3.635  0.0683 -0.9471  0.8727
 4119SOL    HW316243   0.784   4.687   3.594  0.1279  0.8552 -0.8889
 4119SOL    MW416244   0.702   4.709   3.573 -0.3455  0.0999  0.1197
 4120SOL     OW16245   4.058   1.395   4.479 -0.2442 -0.0331 -0.0099
 4120SOL    HW216246   4.016   1.469   4.434  0.1913  0.1339 -0.1463
 4120SOL    HW316247   4.070   1.427   4.569  0.0133  0.0922 -0.0877
 4120SOL    MW416248   4.054   1.409   4.485 -0.1528  0.0055 -0.0381
 4121SOL     OW16249   3.274   2.201   5.932 -0.7530 -0.5845  0.9432
 4121SOL    HW216250   3.210   2.137   5.899 -1.8775  1.1064 -0.3105
 4121SOL    HW316251   3.345   2.147   5.968 -1.2219 -2.5433 -0.8597
 4121SOL    MW416252   3.275   2.185   5.932 -0.9633 -0.6198  0.5399
 4122SOL     OW16253   6.338   1.540   0.786 -0.4367  0.3029  0.2479
 4122SOL    HW216254   6.293   1.587   0.857  0.1736 -0.0143  0.8575
 4122SOL    HW316255   6.429   1.534   0.816 -1.0678 -4.5444  2.0423
 4122SOL    MW416256   6.344   1.546   0.799 -0.4394 -0.3785  0.5651
 4123SOL     OW16257   4.582   4.063   0.123  0.2356  0.3595  0.4253
 4123SOL    HW216258   4.614   4.134   0.067 -1.0658  0.9100  0.3354
 4123SOL    HW316259   4.500   4.097   0.160  0.0593 -0.7568  1.1001
 4123SOL    MW416260   4.575   4.077   0.120  0.0406  0.2848  0.5025
 4124SOL     OW16261   0.497   0.744   0.810 -0.2695  0.1579 -0.0439
 4124SOL    HW216262   0.547   0.699   0.741  1.9822  0.1605  1.4925
 4124SOL    HW316263   0.535   0.832   0.813 -1.2792  0.5940  0.3186
 4124SOL    MW416264   0.508   0.749   0.801 -0.1056  0.2158  0.2067
 4125SOL     OW16265   2.781   2.246   0.127  0.4519  0.5465  0.7157
 4125SOL    HW216266   2.715   2.181   0.151  0.9758 -1.0093 -1.6929
 4125SOL    HW316267   2.731   2.320   0.095 -0.1600 -0.1132  0.1107
 4125SOL    MW416268   2.766   2.247   0.126  0.4403  0.2542  0.3181
 4126SOL     OW16269   5.405   2.430   3.148 -0.6850  0.1878 -0.4675
 4126SOL    HW216270   5.374   2.361   3.207 -1.7185  0.4861 -0.6383
 4126SOL    HW316271   5.476   2.389   3.098  0.1222 -0.1133  0.8590
 4126SOL    MW416272   5.410   2.416   3.149 -0.7149  0.1874 -0.3150
 4127SOL     OW16273   4.245   4.799   4.474 -0.0108 -0.0214  0.3890
 4127SOL    HW216274   4.268   4.798   4.381 -1.5058  0.5719 -0.0135
 4127SOL    HW316275   4.255   4.708   4.502 -3.6392 -1.1832 -1.4748
 4127SOL    MW416276   4.250   4.787   4.465 -0.6867 -0.0964  0.0900
 4128SOL     OW16277   5.549   5.429   3.743 -0.0163 -0.2366 -0.3690
 4128SOL    HW216278   5.518   5.444   3.832 -1.5584 -0.8310 -0.7815
 4128SOL    HW316279   5.643   5.447   3.747 -0.0365 -0.3775  1.3967
 4128SOL    MW416280   5.557   5.433   3.756 -0.2224 -0.3336 -0.1905
 4129SOL     OW16281   1.708   0.558   4.860  0.4420  0.2921  0.2535
 4129SOL    HW216282   1.688   0.470   4.890 -2.3822  0.3387 -1.1564
 4129SOL    HW316283   1.671   0.616   4.927  0.3460  0.3762  0.1313
 4129SOL    MW416284   1.700   0.554   4.872  0.0567  0.3094  0.0514
 4130SOL     OW16285   0.939   2.462   4.877  0.5970 -0.5377 -0.2703
 4130SOL    HW216286   0.864   2.464   4.818 -0.2925  1.6548  0.8270
 4130SOL    HW316287   1.015   2.456   4.819 -0.3419 -2.7503 -1.4114
 4130SOL    MW416288   0.939   2.461   4.862  0.3558 -0.5403 -0.2761
 4131SOL     OW16289   2.214   1.259   0.968  0.0869 -0.1399 -0.3982
 4131SOL    HW216290   2.131   1.237   0.926 -1.4250  1.8528  1.3395
 4131SOL    HW316291   2.246   1.336   0.919  0.3111 -0.1947 -0.3378
 4131SOL    MW416292   2.207   1.267   0.956 -0.0830  0.1158 -0.1609
 4132SOL     OW16293   1.340   5.528   5.643  0.4230  0.0435 -0.2883
 4132SOL    HW216294   1.431   5.532   5.615  0.5381  0.0726  0.0847
 4132SOL    HW316295   1.323   5.613   5.685  0.1848  0.0912 -0.4785
 4132SOL    MW416296   1.349   5.540   5.645  0.4067  0.0536 -0.2642
 4133SOL     OW16297   2.365   2.466   1.073  0.6801  0.0772  0.3152
 4133SOL    HW216298   2.304   2.462   1.147 -0.9083  0.5859 -0.9166
 4133SOL    HW316299   2.448   2.494   1.112 -0.3815  1.3917  1.7630
 4133SOL    MW416300   2.368   2.469   1.088  0.3305  0.3178  0.3437
 4134SOL     OW16301   1.217   3.527   1.566  0.0299 -0.8526 -0.0437
 4134SOL    HW216302   1.267   3.602   1.533  1.0843 -2.3345 -2.0098
 4134SOL    HW316303   1.241   3.521   1.658 -0.4072  1.4217  0.2996
 4134SOL    MW416304   1.227   3.536   1.574  0.1113 -0.7481 -0.2578
 4135SOL     OW16305   0.578   3.261   2.798  0.2104  0.1066 -0.0410
 4135SOL    HW216306   0.552   3.250   2.707  1.7923  2.3231 -0.8512
 4135SOL    HW316307   0.579   3.173   2.834 -1.7365 -0.7085 -1.7562
 4135SOL    MW416308   0.575   3.248   2.791  0.1622  0.2915 -0.3742
 4136SOL     OW16309   0.656   2.429   2.926 -0.3240  0.0171 -0.5967
 4136SOL    HW216310   0.672   2.519   2.955 -1.5620 -0.3798  1.5327
 4136SOL    HW316311   0.566   2.429   2.895 -0.5567 -0.6449  0.0726
 4136SOL    MW416312   0.646   2.441   2.926 -0.5180 -0.1226 -0.2275
 4137SOL     OW16313   0.550   2.032   1.630 -0.1236 -0.1693 -0.4467
 4137SOL    HW216314   0.603   1.964   1.671 -0.5546 -1.5230 -1.9793
 4137SOL    HW316315   0.461   2.015   1.661 -0.1080  0.2009 -0.2036
 4137SOL    MW416316   0.545   2.020   1.639 -0.1784 -0.2991 -0.6168
 4138SOL     OW16317   0.347   3.441   4.705 -0.5127 -0.0047  0.0868
 4138SOL    HW216318   0.324   3.350   4.692  2.4879 -1.1888  1.9845
 4138SOL    HW316319   0.364   3.448   4.799  3.9614  1.1393 -0.5582
 4138SOL    MW416320   0.347   3.430   4.716  0.4735 -0.0100  0.2521
 4139SOL     OW16321   1.624   4.072   2.389  0.1322  0.2309  0.1374
 4139SOL    HW216322   1.700   4.027   2.427 -0.3518 -0.6763  0.0579
 4139SOL    HW316323   1.651   4.164   2.384  0.5049  0.2548  1.9201
 4139SOL    MW416324   1.638   4.078   2.393  0.1175  0.1144  0.3621
 4140SOL     OW16325   5.509   1.348   3.970  0.3223 -0.9906  0.1087
 4140SOL    HW216326   5.601   1.341   3.995  0.4077  0.4470  0.2931
 4140SOL    HW316327   5.496   1.442   3.953 -1.1929 -1.1114  0.4618
 4140SOL    MW416328   5.520   1.360   3.971  0.1336 -0.8168  0.1796
 4141SOL     OW16329   2.565   5.885   5.076 -0.3679 -0.0930  0.2344
 4141SOL    HW216330   2.617   5.915   5.001 -0.7611 -1.3189 -0.5714
 4141SOL    HW316331   2.606   5.802   5.102  0.2544  0.7141  1.9146
 4141SOL    MW416332   2.577   5.878   5.069 -0.3377 -0.1483  0.3498
 4142SOL     OW16333   3.854   0.367   5.252 -0.5590 -0.1944 -0.1125
 4142SOL    HW216334   3.782   0.421   5.218 -0.9496 -1.4477 -1.3330
 4142SOL    HW316335   3.845   0.375   5.347 -0.2848  2.2621 -0.2096
 4142SOL    MW416336   3.843   0.376   5.260 -0.5744 -0.0357 -0.2863
 4143SOL     OW16337   3.125   6.043   6.009  0.0110  0.5985  0.2224
 4143SOL    HW216338   3.109   6.076   5.921  0.8701 -1.8242 -0.9031
 4143SOL    HW316339   3.211   6.079   6.033  0.6809 -0.3187 -0.7543
 4143SOL    MW416340   3.135   6.052   6.001  0.2128  0.1578 -0.0550
 4144SOL     OW16341   1.691   2.739   3.703 -0.0451 -0.4484  0.2352
 4144SOL    HW216342   1.602   2.739   3.740  0.0918  0.3554  0.5830
 4144SOL    HW316343   1.694   2.816   3.647  0.3866 -0.5576  0.1055
 4144SOL    MW416344   1.679   2.749   3.701  0.0299 -0.3567  0.2640
 4145SOL     OW16345   5.105   5.300   2.815 -0.4493 -0.4694  0.0538
 4145SOL    HW216346   5.177   5.239   2.829  1.0524  0.3993 -2.9213
 4145SOL    HW316347   5.142   5.386   2.832 -0.5852  0.0251 -1.8574
 4145SOL    MW416348   5.119   5.303   2.819 -0.2691 -0.2895 -0.5909
 4146SOL     OW16349   1.201   2.824   2.868  0.3337  0.2353  0.6478
 4146SOL    HW216350   1.184   2.909   2.828  1.2037  1.0053  1.8594
 4146SOL    HW316351   1.181   2.761   2.799  1.4141  1.4940 -0.8890
 4146SOL    MW416352   1.196   2.827   2.854  0.5910  0.5029  0.6049
 4147SOL     OW16353   2.484   3.392   0.558  0.1398  0.3862 -0.4723
 4147SOL    HW216354   2.423   3.352   0.621  0.3459 -0.3174 -0.7063
 4147SOL    HW316355   2.529   3.317   0.518  0.4209  0.8565 -1.0445
 4147SOL    MW416356   2.482   3.377   0.561  0.2041  0.3554 -0.5786
 4148SOL     OW16357   2.122   1.610   0.621  0.3681 -0.1780 -0.5965
 4148SOL    HW216358   2.116   1.661   0.702 -0.5833 -1.0927 -0.0642
 4148SOL    HW316359   2.216   1.592   0.611  0.8599  2.3942 -1.3059
 4148SOL    MW416360   2.133   1.614   0.631  0.3075  0.0407 -0.6199
 4149SOL     OW16361   3.624   0.881   2.474 -0.1471  0.2067  0.6665
 4149SOL    HW216362   3.560   0.839   2.417  2.2884 -0.8382 -1.4658
 4149SOL    HW316363   3.677   0.809   2.507  0.2302  1.0871  2.0658
 4149SOL    MW416364   3.622   0.866   2.471  0.2240  0.1850  0.5698
 4150SOL     OW16365   0.262   2.723   0.570  0.1383 -0.4108 -0.6053
 4150SOL    HW216366   0.274   2.818   0.569  1.7283 -0.5471 -3.0948
 4150SOL    HW316367   0.320   2.692   0.640  0.4633  0.3924 -0.5105
 4150SOL    MW416368   0.271   2.732   0.579  0.3909 -0.3228 -0.9212
 4151SOL     OW16369   5.189   5.457   4.674  0.2404  0.3354 -0.3766
 4151SOL    HW216370   5.256   5.511   4.631  1.6213  0.2961  1.6015
 4151SOL    HW316371   5.234   5.375   4.695 -0.4374  0.2515  0.8471
 4151SOL    MW416372   5.204   5.454   4.671  0.3332  0.3191  0.0458
 4152SOL     OW16373   1.716   2.070   5.331  0.3952  0.0447  0.1093
 4152SOL    HW216374   1.773   2.022   5.271 -0.2142 -0.3206 -0.1921
 4152SOL    HW316375   1.656   2.119   5.273 -0.6184 -0.8143  0.3906
 4152SOL    MW416376   1.715   2.070   5.315  0.1811 -0.1168  0.1066
 4153SOL     OW16377   0.882   3.775   0.041 -0.0755 -0.0709  0.2967
 4153SOL    HW216378   0.899   3.733   0.125 -0.4826 -0.6001  0.1207
 4153SOL    HW316379   0.799   3.822   0.055 -1.8678 -2.6969 -0.6729
 4153SOL    MW416380   0.873   3.776   0.054 -0.3657 -0.4872  0.1456
 4154SOL     OW16381   2.636   4.266   1.156 -0.2731  0.3679 -0.0942
 4154SOL    HW216382   2.691   4.269   1.234 -2.0033  0.1809  1.2092
 4154SOL    HW316383   2.588   4.349   1.158 -1.9471 -0.5594  0.3249
 4154SOL    MW416384   2.637   4.278   1.167 -0.7222  0.2209  0.1331
 4155SOL     OW16385   5.000   2.690   1.601  0.6739  0.4653  0.0849
 4155SOL    HW216386   5.039   2.606   1.623  1.3066  0.5797 -0.5450
 4155SOL    HW316387   4.986   2.686   1.506  3.5019  2.1136 -0.5500
 4155SOL    MW416388   5.004   2.679   1.591  1.1305  0.6979 -0.0820
 4156SOL     OW16389   4.220   4.312   1.703  0.6373  0.9321  0.4441
 4156SOL    HW216390   4.152   4.349   1.760  0.2714 -0.4986  0.9871
 4156SOL    HW316391   4.297   4.366   1.719 -0.5045  2.9752 -0.6393
 4156SOL    MW416392   4.221   4.324   1.712  0.4384  1.0129  0.3728
 4157SOL     OW16393   4.418   2.798   1.011 -0.2478  0.7815 -0.4439
 4157SOL    HW216394   4.502   2.758   1.032 -0.5423  0.4893  0.2194
 4157SOL    HW316395   4.363   2.779   1.087 -0.7064  1.5582 -0.5716
 4157SOL    MW416396   4.422   2.790   1.024 -0.3472  0.8455 -0.3732
 4158SOL     OW16397   2.724   5.687   4.143 -0.1745 -0.6912 -0.7352
 4158SOL    HW216398   2.697   5.637   4.220  1.3469 -1.0495 -0.3984
 4158SOL    HW316399   2.734   5.776   4.175 -1.0141 -0.5300 -0.8907
 4158SOL    MW416400   2.721   5.692   4.158 -0.0846 -0.7172 -0.7112
 4159SOL     OW16401   1.740   0.099   1.109  0.2755  0.3952  0.6690
 4159SOL    HW216402   1.770   0.183   1.075 -1.4508  1.3040  1.2999
 4159SOL    HW316403   1.814   0.066   1.160  1.6382  0.6340 -1.0269
 4159SOL    MW416404   1.754   0.106   1.111  0.2275  0.5466  0.5285
 4160SOL     OW16405   3.007   0.200   1.593 -0.1181  0.4548  0.4829
 4160SOL    HW216406   3.101   0.197   1.610 -0.1324  0.0658  0.5083
 4160SOL    HW316407   2.985   0.293   1.596  0.3127  0.5663  0.2017
 4160SOL    MW416408   3.017   0.212   1.596 -0.0631  0.4182  0.4491
 4161SOL     OW16409   1.742   5.598   1.809  0.2396  0.0348 -0.2032
 4161SOL    HW216410   1.730   5.689   1.782  1.0768 -0.4792 -2.5797
 4161SOL    HW316411   1.658   5.571   1.845 -0.5642  1.2308 -1.1353
 4161SOL    MW416412   1.729   5.606   1.810  0.2440  0.1248 -0.6397
 4162SOL     OW16413   6.343   4.815   0.447 -0.1347  0.1711  0.2162
 4162SOL    HW216414   6.316   4.791   0.536  1.1972  1.0129  0.8869
 4162SOL    HW316415   6.331   4.910   0.444 -1.4158  0.0022 -0.9801
 4162SOL    MW416416   6.337   4.825   0.458 -0.1280  0.2598  0.1469
 4163SOL     OW16417   0.016   0.144   4.532  0.0452  0.0496 -0.1876
 4163SOL    HW216418   0.067   0.173   4.608  0.8841  0.6394 -0.9542
 4163SOL    HW316419  -0.016   0.058   4.557 -2.3512  1.4482  2.1013
 4163SOL    MW416420   0.019   0.137   4.546 -0.1603  0.3120  0.0133
 4164SOL     OW16421   3.699   5.785   2.674  0.1852 -0.3887  0.0464
 4164SOL    HW216422   3.609   5.803   2.703 -0.0616  2.0881 -1.8852
 4164SOL    HW316423   3.754   5.823   2.743 -0.2582 -0.9052  0.6909
 4164SOL    MW416424   3.694   5.793   2.687  0.0942 -0.1300 -0.1235
 4165SOL     OW16425   0.407   3.168   1.764  0.3870 -0.1554  0.2475
 4165SOL    HW216426   0.421   3.138   1.674 -0.1695 -1.1180  0.4646
 4165SOL    HW316427   0.341   3.237   1.756 -0.7335 -1.1989  0.0220
 4165SOL    MW416428   0.400   3.173   1.751  0.1657 -0.4201  0.2464
 4166SOL     OW16429   4.332   4.512   3.019  0.6574  0.1815  0.5220
 4166SOL    HW216430   4.420   4.528   2.984  1.1123 -0.1911  1.4322
 4166SOL    HW316431   4.332   4.557   3.103  0.0102  0.0959  0.5671
 4166SOL    MW416432   4.344   4.520   3.026  0.6320  0.1210  0.6481
 4167SOL     OW16433   0.043   5.070   2.421 -0.7581 -0.1110 -0.3681
 4167SOL    HW216434   0.074   5.140   2.364  0.2931 -0.1191  0.1736
 4167SOL    HW316435   0.122   5.032   2.459 -1.3663  1.6932  3.2319
 4167SOL    MW416436   0.057   5.075   2.419 -0.6997  0.1259  0.1784
 4168SOL     OW16437   3.641   3.362   0.678 -0.0916  0.1917  0.1304
 4168SOL    HW216438   3.624   3.415   0.600  0.5582 -0.4618 -0.4579
 4168SOL    HW316439   3.621   3.421   0.751  0.5541  1.2363 -0.5118
 4168SOL    MW416440   3.636   3.377   0.677  0.0794  0.2433 -0.0319
 4169SOL     OW16441   3.454   4.867   5.863  0.1311 -0.3050  0.2389
 4169SOL    HW216442   3.471   4.938   5.800 -1.5649  0.7567  0.9163
 4169SOL    HW316443   3.441   4.912   5.946  0.2146 -1.5260  0.9327
 4169SOL    MW416444   3.455   4.883   5.865 -0.0816 -0.3260  0.4198
 4170SOL     OW16445   4.532   2.854   4.427  0.3025 -0.0008 -0.0636
 4170SOL    HW216446   4.506   2.939   4.391  0.6303 -0.5844 -1.7388
 4170SOL    HW316447   4.480   2.846   4.507 -1.0882  0.9809 -0.8201
 4170SOL    MW416448   4.522   2.864   4.433  0.1623  0.0517 -0.3844
 4171SOL     OW16449   4.238   2.768   0.344 -0.2987 -0.2343  0.4093
 4171SOL    HW216450   4.292   2.770   0.423  0.4671 -0.6820 -0.0862
 4171SOL    HW316451   4.234   2.675   0.321  0.4818 -0.0044 -0.7354
 4171SOL    MW416452   4.245   2.756   0.352 -0.0947 -0.2630  0.1929
 4172SOL     OW16453   0.953   5.015   3.298  0.8515  0.8205 -0.5591
 4172SOL    HW216454   0.901   4.935   3.289 -1.2202  2.0301 -0.0063
 4172SOL    HW316455   0.981   5.035   3.208 -2.2535  1.7006 -1.4877
 4172SOL    MW416456   0.950   5.007   3.285  0.1685  1.0962 -0.6087
 4173SOL     OW16457   2.342   3.048   0.440  0.3145  0.0940  0.2806
 4173SOL    HW216458   2.254   3.069   0.408  0.6813  3.5831  1.1147
 4173SOL    HW316459   2.331   3.039   0.535  0.8599  0.8414  0.4248
 4173SOL    MW416460   2.329   3.050   0.449  0.4349  0.6529  0.4096
 4174SOL     OW16461   6.213   3.348   3.123  0.8362 -0.2976  0.0454
 4174SOL    HW216462   6.261   3.298   3.190  0.3098  0.8651  1.3364
 4174SOL    HW316463   6.249   3.436   3.129 -0.6261  0.3099  0.2180
 4174SOL    MW416464   6.224   3.353   3.133  0.5738 -0.0640  0.2385
 4175SOL     OW16465   3.356   2.731   1.040 -0.4736  0.0750  0.0521
 4175SOL    HW216466   3.374   2.638   1.035  0.7942  0.2843  0.3485
 4175SOL    HW316467   3.309   2.742   1.123 -0.1674 -0.2373  0.2700
 4175SOL    MW416468   3.352   2.720   1.050 -0.2659  0.0614  0.1200
 4176SOL     OW16469   2.288   3.910   4.499  0.6048 -0.3460 -0.1234
 4176SOL    HW216470   2.241   3.990   4.521 -0.1527 -0.7797 -0.1133
 4176SOL    HW316471   2.354   3.901   4.568 -1.0487 -1.1336  1.4327
 4176SOL    MW416472   2.291   3.919   4.511  0.2867 -0.5072  0.0832
 4177SOL     OW16473   3.536   6.282   4.170  0.0744  0.3665 -0.4052
 4177SOL    HW216474   3.472   6.331   4.118 -0.8471 -0.2815  0.0898
 4177SOL    HW316475   3.611   6.341   4.178 -0.9763  1.6859  0.1334
 4177SOL    MW416476   3.537   6.296   4.164 -0.1858  0.4551 -0.2688
 4178SOL     OW16477   4.825   2.473   2.132 -0.2339  0.2139 -0.1199
 4178SOL    HW216478   4.802   2.516   2.050 -1.2705 -0.7407 -0.3630
 4178SOL    HW316479   4.914   2.440   2.119 -0.3816  0.0888 -0.8645
 4178SOL    MW416480   4.833   2.474   2.119 -0.3902  0.0714 -0.2502
 4179SOL     OW16481   5.125   6.080   2.426  0.2415  0.3412 -0.2343
 4179SOL    HW216482   5.170   6.071   2.510 -1.4309 -0.5250  0.6261
 4179SOL    HW316483   5.080   6.164   2.432 -0.7928 -0.2241  0.2402
 4179SOL    MW416484   5.125   6.090   2.438 -0.1156  0.1523 -0.0582
 4180SOL     OW16485   2.701   2.685   0.190  0.0133 -0.4837  0.1946
 4180SOL    HW216486   2.651   2.642   0.120  0.2871 -0.4892  0.0005
 4180SOL    HW316487   2.791   2.655   0.176 -0.2994 -2.6481  2.1486
 4180SOL    MW416488   2.706   2.675   0.179  0.0081 -0.7700  0.4268
 4181SOL     OW16489   2.774   2.845   4.765 -0.1447  0.5144 -1.1733
 4181SOL    HW216490   2.792   2.871   4.856  0.3880  1.3597 -1.5169
 4181SOL    HW316491   2.860   2.841   4.723 -0.1925 -1.6547 -1.2042
 4181SOL    MW416492   2.788   2.848   4.772 -0.0807  0.3397 -1.2227
 4182SOL     OW16493   5.796   1.826   4.751 -0.6199 -0.1676  0.4914
 4182SOL    HW216494   5.849   1.905   4.736 -0.7143 -0.0015  1.0110
 4182SOL    HW316495   5.768   1.799   4.664  1.3310 -0.9654  0.0487
 4182SOL    MW416496   5.799   1.833   4.737 -0.3750 -0.2509  0.5015
 4183SOL     OW16497   0.644   6.007   6.050  0.0971 -0.9676  0.7394
 4183SOL    HW216498   0.552   5.983   6.057 -0.5508  0.2801 -2.3102
 4183SOL    HW316499   0.686   5.932   6.008 -0.5963  0.3068 -2.4638
 4183SOL    MW416500   0.637   5.994   6.046 -0.0799 -0.6348 -0.0856
 4184SOL     OW16501   0.719   0.282   4.583 -0.2871  0.3431  0.4229
 4184SOL    HW216502   0.697   0.190   4.577  1.3043 -0.1950  1.9544
 4184SOL    HW316503   0.786   0.295   4.516 -0.9490  0.5694 -0.2153
 4184SOL    MW416504   0.725   0.272   4.573 -0.1645  0.3020  0.5407
 4185SOL     OW16505   4.634   1.752   2.692  0.3461  0.2436 -0.1579
 4185SOL    HW216506   4.613   1.785   2.604  0.8933  0.2828 -0.2799
 4185SOL    HW316507   4.697   1.815   2.727  0.5449 -0.0662  0.0466
 4185SOL    MW416508   4.640   1.765   2.685  0.4445  0.2079 -0.1470
 4186SOL     OW16509   1.254   1.991   5.783  0.4981  0.4547 -0.9684
 4186SOL    HW216510   1.248   1.904   5.820 -2.3990  0.3318 -1.5299
 4186SOL    HW316511   1.299   2.043   5.850 -1.5905 -0.5053  1.3268
 4186SOL    MW416512   1.259   1.987   5.796 -0.1597  0.3118 -0.7397
 4187SOL     OW16513   3.805   4.339   3.736  0.0517  0.4572  0.2258
 4187SOL    HW216514   3.745   4.374   3.670 -1.0663 -1.4728  0.1290
 4187SOL    HW316515   3.782   4.384   3.816 -2.4260 -1.0057  0.4527
 4187SOL    MW416516   3.794   4.349   3.738 -0.4227  0.0095  0.2430
 4188SOL     OW16517   4.425   4.127   3.934 -0.3543  0.3067  0.1977
 4188SOL    HW216518   4.490   4.145   3.866 -0.5656 -1.5043 -0.5470
 4188SOL    HW316519   4.342   4.154   3.895 -0.2994  0.6914  0.3429
 4188SOL    MW416520   4.423   4.133   3.920 -0.3749  0.1185  0.1186
 4189SOL     OW16521   3.890   4.150   1.387  0.6070 -0.0957 -0.5315
 4189SOL    HW216522   3.896   4.079   1.450  2.2875  0.3695 -0.1108
 4189SOL    HW316523   3.869   4.107   1.304 -2.8346 -0.5982  0.4857
 4189SOL    MW416524   3.888   4.135   1.384  0.3747 -0.1006 -0.3418
 4190SOL     OW16525   0.040   6.410   5.660 -0.5535 -0.1292  0.3845
 4190SOL    HW216526   0.085   6.336   5.618  2.9304  1.2145  1.3890
 4190SOL    HW316527  -0.021   6.442   5.594  1.3033 -0.9785 -1.8743
 4190SOL    MW416528   0.038   6.404   5.646  0.1512 -0.0640  0.2190
 4191SOL     OW16529   3.153   5.564   1.586  0.2904  0.0350  0.0095
 4191SOL    HW216530   3.178   5.490   1.531 -0.5204  1.4688 -2.4628
 4191SOL    HW316531   3.235   5.604   1.612  0.7051 -0.3461 -0.6818
 4191SOL    MW416532   3.167   5.559   1.582  0.2382  0.1739 -0.4079
 4192SOL     OW16533   2.804   2.958   4.052 -0.6579  0.0318  0.4452
 4192SOL    HW216534   2.749   2.888   4.086  1.6305 -1.2623  1.7370
 4192SOL    HW316535   2.752   3.037   4.062 -2.3596 -1.1502  1.3203
 4192SOL    MW416536   2.790   2.959   4.058 -0.5805 -0.2949  0.7311
 4193SOL     OW16537   3.257   3.210   4.181  0.0608  0.3726  0.0702
 4193SOL    HW216538   3.292   3.131   4.222 -0.7574  0.6623  1.3703
 4193SOL    HW316539   3.332   3.248   4.134  0.9979 -0.0409  1.1836
 4193SOL    MW416540   3.272   3.205   4.180  0.0765  0.3563  0.3887
 4194SOL     OW16541   2.084   5.445   1.596 -0.0250 -0.2376 -0.3961
 4194SOL    HW216542   2.174   5.458   1.566  0.2052 -0.8528  0.0080
 4194SOL    HW316543   2.089   5.371   1.656 -0.9404 -0.8080 -1.0069
 4194SOL    MW416544   2.096   5.437   1.600 -0.1154 -0.3940 -0.4234
 4195SOL     OW16545   2.815   4.669   1.072  0.1306 -0.0304  0.0128
 4195SOL    HW216546   2.742   4.687   1.131  0.8987  1.1710  0.6483
 4195SOL    HW316547   2.794   4.585   1.033 -2.1065  0.7442 -0.6273
 4195SOL    MW416548   2.803   4.660   1.075 -0.0632  0.2303  0.0122
 4196SOL     OW16549   5.550   3.386   3.748 -0.3020  0.0534  0.2449
 4196SOL    HW216550   5.455   3.397   3.749 -0.2553  0.8406 -1.0661
 4196SOL    HW316551   5.564   3.293   3.760 -1.2079  0.0216  1.1331
 4196SOL    MW416552   5.539   3.376   3.750 -0.4154  0.1531  0.1891
 4197SOL     OW16553   5.293   2.967   2.893  0.1950 -0.3735 -0.4495
 4197SOL    HW216554   5.374   2.997   2.934  0.6625  0.4124 -1.8681
 4197SOL    HW316555   5.279   3.027   2.820 -1.2928 -0.9293 -0.6605
 4197SOL    MW416556   5.302   2.979   2.889  0.0604 -0.3431 -0.6645
 4198SOL     OW16557   2.910   5.429   3.304  0.1141 -0.1404  0.0318
 4198SOL    HW216558   2.891   5.519   3.329  0.4862 -0.1370  0.3065
 4198SOL    HW316559   2.891   5.425   3.210  0.8185  0.4176 -0.1373
 4198SOL    MW416560   2.905   5.440   3.295  0.2561 -0.0663  0.0457
 4199SOL     OW16561   1.191   1.317   3.077  0.6071  0.7222 -0.4466
 4199SOL    HW216562   1.216   1.382   3.011  1.8717  0.7500  0.0333
 4199SOL    HW316563   1.263   1.317   3.140 -0.6121  0.7734  1.0161
 4199SOL    MW416564   1.204   1.326   3.077  0.6131  0.7326 -0.1903
 4200SOL     OW16565   5.341   3.529   1.741 -0.2736 -0.2947 -0.9773
 4200SOL    HW216566   5.363   3.443   1.777 -2.3014 -0.0437  1.1317
 4200SOL    HW316567   5.332   3.515   1.647  0.8418 -2.0371 -0.8684
 4200SOL    MW416568   5.342   3.516   1.734 -0.3940 -0.4915 -0.6846
 4201SOL     OW16569   4.201   4.280   2.952 -0.1110  0.0492 -0.2614
 4201SOL    HW216570   4.262   4.354   2.961  1.5897 -1.3153  0.0789
 4201SOL    HW316571   4.149   4.283   3.031  0.7864  0.1783  0.3447
 4201SOL    MW416572   4.202   4.290   2.963  0.2318 -0.1138 -0.1365
 4202SOL     OW16573   5.732   3.451   3.196 -0.3981  0.0073  0.3212
 4202SOL    HW216574   5.691   3.532   3.226 -1.9676 -0.9970  1.0554
 4202SOL    HW316575   5.826   3.464   3.210 -0.5558  1.8877 -0.1234
 4202SOL    MW416576   5.739   3.464   3.202 -0.6260  0.1229  0.3594
 4203SOL     OW16577   3.938   1.192   1.235  0.0967  0.2990  0.0460
 4203SOL    HW216578   3.852   1.176   1.197 -0.2082  0.6581  0.5607
 4203SOL    HW316579   3.977   1.106   1.246  0.4463  0.2107 -1.6263
 4203SOL    MW416580   3.932   1.179   1.232  0.1026  0.3347 -0.1067
 4204SOL     OW16581   2.548   1.839   0.938 -0.3132  0.3416 -0.3467
 4204SOL    HW216582   2.483   1.819   1.006 -0.9717 -0.0557 -1.0783
 4204SOL    HW316583   2.564   1.933   0.946  0.2418  0.1568  0.9022
 4204SOL    MW416584   2.542   1.848   0.948 -0.3269  0.2648 -0.2784
 4205SOL     OW16585   0.842   3.914   2.777 -0.2937  0.0396  0.1773
 4205SOL    HW216586   0.797   3.925   2.861 -0.4701 -3.5351  0.7197
 4205SOL    HW316587   0.930   3.886   2.801  0.4014  1.2055 -0.8928
 4205SOL    MW416588   0.848   3.912   2.791 -0.2253 -0.2782  0.1077
 4206SOL     OW16589   0.401   2.109   1.257  0.2042 -0.3129  0.1935
 4206SOL    HW216590   0.441   2.041   1.312  0.9592  0.0605  0.1185
 4206SOL    HW316591   0.405   2.072   1.168  1.5110  0.1995  0.0060
 4206SOL    MW416592   0.407   2.095   1.252  0.4762 -0.1960  0.1588
 4207SOL     OW16593   3.919   1.507   5.966  0.4796  0.3470 -0.3908
 4207SOL    HW216594   3.917   1.415   5.943 -0.4404  1.0357 -3.6097
 4207SOL    HW316595   3.995   1.542   5.920  0.8831  1.1816  0.8641
 4207SOL    MW416596   3.928   1.500   5.957  0.4114  0.5480 -0.6499
 4208SOL     OW16597   4.290   6.146   6.294 -0.6496  0.0300 -0.2633
 4208SOL    HW216598   4.314   6.071   6.240  0.9039 -0.0567  0.4930
 4208SOL    HW316599   4.201   6.169   6.266 -0.2184 -0.5387 -2.2384
 4208SOL    MW416600   4.281   6.139   6.283 -0.3877 -0.0565 -0.4241
 4209SOL     OW16601   0.153   4.682   3.842  0.2342  0.0292 -0.0742
 4209SOL    HW216602   0.183   4.729   3.764 -1.0156 -0.3660 -0.8232
 4209SOL    HW316603   0.099   4.746   3.889 -0.9199 -0.4178 -0.7517
 4209SOL    MW416604   0.150   4.697   3.838 -0.0830 -0.0819 -0.2624
 4210SOL     OW16605   3.208   3.234   3.289 -0.1193  0.3277 -0.3846
 4210SOL    HW216606   3.190   3.312   3.237  1.4736  0.2171 -1.1710
 4210SOL    HW316607   3.136   3.230   3.352 -0.4441  2.2197 -0.5588
 4210SOL    MW416608   3.196   3.244   3.291  0.0480  0.5628 -0.5114
 4211SOL     OW16609   4.048   4.422   1.901 -0.1630 -0.4158 -0.0638
 4211SOL    HW216610   3.984   4.458   1.840 -0.2199 -0.0597  0.2043
 4211SOL    HW316611   4.008   4.341   1.932 -1.5187  0.8827  1.7972
 4211SOL    MW416612   4.035   4.416   1.897 -0.3494 -0.1975  0.2171
 4212SOL     OW16613   5.989   0.358   3.937  0.0625  0.1734 -0.2217
 4212SOL    HW216614   6.014   0.383   4.026 -0.8274 -0.9582  0.3851
 4212SOL    HW316615   6.030   0.272   3.924  0.9386  0.7334 -1.2635
 4212SOL    MW416616   5.997   0.350   3.947  0.0607  0.0980 -0.2791
 4213SOL     OW16617   2.992   4.949   5.410  0.0838 -0.2642  0.2373
 4213SOL    HW216618   2.914   4.981   5.366  0.5976  1.0485  0.2142
 4213SOL    HW316619   2.965   4.868   5.453 -1.3157  0.2410  0.3465
 4213SOL    MW416620   2.978   4.943   5.410 -0.0331 -0.0244  0.2486
 4214SOL     OW16621   2.047   3.529   3.566 -0.9311  0.0065  0.4953
 4214SOL    HW216622   2.079   3.518   3.656  0.0521  2.2399  0.4706
 4214SOL    HW316623   2.091   3.459   3.517  0.6735  0.4398  1.2590
 4214SOL    MW416624   2.057   3.518   3.571 -0.5897  0.3584  0.5928
 4215SOL     OW16625   1.978   1.040   1.684  0.2359  0.2192 -0.1952
 4215SOL    HW216626   1.949   0.964   1.634  2.1367 -0.7865  0.1323
 4215SOL    HW316627   1.922   1.040   1.762 -0.1596 -0.4988 -0.4654
 4215SOL    MW416628   1.967   1.030   1.687  0.4345 -0.0082 -0.1877
 4216SOL     OW16629   5.819   0.483   5.238  0.1978  0.0016  0.3994
 4216SOL    HW216630   5.743   0.538   5.257 -0.2623  0.4153 -2.2855
 4216SOL    HW316631   5.793   0.395   5.267 -1.5353  0.0472 -0.8512
 4216SOL    MW416632   5.806   0.478   5.244 -0.0916  0.0622 -0.1199
 4217SOL     OW16633   0.718   3.097   5.005  0.2239  0.5549  0.3281
 4217SOL    HW216634   0.705   3.160   5.075  1.4272  0.5841  0.5482
 4217SOL    HW316635   0.670   3.019   5.033  0.0448  0.8305  0.8001
 4217SOL    MW416636   0.710   3.095   5.018  0.3590  0.5951  0.4194
 4218SOL     OW16637  -0.019   2.025   6.349 -0.4221 -0.4217  0.4275
 4218SOL    HW216638  -0.091   1.965   6.333 -0.1338 -1.0534  1.4066
 4218SOL    HW316639  -0.043   2.070   6.431  0.9983 -1.8095  1.6796
 4218SOL    MW416640  -0.031   2.023   6.358 -0.1966 -0.6881  0.7219
 4219SOL     OW16641   2.885   3.197   4.466  0.7379 -0.4238  0.5648
 4219SOL    HW216642   2.851   3.282   4.438  1.4405 -1.0511 -2.5687
 4219SOL    HW316643   2.820   3.164   4.528 -1.3216  0.9258 -0.7660
 4219SOL    MW416644   2.872   3.204   4.470  0.5589 -0.3285 -0.0242
 4220SOL     OW16645   4.945   3.770   0.157  0.6744 -0.4834  0.3314
 4220SOL    HW216646   4.949   3.770   0.253  2.1168 -0.8411  0.2926
 4220SOL    HW316647   5.007   3.839   0.131  1.0310 -1.0521 -0.3496
 4220SOL    MW416648   4.954   3.779   0.167  0.9118 -0.6056  0.2365
 4221SOL     OW16649   3.048   1.845   5.306  0.0154 -0.3841  0.5878
 4221SOL    HW216650   3.133   1.889   5.305 -0.2256  0.0725 -0.0499
 4221SOL    HW316651   3.014   1.861   5.395  0.4689 -0.3337  0.7527
 4221SOL    MW416652   3.055   1.853   5.318  0.0434 -0.3172  0.5254
 4222SOL     OW16653   5.608   1.908   3.045  0.6099  0.0589  0.4669
 4222SOL    HW216654   5.652   1.854   3.110  1.4630 -2.1659 -1.8171
 4222SOL    HW316655   5.662   1.900   2.966 -1.8881  0.2496 -1.3853
 4222SOL    MW416656   5.621   1.900   3.043  0.3929 -0.2095 -0.0788
 4223SOL     OW16657   1.093   2.682   4.157 -0.6259 -0.0579 -0.2058
 4223SOL    HW216658   1.150   2.725   4.094  0.2991 -0.9365  0.0007
 4223SOL    HW316659   1.069   2.752   4.219 -1.5445  0.8097 -1.4774
 4223SOL    MW416660   1.097   2.697   4.157 -0.6251 -0.0594 -0.3463
 4224SOL     OW16661   1.282   2.850   0.985  0.3147  0.0056  0.0261
 4224SOL    HW216662   1.360   2.818   0.939  0.6121  0.2279  0.3754
 4224SOL    HW316663   1.315   2.909   1.051  0.0027 -1.4090  1.5165
 4224SOL    MW416664   1.296   2.853   0.987  0.3128 -0.1517  0.2688
 4225SOL     OW16665   2.128   1.206   6.066 -0.0663  0.0225  0.4263
 4225SOL    HW216666   2.105   1.122   6.106 -1.4133 -0.5736 -1.5056
 4225SOL    HW316667   2.044   1.246   6.044  0.6026  0.8984 -0.6158
 4225SOL    MW416668   2.114   1.200   6.069 -0.1558  0.0594  0.0340
 4226SOL     OW16669   5.022   5.330   2.525  0.0876  0.0910 -0.4677
 4226SOL    HW216670   5.075   5.367   2.455 -0.1346  2.8248  0.7186
 4226SOL    HW316671   5.080   5.328   2.601 -1.0968  2.1561  0.5750
 4226SOL    MW416672   5.037   5.334   2.526 -0.0980  0.7241 -0.1736
 4227SOL     OW16673   3.365   5.698   5.632  0.9452 -0.4735 -0.2679
 4227SOL    HW216674   3.434   5.679   5.569  0.0371 -1.4573 -1.0033
 4227SOL    HW316675   3.339   5.613   5.666  0.0544 -0.1237 -0.0476
 4227SOL    MW416676   3.371   5.684   5.628  0.7078 -0.5571 -0.3358
 4228SOL     OW16677   5.313   6.099   6.321 -0.4420 -0.4753  0.2921
 4228SOL    HW216678   5.223   6.118   6.296 -0.9118  0.2531  2.3638
 4228SOL    HW316679   5.322   6.135   6.409  1.9778 -0.2455  0.0291
 4228SOL    MW416680   5.303   6.106   6.329 -0.1847 -0.3489  0.5308
 4229SOL     OW16681   1.776   1.316   5.815 -0.6342 -0.4419  0.5683
 4229SOL    HW216682   1.742   1.244   5.868  2.2970 -2.7221 -0.3632
 4229SOL    HW316683   1.706   1.337   5.754 -2.0979 -1.4500  1.8110
 4229SOL    MW416684   1.762   1.309   5.814 -0.4406 -0.8758  0.6094
 4230SOL     OW16685   3.055   0.705   0.180 -0.5386  0.1437 -0.4382
 4230SOL    HW216686   3.025   0.624   0.140 -0.5705  0.2971 -0.7251
 4230SOL    HW316687   3.136   0.728   0.133 -0.5074  0.2565 -0.3327
 4230SOL    MW416688   3.062   0.698   0.169 -0.5387  0.1788 -0.4622
 4231SOL     OW16689   3.485   2.274   6.357  0.5934  0.4129  0.4541
 4231SOL    HW216690   3.459   2.183   6.375  1.5072 -0.0369 -0.3692
 4231SOL    HW316691   3.404   2.324   6.361 -0.2853 -0.7895 -1.1435
 4231SOL    MW416692   3.471   2.268   6.360  0.5981  0.1949  0.1347
 4232SOL     OW16693   3.522   1.355   5.846 -0.4007  0.3145  0.0437
 4232SOL    HW216694   3.537   1.332   5.754 -0.5968 -0.2160  0.1412
 4232SOL    HW316695   3.539   1.449   5.850 -0.3727  0.3394 -0.5329
 4232SOL    MW416696   3.526   1.364   5.835 -0.4229  0.2478 -0.0195
 4233SOL     OW16697   0.356   1.700   5.812 -0.2240 -0.5082 -0.3038
 4233SOL    HW216698   0.335   1.617   5.769  0.3370 -1.6059  1.4132
 4233SOL    HW316699   0.426   1.678   5.873  1.9824  1.8531 -1.7994
 4233SOL    MW416700   0.362   1.686   5.814  0.1411 -0.3415 -0.2746
 4234SOL     OW16701   0.868   4.730   4.375 -0.5717  0.0220  0.0886
 4234SOL    HW216702   0.815   4.744   4.296 -0.6652 -0.4005  0.0741
 4234SOL    HW316703   0.848   4.805   4.431  0.4026  0.9670 -0.7794
 4234SOL    MW416704   0.859   4.742   4.372 -0.4555  0.0910 -0.0278
 4235SOL     OW16705   2.589   0.873   1.660  0.2673 -0.1487  0.2071
 4235SOL    HW216706   2.602   0.785   1.696  1.2214  0.3735  1.2380
 4235SOL    HW316707   2.676   0.899   1.629  0.9443  1.7665  3.2096
 4235SOL    MW416708   2.602   0.865   1.661  0.4825  0.1729  0.7393
 4236SOL     OW16709   5.405   5.240   5.442  0.1259  0.4261 -0.2901
 4236SOL    HW216710   5.386   5.300   5.370  0.4970 -0.1983 -0.9258
 4236SOL    HW316711   5.500   5.243   5.451  0.1097  0.2390 -0.0566
 4236SOL    MW416712   5.415   5.248   5.434  0.1727  0.3190 -0.3432
 4237SOL     OW16713   3.166   5.935   3.925  0.3410  0.3170  0.3103
 4237SOL    HW216714   3.172   5.925   4.020 -0.8418  1.0498  0.4907
 4237SOL    HW316715   3.201   6.022   3.908 -0.9007  0.8285  0.2817
 4237SOL    MW416716   3.171   5.945   3.936  0.0211  0.4811  0.3304
 4238SOL     OW16717   0.653   4.009   5.965 -0.3772 -0.1597 -0.0250
 4238SOL    HW216718   0.709   4.049   6.032 -1.0161  0.6468  0.0318
 4238SOL    HW316719   0.693   4.034   5.882  0.5027 -1.2844  0.0393
 4238SOL    MW416720   0.666   4.017   5.963 -0.3454 -0.2017 -0.0090
 4239SOL     OW16721   0.919   5.917   2.335  0.4081 -0.2136  0.3189
 4239SOL    HW216722   0.828   5.937   2.354  0.2497 -0.3276 -0.3150
 4239SOL    HW316723   0.918   5.875   2.249  1.0502 -0.2728  0.3308
 4239SOL    MW416724   0.907   5.914   2.326  0.4719 -0.2364  0.2368
 4240SOL     OW16725   2.651   3.491   5.917 -0.8036 -0.3734 -0.4083
 4240SOL    HW216726   2.562   3.470   5.947 -0.6334  0.6535  0.9257
 4240SOL    HW316727   2.708   3.451   5.982 -0.4262  1.9992  0.8170
 4240SOL    MW416728   2.647   3.483   5.929 -0.7313  0.0751 -0.0707
 4241SOL     OW16729   5.108   0.696   2.495  0.0882 -1.1531 -0.2807
 4241SOL    HW216730   5.029   0.661   2.537  0.8474  0.4187  2.6686
 4241SOL    HW316731   5.087   0.787   2.476  0.4280 -1.3464 -1.6839
 4241SOL    MW416732   5.095   0.703   2.498  0.2332 -0.9712 -0.0767
 4242SOL     OW16733   2.187   4.849   2.405  0.1980 -0.4715  0.1199
 4242SOL    HW216734   2.125   4.887   2.343  2.4821  1.5103 -1.1234
 4242SOL    HW316735   2.222   4.773   2.359  0.9372  0.2372 -0.5166
 4242SOL    MW416736   2.183   4.844   2.390  0.5969 -0.1165 -0.1281
 4243SOL     OW16737   5.742   6.385   1.766 -0.1260  0.0423 -0.2338
 4243SOL    HW216738   5.822   6.343   1.798  0.4382  0.6432 -0.8241
 4243SOL    HW316739   5.708   6.323   1.701  0.3190  0.1669 -0.5918
 4243SOL    MW416740   5.748   6.371   1.761  0.0072  0.1380 -0.3589
 4244SOL     OW16741   1.007   4.440   4.710 -0.4184  0.3363  0.2690
 4244SOL    HW216742   1.081   4.382   4.692  0.7564  1.6604  0.6484
 4244SOL    HW316743   0.930   4.387   4.690  0.5923 -1.3857  0.7326
 4244SOL    MW416744   1.007   4.425   4.705 -0.1300  0.2838  0.3802
 4245SOL     OW16745   0.234   2.765   2.112 -0.7528  0.1812 -0.3608
 4245SOL    HW216746   0.286   2.686   2.098 -2.0760 -0.4610 -2.2338
 4245SOL    HW316747   0.210   2.763   2.204 -0.5326 -1.4891 -0.3143
 4245SOL    MW416748   0.237   2.754   2.122 -0.8984 -0.1239 -0.6018
 4246SOL     OW16749   3.713   0.196   1.975 -0.1398  0.1997  0.3855
 4246SOL    HW216750   3.755   0.194   1.888 -0.4705 -0.9662  0.2422
 4246SOL    HW316751   3.752   0.122   2.022  1.1078  1.6698  1.7640
 4246SOL    MW416752   3.724   0.186   1.970 -0.0188  0.2398  0.5485
 4247SOL     OW16753   4.562   3.688   2.631  0.2890 -0.0266 -0.0140
 4247SOL    HW216754   4.508   3.636   2.690  1.2186  1.3095  2.1618
 4247SOL    HW316755   4.502   3.719   2.564 -0.9537 -1.0913  0.5603
 4247SOL    MW416756   4.547   3.685   2.630  0.2477  0.0092  0.3488
 4248SOL     OW16757   4.877   4.020   6.325 -0.7226 -0.4206 -0.2906
 4248SOL    HW216758   4.807   4.085   6.324 -1.7834 -1.5118 -1.5456
 4248SOL    HW316759   4.934   4.046   6.398 -1.0898  1.8756 -0.7518
 4248SOL    MW416760   4.875   4.032   6.334 -0.9110 -0.2616 -0.5171
 4249SOL     OW16761   0.335   4.113   2.369 -0.2416  0.4928 -0.1007
 4249SOL    HW216762   0.342   4.070   2.284  1.8088  0.6347 -0.0477
 4249SOL    HW316763   0.303   4.044   2.428  0.9397 -0.4057 -0.4603
 4249SOL    MW416764   0.332   4.098   2.366  0.1847  0.3930 -0.1411
 4250SOL     OW16765   0.264   2.541   0.039 -1.1842 -0.0926 -0.0784
 4250SOL    HW216766   0.294   2.450   0.032 -1.4100 -0.1593 -0.2040
 4250SOL    HW316767   0.295   2.583  -0.041  3.5884  1.3596  2.2059
 4250SOL    MW416768   0.272   2.534   0.028 -0.5843  0.0902  0.2064
 4251SOL     OW16769   4.556   1.381   0.238  0.4062  0.1090 -0.3751
 4251SOL    HW216770   4.543   1.473   0.216  2.0619  0.6588  0.7853
 4251SOL    HW316771   4.493   1.334   0.183 -0.0147  1.8686 -1.4645
 4251SOL    MW416772   4.546   1.387   0.228  0.5691  0.4137 -0.3658
 4252SOL     OW16773   1.098   3.647   2.700  0.0607  0.0196 -0.2803
 4252SOL    HW216774   1.043   3.648   2.778  0.0319  0.5478 -0.3037
 4252SOL    HW316775   1.086   3.734   2.661  1.1708  0.2608 -0.1018
 4252SOL    MW416776   1.089   3.658   2.705  0.2034  0.1211 -0.2599
 4253SOL     OW16777   6.124   0.146   0.702  0.1928  0.4673 -0.2497
 4253SOL    HW216778   6.067   0.070   0.713  0.2026  0.2164 -1.8023
 4253SOL    HW316779   6.166   0.156   0.788 -1.9892  0.5379  0.8809
 4253SOL    MW416780   6.122   0.137   0.715 -0.0938  0.4435 -0.3054
 4254SOL     OW16781   4.993   5.054   2.503  0.7745 -0.2428 -0.4028
 4254SOL    HW216782   4.998   5.150   2.501  0.9741 -0.0750  2.6538
 4254SOL    HW316783   4.901   5.035   2.482  0.8861  0.5532 -1.6864
 4254SOL    MW416784   4.981   5.064   2.500  0.8156 -0.1156 -0.1688
 4255SOL     OW16785   4.553   4.500   4.502 -0.6204  0.3352 -0.0398
 4255SOL    HW216786   4.594   4.512   4.587 -0.9048  0.0725  0.1386
 4255SOL    HW316787   4.461   4.482   4.522 -0.4505 -0.9972 -0.3251
 4255SOL    MW416788   4.546   4.499   4.516 -0.6355  0.1247 -0.0539
 4256SOL     OW16789   0.775   3.010   3.321  0.2056  0.0590  0.5062
 4256SOL    HW216790   0.809   2.927   3.287  0.9500  0.2301  0.8176
 4256SOL    HW316791   0.770   3.067   3.244  0.8512  0.1031  0.4921
 4256SOL    MW416792   0.778   3.007   3.307  0.3890  0.0874  0.5454
 4257SOL     OW16793   1.753   3.403   3.132 -0.5958  0.2042 -0.0212
 4257SOL    HW216794   1.773   3.473   3.193 -0.6758 -0.6996  1.0711
 4257SOL    HW316795   1.804   3.424   3.053 -2.7548  2.9986 -0.8435
 4257SOL    MW416796   1.762   3.415   3.129 -0.8912  0.4537  0.0144
 4258SOL     OW16797   1.108   2.930   0.784  0.3464 -0.1155 -0.2755
 4258SOL    HW216798   1.172   2.884   0.839 -0.6625 -1.8642 -0.4660
 4258SOL    HW316799   1.084   3.008   0.834  0.7443 -0.7602  0.9614
 4258SOL    MW416800   1.113   2.934   0.798  0.2658 -0.4313 -0.1375
 4259SOL     OW16801   3.663   2.500   1.695  0.1694  0.6616 -0.0182
 4259SOL    HW216802   3.604   2.520   1.623  0.3361  0.6722 -0.1522
 4259SOL    HW316803   3.623   2.543   1.771  1.2931  2.8382 -0.5711
 4259SOL    MW416804   3.650   2.508   1.696  0.3396  0.9502 -0.1088
 4260SOL     OW16805   1.424   2.243   0.199 -0.0690  0.6041 -0.2629
 4260SOL    HW216806   1.488   2.288   0.143  0.8813 -0.0540  0.2558
 4260SOL    HW316807   1.351   2.304   0.206  1.2448  2.1481  0.5720
 4260SOL    MW416808   1.423   2.257   0.192  0.2297  0.7210 -0.0843
 4261SOL     OW16809   6.066   0.697   5.816 -0.1769  0.4817  0.3548
 4261SOL    HW216810   6.033   0.765   5.874  0.8599  2.1984 -0.9362
 4261SOL    HW316811   6.002   0.694   5.744 -1.5477 -1.7472  1.5352
 4261SOL    MW416812   6.053   0.706   5.814 -0.2210  0.4142  0.3402
 4262SOL     OW16813   1.407   5.904   1.800  0.4358 -0.9887  0.4212
 4262SOL    HW216814   1.444   5.856   1.726 -0.3274 -1.9029  0.6155
 4262SOL    HW316815   1.314   5.910   1.780  0.8163  2.9494 -1.0000
 4262SOL    MW416816   1.400   5.898   1.787  0.3853 -0.5897  0.2593
 4263SOL     OW16817   5.629   6.211   1.531  0.0672  0.6947  0.1993
 4263SOL    HW216818   5.558   6.149   1.513  0.8364 -0.0549 -0.2982
 4263SOL    HW316819   5.596   6.294   1.496 -1.5738  0.9416  2.1544
 4263SOL    MW416820   5.615   6.214   1.524 -0.0479  0.6284  0.3916
 4264SOL     OW16821   0.626   2.807   4.885  0.3564  0.5143 -0.9028
 4264SOL    HW216822   0.556   2.868   4.908  1.2322  0.9890  0.6281
 4264SOL    HW316823   0.581   2.725   4.867 -0.5760  0.6809  0.5418
 4264SOL    MW416824   0.611   2.804   4.886  0.3489  0.5989 -0.5102
 4265SOL     OW16825   0.036   2.945   0.648 -0.2957 -0.0500  0.1930
 4265SOL    HW216826   0.049   3.013   0.582 -0.7798 -0.0682  0.0808
 4265SOL    HW316827  -0.006   2.873   0.601  1.7004 -1.1165 -0.0948
 4265SOL    MW416828   0.032   2.945   0.633 -0.0962 -0.1931  0.1402
 4266SOL     OW16829   6.020   2.494   4.269  0.4425  0.3160 -0.0052
 4266SOL    HW216830   5.940   2.546   4.281  0.6777  0.1960  2.7572
 4266SOL    HW316831   6.037   2.457   4.356  0.6473 -3.8919 -1.6368
 4266SOL    MW416832   6.012   2.496   4.282  0.5005 -0.2550  0.1440
 4267SOL     OW16833   2.057   0.807   4.814  1.0709 -0.0124  0.4120
 4267SOL    HW216834   2.052   0.738   4.880  0.3592 -1.5796 -1.2147
 4267SOL    HW316835   1.973   0.804   4.769  1.2553  1.5345 -0.1038
 4267SOL    MW416836   2.046   0.797   4.817  1.0013 -0.0151  0.1293
 4268SOL     OW16837   1.649   4.377   0.112  1.0854  0.1815  0.1430
 4268SOL    HW216838   1.605   4.312   0.167  1.8127 -0.5445 -0.1003
 4268SOL    HW316839   1.703   4.428   0.172  0.4711  0.6122  0.3429
 4268SOL    MW416840   1.650   4.375   0.127  1.1003  0.1425  0.1373
 4269SOL     OW16841   3.665   1.348   4.785  0.4275 -0.4852  0.1758
 4269SOL    HW216842   3.597   1.390   4.838 -0.4205 -1.4188 -0.1343
 4269SOL    HW316843   3.618   1.313   4.709  1.0405 -2.1599  0.5255
 4269SOL    MW416844   3.650   1.349   4.782  0.3965 -0.8294  0.1810
 4270SOL     OW16845   2.943   4.906   4.194 -0.2472 -0.0764  0.1500
 4270SOL    HW216846   2.906   4.975   4.139  0.3333  0.8629  0.9099
 4270SOL    HW316847   3.016   4.871   4.142 -1.0057 -0.6650 -0.5570
 4270SOL    MW416848   2.948   4.910   4.180 -0.2707 -0.0301  0.1570
 4271SOL     OW16849   2.778   5.976   0.584  0.2620 -0.3931 -0.8417
 4271SOL    HW216850   2.710   5.968   0.517  1.0785  0.6350 -1.8148
 4271SOL    HW316851   2.806   6.067   0.580  0.1691 -0.2477  1.0740
 4271SOL    MW416852   2.773   5.987   0.575  0.3575 -0.2382 -0.7174
 4272SOL     OW16853   0.212   1.452   5.156  0.4578 -0.2769 -0.1876
 4272SOL    HW216854   0.245   1.407   5.234  0.5333 -0.6593 -0.4369
 4272SOL    HW316855   0.139   1.505   5.188  1.6041  0.9632  0.4647
 4272SOL    MW416856   0.207   1.453   5.171  0.6190 -0.1638 -0.1345
 4273SOL     OW16857   2.022   2.488   1.718  0.6496 -0.7825  0.3774
 4273SOL    HW216858   2.065   2.573   1.707  0.2030 -0.6869 -0.7014
 4273SOL    HW316859   2.083   2.438   1.772  0.8589  0.2599  1.1552
 4273SOL    MW416860   2.036   2.493   1.724  0.6183 -0.6323  0.3377
 4274SOL     OW16861   3.155   3.145   2.113 -0.2309 -0.1870  0.2568
 4274SOL    HW216862   3.240   3.180   2.086 -0.3165 -0.6733 -0.6779
 4274SOL    HW316863   3.119   3.106   2.034 -1.4100  0.1615  0.6032
 4274SOL    MW416864   3.161   3.145   2.099 -0.3978 -0.2052  0.1792
 4275SOL     OW16865   4.917   5.030   2.037 -0.0343 -0.1721  0.0009
 4275SOL    HW216866   4.928   4.937   2.055  2.1229 -0.8073 -3.6185
 4275SOL    HW316867   4.861   5.033   1.959  1.6092  1.3426 -1.2160
 4275SOL    MW416868   4.911   5.018   2.029  0.4671 -0.0560 -0.6372
 4276SOL     OW16869   6.220   4.913   1.708 -0.1044 -0.5670 -0.5187
 4276SOL    HW216870   6.197   4.839   1.651  0.0861 -0.1577 -1.1317
 4276SOL    HW316871   6.135   4.946   1.738 -0.1938 -3.3871  2.8962
 4276SOL    MW416872   6.206   4.908   1.704 -0.0911 -0.8851 -0.1491
 4277SOL     OW16873   2.804   0.629   5.055 -0.2585 -0.0246  0.1920
 4277SOL    HW216874   2.712   0.652   5.072 -0.3896 -0.2715 -0.1691
 4277SOL    HW316875   2.841   0.708   5.015 -0.4767 -0.1377 -0.2348
 4277SOL    MW416876   2.796   0.643   5.052 -0.3046 -0.0721  0.0881
 4278SOL     OW16877   1.640   3.846   5.789  0.1356 -0.3842  0.7972
 4278SOL    HW216878   1.678   3.767   5.825  2.0685 -0.1654 -0.6259
 4278SOL    HW316879   1.610   3.821   5.701  0.8012  0.4481  0.3204
 4278SOL    MW416880   1.641   3.833   5.782  0.4785 -0.2455  0.5465
 4279SOL     OW16881   5.870   5.781   2.639 -0.0602 -0.5268 -0.2325
 4279SOL    HW216882   5.960   5.758   2.620  0.6524  1.9284 -0.2301
 4279SOL    HW316883   5.872   5.876   2.652 -2.5216 -0.5022  0.4831
 4279SOL    MW416884   5.882   5.791   2.638 -0.2909 -0.1996 -0.1377
 4280SOL     OW16885   4.643   2.400   1.615 -0.2187 -0.1328 -0.0625
 4280SOL    HW216886   4.728   2.358   1.622 -0.2008 -0.0553  0.1655
 4280SOL    HW316887   4.658   2.490   1.643 -0.4949 -0.2650  0.5190
 4280SOL    MW416888   4.656   2.406   1.619 -0.2528 -0.1400  0.0443
 4281SOL     OW16889   5.737   2.177   0.820  0.4708  0.5973  0.3144
 4281SOL    HW216890   5.644   2.155   0.811  0.9405 -2.1596  1.3064
 4281SOL    HW316891   5.764   2.203   0.732 -0.8180 -0.4335 -0.4202
 4281SOL    MW416892   5.728   2.177   0.807  0.3627  0.0976  0.3483
 4282SOL     OW16893   4.167   1.837   1.451 -0.1417 -0.1061  0.2476
 4282SOL    HW216894   4.168   1.768   1.384  1.8806  0.4984 -0.4253
 4282SOL    HW316895   4.109   1.904   1.415 -0.1398 -0.3754 -0.2742
 4282SOL    MW416896   4.160   1.837   1.438  0.1253 -0.0619  0.0900
 4283SOL     OW16897   0.262   2.163   5.656 -0.5812  0.8339 -0.8013
 4283SOL    HW216898   0.213   2.191   5.579  0.0472  0.4899 -1.3405
 4283SOL    HW316899   0.301   2.079   5.630  0.8772  1.4478 -0.6492
 4283SOL    MW416900   0.261   2.155   5.642 -0.3059  0.8695 -0.8524
 4284SOL     OW16901   4.138   4.659   3.771  0.2284 -0.0591 -0.3177
 4284SOL    HW216902   4.231   4.669   3.752  0.6822 -0.1013  1.6560
 4284SOL    HW316903   4.110   4.586   3.715  1.2366  0.2860 -1.3164
 4284SOL    MW416904   4.147   4.650   3.761  0.4213 -0.0192 -0.1891
 4285SOL     OW16905   3.914   1.804   4.113  0.0463  0.1858  0.1485
 4285SOL    HW216906   3.947   1.862   4.182  0.5802  1.1370 -0.8845
 4285SOL    HW316907   3.863   1.860   4.056  0.1259 -0.4652 -0.5823
 4285SOL    MW416908   3.912   1.819   4.115  0.1272  0.2254 -0.0842
 4286SOL     OW16909   4.558   5.502   1.711 -0.1560 -0.1925 -0.1024
 4286SOL    HW216910   4.510   5.441   1.655  0.0431 -0.1253 -0.3455
 4286SOL    HW316911   4.576   5.452   1.791 -2.4902  0.4031  0.9142
 4286SOL    MW416912   4.554   5.487   1.714 -0.4377 -0.1051 -0.0004
 4287SOL     OW16913   2.084   5.809   2.557  0.2361 -0.1624 -0.3709
 4287SOL    HW216914   2.036   5.811   2.475  1.4667  0.2312 -1.0994
 4287SOL    HW316915   2.130   5.893   2.561  0.6352 -0.3995  0.4474
 4287SOL    MW416916   2.084   5.820   2.547  0.4511 -0.1418 -0.3590
 4288SOL     OW16917   6.291   2.596   5.685 -0.2620 -0.1065 -0.3098
 4288SOL    HW216918   6.294   2.594   5.589 -1.8815 -0.9983 -0.3924
 4288SOL    HW316919   6.307   2.687   5.708 -0.3946  0.2241 -1.4578
 4288SOL    MW416920   6.293   2.607   5.675 -0.4932 -0.1805 -0.4722
 4289SOL     OW16921   3.516   4.995   6.095  0.0079 -0.1728 -0.0325
 4289SOL    HW216922   3.510   5.080   6.053  2.5878  1.0594  1.8443
 4289SOL    HW316923   3.601   4.960   6.068  0.1845 -0.9011  1.3597
 4289SOL    MW416924   3.526   5.001   6.086  0.3716 -0.1063  0.3988
 4290SOL     OW16925   1.403   3.674   2.753 -0.3593 -0.1794  0.1212
 4290SOL    HW216926   1.311   3.647   2.753 -0.3085 -0.4069 -1.4408
 4290SOL    HW316927   1.451   3.593   2.769 -0.3696 -0.4032 -0.9022
 4290SOL    MW416928   1.397   3.660   2.755 -0.3540 -0.2390 -0.2199
 4291SOL     OW16929   1.142   0.718   2.375 -0.0804 -0.0369  0.0088
 4291SOL    HW216930   1.218   0.665   2.351 -0.3975 -1.3498  1.7340
 4291SOL    HW316931   1.167   0.808   2.352  2.2669 -0.3373  1.1283
 4291SOL    MW416932   1.155   0.723   2.369  0.1875 -0.2498  0.3841
 4292SOL     OW16933   1.893   3.322   5.651 -0.4505 -0.5609 -0.6857
 4292SOL    HW216934   1.899   3.278   5.566  0.1040 -0.4221 -0.7224
 4292SOL    HW316935   1.846   3.260   5.707 -2.2944  0.0257 -1.5299
 4292SOL    MW416936   1.888   3.308   5.647 -0.6206 -0.4652 -0.8019
 4293SOL     OW16937   0.535   6.234   3.426  0.6450 -0.2979  0.1374
 4293SOL    HW216938   0.563   6.324   3.443  1.4325 -0.4182 -0.4322
 4293SOL    HW316939   0.616   6.187   3.407  0.1224 -0.8454 -0.8143
 4293SOL    MW416940   0.549   6.240   3.426  0.6799 -0.3860 -0.0633
 4294SOL     OW16941   3.305   0.993   5.618 -0.2561  0.1215  0.2001
 4294SOL    HW216942   3.290   1.016   5.710 -1.5793 -0.1475  0.0706
 4294SOL    HW316943   3.218   0.972   5.584  0.1950  0.3470 -1.1582
 4294SOL    MW416944   3.292   0.994   5.626 -0.3712  0.1158  0.0038
 4295SOL     OW16945   2.036   2.820   0.169 -0.1500  0.2588  0.1879
 4295SOL    HW216946   1.970   2.769   0.216  1.9555 -3.9301 -0.9140
 4295SOL    HW316947   2.111   2.823   0.229  0.8988 -0.9824 -0.9948
 4295SOL    MW416948   2.037   2.814   0.183  0.2662 -0.4576 -0.1135
 4296SOL     OW16949   3.560   2.003   0.801 -0.0494  0.3485  0.2271
 4296SOL    HW216950   3.634   1.993   0.861  3.2014  2.4580 -2.9926
 4296SOL    HW316951   3.564   1.925   0.745 -2.0032 -0.7790  1.5390
 4296SOL    MW416952   3.570   1.991   0.802  0.1217  0.4781 -0.0246
 4297SOL     OW16953   2.493   3.334   2.348 -0.0205  0.1210  0.1414
 4297SOL    HW216954   2.476   3.373   2.434  1.9299  0.6637  0.3280
 4297SOL    HW316955   2.445   3.251   2.350 -0.9306  0.6469  1.2986
 4297SOL    MW416956   2.484   3.328   2.360  0.1168  0.2620  0.3187
 4298SOL     OW16957   5.161   1.475   5.279 -0.5094  0.3974  0.1169
 4298SOL    HW216958   5.124   1.396   5.319 -3.5893  1.4809 -0.3141
 4298SOL    HW316959   5.161   1.456   5.185 -3.0169  1.4592 -0.1694
 4298SOL    MW416960   5.156   1.462   5.271 -1.2466  0.6804  0.0222
 4299SOL     OW16961   1.679   1.298   0.744 -0.1331  0.8662 -0.2930
 4299SOL    HW216962   1.659   1.206   0.731  2.9850 -0.4877  2.8461
 4299SOL    HW316963   1.710   1.328   0.659  2.8416 -2.3077 -0.5471
 4299SOL    MW416964   1.680   1.290   0.731  0.6708  0.2688  0.0877
 4300SOL     OW16965   1.031   2.631   2.142 -0.2368 -0.5308 -0.1820
 4300SOL    HW216966   1.082   2.666   2.069 -1.2024  0.8953 -0.2265
 4300SOL    HW316967   1.079   2.658   2.220  0.4491 -1.4883 -0.2580
 4300SOL    MW416968   1.044   2.639   2.143 -0.2737 -0.4689 -0.1979
 4301SOL     OW16969   1.841   0.197   3.786  0.2709  0.0901 -0.1439
 4301SOL    HW216970   1.794   0.153   3.856  0.8194  1.1836  0.9472
 4301SOL    HW316971   1.781   0.265   3.755  0.3598  0.1807 -0.1206
 4301SOL    MW416972   1.827   0.200   3.791  0.3550  0.2463  0.0031
 4302SOL     OW16973   4.004   4.338   4.382 -0.0977  0.9331 -0.0863
 4302SOL    HW216974   3.952   4.418   4.387 -1.5795  0.0246 -0.3688
 4302SOL    HW316975   4.047   4.342   4.296 -0.9854  0.9664 -0.5414
 4302SOL    MW416976   4.003   4.349   4.371 -0.4103  0.8176 -0.1836
 4303SOL     OW16977   4.815   5.581   3.638 -0.2340  0.3098 -0.4502
 4303SOL    HW216978   4.880   5.651   3.638  0.4702 -0.3284  0.4493
 4303SOL    HW316979   4.865   5.501   3.623 -0.6092 -0.3435  1.4727
 4303SOL    MW416980   4.830   5.580   3.636 -0.1906  0.1394 -0.0778
 4304SOL     OW16981   4.948   1.433   2.440  0.2220  0.4221  0.4473
 4304SOL    HW216982   4.876   1.382   2.403 -0.0281  0.6493  0.6221
 4304SOL    HW316983   4.988   1.374   2.504  1.8744 -0.7201 -1.4870
 4304SOL    MW416984   4.944   1.418   2.444  0.4071  0.3014  0.2152
 4305SOL     OW16985   0.180   2.945   5.805  0.2115  0.1622  0.0387
 4305SOL    HW216986   0.207   2.914   5.892 -0.8249 -1.7184 -0.2550
 4305SOL    HW316987   0.165   3.039   5.817  0.7404  0.0705  1.7309
 4305SOL    MW416988   0.181   2.953   5.818  0.1446 -0.0980  0.2232
 4306SOL     OW16989   1.196   0.448   0.754 -0.5709 -0.5842  1.0986
 4306SOL    HW216990   1.124   0.473   0.695  0.3394 -0.1219  0.1525
 4306SOL    HW316991   1.165   0.473   0.841 -1.3874  0.0121  0.6526
 4306SOL    MW416992   1.182   0.455   0.758 -0.5585 -0.4446  0.9149
 4307SOL     OW16993   1.700   1.444   5.196 -0.2541  0.3554  1.2451
 4307SOL    HW216994   1.747   1.495   5.131 -0.4127  0.8248  1.4936
 4307SOL    HW316995   1.615   1.488   5.204 -0.7345 -0.4683  0.8134
 4307SOL    MW416996   1.695   1.456   5.188 -0.3384  0.3087  1.2209
 4308SOL     OW16997   4.709   1.943   4.678 -0.0217 -0.2045  0.2785
 4308SOL    HW216998   4.687   2.036   4.687 -0.0492 -0.1588 -0.2821
 4308SOL    HW316999   4.627   1.898   4.700 -0.4546 -0.0540 -0.9565
 4308SOL    MW417000   4.695   1.950   4.682 -0.0824 -0.1786  0.0416
 4309SOL     OW17001   1.762   5.749   4.411  0.0446 -0.4120  0.2226
 4309SOL    HW217002   1.746   5.796   4.493  0.4487  2.3405 -1.1444
 4309SOL    HW317003   1.839   5.696   4.428  0.9114  1.1180  1.2832
 4309SOL    MW417004   1.770   5.748   4.424  0.2123  0.1530  0.1822
 4310SOL     OW17005   2.844   0.635   3.708 -0.1661 -0.2018  0.3158
 4310SOL    HW217006   2.893   0.683   3.775  1.7103 -1.2739 -0.2060
 4310SOL    HW317007   2.834   0.697   3.636  0.0381  0.1706  0.6078
 4310SOL    MW417008   2.849   0.649   3.707  0.1084 -0.2941  0.2855
 4311SOL     OW17009  -0.005   3.977   2.091 -0.5426 -0.0051 -0.6192
 4311SOL    HW217010  -0.092   3.952   2.121  0.4934 -2.0879  0.9250
 4311SOL    HW317011   0.024   4.045   2.153 -0.7725  0.1195 -0.6501
 4311SOL    MW417012  -0.012   3.982   2.103 -0.4363 -0.2635 -0.4195
 4312SOL     OW17013   4.746   1.030   3.551  0.4759  0.0732 -0.0987
 4312SOL    HW217014   4.657   1.062   3.571 -0.3066 -2.0546  0.0304
 4312SOL    HW317015   4.744   0.938   3.575  2.0400 -0.5933 -2.2559
 4312SOL    MW417016   4.734   1.022   3.557  0.5790 -0.2955 -0.3663
 4313SOL     OW17017   6.268   4.702   4.140  0.2155  0.8114  0.1021
 4313SOL    HW217018   6.307   4.627   4.185 -1.8361 -0.8112 -0.6866
 4313SOL    HW317019   6.256   4.768   4.209  0.1432 -0.3553  1.2383
 4313SOL    MW417020   6.272   4.701   4.155 -0.0647  0.4434  0.1480
 4314SOL     OW17021   2.162   5.210   6.246  0.5697 -0.3826  0.1769
 4314SOL    HW217022   2.147   5.299   6.216 -1.5128 -0.7467  0.0073
 4314SOL    HW317023   2.152   5.156   6.168 -0.3207 -0.9415  0.6597
 4314SOL    MW417024   2.159   5.215   6.232  0.1775 -0.5044  0.2182
 4315SOL     OW17025   3.142   1.813   4.487 -0.2052 -0.1162  0.0715
 4315SOL    HW217026   3.126   1.866   4.565 -1.7803 -0.0925 -0.2358
 4315SOL    HW317027   3.065   1.757   4.479  1.1101 -2.0365  0.0037
 4315SOL    MW417028   3.130   1.813   4.496 -0.2395 -0.3664  0.0220
 4316SOL     OW17029   4.522   0.481   5.186 -0.3365 -0.0118 -0.1672
 4316SOL    HW217030   4.604   0.461   5.231 -0.2301 -0.0923 -0.3958
 4316SOL    HW317031   4.455   0.435   5.236 -0.3813  0.9066  0.6555
 4316SOL    MW417032   4.524   0.473   5.199 -0.3284  0.0988 -0.0888
 4317SOL     OW17033   1.255   5.852   3.435  0.2324  0.1520  0.3597
 4317SOL    HW217034   1.317   5.817   3.499  2.4419 -0.7761 -2.1016
 4317SOL    HW317035   1.273   5.946   3.434  0.2495  0.1611  1.0127
 4317SOL    MW417036   1.266   5.860   3.444  0.5262  0.0308  0.1211
 4318SOL     OW17037   3.920   0.733   2.165  0.6890 -0.1414  0.7231
 4318SOL    HW217038   3.878   0.648   2.182  1.6155 -0.7356  0.0881
 4318SOL    HW317039   3.947   0.764   2.251 -0.6562  0.0628  1.1011
 4318SOL    MW417040   3.918   0.726   2.179  0.6338 -0.1928  0.6892
 4319SOL     OW17041   5.961   4.455   3.892  0.2629 -0.0407 -0.2515
 4319SOL    HW217042   5.969   4.545   3.923 -0.6528 -0.4434  1.2333
 4319SOL    HW317043   6.004   4.402   3.959  0.5192 -0.7477 -0.9582
 4319SOL    MW417044   5.968   4.460   3.905  0.1759 -0.1871 -0.1488
 4320SOL     OW17045   3.810   2.505   5.420 -0.0562  0.9093 -0.0642
 4320SOL    HW217046   3.801   2.584   5.368  0.6624  1.4474  0.6093
 4320SOL    HW317047   3.847   2.441   5.359 -2.1676  0.5539 -1.0734
 4320SOL    MW417048   3.814   2.507   5.405 -0.2400  0.9334 -0.1085
 4321SOL     OW17049   1.963   5.082   5.353  0.4431  0.1567  0.0776
 4321SOL    HW217050   1.869   5.099   5.352  0.2980 -0.3709  1.5143
 4321SOL    HW317051   1.977   5.017   5.285 -0.0343  1.0973 -0.9437
 4321SOL    MW417052   1.953   5.076   5.344  0.3610  0.2112  0.1324
 4322SOL     OW17053   2.285   1.335   5.411 -0.0519 -0.1422 -1.0696
 4322SOL    HW217054   2.332   1.251   5.412 -0.2179 -0.2390 -1.3334
 4322SOL    HW317055   2.222   1.328   5.482  0.7634  0.2374 -0.2897
 4322SOL    MW417056   2.283   1.323   5.420  0.0338 -0.1049 -1.0015
 4323SOL     OW17057   5.754   5.389   5.138 -0.4291  0.2286 -0.0138
 4323SOL    HW217058   5.690   5.319   5.145 -1.0083  0.4211 -2.6052
 4323SOL    HW317059   5.753   5.414   5.046  4.5302 -0.8160 -0.6055
 4323SOL    MW417060   5.746   5.383   5.127  0.1488  0.1162 -0.4338
 4324SOL     OW17061   0.526   4.579   5.681  0.2577 -0.1259 -0.8244
 4324SOL    HW217062   0.442   4.624   5.692 -0.2075 -0.9277 -0.9671
 4324SOL    HW317063   0.565   4.620   5.603  0.0370  0.3094 -0.7095
 4324SOL    MW417064   0.520   4.590   5.672  0.1672 -0.1742 -0.8281
 4325SOL     OW17065   3.675   1.271   1.656  0.2317  0.0129  0.2397
 4325SOL    HW217066   3.749   1.306   1.704  0.0720  1.2035 -0.3397
 4325SOL    HW317067   3.600   1.282   1.715  0.0622  1.3338 -0.1939
 4325SOL    MW417068   3.675   1.277   1.670  0.1883  0.3443  0.1061
 4326SOL     OW17069   4.576   3.372   4.892 -0.8203  0.2854  0.1468
 4326SOL    HW217070   4.641   3.372   4.822 -0.6107  1.9232  0.2863
 4326SOL    HW317071   4.514   3.304   4.868  0.0961 -0.2448 -0.8027
 4326SOL    MW417072   4.577   3.363   4.879 -0.6717  0.4315  0.0399
 4327SOL     OW17073   0.064   3.419   2.078  0.1446 -0.1982 -0.2754
 4327SOL    HW217074   0.073   3.337   2.029  1.1311  0.1388 -0.6911
 4327SOL    HW317075   0.152   3.458   2.076 -0.5505  1.4361 -1.0929
 4327SOL    MW417076   0.077   3.413   2.071  0.1830  0.0619 -0.4381
 4328SOL     OW17077   2.133   1.903   0.682  0.0813 -0.2193  0.5478
 4328SOL    HW217078   2.086   1.894   0.599 -0.9532 -0.9754  1.1906
 4328SOL    HW317079   2.213   1.852   0.669 -0.1669 -0.5024  0.0892
 4328SOL    MW417080   2.138   1.895   0.669 -0.0879 -0.3564  0.5721
 4329SOL     OW17081   4.739   6.267   5.221 -0.6626 -0.2494 -0.4857
 4329SOL    HW217082   4.747   6.357   5.253 -1.4729 -0.6513  0.9363
 4329SOL    HW317083   4.821   6.251   5.174  0.7571  0.3139  1.6660
 4329SOL    MW417084   4.751   6.277   5.219 -0.5822 -0.2281 -0.0142
 4330SOL     OW17085   6.261   4.228   2.017 -0.1736  0.1794  0.0596
 4330SOL    HW217086   6.339   4.180   2.045  0.9060  1.7460 -0.1379
 4330SOL    HW317087   6.296   4.303   1.968 -1.8440  0.4210 -0.8107
 4330SOL    MW417088   6.276   4.231   2.014 -0.2515  0.4180 -0.0813
 4331SOL     OW17089   4.984   2.213   5.055 -0.1053  0.0064  0.3443
 4331SOL    HW217090   5.034   2.195   5.135 -1.7289 -0.5433  1.2779
 4331SOL    HW317091   4.939   2.131   5.035  0.5203  0.0303 -1.3595
 4331SOL    MW417092   4.985   2.200   5.063 -0.2370 -0.0630  0.2427
 4332SOL     OW17093   0.499   0.233   0.615  0.2474  0.0605  0.7711
 4332SOL    HW217094   0.406   0.209   0.610  0.7351 -1.7130 -1.3251
 4332SOL    HW317095   0.542   0.156   0.652  1.0841  0.1037 -0.0586
 4332SOL    MW417096   0.492   0.220   0.619  0.4221 -0.1678  0.3851
 4333SOL     OW17097   4.453   4.975   1.983  0.4905 -0.3081  0.0541
 4333SOL    HW217098   4.384   4.926   1.940  0.7677  0.0604 -0.8310
 4333SOL    HW317099   4.463   5.055   1.931  1.0361  0.0117  0.6265
 4333SOL    MW417100   4.445   4.979   1.971  0.5991 -0.2173  0.0129
 4334SOL     OW17101   0.451   3.583   1.325 -0.1541 -0.0034 -0.3980
 4334SOL    HW217102   0.530   3.554   1.369  0.4438  1.8776 -0.1284
 4334SOL    HW317103   0.472   3.670   1.293 -2.3645  0.9321  0.4367
 4334SOL    MW417104   0.464   3.591   1.327 -0.3668  0.3682 -0.2523
 4335SOL     OW17105   5.334   1.809   4.473 -0.0195  0.3628  0.3299
 4335SOL    HW217106   5.246   1.796   4.437  0.3037  0.5139 -0.5174
 4335SOL    HW317107   5.367   1.720   4.488  0.4669  0.2543 -1.2756
 4335SOL    MW417108   5.327   1.796   4.470  0.0873  0.3684  0.0063
 4336SOL     OW17109   5.500   3.726   1.880 -0.0197 -0.3681  0.3459
 4336SOL    HW217110   5.552   3.660   1.927  0.6156 -0.1190  0.0105
 4336SOL    HW317111   5.442   3.675   1.824 -0.4678 -0.6616  1.0650
 4336SOL    MW417112   5.499   3.711   1.879  0.0050 -0.3739  0.3965
 4337SOL     OW17113   1.187   4.652   5.868  0.4774 -0.0914 -0.2352
 4337SOL    HW217114   1.162   4.579   5.924  0.0023 -0.2618 -0.6588
 4337SOL    HW317115   1.267   4.686   5.907  1.2157 -1.4117 -0.5551
 4337SOL    MW417116   1.194   4.647   5.881  0.5121 -0.2881 -0.3333
 4338SOL     OW17117   6.141   0.189   2.693 -0.1388 -0.9943  0.2278
 4338SOL    HW217118   6.065   0.227   2.736  0.0761  1.2781 -1.2414
 4338SOL    HW317119   6.172   0.123   2.754 -3.4162 -2.2325  0.7677
 4338SOL    MW417120   6.135   0.185   2.707 -0.5429 -0.8579  0.1051
 4339SOL     OW17121   5.650   4.624   2.824  0.2119 -0.4767  0.0070
 4339SOL    HW217122   5.739   4.594   2.803  0.6345 -0.0364  1.0715
 4339SOL    HW317123   5.625   4.570   2.900 -0.7979 -1.2277 -0.8395
 4339SOL    MW417124   5.659   4.613   2.831  0.1344 -0.5177  0.0358
 4340SOL     OW17125   2.924   4.402   5.654 -0.2927 -0.2229 -0.0359
 4340SOL    HW217126   2.899   4.493   5.673  1.4162  0.6526 -1.5496
 4340SOL    HW317127   2.913   4.394   5.559  2.2762 -0.6255 -0.3746
 4340SOL    MW417128   2.919   4.413   5.644  0.2717 -0.1605 -0.2803
 4341SOL     OW17129   2.453   3.781   6.260  0.3373 -0.2078 -0.3443
 4341SOL    HW217130   2.544   3.801   6.236  0.7378  0.7878  1.8114
 4341SOL    HW317131   2.430   3.848   6.324 -2.8524  1.2254 -2.6850
 4341SOL    MW417132   2.462   3.793   6.265 -0.0307  0.1127 -0.3687
 4342SOL     OW17133   3.007   0.334   3.839 -0.3786  0.0492  0.0728
 4342SOL    HW217134   3.039   0.424   3.843 -0.4689  0.0509  0.9786
 4342SOL    HW317135   2.912   0.342   3.846 -0.4127 -0.0961 -0.2203
 4342SOL    MW417136   2.999   0.347   3.841 -0.3950  0.0302  0.1536
 4343SOL     OW17137   2.441   3.076   3.115 -0.2362 -0.4899 -0.1080
 4343SOL    HW217138   2.500   3.111   3.049 -1.4350  1.4265 -0.2630
 4343SOL    HW317139   2.466   3.121   3.196 -0.7550 -0.4846  0.0554
 4343SOL    MW417140   2.452   3.087   3.117 -0.4628 -0.2363 -0.1069
 4344SOL     OW17141   4.645   3.045   2.671  0.4369  0.2687 -0.5890
 4344SOL    HW217142   4.690   3.048   2.587  0.0651 -1.0839 -0.8519
 4344SOL    HW317143   4.568   3.100   2.659 -0.1571 -0.7191 -1.4870
 4344SOL    MW417144   4.640   3.053   2.659  0.3094 -0.0401 -0.7422
 4345SOL     OW17145   4.011   1.014   0.984 -0.5287  0.5393 -0.4315
 4345SOL    HW217146   3.925   1.045   1.012 -0.9110  0.2549 -1.2511
 4345SOL    HW317147   4.072   1.053   1.046 -1.2096  1.0730 -0.0803
 4345SOL    MW417148   4.008   1.023   0.996 -0.6689  0.5722 -0.4933
 4346SOL     OW17149   2.532   2.391   5.504 -0.2647 -0.4915 -0.3840
 4346SOL    HW217150   2.481   2.392   5.423  0.0327 -0.6490 -0.5756
 4346SOL    HW317151   2.604   2.331   5.485 -0.4914 -0.9502  0.1801
 4346SOL    MW417152   2.535   2.383   5.491 -0.2554 -0.5728 -0.3348
 4347SOL     OW17153   3.113   3.711   5.318 -0.1095  0.5376 -0.5976
 4347SOL    HW217154   3.062   3.720   5.238 -1.4597  1.9758  0.3722
 4347SOL    HW317155   3.133   3.801   5.344 -0.7083  0.1673  1.2899
 4347SOL    MW417156   3.109   3.724   5.311 -0.3666  0.6785 -0.2206
 4348SOL     OW17157   0.004   0.967   1.748 -0.1626  1.2466 -0.4635
 4348SOL    HW217158   0.046   1.042   1.791 -1.1067  1.3042  0.4019
 4348SOL    HW317159  -0.080   0.958   1.793  0.2008 -0.7487 -0.1033
 4348SOL    MW417160  -0.002   0.976   1.760 -0.2392  0.9910 -0.3018
 4349SOL     OW17161   2.467   3.489   3.525 -0.0972 -0.0342  0.5648
 4349SOL    HW217162   2.493   3.580   3.544  1.0259 -0.4529  1.0903
 4349SOL    HW317163   2.409   3.497   3.449 -1.2846  1.2744  1.5371
 4349SOL    MW417164   2.463   3.502   3.517 -0.1057  0.0833  0.7624
 4350SOL     OW17165   5.551   3.318   4.567 -0.1454 -0.2104  0.0861
 4350SOL    HW217166   5.572   3.401   4.610 -1.4536 -0.0841  0.5057
 4350SOL    HW317167   5.520   3.261   4.637  1.5914 -1.3923 -0.0446
 4350SOL    MW417168   5.550   3.322   4.582 -0.0888 -0.3497  0.1243
 4351SOL     OW17169   4.275   5.246   3.739 -0.4676 -0.5444  0.0085
 4351SOL    HW217170   4.275   5.282   3.828  0.7553  0.0449 -0.1994
 4351SOL    HW317171   4.183   5.245   3.713 -0.6803  1.2014  0.5457
 4351SOL    MW417172   4.263   5.251   3.747 -0.3343 -0.2363  0.0519
 4352SOL     OW17173   1.935   3.632   0.931 -0.5665 -0.3455 -1.1670
 4352SOL    HW217174   1.844   3.625   0.958  0.0557 -0.7330  1.0730
 4352SOL    HW317175   1.978   3.676   1.005  1.7342 -3.6082 -0.3415
 4352SOL    MW417176   1.929   3.637   0.945 -0.1809 -0.8271 -0.7626
 4353SOL     OW17177   0.967   2.060   5.427 -0.4613  0.1943  0.0777
 4353SOL    HW217178   0.969   2.051   5.523  1.1370 -2.3190 -0.0846
 4353SOL    HW317179   1.012   2.142   5.409 -1.7729  1.2828  1.4668
 4353SOL    MW417180   0.973   2.070   5.438 -0.4234  0.0063  0.2396
 4354SOL     OW17181   5.427   2.539   1.553 -0.0344 -0.5718 -0.1571
 4354SOL    HW217182   5.512   2.519   1.514  0.3727 -2.3096  1.5090
 4354SOL    HW317183   5.424   2.489   1.634 -2.0498  0.6310  0.6042
 4354SOL    MW417184   5.438   2.530   1.558 -0.2466 -0.6424  0.1632
 4355SOL     OW17185   1.734   4.904   1.031  0.0603  0.1172  0.6305
 4355SOL    HW217186   1.699   4.992   1.042 -2.1110 -0.3328 -1.6314
 4355SOL    HW317187   1.740   4.892   0.936  1.0383 -1.8997  0.8797
 4355SOL    MW417188   1.730   4.914   1.020 -0.0972 -0.2082  0.3650
 4356SOL     OW17189   2.195   6.346   3.217  0.0098 -0.7286  0.1320
 4356SOL    HW217190   2.270   6.292   3.193  0.1506 -0.2493 -0.5412
 4356SOL    HW317191   2.200   6.422   3.159 -0.3417 -0.1215  0.8714
 4356SOL    MW417192   2.206   6.349   3.206 -0.0180 -0.5852  0.1408
 4357SOL     OW17193   1.385   1.647   6.204  0.3423  0.0176  0.1952
 4357SOL    HW217194   1.422   1.559   6.201  1.3704  0.4249  0.3544
 4357SOL    HW317195   1.314   1.642   6.267  1.9034 -0.1684  2.0266
 4357SOL    MW417196   1.381   1.635   6.212  0.6839  0.0468  0.4579
 4358SOL     OW17197   1.845   0.151   2.124  0.3462 -0.2877  0.5976
 4358SOL    HW217198   1.851   0.222   2.060  0.0705 -0.1529  0.7164
 4358SOL    HW317199   1.922   0.097   2.108 -1.1010 -1.8389 -1.7548
 4358SOL    MW417200   1.856   0.154   2.114  0.1189 -0.4745  0.3029
 4359SOL     OW17201   6.250   3.957   0.578 -0.2940 -0.0987 -0.3467
 4359SOL    HW217202   6.178   3.894   0.575 -0.0169 -0.4008 -0.7133
 4359SOL    HW317203   6.238   4.003   0.662 -0.9729 -0.0706 -0.4542
 4359SOL    MW417204   6.239   3.955   0.589 -0.3470 -0.1348 -0.4092
 4360SOL     OW17205   1.434   4.450   5.670  0.0045 -0.3077 -0.2242
 4360SOL    HW217206   1.508   4.393   5.691  0.4463 -0.2155 -1.4978
 4360SOL    HW317207   1.404   4.421   5.584  0.2029  1.3169 -0.8772
 4360SOL    MW417208   1.440   4.439   5.662  0.0890 -0.0812 -0.4784
 4361SOL     OW17209   4.099   5.457   2.327 -0.0490  0.3673  0.1489
 4361SOL    HW217210   4.107   5.423   2.416 -0.4695 -0.2630 -0.0504
 4361SOL    HW317211   4.045   5.393   2.281 -2.6150  2.2496  0.3117
 4361SOL    MW417212   4.093   5.444   2.333 -0.4430  0.5325  0.1441
 4362SOL     OW17213   3.871   6.378   0.476  0.3411 -0.4243  0.3391
 4362SOL    HW217214   3.868   6.472   0.462  0.8447 -0.0038  2.6817
 4362SOL    HW317215   3.930   6.346   0.408  0.2773  0.9482 -0.4038
 4362SOL    MW417216   3.879   6.386   0.465  0.3991 -0.1877  0.5501
 4363SOL     OW17217   2.654   5.527   6.165  0.0851  0.0468 -0.4049
 4363SOL    HW217218   2.706   5.448   6.183 -0.1718 -0.0853 -0.2339
 4363SOL    HW317219   2.703   5.597   6.209  0.4015  0.0146 -0.6962
 4363SOL    MW417220   2.667   5.525   6.174  0.0930  0.0251 -0.4208
 4364SOL     OW17221   5.222   1.511   0.972  0.0932 -0.1265  0.4466
 4364SOL    HW217222   5.130   1.515   0.997  0.0662 -0.2403  0.3704
 4364SOL    HW317223   5.270   1.528   1.053  0.0161 -1.4200  0.7935
 4364SOL    MW417224   5.217   1.514   0.986  0.0795 -0.3122  0.4823
 4365SOL     OW17225   1.591   4.584   4.286  0.1350  0.0136  0.2056
 4365SOL    HW217226   1.557   4.610   4.372  0.0053  1.3102 -0.2044
 4365SOL    HW317227   1.520   4.605   4.225 -0.1372 -1.7736 -0.1378
 4365SOL    MW417228   1.577   4.591   4.289  0.0820 -0.0512  0.1062
 4366SOL     OW17229   1.963   1.717   4.306  0.1296 -0.0014 -0.0812
 4366SOL    HW217230   1.969   1.654   4.234 -1.7488 -0.4707  0.1406
 4366SOL    HW317231   1.912   1.790   4.269 -0.7850 -0.2144  0.7471
 4366SOL    MW417232   1.957   1.719   4.291 -0.2389 -0.0915  0.0574
 4367SOL     OW17233   4.384   1.293   2.739  0.2662 -0.1916  0.3923
 4367SOL    HW217234   4.297   1.300   2.698  0.2749  0.2674  0.4409
 4367SOL    HW317235   4.391   1.373   2.791  0.9863  0.0915 -0.1266
 4367SOL    MW417236   4.373   1.305   2.741  0.3623 -0.0937  0.3302
 4368SOL     OW17237   3.752   5.857   0.733 -0.7499  0.2602 -0.0531
 4368SOL    HW217238   3.732   5.767   0.761  0.2748  0.3243  0.9533
 4368SOL    HW317239   3.814   5.846   0.661 -1.2474  0.1547 -0.4733
 4368SOL    MW417240   3.758   5.843   0.727 -0.6803  0.2548  0.0242
 4369SOL     OW17241   1.561   1.642   4.209 -0.2367  0.1558 -0.1119
 4369SOL    HW217242   1.563   1.639   4.305 -1.3807  0.7879 -0.0446
 4369SOL    HW317243   1.509   1.720   4.189 -0.7035 -0.4203 -1.2420
 4369SOL    MW417244   1.554   1.652   4.219 -0.4492  0.1632 -0.2521
 4370SOL     OW17245   2.955   0.844   4.311 -0.1118  0.0177  0.8841
 4370SOL    HW217246   2.991   0.908   4.372  0.6343  0.3244  0.1533
 4370SOL    HW317247   2.864   0.872   4.297 -0.0786  0.3506  1.3127
 4370SOL    MW417248   2.948   0.856   4.317 -0.0089  0.1021  0.8443
 4371SOL     OW17249   2.832   2.601   5.038  0.2798  0.3340  0.5272
 4371SOL    HW217250   2.749   2.553   5.029  0.7947 -0.6993  1.2032
 4371SOL    HW317251   2.810   2.691   5.012 -0.7611 -0.1933 -0.5241
 4371SOL    MW417252   2.818   2.607   5.033  0.2104  0.1281  0.4777
 4372SOL     OW17253   1.739   0.343   4.122 -0.5391 -0.6360 -0.0337
 4372SOL    HW217254   1.740   0.285   4.199 -2.5377  0.1754  0.6587
 4372SOL    HW317255   1.669   0.406   4.140  0.0847  0.6324 -1.7789
 4372SOL    MW417256   1.730   0.344   4.135 -0.7205 -0.3616 -0.1726
 4373SOL     OW17257   1.689   2.912   5.478  0.5254 -0.0808  0.0855
 4373SOL    HW217258   1.623   2.899   5.410  0.1074  0.3671  0.3900
 4373SOL    HW317259   1.753   2.843   5.464 -1.4718 -2.4398  1.5471
 4373SOL    MW417260   1.689   2.901   5.467  0.2068 -0.3330  0.3185
 4374SOL     OW17261   0.380   1.256   0.313  0.3058  0.3294 -0.0085
 4374SOL    HW217262   0.390   1.348   0.337 -1.0702  0.8337 -1.2058
 4374SOL    HW317263   0.405   1.252   0.220  0.8636 -0.6195  0.1638
 4374SOL    MW417264   0.385   1.267   0.304  0.1978  0.2707 -0.1438
 4375SOL     OW17265   2.815   3.407   2.473  0.1301  0.4764 -0.1089
 4375SOL    HW217266   2.773   3.474   2.419 -0.5756 -0.3515 -0.6261
 4375SOL    HW317267   2.905   3.437   2.483  0.1885  0.8345 -1.4703
 4375SOL    MW417268   2.821   3.419   2.467  0.0447  0.4144 -0.3568
 4376SOL     OW17269   1.231   6.240   0.765 -0.0148  0.5491 -0.0079
 4376SOL    HW217270   1.169   6.281   0.704  0.0572  1.2638  0.3918
 4376SOL    HW317271   1.284   6.313   0.797  0.2178  0.1141  0.5998
 4376SOL    MW417272   1.230   6.255   0.761  0.0254  0.5860  0.1250
 4377SOL     OW17273   4.421   5.329   2.181 -0.1098  0.2058 -0.2237
 4377SOL    HW217274   4.432   5.393   2.251  2.1460  0.5519 -0.8171
 4377SOL    HW317275   4.368   5.375   2.116  1.4110  1.5085 -0.6033
 4377SOL    MW417276   4.415   5.344   2.181  0.3885  0.4233 -0.3521
 4378SOL     OW17277   5.404   0.890   2.744  0.1326 -0.0226 -0.1280
 4378SOL    HW217278   5.472   0.881   2.811  0.0843 -0.1676 -0.0984
 4378SOL    HW317279   5.326   0.918   2.793 -0.2650 -1.4010  0.0749
 4378SOL    MW417280   5.402   0.892   2.760  0.0737 -0.2236 -0.0974
 4379SOL     OW17281   0.147   3.875   5.875 -0.4728 -0.0044  0.1080
 4379SOL    HW217282   0.141   3.966   5.903  1.4804 -0.3055  1.6988
 4379SOL    HW317283   0.060   3.839   5.891 -1.5242  1.7266 -1.3003
 4379SOL    MW417284   0.135   3.882   5.881 -0.3538  0.1843  0.1320
 4380SOL     OW17285   4.183   5.927   4.817 -0.6628  0.1961  0.0905
 4380SOL    HW217286   4.266   5.968   4.794 -0.2175 -0.7666 -0.0608
 4380SOL    HW317287   4.171   5.950   4.910 -0.8500  1.3569 -0.2067
 4380SOL    MW417288   4.193   5.935   4.826 -0.6288  0.2222  0.0313
 4381SOL     OW17289   5.944   2.829   6.199  0.6253  0.5314  0.0388
 4381SOL    HW217290   5.893   2.869   6.270  1.2641  0.1211  0.7544
 4381SOL    HW317291   6.034   2.827   6.233  0.8089 -0.3855 -0.4666
 4381SOL    MW417292   5.949   2.834   6.213  0.7338  0.3563  0.0665
 4382SOL     OW17293   1.438   3.571   1.213 -0.5643  0.3296 -0.1572
 4382SOL    HW217294   1.352   3.605   1.189 -1.5462 -0.5415  1.8962
 4382SOL    HW317295   1.419   3.497   1.270  1.5681 -0.2622 -0.1443
 4382SOL    MW417296   1.424   3.566   1.217 -0.4125  0.1366  0.1154
 4383SOL     OW17297   3.905   5.295   2.186  0.3452 -0.1202 -0.7216
 4383SOL    HW217298   3.889   5.205   2.215  1.9020  0.2224  1.4855
 4383SOL    HW317299   3.837   5.346   2.228  1.1006  0.0477  0.3437
 4383SOL    MW417300   3.894   5.290   2.195  0.6503 -0.0529 -0.2898
 4384SOL     OW17301   3.893   1.514   5.060 -0.5928  0.1627 -0.5209
 4384SOL    HW217302   3.963   1.528   5.125 -0.4787 -1.2824 -0.2768
 4384SOL    HW317303   3.820   1.479   5.111 -1.4366  1.4589 -0.8114
 4384SOL    MW417304   3.893   1.511   5.075 -0.6891  0.1430 -0.5270
 4385SOL     OW17305   2.418   4.583   2.517  0.1780  0.1793 -0.5109
 4385SOL    HW217306   2.463   4.653   2.470 -0.2202 -0.3602 -1.7128
 4385SOL    HW317307   2.333   4.575   2.474 -0.1236 -0.4602  0.1762
 4385SOL    MW417308   2.412   4.591   2.505  0.0857  0.0237 -0.5789
 4386SOL     OW17309   3.859   4.906   1.757 -0.0987 -0.0508 -0.3382
 4386SOL    HW217310   3.817   4.945   1.680  2.1951 -2.7286 -3.1958
 4386SOL    HW317311   3.917   4.975   1.788 -1.5757  1.3400 -0.4848
 4386SOL    MW417312   3.861   4.921   1.751  0.0090 -0.2206 -0.7346
 4387SOL     OW17313   4.650   4.362   5.368  0.0693 -0.0013 -0.2009
 4387SOL    HW217314   4.629   4.298   5.300  2.0043 -0.2129 -0.6642
 4387SOL    HW317315   4.621   4.446   5.331  1.2751 -0.0835 -1.4298
 4387SOL    MW417316   4.643   4.365   5.354  0.4837 -0.0401 -0.4241
 4388SOL     OW17317   4.725   1.156   3.017 -0.5655 -0.1890 -0.2569
 4388SOL    HW217318   4.707   1.249   3.000  1.6727  0.5345  0.8888
 4388SOL    HW317319   4.715   1.148   3.112  1.3842 -0.5588 -0.0494
 4388SOL    MW417320   4.721   1.167   3.028 -0.0129 -0.1423 -0.0783
 4389SOL     OW17321   3.473   3.790   5.460 -0.0628  0.3223 -0.0313
 4389SOL    HW217322   3.514   3.870   5.427  0.3246 -0.0508 -0.4645
 4389SOL    HW317323   3.473   3.730   5.385  0.8103 -0.5325  0.6163
 4389SOL    MW417324   3.478   3.793   5.446  0.1035  0.1603 -0.0030
 4390SOL     OW17325   1.410   4.890   3.902  0.3594 -0.2362  0.2797
 4390SOL    HW217326   1.354   4.968   3.903  0.6784  0.0125  1.9812
 4390SOL    HW317327   1.384   4.843   3.824 -0.5355  1.0899 -0.2598
 4390SOL    MW417328   1.399   4.894   3.892  0.2834 -0.0284  0.4330
 4391SOL     OW17329   6.230   5.498   0.251  0.2111  0.1426 -0.2871
 4391SOL    HW217330   6.297   5.506   0.319  1.3625 -2.2964 -1.0222
 4391SOL    HW317331   6.228   5.584   0.209  1.7923  0.7379  0.7538
 4391SOL    MW417332   6.239   5.510   0.254  0.5716 -0.1007 -0.2468
 4392SOL     OW17333   2.942   1.295   1.967  0.1360  0.0042  0.2668
 4392SOL    HW217334   2.988   1.350   1.903  0.7298 -1.4461 -0.6012
 4392SOL    HW317335   2.873   1.252   1.916 -1.1597  0.8710  1.2060
 4392SOL    MW417336   2.939   1.296   1.952  0.0434 -0.0728  0.2762
 4393SOL     OW17337   0.128   1.879   4.505 -1.0099 -0.0745  0.6661
 4393SOL    HW217338   0.165   1.848   4.423 -1.2963  1.3871 -0.0469
 4393SOL    HW317339   0.197   1.862   4.570 -0.9394 -1.6058  0.2232
 4393SOL    MW417340   0.142   1.873   4.503 -1.0384 -0.0837  0.5136
 4394SOL     OW17341   2.407   6.296   4.584 -0.0584  0.0718  0.4483
 4394SOL    HW217342   2.349   6.365   4.617 -0.5200  0.0080 -0.2175
 4394SOL    HW317343   2.384   6.287   4.492  1.9419  0.9725 -0.1908
 4394SOL    MW417344   2.396   6.304   4.577  0.1446  0.1822  0.2761
 4395SOL     OW17345   1.669   6.259   3.837  0.0642 -0.0354 -0.2172
 4395SOL    HW217346   1.594   6.200   3.826  0.8063 -1.1123  0.3163
 4395SOL    HW317347   1.637   6.328   3.894 -1.1505  0.7203 -1.7226
 4395SOL    MW417348   1.655   6.260   3.843  0.0018 -0.0778 -0.3454
 4396SOL     OW17349   0.517   6.124   1.246  0.5141  0.0769  0.1017
 4396SOL    HW217350   0.470   6.058   1.298 -0.5244  1.2742  0.7295
 4396SOL    HW317351   0.465   6.204   1.255  0.5196  0.4601 -2.4436
 4396SOL    MW417352   0.504   6.126   1.254  0.3778  0.2854 -0.1513
 4397SOL     OW17353   2.579   1.797   0.060  0.5438 -0.0645  0.2904
 4397SOL    HW217354   2.526   1.735   0.009 -0.6449  2.1318 -1.3423
 4397SOL    HW317355   2.654   1.816   0.003 -0.7590  2.3575 -0.7858
 4397SOL    MW417356   2.582   1.792   0.046  0.2151  0.5448 -0.0670
 4398SOL     OW17357   0.363   5.193   1.792  0.2775  0.0078 -0.0651
 4398SOL    HW217358   0.451   5.222   1.818  0.3945 -1.5418  1.4341
 4398SOL    HW317359   0.316   5.274   1.772  0.8936  1.2299  2.8931
 4398SOL    MW417360   0.369   5.208   1.793  0.3742 -0.0354  0.5230
 4399SOL     OW17361   4.787   2.860   6.190 -0.2650  0.1611  0.0349
 4399SOL    HW217362   4.792   2.790   6.255  1.3210 -0.1174 -0.3211
 4399SOL    HW317363   4.789   2.814   6.106 -0.1940  0.5875 -0.1978
 4399SOL    MW417364   4.788   2.844   6.187 -0.0464  0.1806 -0.0428
 4400SOL     OW17365   2.930   4.423   2.194 -0.4395  0.0029  0.0683
 4400SOL    HW217366   3.005   4.444   2.249  0.4461 -0.2083 -1.0080
 4400SOL    HW317367   2.858   4.409   2.255  0.0442  1.5706  1.0623
 4400SOL    MW417368   2.930   4.424   2.209 -0.2589  0.1818  0.0574
 4401SOL     OW17369   5.701   1.661   0.059  0.6040 -0.0789  0.1759
 4401SOL    HW217370   5.700   1.617   0.144  1.8499 -1.1060 -0.2953
 4401SOL    HW317371   5.790   1.645   0.025  0.2295  0.5569 -1.1766
 4401SOL    MW417372   5.713   1.653   0.066  0.7190 -0.1306 -0.0647
 4402SOL     OW17373   2.627   2.607   1.681 -0.5917 -0.6908 -0.0561
 4402SOL    HW217374   2.578   2.525   1.683  0.3133 -1.2429  0.8564
 4402SOL    HW317375   2.622   2.640   1.771  0.9790 -0.9724  0.1723
 4402SOL    MW417376   2.620   2.600   1.693 -0.2651 -0.8008  0.0944
 4403SOL     OW17377   5.315   1.088   1.926  0.4153 -0.1348 -0.5467
 4403SOL    HW217378   5.253   1.028   1.967  0.0154  0.2619 -0.5692
 4403SOL    HW317379   5.282   1.176   1.947  1.1940  0.0892 -0.1949
 4403SOL    MW417380   5.303   1.092   1.934  0.4653 -0.0529 -0.5033
 4404SOL     OW17381   1.874   1.823   3.327  0.0785  0.3466  0.1380
 4404SOL    HW217382   1.918   1.895   3.370 -1.5367  0.4059  1.8041
 4404SOL    HW317383   1.826   1.778   3.397 -1.0292 -0.7785 -1.2679
 4404SOL    MW417384   1.873   1.826   3.342 -0.2808  0.2060  0.1723
 4405SOL     OW17385   4.612   6.212   4.851 -0.0279 -0.2061  0.1006
 4405SOL    HW217386   4.609   6.295   4.899  0.1187 -0.0899 -0.0860
 4405SOL    HW317387   4.705   6.194   4.841 -0.0591 -0.7194  0.6908
 4405SOL    MW417388   4.624   6.221   4.856 -0.0127 -0.2585  0.1538
 4406SOL     OW17389   6.036   6.020   2.051  0.5872 -0.6057 -0.8900
 4406SOL    HW217390   6.030   6.020   2.146  0.5997 -2.0339 -0.8693
 4406SOL    HW317391   6.054   6.111   2.028  2.3988 -0.5317  0.6046
 4406SOL    MW417392   6.038   6.032   2.061  0.8278 -0.7843 -0.6901
 4407SOL     OW17393   0.054   6.228   3.168  0.0027  0.0637 -0.7127
 4407SOL    HW217394   0.070   6.150   3.221  0.9498  0.1747 -0.8122
 4407SOL    HW317395   0.029   6.194   3.082  1.5409 -0.1704 -1.0992
 4407SOL    MW417396   0.053   6.213   3.164  0.3306  0.0475 -0.7768
 4408SOL     OW17397   2.726   2.172   0.724  0.2207  0.0816 -0.3933
 4408SOL    HW217398   2.682   2.119   0.658  2.7296  0.5384 -2.6410
 4408SOL    HW317399   2.799   2.118   0.753 -1.1435 -0.3453  2.5979
 4408SOL    MW417400   2.730   2.158   0.719  0.3717  0.0856 -0.2952
 4409SOL     OW17401   4.759   5.136   6.179  0.2050 -0.0042 -0.0917
 4409SOL    HW217402   4.739   5.202   6.112  0.8664 -0.0492 -0.3340
 4409SOL    HW317403   4.751   5.052   6.133  0.3814 -0.0497 -0.0375
 4409SOL    MW417404   4.755   5.133   6.164  0.3156 -0.0161 -0.1166
 4410SOL     OW17405   6.299   0.115   1.409  0.3183  0.1596  0.3593
 4410SOL    HW217406   6.338   0.030   1.427  0.0579 -0.1771 -0.6017
 4410SOL    HW317407   6.328   0.136   1.320 -0.0432  0.8335  0.3926
 4410SOL    MW417408   6.308   0.107   1.400  0.2362  0.2041  0.2369
 4411SOL     OW17409   3.797   5.512   0.530 -0.4023  0.2155  0.0309
 4411SOL    HW217410   3.732   5.523   0.599 -1.1003 -1.0852 -0.3784
 4411SOL    HW317411   3.869   5.570   0.555 -0.1551 -1.0024  2.4495
 4411SOL    MW417412   3.798   5.521   0.543 -0.4618 -0.1168  0.2960
 4412SOL     OW17413   2.501   4.093   2.475  0.6325 -0.5673 -0.0459
 4412SOL    HW217414   2.454   4.161   2.522  0.3354 -1.1190  0.4724
 4412SOL    HW317415   2.434   4.026   2.458  0.9684 -0.8292 -0.3519
 4412SOL    MW417416   2.486   4.093   2.479  0.6376 -0.6747 -0.0179
 4413SOL     OW17417   6.114   0.157   1.662 -0.3186 -0.6328  0.0023
 4413SOL    HW217418   6.093   0.183   1.752 -1.1024 -2.1123  0.2832
 4413SOL    HW317419   6.163   0.231   1.626 -0.1069  0.0457  1.6000
 4413SOL    MW417420   6.118   0.170   1.669 -0.3941 -0.7385  0.2502
 4414SOL     OW17421   2.768   3.212   2.228 -0.0085  0.0650 -0.2364
 4414SOL    HW217422   2.713   3.276   2.273 -0.6690 -0.1474 -0.7221
 4414SOL    HW317423   2.842   3.263   2.194  1.1290  0.0527  2.0392
 4414SOL    MW417424   2.771   3.227   2.230  0.0544  0.0353 -0.0002
 4415SOL     OW17425   0.376   1.611   1.981 -0.0575 -0.0230 -0.4510
 4415SOL    HW217426   0.380   1.642   2.071  1.5648 -0.1917 -0.4344
 4415SOL    HW317427   0.388   1.516   1.987 -0.4658 -0.0980 -0.8042
 4415SOL    MW417428   0.378   1.603   1.993  0.1027 -0.0551 -0.4954
 4416SOL     OW17429   4.576   3.320   5.159 -0.8841  0.6065  0.5222
 4416SOL    HW217430   4.538   3.233   5.156  0.2227  0.1281 -0.4920
 4416SOL    HW317431   4.575   3.350   5.068 -1.4550  1.7567  0.8822
 4416SOL    MW417432   4.571   3.313   5.146 -0.8134  0.6951  0.4359
 4417SOL     OW17433   5.416   0.044   5.136  0.8176 -0.0066  0.1007
 4417SOL    HW217434   5.329   0.062   5.173 -0.4160 -1.5150 -1.8357
 4417SOL    HW317435   5.405   0.058   5.042  1.9088 -2.7384 -0.5375
 4417SOL    MW417436   5.403   0.048   5.128  0.7988 -0.5660 -0.2390
 4418SOL     OW17437   1.029   0.335   1.453 -0.1256 -0.1041  0.2411
 4418SOL    HW217438   0.979   0.414   1.432  1.0154  0.2232 -1.5044
 4418SOL    HW317439   0.979   0.264   1.414 -0.1608  0.0121  0.0702
 4418SOL    MW417440   1.016   0.336   1.445  0.0203 -0.0456 -0.0117
 4419SOL     OW17441   2.475   2.430   2.872 -0.0860  0.2501 -0.2854
 4419SOL    HW217442   2.568   2.443   2.887  0.6221  0.1525 -3.7288
 4419SOL    HW317443   2.436   2.518   2.880  0.6236  0.5860 -0.4824
 4419SOL    MW417444   2.482   2.443   2.875  0.1010  0.2815 -0.7657
 4420SOL     OW17445   3.125   5.480   2.130  0.0560  0.6297  0.2879
 4420SOL    HW217446   3.076   5.406   2.163 -0.0378  0.5860  0.0563
 4420SOL    HW317447   3.118   5.473   2.035 -1.5110  1.9491  0.2536
 4420SOL    MW417448   3.118   5.469   2.122 -0.1631  0.7980  0.2528
 4421SOL     OW17449   2.298   6.298   1.915 -0.0454  0.3225  0.3628
 4421SOL    HW217450   2.341   6.318   1.832  0.9739 -1.2128  0.4801
 4421SOL    HW317451   2.243   6.222   1.895  0.9886 -0.6967  1.2999
 4421SOL    MW417452   2.296   6.290   1.901  0.2255 -0.0145  0.5019
 4422SOL     OW17453   4.860   4.219   1.668 -0.1671 -0.4318 -0.4306
 4422SOL    HW217454   4.890   4.138   1.709 -1.0727 -1.7753 -2.2348
 4422SOL    HW317455   4.932   4.246   1.612 -0.5640 -1.1256 -1.3107
 4422SOL    MW417456   4.873   4.212   1.666 -0.3390 -0.7006 -0.7848
 4423SOL     OW17457   6.158   2.192   3.910  0.3043 -0.4104  0.4107
 4423SOL    HW217458   6.109   2.129   3.857  0.4333 -2.0840  2.1604
 4423SOL    HW317459   6.096   2.221   3.976  0.2952  1.2545 -0.2949
 4423SOL    MW417460   6.144   2.187   3.912  0.3201 -0.4116  0.5484
 4424SOL     OW17461   0.306   5.620   3.537 -0.1497  0.1060  0.0264
 4424SOL    HW217462   0.252   5.650   3.464 -1.4091 -1.0433  0.4515
 4424SOL    HW317463   0.327   5.529   3.515  2.4201  0.7629 -0.5651
 4424SOL    MW417464   0.302   5.612   3.524  0.0232  0.0410  0.0044
 4425SOL     OW17465   0.617   3.316   0.886 -0.2671 -0.0252 -0.3778
 4425SOL    HW217466   0.701   3.330   0.842  0.2716 -1.4034  0.1332
 4425SOL    HW317467   0.583   3.236   0.846 -0.3452 -0.6168  0.8280
 4425SOL    MW417468   0.624   3.307   0.875 -0.2063 -0.2851 -0.1513
 4426SOL     OW17469   4.895   0.369   2.403  0.0648  0.1547 -0.5883
 4426SOL    HW217470   4.926   0.399   2.489 -0.2773 -1.0686 -0.0127
 4426SOL    HW317471   4.923   0.437   2.342 -1.3992  2.0789  0.7637
 4426SOL    MW417472   4.903   0.382   2.406 -0.1735  0.2471 -0.3340
 4427SOL     OW17473   2.218   2.846   2.719  0.3429 -0.4643 -0.6866
 4427SOL    HW217474   2.224   2.939   2.742 -1.4155 -0.7460  1.2486
 4427SOL    HW317475   2.208   2.845   2.624  1.0322  1.2767 -0.8085
 4427SOL    MW417476   2.218   2.858   2.710  0.2019 -0.2717 -0.4474
 4428SOL     OW17477   5.226   2.245   5.810 -0.4680  0.2753  0.8437
 4428SOL    HW217478   5.198   2.181   5.744  0.7899  0.2115  0.3495
 4428SOL    HW317479   5.301   2.289   5.771  2.0004 -1.5164  3.1527
 4428SOL    MW417480   5.232   2.242   5.797  0.0237  0.0305  1.0832
 4429SOL     OW17481   2.557   2.736   3.217  0.0915  0.1474 -0.0825
 4429SOL    HW217482   2.542   2.712   3.126  0.3862  1.4418 -0.4868
 4429SOL    HW317483   2.470   2.762   3.250  0.3071  1.6466 -0.6136
 4429SOL    MW417484   2.543   2.736   3.210  0.1588  0.5160 -0.2059
 4430SOL     OW17485   2.780   5.671   1.491  0.0243 -0.2315 -0.0379
 4430SOL    HW217486   2.832   5.750   1.484 -1.3715  0.6046 -1.5668
 4430SOL    HW317487   2.699   5.699   1.534  0.4170 -1.3407  1.5472
 4430SOL    MW417488   2.776   5.685   1.496 -0.1081 -0.2676 -0.0305
 4431SOL     OW17489   4.567   4.977   1.156  0.1818 -0.2085 -0.1479
 4431SOL    HW217490   4.641   4.953   1.212  0.9442  1.4979 -0.3712
 4431SOL    HW317491   4.493   4.985   1.216  0.3394 -1.1195  0.1906
 4431SOL    MW417492   4.567   4.975   1.171  0.3032 -0.1036 -0.1327
 4432SOL     OW17493   0.569   0.792   0.424 -0.3379 -0.3469 -0.0563
 4432SOL    HW217494   0.549   0.884   0.408  0.4588  0.2219  1.9530
 4432SOL    HW317495   0.650   0.776   0.374 -0.6181 -0.0512 -0.6125
 4432SOL    MW417496   0.577   0.802   0.415 -0.2698 -0.2329  0.1354
 4433SOL     OW17497   5.013   1.258   5.416  0.2168 -0.2971 -0.2574
 4433SOL    HW217498   4.954   1.286   5.486 -0.2965 -1.9090 -0.0115
 4433SOL    HW317499   5.081   1.206   5.460  0.7094 -0.1126 -0.7842
 4433SOL    MW417500   5.014   1.255   5.431  0.2141 -0.4854 -0.2944
 4434SOL     OW17501   0.873   1.289   4.246  0.0607 -0.4404 -0.5607
 4434SOL    HW217502   0.824   1.207   4.249 -0.2082 -0.2884 -0.8294
 4434SOL    HW317503   0.960   1.266   4.281 -1.1094 -0.0417  3.0944
 4434SOL    MW417504   0.878   1.275   4.251 -0.1292 -0.3677 -0.1139
 4435SOL     OW17505   6.262   2.980   0.337  0.2399  0.3984 -0.2000
 4435SOL    HW217506   6.224   3.049   0.392  1.1416  1.3492 -0.7221
 4435SOL    HW317507   6.193   2.958   0.275  0.0601  1.1275 -0.2743
 4435SOL    MW417508   6.248   2.986   0.337  0.3352  0.6200 -0.2787
 4436SOL     OW17509   3.114   2.424   3.918 -0.4867  0.5978 -0.5816
 4436SOL    HW217510   3.179   2.421   3.988 -0.2547  2.1489 -0.6935
 4436SOL    HW317511   3.081   2.334   3.912 -0.0237  0.2852  1.0372
 4436SOL    MW417512   3.118   2.412   3.926 -0.3950  0.7612 -0.3828
 4437SOL     OW17513   2.713   5.258   5.411 -0.2133 -0.3309  0.1370
 4437SOL    HW217514   2.655   5.334   5.402  1.5908  1.5642  2.7959
 4437SOL    HW317515   2.692   5.222   5.498  0.0685 -1.9291 -0.4150
 4437SOL    MW417516   2.702   5.263   5.421  0.0619 -0.2917  0.4150
 4438SOL     OW17517   4.108   5.697   5.772  0.5507  0.3166 -0.0619
 4438SOL    HW217518   4.122   5.618   5.825  0.8397  0.2349 -0.2567
 4438SOL    HW317519   4.187   5.704   5.719 -0.1185 -0.1089 -1.1355
 4438SOL    MW417520   4.121   5.688   5.772  0.5006  0.2497 -0.2293
 4439SOL     OW17521   1.798   5.037   4.404 -0.1386 -0.6655  0.1448
 4439SOL    HW217522   1.867   5.061   4.342  1.0426 -3.5421  0.1906
 4439SOL    HW317523   1.748   4.969   4.359 -1.1953 -0.6239  1.1982
 4439SOL    MW417524   1.801   5.031   4.390 -0.1222 -1.0396  0.2898
 4440SOL     OW17525   1.846   1.693   1.518  0.1506  0.0972 -0.2453
 4440SOL    HW217526   1.890   1.650   1.592 -0.7051  0.3971  0.4601
 4440SOL    HW317527   1.855   1.786   1.537  1.6219  0.2667 -1.5500
 4440SOL    MW417528   1.853   1.699   1.531  0.2318  0.1591 -0.3243
 4441SOL     OW17529   5.407   0.735   4.223  0.1939  0.0890  0.6342
 4441SOL    HW217530   5.330   0.753   4.278 -0.0826 -2.3484  1.1445
 4441SOL    HW317531   5.481   0.735   4.284  0.2792  0.1285  0.5309
 4441SOL    MW417532   5.407   0.738   4.239  0.1687 -0.2274  0.6879
 4442SOL     OW17533   4.551   6.099   0.733 -0.5773 -0.6180  0.2099
 4442SOL    HW217534   4.605   6.059   0.801 -0.5128  1.1142  1.2365
 4442SOL    HW317535   4.531   6.186   0.767 -2.2150 -0.4352 -1.1223
 4442SOL    MW417536   4.555   6.105   0.746 -0.7849 -0.3653  0.1696
 4443SOL     OW17537   5.074   1.941   3.189  0.0003 -0.4759  0.0480
 4443SOL    HW217538   5.021   1.979   3.259  1.4376 -1.1932  1.6120
 4443SOL    HW317539   5.127   2.014   3.156 -0.7187 -0.1245 -0.3590
 4443SOL    MW417540   5.074   1.956   3.194  0.0951 -0.5242  0.2006
 4444SOL     OW17541   2.526   5.709   3.952  0.4203 -0.3203 -0.4110
 4444SOL    HW217542   2.469   5.768   4.001  0.8368  0.1615 -0.5003
 4444SOL    HW317543   2.603   5.699   4.007  0.0123 -1.4480 -0.0147
 4444SOL    MW417544   2.529   5.716   3.965  0.4214 -0.4055 -0.3705
 4445SOL     OW17545   1.642   0.984   1.185 -0.1265 -0.6175 -0.8317
 4445SOL    HW217546   1.610   1.047   1.121  3.1562  0.7022 -1.3680
 4445SOL    HW317547   1.612   0.899   1.153 -0.7800  0.2667 -2.6510
 4445SOL    MW417548   1.634   0.981   1.173  0.2204 -0.3267 -1.1425
 4446SOL     OW17549   2.437   0.891   3.711 -0.0244 -0.5646  0.3334
 4446SOL    HW217550   2.405   0.916   3.798 -0.0165 -0.6160  0.3516
 4446SOL    HW317551   2.420   0.796   3.707 -0.8832 -0.4009 -0.0831
 4446SOL    MW417552   2.430   0.882   3.722 -0.1367 -0.5498  0.2808
 4447SOL     OW17553   1.543   6.279   4.703  0.1286 -0.2415  0.9402
 4447SOL    HW217554   1.546   6.254   4.611  0.6245  1.9337  0.2956
 4447SOL    HW317555   1.600   6.217   4.747 -0.3498 -1.5061 -0.1565
 4447SOL    MW417556   1.551   6.268   4.697  0.1309 -0.1214  0.7105
 4448SOL     OW17557   2.250   3.603   4.440 -0.1017 -0.1590  0.2196
 4448SOL    HW217558   2.267   3.696   4.449 -2.3826  0.2540  1.0113
 4448SOL    HW317559   2.300   3.576   4.363  2.6576  1.1036  1.4270
 4448SOL    MW417560   2.259   3.611   4.431 -0.0385  0.0621  0.4833
 4449SOL     OW17561   1.368   0.023  -0.017  0.0708 -0.6583  0.7665
 4449SOL    HW217562   1.340   0.111   0.007  1.2678 -0.4816  1.6008
 4449SOL    HW317563   1.428  -0.003   0.052  0.7190 -1.6340 -0.1306
 4449SOL    MW417564   1.372   0.031  -0.005  0.3142 -0.7637  0.7582
 4450SOL     OW17565   0.276   3.354   5.350 -0.6819  0.5956 -0.4797
 4450SOL    HW217566   0.258   3.442   5.316  1.5277  0.7410 -1.4599
 4450SOL    HW317567   0.328   3.369   5.429 -2.7513  0.1595  1.0707
 4450SOL    MW417568   0.281   3.368   5.356 -0.6634  0.5572 -0.4045
 4451SOL     OW17569   5.051   1.914   4.759 -0.6020  0.0577 -0.2977
 4451SOL    HW217570   5.048   1.820   4.774  1.6271 -0.0921 -0.4366
 4451SOL    HW317571   5.121   1.945   4.816 -0.4959  1.4531 -1.1424
 4451SOL    MW417572   5.060   1.906   4.769 -0.2939  0.2221 -0.4275
 4452SOL     OW17573   5.502   2.462   0.286  0.3698 -0.1965  0.2731
 4452SOL    HW217574   5.526   2.371   0.306  0.5145  0.1065  1.5886
 4452SOL    HW317575   5.585   2.510   0.292  0.8777 -0.3398 -3.2576
 4452SOL    MW417576   5.516   2.456   0.289  0.4559 -0.1754 -0.0192
 4453SOL     OW17577   3.390   4.979   5.517 -0.0066 -0.2300 -0.1887
 4453SOL    HW217578   3.314   5.032   5.540 -0.9734 -1.2817 -0.8767
 4453SOL    HW317579   3.463   5.024   5.559 -1.0402  0.6102  0.7901
 4453SOL    MW417580   3.390   4.992   5.526 -0.2706 -0.2579 -0.1503
 4454SOL     OW17581   4.684   5.577   5.952  0.0579  0.2542 -0.3100
 4454SOL    HW217582   4.716   5.662   5.982  0.6008 -0.0956  0.1236
 4454SOL    HW317583   4.674   5.588   5.857  2.6568  0.0650 -0.7039
 4454SOL    MW417584   4.687   5.590   5.943  0.4724  0.1831 -0.3047
 4455SOL     OW17585   3.289   6.250   3.089  0.0737 -0.2051 -0.9135
 4455SOL    HW217586   3.220   6.238   3.025 -0.7090 -1.7925  0.1430
 4455SOL    HW317587   3.308   6.344   3.088 -2.0329  0.2654 -1.2982
 4455SOL    MW417588   3.282   6.261   3.081 -0.3075 -0.3525 -0.8249
 4456SOL     OW17589  -0.027   4.649   6.042 -0.8736 -0.1148 -0.2209
 4456SOL    HW217590  -0.114   4.639   6.005 -1.6288  0.5113  1.2926
 4456SOL    HW317591  -0.041   4.697   6.124  0.8421 -0.3979  0.2839
 4456SOL    MW417592  -0.040   4.654   6.048 -0.7469 -0.0696  0.0454
 4457SOL     OW17593   0.810   4.212   0.279  0.2028 -0.1953 -0.3162
 4457SOL    HW217594   0.849   4.158   0.349  1.0257  0.8241  0.0371
 4457SOL    HW317595   0.824   4.302   0.308 -3.8552  0.3219  0.6564
 4457SOL    MW417596   0.817   4.217   0.292 -0.2240  0.0074 -0.1412
 4458SOL     OW17597   1.512   2.000   0.646 -0.1359 -0.0976 -0.2428
 4458SOL    HW217598   1.549   1.921   0.608 -0.1608 -0.0148 -0.4417
 4458SOL    HW317599   1.453   2.034   0.579  0.2319  0.3439 -0.3488
 4458SOL    MW417600   1.509   1.994   0.632 -0.0907 -0.0284 -0.2830
 4459SOL     OW17601   1.098   1.153   4.328 -0.4947  0.0149  0.2599
 4459SOL    HW217602   1.163   1.177   4.394  1.5392 -2.1959 -0.8168
 4459SOL    HW317603   1.049   1.081   4.367  0.4294 -1.0079 -0.3883
 4459SOL    MW417604   1.100   1.147   4.342 -0.1044 -0.4117  0.0323
 4460SOL     OW17605   4.965   5.742   5.418  0.3602 -0.2564  0.6819
 4460SOL    HW217606   5.020   5.668   5.444 -1.6012 -1.5327  1.4990
 4460SOL    HW317607   4.958   5.796   5.497 -0.0550 -0.4312  0.7661
 4460SOL    MW417608   4.971   5.740   5.432  0.0467 -0.4479  0.8008
 4461SOL     OW17609   1.623   2.322   1.463  0.3745  0.0583 -0.4027
 4461SOL    HW217610   1.601   2.235   1.428  1.1082  0.6696 -2.5931
 4461SOL    HW317611   1.603   2.382   1.391 -1.4695  1.9277  1.5616
 4461SOL    MW417612   1.618   2.318   1.449  0.2280  0.3856 -0.4325
 4462SOL     OW17613   3.006   5.170   3.217  0.7571  0.0865  0.3664
 4462SOL    HW217614   2.979   5.164   3.126  1.4548  0.5860  0.1101
 4462SOL    HW317615   2.987   5.261   3.241  0.8844  0.0494  0.6114
 4462SOL    MW417616   3.000   5.182   3.208  0.8659  0.1475  0.3649
 4463SOL     OW17617   5.915   4.735   5.805  0.1436  0.1075  0.8238
 4463SOL    HW217618   5.882   4.751   5.716  2.7262  0.7019 -0.1365
 4463SOL    HW317619   5.879   4.806   5.857 -0.7405  0.2385  0.0667
 4463SOL    MW417620   5.906   4.746   5.800  0.3677  0.2032  0.5972
 4464SOL     OW17621   4.000   5.943   2.284  0.5456  0.1616  0.3793
 4464SOL    HW217622   3.927   5.947   2.222  0.9829  1.9790 -0.0490
 4464SOL    HW317623   3.958   5.943   2.371  0.0020 -0.7593  0.1389
 4464SOL    MW417624   3.985   5.943   2.288  0.5316  0.2799  0.2911
 4465SOL     OW17625   3.876   2.749   3.863  0.3802 -0.3187 -0.0584
 4465SOL    HW217626   3.937   2.709   3.801 -0.4982 -0.5624 -0.7762
 4465SOL    HW317627   3.929   2.813   3.911  1.0294 -0.0108 -1.1668
 4465SOL    MW417628   3.891   2.752   3.861  0.3500 -0.3102 -0.2993
 4466SOL     OW17629   4.913   4.492   2.490  0.3571  0.0701  0.4929
 4466SOL    HW217630   4.915   4.562   2.556 -1.1071  0.4612  0.1592
 4466SOL    HW317631   4.877   4.416   2.537 -2.1929  0.7829 -0.1804
 4466SOL    MW417632   4.908   4.491   2.505 -0.1726  0.2157  0.3600
 4467SOL     OW17633   6.231   5.882   4.285  0.0319  0.2028  0.3476
 4467SOL    HW217634   6.198   5.849   4.369 -0.0505  1.0822  0.6734
 4467SOL    HW317635   6.271   5.967   4.306  0.5139  0.1781 -0.4113
 4467SOL    MW417636   6.232   5.889   4.299  0.0846  0.3156  0.2905
 4468SOL     OW17637   2.220   1.525   5.217  0.3949 -0.2285 -0.2525
 4468SOL    HW217638   2.139   1.567   5.244  0.6083  0.4698 -0.6654
 4468SOL    HW317639   2.253   1.483   5.296 -0.5076 -0.7627 -0.1469
 4468SOL    MW417640   2.214   1.525   5.231  0.3040 -0.2069 -0.2930
 4469SOL     OW17641   2.826   1.870   6.326 -0.4503 -0.4003  0.6756
 4469SOL    HW217642   2.877   1.927   6.383 -1.0911 -1.4229  2.3347
 4469SOL    HW317643   2.765   1.929   6.282 -0.3816  0.3327  1.5295
 4469SOL    MW417644   2.825   1.885   6.328 -0.5258 -0.4385  1.0072
 4470SOL     OW17645   5.050   2.920   6.053  0.0107 -0.0870 -0.3237
 4470SOL    HW217646   4.969   2.904   6.102 -0.3822  1.3896 -0.4446
 4470SOL    HW317647   5.115   2.865   6.096 -0.4067  0.8564  1.6459
 4470SOL    MW417648   5.048   2.911   6.065 -0.0962  0.2323 -0.0798
 4471SOL     OW17649   5.848   5.166   3.152  0.2750  0.2501 -0.0064
 4471SOL    HW217650   5.794   5.093   3.124  1.1244 -0.8883  1.2197
 4471SOL    HW317651   5.788   5.226   3.197 -0.1987 -0.3278  0.1304
 4471SOL    MW417652   5.833   5.165   3.154  0.3245  0.0237  0.1734
 4472SOL     OW17653   2.007   4.731   6.101  0.7862 -0.0764  0.2314
 4472SOL    HW217654   1.912   4.735   6.116  0.8431 -0.7959  0.8086
 4472SOL    HW317655   2.042   4.686   6.177  1.9432  2.5677  1.3927
 4472SOL    MW417656   1.999   4.725   6.113  0.9464  0.1775  0.4608
 4473SOL     OW17657   0.762   6.177   1.380  0.3145  0.1951 -0.4303
 4473SOL    HW217658   0.820   6.109   1.346  0.2658 -0.1477  0.1537
 4473SOL    HW317659   0.682   6.169   1.328  0.8290  0.7692 -1.3404
 4473SOL    MW417660   0.759   6.167   1.369  0.3759  0.2256 -0.4733
 4474SOL     OW17661   2.065   0.712   1.273  0.2045 -0.2696  0.4331
 4474SOL    HW217662   2.072   0.805   1.256  3.7997 -0.6622 -0.9921
 4474SOL    HW317663   1.989   0.684   1.221  0.0984  1.5756 -0.4785
 4474SOL    MW417664   2.056   0.720   1.264  0.6648 -0.0779  0.1248
 4475SOL     OW17665  -0.013   5.859   5.978 -0.2781  0.1917  0.1610
 4475SOL    HW217666  -0.058   5.850   6.062 -0.6141  0.7660  0.0511
 4475SOL    HW317667  -0.080   5.892   5.919  0.3013  1.1343  0.0076
 4475SOL    MW417668  -0.028   5.862   5.981 -0.2459  0.3918  0.1262
 4476SOL     OW17669   4.664   5.487   2.999 -0.2161 -0.5906  0.9066
 4476SOL    HW217670   4.614   5.541   3.061 -0.5137 -1.0481  1.0792
 4476SOL    HW317671   4.652   5.397   3.032  0.5785 -0.7264  0.8473
 4476SOL    MW417672   4.656   5.482   3.012 -0.1506 -0.6689  0.9216
 4477SOL     OW17673   3.426   6.239   1.465 -0.3385  0.1094  0.1453
 4477SOL    HW217674   3.344   6.287   1.477 -0.3418  0.2066 -0.2342
 4477SOL    HW317675   3.488   6.306   1.435  0.2046  0.2817  1.5483
 4477SOL    MW417676   3.423   6.254   1.463 -0.2673  0.1450  0.2803
 4478SOL     OW17677   5.965   0.564   4.387 -0.9677 -0.3556 -0.0225
 4478SOL    HW217678   5.962   0.503   4.460  0.3585 -1.4732 -0.8356
 4478SOL    HW317679   5.889   0.542   4.333 -0.3950 -1.4556 -0.4086
 4478SOL    MW417680   5.955   0.553   4.389 -0.7172 -0.6482 -0.1807
 4479SOL     OW17681   2.446   0.220   3.366 -0.5034  0.2427  0.5272
 4479SOL    HW217682   2.522   0.193   3.417 -0.8022 -0.2180  0.7373
 4479SOL    HW317683   2.372   0.174   3.406 -0.9039  0.7263  0.3609
 4479SOL    MW417684   2.446   0.210   3.378 -0.5957  0.2457  0.5330
 4480SOL     OW17685   0.630   4.982   1.099  0.5992  0.1288  0.0487
 4480SOL    HW217686   0.685   4.943   1.167 -0.6921 -0.9910  0.5093
 4480SOL    HW317687   0.636   5.076   1.113  2.1518  0.0198  0.2510
 4480SOL    MW417688   0.638   4.989   1.110  0.6336 -0.0333  0.1362
 4481SOL     OW17689   1.508   1.158   4.265 -0.0410 -0.3732 -0.6064
 4481SOL    HW217690   1.541   1.103   4.193 -0.0846 -1.0785 -0.0997
 4481SOL    HW317691   1.499   1.245   4.226  1.5017 -0.3720 -1.0176
 4481SOL    MW417692   1.511   1.162   4.250  0.1568 -0.4661 -0.5938
 4482SOL     OW17693   4.434   0.087  -0.017  0.0162  0.1855  0.4453
 4482SOL    HW217694   4.462  -0.003  -0.028 -0.7451  0.1340 -1.4496
 4482SOL    HW317695   4.512   0.139  -0.034  0.1737 -0.0763  0.3637
 4482SOL    MW417696   4.448   0.082  -0.021 -0.0635  0.1442  0.1845
 4483SOL     OW17697   5.558   0.485   2.030 -0.7126 -0.2083  0.1104
 4483SOL    HW217698   5.529   0.533   1.952  0.4592  0.5699  0.1377
 4483SOL    HW317699   5.583   0.399   1.996  0.2791  0.2923 -0.4838
 4483SOL    MW417700   5.557   0.480   2.015 -0.4271 -0.0396  0.0356
 4484SOL     OW17701   3.020   4.807   6.170  0.1780 -0.3490 -0.0171
 4484SOL    HW217702   2.936   4.849   6.152  0.4154 -0.7240 -2.2556
 4484SOL    HW317703   3.072   4.874   6.212  0.5731  1.7586 -3.5098
 4484SOL    MW417704   3.015   4.821   6.173  0.2615 -0.1204 -0.7733
 4485SOL     OW17705  -0.003   5.153   1.995 -0.0961  0.2425  0.4858
 4485SOL    HW217706   0.053   5.095   1.943  0.4763  1.4125 -0.2436
 4485SOL    HW317707   0.007   5.239   1.954  0.3079  1.1988  2.4621
 4485SOL    MW417708   0.006   5.157   1.982  0.0327  0.5230  0.6503
 4486SOL     OW17709   5.457   3.278   4.090 -0.2415  0.8863  0.5011
 4486SOL    HW217710   5.544   3.278   4.129 -0.0698  0.5193  0.1240
 4486SOL    HW317711   5.431   3.370   4.091  0.0403  0.9647  0.8566
 4486SOL    MW417712   5.465   3.290   4.095 -0.1817  0.8482  0.4982
 4487SOL     OW17713   6.192   4.049   1.805  0.0687  0.5992 -0.3000
 4487SOL    HW217714   6.203   4.129   1.754 -1.8422  1.0230 -0.1269
 4487SOL    HW317715   6.204   4.077   1.896  0.9495  0.3483 -0.3263
 4487SOL    MW417716   6.195   4.063   1.810 -0.0672  0.6220 -0.2806
 4488SOL     OW17717   5.396   3.861   4.329  0.2111 -0.0689  0.2057
 4488SOL    HW217718   5.394   3.777   4.284 -0.3374 -0.5967  1.1647
 4488SOL    HW317719   5.368   3.924   4.263 -2.4057 -1.0636  0.2542
 4488SOL    MW417720   5.392   3.858   4.315 -0.2066 -0.2698  0.3387
 4489SOL     OW17721   1.194   4.399   2.456 -0.7243  0.3760  0.8472
 4489SOL    HW217722   1.230   4.447   2.531  1.0593  1.7706 -0.8032
 4489SOL    HW317723   1.261   4.407   2.388 -1.7562 -1.8379 -0.5501
 4489SOL    MW417724   1.208   4.406   2.457 -0.6251  0.2679  0.4451
 4490SOL     OW17725   2.938   0.875   2.009  1.0173 -0.0738 -0.1155
 4490SOL    HW217726   2.935   0.916   1.923 -0.7532 -2.3800 -1.2464
 4490SOL    HW317727   2.846   0.872   2.037  1.1718 -2.2581  0.3382
 4490SOL    MW417728   2.925   0.880   2.001  0.8041 -0.6663 -0.2048
 4491SOL     OW17729   0.253   2.504   2.365 -0.4163 -0.5050 -0.2867
 4491SOL    HW217730   0.191   2.577   2.365  0.0959 -0.0668  0.1538
 4491SOL    HW317731   0.314   2.524   2.294 -0.6752 -0.8493 -0.6081
 4491SOL    MW417732   0.253   2.516   2.356 -0.3829 -0.4926 -0.2710
 4492SOL     OW17733   5.272   2.442   6.290 -0.4519 -0.1294  0.6409
 4492SOL    HW217734   5.358   2.401   6.278  0.1485  0.9379  1.1777
 4492SOL    HW317735   5.224   2.418   6.210  0.2328 -0.9776  0.4584
 4492SOL    MW417736   5.277   2.433   6.278 -0.2823 -0.1005  0.6876
 4493SOL     OW17737   0.874   0.483   5.018  0.1442 -0.0141 -0.2363
 4493SOL    HW217738   0.899   0.575   5.014 -1.0842  0.3050 -2.0269
 4493SOL    HW317739   0.953   0.435   4.992  0.3930  0.6318 -0.7022
 4493SOL    MW417740   0.887   0.489   5.014  0.0149  0.1132 -0.5341
 4494SOL     OW17741   3.732   3.747   2.068 -0.3440 -0.0623  0.5559
 4494SOL    HW217742   3.779   3.823   2.101 -0.2522  0.1269  0.0025
 4494SOL    HW317743   3.682   3.715   2.143 -1.1731  1.1502  0.5428
 4494SOL    MW417744   3.731   3.753   2.082 -0.4413  0.1227  0.4812
 4495SOL     OW17745   6.386   0.417   1.808 -0.3921  0.4339 -0.4899
 4495SOL    HW217746   6.471   0.380   1.786 -0.2531  0.4879 -0.0603
 4495SOL    HW317747   6.339   0.420   1.725 -0.7986 -1.6776 -0.4014
 4495SOL    MW417748   6.391   0.412   1.795 -0.4274  0.1624 -0.4215
 4496SOL     OW17749   3.447   2.381   2.862  0.4724 -0.7880  0.2081
 4496SOL    HW217750   3.494   2.390   2.779 -0.6417  0.9455 -0.2844
 4496SOL    HW317751   3.394   2.302   2.852  0.8224 -0.9317 -0.4929
 4496SOL    MW417752   3.446   2.372   2.850  0.3716 -0.5782  0.0507
 4497SOL     OW17753   2.307   3.576   5.744 -0.1160 -0.5020  0.3282
 4497SOL    HW217754   2.346   3.501   5.699  0.6691  0.6613 -0.9998
 4497SOL    HW317755   2.319   3.649   5.684 -0.4160  0.8026  1.7960
 4497SOL    MW417756   2.314   3.575   5.730 -0.0520 -0.1764  0.3467
 4498SOL     OW17757   4.871   4.785   2.893  0.3125  0.0602 -0.4801
 4498SOL    HW217758   4.940   4.842   2.860  0.2599  0.7723  0.5589
 4498SOL    HW317759   4.846   4.825   2.977 -0.7448 -0.6772 -0.4218
 4498SOL    MW417760   4.876   4.798   2.900  0.1661  0.0569 -0.3353
 4499SOL     OW17761   2.035   5.341   4.760 -0.0531  0.1912  0.6633
 4499SOL    HW217762   1.948   5.362   4.794  0.1387  1.3918  0.4375
 4499SOL    HW317763   2.031   5.247   4.740 -1.1551  0.1483  1.0520
 4499SOL    MW417764   2.023   5.331   4.762 -0.1732  0.3440  0.6848
 4500SOL     OW17765   6.386   5.816   3.052 -0.2584  0.2168 -0.1855
 4500SOL    HW217766   6.345   5.828   2.966 -0.4057 -0.1803 -0.1756
 4500SOL    HW317767   6.479   5.804   3.032 -0.4686 -1.2181 -0.4163
 4500SOL    MW417768   6.393   5.816   3.038 -0.3056 -0.0249 -0.2146
 4501SOL     OW17769   2.326   0.832   0.408  0.1070 -0.5846  0.2957
 4501SOL    HW217770   2.296   0.765   0.469  1.1988  0.8902  2.5837
 4501SOL    HW317771   2.245   0.876   0.379 -0.4027 -0.9837  1.0920
 4501SOL    MW417772   2.311   0.829   0.412  0.1838 -0.4427  0.7026
 4502SOL     OW17773   3.327   5.974   1.484 -0.7481  0.4674  1.0445
 4502SOL    HW217774   3.335   6.062   1.447 -0.8799  0.7326  1.6367
 4502SOL    HW317775   3.319   5.917   1.408  0.5743  0.8304  0.6021
 4502SOL    MW417776   3.327   5.978   1.469 -0.5910  0.5503  1.0643
 4503SOL     OW17777   5.618   2.367   2.836  0.1889  0.4662 -0.3274
 4503SOL    HW217778   5.711   2.391   2.836  0.3089  0.0085 -0.3181
 4503SOL    HW317779   5.605   2.323   2.920  0.7536 -2.4399 -1.6217
 4503SOL    MW417780   5.629   2.364   2.847  0.2793  0.0224 -0.4970
 4504SOL     OW17781   4.532   4.813   3.256 -0.0280 -0.0697 -0.4574
 4504SOL    HW217782   4.465   4.862   3.208  0.0172  0.1292 -0.3192
 4504SOL    HW317783   4.615   4.845   3.221  0.0038 -2.1452 -2.4844
 4504SOL    MW417784   4.534   4.824   3.245 -0.0179 -0.3173 -0.7066
 4505SOL     OW17785   5.110   4.879   3.836 -0.1013 -0.0317  0.3318
 4505SOL    HW217786   5.057   4.917   3.906  1.6477  0.5223  1.4303
 4505SOL    HW317787   5.167   4.951   3.808 -0.0151 -0.5577 -0.9088
 4505SOL    MW417788   5.111   4.894   3.841  0.1409 -0.0280  0.3131
 4506SOL     OW17789   3.288   6.089   0.841 -0.5839 -0.5650 -0.1430
 4506SOL    HW217790   3.260   6.030   0.910  0.3311  0.4189  1.1224
 4506SOL    HW317791   3.352   6.037   0.790  0.4394 -0.6066  1.1285
 4506SOL    MW417792   3.293   6.074   0.843 -0.3282 -0.4406  0.1917
 4507SOL     OW17793   3.091   1.101   0.502 -0.0509 -0.1429 -0.4307
 4507SOL    HW217794   3.126   1.015   0.525  2.7706  1.3059  1.2509
 4507SOL    HW317795   3.168   1.157   0.495 -1.5891  1.8898 -3.5268
 4507SOL    MW417796   3.106   1.097   0.504  0.1184  0.3164 -0.6174
 4508SOL     OW17797   5.694   4.435   3.982  0.7259 -0.2224  0.0578
 4508SOL    HW217798   5.778   4.439   3.936  0.8821 -0.0489  0.3503
 4508SOL    HW317799   5.683   4.522   4.020  0.2357 -0.1339 -0.2819
 4508SOL    MW417800   5.704   4.447   3.981  0.6818 -0.1879  0.0516
 4509SOL     OW17801   4.272   0.127   3.658 -0.0941 -0.0914  0.0147
 4509SOL    HW217802   4.305   0.199   3.604 -2.1416 -0.0325 -1.2678
 4509SOL    HW317803   4.177   0.135   3.653 -0.3810 -2.7424  0.0537
 4509SOL    MW417804   4.264   0.138   3.650 -0.4021 -0.4334 -0.1493
 4510SOL     OW17805   1.163   3.216   4.098  0.3917 -0.4808 -0.1784
 4510SOL    HW217806   1.127   3.294   4.055  0.2736  0.4898  1.5923
 4510SOL    HW317807   1.118   3.143   4.056  0.2997  0.3953 -1.6928
 4510SOL    MW417808   1.152   3.217   4.087  0.3640 -0.2372 -0.1446
 4511SOL     OW17809   2.699   5.010   0.266 -0.3178 -0.0132 -0.0040
 4511SOL    HW217810   2.687   5.082   0.205  1.1209  0.3162  0.0576
 4511SOL    HW317811   2.775   5.036   0.319  0.5328 -1.7451 -0.2867
 4511SOL    MW417812   2.708   5.023   0.265 -0.0158 -0.1982 -0.0332
 4512SOL     OW17813   1.001   4.959   4.119  0.3940 -0.0330  0.1074
 4512SOL    HW217814   1.073   4.896   4.112 -0.0535 -0.4744 -0.5913
 4512SOL    HW317815   1.041   5.043   4.097  1.4457  0.3028  2.8441
 4512SOL    MW417816   1.016   4.961   4.116  0.4737 -0.0470  0.3763
 4513SOL     OW17817   3.813   3.614   5.137 -0.0554  0.5582  0.4221
 4513SOL    HW217818   3.793   3.648   5.050  1.5311  0.9524  0.1742
 4513SOL    HW317819   3.898   3.571   5.127  1.0255  2.1509  2.1438
 4513SOL    MW417820   3.822   3.612   5.124  0.2966  0.8203  0.6165
 4514SOL     OW17821   0.861   4.608   5.654  0.5065  0.3689  0.3756
 4514SOL    HW217822   0.941   4.561   5.630 -0.1260 -1.4982  1.6620
 4514SOL    HW317823   0.890   4.673   5.718  0.8480 -1.3601  2.0529
 4514SOL    MW417824   0.875   4.610   5.659  0.4681 -0.1056  0.7666
 4515SOL     OW17825   0.948   4.952   0.895  0.8870  0.2793 -0.3678
 4515SOL    HW217826   0.854   4.942   0.887  0.9292 -0.2800 -0.2213
 4515SOL    HW317827   0.966   4.937   0.988  1.3259 -1.5347 -0.7111
 4515SOL    MW417828   0.938   4.949   0.906  0.9505 -0.0338 -0.3937
 4516SOL     OW17829   0.526   0.015   0.954  0.4518 -0.2018 -0.1621
 4516SOL    HW217830   0.580  -0.061   0.934 -1.4266 -1.4643 -0.7444
 4516SOL    HW317831   0.451   0.008   0.895 -0.6477  1.1268  0.9840
 4516SOL    MW417832   0.523   0.004   0.944  0.0589 -0.1931 -0.0877
 4517SOL     OW17833   5.145   4.482  -0.019  0.4634 -0.4236 -0.3125
 4517SOL    HW217834   5.130   4.544   0.052  0.3693 -0.1307 -0.5849
 4517SOL    HW317835   5.057   4.453  -0.045  0.5239 -0.9901  0.0894
 4517SOL    MW417836   5.131   4.486  -0.013  0.4590 -0.4597 -0.2954
 4518SOL     OW17837   6.210   5.647   1.682  0.2229 -0.5627 -0.0892
 4518SOL    HW217838   6.150   5.677   1.750 -2.4979 -1.2303 -1.9794
 4518SOL    HW317839   6.193   5.553   1.675 -0.5376 -0.3290 -2.4081
 4518SOL    MW417840   6.200   5.639   1.690 -0.2364 -0.6200 -0.6445
 4519SOL     OW17841   4.923   5.262   5.377 -0.6714  0.0393 -0.6238
 4519SOL    HW217842   4.867   5.327   5.420 -2.0168 -0.9070 -0.8484
 4519SOL    HW317843   4.876   5.240   5.296  0.1471 -0.6244 -0.9283
 4519SOL    MW417844   4.909   5.267   5.372 -0.7409 -0.1731 -0.6936
 4520SOL     OW17845   0.202   1.172   1.597  0.3637 -0.1175  0.1842
 4520SOL    HW217846   0.174   1.183   1.688 -0.2458 -2.6006  0.3884
 4520SOL    HW317847   0.137   1.112   1.560  2.7708 -2.3182 -0.7266
 4520SOL    MW417848   0.190   1.166   1.604  0.6009 -0.7355  0.0910
 4521SOL     OW17849   4.120   3.100   0.713 -1.0184 -0.0754  0.4496
 4521SOL    HW217850   4.165   3.067   0.791 -0.7159 -0.6183  0.0522
 4521SOL    HW317851   4.046   3.040   0.701 -0.9297 -0.1356  0.1873
 4521SOL    MW417852   4.116   3.088   0.722 -0.9668 -0.1550  0.3626
 4522SOL     OW17853   2.631   1.060   4.049  0.0226 -0.2119  0.2856
 4522SOL    HW217854   2.582   1.082   4.128 -2.5957 -1.7842 -0.7948
 4522SOL    HW317855   2.566   1.025   3.989  2.0552  0.1792 -2.3152
 4522SOL    MW417856   2.616   1.058   4.052 -0.0547 -0.3677 -0.2001
 4523SOL     OW17857   2.006   5.418   2.542  0.6595  0.9812  0.5762
 4523SOL    HW217858   2.029   5.336   2.585 -0.5537  0.5192  0.3804
 4523SOL    HW317859   2.033   5.406   2.451 -1.9926 -0.3224 -0.1210
 4523SOL    MW417860   2.013   5.406   2.536  0.1495  0.7483  0.4584
 4524SOL     OW17861   0.424   4.898   1.484 -0.1746  0.1168  0.1802
 4524SOL    HW217862   0.452   4.862   1.400 -1.2577 -1.0155  0.2662
 4524SOL    HW317863   0.340   4.856   1.500 -0.6159  1.3340  1.2018
 4524SOL    MW417864   0.416   4.888   1.475 -0.3757  0.1280  0.3264
 4525SOL     OW17865   4.920   2.735   0.800  0.1016  0.7217 -0.0530
 4525SOL    HW217866   4.846   2.710   0.746 -0.7693  0.2392  1.3095
 4525SOL    HW317867   4.997   2.709   0.749 -0.6976 -0.2827 -0.7855
 4525SOL    MW417868   4.921   2.728   0.786 -0.1187  0.5255  0.0302
 4526SOL     OW17869   1.672   1.487   0.951 -0.0283  0.8076 -0.0540
 4526SOL    HW217870   1.585   1.473   0.987  0.8690 -0.9719  1.6380
 4526SOL    HW317871   1.674   1.433   0.872 -0.4245  0.7741 -0.0438
 4526SOL    MW417872   1.661   1.478   0.945  0.0378  0.5684  0.1706
 4527SOL     OW17873   1.556   1.679   3.138  0.3740 -0.6556 -0.2613
 4527SOL    HW217874   1.464   1.692   3.162  0.1230  0.4627 -1.6692
 4527SOL    HW317875   1.588   1.613   3.199 -0.7525  0.5154  1.6873
 4527SOL    MW417876   1.548   1.672   3.149  0.1922 -0.3536 -0.1900
 4528SOL     OW17877   2.303   1.039   3.197  0.2197 -0.5443  0.4733
 4528SOL    HW217878   2.240   0.989   3.249 -0.7262  0.3700  0.2323
 4528SOL    HW317879   2.374   0.977   3.179 -0.0313 -1.2434  1.7695
 4528SOL    MW417880   2.304   1.024   3.202  0.0618 -0.5159  0.6125
 4529SOL     OW17881   3.350   1.039   1.013 -0.6020 -0.7534  0.0784
 4529SOL    HW217882   3.416   0.978   1.046  0.0155 -0.9739 -1.4579
 4529SOL    HW317883   3.331   1.096   1.087  3.0224  0.8180  0.0026
 4529SOL    MW417884   3.356   1.038   1.027 -0.0423 -0.5752 -0.1343
 4530SOL     OW17885   2.230   6.342   0.469  0.2390 -0.1892 -0.9075
 4530SOL    HW217886   2.191   6.415   0.517 -1.6375 -1.9648  0.4727
 4530SOL    HW317887   2.179   6.337   0.388 -1.7008 -1.6992  0.3173
 4530SOL    MW417888   2.218   6.351   0.464 -0.2645 -0.6227 -0.5638
 4531SOL     OW17889   1.172   3.759   1.885  0.1068 -0.4908 -0.4534
 4531SOL    HW217890   1.208   3.704   1.954  0.2770  1.0617  0.7481
 4531SOL    HW317891   1.198   3.848   1.908 -0.9289  0.2241 -1.8287
 4531SOL    MW417892   1.180   3.764   1.897 -0.0074 -0.1916 -0.4764
 4532SOL     OW17893   5.358   6.210   3.722  0.0792  0.8751 -0.2802
 4532SOL    HW217894   5.359   6.304   3.702 -0.7736  0.8466 -0.4767
 4532SOL    HW317895   5.289   6.201   3.788  1.2642  0.6215  0.9678
 4532SOL    MW417896   5.349   6.221   3.728  0.1230  0.8379 -0.1415
 4533SOL     OW17897   1.396   0.862   0.833  0.3116 -0.1380  0.5455
 4533SOL    HW217898   1.379   0.835   0.923 -1.1114 -0.5713  0.1761
 4533SOL    HW317899   1.331   0.813   0.781  1.0348  0.1805 -0.6983
 4533SOL    MW417900   1.385   0.852   0.838  0.2193 -0.1532  0.3327
 4534SOL     OW17901   5.807   5.498   2.804  0.3109 -0.0852  0.4157
 4534SOL    HW217902   5.726   5.550   2.800 -0.1135 -0.5999  1.9300
 4534SOL    HW317903   5.872   5.558   2.841  0.0311 -0.3621  1.3741
 4534SOL    MW417904   5.805   5.513   2.808  0.2180 -0.1896  0.7419
 4535SOL     OW17905   3.580   2.241   4.546  0.1095  0.3329 -0.0546
 4535SOL    HW217906   3.636   2.274   4.616  0.9120 -1.8360  0.4210
 4535SOL    HW317907   3.492   2.241   4.583  0.3625  0.2805  0.5523
 4535SOL    MW417908   3.576   2.245   4.560  0.2488  0.0398  0.0882
 4536SOL     OW17909   1.210   1.148   1.909 -0.7634  0.2049  0.3532
 4536SOL    HW217910   1.225   1.241   1.890 -1.0299 -0.2170 -2.3130
 4536SOL    HW317911   1.298   1.113   1.924 -0.4812  0.5817 -0.3441
 4536SOL    MW417912   1.224   1.156   1.908 -0.7613  0.1989 -0.0905
 4537SOL     OW17913   2.435   1.280   3.639  0.1186 -0.2291  0.3337
 4537SOL    HW217914   2.499   1.305   3.707  3.3637 -0.5252 -2.3470
 4537SOL    HW317915   2.385   1.360   3.623  0.3038  0.2654  1.9647
 4537SOL    MW417916   2.437   1.294   3.646  0.5712 -0.2030  0.1952
 4538SOL     OW17917   0.104   2.295   5.463  0.1469  0.3911  0.3918
 4538SOL    HW217918   0.119   2.373   5.517  0.7717 -0.4153  1.4092
 4538SOL    HW317919   0.145   2.317   5.379 -0.5994  1.5547  0.3019
 4538SOL    MW417920   0.112   2.308   5.459  0.1309  0.4382  0.5142
 4539SOL     OW17921   3.906   2.000   2.012 -0.1665  0.2261  0.6427
 4539SOL    HW217922   3.818   2.006   1.974  0.7743 -0.0135 -1.7709
 4539SOL    HW317923   3.963   2.038   1.945  1.5312  1.0510  2.4465
 4539SOL    MW417924   3.902   2.006   1.998  0.1816  0.3033  0.5622
 4540SOL     OW17925   3.191   4.995   6.353  0.3271  0.1967 -0.2030
 4540SOL    HW217926   3.146   4.958   6.429  0.9657 -3.3426 -1.3834
 4540SOL    HW317927   3.284   4.978   6.369  0.6761  1.3677 -0.8418
 4540SOL    MW417928   3.197   4.988   6.365  0.4574 -0.1158 -0.4430
 4541SOL     OW17929   3.602   3.660   5.684 -0.9949  0.0509 -0.0499
 4541SOL    HW217930   3.581   3.711   5.606 -2.6300  1.3142  1.1657
 4541SOL    HW317931   3.596   3.569   5.654  0.3928  0.4787 -1.8513
 4541SOL    MW417932   3.598   3.654   5.670 -1.0275  0.2741 -0.1272
 4542SOL     OW17933   5.099   3.567   0.915  0.5424 -0.3257  0.5937
 4542SOL    HW217934   5.174   3.550   0.859 -0.3907 -0.8113 -0.5685
 4542SOL    HW317935   5.102   3.661   0.932  0.9652 -0.2069 -0.1150
 4542SOL    MW417936   5.109   3.577   0.910  0.4751 -0.3741  0.3469
 4543SOL     OW17937   2.623   2.496   4.648  0.0379  0.3160  0.1931
 4543SOL    HW217938   2.550   2.518   4.591  0.0573  0.1369  0.0975
 4543SOL    HW317939   2.606   2.406   4.675  0.1739  0.3051  0.2449
 4543SOL    MW417940   2.611   2.487   4.644  0.0584  0.2909  0.1873
 4544SOL     OW17941   3.584   0.374   3.235 -0.2923  0.1927  0.0677
 4544SOL    HW217942   3.534   0.390   3.155 -0.7433 -0.9306  0.1066
 4544SOL    HW317943   3.519   0.359   3.303 -0.0587 -3.5541 -0.3327
 4544SOL    MW417944   3.569   0.374   3.233 -0.3210 -0.4499  0.0200
 4545SOL     OW17945   1.238   3.983   1.332  0.0806 -0.6780 -0.9893
 4545SOL    HW217946   1.244   3.901   1.382  2.6003 -1.1906 -1.9618
 4545SOL    HW317947   1.294   4.044   1.379 -0.7160  0.0860 -1.0181
 4545SOL    MW417948   1.246   3.980   1.345  0.3079 -0.6448 -1.1214
 4546SOL     OW17949   3.279   0.804   0.021 -0.9275  0.4385 -0.3758
 4546SOL    HW217950   3.230   0.810  -0.061 -0.4330 -1.5776 -0.8770
 4546SOL    HW317951   3.353   0.747  -0.000  0.8878  2.2310  0.7274
 4546SOL    MW417952   3.282   0.797   0.007 -0.6227  0.4090 -0.2963
 4547SOL     OW17953   3.027   4.148   5.736  0.8343 -0.2335 -0.4500
 4547SOL    HW217954   2.989   4.236   5.733 -1.4611 -1.0708  1.4387
 4547SOL    HW317955   3.121   4.163   5.744  0.4107  2.0930  0.9876
 4547SOL    MW417956   3.034   4.162   5.736  0.4755 -0.0370 -0.0111
 4548SOL     OW17957   5.621   1.260   4.762 -0.2321 -0.2374 -0.3134
 4548SOL    HW217958   5.705   1.306   4.770  0.4354 -1.4438 -0.0673
 4548SOL    HW317959   5.581   1.295   4.683  0.2367  0.7808 -0.1092
 4548SOL    MW417960   5.627   1.270   4.753 -0.0822 -0.2622 -0.2540
 4549SOL     OW17961   0.774   0.006   4.984 -0.2819 -0.7837 -0.1576
 4549SOL    HW217962   0.815  -0.063   5.035 -0.1918 -1.3022 -0.9175
 4549SOL    HW317963   0.842   0.033   4.922  0.5119  1.5964  1.5838
 4549SOL    MW417964   0.789   0.001   4.982 -0.1653 -0.5381 -0.0281
 4550SOL     OW17965   4.291   5.727   4.218  0.1757  0.1539  0.1658
 4550SOL    HW217966   4.325   5.811   4.188 -0.6905  0.2013 -0.7079
 4550SOL    HW317967   4.366   5.686   4.262  1.2302  0.4643 -1.2655
 4550SOL    MW417968   4.306   5.733   4.220  0.2005  0.2011 -0.1383
 4551SOL     OW17969   2.066   0.122   1.014  0.0497 -0.2847  0.1391
 4551SOL    HW217970   2.063   0.036   1.056 -1.5168 -0.7410 -0.7899
 4551SOL    HW317971   2.144   0.119   0.958  0.4664 -0.7848  0.7342
 4551SOL    MW417972   2.076   0.110   1.012 -0.1020 -0.4109  0.0950
 4552SOL     OW17973   0.608   3.385   2.328  0.1785 -0.4403 -0.2089
 4552SOL    HW217974   0.584   3.433   2.407  0.6467 -0.8361  0.1842
 4552SOL    HW317975   0.646   3.452   2.270 -2.5578  0.3706 -1.2075
 4552SOL    MW417976   0.610   3.400   2.331 -0.1208 -0.3855 -0.2888
 4553SOL     OW17977   5.685   3.411   1.611  0.3472 -0.3438  0.7433
 4553SOL    HW217978   5.614   3.366   1.566  0.9194 -0.6204  0.0834
 4553SOL    HW317979   5.761   3.399   1.553  0.7914  0.4353  1.1458
 4553SOL    MW417980   5.686   3.404   1.597  0.4813 -0.2775  0.7093
 4554SOL     OW17981   3.634   3.067   5.971 -0.1635  0.5348 -0.0531
 4554SOL    HW217982   3.700   3.126   6.008  0.3272 -0.3612  0.5531
 4554SOL    HW317983   3.552   3.092   6.015 -0.1451  1.3438 -0.4634
 4554SOL    MW417984   3.632   3.078   5.982 -0.0963  0.5233 -0.0273
 4555SOL     OW17985   4.185   5.802   4.477 -0.0455  0.1541  0.3376
 4555SOL    HW217986   4.094   5.822   4.496 -0.0462 -0.4216  1.0071
 4555SOL    HW317987   4.186   5.774   4.385 -0.8375 -1.4712  0.7922
 4555SOL    MW417988   4.173   5.801   4.467 -0.1501 -0.1363  0.4859
 4556SOL     OW17989   0.669   1.324   0.877 -0.2104 -0.0512 -0.0833
 4556SOL    HW217990   0.673   1.284   0.964  1.2329  1.7260  0.7611
 4556SOL    HW317991   0.681   1.418   0.894  1.5364  0.2159 -2.2797
 4556SOL    MW417992   0.671   1.331   0.891  0.2105  0.2185 -0.2617
 4557SOL     OW17993   0.288   0.518   5.322 -0.0370 -0.2890 -0.4438
 4557SOL    HW217994   0.362   0.529   5.381 -0.4136 -0.5362  0.0828
 4557SOL    HW317995   0.252   0.432   5.344 -0.3324 -0.2787 -0.8607
 4557SOL    MW417996   0.293   0.508   5.332 -0.1257 -0.3203 -0.4293
 4558SOL     OW17997   3.498   5.951   0.650  0.4679  0.0216 -0.8183
 4558SOL    HW217998   3.589   5.921   0.658  0.6579  0.3609 -1.5886
 4558SOL    HW317999   3.501   6.017   0.581  0.0640  1.8940  0.8643
 4558SOL    MW418000   3.511   5.956   0.642  0.4396  0.3134 -0.6979
 4559SOL     OW18001   5.766   3.693   6.109  0.3620 -0.3190 -0.3705
 4559SOL    HW218002   5.817   3.695   6.190 -0.2165 -3.0658  0.1754
 4559SOL    HW318003   5.813   3.631   6.053 -0.2038  0.2110 -1.4701
 4559SOL    MW418004   5.779   3.685   6.112  0.2110 -0.6115 -0.4435
 4560SOL     OW18005   6.193   4.601   6.340  0.0408  0.5951  0.4932
 4560SOL    HW218006   6.244   4.669   6.297  0.3701  1.2646  1.8721
 4560SOL    HW318007   6.142   4.561   6.270  1.1028  1.1275 -0.6215
 4560SOL    MW418008   6.193   4.605   6.325  0.2244  0.7537  0.5280
 4561SOL     OW18009   4.516   0.065   0.265  0.3514 -0.4732  0.1487
 4561SOL    HW218010   4.489   0.068   0.173 -0.0461  2.1263  0.2870
 4561SOL    HW318011   4.612   0.063   0.262  0.3915  1.0141 -0.3600
 4561SOL    MW418012   4.525   0.065   0.252  0.3043  0.0660  0.0998
 4562SOL     OW18013   6.329   2.563   3.983 -0.5784  0.3045 -0.2150
 4562SOL    HW218014   6.414   2.585   3.945 -0.8957  2.6873  0.2980
 4562SOL    HW318015   6.346   2.487   4.038  1.0803  0.3855 -0.5616
 4562SOL    MW418016   6.342   2.556   3.985 -0.4014  0.6295 -0.1930
 4563SOL     OW18017   1.234   5.715   5.229 -0.2883 -0.1020  0.2894
 4563SOL    HW218018   1.188   5.631   5.230 -0.8057  0.1579 -0.6665
 4563SOL    HW318019   1.180   5.772   5.174  1.0618  0.2762 -0.7013
 4563SOL    MW418020   1.221   5.712   5.222 -0.1784 -0.0178  0.0325
 4564SOL     OW18021   5.542   5.190   1.066  0.5568  0.3125  0.2140
 4564SOL    HW218022   5.546   5.111   1.012 -1.1781  0.2003  0.1930
 4564SOL    HW318023   5.476   5.171   1.132 -1.0796  2.2736 -0.7362
 4564SOL    MW418024   5.534   5.177   1.068  0.1120  0.5564  0.0859
 4565SOL     OW18025   4.677   2.163   4.993  0.2312  0.0686 -0.4981
 4565SOL    HW218026   4.692   2.187   5.084 -1.0301  1.8085 -0.7018
 4565SOL    HW318027   4.721   2.078   4.983  2.0125  0.7256  1.1908
 4565SOL    MW418028   4.685   2.155   5.003  0.2998  0.3848 -0.3021
 4566SOL     OW18029   1.765   4.650   6.289 -0.1929 -0.3414 -0.5226
 4566SOL    HW218030   1.727   4.737   6.304  1.1387  0.1775 -0.0129
 4566SOL    HW318031   1.698   4.589   6.318 -1.2261  0.5017 -1.0618
 4566SOL    MW418032   1.751   4.653   6.294 -0.1536 -0.1617 -0.5265
 4567SOL     OW18033   0.895   6.259   5.138 -0.0520 -0.0950  0.5861
 4567SOL    HW218034   0.867   6.170   5.159  0.0951 -0.7111 -1.5555
 4567SOL    HW318035   0.939   6.290   5.217 -0.1739 -1.8908  1.3999
 4567SOL    MW418036   0.897   6.252   5.151 -0.0487 -0.4132  0.4109
 4568SOL     OW18037   0.325   5.902   3.181  0.1239  0.0291  0.4212
 4568SOL    HW218038   0.417   5.880   3.165  0.1896 -0.3506  1.2722
 4568SOL    HW318039   0.324   5.941   3.269 -0.0906  2.8820 -0.7601
 4568SOL    MW418040   0.337   5.904   3.191  0.1043  0.3554  0.3776
 4569SOL     OW18041   4.094   3.224   1.929 -0.6837 -0.1024 -0.4457
 4569SOL    HW218042   4.022   3.229   1.991 -0.3501  1.6760 -0.1557
 4569SOL    HW318043   4.062   3.272   1.852  0.4604  1.4803  0.0135
 4569SOL    MW418044   4.080   3.231   1.927 -0.4888  0.3410 -0.3469
 4570SOL     OW18045   5.099   5.850   1.563  0.1714  0.0212  0.3614
 4570SOL    HW218046   5.082   5.793   1.488  1.4539 -1.2175  0.9666
 4570SOL    HW318047   5.071   5.937   1.534 -0.4781 -0.6398 -1.1096
 4570SOL    MW418048   5.093   5.854   1.549  0.2549 -0.2295  0.2472
 4571SOL     OW18049   5.899   3.482   4.871  0.0865 -0.4564  0.4331
 4571SOL    HW218050   5.917   3.530   4.790  1.4053 -1.1411  0.2853
 4571SOL    HW318051   5.940   3.535   4.940 -1.0291  0.1227  0.6812
 4571SOL    MW418052   5.907   3.495   4.870  0.1133 -0.4703  0.4463
 4572SOL     OW18053   0.399   6.050   0.058  0.4849  0.4868 -0.6278
 4572SOL    HW218054   0.356   5.966   0.071  0.1871  0.5079 -1.3830
 4572SOL    HW318055   0.493   6.030   0.062  0.4177  0.3038  0.2149
 4572SOL    MW418056   0.406   6.037   0.060  0.4368  0.4654 -0.6162
 4573SOL     OW18057   3.761   3.652   3.148 -0.4307  0.0585  0.8826
 4573SOL    HW218058   3.777   3.605   3.066  0.0853 -0.5064  1.2943
 4573SOL    HW318059   3.841   3.703   3.162 -0.4985  0.1181  1.0593
 4573SOL    MW418060   3.774   3.652   3.139 -0.3716 -0.0082  0.9602
 4574SOL     OW18061   1.523   1.324   2.855 -0.0329 -0.0566  0.2923
 4574SOL    HW218062   1.540   1.419   2.854  0.1764 -0.0802  1.0315
 4574SOL    HW318063   1.559   1.293   2.772 -2.3709  0.8781 -1.1894
 4574SOL    MW418064   1.530   1.333   2.844 -0.3138  0.0636  0.1943
 4575SOL     OW18065   2.221   2.621   2.886  0.2723  0.0758  0.1932
 4575SOL    HW218066   2.201   2.634   2.978  2.7398 -0.0932  0.8365
 4575SOL    HW318067   2.195   2.703   2.844 -0.3885  0.3543  1.1361
 4575SOL    MW418068   2.215   2.634   2.892  0.5107  0.0902  0.4025
 4576SOL     OW18069   4.566   2.640   5.747  0.3570  0.2668  0.1420
 4576SOL    HW218070   4.599   2.550   5.756  0.7677  0.4444  0.4953
 4576SOL    HW318071   4.534   2.645   5.657  1.1183  0.0137 -0.1589
 4576SOL    MW418072   4.566   2.629   5.736  0.5116  0.2568  0.1489
 4577SOL     OW18073   2.024   3.529   5.781 -0.4723 -0.0440 -0.1326
 4577SOL    HW218074   1.995   3.470   5.712 -0.3899  2.4625 -2.4559
 4577SOL    HW318075   2.103   3.570   5.746  0.4409  0.2638  2.1161
 4577SOL    MW418076   2.031   3.526   5.767 -0.3410  0.3273 -0.1424
 4578SOL     OW18077   4.923   4.193   3.298 -0.1834  0.1365 -0.2468
 4578SOL    HW218078   4.904   4.110   3.253  0.2869 -0.0233 -0.1574
 4578SOL    HW318079   4.868   4.192   3.376  1.1201 -0.9260  0.7079
 4578SOL    MW418080   4.914   4.182   3.302  0.0506 -0.0248 -0.1091
 4579SOL     OW18081   3.189   5.136   2.797  0.4315  0.8895  0.5799
 4579SOL    HW218082   3.163   5.086   2.719  2.2797 -0.6567  0.8827
 4579SOL    HW318083   3.193   5.227   2.767  0.8441  0.3584 -1.0780
 4579SOL    MW418084   3.186   5.141   2.783  0.7298  0.6154  0.4011
 4580SOL     OW18085   0.931   2.552   6.220 -0.1225 -0.1720 -0.0514
 4580SOL    HW218086   0.849   2.552   6.171  0.1263 -3.0018 -0.6893
 4580SOL    HW318087   0.907   2.524   6.309 -0.0675  0.8962  0.3088
 4580SOL    MW418088   0.917   2.548   6.225 -0.0824 -0.4044 -0.0880
 4581SOL     OW18089   4.262   1.087   3.904 -0.4185  0.0163  0.4015
 4581SOL    HW218090   4.167   1.074   3.903 -0.3514 -0.8214  1.7972
 4581SOL    HW318091   4.274   1.178   3.879 -1.6234  0.2493  0.5900
 4581SOL    MW418092   4.251   1.097   3.901 -0.5686 -0.0635  0.6105
 4582SOL     OW18093   1.360   5.356   3.341 -0.2084  0.3920 -0.2423
 4582SOL    HW218094   1.395   5.404   3.266 -0.5925 -0.2690 -0.8576
 4582SOL    HW318095   1.269   5.385   3.348 -0.0712  0.7329  0.2130
 4582SOL    MW418096   1.352   5.366   3.332 -0.2410  0.3498 -0.2634
 4583SOL     OW18097   3.850   0.660   4.133  0.2761  0.4322  0.1755
 4583SOL    HW218098   3.927   0.686   4.083 -0.7077 -0.5031 -1.9560
 4583SOL    HW318099   3.822   0.741   4.177  1.8477  1.0083  0.1983
 4583SOL    MW418100   3.856   0.674   4.132  0.3537  0.3848 -0.1027
 4584SOL     OW18101   5.795   5.334   5.798 -0.3287  0.1801  0.3364
 4584SOL    HW218102   5.880   5.293   5.781 -0.6288 -0.0776 -0.6183
 4584SOL    HW318103   5.782   5.393   5.724 -0.2235  1.5299  1.3321
 4584SOL    MW418104   5.805   5.337   5.786 -0.3544  0.3242  0.3418
 4585SOL     OW18105   6.141   0.409   4.189  0.5215  0.3350  0.0096
 4585SOL    HW218106   6.204   0.354   4.236  0.0452 -1.6593 -1.5301
 4585SOL    HW318107   6.082   0.441   4.258  0.5593 -1.4678  0.9410
 4585SOL    MW418108   6.141   0.406   4.205  0.4637 -0.1660 -0.0706
 4586SOL     OW18109   3.425   4.800   0.393 -0.0341 -0.5398 -0.2401
 4586SOL    HW218110   3.492   4.805   0.461 -0.2228 -0.4067 -0.0651
 4586SOL    HW318111   3.388   4.712   0.402  1.0843 -1.1575 -1.2548
 4586SOL    MW418112   3.429   4.789   0.403  0.0886 -0.6037 -0.3509
 4587SOL     OW18113   0.252   4.676   5.703  0.0192 -0.5574 -0.1328
 4587SOL    HW218114   0.244   4.757   5.753 -3.1090 -1.2373  0.6678
 4587SOL    HW318115   0.181   4.680   5.640  0.1810 -2.4135 -0.4773
 4587SOL    MW418116   0.242   4.687   5.701 -0.3722 -0.8920 -0.0726
 4588SOL     OW18117   4.246   1.942   3.233 -0.1561  0.1026  1.0147
 4588SOL    HW218118   4.243   1.888   3.312 -1.6797 -0.1057  0.8423
 4588SOL    HW318119   4.306   1.895   3.174 -1.0963 -1.1801  1.0390
 4588SOL    MW418120   4.254   1.929   3.235 -0.4812 -0.0941  0.9952
 4589SOL     OW18121   4.914   5.624   6.311 -0.4134 -0.0229 -0.4393
 4589SOL    HW218122   4.872   5.538   6.308 -0.1280 -0.1917  0.1840
 4589SOL    HW318123   4.951   5.629   6.399 -2.2808  1.6466  0.3248
 4589SOL    MW418124   4.914   5.613   6.322 -0.6221  0.1751 -0.2562
 4590SOL     OW18125   5.431   5.688   3.717 -0.1084  1.2083  0.0035
 4590SOL    HW218126   5.340   5.668   3.695 -0.0508  2.8290 -1.9647
 4590SOL    HW318127   5.471   5.602   3.733 -1.4887  0.2930 -1.1632
 4590SOL    MW418128   5.424   5.674   3.716 -0.2830  1.3014 -0.4101
 4591SOL     OW18129   4.820   1.842   2.075  0.6849  0.5553 -0.1571
 4591SOL    HW218130   4.733   1.807   2.095  1.2923 -1.8955 -1.4296
 4591SOL    HW318131   4.855   1.869   2.160 -1.1099  1.1775  0.4341
 4591SOL    MW418132   4.813   1.841   2.089  0.5283  0.3140 -0.2470
 4592SOL     OW18133   2.601   4.380   3.567  0.4722 -0.1416  0.2915
 4592SOL    HW218134   2.572   4.462   3.529 -1.8992 -0.8815  0.3673
 4592SOL    HW318135   2.647   4.406   3.647  1.3181  1.1676 -0.5883
 4592SOL    MW418136   2.603   4.394   3.573  0.2710 -0.0665  0.1854
 4593SOL     OW18137   1.104   2.225   1.852 -0.1175  0.6265 -0.0312
 4593SOL    HW218138   1.091   2.293   1.786 -0.1113  0.7886  0.1348
 4593SOL    HW318139   1.198   2.207   1.851 -0.0928  0.7546  0.0599
 4593SOL    MW418140   1.114   2.231   1.843 -0.1134  0.6648  0.0027
 4594SOL     OW18141   4.837   0.523   4.940  0.2327  0.1691 -0.1696
 4594SOL    HW218142   4.783   0.595   4.972 -0.3108  0.0358 -0.7712
 4594SOL    HW318143   4.806   0.507   4.851  0.1488 -0.9945  0.0474
 4594SOL    MW418144   4.826   0.531   4.932  0.1499 -0.0020 -0.2204
 4595SOL     OW18145   0.838   0.939   3.746  0.6641  0.4996 -0.4185
 4595SOL    HW218146   0.853   0.846   3.729 -1.5496  0.0347 -0.1441
 4595SOL    HW318147   0.871   0.953   3.834  0.7908 -0.0755 -0.3710
 4595SOL    MW418148   0.844   0.929   3.755  0.3888  0.3624 -0.3760
 4596SOL     OW18149   5.293   1.266   2.659 -0.2704 -0.1650  0.2967
 4596SOL    HW218150   5.349   1.205   2.609 -0.4224  0.3053 -0.4668
 4596SOL    HW318151   5.332   1.268   2.746  1.9777  1.4440 -0.6536
 4596SOL    MW418152   5.306   1.258   2.664  0.0061  0.1094  0.0706
 4597SOL     OW18153   3.671   3.104   0.279 -0.4450  0.3891  0.0732
 4597SOL    HW218154   3.601   3.169   0.284 -1.2248 -0.5112  1.6520
 4597SOL    HW318155   3.720   3.116   0.361  1.8237  1.5511 -1.3319
 4597SOL    MW418156   3.669   3.114   0.291 -0.2486  0.4236  0.0961
 4598SOL     OW18157   1.998   3.358   1.831 -0.0973 -0.1694  0.3629
 4598SOL    HW218158   1.937   3.303   1.782  0.0936  0.1810 -0.2911
 4598SOL    HW318159   2.068   3.299   1.857 -0.5516 -0.5065  0.8326
 4598SOL    MW418160   1.999   3.343   1.828 -0.1320 -0.1677  0.3386
 4599SOL     OW18161   3.960   2.166   4.738  0.2112 -0.1649  0.3596
 4599SOL    HW218162   4.024   2.099   4.713  0.7131  0.3096  0.3583
 4599SOL    HW318163   3.877   2.118   4.746  0.7162 -0.9497  1.1911
 4599SOL    MW418164   3.957   2.151   4.736  0.3440 -0.2058  0.4691
 4600SOL     OW18165   4.886   5.195   4.827 -0.0079 -0.0638  0.1350
 4600SOL    HW218166   4.968   5.241   4.845 -0.6149  0.7389  0.9096
 4600SOL    HW318167   4.912   5.121   4.772  0.9487  1.3348 -1.3794
 4600SOL    MW418168   4.900   5.191   4.823  0.0382  0.2266  0.0374
 4601SOL     OW18169   1.688   3.558   0.997 -0.1053 -0.4570 -0.1359
 4601SOL    HW218170   1.595   3.561   0.973 -0.4874  0.5406  1.3820
 4601SOL    HW318171   1.692   3.499   1.072  0.7308 -1.6100 -1.0291
 4601SOL    MW418172   1.676   3.551   1.004 -0.0454 -0.4775 -0.0535
 4602SOL     OW18173   5.227   2.950   2.527  0.0439 -0.5282 -0.0068
 4602SOL    HW218174   5.184   2.963   2.442  1.0555 -3.0208 -0.9990
 4602SOL    HW318175   5.162   2.903   2.579 -0.2850  0.3107  0.3662
 4602SOL    MW418176   5.212   2.946   2.523  0.1340 -0.7464 -0.0885
 4603SOL     OW18177   5.900   1.870   1.941  0.3378  0.2997 -0.5536
 4603SOL    HW218178   5.951   1.826   2.009 -1.1471  1.2306  1.2301
 4603SOL    HW318179   5.866   1.799   1.887  2.0942 -0.4199 -0.7846
 4603SOL    MW418180   5.902   1.855   1.943  0.3737  0.3276 -0.3487
 4604SOL     OW18181   1.700   3.966   0.244 -0.2404  0.9405  0.1670
 4604SOL    HW218182   1.658   3.967   0.158 -0.0282 -0.0354  0.0369
 4604SOL    HW318183   1.741   3.879   0.250 -0.2613  0.9872  1.2550
 4604SOL    MW418184   1.700   3.955   0.234 -0.2152  0.8179  0.2934
 4605SOL     OW18185   0.032   2.309   2.710 -0.0002 -0.0671  0.1453
 4605SOL    HW218186  -0.039   2.350   2.661  2.5189  0.7105 -3.2193
 4605SOL    HW318187   0.031   2.218   2.681  0.4443 -0.0166 -0.0332
 4605SOL    MW418188   0.022   2.302   2.700  0.3908  0.0421 -0.3222
 4606SOL     OW18189   2.928   5.716   5.415  0.0555 -0.4883  0.2314
 4606SOL    HW218190   3.012   5.739   5.455  1.5235  0.4930 -3.1291
 4606SOL    HW318191   2.942   5.628   5.381 -0.3581 -0.3862 -0.2028
 4606SOL    MW418192   2.941   5.707   5.416  0.1946 -0.3454 -0.2693
 4607SOL     OW18193   5.639   4.530   4.654 -0.6780 -0.2317 -0.5610
 4607SOL    HW218194   5.632   4.464   4.723  1.8908  1.1447  1.1737
 4607SOL    HW318195   5.590   4.605   4.688 -2.1270 -0.5839 -1.7574
 4607SOL    MW418196   5.632   4.531   4.668 -0.5302 -0.0966 -0.4900
 4608SOL     OW18197   0.453   4.743   2.957 -0.0112 -0.1221 -0.1479
 4608SOL    HW218198   0.528   4.796   2.983  0.4955 -0.0615 -1.6592
 4608SOL    HW318199   0.488   4.654   2.946 -0.1667 -0.1078 -0.7947
 4608SOL    MW418200   0.467   4.738   2.959  0.0352 -0.1122 -0.4326
 4609SOL     OW18201   4.998   0.166   2.957  0.2003  0.3913 -0.4658
 4609SOL    HW218202   5.047   0.086   2.977  1.3242  1.1193 -0.2205
 4609SOL    HW318203   5.025   0.228   3.025 -3.5675 -0.1299  1.7749
 4609SOL    MW418204   5.008   0.164   2.969 -0.1485  0.4186 -0.1378
 4610SOL     OW18205   3.332   2.650   3.173 -0.2363 -1.1059  0.2833
 4610SOL    HW218206   3.271   2.714   3.210 -0.4691 -1.5858  0.7286
 4610SOL    HW318207   3.284   2.609   3.101  0.1976 -0.2113 -0.5389
 4610SOL    MW418208   3.318   2.653   3.169 -0.2097 -1.0512  0.2336
 4611SOL     OW18209   2.889   2.523   0.487  0.0270 -0.3515 -0.0805
 4611SOL    HW218210   2.852   2.438   0.462 -0.2458 -1.2908  3.1481
 4611SOL    HW318211   2.980   2.503   0.509  0.2497  0.4219 -0.2761
 4611SOL    MW418212   2.896   2.509   0.486  0.0204 -0.3734  0.3197
 4612SOL     OW18213   3.892   5.038   2.264 -1.1799 -0.2155  0.2594
 4612SOL    HW218214   3.956   4.984   2.217 -0.5088  0.9525 -0.1929
 4612SOL    HW318215   3.918   5.032   2.356 -0.8129 -0.2708  0.1535
 4612SOL    MW418216   3.904   5.030   2.270 -1.0429 -0.0687  0.1857
 4613SOL     OW18217   3.273   1.930   6.213 -0.3938 -0.0046  0.6020
 4613SOL    HW218218   3.224   2.012   6.208 -0.8241 -0.3179 -0.4704
 4613SOL    HW318219   3.292   1.907   6.123  2.2963  0.4145  0.9808
 4613SOL    MW418220   3.269   1.938   6.201 -0.0957  0.0093  0.5105
 4614SOL     OW18221   3.537   4.608   4.381 -0.3770  0.2017 -1.1022
 4614SOL    HW218222   3.549   4.681   4.441 -0.4086  0.9385 -1.9588
 4614SOL    HW318223   3.442   4.599   4.372 -0.3752 -0.0792 -0.8366
 4614SOL    MW418224   3.526   4.616   4.387 -0.3809  0.2619 -1.1802
 4615SOL     OW18225   0.179   3.548   3.990  0.2663  0.6351 -0.0631
 4615SOL    HW218226   0.234   3.479   3.954  0.6700  0.4737  0.8465
 4615SOL    HW318227   0.090   3.513   3.983  0.5889 -0.7667  1.9886
 4615SOL    MW418228   0.174   3.534   3.985  0.3621  0.4288  0.3276
 4616SOL     OW18229   6.356   4.315   4.398 -0.1327  0.1146 -0.1611
 4616SOL    HW218230   6.329   4.278   4.482  0.1916 -0.3027 -0.2407
 4616SOL    HW318231   6.397   4.243   4.351  0.8785  0.6544 -0.1541
 4616SOL    MW418232   6.358   4.301   4.403  0.0435  0.1307 -0.1707
 4617SOL     OW18233   0.644   6.291   5.454 -0.0676 -0.3024  0.1201
 4617SOL    HW218234   0.579   6.272   5.522 -0.1356  1.0904  0.4694
 4617SOL    HW318235   0.636   6.385   5.438  2.4961  0.0976  0.8289
 4617SOL    MW418236   0.634   6.301   5.461  0.2617 -0.0659  0.2597
 4618SOL     OW18237   3.491   0.413   0.885 -0.4386 -0.1252 -0.3424
 4618SOL    HW218238   3.545   0.370   0.951 -0.5398  1.0566  0.5249
 4618SOL    HW318239   3.406   0.369   0.892  0.1619 -1.4902 -1.2148
 4618SOL    MW418240   3.487   0.401   0.894 -0.3727 -0.1494 -0.3431
 4619SOL     OW18241   5.313   3.342   4.423 -1.4765 -0.4133  0.1838
 4619SOL    HW218242   5.271   3.402   4.485 -1.3198 -2.9044  2.9792
 4619SOL    HW318243   5.400   3.328   4.459 -0.6972 -0.6105 -1.6732
 4619SOL    MW418244   5.319   3.348   4.436 -1.3530 -0.7680  0.3076
 4620SOL     OW18245   3.349   3.088   5.581  0.1821 -0.0428 -0.4982
 4620SOL    HW218246   3.416   3.020   5.593 -0.2186 -0.5531 -1.0646
 4620SOL    HW318247   3.382   3.141   5.509 -0.1814 -0.5068 -1.0133
 4620SOL    MW418248   3.362   3.086   5.573  0.0813 -0.1713 -0.6409
 4621SOL     OW18249   6.131   3.803   6.029 -0.1942 -0.4437  0.2214
 4621SOL    HW218250   6.191   3.748   6.079 -2.0261 -1.7405  1.1383
 4621SOL    HW318251   6.134   3.888   6.073  0.0078 -0.8769  1.0674
 4621SOL    MW418252   6.139   3.807   6.042 -0.4092 -0.6720  0.4540
 4622SOL     OW18253   2.183   6.251   3.880 -0.7442  0.5726 -0.0160
 4622SOL    HW218254   2.166   6.338   3.915 -3.3308 -0.8301  2.7837
 4622SOL    HW318255   2.121   6.242   3.808 -2.3285  0.2811  1.3150
 4622SOL    MW418256   2.172   6.261   3.876 -1.2945  0.3490  0.5290
 4623SOL     OW18257   2.967   1.030   3.548  0.0831 -0.0250 -0.2261
 4623SOL    HW218258   2.909   1.105   3.550  1.1526  0.8612 -1.0286
 4623SOL    HW318259   3.022   1.038   3.626 -0.8628 -0.8851  0.5557
 4623SOL    MW418260   2.967   1.041   3.558  0.0994 -0.0216 -0.2288
 4624SOL     OW18261   4.887   3.041   3.577 -0.2097 -0.1015 -0.0262
 4624SOL    HW218262   4.927   2.966   3.620 -0.4018 -0.0222  0.2916
 4624SOL    HW318263   4.882   3.015   3.485  1.8282  0.4397 -0.3245
 4624SOL    MW418264   4.891   3.028   3.570  0.0338 -0.0197 -0.0236
 4625SOL     OW18265   3.790   0.007   2.347  0.5421 -0.1298 -0.3585
 4625SOL    HW218266   3.881  -0.012   2.370  1.2052  0.6198 -2.1343
 4625SOL    HW318267   3.780  -0.028   2.259 -1.2061 -1.0448  0.1720
 4625SOL    MW418268   3.801  -0.000   2.338  0.3989 -0.1516 -0.5228
 4626SOL     OW18269   3.901   0.881   2.400 -0.1438 -0.0713 -0.2581
 4626SOL    HW218270   3.928   0.859   2.489  0.9624 -0.8886 -0.7632
 4626SOL    HW318271   3.812   0.914   2.409  0.7587  2.1891  1.4423
 4626SOL    MW418272   3.893   0.883   2.413  0.1212  0.1191 -0.1004
 4627SOL     OW18273   0.839   5.927   0.917  0.0588  0.0792  0.5500
 4627SOL    HW218274   0.924   5.925   0.873 -1.2863 -1.9148 -2.2359
 4627SOL    HW318275   0.817   5.835   0.932 -1.5857  0.5498  1.2799
 4627SOL    MW418276   0.847   5.915   0.913 -0.3357 -0.1218  0.2788
 4628SOL     OW18277   4.277   0.434   3.861 -0.3411 -0.0882 -0.0286
 4628SOL    HW218278   4.245   0.474   3.942 -0.7229 -1.0522  0.3125
 4628SOL    HW318279   4.330   0.360   3.890  1.0968  0.6741 -0.6240
 4628SOL    MW418280   4.280   0.429   3.876 -0.2017 -0.1148 -0.0622
 4629SOL     OW18281   1.229   6.029   4.476  0.3210  0.2781  0.0225
 4629SOL    HW218282   1.222   6.121   4.500 -0.4068  0.2568 -0.0694
 4629SOL    HW318283   1.294   5.993   4.536  0.6886  0.8762 -0.0157
 4629SOL    MW418284   1.236   6.036   4.487  0.2735  0.3542  0.0053
 4630SOL     OW18285   3.709   6.150   4.724 -0.1119  0.3164 -0.0980
 4630SOL    HW218286   3.641   6.214   4.700 -0.7431 -0.5968 -0.8231
 4630SOL    HW318287   3.664   6.065   4.721  0.3247 -0.0886  2.2448
 4630SOL    MW418288   3.694   6.147   4.721 -0.1376  0.1425  0.1154
 4631SOL     OW18289   6.389   2.395   1.002  0.2761 -0.4405 -0.6087
 4631SOL    HW218290   6.460   2.450   1.037 -1.2296  0.1257  1.8434
 4631SOL    HW318291   6.379   2.326   1.068 -2.0977  0.1109 -0.3037
 4631SOL    MW418292   6.397   2.393   1.016 -0.2358 -0.2930 -0.2450
 4632SOL     OW18293   3.185   5.635   2.420 -0.6401  0.1892 -0.0660
 4632SOL    HW218294   3.258   5.591   2.377 -0.9600  1.2050 -1.6860
 4632SOL    HW318295   3.218   5.655   2.508  0.9099  0.3212 -0.6480
 4632SOL    MW418296   3.199   5.631   2.426 -0.4778  0.3407 -0.3565
 4633SOL     OW18297   6.272   2.769   0.554 -0.5939 -0.4088 -0.2140
 4633SOL    HW218298   6.206   2.832   0.583 -0.5604 -0.1198 -0.7679
 4633SOL    HW318299   6.292   2.794   0.464  1.2600  0.3566  0.3759
 4633SOL    MW418300   6.266   2.780   0.546 -0.3449 -0.2697 -0.2092
 4634SOL     OW18301   1.910   5.714   4.139 -0.2749  0.1650  0.7048
 4634SOL    HW218302   1.874   5.710   4.227  0.0665  2.4235  1.0049
 4634SOL    HW318303   1.844   5.671   4.084 -1.6144  0.7998  1.7582
 4634SOL    MW418304   1.897   5.708   4.143 -0.4066  0.5467  0.8834
 4635SOL     OW18305   5.221   4.209   6.369 -0.0517 -0.2943 -0.2585
 4635SOL    HW218306   5.225   4.303   6.385  1.1975 -0.3568 -0.1022
 4635SOL    HW318307   5.259   4.197   6.282  1.8000 -0.8119  0.5505
 4635SOL    MW418308   5.227   4.220   6.360  0.3574 -0.3709 -0.1312
 4636SOL     OW18309   5.931   2.041   2.261  0.3028  0.5642 -0.5572
 4636SOL    HW218310   5.919   2.065   2.353 -2.1505  0.6298 -0.8163
 4636SOL    HW318311   5.853   1.990   2.240  1.1138  0.0259 -2.4548
 4636SOL    MW418312   5.919   2.037   2.271  0.0861  0.5018 -0.8418
 4637SOL     OW18313   4.952   3.331   0.418  0.0165  0.1704 -0.1162
 4637SOL    HW218314   4.871   3.306   0.374  1.2565  0.1305 -2.5159
 4637SOL    HW318315   4.991   3.398   0.362  1.9234 -0.2235  0.6482
 4637SOL    MW418316   4.947   3.336   0.405  0.4317  0.1132 -0.3320
 4638SOL     OW18317   2.450   4.895   0.595 -0.2590  0.6800 -0.4274
 4638SOL    HW218318   2.466   4.987   0.617 -0.6149  0.9538 -1.2771
 4638SOL    HW318319   2.515   4.875   0.527  0.1225  0.1650  0.0825
 4638SOL    MW418320   2.461   4.905   0.589 -0.2556  0.6482 -0.4722
 4639SOL     OW18321   6.382   1.383   4.334 -0.1554  0.4522  0.2206
 4639SOL    HW218322   6.409   1.325   4.406 -2.1167  0.1586  0.7814
 4639SOL    HW318323   6.299   1.421   4.364  0.2282  2.2879 -0.8524
 4639SOL    MW418324   6.375   1.381   4.348 -0.3635  0.6557  0.1530
 4640SOL     OW18325   5.737   5.525   0.756 -0.0938  0.3148 -0.0954
 4640SOL    HW218326   5.729   5.454   0.820 -0.7406 -0.1665 -0.6917
 4640SOL    HW318327   5.777   5.596   0.804  3.4733 -1.4006 -0.2149
 4640SOL    MW418328   5.741   5.525   0.771  0.2915  0.0250 -0.1899
 4641SOL     OW18329  -0.017   3.551   5.045 -0.5408  0.0469  0.6254
 4641SOL    HW218330   0.052   3.597   4.998 -1.4625 -0.0871 -0.9338
 4641SOL    HW318331  -0.047   3.614   5.111  0.9478  0.1434  1.2597
 4641SOL    MW418332  -0.012   3.565   5.048 -0.4660  0.0420  0.5034
 4642SOL     OW18333   3.996   6.398   0.022  0.5752  0.1199  0.0767
 4642SOL    HW218334   3.907   6.430   0.037  0.8035  2.2805 -2.3291
 4642SOL    HW318335   4.048   6.478   0.015  2.2326 -1.0065 -1.0205
 4642SOL    MW418336   3.991   6.413   0.023  0.8240  0.2563 -0.3855
 4643SOL     OW18337   0.610   5.343   5.577  0.3889 -0.0270 -0.0690
 4643SOL    HW218338   0.655   5.264   5.546 -0.0069 -0.4468  0.4108
 4643SOL    HW318339   0.588   5.324   5.668 -0.4964  0.2850 -0.2092
 4643SOL    MW418340   0.613   5.330   5.585  0.2199 -0.0412 -0.0242
 4644SOL     OW18341   5.709   5.821   1.600 -0.2228  0.3488 -0.3953
 4644SOL    HW218342   5.769   5.890   1.570 -0.3952  1.1557  1.0202
 4644SOL    HW318343   5.697   5.765   1.524  0.9499  1.1585 -1.2156
 4644SOL    MW418344   5.715   5.823   1.586 -0.0908  0.5621 -0.3168
 4645SOL     OW18345   3.509   4.363   3.611  0.4010 -0.1922  0.3212
 4645SOL    HW218346   3.528   4.269   3.617  1.4095 -0.1583 -1.6556
 4645SOL    HW318347   3.522   4.384   3.519 -2.2144  1.4116  0.2144
 4645SOL    MW418348   3.513   4.353   3.600  0.1889  0.0239  0.0463
 4646SOL     OW18349   2.931   2.582   0.890  0.1576  0.4523 -0.5706
 4646SOL    HW218350   2.920   2.675   0.909  0.5629  0.9443 -2.4729
 4646SOL    HW318351   2.844   2.553   0.863  0.1414  0.4136 -0.4756
 4646SOL    MW418352   2.918   2.590   0.889  0.2089  0.5121 -0.8090
 4647SOL     OW18353   5.010   6.388   4.145  0.2725 -0.1256  0.0135
 4647SOL    HW218354   4.992   6.316   4.206 -0.4941  0.6843  0.7918
 4647SOL    HW318355   4.944   6.454   4.167  2.9090  2.2163  1.6260
 4647SOL    MW418356   4.999   6.387   4.156  0.5192  0.2903  0.3289
 4648SOL     OW18357   6.215   3.699   2.653 -0.2214 -0.1944 -0.6350
 4648SOL    HW218358   6.173   3.635   2.596 -0.7220 -2.2747  1.8825
 4648SOL    HW318359   6.156   3.775   2.651 -2.1852 -1.6123 -0.1130
 4648SOL    MW418360   6.201   3.701   2.645 -0.5465 -0.6559 -0.2340
 4649SOL     OW18361   2.170   2.333   0.788 -0.8283 -0.3956  0.3283
 4649SOL    HW218362   2.230   2.293   0.851 -1.1810  1.1695  1.7079
 4649SOL    HW318363   2.094   2.275   0.786 -1.8232  0.6886  3.1478
 4649SOL    MW418364   2.168   2.320   0.796 -1.0061 -0.0461  0.8823
 4650SOL     OW18365   0.892   0.772   0.735 -0.7003 -0.2915  0.2336
 4650SOL    HW218366   0.983   0.775   0.705 -0.9540 -1.3350 -0.7347
 4650SOL    HW318367   0.843   0.820   0.669 -0.8258  0.5738  0.9378
 4650SOL    MW418368   0.897   0.779   0.723 -0.7503 -0.3150  0.1987
 4651SOL     OW18369   1.356   5.668   0.554  0.7975 -0.1264 -0.3465
 4651SOL    HW218370   1.411   5.614   0.496 -0.0278 -0.4705 -0.8187
 4651SOL    HW318371   1.419   5.709   0.614  1.5119 -1.0371 -0.4439
 4651SOL    MW418372   1.372   5.666   0.554  0.7829 -0.2919 -0.4217
 4652SOL     OW18373   4.118   4.148   6.242 -0.0132 -0.5528  0.1600
 4652SOL    HW218374   4.094   4.158   6.150  0.5591  0.2596  0.0844
 4652SOL    HW318375   4.049   4.195   6.290  0.2238 -0.1181  0.0794
 4652SOL    MW418376   4.106   4.156   6.236  0.0935 -0.3883  0.1394
 4653SOL     OW18377   5.570   2.460   3.796 -0.2023  0.1841 -0.2302
 4653SOL    HW218378   5.636   2.513   3.752 -0.7040  1.4672  0.4966
 4653SOL    HW318379   5.531   2.407   3.727 -1.1786  2.3433 -1.4276
 4653SOL    MW418380   5.574   2.460   3.781 -0.3973  0.6383 -0.2923
 4654SOL     OW18381   0.577   5.958   5.577  0.0955 -0.6498  0.2798
 4654SOL    HW218382   0.627   5.920   5.505  0.2917 -1.4526  0.8213
 4654SOL    HW318383   0.486   5.945   5.553  0.1142  0.8528 -0.7299
 4654SOL    MW418384   0.572   5.951   5.565  0.1239 -0.5575  0.2180
 4655SOL     OW18385   0.325   2.522   3.272  0.0030  0.4344 -0.8780
 4655SOL    HW218386   0.326   2.599   3.216  1.0619 -0.0092 -1.5169
 4655SOL    HW318387   0.396   2.467   3.238 -1.4028 -1.3313 -1.1601
 4655SOL    MW418388   0.335   2.525   3.260 -0.0428  0.1429 -0.9995
 4656SOL     OW18389   6.219   3.866   2.932  0.2503  0.4317  0.6876
 4656SOL    HW218390   6.173   3.892   2.852  0.6569  1.0714  0.6488
 4656SOL    HW318391   6.289   3.931   2.941 -0.4924  1.0690  2.1840
 4656SOL    MW418392   6.222   3.878   2.922  0.2060  0.6002  0.8799
 4657SOL     OW18393   5.757   4.159   1.545 -0.1933  0.6693  1.0799
 4657SOL    HW218394   5.702   4.114   1.609 -1.2040  0.9994  0.4752
 4657SOL    HW318395   5.701   4.168   1.468  1.0051  0.2679  0.1325
 4657SOL    MW418396   5.742   4.154   1.543 -0.1685  0.6599  0.8751
 4658SOL     OW18397   5.062   5.680   1.780  0.2437  0.1265  0.6201
 4658SOL    HW218398   5.066   5.751   1.716  1.0035  0.2840  0.8338
 4658SOL    HW318399   5.071   5.724   1.865 -0.2933 -0.1266  0.8113
 4658SOL    MW418400   5.064   5.695   1.783  0.2731  0.1139  0.6735
 4659SOL     OW18401   2.979   4.367   1.263  0.3716  0.2191 -0.3019
 4659SOL    HW218402   2.952   4.291   1.212  1.2543  0.5951 -1.3792
 4659SOL    HW318403   2.914   4.374   1.333 -2.4753  1.1886 -2.8329
 4659SOL    MW418404   2.967   4.358   1.266  0.1124  0.3966 -0.7780
 4660SOL     OW18405   6.190   2.448   5.279  0.7771  0.0635  0.4003
 4660SOL    HW218406   6.159   2.518   5.221 -0.2638 -0.6592  0.0637
 4660SOL    HW318407   6.179   2.368   5.229  0.8909 -0.4639  1.1964
 4660SOL    MW418408   6.184   2.447   5.265  0.6548 -0.1014  0.4609
 4661SOL     OW18409   1.174   2.563   5.080  0.3366  0.8644 -0.0941
 4661SOL    HW218410   1.225   2.635   5.117  0.7457  0.8723 -0.6477
 4661SOL    HW318411   1.154   2.592   4.991  0.9820  0.0674 -0.5144
 4661SOL    MW418412   1.178   2.576   5.073  0.4757  0.7603 -0.2226
 4662SOL     OW18413   4.811   5.345   1.181 -0.3582  0.1632  0.0005
 4662SOL    HW218414   4.871   5.273   1.200  2.3734  2.2024 -0.3557
 4662SOL    HW318415   4.799   5.389   1.265  0.5692  1.1004 -0.3347
 4662SOL    MW418416   4.817   5.341   1.194  0.1246  0.5559 -0.0908
 4663SOL     OW18417   4.064   1.572   3.043  0.1821  0.1431 -0.6065
 4663SOL    HW218418   4.148   1.548   3.005  0.2809 -1.5495  0.5932
 4663SOL    HW318419   4.076   1.663   3.070  1.8341 -0.2261  0.0464
 4663SOL    MW418420   4.077   1.581   3.042  0.4131 -0.1289 -0.3621
 4664SOL     OW18421   1.008   3.231   4.343  0.5017 -0.2098  0.2702
 4664SOL    HW218422   1.068   3.229   4.269  0.6802 -0.3658  0.4190
 4664SOL    HW318423   0.942   3.165   4.323  0.2000  0.1747 -0.0396
 4664SOL    MW418424   1.007   3.222   4.330  0.4855 -0.1797  0.2490
 4665SOL     OW18425   2.856   0.449   5.792  0.4134  0.1029 -0.5835
 4665SOL    HW218426   2.862   0.509   5.718  0.6857 -1.3599 -1.7987
 4665SOL    HW318427   2.944   0.447   5.828  0.2536  0.9094 -0.1304
 4665SOL    MW418428   2.868   0.456   5.787  0.4282  0.0163 -0.6840
 4666SOL     OW18429   1.330   1.492   5.010  0.0267  0.1369 -0.0110
 4666SOL    HW218430   1.252   1.485   5.065 -0.6440  0.1534 -0.9515
 4666SOL    HW318431   1.351   1.401   4.987 -0.1935  0.1882 -0.4192
 4666SOL    MW418432   1.323   1.479   5.014 -0.0908  0.1458 -0.1890
 4667SOL     OW18433   3.556   5.474   5.739  0.0997  0.0517  0.9972
 4667SOL    HW218434   3.472   5.427   5.735 -0.0534  0.2752  1.4921
 4667SOL    HW318435   3.549   5.527   5.818  0.8109 -0.1159  1.1742
 4667SOL    MW418436   3.544   5.474   5.749  0.1733  0.0590  1.0859
 4668SOL     OW18437   1.515   4.591   4.548  0.0251 -0.0697 -0.0065
 4668SOL    HW218438   1.477   4.675   4.574  2.9312  0.9813  1.4119
 4668SOL    HW318439   1.575   4.569   4.620  1.7246 -1.7401 -1.8073
 4668SOL    MW418440   1.518   4.599   4.561  0.6328 -0.1514 -0.0569
 4669SOL     OW18441   5.381   0.469   0.754  0.7660 -0.3543  0.3675
 4669SOL    HW218442   5.310   0.527   0.727  0.9480 -0.7527 -1.0434
 4669SOL    HW318443   5.386   0.403   0.685  2.4696 -0.3635  0.4521
 4669SOL    MW418444   5.373   0.468   0.741  1.0148 -0.4081  0.1925
 4670SOL     OW18445   5.023   1.196   4.500  0.2425 -0.1650  0.3508
 4670SOL    HW218446   4.948   1.243   4.463  1.0678  0.0879 -1.0673
 4670SOL    HW318447   5.085   1.265   4.526  0.7137 -0.4078 -0.1072
 4670SOL    MW418448   5.021   1.211   4.499  0.4135 -0.1637  0.1033
 4671SOL     OW18449   1.488   1.387   4.134  0.1734 -0.2481 -0.0973
 4671SOL    HW218450   1.517   1.372   4.044 -0.3065  0.6531 -0.4161
 4671SOL    HW318451   1.507   1.479   4.151 -0.1116 -0.3062  0.5804
 4671SOL    MW418452   1.494   1.397   4.124  0.0725 -0.1369 -0.0499
 4672SOL     OW18453   4.298   1.975   1.899  0.0363 -0.8723  0.5268
 4672SOL    HW218454   4.352   2.011   1.970  1.2052 -1.5978  0.0363
 4672SOL    HW318455   4.357   1.972   1.824 -1.1004 -0.3932 -0.4102
 4672SOL    MW418456   4.313   1.980   1.899  0.0406 -0.9048  0.3385
 4673SOL     OW18457   3.759   2.265   1.795 -0.4438 -0.5217 -0.0354
 4673SOL    HW218458   3.784   2.212   1.719  2.1276  0.6573 -0.1087
 4673SOL    HW318459   3.730   2.348   1.758 -0.5432 -0.4293  0.2443
 4673SOL    MW418460   3.758   2.269   1.780 -0.1176 -0.3540 -0.0082
 4674SOL     OW18461   2.225   4.572   2.301 -0.4725 -0.0128  0.3042
 4674SOL    HW218462   2.244   4.572   2.208  3.5431  1.6750  0.9209
 4674SOL    HW318463   2.190   4.485   2.319 -2.3465 -0.0418 -2.8302
 4674SOL    MW418464   2.223   4.561   2.291 -0.1899  0.2061 -0.0279
 4675SOL     OW18465   0.352   2.828   4.288 -0.1434  0.6748 -0.0077
 4675SOL    HW218466   0.318   2.750   4.244  1.2679  0.1437 -0.2086
 4675SOL    HW318467   0.293   2.842   4.361 -0.0805 -0.9650  0.3975
 4675SOL    MW418468   0.340   2.820   4.292  0.0511  0.3884  0.0193
 4676SOL     OW18469   1.377   4.670   0.479 -0.5661  0.5824 -0.3209
 4676SOL    HW218470   1.306   4.699   0.422 -0.1331 -0.1762 -1.2550
 4676SOL    HW318471   1.377   4.575   0.472  0.0408  0.5267  0.2935
 4676SOL    MW418472   1.367   4.661   0.471 -0.4289  0.4749 -0.3631
 4677SOL     OW18473   0.570   1.958   5.952 -0.3004 -0.3671  0.5672
 4677SOL    HW218474   0.638   1.936   5.888 -0.4035 -2.1614  1.0248
 4677SOL    HW318475   0.522   1.876   5.965 -0.5561  0.0662  2.6341
 4677SOL    MW418476   0.573   1.945   5.945 -0.3478 -0.5467  0.9003
 4678SOL     OW18477   5.375   5.357   4.964  0.1534 -0.0610 -0.0057
 4678SOL    HW218478   5.292   5.321   4.995  0.8553 -1.3463  0.4730
 4678SOL    HW318479   5.368   5.452   4.979 -1.3428 -0.1111 -0.3006
 4678SOL    MW418480   5.363   5.365   4.970  0.0486 -0.2372  0.0185
 4679SOL     OW18481   0.968   0.859   5.326 -0.6684  0.1864  0.7509
 4679SOL    HW218482   1.044   0.886   5.378 -0.5999 -0.9028  1.2294
 4679SOL    HW318483   0.912   0.813   5.388 -0.9129 -0.5205  0.0107
 4679SOL    MW418484   0.970   0.857   5.341 -0.6916 -0.0506  0.7164
 4680SOL     OW18485   0.790   2.150   2.497 -0.1526  0.0397  0.2818
 4680SOL    HW218486   0.848   2.169   2.571  0.1026 -0.6632  0.2626
 4680SOL    HW318487   0.719   2.098   2.535  0.4924 -1.1795 -0.1419
 4680SOL    MW418488   0.788   2.146   2.512 -0.0338 -0.2139  0.2233
 4681SOL     OW18489   0.885   2.309   0.643  0.3751  0.1811  0.5174
 4681SOL    HW218490   0.899   2.403   0.654  1.3213 -0.1665  3.0654
 4681SOL    HW318491   0.790   2.298   0.646  0.2500  1.0724 -0.0050
 4681SOL    MW418492   0.875   2.320   0.645  0.4834  0.2529  0.7846
 4682SOL     OW18493   5.519   5.700   3.448 -0.2880 -0.1044  0.4101
 4682SOL    HW218494   5.476   5.785   3.440 -2.1286 -1.0080  0.1637
 4682SOL    HW318495   5.492   5.668   3.534 -0.6918 -1.0022 -0.0408
 4682SOL    MW418496   5.510   5.707   3.458 -0.5841 -0.3420  0.3181
 4683SOL     OW18497   1.605   3.473   6.372 -0.3413  0.0766  0.5830
 4683SOL    HW218498   1.698   3.464   6.395 -0.4952  1.4966  1.8489
 4683SOL    HW318499   1.605   3.475   6.276  0.9929  0.5068  0.5659
 4683SOL    MW418500   1.617   3.472   6.362 -0.1856  0.3207  0.7478
 4684SOL     OW18501   2.547   3.429   3.134 -0.3681 -0.6485 -0.1053
 4684SOL    HW218502   2.517   3.412   3.045  2.9241 -0.5696 -1.3792
 4684SOL    HW318503   2.587   3.347   3.162  1.0448  0.1130  0.1875
 4684SOL    MW418504   2.548   3.416   3.126  0.2527 -0.5376 -0.2347
 4685SOL     OW18505   0.258   6.423   0.815 -0.4511  0.1208  0.2623
 4685SOL    HW218506   0.215   6.359   0.872  0.1048 -1.4024 -0.9543
 4685SOL    HW318507   0.305   6.370   0.750  1.1180  1.7477 -0.0276
 4685SOL    MW418508   0.259   6.408   0.814 -0.1708  0.1345  0.0635
 4686SOL     OW18509   5.507   0.682   3.406 -0.1529 -0.2177 -0.3378
 4686SOL    HW218510   5.453   0.663   3.483  0.0511 -1.4082 -0.4738
 4686SOL    HW318511   5.588   0.720   3.442 -0.0984 -0.6749  0.0299
 4686SOL    MW418512   5.511   0.685   3.421 -0.1188 -0.4351 -0.3072
 4687SOL     OW18513   5.091   5.164   1.692 -0.4624 -0.2080 -0.0550
 4687SOL    HW218514   5.083   5.249   1.734  1.8384 -0.1733  0.4155
 4687SOL    HW318515   5.129   5.183   1.606  0.7509 -0.7786  0.3316
 4687SOL    MW418516   5.095   5.178   1.686  0.0012 -0.2787  0.0581
 4688SOL     OW18517   5.404   3.555   3.065  0.2945  0.2402  0.0409
 4688SOL    HW218518   5.349   3.618   3.019  1.1534  1.4285  0.5905
 4688SOL    HW318519   5.411   3.481   3.004  0.4630  1.2842 -1.2584
 4688SOL    MW418520   5.398   3.554   3.051  0.4300  0.5347 -0.0580
 4689SOL     OW18521   5.498   4.044   3.808  0.4172  0.1581  0.0502
 4689SOL    HW218522   5.479   4.020   3.717 -0.8848 -0.2488  0.4080
 4689SOL    HW318523   5.542   4.129   3.801 -1.1095  0.9366 -0.9091
 4689SOL    MW418524   5.501   4.052   3.795  0.0440  0.2072 -0.0291
 4690SOL     OW18525   3.222   2.839   1.568 -0.7404 -0.0094  0.1105
 4690SOL    HW218526   3.190   2.910   1.513  0.7269  0.2460 -0.4761
 4690SOL    HW318527   3.254   2.883   1.647 -0.4753 -0.0876  0.0474
 4690SOL    MW418528   3.222   2.854   1.572 -0.5118  0.0140  0.0248
 4691SOL     OW18529   5.819   1.090   1.266 -0.8477  0.1211 -0.0141
 4691SOL    HW218530   5.858   1.048   1.189 -0.6306  1.4088 -0.6357
 4691SOL    HW318531   5.734   1.121   1.237 -1.1051 -0.0914  0.5000
 4691SOL    MW418532   5.813   1.089   1.252 -0.8530  0.2629 -0.0283
 4692SOL     OW18533   0.091   4.458   1.702 -0.2707  0.4673  0.0784
 4692SOL    HW218534   0.181   4.492   1.703 -0.3494  0.8146 -1.3761
 4692SOL    HW318535   0.101   4.363   1.708  0.1922  0.5070 -0.0076
 4692SOL    MW418536   0.104   4.450   1.703 -0.2200  0.5184 -0.1248
 4693SOL     OW18537   0.500   3.317   6.177  0.5752 -0.2031 -0.2652
 4693SOL    HW218538   0.458   3.376   6.114  0.3056 -0.7937 -0.6426
 4693SOL    HW318539   0.451   3.235   6.170 -1.6436  0.6453  3.0412
 4693SOL    MW418540   0.488   3.314   6.168  0.2469 -0.1690  0.1212
 4694SOL     OW18541   1.458   1.617   1.886  0.1432  0.0543 -0.5355
 4694SOL    HW218542   1.437   1.531   1.850 -1.3671  0.2464 -0.1684
 4694SOL    HW318543   1.553   1.615   1.898  0.3459 -0.9765 -1.9935
 4694SOL    MW418544   1.468   1.606   1.883 -0.0293 -0.0564 -0.6795
 4695SOL     OW18545   0.042   3.971   0.444  0.0570  0.1405 -0.1101
 4695SOL    HW218546  -0.031   3.938   0.497 -1.1655 -0.6658 -2.1735
 4695SOL    HW318547   0.053   3.906   0.375  0.7152  1.7499 -1.6015
 4695SOL    MW418548   0.034   3.958   0.442 -0.0174  0.2465 -0.5791
 4696SOL     OW18549   5.185   0.908   5.251  0.1485 -0.2645 -0.5332
 4696SOL    HW218550   5.256   0.893   5.189 -0.5674 -1.1294 -1.1717
 4696SOL    HW318551   5.150   0.820   5.268  0.1948 -0.0191  0.9373
 4696SOL    MW418552   5.190   0.894   5.245  0.0602 -0.3462 -0.4234
 4697SOL     OW18553   0.859   4.302   6.024  0.3002  0.0915  0.5239
 4697SOL    HW218554   0.853   4.254   6.107  0.0431  0.1762  0.5539
 4697SOL    HW318555   0.784   4.362   6.025 -0.4505 -0.8061 -0.3412
 4697SOL    MW418556   0.848   4.304   6.035  0.1672 -0.0157  0.4137
 4698SOL     OW18557   5.001   4.403   0.331  0.6622  0.0686  0.0574
 4698SOL    HW218558   4.972   4.432   0.417  0.9312 -1.4745  0.7006
 4698SOL    HW318559   5.064   4.333   0.349 -0.3904 -1.3224 -1.3919
 4698SOL    MW418560   5.005   4.398   0.345  0.5588 -0.3185 -0.0489
 4699SOL     OW18561   5.745   0.495   4.251  0.9735 -0.1993 -0.2021
 4699SOL    HW218562   5.781   0.415   4.287 -0.5763 -1.1622 -0.6769
 4699SOL    HW318563   5.667   0.512   4.304  1.5475  1.3060  0.2251
 4699SOL    MW418564   5.739   0.487   4.263  0.8448 -0.1277 -0.2084
 4700SOL     OW18565   3.472   0.150   2.094  0.0043 -0.0828  0.0490
 4700SOL    HW218566   3.427   0.234   2.081 -0.5348 -0.2044  0.9677
 4700SOL    HW318567   3.553   0.158   2.045 -1.5457 -0.3237 -2.7914
 4700SOL    MW418568   3.476   0.162   2.086 -0.2713 -0.1306 -0.2045
 4701SOL     OW18569   5.847   2.480   5.112  0.7384  0.5350  0.2056
 4701SOL    HW218570   5.801   2.399   5.134 -0.4592  1.2769  0.5476
 4701SOL    HW318571   5.906   2.494   5.186  0.0374  0.6219  0.7623
 4701SOL    MW418572   5.848   2.471   5.125  0.4879  0.6444  0.3242
 4702SOL     OW18573   0.138   5.795   1.190 -0.4253 -0.3414 -0.4659
 4702SOL    HW218574   0.076   5.842   1.246  0.7027  0.2664  0.3016
 4702SOL    HW318575   0.087   5.773   1.112 -0.8673  2.7274 -1.1699
 4702SOL    MW418576   0.123   5.799   1.187 -0.3348  0.1437 -0.4575
 4703SOL     OW18577   5.174   5.102   0.919 -0.0487  0.1043 -0.0473
 4703SOL    HW218578   5.198   5.059   1.001  1.6049  1.9242  0.4877
 4703SOL    HW318579   5.255   5.143   0.889 -0.1803 -1.7005 -3.4155
 4703SOL    MW418580   5.188   5.101   0.926  0.1521  0.1063 -0.4211
 4704SOL     OW18581   3.549   2.869   5.609  0.1136 -0.0511  0.1351
 4704SOL    HW218582   3.564   2.833   5.696  1.6092  3.2344  1.4009
 4704SOL    HW318583   3.636   2.873   5.569 -0.5365 -1.3967 -1.5528
 4704SOL    MW418584   3.562   2.865   5.615  0.2252  0.2049  0.0794
 4705SOL     OW18585   5.272   2.937   2.098  0.7010  0.1068 -0.3349
 4705SOL    HW218586   5.323   3.008   2.137  0.1666 -0.4414  1.4989
 4705SOL    HW318587   5.193   2.931   2.152  0.4344 -1.4473 -0.8317
 4705SOL    MW418588   5.268   2.945   2.110  0.5953 -0.1706 -0.1585
 4706SOL     OW18589   0.882   1.708   4.836 -0.3660  0.9733  0.1585
 4706SOL    HW218590   0.856   1.623   4.873  0.0086  1.3889  1.4344
 4706SOL    HW318591   0.955   1.688   4.778 -0.9756  0.2956 -0.4020
 4706SOL    MW418592   0.888   1.694   4.833 -0.3970  0.9387  0.2529
 4707SOL     OW18593   5.058   5.212   4.477  0.1802 -0.4817  0.0574
 4707SOL    HW218594   5.138   5.198   4.528  0.3478  1.9390  0.5794
 4707SOL    HW318595   5.044   5.129   4.432  2.2128 -1.4254  1.0100
 4707SOL    MW418596   5.066   5.199   4.478  0.4705 -0.2868  0.2519
 4708SOL     OW18597   6.232   0.583   3.216  0.5900 -0.7721 -0.1247
 4708SOL    HW218598   6.183   0.520   3.268  0.2914 -0.7371 -0.3600
 4708SOL    HW318599   6.171   0.656   3.203  0.4536 -1.0359 -1.0229
 4708SOL    MW418600   6.218   0.585   3.221  0.5326 -0.8023 -0.2742
 4709SOL     OW18601   5.674   4.703   1.085 -0.0733 -0.2066 -0.2999
 4709SOL    HW218602   5.748   4.764   1.091  0.2508 -0.4958 -1.2397
 4709SOL    HW318603   5.598   4.756   1.108  0.3754  0.1970  0.2799
 4709SOL    MW418604   5.674   4.718   1.089  0.0287 -0.1915 -0.3474
 4710SOL     OW18605   4.358   2.944   6.100 -0.6763 -1.5859 -0.6683
 4710SOL    HW218606   4.359   3.031   6.059 -0.8490 -0.7468  1.0267
 4710SOL    HW318607   4.288   2.949   6.166  0.1705 -2.5833  0.3534
 4710SOL    MW418608   4.349   2.956   6.103 -0.5874 -1.6068 -0.3098
 4711SOL     OW18609   2.360   4.499   4.172  0.5115 -0.7194 -0.0134
 4711SOL    HW218610   2.396   4.432   4.230  0.3402 -1.8268 -1.1609
 4711SOL    HW318611   2.406   4.579   4.197  1.3158 -1.4195  0.8240
 4711SOL    MW418612   2.371   4.501   4.183  0.5950 -0.9579 -0.0543
 4712SOL     OW18613   2.133   5.911   2.118 -0.0568  0.4483 -0.3473
 4712SOL    HW218614   2.100   5.878   2.035  0.8821  1.8013 -1.2939
 4712SOL    HW318615   2.102   6.002   2.123 -0.0014  0.4310  0.7228
 4712SOL    MW418616   2.125   5.919   2.108  0.0744  0.6245 -0.3310
 4713SOL     OW18617   0.245   0.809   5.275  0.3479 -0.3276 -0.0447
 4713SOL    HW218618   0.221   0.718   5.286 -1.0621 -0.0415 -0.5492
 4713SOL    HW318619   0.188   0.841   5.204  1.3903  0.7261 -0.4522
 4713SOL    MW418620   0.235   0.802   5.267  0.2994 -0.1508 -0.1651
 4714SOL     OW18621   1.332   3.749   0.297  0.4292 -0.1905 -0.0693
 4714SOL    HW218622   1.321   3.662   0.336  1.2869 -1.1519 -1.7958
 4714SOL    HW318623   1.317   3.810   0.368 -2.2440 -1.6717  0.7611
 4714SOL    MW418624   1.329   3.745   0.311  0.1896 -0.5127 -0.1875
 4715SOL     OW18625   2.023   4.983   2.212 -0.1697  0.6054  0.4360
 4715SOL    HW218626   1.970   4.924   2.159  0.4005 -0.1265  0.6730
 4715SOL    HW318627   2.076   5.031   2.148 -2.3112  2.6325  0.0273
 4715SOL    MW418628   2.023   4.982   2.196 -0.3770  0.7763  0.4133
 4716SOL     OW18629   0.368   1.160   2.222 -0.1406  0.0218  0.6121
 4716SOL    HW218630   0.387   1.070   2.246  0.2417 -0.2400 -0.5973
 4716SOL    HW318631   0.321   1.196   2.297  3.6171  0.2055  3.1491
 4716SOL    MW418632   0.364   1.153   2.235  0.4056  0.0115  0.7873
 4717SOL     OW18633   1.319   5.587   1.171 -0.5059 -0.2044 -0.4817
 4717SOL    HW218634   1.298   5.623   1.257  0.5478 -0.0951 -0.2524
 4717SOL    HW318635   1.296   5.656   1.109 -1.9296 -0.5436 -0.3695
 4717SOL    MW418636   1.313   5.601   1.174 -0.5547 -0.2347 -0.4366
 4718SOL     OW18637   6.036   5.293   3.517  0.3461  0.6630  0.4247
 4718SOL    HW218638   6.124   5.268   3.491  0.5656  0.7469  1.0689
 4718SOL    HW318639   6.036   5.389   3.515  0.6189  0.7050  1.4916
 4718SOL    MW418640   6.047   5.302   3.514  0.4111  0.6796  0.6504
 4719SOL     OW18641   1.905   4.112   0.368 -0.5894  0.0840  0.6851
 4719SOL    HW218642   1.991   4.087   0.334 -0.4364  0.8061  0.5143
 4719SOL    HW318643   1.843   4.063   0.315 -0.3077  0.3090  0.1380
 4719SOL    MW418644   1.908   4.102   0.356 -0.5321  0.2090  0.5904
 4720SOL     OW18645   6.040   1.970   2.642 -0.0345 -0.2070  0.9390
 4720SOL    HW218646   5.982   2.027   2.592  0.7539 -1.0225 -1.0338
 4720SOL    HW318647   6.097   1.930   2.576  1.7433 -0.6149  2.6204
 4720SOL    MW418648   6.040   1.972   2.627  0.3041 -0.3684  0.9006
 4721SOL     OW18649   5.729   1.694   5.218  0.3333  0.0762 -0.3310
 4721SOL    HW218650   5.642   1.706   5.255 -0.5979 -1.1813 -1.9629
 4721SOL    HW318651   5.756   1.782   5.191 -1.2124  0.2602 -1.3962
 4721SOL    MW418652   5.721   1.707   5.219  0.0065 -0.0654 -0.6868
 4722SOL     OW18653   4.034   0.739   1.825 -0.1677 -0.2409  0.3533
 4722SOL    HW218654   3.982   0.692   1.890 -0.0801 -1.1773 -0.2254
 4722SOL    HW318655   4.026   0.831   1.849  0.1109 -0.5813  1.8557
 4722SOL    MW418656   4.026   0.745   1.836 -0.1194 -0.4094  0.4752
 4723SOL     OW18657   4.496   0.143   5.481  0.2699  0.0432 -0.6046
 4723SOL    HW218658   4.479   0.061   5.436 -0.1389 -0.1113 -0.1701
 4723SOL    HW318659   4.504   0.119   5.573 -1.7438  0.7346 -0.2172
 4723SOL    MW418660   4.495   0.129   5.487 -0.0497  0.1140 -0.4962
 4724SOL     OW18661   2.164   1.676   1.458  0.7043  0.2664  0.1406
 4724SOL    HW218662   2.113   1.756   1.463  0.4941  0.0830  1.0578
 4724SOL    HW318663   2.127   1.628   1.384 -0.8116 -0.1041  1.1096
 4724SOL    MW418664   2.153   1.680   1.449  0.4766  0.1933  0.3895
 4725SOL     OW18665   5.358   3.515   6.024 -0.4305 -0.6796 -0.2702
 4725SOL    HW218666   5.334   3.430   6.060  0.1591 -0.6108  0.2893
 4725SOL    HW318667   5.366   3.500   5.930 -1.4640 -0.9757 -0.3226
 4725SOL    MW418668   5.356   3.502   6.016 -0.4890 -0.7096 -0.2033
 4726SOL     OW18669   2.236   3.654   0.385 -0.1003  0.0251 -0.2315
 4726SOL    HW218670   2.185   3.723   0.427  1.2423  0.9553 -0.0413
 4726SOL    HW318671   2.250   3.685   0.295 -0.1894 -0.4019 -0.3983
 4726SOL    MW418672   2.231   3.667   0.378  0.0651  0.0915 -0.2284
 4727SOL     OW18673   2.695   0.556   1.168 -0.2998  0.2521  0.2603
 4727SOL    HW218674   2.618   0.610   1.187  0.0059 -0.0792  2.7339
 4727SOL    HW318675   2.660   0.479   1.124 -1.7365 -0.8055  3.0212
 4727SOL    MW418676   2.680   0.553   1.165 -0.4490  0.0688  0.9509
 4728SOL     OW18677   0.223   3.858   3.622 -0.7128  0.0658  0.1289
 4728SOL    HW218678   0.303   3.805   3.616  0.8055  2.3015 -0.8245
 4728SOL    HW318679   0.161   3.815   3.564  0.0868 -1.1981  0.1574
 4728SOL    MW418680   0.226   3.845   3.614 -0.4070  0.1940  0.0069
 4729SOL     OW18681   1.534   5.353   6.057  0.1961 -0.2235 -0.4997
 4729SOL    HW218682   1.465   5.346   5.992  2.4335 -1.6075 -2.8792
 4729SOL    HW318683   1.580   5.433   6.035  1.0001 -0.7229 -0.6623
 4729SOL    MW418684   1.531   5.363   6.046  0.5974 -0.4720 -0.8351
 4730SOL     OW18685   5.937   5.302   1.961  0.3177 -0.2161  0.8973
 4730SOL    HW218686   5.945   5.257   2.046  1.6003  0.3878  1.1281
 4730SOL    HW318687   6.019   5.352   1.953  0.3419 -0.4737 -0.8221
 4730SOL    MW418688   5.949   5.302   1.971  0.4901 -0.1704  0.7009
 4731SOL     OW18689   4.916   1.581   6.039  0.7511 -0.5854  0.1623
 4731SOL    HW218690   4.847   1.575   5.973  1.0892 -1.7140 -0.1088
 4731SOL    HW318691   4.868   1.587   6.122  0.3289 -0.5483 -0.0810
 4731SOL    MW418692   4.900   1.581   6.041  0.7400 -0.7294  0.0944
 4732SOL     OW18693   2.498   2.881   2.687 -0.0857 -0.1938  0.0954
 4732SOL    HW218694   2.528   2.972   2.693 -2.0691  0.5350 -0.2944
 4732SOL    HW318695   2.404   2.886   2.706 -0.5315 -1.9455 -1.4728
 4732SOL    MW418696   2.489   2.894   2.691 -0.4062 -0.3288 -0.1629
 4733SOL     OW18697   0.541   4.126   0.312  0.2345  0.5717 -0.0840
 4733SOL    HW218698   0.511   4.121   0.403  1.2484 -1.6619  0.1865
 4733SOL    HW318699   0.633   4.152   0.319  0.1143  1.1481 -0.5456
 4733SOL    MW418700   0.549   4.129   0.325  0.3524  0.3531 -0.1092
 4734SOL     OW18701   5.981   1.126   3.200  0.0423  0.4602 -0.1667
 4734SOL    HW218702   5.974   1.105   3.293  0.2657 -2.1686 -0.6833
 4734SOL    HW318703   6.036   1.204   3.198  0.2987  0.3897  1.8804
 4734SOL    MW418704   5.987   1.134   3.212  0.1056  0.1041  0.0352
 4735SOL     OW18705   4.734   4.963   2.467 -0.3611  0.1046 -0.1371
 4735SOL    HW218706   4.678   5.004   2.533  1.7587  1.0381  1.1970
 4735SOL    HW318707   4.679   4.956   2.390 -2.7722 -0.4500  1.5180
 4735SOL    MW418708   4.719   4.967   2.466 -0.3995  0.1546  0.2573
 4736SOL     OW18709   5.059   3.714   1.434 -0.1549 -0.3583 -0.3203
 4736SOL    HW218710   5.027   3.802   1.452 -2.7793 -1.7021  2.3395
 4736SOL    HW318711   5.004   3.684   1.362 -2.2413 -1.1840  1.5121
 4736SOL    MW418712   5.047   3.722   1.427 -0.7764 -0.6445  0.2724
 4737SOL     OW18713   4.391   5.063   5.461 -0.0373 -0.0718  0.4752
 4737SOL    HW218714   4.315   5.105   5.422  0.8438  1.7304  0.5914
 4737SOL    HW318715   4.466   5.104   5.417  0.9035 -0.6057  1.5198
 4737SOL    MW418716   4.391   5.074   5.450  0.2031  0.0955  0.6283
 4738SOL     OW18717   1.234   0.403   2.081 -0.1418  0.4790  0.4875
 4738SOL    HW218718   1.198   0.485   2.113 -0.2449  0.4026  0.5668
 4738SOL    HW318719   1.304   0.429   2.021  0.9710  0.6138  1.7970
 4738SOL    MW418720   1.238   0.417   2.077 -0.0086  0.4867  0.6708
 4739SOL     OW18721   4.680   2.715   1.106  0.0552  0.1673 -0.1314
 4739SOL    HW218722   4.684   2.810   1.100 -0.9464  0.4070  1.9797
 4739SOL    HW318723   4.746   2.693   1.173 -1.5394 -0.2994  1.3659
 4739SOL    MW418724   4.689   2.724   1.114 -0.2873  0.1374  0.3447
 4740SOL     OW18725   0.128   5.075   3.547 -0.0441 -0.1563 -0.7391
 4740SOL    HW218726   0.035   5.096   3.539 -0.0525  0.2404  0.2347
 4740SOL    HW318727   0.144   5.011   3.477 -1.2238 -0.7967 -0.4619
 4740SOL    MW418728   0.118   5.069   3.537 -0.2008 -0.1885 -0.5740
 4741SOL     OW18729   4.506   5.811   0.334 -0.1481  0.1594 -0.1061
 4741SOL    HW218730   4.418   5.805   0.372  0.0535  0.4228  0.4030
 4741SOL    HW318731   4.559   5.750   0.385 -0.7389 -2.6118 -2.5368
 4741SOL    MW418732   4.501   5.802   0.345 -0.1995 -0.1715 -0.3596
 4742SOL     OW18733   5.001   0.332   4.293  0.2860  0.5436  0.3528
 4742SOL    HW218734   5.002   0.347   4.388  3.5508 -0.2081  0.5545
 4742SOL    HW318735   4.955   0.408   4.258 -1.0683  0.8169  2.5067
 4742SOL    MW418736   4.995   0.344   4.301  0.5381  0.4805  0.6636
 4743SOL     OW18737   2.142   5.835   4.535 -0.1848  0.0502  0.0942
 4743SOL    HW218738   2.206   5.769   4.507 -0.2386  0.9371 -2.4336
 4743SOL    HW318739   2.195   5.910   4.562 -0.1256 -0.0138  0.1535
 4743SOL    MW418740   2.157   5.837   4.535 -0.1841  0.1588 -0.2315
 4744SOL     OW18741   4.606   3.444   6.260  0.3329  0.0849  0.1645
 4744SOL    HW218742   4.512   3.431   6.252  0.4335  0.4054 -2.5889
 4744SOL    HW318743   4.645   3.377   6.204  1.5392  1.9676 -1.3982
 4744SOL    MW418744   4.599   3.434   6.252  0.5053  0.3756 -0.4050
 4745SOL     OW18745   4.927   3.936   1.697 -0.3897 -0.3678  0.5488
 4745SOL    HW218746   4.965   3.963   1.613 -1.1101 -0.4973  0.1721
 4745SOL    HW318747   4.937   3.841   1.698 -0.1389 -0.3382  0.7281
 4745SOL    MW418748   4.933   3.927   1.686 -0.4517 -0.3810  0.5228
 4746SOL     OW18749   5.018   0.396   1.049  0.2396  0.3899 -0.1019
 4746SOL    HW218750   4.992   0.330   1.113  1.0119  1.4991  1.4314
 4746SOL    HW318751   5.113   0.387   1.043  0.0624 -0.5391 -2.0972
 4746SOL    MW418752   5.027   0.386   1.057  0.3181  0.4137 -0.1628
 4747SOL     OW18753   1.720   1.421   1.689 -0.3643 -0.2537 -0.2807
 4747SOL    HW218754   1.695   1.335   1.723 -1.5638 -0.0458 -0.6178
 4747SOL    HW318755   1.671   1.431   1.608 -0.0002  0.6276 -0.4057
 4747SOL    MW418756   1.711   1.411   1.683 -0.4745 -0.1100 -0.3417
 4748SOL     OW18757   2.911   1.450   2.223  0.2557 -0.8828  0.3707
 4748SOL    HW218758   3.004   1.461   2.200  0.2801 -2.1344 -0.2069
 4748SOL    HW318759   2.879   1.539   2.236  0.7805 -0.1980 -2.4255
 4748SOL    MW418760   2.919   1.463   2.222  0.3281 -0.9575 -0.0744
 4749SOL     OW18761   2.414   4.541   3.239  0.1477  0.7983  0.1280
 4749SOL    HW218762   2.345   4.576   3.183 -0.3083  1.2100  0.9458
 4749SOL    HW318763   2.399   4.447   3.240  1.3241  0.5001 -2.0089
 4749SOL    MW418764   2.403   4.534   3.232  0.2427  0.8133 -0.0461
 4750SOL     OW18765   1.305   1.694   2.111 -0.5025 -0.0116  0.2148
 4750SOL    HW218766   1.249   1.765   2.078  1.0904  1.8509  1.2872
 4750SOL    HW318767   1.366   1.678   2.039  0.9567  1.8208  0.9528
 4750SOL    MW418768   1.306   1.701   2.097 -0.0998  0.4759  0.4537
 4751SOL     OW18769   4.082   2.315   0.262  0.4819 -0.3289  0.2047
 4751SOL    HW218770   4.135   2.271   0.195 -0.5041 -1.7619  0.3283
 4751SOL    HW318771   4.020   2.369   0.212  0.8462 -0.0697  0.0238
 4751SOL    MW418772   4.081   2.316   0.247  0.3999 -0.4838  0.1972
 4752SOL     OW18773   1.817   1.712   0.921  0.4481 -0.2273  0.2565
 4752SOL    HW218774   1.766   1.793   0.914 -0.5125 -0.7314  1.1752
 4752SOL    HW318775   1.754   1.647   0.953  1.5396 -1.0052  0.8627
 4752SOL    MW418776   1.802   1.714   0.924  0.4654 -0.3964  0.4577
 4753SOL     OW18777   0.881   1.866   2.801 -0.2590  0.6514 -0.5316
 4753SOL    HW218778   0.811   1.928   2.782  0.3616  1.0182 -1.8214
 4753SOL    HW318779   0.902   1.880   2.893 -1.7811  0.6055 -0.1502
 4753SOL    MW418780   0.875   1.876   2.810 -0.3779  0.6937 -0.6515
 4754SOL     OW18781   5.891   2.609   1.438 -0.9217 -0.4171 -0.2515
 4754SOL    HW218782   5.927   2.632   1.524 -1.8544 -0.2829  0.1157
 4754SOL    HW318783   5.920   2.678   1.380 -2.7809  1.1923  0.6030
 4754SOL    MW418784   5.899   2.621   1.442 -1.2901 -0.1870 -0.0903
 4755SOL     OW18785   2.863   2.393   1.460 -0.3798  0.3082 -0.0727
 4755SOL    HW218786   2.921   2.409   1.386 -0.1116  2.4737  0.5564
 4755SOL    HW318787   2.775   2.396   1.422 -0.2728  2.0081 -0.2367
 4755SOL    MW418788   2.859   2.395   1.445 -0.3303  0.8182 -0.0113
 4756SOL     OW18789   5.433   5.921   0.244  0.0442 -0.5045  0.2194
 4756SOL    HW218790   5.408   5.833   0.215  1.1951 -0.7528 -0.0531
 4756SOL    HW318791   5.519   5.910   0.283 -0.9164  0.0522  2.6370
 4756SOL    MW418792   5.441   5.908   0.245  0.0693 -0.4638  0.5024
 4757SOL     OW18793   1.343   3.619   5.368  0.0286 -0.1633 -0.2770
 4757SOL    HW218794   1.264   3.646   5.322 -1.8346 -3.8315  0.4136
 4757SOL    HW318795   1.412   3.625   5.302 -1.1079  1.4478 -1.3968
 4757SOL    MW418796   1.342   3.624   5.353 -0.3672 -0.4347 -0.3336
 4758SOL     OW18797   1.862   2.116   5.071 -0.0963 -0.7874  0.6298
 4758SOL    HW218798   1.922   2.179   5.031 -0.3354 -1.8602 -1.5660
 4758SOL    HW318799   1.776   2.159   5.067 -0.6231 -1.8977 -2.7273
 4758SOL    MW418800   1.859   2.130   5.065 -0.1973 -1.0754 -0.1028
 4759SOL     OW18801   6.187   1.271   4.977  0.1673 -0.0763  0.5968
 4759SOL    HW218802   6.227   1.211   5.040 -0.3163  0.9007  1.8612
 4759SOL    HW318803   6.114   1.310   5.024 -0.1692  0.7237 -0.5584
 4759SOL    MW418804   6.183   1.268   4.991  0.0591  0.1581  0.6112
 4760SOL     OW18805   4.894   1.825   4.519  0.2006 -0.4537 -0.1676
 4760SOL    HW218806   4.834   1.880   4.570 -0.0273 -0.4229 -0.4699
 4760SOL    HW318807   4.950   1.784   4.585 -0.2845 -0.6436  0.1364
 4760SOL    MW418808   4.894   1.827   4.535  0.1066 -0.4747 -0.1673
 4761SOL     OW18809   5.425   1.243   4.258  0.3333  0.1584  0.0776
 4761SOL    HW218810   5.487   1.170   4.262 -0.1012 -0.1800  0.6132
 4761SOL    HW318811   5.456   1.296   4.184  0.5713 -0.6371 -0.4065
 4761SOL    MW418812   5.437   1.241   4.248  0.3074  0.0088  0.0844
 4762SOL     OW18813   1.895   3.499   2.932 -0.1840 -0.1236 -0.1335
 4762SOL    HW218814   1.842   3.579   2.938 -0.3519 -0.2268 -0.2166
 4762SOL    HW318815   1.872   3.462   2.847 -0.3380 -0.4216  0.0373
 4762SOL    MW418816   1.885   3.505   2.921 -0.2265 -0.1765 -0.1220
 4763SOL     OW18817   0.197   1.392   0.067 -0.1881  0.3140  0.0439
 4763SOL    HW218818   0.147   1.370   0.145  0.7571  0.8754  0.8345
 4763SOL    HW318819   0.152   1.469   0.031  0.5604  1.3452  1.2272
 4763SOL    MW418820   0.184   1.400   0.073  0.0354  0.5241  0.3043
 4764SOL     OW18821   0.476   2.580   5.992  0.1091  0.4743  0.7139
 4764SOL    HW218822   0.423   2.504   5.971  2.7967 -1.6042  1.0129
 4764SOL    HW318823   0.558   2.545   6.026  1.3771  3.5099  1.1871
 4764SOL    MW418824   0.479   2.566   5.994  0.6310  0.6006  0.8158
 4765SOL     OW18825   5.084   5.923   4.849  0.0301  0.3464 -0.1463
 4765SOL    HW218826   5.113   5.888   4.765 -0.7573 -0.0911 -0.2477
 4765SOL    HW318827   5.056   5.846   4.899  1.4220  0.4772  0.9171
 4765SOL    MW418828   5.084   5.908   4.845  0.1098  0.3059 -0.0194
 4766SOL     OW18829   4.085   3.357   3.158  0.7374 -0.2434 -0.4352
 4766SOL    HW218830   4.141   3.368   3.234 -0.7494 -0.1308  0.6920
 4766SOL    HW318831   4.032   3.279   3.178 -0.4678  0.4539 -0.8130
 4766SOL    MW418832   4.085   3.348   3.170  0.3823 -0.1366 -0.3363
 4767SOL     OW18833   2.924   5.414   3.006  0.0291  0.3724 -0.2682
 4767SOL    HW218834   2.909   5.341   2.946  0.9273  0.3016 -0.4141
 4767SOL    HW318835   3.012   5.445   2.986  0.6234 -0.0711  1.4287
 4767SOL    MW418836   2.934   5.408   2.996  0.2260  0.3045 -0.0636
 4768SOL     OW18837   5.384   2.937   0.898 -0.6561  0.9170 -0.1914
 4768SOL    HW218838   5.426   2.963   0.980  0.1421  2.3295 -1.0096
 4768SOL    HW318839   5.312   3.000   0.888 -2.4156 -0.8442  0.6791
 4768SOL    MW418840   5.380   2.949   0.908 -0.7830  0.8710 -0.1845
 4769SOL     OW18841   0.802   1.352   5.534 -0.3912 -0.3732  0.7392
 4769SOL    HW218842   0.825   1.269   5.493  0.1270  0.5288 -0.9122
 4769SOL    HW318843   0.864   1.415   5.497 -0.9056  0.7937  1.7882
 4769SOL    MW418844   0.813   1.350   5.523 -0.3907 -0.1002  0.6597
 4770SOL     OW18845   4.436   3.782   5.414 -0.6403 -0.0993 -0.4357
 4770SOL    HW218846   4.348   3.797   5.379 -0.7238 -0.1630 -0.2497
 4770SOL    HW318847   4.452   3.689   5.400 -1.1034 -0.3547  0.6896
 4770SOL    MW418848   4.427   3.772   5.407 -0.7124 -0.1414 -0.2627
 4771SOL     OW18849   1.706   5.933   5.780 -0.0792  0.8098  0.1585
 4771SOL    HW218850   1.692   5.873   5.707  2.6607 -0.3927  0.4878
 4771SOL    HW318851   1.647   5.902   5.848  1.0722 -1.4326  0.2152
 4771SOL    MW418852   1.696   5.921   5.780  0.4342  0.3553  0.2094
 4772SOL     OW18853   3.191   0.073   5.603  0.4546  0.0923 -0.2884
 4772SOL    HW218854   3.184   0.035   5.690 -1.5648  0.8150 -0.0748
 4772SOL    HW318855   3.199   0.167   5.618 -0.7629  0.3047 -0.8695
 4772SOL    MW418856   3.191   0.080   5.616  0.0275  0.2157 -0.3369
 4773SOL     OW18857   5.589   1.988   6.264  0.4635 -0.3123 -0.1433
 4773SOL    HW218858   5.660   1.973   6.326 -0.1623 -0.3192  0.5918
 4773SOL    HW318859   5.527   1.917   6.281 -0.6981  0.8278  0.6956
 4773SOL    MW418860   5.590   1.977   6.275  0.2277 -0.1628  0.0644
 4774SOL     OW18861   0.943   0.937   0.318 -0.4273  0.0579  0.1083
 4774SOL    HW218862   0.940   1.017   0.266  0.1487  0.4833  0.7138
 4774SOL    HW318863   0.896   0.959   0.398 -2.2169 -0.9108 -0.6238
 4774SOL    MW418864   0.936   0.950   0.322 -0.5874 -0.0138  0.0916
 4775SOL     OW18865   0.358   4.525   1.402 -0.7282 -0.4356 -0.4456
 4775SOL    HW218866   0.381   4.433   1.392 -2.4108 -0.7276 -2.0729
 4775SOL    HW318867   0.268   4.532   1.369 -1.5055  1.3808  1.7439
 4775SOL    MW418868   0.349   4.514   1.396 -1.0528 -0.2345 -0.3714
 4776SOL     OW18869   2.085   4.212   1.288 -0.2824 -0.4059  0.1012
 4776SOL    HW218870   2.057   4.143   1.227  0.4615  1.4713 -2.5307
 4776SOL    HW318871   2.009   4.270   1.294  0.7638  1.3458 -2.0689
 4776SOL    MW418872   2.071   4.211   1.281 -0.0463  0.0729 -0.5324
 4777SOL     OW18873   2.266   5.729   3.216 -0.3385  0.0689  0.1929
 4777SOL    HW218874   2.207   5.655   3.228 -0.6132 -0.1319 -2.0940
 4777SOL    HW318875   2.251   5.758   3.126  0.7249  2.0738  0.6125
 4777SOL    MW418876   2.257   5.723   3.206 -0.2344  0.3069 -0.0534
 4778SOL     OW18877   1.969   5.190   4.238 -0.4935  0.4770 -0.0081
 4778SOL    HW218878   2.064   5.187   4.234 -0.5215 -1.6203 -0.1409
 4778SOL    HW318879   1.941   5.197   4.146 -0.4641 -0.4266 -0.0968
 4778SOL    MW418880   1.978   5.190   4.225 -0.4933  0.0810 -0.0373
 4779SOL     OW18881   3.361   1.401   2.774  0.2027  0.6838  0.1898
 4779SOL    HW218882   3.431   1.373   2.833 -1.2807 -0.5782  1.4591
 4779SOL    HW318883   3.378   1.355   2.692 -0.5469 -1.7765  1.3190
 4779SOL    MW418884   3.372   1.391   2.771 -0.0919  0.1927  0.5063
 4780SOL     OW18885   6.350   2.364   0.458 -0.4282  0.0037  0.3832
 4780SOL    HW218886   6.426   2.389   0.509 -0.5539 -0.7553  0.9654
 4780SOL    HW318887   6.287   2.435   0.471  0.3258  0.8517 -0.4667
 4780SOL    MW418888   6.351   2.377   0.466 -0.3453  0.0154  0.3479
 4781SOL     OW18889   5.972   4.204   3.047 -0.3357 -0.1225  0.5928
 4781SOL    HW218890   5.981   4.110   3.065 -0.8465 -0.5467 -1.1367
 4781SOL    HW318891   6.003   4.247   3.126 -0.9153 -1.7682  1.7753
 4781SOL    MW418892   5.977   4.197   3.060 -0.4796 -0.3956  0.5207
 4782SOL     OW18893   2.131   1.484   2.138 -0.1485  0.2043  0.3250
 4782SOL    HW218894   2.086   1.417   2.087 -0.9293 -0.2389  1.5402
 4782SOL    HW318895   2.109   1.567   2.095  1.1324 -0.3111 -1.4148
 4782SOL    MW418896   2.122   1.486   2.126 -0.0826  0.0778  0.2558
 4783SOL     OW18897   5.376   5.616   1.320 -0.3065 -0.5697 -0.3317
 4783SOL    HW218898   5.369   5.564   1.400 -1.8032 -0.3549 -0.2978
 4783SOL    HW318899   5.341   5.559   1.252  1.2962 -0.8869 -0.9268
 4783SOL    MW418900   5.371   5.602   1.322 -0.2925 -0.5832 -0.4057
 4784SOL     OW18901   5.063   4.309   1.259  0.0146  0.2092  0.2601
 4784SOL    HW218902   5.032   4.232   1.211 -0.1912  0.7249 -0.4532
 4784SOL    HW318903   5.085   4.276   1.346 -2.1517 -0.2932  0.6875
 4784SOL    MW418904   5.062   4.295   1.264 -0.2984  0.2109  0.2224
 4785SOL     OW18905   0.963   3.535   0.611  0.0866  0.4929 -0.6642
 4785SOL    HW218906   0.986   3.605   0.671 -0.2873  0.5120 -0.5416
 4785SOL    HW318907   1.045   3.515   0.565  0.8681 -0.8801  1.2280
 4785SOL    MW418908   0.977   3.542   0.613  0.1404  0.3143 -0.3984
 4786SOL     OW18909   6.003   4.179   5.644 -0.6760  0.5059  0.2890
 4786SOL    HW218910   6.073   4.129   5.603  0.4291  2.1279  0.0943
 4786SOL    HW318911   5.942   4.113   5.677 -0.4016 -0.9074 -1.8392
 4786SOL    MW418912   6.004   4.164   5.643 -0.4940  0.5335 -0.0175
 4787SOL     OW18913   1.182   1.902   0.429 -0.2192 -0.0682 -0.1725
 4787SOL    HW218914   1.159   1.995   0.438  1.2625  0.7333 -3.3913
 4787SOL    HW318915   1.098   1.858   0.415 -1.0662  0.5156  2.4030
 4787SOL    MW418916   1.168   1.908   0.428 -0.1354  0.1146 -0.2574
 4788SOL     OW18917   4.635   6.248   1.892 -0.0465 -0.4551  0.2792
 4788SOL    HW218918   4.719   6.242   1.845 -0.9580  0.2561 -1.5461
 4788SOL    HW318919   4.635   6.173   1.951  2.4572  0.2750  1.3714
 4788SOL    MW418920   4.646   6.238   1.894  0.1636 -0.2649  0.1825
 4789SOL     OW18921   3.876   2.856   5.029  0.1372  0.0102  0.1877
 4789SOL    HW218922   3.902   2.866   4.937 -1.8835  1.6355 -0.2932
 4789SOL    HW318923   3.865   2.946   5.060  2.4217 -0.4364  2.6034
 4789SOL    MW418924   3.878   2.869   5.021  0.1720  0.1657  0.4430
 4790SOL     OW18925   3.291   5.684   5.311  0.7173 -0.1029 -0.7064
 4790SOL    HW218926   3.280   5.716   5.400  0.5964 -0.2715 -0.6602
 4790SOL    HW318927   3.289   5.763   5.256 -0.0450 -0.0749 -0.6401
 4790SOL    MW418928   3.289   5.699   5.315  0.6008 -0.1214 -0.6916
 4791SOL     OW18929   4.668   3.788   0.091 -0.3733  0.5834  0.4780
 4791SOL    HW218930   4.755   3.775   0.129 -0.3231  1.0325  0.5202
 4791SOL    HW318931   4.656   3.883   0.091 -0.8709  0.5200  0.4887
 4791SOL    MW418932   4.678   3.799   0.096 -0.4323  0.6343  0.4850
 4792SOL     OW18933   2.859   1.573   0.787  0.4589 -0.3285 -0.2790
 4792SOL    HW218934   2.863   1.646   0.849  0.2585 -1.2062  0.8003
 4792SOL    HW318935   2.769   1.575   0.755 -0.4785 -1.8394  1.9933
 4792SOL    MW418936   2.847   1.583   0.791  0.3088 -0.6436  0.1632
 4793SOL     OW18937   5.511   5.618   5.685  0.5610  0.6922  0.0475
 4793SOL    HW218938   5.524   5.707   5.718  2.1314  0.4405  0.1823
 4793SOL    HW318939   5.473   5.571   5.759  0.0495  1.1435  0.0866
 4793SOL    MW418940   5.507   5.624   5.699  0.7007  0.7186  0.0705
 4794SOL     OW18941   5.752   4.060   3.262  0.6537  0.3548 -0.1401
 4794SOL    HW218942   5.797   4.137   3.298 -0.6584  1.2893 -0.4169
 4794SOL    HW318943   5.809   3.987   3.283  1.2238  1.2079  1.4658
 4794SOL    MW418944   5.765   4.061   3.269  0.5558  0.5906  0.0353
 4795SOL     OW18945   1.896   5.426   6.266  0.0389  0.1329  0.5051
 4795SOL    HW218946   1.973   5.416   6.211 -0.5402  0.1808 -0.3305
 4795SOL    HW318947   1.877   5.520   6.264 -1.5231 -0.1559 -1.4057
 4795SOL    MW418948   1.903   5.437   6.259 -0.2436  0.1011  0.1427
 4796SOL     OW18949   1.292   0.709   5.119 -0.1058 -0.4232 -0.0308
 4796SOL    HW218950   1.333   0.682   5.037  1.1029 -1.4530  0.8694
 4796SOL    HW318951   1.257   0.797   5.101  0.3047 -0.5554 -1.5714
 4796SOL    MW418952   1.293   0.717   5.106  0.1078 -0.5765 -0.1153
 4797SOL     OW18953   4.931   0.598   0.200  0.1574  0.8253 -0.3067
 4797SOL    HW218954   4.869   0.536   0.238 -1.3009  1.3586 -1.6884
 4797SOL    HW318955   4.979   0.548   0.134 -0.2583  0.8842 -0.6608
 4797SOL    MW418956   4.929   0.583   0.196 -0.0899  0.9035 -0.5357
 4798SOL     OW18957   5.790   2.624   1.014 -0.5257  0.3060  0.2111
 4798SOL    HW218958   5.861   2.562   1.029 -0.2293  0.9028  1.3581
 4798SOL    HW318959   5.725   2.603   1.081 -0.3269  1.3552  0.7528
 4798SOL    MW418960   5.791   2.613   1.025 -0.4604  0.5232  0.4339
 4799SOL     OW18961   1.800   5.504   4.943  0.2123  0.3940 -0.5010
 4799SOL    HW218962   1.738   5.556   4.994  0.8519 -0.6041  1.3941
 4799SOL    HW318963   1.883   5.549   4.955  0.1659  0.8140 -1.6833
 4799SOL    MW418964   1.803   5.517   4.952  0.2906  0.3177 -0.4069
 4800SOL     OW18965   0.555   4.463   2.947  0.1557 -0.2445  0.2995
 4800SOL    HW218966   0.560   4.426   3.035  0.0625 -0.0372  0.3930
 4800SOL    HW318967   0.571   4.389   2.889 -0.7214 -0.5782  0.4685
 4800SOL    MW418968   0.558   4.448   2.951  0.0277 -0.2612  0.3341
 4801SOL     OW18969   4.582   1.984   4.216  0.6155  0.6021 -0.1589
 4801SOL    HW218970   4.552   1.917   4.278 -0.3196  1.5300  0.4311
 4801SOL    HW318971   4.655   2.027   4.259  2.1322 -0.9169 -1.1219
 4801SOL    MW418972   4.587   1.981   4.230  0.6922  0.5241 -0.2081
 4802SOL     OW18973   6.001   1.623   2.427  0.3328  0.0282  0.8902
 4802SOL    HW218974   6.020   1.715   2.411 -1.7978  0.1723 -1.3624
 4802SOL    HW318975   6.088   1.581   2.432  1.3291  1.8395 -0.2053
 4802SOL    MW418976   6.015   1.629   2.426  0.1831  0.2862  0.4485
 4803SOL     OW18977   0.438   0.752   3.342  0.2660 -0.3920  1.1672
 4803SOL    HW218978   0.349   0.788   3.344  0.3140 -0.1957  0.3456
 4803SOL    HW318979   0.425   0.657   3.346 -0.0348 -0.4008  0.3036
 4803SOL    MW418980   0.424   0.744   3.343  0.2326 -0.3673  0.9448
 4804SOL     OW18981  -0.031   2.992   6.086 -0.4801  0.0824 -0.4295
 4804SOL    HW218982   0.033   2.927   6.057 -1.1853 -0.3935 -0.9463
 4804SOL    HW318983  -0.107   2.941   6.113  0.0979  0.4915  2.2556
 4804SOL    MW418984  -0.032   2.977   6.086 -0.4969  0.0736 -0.1434
 4805SOL     OW18985   0.886   2.759   5.046 -0.5674 -0.7232 -0.2099
 4805SOL    HW218986   0.808   2.804   5.014 -0.7179  0.0862  1.2037
 4805SOL    HW318987   0.910   2.699   4.975 -0.3845  1.5182 -2.1527
 4805SOL    MW418988   0.878   2.757   5.033 -0.5631 -0.3207 -0.2797
 4806SOL     OW18989   4.997   4.011   2.973 -0.5393 -0.5859  0.1763
 4806SOL    HW218990   4.961   3.966   3.049 -1.1900 -0.5008 -0.0759
 4806SOL    HW318991   4.925   4.064   2.940 -0.3105 -0.7439 -0.5948
 4806SOL    MW418992   4.983   4.012   2.978 -0.5950 -0.5955  0.0413
 4807SOL     OW18993   0.346   3.571   5.719  0.4645 -0.3363  0.2421
 4807SOL    HW218994   0.406   3.514   5.670 -0.2039 -1.4223  0.6408
 4807SOL    HW318995   0.377   3.660   5.702  1.4761 -0.8146 -0.4890
 4807SOL    MW418996   0.358   3.575   5.710  0.5098 -0.5427  0.1982
 4808SOL     OW18997   4.567   5.496   4.778 -0.0484  0.1374 -0.5219
 4808SOL    HW218998   4.496   5.522   4.719 -0.6401  0.1791  0.1943
 4808SOL    HW318999   4.633   5.565   4.767 -0.5520  0.6354 -0.4560
 4808SOL    MW419000   4.566   5.509   4.769 -0.1929  0.2086 -0.4188
 4809SOL     OW19001   3.305   4.790   2.784 -0.1405 -0.4051  0.6042
 4809SOL    HW219002   3.256   4.836   2.715  0.4440 -0.9010 -0.1609
 4809SOL    HW319003   3.384   4.843   2.797 -0.7153  0.2281  1.6181
 4809SOL    MW419004   3.309   4.803   2.776 -0.1392 -0.3870  0.6370
 4810SOL     OW19005   3.106   0.669   1.978 -0.1315  0.2935 -0.0683
 4810SOL    HW219006   3.047   0.734   2.015 -0.1324  0.1367  0.2137
 4810SOL    HW319007   3.052   0.590   1.968 -0.0253  0.2126 -0.0091
 4810SOL    MW419008   3.091   0.667   1.982 -0.1176  0.2621 -0.0233
 4811SOL     OW19009   4.143   3.863   4.830 -0.3491  0.1335  0.0133
 4811SOL    HW219010   4.221   3.916   4.843  0.5084 -0.9216 -0.7171
 4811SOL    HW319011   4.119   3.876   4.739 -1.4001  0.9037  0.3672
 4811SOL    MW419012   4.150   3.872   4.820 -0.3746  0.0959 -0.0363
 4812SOL     OW19013   3.856   5.326   5.721 -0.5561 -0.1575  0.3837
 4812SOL    HW219014   3.820   5.309   5.808 -1.2333 -2.9097 -0.3487
 4812SOL    HW319015   3.949   5.304   5.729 -0.9152 -1.9518  0.1023
 4812SOL    MW419016   3.863   5.321   5.733 -0.6929 -0.7574  0.2499
 4813SOL     OW19017   5.881   3.263   3.781  1.0260 -0.1691  0.2023
 4813SOL    HW219018   5.798   3.217   3.789  0.6987  0.1887 -0.8549
 4813SOL    HW319019   5.936   3.205   3.728  0.1110  1.1795 -2.4310
 4813SOL    MW419020   5.877   3.249   3.775  0.8621  0.0560 -0.2846
 4814SOL     OW19021   3.850   0.075   4.939  0.8578 -0.0239  0.0753
 4814SOL    HW219022   3.907   0.145   4.906 -1.5099  1.9562 -0.0181
 4814SOL    HW319023   3.765   0.116   4.953  0.0838 -2.2161  2.8297
 4814SOL    MW419024   3.847   0.090   4.937  0.4433 -0.0519  0.4264
 4815SOL     OW19025   5.107   4.073   0.733 -0.6768 -0.7003 -0.0134
 4815SOL    HW219026   5.166   4.072   0.658  2.0637 -0.3640  1.9937
 4815SOL    HW319027   5.101   4.165   0.758 -1.2885 -0.8530  0.4201
 4815SOL    MW419028   5.114   4.085   0.726 -0.3960 -0.6761  0.3086
 4816SOL     OW19029   2.761   1.836   5.124  0.0356 -0.1855  0.4393
 4816SOL    HW219030   2.744   1.878   5.208 -1.2587 -0.6206  0.4231
 4816SOL    HW319031   2.840   1.878   5.091  0.6628 -0.1219  1.9395
 4816SOL    MW419032   2.769   1.847   5.131 -0.0524 -0.2345  0.6351
 4817SOL     OW19033   1.099   2.333   5.514  0.2152  0.3449  0.2592
 4817SOL    HW219034   1.044   2.395   5.563 -0.0392  0.8210 -0.5924
 4817SOL    HW319035   1.187   2.370   5.519  0.9551 -1.4940  3.3985
 4817SOL    MW419036   1.103   2.346   5.521  0.2793  0.1651  0.5611
 4818SOL     OW19037   2.331   5.606   1.940 -0.6073  0.2661 -0.0636
 4818SOL    HW219038   2.320   5.632   2.031 -1.2488 -0.7834  0.1674
 4818SOL    HW319039   2.406   5.546   1.941 -0.2437  0.7038 -0.3301
 4818SOL    MW419040   2.340   5.602   1.952 -0.6440  0.1854 -0.0683
 4819SOL     OW19041   5.652   4.723   3.173  0.1336  0.0481  0.1138
 4819SOL    HW219042   5.641   4.810   3.137  3.0168  0.6580  0.4263
 4819SOL    HW319043   5.614   4.664   3.108  1.0912  1.3709 -1.7307
 4819SOL    MW419044   5.645   4.726   3.160  0.6403  0.3031 -0.0883
 4820SOL     OW19045   1.010   6.179   0.925  0.2238 -0.2156 -0.0745
 4820SOL    HW219046   0.970   6.108   0.875 -0.5416 -1.1911  1.8196
 4820SOL    HW319047   1.095   6.193   0.883  0.1312 -1.8298 -0.8858
 4820SOL    MW419048   1.016   6.171   0.913  0.1106 -0.5572  0.0684
 4821SOL     OW19049   4.886   5.266   3.999  0.1848  1.0769 -0.3828
 4821SOL    HW219050   4.821   5.243   4.066  0.0238  0.4809 -0.7387
 4821SOL    HW319051   4.922   5.349   4.029 -1.3104  1.8445 -0.5726
 4821SOL    MW419052   4.882   5.274   4.012 -0.0337  1.0995 -0.4548
 4822SOL     OW19053   2.520   0.457   6.351 -1.3192  0.1255  0.1543
 4822SOL    HW219054   2.509   0.387   6.287 -1.3799 -0.6591  0.9909
 4822SOL    HW319055   2.438   0.506   6.347 -1.8301 -0.6747  0.5008
 4822SOL    MW419056   2.508   0.454   6.342 -1.3946 -0.0836  0.3104
 4823SOL     OW19057   4.896   4.234   6.034  0.3599  0.1351  0.1651
 4823SOL    HW219058   4.988   4.231   6.008 -0.2085 -2.2744 -1.9704
 4823SOL    HW319059   4.849   4.251   5.953 -1.1768 -0.4760  0.8928
 4823SOL    MW419060   4.902   4.235   6.020  0.0822 -0.2634 -0.0207
 4824SOL     OW19061   6.167   3.497   2.455  0.0526  0.9623 -0.1583
 4824SOL    HW219062   6.125   3.469   2.536  3.1162  2.1222  2.0190
 4824SOL    HW319063   6.130   3.440   2.388 -1.0875 -1.5183  2.3802
 4824SOL    MW419064   6.157   3.486   2.457  0.3064  0.7880  0.4639
 4825SOL     OW19065   2.180   6.274   2.504 -0.0449 -0.3915 -0.1869
 4825SOL    HW219066   2.101   6.230   2.535  0.6877 -0.7112  1.3265
 4825SOL    HW319067   2.149   6.336   2.438 -1.2149 -2.3991 -1.6337
 4825SOL    MW419068   2.166   6.277   2.499 -0.1026 -0.6985 -0.1781
 4826SOL     OW19069   5.414   2.115   4.183 -0.6009  0.5774  0.2500
 4826SOL    HW219070   5.462   2.189   4.146 -1.2415  1.0828  0.4277
 4826SOL    HW319071   5.322   2.133   4.165 -0.7019 -0.8092 -0.8454
 4826SOL    MW419072   5.409   2.127   4.176 -0.6987  0.4611  0.1290
 4827SOL     OW19073   0.474   5.222   0.729 -1.0360  0.2444 -0.2092
 4827SOL    HW219074   0.555   5.260   0.764  0.6772 -0.6229 -2.9105
 4827SOL    HW319075   0.451   5.154   0.792  1.1763 -0.4236 -0.0280
 4827SOL    MW419076   0.482   5.218   0.742 -0.5180  0.0418 -0.5417
 4828SOL     OW19077   1.016   4.936   1.706  0.8457  0.6420 -1.0645
 4828SOL    HW219078   0.944   4.968   1.652  1.3398  2.1023 -0.9178
 4828SOL    HW319079   1.021   4.999   1.778 -0.8053 -2.0392  1.6746
 4828SOL    MW419080   1.007   4.949   1.709  0.6930  0.4810 -0.6838
 4829SOL     OW19081   1.337   1.144   0.581  0.1430  0.0695  0.4584
 4829SOL    HW219082   1.423   1.132   0.541 -1.1497 -0.4651 -2.3410
 4829SOL    HW319083   1.277   1.096   0.525 -2.2662  1.9361  1.2893
 4829SOL    MW419084   1.341   1.136   0.568 -0.3454  0.2453  0.1987
 4830SOL     OW19085   1.040   1.528   3.752 -0.3220 -0.1449  0.3851
 4830SOL    HW219086   1.011   1.615   3.781 -0.2963 -0.2335  0.6720
 4830SOL    HW319087   0.961   1.488   3.716 -0.1345  0.3641 -0.6489
 4830SOL    MW419088   1.025   1.534   3.751 -0.2938 -0.0895  0.2865
 4831SOL     OW19089   4.805   4.254   2.583  0.2910  0.6710  0.3780
 4831SOL    HW219090   4.773   4.168   2.608 -0.5473  1.0781  0.7663
 4831SOL    HW319091   4.804   4.305   2.664 -1.6054  1.7474 -0.2491
 4831SOL    MW419092   4.801   4.250   2.597 -0.0698  0.8667  0.3465
 4832SOL     OW19093   4.057   5.924   3.018 -0.1121  0.0907 -0.1613
 4832SOL    HW219094   4.132   5.923   2.958  0.9114 -1.9826  1.0415
 4832SOL    HW319095   4.094   5.901   3.103 -2.1106 -0.9322  0.4854
 4832SOL    MW419096   4.072   5.921   3.021 -0.2407 -0.3178  0.0827
 4833SOL     OW19097   6.181   5.939   5.824  0.2041  0.0785  0.8388
 4833SOL    HW219098   6.166   5.943   5.729 -0.2301 -1.1341  0.8463
 4833SOL    HW319099   6.124   6.007   5.860  0.1633  0.3607  0.2583
 4833SOL    MW419100   6.172   5.949   5.816  0.1414 -0.0443  0.7632
 4834SOL     OW19101   0.142   3.553   2.325 -0.3670 -0.1014  0.0254
 4834SOL    HW219102   0.085   3.624   2.356  0.0886  0.1734  0.2557
 4834SOL    HW319103   0.104   3.526   2.242  0.4978  1.7036 -1.0194
 4834SOL    MW419104   0.129   3.559   2.318 -0.1928  0.1730 -0.0821
 4835SOL     OW19105   6.157   1.247   3.640  0.6098  0.4856  0.2568
 4835SOL    HW219106   6.185   1.237   3.731  1.2192  0.0146  0.0236
 4835SOL    HW319107   6.063   1.264   3.645  0.5131 -0.2233  0.9378
 4835SOL    MW419108   6.148   1.248   3.652  0.6774  0.3299  0.3159
 4836SOL     OW19109   1.918   4.951   1.288  0.6966  0.0058 -0.8556
 4836SOL    HW219110   1.863   4.939   1.211  0.4644 -3.0415 -0.3380
 4836SOL    HW319111   1.858   4.950   1.362  1.3062 -3.7424 -0.2550
 4836SOL    MW419112   1.903   4.950   1.287  0.7464 -0.8908 -0.7081
 4837SOL     OW19113   2.144   5.664   0.976  0.0688 -0.4823 -0.0173
 4837SOL    HW219114   2.148   5.568   0.978  2.7791 -0.5212 -1.5728
 4837SOL    HW319115   2.206   5.692   1.044  0.6727  0.0811 -0.7773
 4837SOL    MW419116   2.153   5.655   0.985  0.5060 -0.4131 -0.3228
 4838SOL     OW19117   1.160   4.138   3.081 -0.2485 -0.6647  0.2592
 4838SOL    HW219118   1.153   4.175   2.992 -0.4154  0.2382  0.6351
 4838SOL    HW319119   1.195   4.210   3.134 -0.3051 -1.1454  0.9622
 4838SOL    MW419120   1.164   4.153   3.076 -0.2780 -0.6090  0.4015
 4839SOL     OW19121   0.812   5.876   2.959 -0.6085  0.1091 -0.5470
 4839SOL    HW219122   0.842   5.857   2.870  0.2917 -0.5731 -0.1063
 4839SOL    HW319123   0.889   5.865   3.014 -1.1625  0.4902  0.3350
 4839SOL    MW419124   0.826   5.872   2.954 -0.5628  0.0694 -0.3725
 4840SOL     OW19125   0.956   0.138   4.002 -0.0754  0.1863 -0.6482
 4840SOL    HW219126   0.963   0.060   3.946  2.2808  0.7164 -1.1728
 4840SOL    HW319127   0.989   0.210   3.948  2.9094  0.6345  1.5024
 4840SOL    MW419128   0.961   0.137   3.987  0.6293  0.3154 -0.4337
 4841SOL     OW19129   2.866   1.680   4.444  0.0851 -0.2947 -0.2641
 4841SOL    HW219130   2.828   1.651   4.361  0.1039 -0.7673 -0.1081
 4841SOL    HW319131   2.808   1.750   4.474 -2.0466 -2.5077  1.1354
 4841SOL    MW419132   2.853   1.685   4.437 -0.1937 -0.6490 -0.0589
 4842SOL     OW19133   5.064   0.337   3.838 -0.2775 -1.1545  0.2749
 4842SOL    HW219134   4.975   0.325   3.870 -0.3347 -1.2548  0.0797
 4842SOL    HW319135   5.116   0.349   3.917 -0.4314 -1.3126  0.4018
 4842SOL    MW419136   5.059   0.337   3.852 -0.3053 -1.1886  0.2659
 4843SOL     OW19137   4.431   4.748   4.997  0.0469  0.0790 -0.1855
 4843SOL    HW219138   4.398   4.715   4.914  1.9981  0.1762 -1.0409
 4843SOL    HW319139   4.362   4.807   5.028 -1.1378 -0.7156 -1.2368
 4843SOL    MW419140   4.417   4.752   4.990  0.1480 -0.0130 -0.4371
 4844SOL     OW19141   1.855   5.024   4.987 -0.3459  0.2916  0.0051
 4844SOL    HW219142   1.934   5.019   4.932 -0.8268  1.7122 -0.8792
 4844SOL    HW319143   1.822   5.113   4.973 -0.2291  0.9042  3.0246
 4844SOL    MW419144   1.861   5.035   4.978 -0.3939  0.5598  0.2868
 4845SOL     OW19145   2.756   4.938   6.199 -0.1763 -0.8671  0.3892
 4845SOL    HW219146   2.700   4.873   6.241  0.1315 -1.1485  0.3634
 4845SOL    HW319147   2.807   4.976   6.270 -0.4234 -0.5843  0.4179
 4845SOL    MW419148   2.755   4.935   6.214 -0.1683 -0.8670  0.3896
 4846SOL     OW19149   1.709   5.250   5.023 -0.1334  0.2307  0.3363
 4846SOL    HW219150   1.629   5.239   4.971 -0.2423  1.6390  0.1669
 4846SOL    HW319151   1.745   5.334   4.994  0.9574  0.0190  1.0216
 4846SOL    MW419152   1.703   5.260   5.012 -0.0038  0.3886  0.4044
 4847SOL     OW19153   5.132   2.955   4.245  0.0420 -0.5465  0.0873
 4847SOL    HW219154   5.049   3.002   4.248  0.2199 -0.0584 -1.6888
 4847SOL    HW319155   5.181   2.988   4.320  0.4053  2.6361 -1.4142
 4847SOL    MW419156   5.127   2.965   4.255  0.1134 -0.0622 -0.3451
 4848SOL     OW19157   2.460   3.875   5.674  0.2866  0.0444  0.0223
 4848SOL    HW219158   2.536   3.918   5.636  1.9610 -1.3093  1.6822
 4848SOL    HW319159   2.421   3.827   5.601  1.8079 -0.3047 -0.5983
 4848SOL    MW419160   2.465   3.874   5.660  0.7083 -0.1803  0.1595
 4849SOL     OW19161   1.838   2.199   0.257  0.4477  0.3518 -0.5923
 4849SOL    HW219162   1.830   2.195   0.352 -0.4005  0.5964 -0.6418
 4849SOL    HW319163   1.907   2.264   0.241  0.0462  0.8928 -0.1553
 4849SOL    MW419164   1.846   2.207   0.267  0.2829  0.4554 -0.5412
 4850SOL     OW19165   6.319   3.599   3.981  0.3042  0.0851 -0.7530
 4850SOL    HW219166   6.276   3.522   4.018  0.9955 -0.1530 -0.4273
 4850SOL    HW319167   6.273   3.673   4.019  0.5528 -0.1635  0.0525
 4850SOL    MW419168   6.308   3.599   3.991  0.4282  0.0209 -0.6037
 4851SOL     OW19169   1.918   2.853   4.051  0.8004  0.3158 -0.2353
 4851SOL    HW219170   1.870   2.936   4.058 -0.9295 -0.7106  0.6290
 4851SOL    HW319171   1.897   2.821   3.963  1.0717  0.5505 -0.3871
 4851SOL    MW419172   1.909   2.860   4.040  0.6080  0.2113 -0.1413
 4852SOL     OW19173   4.298   1.850   0.084  0.1204  0.2229  0.1870
 4852SOL    HW219174   4.383   1.820   0.052  1.3777  2.9723  0.6769
 4852SOL    HW319175   4.250   1.874   0.005  0.6619  0.7604  0.0181
 4852SOL    MW419176   4.303   1.849   0.070  0.3578  0.6565  0.2293
 4853SOL     OW19177   1.537   2.663   2.750  0.1633  0.5511  0.1878
 4853SOL    HW219178   1.529   2.673   2.845  0.5239  0.4328  0.2326
 4853SOL    HW319179   1.630   2.677   2.732  0.1938  0.0360 -0.0793
 4853SOL    MW419180   1.548   2.666   2.760  0.2149  0.4676  0.1585
 4854SOL     OW19181   1.994   4.039   1.095 -0.0452  0.3382  0.0921
 4854SOL    HW219182   2.050   4.064   1.021 -0.3921  2.6023  0.5027
 4854SOL    HW319183   1.908   4.076   1.073 -0.8424 -1.2033  0.4803
 4854SOL    MW419184   1.990   4.047   1.082 -0.1962  0.4335  0.1975
 4855SOL     OW19185   0.235   0.262   3.358 -0.4925 -0.0081 -0.5944
 4855SOL    HW219186   0.235   0.172   3.326  1.6187 -0.3495  0.2271
 4855SOL    HW319187   0.145   0.276   3.389 -1.2266 -1.3251 -1.9802
 4855SOL    MW419188   0.223   0.252   3.358 -0.3108 -0.2269 -0.6688
 4856SOL     OW19189   1.627   3.200   3.408  0.8966  0.3001 -0.6335
 4856SOL    HW219190   1.653   3.277   3.460  2.9378  0.7262 -2.1367
 4856SOL    HW319191   1.675   3.210   3.326  0.1261 -1.9009 -1.4161
 4856SOL    MW419192   1.637   3.212   3.404  1.0643  0.0659 -0.9351
 4857SOL     OW19193   2.728   4.790   3.689 -0.4036  0.0506 -0.1339
 4857SOL    HW219194   2.656   4.729   3.704 -0.5217  0.1948 -0.1070
 4857SOL    HW319195   2.701   4.839   3.612 -0.7216  0.6739  0.3638
 4857SOL    MW419196   2.715   4.788   3.681 -0.4612  0.1519 -0.0647
 4858SOL     OW19197   0.577   3.500   0.688 -0.5196  0.2276  0.7045
 4858SOL    HW219198   0.577   3.429   0.752 -0.8735  0.6718  1.2012
 4858SOL    HW319199   0.553   3.577   0.738 -0.7398  0.5909  0.0408
 4858SOL    MW419200   0.574   3.501   0.703 -0.5953  0.3341  0.6825
 4859SOL     OW19201   0.707   4.473   4.351  0.5485  0.3948 -0.3615
 4859SOL    HW219202   0.648   4.471   4.276  1.2841  1.9449 -1.0236
 4859SOL    HW319203   0.684   4.554   4.398  0.5153 -0.2347  0.7580
 4859SOL    MW419204   0.696   4.483   4.348  0.6412  0.5162 -0.3012
 4860SOL     OW19205   6.015   0.591   5.409 -0.1724 -0.4910  0.7359
 4860SOL    HW219206   5.955   0.612   5.481 -1.1584 -2.8974  0.7359
 4860SOL    HW319207   5.959   0.549   5.343  0.8513  0.8926 -1.1251
 4860SOL    MW419208   6.000   0.588   5.410 -0.1674 -0.6260  0.4903
 4861SOL     OW19209   0.519   6.310   1.762 -0.1886  0.2870  0.4274
 4861SOL    HW219210   0.611   6.335   1.773  0.3410 -1.0376 -0.7859
 4861SOL    HW319211   0.499   6.258   1.841  0.9692 -1.7527 -0.5470
 4861SOL    MW419212   0.528   6.306   1.774  0.0340 -0.1568  0.1387
 4862SOL     OW19213   3.042   2.147   4.180 -0.1710  0.3053  0.3621
 4862SOL    HW219214   2.982   2.078   4.206  0.5593 -0.4329  0.1407
 4862SOL    HW319215   3.029   2.156   4.085  1.2893 -1.1103 -0.0201
 4862SOL    MW419216   3.033   2.139   4.171  0.1180  0.0212  0.2825
 4863SOL     OW19217   1.034   0.101   2.755 -0.0547 -0.1176  0.5004
 4863SOL    HW219218   1.061   0.010   2.753 -0.3333 -0.2024  0.4967
 4863SOL    HW319219   0.952   0.103   2.705 -1.1864 -0.2480  2.2545
 4863SOL    MW419220   1.027   0.089   2.748 -0.2408 -0.1460  0.7314
 4864SOL     OW19221   6.134   6.180   4.039 -0.3593  0.6363 -0.2665
 4864SOL    HW219222   6.075   6.108   4.062 -1.7673  1.6266 -0.6233
 4864SOL    HW319223   6.132   6.183   3.943  1.4886 -0.2602 -0.3709
 4864SOL    MW419224   6.126   6.171   4.029 -0.3012  0.6487 -0.3274
 4865SOL     OW19225   3.191   1.462   2.160  0.4231 -0.1411  0.2061
 4865SOL    HW219226   3.279   1.482   2.192  1.1881  0.4652 -2.1105
 4865SOL    HW319227   3.154   1.547   2.139 -0.6419 -0.4181  0.9074
 4865SOL    MW419228   3.198   1.476   2.161  0.3836 -0.0977 -0.0070
 4866SOL     OW19229   1.942   6.295   6.348  0.3310  0.3266  0.3307
 4866SOL    HW219230   1.890   6.233   6.400 -0.6788  0.1747 -0.8110
 4866SOL    HW319231   1.957   6.368   6.407  0.1581 -0.3100  1.1960
 4866SOL    MW419232   1.937   6.296   6.363  0.1749  0.2226  0.2943
 4867SOL     OW19233   4.771   4.771   0.215 -0.4296  0.3738 -0.4094
 4867SOL    HW219234   4.780   4.679   0.192  0.7355  0.3148  0.2452
 4867SOL    HW319235   4.843   4.789   0.275  0.0377  1.9898 -1.3754
 4867SOL    MW419236   4.782   4.761   0.220 -0.2142  0.5792 -0.4505
 4868SOL     OW19237   5.171   5.873   4.605 -0.2042 -0.6114  0.5182
 4868SOL    HW219238   5.245   5.817   4.629 -0.7023 -1.9610 -0.9423
 4868SOL    HW319239   5.211   5.946   4.558  0.2349 -1.1911 -0.0250
 4868SOL    MW419240   5.186   5.875   4.602 -0.2120 -0.8660  0.2538
 4869SOL     OW19241   0.699   0.434   2.777 -0.1845  0.6606 -0.4256
 4869SOL    HW219242   0.740   0.428   2.691 -0.5162  1.3582 -0.6459
 4869SOL    HW319243   0.760   0.392   2.837  0.2377  0.5344 -0.9439
 4869SOL    MW419244   0.712   0.428   2.774 -0.1726  0.7360 -0.5230
 4870SOL     OW19245   2.374   4.313   5.631 -0.3224 -0.0111  0.7299
 4870SOL    HW219246   2.457   4.359   5.640 -0.6063  0.6050  0.3284
 4870SOL    HW319247   2.308   4.380   5.648 -0.7367 -0.7195  2.0556
 4870SOL    MW419248   2.376   4.328   5.635 -0.4145 -0.0233  0.8519
 4871SOL     OW19249   1.847   1.940   5.943  0.1398 -0.5434 -0.0281
 4871SOL    HW219250   1.856   2.033   5.921  0.3493 -0.5503  0.0285
 4871SOL    HW319251   1.855   1.938   6.039  1.0665 -0.7261 -0.1018
 4871SOL    MW419252   1.849   1.952   5.953  0.2897 -0.5684 -0.0303
 4872SOL     OW19253   0.756   3.488   0.420 -0.1413 -0.1136  0.4629
 4872SOL    HW219254   0.671   3.506   0.459 -0.1899 -2.0553  1.3913
 4872SOL    HW319255   0.815   3.475   0.495  0.9639  1.0476 -0.1564
 4872SOL    MW419256   0.753   3.489   0.435 -0.0019 -0.2166  0.5037
 4873SOL     OW19257   3.622   5.919   4.635  0.1782 -0.2124  0.0878
 4873SOL    HW219258   3.658   5.961   4.557  0.1298 -0.3783 -0.0233
 4873SOL    HW319259   3.529   5.940   4.633  0.4029  0.9222  0.8157
 4873SOL    MW419260   3.615   5.927   4.625  0.2014 -0.0846  0.1692
 4874SOL     OW19261   6.034   3.971   6.359  0.1018 -0.1213  0.0868
 4874SOL    HW219262   5.957   4.014   6.396 -0.6212 -1.8782  0.7131
 4874SOL    HW319263   6.107   4.025   6.387 -0.7805  0.7993  0.6792
 4874SOL    MW419264   6.033   3.984   6.367 -0.1100 -0.2316  0.2476
 4875SOL     OW19265   5.217   3.328   5.515 -0.0090 -0.5315  0.5791
 4875SOL    HW219266   5.242   3.257   5.456 -0.7817 -0.8138  0.5807
 4875SOL    HW319267   5.159   3.286   5.579 -0.9010  0.2013  0.2680
 4875SOL    MW419268   5.213   3.313   5.516 -0.2286 -0.4721  0.5383
 4876SOL     OW19269   6.290   0.622   4.704 -0.0458  0.3785  0.1661
 4876SOL    HW219270   6.313   0.568   4.628  0.7693 -1.2640  1.5243
 4876SOL    HW319271   6.198   0.643   4.691 -0.8246 -2.5547  0.2271
 4876SOL    MW419272   6.281   0.618   4.692 -0.0410 -0.2252  0.3533
 4877SOL     OW19273   5.221   1.256   0.526  0.1131  0.8037  0.5790
 4877SOL    HW219274   5.179   1.203   0.458  0.3107 -0.3815  1.3471
 4877SOL    HW319275   5.149   1.307   0.564 -0.5273 -0.5729  1.3041
 4877SOL    MW419276   5.206   1.255   0.522  0.0547  0.4657  0.7760
 4878SOL     OW19277   0.880   3.651   3.861  0.7351  0.1036  0.1263
 4878SOL    HW219278   0.795   3.627   3.824  1.4899 -1.2812 -0.7848
 4878SOL    HW319279   0.866   3.739   3.897 -1.1892 -0.2726  0.4129
 4878SOL    MW419280   0.867   3.659   3.861  0.5808 -0.1288  0.0439
 4879SOL     OW19281   0.920   5.306   3.911 -0.3266 -0.1660  0.4637
 4879SOL    HW219282   0.978   5.280   3.984 -0.3504 -1.2162  0.1271
 4879SOL    HW319283   0.929   5.235   3.848  0.1654  1.0265 -0.8573
 4879SOL    MW419284   0.929   5.293   3.913 -0.2648 -0.1473  0.2450
 4880SOL     OW19285   0.043   6.307   5.942 -0.0442 -0.4801 -0.0801
 4880SOL    HW219286   0.090   6.384   5.974  0.3669 -1.0736  0.7984
 4880SOL    HW319287   0.026   6.325   5.850 -0.0279  0.6931  0.1291
 4880SOL    MW419288   0.047   6.320   5.934  0.0122 -0.4036  0.0634
 4881SOL     OW19289   3.401   5.242   2.509 -0.3382 -0.4366 -0.2276
 4881SOL    HW219290   3.438   5.184   2.576  0.2970 -0.1478 -0.3187
 4881SOL    HW319291   3.465   5.239   2.437 -0.3685  0.2580 -0.2921
 4881SOL    MW419292   3.415   5.234   2.508 -0.2584 -0.3068 -0.2481
 4882SOL     OW19293   0.866   2.027   4.384 -0.0889  0.2230 -0.6702
 4882SOL    HW219294   0.801   2.021   4.454  0.4279 -0.0655 -0.2061
 4882SOL    HW319295   0.815   2.022   4.303 -0.5366 -1.1909 -0.3205
 4882SOL    MW419296   0.851   2.026   4.383 -0.0798 -0.0016 -0.5628
 4883SOL     OW19297   0.552   1.601   1.779 -0.4699  0.0188 -0.1312
 4883SOL    HW219298   0.592   1.688   1.778 -1.4778  0.5079 -1.0845
 4883SOL    HW319299   0.479   1.609   1.840 -1.1649  0.1571 -0.9546
 4883SOL    MW419300   0.548   1.614   1.787 -0.6946  0.1016 -0.3656
 4884SOL     OW19301   2.994   4.026   4.263 -0.2115 -0.3073 -0.1020
 4884SOL    HW219302   2.998   4.006   4.170  1.4084 -0.3989 -0.0366
 4884SOL    HW319303   3.085   4.042   4.288 -0.3556 -2.2085  1.8844
 4884SOL    MW419304   3.006   4.026   4.254 -0.0168 -0.5702  0.1687
 4885SOL     OW19305   2.243   2.714   3.877  0.2431 -0.1900  0.4658
 4885SOL    HW219306   2.148   2.701   3.875  0.2141  0.1183 -0.8631
 4885SOL    HW319307   2.272   2.665   3.954 -1.1695  0.9323  1.7896
 4885SOL    MW419308   2.234   2.706   3.887  0.0529 -0.0013  0.4651
 4886SOL     OW19309   5.072   0.700   3.590  0.1175  0.2727 -0.2600
 4886SOL    HW219310   5.024   0.618   3.576 -1.1209  0.6956  1.1883
 4886SOL    HW319311   5.066   0.746   3.506  1.8292 -1.5595 -1.4651
 4886SOL    MW419312   5.065   0.695   3.577  0.1799  0.0868 -0.2279
 4887SOL     OW19313   3.943   2.044   0.332 -0.4429  0.8326 -0.7554
 4887SOL    HW219314   4.004   1.976   0.302 -0.3224  0.0040  1.1945
 4887SOL    HW319315   3.985   2.126   0.306  2.1816  0.3573  1.4468
 4887SOL    MW419316   3.957   2.045   0.324 -0.0807  0.6606 -0.2076
 4888SOL     OW19317   1.978   5.562   4.409 -0.1004 -0.4368 -0.6705
 4888SOL    HW219318   1.950   5.496   4.346  3.4886  0.7700 -3.9173
 4888SOL    HW319319   2.045   5.517   4.462  0.1722 -0.2209 -0.8300
 4888SOL    MW419320   1.983   5.547   4.408  0.4091 -0.2491 -1.1200
 4889SOL     OW19321   3.893   3.495   2.168 -0.1762 -0.1759  0.2094
 4889SOL    HW219322   3.842   3.572   2.146 -0.0081 -0.0586  0.2249
 4889SOL    HW319323   3.984   3.522   2.154 -0.0421  0.0112  1.3365
 4889SOL    MW419324   3.899   3.509   2.164 -0.1363 -0.1358  0.3601
 4890SOL     OW19325   4.244   5.814   0.076  0.2770 -0.7315 -0.2409
 4890SOL    HW219326   4.336   5.798   0.056  0.4923  0.3185 -0.1070
 4890SOL    HW319327   4.236   5.909   0.081 -0.9186 -0.7978 -0.7072
 4890SOL    MW419328   4.255   5.824   0.074  0.1477 -0.6017 -0.2848
 4891SOL     OW19329   2.249   0.611   2.597 -0.2210  0.2501  0.0444
 4891SOL    HW219330   2.248   0.688   2.539  1.4289 -0.2197 -0.6641
 4891SOL    HW319331   2.248   0.648   2.685  0.1376  1.0792 -0.2878
 4891SOL    MW419332   2.248   0.626   2.601  0.0440  0.2975 -0.0929
 4892SOL     OW19333   4.451   5.535   5.259  0.5560 -0.2425 -0.3859
 4892SOL    HW219334   4.385   5.466   5.256  1.4364 -1.0989 -0.6528
 4892SOL    HW319335   4.404   5.614   5.234 -0.5118 -0.7091  0.0627
 4892SOL    MW419336   4.436   5.536   5.255  0.5313 -0.4170 -0.3619
 4893SOL     OW19337   5.073   5.881   1.983 -0.5117 -0.2902 -0.2685
 4893SOL    HW219338   5.112   5.962   1.951  0.5919 -0.2182  1.1364
 4893SOL    HW319339   5.106   5.873   2.073 -1.8706 -1.4790  0.1554
 4893SOL    MW419340   5.083   5.890   1.991 -0.5454 -0.4375 -0.0272
 4894SOL     OW19341   4.130   4.988   5.588  0.5233 -0.2421 -0.1270
 4894SOL    HW219342   4.120   4.921   5.656  1.9906  0.5594  0.9545
 4894SOL    HW319343   4.126   4.939   5.506 -1.2595 -1.2531  0.5054
 4894SOL    MW419344   4.128   4.972   5.586  0.4817 -0.2697  0.0991
 4895SOL     OW19345   3.795   1.600   0.371  0.2675  0.1479  0.3750
 4895SOL    HW219346   3.749   1.517   0.381 -0.2841  0.4606  0.5211
 4895SOL    HW319347   3.858   1.585   0.301 -0.7978  0.0125 -0.5817
 4895SOL    MW419348   3.797   1.587   0.363  0.0542  0.1713  0.2681
 4896SOL     OW19349   2.889   4.194   0.615 -0.2682 -0.7201 -0.0583
 4896SOL    HW219350   2.828   4.121   0.620 -0.4213 -0.4918  3.1158
 4896SOL    HW319351   2.833   4.271   0.602 -0.3981 -0.8150 -0.0667
 4896SOL    MW419352   2.874   4.195   0.614 -0.3055 -0.7025  0.3594
 4897SOL     OW19353   2.973   1.343   3.250 -0.5366 -0.5868 -0.5430
 4897SOL    HW219354   2.897   1.387   3.213  0.3841  1.7877  0.1961
 4897SOL    HW319355   3.044   1.362   3.189  0.0688 -0.2383  0.2432
 4897SOL    MW419356   2.973   1.352   3.237 -0.3352 -0.2276 -0.3418
 4898SOL     OW19357   6.165   2.363   1.881 -0.4409  0.1124 -0.2458
 4898SOL    HW219358   6.132   2.279   1.912 -1.0337  0.0331 -1.0699
 4898SOL    HW319359   6.249   2.374   1.927  0.9386 -2.1584 -2.0348
 4898SOL    MW419360   6.172   2.353   1.891 -0.3371 -0.1976 -0.5906
 4899SOL     OW19361   5.031   4.968   4.332  0.1972 -0.3201 -0.5960
 4899SOL    HW219362   4.974   4.913   4.385  2.8499 -0.1935  2.7773
 4899SOL    HW319363   5.112   4.918   4.324  1.5484  1.6793 -0.2699
 4899SOL    MW419364   5.035   4.954   4.338  0.7254 -0.0396 -0.1079
 4900SOL     OW19365   5.867   2.571   6.264 -0.4192  0.0810  0.2636
 4900SOL    HW219366   5.890   2.658   6.232  0.7378  0.1453  1.2136
 4900SOL    HW319367   5.948   2.521   6.256 -0.9827 -0.8131  0.0568
 4900SOL    MW419368   5.881   2.576   6.258 -0.3409 -0.0285  0.3617
 4901SOL     OW19369   1.419   2.116   4.001 -0.0382  0.1777  0.0440
 4901SOL    HW219370   1.387   2.035   4.040 -1.1126  1.4215  1.8731
 4901SOL    HW319371   1.364   2.128   3.923  0.3691 -0.9844 -0.4554
 4901SOL    MW419372   1.408   2.107   3.996 -0.1262  0.1885  0.2194
 4902SOL     OW19373   5.699   2.337   6.013 -0.4103  0.3546  0.4052
 4902SOL    HW219374   5.738   2.424   6.021  0.4244 -0.0504  0.8429
 4902SOL    HW319375   5.676   2.331   5.920  0.7675  0.5388  0.0798
 4902SOL    MW419376   5.701   2.348   6.002 -0.1447  0.3254  0.4200
 4903SOL     OW19377   3.975   2.031   1.347 -0.0771  0.5239 -0.0525
 4903SOL    HW219378   3.972   2.119   1.384  0.1751  0.2426  0.6703
 4903SOL    HW319379   3.883   2.004   1.342 -0.3066  1.4747 -1.9538
 4903SOL    MW419380   3.962   2.039   1.351 -0.0741  0.6123 -0.2080
 4904SOL     OW19381   3.317   1.815   5.956  0.3932  0.5142  0.0862
 4904SOL    HW219382   3.367   1.739   5.986  1.6542  1.1755 -0.2439
 4904SOL    HW319383   3.371   1.852   5.886 -1.8495 -0.2621 -2.1840
 4904SOL    MW419384   3.331   1.810   5.951  0.2637  0.4990 -0.2569
 4905SOL     OW19385   5.351   3.036   1.634  0.2236 -0.1596 -0.3176
 4905SOL    HW219386   5.314   2.952   1.606  0.5614 -0.4342  0.0520
 4905SOL    HW319387   5.305   3.056   1.715 -0.7849  0.6574 -1.0519
 4905SOL    MW419388   5.340   3.027   1.641  0.1351 -0.0881 -0.3657
 4906SOL     OW19389   0.838   6.392   0.903 -0.1205 -0.2606  0.0989
 4906SOL    HW219390   0.902   6.452   0.940 -0.6394  1.9544 -2.2766
 4906SOL    HW319391   0.885   6.308   0.895  2.0383  0.9102 -0.2678
 4906SOL    MW419392   0.853   6.389   0.907  0.0958  0.1861 -0.2629
 4907SOL     OW19393   3.404   2.812   6.087 -0.4580  0.0455 -0.3812
 4907SOL    HW219394   3.495   2.791   6.106 -0.8417 -1.3385  0.0114
 4907SOL    HW319395   3.407   2.902   6.054  1.1047 -0.1858 -0.9508
 4907SOL    MW419396   3.417   2.821   6.085 -0.3024 -0.1676 -0.4045
 4908SOL     OW19397   0.845   2.894   1.461 -0.0978 -0.0430  0.3081
 4908SOL    HW219398   0.855   2.938   1.546  1.3656 -0.7014  0.5149
 4908SOL    HW319399   0.823   2.804   1.483  1.6498 -0.5613  0.0690
 4908SOL    MW419400   0.844   2.888   1.475  0.3258 -0.1982  0.3039
 4909SOL     OW19401   2.189   4.837   2.680 -0.1902  0.1302  0.0310
 4909SOL    HW219402   2.189   4.833   2.585  0.1124 -2.5179  0.0587
 4909SOL    HW319403   2.102   4.872   2.703 -1.1681 -1.3184 -1.2423
 4909SOL    MW419404   2.177   4.841   2.671 -0.2793 -0.4103 -0.1334
 4910SOL     OW19405   4.571   1.159   4.945  0.0227 -0.1195 -0.1062
 4910SOL    HW219406   4.483   1.169   4.909 -0.6017 -1.1017  1.0596
 4910SOL    HW319407   4.630   1.189   4.875 -1.2420  0.9537 -0.7399
 4910SOL    MW419408   4.568   1.164   4.931 -0.2265 -0.1075 -0.0360
 4911SOL     OW19409   1.083   2.376   1.562  0.2771 -0.3173 -0.6835
 4911SOL    HW219410   1.152   2.442   1.556  0.1636  0.0433  1.1972
 4911SOL    HW319411   1.126   2.294   1.536  1.3773 -0.0563  0.1925
 4911SOL    MW419412   1.098   2.374   1.558  0.4073 -0.2353 -0.3198
 4912SOL     OW19413   2.047   2.803   5.811 -0.4201 -0.5778  0.4074
 4912SOL    HW219414   2.011   2.876   5.861 -0.4146  0.6847 -1.3273
 4912SOL    HW319415   2.141   2.803   5.833 -0.4501 -0.1620  0.5440
 4912SOL    MW419416   2.055   2.813   5.820 -0.4233 -0.3564  0.1965
 4913SOL     OW19417   0.025   1.137   2.182 -0.1305  0.3104 -0.1687
 4913SOL    HW219418  -0.070   1.125   2.180 -0.0219 -1.7450  2.2506
 4913SOL    HW319419   0.052   1.138   2.090 -2.4231  0.5148 -0.8877
 4913SOL    MW419420   0.016   1.136   2.170 -0.4187  0.0662  0.0557
 4914SOL     OW19421   1.472   4.728   2.522 -0.6144 -0.5070 -0.7636
 4914SOL    HW219422   1.489   4.689   2.436  0.2743 -0.4951 -0.6012
 4914SOL    HW319423   1.449   4.819   2.503  0.6284 -0.2108 -0.9391
 4914SOL    MW419424   1.471   4.735   2.508 -0.3332 -0.4663 -0.7654
 4915SOL     OW19425   5.421   2.796   0.274 -0.1775 -0.4079  0.0243
 4915SOL    HW219426   5.390   2.883   0.248  0.1019 -0.1868  0.4165
 4915SOL    HW319427   5.435   2.803   0.369 -0.1235 -0.8704  0.0529
 4915SOL    MW419428   5.419   2.809   0.283 -0.1335 -0.4398  0.0798
 4916SOL     OW19429   0.595   2.023   3.361  1.1740 -0.0848  0.3246
 4916SOL    HW219430   0.626   1.958   3.297  0.9930  0.6690 -0.5497
 4916SOL    HW319431   0.520   1.982   3.403  1.2754 -0.5839  0.0258
 4916SOL    MW419432   0.589   2.009   3.358  1.1635 -0.0512  0.1698
 4917SOL     OW19433   6.027   2.074   1.480  0.0291 -0.3596 -0.0177
 4917SOL    HW219434   6.117   2.090   1.509  0.4928 -2.5188 -0.1074
 4917SOL    HW319435   6.037   2.037   1.393 -0.9687 -0.4537 -0.0968
 4917SOL    MW419436   6.041   2.071   1.472 -0.0413 -0.6569 -0.0399
 4918SOL     OW19437   4.471   0.810   2.114  0.6458  0.2776 -0.2433
 4918SOL    HW219438   4.544   0.873   2.115  1.8935 -1.1106 -0.4052
 4918SOL    HW319439   4.437   0.812   2.204  1.2522  0.5514 -0.0103
 4918SOL    MW419440   4.476   0.819   2.126  0.8905  0.1306 -0.2339
 4919SOL     OW19441   4.733   2.077   1.677 -0.1831 -0.0387 -0.6642
 4919SOL    HW219442   4.802   2.014   1.659 -1.7375 -2.2541  0.6389
 4919SOL    HW319443   4.779   2.155   1.710  1.6700 -1.6954  0.8772
 4919SOL    MW419444   4.748   2.079   1.679 -0.1437 -0.5495 -0.2889
 4920SOL     OW19445   6.039   3.812   5.572  0.1375  0.5603 -0.5953
 4920SOL    HW219446   5.995   3.762   5.504  1.4295 -1.0418 -0.3123
 4920SOL    HW319447   5.993   3.787   5.653 -0.1862  1.0152 -0.6349
 4920SOL    MW419448   6.027   3.802   5.574  0.2653  0.4090 -0.5632
 4921SOL     OW19449   0.279   4.465   2.932 -0.2193 -0.1413  0.4539
 4921SOL    HW219450   0.269   4.376   2.901 -1.8703  0.0958  0.2458
 4921SOL    HW319451   0.374   4.482   2.927 -0.1615 -0.9163 -2.1450
 4921SOL    MW419452   0.290   4.456   2.927 -0.4295 -0.2123  0.0836
 4922SOL     OW19453   1.006   4.681   2.524 -0.2748 -0.5412  0.0287
 4922SOL    HW219454   0.964   4.711   2.443  1.8049  0.4550 -0.7441
 4922SOL    HW319455   1.044   4.596   2.500 -0.2955 -0.5966  0.1944
 4922SOL    MW419456   1.006   4.674   2.510 -0.0031 -0.4170 -0.0514
 4923SOL     OW19457   1.663   2.241   1.795  0.5083  0.0832  0.0677
 4923SOL    HW219458   1.654   2.335   1.781  1.6343  0.0858 -0.7717
 4923SOL    HW319459   1.637   2.202   1.712  3.6132 -0.1140 -0.9192
 4923SOL    MW419460   1.658   2.248   1.782  1.0666  0.0575 -0.1733
 4924SOL     OW19461   5.458   2.143   4.759  0.2429  0.4389 -0.1083
 4924SOL    HW219462   5.427   2.125   4.670 -2.3907 -0.2346  0.8523
 4924SOL    HW319463   5.451   2.238   4.768 -2.7344  0.2770  0.3515
 4924SOL    MW419464   5.453   2.153   4.749 -0.4974  0.3286  0.0791
 4925SOL     OW19465   5.964   5.850   3.757  0.3636 -0.6706  0.8666
 4925SOL    HW219466   6.009   5.933   3.749 -0.5020 -0.0517  2.0449
 4925SOL    HW319467   6.033   5.784   3.761  1.0407 -0.1394 -1.0247
 4925SOL    MW419468   5.979   5.852   3.757  0.3388 -0.5188  0.7725
 4926SOL     OW19469   5.769   0.158   2.500  0.2382  0.4828 -0.5209
 4926SOL    HW219470   5.793   0.085   2.557 -0.8655  0.2581 -0.3255
 4926SOL    HW319471   5.801   0.236   2.547  2.8933  0.0958 -1.4908
 4926SOL    MW419472   5.777   0.159   2.514  0.4429  0.4021 -0.6231
 4927SOL     OW19473   2.274   2.145   2.065  0.2910 -0.1695 -0.0676
 4927SOL    HW219474   2.323   2.078   2.016 -1.0602  1.4237 -4.0076
 4927SOL    HW319475   2.188   2.107   2.078  0.1010  0.0652 -0.6062
 4927SOL    MW419476   2.269   2.131   2.060  0.0877  0.0717 -0.6585
 4928SOL     OW19477   0.541   3.950   1.525  0.2344  0.0726 -0.0270
 4928SOL    HW219478   0.603   4.022   1.538 -0.3517  0.6877 -0.4989
 4928SOL    HW319479   0.555   3.922   1.435  2.0874 -2.0307  0.8419
 4928SOL    MW419480   0.551   3.956   1.515  0.4015 -0.1237  0.0254
 4929SOL     OW19481   2.287   5.559   3.978 -0.0642 -0.1015  0.0174
 4929SOL    HW219482   2.247   5.619   4.041  0.7503  0.3348  0.1211
 4929SOL    HW319483   2.368   5.602   3.951 -0.0564 -0.6109 -0.8005
 4929SOL    MW419484   2.292   5.572   3.983  0.0443 -0.1112 -0.0768
 4930SOL     OW19485   3.649   3.375   5.187  0.1353 -0.5304  0.1055
 4930SOL    HW219486   3.718   3.434   5.156 -0.2398 -0.2172 -0.1388
 4930SOL    HW319487   3.600   3.427   5.250  1.9078 -1.6692  2.5971
 4930SOL    MW419488   3.652   3.390   5.191  0.3197 -0.6393  0.4020
 4931SOL     OW19489   5.137   5.194   2.064 -0.5261  0.3367  0.0880
 4931SOL    HW219490   5.114   5.280   2.029 -0.9616 -0.7746 -2.7124
 4931SOL    HW319491   5.054   5.146   2.066 -0.0013 -0.6379 -0.4709
 4931SOL    MW419492   5.123   5.199   2.059 -0.5143  0.0615 -0.3552
 4932SOL     OW19493   2.361   1.889   5.844 -0.6238  0.1319 -0.1447
 4932SOL    HW219494   2.359   1.800   5.809 -2.4920  0.5305 -1.1301
 4932SOL    HW319495   2.302   1.887   5.919  0.7716  0.1249  1.0128
 4932SOL    MW419496   2.353   1.877   5.849 -0.6861  0.1835 -0.1220
 4933SOL     OW19497   5.270   5.888   1.306 -0.2697 -0.6308  0.1914
 4933SOL    HW219498   5.298   5.797   1.304  0.1530 -0.5181  0.5763
 4933SOL    HW319499   5.330   5.929   1.369  0.3104  0.1661 -0.8471
 4933SOL    MW419500   5.282   5.882   1.314 -0.1374 -0.5108  0.1052
 4934SOL     OW19501   5.669   6.180   2.491  0.7022  0.0644 -0.1759
 4934SOL    HW219502   5.689   6.164   2.399  1.1798  2.2056 -0.4968
 4934SOL    HW319503   5.577   6.205   2.492  1.3073  2.6203 -0.5223
 4934SOL    MW419504   5.660   6.181   2.479  0.8450  0.6842 -0.2640
 4935SOL     OW19505   2.187   5.132   2.928 -0.0524  0.4362 -0.3813
 4935SOL    HW219506   2.224   5.044   2.920  0.2006  0.4745  0.2404
 4935SOL    HW319507   2.264   5.189   2.930 -0.0966  0.4883  1.2911
 4935SOL    MW419508   2.202   5.128   2.928 -0.0249  0.4481 -0.0786
 4936SOL     OW19509   4.235   1.032   3.632  0.2594  0.3052  0.0317
 4936SOL    HW219510   4.255   1.095   3.702 -0.4376 -1.0913  1.5678
 4936SOL    HW319511   4.233   0.947   3.676 -0.0931 -0.6541 -1.7347
 4936SOL    MW419512   4.237   1.029   3.647  0.1210 -0.0056  0.0013
 4937SOL     OW19513   4.988   5.218   3.087 -0.1321  0.0034  0.0679
 4937SOL    HW219514   5.011   5.247   2.999 -0.3602  1.2242  0.3942
 4937SOL    HW319515   5.030   5.282   3.145 -1.3520  0.1892  0.7891
 4937SOL    MW419516   4.997   5.230   3.083 -0.3231  0.1890  0.2061
 4938SOL     OW19517   6.200   4.119   3.758 -0.2548 -0.1121 -0.9879
 4938SOL    HW219518   6.255   4.041   3.762 -1.4343 -0.9782 -1.1733
 4938SOL    HW319519   6.262   4.192   3.759  0.8613 -1.0340 -0.5577
 4938SOL    MW419520   6.216   4.119   3.759 -0.2632 -0.3480 -0.9556
 4939SOL     OW19521   2.647   1.999   3.930 -0.3065  0.1594  0.5932
 4939SOL    HW219522   2.689   2.082   3.909  1.2561 -0.3522  1.5640
 4939SOL    HW319523   2.626   2.006   4.023  1.1180 -1.0318  1.0356
 4939SOL    MW419524   2.650   2.011   3.940  0.0876 -0.0653  0.7797
 4940SOL     OW19525   3.955   5.068   2.787 -0.3883  0.1278  0.1997
 4940SOL    HW219526   4.038   5.028   2.815 -0.4235 -0.4860 -0.5287
 4940SOL    HW319527   3.964   5.160   2.811  1.2787  0.4701 -1.5270
 4940SOL    MW419528   3.967   5.075   2.794 -0.1730  0.0920 -0.1243
 4941SOL     OW19529   0.907   5.843   6.238  0.3986 -0.6308 -0.5316
 4941SOL    HW219530   0.989   5.869   6.197  0.0932  0.3102 -0.5661
 4941SOL    HW319531   0.862   5.925   6.257  1.0787 -0.9168  2.8990
 4941SOL    MW419532   0.912   5.857   6.235  0.4481 -0.5444 -0.0835
 4942SOL     OW19533   2.690   3.610   2.328  0.0457  0.1744 -0.0189
 4942SOL    HW219534   2.602   3.574   2.323  0.5178 -1.0587  0.1677
 4942SOL    HW319535   2.700   3.663   2.249 -0.2191 -1.1891 -0.9850
 4942SOL    MW419536   2.680   3.612   2.317  0.0730 -0.1682 -0.1218
 4943SOL     OW19537   2.649   4.790   0.411 -0.2618 -0.9937  0.2774
 4943SOL    HW219538   2.735   4.755   0.435  0.6470  0.1607 -1.1231
 4943SOL    HW319539   2.667   4.853   0.341 -2.3069 -1.0476 -0.3686
 4943SOL    MW419540   2.663   4.794   0.405 -0.4117 -0.8485  0.0074
 4944SOL     OW19541   5.276   1.988   2.560  0.1441  0.5960 -0.3872
 4944SOL    HW219542   5.197   1.952   2.520  0.4264  0.5455 -0.9098
 4944SOL    HW319543   5.340   1.917   2.553 -0.0568  0.2296  1.0133
 4944SOL    MW419544   5.274   1.974   2.554  0.1549  0.5410 -0.2714
 4945SOL     OW19545   6.019   2.372   2.682 -0.1806  0.1216  0.0161
 4945SOL    HW219546   5.975   2.434   2.740 -0.5131 -0.2445  0.1519
 4945SOL    HW319547   6.059   2.308   2.741 -3.0088 -1.9884 -0.1864
 4945SOL    MW419548   6.019   2.372   2.697 -0.5976 -0.2051  0.0073
 4946SOL     OW19549   3.430   6.201   6.356  0.3603  0.0226  0.0951
 4946SOL    HW219550   3.524   6.193   6.339  0.5700 -0.3653  1.3960
 4946SOL    HW319551   3.423   6.218   6.450 -0.9208 -1.1269  0.2404
 4946SOL    MW419552   3.442   6.202   6.366  0.2189 -0.1802  0.2859
 4947SOL     OW19553   2.511   4.334   4.650 -0.0686 -0.8901  0.1802
 4947SOL    HW219554   2.523   4.346   4.556 -1.6106 -0.5427 -0.0061
 4947SOL    HW319555   2.581   4.275   4.677  1.9428  0.9496 -0.7089
 4947SOL    MW419556   2.521   4.328   4.641 -0.0067 -0.6015  0.0383
 4948SOL     OW19557   3.159   4.038   0.444  0.0473 -0.0159  0.1749
 4948SOL    HW219558   3.187   4.001   0.361  0.8082 -0.2382  0.5188
 4948SOL    HW319559   3.095   3.976   0.479  0.9249 -0.7533  0.5030
 4948SOL    MW419560   3.154   4.025   0.438  0.2635 -0.1425  0.2636
 4949SOL     OW19561   3.849   0.898   4.288 -0.2215  0.6008  0.4118
 4949SOL    HW219562   3.882   0.887   4.377  0.0444 -1.4394  0.1157
 4949SOL    HW319563   3.753   0.896   4.298 -0.2485 -2.3235  0.4786
 4949SOL    MW419564   3.841   0.896   4.301 -0.1900 -0.0542  0.3816
 4950SOL     OW19565   1.886   0.613   5.692  0.3574 -0.4671 -0.2174
 4950SOL    HW219566   1.889   0.666   5.612 -1.3263  0.1298  0.0678
 4950SOL    HW319567   1.807   0.560   5.681 -0.6737  0.6095  1.6282
 4950SOL    MW419568   1.876   0.613   5.680 -0.0008 -0.2463  0.0637
 4951SOL     OW19569   2.124   4.383   6.093 -0.4627  0.4493 -0.0873
 4951SOL    HW219570   2.100   4.460   6.144 -1.0996  0.4959 -0.4398
 4951SOL    HW319571   2.069   4.313   6.129  0.3621  0.0724  0.4653
 4951SOL    MW419572   2.113   4.384   6.105 -0.4379  0.4058 -0.0609
 4952SOL     OW19573   1.575   1.896   0.024 -0.0674 -0.0852  0.1428
 4952SOL    HW219574   1.611   1.838  -0.043 -0.9958 -0.5664  0.0547
 4952SOL    HW319575   1.495   1.932  -0.014  0.3090  0.9888  0.3382
 4952SOL    MW419576   1.569   1.893   0.010 -0.1403 -0.0070  0.1570
 4953SOL     OW19577   3.059   3.924   1.033  0.2849  0.1466  0.0832
 4953SOL    HW219578   3.051   3.991   0.965  1.1237  0.6543  0.4741
 4953SOL    HW319579   3.153   3.913   1.045  0.2298 -2.0207 -0.8655
 4953SOL    MW419580   3.070   3.931   1.026  0.3883 -0.0723  0.0096
 4954SOL     OW19581   0.188   0.331   4.685 -0.8885  0.0039  0.3420
 4954SOL    HW219582   0.139   0.385   4.623  1.1023  1.4115 -0.0706
 4954SOL    HW319583   0.221   0.393   4.750 -1.6020 -1.2425  1.9698
 4954SOL    MW419584   0.186   0.346   4.686 -0.7199  0.0252  0.5023
 4955SOL     OW19585   2.966   5.347   0.431 -0.3004 -0.2697  0.3123
 4955SOL    HW219586   2.993   5.394   0.352  1.1967  0.1007  1.0151
 4955SOL    HW319587   2.998   5.258   0.419  2.4087  0.4148  1.6030
 4955SOL    MW419588   2.974   5.342   0.419  0.2546 -0.1305  0.5753
 4956SOL     OW19589   1.012   4.494   5.042 -0.1779 -0.4343  0.6209
 4956SOL    HW219590   0.943   4.465   4.983  0.1545  0.4897 -0.2446
 4956SOL    HW319591   0.965   4.535   5.115 -0.5850 -1.5598  1.0204
 4956SOL    MW419592   0.997   4.496   5.044 -0.1877 -0.4609  0.5594
 4957SOL     OW19593   5.049   4.707   3.610 -0.2093  0.6237  0.4911
 4957SOL    HW219594   5.040   4.784   3.666  0.2278  0.8377  0.2699
 4957SOL    HW319595   5.020   4.634   3.665 -0.8076  0.9650  0.6417
 4957SOL    MW419596   5.044   4.707   3.625 -0.2305  0.6970  0.4818
 4958SOL     OW19597   5.541   4.357   0.252  0.2798  0.1215  0.3073
 4958SOL    HW219598   5.500   4.368   0.338  0.3468 -0.3477  0.4027
 4958SOL    HW319599   5.510   4.431   0.200 -1.0710 -0.4751  0.2274
 4958SOL    MW419600   5.532   4.368   0.256  0.1104 -0.0191  0.3094
 4959SOL     OW19601   0.303   6.225   0.263 -0.1300 -0.2071  0.0650
 4959SOL    HW219602   0.238   6.183   0.319  0.9339  0.0513  1.5714
 4959SOL    HW319603   0.322   6.161   0.195 -1.3740 -0.5879  0.0561
 4959SOL    MW419604   0.297   6.211   0.262 -0.1537 -0.2233  0.2626
 4960SOL     OW19605   2.906   1.173   6.046  0.1630  0.1268  0.2910
 4960SOL    HW219606   2.842   1.237   6.078  0.9942  1.3636 -0.4202
 4960SOL    HW319607   2.982   1.184   6.103  0.2735 -0.2879  0.2228
 4960SOL    MW419608   2.907   1.183   6.058  0.2873  0.2353  0.1881
 4961SOL     OW19609   2.395   6.271   5.763  0.2087 -0.2930  0.0921
 4961SOL    HW219610   2.311   6.314   5.774  0.2982  0.3905 -1.5676
 4961SOL    HW319611   2.440   6.322   5.695  1.7533 -0.9450  0.5628
 4961SOL    MW419612   2.390   6.283   5.755  0.4243 -0.2889 -0.0647
 4962SOL     OW19613   3.156   4.773   0.730 -0.0062  0.1029  0.3182
 4962SOL    HW219614   3.150   4.678   0.717  0.0095  0.1958 -0.4222
 4962SOL    HW319615   3.248   4.788   0.752  0.2302  0.0570 -0.6017
 4962SOL    MW419616   3.167   4.763   0.731  0.0270  0.1091  0.0991
 4963SOL     OW19617   5.254   1.568   2.576 -0.4688 -0.0540 -0.4981
 4963SOL    HW219618   5.282   1.478   2.589  1.6625  0.7384  0.9022
 4963SOL    HW319619   5.168   1.573   2.617 -0.4676 -1.3648 -0.3158
 4963SOL    MW419620   5.246   1.557   2.583 -0.1875 -0.1224 -0.2893
 4964SOL     OW19621   5.446   5.714   1.015  0.1441  0.3215  0.1796
 4964SOL    HW219622   5.355   5.722   0.988  0.4601  1.3418 -0.6819
 4964SOL    HW319623   5.466   5.797   1.058  0.4083 -0.2732  1.2403
 4964SOL    MW419624   5.437   5.726   1.017  0.2206  0.3777  0.2059
 4965SOL     OW19625   2.572   5.883   0.408 -0.0894 -0.1483 -0.4083
 4965SOL    HW219626   2.571   5.787   0.416 -0.9278 -0.0983  0.1989
 4965SOL    HW319627   2.481   5.907   0.392 -0.3942  0.7479  2.1743
 4965SOL    MW419628   2.560   5.873   0.407 -0.2402 -0.0235  0.0125
 4966SOL     OW19629   3.470   1.517   4.935  0.1571  0.5633 -0.0381
 4966SOL    HW219630   3.463   1.559   5.020  1.1461  0.2698  0.2055
 4966SOL    HW319631   3.381   1.485   4.916  0.1546 -0.3994  1.4329
 4966SOL    MW419632   3.457   1.518   4.944  0.2873  0.3976  0.1881
 4967SOL     OW19633   2.614   5.136   5.659  0.0364 -0.2916  0.2404
 4967SOL    HW219634   2.634   5.059   5.714  1.7070  1.4731  2.2880
 4967SOL    HW319635   2.550   5.185   5.709 -0.0903  0.2697 -0.4616
 4967SOL    MW419636   2.608   5.132   5.673  0.2401  0.0153  0.4179
 4968SOL     OW19637   1.215   1.669   5.959 -0.0193 -0.3180  0.0703
 4968SOL    HW219638   1.282   1.692   6.024  1.0054  0.7933 -1.3278
 4968SOL    HW319639   1.134   1.667   6.009  1.0498 -2.1095  1.9033
 4968SOL    MW419640   1.213   1.672   5.974  0.2570 -0.4077  0.1277
 4969SOL     OW19641   4.142   4.714   1.591  0.2441  0.5676 -0.2455
 4969SOL    HW219642   4.212   4.651   1.571  1.1202  1.3094  0.3681
 4969SOL    HW319643   4.124   4.756   1.508  0.0628 -0.0867 -0.5428
 4969SOL    MW419644   4.149   4.711   1.578  0.3358  0.5791 -0.2038
 4970SOL     OW19645   0.466   2.958   1.034 -0.3246  0.1203  0.3686
 4970SOL    HW219646   0.402   3.029   1.035 -0.3672  0.1271 -0.8265
 4970SOL    HW319647   0.547   3.000   1.006 -0.0981 -0.1167  0.6670
 4970SOL    MW419648   0.468   2.973   1.030 -0.3003  0.0899  0.2503
 4971SOL     OW19649   0.397   5.032   5.826  0.3755 -0.0664 -0.1333
 4971SOL    HW219650   0.401   4.994   5.914  1.6953  0.1400 -0.0870
 4971SOL    HW319651   0.443   5.115   5.834  1.3657 -0.4871 -1.2372
 4971SOL    MW419652   0.403   5.038   5.839  0.6803 -0.0947 -0.2729
 4972SOL     OW19653   6.197   2.695   0.289  0.0494  0.3954  0.8782
 4972SOL    HW219654   6.278   2.701   0.239 -0.1594 -2.2723  0.0223
 4972SOL    HW319655   6.142   2.766   0.256  1.4695  1.2996  0.3938
 4972SOL    MW419656   6.200   2.705   0.278  0.2092  0.1627  0.7014
 4973SOL     OW19657  -0.005   6.301   0.167 -0.4322  0.0684  0.0374
 4973SOL    HW219658  -0.056   6.259   0.237  0.4313 -0.0689  0.5986
 4973SOL    HW319659   0.056   6.359   0.213 -0.2876  0.4670 -0.6397
 4973SOL    MW419660  -0.004   6.303   0.182 -0.2992  0.1029  0.0221
 4974SOL     OW19661   0.520   5.832   0.672  0.0265 -0.1970 -0.3094
 4974SOL    HW219662   0.495   5.829   0.580 -2.4045  0.2314  0.2609
 4974SOL    HW319663   0.563   5.748   0.688 -0.4745 -0.7280 -1.5835
 4974SOL    MW419664   0.522   5.821   0.662 -0.3603 -0.2106 -0.4022
 4975SOL     OW19665   1.138   3.095   1.398  0.3032  0.3604  0.5436
 4975SOL    HW219666   1.103   3.184   1.401  2.7144  1.3891  1.0671
 4975SOL    HW319667   1.073   3.045   1.349 -1.6344  2.1477  1.1387
 4975SOL    MW419668   1.125   3.100   1.392  0.3657  0.7320  0.6912
 4976SOL     OW19669   3.087   0.563   4.740 -0.3075  0.3533 -0.5284
 4976SOL    HW219670   3.167   0.531   4.698  0.4838  0.6125  0.7441
 4976SOL    HW319671   3.033   0.596   4.667  0.7395  0.1963 -1.3982
 4976SOL    MW419672   3.090   0.563   4.725 -0.0649  0.3668 -0.4753
 4977SOL     OW19673   6.071   3.745   0.593  0.5200 -0.1906  0.3951
 4977SOL    HW219674   6.065   3.712   0.682 -0.1186 -0.8986  0.1027
 4977SOL    HW319675   6.115   3.675   0.544  2.2634  0.8184  0.4460
 4977SOL    MW419676   6.076   3.732   0.598  0.6657 -0.1509  0.3632
 4978SOL     OW19677   0.295   0.354   0.285 -0.2385 -0.5851  0.4787
 4978SOL    HW219678   0.293   0.443   0.320 -1.3980 -0.0821 -0.7662
 4978SOL    HW319679   0.389   0.335   0.275  0.1728  2.0831 -2.8772
 4978SOL    MW419680   0.307   0.363   0.288 -0.3372 -0.1667 -0.1283
 4979SOL     OW19681   0.651   3.264   5.219 -0.0070  0.4196  0.2507
 4979SOL    HW219682   0.674   3.357   5.217  0.0396  0.4058 -1.1692
 4979SOL    HW319683   0.689   3.231   5.300  0.7895  1.4472  0.3128
 4979SOL    MW419684   0.659   3.272   5.229  0.1042  0.5534  0.0716
 4980SOL     OW19685   0.303   0.211   4.382  0.0933 -0.7887  0.2982
 4980SOL    HW219686   0.260   0.164   4.454 -1.0779  0.3798  0.4038
 4980SOL    HW319687   0.368   0.266   4.426  0.4277 -1.1901  0.3126
 4980SOL    MW419688   0.306   0.212   4.397 -0.0171 -0.6875  0.3140
 4981SOL     OW19689   1.291   1.930   4.990 -0.0333 -0.3828 -0.2730
 4981SOL    HW219690   1.197   1.946   4.993 -0.4894 -2.6485 -0.1152
 4981SOL    HW319691   1.315   1.912   5.081  0.5378  0.0628 -0.3285
 4981SOL    MW419692   1.282   1.929   5.003 -0.0181 -0.6230 -0.2595
 4982SOL     OW19693   4.451   6.196   2.583 -0.1339 -0.2491  0.5258
 4982SOL    HW219694   4.479   6.189   2.674 -2.2221  0.5546  1.3010
 4982SOL    HW319695   4.362   6.161   2.582 -0.5115  0.6458 -0.9897
 4982SOL    MW419696   4.443   6.191   2.595 -0.4592 -0.0250  0.4281
 4983SOL     OW19697   5.272   4.004   3.136  0.2252  0.6984  0.1150
 4983SOL    HW219698   5.246   3.982   3.226 -0.5405  0.8105 -0.0692
 4983SOL    HW319699   5.214   4.076   3.111  1.7859  2.0609  0.2270
 4983SOL    MW419700   5.261   4.010   3.145  0.3301  0.8929  0.1054
 4984SOL     OW19701   2.157   4.010   1.468  0.0130 -0.5877  0.0421
 4984SOL    HW219702   2.211   4.069   1.521  2.1746 -0.9072 -1.6476
 4984SOL    HW319703   2.104   4.068   1.413 -0.3950 -0.2655  0.7591
 4984SOL    MW419704   2.157   4.026   1.468  0.2444 -0.5873 -0.0862
 4985SOL     OW19705   1.731   1.692   4.779  0.5077 -0.6249  0.0428
 4985SOL    HW219706   1.734   1.676   4.685  0.6112 -0.0692 -0.0518
 4985SOL    HW319707   1.643   1.727   4.796  1.5101  2.3325 -0.3731
 4985SOL    MW419708   1.720   1.695   4.769  0.6536 -0.1614 -0.0246
 4986SOL     OW19709   4.646   2.374   5.713 -0.2595  0.1757  0.0871
 4986SOL    HW219710   4.621   2.316   5.784  0.1819 -0.1010  0.0229
 4986SOL    HW319711   4.588   2.351   5.641  0.1672 -0.4534 -0.0586
 4986SOL    MW419712   4.635   2.364   5.713 -0.1450  0.0562  0.0594
 4987SOL     OW19713   3.044   1.809   3.846 -0.2374 -0.4329  0.3043
 4987SOL    HW219714   2.964   1.777   3.888 -0.7931  0.8007  0.2114
 4987SOL    HW319715   3.095   1.847   3.918  0.0469 -0.7485  0.2765
 4987SOL    MW419716   3.040   1.810   3.861 -0.2732 -0.3118  0.2884
 4988SOL     OW19717   3.564   3.935   5.070 -0.0739 -0.6461 -0.2426
 4988SOL    HW219718   3.470   3.933   5.090 -0.1287 -0.5942 -0.5014
 4988SOL    HW319719   3.606   3.921   5.155 -0.3262 -1.8350 -0.2924
 4988SOL    MW419720   3.557   3.933   5.084 -0.1144 -0.7961 -0.2833
 4989SOL     OW19721   2.834   4.767   4.798  0.2431 -0.0462  0.2146
 4989SOL    HW219722   2.836   4.845   4.854  0.0089 -0.4909  0.8630
 4989SOL    HW319723   2.745   4.765   4.763  0.6577  0.7430 -0.9382
 4989SOL    MW419724   2.823   4.777   4.801  0.2669 -0.0007  0.1480
 4990SOL     OW19725   4.007   1.919   3.117 -0.6031  0.2875  0.1100
 4990SOL    HW219726   4.097   1.913   3.148  0.3630  2.5119 -1.9404
 4990SOL    HW319727   3.964   1.978   3.179  0.0106  0.9983 -0.1214
 4990SOL    MW419728   4.013   1.926   3.129 -0.3947  0.6747 -0.1910
 4991SOL     OW19729   6.037   2.559   1.157  0.7011 -0.0555  0.5069
 4991SOL    HW219730   6.002   2.645   1.179 -0.6797 -0.2805 -0.6893
 4991SOL    HW319731   6.016   2.505   1.233  1.4537  0.5986  1.2060
 4991SOL    MW419732   6.030   2.563   1.170  0.6182  0.0011  0.4413
 4992SOL     OW19733   2.662   6.112   2.696  0.3867 -0.0254  0.1334
 4992SOL    HW219734   2.751   6.115   2.730  0.7086 -0.7288 -0.6354
 4992SOL    HW319735   2.621   6.040   2.744  0.8923 -1.1317 -1.0483
 4992SOL    MW419736   2.668   6.103   2.707  0.4959 -0.2642 -0.1239
 4993SOL     OW19737   2.969   0.999   1.746  0.4321  0.1740  0.1964
 4993SOL    HW219738   2.963   0.906   1.723 -1.5502  0.0570  1.0895
 4993SOL    HW319739   3.049   1.005   1.798  0.3549 -1.1162  0.5006
 4993SOL    MW419740   2.979   0.987   1.750  0.1604 -0.0117  0.3544
 4994SOL     OW19741   1.910   5.700   6.094 -0.1349 -0.3221 -0.7117
 4994SOL    HW219742   1.832   5.676   6.045 -0.9994 -0.6603  0.7530
 4994SOL    HW319743   1.952   5.616   6.114 -2.7121 -0.9144  3.6868
 4994SOL    MW419744   1.905   5.686   6.091 -0.5890 -0.4449  0.0619
 4995SOL     OW19745   3.615   3.269   1.331 -0.1017 -0.0129  0.3240
 4995SOL    HW219746   3.579   3.283   1.244 -0.5978 -1.1166  0.3303
 4995SOL    HW319747   3.593   3.348   1.380 -1.1685 -0.0295 -0.1191
 4995SOL    MW419748   3.608   3.281   1.326 -0.3079 -0.1607  0.2663
 4996SOL     OW19749   0.799   1.912   5.808 -0.0632 -0.9326 -0.0849
 4996SOL    HW219750   0.872   1.974   5.798 -0.3391 -0.7428 -1.1003
 4996SOL    HW319751   0.819   1.864   5.888  0.4872  0.0389  0.3862
 4996SOL    MW419752   0.811   1.914   5.817 -0.0270 -0.7794 -0.1567
 4997SOL     OW19753   0.395   6.422   2.339 -0.6891 -0.1096 -0.2903
 4997SOL    HW219754   0.319   6.472   2.310 -0.9129 -0.2850 -0.0195
 4997SOL    HW319755   0.391   6.428   2.435 -0.1465  0.1986 -0.2843
 4997SOL    MW419756   0.384   6.429   2.348 -0.6470 -0.0921 -0.2538
 4998SOL     OW19757   3.234   2.429   2.590  0.3894  0.8073  0.3663
 4998SOL    HW219758   3.286   2.378   2.528  0.6743  0.3921  0.9410
 4998SOL    HW319759   3.297   2.482   2.637  0.0937  1.7001 -0.2243
 4998SOL    MW419760   3.249   2.429   2.588  0.3880  0.8703  0.3642
 4999SOL     OW19761   4.928   0.118   3.452  0.7335  0.5172 -0.3251
 4999SOL    HW219762   5.021   0.098   3.445  0.5191 -0.8987  0.5001
 4999SOL    HW319763   4.892   0.096   3.365  1.0692  0.5194 -0.4648
 4999SOL    MW419764   4.935   0.113   3.439  0.7495  0.3306 -0.2347
 5000SOL     OW19765   4.664   1.811   1.143 -0.3510 -0.2135  0.0217
 5000SOL    HW219766   4.716   1.857   1.076  1.8848 -1.4133  0.8180
 5000SOL    HW319767   4.664   1.870   1.218 -0.6196  0.0205 -0.1597
 5000SOL    MW419768   4.671   1.824   1.144 -0.0915 -0.3409  0.1028
 5001SOL     OW19769   3.054   6.150   1.425 -0.6032 -0.1862 -0.0435
 5001SOL    HW219770   2.971   6.196   1.412 -1.0497 -0.1406  2.5254
 5001SOL    HW319771   3.116   6.219   1.448  0.0292 -0.2996 -1.3257
 5001SOL    MW419772   3.051   6.165   1.426 -0.5787 -0.1952  0.1263
 5002SOL     OW19773   6.221   3.623   2.136  0.0795  0.0215 -0.2862
 5002SOL    HW219774   6.219   3.529   2.119 -4.1487 -0.4973  1.9035
 5002SOL    HW319775   6.202   3.664   2.051 -0.6068 -1.2612 -0.7689
 5002SOL    MW419776   6.219   3.616   2.122 -0.5689 -0.2162 -0.0610
 5003SOL     OW19777   1.405   3.257   3.929  0.2593  0.1266  0.7697
 5003SOL    HW219778   1.465   3.312   3.980  0.2434  1.6669 -0.7848
 5003SOL    HW319779   1.325   3.256   3.981  0.2748  1.5680  0.8772
 5003SOL    MW419780   1.403   3.264   3.943  0.2593  0.5200  0.5788
 5004SOL     OW19781   4.581   3.313   5.824 -0.0249 -0.3599  0.2379
 5004SOL    HW219782   4.606   3.404   5.843  1.0856 -0.0931 -2.1176
 5004SOL    HW319783   4.655   3.261   5.856  0.7421 -0.1150 -1.0257
 5004SOL    MW419784   4.594   3.318   5.830  0.2228 -0.2924 -0.2396
 5005SOL     OW19785   4.973   3.941   2.265 -0.3233  0.7921 -0.1064
 5005SOL    HW219786   4.976   4.005   2.336  0.8843 -0.7529  1.3136
 5005SOL    HW319787   4.882   3.943   2.234 -0.9913  1.1781  1.7764
 5005SOL    MW419788   4.962   3.950   2.270 -0.2521  0.6392  0.3294
 5006SOL     OW19789   2.401   3.545   4.223  0.0790 -0.1426  0.2879
 5006SOL    HW219790   2.347   3.487   4.170  0.6443 -0.3988 -0.0144
 5006SOL    HW319791   2.447   3.599   4.160 -0.0701  0.3014  0.5544
 5006SOL    MW419792   2.400   3.544   4.208  0.1339 -0.1179  0.2832
 5007SOL     OW19793   2.256   0.217   3.649 -0.1127 -0.0865 -0.1089
 5007SOL    HW219794   2.238   0.128   3.620  2.2204 -0.5977 -0.1434
 5007SOL    HW319795   2.347   0.216   3.677 -0.0977  2.2350  0.1549
 5007SOL    MW419796   2.265   0.205   3.649  0.1971  0.1524 -0.0786
 5008SOL     OW19797   4.511   3.984   0.736  0.3140 -0.1601 -0.1454
 5008SOL    HW219798   4.511   4.006   0.643 -0.3731 -0.4821 -0.2294
 5008SOL    HW319799   4.509   4.069   0.780 -1.1627  0.0064 -0.4554
 5008SOL    MW419800   4.511   3.998   0.729  0.0285 -0.1806 -0.1974
 5009SOL     OW19801   0.031   4.213   0.584 -0.0185  0.0910  0.4183
 5009SOL    HW219802  -0.060   4.238   0.597 -1.0665 -0.5432 -3.9945
 5009SOL    HW319803   0.027   4.130   0.537  2.8807 -0.3543  0.7565
 5009SOL    MW419804   0.018   4.206   0.579  0.2258 -0.0515 -0.1193
 5010SOL     OW19805   3.788   2.857   5.452  0.4378 -0.4491  0.2464
 5010SOL    HW219806   3.844   2.935   5.456  0.4637 -0.4497 -0.0432
 5010SOL    HW319807   3.755   2.857   5.362  1.0600 -1.2062  0.0135
 5010SOL    MW419808   3.791   2.868   5.440  0.5233 -0.5491  0.1774
 5011SOL     OW19809   5.438   1.076   0.498  0.6245  0.5738  0.3211
 5011SOL    HW219810   5.384   1.154   0.504 -0.7340 -0.2748 -0.4356
 5011SOL    HW319811   5.474   1.078   0.410  0.3171  0.1885  0.1829
 5011SOL    MW419812   5.436   1.086   0.487  0.4047  0.4110  0.2030
 5012SOL     OW19813   4.240   1.572   5.050 -0.5621  0.2002 -0.4072
 5012SOL    HW219814   4.216   1.650   4.999 -2.8485  0.0598  0.3571
 5012SOL    HW319815   4.208   1.590   5.138  2.5693  0.0779  0.8786
 5012SOL    MW419816   4.233   1.585   5.055 -0.4506  0.1656 -0.1367
 5013SOL     OW19817   2.480   2.609   2.640 -0.0624 -0.3105  0.1852
 5013SOL    HW219818   2.389   2.599   2.612  0.3322  0.4702 -1.4864
 5013SOL    HW319819   2.492   2.703   2.650  1.4124 -0.0389 -2.9163
 5013SOL    MW419820   2.469   2.620   2.638  0.1842 -0.1716 -0.4446
 5014SOL     OW19821   5.674   3.370   2.558  0.5260  0.4227  0.4753
 5014SOL    HW219822   5.642   3.290   2.600  0.2956  0.7629  0.9465
 5014SOL    HW319823   5.620   3.440   2.595  1.0590  0.8600  0.4283
 5014SOL    MW419824   5.663   3.368   2.568  0.5659  0.5253  0.5313
 5015SOL     OW19825   1.255   2.234   3.809  0.5187  0.3916  0.0015
 5015SOL    HW219826   1.299   2.300   3.756 -1.3952  2.1526  0.5059
 5015SOL    HW319827   1.232   2.279   3.890 -3.7049  0.1902 -0.8730
 5015SOL    MW419828   1.258   2.249   3.813 -0.2910  0.5974 -0.0473
 5016SOL     OW19829   3.416   3.308   3.980 -0.5446 -0.3633  0.3877
 5016SOL    HW219830   3.382   3.389   3.941  0.5294  0.0803  0.3330
 5016SOL    HW319831   3.509   3.309   3.959 -0.3026 -1.0604  1.3619
 5016SOL    MW419832   3.423   3.319   3.972 -0.3710 -0.3967  0.5090
 5017SOL     OW19833   1.615   0.436   3.374  0.0488 -0.1150  0.0917
 5017SOL    HW219834   1.616   0.470   3.284  1.8950  2.1951  0.8698
 5017SOL    HW319835   1.532   0.466   3.410 -0.8215 -1.2787 -0.8803
 5017SOL    MW419836   1.604   0.445   3.367  0.1776  0.0363  0.0661
 5018SOL     OW19837   1.233   4.280   4.741  0.0180 -0.3210 -0.2786
 5018SOL    HW219838   1.284   4.299   4.662  0.9044 -1.7676 -0.0972
 5018SOL    HW319839   1.242   4.359   4.794 -1.0431  0.8915 -1.8187
 5018SOL    MW419840   1.241   4.293   4.738 -0.0050 -0.3519 -0.4578
 5019SOL     OW19841   1.797   2.701   2.361 -0.3135  0.4186  0.4062
 5019SOL    HW219842   1.870   2.754   2.329 -0.6018  0.1550 -0.7269
 5019SOL    HW319843   1.822   2.611   2.338 -1.4832  0.4233 -1.0122
 5019SOL    MW419844   1.810   2.696   2.354 -0.5059  0.3844  0.0695
 5020SOL     OW19845   0.747   5.964   1.935 -0.0605 -1.1520  0.0524
 5020SOL    HW219846   0.683   5.989   1.868  0.4224 -0.8173 -0.2906
 5020SOL    HW319847   0.800   6.043   1.948  1.2554 -1.8601 -0.7869
 5020SOL    MW419848   0.746   5.978   1.928  0.1768 -1.2012 -0.1036
 5021SOL     OW19849   0.453   4.262   1.413 -0.2389  0.6623 -0.4533
 5021SOL    HW219850   0.530   4.272   1.358 -0.8995  1.7374 -1.2319
 5021SOL    HW319851   0.488   4.258   1.503  0.6795  1.9708 -0.7212
 5021SOL    MW419852   0.468   4.263   1.418 -0.2049  0.9768 -0.5914
 5022SOL     OW19853   5.768   0.204   4.583  0.0191 -0.2556  0.2867
 5022SOL    HW219854   5.793   0.267   4.515  0.0035  0.3279  0.8151
 5022SOL    HW319855   5.685   0.168   4.551 -0.9025  1.2908  0.8052
 5022SOL    MW419856   5.760   0.208   4.570 -0.1046  0.0254  0.4248
 5023SOL     OW19857   3.535   3.532   3.827  0.2217 -0.2836 -0.1676
 5023SOL    HW219858   3.458   3.589   3.829  0.0286 -0.5329  1.6100
 5023SOL    HW319859   3.573   3.546   3.741 -1.4970  0.2697 -0.8833
 5023SOL    MW419860   3.530   3.541   3.816 -0.0305 -0.2435 -0.0275
 5024SOL     OW19861   5.417   5.473   5.255  0.4963  0.6919 -0.0622
 5024SOL    HW219862   5.441   5.544   5.316 -0.7970  0.6742  0.5152
 5024SOL    HW319863   5.345   5.510   5.204 -0.7990 -0.4654  0.8510
 5024SOL    MW419864   5.411   5.487   5.257  0.1548  0.5369  0.1345
 5025SOL     OW19865   1.998   5.827   4.761  0.1104  0.1662 -0.9909
 5025SOL    HW219866   2.051   5.809   4.684  0.8951 -0.1018 -0.4016
 5025SOL    HW319867   2.039   5.903   4.802 -0.4333  0.4444 -0.9594
 5025SOL    MW419868   2.010   5.835   4.756  0.1422  0.1675 -0.9090
 5026SOL     OW19869  -0.019   2.435   1.977  0.1768 -0.0300 -0.4080
 5026SOL    HW219870   0.054   2.418   1.917  0.4020 -0.4591 -0.0191
 5026SOL    HW319871  -0.034   2.529   1.970  2.7209  0.6666  1.6666
 5026SOL    MW419872  -0.011   2.445   1.968  0.5422  0.0053 -0.0829
 5027SOL     OW19873   3.393   4.785   1.622 -0.9069  0.4382  0.3631
 5027SOL    HW219874   3.400   4.711   1.682  0.2386 -1.6651 -2.1647
 5027SOL    HW319875   3.301   4.785   1.595 -0.5239 -1.4362 -1.1308
 5027SOL    MW419876   3.381   4.775   1.627 -0.7052 -0.0866 -0.1675
 5028SOL     OW19877   1.217   0.199   2.561 -0.4184 -0.1793 -0.3342
 5028SOL    HW219878   1.150   0.177   2.626 -1.4272 -3.2410 -2.2032
 5028SOL    HW319879   1.172   0.256   2.499 -1.0496 -1.3455 -0.9934
 5028SOL    MW419880   1.202   0.203   2.562 -0.6348 -0.7371 -0.6678
 5029SOL     OW19881   5.870   3.024   2.405 -0.1466 -0.1395  0.1452
 5029SOL    HW219882   5.802   3.048   2.342 -0.5484 -0.4244  0.4637
 5029SOL    HW319883   5.823   3.009   2.487  0.0155 -2.3326 -0.1076
 5029SOL    MW419884   5.855   3.025   2.408 -0.1782 -0.4665  0.1539
 5030SOL     OW19885   3.583   2.202   3.460  0.6026  0.3777  0.3796
 5030SOL    HW219886   3.655   2.263   3.450  1.6315 -0.7575  0.6653
 5030SOL    HW319887   3.549   2.219   3.548  1.1878  0.2290  0.6377
 5030SOL    MW419888   3.588   2.212   3.470  0.8156  0.2083  0.4514
 5031SOL     OW19889   3.431   5.206   6.369  0.0901 -0.4336  0.2419
 5031SOL    HW219890   3.423   5.177   6.460 -2.6868  0.0500  0.2616
 5031SOL    HW319891   3.394   5.134   6.318 -2.3928  0.9503 -0.0777
 5031SOL    MW419892   3.425   5.193   6.375 -0.6039 -0.1872  0.2023
 5032SOL     OW19893   4.047   4.616   1.106 -0.8444 -0.4226  0.3332
 5032SOL    HW219894   4.005   4.600   1.022 -0.1579  1.2650 -0.3771
 5032SOL    HW319895   4.137   4.638   1.084 -1.1838  2.2664  1.2579
 5032SOL    MW419896   4.053   4.617   1.092 -0.7986  0.1548  0.3615
 5033SOL     OW19897   4.229   6.337   4.803 -0.0298  0.0032 -0.2548
 5033SOL    HW219898   4.278   6.419   4.796  0.0364  0.0329  0.5400
 5033SOL    HW319899   4.200   6.333   4.894  1.9550 -1.9650  0.4058
 5033SOL    MW419900   4.232   6.347   4.814  0.2408 -0.2525 -0.0628
 5034SOL     OW19901   2.616   0.300   2.160  0.3708 -0.0172  0.5581
 5034SOL    HW219902   2.571   0.379   2.189  0.3578 -0.1615  0.9485
 5034SOL    HW319903   2.646   0.320   2.072 -0.2925  0.1501  0.3657
 5034SOL    MW419904   2.614   0.313   2.153  0.2816 -0.0141  0.5842
 5035SOL     OW19905   0.995   3.579   5.759  0.0787 -0.0378  0.3172
 5035SOL    HW219906   1.079   3.537   5.740 -0.2227 -1.2028  1.3562
 5035SOL    HW319907   1.011   3.630   5.838 -0.1292 -0.0769  0.3858
 5035SOL    MW419908   1.008   3.580   5.767  0.0115 -0.1967  0.4633
 5036SOL     OW19909   1.060   4.418   0.464 -0.3604  0.3017  0.4909
 5036SOL    HW219910   1.080   4.418   0.371 -0.9753 -0.4757  0.3535
 5036SOL    HW319911   0.995   4.487   0.475 -0.3665  0.3220  0.3296
 5036SOL    MW419912   1.054   4.427   0.453 -0.4423  0.2018  0.4515
 5037SOL     OW19913   2.763   2.511   2.919 -0.2839  0.0235  0.9455
 5037SOL    HW219914   2.858   2.509   2.918 -0.2865 -1.3214 -0.2843
 5037SOL    HW319915   2.738   2.440   2.979 -0.5008  0.1276  0.9791
 5037SOL    MW419916   2.772   2.501   2.926 -0.3129 -0.1402  0.7876
 5038SOL     OW19917   0.316   1.701   2.610  0.1315  0.2577 -0.4132
 5038SOL    HW219918   0.360   1.632   2.560  2.5283  2.5963 -1.8173
 5038SOL    HW319919   0.285   1.657   2.689  3.1103 -2.1239 -0.3730
 5038SOL    MW419920   0.318   1.686   2.614  0.8408  0.2520 -0.5932
 5039SOL     OW19921   2.710   0.393   5.261 -0.0336  0.6110  0.0875
 5039SOL    HW219922   2.677   0.417   5.175 -2.2456  0.5263  0.8674
 5039SOL    HW319923   2.661   0.448   5.322  0.0701 -0.7075  1.4161
 5039SOL    MW419924   2.699   0.404   5.258 -0.3118  0.4259  0.3657
 5040SOL     OW19925   1.833   3.693   0.241 -0.4324 -0.0860 -0.1928
 5040SOL    HW219926   1.884   3.661   0.167 -0.7403  1.0924 -0.9364
 5040SOL    HW319927   1.859   3.636   0.314  0.7965 -0.4853 -0.9053
 5040SOL    MW419928   1.843   3.681   0.241 -0.3109  0.0168 -0.3849
 5041SOL     OW19929   5.975   1.790   6.103  0.0576  0.5848 -0.8690
 5041SOL    HW219930   6.051   1.831   6.143  0.7696 -1.0329 -0.4579
 5041SOL    HW319931   5.990   1.696   6.116 -1.5202  0.1970 -1.6762
 5041SOL    MW419932   5.987   1.783   6.110 -0.0566  0.3202 -0.9213
 5042SOL     OW19933   4.684   3.780   5.228 -0.2569  1.3344 -0.0224
 5042SOL    HW219934   4.592   3.804   5.218 -0.1724  1.7547  0.2127
 5042SOL    HW319935   4.720   3.845   5.288  0.2803  1.3928 -0.3950
 5042SOL    MW419936   4.677   3.792   5.234 -0.1749  1.3975 -0.0405
 5043SOL     OW19937   0.963   4.095   5.878 -0.5395  0.4009 -0.1424
 5043SOL    HW219938   0.948   4.107   5.785  1.4605  1.9418 -0.3275
 5043SOL    HW319939   0.910   4.163   5.920  1.3461  2.1754 -0.4547
 5043SOL    MW419940   0.954   4.106   5.871 -0.0268  0.8383 -0.2080
 5044SOL     OW19941   3.877   0.521   4.830 -0.1512 -0.3692 -0.3918
 5044SOL    HW219942   3.798   0.512   4.777 -1.5975 -3.1321  1.9440
 5044SOL    HW319943   3.929   0.445   4.808  1.0257  0.4545 -0.5397
 5044SOL    MW419944   3.873   0.510   4.820 -0.1867 -0.6251 -0.1031
 5045SOL     OW19945   5.684   5.594   1.124 -0.1026  0.5253  0.1724
 5045SOL    HW219946   5.599   5.615   1.084 -0.0520  0.3887 -0.0086
 5045SOL    HW319947   5.680   5.633   1.211 -0.8266 -0.5155  0.6250
 5045SOL    MW419948   5.672   5.602   1.130 -0.1914  0.3700  0.2082
 5046SOL     OW19949   5.171   4.261   3.148  0.4949 -0.0054  0.1909
 5046SOL    HW219950   5.238   4.222   3.205 -0.2448 -1.9764 -0.1985
 5046SOL    HW319951   5.089   4.249   3.195  0.3764  2.7261  0.8263
 5046SOL    MW419952   5.169   4.254   3.162  0.3817  0.0949  0.2234
 5047SOL     OW19953   5.539   0.149   4.454 -0.3986  0.2892 -0.0285
 5047SOL    HW219954   5.560   0.177   4.365 -0.8165 -0.0388 -0.2340
 5047SOL    HW319955   5.447   0.175   4.465 -0.2511  0.6368  0.4307
 5047SOL    MW419956   5.529   0.156   4.443 -0.4343  0.2918  0.0050
 5048SOL     OW19957   3.467   1.222   5.587  0.2462  0.3009  0.0140
 5048SOL    HW219958   3.544   1.166   5.597  1.6265  2.1669  0.4054
 5048SOL    HW319959   3.393   1.161   5.589  1.5732 -1.3848  1.5599
 5048SOL    MW419960   3.468   1.206   5.588  0.6034  0.3247  0.2696
 5049SOL     OW19961   3.764   0.217   4.428 -0.1481 -0.0134  0.3871
 5049SOL    HW219962   3.687   0.163   4.445 -0.8924  1.3492  1.5529
 5049SOL    HW319963   3.746   0.257   4.343 -0.1233 -0.6664  0.0637
 5049SOL    MW419964   3.751   0.215   4.419 -0.2431  0.0802  0.4982
 5050SOL     OW19965   2.007   3.737   4.406  0.0941 -0.1103 -0.1729
 5050SOL    HW219966   2.086   3.687   4.386  1.0422  0.3676  2.1236
 5050SOL    HW319967   1.987   3.716   4.497 -3.7844 -1.9730 -1.2332
 5050SOL    MW419968   2.015   3.728   4.415 -0.2925 -0.2930 -0.0098
 5051SOL     OW19969   3.863   2.661   2.285 -0.1285  0.3903 -0.3259
 5051SOL    HW219970   3.799   2.619   2.229  0.7300 -0.4172 -0.7332
 5051SOL    HW319971   3.947   2.647   2.241  0.2964  1.8238 -0.0486
 5051SOL    MW419972   3.866   2.654   2.272  0.0409  0.4729 -0.3431
 5052SOL     OW19973   3.281   2.481   5.947  0.7447  0.5202  0.0740
 5052SOL    HW219974   3.257   2.389   5.936 -1.3750  1.1809 -1.3053
 5052SOL    HW319975   3.212   2.518   6.002  0.0945  1.8240 -1.5290
 5052SOL    MW419976   3.269   2.474   5.953  0.3792  0.7794 -0.3195
 5053SOL     OW19977   6.215   4.351   5.093  0.1731 -0.1697 -0.0477
 5053SOL    HW219978   6.162   4.273   5.113 -0.1154  0.0201 -0.0727
 5053SOL    HW319979   6.304   4.317   5.083  0.0684 -0.4813  0.0598
 5053SOL    MW419980   6.220   4.336   5.094  0.1212 -0.1858 -0.0368
 5054SOL     OW19981   1.781   6.258   2.932 -0.0201 -0.5297  0.2506
 5054SOL    HW219982   1.722   6.189   2.962 -0.6120 -0.3315 -0.4201
 5054SOL    HW319983   1.868   6.230   2.960  0.2262 -3.0962 -2.6014
 5054SOL    MW419984   1.785   6.245   2.940 -0.0657 -0.8422 -0.2142
 5055SOL     OW19985   3.500   0.759   0.823  0.4852 -0.0951 -0.3095
 5055SOL    HW219986   3.559   0.689   0.852  0.0960  0.3060  1.6179
 5055SOL    HW319987   3.551   0.839   0.833  0.6685 -0.0175 -1.7562
 5055SOL    MW419988   3.515   0.760   0.828  0.4580 -0.0319 -0.2461
 5056SOL     OW19989   4.426   4.701   3.830  0.2677 -0.1561  0.5307
 5056SOL    HW219990   4.404   4.793   3.818  1.7080  0.6012  2.9525
 5056SOL    HW319991   4.518   4.695   3.804  0.7914 -0.3840  2.2726
 5056SOL    MW419992   4.436   4.712   3.825  0.5268 -0.0863  1.0800
 5057SOL     OW19993   1.925   5.250   3.946 -0.0453  0.1120 -0.4432
 5057SOL    HW219994   1.988   5.274   3.878 -1.3004 -0.4604 -1.8664
 5057SOL    HW319995   1.850   5.217   3.898 -1.2855  0.3863  1.2199
 5057SOL    MW419996   1.923   5.249   3.931 -0.3745  0.0727 -0.4115
 5058SOL     OW19997   0.132   1.621   3.334 -0.4680  0.0687 -0.5429
 5058SOL    HW219998   0.063   1.558   3.314 -0.9711  0.8491 -1.2927
 5058SOL    HW319999   0.108   1.700   3.286 -1.1329  1.6596  2.2000
 5058SOL    MW420000   0.119   1.623   3.325 -0.6221  0.3815 -0.2799
 5059SOL     OW20001   5.292   6.042   2.670  0.0357  0.6742 -0.1333
 5059SOL    HW220002   5.220   6.081   2.719  0.3892 -0.2046  1.1347
 5059SOL    HW320003   5.325   6.113   2.615 -0.4097  1.6754  0.8588
 5059SOL    MW420004   5.287   6.056   2.669  0.0236  0.6904  0.1649
 5060SOL     OW20005   1.827   2.075   3.724 -0.3997 -0.5064  0.8101
 5060SOL    HW220006   1.872   2.107   3.646 -0.1724 -1.3206  0.5897
 5060SOL    HW320007   1.796   2.154   3.768  0.1533  0.0069  0.3081
 5060SOL    MW420008   1.829   2.089   3.719 -0.2968 -0.5461  0.7148
 5061SOL     OW20009   3.653   5.671   1.425  0.7531 -0.4266  0.1394
 5061SOL    HW220010   3.643   5.764   1.447  0.3299 -0.5144  0.3216
 5061SOL    HW320011   3.713   5.671   1.350  0.3384  0.0291 -0.1960
 5061SOL    MW420012   3.660   5.683   1.418  0.6426 -0.3780  0.1192
 5062SOL     OW20013   5.050   6.221   0.884 -0.1624 -0.0340 -0.1725
 5062SOL    HW220014   5.089   6.183   0.805 -1.8806  0.2270 -1.2169
 5062SOL    HW320015   5.072   6.159   0.954  0.4575 -0.8720 -1.0785
 5062SOL    MW420016   5.058   6.208   0.882 -0.3073 -0.1101 -0.4298
 5063SOL     OW20017   5.388   3.315   1.061 -0.2392  0.1438 -0.4178
 5063SOL    HW220018   5.466   3.339   1.011  0.0384  0.7953  0.3070
 5063SOL    HW320019   5.423   3.270   1.138 -0.5537  0.7756  0.1007
 5063SOL    MW420020   5.403   3.312   1.065 -0.2441  0.3131 -0.2538
 5064SOL     OW20021   3.727   0.695   1.201 -0.6240  0.3753 -0.1339
 5064SOL    HW220022   3.747   0.693   1.108 -0.3757  0.5485 -0.0870
 5064SOL    HW320023   3.731   0.604   1.229  2.7439  0.5631  0.4073
 5064SOL    MW420024   3.730   0.683   1.192 -0.1469  0.4229 -0.0563
 5065SOL     OW20025   3.796   2.379   3.034  0.5917  0.0291  0.3505
 5065SOL    HW220026   3.707   2.361   3.064 -0.2410 -0.5558 -2.2168
 5065SOL    HW320027   3.786   2.452   2.973  1.9046  0.0442  0.1305
 5065SOL    MW420028   3.783   2.386   3.030  0.6550 -0.0461 -0.0172
 5066SOL     OW20029   2.464   2.532   0.753 -0.0667 -0.0659  0.3845
 5066SOL    HW220030   2.552   2.501   0.772  0.2022  0.2360 -0.3593
 5066SOL    HW320031   2.449   2.601   0.818  1.0011  1.2356 -0.7044
 5066SOL    MW420032   2.474   2.537   0.764  0.1096  0.1456  0.1427
 5067SOL     OW20033   6.109   1.093   4.442  0.0160  0.0386  0.0060
 5067SOL    HW220034   6.119   1.137   4.358 -0.0348  0.6181  0.2975
 5067SOL    HW320035   6.108   1.164   4.507 -2.8914 -0.1373  0.2820
 5067SOL    MW420036   6.110   1.108   4.440 -0.3743  0.0919  0.0809
 5068SOL     OW20037   2.839   4.994   5.051  0.3531 -0.3542  0.4492
 5068SOL    HW220038   2.819   4.970   5.142 -1.6910  0.6346  0.3252
 5068SOL    HW320039   2.794   5.078   5.038 -0.3242 -0.9799 -1.7733
 5068SOL    MW420040   2.830   5.002   5.061 -0.0059 -0.3063  0.1396
 5069SOL     OW20041   5.912   3.513   5.929 -0.2672  0.1013 -0.2088
 5069SOL    HW220042   6.006   3.533   5.924 -0.2672  0.2091  0.2220
 5069SOL    HW320043   5.886   3.497   5.838  0.5878 -1.8844 -0.1633
 5069SOL    MW420044   5.921   3.513   5.916 -0.1544 -0.1464 -0.1460
 5070SOL     OW20045   2.676   2.696   0.470  0.1546  0.1999 -0.2294
 5070SOL    HW220046   2.679   2.704   0.375 -1.0440  1.7207 -0.1739
 5070SOL    HW320047   2.763   2.664   0.494  0.2676 -0.8439 -1.8657
 5070SOL    MW420048   2.688   2.692   0.461  0.0114  0.2628 -0.4379
 5071SOL     OW20049   2.328   1.520   0.887 -0.2759 -0.1850 -0.1219
 5071SOL    HW220050   2.353   1.517   0.979 -2.2424 -0.2439  0.4371
 5071SOL    HW320051   2.256   1.582   0.883 -0.6046 -0.6274 -1.5337
 5071SOL    MW420052   2.322   1.528   0.898 -0.5787 -0.2512 -0.2344
 5072SOL     OW20053   4.424   0.935   4.478 -0.0219  0.6127 -0.1142
 5072SOL    HW220054   4.364   0.985   4.423 -0.0440  1.9720  1.0742
 5072SOL    HW320055   4.489   0.999   4.507  0.3349 -0.1920  0.9244
 5072SOL    MW420056   4.424   0.950   4.475  0.0223  0.6858  0.1796
 5073SOL     OW20057   2.782   1.713   0.408  0.2129  0.2590  0.0189
 5073SOL    HW220058   2.820   1.731   0.322  0.0036  0.6906  0.0155
 5073SOL    HW320059   2.688   1.722   0.396  0.2398  1.4581  0.5451
 5073SOL    MW420060   2.775   1.716   0.395  0.1888  0.4742  0.0879
 5074SOL     OW20061   1.559   3.197   1.851  0.0260  0.6785  0.2767
 5074SOL    HW220062   1.590   3.142   1.922  0.9815  1.1702  0.2551
 5074SOL    HW320063   1.463   3.191   1.856  0.0671 -1.7985 -0.3792
 5074SOL    MW420064   1.550   3.189   1.861  0.1575  0.4166  0.1873
 5075SOL     OW20065   4.739   0.438   4.689 -0.2274  0.1144 -0.6984
 5075SOL    HW220066   4.656   0.482   4.711  0.5690  1.3641 -0.0488
 5075SOL    HW320067   4.747   0.450   4.595 -0.4275  0.6736 -0.6546
 5075SOL    MW420068   4.729   0.446   4.680 -0.1487  0.3530 -0.6069
 5076SOL     OW20069   0.082   1.219   6.316 -0.4694  0.4863  0.5055
 5076SOL    HW220070   0.135   1.277   6.371  1.2034 -0.0126 -0.4905
 5076SOL    HW320071   0.080   1.137   6.365 -1.3536  0.8561  1.1019
 5076SOL    MW420072   0.089   1.216   6.330 -0.3653  0.4693  0.4528
 5077SOL     OW20073   2.595   5.779   3.691  0.0279  0.4644  0.3834
 5077SOL    HW220074   2.515   5.776   3.639  0.7203  1.4173 -0.7700
 5077SOL    HW320075   2.566   5.757   3.780 -1.3465 -0.1409 -0.1861
 5077SOL    MW420076   2.581   5.775   3.696 -0.0621  0.5102  0.1561
 5078SOL     OW20077   3.818   1.809   4.956  0.7088 -0.1675  0.5075
 5078SOL    HW220078   3.762   1.795   5.033  0.5629  1.4845  0.7260
 5078SOL    HW320079   3.854   1.722   4.937  0.6514 -0.6460  2.3726
 5078SOL    MW420080   3.816   1.795   4.964  0.6820 -0.0127  0.7824
 5079SOL     OW20081   1.730   1.880   5.128  0.2221  0.0145  0.3638
 5079SOL    HW220082   1.776   1.938   5.068  0.8440  1.1061  1.8365
 5079SOL    HW320083   1.768   1.793   5.114  2.0949  0.7210  0.8856
 5079SOL    MW420084   1.741   1.876   5.118  0.5512  0.2518  0.6269
 5080SOL     OW20085   5.764   0.442   2.534  0.0770  0.6946 -0.0065
 5080SOL    HW220086   5.773   0.435   2.439 -1.5276 -0.7861 -0.1194
 5080SOL    HW320087   5.671   0.459   2.548  0.2178  0.5088  1.3062
 5080SOL    MW420088   5.753   0.443   2.523 -0.1162  0.4747  0.1518
 5081SOL     OW20089   3.341   6.210   6.088 -0.0459  0.3363  0.5930
 5081SOL    HW220090   3.351   6.213   6.183 -0.9246  1.4739  0.6710
 5081SOL    HW320091   3.370   6.296   6.058 -0.0398  0.0832 -0.1397
 5081SOL    MW420092   3.346   6.222   6.097 -0.1611  0.4530  0.5066
 5082SOL     OW20093   1.965   0.527   2.921  1.0142 -0.0542  0.0970
 5082SOL    HW220094   1.954   0.516   3.015  1.0795 -0.6522  0.0432
 5082SOL    HW320095   1.972   0.621   2.908 -0.4280  0.1423  0.5303
 5082SOL    MW420096   1.965   0.538   2.931  0.8325 -0.1072  0.1470
 5083SOL     OW20097   3.209   1.463   4.894 -0.1579  0.5872  0.3940
 5083SOL    HW220098   3.166   1.397   4.948  0.5384  0.5637  0.9292
 5083SOL    HW320099   3.139   1.525   4.872 -0.7446 -0.1473  0.1495
 5083SOL    MW420100   3.194   1.463   4.898 -0.1435  0.4872  0.4324
 5084SOL     OW20101   3.910   1.594   4.299  0.5585 -0.5280 -0.0234
 5084SOL    HW220102   3.927   1.658   4.230 -1.9513 -0.1465 -0.3840
 5084SOL    HW320103   3.879   1.517   4.253  0.1980 -0.7616  0.6024
 5084SOL    MW420104   3.908   1.593   4.284  0.1798 -0.5085  0.0116
 5085SOL     OW20105   4.857   1.297   5.654  0.1452 -0.1141 -0.3274
 5085SOL    HW220106   4.870   1.392   5.646 -1.6631  0.1998  0.0342
 5085SOL    HW320107   4.847   1.282   5.747 -1.4611 -0.3477 -0.5084
 5085SOL    MW420108   4.857   1.308   5.665 -0.3053 -0.1035 -0.3036
 5086SOL     OW20109   5.529   5.726   4.249 -0.2637  0.2761 -0.5470
 5086SOL    HW220110   5.539   5.820   4.237  0.3861  0.4339  1.0040
 5086SOL    HW320111   5.605   5.700   4.301 -0.8216 -0.9677 -0.3212
 5086SOL    MW420112   5.540   5.735   4.255 -0.2515  0.1328 -0.3126
 5087SOL     OW20113   0.688   5.601   1.626 -0.6302 -0.0467 -0.2550
 5087SOL    HW220114   0.595   5.598   1.606 -0.8487  0.0951  0.6960
 5087SOL    HW320115   0.719   5.683   1.586 -1.4047  1.0897  1.3638
 5087SOL    MW420116   0.680   5.612   1.618 -0.7612  0.1219  0.0841
 5088SOL     OW20117   4.088   0.012   2.313 -0.4752  0.0489 -0.4653
 5088SOL    HW220118   4.169  -0.001   2.363 -0.4028  0.7153 -0.3937
 5088SOL    HW320119   4.104   0.092   2.262 -0.8262 -0.2146 -0.9942
 5088SOL    MW420120   4.101   0.021   2.313 -0.5120  0.1020 -0.5256
 5089SOL     OW20121   1.278   2.260   1.193  0.3856  0.5424 -0.2935
 5089SOL    HW220122   1.220   2.185   1.202 -2.6827  2.5216 -1.8120
 5089SOL    HW320123   1.358   2.224   1.154  0.3718 -2.3441  2.0017
 5089SOL    MW420124   1.281   2.245   1.189 -0.0211  0.4227 -0.1910
 5090SOL     OW20125   6.261   2.423   2.546 -0.5452  0.7780 -0.4722
 5090SOL    HW220126   6.190   2.404   2.607  0.9308  0.7933  1.3691
 5090SOL    HW320127   6.265   2.519   2.542 -0.0142  0.7948  0.2349
 5090SOL    MW420128   6.252   2.434   2.554 -0.2804  0.7823 -0.1359
 5091SOL     OW20129   4.588   0.392   2.295  0.1507  0.2352 -0.5228
 5091SOL    HW220130   4.513   0.411   2.351  0.7521  1.2408 -0.0187
 5091SOL    HW320131   4.645   0.337   2.349  0.9621  1.6130  0.0762
 5091SOL    MW420132   4.586   0.387   2.310  0.3371  0.5497 -0.3772
 5092SOL     OW20133   6.039   2.335   4.862 -0.1330  0.5462  0.1455
 5092SOL    HW220134   6.090   2.306   4.938  0.3348  0.9118 -0.0305
 5092SOL    HW320135   6.056   2.428   4.855 -0.6308  0.6255 -0.0665
 5092SOL    MW420136   6.048   2.343   4.871 -0.1370  0.6049  0.0943
 5093SOL     OW20137   6.259   1.979   2.103 -0.2431 -0.3292  0.8208
 5093SOL    HW220138   6.285   2.048   2.163 -3.6145  0.3199  1.7272
 5093SOL    HW320139   6.194   2.020   2.046 -0.1336 -2.0185 -0.6205
 5093SOL    MW420140   6.254   1.993   2.103 -0.6735 -0.4664  0.7502
 5094SOL     OW20141   0.834   2.119   2.948 -0.0240 -0.6748 -0.2193
 5094SOL    HW220142   0.859   2.093   3.036 -0.1607  2.5104  0.8963
 5094SOL    HW320143   0.758   2.177   2.960 -1.8934 -2.3630 -2.7154
 5094SOL    MW420144   0.827   2.123   2.961 -0.2887 -0.4773 -0.4014
 5095SOL     OW20145   1.440   0.367   2.391 -0.0309 -0.0488 -0.6513
 5095SOL    HW220146   1.421   0.452   2.352 -2.0665  0.0437  0.4443
 5095SOL    HW320147   1.406   0.304   2.328  0.3511 -0.0425 -0.8731
 5095SOL    MW420148   1.433   0.370   2.377 -0.2491 -0.0357 -0.5360
 5096SOL     OW20149   4.215   0.349   5.013 -0.2851 -0.3299 -0.5171
 5096SOL    HW220150   4.205   0.270   5.067  0.5901 -1.1830 -1.5597
 5096SOL    HW320151   4.169   0.417   5.062 -2.1544 -1.7500 -0.2117
 5096SOL    MW420152   4.208   0.348   5.027 -0.4163 -0.6298 -0.6144
 5097SOL     OW20153   0.635   0.121   5.408  0.3181  0.1425 -0.0390
 5097SOL    HW220154   0.556   0.166   5.437 -0.6753 -0.3658 -1.8268
 5097SOL    HW320155   0.691   0.118   5.486 -2.0373 -0.8445  1.7433
 5097SOL    MW420156   0.632   0.126   5.422 -0.1238 -0.0548 -0.0398
 5098SOL     OW20157   0.850   3.080   6.335 -0.8008 -0.5265 -0.1998
 5098SOL    HW220158   0.826   3.170   6.310  0.5466 -0.4392 -1.3183
 5098SOL    HW320159   0.813   3.026   6.265 -0.3915 -0.6999 -0.2793
 5098SOL    MW420160   0.842   3.085   6.322 -0.5690 -0.5379 -0.3578
 5099SOL     OW20161   1.713   4.326   2.520 -0.2772  1.2788 -0.1912
 5099SOL    HW220162   1.680   4.266   2.587 -0.6891 -0.5061 -1.9076
 5099SOL    HW320163   1.696   4.413   2.556 -0.9792  0.3893  1.7659
 5099SOL    MW420164   1.706   4.330   2.534 -0.4242  0.9259 -0.1594
 5100SOL     OW20165   4.041   5.609   4.279 -0.1846  1.0563  0.3395
 5100SOL    HW220166   3.996   5.682   4.322 -0.2837  0.2171  1.6908
 5100SOL    HW320167   4.107   5.652   4.224 -0.0096  2.1695  1.3652
 5100SOL    MW420168   4.044   5.625   4.277 -0.1746  1.0924  0.6531
 5101SOL     OW20169   3.435   4.705   5.595 -0.0924  0.0838  0.4824
 5101SOL    HW220170   3.377   4.685   5.668 -2.3020 -2.3181 -1.7400
 5101SOL    HW320171   3.418   4.797   5.575 -1.0352  0.1797  1.6431
 5101SOL    MW420172   3.425   4.715   5.602 -0.5084 -0.2204  0.3423
 5102SOL     OW20173   4.562   4.055   1.103 -0.1493 -0.2345  0.7973
 5102SOL    HW220174   4.554   4.130   1.044  0.6093 -0.2198  0.7093
 5102SOL    HW320175   4.475   4.015   1.101 -0.5211  0.5415  0.7194
 5102SOL    MW420176   4.549   4.060   1.095 -0.0983 -0.1302  0.7754
 5103SOL     OW20177   3.679   0.014   2.700  0.2228  0.4657  0.2469
 5103SOL    HW220178   3.773   0.028   2.695  0.4208 -0.6476  0.6792
 5103SOL    HW320179   3.641   0.094   2.662  1.3338  0.6304 -0.5560
 5103SOL    MW420180   3.686   0.027   2.694  0.3955  0.3405  0.1980
 5104SOL     OW20181   0.778   3.114   0.603 -0.1731  0.2801  0.4242
 5104SOL    HW220182   0.786   3.169   0.525 -2.3799 -0.8753 -0.7087
 5104SOL    HW320183   0.795   3.025   0.572  1.6041  0.0598  1.8703
 5104SOL    MW420184   0.781   3.110   0.589 -0.2298  0.0986  0.4655
 5105SOL     OW20185   2.146   3.295   5.925  0.2544  0.3730  0.1061
 5105SOL    HW220186   2.085   3.221   5.928  0.3426  0.2713  3.3545
 5105SOL    HW320187   2.098   3.363   5.878 -0.8752 -0.8807 -0.6322
 5105SOL    MW420188   2.131   3.294   5.919  0.1170  0.1942  0.4372
 5106SOL     OW20189   3.786   3.432   3.305  0.8685 -0.2329 -0.2346
 5106SOL    HW220190   3.782   3.495   3.233  0.9897 -1.0388 -0.9658
 5106SOL    HW320191   3.873   3.446   3.343  0.6142  0.5388  0.0926
 5106SOL    MW420192   3.797   3.442   3.300  0.8509 -0.2374 -0.2879
 5107SOL     OW20193   3.346   3.700   1.758 -0.0398 -0.6613  0.1863
 5107SOL    HW220194   3.278   3.764   1.738  0.2944 -0.6943 -1.0997
 5107SOL    HW320195   3.382   3.729   1.842 -1.2154 -0.3015  0.5852
 5107SOL    MW420196   3.341   3.712   1.767 -0.1508 -0.6181  0.0693
 5108SOL     OW20197   2.058   4.534   6.321  0.5038  0.0969 -0.0402
 5108SOL    HW220198   2.011   4.462   6.363  1.8256 -1.1168 -0.5532
 5108SOL    HW320199   2.037   4.611   6.374 -1.6311 -0.4704  0.0214
 5108SOL    MW420200   2.049   4.535   6.333  0.3965 -0.1381 -0.0997
 5109SOL     OW20201   0.202   0.744   0.830 -0.2491 -0.0085 -0.2462
 5109SOL    HW220202   0.176   0.674   0.771  0.2109 -0.7387  0.3897
 5109SOL    HW320203   0.298   0.743   0.827 -0.1694 -0.7736  1.2737
 5109SOL    MW420204   0.211   0.734   0.822 -0.1779 -0.2058  0.0382
 5110SOL     OW20205   0.804   4.594   0.495  0.1509 -0.5299  0.2094
 5110SOL    HW220206   0.709   4.607   0.492 -0.1186 -2.3469 -0.3945
 5110SOL    HW320207   0.821   4.562   0.584  0.4801  1.3947  0.8918
 5110SOL    MW420208   0.793   4.592   0.506  0.1588 -0.5157  0.2198
 5111SOL     OW20209   4.671   2.898   0.355  0.4087 -0.1750 -0.1975
 5111SOL    HW220210   4.696   2.898   0.262  0.0643  0.0060 -0.2889
 5111SOL    HW320211   4.738   2.843   0.397  0.1183 -0.9023 -0.6720
 5111SOL    MW420212   4.683   2.891   0.348  0.3249 -0.2471 -0.2722
 5112SOL     OW20213   3.835   4.439   0.601  0.2822  0.3833  0.1266
 5112SOL    HW220214   3.774   4.477   0.664 -1.0776  0.8441 -1.4039
 5112SOL    HW320215   3.868   4.513   0.551 -0.0351 -0.1353 -0.8787
 5112SOL    MW420216   3.832   4.453   0.603  0.0609  0.3757 -0.2080
 5113SOL     OW20217   2.263   1.714   5.465  0.3868 -0.5052 -0.4286
 5113SOL    HW220218   2.352   1.707   5.432  0.4654 -0.3706 -0.2478
 5113SOL    HW320219   2.225   1.787   5.415 -0.8722 -2.9496 -3.2976
 5113SOL    MW420220   2.270   1.723   5.454  0.2311 -0.8100 -0.7833
 5114SOL     OW20221   4.789   2.663  -0.030  0.3221 -0.3403  0.0015
 5114SOL    HW220222   4.785   2.731   0.038  0.3107 -1.0046  0.6853
 5114SOL    HW320223   4.697   2.640  -0.046  0.2956  0.2204 -0.6601
 5114SOL    MW420224   4.776   2.669  -0.023  0.3171 -0.3540  0.0045
 5115SOL     OW20225   0.011   5.420   2.453 -0.1245 -0.1025  0.5177
 5115SOL    HW220226   0.091   5.445   2.498  0.2299 -1.1417  0.4847
 5115SOL    HW320227  -0.029   5.353   2.509 -0.1198 -0.7836 -0.2691
 5115SOL    MW420228   0.016   5.414   2.467 -0.0771 -0.3295  0.4096
 5116SOL     OW20229   4.268   5.345   4.018  0.4009 -0.8765  0.1247
 5116SOL    HW220230   4.258   5.440   4.010 -0.9973 -1.0873 -1.1461
 5116SOL    HW320231   4.362   5.332   4.030  0.8071  0.5954 -1.1153
 5116SOL    MW420232   4.279   5.356   4.019  0.2700 -0.7101 -0.2065
 5117SOL     OW20233   4.948   6.011   2.933  0.0009  0.2224 -0.0000
 5117SOL    HW220234   4.959   5.925   2.892 -0.5201  0.2650 -0.2403
 5117SOL    HW320235   4.859   6.038   2.908  0.1716  0.8411  0.0498
 5117SOL    MW420236   4.938   6.003   2.924 -0.0453  0.3097 -0.0252
 5118SOL     OW20237   0.844   5.978   0.589  0.2973 -0.2157  0.4466
 5118SOL    HW220238   0.781   6.040   0.626  1.6778  0.7778  1.2377
 5118SOL    HW320239   0.882   6.024   0.514  1.1843 -0.1773  0.9108
 5118SOL    MW420240   0.841   5.992   0.584  0.5965 -0.0795  0.6122
 5119SOL     OW20241   0.625   3.025   1.903  0.1095  0.1999 -0.4205
 5119SOL    HW220242   0.553   3.065   1.853 -1.0613  0.3176  1.2786
 5119SOL    HW320243   0.647   3.091   1.969  1.2572 -0.1662 -0.4243
 5119SOL    MW420244   0.618   3.039   1.905  0.1065  0.1671 -0.1968
 5120SOL     OW20245   3.282   1.631   3.475  0.3523 -0.3501  0.0790
 5120SOL    HW220246   3.229   1.695   3.427  1.4132  1.4090  1.1337
 5120SOL    HW320247   3.229   1.607   3.550  0.0825 -0.4612 -0.1448
 5120SOL    MW420248   3.268   1.636   3.478  0.4567 -0.1326  0.1886
 5121SOL     OW20249   2.277   0.108   2.093  0.0668  0.7564  0.3515
 5121SOL    HW220250   2.360   0.073   2.062 -1.6580 -1.1495 -2.6539
 5121SOL    HW320251   2.227   0.125   2.013 -3.1967 -0.1738  2.0141
 5121SOL    MW420252   2.281   0.106   2.078 -0.5914  0.3822  0.1744
 5122SOL     OW20253   3.514   2.953   2.221  0.1570  0.1033 -0.0047
 5122SOL    HW220254   3.456   3.027   2.238  0.9039  0.1998  2.4419
 5122SOL    HW320255   3.487   2.886   2.284  1.0983 -0.8015 -0.5216
 5122SOL    MW420256   3.503   2.954   2.232  0.3797 -0.0034  0.2499
 5123SOL     OW20257   2.473   0.611   3.725  0.0050 -0.1145  0.2956
 5123SOL    HW220258   2.483   0.563   3.643  1.0220  1.5931 -0.6350
 5123SOL    HW320259   2.562   0.641   3.747 -0.5648  1.3201  0.8066
 5123SOL    MW420260   2.486   0.609   3.717  0.0640  0.3001  0.2403
 5124SOL     OW20261   5.373   6.250   1.848  0.6062  0.2464  0.1107
 5124SOL    HW220262   5.424   6.173   1.874  0.4113  0.1409  0.1818
 5124SOL    HW320263   5.286   6.234   1.885  0.0599 -0.3490 -1.3608
 5124SOL    MW420264   5.369   6.237   1.856  0.5084  0.1540 -0.0741
 5125SOL     OW20265   5.912   2.699   2.708  0.2396  0.3207 -0.4283
 5125SOL    HW220266   5.966   2.774   2.684  0.5444  0.5460  0.8946
 5125SOL    HW320267   5.874   2.669   2.625 -0.1728  2.1395 -0.9328
 5125SOL    MW420268   5.914   2.705   2.694  0.2254  0.5904 -0.3203
 5126SOL     OW20269   0.116   0.461   4.461  0.9924 -0.2136  0.3272
 5126SOL    HW220270   0.114   0.552   4.432 -0.9190 -0.1001  0.6900
 5126SOL    HW320271   0.169   0.416   4.396  0.0274  0.7453 -1.1842
 5126SOL    MW420272   0.123   0.467   4.449  0.6129 -0.0721  0.1757
 5127SOL     OW20273   2.029   3.487   6.213  0.1107 -0.1021 -0.1937
 5127SOL    HW220274   1.974   3.561   6.190 -0.2854 -0.9702 -2.2255
 5127SOL    HW320275   2.073   3.462   6.132  0.7802 -1.6420  0.5824
 5127SOL    MW420276   2.027   3.493   6.199  0.1468 -0.4198 -0.3593
 5128SOL     OW20277   3.784   3.701   1.803  0.1934 -0.0257 -0.0784
 5128SOL    HW220278   3.760   3.708   1.895 -0.3400  0.9853 -0.2759
 5128SOL    HW320279   3.873   3.735   1.798  0.0263  0.4289 -0.0099
 5128SOL    MW420280   3.792   3.707   1.814  0.1010  0.1677 -0.0955
 5129SOL     OW20281   2.312   6.038   4.589  0.2621  0.1969 -0.1447
 5129SOL    HW220282   2.331   6.132   4.595 -0.2929  0.3650 -0.8312
 5129SOL    HW320283   2.390   6.000   4.549  0.2322  0.4649 -0.4564
 5129SOL    MW420284   2.325   6.046   4.585  0.1849  0.2544 -0.2764
 5130SOL     OW20285   2.834   4.008   0.163 -0.0279  0.5170  0.5210
 5130SOL    HW220286   2.805   3.934   0.216 -1.2421  0.7357  0.1835
 5130SOL    HW320287   2.754   4.054   0.139  0.6960  1.9391  0.6947
 5130SOL    MW420288   2.820   4.004   0.167 -0.0926  0.7335  0.4994
 5131SOL     OW20289   3.539   3.713   2.263  0.1262  0.4398 -0.6966
 5131SOL    HW220290   3.451   3.686   2.237  0.0506  0.7470 -0.7661
 5131SOL    HW320291   3.525   3.783   2.326  0.3154 -0.0453 -0.1081
 5131SOL    MW420292   3.526   3.719   2.268  0.1412  0.4163 -0.6281
 5132SOL     OW20293   1.641   4.730   0.536  1.0045  0.3624  0.1255
 5132SOL    HW220294   1.556   4.712   0.496  0.0981  2.6441  0.8651
 5132SOL    HW320295   1.677   4.643   0.554  0.2763 -0.7452 -3.0594
 5132SOL    MW420296   1.634   4.716   0.533  0.7888  0.5173 -0.1972
 5133SOL     OW20297   4.769   1.070   0.104  0.0043 -0.1108  0.6186
 5133SOL    HW220298   4.827   1.141   0.129 -0.8344  0.8280 -0.0107
 5133SOL    HW320299   4.683   1.111   0.095 -0.8056 -1.4854  1.6603
 5133SOL    MW420300   4.765   1.085   0.106 -0.2132 -0.1683  0.6730
 5134SOL     OW20301   4.575   1.997   5.765  0.7360  0.8881 -0.1431
 5134SOL    HW220302   4.664   1.989   5.798  1.8953 -0.1245 -3.1483
 5134SOL    HW320303   4.537   1.910   5.776  0.6585  0.9098 -0.2342
 5134SOL    MW420304   4.582   1.984   5.770  0.8787  0.7574 -0.5516
 5135SOL     OW20305   4.646   3.051   3.721  0.0525  0.0168 -0.0889
 5135SOL    HW220306   4.589   3.067   3.646  0.5307  0.6384 -0.3240
 5135SOL    HW320307   4.735   3.061   3.688  0.2732  0.1996  0.5330
 5135SOL    MW420308   4.650   3.055   3.707  0.1447  0.1229 -0.0378
 5136SOL     OW20309   1.311   4.634   1.411 -0.4664 -0.3825 -0.2222
 5136SOL    HW220310   1.259   4.568   1.458 -0.8579  0.8249  1.1293
 5136SOL    HW320311   1.263   4.649   1.330  0.0368 -2.2817 -0.9258
 5136SOL    MW420312   1.298   4.627   1.407 -0.4516 -0.4737 -0.1367
 5137SOL     OW20313   2.347   5.579   0.153  0.0335 -0.0098 -0.9592
 5137SOL    HW220314   2.422   5.591   0.212  0.0136  2.2896 -1.3410
 5137SOL    HW320315   2.369   5.631   0.076 -1.3676 -0.4193 -1.6580
 5137SOL    MW420316   2.360   5.587   0.151 -0.1540  0.2396 -1.1018
 5138SOL     OW20317   5.113   1.268   3.745  0.5905  0.5409  0.3525
 5138SOL    HW220318   5.019   1.278   3.760  0.8801  2.2522  1.3205
 5138SOL    HW320319   5.150   1.353   3.770  2.5628 -0.5895  1.4963
 5138SOL    MW420320   5.105   1.281   3.750  0.8889  0.6176  0.6311
 5139SOL     OW20321   0.860   1.178   5.059 -0.1906 -0.0271 -0.2920
 5139SOL    HW220322   0.908   1.137   4.986  1.0716  1.2060 -0.1977
 5139SOL    HW320323   0.841   1.267   5.028  0.6308  0.6203  0.9612
 5139SOL    MW420324   0.864   1.184   5.045  0.0843  0.2210 -0.1142
 5140SOL     OW20325   4.002   4.108   5.992  0.4047  0.0411  0.6227
 5140SOL    HW220326   3.909   4.119   5.974  0.6619 -1.1800 -1.8684
 5140SOL    HW320327   4.046   4.167   5.931  1.2875 -0.1404  1.0699
 5140SOL    MW420328   3.996   4.117   5.982  0.5551 -0.1440  0.3530
 5141SOL     OW20329   1.114   5.936   4.889 -0.2563 -0.1319 -0.4464
 5141SOL    HW220330   1.202   5.974   4.882 -0.1161 -0.5488 -1.0299
 5141SOL    HW320331   1.091   5.947   4.981  0.7293 -0.7188 -0.1083
 5141SOL    MW420332   1.123   5.942   4.900 -0.1078 -0.2643 -0.4788
 5142SOL     OW20333   3.782   3.132   3.631  0.4977 -0.2564 -0.5864
 5142SOL    HW220334   3.751   3.047   3.660 -1.8788  0.4153 -0.9294
 5142SOL    HW320335   3.702   3.180   3.607  1.5583  2.6483  1.1469
 5142SOL    MW420336   3.767   3.127   3.631  0.3241  0.2154 -0.4029
 5143SOL     OW20337   1.797   1.149   3.737 -0.2441 -0.0248 -0.7073
 5143SOL    HW220338   1.872   1.125   3.790 -1.3448 -0.0552  0.9198
 5143SOL    HW320339   1.809   1.102   3.654 -0.1095 -2.6804  0.7213
 5143SOL    MW420340   1.808   1.140   3.733 -0.3715 -0.3792 -0.3042
 5144SOL     OW20341   1.327   2.404   2.295  0.2325 -0.1401 -0.4514
 5144SOL    HW220342   1.270   2.470   2.335 -0.1903  0.0580 -1.3407
 5144SOL    HW320343   1.267   2.350   2.243  0.7222 -0.5778 -0.5646
 5144SOL    MW420344   1.311   2.405   2.293  0.2413 -0.1718 -0.5837
 5145SOL     OW20345   3.333   1.561   1.269  0.5308  0.1830  0.4660
 5145SOL    HW220346   3.366   1.644   1.236  1.0159 -0.6069 -1.1159
 5145SOL    HW320347   3.248   1.549   1.226  0.7714 -0.4470  0.1527
 5145SOL    MW420348   3.326   1.570   1.259  0.6266 -0.0043  0.2159
 5146SOL     OW20349   4.188   2.712   1.916 -0.5974 -0.3397 -0.0094
 5146SOL    HW220350   4.209   2.758   1.997 -1.0046  0.6506 -0.4445
 5146SOL    HW320351   4.246   2.637   1.915  0.0191  0.1106  0.7848
 5146SOL    MW420352   4.199   2.708   1.927 -0.5698 -0.1497  0.0380
 5147SOL     OW20353   0.041   5.189   1.371 -0.3549 -0.0158  0.1542
 5147SOL    HW220354   0.106   5.244   1.328  0.1749  0.0630  1.0247
 5147SOL    HW320355   0.063   5.100   1.345 -0.2614  0.0610 -0.0283
 5147SOL    MW420356   0.052   5.184   1.362 -0.2726  0.0047  0.2449
 5148SOL     OW20357   5.701   1.099   0.636 -0.0601 -0.0763 -0.5114
 5148SOL    HW220358   5.697   1.084   0.731  1.2872  0.3447 -0.3761
 5148SOL    HW320359   5.609   1.102   0.609 -0.4629 -1.7344  0.5194
 5148SOL    MW420360   5.688   1.097   0.645  0.0645 -0.2395 -0.3575
 5149SOL     OW20361   0.675   0.004   6.279 -0.2786  0.5506 -0.3293
 5149SOL    HW220362   0.589   0.022   6.243 -0.1586  0.6462 -0.5716
 5149SOL    HW320363   0.675   0.046   6.365  0.3395  2.6217 -1.2720
 5149SOL    MW420364   0.664   0.012   6.285 -0.1812  0.8365 -0.4857
 5150SOL     OW20365   2.985   1.740   0.125 -0.1327  0.0628 -0.3417
 5150SOL    HW220366   3.015   1.830   0.137 -0.3332  0.1995 -0.8394
 5150SOL    HW320367   3.017   1.715   0.038  1.6898 -1.0660  0.5999
 5150SOL    MW420368   2.993   1.748   0.115  0.0813 -0.0681 -0.2831
 5151SOL     OW20369   0.523   1.176   1.824 -0.1264 -0.2275  0.6801
 5151SOL    HW220370   0.614   1.200   1.841 -0.0777 -0.2862  0.5097
 5151SOL    HW320371   0.510   1.095   1.874  0.5917 -1.4669 -1.0344
 5151SOL    MW420372   0.533   1.168   1.833 -0.0252 -0.3987  0.4314
 5152SOL     OW20373   3.597   0.625   3.359 -1.0310 -0.0333  0.1103
 5152SOL    HW220374   3.580   0.544   3.311 -0.3951 -0.2051  0.1653
 5152SOL    HW320375   3.583   0.602   3.451  1.7484 -0.8436  0.4167
 5152SOL    MW420376   3.593   0.611   3.365 -0.5804 -0.1629  0.1580
 5153SOL     OW20377   2.104   2.178   4.509 -0.6745  0.6773  0.6099
 5153SOL    HW220378   2.034   2.243   4.511 -0.8555  0.4762  0.7277
 5153SOL    HW320379   2.062   2.096   4.486 -0.5399  0.4817  1.0363
 5153SOL    MW420380   2.089   2.176   4.507 -0.6806  0.6250  0.6817
 5154SOL     OW20381   2.256   1.835   0.276 -0.0561  0.4055 -0.0643
 5154SOL    HW220382   2.271   1.775   0.202  0.3056 -0.8630  0.9986
 5154SOL    HW320383   2.265   1.922   0.238  1.2649 -0.2237 -1.2921
 5154SOL    MW420384   2.259   1.838   0.261  0.1659  0.1551 -0.0861
 5155SOL     OW20385   0.700   3.558   1.479  0.0214  0.1060  0.8012
 5155SOL    HW220386   0.773   3.620   1.476 -1.3201  1.7438  0.4836
 5155SOL    HW320387   0.742   3.472   1.489  1.9481  1.0360  1.2504
 5155SOL    MW420388   0.715   3.555   1.480  0.0986  0.4448  0.8185
 5156SOL     OW20389   2.367   0.481   5.419  0.1135  0.3190  0.2618
 5156SOL    HW220390   2.418   0.409   5.457  0.6801  0.4296 -0.2749
 5156SOL    HW320391   2.369   0.549   5.486 -0.7868 -0.3118  0.9529
 5156SOL    MW420392   2.374   0.480   5.433  0.0695  0.2504  0.2822
 5157SOL     OW20393   0.736   1.729   5.565 -0.1316 -0.1168 -0.6513
 5157SOL    HW220394   0.718   1.790   5.636  3.7623  0.5452 -0.0036
 5157SOL    HW320395   0.706   1.775   5.486  0.0987  1.4260  0.1103
 5157SOL    MW420396   0.730   1.743   5.564  0.4125  0.1741 -0.4654
 5158SOL     OW20397   4.723   5.078   1.808  0.2278  0.0616  0.3388
 5158SOL    HW220398   4.663   5.004   1.817  1.4766 -0.9359  0.7721
 5158SOL    HW320399   4.766   5.064   1.724 -0.9916  1.4579 -0.5725
 5158SOL    MW420400   4.721   5.067   1.798  0.2317  0.1142  0.2758
 5159SOL     OW20401   2.681   2.403   5.839 -0.1275 -0.5975 -0.0527
 5159SOL    HW220402   2.747   2.422   5.905 -0.5631  0.0486  0.2173
 5159SOL    HW320403   2.679   2.481   5.783  0.4317 -1.2515 -1.0056
 5159SOL    MW420404   2.689   2.416   5.840 -0.1112 -0.5986 -0.1428
 5160SOL     OW20405   4.498   5.412  -0.021 -0.1348  0.1239  0.2910
 5160SOL    HW220406   4.491   5.494   0.028  0.4892  0.9835 -0.9979
 5160SOL    HW320407   4.481   5.344   0.044 -0.9464  1.2762  1.3342
 5160SOL    MW420408   4.495   5.414  -0.006 -0.1596  0.3894  0.2586
 5161SOL     OW20409   1.849   4.667   5.325  0.5669  0.6953  0.5364
 5161SOL    HW220410   1.814   4.715   5.400  0.0335  0.6193  0.3364
 5161SOL    HW320411   1.893   4.733   5.273  1.7201  0.6122  1.3592
 5161SOL    MW420412   1.850   4.682   5.328  0.6487  0.6743  0.6186
 5162SOL     OW20413   6.353   2.878   0.030 -0.3622  0.0332  0.6051
 5162SOL    HW220414   6.421   2.812   0.044  1.0288  0.3650 -3.4585
 5162SOL    HW320415   6.391   2.959   0.064  1.1348  0.0962 -1.0850
 5162SOL    MW420416   6.367   2.880   0.036  0.0188  0.0853 -0.1540
 5163SOL     OW20417   0.534   4.697   1.268  0.4065 -0.0976  0.5032
 5163SOL    HW220418   0.576   4.650   1.196  0.3857  0.0679  0.3825
 5163SOL    HW320419   0.465   4.638   1.299 -1.5598  0.9918 -1.5398
 5163SOL    MW420420   0.530   4.683   1.263  0.1443  0.0680  0.2177
 5164SOL     OW20421   4.345   3.753   0.800  0.1729 -0.5631 -0.3915
 5164SOL    HW220422   4.351   3.681   0.737 -0.7182  0.1288 -1.3028
 5164SOL    HW320423   4.402   3.821   0.764  0.8275 -0.7071  0.3427
 5164SOL    MW420424   4.353   3.752   0.787  0.1417 -0.4908 -0.4148
 5165SOL     OW20425   6.154   3.497   0.322 -0.3436 -0.2617 -0.0041
 5165SOL    HW220426   6.200   3.424   0.280  2.1973  0.2427  1.7361
 5165SOL    HW320427   6.216   3.532   0.385 -3.5288 -0.2836  3.4660
 5165SOL    MW420428   6.168   3.492   0.325 -0.4286 -0.1980  0.6833
 5166SOL     OW20429  -0.021   3.483   1.723  0.5489  0.1399 -0.3117
 5166SOL    HW220430   0.015   3.513   1.639 -1.0141  0.7639 -0.8014
 5166SOL    HW320431   0.036   3.523   1.789  1.4053  0.1891 -1.0674
 5166SOL    MW420432  -0.009   3.492   1.721  0.4557  0.2287 -0.4760
 5167SOL     OW20433   3.724   5.106   6.355  0.4397 -0.2468  0.2856
 5167SOL    HW220434   3.631   5.124   6.361  0.2299 -1.2044  0.0691
 5167SOL    HW320435   3.751   5.144   6.271  0.0316 -0.8434 -0.1214
 5167SOL    MW420436   3.715   5.114   6.345  0.3582 -0.4519  0.2033
 5168SOL     OW20437   0.990   1.996   3.564  0.2385  0.4054 -0.4437
 5168SOL    HW220438   1.079   1.983   3.532  0.7063 -0.8226  1.2058
 5168SOL    HW320439   0.935   1.941   3.509  0.9801 -1.4426  0.5888
 5168SOL    MW420440   0.995   1.987   3.553  0.3981 -0.0005 -0.0898
 5169SOL     OW20441   4.412   1.987   0.309 -0.0016  0.2672  0.6019
 5169SOL    HW220442   4.481   2.048   0.281 -0.9885  0.8311 -0.7094
 5169SOL    HW320443   4.380   1.949   0.227  0.5489 -2.0271  1.3697
 5169SOL    MW420444   4.417   1.990   0.294 -0.0592  0.0389  0.5302
 5170SOL     OW20445   6.247   2.900   1.394  0.3687 -0.4865 -0.1862
 5170SOL    HW220446   6.307   2.934   1.328 -0.6121  1.9356  0.0723
 5170SOL    HW320447   6.274   2.809   1.406  1.2902 -0.6988 -3.0815
 5170SOL    MW420448   6.259   2.893   1.387  0.3609 -0.1949 -0.5341
 5171SOL     OW20449   3.027   2.095   4.487 -0.0509  0.0704  0.1728
 5171SOL    HW220450   3.038   2.187   4.465  1.8649  0.2271  1.5148
 5171SOL    HW320451   3.062   2.048   4.411 -0.1952  0.4686 -0.1434
 5171SOL    MW420452   3.033   2.101   4.474  0.1828  0.1436  0.3082
 5172SOL     OW20453   0.069   3.247   5.484 -0.2530  0.3194 -0.4324
 5172SOL    HW220454   0.127   3.283   5.417  0.8456 -2.1458 -0.9106
 5172SOL    HW320455   0.004   3.197   5.435  1.6529 -3.0907  0.2435
 5172SOL    MW420456   0.068   3.245   5.469  0.1434 -0.4558 -0.4063
 5173SOL     OW20457   3.697   1.671   3.899  0.0679 -0.4909 -0.0071
 5173SOL    HW220458   3.610   1.688   3.864  0.8121  0.4667 -1.4616
 5173SOL    HW320459   3.744   1.754   3.889  0.4875 -0.2866  2.8847
 5173SOL    MW420460   3.692   1.684   3.893  0.2214 -0.3376  0.1825
 5174SOL     OW20461   2.926   3.571   6.307  0.1492  0.2541 -0.2954
 5174SOL    HW220462   3.011   3.614   6.294  1.6054 -2.3379  0.1123
 5174SOL    HW320463   2.935   3.525   6.390 -1.8681  0.2874 -0.0180
 5174SOL    MW420464   2.939   3.571   6.316  0.0752 -0.0835 -0.2050
 5175SOL     OW20465   5.684   1.700   3.587  0.5812  0.3747  0.0346
 5175SOL    HW220466   5.702   1.610   3.615 -0.9454 -0.0127 -0.1525
 5175SOL    HW320467   5.600   1.721   3.627  0.9821  1.7829  0.1767
 5175SOL    MW420468   5.676   1.691   3.596  0.4326  0.5094  0.0287
 5176SOL     OW20469   2.501   3.980   3.226 -0.1606  0.4480 -0.0999
 5176SOL    HW220470   2.578   4.001   3.278 -0.6545  2.6213 -0.1433
 5176SOL    HW320471   2.514   3.889   3.199  0.6800 -0.3581  2.7516
 5176SOL    MW420472   2.513   3.971   3.229 -0.1148  0.6284  0.2706
 5177SOL     OW20473   4.567   3.986   0.462  0.0836 -0.4037  0.6412
 5177SOL    HW220474   4.526   4.064   0.426  1.2394 -0.5660 -1.2176
 5177SOL    HW320475   4.540   3.915   0.403  0.0948 -1.1782  1.5361
 5177SOL    MW420476   4.558   3.987   0.449  0.2376 -0.5273  0.5140
 5178SOL     OW20477   1.791   6.435   2.726 -0.2435  0.0588  0.2800
 5178SOL    HW220478   1.781   6.371   2.798 -0.8159  0.7285  0.8132
 5178SOL    HW320479   1.866   6.488   2.751 -1.2625  1.1628  1.0853
 5178SOL    MW420480   1.799   6.433   2.739 -0.4535  0.2928  0.4566
 5179SOL     OW20481   5.961   5.236   4.312  0.0796  0.0298 -0.4921
 5179SOL    HW220482   5.983   5.205   4.224  0.3763  0.2069 -0.4820
 5179SOL    HW320483   5.873   5.274   4.303  0.7613  1.5343 -1.0913
 5179SOL    MW420484   5.952   5.237   4.299  0.2087  0.2517 -0.5698
 5180SOL     OW20485   2.289   3.726   5.130  0.2044  0.4537  0.4584
 5180SOL    HW220486   2.277   3.689   5.042  2.5477 -0.6895  0.5551
 5180SOL    HW320487   2.363   3.786   5.121  1.8131 -1.1929  2.0007
 5180SOL    MW420488   2.297   3.729   5.117  0.7258  0.0856  0.6747
 5181SOL     OW20489   2.869   0.276   2.323 -0.1957 -0.2162 -0.1595
 5181SOL    HW220490   2.803   0.213   2.293 -0.1952 -0.8650  1.1445
 5181SOL    HW320491   2.942   0.264   2.262 -0.2942 -1.3180 -0.0962
 5181SOL    MW420492   2.870   0.266   2.311 -0.2086 -0.4472  0.0209
 5182SOL     OW20493   5.814   3.634   1.897 -0.1541 -0.4148  0.7797
 5182SOL    HW220494   5.772   3.548   1.885  0.9286 -0.8098 -0.4340
 5182SOL    HW320495   5.837   3.637   1.989  0.0526 -1.5671  0.7783
 5182SOL    MW420496   5.812   3.623   1.907  0.0160 -0.6189  0.6193
 5183SOL     OW20497   3.273   5.301   3.089  0.4156 -0.0356 -0.1857
 5183SOL    HW220498   3.310   5.239   3.026 -1.8768 -0.2807 -1.4138
 5183SOL    HW320499   3.243   5.375   3.035  2.8428  2.1185  1.2178
 5183SOL    MW420500   3.274   5.302   3.073  0.4334  0.2162 -0.1625
 5184SOL     OW20501   2.446   5.280   5.830  0.2970 -0.0534  0.2073
 5184SOL    HW220502   2.479   5.366   5.804  2.7482 -1.3229 -1.1836
 5184SOL    HW320503   2.351   5.291   5.831  0.5201  2.6210 -0.0495
 5184SOL    MW420504   2.438   5.293   5.826  0.6498  0.1320 -0.0101
 5185SOL     OW20505   0.169   1.676   2.312 -0.6770 -0.5046 -0.9575
 5185SOL    HW220506   0.127   1.736   2.250 -1.0807 -1.3685 -1.5334
 5185SOL    HW320507   0.121   1.594   2.303  0.4798 -1.2131 -0.8648
 5185SOL    MW420508   0.157   1.673   2.303 -0.5776 -0.7121 -1.0213
 5186SOL     OW20509   5.142   0.943   2.848 -0.0724  0.1030  0.3637
 5186SOL    HW220510   5.106   1.031   2.860 -0.1164  0.1703 -0.2411
 5186SOL    HW320511   5.065   0.886   2.842 -0.0562  0.0969  0.2083
 5186SOL    MW420512   5.127   0.947   2.849 -0.0761  0.1111  0.2634
 5187SOL     OW20513   6.184   0.969   4.936 -0.2786 -0.4756  1.0991
 5187SOL    HW220514   6.138   1.052   4.947  0.6324  0.3415 -0.8663
 5187SOL    HW320515   6.116   0.902   4.946 -1.5433  0.6200  0.1327
 5187SOL    MW420516   6.169   0.971   4.939 -0.3253 -0.2232  0.7123
 5188SOL     OW20517   2.551   3.384   5.179 -0.3716 -0.1999  0.1398
 5188SOL    HW220518   2.550   3.289   5.171 -0.1876 -0.2206  0.3556
 5188SOL    HW320519   2.475   3.405   5.234 -0.7725 -0.1713 -0.4112
 5188SOL    MW420520   2.541   3.375   5.185 -0.4002 -0.1988  0.0956
 5189SOL     OW20521   1.416   0.540   3.611 -0.4275 -0.1086 -0.7335
 5189SOL    HW220522   1.422   0.628   3.575  0.2810  0.2210  0.1573
 5189SOL    HW320523   1.322   0.523   3.619 -0.6146  1.6518  1.6614
 5189SOL    MW420524   1.405   0.549   3.607 -0.3587  0.1672 -0.3000
 5190SOL     OW20525   4.244   3.663   1.042  0.4777 -0.0151 -0.0785
 5190SOL    HW220526   4.248   3.736   1.103  0.8535  0.2202 -0.3807
 5190SOL    HW320527   4.280   3.697   0.961 -1.9382  0.3184 -1.1017
 5190SOL    MW420528   4.249   3.677   1.040  0.2085  0.0599 -0.2534
 5191SOL     OW20529   5.287   0.919   0.676  0.4368 -0.1438  0.2301
 5191SOL    HW220530   5.264   0.983   0.743  0.0218 -0.8486  0.7721
 5191SOL    HW320531   5.315   0.972   0.601 -0.1121  0.6762  0.5889
 5191SOL    MW420532   5.288   0.934   0.675  0.3096 -0.1286  0.3489
 5192SOL     OW20533   6.224   3.934   2.450 -0.3442 -0.1094 -0.6463
 5192SOL    HW220534   6.281   3.864   2.418  0.4961  0.6962 -0.9663
 5192SOL    HW320535   6.140   3.917   2.408  0.6109  0.6929 -3.1165
 5192SOL    MW420536   6.220   3.923   2.440 -0.1073  0.1027 -1.0144
 5193SOL     OW20537   5.662   5.653   1.390 -0.5327 -0.0623  0.7395
 5193SOL    HW220538   5.679   5.569   1.432  0.7230  0.2139  0.8162
 5193SOL    HW320539   5.567   5.660   1.388 -0.6453 -0.4759  2.7573
 5193SOL    MW420540   5.652   5.643   1.395 -0.3819 -0.0804  1.0158
 5194SOL     OW20541   6.223   2.726   3.411  0.1821  0.0136  0.1896
 5194SOL    HW220542   6.200   2.788   3.342  1.4733 -1.0385 -1.2319
 5194SOL    HW320543   6.301   2.764   3.452 -0.4636  0.5333  0.9723
 5194SOL    MW420544   6.230   2.739   3.407  0.2673 -0.0566  0.1053
 5195SOL     OW20545   0.424   2.592   3.706 -0.2073 -0.1409  0.1544
 5195SOL    HW220546   0.356   2.585   3.640 -0.3492  1.7425  0.0436
 5195SOL    HW320547   0.467   2.507   3.707 -2.1817 -1.1724 -0.1761
 5195SOL    MW420548   0.421   2.580   3.698 -0.4865 -0.0285  0.0962
 5196SOL     OW20549   1.611   0.184   2.502 -0.1797  0.6674  0.1619
 5196SOL    HW220550   1.564   0.264   2.475  1.0959  1.8168  1.2208
 5196SOL    HW320551   1.605   0.183   2.597  0.1539 -0.3146  0.1858
 5196SOL    MW420552   1.604   0.195   2.511  0.0326  0.6895  0.3048
 5197SOL     OW20553   4.262   4.524   4.500  0.7171 -0.0529 -0.0983
 5197SOL    HW220554   4.179   4.526   4.547  0.9905 -1.7560  0.5219
 5197SOL    HW320555   4.243   4.475   4.420  0.7082  1.1598 -0.8562
 5197SOL    MW420556   4.249   4.518   4.496  0.7520 -0.1176 -0.1165
 5198SOL     OW20557   1.357   5.883   5.403  0.1663  0.5062 -0.1652
 5198SOL    HW220558   1.302   5.880   5.481  0.0954 -1.4114 -0.2300
 5198SOL    HW320559   1.304   5.842   5.334  1.0525  0.1099 -0.6391
 5198SOL    MW420560   1.343   5.877   5.404  0.2738  0.2009 -0.2363
 5199SOL     OW20561   6.193   3.387   5.471  0.0291  0.0861  0.0753
 5199SOL    HW220562   6.270   3.329   5.471  1.3648  1.7687  0.9081
 5199SOL    HW320563   6.129   3.342   5.525  0.9373 -0.7444  0.4888
 5199SOL    MW420564   6.195   3.373   5.478  0.3252  0.1985  0.2397
 5200SOL     OW20565   3.043   4.421   0.040  0.5913  0.1355  0.1585
 5200SOL    HW220566   3.005   4.484  -0.022 -0.8001  2.3391  3.0096
 5200SOL    HW320567   2.973   4.404   0.103  2.1162 -1.4571  1.5116
 5200SOL    MW420568   3.029   4.427   0.040  0.6089  0.2161  0.7132
 5201SOL     OW20569   2.791   4.407   0.963  0.0078  0.6700 -0.3188
 5201SOL    HW220570   2.866   4.364   0.921  2.4799  3.0535  1.3111
 5201SOL    HW320571   2.767   4.348   1.035  0.5181  0.0458 -0.6430
 5201SOL    MW420572   2.798   4.393   0.967  0.4013  0.9021 -0.1465
 5202SOL     OW20573   0.974   1.017   1.367  0.2517  0.2822  0.0894
 5202SOL    HW220574   1.036   1.086   1.345  0.6063 -0.6554 -2.2166
 5202SOL    HW320575   1.002   0.942   1.313 -2.5697 -0.3399 -0.6757
 5202SOL    MW420576   0.986   1.016   1.357 -0.0738  0.0764 -0.3158
 5203SOL     OW20577   2.556   5.539   5.725  0.5373 -0.3283 -0.2325
 5203SOL    HW220578   2.483   5.541   5.665 -0.3207 -1.7166  0.7097
 5203SOL    HW320579   2.531   5.598   5.797  1.0139  0.3485 -0.6047
 5203SOL    MW420580   2.543   5.547   5.727  0.4870 -0.4222 -0.1573
 5204SOL     OW20581   3.424   5.620   4.160 -0.1061 -0.1530  0.1375
 5204SOL    HW220582   3.516   5.644   4.169 -0.1675 -0.0737  0.6192
 5204SOL    HW320583   3.411   5.552   4.226 -0.4797  0.0969  0.3255
 5204SOL    MW420584   3.435   5.615   4.170 -0.1635 -0.1096  0.2259
 5205SOL     OW20585   3.827   4.097   2.605 -0.0287 -0.1365  0.4489
 5205SOL    HW220586   3.916   4.062   2.602 -0.4691 -1.2590 -0.3251
 5205SOL    HW320587   3.775   4.034   2.556 -1.4259  0.0105  1.6600
 5205SOL    MW420588   3.832   4.084   2.598 -0.2712 -0.2652  0.5065
 5206SOL     OW20589   2.601   2.263   2.685  0.1604  0.1285  0.0607
 5206SOL    HW220590   2.547   2.325   2.734  1.2222  1.4170 -0.3558
 5206SOL    HW320591   2.613   2.189   2.745 -3.0685 -0.8074 -0.2726
 5206SOL    MW420592   2.595   2.261   2.699 -0.1255  0.1750 -0.0382
 5207SOL     OW20593   6.074   2.246   0.157  0.0507  0.0210  0.2527
 5207SOL    HW220594   6.035   2.208   0.236 -1.4697 -0.8225 -0.8475
 5207SOL    HW320595   6.044   2.337   0.156  0.0577  0.0284  0.6396
 5207SOL    MW420596   6.065   2.253   0.167 -0.1490 -0.0893  0.1586
 5208SOL     OW20597   4.341   2.695   4.715  0.0292 -0.4247  0.4541
 5208SOL    HW220598   4.257   2.734   4.689 -1.2015 -1.2174  2.9055
 5208SOL    HW320599   4.352   2.620   4.657 -0.1604  0.5367 -0.8855
 5208SOL    MW420600   4.331   2.691   4.704 -0.1582 -0.4024  0.6008
 5209SOL     OW20601   3.592   3.837   1.663  0.0854 -0.6502 -0.6989
 5209SOL    HW220602   3.527   3.830   1.733 -0.0651 -0.5098 -0.8221
 5209SOL    HW320603   3.674   3.808   1.702 -0.6142 -3.9069 -1.3533
 5209SOL    MW420604   3.594   3.832   1.677 -0.0268 -1.0614 -0.8015
 5210SOL     OW20605   5.509   2.279   6.245 -0.8660 -0.1239  0.0746
 5210SOL    HW220606   5.534   2.189   6.266 -0.7668 -0.3246 -0.8554
 5210SOL    HW320607   5.560   2.301   6.168 -1.3065  0.5389 -0.0395
 5210SOL    MW420608   5.519   2.270   6.238 -0.9110 -0.0629 -0.0631
 5211SOL     OW20609   0.095   4.193   2.255  0.3967 -0.6087 -0.1049
 5211SOL    HW220610   0.180   4.176   2.296  0.6787  1.4150  0.2578
 5211SOL    HW320611   0.032   4.194   2.327  0.0190 -2.1597 -0.3792
 5211SOL    MW420612   0.098   4.191   2.270  0.3841 -0.5463 -0.0932
 5212SOL     OW20613   4.395   0.561   3.643 -0.5262 -0.1508  0.6673
 5212SOL    HW220614   4.486   0.577   3.666 -0.2838  1.3827 -1.1390
 5212SOL    HW320615   4.353   0.536   3.726  1.5263 -1.0616  1.4953
 5212SOL    MW420616   4.401   0.560   3.657 -0.2234 -0.0686  0.5382
 5213SOL     OW20617   4.272   2.513   0.244 -0.1092 -0.1348  0.4383
 5213SOL    HW220618   4.342   2.463   0.200 -0.3718 -1.0347  1.0190
 5213SOL    HW320619   4.202   2.450   0.256 -0.7339  0.5725  0.5577
 5213SOL    MW420620   4.272   2.498   0.240 -0.2262 -0.1602  0.5307
 5214SOL     OW20621   2.717   3.640   0.062 -0.0492  0.1750 -0.0565
 5214SOL    HW220622   2.625   3.616   0.053 -0.4099  1.5605 -0.2745
 5214SOL    HW320623   2.733   3.702  -0.008  1.4256 -1.0076 -0.8206
 5214SOL    MW420624   2.707   3.645   0.052  0.0978  0.2018 -0.1860
 5215SOL     OW20625   2.410   0.514   5.864  0.2051  0.0117 -0.0363
 5215SOL    HW220626   2.359   0.572   5.921 -2.0085 -0.3179 -1.5239
 5215SOL    HW320627   2.500   0.524   5.894 -0.3855  2.4853  1.2367
 5215SOL    MW420628   2.415   0.523   5.875 -0.1649  0.2946 -0.0646
 5216SOL     OW20629   0.122   2.810   0.331 -0.1779  0.4621  0.5038
 5216SOL    HW220630   0.171   2.758   0.395  0.0299 -0.0965 -0.0944
 5216SOL    HW320631   0.190   2.862   0.287  0.0100 -0.8975 -0.8727
 5216SOL    MW420632   0.138   2.810   0.334 -0.1257  0.2090  0.2433
 5217SOL     OW20633   4.629   3.111   1.281 -0.2406  0.5164 -0.0211
 5217SOL    HW220634   4.539   3.142   1.272 -0.2404  0.3848 -0.5043
 5217SOL    HW320635   4.681   3.191   1.291 -0.5207  0.5446  1.2744
 5217SOL    MW420636   4.624   3.126   1.281 -0.2775  0.5028  0.0861
 5218SOL     OW20637   1.600   6.075   2.997  0.1371  0.0252  0.5220
 5218SOL    HW220638   1.627   5.986   3.016  0.6614  0.4029  1.6752
 5218SOL    HW320639   1.525   6.066   2.939  0.3199 -1.1488  0.4446
 5218SOL    MW420640   1.594   6.062   2.992  0.2304 -0.0799  0.6639
 5219SOL     OW20641   1.953   5.028   0.652  0.1313  0.3636 -0.4524
 5219SOL    HW220642   1.968   4.939   0.684  1.6434  0.2659 -1.3050
 5219SOL    HW320643   2.010   5.083   0.707 -1.7862  1.0388  0.9727
 5219SOL    MW420644   1.963   5.024   0.664  0.0778  0.4398 -0.3768
 5220SOL     OW20645   3.644   4.490   0.039 -0.2979  0.2427  0.3900
 5220SOL    HW220646   3.600   4.431   0.100 -2.3896  2.2514  0.9640
 5220SOL    HW320647   3.720   4.521   0.087  0.9484 -2.0040  0.0162
 5220SOL    MW420648   3.648   4.486   0.053 -0.4095  0.2113  0.4164
 5221SOL     OW20649   4.038   4.958   3.834  0.2287  0.0712  0.2907
 5221SOL    HW220650   4.003   5.042   3.803  1.6387  1.0118  1.1321
 5221SOL    HW320651   4.070   4.915   3.755  0.5845  0.8687 -0.0140
 5221SOL    MW420652   4.037   4.963   3.820  0.4617  0.3005  0.3615
 5222SOL     OW20653   3.219   2.842   3.557  0.3183  0.0173 -0.2599
 5222SOL    HW220654   3.235   2.761   3.606 -0.4581  0.1836  0.2693
 5222SOL    HW320655   3.229   2.911   3.621  0.5730  0.3252 -0.6258
 5222SOL    MW420656   3.223   2.840   3.572  0.2495  0.0799 -0.2384
 5223SOL     OW20657   0.092   4.914   2.843 -0.5640 -0.3806  0.1039
 5223SOL    HW220658   0.082   4.881   2.753  0.6577 -0.6559  0.0546
 5223SOL    HW320659   0.002   4.922   2.875 -1.0745  0.7783 -1.5038
 5223SOL    MW420660   0.079   4.910   2.835 -0.4702 -0.2640 -0.1147
 5224SOL     OW20661   3.069   0.632   3.401  0.5265 -0.2791 -0.1883
 5224SOL    HW220662   3.073   0.595   3.313 -0.0975 -1.1738  0.1392
 5224SOL    HW320663   2.987   0.681   3.403  0.2176 -0.7940  0.0817
 5224SOL    MW420664   3.059   0.634   3.390  0.4034 -0.4651 -0.1094
 5225SOL     OW20665   5.515   0.829   1.920  0.1799  0.0262  0.6848
 5225SOL    HW220666   5.596   0.874   1.945  0.2132 -0.1294  0.8609
 5225SOL    HW320667   5.445   0.888   1.947  0.2513  0.5551 -0.2461
 5225SOL    MW420668   5.516   0.843   1.927  0.1937  0.0754  0.5852
 5226SOL     OW20669   6.120   3.039   1.035  0.1093  0.0109 -0.3460
 5226SOL    HW220670   6.031   3.028   1.070  0.5679  0.1711  0.9163
 5226SOL    HW320671   6.156   3.112   1.085  0.1256  1.6005 -2.5352
 5226SOL    MW420672   6.113   3.047   1.046  0.1720  0.2418 -0.4683
 5227SOL     OW20673   1.140   2.345   5.241  0.3742  0.2445  0.0372
 5227SOL    HW220674   1.125   2.370   5.332  1.4650 -0.6577  0.5017
 5227SOL    HW320675   1.150   2.427   5.194 -0.0832  0.7172  0.7545
 5227SOL    MW420676   1.140   2.359   5.246  0.4578  0.1878  0.1931
 5228SOL     OW20677   3.250   2.036   5.213 -0.6495  0.2710 -0.1568
 5228SOL    HW220678   3.337   2.073   5.198 -0.1906 -0.4080  0.6910
 5228SOL    HW320679   3.211   2.092   5.280 -1.4226  1.3878 -1.5047
 5228SOL    MW420680   3.256   2.048   5.220 -0.6909  0.3288 -0.2228
 5229SOL     OW20681   2.841   1.194   2.930  0.3641  0.1404  0.0131
 5229SOL    HW220682   2.865   1.287   2.930  0.9528 -0.0038  0.2403
 5229SOL    HW320683   2.911   1.152   2.980  1.7829 -0.8484 -2.6096
 5229SOL    MW420684   2.854   1.201   2.937  0.6289 -0.0091 -0.3030
 5230SOL     OW20685   1.197   2.746   1.924  0.5753  0.0971 -0.0121
 5230SOL    HW220686   1.275   2.710   1.880  1.4884  2.3659 -0.4116
 5230SOL    HW320687   1.130   2.748   1.856  0.6522 -0.3901 -0.1070
 5230SOL    MW420688   1.199   2.741   1.909  0.7059  0.3321 -0.0773
 5231SOL     OW20689   1.936   2.651   1.037  0.2268  0.0315 -0.5709
 5231SOL    HW220690   1.939   2.610   1.123  0.1736  1.4565  0.1299
 5231SOL    HW320691   2.026   2.646   1.005  0.0454 -1.4459 -0.9098
 5231SOL    MW420692   1.948   2.645   1.044  0.1959  0.0246 -0.5232
 5232SOL     OW20693   4.551   5.315   4.030  0.2082 -0.0583 -0.0071
 5232SOL    HW220694   4.561   5.267   3.948  0.3288  1.9588 -1.2652
 5232SOL    HW320695   4.595   5.261   4.095  2.4373 -0.5506 -1.7721
 5232SOL    MW420696   4.558   5.302   4.027  0.5182  0.1429 -0.4060
 5233SOL     OW20697   1.021   3.151   0.937 -0.4256  0.1425 -0.6408
 5233SOL    HW220698   1.101   3.196   0.963  0.2572 -0.2296 -2.0139
 5233SOL    HW320699   0.966   3.218   0.898 -0.1967  0.1380 -0.9708
 5233SOL    MW420700   1.024   3.166   0.935 -0.3054  0.0928 -0.8655
 5234SOL     OW20701   5.731   1.441   3.668 -0.1098  0.0293 -0.5473
 5234SOL    HW220702   5.790   1.416   3.596  0.8096 -2.6149  0.9762
 5234SOL    HW320703   5.644   1.418   3.637  0.0533  0.5990 -1.4683
 5234SOL    MW420704   5.728   1.435   3.654  0.0330 -0.2444 -0.4678
 5235SOL     OW20705   2.060   1.919  -0.006  0.1344 -0.3194  0.2675
 5235SOL    HW220706   2.140   1.880  -0.040  0.6034  0.8183  0.0216
 5235SOL    HW320707   2.001   1.845   0.008  0.7754 -1.0448 -0.7640
 5235SOL    MW420708   2.063   1.904  -0.009  0.2808 -0.2650  0.0990
 5236SOL     OW20709   4.091   3.478   6.309  0.1961 -0.3231  0.3118
 5236SOL    HW220710   4.130   3.534   6.377 -0.2309 -0.4086  0.6307
 5236SOL    HW320711   4.034   3.418   6.358 -0.1487 -0.3570 -0.1298
 5236SOL    MW420712   4.089   3.478   6.325  0.0942 -0.3388  0.2956
 5237SOL     OW20713   1.851   2.656   6.306  0.1954 -0.1792  0.0190
 5237SOL    HW220714   1.942   2.683   6.309 -0.0719  0.8926 -0.8712
 5237SOL    HW320715   1.833   2.622   6.394  1.4404 -0.4244  0.1979
 5237SOL    MW420716   1.860   2.655   6.318  0.3244 -0.0702 -0.0748
 5238SOL     OW20717   3.128   2.697   5.426 -0.4379  0.1076 -0.0885
 5238SOL    HW220718   3.136   2.610   5.464 -1.2577 -0.3023 -0.8355
 5238SOL    HW320719   3.219   2.726   5.414 -0.1043  0.4150  2.4740
 5238SOL    MW420720   3.141   2.690   5.430 -0.5020  0.0941  0.1510
 5239SOL     OW20721   6.119   0.667   0.921  0.3574  0.4034 -0.0540
 5239SOL    HW220722   6.060   0.709   0.858  0.1036 -0.9069 -0.7249
 5239SOL    HW320723   6.206   0.678   0.883  0.5393  1.9485  0.7176
 5239SOL    MW420724   6.123   0.674   0.908  0.3479  0.4344 -0.0407
 5240SOL     OW20725   4.654   3.058   4.618  0.1735  0.0771  0.6236
 5240SOL    HW220726   4.610   2.999   4.679 -1.5434  0.7175  0.0658
 5240SOL    HW320727   4.701   3.000   4.559  0.8943 -0.5963  1.8102
 5240SOL    MW420728   4.654   3.042   4.619  0.0421  0.0727  0.7066
 5241SOL     OW20729   5.054   4.017   4.801 -0.1291  0.6428 -0.1571
 5241SOL    HW220730   5.146   3.993   4.790 -0.8058 -2.6390  0.2414
 5241SOL    HW320731   5.017   4.010   4.713 -0.7161 -2.0097  0.2218
 5241SOL    MW420732   5.061   4.013   4.788 -0.2958 -0.1402 -0.0545
 5242SOL     OW20733   6.116   1.499   4.391 -0.3885  0.6693 -0.2022
 5242SOL    HW220734   6.095   1.568   4.328 -0.2106  0.8567 -0.0561
 5242SOL    HW320735   6.031   1.470   4.424 -0.4935  0.4363 -0.6698
 5242SOL    MW420736   6.102   1.505   4.387 -0.3789  0.6633 -0.2446
 5243SOL     OW20737   5.013   5.634   4.548 -0.5597 -0.2516  0.1786
 5243SOL    HW220738   5.065   5.555   4.565 -1.3625 -0.9514 -0.5220
 5243SOL    HW320739   5.070   5.706   4.574  1.4039 -0.8921 -1.9828
 5243SOL    MW420740   5.028   5.633   4.553 -0.4066 -0.4284 -0.1990
 5244SOL     OW20741   0.901   1.411   1.281  0.0355 -0.3668  0.2292
 5244SOL    HW220742   0.964   1.462   1.331 -0.6507  3.0086 -2.0015
 5244SOL    HW320743   0.947   1.387   1.201 -0.7167 -0.1156 -0.2921
 5244SOL    MW420744   0.915   1.415   1.277 -0.1543  0.1117 -0.1339
 5245SOL     OW20745   1.569   0.146   2.780 -0.1835  0.1540  0.3391
 5245SOL    HW220746   1.507   0.084   2.818 -1.0304 -0.2621 -1.6023
 5245SOL    HW320747   1.647   0.094   2.760 -0.0083  0.2270  0.8094
 5245SOL    MW420748   1.571   0.131   2.782 -0.2721  0.1088  0.1450
 5246SOL     OW20749   3.448   0.439   0.375 -0.9984 -0.1686 -0.9528
 5246SOL    HW220750   3.485   0.524   0.352 -1.6026 -0.0315 -1.4062
 5246SOL    HW320751   3.485   0.378   0.311 -2.4513  0.1638 -2.1429
 5246SOL    MW420752   3.458   0.442   0.364 -1.2698 -0.1067 -1.1696
 5247SOL     OW20753   0.920   1.798   6.048  0.0666  0.5123  0.5544
 5247SOL    HW220754   0.925   1.720   6.105 -1.1022  0.2067  0.2626
 5247SOL    HW320755   0.885   1.867   6.105 -0.0189  0.5088  0.5064
 5247SOL    MW420756   0.916   1.796   6.063 -0.0989  0.4715  0.5096
 5248SOL     OW20757   1.361   4.231   6.342 -0.6114  0.0608  0.0300
 5248SOL    HW220758   1.435   4.289   6.319 -1.1239  1.6313  2.0550
 5248SOL    HW320759   1.283   4.285   6.328 -1.1649 -0.4467  1.0650
 5248SOL    MW420760   1.361   4.246   6.337 -0.7520  0.2011  0.4337
 5249SOL     OW20761   4.997   2.115   4.552  0.4978 -0.0389  0.3667
 5249SOL    HW220762   5.007   2.063   4.631  0.3350 -1.6953 -0.6421
 5249SOL    HW320763   5.041   2.063   4.484  0.2794  1.1294 -0.6988
 5249SOL    MW420764   5.004   2.101   4.553  0.4475 -0.1033  0.0930
 5250SOL     OW20765   0.167   5.022   4.289 -0.2938  0.1942  0.2242
 5250SOL    HW220766   0.245   4.994   4.242 -0.7356 -0.6114 -0.0468
 5250SOL    HW320767   0.197   5.093   4.346  0.7576 -0.4859  0.5457
 5250SOL    MW420768   0.181   5.028   4.291 -0.2134 -0.0018  0.2309
 5251SOL     OW20769   4.285   1.833   5.989  0.3087  0.3232  0.0599
 5251SOL    HW220770   4.246   1.748   6.011  1.4143  0.2693  2.0016
 5251SOL    HW320771   4.366   1.811   5.943 -0.3705  0.3922 -1.2162
 5251SOL    MW420772   4.291   1.819   5.986  0.3649  0.3252  0.1477
 5252SOL     OW20773   1.594   4.121   2.684 -0.2168 -0.3600 -0.6353
 5252SOL    HW220774   1.529   4.138   2.616  0.1145  0.0625 -0.8522
 5252SOL    HW320775   1.639   4.042   2.656  0.2151  0.0585 -1.1370
 5252SOL    MW420776   1.592   4.113   2.671 -0.1161 -0.2490 -0.7301
 5253SOL     OW20777   1.291   6.078   5.931 -0.0943  0.2683  0.7079
 5253SOL    HW220778   1.296   6.116   5.843 -1.6948  0.6999  0.7710
 5253SOL    HW320779   1.371   6.107   5.974 -0.9423  3.1411  0.5620
 5253SOL    MW420780   1.303   6.087   5.925 -0.4174  0.7043  0.6970
 5254SOL     OW20781   0.446   4.008   2.755  0.6313  0.4558  0.2153
 5254SOL    HW220782   0.417   3.951   2.684  0.1855 -0.0706  0.8101
 5254SOL    HW320783   0.367   4.055   2.782  0.2593 -1.0123  1.8752
 5254SOL    MW420784   0.432   4.007   2.749  0.5234  0.1926  0.5128
 5255SOL     OW20785   2.238   4.152   1.689 -0.4335 -0.0088  0.1584
 5255SOL    HW220786   2.225   4.097   1.766 -0.0024 -1.4249 -0.7415
 5255SOL    HW320787   2.318   4.200   1.707  0.3473 -1.2399  0.1186
 5255SOL    MW420788   2.247   4.151   1.702 -0.2736 -0.3581  0.0344
 5256SOL     OW20789   5.809   2.214   3.833 -0.1617  0.6276 -0.4098
 5256SOL    HW220790   5.876   2.151   3.809  0.5380  0.5352  1.5870
 5256SOL    HW320791   5.852   2.299   3.826 -0.8922  0.8889 -2.4003
 5256SOL    MW420792   5.823   2.217   3.829 -0.1658  0.6499 -0.4090
 5257SOL     OW20793   1.121   1.750   0.948  0.0129 -0.4139  0.1729
 5257SOL    HW220794   1.129   1.749   0.853  2.3092  1.1972  0.2579
 5257SOL    HW320795   1.028   1.738   0.965 -0.3710 -1.2771 -2.2383
 5257SOL    MW420796   1.110   1.748   0.938  0.2652 -0.3152 -0.1340
 5258SOL     OW20797   2.024   3.067   0.048 -0.0399 -0.3047  0.0237
 5258SOL    HW220798   2.045   2.979   0.078 -0.6563 -0.4458  0.0487
 5258SOL    HW320799   1.929   3.072   0.053  0.0502  0.7911  1.2675
 5258SOL    MW420800   2.014   3.056   0.053 -0.1094 -0.1788  0.1911
 5259SOL     OW20801   4.644   4.918   4.959 -0.0279 -0.1278  0.4344
 5259SOL    HW220802   4.580   4.855   4.992  0.7481 -1.4003 -0.4126
 5259SOL    HW320803   4.614   4.940   4.871  0.8475 -0.9832 -0.0946
 5259SOL    MW420804   4.631   4.913   4.952  0.1900 -0.4086  0.2528
 5260SOL     OW20805   6.177   5.584   6.106 -0.3372  0.5196  0.1790
 5260SOL    HW220806   6.172   5.608   6.013  0.5380  0.5803  0.1379
 5260SOL    HW320807   6.099   5.622   6.145 -1.6863 -1.0131 -0.8584
 5260SOL    MW420808   6.166   5.592   6.099 -0.3997  0.3254  0.0367
 5261SOL     OW20809   3.854   1.381   3.030  0.3605  0.2485 -0.3034
 5261SOL    HW220810   3.906   1.301   3.017 -0.3942 -0.8348  2.6110
 5261SOL    HW320811   3.918   1.450   3.044  1.0045 -0.2170 -0.8801
 5261SOL    MW420812   3.869   1.379   3.030  0.3459  0.0441  0.0050
 5262SOL     OW20813   1.318   1.668   1.162  0.1166  0.3086  0.4095
 5262SOL    HW220814   1.252   1.635   1.223  0.5060 -0.0222  0.6586
 5262SOL    HW320815   1.269   1.689   1.083 -0.5711  1.7122  1.1520
 5262SOL    MW420816   1.303   1.667   1.160  0.0773  0.4502  0.5403
 5263SOL     OW20817   1.076   5.876   1.548 -0.5022  0.3718  0.6725
 5263SOL    HW220818   1.125   5.798   1.523 -0.4713  0.0817  1.6201
 5263SOL    HW320819   1.142   5.945   1.554 -0.4365  0.3288  0.4689
 5263SOL    MW420820   1.091   5.875   1.545 -0.4894  0.3279  0.7707
 5264SOL     OW20821   3.487   2.093   1.721 -0.1794 -0.6230  0.3950
 5264SOL    HW220822   3.541   2.170   1.698 -2.7310  1.0479 -0.4492
 5264SOL    HW320823   3.508   2.029   1.654 -0.8695  0.8746 -1.3558
 5264SOL    MW420824   3.497   2.095   1.709 -0.6071 -0.2050  0.0526
 5265SOL     OW20825   4.081   6.043   0.592 -0.2859  0.3933 -0.0359
 5265SOL    HW220826   4.171   6.063   0.565 -0.1172  0.0764  0.2841
 5265SOL    HW320827   4.053   6.120   0.641 -0.2993  0.6204 -0.3929
 5265SOL    MW420828   4.089   6.055   0.595 -0.2654  0.3815 -0.0407
 5266SOL     OW20829   1.352   2.141   5.971  0.7084  0.0925 -0.1504
 5266SOL    HW220830   1.401   2.126   6.051 -0.1348  0.6198  0.4758
 5266SOL    HW320831   1.368   2.232   5.949 -0.0374  0.2876  0.0974
 5266SOL    MW420832   1.361   2.151   5.978  0.4987  0.1878 -0.0351
 5267SOL     OW20833   5.992   2.914   4.533 -0.0298 -0.0976 -0.3915
 5267SOL    HW220834   6.050   2.970   4.585 -0.9900  1.2870 -0.7344
 5267SOL    HW320835   5.920   2.894   4.591 -0.7070  0.7825 -0.8918
 5267SOL    MW420836   5.990   2.919   4.547 -0.2458  0.2012 -0.5027
 5268SOL     OW20837   1.547   6.186   3.304 -0.1647 -0.0987 -0.2212
 5268SOL    HW220838   1.626   6.240   3.310 -0.8283  0.7715  1.8160
 5268SOL    HW320839   1.551   6.146   3.217  2.1736  0.4159 -0.4134
 5268SOL    MW420840   1.558   6.188   3.293  0.0563  0.0840  0.0222
 5269SOL     OW20841   0.774   5.668   1.006 -0.1487  0.2201 -0.3815
 5269SOL    HW220842   0.815   5.586   1.032 -0.4243 -0.1754 -1.1434
 5269SOL    HW320843   0.733   5.648   0.922 -2.2813  0.4734  0.5448
 5269SOL    MW420844   0.774   5.655   0.998 -0.4664  0.2013 -0.3598
 5270SOL     OW20845   3.267   3.511   5.669  0.4090  0.7557  0.2965
 5270SOL    HW220846   3.266   3.607   5.663  0.6640  0.7217 -0.5260
 5270SOL    HW320847   3.261   3.482   5.578 -2.0584 -0.0467  0.6554
 5270SOL    MW420848   3.266   3.520   5.656  0.1171  0.6454  0.2353
 5271SOL     OW20849   1.230   3.016   0.065 -0.2317 -0.1164  0.0814
 5271SOL    HW220850   1.174   2.998  -0.011  0.2351  0.9544 -0.5418
 5271SOL    HW320851   1.211   3.107   0.087 -0.6482 -0.5354  1.5168
 5271SOL    MW420852   1.220   3.025   0.058 -0.2251 -0.0304  0.1886
 5272SOL     OW20853   1.599   0.974   5.624 -0.2856 -0.0708  0.7320
 5272SOL    HW220854   1.547   1.029   5.682  0.5986 -0.4203  1.8821
 5272SOL    HW320855   1.690   0.998   5.643  0.0342  1.0749 -1.7666
 5272SOL    MW420856   1.604   0.985   5.634 -0.1268  0.0343  0.5541
 5273SOL     OW20857   1.506   1.927   1.874 -0.4497  0.2360 -0.3090
 5273SOL    HW220858   1.461   1.976   1.944 -0.5084  1.0828 -0.9212
 5273SOL    HW320859   1.492   1.835   1.896  1.6807  0.4097  2.1891
 5273SOL    MW420860   1.498   1.922   1.886 -0.1763  0.3706 -0.0602
 5274SOL     OW20861   1.999   2.066   3.445 -0.2682 -0.5977  1.0839
 5274SOL    HW220862   2.015   2.117   3.366 -0.5709  0.8092  1.9065
 5274SOL    HW320863   2.085   2.057   3.486 -0.3340 -0.0819  1.3338
 5274SOL    MW420864   2.012   2.071   3.440 -0.3168 -0.3440  1.2254
 5275SOL     OW20865   2.084   4.292   5.443  0.1033 -0.1161 -0.6796
 5275SOL    HW220866   2.163   4.290   5.389  0.9749 -1.6340  0.5825
 5275SOL    HW320867   2.108   4.247   5.524 -1.5587  0.9224  0.4591
 5275SOL    MW420868   2.097   4.286   5.446 -0.0010 -0.1793 -0.3629
 5276SOL     OW20869   6.149   3.889   0.207 -0.4070  0.1518 -0.1556
 5276SOL    HW220870   6.083   3.825   0.180 -0.7276 -0.0695  1.1195
 5276SOL    HW320871   6.121   3.971   0.166 -2.3972  0.4310  1.6070
 5276SOL    MW420872   6.137   3.891   0.198 -0.7119  0.1595  0.2452
 5277SOL     OW20873   6.344   2.920   1.087  0.0905  0.0393 -0.2395
 5277SOL    HW220874   6.322   2.827   1.098 -1.1022  0.3041 -0.2466
 5277SOL    HW320875   6.260   2.962   1.067  0.7992  0.9202 -1.5620
 5277SOL    MW420876   6.330   2.913   1.086  0.0266  0.1905 -0.4149
 5278SOL     OW20877   6.284   5.501   4.547 -0.4282 -0.2777  0.6851
 5278SOL    HW220878   6.354   5.510   4.612 -0.4466 -1.8539  0.9492
 5278SOL    HW320879   6.320   5.541   4.467  0.0900  0.4974  1.2965
 5278SOL    MW420880   6.298   5.507   4.545 -0.3623 -0.3834  0.8006
 5279SOL     OW20881   2.154   3.144   1.894  0.3145 -0.5585 -0.7086
 5279SOL    HW220882   2.183   3.064   1.937  1.0671 -0.7848 -1.6022
 5279SOL    HW320883   2.206   3.149   1.814 -1.5683 -0.5863 -2.0254
 5279SOL    MW420884   2.164   3.134   1.889  0.1654 -0.5920 -1.0003
 5280SOL     OW20885   3.722   0.136   6.065 -0.4899  0.3449 -0.1751
 5280SOL    HW220886   3.684   0.145   5.978 -0.4931 -2.2846 -0.5125
 5280SOL    HW320887   3.725   0.042   6.081  0.8126  0.6926  2.1092
 5280SOL    MW420888   3.717   0.125   6.056 -0.3184  0.0438  0.0818
 5281SOL     OW20889   1.416   0.915   3.140  0.3786  0.3212  0.2763
 5281SOL    HW220890   1.355   0.973   3.094 -0.5023 -0.2040  0.7470
 5281SOL    HW320891   1.418   0.835   3.088 -0.9299 -0.4263  1.3046
 5281SOL    MW420892   1.408   0.912   3.127  0.0897  0.1533  0.4741
 5282SOL     OW20893   1.366   0.609   2.269  0.0827 -0.6834 -0.5337
 5282SOL    HW220894   1.460   0.618   2.251 -0.0455  0.6603 -0.6610
 5282SOL    HW320895   1.323   0.642   2.190 -0.4883 -0.2195 -0.0379
 5282SOL    MW420896   1.373   0.614   2.256 -0.0096 -0.4449 -0.4851
 5283SOL     OW20897   0.184   1.511   5.981  0.7350  0.1212  0.7657
 5283SOL    HW220898   0.243   1.504   5.906  0.5202  1.0879  0.4994
 5283SOL    HW320899   0.100   1.477   5.949  1.3055 -2.0677  1.3891
 5283SOL    MW420900   0.181   1.505   5.967  0.7819 -0.0401  0.8128
 5284SOL     OW20901   1.064   5.128   1.924 -0.4535  0.0503  0.0562
 5284SOL    HW220902   1.143   5.126   1.871 -0.3211  1.1409  0.1790
 5284SOL    HW320903   0.999   5.172   1.869 -1.2996 -1.7187 -0.4294
 5284SOL    MW420904   1.066   5.134   1.910 -0.5477 -0.0392  0.0083
 5285SOL     OW20905   6.334   4.563   2.624 -0.2938  0.0075  0.3718
 5285SOL    HW220906   6.274   4.526   2.559  0.0241  3.3462 -2.0461
 5285SOL    HW320907   6.410   4.503   2.623 -0.7775 -0.6380 -1.5073
 5285SOL    MW420908   6.336   4.550   2.615 -0.3157  0.3628 -0.1952
 5286SOL     OW20909   3.442   4.357   5.731  0.0766 -0.0233  0.0150
 5286SOL    HW220910   3.360   4.371   5.684  0.4684  2.2503 -0.1125
 5286SOL    HW320911   3.498   4.312   5.668 -0.7122 -0.6366 -0.2623
 5286SOL    MW420912   3.439   4.353   5.717  0.0243  0.1957 -0.0384
 5287SOL     OW20913   2.939   4.972   1.246  0.2061  0.3026  0.0367
 5287SOL    HW220914   2.896   5.055   1.225  1.4512  0.8098 -0.6217
 5287SOL    HW320915   2.927   4.963   1.341 -2.2656 -0.1493 -0.2429
 5287SOL    MW420916   2.932   4.982   1.256  0.0442  0.3099 -0.0871
 5288SOL     OW20917   2.860   3.234   4.877  0.7759  0.2137 -0.2752
 5288SOL    HW220918   2.766   3.216   4.879  0.7130  0.5546  0.2678
 5288SOL    HW320919   2.871   3.308   4.937  1.8673 -2.0682  2.5988
 5288SOL    MW420920   2.849   3.241   4.885  0.9116 -0.0424  0.1756
 5289SOL     OW20921   6.006   3.923   3.088  0.2740  0.2059  0.0303
 5289SOL    HW220922   6.004   3.883   3.174  0.9798  0.5723  0.2256
 5289SOL    HW320923   6.090   3.897   3.051  0.6309  1.2506  0.0570
 5289SOL    MW420924   6.017   3.915   3.094  0.4142  0.3920  0.0596
 5290SOL     OW20925   4.859   0.105   5.875  0.0649 -0.1270  0.3843
 5290SOL    HW220926   4.832   0.039   5.940 -2.2429 -0.1369 -0.4726
 5290SOL    HW320927   4.784   0.164   5.869  0.1924 -0.1118 -2.2172
 5290SOL    MW420928   4.845   0.104   5.883 -0.2228 -0.1263 -0.0720
 5291SOL     OW20929   0.717   3.468   5.829  0.3235 -0.1166 -0.0191
 5291SOL    HW220930   0.734   3.374   5.828 -2.6188 -0.7290 -1.1191
 5291SOL    HW320931   0.784   3.505   5.771  0.5496 -1.7183 -0.8296
 5291SOL    MW420932   0.728   3.461   5.822 -0.0349 -0.4087 -0.2712
 5292SOL     OW20933   5.679   5.234   5.451 -0.3821 -0.2527  0.3796
 5292SOL    HW220934   5.684   5.314   5.502 -0.4254 -0.1978  0.2984
 5292SOL    HW320935   5.767   5.223   5.414 -0.3588 -0.2771  0.4417
 5292SOL    MW420936   5.691   5.243   5.453 -0.3848 -0.2487  0.3771
 5293SOL     OW20937   6.144   3.887   2.103  0.2654  0.2730 -0.1102
 5293SOL    HW220938   6.076   3.946   2.071 -0.0859  0.1142  0.3212
 5293SOL    HW320939   6.104   3.844   2.179 -0.1109 -1.7204 -1.3529
 5293SOL    MW420940   6.129   3.889   2.109  0.1694 -0.0109 -0.2173
 5294SOL     OW20941   4.387   4.539   4.825  0.0213 -0.3627  0.3923
 5294SOL    HW220942   4.348   4.455   4.850  1.5055 -1.4974 -0.8951
 5294SOL    HW320943   4.457   4.516   4.764  0.1285  1.8655 -0.4300
 5294SOL    MW420944   4.391   4.525   4.820  0.2313 -0.2184  0.1139
 5295SOL     OW20945   6.173   4.753   4.965  0.3330 -0.0532  0.0068
 5295SOL    HW220946   6.136   4.765   5.052 -0.5830  0.1697 -0.3911
 5295SOL    HW320947   6.257   4.710   4.979  1.3831  2.2117  1.1620
 5295SOL    MW420948   6.179   4.749   4.978  0.3507  0.2750  0.1067
 5296SOL     OW20949   5.999   1.852   5.649 -0.3257 -0.2862 -0.1608
 5296SOL    HW220950   6.039   1.815   5.728 -0.0352  1.9347  0.7994
 5296SOL    HW320951   6.071   1.899   5.606 -0.6142 -1.0135 -1.4958
 5296SOL    MW420952   6.014   1.853   5.654 -0.3254 -0.0891 -0.2102
 5297SOL     OW20953   4.658   2.251   4.641  0.4182 -0.3565  0.0020
 5297SOL    HW220954   4.615   2.265   4.557  0.8151 -1.2483 -0.3576
 5297SOL    HW320955   4.739   2.302   4.635  0.5074 -0.5231 -0.2082
 5297SOL    MW420956   4.663   2.260   4.629  0.4824 -0.4961 -0.0732
 5298SOL     OW20957   5.269   1.962   0.039 -0.3659  0.5984 -0.4560
 5298SOL    HW220958   5.189   1.974  -0.013 -1.2075 -0.5494  0.5406
 5298SOL    HW320959   5.318   1.894  -0.007 -0.8569 -0.0312 -0.0633
 5298SOL    MW420960   5.265   1.955   0.026 -0.5417  0.3639 -0.2727
 5299SOL     OW20961   4.964   4.760   2.088 -0.3298  1.2367  0.3272
 5299SOL    HW220962   4.918   4.721   2.162 -1.0279 -0.3553 -0.8881
 5299SOL    HW320963   5.044   4.709   2.080  0.9020  2.8966  1.3621
 5299SOL    MW420964   4.968   4.748   2.097 -0.2594  1.2457  0.3034
 5300SOL     OW20965   6.324   3.795   5.833 -0.6809 -0.2609  0.5064
 5300SOL    HW220966   6.248   3.799   5.891 -1.1269 -1.7506  0.0913
 5300SOL    HW320967   6.307   3.718   5.777  0.8873 -0.3260  0.0675
 5300SOL    MW420968   6.312   3.785   5.833 -0.5328 -0.4660  0.3938
 5301SOL     OW20969   2.848   5.949   4.148 -0.0267  0.6139  0.2808
 5301SOL    HW220970   2.851   6.018   4.082 -0.8339 -0.1036 -0.5300
 5301SOL    HW320971   2.835   5.996   4.231 -0.4734  1.4331 -0.2394
 5301SOL    MW420972   2.847   5.965   4.150 -0.1922  0.6273  0.1052
 5302SOL     OW20973   1.978   1.523   0.385  0.2051  0.3792  0.2806
 5302SOL    HW220974   2.021   1.578   0.451  0.4028  0.8891 -0.2610
 5302SOL    HW320975   1.954   1.584   0.315  0.9601 -0.3035 -0.6010
 5302SOL    MW420976   1.981   1.539   0.384  0.3308  0.3564  0.0929
 5303SOL     OW20977   2.325   5.510   1.452 -0.4205  0.2832 -0.4432
 5303SOL    HW220978   2.373   5.446   1.506 -2.4178  0.7099  2.0519
 5303SOL    HW320979   2.369   5.593   1.470 -0.1058  0.1824 -0.7414
 5303SOL    MW420980   2.337   5.512   1.462 -0.6425  0.3262 -0.1533
 5304SOL     OW20981   4.530   1.660   0.159  0.1991 -0.1475  0.0637
 5304SOL    HW220982   4.612   1.682   0.203  0.6633  0.1735 -0.9284
 5304SOL    HW320983   4.464   1.660   0.228  0.8129  0.8810  0.6617
 5304SOL    MW420984   4.532   1.663   0.174  0.3413  0.0306  0.0117
 5305SOL     OW20985   1.387   4.997   4.444 -0.0720  0.1861 -0.0072
 5305SOL    HW220986   1.310   5.024   4.394  1.0887  0.0620 -1.9838
 5305SOL    HW320987   1.459   5.045   4.403  0.8737  0.6451  2.0785
 5305SOL    MW420988   1.386   5.007   4.432  0.2059  0.2303  0.0072
 5306SOL     OW20989   3.021   0.469   0.036 -0.0335  0.4938  0.0724
 5306SOL    HW220990   2.937   0.427   0.057  0.7345 -0.6711  1.0193
 5306SOL    HW320991   3.081   0.435   0.103  1.2199  1.1995 -0.6615
 5306SOL    MW420992   3.018   0.459   0.048  0.2332  0.4332  0.1005
 5307SOL     OW20993   1.398   5.656   3.914  0.0361 -0.3509 -0.7168
 5307SOL    HW220994   1.471   5.634   3.972 -1.5862  0.5397  1.8342
 5307SOL    HW320995   1.327   5.599   3.943 -1.2785  1.1990 -0.7494
 5307SOL    MW420996   1.398   5.646   3.925 -0.3514 -0.0289 -0.3845
 5308SOL     OW20997   6.356   0.330   2.948 -0.3429 -0.1218  0.6828
 5308SOL    HW220998   6.283   0.376   2.988 -0.7123  0.4522 -0.6092
 5308SOL    HW320999   6.326   0.240   2.939 -1.3004  0.3138 -0.7479
 5308SOL    MW421000   6.342   0.324   2.952 -0.5180  0.0114  0.3236
 5309SOL     OW21001   4.518   4.260   0.891  0.6631 -0.2644  0.0852
 5309SOL    HW221002   4.436   4.307   0.880  0.5085 -0.3200  0.9442
 5309SOL    HW321003   4.578   4.324   0.929  1.0039 -0.2389 -0.4892
 5309SOL    MW421004   4.516   4.275   0.895  0.6877 -0.2684  0.1228
 5310SOL     OW21005   3.706   5.436   2.806  0.0788  0.3255  0.5890
 5310SOL    HW221006   3.767   5.417   2.734  0.2811  1.4482  0.4565
 5310SOL    HW321007   3.624   5.459   2.763  0.2921  1.3232  0.6931
 5310SOL    MW421008   3.704   5.436   2.791  0.1336  0.6053  0.5852
 5311SOL     OW21009   1.409   3.900   1.777 -0.0579 -0.4904 -0.2990
 5311SOL    HW221010   1.418   3.902   1.872 -1.9749 -0.1505 -0.0809
 5311SOL    HW321011   1.489   3.940   1.744  0.6279 -0.5968  1.1635
 5311SOL    MW421012   1.421   3.905   1.785 -0.2203 -0.4596 -0.0773
 5312SOL     OW21013   0.695   4.788   4.139  0.4449  0.2307 -0.4112
 5312SOL    HW221014   0.732   4.808   4.053  1.8974 -1.5677 -0.2592
 5312SOL    HW321015   0.641   4.711   4.124 -1.8830  1.7231 -0.2538
 5312SOL    MW421016   0.692   4.781   4.125  0.3294  0.1903 -0.3704
 5313SOL     OW21017   4.758   4.928   3.120 -0.4102 -0.2323 -0.0193
 5313SOL    HW221018   4.819   4.912   3.192 -2.7548 -1.2482  1.9357
 5313SOL    HW321019   4.744   5.022   3.120  1.0805  0.0128 -0.4975
 5313SOL    MW421020   4.764   4.938   3.130 -0.5228 -0.3340  0.1756
 5314SOL     OW21021   5.075   3.706   5.203  0.1075 -0.2681  0.0510
 5314SOL    HW221022   5.123   3.700   5.120 -1.6196  0.8959 -1.0896
 5314SOL    HW321023   5.063   3.615   5.230  1.5531 -0.6378 -0.4246
 5314SOL    MW421024   5.080   3.693   5.195  0.0703 -0.1633 -0.1622
 5315SOL     OW21025   1.746   2.974   2.666  0.3665  0.2363 -0.3908
 5315SOL    HW221026   1.772   2.896   2.716  0.1640  0.4098 -0.0143
 5315SOL    HW321027   1.751   3.045   2.730  0.5300  0.5303 -0.7308
 5315SOL    MW421028   1.750   2.973   2.681  0.3614  0.2980 -0.3860
 5316SOL     OW21029   6.123   1.621   0.600  0.7147  0.4508  0.8796
 5316SOL    HW221030   6.141   1.708   0.565 -0.1120  0.7117  1.0828
 5316SOL    HW321031   6.197   1.603   0.659  2.5830 -0.3532 -1.5362
 5316SOL    MW421032   6.135   1.630   0.603  0.8521  0.3791  0.5876
 5317SOL     OW21033   6.266   2.365   1.301  0.4222  0.5946  0.0720
 5317SOL    HW221034   6.181   2.337   1.269  0.7983  1.4899 -1.8217
 5317SOL    HW321035   6.252   2.455   1.332  0.7486  0.9054 -0.6549
 5317SOL    MW421036   6.253   2.373   1.301  0.5149  0.7537 -0.2738
 5318SOL     OW21037   1.539   2.649   3.051 -0.0720 -0.8296 -0.5335
 5318SOL    HW221038   1.494   2.568   3.075 -1.7488  0.5579  1.3693
 5318SOL    HW321039   1.606   2.660   3.119  0.7584 -1.0542 -1.3042
 5318SOL    MW421040   1.542   2.640   3.063 -0.1837 -0.6762 -0.3842
 5319SOL     OW21041   4.652   1.100   1.095 -0.4109  0.0628 -0.5131
 5319SOL    HW221042   4.588   1.133   1.032 -0.9894 -1.0010 -0.5033
 5319SOL    HW321043   4.726   1.070   1.041  0.6712  2.3765 -0.4736
 5319SOL    MW421044   4.654   1.101   1.079 -0.3445  0.2277 -0.5066
 5320SOL     OW21045   0.115   5.113   3.883 -0.0958 -0.1008  0.6128
 5320SOL    HW221046   0.085   5.034   3.928 -1.5158  0.7324  1.2211
 5320SOL    HW321047   0.104   5.093   3.790  0.2319 -0.8613  0.7284
 5320SOL    MW421048   0.109   5.100   3.877 -0.2399 -0.0912  0.7083
 5321SOL     OW21049   5.658   0.122   0.623  0.1776  0.3306 -0.4916
 5321SOL    HW221050   5.742   0.161   0.600  1.2030 -0.4468  1.6537
 5321SOL    HW321051   5.660   0.116   0.718 -0.4449 -3.6204 -0.5487
 5321SOL    MW421052   5.669   0.126   0.632  0.2308 -0.2932 -0.2161
 5322SOL     OW21053   2.522   1.243   5.944  0.1830  0.1618  0.0608
 5322SOL    HW221054   2.520   1.240   6.040 -0.1151 -0.2455  0.0472
 5322SOL    HW321055   2.438   1.283   5.920  1.2045  2.3913  0.0234
 5322SOL    MW421056   2.510   1.248   5.954  0.2784  0.4022  0.0541
 5323SOL     OW21057   2.796   0.908   1.478 -0.4728 -0.2759  0.0712
 5323SOL    HW221058   2.868   0.962   1.446 -2.2272  1.1146 -1.8454
 5323SOL    HW321059   2.804   0.826   1.429 -0.6858  0.2317 -0.8387
 5323SOL    MW421060   2.806   0.904   1.467 -0.7324 -0.0255 -0.3017
 5324SOL     OW21061   5.398   2.087   5.367 -0.1926 -0.2972  0.1249
 5324SOL    HW221062   5.352   2.009   5.397 -0.5451 -0.0356  0.2611
 5324SOL    HW321063   5.332   2.156   5.369 -0.5203 -0.4736 -2.2199
 5324SOL    MW421064   5.383   2.085   5.371 -0.2823 -0.2859 -0.1665
 5325SOL     OW21065   4.885   4.868   6.142  0.2530 -0.0488  0.5277
 5325SOL    HW221066   4.863   4.856   6.234  0.5150 -0.7193  0.5077
 5325SOL    HW321067   4.943   4.795   6.121  0.5830  0.3642 -0.0447
 5325SOL    MW421068   4.890   4.857   6.151  0.3311 -0.0828  0.4495
 5326SOL     OW21069   5.735   1.553   0.312  0.4630 -0.0760 -0.4634
 5326SOL    HW221070   5.692   1.555   0.398 -1.2901  2.1018 -1.3131
 5326SOL    HW321071   5.765   1.463   0.303 -2.8349 -1.4441  0.7583
 5326SOL    MW421072   5.733   1.541   0.322 -0.2034  0.0308 -0.4143
 5327SOL     OW21073   1.128   5.009   3.532 -0.1849  0.6555  0.0080
 5327SOL    HW221074   1.070   5.005   3.456  0.6258  0.7924 -0.6335
 5327SOL    HW321075   1.160   4.920   3.543 -0.6399  0.5468  0.4612
 5327SOL    MW421076   1.125   4.997   3.523 -0.1380  0.6592 -0.0169
 5328SOL     OW21077   4.914   3.477   5.903 -0.1963  0.2398 -0.4134
 5328SOL    HW221078   4.836   3.515   5.944 -0.6828 -2.3533  1.3074
 5328SOL    HW321079   4.886   3.451   5.816 -2.0162 -2.4843  0.8442
 5328SOL    MW421080   4.900   3.479   5.897 -0.5006 -0.4618 -0.0204
 5329SOL     OW21081   3.018   4.953   1.923 -0.3230 -0.1645  0.0894
 5329SOL    HW221082   3.078   4.886   1.890 -3.4731 -2.5812 -1.3681
 5329SOL    HW321083   3.071   5.032   1.932  2.8895 -1.9561 -1.5000
 5329SOL    MW421084   3.033   4.954   1.920 -0.3147 -0.7198 -0.3126
 5330SOL     OW21085   2.394   4.798   3.949  0.0726  0.8889 -0.4972
 5330SOL    HW221086   2.299   4.809   3.950  0.1480  2.2280 -2.1318
 5330SOL    HW321087   2.419   4.789   4.041 -1.7485 -0.9934 -0.1199
 5330SOL    MW421088   2.385   4.798   3.961 -0.1577  0.8172 -0.6631
 5331SOL     OW21089   2.039   6.344   2.122 -0.1229 -0.9867 -0.6161
 5331SOL    HW221090   2.038   6.272   2.185  0.9723 -2.5330 -2.2651
 5331SOL    HW321091   2.127   6.381   2.128  0.0229 -1.2034 -1.2630
 5331SOL    MW421092   2.051   6.339   2.131  0.0408 -1.2193 -0.9190
 5332SOL     OW21093   5.762   3.697   2.516  0.4377  0.7572  0.6397
 5332SOL    HW221094   5.714   3.739   2.587 -2.5115 -1.0813 -0.0622
 5332SOL    HW321095   5.812   3.628   2.559  2.4650  2.5793  1.3671
 5332SOL    MW421096   5.762   3.693   2.531  0.3161  0.7551  0.6431
 5333SOL     OW21097   4.790   1.738   3.332 -0.0377 -0.4955  0.2611
 5333SOL    HW221098   4.739   1.711   3.256 -2.1262  0.5961  1.1992
 5333SOL    HW321099   4.824   1.656   3.368 -1.6245 -1.3374 -0.0797
 5333SOL    MW421100   4.788   1.723   3.327 -0.5226 -0.4625  0.3399
 5334SOL     OW21101   5.434   1.564   4.604 -0.3596  0.3182 -0.1137
 5334SOL    HW221102   5.491   1.503   4.558  0.0592  0.5449  0.1010
 5334SOL    HW321103   5.480   1.583   4.686 -0.0838  1.5543 -0.5383
 5334SOL    MW421104   5.447   1.559   4.609 -0.2679  0.5112 -0.1414
 5335SOL     OW21105   4.552   0.424   0.906  0.5487  0.0811 -0.1937
 5335SOL    HW221106   4.573   0.331   0.920  0.0490  0.0934  0.6505
 5335SOL    HW321107   4.469   0.422   0.859 -0.9475  0.1036  2.2918
 5335SOL    MW421108   4.544   0.411   0.901  0.2854  0.0857  0.2456
 5336SOL     OW21109   5.584   3.457   5.612 -0.0237 -0.4259  0.2473
 5336SOL    HW221110   5.551   3.400   5.543  0.1185  0.2504 -0.3923
 5336SOL    HW321111   5.598   3.542   5.569  1.3619 -0.3587  0.7778
 5336SOL    MW421112   5.582   3.461   5.597  0.1779 -0.3278  0.2329
 5337SOL     OW21113   4.581   2.907   5.907 -0.3091 -0.6603  0.0391
 5337SOL    HW221114   4.630   2.828   5.884  0.1621 -0.7087  1.1638
 5337SOL    HW321115   4.516   2.877   5.971  1.3252  0.1874  2.2249
 5337SOL    MW421116   4.579   2.893   5.912 -0.0313 -0.5549  0.4759
 5338SOL     OW21117   5.994   3.544   2.892  0.6069 -0.4311 -0.6633
 5338SOL    HW221118   5.922   3.599   2.925 -1.8245 -2.0412 -2.8921
 5338SOL    HW321119   6.047   3.526   2.970 -1.4665  0.7666  1.1578
 5338SOL    MW421120   5.991   3.549   2.907  0.0125 -0.4855 -0.7171
 5339SOL     OW21121   5.857   1.936   0.919 -0.7032 -0.3457 -0.0129
 5339SOL    HW221122   5.804   1.925   0.998 -0.2796 -0.2817  0.2839
 5339SOL    HW321123   5.806   1.994   0.863 -0.5322  0.4843  0.6663
 5339SOL    MW421124   5.844   1.942   0.922 -0.6247 -0.2277  0.1159
 5340SOL     OW21125   2.410   1.097   5.515  0.7240 -0.2944 -0.1452
 5340SOL    HW221126   2.362   1.037   5.458  2.4042 -1.9772  0.0982
 5340SOL    HW321127   2.498   1.060   5.519  1.8909  2.2974 -0.0682
 5340SOL    MW421128   2.415   1.084   5.508  1.0997 -0.1745 -0.1029
 5341SOL     OW21129   1.188   4.235   3.892  0.0426 -0.0688 -0.0638
 5341SOL    HW221130   1.183   4.142   3.868 -0.9386  0.4991 -2.2557
 5341SOL    HW321131   1.151   4.239   3.980  0.1769 -1.7463  0.1078
 5341SOL    MW421132   1.183   4.223   3.901 -0.0692 -0.2152 -0.3304
 5342SOL     OW21133   3.018   4.114   3.512  0.6094  0.0264  0.5367
 5342SOL    HW221134   3.110   4.136   3.498  0.1522  2.0083  0.4574
 5342SOL    HW321135   2.969   4.171   3.452 -0.7102 -0.7445  0.8198
 5342SOL    MW421136   3.023   4.124   3.502  0.3750  0.1862  0.5636
 5343SOL     OW21137   3.588   1.086   3.003  0.5140 -0.1803  0.5180
 5343SOL    HW221138   3.585   1.124   3.091 -0.9449  0.6375  0.1515
 5343SOL    HW321139   3.666   1.030   3.003 -0.1609 -1.2096  2.7397
 5343SOL    MW421140   3.598   1.084   3.015  0.2325 -0.2082  0.7628
 5344SOL     OW21141   5.797   2.731   4.054 -0.9584 -0.3701  0.3552
 5344SOL    HW221142   5.784   2.823   4.076 -0.5480  0.1036 -1.2842
 5344SOL    HW321143   5.888   2.713   4.077 -1.1243 -0.4698  0.9614
 5344SOL    MW421144   5.807   2.741   4.060 -0.9262 -0.3208  0.2189
 5345SOL     OW21145   1.897   3.636   3.942  0.4252 -0.0649  0.1196
 5345SOL    HW221146   1.896   3.732   3.947 -0.3327 -0.1091  1.2210
 5345SOL    HW321147   1.882   3.607   4.032  0.7503 -1.2244 -0.1816
 5345SOL    MW421148   1.895   3.645   3.955  0.3681 -0.2237  0.2252
 5346SOL     OW21149  -0.010   5.467   0.055  0.4498 -0.6456 -0.0374
 5346SOL    HW221150  -0.099   5.453   0.087 -0.3426 -0.4353 -2.0387
 5346SOL    HW321151   0.039   5.494   0.133 -1.2318 -0.7164  1.1003
 5346SOL    MW421152  -0.015   5.469   0.070  0.1234 -0.6272 -0.1514
 5347SOL     OW21153   2.865   6.310   0.016  0.0070 -0.3280 -0.4210
 5347SOL    HW221154   2.862   6.294  -0.079  0.6688  0.3634 -0.5629
 5347SOL    HW321155   2.801   6.379   0.031  2.0848  1.8303 -0.8621
 5347SOL    MW421156   2.856   6.317   0.005  0.3685  0.0480 -0.4979
 5348SOL     OW21157   4.947   2.951   3.280  0.9589 -0.0712 -0.0213
 5348SOL    HW221158   4.959   3.041   3.252 -0.6129 -0.1765 -1.2134
 5348SOL    HW321159   5.034   2.920   3.302  1.6618  1.4160 -0.5981
 5348SOL    MW421160   4.960   2.959   3.280  0.8442  0.1111 -0.2547
 5349SOL     OW21161   0.410   3.794   5.952  0.0459 -0.4893 -0.2597
 5349SOL    HW221162   0.328   3.822   5.912 -0.2074 -2.6267 -1.4037
 5349SOL    HW321163   0.477   3.848   5.911 -0.6051 -0.0017 -0.7019
 5349SOL    MW421164   0.408   3.805   5.941 -0.0734 -0.7070 -0.4690
 5350SOL     OW21165   5.639   2.834   1.867 -0.4622 -0.3136  0.2977
 5350SOL    HW221166   5.639   2.800   1.957 -0.2131 -1.8935 -0.2729
 5350SOL    HW321167   5.552   2.814   1.834  0.2512 -2.0758 -0.6245
 5350SOL    MW421168   5.627   2.827   1.875 -0.3352 -0.7546  0.1007
 5351SOL     OW21169   4.037   3.600   6.056  0.1974  0.3615 -0.1380
 5351SOL    HW221170   4.121   3.607   6.011  0.1795 -1.7357 -0.6273
 5351SOL    HW321171   4.058   3.554   6.138 -0.4748 -0.2532 -0.3040
 5351SOL    MW421172   4.051   3.595   6.061  0.1064  0.0037 -0.2244
 5352SOL     OW21173   2.341   3.676   6.026 -0.1434 -0.4976  0.1897
 5352SOL    HW221174   2.371   3.744   6.086 -1.3268 -0.4710  0.7991
 5352SOL    HW321175   2.371   3.704   5.940 -0.8625  0.9631  0.3882
 5352SOL    MW421176   2.349   3.689   6.022 -0.3944 -0.3013  0.2963
 5353SOL     OW21177   5.509   0.395   3.808 -0.0460 -0.2481 -0.1504
 5353SOL    HW221178   5.444   0.454   3.845 -0.4444  0.2750 -1.6140
 5353SOL    HW321179   5.485   0.309   3.841  1.0307  0.4262  2.7033
 5353SOL    MW421180   5.497   0.392   3.817  0.0435 -0.0901  0.0330
 5354SOL     OW21181   2.705   3.890   0.929  0.6436 -0.6071  0.1214
 5354SOL    HW221182   2.727   3.803   0.963  0.3868 -0.3006  1.0988
 5354SOL    HW321183   2.609   3.888   0.920  0.3111  0.3838  2.5785
 5354SOL    MW421184   2.695   3.878   0.932  0.5659 -0.4359  0.5746
 5355SOL     OW21185   3.996   6.072   1.138  1.0619  0.1709 -0.4154
 5355SOL    HW221186   4.077   6.045   1.095  0.9713 -0.7064 -0.0684
 5355SOL    HW321187   3.942   6.107   1.068  1.5289  0.2524 -0.7412
 5355SOL    MW421188   4.000   6.073   1.123  1.1115  0.0659 -0.4126
 5356SOL     OW21189   4.828   3.341   1.314 -0.2719 -0.0524 -0.3075
 5356SOL    HW221190   4.892   3.405   1.282  1.1274 -0.0302  2.2478
 5356SOL    HW321191   4.762   3.394   1.359  0.3262 -0.3021  0.8980
 5356SOL    MW421192   4.827   3.357   1.315 -0.0084 -0.0824  0.1887
 5357SOL     OW21193   3.120   3.779   2.661  0.1766  0.5821 -0.7848
 5357SOL    HW221194   3.193   3.717   2.650  1.2058  1.5165  0.4087
 5357SOL    HW321195   3.059   3.757   2.592  0.2533 -2.1224 -0.0988
 5357SOL    MW421196   3.122   3.768   2.651  0.3225  0.3486 -0.5369
 5358SOL     OW21197   3.946   3.987   1.618  0.5467  0.5105  0.4911
 5358SOL    HW221198   3.923   4.035   1.696  1.1970 -1.1239  1.7559
 5358SOL    HW321199   4.041   3.974   1.625  0.2680 -1.8535  0.8150
 5358SOL    MW421200   3.956   3.992   1.629  0.5957 -0.0170  0.7007
 5359SOL     OW21201   5.259   3.312   2.069  0.7464 -1.0296 -0.3225
 5359SOL    HW221202   5.237   3.402   2.092  0.1847 -1.5424  1.2412
 5359SOL    HW321203   5.179   3.277   2.032  0.2249 -1.5590  1.2365
 5359SOL    MW421204   5.246   3.319   2.067  0.6035 -1.1671  0.0895
 5360SOL     OW21205   4.375   1.021   0.322 -0.1669 -0.7076 -0.3073
 5360SOL    HW221206   4.453   1.053   0.369 -0.6883  2.1328 -1.2160
 5360SOL    HW321207   4.405   0.941   0.279  2.3449  0.3704 -0.7678
 5360SOL    MW421208   4.389   1.014   0.323  0.0957 -0.1906 -0.4879
 5361SOL     OW21209   0.763   4.413   1.492 -0.3143 -0.3087  0.0533
 5361SOL    HW221210   0.748   4.473   1.565  0.2465 -2.6127  2.2016
 5361SOL    HW321211   0.843   4.444   1.450 -0.3457  0.7461  0.7461
 5361SOL    MW421212   0.771   4.425   1.496 -0.2444 -0.4735  0.4282
 5362SOL     OW21213   2.146   4.934   4.418  0.2689 -0.8945  0.0834
 5362SOL    HW221214   2.087   4.913   4.345 -1.6201 -0.5537  1.4348
 5362SOL    HW321215   2.094   4.990   4.475  2.0434 -0.3269  1.2177
 5362SOL    MW421216   2.131   4.938   4.416  0.2538 -0.7746  0.4113
 5363SOL     OW21217   3.221   4.848   4.804 -0.3413 -0.1336  0.3119
 5363SOL    HW221218   3.170   4.783   4.754  0.3070  0.6424 -1.4382
 5363SOL    HW321219   3.291   4.797   4.844 -1.2535 -0.8792  1.0137
 5363SOL    MW421220   3.223   4.832   4.802 -0.3761 -0.1296  0.1736
 5364SOL     OW21221   2.960   2.330   2.657  0.4430  0.5564 -0.2862
 5364SOL    HW221222   3.047   2.306   2.625  1.0424 -0.2981  1.8132
 5364SOL    HW321223   2.971   2.420   2.690  0.9116  0.0203  1.1087
 5364SOL    MW421224   2.973   2.339   2.657  0.5839  0.3729  0.1748
 5365SOL     OW21225   5.936   4.762   5.276 -0.4945  0.5079  0.2072
 5365SOL    HW221226   5.920   4.842   5.227  3.3088  1.6846  0.5538
 5365SOL    HW321227   5.917   4.691   5.214  0.3355  1.8418 -1.6661
 5365SOL    MW421228   5.932   4.763   5.262  0.1168  0.8392  0.0058
 5366SOL     OW21229   3.578   1.519   4.109 -0.2219 -0.0317 -0.0963
 5366SOL    HW221230   3.635   1.572   4.053  0.6049 -0.0645  0.6831
 5366SOL    HW321231   3.494   1.565   4.108 -0.6075 -0.6685 -2.2859
 5366SOL    MW421232   3.575   1.532   4.102 -0.1637 -0.1201 -0.2824
 5367SOL     OW21233   0.605   5.570   3.363 -0.3861  0.1871  0.3927
 5367SOL    HW221234   0.649   5.616   3.435  1.1730  0.6870 -0.8196
 5367SOL    HW321235   0.544   5.512   3.406 -0.0850  1.0658  2.1012
 5367SOL    MW421236   0.603   5.569   3.378 -0.1406  0.3690  0.4582
 5368SOL     OW21237   3.413   1.915   5.721  0.2675 -0.0789 -0.1381
 5368SOL    HW221238   3.430   1.838   5.667  0.5382  0.0735 -0.2741
 5368SOL    HW321239   3.393   1.984   5.658 -0.7479 -0.2246  0.0164
 5368SOL    MW421240   3.413   1.914   5.705  0.1692 -0.0780 -0.1357
 5369SOL     OW21241   5.628   1.741   3.311  0.1505 -0.2071  0.4008
 5369SOL    HW221242   5.540   1.776   3.321 -0.8929 -2.4836 -0.0283
 5369SOL    HW321243   5.660   1.730   3.401  0.8677  2.4510  0.5510
 5369SOL    MW421244   5.621   1.744   3.324  0.1074 -0.1567  0.3640
 5370SOL     OW21245   0.678   5.827   5.353  0.3447  0.2868  0.1562
 5370SOL    HW221246   0.753   5.768   5.341  0.2070  0.1542 -0.0652
 5370SOL    HW321247   0.603   5.777   5.320  0.4142  1.0790 -1.2456
 5370SOL    MW421248   0.678   5.812   5.347  0.3357  0.3738 -0.0580
 5371SOL     OW21249   1.881   0.365   1.091  0.5397 -0.3395 -0.3322
 5371SOL    HW221250   1.889   0.392   1.183 -1.6762 -1.4569  0.2421
 5371SOL    HW321251   1.954   0.305   1.078  0.7220 -0.3920  0.7782
 5371SOL    MW421252   1.892   0.361   1.102  0.2714 -0.4939 -0.1100
 5372SOL     OW21253   3.544   3.464   6.129  0.0780  0.4433 -0.3007
 5372SOL    HW221254   3.617   3.467   6.068 -0.7147  0.7739 -1.2621
 5372SOL    HW321255   3.468   3.488   6.076 -0.8875 -0.8733  0.4457
 5372SOL    MW421256   3.543   3.468   6.114 -0.1540  0.3132 -0.3291
 5373SOL     OW21257   0.240   0.728   3.866 -0.2612  0.4017 -0.2572
 5373SOL    HW221258   0.328   0.692   3.862  0.2673  1.4481  1.1469
 5373SOL    HW321259   0.208   0.725   3.776  1.0683 -0.3032 -0.7245
 5373SOL    MW421260   0.247   0.723   3.854 -0.0160  0.4467 -0.1336
 5374SOL     OW21261   5.074   4.777   5.214  0.8269 -0.0641  0.0115
 5374SOL    HW221262   5.004   4.842   5.222  1.3560  0.5942 -0.6608
 5374SOL    HW321263   5.076   4.734   5.300  1.9693  2.3505  1.2717
 5374SOL    MW421264   5.065   4.780   5.227  1.0475  0.3413  0.0890
 5375SOL     OW21265   5.773   1.845   2.515 -0.4467 -0.4889 -0.5588
 5375SOL    HW221266   5.813   1.833   2.601 -0.8106 -3.0184 -0.6558
 5375SOL    HW321267   5.822   1.785   2.458 -1.8914 -0.8187 -1.5097
 5375SOL    MW421268   5.785   1.835   2.518 -0.6853 -0.8661 -0.6971
 5376SOL     OW21269   5.147   2.133   4.148 -0.0885  0.0940  0.4270
 5376SOL    HW221270   5.065   2.173   4.179 -1.7147 -1.4336 -1.6029
 5376SOL    HW321271   5.137   2.040   4.169  0.8947 -0.1907 -0.3376
 5376SOL    MW421272   5.135   2.126   4.155 -0.1733 -0.1451  0.0583
 5377SOL     OW21273   2.248   2.915   1.031 -0.0208  0.1961  0.3184
 5377SOL    HW221274   2.311   2.860   0.985  1.0946  1.4805  0.2377
 5377SOL    HW321275   2.210   2.858   1.097  0.3076 -0.9536 -0.4557
 5377SOL    MW421276   2.252   2.900   1.034  0.1697  0.2139  0.2056
 5378SOL     OW21277   3.589   5.161   5.672 -0.0463 -0.6126  0.3875
 5378SOL    HW221278   3.564   5.185   5.761  1.6786 -0.9715  1.0129
 5378SOL    HW321279   3.683   5.140   5.678 -0.1447 -1.7314 -1.2927
 5378SOL    MW421280   3.598   5.162   5.685  0.1683 -0.8076  0.2484
 5379SOL     OW21281   0.432   3.704   0.853 -0.5582  0.5426 -0.2766
 5379SOL    HW221282   0.384   3.669   0.929 -0.6398  0.1262 -0.5156
 5379SOL    HW321283   0.372   3.769   0.815 -0.6013  0.6043 -0.1051
 5379SOL    MW421284   0.418   3.708   0.858 -0.5747  0.4958 -0.2855
 5380SOL     OW21285   1.353   3.230   5.882  0.5700  0.1737 -0.3790
 5380SOL    HW221286   1.389   3.189   5.804 -0.6762 -0.7237 -0.5191
 5380SOL    HW321287   1.270   3.267   5.853  0.3693  0.3408  0.3861
 5380SOL    MW421288   1.347   3.229   5.868  0.3791  0.0773 -0.2965
 5381SOL     OW21289   1.990   0.095   5.221 -0.5111  0.1340  0.0847
 5381SOL    HW221290   1.952   0.093   5.309 -1.1558  0.2168 -0.1903
 5381SOL    HW321291   1.954   0.174   5.181 -1.9536 -1.0335 -1.0212
 5381SOL    MW421292   1.981   0.105   5.227 -0.7865 -0.0091 -0.0975
 5382SOL     OW21293   5.334   5.055   0.481  0.1092  0.1552 -0.2638
 5382SOL    HW221294   5.354   5.132   0.534  2.5020 -0.5235 -0.0662
 5382SOL    HW321295   5.250   5.023   0.515  0.2892  1.2508  1.3083
 5382SOL    MW421296   5.326   5.061   0.492  0.4486  0.2102 -0.0303
 5383SOL     OW21297   3.979   6.189   2.991 -0.0584  0.6827  0.0105
 5383SOL    HW221298   4.004   6.103   3.026 -0.4305  0.0207 -1.2853
 5383SOL    HW321299   3.884   6.184   2.980 -0.0261  1.0989 -0.4936
 5383SOL    MW421300   3.970   6.177   2.994 -0.1032  0.6503 -0.2269
 5384SOL     OW21301   0.425   4.833   6.023  0.2717  0.5367 -0.2000
 5384SOL    HW221302   0.386   4.746   6.017 -0.3913  0.8874 -1.3510
 5384SOL    HW321303   0.481   4.829   6.101  0.0482 -0.8259 -0.0786
 5384SOL    MW421304   0.427   4.821   6.032  0.1547  0.4032 -0.3359
 5385SOL     OW21305   5.061   2.365   3.519 -0.3201  0.2052  0.3716
 5385SOL    HW221306   5.046   2.371   3.425  0.6411  1.1941  0.2726
 5385SOL    HW321307   4.987   2.410   3.559 -1.1487 -0.8975  0.1449
 5385SOL    MW421308   5.049   2.371   3.512 -0.3026  0.1902  0.3286
 5386SOL     OW21309   5.403   0.242   3.580  0.0791  0.0719  0.0084
 5386SOL    HW221310   5.469   0.175   3.562  0.7809  0.4902  0.9243
 5386SOL    HW321311   5.440   0.293   3.652 -0.7661  0.9998 -0.1943
 5386SOL    MW421312   5.417   0.240   3.587  0.0602  0.2495  0.1025
 5387SOL     OW21313   1.752   0.457   6.120  0.3740 -0.3164  0.7207
 5387SOL    HW221314   1.759   0.464   6.216 -1.6657 -0.3141  0.9289
 5387SOL    HW321315   1.667   0.497   6.100  0.6784 -0.4955 -1.0778
 5387SOL    MW421316   1.742   0.463   6.130  0.1450 -0.3398  0.5108
 5388SOL     OW21317   2.509   3.085   3.778 -0.2268  0.6359  0.2991
 5388SOL    HW221318   2.461   3.152   3.729 -0.1145  0.6060  0.1480
 5388SOL    HW321319   2.443   3.045   3.835 -0.2166  1.1359  0.6739
 5388SOL    MW421320   2.494   3.089   3.779 -0.2107  0.6979  0.3286
 5389SOL     OW21321   5.959   4.606   6.165  0.0016 -0.2677  0.1339
 5389SOL    HW221322   5.905   4.532   6.191  0.1528 -0.1090  0.9168
 5389SOL    HW321323   5.903   4.682   6.179  0.3296 -0.1229  0.7051
 5389SOL    MW421324   5.945   4.606   6.170  0.0648 -0.2276  0.3125
 5390SOL     OW21325   2.230   1.429   1.534  0.0543  0.7688  0.0701
 5390SOL    HW221326   2.230   1.524   1.525  1.5086  0.9047  1.2062
 5390SOL    HW321327   2.210   1.396   1.446  1.0151  2.0928 -0.6675
 5390SOL    MW421328   2.227   1.437   1.521  0.3729  0.9614  0.1227
 5391SOL     OW21329   4.895   2.756   0.460  0.6554 -0.2012 -0.1505
 5391SOL    HW221330   4.946   2.731   0.383  0.7414  2.7532 -1.2000
 5391SOL    HW321331   4.955   2.809   0.512 -0.1589 -0.0280  0.6330
 5391SOL    MW421332   4.910   2.760   0.457  0.5593  0.2114 -0.1856
 5392SOL     OW21333   5.643   0.589   0.683 -0.8057  0.3294  0.7571
 5392SOL    HW221334   5.643   0.572   0.589 -0.2479  1.8181  0.4600
 5392SOL    HW321335   5.554   0.569   0.712 -1.0615  0.1618 -0.1387
 5392SOL    MW421336   5.631   0.584   0.675 -0.7659  0.5037  0.5997
 5393SOL     OW21337   5.975   6.226   1.171  0.3979 -0.0761 -0.5361
 5393SOL    HW221338   6.030   6.292   1.129 -0.4946 -0.0203 -1.6767
 5393SOL    HW321339   5.973   6.252   1.263  0.7934  0.9632 -0.8064
 5393SOL    MW421340   5.982   6.238   1.178  0.3323  0.0684 -0.7222
 5394SOL     OW21341   5.898   3.605   5.407 -0.2862  0.0772 -0.2735
 5394SOL    HW221342   5.858   3.533   5.356 -1.3948  1.2846 -1.1800
 5394SOL    HW321343   5.896   3.574   5.497 -1.2782 -0.8034 -0.5747
 5394SOL    MW421344   5.892   3.591   5.412 -0.5634  0.1203 -0.4328
 5395SOL     OW21345   0.401   2.803   1.513 -0.3174  0.2305  0.2854
 5395SOL    HW221346   0.415   2.784   1.420  0.8737 -0.2055  0.5394
 5395SOL    HW321347   0.441   2.729   1.559  0.2192  1.0454  1.1666
 5395SOL    MW421348   0.408   2.791   1.507 -0.0895  0.2805  0.4352
 5396SOL     OW21349   2.479   4.905   3.500  0.0291  0.3540 -0.2632
 5396SOL    HW221350   2.480   4.956   3.581 -1.4984 -0.4525  0.3115
 5396SOL    HW321351   2.511   4.966   3.433 -2.1962  2.3008  0.2912
 5396SOL    MW421352   2.483   4.920   3.502 -0.4661  0.5044 -0.1143
 5397SOL     OW21353   5.920   3.672   4.655  0.1532 -0.4220  0.1053
 5397SOL    HW221354   5.928   3.687   4.561  1.9198  0.8646  0.4093
 5397SOL    HW321355   5.889   3.755   4.690  0.2534 -0.6472  0.7410
 5397SOL    MW421356   5.917   3.685   4.647  0.3995 -0.2820  0.2293
 5398SOL     OW21357   6.136   5.714   2.593  0.3212 -0.4670 -0.3521
 5398SOL    HW221358   6.123   5.685   2.503 -2.1810 -2.3327  0.4550
 5398SOL    HW321359   6.156   5.633   2.641  0.9191  0.3772  0.8809
 5398SOL    MW421360   6.137   5.699   2.588  0.0699 -0.6018 -0.0830
 5399SOL     OW21361   0.494   4.021   3.784  0.1160  0.3484  0.0658
 5399SOL    HW221362   0.450   3.942   3.815  0.4146 -0.1334 -0.7125
 5399SOL    HW321363   0.515   4.069   3.864  0.5548 -0.6958  0.6011
 5399SOL    MW421364   0.491   4.017   3.799  0.2133  0.1470  0.0337
 5400SOL     OW21365   6.119   1.943   0.519  0.2280 -0.3683 -0.5268
 5400SOL    HW221366   6.165   1.944   0.603 -0.1794  1.5587 -0.2676
 5400SOL    HW321367   6.186   1.966   0.455 -0.1118  1.6797 -0.2401
 5400SOL    MW421368   6.134   1.946   0.522  0.1294  0.1562 -0.4548
 5401SOL     OW21369   6.243   6.250   6.081 -0.0862  0.2941 -0.3838
 5401SOL    HW221370   6.330   6.263   6.042 -0.4850  3.3541 -0.4956
 5401SOL    HW321371   6.258   6.193   6.156  2.0651  0.9074 -0.2959
 5401SOL    MW421372   6.256   6.244   6.086  0.1450  0.7788 -0.3869
 5402SOL     OW21373   3.777   5.285   5.969  0.2255  0.1837 -0.4293
 5402SOL    HW221374   3.829   5.209   5.996 -0.4694  0.4553  1.9270
 5402SOL    HW321375   3.828   5.361   5.997  0.2075  0.5629 -1.3854
 5402SOL    MW421376   3.791   5.285   5.976  0.1315  0.2696 -0.2446
 5403SOL     OW21377   4.881   5.013   1.595 -0.3175 -0.5482  0.0532
 5403SOL    HW221378   4.952   5.074   1.615 -0.7579 -0.3387  1.0298
 5403SOL    HW321379   4.876   5.013   1.499  1.1423 -0.7440 -0.0476
 5403SOL    MW421380   4.890   5.021   1.585 -0.1830 -0.5464  0.1687
 5404SOL     OW21381   0.591   2.365   3.745 -0.9535 -0.0489 -0.0135
 5404SOL    HW221382   0.618   2.374   3.653 -2.3375  1.4629 -0.3060
 5404SOL    HW321383   0.516   2.305   3.742 -0.6763 -0.4173  0.2183
 5404SOL    MW421384   0.585   2.358   3.732 -1.0995  0.1020 -0.0215
 5405SOL     OW21385   4.166   2.307   2.397 -0.0415 -0.0966 -0.1790
 5405SOL    HW221386   4.075   2.314   2.369  0.2704  1.1420 -0.9733
 5405SOL    HW321387   4.216   2.303   2.315  0.8313  2.6844  0.1139
 5405SOL    MW421388   4.160   2.307   2.382  0.1148  0.4337 -0.2452
 5406SOL     OW21389   5.500   2.934   2.541  0.0613 -0.4191  0.4529
 5406SOL    HW221390   5.404   2.934   2.549  0.1709 -2.3076  3.2626
 5406SOL    HW321391   5.523   2.842   2.527  1.4676  0.2010 -1.9985
 5406SOL    MW421392   5.490   2.922   2.540  0.2613 -0.5864  0.5002
 5407SOL     OW21393   1.670   2.031   2.479 -0.3999  0.1732  0.2343
 5407SOL    HW221394   1.575   2.031   2.486 -0.3790  0.2615  0.5309
 5407SOL    HW321395   1.700   1.980   2.554 -0.1747  1.0401  0.7500
 5407SOL    MW421396   1.662   2.024   2.490 -0.3674  0.2992  0.3415
 5408SOL     OW21397   0.217   5.180   6.204 -0.0618  0.3658  0.1738
 5408SOL    HW221398   0.168   5.201   6.284 -0.6317  0.6054 -0.2387
 5408SOL    HW321399   0.215   5.261   6.153 -2.3810 -0.6296 -1.4907
 5408SOL    MW421400   0.210   5.194   6.208 -0.4430  0.2661 -0.1002
 5409SOL     OW21401   0.808   4.133   1.159 -0.2542 -0.2815  0.1103
 5409SOL    HW221402   0.887   4.124   1.105 -0.2691 -1.4588  0.2582
 5409SOL    HW321403   0.831   4.091   1.242 -0.7502  0.1493  0.4683
 5409SOL    MW421404   0.821   4.126   1.163 -0.3216 -0.3800  0.1771
 5410SOL     OW21405   4.609   2.468   6.066 -0.3608  0.3367  0.1092
 5410SOL    HW221406   4.546   2.539   6.051 -0.4304 -0.0910 -1.9625
 5410SOL    HW321407   4.562   2.389   6.039 -0.4364 -0.6190  2.7826
 5410SOL    MW421408   4.594   2.467   6.061 -0.3799  0.1541  0.1886
 5411SOL     OW21409   5.213   4.385   0.752  0.1816  0.6081 -0.3438
 5411SOL    HW221410   5.221   4.440   0.675 -1.3667  0.7652 -0.4287
 5411SOL    HW321411   5.123   4.398   0.781 -0.0613 -1.4405 -0.0370
 5411SOL    MW421412   5.202   4.394   0.746 -0.0547  0.3585 -0.3145
 5412SOL     OW21413   0.856   3.585   6.255 -0.1903  0.5140 -0.3965
 5412SOL    HW221414   0.797   3.627   6.193 -0.5300  1.4361  0.5148
 5412SOL    HW321415   0.817   3.602   6.341 -0.7965 -2.3823  0.0013
 5412SOL    MW421416   0.843   3.593   6.258 -0.3151  0.2536 -0.2238
 5413SOL     OW21417   5.889   1.555   2.669 -0.3914 -0.6701 -0.1046
 5413SOL    HW221418   5.948   1.559   2.594 -0.1716  0.8902  0.1121
 5413SOL    HW321419   5.937   1.504   2.734  0.7633  0.5710  0.0700
 5413SOL    MW421420   5.903   1.549   2.667 -0.2100 -0.3005 -0.0530
 5414SOL     OW21421   2.748   3.213   0.885  0.3975  0.0996 -0.3020
 5414SOL    HW221422   2.701   3.153   0.827 -0.8284 -0.1808  0.9172
 5414SOL    HW321423   2.724   3.300   0.852  3.1511  0.0316 -2.8303
 5414SOL    MW421424   2.738   3.217   0.873  0.5990  0.0537 -0.4747
 5415SOL     OW21425   0.672   1.391   5.235 -0.6330 -0.4952  0.1043
 5415SOL    HW221426   0.629   1.369   5.318  0.8535  0.9195  1.3416
 5415SOL    HW321427   0.605   1.438   5.185 -0.8754  0.8251  1.5706
 5415SOL    MW421428   0.658   1.395   5.240 -0.4689 -0.1344  0.4610
 5416SOL     OW21429   1.491   3.758   2.306  0.0798 -0.0432  0.4580
 5416SOL    HW221430   1.571   3.808   2.291  0.7372 -0.8101  1.3297
 5416SOL    HW321431   1.452   3.797   2.384 -0.8881  0.9027 -0.4570
 5416SOL    MW421432   1.496   3.770   2.314  0.0388 -0.0195  0.4523
 5417SOL     OW21433   4.118   4.561   2.459 -0.5073 -0.2051  0.0344
 5417SOL    HW221434   4.049   4.602   2.406  0.5267  0.1686 -1.0639
 5417SOL    HW321435   4.072   4.493   2.509 -1.6143 -0.2628 -1.0097
 5417SOL    MW421436   4.102   4.557   2.458 -0.5169 -0.1634 -0.2482
 5418SOL     OW21437   2.368   2.701   3.626 -0.2982  0.7135  0.6601
 5418SOL    HW221438   2.326   2.703   3.712  2.3155  0.5597  2.0398
 5418SOL    HW321439   2.317   2.762   3.573 -1.7836  1.0771  2.3864
 5418SOL    MW421440   2.356   2.709   3.630 -0.1493  0.7412  1.0699
 5419SOL     OW21441   2.183   2.596   0.899  0.0072  0.1281 -0.4994
 5419SOL    HW221442   2.152   2.516   0.857 -1.5345  0.2559  0.3232
 5419SOL    HW321443   2.257   2.567   0.953  0.3829 -0.4696 -1.3107
 5419SOL    MW421444   2.189   2.582   0.901 -0.1466  0.0661 -0.4979
 5420SOL     OW21445   0.347   4.449   0.905 -0.5297 -0.5445 -0.0139
 5420SOL    HW221446   0.347   4.478   0.814  0.6315 -0.1375  0.1090
 5420SOL    HW321447   0.262   4.406   0.915 -0.2991 -1.4524 -1.5519
 5420SOL    MW421448   0.336   4.447   0.894 -0.3461 -0.6106 -0.2006
 5421SOL     OW21449   5.073   3.406   1.803  1.0737  0.1695  0.1948
 5421SOL    HW221450   5.089   3.362   1.720  2.6164 -1.4693  1.2940
 5421SOL    HW321451   5.144   3.470   1.811  2.5435 -1.5278  1.4076
 5421SOL    MW421452   5.084   3.409   1.793  1.4712 -0.2706  0.4999
 5422SOL     OW21453   6.162   0.138   3.885  0.4485 -0.2109  0.3139
 5422SOL    HW221454   6.172   0.072   3.953 -0.4217 -1.8673 -1.0904
 5422SOL    HW321455   6.114   0.094   3.815 -0.8119  2.1386 -0.4093
 5422SOL    MW421456   6.157   0.124   3.885  0.1674 -0.1194  0.0332
 5423SOL     OW21457   2.854   2.851   2.845 -0.2108  0.9264  0.1383
 5423SOL    HW221458   2.849   2.844   2.940 -0.0873 -0.6190  0.0682
 5423SOL    HW321459   2.891   2.937   2.828  1.2280  0.6134  1.5496
 5423SOL    MW421460   2.858   2.861   2.855 -0.0046  0.6812  0.3153
 5424SOL     OW21461   0.083   4.507   1.207  0.0883  0.5907  0.0273
 5424SOL    HW221462   0.071   4.412   1.203  0.7533  0.5059 -0.0177
 5424SOL    HW321463   0.062   4.530   1.298  0.9932  0.2436  0.3373
 5424SOL    MW421464   0.078   4.498   1.219  0.2954  0.5337  0.0623
 5425SOL     OW21465   0.969   5.743   2.729  0.4279  0.3361  0.1799
 5425SOL    HW221466   1.008   5.808   2.672  1.4101  0.2781  0.7689
 5425SOL    HW321467   0.905   5.698   2.674  1.4865  0.1413 -0.9324
 5425SOL    MW421468   0.965   5.746   2.715  0.6972  0.3027  0.1108
 5426SOL     OW21469   1.189   0.789   5.666  0.2800 -0.0466 -0.0013
 5426SOL    HW221470   1.267   0.743   5.698  0.5633 -2.3210 -3.4289
 5426SOL    HW321471   1.218   0.832   5.585 -1.4828  1.2286 -0.0186
 5426SOL    MW421472   1.203   0.789   5.659  0.0848 -0.1784 -0.4558
 5427SOL     OW21473   2.203   1.453   3.685 -0.3155  0.5453 -0.1178
 5427SOL    HW221474   2.119   1.406   3.681  1.0786 -2.3150  1.0258
 5427SOL    HW321475   2.191   1.528   3.627 -2.6659 -1.4092 -2.4517
 5427SOL    MW421476   2.190   1.457   3.677 -0.4417 -0.0900 -0.2749
 5428SOL     OW21477   2.469   1.331   3.141  0.6729  0.7686  0.0959
 5428SOL    HW221478   2.481   1.277   3.064 -1.1634  0.6341 -0.1466
 5428SOL    HW321479   2.476   1.270   3.215  1.6133  0.7560  0.0058
 5428SOL    MW421480   2.471   1.316   3.141  0.5547  0.7492  0.0520
 5429SOL     OW21481   5.718   4.907   1.812 -0.9200 -0.2343 -1.0383
 5429SOL    HW221482   5.751   4.819   1.792 -1.3119 -0.7261  0.3225
 5429SOL    HW321483   5.626   4.893   1.836 -0.8508  0.4659 -0.3136
 5429SOL    MW421484   5.710   4.893   1.813 -0.9626 -0.2068 -0.7631
 5430SOL     OW21485   5.250   3.196   2.709 -0.1443 -0.8293 -0.2774
 5430SOL    HW221486   5.259   3.136   2.635 -1.7632 -0.7727 -0.5560
 5430SOL    HW321487   5.157   3.195   2.729  0.0782  0.1872  0.9115
 5430SOL    MW421488   5.239   3.188   2.702 -0.3285 -0.6877 -0.1573
 5431SOL     OW21489   1.896   5.325   1.805 -0.4642  0.4242  0.7479
 5431SOL    HW221490   1.926   5.272   1.879 -1.8813  0.9286  1.7187
 5431SOL    HW321491   1.940   5.409   1.817 -1.1640  0.7112  1.3958
 5431SOL    MW421492   1.906   5.329   1.817 -0.7435  0.5287  0.9614
 5432SOL     OW21493   1.910   0.905   3.613 -0.2976 -0.8940  1.0572
 5432SOL    HW221494   1.928   0.839   3.679  1.5081 -1.7234 -0.1888
 5432SOL    HW321495   1.818   0.891   3.590 -0.2598 -2.2340  1.6150
 5432SOL    MW421496   1.900   0.894   3.619 -0.0544 -1.1802  0.9664
 5433SOL     OW21497   1.898   3.647   2.381 -0.4049  0.0504  0.2325
 5433SOL    HW221498   1.906   3.577   2.317  2.2019 -0.8681  1.4222
 5433SOL    HW321499   1.983   3.692   2.379 -1.6965  2.6927  0.1306
 5433SOL    MW421500   1.910   3.644   2.372 -0.2314  0.2778  0.3760
 5434SOL     OW21501  -0.017   3.281   3.300 -0.1881  0.4530 -0.4407
 5434SOL    HW221502   0.068   3.276   3.256 -0.3930  1.1705 -0.9413
 5434SOL    HW321503  -0.008   3.355   3.360  0.1685 -0.6667  0.9423
 5434SOL    MW421504  -0.004   3.290   3.302 -0.1681  0.3999 -0.3243
 5435SOL     OW21505   4.232   1.845   5.260 -0.0437  0.3987  0.1879
 5435SOL    HW221506   4.183   1.858   5.179  1.1331  0.6001 -0.5068
 5435SOL    HW321507   4.324   1.847   5.234  0.4421  2.4990  1.8050
 5435SOL    MW421508   4.237   1.847   5.246  0.1757  0.7024  0.3096
 5436SOL     OW21509   4.486   3.122   0.380  0.3216 -0.0657  0.2517
 5436SOL    HW221510   4.550   3.051   0.374  0.7574  0.3459 -0.0561
 5436SOL    HW321511   4.472   3.134   0.474  2.2844  1.2261  0.4348
 5436SOL    MW421512   4.493   3.114   0.392  0.6381  0.1590  0.2353
 5437SOL     OW21513   4.305   1.104   1.908  0.2993 -0.5520  0.1682
 5437SOL    HW221514   4.390   1.069   1.880  0.7955  1.6036 -1.2342
 5437SOL    HW321515   4.311   1.105   2.004  0.8919 -2.5926  0.2057
 5437SOL    MW421516   4.317   1.099   1.917  0.4429 -0.5368 -0.0119
 5438SOL     OW21517   5.401   3.331   2.910 -0.2643 -0.5380 -0.0855
 5438SOL    HW221518   5.357   3.294   2.833 -1.8589 -1.2445  1.0990
 5438SOL    HW321519   5.361   3.285   2.984  3.3045 -2.0438  1.1008
 5438SOL    MW421520   5.390   3.320   2.910 -0.0039 -0.8299  0.2273
 5439SOL     OW21521   0.784   2.909   4.658  0.0465 -0.0912 -0.3946
 5439SOL    HW221522   0.733   2.871   4.731  1.6190 -0.0500  0.7755
 5439SOL    HW321523   0.730   2.893   4.581 -1.3384 -0.8207  0.6719
 5439SOL    MW421524   0.770   2.902   4.658  0.0713 -0.1820 -0.0995
 5440SOL     OW21525   2.651   0.980   2.062 -0.1437  0.4210  0.0965
 5440SOL    HW221526   2.714   1.027   2.116  1.0735 -0.9164 -0.0851
 5440SOL    HW321527   2.645   1.031   1.982 -1.7440  2.2644  1.3327
 5440SOL    MW421528   2.659   0.993   2.059 -0.1942  0.4877  0.2356
 5441SOL     OW21529   4.267   4.657   5.543  0.2797 -0.4900 -0.2573
 5441SOL    HW221530   4.346   4.710   5.538  0.5881 -0.9025  0.1194
 5441SOL    HW321531   4.298   4.572   5.576 -0.2231 -0.8524 -0.7070
 5441SOL    MW421532   4.282   4.653   5.547  0.2541 -0.5923 -0.2669
 5442SOL     OW21533   4.283   5.286   2.943 -0.1177 -0.1618  0.1936
 5442SOL    HW221534   4.307   5.232   3.018 -3.6893 -2.8064 -0.2932
 5442SOL    HW321535   4.297   5.230   2.867  0.7662  1.4753 -0.9308
 5442SOL    MW421536   4.288   5.272   2.942 -0.4723 -0.2947 -0.0190
 5443SOL     OW21537   5.310   3.373   2.404  0.6887  0.0323 -0.3752
 5443SOL    HW221538   5.315   3.431   2.328  1.7476  1.0418  0.4304
 5443SOL    HW321539   5.324   3.430   2.479 -3.4533 -0.3258  0.9351
 5443SOL    MW421540   5.313   3.388   2.404  0.2819  0.1182 -0.0961
 5444SOL     OW21541   5.282   0.549   3.017  0.2882 -0.5520  0.1126
 5444SOL    HW221542   5.258   0.634   3.053 -0.6195 -1.2570  1.2277
 5444SOL    HW321543   5.284   0.563   2.922 -0.4789  0.5493  0.2476
 5444SOL    MW421544   5.279   0.562   3.009  0.0673 -0.4998  0.2775
 5445SOL     OW21545   6.275   3.993   5.146  0.1033 -0.0158  0.0857
 5445SOL    HW221546   6.282   4.037   5.230 -1.3166  2.3291 -0.9188
 5445SOL    HW321547   6.313   4.054   5.083 -1.0863 -0.5942 -1.2654
 5445SOL    MW421548   6.281   4.006   5.149 -0.2410  0.2173 -0.2251
 5446SOL     OW21549   0.465   2.767   1.254 -0.4210  0.4881  0.0676
 5446SOL    HW221550   0.445   2.841   1.196 -0.8545  0.8675  0.6936
 5446SOL    HW321551   0.537   2.722   1.210  0.1418  1.5250 -0.1220
 5446SOL    MW421552   0.472   2.771   1.240 -0.4039  0.6749  0.1252
 5447SOL     OW21553   6.023   3.683   5.029  0.4010 -0.7120 -0.2380
 5447SOL    HW221554   6.067   3.638   5.101 -0.4241 -1.7945 -0.3832
 5447SOL    HW321555   5.936   3.704   5.063  0.1375 -0.8996 -0.7751
 5447SOL    MW421556   6.017   3.679   5.043  0.2574 -0.8795 -0.3280
 5448SOL     OW21557   4.826   1.404   0.350 -0.1521  0.0411 -0.3348
 5448SOL    HW221558   4.732   1.407   0.332 -0.5635 -1.3737  1.3769
 5448SOL    HW321559   4.841   1.476   0.412 -0.7109 -1.5107  1.6988
 5448SOL    MW421560   4.816   1.414   0.356 -0.2801 -0.3503  0.1593
 5449SOL     OW21561   0.397   6.260   2.828  0.4649  0.5772 -0.0130
 5449SOL    HW221562   0.468   6.303   2.876  2.0055 -1.3136 -0.4449
 5449SOL    HW321563   0.372   6.186   2.883  1.3334 -0.8293 -1.4055
 5449SOL    MW421564   0.403   6.256   2.842  0.7828  0.1422 -0.2537
 5450SOL     OW21565   2.616   5.507   2.186 -0.2647  0.0010 -0.7236
 5450SOL    HW221566   2.564   5.584   2.210 -2.1942 -0.8964 -1.8109
 5450SOL    HW321567   2.698   5.543   2.152 -0.9979  1.5735 -0.9267
 5450SOL    MW421568   2.619   5.522   2.185 -0.6160  0.0901 -0.8939
 5451SOL     OW21569   4.108   4.238   0.971 -0.9114  0.0698 -0.0019
 5451SOL    HW221570   4.097   4.144   0.959 -1.0630  0.2914 -1.7883
 5451SOL    HW321571   4.020   4.274   0.961 -0.8888  0.3961  0.8808
 5451SOL    MW421572   4.095   4.230   0.968 -0.9284  0.1421 -0.1211
 5452SOL     OW21573   2.849   5.509   2.411  0.2051  0.0568  0.2952
 5452SOL    HW221574   2.925   5.458   2.382  1.2466  0.6747  1.7940
 5452SOL    HW321575   2.887   5.583   2.458 -1.2076  3.0034 -2.8731
 5452SOL    MW421576   2.864   5.512   2.414  0.1561  0.5271  0.0749
 5453SOL     OW21577   4.861   0.554   1.236 -0.0834  0.8944  0.0540
 5453SOL    HW221578   4.781   0.569   1.185 -0.5884  0.2293  0.6385
 5453SOL    HW321579   4.909   0.488   1.186 -0.3065  0.6571  0.1581
 5453SOL    MW421580   4.857   0.547   1.222 -0.1795  0.7754  0.1448
 5454SOL     OW21581   0.847   2.468   0.040 -0.6420  0.3231 -0.1673
 5454SOL    HW221582   0.760   2.502   0.018 -0.1619  1.0289 -1.0552
 5454SOL    HW321583   0.833   2.377   0.064 -1.5263  0.2069 -1.0833
 5454SOL    MW421584   0.834   2.461   0.040 -0.6953  0.4009 -0.4053
 5455SOL     OW21585   2.843   0.561   2.313  0.2241  0.1500  0.3172
 5455SOL    HW221586   2.862   0.468   2.325  0.5064 -0.0816 -1.5530
 5455SOL    HW321587   2.923   0.597   2.276 -0.1929  0.9365  0.1542
 5455SOL    MW421588   2.856   0.553   2.309  0.2063  0.2232  0.0489
 5456SOL     OW21589   4.685   4.338   4.053  0.0535  0.2245  0.0454
 5456SOL    HW221590   4.719   4.257   4.091  0.3759 -0.1820 -1.0625
 5456SOL    HW321591   4.590   4.325   4.048 -0.5816  1.7620  4.1063
 5456SOL    MW421592   4.677   4.325   4.057  0.0122  0.3737  0.4350
 5457SOL     OW21593   0.879   3.158   4.625  0.5931  0.0866  0.3714
 5457SOL    HW221594   0.883   3.179   4.718 -0.9406 -0.4387  0.5751
 5457SOL    HW321595   0.823   3.080   4.620 -1.6843  1.6967 -1.2025
 5457SOL    MW421596   0.872   3.150   4.636  0.0903  0.2297  0.1906
 5458SOL     OW21597   4.798   3.318   2.200 -0.4541 -0.3313 -0.4039
 5458SOL    HW221598   4.809   3.411   2.178 -0.0362  0.2344  1.9392
 5458SOL    HW321599   4.713   3.314   2.243  0.4372 -0.6049  1.4096
 5458SOL    MW421600   4.789   3.330   2.203 -0.2813 -0.2928  0.1445
 5459SOL     OW21601   2.012   4.817   4.201  0.2720  0.0699 -0.6205
 5459SOL    HW221602   1.925   4.804   4.240  1.1492  1.8064  2.2164
 5459SOL    HW321603   2.047   4.729   4.192 -1.9622 -0.7421 -2.5167
 5459SOL    MW421604   2.005   4.804   4.205  0.0929  0.1919 -0.4964
 5460SOL     OW21605   4.432   4.223   5.472  0.2069  0.0585  0.4238
 5460SOL    HW221606   4.378   4.233   5.393  0.1602  0.1552  0.4668
 5460SOL    HW321607   4.514   4.268   5.451  0.1625  0.1568  0.4605
 5460SOL    MW421608   4.435   4.230   5.458  0.1949  0.0843  0.4343
 5461SOL     OW21609   3.324   2.692   2.673 -0.7871 -0.1064 -0.0408
 5461SOL    HW221610   3.363   2.688   2.585  1.1076 -4.7605  0.7357
 5461SOL    HW321611   3.398   2.706   2.732 -1.2559 -1.6865  1.0049
 5461SOL    MW421612   3.339   2.693   2.669 -0.5990 -0.9290  0.1996
 5462SOL     OW21613   2.945   4.452   3.036 -0.1399 -0.3397 -0.0534
 5462SOL    HW221614   2.990   4.458   3.120  0.8428 -0.0084 -0.5806
 5462SOL    HW321615   2.852   4.451   3.058  0.0706  0.7594  0.9790
 5462SOL    MW421616   2.939   4.453   3.050  0.0176 -0.1510  0.0133
 5463SOL     OW21617   0.066   1.326   0.299  0.2697  0.1709 -0.7411
 5463SOL    HW221618   0.029   1.375   0.372  1.0812  2.1094 -1.5534
 5463SOL    HW321619   0.106   1.249   0.339  1.0678  1.3999  0.9533
 5463SOL    MW421620   0.066   1.323   0.314  0.4821  0.5888 -0.6247
 5464SOL     OW21621   4.342   4.926   3.464  0.6108  0.5112 -0.2053
 5464SOL    HW221622   4.326   4.972   3.546  1.6531  1.2764 -0.4025
 5464SOL    HW321623   4.432   4.949   3.441  0.5173 -0.1240 -1.2852
 5464SOL    MW421624   4.352   4.935   3.472  0.7360  0.5283 -0.3738
 5465SOL     OW21625   0.383   3.641   2.895  0.3336 -0.2657  0.2465
 5465SOL    HW221626   0.375   3.546   2.905  0.8648 -0.3633 -0.2285
 5465SOL    HW321627   0.328   3.661   2.819  1.3574 -0.3940 -0.5425
 5465SOL    MW421628   0.375   3.631   2.886  0.5388 -0.2955  0.0797
 5466SOL     OW21629   6.039   0.429   1.317  0.3434 -0.4356  0.3868
 5466SOL    HW221630   6.030   0.335   1.333  0.8857 -0.8402 -1.4554
 5466SOL    HW321631   5.976   0.470   1.378 -0.6403 -2.0381  0.5089
 5466SOL    MW421632   6.029   0.422   1.327  0.2851 -0.7004  0.1598
 5467SOL     OW21633   4.648   6.021   2.068  0.2154  0.2234  0.0784
 5467SOL    HW221634   4.716   5.977   2.018 -0.1830  0.9599 -1.1632
 5467SOL    HW321635   4.693   6.054   2.146  0.3643 -2.9730  1.4558
 5467SOL    MW421636   4.663   6.020   2.071  0.1825 -0.1012  0.0963
 5468SOL     OW21637   3.362   0.589   1.065 -0.1528 -0.0492  0.3919
 5468SOL    HW221638   3.271   0.560   1.063 -0.5856  1.2744  0.1615
 5468SOL    HW321639   3.405   0.536   0.998 -0.5838 -1.1527  0.9533
 5468SOL    MW421640   3.356   0.578   1.056 -0.2668 -0.0201  0.4356
 5469SOL     OW21641   0.082   5.711   3.713 -0.4730  0.3142  0.1983
 5469SOL    HW221642   0.169   5.702   3.674 -0.1718  1.8944  0.4496
 5469SOL    HW321643   0.060   5.803   3.702 -2.6548 -0.2692 -0.9253
 5469SOL    MW421644   0.090   5.722   3.706 -0.7211  0.4457  0.0832
 5470SOL     OW21645   0.026   4.797   2.608 -0.3874  0.8814  0.0409
 5470SOL    HW221646  -0.022   4.715   2.623  1.2252  0.1447  1.6129
 5470SOL    HW321647   0.096   4.772   2.547 -1.2413  1.6704 -1.3081
 5470SOL    MW421648   0.029   4.783   2.602 -0.2873  0.8883  0.0703
 5471SOL     OW21649   0.272   4.237   3.729 -0.1410  0.0139 -0.2330
 5471SOL    HW221650   0.326   4.158   3.738 -0.0422 -0.1225 -1.7223
 5471SOL    HW321651   0.333   4.309   3.738  0.1495 -0.1272 -1.0013
 5471SOL    MW421652   0.287   4.236   3.731 -0.0897 -0.0227 -0.5309
 5472SOL     OW21653   1.594   0.714   1.149  0.0965  0.4450 -0.2722
 5472SOL    HW221654   1.563   0.624   1.136 -1.1909  0.9331 -0.7743
 5472SOL    HW321655   1.683   0.713   1.117  0.2863 -0.7748  0.2056
 5472SOL    MW421656   1.601   0.702   1.143 -0.0483  0.3484 -0.2754
 5473SOL     OW21657   3.302   0.195   3.810 -0.0624 -0.4457  0.5397
 5473SOL    HW221658   3.234   0.171   3.748  0.5896 -0.5296 -0.1528
 5473SOL    HW321659   3.294   0.130   3.880 -0.8814 -0.2760  0.6144
 5473SOL    MW421660   3.292   0.183   3.811 -0.0844 -0.4344  0.4582
 5474SOL     OW21661   1.610   1.110   3.254  0.0455 -0.5762  0.4663
 5474SOL    HW221662   1.639   1.166   3.182 -1.0585  0.7709  1.0272
 5474SOL    HW321663   1.551   1.047   3.213 -0.2476 -0.0828  0.1212
 5474SOL    MW421664   1.606   1.109   3.239 -0.1388 -0.3334  0.4947
 5475SOL     OW21665   5.413   1.982   2.113 -0.2130  0.0002 -0.6698
 5475SOL    HW221666   5.361   2.043   2.165 -0.9004 -0.1977 -1.1240
 5475SOL    HW321667   5.422   1.904   2.169 -0.1059  0.1642 -0.4567
 5475SOL    MW421668   5.408   1.979   2.128 -0.2896 -0.0042 -0.7016
 5476SOL     OW21669   1.888   4.528   4.385  0.4183 -0.2546 -0.4381
 5476SOL    HW221670   1.930   4.512   4.301  0.4133 -0.7578 -0.3471
 5476SOL    HW321671   1.797   4.545   4.364  1.1887  4.4574 -1.0236
 5476SOL    MW421672   1.882   4.528   4.371  0.5193  0.3007 -0.5034
 5477SOL     OW21673   0.068   5.632   2.717  0.0658 -0.6392 -0.4507
 5477SOL    HW221674   0.104   5.633   2.629 -0.9500 -0.1425 -0.8754
 5477SOL    HW321675   0.116   5.700   2.764 -1.0706  0.8453 -1.3424
 5477SOL    MW421676   0.079   5.641   2.712 -0.2181 -0.3778 -0.6244
 5478SOL     OW21677   5.911   1.289   0.597  0.0610  0.3117  0.5588
 5478SOL    HW221678   5.822   1.264   0.622 -1.1591  2.7535 -0.9686
 5478SOL    HW321679   5.911   1.289   0.502  1.5832  0.7339  0.5304
 5478SOL    MW421680   5.900   1.286   0.588  0.1009  0.6896  0.3535
 5479SOL     OW21681   1.079   5.594   2.935 -0.0437  0.1931 -0.0652
 5479SOL    HW221682   1.004   5.626   2.885 -1.3406 -1.0668  0.9924
 5479SOL    HW321683   1.042   5.567   3.019  1.3941 -1.5349  0.0750
 5479SOL    MW421684   1.065   5.595   2.940 -0.0251 -0.2011  0.0928
 5480SOL     OW21685   1.549   6.056   0.533  0.7263  0.0885  0.0588
 5480SOL    HW221686   1.602   5.986   0.494  0.0809 -0.2620 -0.2116
 5480SOL    HW321687   1.465   6.014   0.552  0.8254  0.3985  1.3117
 5480SOL    MW421688   1.545   6.041   0.531  0.6542  0.0831  0.1884
 5481SOL     OW21689   4.347   6.182   3.558  0.5249  0.0242  0.1962
 5481SOL    HW221690   4.312   6.190   3.646  1.8331  1.0158  0.6495
 5481SOL    HW321691   4.294   6.242   3.505  1.4072  1.4088  0.8442
 5481SOL    MW421692   4.335   6.191   3.562  0.8139  0.3377  0.3415
 5482SOL     OW21693   5.639   4.704   0.332  0.3560  0.0830 -0.4390
 5482SOL    HW221694   5.616   4.759   0.406  0.1242  0.3871 -0.7349
 5482SOL    HW321695   5.706   4.753   0.285  1.0344 -0.4352 -0.0325
 5482SOL    MW421696   5.645   4.717   0.335  0.4149  0.0548 -0.4244
 5483SOL     OW21697   3.151   0.110   0.295  0.3724  0.2474  0.4728
 5483SOL    HW221698   3.112   0.051   0.230 -0.7642  1.0048  0.4356
 5483SOL    HW321699   3.094   0.101   0.371  1.5337 -0.4162  1.2853
 5483SOL    MW421700   3.138   0.101   0.296  0.3756  0.2598  0.5751
 5484SOL     OW21701   1.498   1.406   6.136  0.2491  0.4006 -0.1555
 5484SOL    HW221702   1.450   1.351   6.074  0.1775  0.2964 -0.0074
 5484SOL    HW321703   1.535   1.344   6.199 -1.9813  0.6814  1.5420
 5484SOL    MW421704   1.497   1.391   6.136 -0.0547  0.4239  0.0880
 5485SOL     OW21705   2.861   1.471   1.058 -0.3591 -0.0312  0.1272
 5485SOL    HW221706   2.836   1.495   0.969 -1.0826 -0.5381  0.1911
 5485SOL    HW321707   2.952   1.502   1.066 -0.5817  0.8209 -0.4745
 5485SOL    MW421708   2.870   1.479   1.048 -0.4840  0.0143  0.0562
 5486SOL     OW21709   0.455   3.721   5.323 -0.1127 -0.1416 -0.1752
 5486SOL    HW221710   0.366   3.689   5.307 -0.3965  1.4268 -2.2459
 5486SOL    HW321711   0.460   3.735   5.417 -1.7535 -1.1072  0.0775
 5486SOL    MW421712   0.444   3.719   5.333 -0.3666 -0.0621 -0.4150
 5487SOL     OW21713   3.204   4.493   5.610 -0.0714  0.0148  0.1789
 5487SOL    HW221714   3.186   4.579   5.573  0.1411  0.6117  1.4263
 5487SOL    HW321715   3.120   4.447   5.607 -0.2404  0.3460 -0.2574
 5487SOL    MW421716   3.191   4.498   5.604 -0.0657  0.1373  0.2859
 5488SOL     OW21717   4.071   5.412   1.477  0.8118 -0.4394 -0.1886
 5488SOL    HW221718   4.075   5.466   1.398  1.0233  0.6921  0.5702
 5488SOL    HW321719   3.997   5.448   1.527  0.2040 -1.6209 -0.2013
 5488SOL    MW421720   4.062   5.424   1.474  0.7595 -0.4460 -0.0901
 5489SOL     OW21721   4.924   0.274   1.910  0.4385 -0.0386 -0.1784
 5489SOL    HW221722   4.856   0.265   1.843  1.5401  0.3366 -1.4167
 5489SOL    HW321723   4.877   0.292   1.991 -0.8893  2.0708 -1.3226
 5489SOL    MW421724   4.909   0.275   1.912  0.4086  0.2892 -0.4927
 5490SOL     OW21725   3.120   5.132   6.108 -0.6652  0.2641  0.5698
 5490SOL    HW221726   3.145   5.097   6.193 -1.5544  1.2966  1.2873
 5490SOL    HW321727   3.189   5.195   6.086 -0.4307 -0.0087  0.5262
 5490SOL    MW421728   3.132   5.136   6.116 -0.7516  0.3643  0.6587
 5491SOL     OW21729   5.658   3.360   6.038 -0.5893 -0.1877 -0.0433
 5491SOL    HW221730   5.620   3.387   6.122  0.2548 -0.7074  0.5243
 5491SOL    HW321731   5.714   3.434   6.012 -0.8425 -0.0312 -0.1431
 5491SOL    MW421732   5.661   3.373   6.046 -0.5113 -0.2356  0.0184
 5492SOL     OW21733   3.306   2.097   2.934  0.1656 -0.3611 -0.0084
 5492SOL    HW221734   3.214   2.123   2.936  0.3134  0.1367  0.6908
 5492SOL    HW321735   3.308   2.020   2.877 -0.9244 -1.3525  1.2226
 5492SOL    MW421736   3.294   2.091   2.927  0.0413 -0.4262  0.2463
 5493SOL     OW21737   4.955   0.004   1.536  0.1395 -0.6867  0.4931
 5493SOL    HW221738   5.020   0.066   1.505 -0.0375  0.1790  1.7465
 5493SOL    HW321739   4.881   0.015   1.477  1.0170 -1.4983 -0.7852
 5493SOL    MW421740   4.954   0.014   1.524  0.2319 -0.6795  0.4898
 5494SOL     OW21741   3.646   4.200   4.054 -0.1491  0.0421  0.2240
 5494SOL    HW221742   3.671   4.108   4.042  0.0933  0.2948 -1.4636
 5494SOL    HW321743   3.554   4.204   4.031 -0.4307  0.0608  1.2978
 5494SOL    MW421744   3.637   4.189   4.049 -0.1543  0.0779  0.1430
 5495SOL     OW21745   2.126   1.770   2.033 -0.0548 -0.0880  0.4467
 5495SOL    HW221746   2.204   1.821   2.054 -0.5703  1.1195 -0.4467
 5495SOL    HW321747   2.100   1.801   1.946 -1.3731 -0.6523  0.6120
 5495SOL    MW421748   2.133   1.781   2.024 -0.2967 -0.0031  0.3506
 5496SOL     OW21749   1.762   4.745   4.957 -0.6013 -0.8904 -0.1362
 5496SOL    HW221750   1.687   4.734   5.015 -0.3886  1.3514  0.6569
 5496SOL    HW321751   1.797   4.831   4.978  0.8420 -0.9220 -2.0739
 5496SOL    MW421752   1.757   4.755   4.967 -0.3828 -0.5988 -0.2872
 5497SOL     OW21753   0.941   5.438   6.207 -0.0286  0.3848  0.1938
 5497SOL    HW221754   0.987   5.369   6.159 -0.6957  1.0921 -1.5184
 5497SOL    HW321755   0.959   5.418   6.299  0.1951 -1.7899 -0.2596
 5497SOL    MW421756   0.949   5.426   6.213 -0.0871  0.1912 -0.0919
 5498SOL     OW21757   2.885   3.290   1.788 -0.2447 -0.3394  0.1347
 5498SOL    HW221758   2.903   3.384   1.790 -0.4281 -0.2684 -0.8100
 5498SOL    HW321759   2.789   3.284   1.786 -0.2295 -0.5408  0.0100
 5498SOL    MW421760   2.874   3.302   1.788 -0.2669 -0.3566 -0.0064
 5499SOL     OW21761   2.170   6.299   1.088  0.2871  0.0153  0.7071
 5499SOL    HW221762   2.186   6.269   0.999 -0.1412  1.4700  0.1157
 5499SOL    HW321763   2.127   6.225   1.131  0.7595 -0.8024 -0.1955
 5499SOL    MW421764   2.166   6.285   1.082  0.2929  0.0994  0.5100
 5500SOL     OW21765   1.171   4.639   0.283  0.7608 -0.0529  0.0455
 5500SOL    HW221766   1.217   4.689   0.216 -0.3338  0.3586 -0.4341
 5500SOL    HW321767   1.161   4.551   0.246  1.8249 -0.3663  0.4779
 5500SOL    MW421768   1.175   4.634   0.269  0.7568 -0.0400  0.0393
 5501SOL     OW21769   2.644   5.596   4.382 -0.6813  0.3508  0.1685
 5501SOL    HW221770   2.688   5.550   4.453 -0.5608  0.6474  0.2909
 5501SOL    HW321771   2.563   5.629   4.421 -0.0478  1.5720  0.5298
 5501SOL    MW421772   2.639   5.594   4.397 -0.5818  0.5510  0.2323
 5502SOL     OW21773   2.386   2.109   2.567 -0.2755 -0.2868 -0.6905
 5502SOL    HW221774   2.405   2.022   2.601 -1.6747  0.1727  1.4741
 5502SOL    HW321775   2.452   2.166   2.605 -1.6199  0.1664  1.1100
 5502SOL    MW421776   2.397   2.105   2.576 -0.6375 -0.1664 -0.1673
 5503SOL     OW21777   1.582   0.769   5.344  0.5163  0.1704 -0.2779
 5503SOL    HW221778   1.654   0.780   5.406  0.5271  1.9154 -0.5600
 5503SOL    HW321779   1.514   0.723   5.394  0.4450  1.7067  1.1335
 5503SOL    MW421780   1.582   0.764   5.359  0.5083  0.6033 -0.1289
 5504SOL     OW21781   4.136   2.726   4.140 -0.0774  0.2313 -0.8357
 5504SOL    HW221782   4.124   2.811   4.096 -1.3564  0.4372 -0.1429
 5504SOL    HW321783   4.127   2.746   4.233  0.4631 -0.5473 -0.6069
 5504SOL    MW421784   4.133   2.740   4.147 -0.1749  0.1557 -0.7141
 5505SOL     OW21785   4.476   1.818   5.509  0.2425 -0.0471 -0.1935
 5505SOL    HW221786   4.475   1.821   5.413  0.6486  1.4180 -0.1823
 5505SOL    HW321787   4.568   1.818   5.532  0.1480  0.7320  0.2048
 5505SOL    MW421788   4.488   1.818   5.499  0.2836  0.2490 -0.1395
 5506SOL     OW21789   3.853   2.773   4.716 -0.5966  0.0446 -0.2886
 5506SOL    HW221790   3.829   2.707   4.651 -1.7305 -1.9417  2.0073
 5506SOL    HW321791   3.775   2.826   4.727 -0.9669 -0.6580  0.5881
 5506SOL    MW421792   3.840   2.771   4.709 -0.7951 -0.3102  0.1300
 5507SOL     OW21793   6.381   4.827   6.279  0.3669  0.0888 -0.2283
 5507SOL    HW221794   6.365   4.886   6.353  0.5911  0.5944 -0.5724
 5507SOL    HW321795   6.468   4.852   6.247  0.0980  0.1588 -0.9225
 5507SOL    MW421796   6.391   4.838   6.285  0.3610  0.1648 -0.3653
 5508SOL     OW21797   3.192   5.795   3.151  0.3646 -0.4527 -0.4170
 5508SOL    HW221798   3.122   5.861   3.161  1.1790  0.2719  0.8342
 5508SOL    HW321799   3.272   5.841   3.177  0.9152 -2.0384  0.8319
 5508SOL    MW421800   3.193   5.810   3.156  0.5447 -0.5663 -0.0872
 5509SOL     OW21801   3.507   3.837   5.993  0.0958 -0.4462  0.1440
 5509SOL    HW221802   3.455   3.759   5.973 -2.3542  1.3235 -0.8127
 5509SOL    HW321803   3.555   3.855   5.912 -1.0380  0.2298 -0.4077
 5509SOL    MW421804   3.506   3.829   5.980 -0.3770 -0.1235 -0.0550
 5510SOL     OW21805   1.101   5.921   0.368 -0.3230  0.9767  0.0283
 5510SOL    HW221806   1.048   5.989   0.410 -0.5422  1.9527 -1.7241
 5510SOL    HW321807   1.115   5.953   0.279  1.4303 -0.2711 -0.2049
 5510SOL    MW421808   1.096   5.934   0.362 -0.1206  0.9408 -0.2337
 5511SOL     OW21809   5.104   1.567   4.050 -0.2268 -0.0862  0.3275
 5511SOL    HW221810   5.018   1.548   4.014  0.2899 -0.8109 -0.5502
 5511SOL    HW321811   5.097   1.657   4.084 -1.1875  0.0231 -0.1407
 5511SOL    MW421812   5.092   1.577   4.050 -0.2854 -0.1674  0.1499
 5512SOL     OW21813   6.203   4.283   1.651 -0.4810  0.1442 -0.0164
 5512SOL    HW221814   6.107   4.278   1.657 -0.4692  0.6925  0.7783
 5512SOL    HW321815   6.228   4.341   1.723  0.7073 -2.6424  1.9594
 5512SOL    MW421816   6.193   4.290   1.661 -0.3227 -0.1511  0.3491
 5513SOL     OW21817   4.373   4.012   4.881 -0.9597 -0.3948 -0.6124
 5513SOL    HW221818   4.413   4.077   4.824  1.3187 -1.5255 -0.4144
 5513SOL    HW321819   4.444   3.981   4.937 -2.6379 -0.8943  1.3919
 5513SOL    MW421820   4.387   4.016   4.881 -0.8805 -0.6099 -0.3218
 5514SOL     OW21821   1.176   3.728   4.031 -0.0080  0.2561 -0.9747
 5514SOL    HW221822   1.230   3.787   4.083  0.1365  0.3102 -1.1845
 5514SOL    HW321823   1.232   3.703   3.958  0.0393 -0.3877 -0.7211
 5514SOL    MW421824   1.191   3.732   4.028  0.0173  0.1783 -0.9689
 5515SOL     OW21825   2.127   2.404   3.960  0.6115  0.5430  0.1198
 5515SOL    HW221826   2.159   2.315   3.976  0.9849  0.9563  1.8843
 5515SOL    HW321827   2.186   2.460   4.010  0.5095  1.8224 -1.1317
 5515SOL    MW421828   2.139   2.400   3.969  0.6473  0.7664  0.1875
 5516SOL     OW21829   2.532   1.658   5.430  0.1728  0.0852 -0.1095
 5516SOL    HW221830   2.572   1.623   5.510 -0.4883  2.0398  1.1419
 5516SOL    HW321831   2.549   1.591   5.364 -0.7845 -2.4285  2.0401
 5516SOL    MW421832   2.540   1.645   5.432 -0.0407  0.0115  0.3392
 5517SOL     OW21833   4.837   3.782   3.604 -0.1910  0.8477 -0.5482
 5517SOL    HW221834   4.891   3.752   3.530  1.9560  0.4339  1.0812
 5517SOL    HW321835   4.796   3.702   3.637  0.2168  0.7434 -0.2783
 5517SOL    MW421836   4.839   3.767   3.598  0.1460  0.7793 -0.2976
 5518SOL     OW21837   4.284   2.082   5.393 -0.2294 -0.1482  0.4238
 5518SOL    HW221838   4.298   1.997   5.352  1.1915 -0.5391  1.6086
 5518SOL    HW321839   4.234   2.132   5.329 -0.6874 -1.7098 -0.4895
 5518SOL    MW421840   4.279   2.077   5.379 -0.1023 -0.4058  0.4596
 5519SOL     OW21841   5.177   5.398   4.281 -0.2735  0.2022 -0.1050
 5519SOL    HW221842   5.133   5.343   4.346 -0.1821  1.2074  0.8344
 5519SOL    HW321843   5.245   5.444   4.330 -0.4337  1.2551 -0.8282
 5519SOL    MW421844   5.180   5.397   4.296 -0.2826  0.4737 -0.0765
 5520SOL     OW21845   5.958   1.541   1.435  0.5667 -0.2595  0.3329
 5520SOL    HW221846   5.964   1.446   1.431 -0.7090 -0.3110 -1.8933
 5520SOL    HW321847   6.048   1.571   1.431  0.9994 -1.3517  1.2297
 5520SOL    MW421848   5.971   1.532   1.434  0.4555 -0.4104  0.1575
 5521SOL     OW21849   4.641   2.960   4.043 -0.9536 -0.1555  0.0968
 5521SOL    HW221850   4.670   2.958   3.952  2.5727 -2.8876  1.0360
 5521SOL    HW321851   4.619   2.869   4.063 -0.0313  0.0455  2.3627
 5521SOL    MW421852   4.642   2.948   4.034 -0.3667 -0.4894  0.5196
 5522SOL     OW21853   2.931   4.576   6.281  0.3954 -0.2131  0.7468
 5522SOL    HW221854   2.840   4.591   6.307  0.1249 -1.4939  0.6171
 5522SOL    HW321855   2.968   4.664   6.269 -0.8713  0.3148  0.6024
 5522SOL    MW421856   2.924   4.589   6.283  0.1926 -0.3124  0.7106
 5523SOL     OW21857   0.873   5.898   4.142  0.2273  0.2886 -0.2989
 5523SOL    HW221858   0.912   5.922   4.226 -0.1097 -0.0646 -0.0388
 5523SOL    HW321859   0.786   5.938   4.144  0.0860 -0.0198 -0.3360
 5523SOL    MW421860   0.867   5.907   4.153  0.1642  0.2013 -0.2694
 5524SOL     OW21861   6.096   3.956   2.689 -0.1500 -0.0788 -0.1008
 5524SOL    HW221862   6.003   3.954   2.668 -0.1250 -0.2312 -0.1980
 5524SOL    HW321863   6.140   3.974   2.606 -0.1850  1.7519  0.2345
 5524SOL    MW421864   6.089   3.958   2.676 -0.1514  0.1426 -0.0694
 5525SOL     OW21865   1.478   5.551   1.512  0.3161 -0.1724  0.2071
 5525SOL    HW221866   1.531   5.496   1.454  1.8650  1.0425  0.3895
 5525SOL    HW321867   1.482   5.507   1.597  1.5468  0.1660  0.3515
 5525SOL    MW421868   1.485   5.538   1.516  0.6829  0.0325  0.2502
 5526SOL     OW21869   3.818   1.842   6.128 -0.2759 -0.0965 -0.5777
 5526SOL    HW221870   3.742   1.879   6.173  0.0089  0.5784 -0.6276
 5526SOL    HW321871   3.814   1.879   6.039 -2.3617 -3.5196 -2.0865
 5526SOL    MW421872   3.808   1.852   6.122 -0.5135 -0.4590 -0.7834
 5527SOL     OW21873   2.381   0.579   3.124  0.1867 -0.2146  0.1134
 5527SOL    HW221874   2.328   0.511   3.165 -0.2404  0.8512  1.4157
 5527SOL    HW321875   2.333   0.601   3.044  0.5573 -1.6998 -0.5550
 5527SOL    MW421876   2.367   0.573   3.119  0.1792 -0.2699  0.1970
 5528SOL     OW21877   2.896   1.011   2.381  0.3167 -0.4891 -0.4551
 5528SOL    HW221878   2.907   1.036   2.472  1.1930 -1.0434 -0.3928
 5528SOL    HW321879   2.824   0.948   2.382 -2.3008  2.2786 -0.6907
 5528SOL    MW421880   2.888   1.006   2.393  0.0870 -0.1971 -0.4779
 5529SOL     OW21881   0.518   3.866   3.316  0.0067  0.0485 -0.0463
 5529SOL    HW221882   0.577   3.941   3.305 -1.5093  1.2791 -0.0894
 5529SOL    HW321883   0.433   3.905   3.338 -0.6018 -1.7089  0.9002
 5529SOL    MW421884   0.514   3.881   3.318 -0.2736 -0.0210  0.0729
 5530SOL     OW21885   3.478   2.821   5.052  0.1138 -0.5599 -0.8021
 5530SOL    HW221886   3.425   2.748   5.019  0.2066  0.5002 -3.5804
 5530SOL    HW321887   3.540   2.838   4.981  0.3527  1.9351 -0.0552
 5530SOL    MW421888   3.479   2.813   5.038  0.1575 -0.0909 -1.0702
 5531SOL     OW21889   3.693   0.924   4.711  0.2639 -0.3023 -0.1326
 5531SOL    HW221890   3.713   1.006   4.667  1.3893 -0.4150  0.1401
 5531SOL    HW321891   3.679   0.948   4.802 -0.0342 -0.3400 -0.1657
 5531SOL    MW421892   3.694   0.938   4.717  0.3730 -0.3222 -0.1010
 5532SOL     OW21893   0.553   4.684   2.578  0.3559 -0.0166  0.0195
 5532SOL    HW221894   0.475   4.630   2.573  1.0919 -1.0730 -0.4644
 5532SOL    HW321895   0.582   4.693   2.487  1.3330 -0.4476  0.2792
 5532SOL    MW421896   0.547   4.678   2.566  0.5819 -0.2128 -0.0101
 5533SOL     OW21897   1.692   2.161   4.032  0.0022 -0.8796  0.9402
 5533SOL    HW221898   1.739   2.088   3.990 -0.8027  0.0023 -1.6491
 5533SOL    HW321899   1.600   2.143   4.016 -0.5243 -1.2728  3.7971
 5533SOL    MW421900   1.686   2.149   4.024 -0.1735 -0.8151  0.9755
 5534SOL     OW21901   1.427   5.818   3.672 -0.0243  0.2235 -0.1849
 5534SOL    HW221902   1.385   5.764   3.738 -1.4290  0.4867 -0.8344
 5534SOL    HW321903   1.521   5.804   3.685 -0.1283  1.7684  3.1477
 5534SOL    MW421904   1.434   5.809   3.682 -0.2234  0.4620  0.1691
 5535SOL     OW21905   2.737   4.988   5.918 -0.1089 -0.5120  0.2834
 5535SOL    HW221906   2.665   5.050   5.905  2.0119  2.0456 -0.1753
 5535SOL    HW321907   2.727   4.958   6.008 -0.9654  0.8586  0.6694
 5535SOL    MW421908   2.726   4.992   5.928  0.0579  0.0063  0.2738
 5536SOL     OW21909   0.119   6.409   0.532 -0.0496 -0.6939  0.2130
 5536SOL    HW221910   0.178   6.334   0.542 -0.3022 -0.9781 -0.3732
 5536SOL    HW321911   0.172   6.485   0.559 -0.2913 -1.2326  2.3803
 5536SOL    MW421912   0.134   6.409   0.537 -0.1148 -0.8024  0.4216
 5537SOL     OW21913   0.753   2.604   4.351 -0.3827  0.1323 -0.5075
 5537SOL    HW221914   0.800   2.608   4.268 -0.5972 -0.3398 -0.6595
 5537SOL    HW321915   0.819   2.623   4.417 -0.4006  1.4239 -0.8368
 5537SOL    MW421916   0.768   2.607   4.349 -0.4133  0.2404 -0.5710
 5538SOL     OW21917   5.344   0.200   1.259  0.5686 -0.3867  0.4074
 5538SOL    HW221918   5.267   0.217   1.204  0.0170 -0.7112  1.0517
 5538SOL    HW321919   5.395   0.281   1.255 -0.2742  0.1846  0.6814
 5538SOL    MW421920   5.340   0.213   1.251  0.3846 -0.3541  0.5286
 5539SOL     OW21921   5.441   3.130   4.735 -0.1022  0.1999  0.1727
 5539SOL    HW221922   5.503   3.123   4.809  0.0155  0.5772  0.1086
 5539SOL    HW321923   5.373   3.189   4.767  0.3219  0.9476 -0.2762
 5539SOL    MW421924   5.440   3.137   4.749 -0.0307  0.3483  0.1050
 5540SOL     OW21925   6.157   5.215   2.958  0.0663 -0.2908 -0.0494
 5540SOL    HW221926   6.192   5.300   2.931  0.4870  0.1192  1.6520
 5540SOL    HW321927   6.064   5.220   2.939 -0.3527  1.4818  2.0274
 5540SOL    MW421928   6.150   5.227   2.952  0.0665 -0.0028  0.4491
 5541SOL     OW21929   0.145   2.776   6.041 -0.1254  0.1295 -0.3787
 5541SOL    HW221930   0.075   2.709   6.039  0.2302 -0.5193  3.1780
 5541SOL    HW321931   0.209   2.741   6.102  1.9013  2.1373 -1.2497
 5541SOL    MW421932   0.144   2.762   6.049  0.1889  0.3088 -0.0244
 5542SOL     OW21933   3.287   5.353   6.048  0.2263  0.2585 -0.7123
 5542SOL    HW221934   3.203   5.364   6.002  0.4472 -2.0482 -1.8040
 5542SOL    HW321935   3.320   5.442   6.058 -1.7805  1.1393 -1.3586
 5542SOL    MW421936   3.280   5.366   6.043 -0.0094  0.0704 -0.9416
 5543SOL     OW21937   1.886   4.381   0.756  0.0808  0.2892 -0.4890
 5543SOL    HW221938   1.924   4.326   0.688  0.1760 -0.3097  0.0420
 5543SOL    HW321939   1.961   4.419   0.801  0.0271  0.1804 -0.3091
 5543SOL    MW421940   1.901   4.379   0.753  0.0862  0.1959 -0.3952
 5544SOL     OW21941   1.120   2.070   2.257  0.3989  0.1163 -0.2466
 5544SOL    HW221942   1.103   2.148   2.204 -1.2704 -0.5363 -0.7667
 5544SOL    HW321943   1.045   2.065   2.316  1.4910 -0.0024  1.1787
 5544SOL    MW421944   1.108   2.079   2.258  0.3228  0.0145 -0.1271
 5545SOL     OW21945   0.154   2.709   1.402  0.2191 -0.2663 -0.5098
 5545SOL    HW221946   0.215   2.745   1.467 -1.2317 -0.3826  0.9701
 5545SOL    HW321947   0.199   2.631   1.369  1.6048  0.5848 -0.7417
 5545SOL    MW421948   0.168   2.704   1.406  0.2105 -0.1693 -0.3451
 5546SOL     OW21949   3.130   4.272   3.952  0.2115 -0.3816 -0.2543
 5546SOL    HW221950   3.067   4.256   3.881  0.6310  1.0908 -0.9907
 5546SOL    HW321951   3.076   4.303   4.025 -0.0325 -0.0625 -0.5636
 5546SOL    MW421952   3.115   4.274   3.952  0.2346 -0.1452 -0.3923
 5547SOL     OW21953   1.102   6.138   2.361 -0.5685  0.0731 -0.2691
 5547SOL    HW221954   1.043   6.063   2.354  1.2946 -1.4082 -0.7126
 5547SOL    HW321955   1.165   6.126   2.290 -1.0304  2.8608 -1.2681
 5547SOL    MW421956   1.103   6.127   2.351 -0.3836  0.2454 -0.4594
 5548SOL     OW21957   3.072   0.849   5.739  0.2187 -0.2530  0.5579
 5548SOL    HW221958   2.987   0.806   5.752  0.7256 -2.1250 -1.5818
 5548SOL    HW321959   3.054   0.942   5.753 -1.8778 -0.7296  1.4319
 5548SOL    MW421960   3.058   0.856   5.742  0.0090 -0.5629  0.3909
 5549SOL     OW21961   1.748   5.977   2.398 -0.0837  0.9454  0.5640
 5549SOL    HW221962   1.813   5.915   2.366 -0.9036 -0.8314  2.1473
 5549SOL    HW321963   1.761   5.980   2.493 -1.9834  0.8765  0.8761
 5549SOL    MW421964   1.758   5.970   2.407 -0.4425  0.7019  0.8140
 5550SOL     OW21965   5.474   4.863   2.178 -0.6185  0.2543 -0.1664
 5550SOL    HW221966   5.547   4.827   2.229 -0.2445  0.6438 -0.4142
 5550SOL    HW321967   5.396   4.841   2.229 -0.2406  0.7571  0.6558
 5550SOL    MW421968   5.474   4.855   2.192 -0.5193  0.3720 -0.0906
 5551SOL     OW21969   1.639   1.080   2.949  0.2687  0.1418 -0.0492
 5551SOL    HW221970   1.713   1.053   2.894 -0.3844 -1.3132 -0.2605
 5551SOL    HW321971   1.614   1.166   2.916  1.3064  0.2682 -0.5520
 5551SOL    MW421972   1.646   1.087   2.938  0.3194 -0.0335 -0.1434
 5552SOL     OW21973   2.200   6.127   6.337  0.2174  0.6028  0.0255
 5552SOL    HW221974   2.119   6.176   6.324  0.2591  0.1982 -2.0708
 5552SOL    HW321975   2.269   6.191   6.324  0.2579  0.2150 -1.9052
 5552SOL    MW421976   2.198   6.142   6.334  0.2283  0.4982 -0.5058
 5553SOL     OW21977   1.846   5.738   1.317 -0.1685 -0.1130 -0.7025
 5553SOL    HW221978   1.917   5.686   1.280  0.8770  1.1749 -0.5908
 5553SOL    HW321979   1.851   5.722   1.411 -0.3488 -0.3960 -0.7389
 5553SOL    MW421980   1.856   5.729   1.324 -0.0543  0.0196 -0.6926
 5554SOL     OW21981   1.009   0.207   4.493  0.0574  0.0514 -0.3101
 5554SOL    HW221982   1.028   0.261   4.570 -1.0114  0.8249 -0.5746
 5554SOL    HW321983   0.938   0.149   4.522 -0.1387  0.1333 -0.6255
 5554SOL    MW421984   1.002   0.206   4.507 -0.1095  0.1643 -0.3866
 5555SOL     OW21985   0.901   4.176   2.670  0.3231  0.2797  0.0649
 5555SOL    HW221986   0.872   4.085   2.667 -2.5274  1.1283 -0.6977
 5555SOL    HW321987   0.909   4.202   2.578  0.3154  1.0428  0.2741
 5555SOL    MW421988   0.898   4.167   2.658 -0.0540  0.4923 -0.0081
 5556SOL     OW21989   4.164   5.271   5.715 -0.3397  0.2323 -0.4161
 5556SOL    HW221990   4.252   5.278   5.751 -1.2476  1.2257  1.8296
 5556SOL    HW321991   4.156   5.179   5.688  1.1604 -0.0129 -0.0866
 5556SOL    MW421992   4.174   5.260   5.716 -0.2616  0.3310 -0.0763
 5557SOL     OW21993   5.076   3.487   4.846  0.4742  0.4256 -0.5289
 5557SOL    HW221994   4.988   3.520   4.826  0.5213  1.0153  0.1538
 5557SOL    HW321995   5.063   3.430   4.922  0.6383  0.2545 -0.6286
 5557SOL    MW421996   5.062   3.484   4.854  0.5021  0.4808 -0.4520
 5558SOL     OW21997   1.933   2.692   4.419  0.2308 -0.0328 -0.5153
 5558SOL    HW221998   1.995   2.625   4.447  2.9626  2.0441 -1.0602
 5558SOL    HW321999   1.895   2.659   4.338  1.1398 -1.1095 -0.5199
 5558SOL    MW422000   1.936   2.679   4.412  0.7112  0.0992 -0.5878
 5559SOL     OW22001   1.582   4.249   4.837 -0.0388  0.3672  0.3295
 5559SOL    HW222002   1.662   4.197   4.842 -0.6724 -0.6361  0.3300
 5559SOL    HW322003   1.612   4.339   4.825  1.0944  0.0956  1.0193
 5559SOL    MW422004   1.596   4.254   4.836  0.0271  0.1990  0.4206
 5560SOL     OW22005   0.967   5.664   1.234  0.0018  0.2088  0.2910
 5560SOL    HW222006   0.902   5.602   1.267  0.3943 -0.3463  0.0378
 5560SOL    HW322007   0.980   5.639   1.143 -0.3649  1.1255 -0.0254
 5560SOL    MW422008   0.960   5.653   1.227  0.0052  0.2565  0.2158
 5561SOL     OW22009   0.134   4.772   1.523 -0.2028  0.4893  0.1363
 5561SOL    HW222010   0.105   4.804   1.608  0.3974 -1.1432  0.9905
 5561SOL    HW322011   0.086   4.690   1.510  1.2942 -0.4029 -0.0535
 5561SOL    MW422012   0.124   4.765   1.532  0.0739  0.1562  0.2240
 5562SOL     OW22013   5.191   2.434   1.156 -0.1228 -0.0872  0.7106
 5562SOL    HW222014   5.218   2.526   1.163 -0.6342 -0.0338  2.5489
 5562SOL    HW322015   5.225   2.394   1.236  2.1120 -2.1003 -1.0757
 5562SOL    MW422016   5.199   2.441   1.168  0.1046 -0.3457  0.7174
 5563SOL     OW22017   2.980   1.190   4.722  0.2028 -0.9591 -0.0785
 5563SOL    HW222018   3.009   1.125   4.658  1.3540  1.3332 -2.0732
 5563SOL    HW322019   3.056   1.247   4.734 -0.4233 -0.5280  2.3977
 5563SOL    MW422020   2.994   1.189   4.715  0.2721 -0.5998 -0.0150
 5564SOL     OW22021   5.932   4.557   0.180  0.2359 -0.0355 -0.2429
 5564SOL    HW222022   5.981   4.542   0.099  0.8746  0.3767  0.0599
 5564SOL    HW322023   5.990   4.610   0.234 -0.7307  0.8513 -0.0507
 5564SOL    MW422024   5.946   4.562   0.176  0.1926  0.1359 -0.1776
 5565SOL     OW22025  -0.036   5.953   1.661  0.2619 -0.2536 -0.3119
 5565SOL    HW222026  -0.001   5.872   1.698  0.5019 -0.4814 -1.0175
 5565SOL    HW322027  -0.126   5.931   1.637  0.1268 -0.1254  0.0809
 5565SOL    MW422028  -0.043   5.939   1.662  0.2757 -0.2668 -0.3531
 5566SOL     OW22029   3.694   4.667   6.194 -0.7900  0.1833  0.5746
 5566SOL    HW222030   3.646   4.586   6.210  0.1652 -0.6958 -0.7755
 5566SOL    HW322031   3.748   4.679   6.272 -0.4813 -0.8219  0.5254
 5566SOL    MW422032   3.695   4.658   6.206 -0.6232 -0.0653  0.3900
 5567SOL     OW22033   5.618   5.907   5.565  0.1577 -0.5989 -0.1655
 5567SOL    HW222034   5.600   5.886   5.473 -0.0363 -0.9097 -0.0587
 5567SOL    HW322035   5.627   6.002   5.566 -3.4055 -0.1233  0.0422
 5567SOL    MW422036   5.616   5.917   5.553 -0.3380 -0.5772 -0.1240
 5568SOL     OW22037   4.079   3.711   1.476 -0.5263  0.2943  0.0376
 5568SOL    HW222038   4.059   3.748   1.562 -0.2647 -1.7867  1.0676
 5568SOL    HW322039   4.056   3.618   1.484 -2.5016  0.3891 -2.8339
 5568SOL    MW422040   4.073   3.704   1.488 -0.7524  0.0323 -0.2054
 5569SOL     OW22041   3.132   5.085   5.623  0.5735  0.5329 -0.7038
 5569SOL    HW222042   3.071   5.053   5.556  0.5943  0.2146 -0.5690
 5569SOL    HW322043   3.086   5.075   5.705  0.4833  1.0870 -0.6845
 5569SOL    MW422044   3.118   5.080   5.625  0.5643  0.5640 -0.6835
 5570SOL     OW22045   4.997   3.982   1.417  0.0453  0.1002 -0.5152
 5570SOL    HW222046   5.058   3.979   1.344 -1.6287 -1.3852 -1.9259
 5570SOL    HW322047   4.911   3.981   1.377 -0.9393  0.1342  1.4686
 5570SOL    MW422048   4.994   3.982   1.402 -0.3055 -0.0913 -0.4396
 5571SOL     OW22049   2.577   2.381   1.344 -0.4040 -0.0098 -0.2797
 5571SOL    HW222050   2.577   2.463   1.295  0.6372 -0.2705 -0.7425
 5571SOL    HW322051   2.499   2.335   1.313  1.2272 -1.0494 -3.2622
 5571SOL    MW422052   2.567   2.386   1.333 -0.0514 -0.1814 -0.7343
 5572SOL     OW22053   1.476   1.246   1.531 -0.5421  0.3459  0.5611
 5572SOL    HW222054   1.431   1.308   1.473 -1.8337 -0.2326  0.9211
 5572SOL    HW322055   1.469   1.162   1.486  1.7570  0.5131 -0.2303
 5572SOL    MW422056   1.469   1.243   1.517 -0.4092  0.2916  0.5042
 5573SOL     OW22057   2.314   1.232   4.037  0.1633 -0.2322 -0.0245
 5573SOL    HW222058   2.385   1.247   4.099 -1.4862  0.4097  1.8477
 5573SOL    HW322059   2.282   1.320   4.015 -0.4068 -0.5207 -0.3903
 5573SOL    MW422060   2.319   1.246   4.042 -0.1295 -0.1855  0.1742
 5574SOL     OW22061   5.401   1.433   0.379  0.6970 -0.6832  0.1180
 5574SOL    HW222062   5.462   1.494   0.420  0.6592 -0.6901  0.1844
 5574SOL    HW322063   5.342   1.407   0.450  1.0090 -1.1687  0.1966
 5574SOL    MW422064   5.401   1.438   0.394  0.7331 -0.7481  0.1372
 5575SOL     OW22065   0.725   0.235   5.137  0.4530 -0.3324 -0.0391
 5575SOL    HW222066   0.691   0.199   5.219 -1.1460 -0.3398 -0.6728
 5575SOL    HW322067   0.731   0.159   5.079  0.2790 -0.1140 -0.3436
 5575SOL    MW422068   0.722   0.220   5.141  0.2191 -0.3046 -0.1629
 5576SOL     OW22069   5.789   5.664   2.244 -0.1721 -0.3115  0.0416
 5576SOL    HW222070   5.721   5.654   2.310 -0.1182 -1.0401 -0.0027
 5576SOL    HW322071   5.765   5.601   2.176 -2.5783  3.1338 -2.7066
 5576SOL    MW422072   5.777   5.654   2.243 -0.4824  0.0470 -0.3269
 5577SOL     OW22073   2.493   3.674   0.505 -0.1169  0.1576  0.6293
 5577SOL    HW222074   2.406   3.661   0.468  0.0528  0.4276  0.1264
 5577SOL    HW322075   2.529   3.586   0.513  0.4727  0.1606 -1.3971
 5577SOL    MW422076   2.486   3.661   0.501 -0.0167  0.1936  0.2956
 5578SOL     OW22077   0.008   3.115   0.196 -0.6015 -0.5484 -0.5110
 5578SOL    HW222078   0.103   3.099   0.204 -0.4884  0.6122  1.0366
 5578SOL    HW322079  -0.032   3.045   0.248 -0.6283 -1.1874 -1.3703
 5578SOL    MW422080   0.016   3.104   0.204 -0.5901 -0.4796 -0.4202
 5579SOL     OW22081   2.383   4.910   2.843 -0.0016  0.3092  0.6134
 5579SOL    HW222082   2.314   4.905   2.777  0.8173 -0.7832 -0.1851
 5579SOL    HW322083   2.458   4.947   2.797  0.0926  1.1076  1.3745
 5579SOL    MW422084   2.384   4.914   2.828  0.1189  0.2704  0.6085
 5580SOL     OW22085   3.290   3.703   4.346  0.0103 -0.0337 -0.9685
 5580SOL    HW222086   3.354   3.757   4.299 -0.2441  1.1129 -0.0550
 5580SOL    HW322087   3.209   3.711   4.295  0.0586  0.1926 -1.0103
 5580SOL    MW422088   3.288   3.711   4.333 -0.0168  0.1474 -0.8535
 5581SOL     OW22089   3.635   4.846   0.601  0.2762 -0.0312  0.0686
 5581SOL    HW222090   3.681   4.924   0.632  0.0249  0.3181 -0.4349
 5581SOL    HW322091   3.571   4.827   0.670  0.4435  0.1171  0.2659
 5581SOL    MW422092   3.633   4.854   0.614  0.2652  0.0344  0.0282
 5582SOL     OW22093   0.243   1.710   1.523 -0.0910 -0.6492  0.1147
 5582SOL    HW222094   0.226   1.635   1.580 -0.1932 -0.6524  0.0816
 5582SOL    HW322095   0.330   1.695   1.488  0.8958  0.4558  1.9775
 5582SOL    MW422096   0.252   1.698   1.526  0.0257 -0.5038  0.3561
 5583SOL     OW22097   1.095   5.143   0.217  0.1269 -0.0062 -0.4600
 5583SOL    HW222098   1.012   5.183   0.189 -0.3933 -1.0050 -0.3967
 5583SOL    HW322099   1.161   5.209   0.198 -0.8111  1.2874  0.5497
 5583SOL    MW422100   1.092   5.157   0.211 -0.0655  0.0327 -0.3184
 5584SOL     OW22101   6.089   1.158   4.184  0.0006  0.0591 -0.1535
 5584SOL    HW222102   6.013   1.111   4.149  0.9517 -1.3617 -0.4234
 5584SOL    HW322103   6.164   1.113   4.144  0.9824  1.5289 -0.0192
 5584SOL    MW422104   6.089   1.146   4.174  0.2556  0.0656 -0.1714
 5585SOL     OW22105   5.503   3.090   5.179 -0.5970  0.4916 -0.0853
 5585SOL    HW222106   5.528   3.131   5.263 -1.9660  2.0882 -0.4019
 5585SOL    HW322107   5.447   3.017   5.204 -0.0359  0.2289  0.4314
 5585SOL    MW422108   5.499   3.086   5.194 -0.7036  0.6676 -0.0589
 5586SOL     OW22109   2.124   5.413   2.279  0.2029  0.0891 -0.4764
 5586SOL    HW222110   2.201   5.360   2.300  0.2438  0.0018 -0.8346
 5586SOL    HW322111   2.159   5.501   2.265  0.8185 -0.6006 -4.2151
 5586SOL    MW422112   2.139   5.418   2.280  0.2896 -0.0134 -1.0169
 5587SOL     OW22113   3.370   3.087   3.740 -0.2348 -0.1531 -0.3919
 5587SOL    HW222114   3.438   3.125   3.685  0.8045 -0.5238  0.6120
 5587SOL    HW322115   3.367   3.144   3.818 -0.7033 -0.4478 -0.1884
 5587SOL    MW422116   3.378   3.100   3.743 -0.1595 -0.2409 -0.2326
 5588SOL     OW22117   4.859   1.138   0.466  0.2746  0.1490  0.1792
 5588SOL    HW222118   4.851   1.233   0.457 -2.1045 -0.1072 -1.6157
 5588SOL    HW322119   4.935   1.115   0.413 -0.2861  0.9397 -1.0289
 5588SOL    MW422120   4.868   1.148   0.458 -0.1133  0.2195 -0.2170
 5589SOL     OW22121   5.122   4.267   1.560 -0.3467  0.6415 -0.2816
 5589SOL    HW222122   5.135   4.351   1.604 -0.6882  1.3710 -1.5314
 5589SOL    HW322123   5.210   4.231   1.551 -0.0383  1.5429 -1.0160
 5589SOL    MW422124   5.136   4.273   1.565 -0.3511  0.8567 -0.5434
 5590SOL     OW22125   0.526   2.111   2.333  0.1911  0.7477 -0.0385
 5590SOL    HW222126   0.451   2.067   2.294 -0.0939  0.1186  1.1688
 5590SOL    HW322127   0.494   2.197   2.359  0.0937  0.7639 -0.2150
 5590SOL    MW422128   0.512   2.117   2.332  0.1407  0.6669  0.0975
 5591SOL     OW22129   1.203   0.086   4.913 -0.2458 -0.0274 -0.4997
 5591SOL    HW222130   1.200   0.011   4.973  0.9914 -0.4502 -0.9529
 5591SOL    HW322131   1.287   0.078   4.868 -0.5904  1.0127 -1.3645
 5591SOL    MW422132   1.213   0.075   4.915 -0.1281  0.0541 -0.6736
 5592SOL     OW22133   5.303   5.630   5.013 -0.3001  0.4386 -0.0248
 5592SOL    HW222134   5.315   5.720   5.044 -1.4451  0.4255  0.4846
 5592SOL    HW322135   5.213   5.627   4.982 -0.1334 -0.4191 -0.4493
 5592SOL    MW422136   5.293   5.641   5.013 -0.4292  0.3237 -0.0136
 5593SOL     OW22137   2.744   1.478   3.155 -0.2842 -0.5421  0.0813
 5593SOL    HW222138   2.683   1.404   3.154  0.2555 -0.9944 -0.0012
 5593SOL    HW322139   2.778   1.483   3.065 -1.9286  1.1880 -0.5172
 5593SOL    MW422140   2.741   1.469   3.143 -0.4300 -0.3735 -0.0085
 5594SOL     OW22141   2.514   1.261   4.241  0.0960  0.2882  0.3835
 5594SOL    HW222142   2.501   1.309   4.324 -0.4086  1.4464 -0.3394
 5594SOL    HW322143   2.602   1.288   4.212 -0.6952  1.9162 -0.6928
 5594SOL    MW422144   2.524   1.271   4.248 -0.0750  0.6558  0.1461
 5595SOL     OW22145   5.086   2.803   2.976  0.5636 -0.0487  0.0189
 5595SOL    HW222146   5.006   2.853   2.961 -0.2304 -0.9229  1.1832
 5595SOL    HW322147   5.156   2.860   2.944 -0.4352  1.1713 -0.0720
 5595SOL    MW422148   5.085   2.817   2.970  0.3271 -0.0031  0.1606
 5596SOL     OW22149   2.313   1.094   0.719 -0.4439 -0.8774  0.5932
 5596SOL    HW222150   2.241   1.157   0.717 -0.6717 -1.1018  1.3729
 5596SOL    HW322151   2.377   1.128   0.657 -0.6826 -0.0296  0.8030
 5596SOL    MW422152   2.312   1.107   0.710 -0.5054 -0.7951  0.7237
 5597SOL     OW22153   5.402   0.251   6.370 -0.4031  0.2356  0.7099
 5597SOL    HW222154   5.477   0.272   6.426  0.2395  0.4437 -0.1925
 5597SOL    HW322155   5.435   0.181   6.313 -1.3063 -0.5565  1.1349
 5597SOL    MW422156   5.417   0.244   6.370 -0.4375  0.1586  0.6469
 5598SOL     OW22157   5.443   5.379   1.537 -0.0452  0.5093  0.2866
 5598SOL    HW222158   5.400   5.430   1.606  0.6830  0.1331  1.0236
 5598SOL    HW322159   5.412   5.290   1.549 -1.3847  0.7435 -1.0575
 5598SOL    MW422160   5.433   5.374   1.548 -0.1259  0.4906  0.2065
 5599SOL     OW22161   6.236   4.715   0.704 -0.5225 -0.0555 -0.1323
 5599SOL    HW222162   6.317   4.686   0.746 -0.2818 -1.3015 -1.3833
 5599SOL    HW322163   6.167   4.665   0.749 -0.2846 -1.2389 -1.0390
 5599SOL    MW422164   6.237   4.705   0.716 -0.4594 -0.3760 -0.4170
 5600SOL     OW22165   1.127   3.955   3.782  0.4306 -0.4599  0.2307
 5600SOL    HW222166   1.137   3.862   3.800  0.3412 -0.2934  1.2009
 5600SOL    HW322167   1.179   3.970   3.702  0.5774 -1.2982  0.1598
 5600SOL    MW422168   1.135   3.945   3.774  0.4382 -0.5485  0.3493
 5601SOL     OW22169   3.114   3.877   1.736  0.9536  0.0296 -0.5558
 5601SOL    HW222170   3.093   3.797   1.689  2.0083 -0.0097 -1.0000
 5601SOL    HW322171   3.049   3.941   1.707  1.4871 -0.0331 -1.9881
 5601SOL    MW422172   3.103   3.875   1.726  1.1631  0.0162 -0.8034
 5602SOL     OW22173   1.505   3.867   3.769 -0.0974  0.4877 -0.9100
 5602SOL    HW222174   1.537   3.932   3.707 -1.8163  0.7981 -1.5235
 5602SOL    HW322175   1.542   3.894   3.853 -0.3017  1.9099 -1.2499
 5602SOL    MW422176   1.514   3.879   3.772 -0.3512  0.7163 -1.0358
 5603SOL     OW22177   2.680   0.076   0.047 -0.2292 -0.1851  1.1943
 5603SOL    HW222178   2.597   0.033   0.066 -1.7514  1.5460 -1.0742
 5603SOL    HW322179   2.696   0.133   0.122 -1.3027 -0.2250  1.4610
 5603SOL    MW422180   2.671   0.077   0.059 -0.5717  0.0381  0.9302
 5604SOL     OW22181   1.281   3.197   0.681 -0.8424 -0.0622  0.1746
 5604SOL    HW222182   1.304   3.107   0.707  2.0512 -0.2847 -2.4691
 5604SOL    HW322183   1.245   3.187   0.593 -0.1084  1.3639 -0.3116
 5604SOL    MW422184   1.279   3.184   0.673 -0.3638  0.0966 -0.2383
 5605SOL     OW22185   2.731   5.976   2.034 -0.1249  0.0734  0.1230
 5605SOL    HW222186   2.655   6.025   2.001  1.4335  1.0686 -2.2126
 5605SOL    HW322187   2.758   6.025   2.112 -1.3371  0.1983  0.4899
 5605SOL    MW422188   2.724   5.989   2.040 -0.0792  0.2212 -0.1367
 5606SOL     OW22189   0.476   3.105   3.389 -0.0334 -0.9796 -0.0996
 5606SOL    HW222190   0.563   3.065   3.386  0.5262  0.1731  0.4174
 5606SOL    HW322191   0.417   3.035   3.360  1.0428 -1.8102 -0.3548
 5606SOL    MW422192   0.479   3.090   3.385  0.1825 -0.9371 -0.0651
 5607SOL     OW22193   2.338   0.885   4.515  0.2495  0.6742 -0.1407
 5607SOL    HW222194   2.388   0.863   4.437  0.6750 -1.4048  0.6644
 5607SOL    HW322195   2.354   0.813   4.576 -0.8095  1.7689  1.5303
 5607SOL    MW422196   2.346   0.873   4.513  0.1659  0.5444  0.1860
 5608SOL     OW22197   0.443   1.082   5.183 -0.1530 -0.7422  0.2730
 5608SOL    HW222198   0.485   1.146   5.242 -1.3755  0.3202  0.0446
 5608SOL    HW322199   0.495   1.003   5.193  0.8676  0.0145  1.2800
 5608SOL    MW422200   0.455   1.080   5.192 -0.1796 -0.5022  0.3757
 5609SOL     OW22201   5.616   4.676   4.102  0.8697  0.2894 -0.0103
 5609SOL    HW222202   5.670   4.678   4.181  1.8239 -0.1422 -0.6367
 5609SOL    HW322203   5.656   4.741   4.044  1.1386 -0.5258 -0.7513
 5609SOL    MW422204   5.628   4.685   4.105  1.0311  0.1249 -0.1907
 5610SOL     OW22205   0.903   1.544   5.313  0.3850 -0.0748  0.3601
 5610SOL    HW222206   0.901   1.633   5.277  0.5829  0.0527  0.6645
 5610SOL    HW322207   0.829   1.500   5.271  0.6005  0.0757 -0.1968
 5610SOL    MW422208   0.893   1.550   5.303  0.4395 -0.0381  0.3268
 5611SOL     OW22209   3.228   4.281   1.389 -0.1090 -0.0770  0.4928
 5611SOL    HW222210   3.145   4.318   1.358  0.3899  0.4739 -0.2183
 5611SOL    HW322211   3.293   4.348   1.369  0.8949 -1.4683 -1.2185
 5611SOL    MW422212   3.225   4.295   1.382  0.0892 -0.1879  0.1732
 5612SOL     OW22213   0.492   6.060   4.820 -0.5474  0.5973  0.4938
 5612SOL    HW222214   0.468   6.057   4.728 -1.5403  1.2194  0.7037
 5612SOL    HW322215   0.505   6.153   4.839 -0.2239  0.4657  0.9434
 5612SOL    MW422216   0.490   6.072   4.811 -0.6358  0.6620  0.5808
 5613SOL     OW22217   4.534   2.459   2.537  0.4804 -0.1340  0.2112
 5613SOL    HW222218   4.548   2.364   2.533  0.8459 -0.1230  0.9675
 5613SOL    HW322219   4.605   2.496   2.485  0.2992 -0.2779 -0.1388
 5613SOL    MW422220   4.546   2.451   2.530  0.5047 -0.1516  0.2648
 5614SOL     OW22221   6.230   4.898   4.348 -0.4620  0.5283  0.0636
 5614SOL    HW222222   6.284   4.973   4.322  1.0712 -0.1282  1.1693
 5614SOL    HW322223   6.145   4.936   4.370  0.0589  1.8407 -0.1039
 5614SOL    MW422224   6.226   4.913   4.347 -0.1910  0.6148  0.1874
 5615SOL     OW22225   6.107   5.574   1.231  0.2436  0.0784  0.2579
 5615SOL    HW222226   6.052   5.495   1.233  0.9853 -0.4927 -0.7904
 5615SOL    HW322227   6.192   5.543   1.200  0.3968  1.3786 -0.7139
 5615SOL    MW422228   6.111   5.559   1.227  0.3617  0.1746 -0.0086
 5616SOL     OW22229   0.514   0.325   1.662  0.3590  0.0898 -0.4484
 5616SOL    HW222230   0.525   0.419   1.676 -2.4482  0.7892 -2.0846
 5616SOL    HW322231   0.440   0.302   1.718  1.5638 -1.4154  0.6137
 5616SOL    MW422232   0.506   0.335   1.671  0.1476 -0.0165 -0.5242
 5617SOL     OW22233   4.625   6.276   1.521 -0.4639 -0.8356 -0.0279
 5617SOL    HW222234   4.543   6.286   1.570 -0.0527 -1.2891  0.7717
 5617SOL    HW322235   4.606   6.209   1.456 -0.9674 -0.3591 -0.3737
 5617SOL    MW422236   4.612   6.268   1.519 -0.4761 -0.8325  0.0319
 5618SOL     OW22237   0.186   4.152   5.938  0.6272 -0.3016 -0.2551
 5618SOL    HW222238   0.211   4.175   5.849  2.2561  0.0676  0.2697
 5618SOL    HW322239   0.268   4.152   5.987 -0.1862 -0.8840  1.1655
 5618SOL    MW422240   0.200   4.155   5.933  0.7348 -0.3297  0.0016
 5619SOL     OW22241   1.268   4.345   3.267  0.6424  0.0383 -0.8983
 5619SOL    HW222242   1.198   4.403   3.239 -0.1295 -0.4420 -0.0066
 5619SOL    HW322243   1.233   4.299   3.343  0.7559 -2.4528 -2.2119
 5619SOL    MW422244   1.254   4.346   3.273  0.5555 -0.3537 -0.9540
 5620SOL     OW22245   4.257   3.776   3.968  0.5193 -0.5383  0.2375
 5620SOL    HW222246   4.258   3.772   4.063 -0.7315 -0.1646  0.2774
 5620SOL    HW322247   4.299   3.694   3.940 -0.8703 -1.5885  1.1149
 5620SOL    MW422248   4.263   3.765   3.977  0.1709 -0.6276  0.3585
 5621SOL     OW22249   6.231   1.913   4.791 -0.1334  0.0784  0.3186
 5621SOL    HW222250   6.298   1.973   4.757 -0.5936  1.3458  1.5670
 5621SOL    HW322251   6.151   1.938   4.746  0.0382 -0.8414 -0.5127
 5621SOL    MW422252   6.229   1.924   4.781 -0.1715  0.1242  0.3736
 5622SOL     OW22253   2.971   5.270   3.878  0.1855 -0.4750  0.3749
 5622SOL    HW222254   2.908   5.298   3.812 -0.2399  0.7519  1.2575
 5622SOL    HW322255   2.919   5.228   3.947  0.5553 -1.1906  0.2324
 5622SOL    MW422256   2.956   5.268   3.879  0.1781 -0.4075  0.4725
 5623SOL     OW22257   2.340   4.264   5.348 -0.0744 -0.4584  0.7545
 5623SOL    HW222258   2.338   4.287   5.441 -2.0744 -0.3686  0.7421
 5623SOL    HW322259   2.337   4.168   5.346  0.5980 -0.4808  0.7826
 5623SOL    MW422260   2.339   4.254   5.360 -0.2496 -0.4495  0.7566
 5624SOL     OW22261   4.077   4.810   3.135 -0.3586 -0.0991  0.1577
 5624SOL    HW222262   4.009   4.868   3.104  0.3330  0.4152 -0.4277
 5624SOL    HW322263   4.044   4.722   3.118 -1.2236  0.1264  0.6511
 5624SOL    MW422264   4.064   4.806   3.129 -0.3815 -0.0015  0.1456
 5625SOL     OW22265   5.391   2.442   5.196  0.1879  0.1475  0.0770
 5625SOL    HW222266   5.373   2.449   5.290  2.0180  1.0947  0.4089
 5625SOL    HW322267   5.415   2.350   5.183 -0.1051  0.0037  0.5226
 5625SOL    MW422268   5.392   2.431   5.207  0.3907  0.2535  0.1795
 5626SOL     OW22269   6.089   5.780   1.944  0.1630 -0.3526 -0.4495
 5626SOL    HW222270   6.005   5.741   1.919  0.7040 -0.4547 -2.2803
 5626SOL    HW322271   6.066   5.869   1.971 -0.6070 -0.6121 -0.2005
 5626SOL    MW422272   6.075   5.787   1.944  0.1328 -0.4003 -0.6582
 5627SOL     OW22273   1.994   1.642   5.335  0.5439  0.1828 -0.1434
 5627SOL    HW222274   1.966   1.551   5.340 -1.7279  0.8266 -0.0205
 5627SOL    HW322275   2.028   1.662   5.422 -1.5266  0.1786  0.7154
 5627SOL    MW422276   1.995   1.633   5.347 -0.0290  0.2672 -0.0139
 5628SOL     OW22277   6.087   4.629   4.722  0.2130  0.9068 -0.8678
 5628SOL    HW222278   6.091   4.667   4.810  1.3304  0.9669 -0.9317
 5628SOL    HW322279   6.159   4.671   4.674  1.1625 -0.8935 -1.0883
 5628SOL    MW422280   6.097   4.640   4.727  0.4857  0.6772 -0.9053
 5629SOL     OW22281   4.301   5.503   6.249 -0.2912 -0.5367 -0.0898
 5629SOL    HW222282   4.253   5.421   6.235  1.2905 -1.8053  1.4259
 5629SOL    HW322283   4.377   5.477   6.301  1.4278  1.5641 -1.4240
 5629SOL    MW422284   4.304   5.489   6.254  0.1443 -0.4269 -0.0659
 5630SOL     OW22285   1.659   1.702   6.255  0.4732  0.1090  0.3527
 5630SOL    HW222286   1.568   1.679   6.237  0.6611  0.0805 -0.6240
 5630SOL    HW322287   1.685   1.756   6.181  0.7772  1.4615  1.4073
 5630SOL    MW422288   1.651   1.706   6.243  0.5381  0.2837  0.3629
 5631SOL     OW22289   2.815   6.176   3.965  0.7136  0.2796  0.6735
 5631SOL    HW222290   2.746   6.213   4.020 -0.7375 -0.5850 -0.4728
 5631SOL    HW322291   2.769   6.116   3.906  2.8504 -3.0949  2.1307
 5631SOL    MW422292   2.800   6.173   3.964  0.8041 -0.2797  0.7145
 5632SOL     OW22293   0.197   3.245   6.117  0.0064 -0.7705 -0.3196
 5632SOL    HW222294   0.241   3.293   6.047 -0.9765  0.6091 -0.0183
 5632SOL    HW322295   0.143   3.310   6.161  1.3695 -1.3410  2.4009
 5632SOL    MW422296   0.196   3.260   6.114  0.0565 -0.6638  0.0791
 5633SOL     OW22297   1.544   4.513   1.315  0.5204  0.4827  0.2150
 5633SOL    HW222298   1.463   4.549   1.351 -0.1104  0.8263 -1.5055
 5633SOL    HW322299   1.562   4.565   1.237  3.6277  1.9057  1.6871
 5633SOL    MW422300   1.536   4.524   1.310  0.8472  0.7158  0.1822
 5634SOL     OW22301   5.725   4.449   5.541 -0.1700 -0.1882  0.9835
 5634SOL    HW222302   5.745   4.539   5.566  0.8041 -0.3292  0.7571
 5634SOL    HW322303   5.743   4.397   5.620 -0.6289 -0.2005  1.0826
 5634SOL    MW422304   5.730   4.454   5.555 -0.1020 -0.2084  0.9667
 5635SOL     OW22305   0.081   3.537   0.870  0.2050  0.0736 -0.0223
 5635SOL    HW222306   0.152   3.511   0.812  0.0314  0.8522 -0.6158
 5635SOL    HW322307   0.007   3.483   0.842 -0.0260  0.8162 -0.9198
 5635SOL    MW422308   0.080   3.527   0.858  0.1517  0.2743 -0.2190
 5636SOL     OW22309   3.344   1.282   4.018 -0.4072 -0.2840 -0.3170
 5636SOL    HW222310   3.285   1.353   4.043 -0.5085 -0.2531 -0.6474
 5636SOL    HW322311   3.327   1.214   4.083 -1.3813 -0.5904 -0.8748
 5636SOL    MW422312   3.334   1.283   4.030 -0.5490 -0.3203 -0.4342
 5637SOL     OW22313   2.851   0.641   1.388 -0.0717  0.2831  0.2549
 5637SOL    HW222314   2.939   0.611   1.366 -0.0906 -0.8215  1.5637
 5637SOL    HW322315   2.794   0.601   1.322  0.5389  2.6326 -1.8716
 5637SOL    MW422316   2.855   0.632   1.376  0.0063  0.4473  0.1470
 5638SOL     OW22317   0.009   2.051   2.911  0.5553  0.0386  0.1509
 5638SOL    HW222318   0.030   1.958   2.902 -0.3038 -0.2135  0.5943
 5638SOL    HW322319   0.093   2.096   2.904  1.1726 -0.8861  1.3262
 5638SOL    MW422320   0.023   2.045   2.909  0.5234 -0.1166  0.3644
 5639SOL     OW22321   4.877   3.153   1.994 -0.5890  0.1641 -0.3457
 5639SOL    HW222322   4.853   3.199   1.914 -0.8587  0.5077 -0.0681
 5639SOL    HW322323   4.846   3.209   2.065 -0.8302 -0.3896  0.0004
 5639SOL    MW422324   4.870   3.166   1.993 -0.6564  0.1364 -0.2634
 5640SOL     OW22325   4.540   1.479   4.780  0.2407 -0.2112  0.3059
 5640SOL    HW222326   4.457   1.440   4.808  0.6481 -0.5514  1.0818
 5640SOL    HW322327   4.545   1.461   4.686 -1.2717  1.1489 -0.0667
 5640SOL    MW422328   4.530   1.471   4.772  0.0949 -0.0767  0.3591
 5641SOL     OW22329   4.331   5.695   2.513  0.4299 -0.1333  0.0486
 5641SOL    HW222330   4.397   5.628   2.497 -0.7619 -1.4088  0.2840
 5641SOL    HW322331   4.278   5.696   2.433  0.2963  0.3806  0.1382
 5641SOL    MW422332   4.333   5.686   2.500  0.2551 -0.2338  0.0915
 5642SOL     OW22333   4.984   1.436   1.650 -0.2374  0.6479  0.4071
 5642SOL    HW222334   4.922   1.466   1.584 -2.0572  1.5471  2.3941
 5642SOL    HW322335   5.039   1.512   1.669 -0.2214  0.6199  0.4757
 5642SOL    MW422336   4.983   1.450   1.644 -0.4754  0.7628  0.6783
 5643SOL     OW22337   5.299   1.456   3.146  0.4086  0.2356  0.4479
 5643SOL    HW222338   5.394   1.469   3.143  0.5984 -1.2053 -1.3926
 5643SOL    HW322339   5.265   1.508   3.074 -0.1455  0.2297  0.7008
 5643SOL    MW422340   5.307   1.465   3.136  0.3605  0.0447  0.2384
 5644SOL     OW22341   3.784   4.560   2.038  0.0994  0.1457  0.2676
 5644SOL    HW222342   3.841   4.591   2.107  0.4731  0.4868 -0.1874
 5644SOL    HW322343   3.724   4.633   2.021  1.7138  1.1484 -1.6056
 5644SOL    MW422344   3.784   4.573   2.045  0.3617  0.3230 -0.0396
 5645SOL     OW22345   1.071   1.200   3.385 -0.1562 -0.4762 -1.1332
 5645SOL    HW222346   1.113   1.285   3.367  0.2492 -0.2514  0.7233
 5645SOL    HW322347   1.047   1.204   3.477  1.8237 -3.2038 -0.3971
 5645SOL    MW422348   1.073   1.212   3.395  0.1585 -0.8064 -0.7912
 5646SOL     OW22349   3.003   3.241   0.795  0.0376  0.0394 -0.4698
 5646SOL    HW222350   2.915   3.239   0.831 -0.3730  1.6442 -1.2882
 5646SOL    HW322351   3.049   3.307   0.848  0.7704 -0.7964 -0.0338
 5646SOL    MW422352   2.998   3.249   0.807  0.0801  0.1409 -0.5203
 5647SOL     OW22353   3.200   4.638   0.135  0.1490 -0.2257 -0.0676
 5647SOL    HW222354   3.138   4.569   0.110  0.7590  0.0227 -2.4313
 5647SOL    HW322355   3.269   4.633   0.070 -1.1591  4.4701 -2.1915
 5647SOL    MW422356   3.201   4.628   0.123  0.0569  0.4266 -0.6597
 5648SOL     OW22357   1.366   5.283   0.145  0.0028  0.8986 -0.2630
 5648SOL    HW222358   1.399   5.206   0.192  0.7343  1.1996 -0.2621
 5648SOL    HW322359   1.400   5.357   0.195  0.8049  1.2291 -1.2588
 5648SOL    MW422360   1.375   5.283   0.158  0.2051  0.9819 -0.3943
 5649SOL     OW22361   2.426   0.888   2.186  0.4119 -0.2341  0.0265
 5649SOL    HW222362   2.364   0.960   2.174  0.4352 -0.0826  0.7623
 5649SOL    HW322363   2.497   0.908   2.124  0.8428  0.8670  0.8409
 5649SOL    MW422364   2.427   0.900   2.176  0.4718 -0.0689  0.2310
 5650SOL     OW22365   1.902   6.171   4.664  0.1275  0.0688  0.0255
 5650SOL    HW222366   1.911   6.100   4.600 -0.1640 -0.0504  0.1139
 5650SOL    HW322367   1.940   6.247   4.620  1.8451 -0.4669  0.5130
 5650SOL    MW422368   1.908   6.171   4.650  0.3156 -0.0176  0.1015
 5651SOL     OW22369   0.794   2.271   1.386  0.8154 -0.0954  0.4299
 5651SOL    HW222370   0.845   2.337   1.339 -1.3723  1.6000  0.2667
 5651SOL    HW322371   0.707   2.310   1.396 -0.5471 -2.8715  0.5442
 5651SOL    MW422372   0.789   2.285   1.381  0.3470 -0.2380  0.4235
 5652SOL     OW22373   3.083   3.081   3.967  0.0025  0.0535 -1.0321
 5652SOL    HW222374   3.122   3.141   4.031  0.2355 -0.1253 -1.0075
 5652SOL    HW322375   2.998   3.058   4.004  0.0661  0.0830 -0.8672
 5652SOL    MW422376   3.077   3.086   3.981  0.0416  0.0338 -1.0071
 5653SOL     OW22377   5.483   5.400   4.732  0.7457 -0.7383 -0.3161
 5653SOL    HW222378   5.549   5.331   4.722  0.7356 -1.1536  2.0542
 5653SOL    HW322379   5.431   5.374   4.808 -0.7866  0.6955 -0.8031
 5653SOL    MW422380   5.485   5.387   4.741  0.5422 -0.6040 -0.0676
 5654SOL     OW22381   6.249   0.916   3.383 -0.2860 -0.1330  0.1856
 5654SOL    HW222382   6.299   0.991   3.416 -0.6089  0.8934 -1.5563
 5654SOL    HW322383   6.158   0.944   3.387 -0.3474  0.0108 -1.4184
 5654SOL    MW422384   6.244   0.930   3.388 -0.3367  0.0214 -0.2559
 5655SOL     OW22385   5.350   0.750   4.543  0.9931  0.0949 -0.2833
 5655SOL    HW222386   5.431   0.779   4.586  0.2618  0.8481  0.6231
 5655SOL    HW322387   5.293   0.827   4.547  0.3107 -0.3666 -1.1090
 5655SOL    MW422388   5.353   0.764   4.549  0.8066  0.1334 -0.2726
 5656SOL     OW22389   4.153   0.620   2.406  0.6117 -0.3864 -0.0241
 5656SOL    HW222390   4.120   0.563   2.336 -1.9633  0.8666  0.0402
 5656SOL    HW322391   4.093   0.604   2.479  1.3144  0.6557  0.8109
 5656SOL    MW422392   4.140   0.610   2.406  0.3647 -0.0836  0.0945
 5657SOL     OW22393   3.467   5.058   1.678  0.1958 -0.3071 -0.2529
 5657SOL    HW222394   3.444   4.974   1.638  0.1972  0.0549 -1.0344
 5657SOL    HW322395   3.562   5.066   1.665  0.5507 -1.1044  1.6251
 5657SOL    MW422396   3.476   5.048   1.671  0.2428 -0.3645 -0.1083
 5658SOL     OW22397   6.043   2.967   5.983 -0.4122  0.0339  0.0164
 5658SOL    HW222398   6.016   2.916   6.060 -1.3453  0.5047  0.0148
 5658SOL    HW322399   5.964   2.972   5.929 -0.2164  1.0954 -0.1951
 5658SOL    MW422400   6.029   2.961   5.986 -0.5095  0.2361 -0.0117
 5659SOL     OW22401   2.417   3.203   4.561  0.8500  0.3458  0.1166
 5659SOL    HW222402   2.413   3.299   4.567 -1.4048  0.5009 -2.1001
 5659SOL    HW322403   2.433   3.186   4.468  1.3875 -1.4557  0.4973
 5659SOL    MW422404   2.418   3.214   4.549  0.6234  0.1286 -0.1257
 5660SOL     OW22405   0.807   0.698   2.893 -0.1771 -0.5087 -0.1477
 5660SOL    HW222406   0.752   0.636   2.845  0.8428 -0.9963 -0.7158
 5660SOL    HW322407   0.861   0.642   2.950  0.5712 -0.1363 -0.4782
 5660SOL    MW422408   0.807   0.682   2.894  0.0562 -0.5239 -0.2663
 5661SOL     OW22409   4.418   2.655   5.965  0.0306  0.4349 -0.0886
 5661SOL    HW222410   4.332   2.617   5.952 -0.0086 -0.5213  2.3737
 5661SOL    HW322411   4.460   2.651   5.879 -1.9739 -0.0579 -1.0940
 5661SOL    MW422412   4.412   2.649   5.952 -0.2391  0.2437  0.1036
 5662SOL     OW22413   4.182   3.096   5.397  0.3132  0.2557 -0.5332
 5662SOL    HW222414   4.218   3.150   5.468  0.1064  0.0050 -0.2346
 5662SOL    HW322415   4.143   3.021   5.442  0.5340 -0.1047 -0.9426
 5662SOL    MW422416   4.182   3.093   5.412  0.3151  0.1751 -0.5479
 5663SOL     OW22417   1.088   5.247   4.125  0.0652  0.3871  0.1931
 5663SOL    HW222418   1.160   5.307   4.104  0.7193 -0.0040  1.2408
 5663SOL    HW322419   1.026   5.301   4.175 -0.0701  0.5681 -0.1699
 5663SOL    MW422420   1.089   5.262   4.129  0.1336  0.3594  0.2834
 5664SOL     OW22421   3.057   5.031   0.147 -0.2016  0.3660 -0.7960
 5664SOL    HW222422   3.134   5.070   0.189  0.6077  0.0230 -1.9167
 5664SOL    HW322423   3.020   4.974   0.215  0.8135  0.1636 -0.3898
 5664SOL    MW422424   3.062   5.028   0.162  0.0391  0.2941 -0.8903
 5665SOL     OW22425   5.300   6.150   3.345  0.0098 -0.5601 -0.5161
 5665SOL    HW222426   5.221   6.203   3.354 -0.0121 -0.9103  2.2708
 5665SOL    HW322427   5.360   6.204   3.295 -0.9187  1.0311  0.0172
 5665SOL    MW422428   5.297   6.164   3.340 -0.1156 -0.3964 -0.0781
 5666SOL     OW22429   5.573   4.375   1.635  0.1160 -0.0540  0.1405
 5666SOL    HW222430   5.646   4.404   1.580 -0.1220  0.4891  0.0964
 5666SOL    HW322431   5.532   4.457   1.665 -0.4365 -0.3513  0.2126
 5666SOL    MW422432   5.577   4.390   1.632  0.0117 -0.0216  0.1442
 5667SOL     OW22433   1.356   3.288   3.171 -0.1282 -0.4342 -0.4633
 5667SOL    HW222434   1.290   3.307   3.104 -0.5555  0.4634  0.1718
 5667SOL    HW322435   1.360   3.193   3.176 -0.9830 -0.5004 -0.9062
 5667SOL    MW422436   1.348   3.278   3.163 -0.2974 -0.3245 -0.4380
 5668SOL     OW22437   6.158   3.120   4.170 -0.5743  0.2196 -0.2405
 5668SOL    HW222438   6.195   3.061   4.104 -2.2851 -1.7360  0.4180
 5668SOL    HW322439   6.215   3.110   4.247 -0.9311 -0.7461 -0.0868
 5668SOL    MW422440   6.170   3.111   4.172 -0.8471 -0.1659 -0.1333
 5669SOL     OW22441   5.909   0.281   2.811  0.6033  0.1757 -0.2797
 5669SOL    HW222442   5.970   0.328   2.868  1.3378 -1.1215  0.0287
 5669SOL    HW322443   5.860   0.224   2.869  1.9146 -1.7640 -0.9798
 5669SOL    MW422444   5.910   0.280   2.826  0.8732 -0.2514 -0.3314
 5670SOL     OW22445   4.911   1.734   0.630 -0.2959 -0.1694  0.2269
 5670SOL    HW222446   4.970   1.721   0.555 -1.0248 -0.4321 -0.3155
 5670SOL    HW322447   4.862   1.814   0.608 -0.6616 -0.3648  0.3186
 5670SOL    MW422448   4.912   1.743   0.617 -0.4403 -0.2298  0.1675
 5671SOL     OW22449   3.981   4.906   4.488  0.2764  0.0374  0.1520
 5671SOL    HW222450   3.996   4.990   4.445  2.1685 -1.2244 -1.8838
 5671SOL    HW322451   4.068   4.867   4.495 -0.5257 -1.6806  1.1855
 5671SOL    MW422452   3.995   4.912   4.483  0.4202 -0.3558  0.0198
 5672SOL     OW22453   2.887   6.367   1.378 -0.3045 -0.5046  0.3150
 5672SOL    HW222454   2.863   6.446   1.425 -1.7524 -0.5918 -0.2381
 5672SOL    HW322455   2.978   6.382   1.351 -0.8862  1.4696 -0.7493
 5672SOL    MW422456   2.896   6.379   1.380 -0.5723 -0.2556  0.1016
 5673SOL     OW22457   5.697   6.008   0.869 -0.1689  0.0443  0.1161
 5673SOL    HW222458   5.778   5.993   0.918 -0.2913  0.5744  0.4968
 5673SOL    HW322459   5.707   6.096   0.831 -0.9627  0.5451  1.0019
 5673SOL    MW422460   5.709   6.018   0.871 -0.2898  0.1803  0.2832
 5674SOL     OW22461   6.310   1.498   3.342 -0.2040  0.1597 -0.0706
 5674SOL    HW222462   6.326   1.491   3.437 -0.9371  2.4007  0.2772
 5674SOL    HW322463   6.252   1.574   3.333  0.7614  0.7057 -2.4174
 5674SOL    MW422464   6.304   1.507   3.354 -0.1734  0.5274 -0.3343
 5675SOL     OW22465   3.547   0.532   2.287 -0.2146 -0.2963 -0.2337
 5675SOL    HW222466   3.519   0.614   2.247 -2.5814 -1.5100 -1.2733
 5675SOL    HW322467   3.471   0.502   2.336  1.0499 -1.2480  1.2641
 5675SOL    MW422468   3.533   0.539   2.288 -0.3600 -0.5820 -0.1733
 5676SOL     OW22469   3.321   5.795   1.703  0.1308  0.6695 -0.3144
 5676SOL    HW222470   3.313   5.845   1.622  0.6248 -1.3413 -1.6994
 5676SOL    HW322471   3.231   5.773   1.728 -0.0057  1.0070 -0.5124
 5676SOL    MW422472   3.308   5.799   1.696  0.1780  0.4488 -0.5232
 5677SOL     OW22473   5.164   1.959   5.711 -0.9587  0.2818 -0.0904
 5677SOL    HW222474   5.207   1.900   5.773 -1.2617  0.6110  0.4380
 5677SOL    HW322475   5.186   1.923   5.625 -1.8178 -1.1071  0.2301
 5677SOL    MW422476   5.172   1.947   5.708 -1.1121  0.1420  0.0216
 5678SOL     OW22477   1.897   5.586   1.066 -0.8975 -0.7691  0.3760
 5678SOL    HW222478   1.978   5.628   1.037 -2.1228  0.5634 -1.2802
 5678SOL    HW322479   1.921   5.494   1.077  0.6380 -0.5701 -0.9141
 5678SOL    MW422480   1.911   5.579   1.064 -0.8565 -0.5670 -0.0127
 5679SOL     OW22481   0.380   2.230   0.849  0.1548  0.4401  0.1973
 5679SOL    HW222482   0.415   2.157   0.901  1.2117 -0.1010 -1.2140
 5679SOL    HW322483   0.390   2.306   0.906  0.2787 -0.2940  1.1931
 5679SOL    MW422484   0.386   2.230   0.864  0.3106  0.2718  0.1425
 5680SOL     OW22485   2.529   0.967   5.950  0.0696  0.1433 -0.3780
 5680SOL    HW222486   2.528   1.063   5.941  1.0132  0.2709  0.5696
 5680SOL    HW322487   2.479   0.935   5.875 -0.7544  1.3984 -0.4019
 5680SOL    MW422488   2.522   0.976   5.939  0.0854  0.3258 -0.2561
 5681SOL     OW22489   5.119   0.816   1.998 -0.1454  0.2577  0.8344
 5681SOL    HW222490   5.151   0.788   2.083 -0.9904  2.5262  1.9892
 5681SOL    HW322491   5.084   0.737   1.958 -0.2165 -0.7717  2.8287
 5681SOL    MW422492   5.118   0.802   2.004 -0.2663  0.4212  1.2499
 5682SOL     OW22493   4.756   1.106   3.291  0.1189 -0.0588 -0.2553
 5682SOL    HW222494   4.741   1.068   3.378 -3.2310  1.6584  0.0829
 5682SOL    HW322495   4.850   1.124   3.289  0.5066 -1.1817  2.5467
 5682SOL    MW422496   4.766   1.103   3.302 -0.2719  0.0196  0.1590
 5683SOL     OW22497   1.080   4.403   2.120  0.1471  0.1108 -0.3965
 5683SOL    HW222498   0.993   4.380   2.085 -0.0697  2.0166 -1.2461
 5683SOL    HW322499   1.073   4.497   2.138  1.6680  0.0310  0.6742
 5683SOL    MW422500   1.067   4.412   2.117  0.3192  0.3517 -0.3673
 5684SOL     OW22501   2.132   3.893   3.257  0.1275 -0.1849  0.3823
 5684SOL    HW222502   2.157   3.982   3.234  0.5224 -0.1413  0.9454
 5684SOL    HW322503   2.162   3.840   3.184  1.6104 -0.0851  0.8792
 5684SOL    MW422504   2.140   3.897   3.245  0.3753 -0.1660  0.5221
 5685SOL     OW22505   4.785   0.262   5.056  0.4032  0.4045  1.1695
 5685SOL    HW222506   4.786   0.335   4.994  0.9272  0.3039  1.0605
 5685SOL    HW322507   4.791   0.304   5.142  1.9908  0.4476  1.0682
 5685SOL    MW422508   4.786   0.277   5.059  0.6818  0.3969  1.1418
 5686SOL     OW22509   1.418   2.711   6.050 -0.8480 -0.0484  0.0871
 5686SOL    HW222510   1.335   2.721   6.003 -0.9013 -1.0707 -0.0624
 5686SOL    HW322511   1.485   2.718   5.982 -0.7310  1.6844  0.3268
 5686SOL    MW422512   1.416   2.713   6.035 -0.8396  0.0453  0.0990
 5687SOL     OW22513   2.426   3.819   1.624 -0.8186 -0.0621 -0.6631
 5687SOL    HW222514   2.465   3.832   1.710  1.5773  0.6686 -1.7660
 5687SOL    HW322515   2.407   3.726   1.619  0.1301 -0.3117  0.2278
 5687SOL    MW422516   2.428   3.809   1.634 -0.3773  0.0014 -0.6911
 5688SOL     OW22517   0.718   3.976   3.052  0.0318  0.1831 -0.5234
 5688SOL    HW222518   0.791   3.939   3.102  0.6014  1.5674 -0.2826
 5688SOL    HW322519   0.652   3.907   3.053  1.5471 -1.3646 -1.2828
 5688SOL    MW422520   0.719   3.962   3.059  0.3069  0.1616 -0.5918
 5689SOL     OW22521   4.830   0.969   4.965 -0.5199 -0.1880  0.4236
 5689SOL    HW222522   4.870   1.009   5.043 -1.0431 -0.9945  1.1342
 5689SOL    HW322523   4.801   1.042   4.912 -0.5925  0.3828  1.2285
 5689SOL    MW422524   4.832   0.984   4.968 -0.5985 -0.2191  0.6235
 5690SOL     OW22525   5.316   3.437   5.242 -0.3553 -0.0603 -0.0294
 5690SOL    HW222526   5.304   3.368   5.177  0.0484 -0.0923 -0.0741
 5690SOL    HW322527   5.239   3.431   5.298 -0.2624 -0.6292  0.0419
 5690SOL    MW422528   5.304   3.427   5.241 -0.2898 -0.1396 -0.0259
 5691SOL     OW22529   4.743   0.026   1.360 -0.2040  0.1889  0.0945
 5691SOL    HW222530   4.698  -0.042   1.409 -0.3354 -0.6749 -1.1926
 5691SOL    HW322531   4.736  -0.001   1.268  0.8151  1.2914 -0.3371
 5691SOL    MW422532   4.736   0.014   1.354 -0.0869  0.2204 -0.1322
 5692SOL     OW22533   2.818   1.784   0.941  0.3957  0.1239 -0.6816
 5692SOL    HW222534   2.723   1.797   0.944  0.4057  0.1073  1.3988
 5692SOL    HW322535   2.852   1.871   0.919 -0.0691  0.4360 -0.2174
 5692SOL    MW422536   2.810   1.797   0.938  0.3357  0.1629 -0.3458
 5693SOL     OW22537   4.076   2.111   1.798  0.1311  0.2031 -0.4085
 5693SOL    HW222538   4.146   2.068   1.846 -0.5431 -0.8199 -0.3157
 5693SOL    HW322539   4.119   2.149   1.721  1.2027  1.7299  0.8645
 5693SOL    MW422540   4.091   2.110   1.794  0.1835  0.2696 -0.2283
 5694SOL     OW22541   0.771   5.380   4.978 -0.6923  0.5327 -0.0793
 5694SOL    HW222542   0.778   5.461   4.928 -1.2532 -0.3770 -1.6755
 5694SOL    HW322543   0.707   5.327   4.931 -0.2074 -0.9250  0.8256
 5694SOL    MW422544   0.764   5.384   4.965 -0.7023  0.2203 -0.1705
 5695SOL     OW22545   1.744   2.509   1.741  0.3174 -0.8558 -0.4441
 5695SOL    HW222546   1.836   2.490   1.756  1.0163  1.7217 -1.0350
 5695SOL    HW322547   1.719   2.568   1.811 -0.1817  0.4009 -1.6370
 5695SOL    MW422548   1.753   2.514   1.752  0.3438 -0.3499 -0.6794
 5696SOL     OW22549   3.458   0.785   2.200 -0.0052  0.2309 -0.3281
 5696SOL    HW222550   3.418   0.754   2.119  0.7374 -1.5772 -0.0599
 5696SOL    HW322551   3.535   0.834   2.172  0.5055 -0.7727 -0.7341
 5696SOL    MW422552   3.463   0.788   2.186  0.1602 -0.1401 -0.3463
 5697SOL     OW22553   4.298   6.306   3.800 -0.0690 -0.2810 -0.0606
 5697SOL    HW222554   4.257   6.378   3.753  0.3208  0.8826  1.3016
 5697SOL    HW322555   4.290   6.330   3.893  0.4233 -1.7979  0.4061
 5697SOL    MW422556   4.292   6.318   3.806  0.0474 -0.3276  0.1807
 5698SOL     OW22557   1.168   1.787   0.675  0.1241  0.2467  0.7436
 5698SOL    HW222558   1.232   1.716   0.676 -1.2410 -1.0472  0.9366
 5698SOL    HW322559   1.194   1.842   0.602 -0.2134 -1.8645 -1.0873
 5698SOL    MW422560   1.180   1.785   0.666 -0.1006 -0.2025  0.5275
 5699SOL     OW22561   3.753   6.165   1.419  0.0229  0.4427 -0.6866
 5699SOL    HW222562   3.720   6.090   1.469  2.2577  0.0784  0.3306
 5699SOL    HW322563   3.729   6.146   1.328  0.0963 -1.2443 -0.3716
 5699SOL    MW422564   3.745   6.153   1.413  0.3274  0.1721 -0.5108
 5700SOL     OW22565   4.217   3.148   4.298  0.0735 -0.0428 -0.0238
 5700SOL    HW222566   4.221   3.238   4.266 -1.3948  0.4143  0.9357
 5700SOL    HW322567   4.243   3.155   4.390 -1.8662 -0.2254  0.5986
 5700SOL    MW422568   4.221   3.161   4.306 -0.3761 -0.0066  0.1849
 5701SOL     OW22569   5.659   2.807   2.141 -0.2028  0.2225 -0.0980
 5701SOL    HW222570   5.731   2.753   2.173 -0.6202 -1.9152 -2.4543
 5701SOL    HW322571   5.580   2.759   2.165 -0.6463  0.4933 -0.9616
 5701SOL    MW422572   5.658   2.794   2.148 -0.3164 -0.0238 -0.5228
 5702SOL     OW22573   2.326   0.348   6.075 -0.1021 -0.1598  0.2525
 5702SOL    HW222574   2.348   0.401   5.999  0.1008 -0.4591  0.0984
 5702SOL    HW322575   2.231   0.350   6.079 -0.2115 -1.4427 -0.9633
 5702SOL    MW422576   2.317   0.355   6.066 -0.0898 -0.3686  0.0717
 5703SOL     OW22577   2.324   4.481   0.717 -0.2381  0.0712  0.2431
 5703SOL    HW222578   2.412   4.484   0.755  0.2367  0.6947 -0.8640
 5703SOL    HW322579   2.330   4.415   0.648 -0.4255  0.6209 -0.3097
 5703SOL    MW422580   2.336   4.473   0.713 -0.2001  0.2260  0.0241
 5704SOL     OW22581   4.241   2.707   2.352 -0.1227  0.4880 -0.3933
 5704SOL    HW222582   4.170   2.666   2.303  0.6650  0.5633 -1.6475
 5704SOL    HW322583   4.197   2.754   2.423 -1.1574 -1.1803  0.1157
 5704SOL    MW422584   4.226   2.708   2.355 -0.1553  0.2778 -0.4916
 5705SOL     OW22585   5.787   1.283   0.302 -0.5636  0.0397 -0.2924
 5705SOL    HW222586   5.704   1.234   0.303 -0.4804 -0.1072 -0.4958
 5705SOL    HW322587   5.852   1.219   0.274 -0.4015  0.1901 -0.2605
 5705SOL    MW422588   5.784   1.268   0.299 -0.5312  0.0402 -0.3150
 5706SOL     OW22589   2.438   5.308   2.939  0.2407 -0.1765 -0.2977
 5706SOL    HW222590   2.501   5.288   2.869  0.4846 -0.7471  0.0755
 5706SOL    HW322591   2.492   5.333   3.014 -0.0533  1.9576 -0.7415
 5706SOL    MW422592   2.454   5.309   2.940  0.2341  0.0298 -0.3070
 5707SOL     OW22593   0.246   1.973   2.486  0.5150  0.4613 -0.3167
 5707SOL    HW222594   0.276   1.890   2.524 -0.2088 -0.2681 -1.2553
 5707SOL    HW322595   0.289   1.977   2.401 -1.5992 -0.4304 -1.5321
 5707SOL    MW422596   0.255   1.962   2.480  0.1406  0.2475 -0.6009
 5708SOL     OW22597   5.522   4.004   2.488  0.5177 -0.1305 -0.1242
 5708SOL    HW222598   5.469   4.073   2.449  1.1931  1.3433  1.4409
 5708SOL    HW322599   5.613   4.030   2.469  0.7796 -0.5974  0.4635
 5708SOL    MW422600   5.527   4.016   2.480  0.6413  0.0024  0.1598
 5709SOL     OW22601   4.581   3.253   1.659 -0.1464  0.0387 -0.4693
 5709SOL    HW222602   4.496   3.219   1.684  0.5110  0.0580  2.0104
 5709SOL    HW322603   4.632   3.175   1.637 -1.1646  0.1054 -3.5730
 5709SOL    MW422604   4.577   3.239   1.659 -0.1940  0.0501 -0.5516
 5710SOL     OW22605   4.884   1.179   1.943  1.1212 -0.0932 -0.1270
 5710SOL    HW222606   4.933   1.169   1.862  1.8507  1.5721  0.0632
 5710SOL    HW322607   4.833   1.259   1.931 -3.2689 -2.7515 -1.1128
 5710SOL    MW422608   4.884   1.188   1.931  0.6382 -0.2242 -0.2320
 5711SOL     OW22609   3.087   0.456   1.058  0.0068  0.1025  0.7392
 5711SOL    HW222610   3.008   0.508   1.044  0.2138  0.1884 -0.1545
 5711SOL    HW322611   3.061   0.392   1.124 -0.5407  0.7018  1.1173
 5711SOL    MW422612   3.073   0.454   1.065 -0.0381  0.1929  0.6712
 5712SOL     OW22613   1.917   4.689   2.330  0.2012 -0.1857  0.0052
 5712SOL    HW222614   1.989   4.651   2.381  0.0158  1.3104  1.4813
 5712SOL    HW322615   1.852   4.714   2.395 -0.1021  1.7121 -0.9534
 5712SOL    MW422616   1.918   4.687   2.345  0.1367  0.2620  0.0734
 5713SOL     OW22617   1.165   1.566   5.393 -0.0222 -0.1438  0.1319
 5713SOL    HW222618   1.167   1.652   5.350 -0.2049  0.2140  0.8144
 5713SOL    HW322619   1.072   1.553   5.415 -0.2190 -1.1642 -1.2158
 5713SOL    MW422620   1.153   1.576   5.390 -0.0722 -0.2313  0.0441
 5714SOL     OW22621   2.452   0.426   4.094  0.4759 -0.3538 -0.0927
 5714SOL    HW222622   2.385   0.469   4.040 -0.5790 -0.5706  0.9985
 5714SOL    HW322623   2.528   0.483   4.088 -0.2469  0.6231 -0.2670
 5714SOL    MW422624   2.453   0.439   4.086  0.2414 -0.2535  0.0283
 5715SOL     OW22625   0.772   5.929   3.774  0.2992  0.4137  0.2265
 5715SOL    HW222626   0.729   6.014   3.769  1.0469  0.8455  0.8853
 5715SOL    HW322627   0.859   5.948   3.807 -0.3345 -0.8401  2.9498
 5715SOL    MW422628   0.777   5.942   3.778  0.3143  0.3053  0.6727
 5716SOL     OW22629   3.104   0.899   2.259  0.3286 -0.2682  0.7936
 5716SOL    HW222630   3.063   0.933   2.180  0.4086 -0.4734  0.6642
 5716SOL    HW322631   3.048   0.930   2.330  1.7577  2.3285  0.9259
 5716SOL    MW422632   3.091   0.908   2.258  0.5277  0.0474  0.7940
 5717SOL     OW22633   6.200   3.885   1.294  0.3832  0.3456 -0.1157
 5717SOL    HW222634   6.111   3.922   1.293  0.6092  1.2894  3.1519
 5717SOL    HW322635   6.187   3.791   1.287 -0.9201  0.4539  0.5000
 5717SOL    MW422636   6.187   3.878   1.293  0.2411  0.4844  0.3967
 5718SOL     OW22637   3.934   4.280   2.784  0.3095 -0.0083  0.3516
 5718SOL    HW222638   4.024   4.250   2.792  1.2440  1.6295 -2.3475
 5718SOL    HW322639   3.893   4.217   2.726 -0.3241 -0.7413  1.5626
 5718SOL    MW422640   3.940   4.268   2.777  0.3492  0.1111  0.1553
 5719SOL     OW22641   5.070   5.844   2.277  0.0536  0.3620  0.1597
 5719SOL    HW222642   5.096   5.930   2.311  0.2583  0.7922 -1.0214
 5719SOL    HW322643   4.983   5.828   2.315  0.1341  0.9694  0.6069
 5719SOL    MW422644   5.062   5.853   2.286  0.0912  0.4989  0.0629
 5720SOL     OW22645   3.050   2.298   2.140  0.1007  0.2331  0.2349
 5720SOL    HW222646   3.115   2.360   2.108  0.8012 -0.8322 -0.5139
 5720SOL    HW322647   2.971   2.350   2.153  0.4995  1.1845 -0.9172
 5720SOL    MW422648   3.048   2.313   2.137  0.2457  0.2181 -0.0159
 5721SOL     OW22649   6.349   3.744   5.238 -0.1439 -0.1068 -0.0554
 5721SOL    HW222650   6.409   3.772   5.307  0.2125 -0.1317 -0.3501
 5721SOL    HW322651   6.331   3.823   5.188  0.8518 -0.3669 -0.8790
 5721SOL    MW422652   6.355   3.758   5.240  0.0345 -0.1444 -0.2029
 5722SOL     OW22653   3.993   0.921   4.524 -0.8549  0.2445 -0.7785
 5722SOL    HW222654   3.954   0.894   4.607  0.9022 -0.9515 -0.2862
 5722SOL    HW322655   4.052   0.849   4.500  2.7160  2.7706 -0.3394
 5722SOL    MW422656   3.995   0.908   4.532 -0.1519  0.4200 -0.6556
 5723SOL     OW22657   5.933   5.846   0.680 -0.3102  0.3327 -0.7217
 5723SOL    HW222658   5.949   5.940   0.670  1.2876  0.1147 -0.5458
 5723SOL    HW322659   5.940   5.830   0.774 -1.2356  0.1431 -0.6849
 5723SOL    MW422660   5.936   5.857   0.691 -0.2215  0.2790 -0.6937
 5724SOL     OW22661   5.477   5.401   2.670  0.0931  0.3059  0.5796
 5724SOL    HW222662   5.419   5.334   2.633  0.6325  0.1476 -0.0110
 5724SOL    HW322663   5.420   5.456   2.723 -0.8638  0.9139 -0.9888
 5724SOL    MW422664   5.462   5.399   2.672  0.0380  0.3652  0.2947
 5725SOL     OW22665   4.234   3.290   0.321  0.2562 -0.2215  0.7060
 5725SOL    HW222666   4.241   3.307   0.415 -0.2984  0.8215  0.5619
 5725SOL    HW322667   4.321   3.312   0.287  0.2052  0.2065  0.8489
 5725SOL    MW422668   4.247   3.295   0.329  0.1763 -0.0274  0.7058
 5726SOL     OW22669   2.626   4.514   0.759  0.6045  0.4573 -0.1937
 5726SOL    HW222670   2.644   4.608   0.765  0.9942  0.3405  0.6440
 5726SOL    HW322671   2.662   4.477   0.840 -1.6045 -0.0948  0.6102
 5726SOL    MW422672   2.633   4.521   0.770  0.3645  0.3691  0.0229
 5727SOL     OW22673   3.930   1.933   0.709  0.0572  0.8589  0.2862
 5727SOL    HW222674   3.911   2.011   0.658  0.3657  0.8170  0.0977
 5727SOL    HW322675   3.875   1.940   0.787  0.2217  1.3546  0.3599
 5727SOL    MW422676   3.921   1.944   0.713  0.1196  0.9188  0.2710
 5728SOL     OW22677   5.218   3.155   4.052  0.4679 -0.4894 -0.1458
 5728SOL    HW222678   5.303   3.186   4.081  0.1824  0.4147 -0.2185
 5728SOL    HW322679   5.188   3.095   4.121  0.6236  0.1520  0.4896
 5728SOL    MW422680   5.225   3.151   4.065  0.4508 -0.2855 -0.0716
 5729SOL     OW22681   0.720   2.733   5.293  0.2692  0.1131  0.5027
 5729SOL    HW222682   0.728   2.824   5.320 -0.3783  0.3846 -0.1676
 5729SOL    HW322683   0.786   2.723   5.224 -0.3124  0.3596 -0.1019
 5729SOL    MW422684   0.730   2.744   5.287  0.1071  0.1814  0.3345
 5730SOL     OW22685   2.160   2.771   1.281  0.2737  0.6324  0.5364
 5730SOL    HW222686   2.092   2.780   1.349 -0.2710  2.2958 -0.1896
 5730SOL    HW322687   2.200   2.686   1.299 -0.9461  0.3142  1.9529
 5730SOL    MW422688   2.156   2.761   1.293  0.0409  0.8099  0.6275
 5731SOL     OW22689   4.671   2.416   3.746 -0.1887  0.2356  0.2309
 5731SOL    HW222690   4.603   2.386   3.686  0.4642  0.3674 -0.5865
 5731SOL    HW322691   4.737   2.457   3.690  1.4607 -1.5114  0.7957
 5731SOL    MW422692   4.671   2.417   3.731  0.1151  0.0225  0.1976
 5732SOL     OW22693   4.336   2.038   0.965  0.5477  0.0810 -0.4221
 5732SOL    HW222694   4.286   2.063   0.888  0.3655  0.3299 -0.2267
 5732SOL    HW322695   4.427   2.058   0.943  0.3340  1.7252  0.0232
 5732SOL    MW422696   4.341   2.044   0.952  0.4955  0.3308 -0.3376
 5733SOL     OW22697   4.632   4.155   3.737 -0.3905 -0.0584  0.1689
 5733SOL    HW222698   4.706   4.182   3.791  0.6217 -1.4575 -0.4602
 5733SOL    HW322699   4.606   4.235   3.691  2.1721  0.0582 -1.2542
 5733SOL    MW422700   4.638   4.169   3.738  0.0812 -0.2276 -0.1018
 5734SOL     OW22701   1.272   2.594   3.576  0.4669  0.0984 -0.2070
 5734SOL    HW222702   1.348   2.639   3.538  0.2197  0.9424  0.2747
 5734SOL    HW322703   1.305   2.554   3.656  0.4214  0.4298 -0.0198
 5734SOL    MW422704   1.286   2.595   3.582  0.4283  0.2535 -0.1187
 5735SOL     OW22705   5.101   1.281   2.228 -0.1186  0.2041  0.8729
 5735SOL    HW222706   5.034   1.325   2.280  0.3309 -1.7075  3.2303
 5735SOL    HW322707   5.054   1.210   2.185 -0.2717  1.1267 -0.5583
 5735SOL    MW422708   5.086   1.277   2.229 -0.0795  0.0736  0.9951
 5736SOL     OW22709   1.030   1.327   1.056  0.4818  0.4389 -0.5773
 5736SOL    HW222710   1.056   1.369   0.974  1.3175  0.6767 -0.2045
 5736SOL    HW322711   1.029   1.234   1.036 -0.5026  0.5592 -1.1697
 5736SOL    MW422712   1.033   1.320   1.042  0.4622  0.4861 -0.6063
 5737SOL     OW22713   2.521   5.945   3.380  0.4161 -0.4646  0.0038
 5737SOL    HW222714   2.525   5.850   3.371 -1.0895 -0.5631  0.0375
 5737SOL    HW322715   2.427   5.963   3.390  0.6658  1.0399 -0.2315
 5737SOL    MW422716   2.509   5.935   3.380  0.2504 -0.2791 -0.0228
 5738SOL     OW22717   0.452   6.436   6.122 -0.0248  0.2094 -0.3257
 5738SOL    HW222718   0.436   6.351   6.164  1.7995  0.1178  0.3046
 5738SOL    HW322719   0.501   6.414   6.043  0.0539  0.6416 -0.3980
 5738SOL    MW422720   0.457   6.422   6.117  0.2263  0.2544 -0.2521
 5739SOL     OW22721   5.022   3.101   1.087  0.0546 -0.4774 -0.1765
 5739SOL    HW222722   5.073   3.141   1.017  0.3048 -2.0208 -0.9138
 5739SOL    HW322723   5.086   3.084   1.156  0.6101 -2.4206 -1.1039
 5739SOL    MW422724   5.037   3.104   1.087  0.1609 -0.9374 -0.3961
 5740SOL     OW22725   2.039   0.532   1.918 -0.4106  0.3677 -0.0276
 5740SOL    HW222726   2.069   0.571   2.000 -0.2567  1.0258 -0.3884
 5740SOL    HW322727   2.112   0.542   1.858 -0.7989  0.5977 -0.4697
 5740SOL    MW422728   2.052   0.539   1.921 -0.4415  0.4848 -0.1335
 5741SOL     OW22729   4.273   5.014   6.010  0.8238 -0.4325 -0.8370
 5741SOL    HW222730   4.313   5.030   5.924 -0.5852 -0.0576 -1.4692
 5741SOL    HW322731   4.298   5.090   6.063  0.1603  0.3103 -1.5409
 5741SOL    MW422732   4.282   5.026   6.005  0.5504 -0.2851 -1.0133
 5742SOL     OW22733   5.277   3.208   3.135  0.1911 -0.1611 -0.5816
 5742SOL    HW222734   5.282   3.118   3.169  0.1604  0.1363  0.2274
 5742SOL    HW322735   5.299   3.263   3.210  2.2722  0.4496 -1.5827
 5742SOL    MW422736   5.280   3.203   3.149  0.4616 -0.0413 -0.6069
 5743SOL     OW22737   5.416   1.786   0.406  0.4655  0.0434  0.6759
 5743SOL    HW222738   5.465   1.712   0.440 -1.2346 -0.9854  0.9441
 5743SOL    HW322739   5.471   1.819   0.334  0.6072 -2.3538 -0.3927
 5743SOL    MW422740   5.430   1.781   0.401  0.2599 -0.4086  0.5703
 5744SOL     OW22741   0.068   2.836   3.836  0.8812 -0.3436  0.6868
 5744SOL    HW222742   0.152   2.881   3.839  0.9689 -0.4338 -0.2616
 5744SOL    HW322743   0.090   2.743   3.843  0.7754 -0.3209  1.4905
 5744SOL    MW422744   0.082   2.829   3.838  0.8788 -0.3525  0.6677
 5745SOL     OW22745   5.752   3.714   5.129  0.7498  0.8464  0.6673
 5745SOL    HW222746   5.661   3.684   5.139  0.6501  0.7393 -0.3857
 5745SOL    HW322747   5.749   3.808   5.151  0.2338  1.0040 -0.0346
 5745SOL    MW422748   5.739   3.723   5.133  0.6686  0.8530  0.4358
 5746SOL     OW22749   2.056   3.009   0.839 -0.2773  0.1180  0.1265
 5746SOL    HW222750   2.099   2.961   0.910  0.0375 -1.0280 -0.8110
 5746SOL    HW322751   2.127   3.052   0.792 -0.0052 -2.1136 -1.6752
 5746SOL    MW422752   2.071   3.009   0.842 -0.1998 -0.3276 -0.2349
 5747SOL     OW22753   3.525   4.234   6.016  0.2135  0.3006  0.0878
 5747SOL    HW222754   3.556   4.272   6.098  0.1163  1.7719 -0.5108
 5747SOL    HW322755   3.479   4.307   5.973 -0.4177 -0.6630 -0.9102
 5747SOL    MW422756   3.523   4.249   6.021  0.1174  0.3676 -0.1229
 5748SOL     OW22757   5.285   2.949   3.225 -0.0423 -0.0888  0.5147
 5748SOL    HW222758   5.287   2.946   3.321  1.0582 -1.0785  0.4784
 5748SOL    HW322759   5.308   2.860   3.197 -0.7941  0.0594 -0.6787
 5748SOL    MW422760   5.288   2.937   3.234  0.0037 -0.1998  0.3524
 5749SOL     OW22761   0.925   2.591   0.744  0.6630 -1.0531 -0.4350
 5749SOL    HW222762   0.966   2.603   0.830  1.3071 -1.5519 -0.6679
 5749SOL    HW322763   0.994   2.612   0.682  0.7814 -2.5422 -0.8389
 5749SOL    MW422764   0.939   2.595   0.747  0.7636 -1.3153 -0.5190
 5750SOL     OW22765   3.447   3.738   3.174 -0.1414  0.0045 -0.3978
 5750SOL    HW222766   3.540   3.739   3.152 -0.2050 -1.0564 -0.7403
 5750SOL    HW322767   3.403   3.761   3.092 -0.1688  1.2711 -0.0538
 5750SOL    MW422768   3.453   3.742   3.160 -0.1534  0.0316 -0.3976
 5751SOL     OW22769   1.153   5.916   2.565 -0.5706  0.2722  0.1539
 5751SOL    HW222770   1.242   5.885   2.578 -0.6777 -1.1232 -1.9310
 5751SOL    HW322771   1.163   5.994   2.511 -0.5708  0.7768  0.8743
 5751SOL    MW422772   1.166   5.922   2.559 -0.5848  0.1547 -0.0261
 5752SOL     OW22773   1.214   0.959   5.047 -0.3173  0.6163 -0.2312
 5752SOL    HW222774   1.305   0.974   5.019  0.0138 -0.2400  0.3541
 5752SOL    HW322775   1.198   1.029   5.110 -0.7334  1.9461 -1.7373
 5752SOL    MW422776   1.224   0.970   5.051 -0.3285  0.6788 -0.3527
 5753SOL     OW22777   2.723   5.250   5.022  0.0406  0.1169 -0.2426
 5753SOL    HW222778   2.790   5.317   5.040  1.4465 -0.5560 -2.5380
 5753SOL    HW322779   2.732   5.232   4.929 -1.3866 -2.1572 -0.0104
 5753SOL    MW422780   2.733   5.257   5.012  0.0378 -0.2719 -0.5148
 5754SOL     OW22781   5.682   0.220   1.309 -0.3678 -0.5274  0.2814
 5754SOL    HW222782   5.748   0.230   1.377 -2.8133 -3.0976  3.3452
 5754SOL    HW322783   5.705   0.139   1.264  0.6243  0.6042 -1.3801
 5754SOL    MW422784   5.694   0.211   1.312 -0.5596 -0.7172  0.4664
 5755SOL     OW22785   0.192   5.259   0.033  0.8598 -0.3810  0.9737
 5755SOL    HW222786   0.126   5.327   0.045  1.0620 -0.2380  1.2843
 5755SOL    HW322787   0.176   5.198   0.106  1.7213  0.1850  1.6525
 5755SOL    MW422788   0.181   5.260   0.044  1.0001 -0.2874  1.1043
 5756SOL     OW22789   0.809   3.292   3.556 -0.3891  0.2243 -0.2132
 5756SOL    HW222790   0.836   3.202   3.577  0.1465  0.1298 -1.2281
 5756SOL    HW322791   0.827   3.342   3.635 -3.3839 -1.0724  1.4539
 5756SOL    MW422792   0.815   3.286   3.569 -0.7135  0.0407 -0.1272
 5757SOL     OW22793   4.228   1.087   1.192  0.0821 -0.2106  0.0539
 5757SOL    HW222794   4.292   1.026   1.227  1.6542  1.3642  0.0847
 5757SOL    HW322795   4.226   1.159   1.255 -0.7514  0.3812 -0.6139
 5757SOL    MW422796   4.236   1.089   1.205  0.1795  0.0753 -0.0301
 5758SOL     OW22797   2.393   1.892   2.152 -0.1979 -0.0676 -0.0133
 5758SOL    HW222798   2.423   1.955   2.217 -1.8102  0.2467  0.4612
 5758SOL    HW322799   2.472   1.843   2.128  0.4423 -0.2041  2.1763
 5758SOL    MW422800   2.407   1.894   2.157 -0.3261 -0.0442  0.3382
 5759SOL     OW22801   2.033   5.642   0.231 -0.8428  0.1179  0.6996
 5759SOL    HW222802   1.985   5.650   0.149 -0.9622 -0.0447  0.7526
 5759SOL    HW322803   2.125   5.640   0.205 -0.9037 -0.5771  0.5184
 5759SOL    MW422804   2.039   5.643   0.217 -0.8666  0.0048  0.6827
 5760SOL     OW22805   3.124   4.877   5.174  0.1469 -0.2726  0.4009
 5760SOL    HW222806   3.079   4.798   5.143  1.1856 -1.3077  1.4602
 5760SOL    HW322807   3.081   4.898   5.257 -0.4179  0.5570 -0.0838
 5760SOL    MW422808   3.112   4.869   5.181  0.2094 -0.2997  0.4767
 5761SOL     OW22809   1.841   4.315   3.017 -0.2793  0.4985  0.2326
 5761SOL    HW222810   1.897   4.368   3.073  0.7833  0.2440 -0.5437
 5761SOL    HW322811   1.879   4.323   2.930 -1.1546 -0.1050 -0.2312
 5761SOL    MW422812   1.853   4.323   3.013 -0.2546  0.3853  0.0690
 5762SOL     OW22813   4.528   5.151   5.142  0.0351 -0.1814 -0.1462
 5762SOL    HW222814   4.539   5.082   5.076 -0.0136  0.1589 -0.5161
 5762SOL    HW322815   4.552   5.232   5.096 -0.5183  0.1227  0.0928
 5762SOL    MW422816   4.532   5.153   5.127 -0.0443 -0.0964 -0.1634
 5763SOL     OW22817   2.946   4.378   6.056  0.4079  0.3215 -0.0175
 5763SOL    HW222818   2.941   4.427   6.138  0.5577 -1.5680  1.1828
 5763SOL    HW322819   2.903   4.295   6.075  2.7620 -1.2295 -0.9982
 5763SOL    MW422820   2.940   4.374   6.069  0.7383 -0.1324  0.0115
 5764SOL     OW22821   6.368   5.541   1.161 -0.0169 -0.4412  0.0146
 5764SOL    HW222822   6.378   5.614   1.099  0.7811  0.9477  1.7076
 5764SOL    HW322823   6.389   5.463   1.109  2.3864  0.8119 -1.0769
 5764SOL    MW422824   6.372   5.540   1.146  0.4055 -0.0926  0.0940
 5765SOL     OW22825   5.461   1.619   4.271 -0.1596  0.7298  0.3316
 5765SOL    HW222826   5.439   1.694   4.215  0.6527  0.3869 -0.4568
 5765SOL    HW322827   5.554   1.603   4.255 -0.5234 -1.0104 -0.1899
 5765SOL    MW422828   5.470   1.627   4.261 -0.1005  0.4550  0.1587
 5766SOL     OW22829   4.010   3.020   2.866  0.2692 -0.4077 -0.6887
 5766SOL    HW222830   4.053   3.029   2.781  0.5124 -0.1622 -0.5414
 5766SOL    HW322831   3.990   2.926   2.873  2.1982 -0.8215 -0.0813
 5766SOL    MW422832   4.013   3.009   2.856  0.5558 -0.4299 -0.5891
 5767SOL     OW22833   4.905   3.464   2.432 -0.8913 -0.8250  0.3864
 5767SOL    HW222834   4.865   3.377   2.438 -2.0807 -0.3588 -0.2414
 5767SOL    HW322835   4.861   3.505   2.357 -1.6085  0.9239  1.6862
 5767SOL    MW422836   4.894   3.458   2.423 -1.1428 -0.5328  0.4750
 5768SOL     OW22837   1.069   3.733   0.802  0.1090  0.5513  0.1509
 5768SOL    HW222838   1.029   3.773   0.879 -0.2976  1.2463 -0.4040
 5768SOL    HW322839   1.154   3.702   0.832  0.0178  0.9537  0.8391
 5768SOL    MW422840   1.075   3.734   0.816  0.0433  0.6961  0.1685
 5769SOL     OW22841   6.354   3.260   5.970  0.2012  0.1809  0.8023
 5769SOL    HW222842   6.292   3.294   6.035  0.2858  0.1441  0.9023
 5769SOL    HW322843   6.380   3.174   6.004 -1.2041 -0.7054 -0.2129
 5769SOL    MW422844   6.349   3.253   5.983  0.0269  0.0591  0.6816
 5770SOL     OW22845   0.054   1.826   0.110 -0.2794  0.1829  0.0180
 5770SOL    HW222846   0.011   1.876   0.042  0.2198  0.3627 -0.1749
 5770SOL    HW322847   0.090   1.750   0.065 -0.1087  0.2075  0.1102
 5770SOL    MW422848   0.053   1.823   0.095 -0.1910  0.2099  0.0047
 5771SOL     OW22849   2.382   0.902   5.727 -0.3716 -0.3967 -0.2905
 5771SOL    HW222850   2.289   0.887   5.740 -0.0295 -1.3294  1.4327
 5771SOL    HW322851   2.387   0.976   5.666 -2.2150 -0.3425 -0.4155
 5771SOL    MW422852   2.371   0.910   5.721 -0.5697 -0.5126 -0.0796
 5772SOL     OW22853   5.014   3.532   4.388  0.4726 -0.0232 -0.4345
 5772SOL    HW222854   4.950   3.604   4.380 -0.8532 -1.0184  0.6679
 5772SOL    HW322855   5.070   3.542   4.311 -1.7869  0.1818 -2.1860
 5772SOL    MW422856   5.013   3.543   4.376 -0.0005 -0.1275 -0.5201
 5773SOL     OW22857   0.574   4.748   2.302 -0.3046  0.2914 -0.3084
 5773SOL    HW222858   0.574   4.676   2.240 -0.5287 -1.1305  1.2571
 5773SOL    HW322859   0.666   4.765   2.321 -0.2370 -1.5899  1.4358
 5773SOL    MW422860   0.586   4.741   2.296 -0.3253 -0.1444  0.1283
 5774SOL     OW22861   2.362   4.018   4.251  0.4234  0.4194  0.4864
 5774SOL    HW222862   2.438   3.960   4.252  2.4425  2.7768 -1.3771
 5774SOL    HW322863   2.313   3.996   4.330  1.8307 -2.6984  0.6322
 5774SOL    MW422864   2.366   4.008   4.261  0.8754  0.3191  0.2597
 5775SOL     OW22865   3.905   5.737   2.452  0.1933  0.2430 -0.4881
 5775SOL    HW222866   3.827   5.761   2.502 -0.3975 -0.2839 -1.1296
 5775SOL    HW322867   3.976   5.739   2.515 -0.1032  2.0150 -0.1494
 5775SOL    MW422868   3.904   5.741   2.467  0.0762  0.4072 -0.5281
 5776SOL     OW22869   4.683   4.431   4.984  0.5955 -0.6480  0.2311
 5776SOL    HW222870   4.749   4.362   4.976  2.2862  0.8701  0.3553
 5776SOL    HW322871   4.695   4.485   4.906 -2.1130 -1.5793 -0.9367
 5776SOL    MW422872   4.693   4.429   4.973  0.4612 -0.5706  0.0934
 5777SOL     OW22873   2.321   4.875   0.187  0.0240 -0.2802  0.2674
 5777SOL    HW222874   2.270   4.862   0.107  1.5647 -1.3542 -0.5968
 5777SOL    HW322875   2.325   4.969   0.199  2.0818  0.1088 -2.5470
 5777SOL    MW422876   2.315   4.885   0.178  0.4988 -0.3706 -0.2179
 5778SOL     OW22877   1.961   4.854   0.217  0.4846  0.3164  0.0358
 5778SOL    HW222878   2.002   4.837   0.132 -1.0135 -0.3274 -0.6147
 5778SOL    HW322879   2.023   4.820   0.281  0.8268 -0.9342 -0.9052
 5778SOL    MW422880   1.974   4.848   0.214  0.3321  0.0664 -0.1742
 5779SOL     OW22881   1.192   1.627  -0.025 -0.4584 -0.8689 -0.5219
 5779SOL    HW222882   1.102   1.595  -0.020 -0.9603  0.4200 -0.9184
 5779SOL    HW322883   1.194   1.701   0.036  0.7632 -1.8126  0.6362
 5779SOL    MW422884   1.180   1.633  -0.016 -0.3634 -0.8234 -0.4214
 5780SOL     OW22885   4.638   2.124   0.188 -0.3154  0.0547 -0.0717
 5780SOL    HW222886   4.643   2.071   0.108 -2.9288 -0.5852  0.0876
 5780SOL    HW322887   4.729   2.138   0.214  0.5349 -2.3593 -1.4504
 5780SOL    MW422888   4.651   2.119   0.181 -0.5480 -0.3482 -0.2326
 5781SOL     OW22889   0.563   0.529   0.619  0.2691 -0.0997  0.3168
 5781SOL    HW222890   0.634   0.505   0.559  0.5082  0.8879  0.1751
 5781SOL    HW322891   0.515   0.448   0.634  0.3486 -0.4117 -1.0249
 5781SOL    MW422892   0.566   0.515   0.613  0.3112 -0.0106  0.1211
 5782SOL     OW22893   5.940   3.659   0.174 -0.2177 -0.7483 -0.2667
 5782SOL    HW222894   5.901   3.689   0.257 -1.0025 -1.4114 -0.3796
 5782SOL    HW322895   6.013   3.603   0.201 -0.2060 -0.6204 -0.0263
 5782SOL    MW422896   5.944   3.655   0.189 -0.3197 -0.8189 -0.2499
 5783SOL     OW22897   1.880   1.526   6.272  0.0555 -0.1108  0.5271
 5783SOL    HW222898   1.953   1.587   6.258  0.4626 -1.0141 -1.6395
 5783SOL    HW322899   1.802   1.581   6.267  0.4258  0.3216 -1.1872
 5783SOL    MW422900   1.880   1.542   6.269  0.1581 -0.1729  0.0150
 5784SOL     OW22901   1.642   3.551   4.523  0.2453  0.5148 -0.2442
 5784SOL    HW222902   1.565   3.570   4.470 -1.2682 -0.1063  1.6195
 5784SOL    HW322903   1.671   3.637   4.554  0.3077  0.7486 -0.9345
 5784SOL    MW422904   1.636   3.565   4.520  0.0538  0.4637 -0.0894
 5785SOL     OW22905   0.040   0.341   1.328  0.5800 -0.0357 -0.5956
 5785SOL    HW222906   0.129   0.320   1.298  0.1371  0.7115 -2.6088
 5785SOL    HW322907   0.054   0.397   1.405  1.7804 -2.1884  0.8524
 5785SOL    MW422908   0.054   0.346   1.334  0.6799 -0.2211 -0.6702
 5786SOL     OW22909   3.908   0.869   4.966  0.5702  0.1180 -0.6766
 5786SOL    HW222910   3.908   0.931   5.038 -0.7731 -0.7415  0.0973
 5786SOL    HW322911   3.868   0.917   4.893  0.0378  0.3251 -0.2492
 5786SOL    MW422912   3.903   0.884   4.966  0.3228  0.0319 -0.5181
 5787SOL     OW22913   1.549   4.499   1.887  0.1663 -0.7322  0.2664
 5787SOL    HW222914   1.552   4.461   1.799 -1.4780  1.0590 -0.6294
 5787SOL    HW322915   1.545   4.594   1.872 -2.0155 -0.4485  2.1923
 5787SOL    MW422916   1.549   4.507   1.873 -0.3385 -0.4584  0.4023
 5788SOL     OW22917   5.260   2.847   4.526  0.4307  0.1689  0.0688
 5788SOL    HW222918   5.166   2.832   4.515  0.7865 -1.3222 -1.4981
 5788SOL    HW322919   5.270   2.942   4.518 -0.8530  0.2653 -0.7385
 5788SOL    MW422920   5.249   2.857   4.523  0.3083 -0.0151 -0.2445
 5789SOL     OW22921   4.132   1.128   5.505 -0.2603  0.5915 -0.1112
 5789SOL    HW222922   4.178   1.146   5.424  0.5014 -1.7621 -0.2724
 5789SOL    HW322923   4.041   1.115   5.479  0.0173 -0.3574 -0.6594
 5789SOL    MW422924   4.126   1.128   5.491 -0.1232  0.1558 -0.2048
 5790SOL     OW22925   2.977   5.757   5.123  0.2985 -0.5014 -0.4930
 5790SOL    HW222926   2.981   5.753   5.218  1.8027 -2.3622 -0.5632
 5790SOL    HW322927   2.886   5.733   5.102 -0.7245  2.1328  0.4420
 5790SOL    MW422928   2.965   5.753   5.133  0.3620 -0.3993 -0.3789
 5791SOL     OW22929   5.039   3.012   1.561  0.0615 -0.0947  0.2099
 5791SOL    HW222930   5.053   2.997   1.655 -1.4425 -0.2427  0.4407
 5791SOL    HW322931   4.945   3.001   1.549  0.0191  1.3422 -1.0740
 5791SOL    MW422932   5.029   3.009   1.572 -0.1426  0.0754  0.0710
 5792SOL     OW22933   0.349   4.272   5.094 -0.1165  0.4257  0.2554
 5792SOL    HW222934   0.330   4.198   5.036  0.8405  0.2807  0.0972
 5792SOL    HW322935   0.373   4.343   5.035 -0.1849  0.6012  0.4400
 5792SOL    MW422936   0.350   4.271   5.078  0.0007  0.4298  0.2589
 5793SOL     OW22937   2.476   6.337   1.664 -0.0683 -0.4477 -0.1956
 5793SOL    HW222938   2.476   6.255   1.615 -0.1869 -0.0897 -0.7991
 5793SOL    HW322939   2.510   6.402   1.603  1.3719 -0.2952  0.7189
 5793SOL    MW422940   2.480   6.334   1.650  0.1060 -0.3803 -0.1546
 5794SOL     OW22941   4.374   2.452   2.266 -0.3366 -0.1471 -0.2359
 5794SOL    HW222942   4.342   2.507   2.338 -0.2198  0.4730 -0.6527
 5794SOL    HW322943   4.430   2.387   2.309  0.7452  0.9758  0.1290
 5794SOL    MW422944   4.377   2.451   2.281 -0.1784  0.0829 -0.2428
 5795SOL     OW22945   5.174   2.933   1.306  0.2544  0.2582  0.7121
 5795SOL    HW222946   5.092   2.941   1.354 -0.2790 -0.4317 -0.0507
 5795SOL    HW322947   5.241   2.924   1.374 -0.1777  1.6383  1.3653
 5795SOL    MW422948   5.172   2.933   1.321  0.1270  0.3493  0.6977
 5796SOL     OW22949   0.350   1.422   5.758 -0.1314 -0.4256 -0.4123
 5796SOL    HW222950   0.348   1.332   5.791  0.8539 -0.2058  0.3183
 5796SOL    HW322951   0.436   1.431   5.718 -1.0084 -0.4271 -2.3724
 5796SOL    MW422952   0.361   1.412   5.757 -0.1171 -0.3968 -0.5745
 5797SOL     OW22953   3.928   2.300   5.966 -0.8367 -0.3650 -0.0262
 5797SOL    HW222954   4.001   2.253   6.007 -0.0749  0.3906 -0.4763
 5797SOL    HW322955   3.850   2.254   5.996 -0.3224  0.0943  2.1828
 5797SOL    MW422956   3.927   2.287   5.975 -0.6683 -0.2047  0.2058
 5798SOL     OW22957   5.366   5.738   2.658  0.0835  0.3184  0.1912
 5798SOL    HW222958   5.301   5.710   2.594 -0.8256  0.0712  1.1941
 5798SOL    HW322959   5.345   5.830   2.675  0.0297  0.2533  0.4788
 5798SOL    MW422960   5.355   5.747   2.652 -0.0435  0.2772  0.3615
 5799SOL     OW22961   1.737   5.052   5.720  0.2045  0.2987 -0.3804
 5799SOL    HW222962   1.654   5.073   5.763  0.4207 -0.5691  0.5034
 5799SOL    HW322963   1.802   5.105   5.767  0.5358 -1.1411  0.8548
 5799SOL    MW422964   1.734   5.062   5.732  0.2767 -0.0058 -0.1009
 5800SOL     OW22965   0.447   1.322   0.690 -0.2165 -0.6872 -0.0428
 5800SOL    HW222966   0.522   1.312   0.748 -0.1601 -1.3605 -0.2309
 5800SOL    HW322967   0.485   1.348   0.606  0.0752 -3.5248 -0.8818
 5800SOL    MW422968   0.462   1.324   0.687 -0.1706 -1.1504 -0.1783
 5801SOL     OW22969   3.453   1.701   2.760  0.7745  0.4932 -0.0123
 5801SOL    HW222970   3.442   1.607   2.766 -1.0232  0.7577  1.9296
 5801SOL    HW322971   3.390   1.729   2.693 -0.2360  0.4877  0.9014
 5801SOL    MW422972   3.443   1.693   2.752  0.4040  0.5274  0.3644
 5802SOL     OW22973   0.111   3.779   5.469 -0.1120 -0.5298  0.3032
 5802SOL    HW222974   0.143   3.869   5.463  0.4416 -0.6768  0.8615
 5802SOL    HW322975   0.091   3.767   5.562 -1.0835 -0.6909  0.0808
 5802SOL    MW422976   0.113   3.789   5.480 -0.1672 -0.5705  0.3475
 5803SOL     OW22977   2.599   5.010   3.253 -0.0660 -0.0795 -0.3737
 5803SOL    HW222978   2.585   5.105   3.249 -0.7815 -0.1804 -0.4392
 5803SOL    HW322979   2.694   5.000   3.257  0.0019  0.6644  0.2212
 5803SOL    MW422980   2.610   5.021   3.253 -0.1514  0.0053 -0.3039
 5804SOL     OW22981   2.448   5.331   0.104 -0.9228  0.1846  0.1784
 5804SOL    HW222982   2.444   5.306   0.011 -0.4556 -0.4636  0.3303
 5804SOL    HW322983   2.393   5.410   0.109 -2.1734 -0.6094 -0.3719
 5804SOL    MW422984   2.440   5.338   0.092 -1.0262 -0.0057  0.1259
 5805SOL     OW22985   0.987   4.235   2.397  0.2251  0.0256 -0.5502
 5805SOL    HW222986   1.050   4.307   2.401 -0.6050  0.7298  0.5165
 5805SOL    HW322987   0.905   4.276   2.369 -0.0254 -0.6737 -0.8722
 5805SOL    MW422988   0.984   4.250   2.394  0.0826  0.0263 -0.4519
 5806SOL     OW22989   6.208   3.771   4.830  0.3471  0.2573 -0.9559
 5806SOL    HW222990   6.157   3.769   4.749 -2.1047 -1.0870  0.4894
 5806SOL    HW322991   6.166   3.704   4.886  1.9511  1.0958  1.3961
 5806SOL    MW422992   6.195   3.762   4.827  0.2352  0.1906 -0.4549
 5807SOL     OW22993   4.622   3.327   3.676 -0.4920  0.1869 -0.4360
 5807SOL    HW222994   4.616   3.249   3.731  0.3305  0.0960 -0.4670
 5807SOL    HW322995   4.531   3.351   3.659 -0.7530 -0.7454 -0.3999
 5807SOL    MW422996   4.609   3.320   3.681 -0.4179  0.0519 -0.4353
 5808SOL     OW22997   5.825   1.100   5.021  0.4846  0.3534 -0.5332
 5808SOL    HW222998   5.862   1.182   5.052  0.3414  0.3719 -0.4132
 5808SOL    HW322999   5.731   1.108   5.035  0.4995  0.0522 -0.2476
 5808SOL    MW423000   5.818   1.112   5.027  0.4676  0.3161 -0.4797
 5809SOL     OW23001   1.939   1.367   3.646  0.2082 -0.3651  0.2268
 5809SOL    HW223002   1.881   1.297   3.675  0.1155  0.1940  1.4527
 5809SOL    HW323003   1.891   1.448   3.668  0.3203  0.1032 -1.1213
 5809SOL    MW423004   1.925   1.369   3.653  0.2108 -0.2296  0.2107
 5810SOL     OW23005   5.371   1.831   3.197  0.2562  0.4282  0.6929
 5810SOL    HW223006   5.443   1.879   3.158 -0.8710  1.8057  0.2114
 5810SOL    HW323007   5.309   1.818   3.124  0.4564 -1.6473  0.8425
 5810SOL    MW423008   5.372   1.835   3.182  0.1339  0.3361  0.6491
 5811SOL     OW23009   5.187   1.398   1.417 -0.1966  0.0425 -0.4261
 5811SOL    HW223010   5.139   1.470   1.457 -0.7366  0.4771 -1.7962
 5811SOL    HW323011   5.120   1.346   1.372  0.4750  0.1242 -1.5617
 5811SOL    MW423012   5.172   1.400   1.416 -0.1793  0.1106 -0.7567
 5812SOL     OW23013   4.894   4.432   3.168  0.5023 -0.4110 -0.1180
 5812SOL    HW223014   4.904   4.345   3.207  1.7028 -0.7765 -1.1633
 5812SOL    HW323015   4.944   4.490   3.226 -1.8254 -0.0224  1.6467
 5812SOL    MW423016   4.902   4.428   3.181  0.3536 -0.4079 -0.0231
 5813SOL     OW23017   4.296   3.089   2.879  1.1243  0.2842 -0.0778
 5813SOL    HW223018   4.220   3.059   2.929  1.1426 -0.0694 -0.2535
 5813SOL    HW323019   4.369   3.035   2.910  1.2286  0.3683 -0.1719
 5813SOL    MW423020   4.296   3.078   2.889  1.1405  0.2487 -0.1134
 5814SOL     OW23021   6.106   4.238   4.852  0.8294 -0.2573 -0.2398
 5814SOL    HW223022   6.082   4.150   4.883 -0.9157  0.3695  0.2893
 5814SOL    HW323023   6.146   4.280   4.928 -0.8828  0.3178  0.3941
 5814SOL    MW423024   6.108   4.232   4.866  0.3733 -0.0987 -0.0864
 5815SOL     OW23025   4.528   2.684   0.291  0.1841 -0.2598 -0.2337
 5815SOL    HW223026   4.571   2.763   0.324  0.3333 -0.5764  0.3385
 5815SOL    HW323027   4.448   2.677   0.343  1.6187 -2.1505  1.9353
 5815SOL    MW423028   4.523   2.693   0.302  0.3931 -0.5511  0.1280
 5816SOL     OW23029   1.254   2.932   1.615  0.0287 -0.2853 -0.4379
 5816SOL    HW223030   1.249   3.010   1.560  0.4312  0.5807  0.7262
 5816SOL    HW323031   1.326   2.949   1.675 -1.0303 -0.7595  1.0227
 5816SOL    MW423032   1.263   2.945   1.615 -0.0579 -0.2336 -0.0916
 5817SOL     OW23033   5.150   4.249   5.619 -0.1057  0.3638  0.2306
 5817SOL    HW223034   5.113   4.200   5.545  1.8973  0.6399 -1.0342
 5817SOL    HW323035   5.242   4.260   5.596 -0.1917  3.7124  0.9951
 5817SOL    MW423036   5.157   4.244   5.606  0.1473  0.8420  0.1646
 5818SOL     OW23037   1.489   5.190   4.859 -0.0084  0.0301  0.3981
 5818SOL    HW223038   1.510   5.098   4.845  2.2259  0.6196 -0.5045
 5818SOL    HW323039   1.395   5.190   4.879 -0.1994 -2.3578 -0.1675
 5818SOL    MW423040   1.479   5.178   4.860  0.2612 -0.2072  0.2044
 5819SOL     OW23041   3.146   3.028   5.361  0.0170  0.3495 -0.9356
 5819SOL    HW223042   3.073   2.985   5.406 -0.7170  0.1252 -2.2886
 5819SOL    HW323043   3.224   2.995   5.405 -0.6689 -0.0077  0.0323
 5819SOL    MW423044   3.147   3.018   5.373 -0.1703  0.2728 -0.9864
 5820SOL     OW23045   5.926   0.513   2.265  0.7746  0.1477  0.1609
 5820SOL    HW223046   6.011   0.482   2.234 -0.6051 -1.1970 -2.5441
 5820SOL    HW323047   5.889   0.562   2.192 -1.6527 -1.0740  0.4767
 5820SOL    MW423048   5.932   0.515   2.251  0.2723 -0.1909 -0.1543
 5821SOL     OW23049   0.950   0.613   1.437 -0.1233  0.2645  0.0741
 5821SOL    HW223050   0.897   0.664   1.498  0.0822  0.7087 -0.1108
 5821SOL    HW323051   0.967   0.672   1.364  0.4145  0.0517  0.0158
 5821SOL    MW423052   0.945   0.627   1.435 -0.0252  0.2950  0.0420
 5822SOL     OW23053   0.401   1.768   0.581 -0.0295 -0.2370 -0.7059
 5822SOL    HW223054   0.430   1.770   0.672  0.1945  0.6973 -0.7803
 5822SOL    HW323055   0.313   1.804   0.583 -0.4867 -1.3142 -0.7220
 5822SOL    MW423056   0.394   1.773   0.593 -0.0603 -0.2558 -0.7178
 5823SOL     OW23057   2.241   0.915   0.985 -0.3098 -0.0684  0.3669
 5823SOL    HW223058   2.208   0.941   1.071 -0.7085  0.9835 -0.0851
 5823SOL    HW323059   2.304   0.846   1.003  1.1871  1.5520  1.6808
 5823SOL    MW423060   2.245   0.909   0.999 -0.1649  0.2842  0.4806
 5824SOL     OW23061   6.099   1.676   2.813 -0.0859 -0.2517  0.5702
 5824SOL    HW223062   6.025   1.673   2.753  0.5228  2.1043 -0.4234
 5824SOL    HW323063   6.096   1.764   2.850  2.4536  0.0836  0.1608
 5824SOL    MW423064   6.089   1.687   2.810  0.3295  0.1034  0.3851
 5825SOL     OW23065   3.594   0.039   1.388  0.6688  0.0008  0.9553
 5825SOL    HW223066   3.566   0.120   1.430  0.5089 -0.2366  1.3104
 5825SOL    HW323067   3.676   0.061   1.343 -0.5033  0.9466 -0.8477
 5825SOL    MW423068   3.601   0.052   1.387  0.4931  0.0943  0.7642
 5826SOL     OW23069   3.231   0.345   5.654  0.7580  0.0926 -0.1646
 5826SOL    HW223070   3.220   0.375   5.744 -0.3263  1.0984 -0.6066
 5826SOL    HW323071   3.324   0.353   5.637  0.9964 -0.2300  0.8979
 5826SOL    MW423072   3.242   0.350   5.664  0.6464  0.1827 -0.0827
 5827SOL     OW23073   3.671   2.125   0.227  0.2749  0.0081 -0.1795
 5827SOL    HW223074   3.702   2.214   0.215 -0.5959  0.0660 -2.3628
 5827SOL    HW323075   3.605   2.112   0.158  0.7861 -2.4950 -0.3020
 5827SOL    MW423076   3.666   2.135   0.216  0.2275 -0.3145 -0.4837
 5828SOL     OW23077   0.684   1.337   0.472 -0.0385 -0.1990  1.0676
 5828SOL    HW223078   0.679   1.241   0.475  1.8728 -0.3580  0.4382
 5828SOL    HW323079   0.699   1.357   0.380 -0.4513  0.7323  1.1942
 5828SOL    MW423080   0.685   1.327   0.460  0.1592 -0.0971  1.0013
 5829SOL     OW23081   6.172   5.879   0.928  0.3589  0.2181 -0.0863
 5829SOL    HW223082   6.207   5.963   0.899 -0.8208  0.1599 -1.8605
 5829SOL    HW323083   6.092   5.902   0.976 -0.0967  0.1131 -0.7847
 5829SOL    MW423084   6.166   5.893   0.931  0.1431  0.1966 -0.4125
 5830SOL     OW23085   0.602   4.583   5.938  0.0776  0.0278  0.3011
 5830SOL    HW223086   0.549   4.523   5.989  0.6371 -0.0291  0.8212
 5830SOL    HW323087   0.569   4.575   5.849 -0.5864 -0.2232  0.5698
 5830SOL    MW423088   0.591   4.574   5.933  0.0638 -0.0128  0.4052
 5831SOL     OW23089   0.465   0.107   4.177 -0.6311  0.0980  0.1332
 5831SOL    HW223090   0.446   0.153   4.258 -0.3436  0.6708 -0.1241
 5831SOL    HW323091   0.555   0.078   4.186 -0.4934  0.4428 -0.1116
 5831SOL    MW423092   0.474   0.109   4.189 -0.5750  0.2190  0.0670
 5832SOL     OW23093   4.314   2.687   3.651  0.3417 -0.1865  0.7365
 5832SOL    HW223094   4.385   2.670   3.714  0.4041 -3.4246 -0.0241
 5832SOL    HW323095   4.353   2.746   3.587  0.9471  1.4597  2.5001
 5832SOL    MW423096   4.329   2.693   3.651  0.4298 -0.3965  0.8688
 5833SOL     OW23097   4.737   5.501   5.682  0.0713  0.3460  0.3903
 5833SOL    HW223098   4.831   5.488   5.667  0.3367  1.3291  1.1732
 5833SOL    HW323099   4.705   5.415   5.709  0.6056 -0.1576 -0.5137
 5833SOL    MW423100   4.745   5.488   5.683  0.1768  0.4092  0.3744
 5834SOL     OW23101   1.965   4.864   5.193 -0.4010  0.0509 -0.7360
 5834SOL    HW223102   1.907   4.920   5.141 -1.4149 -0.3124 -0.0109
 5834SOL    HW323103   2.041   4.851   5.136 -1.1819  0.2233 -1.8630
 5834SOL    MW423104   1.967   4.870   5.178 -0.6378  0.0257 -0.7890
 5835SOL     OW23105   3.984   6.318   4.131  0.1750 -0.2183 -0.3185
 5835SOL    HW223106   4.071   6.301   4.095  0.2431 -0.1035 -0.2094
 5835SOL    HW323107   3.963   6.239   4.182  0.5717  0.0958  0.3422
 5835SOL    MW423108   3.992   6.305   4.133  0.2363 -0.1617 -0.2169
 5836SOL     OW23109   1.948   1.984   2.383 -0.1495  0.0558  0.0092
 5836SOL    HW223110   1.856   1.994   2.409 -1.2469 -2.1267 -2.5541
 5836SOL    HW323111   1.976   1.904   2.426  0.7330  0.8722  1.0276
 5836SOL    MW423112   1.939   1.975   2.392 -0.1778 -0.1244 -0.1946
 5837SOL     OW23113   3.952   0.259   3.857 -0.1406 -0.5258 -0.1232
 5837SOL    HW223114   3.929   0.343   3.818  0.6535 -0.5283 -0.6281
 5837SOL    HW323115   3.975   0.280   3.948 -2.5696 -0.6045  0.5689
 5837SOL    MW423116   3.952   0.273   3.864 -0.3563 -0.5365 -0.0985
 5838SOL     OW23117   3.398   1.110   6.228  0.7255  0.4772 -0.0707
 5838SOL    HW223118   3.303   1.104   6.235  0.8862 -1.5149  1.1019
 5838SOL    HW323119   3.425   1.158   6.306  0.7979 -0.7653  0.6930
 5838SOL    MW423120   3.389   1.116   6.239  0.7563  0.0504  0.1848
 5839SOL     OW23121   1.275   3.432   4.860  0.8317 -0.0055 -0.2460
 5839SOL    HW223122   1.250   3.373   4.788 -0.8107 -0.2563  0.4846
 5839SOL    HW323123   1.225   3.512   4.845  0.5204 -0.0361  0.5699
 5839SOL    MW423124   1.265   3.434   4.849  0.5739 -0.0426 -0.0420
 5840SOL     OW23125   3.074   1.109   0.872  0.3733 -0.4932 -0.4198
 5840SOL    HW223126   2.996   1.131   0.821 -0.7192 -1.8199  0.5912
 5840SOL    HW323127   3.114   1.037   0.823  0.6520 -0.1988 -0.6301
 5840SOL    MW423128   3.069   1.102   0.859  0.2660 -0.6294 -0.3141
 5841SOL     OW23129   4.561   0.905   3.842 -0.7056  0.7503  0.1822
 5841SOL    HW223130   4.540   0.835   3.904  0.2638  1.5150  1.4162
 5841SOL    HW323131   4.575   0.859   3.759 -2.0957 -0.2920  0.4798
 5841SOL    MW423132   4.560   0.889   3.839 -0.7611  0.7136  0.3843
 5842SOL     OW23133   3.574   2.365   5.414  0.2556  0.0403  0.0115
 5842SOL    HW223134   3.644   2.422   5.445  1.2710 -0.5995 -1.0166
 5842SOL    HW323135   3.595   2.279   5.451  1.1639 -0.6037 -1.8795
 5842SOL    MW423136   3.586   2.361   5.423  0.5094 -0.1291 -0.3736
 5843SOL     OW23137   1.577   0.728   1.844 -0.7026  0.1066 -0.5020
 5843SOL    HW223138   1.547   0.810   1.805  0.3154  1.4783  1.4334
 5843SOL    HW323139   1.654   0.704   1.793 -0.5782  0.7589 -0.6297
 5843SOL    MW423140   1.583   0.736   1.832 -0.5518  0.3736 -0.2635
 5844SOL     OW23141   6.139   0.974   5.267  0.3125 -0.0832  0.2307
 5844SOL    HW223142   6.102   1.028   5.337 -0.6662  1.2406 -1.2131
 5844SOL    HW323143   6.206   1.030   5.227 -0.1042 -0.2433 -0.7351
 5844SOL    MW423144   6.143   0.989   5.271  0.1284  0.0704 -0.0872
 5845SOL     OW23145   3.793   1.036   3.559 -0.2006 -0.2407  0.0903
 5845SOL    HW223146   3.833   1.039   3.472  0.4494 -0.1664  0.3895
 5845SOL    HW323147   3.817   1.120   3.599  0.6070 -0.8071  0.8260
 5845SOL    MW423148   3.801   1.048   3.553 -0.0083 -0.3056  0.2268
 5846SOL     OW23149   3.315   4.418   2.866  0.6621  0.3582 -0.5676
 5846SOL    HW223150   3.367   4.482   2.915 -0.1210 -1.8987  3.6715
 5846SOL    HW323151   3.368   4.339   2.865 -0.1098 -0.1744 -1.9061
 5846SOL    MW423152   3.329   4.416   2.873  0.4569 -0.0098 -0.1849
 5847SOL     OW23153   0.228   5.740   6.032  0.4425  0.4992  0.4536
 5847SOL    HW223154   0.225   5.651   6.069  1.4442  0.0464 -0.5004
 5847SOL    HW323155   0.136   5.764   6.020  0.1460 -1.0076 -0.6268
 5847SOL    MW423156   0.216   5.731   6.035  0.5356  0.2406  0.1852
 5848SOL     OW23157   6.366   2.190   3.398 -0.0069 -0.5897 -0.5097
 5848SOL    HW223158   6.355   2.281   3.426  1.9315 -0.0057 -1.4986
 5848SOL    HW323159   6.376   2.195   3.303  0.7263 -1.7417 -0.5107
 5848SOL    MW423160   6.366   2.203   3.390  0.3456 -0.6646 -0.6403
 5849SOL     OW23161   0.834   1.589   3.284 -0.5076  0.0838  0.2117
 5849SOL    HW223162   0.795   1.585   3.197  0.3500 -0.0522 -0.1693
 5849SOL    HW323163   0.792   1.665   3.325 -0.3302  0.6387 -0.6118
 5849SOL    MW423164   0.823   1.599   3.278 -0.3710  0.1391  0.0528
 5850SOL     OW23165   2.123   0.404   0.030 -0.4141  0.0047  0.1716
 5850SOL    HW223166   2.031   0.377   0.026 -0.4795  0.1049  0.8734
 5850SOL    HW323167   2.168   0.331   0.072 -0.5548  0.8527  1.8687
 5850SOL    MW423168   2.116   0.391   0.035 -0.4413  0.1298  0.4881
 5851SOL     OW23169   4.859   2.634   1.904  0.4155 -0.4924 -0.2367
 5851SOL    HW223170   4.815   2.621   1.820  0.6397  1.1302 -0.6306
 5851SOL    HW323171   4.834   2.722   1.931 -1.5961 -1.8021  2.6137
 5851SOL    MW423172   4.850   2.644   1.896  0.1797 -0.4512  0.0874
 5852SOL     OW23173   5.998   3.729   3.867 -0.6939  0.1289 -0.2672
 5852SOL    HW223174   6.057   3.761   3.935  0.0693 -0.4655 -0.6441
 5852SOL    HW323175   5.948   3.807   3.840  2.8072  1.7376 -2.9006
 5852SOL    MW423176   5.999   3.744   3.872 -0.1313  0.2627 -0.6643
 5853SOL     OW23177   6.015   4.550   0.788 -0.0304  0.0724  0.1918
 5853SOL    HW223178   5.951   4.610   0.826  1.8395  0.8444  2.2945
 5853SOL    HW323179   6.040   4.493   0.860 -0.1285 -1.8651 -1.2292
 5853SOL    MW423180   6.010   4.550   0.802  0.2033 -0.0814  0.2817
 5854SOL     OW23181   1.699   1.838   3.603  0.8024 -0.2484 -1.1602
 5854SOL    HW223182   1.613   1.830   3.562  1.4638 -1.5902 -2.3744
 5854SOL    HW323183   1.719   1.932   3.597  0.0734 -0.1351 -2.2520
 5854SOL    MW423184   1.690   1.849   3.597  0.7935 -0.4105 -1.4645
 5855SOL     OW23185   6.342   1.746   0.498 -0.4663  0.2400 -0.0872
 5855SOL    HW223186   6.335   1.829   0.450 -1.0857  0.6272  0.6717
 5855SOL    HW323187   6.399   1.766   0.572  0.2328 -0.2812 -0.4749
 5855SOL    MW423188   6.349   1.760   0.501 -0.4558  0.2223 -0.0382
 5856SOL     OW23189   1.660   4.862   1.790 -0.6917 -0.2491  0.4695
 5856SOL    HW223190   1.648   4.955   1.804 -2.0752 -0.2652 -0.4844
 5856SOL    HW323191   1.679   4.853   1.697  0.9426 -0.8154  0.8093
 5856SOL    MW423192   1.661   4.873   1.780 -0.6586 -0.3259  0.3885
 5857SOL     OW23193   2.893   0.642   5.579 -0.5107  0.2390 -0.2093
 5857SOL    HW223194   2.977   0.610   5.547 -0.5623 -0.0661 -0.0533
 5857SOL    HW323195   2.834   0.633   5.504 -0.7631 -0.9934  0.1019
 5857SOL    MW423196   2.896   0.636   5.565 -0.5508  0.0362 -0.1477
 5858SOL     OW23197   1.670   0.240   4.371 -0.2894  0.0011 -0.0178
 5858SOL    HW223198   1.584   0.207   4.399 -0.4933  0.6403  0.1183
 5858SOL    HW323199   1.715   0.262   4.452 -0.3203  0.4639 -0.1241
 5858SOL    MW423200   1.664   0.238   4.385 -0.3204  0.1465 -0.0139
 5859SOL     OW23201   0.798   0.081   1.551  0.8134  0.5978 -0.0390
 5859SOL    HW223202   0.799  -0.012   1.575 -1.5475  0.4747 -0.1488
 5859SOL    HW323203   0.786   0.127   1.634  1.8577  0.8266  0.0007
 5859SOL    MW423204   0.797   0.075   1.565  0.6397  0.6117 -0.0482
 5860SOL     OW23205   5.961   3.714   4.386 -0.4719  0.0262 -0.0548
 5860SOL    HW223206   5.892   3.709   4.320 -0.9700 -0.0378  0.4632
 5860SOL    HW323207   6.024   3.646   4.362  0.3071  1.2046 -1.5304
 5860SOL    MW423208   5.960   3.705   4.374 -0.4348  0.1733 -0.1812
 5861SOL     OW23209   2.498   0.208   3.769  0.2913 -0.0741 -0.2110
 5861SOL    HW223210   2.488   0.120   3.805 -0.0351  0.2555  0.5246
 5861SOL    HW323211   2.558   0.197   3.695  0.5555 -0.8514  0.1059
 5861SOL    MW423212   2.505   0.195   3.764  0.2831 -0.1332 -0.0722
 5862SOL     OW23213   4.653   0.971   0.428 -0.2425  0.0214 -0.2108
 5862SOL    HW223214   4.666   0.906   0.358  0.3787 -0.1690  0.0744
 5862SOL    HW323215   4.729   1.029   0.420 -1.3093  1.3595 -1.1389
 5862SOL    MW423216   4.665   0.970   0.418 -0.3013  0.1728 -0.2956
 5863SOL     OW23217   3.519   5.527   3.489  0.0478  0.9231 -0.0318
 5863SOL    HW223218   3.477   5.467   3.551  0.6397 -0.7651 -1.1998
 5863SOL    HW323219   3.554   5.471   3.420  2.3390  2.4498 -0.2276
 5863SOL    MW423220   3.518   5.512   3.488  0.4282  0.9018 -0.2117
 5864SOL     OW23221   3.432   3.843   2.498 -0.2004 -0.3252 -0.5597
 5864SOL    HW223222   3.365   3.904   2.467 -0.2373  0.7178  1.4280
 5864SOL    HW323223   3.461   3.879   2.582  2.4246 -1.0901 -1.0410
 5864SOL    MW423224   3.427   3.855   2.505  0.1411 -0.2885 -0.3610
 5865SOL     OW23225   3.454   3.239   5.354 -0.8463 -0.2067  0.4044
 5865SOL    HW223226   3.437   3.181   5.280 -2.6765 -2.1717  2.2352
 5865SOL    HW323227   3.382   3.303   5.352  0.0383  0.8152 -0.4127
 5865SOL    MW423228   3.442   3.240   5.344 -0.9711 -0.3311  0.5381
 5866SOL     OW23229   5.718   2.178   0.153 -0.4208 -0.5269  0.5213
 5866SOL    HW223230   5.789   2.171   0.218 -0.4780 -0.7196  0.5663
 5866SOL    HW323231   5.726   2.266   0.118  0.0303 -0.6480  0.3141
 5866SOL    MW423232   5.729   2.188   0.157 -0.3689 -0.5683  0.4999
 5867SOL     OW23233   0.788   3.305   1.517 -0.3391 -0.3201  0.2545
 5867SOL    HW223234   0.812   3.244   1.587  1.6177 -2.0391 -1.7323
 5867SOL    HW323235   0.766   3.248   1.443  2.1631  1.2787 -1.8959
 5867SOL    MW423236   0.788   3.289   1.516  0.2492 -0.3360 -0.2914
 5868SOL     OW23237   1.347   2.979   1.209  0.5623 -0.0462  0.2458
 5868SOL    HW223238   1.287   3.054   1.209  1.5330  0.7421 -0.7325
 5868SOL    HW323239   1.311   2.921   1.276 -0.9540  0.6828  0.1082
 5868SOL    MW423240   1.334   2.981   1.218  0.4903  0.1540  0.0986
 5869SOL     OW23241   0.394   0.640   5.918  0.3245 -0.0845 -0.4195
 5869SOL    HW223242   0.433   0.700   5.982  0.3212  0.0806 -0.5702
 5869SOL    HW323243   0.406   0.684   5.834 -2.0710  1.0033 -0.2810
 5869SOL    MW423244   0.401   0.654   5.915  0.0080  0.0808 -0.4211
 5870SOL     OW23245   4.600   1.601   2.290 -0.1849 -0.0949  0.6926
 5870SOL    HW223246   4.632   1.531   2.233  0.2505  0.4397  0.2754
 5870SOL    HW323247   4.551   1.555   2.359  1.5563 -0.9615  1.4222
 5870SOL    MW423248   4.597   1.586   2.292  0.1023 -0.1387  0.7338
 5871SOL     OW23249   4.113   1.440   0.009 -0.0447  0.3130  0.9030
 5871SOL    HW223250   4.059   1.430  -0.069  1.2269  2.2665 -0.2956
 5871SOL    HW323251   4.092   1.363   0.062  1.2686 -2.8549 -2.7045
 5871SOL    MW423252   4.103   1.428   0.005  0.2963  0.1528  0.2689
 5872SOL     OW23253   4.796   2.989   2.902 -0.1188 -0.1239  0.3953
 5872SOL    HW223254   4.739   3.003   2.826 -0.3335  0.2030  0.6152
 5872SOL    HW323255   4.749   3.030   2.975  0.8747  1.0691  0.3961
 5872SOL    MW423256   4.782   2.996   2.902 -0.0161  0.0767  0.4244
 5873SOL     OW23257   4.443   5.377   1.482 -0.2810  0.5995  0.2236
 5873SOL    HW223258   4.379   5.312   1.510  1.3317  0.1877  3.3650
 5873SOL    HW323259   4.420   5.395   1.390 -1.9439 -2.9719 -0.2301
 5873SOL    MW423260   4.432   5.371   1.473 -0.2876  0.0739  0.5782
 5874SOL     OW23261   3.581   4.006   4.708 -0.4573 -0.1466  0.0008
 5874SOL    HW223262   3.525   4.017   4.784 -0.1292 -0.6438  0.3177
 5874SOL    HW323263   3.654   4.066   4.723 -0.1453 -0.5990  0.3197
 5874SOL    MW423264   3.583   4.015   4.720 -0.3729 -0.2719  0.0846
 5875SOL     OW23265   5.399   2.076   1.431 -0.1591  0.0654 -0.8816
 5875SOL    HW223266   5.341   2.150   1.413 -2.7767 -1.4161  0.7473
 5875SOL    HW323267   5.441   2.098   1.514 -1.4962 -0.5245 -0.0214
 5875SOL    MW423268   5.397   2.089   1.440 -0.6809 -0.2079 -0.5532
 5876SOL     OW23269   1.274   4.012   3.533 -0.2607 -0.2049  0.0852
 5876SOL    HW223270   1.369   4.023   3.531 -0.2817  0.0870  0.5006
 5876SOL    HW323271   1.253   3.961   3.455  0.4005 -1.4157  0.6702
 5876SOL    MW423272   1.284   4.006   3.523 -0.1763 -0.3261  0.2172
 5877SOL     OW23273   3.265   1.196   2.096 -0.0733 -0.4680  0.3418
 5877SOL    HW223274   3.215   1.275   2.115 -0.2413 -0.4498 -0.1567
 5877SOL    HW323275   3.281   1.157   2.182  0.9301  0.6497  0.6849
 5877SOL    MW423276   3.260   1.201   2.110  0.0369 -0.3181  0.3213
 5878SOL     OW23277   4.671   3.770   3.074 -0.1296  0.4728 -0.2298
 5878SOL    HW223278   4.709   3.768   2.986 -0.6631 -0.6016 -0.4492
 5878SOL    HW323279   4.576   3.770   3.059 -0.2762 -1.9397  0.3222
 5878SOL    MW423280   4.663   3.770   3.060 -0.2193  0.0128 -0.1859
 5879SOL     OW23281   3.660   1.629   5.912 -0.0393 -0.1392 -0.8603
 5879SOL    HW223282   3.752   1.608   5.924 -0.2088 -0.0406  1.0371
 5879SOL    HW323283   3.660   1.719   5.879  0.5520 -0.3573 -1.4591
 5879SOL    MW423284   3.672   1.638   5.909  0.0164 -0.1549 -0.6890
 5880SOL     OW23285   5.033   4.156   2.456  0.1142  0.2618  0.1095
 5880SOL    HW223286   4.951   4.205   2.465  0.1801  0.3486  0.2381
 5880SOL    HW323287   5.102   4.221   2.471  0.2129  0.2638 -0.3599
 5880SOL    MW423288   5.031   4.171   2.459  0.1359  0.2735  0.0645
 5881SOL     OW23289   3.742   0.303   4.170  0.0594  0.2491  0.0624
 5881SOL    HW223290   3.832   0.298   4.137  0.2581 -0.9572  0.6980
 5881SOL    HW323291   3.705   0.217   4.150 -0.9167  0.6846 -0.0642
 5881SOL    MW423292   3.749   0.291   4.163 -0.0431  0.1474  0.1296
 5882SOL     OW23293   0.704   1.834   1.820  0.1528  0.1915 -0.5131
 5882SOL    HW223294   0.781   1.891   1.819 -1.6133  2.7396 -0.0618
 5882SOL    HW323295   0.673   1.836   1.910 -1.1099  0.1861 -0.9306
 5882SOL    MW423296   0.710   1.841   1.832 -0.2468  0.5270 -0.5086
 5883SOL     OW23297   6.223   3.097   2.226 -0.1195 -1.2626 -0.2446
 5883SOL    HW223298   6.201   3.180   2.185  0.9773 -0.8517 -0.0240
 5883SOL    HW323299   6.191   3.031   2.164 -0.7119 -0.6865 -0.5699
 5883SOL    MW423300   6.216   3.099   2.212 -0.0530 -1.1324 -0.2584
 5884SOL     OW23301   6.175   4.053   3.476 -0.6326  0.1737 -0.6896
 5884SOL    HW223302   6.189   4.061   3.570 -0.2519  0.3954 -0.7656
 5884SOL    HW323303   6.167   3.959   3.461 -3.2673  0.1960 -0.0663
 5884SOL    MW423304   6.176   4.042   3.487 -0.9300  0.2059 -0.6174
 5885SOL     OW23305   6.101   5.101   4.689 -0.4654  0.0273  0.1041
 5885SOL    HW223306   6.038   5.158   4.733  0.2241  0.0870  1.0375
 5885SOL    HW323307   6.138   5.047   4.759 -0.5324 -1.0316 -0.6485
 5885SOL    MW423308   6.097   5.101   4.704 -0.3833 -0.1045  0.1280
 5886SOL     OW23309   4.601   4.373   3.220 -0.3861  0.1411 -0.9114
 5886SOL    HW223310   4.682   4.423   3.224 -0.5223  0.3221 -0.3141
 5886SOL    HW323311   4.532   4.439   3.225 -0.5680 -0.0722 -0.5811
 5886SOL    MW423312   4.603   4.388   3.221 -0.4281  0.1369 -0.7890
 5887SOL     OW23313   3.256   0.852   3.388  0.1286  0.0060 -0.1080
 5887SOL    HW223314   3.212   0.935   3.370 -0.0507  0.1495  0.9336
 5887SOL    HW323315   3.190   0.785   3.371  0.7767 -0.0912 -2.6975
 5887SOL    MW423316   3.242   0.854   3.383  0.1905  0.0121 -0.3122
 5888SOL     OW23317   4.288   0.471   4.175  0.5788 -0.4170  0.0774
 5888SOL    HW223318   4.367   0.417   4.184  0.4414 -1.0338 -2.0023
 5888SOL    HW323319   4.217   0.407   4.169  0.0536  0.1028  0.6926
 5888SOL    MW423320   4.289   0.455   4.176  0.4914 -0.4298 -0.1158
 5889SOL     OW23321   0.223   0.025   1.187 -0.2099 -0.1017  0.6932
 5889SOL    HW223322   0.212  -0.055   1.136  0.8298  0.4853 -0.5076
 5889SOL    HW323323   0.313   0.020   1.220  0.1617  0.9202 -0.0864
 5889SOL    MW423324   0.234   0.014   1.184 -0.0237  0.1105  0.4319
 5890SOL     OW23325   4.798   0.150   4.216  0.0627 -0.6502 -0.2448
 5890SOL    HW223326   4.760   0.133   4.303  0.4839  1.1088  0.3114
 5890SOL    HW323327   4.881   0.194   4.234  1.0166 -1.8208 -1.5305
 5890SOL    MW423328   4.804   0.153   4.230  0.2441 -0.5725 -0.3410
 5891SOL     OW23329   4.855   6.363   2.840 -0.0868 -0.2150  0.4265
 5891SOL    HW223330   4.799   6.322   2.906  0.2487 -0.3217  0.6454
 5891SOL    HW323331   4.830   6.456   2.844 -1.2554 -0.4599 -0.4752
 5891SOL    MW423332   4.844   6.370   2.849 -0.1967 -0.2614  0.3364
 5892SOL     OW23333   0.400   1.033   0.687  0.7998 -0.5430 -0.1876
 5892SOL    HW223334   0.312   0.994   0.690 -0.2060  1.4728 -1.1660
 5892SOL    HW323335   0.416   1.064   0.776  0.5830 -1.0359  0.0263
 5892SOL    MW423336   0.390   1.032   0.699  0.6385 -0.3421 -0.2884
 5893SOL     OW23337   5.355   6.238   6.002 -0.3387  0.6494 -0.0777
 5893SOL    HW223338   5.445   6.214   5.977 -0.9218  0.0275 -1.6793
 5893SOL    HW323339   5.300   6.173   5.959 -1.6347  1.7061 -0.0687
 5893SOL    MW423340   5.360   6.227   5.993 -0.5866  0.7068 -0.2878
 5894SOL     OW23341   2.564   4.979   1.998 -0.1772  0.2367  0.2875
 5894SOL    HW223342   2.566   4.984   1.903  0.6017  1.4697  0.3387
 5894SOL    HW323343   2.656   4.967   2.023 -0.3857 -0.1648  0.8857
 5894SOL    MW423344   2.577   4.978   1.989 -0.1019  0.3464  0.3732
 5895SOL     OW23345   0.781   5.632   4.264 -0.4830 -0.7241  0.5716
 5895SOL    HW223346   0.793   5.712   4.213  0.3741 -0.3267  1.3580
 5895SOL    HW323347   0.705   5.589   4.224  0.9805 -1.1764 -1.9503
 5895SOL    MW423348   0.772   5.637   4.252 -0.1768 -0.7313  0.3426
 5896SOL     OW23349   1.708   1.298   4.410  0.1095  0.1780 -0.1263
 5896SOL    HW223350   1.742   1.244   4.481  2.5653  1.1338 -0.4682
 5896SOL    HW323351   1.632   1.251   4.377  1.1516 -2.1979  0.6763
 5896SOL    MW423352   1.703   1.285   4.415  0.5710 -0.0094 -0.0655
 5897SOL     OW23353   4.758   3.302   4.683  0.5812  0.2542 -0.3976
 5897SOL    HW223354   4.694   3.236   4.655 -1.2322  1.2818  1.0078
 5897SOL    HW323355   4.810   3.257   4.750  0.0563 -0.0643 -0.1916
 5897SOL    MW423356   4.756   3.287   4.688  0.2727  0.3478 -0.1850
 5898SOL     OW23357   0.092   6.167   6.381  0.1617 -0.5225  0.2880
 5898SOL    HW223358   0.079   6.239   6.444 -2.0130 -0.7307  0.1637
 5898SOL    HW323359   0.161   6.198   6.323 -1.1976  1.8694 -0.2155
 5898SOL    MW423360   0.099   6.181   6.382 -0.3046 -0.2344  0.2052
 5899SOL     OW23361   1.973   3.253   3.170 -0.7458 -0.5406 -0.1560
 5899SOL    HW223362   1.929   3.168   3.180 -1.0569 -0.5305 -1.2301
 5899SOL    HW323363   1.905   3.312   3.138 -0.4909  0.0756  0.4202
 5899SOL    MW423364   1.958   3.249   3.167 -0.7532 -0.4580 -0.2217
 5900SOL     OW23365   3.909   5.258   0.509  0.4336 -0.9266  0.3587
 5900SOL    HW223366   3.871   5.346   0.498 -1.1601 -1.8439 -2.4964
 5900SOL    HW323367   3.836   5.204   0.539  0.7887 -1.7362 -0.2048
 5900SOL    MW423368   3.894   5.263   0.512  0.2702 -1.1544 -0.0924
 5901SOL     OW23369   5.982   4.473   3.114 -0.3203  0.3530 -0.4137
 5901SOL    HW223370   5.989   4.430   3.029  0.2828  2.2473 -1.3958
 5901SOL    HW323371   5.969   4.566   3.093 -0.4007  0.8476  1.5675
 5901SOL    MW423372   5.981   4.480   3.100 -0.2514  0.6682 -0.2819
 5902SOL     OW23373   0.454   2.967   2.672 -0.4088 -0.1094  0.5485
 5902SOL    HW223374   0.360   2.977   2.681 -0.2022  1.1981  1.7576
 5902SOL    HW323375   0.481   3.041   2.617  0.0060  0.1067  1.0318
 5902SOL    MW423376   0.445   2.978   2.666 -0.3268  0.0916  0.7718
 5903SOL     OW23377   1.569   3.407   2.800  0.0441  0.5641 -0.3568
 5903SOL    HW223378   1.550   3.462   2.876 -1.5155  2.6075 -2.1130
 5903SOL    HW323379   1.483   3.382   2.767  0.7016 -0.5269 -1.2872
 5903SOL    MW423380   1.555   3.411   2.806 -0.0749  0.6897 -0.7113
 5904SOL     OW23381   0.357   1.525   0.396 -0.0249 -0.4569  0.2552
 5904SOL    HW223382   0.380   1.575   0.475  0.3210 -0.7210  0.3210
 5904SOL    HW323383   0.272   1.561   0.370  1.0854  1.5681 -0.8406
 5904SOL    MW423384   0.348   1.537   0.403  0.1673 -0.2246  0.1193
 5905SOL     OW23385   1.272   0.771   1.070  0.4156  0.1674  0.1885
 5905SOL    HW223386   1.245   0.685   1.040 -1.5266  0.4820  0.8830
 5905SOL    HW323387   1.318   0.755   1.152  1.7375 -0.3208 -0.6144
 5905SOL    MW423388   1.275   0.758   1.077  0.3337  0.1445  0.1742
 5906SOL     OW23389   5.766   5.908   1.297  0.1894  0.0588  0.2334
 5906SOL    HW223390   5.743   5.829   1.347 -0.2890  1.6557  2.6802
 5906SOL    HW323391   5.686   5.933   1.253  0.3306 -0.7435 -0.5242
 5906SOL    MW423392   5.753   5.901   1.298  0.1449  0.1636  0.4563
 5907SOL     OW23393   1.334   1.697   1.644 -0.4641 -0.4349 -0.2385
 5907SOL    HW223394   1.382   1.695   1.727  0.8163  3.7465 -0.6909
 5907SOL    HW323395   1.268   1.628   1.654  0.9011 -1.4641  3.3884
 5907SOL    MW423396   1.332   1.687   1.656 -0.1151 -0.0190  0.1803
 5908SOL     OW23397   3.155   2.940   2.474 -0.2179 -0.1550 -0.6470
 5908SOL    HW223398   3.243   2.930   2.509 -0.2186 -0.4691 -0.7327
 5908SOL    HW323399   3.123   2.850   2.463 -0.4776 -0.0461 -0.7905
 5908SOL    MW423400   3.162   2.927   2.477 -0.2523 -0.1821 -0.6773
 5909SOL     OW23401   1.193   2.410   0.164 -0.2012 -0.1835  0.4617
 5909SOL    HW223402   1.171   2.496   0.201  1.4275  0.5616 -0.2353
 5909SOL    HW323403   1.201   2.425   0.070  0.7901 -0.9439  0.4070
 5909SOL    MW423404   1.191   2.423   0.156  0.1445 -0.1856  0.3625
 5910SOL     OW23405   4.185   1.232   6.091 -0.0835  0.2132  0.4270
 5910SOL    HW223406   4.153   1.319   6.069  0.5283  0.1586 -0.8179
 5910SOL    HW323407   4.263   1.221   6.036  0.8150 -0.4760  1.7816
 5910SOL    MW423408   4.191   1.242   6.080  0.1158  0.1151  0.4415
 5911SOL     OW23409   3.965   6.231   2.174 -0.0655  0.1163 -0.3664
 5911SOL    HW223410   3.907   6.164   2.211  2.1322 -1.6841  0.0175
 5911SOL    HW323411   3.994   6.282   2.250  0.1791 -0.0784 -0.3283
 5911SOL    MW423412   3.961   6.229   2.189  0.2567 -0.1470 -0.3107
 5912SOL     OW23413   3.677   3.971   3.200  0.6092  0.2453  0.2248
 5912SOL    HW223414   3.727   4.051   3.215  0.3936  0.4207  0.0249
 5912SOL    HW323415   3.594   4.002   3.163 -0.0963  0.0475  1.5908
 5912SOL    MW423416   3.672   3.986   3.197  0.4877  0.2423  0.3786
 5913SOL     OW23417   6.068   6.115   3.734 -0.2275 -0.7591  0.1573
 5913SOL    HW223418   5.984   6.151   3.763  0.1650  0.0340  0.3326
 5913SOL    HW323419   6.064   6.119   3.639 -0.1121 -0.0733  0.1788
 5913SOL    MW423420   6.056   6.120   3.726 -0.1605 -0.5640  0.1833
 5914SOL     OW23421   1.860   0.905   0.653  0.3680  0.2458 -0.3797
 5914SOL    HW223422   1.868   0.832   0.590  1.1857 -0.0351  0.0243
 5914SOL    HW323423   1.924   0.884   0.721 -1.2620 -0.0295  1.1414
 5914SOL    MW423424   1.870   0.892   0.653  0.2608  0.1724 -0.1257
 5915SOL     OW23425   1.367   0.318   3.150  0.8849  0.1035 -0.1640
 5915SOL    HW223426   1.295   0.305   3.088  1.5189  1.1030 -1.1545
 5915SOL    HW323427   1.444   0.326   3.095  1.7813 -0.9780  0.8836
 5915SOL    MW423428   1.367   0.317   3.135  1.0868  0.0926 -0.1565
 5916SOL     OW23429   3.040   3.196   3.495  0.0070  0.3349 -0.6210
 5916SOL    HW223430   3.046   3.247   3.576  2.3265 -0.9828  0.1331
 5916SOL    HW323431   2.977   3.127   3.515  0.3788  0.1634 -0.0192
 5916SOL    MW423432   3.033   3.194   3.508  0.3621  0.1384 -0.4421
 5917SOL     OW23433   2.444   6.367   0.125  0.4919  0.0055  0.5739
 5917SOL    HW223434   2.370   6.428   0.134  1.6392  1.4255  0.8051
 5917SOL    HW323435   2.444   6.344   0.032 -0.5628 -0.4788  0.6692
 5917SOL    MW423436   2.434   6.372   0.113  0.5041  0.1290  0.6170
 5918SOL     OW23437   4.338   4.628   1.005  0.0605  0.7000 -0.4660
 5918SOL    HW223438   4.343   4.660   1.095 -3.1966 -0.4834  0.2966
 5918SOL    HW323439   4.354   4.705   0.951 -0.0049  1.9237  1.1871
 5918SOL    MW423440   4.340   4.642   1.010 -0.3778  0.7053 -0.1473
 5919SOL     OW23441   0.718   1.049   4.176  0.4306 -0.5082  0.3300
 5919SOL    HW223442   0.795   0.994   4.161 -0.1684 -1.9746  2.1298
 5919SOL    HW323443   0.655   0.990   4.219 -1.8149  0.5682 -1.3124
 5919SOL    MW423444   0.720   1.034   4.180  0.0553 -0.5596  0.3508
 5920SOL     OW23445   2.098   3.100   0.323  0.0574 -0.2620  0.1438
 5920SOL    HW223446   2.078   3.091   0.230  1.7986 -0.3760 -0.2486
 5920SOL    HW323447   2.066   3.188   0.346 -1.5051 -0.7100 -0.2314
 5920SOL    MW423448   2.091   3.111   0.314  0.0810 -0.3361  0.0425
 5921SOL     OW23449   5.913   6.174   2.994 -0.1328  0.0489 -0.3691
 5921SOL    HW223450   5.904   6.080   3.012  0.5112  0.3546  1.9266
 5921SOL    HW323451   5.972   6.178   2.919 -2.5903 -1.3908 -2.5491
 5921SOL    MW423452   5.920   6.162   2.987 -0.3720 -0.1007 -0.3539
 5922SOL     OW23453   3.696   0.929   1.877  0.2240 -0.0325  0.2509
 5922SOL    HW223454   3.792   0.939   1.876  0.1299  1.5733 -2.1195
 5922SOL    HW323455   3.680   0.849   1.827  0.3421 -0.1249  0.3623
 5922SOL    MW423456   3.707   0.920   1.870  0.2272  0.1672 -0.0471
 5923SOL     OW23457   4.432   6.201   4.258 -0.1991  0.1268  0.5354
 5923SOL    HW223458   4.409   6.164   4.343 -0.3067 -0.1605  0.3851
 5923SOL    HW323459   4.420   6.128   4.197 -2.1343  0.8480 -0.0394
 5923SOL    MW423460   4.427   6.186   4.261 -0.4686  0.1840  0.4397
 5924SOL     OW23461   0.676   0.047   0.125  0.0799 -0.0449 -0.8791
 5924SOL    HW223462   0.724   0.130   0.136  1.5700 -0.8952 -0.7569
 5924SOL    HW323463   0.585   0.070   0.145  0.5852  1.3986 -0.0485
 5924SOL    MW423464   0.670   0.061   0.129  0.3432  0.0334 -0.7534
 5925SOL     OW23465   2.561   2.025   4.194  0.0673  0.4374 -0.5199
 5925SOL    HW223466   2.627   2.051   4.258 -1.5195  1.4168  0.7968
 5925SOL    HW323467   2.507   1.961   4.241 -0.1908 -0.0114 -1.4152
 5925SOL    MW423468   2.562   2.020   4.209 -0.1761  0.5074 -0.4643
 5926SOL     OW23469   2.661   0.634   5.434  0.0113 -0.5042  0.4483
 5926SOL    HW223470   2.602   0.635   5.509 -1.8061  0.7654 -0.9081
 5926SOL    HW323471   2.625   0.700   5.374  1.9549 -0.7628 -1.1153
 5926SOL    MW423472   2.649   0.643   5.436  0.0280 -0.3708  0.0630
 5927SOL     OW23473   4.919   3.831   4.977 -0.2154  0.3276  0.1108
 5927SOL    HW223474   4.957   3.826   5.065  1.3539 -2.4198 -0.6002
 5927SOL    HW323475   4.975   3.893   4.931 -0.4127  0.9935  0.7503
 5927SOL    MW423476   4.932   3.838   4.983 -0.0344  0.0530  0.1014
 5928SOL     OW23477   4.795   4.052   3.548 -0.5994  0.3508 -0.2396
 5928SOL    HW223478   4.734   4.085   3.613  1.4261  0.6225  1.6392
 5928SOL    HW323479   4.820   3.965   3.579  1.6678  1.1394  0.3965
 5928SOL    MW423480   4.790   4.045   3.560 -0.0330  0.4907  0.0922
 5929SOL     OW23481   4.161   3.710   3.092  0.5550  0.5209 -0.9566
 5929SOL    HW223482   4.143   3.625   3.051 -1.4971  0.6331 -0.4097
 5929SOL    HW323483   4.256   3.721   3.085  0.6637 -0.9991 -2.6245
 5929SOL    MW423484   4.171   3.700   3.085  0.2986  0.3351 -1.1045
 5930SOL     OW23485   0.933   1.528   6.143 -0.3531  0.1583  0.1553
 5930SOL    HW223486   0.998   1.462   6.118 -0.3864 -0.0129  0.5154
 5930SOL    HW323487   0.933   1.527   6.239  0.3297  1.3520  0.1882
 5930SOL    MW423488   0.942   1.519   6.152 -0.2674  0.2932  0.2072
 5931SOL     OW23489   5.251   4.872   4.206  0.1777  0.3788 -0.2131
 5931SOL    HW223490   5.289   4.960   4.207 -2.2219  1.4984  0.9471
 5931SOL    HW323491   5.326   4.813   4.204  2.0944  2.3800  3.3480
 5931SOL    MW423492   5.266   4.876   4.206  0.1140  0.7905  0.4098
 5932SOL     OW23493   6.241   5.336   3.773  0.4872  0.7262 -0.1076
 5932SOL    HW223494   6.310   5.327   3.839  0.2019  1.7171  0.3461
 5932SOL    HW323495   6.288   5.346   3.690  0.8577 -0.0116  0.0067
 5932SOL    MW423496   6.257   5.336   3.771  0.4984  0.7596 -0.0326
 5933SOL     OW23497   2.238   4.735   0.642  0.1916 -0.5225  0.1037
 5933SOL    HW223498   2.318   4.787   0.634 -0.4781  0.3238 -1.5946
 5933SOL    HW323499   2.269   4.648   0.668  1.4588  0.2995  1.5235
 5933SOL    MW423500   2.253   4.730   0.644  0.2704 -0.3024  0.0670
 5934SOL     OW23501   3.365   4.901   1.295 -0.1482  0.5240  1.0042
 5934SOL    HW223502   3.377   4.859   1.210 -1.5643  1.6947  0.1677
 5934SOL    HW323503   3.318   4.982   1.275 -2.2975 -0.0774  3.0566
 5934SOL    MW423504   3.360   4.906   1.281 -0.6186  0.5991  1.1646
 5935SOL     OW23505   1.492   3.506   3.046  0.3526 -0.3888 -0.0221
 5935SOL    HW223506   1.452   3.433   3.094  0.6145 -0.4966  0.0305
 5935SOL    HW323507   1.583   3.506   3.073  0.3138  0.0771  0.1174
 5935SOL    MW423508   1.499   3.496   3.056  0.3820 -0.3416  0.0033
 5936SOL     OW23509   2.125   4.461   4.495 -0.0004 -0.1254 -0.1488
 5936SOL    HW223510   2.044   4.454   4.444  0.7832 -0.9983 -1.3002
 5936SOL    HW323511   2.158   4.548   4.474 -0.3995  0.0626 -0.0194
 5936SOL    MW423512   2.118   4.472   4.486  0.0503 -0.2158 -0.2836
 5937SOL     OW23513   2.269   3.687   4.790 -0.2863  0.2827  0.1770
 5937SOL    HW223514   2.353   3.726   4.768  0.5912 -1.8372 -0.5191
 5937SOL    HW323515   2.206   3.758   4.778  1.3596  1.9246  0.7062
 5937SOL    MW423516   2.272   3.701   4.785  0.0467  0.2196  0.1550
 5938SOL     OW23517   0.662   5.202   1.422  0.1348 -0.0300  0.4195
 5938SOL    HW223518   0.572   5.216   1.452  0.0179  0.5914 -0.2035
 5938SOL    HW323519   0.697   5.136   1.482 -0.5485  0.1433  1.0226
 5938SOL    MW423520   0.655   5.195   1.433  0.0292  0.0748  0.4169
 5939SOL     OW23521   3.386   2.838   5.375  0.3465  1.2991  0.2023
 5939SOL    HW223522   3.444   2.829   5.299 -0.2756  2.1993 -0.3978
 5939SOL    HW323523   3.446   2.854   5.449  0.8506  2.8932 -0.5172
 5939SOL    MW423524   3.402   2.839   5.375  0.3310  1.6282  0.0282
 5940SOL     OW23525   1.373   5.021   2.276 -0.1157 -0.0851 -0.4591
 5940SOL    HW223526   1.431   5.025   2.352  0.2706 -0.2254 -0.7444
 5940SOL    HW323527   1.359   5.113   2.253  1.5710 -0.0467 -1.5643
 5940SOL    MW423528   1.379   5.034   2.283  0.1578 -0.0985 -0.6425
 5941SOL     OW23529   1.728   5.710   0.497  0.0669 -0.2365  0.0901
 5941SOL    HW223530   1.764   5.644   0.556  0.0204 -0.5029 -0.1781
 5941SOL    HW323531   1.795   5.779   0.494 -0.0233 -0.1275  0.6128
 5941SOL    MW423532   1.742   5.711   0.504  0.0488 -0.2573  0.1237
 5942SOL     OW23533   5.272   4.588   5.564  0.1021  0.3933 -0.1941
 5942SOL    HW223534   5.178   4.585   5.551  0.2571 -0.3124 -1.2975
 5942SOL    HW323535   5.283   4.614   5.655 -1.1396  1.6611 -0.3650
 5942SOL    MW423536   5.261   4.591   5.574 -0.0413  0.4675 -0.3623
 5943SOL     OW23537   4.472   4.656   1.956 -0.0612  0.2828 -0.7049
 5943SOL    HW223538   4.471   4.596   1.882 -0.8212  0.8172 -1.1491
 5943SOL    HW323539   4.380   4.660   1.985  0.1415  0.4713 -0.0623
 5943SOL    MW423540   4.459   4.649   1.950 -0.1347  0.3782 -0.6787
 5944SOL     OW23541   1.955   1.651   0.104  0.5611  0.7998 -0.1134
 5944SOL    HW223542   2.049   1.633   0.111  0.3787 -0.0147  0.3461
 5944SOL    HW323543   1.926   1.596   0.031 -0.1351 -1.4745  1.7518
 5944SOL    MW423544   1.964   1.641   0.095  0.4452  0.3923  0.1933
 5945SOL     OW23545   3.639   5.184   3.717 -0.4475 -0.2991  0.2718
 5945SOL    HW223546   3.561   5.235   3.694 -1.3821 -1.1636  1.3535
 5945SOL    HW323547   3.698   5.247   3.759 -0.0402  0.6134 -1.5932
 5945SOL    MW423548   3.636   5.199   3.720 -0.5171 -0.2928  0.1685
 5946SOL     OW23549   3.087   1.036   4.511  0.8473  0.2150 -0.2325
 5946SOL    HW223550   3.021   1.096   4.475  0.4339 -1.0736 -1.7088
 5946SOL    HW323551   3.168   1.087   4.510  0.4129  0.9203 -0.9989
 5946SOL    MW423552   3.089   1.051   4.506  0.7354  0.1381 -0.5284
 5947SOL     OW23553   2.251   4.029   4.000  0.1144  0.5131 -0.3651
 5947SOL    HW223554   2.298   3.960   3.954 -0.8634 -1.0828  0.8954
 5947SOL    HW323555   2.283   4.024   4.090 -2.2016 -0.4710  0.4843
 5947SOL    MW423556   2.261   4.020   4.006 -0.3202  0.1727 -0.0867
 5948SOL     OW23557   4.671   3.982   4.957 -0.4444  0.4451 -0.5499
 5948SOL    HW223558   4.729   4.055   4.936  1.5510 -1.0011 -0.4226
 5948SOL    HW323559   4.726   3.921   5.007 -1.8443 -1.3678 -1.0859
 5948SOL    MW423560   4.686   3.983   4.961 -0.3658  0.0151 -0.6038
 5949SOL     OW23561   0.363   6.224   6.261 -0.1981 -0.3877 -0.1650
 5949SOL    HW223562   0.394   6.183   6.342 -1.4304 -0.4964  0.2747
 5949SOL    HW323563   0.349   6.151   6.201  1.2105 -0.2634 -0.6680
 5949SOL    MW423564   0.365   6.209   6.263 -0.1749 -0.3856 -0.1733
 5950SOL     OW23565   4.791   0.094   4.480  0.1141 -0.5480 -0.0346
 5950SOL    HW223566   4.759   0.005   4.487  0.2788 -0.4905  2.3055
 5950SOL    HW323567   4.742   0.143   4.546  0.5053  0.9528 -0.7951
 5950SOL    MW423568   4.780   0.089   4.490  0.1875 -0.3424  0.1738
 5951SOL     OW23569   2.234   2.153   4.075  0.0854  0.0471  0.2264
 5951SOL    HW223570   2.285   2.104   4.009 -0.6073 -0.3840 -0.0092
 5951SOL    HW323571   2.160   2.095   4.095  0.7059 -0.1879  2.0006
 5951SOL    MW423572   2.231   2.139   4.069  0.0759 -0.0408  0.4294
 5952SOL     OW23573   3.599   4.901   2.234 -0.4188  0.1369 -0.2065
 5952SOL    HW223574   3.632   4.892   2.145  0.8712 -2.3811  0.4490
 5952SOL    HW323575   3.515   4.855   2.233  0.2649 -1.1552  0.1788
 5952SOL    MW423576   3.592   4.894   2.222 -0.1584 -0.3658 -0.0692
 5953SOL     OW23577   4.726   5.296   0.898  0.4184 -0.3445 -0.0905
 5953SOL    HW223578   4.813   5.329   0.920  0.0035  0.1359  0.8976
 5953SOL    HW323579   4.680   5.292   0.982 -0.1332 -1.7499 -0.4252
 5953SOL    MW423580   4.732   5.300   0.912  0.2909 -0.4666 -0.0043
 5954SOL     OW23581   4.828   0.065   3.201 -0.2774 -0.7259  0.2090
 5954SOL    HW223582   4.871   0.105   3.125  0.9882 -0.4123  1.0554
 5954SOL    HW323583   4.734   0.081   3.187 -0.1248 -1.1894 -1.5549
 5954SOL    MW423584   4.821   0.073   3.189 -0.0903 -0.7457  0.0880
 5955SOL     OW23585   2.250   5.909   6.130 -0.1589  0.3807 -0.4017
 5955SOL    HW223586   2.173   5.946   6.174  0.6600 -0.8763  2.3281
 5955SOL    HW323587   2.321   5.970   6.152  0.1431  0.0801 -0.5410
 5955SOL    MW423588   2.249   5.922   6.139 -0.0110  0.1752 -0.0599
 5956SOL     OW23589   0.709   3.513   3.398 -0.0351 -0.1311  0.2210
 5956SOL    HW223590   0.755   3.596   3.413  1.6783 -0.9891 -0.0764
 5956SOL    HW323591   0.728   3.460   3.475  1.4515 -1.3203 -0.8828
 5956SOL    MW423592   0.718   3.517   3.410  0.3871 -0.4012  0.0361
 5957SOL     OW23593   2.106   3.221   3.910 -0.1498  0.1423 -0.4195
 5957SOL    HW223594   2.024   3.185   3.942 -0.1379  0.8156  0.4000
 5957SOL    HW323595   2.169   3.150   3.920 -0.0544  0.4431  1.4636
 5957SOL    MW423596   2.103   3.207   3.915 -0.1356  0.2708 -0.0629
 5958SOL     OW23597   4.617   4.624   1.600  0.5939 -0.4182 -0.1236
 5958SOL    HW223598   4.627   4.647   1.508 -0.0455  1.5788  0.2521
 5958SOL    HW323599   4.595   4.706   1.643  0.1012 -1.4427  1.7041
 5958SOL    MW423600   4.615   4.638   1.594  0.4445 -0.2899  0.1671
 5959SOL     OW23601   6.389   5.273   1.101 -0.6015  0.5497 -0.6377
 5959SOL    HW223602   6.304   5.232   1.088 -1.3149  2.4337 -2.5066
 5959SOL    HW323603   6.400   5.276   1.196 -2.4260 -0.0970 -0.3697
 5959SOL    MW423604   6.379   5.268   1.112 -0.9364  0.7129 -0.8489
 5960SOL     OW23605   1.771   0.231   3.481 -0.6304 -0.0514 -0.3701
 5960SOL    HW223606   1.861   0.264   3.486 -0.4857 -0.0676 -2.1207
 5960SOL    HW323607   1.726   0.292   3.423 -1.4007 -0.7634 -0.5493
 5960SOL    MW423608   1.777   0.243   3.474 -0.7129 -0.1475 -0.6247
 5961SOL     OW23609   1.068   2.152   0.519 -0.1837 -0.3145 -0.1170
 5961SOL    HW223610   0.983   2.168   0.560 -0.3630 -0.0891 -0.5653
 5961SOL    HW323611   1.128   2.211   0.564 -0.4100  0.0490 -0.2864
 5961SOL    MW423612   1.064   2.162   0.530 -0.2372 -0.2368 -0.1985
 5962SOL     OW23613   5.834   5.719   5.588 -0.4570 -0.0688 -0.0450
 5962SOL    HW223614   5.774   5.785   5.552 -0.7687  0.0270  0.6293
 5962SOL    HW323615   5.812   5.716   5.681  0.5251 -0.1173  0.1867
 5962SOL    MW423616   5.823   5.727   5.595 -0.3685 -0.0626  0.0745
 5963SOL     OW23617   1.500   1.940   2.837 -0.4177 -0.0640 -0.1785
 5963SOL    HW223618   1.531   2.027   2.860 -0.5728 -0.2697  0.8384
 5963SOL    HW323619   1.411   1.936   2.871 -0.3511 -0.6729 -0.0614
 5963SOL    MW423620   1.493   1.951   2.844 -0.4293 -0.1715 -0.0289
 5964SOL     OW23621   2.637   2.819   5.205 -0.1567 -0.5871  0.1664
 5964SOL    HW223622   2.628   2.748   5.269  0.5583 -2.1484 -1.3649
 5964SOL    HW323623   2.561   2.809   5.147  1.5578 -2.3087 -2.0062
 5964SOL    MW423624   2.626   2.808   5.206  0.1638 -1.0202 -0.3223
 5965SOL     OW23625   6.020   4.618   1.911  0.1689  0.1652  0.0185
 5965SOL    HW223626   5.934   4.641   1.875  1.0182  0.8021 -1.6978
 5965SOL    HW323627   6.020   4.658   1.999 -1.1191  0.4918 -0.1002
 5965SOL    MW423628   6.009   4.626   1.918  0.1110  0.2923 -0.2236
 5966SOL     OW23629   5.700   1.058   0.912  0.3465  0.6997 -0.5658
 5966SOL    HW223630   5.772   0.997   0.922  0.3049  0.9751  1.8861
 5966SOL    HW323631   5.656   1.059   0.997 -2.9094  0.1493 -2.0641
 5966SOL    MW423632   5.703   1.050   0.924 -0.0886  0.6634 -0.4400
 5967SOL     OW23633   0.908   1.821   2.426  0.4654 -0.5099 -0.6721
 5967SOL    HW223634   0.975   1.777   2.374  2.1521 -1.9773  2.4157
 5967SOL    HW323635   0.958   1.871   2.491 -1.4672  0.7135 -0.0353
 5967SOL    MW423636   0.924   1.822   2.428  0.4330 -0.5421 -0.1807
 5968SOL     OW23637   4.738   5.772   3.992 -0.9305 -0.6018  0.3436
 5968SOL    HW223638   4.819   5.770   3.940 -1.7377  0.4276 -1.0319
 5968SOL    HW323639   4.745   5.696   4.050  1.4473 -0.0213  0.9478
 5968SOL    MW423640   4.750   5.762   3.993 -0.7233 -0.3894  0.2418
 5969SOL     OW23641   3.766   4.840   3.424 -0.5686  0.2224  0.5603
 5969SOL    HW223642   3.843   4.894   3.440 -0.9995  0.6274  1.3465
 5969SOL    HW323643   3.753   4.791   3.506 -1.1444  0.1657  0.4444
 5969SOL    MW423644   3.774   4.840   3.437 -0.7014  0.2684  0.6488
 5970SOL     OW23645   4.526   3.511   5.376  0.3823 -0.0083 -0.4228
 5970SOL    HW223646   4.528   3.452   5.301 -1.5897 -1.2109  0.3910
 5970SOL    HW323647   4.546   3.454   5.451 -0.5364  0.5413  0.2664
 5970SOL    MW423648   4.529   3.495   5.376  0.0009 -0.0944 -0.2245
 5971SOL     OW23649   2.501   0.294   5.577  0.5799  0.3744 -0.2962
 5971SOL    HW223650   2.475   0.206   5.549 -0.2797  0.9934 -1.5348
 5971SOL    HW323651   2.486   0.295   5.671  2.0570 -1.2863  0.0173
 5971SOL    MW423652   2.496   0.282   5.586  0.6614  0.2370 -0.4182
 5972SOL     OW23653   0.295   2.003   0.094 -0.0822 -0.0146  0.7160
 5972SOL    HW223654   0.306   2.052   0.176 -1.7206  1.1519  0.2856
 5972SOL    HW323655   0.221   1.945   0.111 -0.8770  0.7199 -0.1185
 5972SOL    MW423656   0.287   2.002   0.107 -0.4032  0.2362  0.5491
 5973SOL     OW23657   2.653   2.594   2.327  0.0691 -0.4275  0.1233
 5973SOL    HW223658   2.638   2.688   2.339 -1.1988 -0.0664 -3.2759
 5973SOL    HW323659   2.694   2.566   2.409  0.1961  2.9952  1.3996
 5973SOL    MW423660   2.657   2.602   2.340 -0.0814  0.0717 -0.1568
 5974SOL     OW23661   0.943   6.405   1.350 -0.2023  0.3712  0.0816
 5974SOL    HW223662   0.900   6.464   1.412 -0.1315  1.2819 -0.7255
 5974SOL    HW323663   0.886   6.328   1.347 -0.5180  0.5671  0.8199
 5974SOL    MW423664   0.930   6.402   1.358 -0.2346  0.5172  0.0725
 5975SOL     OW23665   5.015   0.391   5.444 -0.3321 -0.0691 -0.0171
 5975SOL    HW223666   5.068   0.320   5.408 -0.0909 -0.1155  0.4265
 5975SOL    HW323667   5.044   0.469   5.397 -0.7007 -0.2844 -0.6093
 5975SOL    MW423668   5.026   0.392   5.433 -0.3489 -0.1036 -0.0367
 5976SOL     OW23669   4.540   5.885   5.219 -0.1833  0.1183  0.9078
 5976SOL    HW223670   4.603   5.814   5.231 -1.6072 -1.3358  0.2284
 5976SOL    HW323671   4.549   5.910   5.127  0.0663  0.5796  1.0557
 5976SOL    MW423672   4.549   5.879   5.208 -0.3383 -0.0127  0.8377
 5977SOL     OW23673   5.229   0.310   5.221 -0.9721 -0.3039 -0.2705
 5977SOL    HW223674   5.310   0.342   5.181 -0.5049  0.6257  1.3245
 5977SOL    HW323675   5.159   0.343   5.165 -0.3974  1.8176  0.2065
 5977SOL    MW423676   5.230   0.318   5.208 -0.8346  0.0987  0.0029
 5978SOL     OW23677   4.215   0.919   5.692 -0.0211  0.0023 -0.7394
 5978SOL    HW223678   4.204   1.004   5.650  1.1980  0.9896  0.8429
 5978SOL    HW323679   4.306   0.917   5.721 -0.0893 -1.7440 -0.5081
 5978SOL    MW423680   4.225   0.930   5.691  0.1307 -0.0979 -0.5001
 5979SOL     OW23681   5.204   0.983   3.975 -0.2946 -0.1345 -0.1377
 5979SOL    HW223682   5.218   1.013   4.064 -0.2011  0.6630 -0.4110
 5979SOL    HW323683   5.238   1.053   3.920  1.0380 -1.2581 -0.8091
 5979SOL    MW423684   5.210   0.996   3.979 -0.1064 -0.1775 -0.2623
 5980SOL     OW23685   1.669   3.423   1.255 -0.2185  0.3298  0.0694
 5980SOL    HW223686   1.726   3.476   1.311 -1.4326  0.0886  1.5635
 5980SOL    HW323687   1.607   3.486   1.218 -0.1421  0.3124 -0.0890
 5980SOL    MW423688   1.669   3.439   1.257 -0.3686  0.2957  0.2456
 5981SOL     OW23689   4.006   2.126   4.039 -0.1010 -0.2079 -0.2414
 5981SOL    HW223690   3.957   2.144   4.119 -0.0201 -2.1005  0.2681
 5981SOL    HW323691   3.940   2.130   3.969 -0.3652  0.4264  0.0393
 5981SOL    MW423692   3.991   2.129   4.040 -0.1252 -0.3740 -0.1372
 5982SOL     OW23693   3.333   1.035   2.313  0.0405  0.4821  0.1937
 5982SOL    HW223694   3.386   0.963   2.278 -0.3422  0.4599 -0.3607
 5982SOL    HW323695   3.244   0.999   2.315 -0.0398  0.6951  0.6169
 5982SOL    MW423696   3.328   1.020   2.309 -0.0206  0.5073  0.1764
 5983SOL     OW23697   3.495   0.043   2.346 -0.7372 -0.2233 -0.0887
 5983SOL    HW223698   3.452   0.091   2.275  1.7471  2.5845  0.1203
 5983SOL    HW323699   3.585   0.031   2.316 -0.6328 -2.6681  0.9768
 5983SOL    MW423700   3.501   0.048   2.332 -0.3956 -0.1754  0.0795
 5984SOL     OW23701   1.718   1.905   4.449  0.1442 -0.1885  0.1676
 5984SOL    HW223702   1.767   1.924   4.529 -1.6750  2.3399  0.8383
 5984SOL    HW323703   1.670   1.824   4.468  2.9109 -2.0132 -0.0633
 5984SOL    MW423704   1.718   1.897   4.462  0.2692 -0.0956  0.2256
 5985SOL     OW23705   6.279   5.499   5.752  0.5933  0.4718  0.4314
 5985SOL    HW223706   6.357   5.552   5.736 -0.5903  1.8299 -1.2810
 5985SOL    HW323707   6.208   5.563   5.764 -0.8533 -0.6471 -1.4625
 5985SOL    MW423708   6.280   5.514   5.751  0.2463  0.5034 -0.0444
 5986SOL     OW23709   5.985   0.990   3.455 -0.0440  0.3804 -0.3878
 5986SOL    HW223710   5.973   0.977   3.549  0.9523  1.3635 -0.1069
 5986SOL    HW323711   5.919   0.934   3.414 -0.4503 -0.0978  0.8927
 5986SOL    MW423712   5.974   0.981   3.462  0.0339  0.4470 -0.1818
 5987SOL     OW23713   1.399   2.684   0.265 -0.0237  0.2798 -0.5664
 5987SOL    HW223714   1.311   2.687   0.225  0.2117  1.1724 -1.0402
 5987SOL    HW323715   1.459   2.701   0.192  0.4665  1.0082 -0.0129
 5987SOL    MW423716   1.395   2.687   0.250  0.0721  0.4937 -0.5559
 5988SOL     OW23717   0.493   5.039   3.226 -0.3702 -0.2236  0.5849
 5988SOL    HW223718   0.562   5.096   3.259 -0.0050 -0.3557  0.0518
 5988SOL    HW323719   0.417   5.096   3.215 -0.0914  0.1018  0.3345
 5988SOL    MW423720   0.492   5.054   3.229 -0.2853 -0.1981  0.4815
 5989SOL     OW23721   1.249   3.585   2.083 -0.5035  0.2006 -0.8678
 5989SOL    HW223722   1.208   3.645   2.146  3.0232 -0.0670  1.9817
 5989SOL    HW323723   1.239   3.498   2.122 -1.8020 -0.6110 -2.8367
 5989SOL    MW423724   1.242   3.582   2.097 -0.2095  0.0582 -0.7516
 5990SOL     OW23725   3.472   4.433   0.564  0.2450 -0.1871  0.1684
 5990SOL    HW223726   3.534   4.461   0.631  2.0765 -1.2775 -0.9764
 5990SOL    HW323727   3.453   4.512   0.514  0.0190  0.3306  1.0431
 5990SOL    MW423728   3.478   4.447   0.566  0.4569 -0.2626  0.1327
 5991SOL     OW23729   0.219   0.604   1.246  0.1833 -0.4519 -0.2962
 5991SOL    HW223730   0.248   0.519   1.214  0.0618 -0.4153 -0.5056
 5991SOL    HW323731   0.296   0.660   1.240  1.1195 -1.2788  2.6077
 5991SOL    MW423732   0.233   0.600   1.241  0.2908 -0.5562  0.0593
 5992SOL     OW23733   4.132   2.894   2.561  0.0094 -0.3082 -0.2657
 5992SOL    HW223734   4.133   2.988   2.541 -1.9726  0.4766  2.6594
 5992SOL    HW323735   4.201   2.883   2.626  3.0804 -1.8555 -3.4497
 5992SOL    MW423736   4.141   2.905   2.567  0.1531 -0.4088 -0.2999
 5993SOL     OW23737   0.010   1.753   2.540 -0.0720 -0.2446 -0.4131
 5993SOL    HW223738  -0.003   1.847   2.547 -0.7691 -0.2812 -1.0827
 5993SOL    HW323739   0.073   1.743   2.468  0.7299 -0.2585  0.2691
 5993SOL    MW423740   0.017   1.764   2.531 -0.0582 -0.2513 -0.4115
 5994SOL     OW23741   1.522   4.913   5.314  0.0766 -0.2555  0.0809
 5994SOL    HW223742   1.583   4.878   5.379 -0.3784 -0.3598  0.4553
 5994SOL    HW323743   1.436   4.886   5.346 -0.0354 -2.7199 -1.9771
 5994SOL    MW423744   1.519   4.904   5.327  0.0018 -0.5945 -0.1413
 5995SOL     OW23745   1.118   2.673   0.197 -0.3429  0.5791  0.2865
 5995SOL    HW223746   1.044   2.700   0.251 -2.1423 -0.6152 -1.4916
 5995SOL    HW323747   1.107   2.721   0.115  1.5046  1.1997  0.3362
 5995SOL    MW423748   1.107   2.683   0.194 -0.3366  0.5034  0.0584
 5996SOL     OW23749   5.784   4.007   6.067  0.2337  0.0556  0.0141
 5996SOL    HW223750   5.859   4.060   6.093  0.9333 -0.1248 -1.5211
 5996SOL    HW323751   5.819   3.918   6.060 -0.6233 -0.4116  1.2899
 5996SOL    MW423752   5.799   4.002   6.070  0.2129 -0.0299 -0.0201
 5997SOL     OW23753   2.866   5.947   4.623  0.0276  0.3355  0.2802
 5997SOL    HW223754   2.948   5.932   4.671 -0.5096 -2.2104  0.5519
 5997SOL    HW323755   2.798   5.909   4.679 -0.8037 -1.3340 -1.7349
 5997SOL    MW423756   2.868   5.940   4.637 -0.1529 -0.2207  0.0502
 5998SOL     OW23757   3.478   6.288   0.952  0.3141  0.3825 -0.5456
 5998SOL    HW223758   3.418   6.321   1.019  0.8707  0.0861  0.1138
 5998SOL    HW323759   3.431   6.215   0.912  0.2769  0.0635  0.0598
 5998SOL    MW423760   3.464   6.282   0.956  0.3826  0.3013 -0.3787
 5999SOL     OW23761   0.088   4.136   0.151 -0.3143  0.0527 -0.0976
 5999SOL    HW223762   0.013   4.140   0.209 -0.6053  0.2320 -0.4769
 5999SOL    HW323763   0.058   4.179   0.070  0.1185 -0.0789 -0.3332
 5999SOL    MW423764   0.074   4.142   0.148 -0.2956  0.0590 -0.1787
 6000SOL     OW23765   5.552   5.506   3.145  0.4131  0.1433 -0.1095
 6000SOL    HW223766   5.595   5.584   3.110  1.9524 -0.5121  0.2024
 6000SOL    HW323767   5.613   5.472   3.210 -1.3701  0.0594  1.6000
 6000SOL    MW423768   5.566   5.512   3.149  0.3809  0.0457  0.1572
 6001SOL     OW23769   0.490   6.127   5.252 -0.5690  0.1343 -0.1920
 6001SOL    HW223770   0.460   6.061   5.315  1.2879  0.2073  0.8604
 6001SOL    HW323771   0.569   6.089   5.214 -0.3198  1.1170 -0.6959
 6001SOL    MW423772   0.497   6.113   5.255 -0.2911  0.2736 -0.1196
 6002SOL     OW23773   0.695   0.022   3.779 -0.8770 -0.0422 -0.0166
 6002SOL    HW223774   0.740   0.106   3.778 -0.0988 -0.4510 -0.6881
 6002SOL    HW323775   0.629   0.030   3.710  0.2011 -0.4966 -1.1269
 6002SOL    MW423776   0.692   0.034   3.770 -0.6321 -0.1561 -0.2517
 6003SOL     OW23777   0.976   6.243   4.195 -0.3971  0.0069  0.4395
 6003SOL    HW223778   0.962   6.245   4.100  0.9692 -1.1805  0.1692
 6003SOL    HW323779   1.015   6.328   4.215  1.7546 -0.6734 -0.5437
 6003SOL    MW423780   0.979   6.254   4.185  0.0671 -0.2395  0.2741
 6004SOL     OW23781   2.801   1.997   0.451 -0.2346 -0.3207  0.0695
 6004SOL    HW223782   2.816   1.905   0.430 -0.5213 -0.3372 -0.0631
 6004SOL    HW323783   2.715   1.999   0.493 -0.2250 -0.1128  0.0818
 6004SOL    MW423784   2.791   1.985   0.454 -0.2712 -0.2954  0.0536
 6005SOL     OW23785   5.608   1.040   6.369 -0.3605  0.1385  0.0586
 6005SOL    HW223786   5.536   1.040   6.306  1.4697 -0.4291 -2.1682
 6005SOL    HW323787   5.616   1.132   6.396 -1.3864  0.3381 -0.2667
 6005SOL    MW423788   5.600   1.052   6.364 -0.2544  0.0900 -0.2781
 6006SOL     OW23789   5.010   1.011   2.159  0.1348  0.2354  0.3206
 6006SOL    HW223790   4.953   1.063   2.104 -1.2368 -0.4233  1.0734
 6006SOL    HW323791   5.047   0.945   2.101 -0.7432 -0.0118  0.0274
 6006SOL    MW423792   5.008   1.009   2.144 -0.1620  0.1159  0.3812
 6007SOL     OW23793   1.002   2.280   4.437  0.7887  0.0460 -0.2654
 6007SOL    HW223794   1.031   2.371   4.434 -2.3275  1.2270  1.1494
 6007SOL    HW323795   0.967   2.264   4.350  1.1027  0.2885 -0.4394
 6007SOL    MW423796   1.001   2.290   4.425  0.4190  0.2338 -0.1017
 6008SOL     OW23797   1.960   3.244   0.938 -0.6420  0.1133  0.2033
 6008SOL    HW223798   1.867   3.231   0.954 -0.5587  0.1366  0.7188
 6008SOL    HW323799   1.991   3.160   0.903 -1.3422  0.8238 -2.3528
 6008SOL    MW423800   1.952   3.232   0.935 -0.7234  0.2101 -0.0659
 6009SOL     OW23801   4.913   1.078   6.275  0.1227  0.2025  0.1239
 6009SOL    HW223802   4.874   1.081   6.362 -0.2949 -1.7364  0.0457
 6009SOL    HW323803   4.843   1.106   6.216 -0.4257 -0.9964  0.1943
 6009SOL    MW423804   4.899   1.082   6.278 -0.0047 -0.2115  0.1229
 6010SOL     OW23805   6.163   1.861   1.715  0.2459 -0.5204  0.1080
 6010SOL    HW223806   6.068   1.854   1.717  0.0746  1.1596 -0.4772
 6010SOL    HW323807   6.188   1.823   1.631 -0.2251  1.5862 -1.0537
 6010SOL    MW423808   6.154   1.855   1.704  0.1611 -0.0208 -0.1225
 6011SOL     OW23809   1.910   4.974   3.129 -0.6424 -0.3443  0.1876
 6011SOL    HW223810   1.846   5.025   3.178 -0.4459  0.3561 -0.2730
 6011SOL    HW323811   1.993   4.992   3.172 -0.6348 -0.6174  0.2883
 6011SOL    MW423812   1.912   4.983   3.141 -0.6155 -0.2879  0.1401
 6012SOL     OW23813   3.232   2.578   3.726 -0.4926 -0.1918 -0.1448
 6012SOL    HW223814   3.205   2.532   3.646  0.5040 -1.9194  0.4497
 6012SOL    HW323815   3.186   2.532   3.796 -0.2655  0.3978  0.3912
 6012SOL    MW423816   3.222   2.566   3.724 -0.3312 -0.3419  0.0044
 6013SOL     OW23817   5.751   5.502   2.026  0.0783 -0.0477 -1.0024
 6013SOL    HW223818   5.820   5.435   2.032  1.5458  1.4887  0.4519
 6013SOL    HW323819   5.788   5.568   1.968  1.1190  2.0951  1.8815
 6013SOL    MW423820   5.765   5.502   2.019  0.4093  0.4377 -0.4300
 6014SOL     OW23821   1.279   4.012   6.163 -0.1563 -0.0790 -0.1642
 6014SOL    HW223822   1.293   4.079   6.230 -0.1589 -0.5724  0.3376
 6014SOL    HW323823   1.184   3.996   6.164 -0.1793  0.0369 -0.4090
 6014SOL    MW423824   1.268   4.019   6.172 -0.1597 -0.1288 -0.1303
 6015SOL     OW23825   5.673   0.003   0.284 -0.2864  0.0470 -0.0140
 6015SOL    HW223826   5.668  -0.057   0.210 -0.3476 -1.0483  0.8473
 6015SOL    HW323827   5.588   0.047   0.284 -0.5335 -0.4176 -0.2144
 6015SOL    MW423828   5.661   0.001   0.274 -0.3271 -0.1588  0.0732
 6016SOL     OW23829   0.895   1.634   0.727  0.3840  0.3466  0.5434
 6016SOL    HW223830   0.924   1.711   0.679  0.9921  0.7512  1.5365
 6016SOL    HW323831   0.899   1.563   0.662  1.9128  0.7259  0.1771
 6016SOL    MW423832   0.899   1.635   0.712  0.6660  0.4500  0.6261
 6017SOL     OW23833   2.331   2.455   5.742 -0.1304 -0.3002 -0.0279
 6017SOL    HW223834   2.288   2.410   5.815  0.0501 -0.8493 -0.2543
 6017SOL    HW323835   2.360   2.384   5.684 -0.7961  0.1525 -0.9396
 6017SOL    MW423836   2.329   2.439   5.744 -0.1944 -0.3129 -0.1781
 6018SOL     OW23837   3.960   3.203   4.017  0.4498  0.4958 -0.6481
 6018SOL    HW223838   3.954   3.191   4.112 -0.7645 -0.2338 -0.8021
 6018SOL    HW323839   4.007   3.125   3.987  0.7941  0.7049 -0.6532
 6018SOL    MW423840   3.966   3.191   4.026  0.3350  0.4271 -0.6691
 6019SOL     OW23841   2.731   2.436   3.574 -0.2272 -0.2612 -0.4774
 6019SOL    HW223842   2.734   2.458   3.481 -1.0537  0.3787 -0.3631
 6019SOL    HW323843   2.697   2.515   3.616 -1.4768 -1.1029  0.1554
 6019SOL    MW423844   2.727   2.449   3.567 -0.5011 -0.2878 -0.3788
 6020SOL     OW23845   1.639   1.519   1.417 -0.0219  0.5063  0.3989
 6020SOL    HW223846   1.717   1.570   1.438 -0.7805  1.5023  0.8593
 6020SOL    HW323847   1.570   1.584   1.403 -0.9168 -0.3711  0.5917
 6020SOL    MW423848   1.640   1.534   1.418 -0.2400  0.5219  0.4851
 6021SOL     OW23849   1.163   3.746   4.591 -0.2440  0.1951  0.0422
 6021SOL    HW223850   1.121   3.692   4.658  0.0819 -0.8260 -0.5626
 6021SOL    HW323851   1.100   3.750   4.520 -0.5227  1.1476  0.3184
 6021SOL    MW423852   1.149   3.740   4.591 -0.2378  0.1860 -0.0012
 6022SOL     OW23853   5.501   2.592   5.803  0.6479 -0.3035  0.1384
 6022SOL    HW223854   5.559   2.589   5.879  1.4984  1.0143 -0.4158
 6022SOL    HW323855   5.499   2.502   5.771  0.9225 -0.7167  1.2281
 6022SOL    MW423856   5.509   2.580   5.809  0.7964 -0.1842  0.2090
 6023SOL     OW23857   5.116   5.878   3.579  0.0097 -0.2050  0.1282
 6023SOL    HW223858   5.135   5.971   3.562  2.0912 -0.2340  1.7908
 6023SOL    HW323859   5.032   5.879   3.625  0.6781  1.0727  1.4247
 6023SOL    MW423860   5.108   5.891   3.583  0.3725 -0.0402  0.5186
 6024SOL     OW23861   4.511   0.685   4.023 -0.2955  0.3560  0.1893
 6024SOL    HW223862   4.563   0.605   4.015 -3.5985 -2.0836  0.9369
 6024SOL    HW323863   4.505   0.700   4.118  0.0157  1.3215  0.0652
 6024SOL    MW423864   4.517   0.677   4.035 -0.6902  0.1615  0.2716
 6025SOL     OW23865   4.891   3.102   4.227 -0.2985 -0.5267  0.1442
 6025SOL    HW223866   4.881   3.123   4.134  0.6588 -1.1611 -0.1209
 6025SOL    HW323867   4.876   3.185   4.272  2.0792  0.5023 -0.7741
 6025SOL    MW423868   4.888   3.116   4.221  0.1415 -0.4746 -0.0120
 6026SOL     OW23869   0.378   3.068   6.206 -0.5920  0.1406  0.0258
 6026SOL    HW223870   0.387   3.004   6.135 -0.3559 -0.9183  0.9891
 6026SOL    HW323871   0.299   3.118   6.183 -1.3724 -1.1568 -0.2511
 6026SOL    MW423872   0.368   3.066   6.194 -0.6638 -0.1703  0.1163
 6027SOL     OW23873   1.515   3.031   3.784 -0.0410  0.1871 -0.2158
 6027SOL    HW223874   1.477   3.089   3.850  0.4839  0.1751  0.0966
 6027SOL    HW323875   1.503   2.943   3.819 -1.3664  0.0475 -0.9569
 6027SOL    MW423876   1.508   3.027   3.797 -0.1466  0.1671 -0.2724
 6028SOL     OW23877   0.210   2.793   3.150  0.3859  0.0247 -0.1750
 6028SOL    HW223878   0.122   2.770   3.119 -0.1390  3.1015 -1.3615
 6028SOL    HW323879   0.265   2.788   3.072  0.7180  0.4879  0.0249
 6028SOL    MW423880   0.206   2.789   3.136  0.3605  0.4918 -0.3051
 6029SOL     OW23881   2.874   3.734   0.251 -0.2141 -0.0882 -0.5478
 6029SOL    HW223882   2.836   3.667   0.194 -1.0147 -0.0529 -0.0718
 6029SOL    HW323883   2.951   3.765   0.204 -0.5271 -0.4839 -1.3343
 6029SOL    MW423884   2.879   3.730   0.237 -0.3610 -0.1357 -0.5887
 6030SOL     OW23885   4.424   1.844   6.253 -0.0006 -0.0607 -0.2516
 6030SOL    HW223886   4.382   1.861   6.169  0.4118 -1.5218 -0.7778
 6030SOL    HW323887   4.446   1.751   6.251 -0.3950 -0.2383  1.6598
 6030SOL    MW423888   4.421   1.834   6.242  0.0018 -0.2769 -0.0688
 6031SOL     OW23889   5.152   0.436   1.853 -0.1702 -0.4008 -0.0639
 6031SOL    HW223890   5.204   0.367   1.811  0.8390  0.0949  0.3275
 6031SOL    HW323891   5.067   0.396   1.869  0.6645 -1.8493  0.9501
 6031SOL    MW423892   5.148   0.422   1.849  0.0731 -0.5265  0.1215
 6032SOL     OW23893   3.266   2.027   3.304  0.8923  0.2844 -0.0446
 6032SOL    HW223894   3.339   1.969   3.283 -0.0410 -0.5590 -1.0664
 6032SOL    HW323895   3.190   1.987   3.261 -0.4281  0.4965  1.9620
 6032SOL    MW423896   3.266   2.014   3.295  0.5949  0.2011  0.0854
 6033SOL     OW23897   1.181   3.645  -0.000  0.4383  0.3935 -0.2220
 6033SOL    HW223898   1.119   3.645  -0.074  1.1901  0.7314 -0.8671
 6033SOL    HW323899   1.151   3.573   0.056  0.8656 -0.9996 -1.7154
 6033SOL    MW423900   1.169   3.636  -0.003  0.5938  0.2543 -0.5041
 6034SOL     OW23901   1.949   3.990   1.674  0.1540 -0.4671 -0.3273
 6034SOL    HW223902   2.011   3.972   1.604  0.1582  0.0183 -0.4572
 6034SOL    HW323903   1.963   3.921   1.739  1.4619  0.1420  0.0677
 6034SOL    MW423904   1.959   3.979   1.674  0.3271 -0.3227 -0.2923
 6035SOL     OW23905   2.300   0.631   6.076  1.1771  0.2988 -0.3302
 6035SOL    HW223906   2.209   0.661   6.078  1.2152  0.3914  0.1064
 6035SOL    HW323907   2.306   0.568   6.148  1.5605  0.5885 -0.1041
 6035SOL    MW423908   2.289   0.626   6.086  1.2327  0.3492 -0.2427
 6036SOL     OW23909   0.854   3.919   0.707  0.0018 -0.3849 -0.6100
 6036SOL    HW223910   0.926   3.858   0.722 -0.7191 -1.0503  0.2605
 6036SOL    HW323911   0.780   3.864   0.685 -0.3865  0.2624 -0.9600
 6036SOL    MW423912   0.854   3.904   0.706 -0.1445 -0.3873 -0.5413
 6037SOL     OW23913   2.353   5.615   0.536 -0.0446 -0.1721  0.6148
 6037SOL    HW223914   2.356   5.629   0.631 -1.6181 -0.5908  0.7582
 6037SOL    HW323915   2.348   5.520   0.526 -0.4870 -0.1059  0.1528
 6037SOL    MW423916   2.353   5.604   0.547 -0.3106 -0.2186  0.5728
 6038SOL     OW23917   1.194   5.515   2.125 -0.0417 -0.1628  0.1604
 6038SOL    HW223918   1.164   5.573   2.194 -1.0839 -0.5613  0.0524
 6038SOL    HW323919   1.162   5.429   2.150  0.7108 -0.5407 -0.1470
 6038SOL    MW423920   1.186   5.511   2.137 -0.0799 -0.2653  0.1056
 6039SOL     OW23921   3.475   0.839   1.165 -0.7614  0.5364  0.0450
 6039SOL    HW223922   3.567   0.819   1.181 -0.5453  2.3967  1.4878
 6039SOL    HW323923   3.439   0.759   1.127  1.2304 -0.5543  0.3381
 6039SOL    MW423924   3.482   0.826   1.162 -0.4701  0.6379  0.2740
 6040SOL     OW23925   0.943   0.475   3.946 -0.5625  0.2423 -0.3752
 6040SOL    HW223926   0.888   0.439   3.877 -0.4016 -1.0167  0.1061
 6040SOL    HW323927   1.028   0.432   3.934 -0.4016  0.3439  0.3242
 6040SOL    MW423928   0.947   0.464   3.936 -0.5200  0.0896 -0.2194
 6041SOL     OW23929   1.094   3.739   5.500 -0.0188 -0.3340 -0.4439
 6041SOL    HW223930   1.146   3.777   5.571  1.7587 -0.5695 -1.5488
 6041SOL    HW323931   1.076   3.813   5.441 -1.5736 -0.1182  0.2576
 6041SOL    MW423932   1.099   3.754   5.501  0.0106 -0.3366 -0.4971
 6042SOL     OW23933   2.043   4.208   0.613 -0.3639  0.3906  0.0947
 6042SOL    HW223934   2.002   4.174   0.533  0.5631 -1.8241  0.4853
 6042SOL    HW323935   2.132   4.229   0.587  0.4641 -1.8737  0.7803
 6042SOL    MW423936   2.049   4.206   0.599 -0.1324 -0.2003  0.2367
 6043SOL     OW23937   1.396   2.035   0.960 -0.1093  0.3264 -0.6021
 6043SOL    HW223938   1.365   1.973   0.894 -2.0618  0.6592 -0.0447
 6043SOL    HW323939   1.371   2.121   0.925 -0.0495  0.5954  0.0056
 6043SOL    MW423940   1.389   2.038   0.946 -0.3591  0.4058 -0.4484
 6044SOL     OW23941   0.623   2.942   2.890  0.1066  0.3025  0.4127
 6044SOL    HW223942   0.557   2.933   2.821  0.4559 -3.2153  0.3825
 6044SOL    HW323943   0.703   2.966   2.843 -0.3267  0.9860  0.0073
 6044SOL    MW423944   0.625   2.944   2.875  0.0955 -0.0715  0.3552
 6045SOL     OW23945   1.900   3.608   5.007 -0.0459  0.4578  0.0839
 6045SOL    HW223946   1.915   3.576   4.918 -1.4076 -0.5558  0.2056
 6045SOL    HW323947   1.915   3.532   5.063 -0.1214  0.8620  0.6583
 6045SOL    MW423948   1.904   3.594   5.003 -0.2355  0.3774  0.1758
 6046SOL     OW23949   4.109   1.607   5.330  0.1545 -0.0112 -0.3539
 6046SOL    HW223950   4.159   1.559   5.396 -1.0844 -0.9090 -0.0521
 6046SOL    HW323951   4.154   1.692   5.324  1.2955 -0.5300  0.3994
 6046SOL    MW423952   4.122   1.612   5.338  0.1416 -0.1981 -0.2147
 6047SOL     OW23953   3.069   3.276   1.542 -0.2251  0.3392 -0.5518
 6047SOL    HW223954   3.042   3.344   1.481  1.0639  0.5912 -0.8796
 6047SOL    HW323955   2.998   3.271   1.606 -1.4713  0.2650 -1.8913
 6047SOL    MW423956   3.056   3.284   1.542 -0.2195  0.3627 -0.7718
 6048SOL     OW23957   4.134   2.019   6.333  0.0649 -0.4388  0.0018
 6048SOL    HW223958   4.041   2.022   6.358 -0.1474 -1.2660 -0.6419
 6048SOL    HW323959   4.178   2.069   6.401 -0.9484  0.6917 -0.1326
 6048SOL    MW423960   4.127   2.026   6.345 -0.0968 -0.3988 -0.1009
 6049SOL     OW23961   2.135   3.336   3.389 -0.4495 -0.0146 -0.3579
 6049SOL    HW223962   2.087   3.283   3.326 -0.0556 -0.6513 -0.1309
 6049SOL    HW323963   2.215   3.361   3.343 -1.1710  1.4193 -0.8938
 6049SOL    MW423964   2.139   3.332   3.375 -0.4927  0.0906 -0.3987
 6050SOL     OW23965   4.223   3.750   0.370 -0.2068 -0.1955 -0.2115
 6050SOL    HW223966   4.314   3.775   0.352 -0.3405  0.6601  0.2564
 6050SOL    HW323967   4.171   3.802   0.309 -0.4055 -0.4668 -0.2775
 6050SOL    MW423968   4.228   3.760   0.359 -0.2507 -0.1184 -0.1585
 6051SOL     OW23969   4.778   6.339   1.095 -0.0436 -0.1082  0.7918
 6051SOL    HW223970   4.725   6.317   1.018 -1.8644 -0.1514  1.9941
 6051SOL    HW323971   4.861   6.369   1.059 -0.5755 -0.8164 -1.1655
 6051SOL    MW423972   4.782   6.340   1.080 -0.3540 -0.2073  0.6922
 6052SOL     OW23973   1.942   5.329   1.320  0.3420 -0.0082  0.3828
 6052SOL    HW223974   1.854   5.366   1.317 -0.5507 -1.9899  0.6720
 6052SOL    HW323975   1.961   5.303   1.230  0.1608 -0.5870  0.5070
 6052SOL    MW423976   1.933   5.331   1.308  0.2003 -0.3461  0.4374
 6053SOL     OW23977   3.761   4.851   5.985  0.3978  0.1273 -0.3403
 6053SOL    HW223978   3.726   4.832   5.898 -3.1813  1.3642  0.6505
 6053SOL    HW323979   3.728   4.780   6.040  0.7972  0.4820  0.3717
 6053SOL    MW423980   3.752   4.839   5.981 -0.0217  0.3373 -0.1157
 6054SOL     OW23981   5.569   5.824   5.310 -0.1673  0.1188  0.1058
 6054SOL    HW223982   5.478   5.795   5.316  0.0788 -0.7062 -0.0307
 6054SOL    HW323983   5.570   5.883   5.234 -1.1851  2.5224  1.8423
 6054SOL    MW423984   5.557   5.828   5.301 -0.2691  0.3271  0.3169
 6055SOL     OW23985   0.943   5.950   1.308  0.3879  0.1569  0.6070
 6055SOL    HW223986   0.940   5.867   1.261  1.0130  0.2006  0.4787
 6055SOL    HW323987   0.995   5.932   1.386  1.1935  0.6023  0.1921
 6055SOL    MW423988   0.949   5.937   1.312  0.5766  0.2214  0.5353
 6056SOL     OW23989   4.949   3.010   5.171 -0.1072  0.7625  0.6369
 6056SOL    HW223990   4.922   2.941   5.232  1.2708 -1.2660 -0.8779
 6056SOL    HW323991   4.936   3.092   5.219 -0.8898 -0.6019  2.9036
 6056SOL    MW423992   4.944   3.012   5.185 -0.0286  0.3149  0.7361
 6057SOL     OW23993   0.356   2.113   5.262 -0.4144 -0.0426  0.0946
 6057SOL    HW223994   0.329   2.204   5.252  2.1403  0.6735 -1.2830
 6057SOL    HW323995   0.279   2.068   5.295 -1.9241  2.5042  0.2660
 6057SOL    MW423996   0.342   2.119   5.265 -0.2765  0.3879 -0.0646
 6058SOL     OW23997   2.268   0.681   4.694  0.6537 -0.1791  0.0902
 6058SOL    HW223998   2.192   0.708   4.744  0.7120 -2.3908  1.5385
 6058SOL    HW323999   2.342   0.698   4.753  1.1172  0.4239 -0.6535
 6058SOL    MW424000   2.268   0.687   4.709  0.7226 -0.3913  0.1831
 6059SOL     OW24001   3.741   5.228   5.045  0.3430 -0.6966 -0.2658
 6059SOL    HW224002   3.789   5.240   4.963  0.1775 -0.3615 -0.3170
 6059SOL    HW324003   3.761   5.139   5.072  1.6393 -0.3115  0.1187
 6059SOL    MW424004   3.750   5.218   5.038  0.4922 -0.6016 -0.2218
 6060SOL     OW24005   3.430   1.776   1.155  0.0150 -0.6760 -0.1055
 6060SOL    HW224006   3.438   1.729   1.072  3.1918  0.0374 -0.3103
 6060SOL    HW324007   3.351   1.828   1.144  0.7624  0.0560 -3.0816
 6060SOL    MW424008   3.420   1.776   1.142  0.5328 -0.4853 -0.5252
 6061SOL     OW24009   0.493   3.771   5.604 -0.6749  0.1144  0.4579
 6061SOL    HW224010   0.510   3.865   5.604 -2.6375  0.5234  0.3518
 6061SOL    HW324011   0.579   3.730   5.609  0.1875  1.9196  1.0408
 6061SOL    MW424012   0.507   3.778   5.605 -0.8201  0.4065  0.5208
 6062SOL     OW24013   3.864   5.860   1.296  0.4831 -0.2954 -0.8183
 6062SOL    HW224014   3.782   5.864   1.246  1.2188  3.0638 -1.9927
 6062SOL    HW324015   3.913   5.938   1.269  3.9832 -1.9765  0.0813
 6062SOL    MW424016   3.859   5.871   1.286  1.0420 -0.0740 -0.8545
 6063SOL     OW24017   2.646   1.056   5.337 -0.0849  0.3205  0.1144
 6063SOL    HW224018   2.698   1.001   5.278 -0.4109 -0.6650  0.7277
 6063SOL    HW324019   2.707   1.123   5.368  0.6254 -0.3777  0.2407
 6063SOL    MW424020   2.661   1.058   5.333 -0.0342  0.0983  0.2120
 6064SOL     OW24021   6.195   4.672   2.227  0.3302 -0.5551  0.3369
 6064SOL    HW224022   6.223   4.707   2.142 -3.1091  0.8263 -0.3637
 6064SOL    HW324023   6.210   4.744   2.289  2.0306 -1.2746  0.8538
 6064SOL    MW424024   6.201   4.686   2.224  0.1008 -0.4678  0.3126
 6065SOL     OW24025   0.645   1.425   3.399  0.3937 -0.3622 -0.3348
 6065SOL    HW224026   0.714   1.393   3.458  0.2070  0.4066  0.3257
 6065SOL    HW324027   0.691   1.480   3.336  0.4701 -0.3838 -0.2982
 6065SOL    MW424028   0.660   1.428   3.399  0.3792 -0.2636 -0.2428
 6066SOL     OW24029   0.155   3.864   1.056  0.0435  0.6039 -0.0049
 6066SOL    HW224030   0.197   3.781   1.078  1.4919  0.6888 -2.2015
 6066SOL    HW324031   0.095   3.843   0.984 -0.5856  1.2425  0.3141
 6066SOL    MW424032   0.153   3.850   1.049  0.1516  0.6994 -0.2526
 6067SOL     OW24033   1.561   1.867   6.004  0.2207 -0.3227  0.5086
 6067SOL    HW224034   1.605   1.907   5.929  0.6741  1.4430  1.6719
 6067SOL    HW324035   1.535   1.940   6.060 -3.9692 -1.2311  0.0975
 6067SOL    MW424036   1.564   1.882   6.002 -0.2723 -0.2096  0.6079
 6068SOL     OW24037   3.629   4.383   1.885 -0.2098 -0.2092  0.3322
 6068SOL    HW224038   3.684   4.439   1.940 -0.1218  0.7493 -0.7013
 6068SOL    HW324039   3.681   4.368   1.806 -0.6956 -0.8102  0.1164
 6068SOL    MW424040   3.643   4.388   1.882 -0.2623 -0.1620  0.1674
 6069SOL     OW24041   4.747   6.184   3.952 -0.4257 -0.1520  0.1664
 6069SOL    HW224042   4.824   6.181   3.896 -1.2342  1.2652 -1.1025
 6069SOL    HW324043   4.688   6.118   3.916  0.2969 -1.5385  1.3948
 6069SOL    MW424044   4.749   6.175   3.940 -0.4371 -0.1479  0.1611
 6070SOL     OW24045   3.676   1.942   5.825 -0.2619 -0.4162 -0.3227
 6070SOL    HW224046   3.750   1.899   5.782 -1.6219 -2.2596 -0.9465
 6070SOL    HW324047   3.603   1.931   5.764 -0.3372  4.7754 -1.5709
 6070SOL    MW424048   3.676   1.935   5.811 -0.4512  0.0256 -0.5697
 6071SOL     OW24049   1.695   0.656   1.429  0.1813  0.8488 -0.3130
 6071SOL    HW224050   1.614   0.654   1.481  0.3411  0.0697 -0.0823
 6071SOL    HW324051   1.665   0.672   1.339 -0.5547 -2.4721 -0.7677
 6071SOL    MW424052   1.680   0.658   1.424  0.1053  0.3079 -0.3426
 6072SOL     OW24053   3.149   3.264   5.179  0.3120 -0.1406 -0.1880
 6072SOL    HW224054   3.067   3.291   5.138  0.4543  0.1062 -0.3121
 6072SOL    HW324055   3.204   3.234   5.106  1.3606  2.2915 -0.4949
 6072SOL    MW424056   3.145   3.263   5.164  0.4691  0.2129 -0.2449
 6073SOL     OW24057   3.621   4.944   0.199  0.5063 -0.3858 -0.4843
 6073SOL    HW224058   3.597   4.927   0.108 -0.3228  0.5114 -0.4532
 6073SOL    HW324059   3.555   4.897   0.250  0.2101  0.1379 -0.3724
 6073SOL    MW424060   3.609   4.935   0.194  0.3579 -0.1983 -0.4655
 6074SOL     OW24061   0.877   0.486   4.348 -0.3438 -0.4793 -0.2214
 6074SOL    HW224062   0.933   0.426   4.298 -0.0770  0.2502 -0.8191
 6074SOL    HW324063   0.795   0.489   4.299 -0.4352 -0.5212 -0.0723
 6074SOL    MW424064   0.874   0.479   4.335 -0.3207 -0.3886 -0.2806
 6075SOL     OW24065   2.534   0.677   5.072  0.1925  0.2072 -0.2779
 6075SOL    HW224066   2.446   0.650   5.100 -0.6969  2.1009 -1.0264
 6075SOL    HW324067   2.518   0.733   4.996  2.0947  0.3342 -0.6326
 6075SOL    MW424068   2.520   0.681   5.066  0.3262  0.4738 -0.4235
 6076SOL     OW24069   2.309   3.734   5.498 -0.4474 -0.4241 -0.6184
 6076SOL    HW224070   2.216   3.751   5.483 -0.9487 -2.4088 -0.1643
 6076SOL    HW324071   2.330   3.662   5.438  1.3115  1.1589 -2.0135
 6076SOL    MW424072   2.299   3.726   5.488 -0.2815 -0.4771 -0.7425
 6077SOL     OW24073   2.980   2.915   5.547 -0.3694 -0.1473  0.0216
 6077SOL    HW224074   3.022   2.964   5.618  0.0014 -1.5327  0.7788
 6077SOL    HW324075   3.039   2.842   5.529 -0.4785  0.1438 -1.7039
 6077SOL    MW424076   2.993   2.912   5.554 -0.3348 -0.2917 -0.1061
 6078SOL     OW24077   1.910   2.631   0.339 -0.0362  0.0008 -0.2631
 6078SOL    HW224078   1.983   2.569   0.335 -0.7787 -0.8711 -0.9046
 6078SOL    HW324079   1.938   2.698   0.401  0.5315 -1.3665  1.0287
 6078SOL    MW424080   1.923   2.631   0.347 -0.0592 -0.2946 -0.1773
 6079SOL     OW24081   1.719   1.853   2.679  0.3636  0.3316  0.3725
 6079SOL    HW224082   1.645   1.885   2.730 -0.8879 -0.6262 -0.7651
 6079SOL    HW324083   1.796   1.891   2.722 -0.7914  1.7113  1.3322
 6079SOL    MW424084   1.720   1.862   2.691  0.0461  0.3873  0.3490
 6080SOL     OW24085   0.597   2.826   4.458  0.0835 -0.2802 -0.2367
 6080SOL    HW224086   0.515   2.823   4.408  0.3750 -0.0813 -0.7271
 6080SOL    HW324087   0.652   2.759   4.417 -0.7228 -2.2881  1.6893
 6080SOL    MW424088   0.594   2.817   4.446  0.0155 -0.5189 -0.0473
 6081SOL     OW24089   0.399   0.092   5.570  0.8999 -0.8724 -0.0592
 6081SOL    HW224090   0.385   0.003   5.603  0.2125  0.0355  2.3647
 6081SOL    HW324091   0.317   0.137   5.590  1.7366  0.6557  0.0490
 6081SOL    MW424092   0.386   0.086   5.577  0.9196 -0.5510  0.2749
 6082SOL     OW24093   3.806   2.151   0.567 -0.3807 -0.6530 -0.8765
 6082SOL    HW224094   3.803   2.106   0.482 -1.5277  0.3239 -1.3816
 6082SOL    HW324095   3.715   2.174   0.585  0.0418  0.4791 -0.1007
 6082SOL    MW424096   3.794   2.148   0.558 -0.4763 -0.3748 -0.8408
 6083SOL     OW24097   0.172   4.046   5.324  0.2286 -0.2041 -0.2656
 6083SOL    HW224098   0.247   4.106   5.328 -0.3994  0.5440  2.8388
 6083SOL    HW324099   0.096   4.103   5.326 -0.4210 -1.0569 -0.1849
 6083SOL    MW424100   0.172   4.061   5.324  0.0600 -0.2179  0.1547
 6084SOL     OW24101   2.011   4.659   1.300  0.0011  0.0165 -0.2119
 6084SOL    HW224102   2.007   4.652   1.396 -2.4052  1.0536 -0.1770
 6084SOL    HW324103   1.998   4.751   1.282  1.5585  0.0136 -1.5579
 6084SOL    MW424104   2.009   4.670   1.310 -0.1109  0.1530 -0.3849
 6085SOL     OW24105   2.417   6.174   0.336 -0.0760  0.5324  0.1573
 6085SOL    HW224106   2.430   6.232   0.261 -2.7485  0.0587 -0.7999
 6085SOL    HW324107   2.364   6.227   0.397  1.3111  0.6005  1.3380
 6085SOL    MW424108   2.412   6.189   0.334 -0.2456  0.4789  0.1868
 6086SOL     OW24109   5.943   1.262   1.442 -0.4705  0.2183 -0.6258
 6086SOL    HW224110   5.874   1.287   1.504 -1.1099 -2.6168 -0.0693
 6086SOL    HW324111   5.897   1.211   1.375  0.9211 -0.8210 -0.8188
 6086SOL    MW424112   5.927   1.259   1.441 -0.3713 -0.2929 -0.5779
 6087SOL     OW24113   0.894   2.146   3.239 -0.3077  1.1017 -0.1275
 6087SOL    HW224114   0.959   2.083   3.273  2.2410  2.7878 -1.5281
 6087SOL    HW324115   0.866   2.195   3.316  0.2182  0.4434  0.5067
 6087SOL    MW424116   0.899   2.144   3.254  0.0980  1.2373 -0.2286
 6088SOL     OW24117   0.730   1.255   1.985  0.1803 -0.4770  0.5723
 6088SOL    HW224118   0.699   1.236   2.074  0.3141 -1.1991  0.4650
 6088SOL    HW324119   0.747   1.349   1.986  1.9046 -0.7676  1.8586
 6088SOL    MW424120   0.728   1.265   1.997  0.4255 -0.6106  0.7279
 6089SOL     OW24121   4.822   4.987   5.526 -0.0908 -0.0425  0.1205
 6089SOL    HW224122   4.796   4.912   5.472 -1.5843  1.8474 -1.9124
 6089SOL    HW324123   4.907   5.013   5.491  0.3121 -0.5739  0.6660
 6089SOL    MW424124   4.830   4.980   5.514 -0.2347  0.1368 -0.0758
 6090SOL     OW24125   4.894   1.470   3.375  0.8044 -0.4897 -0.8862
 6090SOL    HW224126   4.830   1.452   3.444 -0.8518  0.9677 -1.9368
 6090SOL    HW324127   4.977   1.481   3.421 -0.0902 -0.3463  0.7816
 6090SOL    MW424128   4.896   1.470   3.390  0.4678 -0.2785 -0.8048
 6091SOL     OW24129   0.128   0.605   2.877  0.1320  0.6226 -0.5986
 6091SOL    HW224130   0.166   0.554   2.806 -0.6768  0.2365 -0.7751
 6091SOL    HW324131   0.143   0.552   2.956  0.6335  0.8354 -0.5540
 6091SOL    MW424132   0.135   0.591   2.878  0.0914  0.5997 -0.6160
 6092SOL     OW24133   3.237   4.413   3.678 -0.5640  0.0213  0.4122
 6092SOL    HW224134   3.206   4.418   3.768 -0.0961 -1.0346  0.6484
 6092SOL    HW324135   3.329   4.387   3.685 -0.8130 -1.1574 -0.3921
 6092SOL    MW424136   3.245   4.410   3.690 -0.5351 -0.2735  0.3373
 6093SOL     OW24137   5.763   6.335   3.148 -0.5096  0.2690  0.2551
 6093SOL    HW224138   5.773   6.414   3.095 -0.4075  0.1886  0.1546
 6093SOL    HW324139   5.808   6.267   3.098  1.7385  0.6891  1.5884
 6093SOL    MW424140   5.770   6.337   3.134 -0.1995  0.3138  0.4178
 6094SOL     OW24141   1.315   5.065   0.824 -0.6633 -0.2465  0.2022
 6094SOL    HW224142   1.233   5.058   0.776 -0.4952 -1.5659  0.0578
 6094SOL    HW324143   1.359   4.981   0.809  1.7524  1.1847 -1.6279
 6094SOL    MW424144   1.310   5.053   0.815 -0.3224 -0.2318 -0.0583
 6095SOL     OW24145   2.016   1.858   0.438  0.3016 -0.2045  0.4980
 6095SOL    HW224146   2.091   1.861   0.378 -0.4306  1.3387 -0.4228
 6095SOL    HW324147   1.941   1.878   0.382 -0.5919 -0.1372  1.6875
 6095SOL    MW424148   2.016   1.861   0.422  0.0871  0.0080  0.5334
 6096SOL     OW24149   5.987   0.122   1.032 -0.1083 -0.5744 -0.2420
 6096SOL    HW224150   5.980   0.215   1.009 -0.5691 -0.5700 -0.0959
 6096SOL    HW324151   5.982   0.121   1.127  1.0910 -0.6523 -0.1734
 6096SOL    MW424152   5.985   0.134   1.041 -0.0109 -0.5841 -0.2136
 6097SOL     OW24153   1.335   1.721   2.424 -0.1503 -0.4328  0.0572
 6097SOL    HW224154   1.361   1.813   2.428 -0.3860 -0.2610 -1.6550
 6097SOL    HW324155   1.318   1.705   2.331 -0.0455 -2.2313  0.3172
 6097SOL    MW424156   1.336   1.731   2.412 -0.1675 -0.6475 -0.1344
 6098SOL     OW24157   2.864   6.180   2.869 -0.3672 -0.1779 -0.4094
 6098SOL    HW224158   2.795   6.208   2.929 -0.2072 -0.0273 -0.2947
 6098SOL    HW324159   2.872   6.086   2.884 -0.4822 -0.1787 -0.3559
 6098SOL    MW424160   2.856   6.171   2.879 -0.3612 -0.1581 -0.3872
 6099SOL     OW24161   1.994   4.330   2.793  0.0208  0.2673 -0.2024
 6099SOL    HW224162   2.015   4.249   2.746 -0.9323  0.0660 -0.2974
 6099SOL    HW324163   2.079   4.369   2.812  0.5799 -1.5238  1.2306
 6099SOL    MW424164   2.008   4.324   2.789 -0.0312  0.0044 -0.0259
 6100SOL     OW24165   1.470   5.235   0.670 -0.3035 -0.3163 -0.5266
 6100SOL    HW224166   1.494   5.179   0.597  0.7226 -1.0107  0.3090
 6100SOL    HW324167   1.396   5.191   0.712 -0.1830 -0.4990 -0.5049
 6100SOL    MW424168   1.464   5.222   0.666 -0.1522 -0.4320 -0.4135
 6101SOL     OW24169   4.393   1.626   2.710  0.2898  0.2062 -0.2719
 6101SOL    HW224170   4.480   1.665   2.711  0.1500  0.5704  1.5577
 6101SOL    HW324171   4.333   1.701   2.711 -0.0419 -0.0516 -0.5086
 6101SOL    MW424172   4.397   1.641   2.710  0.2276  0.2202 -0.0617
 6102SOL     OW24173   5.109   5.150   3.593 -0.0253 -0.3606 -0.8146
 6102SOL    HW224174   5.157   5.146   3.676 -1.2246 -0.5513 -0.1087
 6102SOL    HW324175   5.172   5.189   3.532  0.7907  0.0744  0.2490
 6102SOL    MW424176   5.124   5.155   3.596 -0.0759 -0.3283 -0.5811
 6103SOL     OW24177   0.028   5.360   1.826  0.4372 -0.5054  0.2359
 6103SOL    HW224178   0.101   5.411   1.792 -0.1334  0.7192  0.8116
 6103SOL    HW324179   0.010   5.296   1.757 -0.0007  1.2293 -1.3429
 6103SOL    MW424180   0.035   5.358   1.812  0.3041 -0.1149  0.1036
 6104SOL     OW24181   2.465   4.044   1.178 -0.0552 -0.7377  0.4091
 6104SOL    HW224182   2.534   4.109   1.192  2.2437 -3.2569  1.7761
 6104SOL    HW324183   2.416   4.044   1.260 -0.2260 -0.5660  0.3084
 6104SOL    MW424184   2.467   4.053   1.191  0.2256 -1.0474  0.5762
 6105SOL     OW24185   0.447   5.292   0.471  0.1299  0.3010  0.1886
 6105SOL    HW224186   0.493   5.257   0.547 -1.3104  1.2042  1.5649
 6105SOL    HW324187   0.434   5.385   0.492 -0.9701  0.3943 -0.8006
 6105SOL    MW424188   0.451   5.300   0.484 -0.2053  0.4325  0.2397
 6106SOL     OW24189   0.094   3.290   4.377  0.3848 -0.4913 -0.0378
 6106SOL    HW224190   0.069   3.225   4.312 -0.7569 -0.3882  0.2707
 6106SOL    HW324191   0.054   3.372   4.346  0.9264 -0.1630  0.1194
 6106SOL    MW424192   0.085   3.292   4.365  0.3057 -0.4344  0.0237
 6107SOL     OW24193   2.615   6.300   4.126 -0.3006  0.3125 -0.4819
 6107SOL    HW224194   2.691   6.350   4.156 -1.0060  1.5873 -0.7539
 6107SOL    HW324195   2.567   6.361   4.071 -1.7864 -0.3126  0.0873
 6107SOL    MW424196   2.619   6.314   4.123 -0.5897  0.3982 -0.4427
 6108SOL     OW24197   3.225   0.393   1.440  0.3296  1.1393  0.3888
 6108SOL    HW224198   3.188   0.481   1.434  0.9659  1.5451  1.9074
 6108SOL    HW324199   3.308   0.398   1.393  0.1229  1.1872  0.0201
 6108SOL    MW424200   3.231   0.405   1.433  0.3863  1.1991  0.5405
 6109SOL     OW24201   4.143   1.157   4.615  0.6581  0.0897  0.0407
 6109SOL    HW224202   4.090   1.094   4.566  1.8591  0.2440 -1.5401
 6109SOL    HW324203   4.137   1.238   4.565  3.2713 -0.1954 -0.8895
 6109SOL    MW424204   4.135   1.159   4.602  1.1614  0.0725 -0.2906
 6110SOL     OW24205   4.876   3.153   6.401 -0.2248  0.4757 -0.5415
 6110SOL    HW224206   4.959   3.112   6.377 -0.6471 -0.8358  0.1430
 6110SOL    HW324207   4.828   3.159   6.319 -0.2294 -0.6218 -0.6407
 6110SOL    MW424208   4.881   3.148   6.387 -0.2811  0.1579 -0.4643
 6111SOL     OW24209   1.695   3.360   4.727 -0.3663 -0.3637 -0.8251
 6111SOL    HW224210   1.697   3.429   4.660  0.4577  0.2708 -0.1706
 6111SOL    HW324211   1.636   3.393   4.794  2.0187  0.9981  0.7682
 6111SOL    MW424212   1.688   3.373   4.727  0.0571 -0.1003 -0.5285
 6112SOL     OW24213   3.446   3.986   2.740 -0.0527  0.2852  0.4724
 6112SOL    HW224214   3.353   3.998   2.756 -0.3550 -0.4504 -0.6268
 6112SOL    HW324215   3.463   3.894   2.761 -0.0517 -0.1736 -1.3439
 6112SOL    MW424216   3.436   3.975   2.745 -0.0925  0.1276  0.0878
 6113SOL     OW24217   2.126   3.449   4.837 -0.1296 -0.3510  0.3077
 6113SOL    HW224218   2.172   3.533   4.832  1.2856 -1.1176 -0.2701
 6113SOL    HW324219   2.102   3.430   4.746 -3.2941  0.8718  0.7655
 6113SOL    MW424220   2.129   3.458   4.824 -0.3604 -0.2908  0.2918
 6114SOL     OW24221   0.304   1.578   2.899 -0.2069 -0.2354 -0.0070
 6114SOL    HW224222   0.258   1.496   2.883  0.5487 -0.9690  1.3963
 6114SOL    HW324223   0.240   1.633   2.945 -0.6578 -0.0734 -0.8021
 6114SOL    MW424224   0.289   1.574   2.903 -0.1667 -0.3108  0.0733
 6115SOL     OW24225   0.830   4.851   2.367  0.7215 -0.2139  0.7358
 6115SOL    HW224226   0.800   4.882   2.452 -0.7962 -0.4010  0.3129
 6115SOL    HW324227   0.871   4.927   2.326  0.2323  0.2536  1.1033
 6115SOL    MW424228   0.831   4.865   2.373  0.4567 -0.1769  0.7285
 6116SOL     OW24229   2.290   2.531   1.339  0.5329 -0.1794 -0.0734
 6116SOL    HW224230   2.342   2.583   1.400  0.8413  0.6341 -0.9933
 6116SOL    HW324231   2.233   2.478   1.394  1.7870 -0.5198  0.9553
 6116SOL    MW424232   2.290   2.531   1.354  0.7391 -0.1170 -0.0591
 6117SOL     OW24233   0.757   3.183   2.100 -0.1384 -0.1236  0.2832
 6117SOL    HW224234   0.804   3.100   2.115 -2.4793 -1.4279  1.0461
 6117SOL    HW324235   0.798   3.220   2.023  0.3925 -2.5062 -0.6847
 6117SOL    MW424236   0.769   3.177   2.092 -0.3772 -0.6100  0.2562
 6118SOL     OW24237   3.921   0.852   0.741 -0.6028  0.1413  0.6043
 6118SOL    HW224238   3.954   0.919   0.801 -0.4543  1.3236 -0.7574
 6118SOL    HW324239   4.000   0.812   0.704 -0.6947  0.1202  0.4297
 6118SOL    MW424240   3.936   0.855   0.744 -0.5953  0.2945  0.4016
 6119SOL     OW24241   4.249   0.755   1.593  0.0705 -0.0440 -0.0546
 6119SOL    HW224242   4.190   0.746   1.668  1.2261 -0.7994  0.8103
 6119SOL    HW324243   4.220   0.686   1.532 -0.4705  0.1514 -0.0252
 6119SOL    MW424244   4.237   0.745   1.595  0.1516 -0.1179  0.0634
 6120SOL     OW24245   1.576   6.116   5.631 -0.7079  0.0345  0.0857
 6120SOL    HW224246   1.593   6.093   5.540  0.3430  1.7196 -0.1911
 6120SOL    HW324247   1.612   6.043   5.681  0.9053  0.1719 -0.7870
 6120SOL    MW424248   1.583   6.103   5.625 -0.3564  0.2750 -0.0660
 6121SOL     OW24249   4.976   2.447   4.949 -0.1101 -0.3121  0.3363
 6121SOL    HW224250   5.065   2.482   4.962 -1.0323  1.7599  1.5052
 6121SOL    HW324251   4.979   2.360   4.989  1.0339  0.3189  1.7303
 6121SOL    MW424252   4.988   2.440   4.956 -0.0809  0.0445  0.6745
 6122SOL     OW24253   6.295   2.312   4.712 -0.4168 -0.5346  0.6505
 6122SOL    HW224254   6.326   2.227   4.682 -1.6108 -1.7539  2.6206
 6122SOL    HW324255   6.266   2.296   4.802 -0.0568  2.1153  1.3155
 6122SOL    MW424256   6.295   2.299   4.720 -0.5269 -0.3458  0.9982
 6123SOL     OW24257   0.226   2.057   0.545 -0.2121  0.1429 -0.3161
 6123SOL    HW224258   0.241   2.145   0.579  0.7357 -0.1914  0.1883
 6123SOL    HW324259   0.162   2.018   0.604  1.2464 -0.3528  1.0229
 6123SOL    MW424260   0.220   2.064   0.557  0.1054  0.0334 -0.0729
 6124SOL     OW24261   2.543   5.069   4.148 -0.2338  0.7839 -0.2714
 6124SOL    HW224262   2.478   5.127   4.187 -1.1719 -1.0273  1.0241
 6124SOL    HW324263   2.590   5.032   4.223 -1.2443 -1.8589 -0.8399
 6124SOL    MW424264   2.540   5.072   4.163 -0.4909  0.1962 -0.1755
 6125SOL     OW24265   5.017   4.860   0.307 -0.6803 -0.2370  0.0840
 6125SOL    HW224266   5.032   4.944   0.263  2.7094  0.2718  1.8952
 6125SOL    HW324267   5.034   4.877   0.399 -0.8765 -2.7189  0.6524
 6125SOL    MW424268   5.021   4.873   0.313 -0.2590 -0.4973  0.3980
 6126SOL     OW24269   4.805   5.372   4.410 -0.0042  0.2772  0.8967
 6126SOL    HW224270   4.892   5.346   4.438  0.8887 -1.2440 -2.6864
 6126SOL    HW324271   4.746   5.335   4.475  1.7885 -2.8007  0.9342
 6126SOL    MW424272   4.809   5.364   4.422  0.3501 -0.3296  0.4289
 6127SOL     OW24273   2.299   3.036   0.715  0.2177  0.3459 -0.1867
 6127SOL    HW224274   2.262   2.948   0.714  0.2938  0.3149 -0.4287
 6127SOL    HW324275   2.390   3.024   0.741  0.8969  0.0722 -2.4234
 6127SOL    MW424276   2.307   3.023   0.718  0.3174  0.3057 -0.5137
 6128SOL     OW24277   0.526   4.757   1.718 -0.5680 -0.2790 -0.0325
 6128SOL    HW224278   0.464   4.684   1.713 -2.1719  1.0274 -0.0311
 6128SOL    HW324279   0.514   4.804   1.636  0.4537 -0.0027 -0.0363
 6128SOL    MW424280   0.517   4.754   1.707 -0.6448 -0.0702 -0.0328
 6129SOL     OW24281   1.320   1.105   2.674 -0.0840  0.1286 -0.3383
 6129SOL    HW224282   1.331   1.030   2.732 -0.0183 -0.4409 -1.0589
 6129SOL    HW324283   1.389   1.094   2.608 -0.8078  0.1744 -1.1171
 6129SOL    MW424284   1.331   1.094   2.673 -0.1708  0.0595 -0.5362
 6130SOL     OW24285   3.134   6.390   0.039 -0.2754 -0.1779 -0.2711
 6130SOL    HW224286   3.040   6.385   0.021 -0.8875  1.0920  2.1501
 6130SOL    HW324287   3.176   6.373  -0.045 -2.6831  0.4472 -1.6772
 6130SOL    MW424288   3.127   6.387   0.026 -0.6738  0.0721 -0.1372
 6131SOL     OW24289   4.461   0.403   1.839 -0.0536 -0.1430  0.4298
 6131SOL    HW224290   4.540   0.456   1.847 -0.0273 -0.0113 -0.5983
 6131SOL    HW324291   4.391   0.458   1.876 -0.0019  0.5695 -0.5005
 6131SOL    MW424292   4.462   0.417   1.845 -0.0433 -0.0316  0.1714
 6132SOL     OW24293   4.827   0.432   0.403 -0.0856  0.9894  0.2356
 6132SOL    HW224294   4.736   0.408   0.386 -0.3786  1.8605  0.5140
 6132SOL    HW324295   4.829   0.455   0.496  0.3787  1.1137  0.1972
 6132SOL    MW424296   4.815   0.432   0.413 -0.0630  1.1207  0.2673
 6133SOL     OW24297   0.651   0.734   3.507  0.5770  0.0172 -0.0543
 6133SOL    HW224298   0.670   0.641   3.519  2.8047  0.4645  0.1671
 6133SOL    HW324299   0.575   0.735   3.449 -0.3636 -1.9404  1.0112
 6133SOL    MW424300   0.643   0.722   3.501  0.7468 -0.1821  0.1155
 6134SOL     OW24301   3.191   5.291   1.010 -0.5355  0.8370 -0.5902
 6134SOL    HW224302   3.182   5.227   1.080 -0.8129  0.7646 -0.6911
 6134SOL    HW324303   3.231   5.367   1.052  0.1409  0.4667 -0.5483
 6134SOL    MW424304   3.196   5.293   1.025 -0.4829  0.7786 -0.5980
 6135SOL     OW24305   1.929   0.909   4.030  0.0010  0.0830 -0.0484
 6135SOL    HW224306   1.999   0.876   4.087  0.0387 -1.6942 -1.0423
 6135SOL    HW324307   1.966   0.986   3.988  1.4016 -0.8415 -0.5791
 6135SOL    MW424308   1.943   0.915   4.032  0.1907 -0.2735 -0.2496
 6136SOL     OW24309   3.192   3.620   3.463 -0.6516 -0.0458  0.1633
 6136SOL    HW224310   3.178   3.618   3.369 -1.8184 -1.2927  0.3350
 6136SOL    HW324311   3.115   3.578   3.500  1.1365 -2.4371  1.4816
 6136SOL    MW424312   3.180   3.614   3.456 -0.5696 -0.5258  0.3599
 6137SOL     OW24313   3.187   6.387   1.490 -0.1110 -0.0392 -0.7034
 6137SOL    HW224314   3.186   6.421   1.400  0.3845  0.3725 -0.5573
 6137SOL    HW324315   3.228   6.456   1.541  0.2187 -0.5493 -0.2689
 6137SOL    MW424316   3.192   6.400   1.485 -0.0021 -0.0522 -0.6268
 6138SOL     OW24317   6.196   4.619   5.659  0.4014 -0.5108  0.7650
 6138SOL    HW224318   6.192   4.536   5.611 -2.3341 -0.3254  0.5336
 6138SOL    HW324319   6.153   4.600   5.742  1.2985  0.2839  1.4365
 6138SOL    MW424320   6.190   4.605   5.664  0.1589 -0.3815  0.8231
 6139SOL     OW24321   4.504   6.143   2.865 -0.2835 -0.1816 -0.1749
 6139SOL    HW224322   4.527   6.221   2.916 -2.4015  1.0445 -0.9997
 6139SOL    HW324323   4.421   6.114   2.902  0.1213 -1.6678 -0.3648
 6139SOL    MW424324   4.496   6.150   2.877 -0.5096 -0.2159 -0.3088
 6140SOL     OW24325   5.962   6.387   3.326  0.2432  0.0979 -0.6459
 6140SOL    HW224326   5.895   6.361   3.262  0.5202 -2.3486 -0.0145
 6140SOL    HW324327   5.919   6.455   3.379 -0.8956  0.2754 -1.7436
 6140SOL    MW424328   5.947   6.393   3.324  0.1295 -0.2014 -0.7074
 6141SOL     OW24329   3.975   0.327   1.754  0.3649 -0.6471 -0.0386
 6141SOL    HW224330   3.917   0.278   1.695  1.6829  0.0844 -2.0722
 6141SOL    HW324331   4.014   0.260   1.810 -1.1712 -1.3354  0.2769
 6141SOL    MW424332   3.972   0.312   1.753  0.3361 -0.6414 -0.2653
 6142SOL     OW24333   1.267   5.883   3.936  0.0949  0.3355 -0.4923
 6142SOL    HW224334   1.314   5.939   3.874  0.6738  1.1114  0.6030
 6142SOL    HW324335   1.314   5.800   3.932  0.4235  0.5265 -0.7536
 6142SOL    MW424336   1.280   5.880   3.927  0.2146  0.4631 -0.3823
 6143SOL     OW24337   0.508   2.348   1.387  0.1061  0.2408  0.2568
 6143SOL    HW224338   0.486   2.270   1.335 -3.3571  0.3883  1.2272
 6143SOL    HW324339   0.459   2.419   1.345  0.8151  1.2843  1.1449
 6143SOL    MW424340   0.499   2.347   1.375 -0.2573  0.3979  0.5020
 6144SOL     OW24341   2.170   3.287   6.394  0.0151  0.1154 -0.2259
 6144SOL    HW224342   2.107   3.223   6.427 -0.5820 -0.0222 -1.5655
 6144SOL    HW324343   2.119   3.367   6.381  0.2389  0.1795 -0.7468
 6144SOL    MW424344   2.155   3.289   6.396 -0.0342  0.1057 -0.4714
 6145SOL     OW24345   1.869   3.086   2.432 -0.1374 -0.1079  0.5810
 6145SOL    HW224346   1.831   3.042   2.508  0.5584  0.7589  1.4441
 6145SOL    HW324347   1.807   3.156   2.411  0.9536  1.3378  2.0201
 6145SOL    MW424348   1.856   3.089   2.439  0.0983  0.1972  0.8848
 6146SOL     OW24349   2.157   0.722   5.597  0.3967 -0.2009  0.0393
 6146SOL    HW224350   2.235   0.677   5.630 -0.3704 -0.4425  1.6276
 6146SOL    HW324351   2.088   0.655   5.600  0.0442  0.0856 -1.0853
 6146SOL    MW424352   2.158   0.707   5.602  0.2490 -0.1950  0.1005
 6147SOL     OW24353   5.959   1.310   2.786  0.3314 -0.0988 -0.3663
 6147SOL    HW224354   6.034   1.252   2.776  0.1180 -0.5838  0.7790
 6147SOL    HW324355   5.884   1.256   2.762  0.1460 -0.2604  0.5674
 6147SOL    MW424356   5.959   1.296   2.781  0.2788 -0.1841 -0.0920
 6148SOL     OW24357   0.951   3.031   0.281  0.6087 -0.1236  0.6744
 6148SOL    HW224358   0.969   2.978   0.358 -1.0884 -1.4441  0.2214
 6148SOL    HW324359   0.914   2.969   0.218  1.3040  1.0637 -0.9481
 6148SOL    MW424360   0.948   3.016   0.283  0.4766 -0.1412  0.4006
 6149SOL     OW24361   6.363   4.314   3.448  0.1670 -0.0880 -0.3028
 6149SOL    HW224362   6.350   4.408   3.464  0.1143 -0.1272 -0.1229
 6149SOL    HW324363   6.455   4.307   3.423  1.1138 -0.4109  2.8531
 6149SOL    MW424364   6.374   4.326   3.447  0.2850 -0.1358  0.1373
 6150SOL     OW24365   5.573   4.225   1.911  0.5288 -0.2774  0.0961
 6150SOL    HW224366   5.489   4.188   1.940  0.5554 -0.4145  0.0012
 6150SOL    HW324367   5.561   4.242   1.818  0.0473  1.2593  0.4159
 6150SOL    MW424368   5.560   4.222   1.902  0.4688 -0.0927  0.1258
 6151SOL     OW24369   3.520   2.579   3.402 -0.2971  0.5119 -0.5553
 6151SOL    HW224370   3.458   2.590   3.330 -1.9769  1.3309  0.9150
 6151SOL    HW324371   3.543   2.668   3.428 -2.7241  0.4738  2.2710
 6151SOL    MW424372   3.515   2.592   3.396 -0.8389  0.6149  0.0116
 6152SOL     OW24373   4.893   2.204   1.405 -0.1677 -0.2782 -0.1180
 6152SOL    HW224374   4.932   2.138   1.347 -1.5059 -2.0731  0.9179
 6152SOL    HW324375   4.956   2.215   1.476  0.2989 -0.0219 -0.5671
 6152SOL    MW424376   4.906   2.197   1.407 -0.2827 -0.4812 -0.0406
 6153SOL     OW24377   5.858   1.411   4.739 -0.6863  0.2263 -0.4476
 6153SOL    HW224378   5.897   1.498   4.738 -2.6194  1.1771  1.2409
 6153SOL    HW324379   5.933   1.352   4.731  1.0136  1.9660  1.3837
 6153SOL    MW424380   5.873   1.415   4.738 -0.7171  0.5812  0.0168
 6154SOL     OW24381   5.110   1.158   0.291 -0.0080 -0.3201  0.2111
 6154SOL    HW224382   5.056   1.205   0.227  1.2784 -0.7619 -1.2739
 6154SOL    HW324383   5.186   1.129   0.241  0.7801 -1.2017  1.8375
 6154SOL    MW424384   5.113   1.160   0.276  0.2657 -0.4947  0.2298
 6155SOL     OW24385   4.835   1.532   5.352  0.0887 -0.2046 -0.1854
 6155SOL    HW224386   4.849   1.567   5.440  1.8060 -0.5012 -0.2976
 6155SOL    HW324387   4.923   1.527   5.314 -0.7400  1.5177 -2.5578
 6155SOL    MW424388   4.849   1.536   5.359  0.2059 -0.0165 -0.5132
 6156SOL     OW24389   1.107   3.886   2.932 -0.1799  0.3626  0.1356
 6156SOL    HW224390   1.107   3.807   2.986 -0.9539  1.2450  1.4925
 6156SOL    HW324391   1.120   3.957   2.994  0.4293  1.3214 -1.0546
 6156SOL    MW424392   1.108   3.885   2.947 -0.2016  0.6055  0.1576
 6157SOL     OW24393   1.431   1.067   4.557 -0.1641  0.0183  0.1333
 6157SOL    HW224394   1.399   0.985   4.595 -0.0731 -0.3707 -0.6190
 6157SOL    HW324395   1.481   1.040   4.480 -0.1051  0.7808 -0.1017
 6157SOL    MW424396   1.434   1.052   4.552 -0.1443  0.0676  0.0030
 6158SOL     OW24397   1.716   5.449   3.233  0.3302  0.6967  0.0281
 6158SOL    HW224398   1.625   5.441   3.205  0.7130  0.9389 -1.3853
 6158SOL    HW324399   1.757   5.501   3.164  2.5228 -3.0186 -1.8014
 6158SOL    MW424400   1.709   5.455   3.220  0.6700  0.2385 -0.3998
 6159SOL     OW24401   4.490   2.097   2.889  0.3929  0.3236  0.0006
 6159SOL    HW224402   4.420   2.157   2.913 -0.6933  0.0968 -2.2825
 6159SOL    HW324403   4.569   2.136   2.925 -0.7175  1.3191  1.4668
 6159SOL    MW424404   4.491   2.110   2.897  0.1030  0.4251 -0.1072
 6160SOL     OW24405   3.553   1.229   3.738  0.6005  0.2431  0.5668
 6160SOL    HW224406   3.506   1.227   3.655 -1.1128 -0.1890  1.4917
 6160SOL    HW324407   3.616   1.300   3.729  2.4310 -1.5312 -2.0789
 6160SOL    MW424408   3.555   1.238   3.726  0.6160 -0.0480  0.3397
 6161SOL     OW24409   2.692   6.237   3.499 -0.4761  0.5010 -0.0302
 6161SOL    HW224410   2.731   6.168   3.554  0.4978  0.7057 -0.4520
 6161SOL    HW324411   2.763   6.300   3.485 -0.8189  0.6431 -1.2067
 6161SOL    MW424412   2.706   6.236   3.505 -0.3928  0.5467 -0.2410
 6162SOL     OW24413   2.724   2.946   2.148  0.0903 -0.2767 -0.7010
 6162SOL    HW224414   2.782   2.894   2.204  1.0461  0.4957 -0.9492
 6162SOL    HW324415   2.743   3.037   2.170 -1.5907  0.0097 -0.2586
 6162SOL    MW424416   2.734   2.951   2.158 -0.0054 -0.1370 -0.6754
 6163SOL     OW24417   3.017   2.225   2.912 -0.1097 -0.4812  0.4256
 6163SOL    HW224418   2.936   2.176   2.922 -1.9743  2.4266  0.8797
 6163SOL    HW324419   3.009   2.268   2.827 -0.5176  2.1429  1.6925
 6163SOL    MW424420   3.006   2.225   2.902 -0.4095  0.2487  0.6527
 6164SOL     OW24421   2.135   3.183   5.525 -0.8302  0.1493 -0.2242
 6164SOL    HW224422   2.179   3.155   5.605  0.7221  1.1249 -0.7076
 6164SOL    HW324423   2.075   3.111   5.505 -1.4858  0.0159  1.9599
 6164SOL    MW424424   2.133   3.169   5.533 -0.7119  0.2604  0.0002
 6165SOL     OW24425   1.503   3.758   5.555  0.4818 -0.0769 -0.1922
 6165SOL    HW224426   1.450   3.702   5.498  1.2986 -1.4561  0.3664
 6165SOL    HW324427   1.541   3.823   5.495  0.0001 -0.4766 -0.9493
 6165SOL    MW424428   1.501   3.760   5.539  0.5260 -0.3116 -0.2184
 6166SOL     OW24429   1.372   4.793   0.723 -0.3110  0.2042  0.2749
 6166SOL    HW224430   1.378   4.707   0.763 -2.7873  0.1558  0.7407
 6166SOL    HW324431   1.361   4.775   0.629 -1.4794 -0.0626  0.4442
 6166SOL    MW424432   1.371   4.780   0.716 -0.7919  0.1626  0.3587
 6167SOL     OW24433   0.233   3.726   4.673  0.4209  0.6119  0.2776
 6167SOL    HW224434   0.287   3.775   4.611  1.3641 -0.0243  0.5809
 6167SOL    HW324435   0.255   3.635   4.657 -1.4904  0.2307 -0.4359
 6167SOL    MW424436   0.243   3.721   4.662  0.2932  0.4777  0.2235
 6168SOL     OW24437   1.843   1.624   5.034  0.0253 -0.2069  0.6560
 6168SOL    HW224438   1.920   1.568   5.020  0.7042  0.5355  1.3522
 6168SOL    HW324439   1.804   1.633   4.947 -0.9887 -2.9902  0.7236
 6168SOL    MW424440   1.848   1.618   5.021 -0.0189 -0.4762  0.7568
 6169SOL     OW24441   1.864   5.615   2.082 -0.2769  0.4732 -0.0808
 6169SOL    HW224442   1.795   5.672   2.047  0.0858  0.5791 -0.6394
 6169SOL    HW324443   1.928   5.609   2.012  1.6934  2.6873  1.3480
 6169SOL    MW424444   1.864   5.622   2.068  0.0309  0.7793  0.0341
 6170SOL     OW24445   4.476   0.029   4.304 -0.1385  0.5112 -0.0086
 6170SOL    HW224446   4.468  -0.063   4.280  2.2219  0.4903 -0.9820
 6170SOL    HW324447   4.480   0.029   4.399  3.8464 -0.9469  0.0179
 6170SOL    MW424448   4.476   0.017   4.313  0.6987  0.3160 -0.1335
 6171SOL     OW24449   3.983   2.816   6.039 -0.2813 -0.0508 -0.2279
 6171SOL    HW224450   4.024   2.780   5.961  1.5653  0.9706  0.2218
 6171SOL    HW324451   4.055   2.853   6.090 -1.6588  1.0101  1.0599
 6171SOL    MW424452   3.998   2.816   6.035 -0.2194  0.2239  0.0013
 6172SOL     OW24453   3.041   5.824   0.576  0.0173  0.4581  0.6464
 6172SOL    HW224454   3.087   5.908   0.583  0.1547  0.3812  0.6695
 6172SOL    HW324455   2.948   5.847   0.578 -0.0168  0.8725 -2.1062
 6172SOL    MW424456   3.035   5.838   0.578  0.0309  0.5027  0.2863
 6173SOL     OW24457   3.405   2.800   4.175  0.1618  0.1922  0.0906
 6173SOL    HW224458   3.355   2.855   4.235 -1.4738 -1.8836  0.7191
 6173SOL    HW324459   3.473   2.761   4.229 -0.1402 -0.2160  0.1786
 6173SOL    MW424460   3.408   2.802   4.190 -0.0939 -0.1356  0.1852
 6174SOL     OW24461   6.263   2.641   1.085  0.4871  0.3279 -0.0285
 6174SOL    HW224462   6.317   2.569   1.053  0.8671  0.2094  0.8440
 6174SOL    HW324463   6.179   2.600   1.108  0.6597  0.1748  0.3461
 6174SOL    MW424464   6.259   2.626   1.084  0.5600  0.2921  0.1360
 6175SOL     OW24465   3.446   4.250   4.999 -1.0154 -0.3321 -0.2250
 6175SOL    HW224466   3.450   4.329   4.945  0.9579 -0.3529 -0.1815
 6175SOL    HW324467   3.386   4.192   4.952  0.1470 -0.1093 -2.0866
 6175SOL    MW424468   3.439   4.253   4.986 -0.6017 -0.3054 -0.4649
 6176SOL     OW24469   5.448   3.096   5.687 -0.3197  0.0027  0.2036
 6176SOL    HW224470   5.382   3.028   5.674 -0.6078  0.3268 -0.0798
 6176SOL    HW324471   5.480   3.115   5.599  3.0005 -2.8786  0.6031
 6176SOL    MW424472   5.443   3.090   5.673  0.0803 -0.3347  0.2189
 6177SOL     OW24473   4.037   0.325   4.131 -0.7494 -0.4296 -0.4860
 6177SOL    HW224474   4.072   0.244   4.169 -2.4657 -0.5767  0.9038
 6177SOL    HW324475   4.026   0.384   4.206  0.3722  1.1105 -1.4649
 6177SOL    MW424476   4.040   0.322   4.146 -0.8278 -0.2458 -0.4318
 6178SOL     OW24477   4.086   2.724   5.801 -0.0253  0.8950 -0.3588
 6178SOL    HW224478   4.025   2.654   5.776  0.1601  1.2394 -1.9068
 6178SOL    HW324479   4.168   2.700   5.758  0.4944  1.2280  0.4381
 6178SOL    MW424480   4.089   2.712   5.792  0.0677  0.9843 -0.4579
 6179SOL     OW24481   3.956   1.365   2.473 -0.4862  0.3932  0.2254
 6179SOL    HW224482   3.987   1.432   2.413  0.3012  0.1769  0.3746
 6179SOL    HW324483   3.871   1.396   2.502 -0.4326  0.9859 -0.2382
 6179SOL    MW424484   3.949   1.378   2.469 -0.3752  0.4429  0.1839
 6180SOL     OW24485   0.123   0.556   3.633  0.1918 -0.1257  0.0392
 6180SOL    HW224486   0.047   0.611   3.651  0.0548 -0.4465  0.4574
 6180SOL    HW324487   0.086   0.471   3.609  0.3758  0.1546 -1.3486
 6180SOL    MW424488   0.108   0.552   3.632  0.1980 -0.1311 -0.0887
 6181SOL     OW24489   6.374   2.690   1.717 -0.3859  0.1990 -0.1917
 6181SOL    HW224490   6.385   2.707   1.811  0.6138  0.1751 -0.2971
 6181SOL    HW324491   6.426   2.757   1.674  1.3708 -1.4038 -0.6619
 6181SOL    MW424492   6.382   2.701   1.724 -0.0223 -0.0156 -0.2676
 6182SOL     OW24493   1.493   4.202   5.937 -0.3890  0.9675  0.7542
 6182SOL    HW224494   1.398   4.207   5.932 -0.3572  1.1172  0.2904
 6182SOL    HW324495   1.523   4.211   5.847 -0.0902 -2.7297  0.3047
 6182SOL    MW424496   1.484   4.204   5.925 -0.3454  0.4995  0.6337
 6183SOL     OW24497   4.297   1.746   2.305 -0.7399 -0.2731  0.8940
 6183SOL    HW224498   4.229   1.813   2.305 -0.5883 -0.0947  0.0109
 6183SOL    HW324499   4.310   1.726   2.212  0.4675 -0.2419  1.0408
 6183SOL    MW424500   4.290   1.752   2.292 -0.5606 -0.2454  0.7968
 6184SOL     OW24501   2.901   0.228   2.726  0.1824  0.2688 -0.2177
 6184SOL    HW224502   2.863   0.162   2.784 -1.1320  1.5618  0.4366
 6184SOL    HW324503   2.924   0.179   2.647 -1.8663 -0.7989 -0.2091
 6184SOL    MW424504   2.899   0.213   2.723 -0.2613  0.2985 -0.1303
 6185SOL     OW24505   1.848   3.404   4.379  0.2611  0.3933 -0.1950
 6185SOL    HW224506   1.771   3.438   4.425  1.1395  1.5536  0.4796
 6185SOL    HW324507   1.921   3.421   4.438  1.0985 -0.3239 -0.9866
 6185SOL    MW424508   1.847   3.411   4.393  0.4875  0.4518 -0.2105
 6186SOL     OW24509   5.668   0.451   2.830  0.7441  0.3294  0.5370
 6186SOL    HW224510   5.708   0.528   2.871  3.5892 -2.0275  2.5967
 6186SOL    HW324511   5.737   0.414   2.775 -1.2219  0.2449 -2.0812
 6186SOL    MW424512   5.682   0.457   2.828  0.8601  0.0073  0.4633
 6187SOL     OW24513   2.968   2.746   4.395  0.3552  0.5526  0.2275
 6187SOL    HW224514   3.039   2.693   4.358 -1.2677 -0.3722 -1.7540
 6187SOL    HW324515   2.975   2.830   4.350 -0.8952 -0.1730 -1.3974
 6187SOL    MW424516   2.978   2.750   4.384 -0.0239  0.3348 -0.2483
 6188SOL     OW24517   2.720   1.459   0.521 -0.2692  0.2711  0.0236
 6188SOL    HW224518   2.686   1.420   0.441 -0.1255  1.4930 -0.6660
 6188SOL    HW324519   2.743   1.549   0.496 -1.7894  1.2308  1.8436
 6188SOL    MW424520   2.719   1.466   0.507 -0.4508  0.5589  0.1728
 6189SOL     OW24521   5.630   3.599   4.676 -1.1696  0.6502 -0.3805
 6189SOL    HW224522   5.717   3.638   4.670  0.0919 -2.0108 -1.2350
 6189SOL    HW324523   5.591   3.638   4.754  1.5997  0.5348  1.1902
 6189SOL    MW424524   5.636   3.609   4.685 -0.6378  0.2839 -0.2860
 6190SOL     OW24525   3.829   5.684   5.745  0.3607 -0.3858  0.3411
 6190SOL    HW224526   3.923   5.702   5.743  0.2348  0.4437  1.1335
 6190SOL    HW324527   3.789   5.769   5.756 -0.5466 -0.6447 -0.8295
 6190SOL    MW424528   3.836   5.697   5.746  0.2244 -0.3105  0.2912
 6191SOL     OW24529   2.743   4.413   0.535 -0.4479 -0.4115 -0.2813
 6191SOL    HW224530   2.686   4.445   0.605 -0.4171 -0.6225 -0.1599
 6191SOL    HW324531   2.682   4.383   0.467 -0.4782 -0.2503 -0.3250
 6191SOL    MW424532   2.727   4.413   0.535 -0.4479 -0.4181 -0.2710
 6192SOL     OW24533   4.871   2.277   1.820  0.3090  0.1154  0.4412
 6192SOL    HW224534   4.906   2.195   1.853  0.8313 -0.2823 -1.0677
 6192SOL    HW324535   4.790   2.290   1.871  1.2001 -0.3140  2.0473
 6192SOL    MW424536   4.865   2.268   1.831  0.4955  0.0063  0.4540
 6193SOL     OW24537   4.527   4.611   2.257  0.8451 -0.0566 -0.3085
 6193SOL    HW224538   4.622   4.609   2.270  0.8699  1.8945  0.1994
 6193SOL    HW324539   4.515   4.653   2.172  0.4235 -1.9699 -1.2519
 6193SOL    MW424540   4.538   4.616   2.248  0.7928 -0.0516 -0.3660
 6194SOL     OW24541   6.011   4.321   1.986 -0.0177  0.0009 -0.2603
 6194SOL    HW224542   6.100   4.293   2.008  0.0900  0.2071 -0.4304
 6194SOL    HW324543   6.019   4.415   1.969 -0.2874  0.0400 -0.1743
 6194SOL    MW424544   6.024   4.330   1.987 -0.0391  0.0333 -0.2714
 6195SOL     OW24545   4.256   6.439   2.044  0.5135  0.3095  0.1919
 6195SOL    HW224546   4.237   6.367   2.104  0.2088  0.4355  0.2499
 6195SOL    HW324547   4.280   6.512   2.100  2.1628 -0.1182  0.0867
 6195SOL    MW424548   4.256   6.439   2.059  0.6909  0.2697  0.1856
 6196SOL     OW24549   0.871   3.710   0.311  0.0303 -0.0881 -0.7421
 6196SOL    HW224550   0.832   3.635   0.356 -1.4001  0.2108 -1.4449
 6196SOL    HW324551   0.807   3.780   0.319  0.2531  0.3297 -2.1817
 6196SOL    MW424552   0.858   3.709   0.318 -0.1290  0.0065 -1.0248
 6197SOL     OW24553   0.955   1.112   1.831 -0.0199 -0.1969 -0.6286
 6197SOL    HW224554   0.890   1.143   1.894 -0.0825 -1.2839 -0.1302
 6197SOL    HW324555   1.039   1.139   1.869  0.0586 -2.2578  0.8183
 6197SOL    MW424556   0.957   1.120   1.844 -0.0178 -0.6123 -0.3720
 6198SOL     OW24557   2.579   2.599   3.893  0.1861 -0.2301  0.0035
 6198SOL    HW224558   2.618   2.624   3.977 -1.2699  0.2576  0.5609
 6198SOL    HW324559   2.569   2.681   3.845 -1.5836 -0.1087  0.5157
 6198SOL    MW424560   2.583   2.613   3.898 -0.2395 -0.1498  0.1446
 6199SOL     OW24561   0.204   1.374   4.899  0.1178  0.4109  0.0935
 6199SOL    HW224562   0.118   1.399   4.867 -0.0667  2.0205  1.6719
 6199SOL    HW324563   0.206   1.405   4.990  1.1981 -2.4609  1.1607
 6199SOL    MW424564   0.193   1.382   4.907  0.2360  0.2444  0.4425
 6200SOL     OW24565   4.356   3.935   5.950  0.6423 -0.4720 -0.0365
 6200SOL    HW224566   4.335   3.952   5.858  1.9014 -0.5805 -0.3533
 6200SOL    HW324567   4.415   4.006   5.975 -0.3787  0.0641  0.9678
 6200SOL    MW424568   4.361   3.946   5.941  0.6737 -0.4156  0.0542
 6201SOL     OW24569   5.992   0.061   4.522 -0.5475  0.8643 -0.3009
 6201SOL    HW224570   5.907   0.105   4.525 -0.4217  1.0977 -0.0202
 6201SOL    HW324571   5.990  -0.000   4.596 -0.2925  1.2124 -0.0023
 6201SOL    MW424572   5.980   0.059   4.532 -0.4973  0.9411 -0.2245
 6202SOL     OW24573   4.685   5.926   1.637  0.2333  0.0102 -0.6351
 6202SOL    HW224574   4.615   5.862   1.653  1.4067 -0.6883  2.5089
 6202SOL    HW324575   4.754   5.900   1.698  1.8133  2.7676 -1.1236
 6202SOL    MW424576   4.685   5.914   1.647  0.5965  0.2819 -0.2847
 6203SOL     OW24577   0.111   1.215   1.853  0.1793  0.0419 -0.1397
 6203SOL    HW224578   0.184   1.240   1.910 -0.1324  0.3607  0.1199
 6203SOL    HW324579   0.044   1.282   1.869 -1.2842 -1.7314  1.6894
 6203SOL    MW424580   0.112   1.227   1.863 -0.0549 -0.1500  0.1359
 6204SOL     OW24581   2.145   0.138   1.845  0.0586 -0.1291 -0.2655
 6204SOL    HW224582   2.196   0.093   1.778  0.2088 -1.0665  0.4605
 6204SOL    HW324583   2.055   0.110   1.829 -0.0108  0.2305 -0.5243
 6204SOL    MW424584   2.140   0.128   1.834  0.0693 -0.2054 -0.2038
 6205SOL     OW24585   1.393   4.901   1.899  0.1749 -0.3912  0.0479
 6205SOL    HW224586   1.405   4.854   1.817  0.4216 -2.4090  1.1978
 6205SOL    HW324587   1.461   4.868   1.957 -1.0491 -0.2997  1.6103
 6205SOL    MW424588   1.403   4.891   1.896  0.0459 -0.6454  0.4058
 6206SOL     OW24589   1.942   0.203   1.503  0.6790  0.0714 -0.7518
 6206SOL    HW224590   1.925   0.289   1.464  1.6445  0.5901 -0.0980
 6206SOL    HW324591   2.038   0.200   1.513  0.5639 -0.5448  0.4123
 6206SOL    MW424592   1.953   0.214   1.500  0.7912  0.0585 -0.5119
 6207SOL     OW24593   3.278   3.927   3.283 -0.0817  0.3806 -0.1043
 6207SOL    HW224594   3.293   3.998   3.220 -0.2493 -0.4808 -1.1532
 6207SOL    HW324595   3.343   3.861   3.260 -1.3241 -0.7285 -0.6103
 6207SOL    MW424596   3.288   3.927   3.271 -0.2677  0.1206 -0.3095
 6208SOL     OW24597   4.424   5.498   1.206  0.3249 -0.3569  0.6301
 6208SOL    HW224598   4.468   5.422   1.168 -1.0267 -0.7544 -0.2250
 6208SOL    HW324599   4.491   5.543   1.257  1.5735 -1.2029 -0.2331
 6208SOL    MW424600   4.438   5.494   1.207  0.3113 -0.5210  0.4034
 6209SOL     OW24601   4.278   5.386   4.949 -0.1941  0.3371  0.2449
 6209SOL    HW224602   4.280   5.474   4.911  0.0978  0.4953  0.6309
 6209SOL    HW324603   4.221   5.337   4.890  0.9091  0.3655 -0.8904
 6209SOL    MW424604   4.271   5.391   4.936 -0.0101  0.3617  0.1460
 6210SOL     OW24605   0.891   1.753   4.414  0.3314  0.5826  0.2555
 6210SOL    HW224606   0.895   1.849   4.411  0.4698  0.5691 -0.0057
 6210SOL    HW324607   0.959   1.729   4.478  0.8926  0.6195 -0.3181
 6210SOL    MW424608   0.901   1.762   4.422  0.4237  0.5857  0.1453
 6211SOL     OW24609   3.554   1.249   4.532 -0.0757  0.0040 -0.4188
 6211SOL    HW224610   3.644   1.248   4.499  0.5740  1.5133  1.1436
 6211SOL    HW324611   3.515   1.327   4.495 -0.1509  0.3186  0.2987
 6211SOL    MW424612   3.561   1.259   4.523  0.0001  0.2446 -0.1180
 6212SOL     OW24613   3.291   0.683   5.794  0.0697 -0.0308  0.6812
 6212SOL    HW224614   3.333   0.721   5.871 -0.7725  0.4002  0.9292
 6212SOL    HW324615   3.224   0.746   5.769 -1.0153 -1.1172  0.7954
 6212SOL    MW424616   3.288   0.697   5.801 -0.1845 -0.1173  0.7290
 6213SOL     OW24617   3.158   5.324   5.455 -0.6881 -0.1574 -0.5197
 6213SOL    HW224618   3.143   5.255   5.520  0.3274  0.2764  0.2069
 6213SOL    HW324619   3.072   5.363   5.441 -0.9274 -0.2667  0.5675
 6213SOL    MW424620   3.145   5.320   5.462 -0.5857 -0.1146 -0.2804
 6214SOL     OW24621   3.647   1.015   0.833 -0.3246  0.0938 -0.5651
 6214SOL    HW224622   3.568   1.068   0.829 -1.4862 -1.4373  0.5966
 6214SOL    HW324623   3.716   1.070   0.796 -1.4814  2.2966  0.3901
 6214SOL    MW424624   3.646   1.029   0.828 -0.6304  0.1824 -0.2858
 6215SOL     OW24625   2.041   1.959   4.113 -0.3443  0.2766  0.1473
 6215SOL    HW224626   1.985   2.021   4.159 -1.0989  0.1035 -0.5182
 6215SOL    HW324627   1.982   1.911   4.054  0.6791  1.0354 -1.5889
 6215SOL    MW424628   2.026   1.961   4.111 -0.3089  0.3539 -0.1696
 6216SOL     OW24629   6.182   1.296   3.935  0.1892 -0.0373 -0.5806
 6216SOL    HW224630   6.261   1.243   3.925  0.3108 -0.2205  1.1047
 6216SOL    HW324631   6.139   1.261   4.013 -1.7404 -0.1411 -1.6368
 6216SOL    MW424632   6.187   1.285   3.944 -0.0493 -0.0752 -0.4976
 6217SOL     OW24633   3.987   3.417   1.764 -0.5332  0.4514 -1.0800
 6217SOL    HW224634   4.007   3.413   1.670  0.7211  0.2776 -0.8255
 6217SOL    HW324635   3.893   3.434   1.768 -0.6744  0.0604 -2.3641
 6217SOL    MW424636   3.977   3.419   1.752 -0.3863  0.3769 -1.2158
 6218SOL     OW24637   5.633   0.226   5.155  0.5913  0.1138 -0.1547
 6218SOL    HW224638   5.719   0.212   5.193 -0.5904  0.6536  3.0588
 6218SOL    HW324639   5.580   0.153   5.188 -0.8175  1.2643  0.2322
 6218SOL    MW424640   5.637   0.215   5.164  0.2495  0.3368  0.3204
 6219SOL     OW24641   0.211   3.839   2.217 -0.0437  0.2666 -0.1331
 6219SOL    HW224642   0.195   3.744   2.214  2.4721 -0.3544  1.6897
 6219SOL    HW324643   0.155   3.876   2.149  0.3394 -2.7596 -2.2985
 6219SOL    MW424644   0.202   3.831   2.208  0.3388 -0.2146 -0.1783
 6220SOL     OW24645   1.983   5.985   5.782 -0.0093  0.3490  0.2250
 6220SOL    HW224646   2.038   5.911   5.808  0.5618  0.4981 -0.5108
 6220SOL    HW324647   1.896   5.947   5.770  0.8860 -0.9747 -3.3143
 6220SOL    MW424648   1.979   5.970   5.784  0.1842  0.1940 -0.3391
 6221SOL     OW24649   3.740   2.875   6.362  0.4242  0.6674 -0.1470
 6221SOL    HW224650   3.730   2.839   6.274  0.1804  2.2052 -0.7902
 6221SOL    HW324651   3.737   2.970   6.349  1.2831  0.9453  1.4161
 6221SOL    MW424652   3.738   2.883   6.349  0.5054  0.9069 -0.0256
 6222SOL     OW24653   3.854   0.407   3.176 -0.1330  0.3054  0.0923
 6222SOL    HW224654   3.760   0.387   3.183 -0.3719  1.5028  0.6705
 6222SOL    HW324655   3.866   0.438   3.087 -0.2580  0.0383 -0.0190
 6222SOL    MW424656   3.843   0.409   3.165 -0.1810  0.4281  0.1539
 6223SOL     OW24657   0.403   4.138   3.041 -0.6922  0.2448 -0.3696
 6223SOL    HW224658   0.340   4.129   3.113 -1.8995  2.4877 -1.0496
 6223SOL    HW324659   0.488   4.119   3.081 -1.7550 -3.4774  0.4423
 6223SOL    MW424660   0.406   4.135   3.056 -0.9917  0.0496 -0.3522
 6224SOL     OW24661   4.585   0.020   5.723 -0.0716  0.1300  0.0921
 6224SOL    HW224662   4.576  -0.059   5.670  0.8022  0.4016 -0.4716
 6224SOL    HW324663   4.595  -0.012   5.813  0.7505 -0.4295 -0.1886
 6224SOL    MW424664   4.585   0.005   5.728  0.1521  0.0920 -0.0193
 6225SOL     OW24665   0.002   0.389   4.970 -0.1620 -0.2065 -0.2167
 6225SOL    HW224666  -0.016   0.384   5.064 -1.0133 -1.2424 -0.4116
 6225SOL    HW324667   0.003   0.482   4.951 -0.6317  0.0017  0.7106
 6225SOL    MW424668   0.000   0.400   4.980 -0.3363 -0.3157 -0.1200
 6226SOL     OW24669   5.137   3.234   3.686  0.2449 -0.1525 -0.2862
 6226SOL    HW224670   5.064   3.217   3.746  0.2060  0.3199 -0.1909
 6226SOL    HW324671   5.094   3.263   3.605  0.2864 -1.0205 -0.6313
 6226SOL    MW424672   5.122   3.236   3.683  0.2453 -0.2047 -0.3192
 6227SOL     OW24673   3.716   2.342   0.860 -0.5601  0.2595 -0.5184
 6227SOL    HW224674   3.806   2.310   0.866 -1.1101 -1.5551 -1.2690
 6227SOL    HW324675   3.677   2.320   0.944  0.1184  2.6663  0.5211
 6227SOL    MW424676   3.723   2.335   0.872 -0.5432  0.3376 -0.4803
 6228SOL     OW24677   5.506   0.185   3.160  0.0683  0.0341 -0.3573
 6228SOL    HW224678   5.509   0.229   3.075 -1.2709 -0.6307 -0.7906
 6228SOL    HW324679   5.500   0.256   3.224  1.4724  0.5495 -0.7817
 6228SOL    MW424680   5.505   0.200   3.157  0.0769  0.0144 -0.4704
 6229SOL     OW24681   3.499   5.216   5.960 -0.3277 -0.2187  0.4033
 6229SOL    HW224682   3.424   5.273   5.980  0.5906  1.6003 -1.0961
 6229SOL    HW324683   3.575   5.269   5.982  0.5800 -1.8643  1.4213
 6229SOL    MW424684   3.499   5.231   5.966 -0.0868 -0.1958  0.3398
 6230SOL     OW24685   4.770   5.680   4.378 -0.0418  0.1396 -0.0631
 6230SOL    HW224686   4.812   5.629   4.448 -0.2428 -0.2668 -0.2326
 6230SOL    HW324687   4.677   5.680   4.402 -0.0492  0.3792 -0.0952
 6230SOL    MW424688   4.763   5.673   4.390 -0.0693  0.1176 -0.0897
 6231SOL     OW24689   2.048   3.690   0.646 -0.6334 -0.1850  0.1140
 6231SOL    HW224690   2.017   3.675   0.735  2.3413  1.3474  1.5960
 6231SOL    HW324691   2.086   3.778   0.649 -1.1496  0.2592 -2.9374
 6231SOL    MW424692   2.049   3.700   0.658 -0.3090  0.0758 -0.0930
 6232SOL     OW24693   4.938   3.288   4.450  0.0257  0.0365  0.5057
 6232SOL    HW224694   4.958   3.375   4.418  0.0894 -0.5698 -1.2018
 6232SOL    HW324695   4.867   3.301   4.513  0.5309  1.3722  0.8253
 6232SOL    MW424696   4.931   3.301   4.454  0.1007  0.1327  0.3226
 6233SOL     OW24697   4.004   5.864   1.541  0.0264 -0.2607  0.1223
 6233SOL    HW224698   4.028   5.955   1.523 -0.7341 -0.1462 -0.3312
 6233SOL    HW324699   3.925   5.849   1.490 -2.6932  0.3026  3.7616
 6233SOL    MW424700   3.997   5.874   1.532 -0.4327 -0.1712  0.5426
 6234SOL     OW24701   0.395   5.443   5.433  0.1217 -0.0355  0.2507
 6234SOL    HW224702   0.315   5.422   5.480 -1.4790  1.8081 -1.4569
 6234SOL    HW324703   0.465   5.409   5.488 -1.8235 -2.3249  1.4888
 6234SOL    MW424704   0.394   5.436   5.446 -0.3462 -0.0943  0.1888
 6235SOL     OW24705   4.867   1.431   0.834  0.4732  0.3751 -0.1893
 6235SOL    HW224706   4.892   1.374   0.908  0.1166 -0.6650 -0.8465
 6235SOL    HW324707   4.782   1.397   0.806  0.2745  1.2207 -0.6397
 6235SOL    MW424708   4.859   1.419   0.840  0.4000  0.3495 -0.3354
 6236SOL     OW24709   1.989   1.294   5.621 -0.0186  0.1186 -0.1844
 6236SOL    HW224710   1.964   1.330   5.535  0.4481  0.3227 -0.2336
 6236SOL    HW324711   1.912   1.309   5.676 -1.0072 -1.5585 -1.0093
 6236SOL    MW424712   1.975   1.300   5.617 -0.0874 -0.0757 -0.2997
 6237SOL     OW24713   3.957   6.263   1.804  0.4115 -0.1306  0.4734
 6237SOL    HW224714   3.935   6.176   1.836  0.7422 -1.0088 -1.5151
 6237SOL    HW324715   4.038   6.251   1.754 -0.2772  0.9942 -1.0116
 6237SOL    MW424716   3.964   6.250   1.801  0.3642 -0.0980  0.0151
 6238SOL     OW24717   0.430   0.953   1.981 -0.8241 -0.5877  0.7690
 6238SOL    HW224718   0.478   0.881   2.021  0.4408 -0.9586 -1.2961
 6238SOL    HW324719   0.357   0.912   1.936  0.9434 -0.9231 -2.0084
 6238SOL    MW424720   0.427   0.938   1.981 -0.4240 -0.6809  0.1301
 6239SOL     OW24721   6.333   5.497   4.922 -0.3588 -0.0629 -0.4473
 6239SOL    HW224722   6.402   5.532   4.865 -1.2011  3.2440  0.3479
 6239SOL    HW324723   6.255   5.546   4.898 -1.7338 -1.5596  0.7689
 6239SOL    MW424724   6.332   5.508   4.911 -0.6514  0.1759 -0.1819
 6240SOL     OW24725   2.695   4.357   2.373  0.1110 -0.0829  0.0376
 6240SOL    HW224726   2.686   4.452   2.370 -0.9438 -0.1848 -0.2622
 6240SOL    HW324727   2.752   4.340   2.448  0.7926  0.8126 -0.2651
 6240SOL    MW424728   2.702   4.367   2.382  0.0617  0.0218 -0.0419
 6241SOL     OW24729   0.203   4.235   1.871  0.2075 -0.6341  0.0478
 6241SOL    HW224730   0.204   4.140   1.886 -0.5235 -0.5782  0.4914
 6241SOL    HW324731   0.169   4.272   1.952  0.5355  0.0185 -0.1080
 6241SOL    MW424732   0.199   4.227   1.883  0.1543 -0.5406  0.0857
 6242SOL     OW24733   4.983   5.007   4.043  0.3117 -0.0927  0.3782
 6242SOL    HW224734   5.019   5.000   4.131  0.2718  0.7286  0.4709
 6242SOL    HW324735   4.970   5.101   4.030  0.0550 -0.2271 -0.3978
 6242SOL    MW424736   4.986   5.019   4.053  0.2726 -0.0021  0.2880
 6243SOL     OW24737   4.570   5.411   0.344  0.0609 -0.2026  0.9345
 6243SOL    HW224738   4.475   5.416   0.334  0.2817  0.6589 -1.2731
 6243SOL    HW324739   4.591   5.479   0.407 -0.6376  0.8422  0.0691
 6243SOL    MW424740   4.560   5.420   0.351 -0.0021  0.0489  0.5290
 6244SOL     OW24741   4.170   3.840   3.592  0.1015 -0.5106 -0.2503
 6244SOL    HW224742   4.240   3.785   3.627 -0.9860 -0.5783  1.9150
 6244SOL    HW324743   4.214   3.921   3.565  1.1225 -0.8813  0.2788
 6244SOL    MW424744   4.185   3.844   3.593  0.0928 -0.5684  0.1052
 6245SOL     OW24745   3.714   1.954   3.542 -0.0004  0.0630  0.4853
 6245SOL    HW224746   3.680   2.027   3.490  0.3927 -0.4181 -0.4710
 6245SOL    HW324747   3.636   1.909   3.574 -0.3381 -1.0176 -1.6674
 6245SOL    MW424748   3.699   1.958   3.540  0.0069 -0.1430  0.0751
 6246SOL     OW24749   3.932   3.351   0.787 -0.3122 -0.0741 -0.5549
 6246SOL    HW224750   3.997   3.347   0.716  0.3226 -0.5694  0.0423
 6246SOL    HW324751   3.862   3.405   0.751  0.2777  0.2034 -1.3391
 6246SOL    MW424752   3.932   3.358   0.773 -0.1506 -0.1028 -0.5796
 6247SOL     OW24753   3.751   0.683   1.733 -0.2309  1.0695  0.1588
 6247SOL    HW224754   3.676   0.661   1.678 -0.5130  1.6602  0.3011
 6247SOL    HW324755   3.816   0.719   1.672  0.5740 -0.8898 -0.2133
 6247SOL    MW424756   3.750   0.685   1.717 -0.1619  0.8890  0.1285
 6248SOL     OW24757   1.424   1.355   1.781 -0.4604 -0.1995 -0.0585
 6248SOL    HW224758   1.435   1.331   1.689  0.9666 -1.0116  0.3000
 6248SOL    HW324759   1.494   1.308   1.827 -0.4940  1.0213  1.3053
 6248SOL    MW424760   1.434   1.345   1.775 -0.2766 -0.1455  0.1687
 6249SOL     OW24761   5.479   0.786   3.960  0.1757  0.4054  1.0846
 6249SOL    HW224762   5.461   0.801   4.053  0.0331 -0.1575  1.1530
 6249SOL    HW324763   5.433   0.705   3.940 -0.9891  1.2623  0.1643
 6249SOL    MW424764   5.470   0.777   3.970  0.0032  0.4442  0.9722
 6250SOL     OW24765   0.267   2.348   4.940  0.3823  0.1781 -0.9085
 6250SOL    HW224766   0.273   2.255   4.918 -0.2821  0.0920 -0.7691
 6250SOL    HW324767   0.199   2.382   4.881  0.9001  0.6668 -1.2386
 6250SOL    MW424768   0.259   2.340   4.929  0.3630  0.2312 -0.9336
 6251SOL     OW24769   4.506   5.520   2.415 -0.0221  0.0640 -0.0467
 6251SOL    HW224770   4.532   5.597   2.364  0.3648  0.7527  1.1518
 6251SOL    HW324771   4.588   5.485   2.449 -0.0792 -1.4975 -1.3729
 6251SOL    MW424772   4.520   5.525   2.413  0.0214 -0.0511 -0.0636
 6252SOL     OW24773   6.319   4.890   0.966 -0.3121  0.0666 -0.0516
 6252SOL    HW224774   6.304   4.871   0.874  0.6523 -0.8104 -0.0439
 6252SOL    HW324775   6.408   4.924   0.969  0.2931 -1.4879  0.7442
 6252SOL    MW424776   6.329   4.892   0.955 -0.1050 -0.2542  0.0544
 6253SOL     OW24777   1.931   6.128   5.256  0.4651 -0.3297 -0.1632
 6253SOL    HW224778   2.026   6.138   5.249  0.6122 -2.4070 -4.8153
 6253SOL    HW324779   1.895   6.206   5.212  0.3065 -1.4712 -2.2011
 6253SOL    MW424780   1.938   6.140   5.249  0.4636 -0.7544 -1.0458
 6254SOL     OW24781   1.098   5.603   6.042 -0.0615 -0.0434  0.3009
 6254SOL    HW224782   1.080   5.521   6.089  0.8391  0.8566  2.3518
 6254SOL    HW324783   1.081   5.672   6.106 -1.4444  1.4742 -1.5744
 6254SOL    MW424784   1.093   5.601   6.056 -0.1252  0.2756  0.3241
 6255SOL     OW24785   4.255   0.589   1.943  0.6710 -0.0707 -0.3256
 6255SOL    HW224786   4.303   0.657   1.992 -0.0341 -1.4419  2.4612
 6255SOL    HW324787   4.195   0.638   1.887 -0.2089  1.6780  1.9880
 6255SOL    MW424788   4.254   0.605   1.942  0.4619 -0.0209  0.3473
 6256SOL     OW24789   5.611   4.027   6.281  0.0788 -0.0863 -0.4072
 6256SOL    HW224790   5.663   4.020   6.201  0.9314 -0.5825  0.1753
 6256SOL    HW324791   5.559   4.107   6.269  1.1209  0.5355 -0.9202
 6256SOL    MW424792   5.611   4.037   6.269  0.3288 -0.0697 -0.3980
 6257SOL     OW24793   0.632   4.893   5.749 -0.3232  0.2834  0.5231
 6257SOL    HW224794   0.699   4.877   5.816 -1.4642 -1.3639  1.3467
 6257SOL    HW324795   0.557   4.927   5.798 -0.2917  1.6660 -0.3291
 6257SOL    MW424796   0.631   4.895   5.764 -0.4696  0.2485  0.5193
 6258SOL     OW24797   2.815   1.165   5.618 -0.5743  0.0592 -0.4800
 6258SOL    HW224798   2.768   1.082   5.611  0.0029 -0.3454  0.3103
 6258SOL    HW324799   2.781   1.218   5.546 -1.3215 -0.6751 -0.6817
 6258SOL    MW424800   2.804   1.161   5.608 -0.5967 -0.0910 -0.4023
 6259SOL     OW24801   2.316   2.194   0.971  0.1509 -0.2077 -0.1049
 6259SOL    HW224802   2.317   2.279   1.015 -0.1705  0.2727 -0.9792
 6259SOL    HW324803   2.408   2.174   0.955  0.1938  0.8114 -1.3832
 6259SOL    MW424804   2.328   2.203   0.974  0.1141 -0.0098 -0.3889
 6260SOL     OW24805   4.280   6.415   5.808  0.0000 -0.3184 -0.2547
 6260SOL    HW224806   4.336   6.338   5.815 -0.8551 -1.0204 -0.8925
 6260SOL    HW324807   4.259   6.422   5.715  2.3237  2.3935 -0.7129
 6260SOL    MW424808   4.284   6.406   5.797  0.1938 -0.0532 -0.3993
 6261SOL     OW24809   4.577   6.414   2.119 -0.0643  0.1437  0.1524
 6261SOL    HW224810   4.615   6.375   2.041 -2.3107 -0.9125 -0.5162
 6261SOL    HW324811   4.526   6.343   2.158 -2.4890  1.7604  0.1341
 6261SOL    MW424812   4.575   6.400   2.114 -0.6806  0.2177  0.0618
 6262SOL     OW24813   2.854   1.232   0.741  0.4278 -0.6522 -0.2295
 6262SOL    HW224814   2.857   1.172   0.666  2.2089 -0.7195 -0.1407
 6262SOL    HW324815   2.869   1.318   0.702 -1.2169 -0.3370 -0.2406
 6262SOL    MW424816   2.856   1.235   0.726  0.4458 -0.6195 -0.2192
 6263SOL     OW24817   2.782   2.278   0.400 -0.2469  0.0007  0.2770
 6263SOL    HW224818   2.813   2.287   0.310  2.7960  0.6039  1.2447
 6263SOL    HW324819   2.778   2.183   0.414 -1.3195 -0.1066 -0.6227
 6263SOL    MW424820   2.786   2.267   0.390  0.0131  0.0661  0.2860
 6264SOL     OW24821   2.867   5.788   2.315 -0.4738 -0.6136  0.2412
 6264SOL    HW224822   2.772   5.803   2.322 -0.2599  0.5693  0.9059
 6264SOL    HW324823   2.874   5.699   2.281 -1.8275 -0.6826  0.0538
 6264SOL    MW424824   2.855   5.778   2.311 -0.6242 -0.4666  0.3042
 6265SOL     OW24825   3.854   1.990   0.003 -0.5007  0.0405  0.5850
 6265SOL    HW224826   3.843   2.014   0.095 -3.1798  2.0648 -0.1482
 6265SOL    HW324827   3.808   1.907  -0.005  0.8079 -0.7887  1.2616
 6265SOL    MW424828   3.847   1.982   0.014 -0.6815  0.1982  0.5775
 6266SOL     OW24829   0.734   4.032   4.253 -0.0596  0.5548  0.5496
 6266SOL    HW224830   0.717   4.050   4.345  1.7512 -0.6999  1.1770
 6266SOL    HW324831   0.813   3.978   4.253 -0.4667 -0.1312 -1.7020
 6266SOL    MW424832   0.743   4.028   4.265  0.1256  0.2987  0.3353
 6267SOL     OW24833   2.244   1.752   2.376 -0.0775  0.0619 -0.4849
 6267SOL    HW224834   2.275   1.809   2.305  3.7519  1.5963  2.1187
 6267SOL    HW324835   2.277   1.665   2.353  2.6532  0.8607  0.0588
 6267SOL    MW424836   2.252   1.748   2.363  0.7881  0.3697 -0.0697
 6268SOL     OW24837   1.437   5.675   4.972 -0.3738 -0.5319 -0.2200
 6268SOL    HW224838   1.363   5.661   5.031 -0.9804 -0.2813 -0.9018
 6268SOL    HW324839   1.475   5.758   4.999 -0.5395 -0.5048 -0.0694
 6268SOL    MW424840   1.433   5.684   4.983 -0.4757 -0.4953 -0.2901
 6269SOL     OW24841   3.191   5.133   4.288 -0.4989  0.1502 -0.1244
 6269SOL    HW224842   3.249   5.149   4.214 -2.8180  3.2626 -1.5229
 6269SOL    HW324843   3.249   5.136   4.365  1.5350  0.1229 -1.5665
 6269SOL    MW424844   3.206   5.136   4.288 -0.5365  0.5573 -0.4992
 6270SOL     OW24845   3.696   0.390   0.533 -0.1688 -0.5885  0.5779
 6270SOL    HW224846   3.610   0.391   0.491 -0.4247 -2.3237  0.9495
 6270SOL    HW324847   3.680   0.347   0.617  1.0507 -0.8777  0.6744
 6270SOL    MW424848   3.683   0.384   0.539 -0.0416 -0.8556  0.6396
 6271SOL     OW24849   3.240   2.375   5.206  0.2953 -0.1536 -0.1986
 6271SOL    HW224850   3.253   2.465   5.177  1.2701  1.1062  3.4914
 6271SOL    HW324851   3.329   2.341   5.219 -0.0684 -1.1990 -0.3613
 6271SOL    MW424852   3.254   2.382   5.204  0.3760 -0.1253  0.2668
 6272SOL     OW24853   0.996   4.213   5.134  0.2296  0.6026 -0.2411
 6272SOL    HW224854   0.987   4.200   5.039  2.2988  1.5744 -0.6303
 6272SOL    HW324855   0.985   4.307   5.146 -0.6152  0.4107  0.5910
 6272SOL    MW424856   0.993   4.224   5.123  0.3912  0.7055 -0.1826
 6273SOL     OW24857   0.210   2.955   3.381 -0.3158  0.5224  0.0160
 6273SOL    HW224858   0.208   2.910   3.296 -1.7810  2.3849 -1.0002
 6273SOL    HW324859   0.154   2.902   3.437  0.0183 -0.2910 -0.3922
 6273SOL    MW424860   0.202   2.942   3.377 -0.4650  0.6609 -0.1719
 6274SOL     OW24861   4.434   0.577   5.586  0.0805 -0.0306 -0.3430
 6274SOL    HW224862   4.456   0.625   5.507  1.8070 -0.2684 -0.0421
 6274SOL    HW324863   4.489   0.499   5.583 -1.1387 -0.9501  0.2177
 6274SOL    MW424864   4.444   0.573   5.575  0.1475 -0.1833 -0.2293
 6275SOL     OW24865   5.644   6.191   3.660 -0.1212  0.1746 -0.5197
 6275SOL    HW224866   5.592   6.124   3.705  0.0223  0.9461  0.8335
 6275SOL    HW324867   5.579   6.249   3.620 -0.2515 -0.4093 -1.1755
 6275SOL    MW424868   5.629   6.190   3.660 -0.1194  0.1993 -0.4277
 6276SOL     OW24869   4.726   2.654   1.676 -0.2842  0.0396  0.0576
 6276SOL    HW224870   4.801   2.699   1.636  1.6466 -0.2915  3.0101
 6276SOL    HW324871   4.670   2.725   1.707 -1.2954  0.2901 -2.1275
 6276SOL    MW424872   4.729   2.669   1.674 -0.1629  0.0289  0.1588
 6277SOL     OW24873   3.495   5.209   0.464  0.5057 -0.1499  0.0829
 6277SOL    HW224874   3.510   5.298   0.432  1.1911 -0.2907 -0.0040
 6277SOL    HW324875   3.406   5.211   0.498  0.3948  0.4823 -0.2195
 6277SOL    MW424876   3.486   5.221   0.464  0.5815 -0.0851  0.0315
 6278SOL     OW24877   5.727   1.092   4.554  0.5718 -0.3167 -0.3761
 6278SOL    HW224878   5.803   1.057   4.600 -0.3706 -1.5391  0.3085
 6278SOL    HW324879   5.670   1.127   4.623  0.7268  1.0727 -0.9211
 6278SOL    MW424880   5.729   1.092   4.569  0.4679 -0.2947 -0.3577
 6279SOL     OW24881   0.644   1.224   2.272  0.5447  0.8683 -0.1150
 6279SOL    HW224882   0.557   1.195   2.246  0.1003  2.6346 -0.7224
 6279SOL    HW324883   0.678   1.153   2.327 -2.2549  1.1902  2.2743
 6279SOL    MW424884   0.637   1.211   2.276  0.1167  1.1438  0.1201
 6280SOL     OW24885   3.262   5.247   1.705 -0.2394  0.0749  0.2570
 6280SOL    HW224886   3.310   5.329   1.713 -0.8514  0.3673  1.0860
 6280SOL    HW324887   3.327   5.183   1.678  0.2149  0.8580 -0.5365
 6280SOL    MW424888   3.277   5.249   1.703 -0.2602  0.2168  0.2617
 6281SOL     OW24889   3.629   2.481   5.907 -0.2278  0.2584  0.1148
 6281SOL    HW224890   3.567   2.474   5.980 -0.5531 -0.8289 -0.2371
 6281SOL    HW324891   3.649   2.390   5.884  1.1393  0.5832 -0.0983
 6281SOL    MW424892   3.623   2.468   5.913 -0.0904  0.1578  0.0403
 6282SOL     OW24893   2.491   4.375   0.363 -0.2790 -0.2743  0.2183
 6282SOL    HW224894   2.489   4.457   0.313  0.8853  0.0858  0.7066
 6282SOL    HW324895   2.528   4.311   0.303 -0.5704 -0.2832  0.0474
 6282SOL    MW424896   2.496   4.378   0.349 -0.1638 -0.2280  0.2602
 6283SOL     OW24897   3.215   0.589   2.770 -0.3028 -0.1170 -0.0465
 6283SOL    HW224898   3.286   0.525   2.774 -0.1103  0.1428  1.1312
 6283SOL    HW324899   3.237   0.646   2.696  0.9213  0.1819  0.5230
 6283SOL    MW424900   3.227   0.588   2.761 -0.1159 -0.0433  0.1840
 6284SOL     OW24901   2.730   1.789   1.529  0.2044 -0.4047  0.7313
 6284SOL    HW224902   2.759   1.710   1.484 -2.7471 -2.1098  1.5679
 6284SOL    HW324903   2.687   1.758   1.608 -1.4630  1.9902  0.9006
 6284SOL    MW424904   2.728   1.775   1.533 -0.4050 -0.3137  0.8640
 6285SOL     OW24905   0.712   6.094   5.786 -0.0688 -0.6471  0.0748
 6285SOL    HW224906   0.677   6.084   5.875 -1.2978 -1.4790 -0.4690
 6285SOL    HW324907   0.649   6.049   5.731 -0.0633  1.0577 -1.3933
 6285SOL    MW424908   0.699   6.086   5.791 -0.2303 -0.5319 -0.1906
 6286SOL     OW24909   2.224   5.575   2.597  0.3692  0.1089 -0.1168
 6286SOL    HW224910   2.176   5.657   2.589  1.7093  1.1803  1.8637
 6286SOL    HW324911   2.157   5.507   2.590 -0.8568  1.3748 -1.1694
 6286SOL    MW424912   2.209   5.577   2.595  0.3842  0.4173  0.0056
 6287SOL     OW24913   3.872   2.287   2.350  0.2003  0.1139 -0.3534
 6287SOL    HW224914   3.809   2.345   2.308  0.8766  0.9982 -0.1709
 6287SOL    HW324915   3.844   2.199   2.324  0.0937  0.5796 -1.9586
 6287SOL    MW424916   3.860   2.283   2.341  0.2755  0.2920 -0.5411
 6288SOL     OW24917   0.594   1.500   5.639 -0.2015  0.0770  0.0028
 6288SOL    HW224918   0.643   1.580   5.619 -0.6473  0.8686  1.9097
 6288SOL    HW324919   0.658   1.429   5.627  0.3654  0.7395 -1.0931
 6288SOL    MW424920   0.609   1.501   5.635 -0.1855  0.2688  0.1098
 6289SOL     OW24921   5.453   0.752   0.485  0.0611  0.0160 -0.2341
 6289SOL    HW224922   5.389   0.775   0.553  0.3929 -0.8676  0.4034
 6289SOL    HW324923   5.418   0.789   0.405 -1.9904 -1.6233 -0.1856
 6289SOL    MW424924   5.440   0.760   0.484 -0.1658 -0.3169 -0.1436
 6290SOL     OW24925   4.288   5.859   3.505  0.2349  0.0489  0.5927
 6290SOL    HW224926   4.302   5.948   3.474  0.8133  0.6092  2.3420
 6290SOL    HW324927   4.288   5.805   3.426 -0.0602  1.5769 -0.4852
 6290SOL    MW424928   4.290   5.864   3.490  0.2723  0.3244  0.6813
 6291SOL     OW24929   5.311   0.402   1.016  0.1516 -0.1665 -1.0108
 6291SOL    HW224930   5.342   0.440   0.933  1.2301 -0.3105 -0.6965
 6291SOL    HW324931   5.390   0.397   1.070 -0.9348  2.2251  0.9639
 6291SOL    MW424932   5.326   0.406   1.012  0.1505  0.1301 -0.7088
 6292SOL     OW24933   2.076   0.151   4.322  0.0309 -0.3891  0.4272
 6292SOL    HW224934   2.161   0.170   4.362  0.3556  0.0304 -0.4361
 6292SOL    HW324935   2.048   0.068   4.362  0.0074  0.3595  2.0332
 6292SOL    MW424936   2.084   0.142   4.333  0.0706 -0.2350  0.5252
 6293SOL     OW24937   0.467   5.668   1.445  0.3706 -0.1906 -0.9994
 6293SOL    HW224938   0.484   5.756   1.412  1.1960  0.0915  0.1050
 6293SOL    HW324939   0.372   5.663   1.453  0.2401  0.1743 -2.1701
 6293SOL    MW424940   0.457   5.679   1.442  0.4623 -0.1052 -1.0082
 6294SOL     OW24941   3.425   1.709   3.857  0.2115 -0.1031 -0.4328
 6294SOL    HW224942   3.377   1.627   3.844 -0.5160  0.3104 -0.4352
 6294SOL    HW324943   3.401   1.762   3.781 -1.5976  1.1691  0.9444
 6294SOL    MW424944   3.415   1.705   3.845 -0.1232  0.1193 -0.2514
 6295SOL     OW24945   2.218   5.517   5.844 -0.0812  0.7091  0.2885
 6295SOL    HW224946   2.248   5.513   5.754  2.6347  1.8351  1.0412
 6295SOL    HW324947   2.205   5.610   5.862 -0.9789  0.4759  0.9705
 6295SOL    MW424948   2.220   5.529   5.835  0.1587  0.8269  0.4778
 6296SOL     OW24949   2.516   6.250   2.260  0.4794  0.3440  0.0065
 6296SOL    HW224950   2.482   6.254   2.349  0.0319  0.2210 -0.1554
 6296SOL    HW324951   2.503   6.339   2.226  1.1430  0.5364  0.2370
 6296SOL    MW424952   2.509   6.262   2.267  0.5079  0.3531  0.0155
 6297SOL     OW24953   4.828   2.737   5.921 -0.5577 -0.2173 -0.2122
 6297SOL    HW224954   4.864   2.651   5.938  1.4803  0.8926  1.6302
 6297SOL    HW324955   4.895   2.782   5.870 -0.7760  0.8134  0.3688
 6297SOL    MW424956   4.841   2.732   5.917 -0.3176  0.0651  0.1075
 6298SOL     OW24957   4.576   3.347   4.389 -0.5022 -0.1220  0.4774
 6298SOL    HW224958   4.536   3.404   4.323 -1.0937 -0.8169  0.2182
 6298SOL    HW324959   4.564   3.258   4.354  3.1025 -0.3073 -0.6317
 6298SOL    MW424960   4.569   3.343   4.376 -0.1047 -0.2381  0.2969
 6299SOL     OW24961   6.168   5.957   0.356  0.0061  0.7047 -0.6766
 6299SOL    HW224962   6.131   5.997   0.278 -1.4937 -2.0966 -1.5651
 6299SOL    HW324963   6.097   5.905   0.393  0.7998  1.5631  2.3792
 6299SOL    MW424964   6.154   5.955   0.351 -0.0871  0.4484 -0.3907
 6300SOL     OW24965   4.333   0.612   0.760 -0.2940  0.2099 -0.1178
 6300SOL    HW224966   4.263   0.656   0.712 -0.2629  1.9132  1.2892
 6300SOL    HW324967   4.397   0.681   0.777  1.9441 -1.3384 -1.6211
 6300SOL    MW424968   4.333   0.627   0.756  0.0054  0.2303 -0.1305
 6301SOL     OW24969   1.341   5.721   2.999 -0.4409  0.4785  0.1925
 6301SOL    HW224970   1.359   5.792   3.061 -2.0292  1.7438 -0.7111
 6301SOL    HW324971   1.248   5.704   3.009 -0.8220  0.9144 -1.9842
 6301SOL    MW424972   1.331   5.728   3.008 -0.7008  0.7029 -0.2139
 6302SOL     OW24973   5.799   1.434   1.186  0.5635 -0.3237 -0.2658
 6302SOL    HW224974   5.763   1.429   1.098  2.1293 -0.3170 -0.9494
 6302SOL    HW324975   5.723   1.435   1.244 -0.5460  1.1242 -1.6682
 6302SOL    MW424976   5.784   1.433   1.182  0.6237 -0.1318 -0.5410
 6303SOL     OW24977   2.866   4.639   5.273  0.0936 -0.2086  0.4563
 6303SOL    HW224978   2.774   4.666   5.264 -0.0457 -0.9305 -0.4413
 6303SOL    HW324979   2.900   4.639   5.183  0.9213 -0.1316  0.7607
 6303SOL    MW424980   2.858   4.642   5.260  0.1844 -0.2937  0.3780
 6304SOL     OW24981   4.845   4.817   4.473  0.3064  0.1240  0.3847
 6304SOL    HW224982   4.859   4.864   4.555 -0.7220 -0.8553  1.1338
 6304SOL    HW324983   4.914   4.750   4.471  0.4228  0.2434  0.3663
 6304SOL    MW424984   4.856   4.814   4.484  0.1861  0.0106  0.4811
 6305SOL     OW24985   5.032   5.181   1.197  0.1056  0.1350 -0.5272
 6305SOL    HW224986   5.094   5.243   1.160 -1.5121  0.7310 -2.3889
 6305SOL    HW324987   5.067   5.095   1.174  0.6121  0.4461 -0.9245
 6305SOL    MW424988   5.044   5.178   1.189 -0.0410  0.2547 -0.8252
 6306SOL     OW24989   6.252   2.694   2.533 -0.2897 -0.1010  0.4022
 6306SOL    HW224990   6.190   2.753   2.576  0.7806  0.2046  1.5972
 6306SOL    HW324991   6.245   2.716   2.440 -1.1086  0.7488  0.6439
 6306SOL    MW424992   6.243   2.705   2.527 -0.2565  0.0515  0.5917
 6307SOL     OW24993   2.614   1.355   0.273 -0.1076 -0.3363  0.4906
 6307SOL    HW224994   2.648   1.266   0.265 -0.8760 -0.5113 -1.2211
 6307SOL    HW324995   2.675   1.408   0.221 -0.9869 -0.2567 -0.4798
 6307SOL    MW424996   2.627   1.350   0.265 -0.3250 -0.3489  0.1367
 6308SOL     OW24997   0.905   3.833   5.983  1.0484  0.6614  0.2070
 6308SOL    HW224998   0.929   3.911   5.934  1.2606  0.8573  0.6201
 6308SOL    HW324999   0.810   3.828   5.974  0.7032  2.3396  2.1644
 6308SOL    MW425000   0.896   3.843   5.975  1.0308  0.9086  0.5198
 6309SOL     OW25001   4.253   1.081   1.612  0.4871 -0.2225  0.1777
 6309SOL    HW225002   4.239   1.095   1.706  0.3386  0.8940  0.0017
 6309SOL    HW325003   4.275   0.989   1.605  2.8138  0.1525  1.5826
 6309SOL    MW425004   4.254   1.071   1.623  0.7745 -0.0257  0.3398
 6310SOL     OW25005   6.343   5.578   4.302 -0.7136 -0.4184  0.4119
 6310SOL    HW225006   6.289   5.529   4.240 -1.3556 -2.5836  2.5137
 6310SOL    HW325007   6.320   5.669   4.288 -1.3756 -0.8940 -1.9659
 6310SOL    MW425008   6.333   5.583   4.292 -0.8856 -0.7668  0.3755
 6311SOL     OW25009   4.590   6.102   1.311 -0.4410  0.1260  0.1319
 6311SOL    HW225010   4.551   6.016   1.293 -0.2936  0.1451 -0.2652
 6311SOL    HW325011   4.677   6.098   1.273 -0.9820  0.9927 -1.2763
 6311SOL    MW425012   4.596   6.090   1.304 -0.4929  0.2429 -0.1063
 6312SOL     OW25013   1.352   4.386   2.219 -0.4089  0.4370  0.1981
 6312SOL    HW225014   1.369   4.292   2.222 -0.2354  0.4662  0.1273
 6312SOL    HW325015   1.264   4.393   2.182 -0.3692  0.3077  0.0765
 6312SOL    MW425016   1.343   4.375   2.214 -0.3808  0.4238  0.1727
 6313SOL     OW25017   5.988   0.983   0.571  0.0918 -0.1553  0.0648
 6313SOL    HW225018   6.031   1.044   0.631 -0.0445 -0.8136  0.8488
 6313SOL    HW325019   5.901   1.020   0.558 -0.0905 -0.3091  0.7673
 6313SOL    MW425020   5.982   0.996   0.578  0.0498 -0.2624  0.2610
 6314SOL     OW25021   0.625   2.204   0.687  0.1697 -0.0350  0.2722
 6314SOL    HW225022   0.572   2.224   0.611 -0.6057 -0.3488  0.7166
 6314SOL    HW325023   0.562   2.187   0.757  0.8267 -1.0909  0.6440
 6314SOL    MW425024   0.610   2.204   0.686  0.1541 -0.2157  0.3799
 6315SOL     OW25025   0.088   6.309   2.827  0.0397 -0.2039 -0.2363
 6315SOL    HW225026   0.132   6.390   2.801  0.5727 -0.5587 -0.4475
 6315SOL    HW325027   0.158   6.245   2.836 -0.2533 -0.3850  0.9876
 6315SOL    MW425028   0.103   6.312   2.825  0.0714 -0.2746 -0.1027
 6316SOL     OW25029   4.698   5.176   2.148  0.3082  0.0894 -0.4993
 6316SOL    HW225030   4.632   5.120   2.189 -0.9226  1.1856 -0.8923
 6316SOL    HW325031   4.767   5.117   2.122 -0.4202 -1.0808  0.1370
 6316SOL    MW425032   4.698   5.161   2.150  0.0497  0.0796 -0.4672
 6317SOL     OW25033   5.873   2.770   0.426 -0.2350 -0.2909 -0.1559
 6317SOL    HW225034   5.826   2.794   0.506 -0.2989 -2.2953  0.4545
 6317SOL    HW325035   5.811   2.714   0.378  0.5885 -0.8765 -0.5589
 6317SOL    MW425036   5.858   2.766   0.430 -0.1348 -0.6326 -0.1285
 6318SOL     OW25037   1.599   3.717   0.101 -0.0515 -0.2437  0.2087
 6318SOL    HW225038   1.606   3.644   0.040  0.5431 -0.9480  1.0797
 6318SOL    HW325039   1.678   3.710   0.155 -0.6356  0.2493  1.1548
 6318SOL    MW425040   1.611   3.706   0.100 -0.0501 -0.2716  0.4484
 6319SOL     OW25041   1.052   0.887   3.502 -0.0715 -0.3764 -0.4143
 6319SOL    HW225042   1.128   0.867   3.448 -0.4643 -1.9091 -0.4562
 6319SOL    HW325043   1.075   0.967   3.548  1.1516 -0.2556 -1.1942
 6319SOL    MW425044   1.065   0.895   3.501  0.0381 -0.5627 -0.5227
 6320SOL     OW25045   5.314   6.200   2.233  0.4715 -0.1954  0.0141
 6320SOL    HW225046   5.376   6.145   2.184  1.4283 -0.7994  1.8357
 6320SOL    HW325047   5.259   6.138   2.281 -0.9163  0.3721 -0.7672
 6320SOL    MW425048   5.315   6.185   2.233  0.4147 -0.2002  0.1514
 6321SOL     OW25049   4.580   4.485   1.076 -0.2835  0.3997  0.5301
 6321SOL    HW225050   4.557   4.460   1.166 -4.5948 -1.4452 -0.8179
 6321SOL    HW325051   4.507   4.540   1.048  0.5030  0.2078 -2.1123
 6321SOL    MW425052   4.567   4.489   1.084 -0.7486  0.1310  0.0036
 6322SOL     OW25053   5.220   0.031   0.212  0.2718  0.0717  0.2735
 6322SOL    HW225054   5.294   0.078   0.250 -0.1561 -0.1702  1.4468
 6322SOL    HW325055   5.238  -0.061   0.231 -0.7476  0.0701  1.4009
 6322SOL    MW425056   5.232   0.025   0.220  0.0808  0.0396  0.5771
 6323SOL     OW25057   2.017   4.802   0.808  0.0835  0.7709  0.1395
 6323SOL    HW225058   2.049   4.877   0.858  2.1161 -0.9769  1.6789
 6323SOL    HW325059   2.097   4.763   0.771 -0.9305 -0.4779 -0.8213
 6323SOL    MW425060   2.032   4.807   0.810  0.2179  0.3755  0.2159
 6324SOL     OW25061   0.130   1.211   5.348  0.2915  0.1010 -0.3495
 6324SOL    HW225062   0.128   1.183   5.440 -0.5450 -0.1393 -0.4282
 6324SOL    HW325063   0.200   1.159   5.308 -1.2294 -1.9949 -0.5051
 6324SOL    MW425064   0.139   1.200   5.355 -0.0195 -0.2073 -0.3804
 6325SOL     OW25065   1.064   3.060   2.485 -0.1435 -0.7299  0.2808
 6325SOL    HW225066   1.033   2.970   2.494  0.2254 -0.8257  0.6194
 6325SOL    HW325067   1.120   3.058   2.407 -0.2514 -0.7589  0.2034
 6325SOL    MW425068   1.067   3.048   2.476 -0.1090 -0.7463  0.3153
 6326SOL     OW25069   3.790   1.297   3.298  0.2186 -0.5615 -0.0585
 6326SOL    HW225070   3.778   1.358   3.226 -0.0615  0.1875  0.6062
 6326SOL    HW325071   3.706   1.253   3.307  0.4487 -1.1149 -0.5979
 6326SOL    MW425072   3.777   1.299   3.290  0.2120 -0.5357 -0.0420
 6327SOL     OW25073   3.691   0.906   2.154 -0.5751  0.2105 -0.1128
 6327SOL    HW225074   3.671   0.913   2.061 -1.5832  0.3092  0.1032
 6327SOL    HW325075   3.770   0.853   2.157 -1.5826 -1.4283 -0.9336
 6327SOL    MW425076   3.699   0.900   2.142 -0.8411  0.0073 -0.1926
 6328SOL     OW25077   0.237   4.186   5.657 -0.1207  0.0218  0.1307
 6328SOL    HW225078   0.258   4.275   5.627  0.4487  0.0495  0.5834
 6328SOL    HW325079   0.319   4.137   5.644 -0.1205 -0.1769  0.8353
 6328SOL    MW425080   0.251   4.191   5.651 -0.0456 -0.0008  0.2834
 6329SOL     OW25081   5.523   2.598   3.339  0.8370 -0.4734 -0.6747
 6329SOL    HW225082   5.497   2.552   3.260 -0.1665 -1.9294  0.4648
 6329SOL    HW325083   5.463   2.567   3.406  1.7583  0.6180  0.7070
 6329SOL    MW425084   5.512   2.588   3.337  0.8262 -0.5215 -0.3421
 6330SOL     OW25085   2.301   3.103   1.663 -0.1660 -0.6469 -0.0215
 6330SOL    HW225086   2.396   3.095   1.666 -0.0408  0.2412 -1.0041
 6330SOL    HW325087   2.278   3.073   1.574 -0.8310 -1.0902  0.2920
 6330SOL    MW425088   2.310   3.098   1.651 -0.2372 -0.5882 -0.1098
 6331SOL     OW25089   2.649   1.006   4.693 -0.0764  0.2487 -0.2370
 6331SOL    HW225090   2.728   0.964   4.729 -0.9821 -1.4729 -0.1462
 6331SOL    HW325091   2.620   1.066   4.761 -0.3529 -1.1231  0.9189
 6331SOL    MW425092   2.656   1.008   4.707 -0.2324 -0.1595 -0.0725
 6332SOL     OW25093   4.329   2.498   4.958 -0.5801  0.6934  0.0319
 6332SOL    HW225094   4.412   2.450   4.959 -0.4120  0.9866  0.0708
 6332SOL    HW325095   4.338   2.562   4.887 -0.6901  0.8742  0.1799
 6332SOL    MW425096   4.341   2.500   4.948 -0.5724  0.7559  0.0566
 6333SOL     OW25097   5.369   5.734   4.738  0.1125 -0.2863 -0.5736
 6333SOL    HW225098   5.363   5.695   4.825 -1.8364  0.0754 -0.5049
 6333SOL    HW325099   5.418   5.670   4.686  0.5570 -0.8906  0.5617
 6333SOL    MW425100   5.374   5.721   4.742 -0.0860 -0.3183 -0.4147
 6334SOL     OW25101   1.011   2.090   3.822  0.5595  0.1251 -0.0171
 6334SOL    HW225102   1.018   2.051   3.735  0.5304  2.3833 -1.1127
 6334SOL    HW325103   1.081   2.155   3.825 -0.1657  0.8952  1.1951
 6334SOL    MW425104   1.021   2.093   3.811  0.4600  0.5246 -0.0017
 6335SOL     OW25105   0.817   5.520   5.626  0.6793 -0.0082  0.7716
 6335SOL    HW225106   0.758   5.444   5.624  1.1696 -0.3896  0.7161
 6335SOL    HW325107   0.762   5.591   5.658 -0.1496 -0.0641 -0.4385
 6335SOL    MW425108   0.802   5.519   5.630  0.6347 -0.0659  0.6046
 6336SOL     OW25109   3.950   0.818   3.668 -0.2169  0.0416  0.0090
 6336SOL    HW225110   3.885   0.883   3.642 -0.4742  0.3275  1.2766
 6336SOL    HW325111   3.900   0.750   3.712  0.3231  0.3379  1.1255
 6336SOL    MW425112   3.935   0.818   3.671 -0.1796  0.1184  0.3236
 6337SOL     OW25113   4.528   1.345   4.078  0.0236  0.7717  0.2476
 6337SOL    HW225114   4.511   1.257   4.114  0.0824  1.2012  1.3629
 6337SOL    HW325115   4.478   1.404   4.135 -2.0883  1.2914 -2.0032
 6337SOL    MW425116   4.519   1.341   4.091 -0.2473  0.8969  0.0978
 6338SOL     OW25117   4.589   1.649   3.104 -0.1474 -0.0912  0.6687
 6338SOL    HW225118   4.626   1.587   3.041 -2.4208 -0.4464 -0.4014
 6338SOL    HW325119   4.535   1.595   3.161  0.1521  0.5484  1.5738
 6338SOL    MW425120   4.587   1.633   3.103 -0.4079 -0.0537  0.6469
 6339SOL     OW25121   3.183   1.596   3.750  0.1827 -0.2375  0.0506
 6339SOL    HW225122   3.123   1.660   3.788 -1.1075 -0.3053 -1.7436
 6339SOL    HW325123   3.168   1.516   3.801 -1.3258 -0.2657 -0.3890
 6339SOL    MW425124   3.173   1.594   3.762 -0.1865 -0.2502 -0.2441
 6340SOL     OW25125   2.615   0.773   2.671  0.0894  0.1741  0.4481
 6340SOL    HW225126   2.577   0.691   2.639 -0.9167  0.0572  1.8519
 6340SOL    HW325127   2.682   0.795   2.606 -1.8590  0.0109 -1.7467
 6340SOL    MW425128   2.619   0.765   2.658 -0.3004  0.1372  0.3437
 6341SOL     OW25129   2.029   0.133   6.225  0.2914 -0.2669  0.5693
 6341SOL    HW225130   1.980   0.056   6.197 -0.8703  1.1598 -1.5790
 6341SOL    HW325131   1.998   0.149   6.315 -0.2412 -1.6572  0.6600
 6341SOL    MW425132   2.018   0.125   6.233  0.0678 -0.2621  0.2978
 6342SOL     OW25133   1.435   0.715   1.540  0.4865 -0.2500  0.8307
 6342SOL    HW225134   1.344   0.714   1.571 -0.5570  0.2190 -1.9069
 6342SOL    HW325135   1.475   0.788   1.585 -0.2590 -0.9012  2.6291
 6342SOL    MW425136   1.428   0.724   1.550  0.2505 -0.2740  0.7068
 6343SOL     OW25137   2.276   3.370   0.383  0.0912  0.1707  0.1695
 6343SOL    HW225138   2.235   3.456   0.369  0.8050  0.2992 -1.3176
 6343SOL    HW325139   2.350   3.389   0.441 -0.3984  0.3652  0.7443
 6343SOL    MW425140   2.280   3.384   0.389  0.1208  0.2133  0.0492
 6344SOL     OW25141   1.381   4.875   3.327 -0.0709  0.4492 -0.1463
 6344SOL    HW225142   1.327   4.816   3.380  0.2572 -0.5732 -0.9337
 6344SOL    HW325143   1.437   4.817   3.276  1.0402  1.4757 -0.1313
 6344SOL    MW425144   1.381   4.860   3.328  0.1190  0.4497 -0.2482
 6345SOL     OW25145   2.945   0.141   5.444 -0.2918  0.2382 -0.6314
 6345SOL    HW225146   3.026   0.110   5.486  0.1398 -0.2082 -1.7570
 6345SOL    HW325147   2.892   0.174   5.517 -0.0461 -1.5300  0.4341
 6345SOL    MW425148   2.949   0.141   5.459 -0.2024 -0.0540 -0.6393
 6346SOL     OW25149   1.657   6.134   0.889 -0.2437  0.0898  0.4388
 6346SOL    HW225150   1.695   6.112   0.974 -0.1917  0.6848  0.5752
 6346SOL    HW325151   1.706   6.080   0.826  1.2854  1.2900  0.5366
 6346SOL    MW425152   1.668   6.124   0.892 -0.0351  0.3266  0.4697
 6347SOL     OW25153   5.550   5.663   2.430 -0.0628 -0.4410 -0.5881
 6347SOL    HW225154   5.488   5.676   2.503  2.3908  1.1970  1.3592
 6347SOL    HW325155   5.574   5.570   2.436  0.7202 -0.1581  1.2836
 6347SOL    MW425156   5.545   5.652   2.440  0.3643 -0.1875 -0.0842
 6348SOL     OW25157   1.709   4.972   1.481 -0.2947 -0.0714  0.1992
 6348SOL    HW225158   1.745   5.051   1.521 -2.0227  0.0371  1.6677
 6348SOL    HW325159   1.640   5.004   1.423 -2.2807 -0.4770  2.1829
 6348SOL    MW425160   1.704   4.986   1.479 -0.7847 -0.1106  0.6547
 6349SOL     OW25161   6.291   0.065   1.968 -0.7227  0.5562  0.0641
 6349SOL    HW225162   6.226   0.130   1.941 -1.5756 -0.5223 -0.5828
 6349SOL    HW325163   6.337   0.042   1.887 -1.0486 -0.2853  0.1027
 6349SOL    MW425164   6.289   0.070   1.954 -0.8782  0.3029 -0.0162
 6350SOL     OW25165   3.222   0.391   0.214 -0.5180  0.1444 -0.1531
 6350SOL    HW225166   3.193   0.308   0.250 -0.2134 -0.1978 -0.6852
 6350SOL    HW325167   3.277   0.429   0.283  0.2129 -0.5910 -0.3108
 6350SOL    MW425168   3.225   0.385   0.228 -0.3814  0.0022 -0.2441
 6351SOL     OW25169   4.847   0.777   4.328  0.5670  0.2770 -0.3201
 6351SOL    HW225170   4.753   0.771   4.342  0.2794  2.9991 -0.5451
 6351SOL    HW325171   4.886   0.751   4.411 -0.4005 -0.0942  0.0307
 6351SOL    MW425172   4.840   0.773   4.341  0.4014  0.5872 -0.3035
 6352SOL     OW25173   2.333   4.289   3.269  0.1713  0.0480 -0.0301
 6352SOL    HW225174   2.292   4.289   3.356  0.3405 -2.8921  0.1731
 6352SOL    HW325175   2.259   4.284   3.208  0.0787  1.2246 -0.0268
 6352SOL    MW425176   2.318   4.288   3.272  0.1814 -0.1847 -0.0028
 6353SOL     OW25177   3.439   1.852   3.604 -0.1381  0.0143 -0.3451
 6353SOL    HW225178   3.394   1.801   3.536 -0.2136  0.8109 -0.9028
 6353SOL    HW325179   3.393   1.936   3.605  0.0593  0.1183  0.4899
 6353SOL    MW425180   3.427   1.856   3.595 -0.1220  0.1331 -0.3085
 6354SOL     OW25181   1.472   3.533   3.383 -0.1345  0.8545  0.1366
 6354SOL    HW225182   1.534   3.503   3.450  0.5335 -0.0883 -0.8899
 6354SOL    HW325183   1.407   3.464   3.378  1.4670 -0.6022 -2.3098
 6354SOL    MW425184   1.472   3.520   3.391  0.1649  0.5380 -0.3216
 6355SOL     OW25185   1.612   2.343   3.687  0.3934  0.5882  0.3158
 6355SOL    HW225186   1.633   2.396   3.610  3.0770 -1.6290 -0.6686
 6355SOL    HW325187   1.695   2.336   3.734 -0.5167 -0.4803  1.8651
 6355SOL    MW425188   1.626   2.349   3.683  0.6274  0.1547  0.3904
 6356SOL     OW25189   2.276   0.562   5.151 -0.0345 -0.3225  0.0366
 6356SOL    HW225190   2.193   0.599   5.182 -0.0820 -1.4550  1.3367
 6356SOL    HW325191   2.319   0.529   5.229  2.6522  2.0016 -0.2740
 6356SOL    MW425192   2.271   0.563   5.165  0.3137 -0.1653  0.1671
 6357SOL     OW25193   2.034   0.747   6.105 -0.2431 -0.1475 -0.4371
 6357SOL    HW225194   1.944   0.728   6.132 -1.3098  0.6792 -3.0334
 6357SOL    HW325195   2.055   0.829   6.148 -1.6762  0.8848 -1.5939
 6357SOL    MW425196   2.025   0.755   6.114 -0.5729  0.0977 -0.9322
 6358SOL     OW25197   4.644   1.696   1.464  0.2211  0.1499 -0.5069
 6358SOL    HW225198   4.554   1.681   1.435 -1.2264  0.6931  3.1382
 6358SOL    HW325199   4.664   1.786   1.438 -1.6467  1.2144  1.4545
 6358SOL    MW425200   4.635   1.706   1.457 -0.2163  0.3620  0.2328
 6359SOL     OW25201   3.493   4.096   3.496  0.4797  0.0640  0.1147
 6359SOL    HW225202   3.407   4.128   3.467  0.7951  0.4252 -0.4481
 6359SOL    HW325203   3.506   4.015   3.447  0.8076  0.4340 -0.4345
 6359SOL    MW425204   3.483   4.090   3.485  0.5646  0.1604 -0.0320
 6360SOL     OW25205   5.759   2.604   3.623  0.3706 -0.1874  0.1314
 6360SOL    HW225206   5.765   2.570   3.534  0.2852 -0.3123  0.1724
 6360SOL    HW325207   5.819   2.549   3.674  0.4824 -0.0629  0.1365
 6360SOL    MW425208   5.768   2.592   3.618  0.3741 -0.1874  0.1375
 6361SOL     OW25209   5.442   2.410   0.723  0.2714 -0.3292  0.4341
 6361SOL    HW225210   5.455   2.319   0.695 -0.7707 -0.2043 -0.5564
 6361SOL    HW325211   5.411   2.455   0.645 -2.2737  0.1612  1.6065
 6361SOL    MW425212   5.439   2.404   0.709 -0.2018 -0.2480  0.4581
 6362SOL     OW25213   1.241   3.927   1.067  0.8482 -0.3506  0.1945
 6362SOL    HW225214   1.334   3.936   1.049  1.0340  2.3294  1.9206
 6362SOL    HW325215   1.234   3.933   1.162 -1.0661 -1.0561  0.1559
 6362SOL    MW425216   1.252   3.929   1.077  0.6202 -0.0901  0.4171
 6363SOL     OW25217   5.722   0.109   6.358  0.0991 -0.1085  0.0533
 6363SOL    HW225218   5.707   0.034   6.416 -1.0163  0.7199  0.8729
 6363SOL    HW325219   5.810   0.139   6.379 -0.0230 -0.2621  0.8032
 6363SOL    MW425220   5.731   0.103   6.368 -0.0641 -0.0195  0.2604
 6364SOL     OW25221   2.359   2.276   3.102  0.0947  0.1326  0.2443
 6364SOL    HW225222   2.362   2.229   3.019  1.7093  0.3559  0.1421
 6364SOL    HW325223   2.357   2.207   3.168 -3.2585 -0.1019  0.0994
 6364SOL    MW425224   2.359   2.261   3.100 -0.1347  0.1311  0.2117
 6365SOL     OW25225   0.546   6.153   0.377  0.6999 -0.3189 -0.1883
 6365SOL    HW225226   0.600   6.231   0.385 -0.0620  0.0512  2.2549
 6365SOL    HW325227   0.468   6.183   0.331 -0.6444  1.1049  2.7095
 6365SOL    MW425228   0.543   6.168   0.372  0.4220 -0.0822  0.5164
 6366SOL     OW25229   0.509   5.042   2.267  0.2461  0.4475  0.3268
 6366SOL    HW225230   0.473   5.046   2.356  0.2024  0.2253  0.3186
 6366SOL    HW325231   0.552   4.957   2.263  2.9755  1.6680  1.1973
 6366SOL    MW425232   0.510   5.032   2.278  0.6004  0.5792  0.4406
 6367SOL     OW25233   4.908   2.428   1.249  0.6775 -0.3299  0.5793
 6367SOL    HW225234   4.900   2.356   1.311 -1.0306 -2.1896 -1.6167
 6367SOL    HW325235   4.997   2.420   1.214  1.1580 -0.1350  1.7007
 6367SOL    MW425236   4.919   2.417   1.252  0.5155 -0.5496  0.4375
 6368SOL     OW25237   6.080   5.011   0.193  0.2086  0.0302 -0.5229
 6368SOL    HW225238   6.073   4.977   0.104 -1.1946 -1.0690 -0.0386
 6368SOL    HW325239   6.146   5.080   0.188 -0.2919  0.4156 -2.5275
 6368SOL    MW425240   6.088   5.015   0.181 -0.0426 -0.0639 -0.7235
 6369SOL     OW25241   0.274   1.084   4.976  0.6482 -0.6481  0.3724
 6369SOL    HW225242   0.247   1.172   4.949  1.7916 -0.0985  0.9466
 6369SOL    HW325243   0.317   1.097   5.061  2.7491 -1.4509 -0.5112
 6369SOL    MW425244   0.276   1.097   4.984  1.0762 -0.6815  0.3316
 6370SOL     OW25245   1.322   1.637   4.778 -0.0344  0.1854  0.2525
 6370SOL    HW225246   1.383   1.706   4.805  1.3728 -0.4433 -1.1367
 6370SOL    HW325247   1.300   1.591   4.860  0.2021  1.3335  0.9771
 6370SOL    MW425248   1.327   1.640   4.792  0.1825  0.2539  0.1648
 6371SOL     OW25249   1.119   1.518   1.667 -0.0159 -0.1057 -0.5153
 6371SOL    HW225250   1.104   1.498   1.759  2.4201 -0.2843 -0.1064
 6371SOL    HW325251   1.122   1.433   1.624  1.4224 -0.1937 -0.2870
 6371SOL    MW425252   1.117   1.504   1.673  0.4953 -0.1409 -0.4313
 6372SOL     OW25253   4.887   6.116   4.790 -0.1074  0.3524  0.0149
 6372SOL    HW225254   4.913   6.154   4.706 -1.6946 -0.1148 -0.7408
 6372SOL    HW325255   4.953   6.050   4.808  0.5850  0.8691 -0.5638
 6372SOL    MW425256   4.899   6.112   4.781 -0.2254  0.3589 -0.1611
 6373SOL     OW25257   2.159   1.552   2.987  0.2288 -0.1331 -0.0246
 6373SOL    HW225258   2.157   1.458   3.002  0.5656 -0.1061  0.1966
 6373SOL    HW325259   2.068   1.580   2.998 -0.0044 -0.5464 -0.8547
 6373SOL    MW425260   2.147   1.543   2.991  0.2425 -0.1841 -0.1049
 6374SOL     OW25261   4.998   5.510   4.083 -0.3605  0.0082  0.1565
 6374SOL    HW225262   5.047   5.479   4.158 -1.0156 -0.5329  0.3708
 6374SOL    HW325263   4.915   5.541   4.119 -0.8122 -0.5512 -0.3683
 6374SOL    MW425264   4.993   5.510   4.097 -0.5066 -0.1370  0.1156
 6375SOL     OW25265   4.984   1.586   3.657  0.1042  0.4514 -0.1801
 6375SOL    HW225266   4.975   1.678   3.683  0.1832 -0.0370  1.7547
 6375SOL    HW325267   4.895   1.556   3.644 -0.1372  0.1411  1.8573
 6375SOL    MW425268   4.971   1.594   3.659  0.0828  0.3460  0.3440
 6376SOL     OW25269   6.335   2.990   4.344  0.5942 -0.2783  0.1111
 6376SOL    HW225270   6.304   2.901   4.325 -0.0037  0.0344 -0.4604
 6376SOL    HW325271   6.410   3.003   4.287 -0.0542 -0.0069 -0.7086
 6376SOL    MW425272   6.341   2.980   4.334  0.4298 -0.2013 -0.0725
 6377SOL     OW25273   4.022   0.605   2.951 -0.3220  0.0612 -0.0989
 6377SOL    HW225274   3.927   0.602   2.943 -0.4948  1.8447  0.6973
 6377SOL    HW325275   4.044   0.698   2.943  1.7330 -0.5425 -3.7737
 6377SOL    MW425276   4.012   0.617   2.949 -0.0736  0.2169 -0.4787
 6378SOL     OW25277   3.723   4.209   0.514 -0.0367 -0.0587  0.8347
 6378SOL    HW225278   3.752   4.293   0.547 -1.9291  0.9700  0.0410
 6378SOL    HW325279   3.634   4.224   0.483 -0.0613 -2.0976 -0.3146
 6378SOL    MW425280   3.715   4.222   0.514 -0.2896 -0.1920  0.5783
 6379SOL     OW25281   5.319   6.431   0.642  0.0367  0.4814 -0.4973
 6379SOL    HW225282   5.364   6.516   0.639 -0.9817  1.0759  0.4032
 6379SOL    HW325283   5.243   6.446   0.698 -0.8193 -0.7240 -1.2871
 6379SOL    MW425284   5.315   6.445   0.649 -0.2106  0.4008 -0.4827
 6380SOL     OW25285   1.177   1.994   1.237 -0.1411 -0.6135 -0.2590
 6380SOL    HW225286   1.108   1.960   1.293  0.6301 -0.1833  0.9917
 6380SOL    HW325287   1.201   1.920   1.181  0.3686 -1.6689  1.2804
 6380SOL    MW425288   1.171   1.980   1.237  0.0279 -0.6960  0.1091
 6381SOL     OW25289   1.432   4.532   4.052 -0.3606 -0.4651  0.2179
 6381SOL    HW225290   1.409   4.499   3.965  1.4137 -3.4804  0.7366
 6381SOL    HW325291   1.353   4.518   4.105 -0.5129 -1.4424 -0.2506
 6381SOL    MW425292   1.418   4.525   4.048 -0.1466 -0.9919  0.2245
 6382SOL     OW25293   5.031   1.230   2.622 -0.7776 -0.1733  0.3514
 6382SOL    HW225294   5.001   1.253   2.710 -0.7185 -0.4222  0.4386
 6382SOL    HW325295   5.126   1.228   2.628 -0.7672 -0.0432  0.2430
 6382SOL    MW425296   5.039   1.233   2.634 -0.7684 -0.1890  0.3486
 6383SOL     OW25297   6.198   5.357   1.530  0.0587  0.1678  0.0897
 6383SOL    HW225298   6.261   5.395   1.470 -0.3135  1.5456  0.5253
 6383SOL    HW325299   6.247   5.290   1.578  0.1093 -1.7131 -2.3898
 6383SOL    MW425300   6.213   5.353   1.529  0.0163  0.1014 -0.1800
 6384SOL     OW25301   1.512   1.180   1.034  0.0866  0.0255 -0.6864
 6384SOL    HW225302   1.433   1.161   0.983  0.4996  1.8058 -2.1288
 6384SOL    HW325303   1.500   1.271   1.064  1.2915  0.1117 -0.3924
 6384SOL    MW425304   1.500   1.190   1.031  0.3001  0.2718 -0.8379
 6385SOL     OW25305   1.434   2.558   6.289 -0.7270 -0.0249 -0.5555
 6385SOL    HW225306   1.433   2.617   6.214  0.7557  1.4747  0.5272
 6385SOL    HW325307   1.352   2.509   6.282 -1.7598  1.7599 -1.8166
 6385SOL    MW425308   1.423   2.559   6.278 -0.6676  0.4084 -0.5790
 6386SOL     OW25309   0.368   1.223   2.943  0.0431  0.2285  0.1022
 6386SOL    HW225310   0.292   1.279   2.931  0.4387  0.9054  0.6763
 6386SOL    HW325311   0.334   1.144   2.986 -0.6126 -0.2469 -1.2396
 6386SOL    MW425312   0.354   1.220   2.947  0.0088  0.2551  0.0009
 6387SOL     OW25313   4.016   5.767   5.374 -0.2504  0.0598 -0.1441
 6387SOL    HW225314   3.977   5.749   5.289  1.8315 -4.7751 -0.4438
 6387SOL    HW325315   4.110   5.769   5.358  0.1470  0.1960  1.8551
 6387SOL    MW425316   4.023   5.765   5.361  0.0767 -0.5601  0.0801
 6388SOL     OW25317   0.072   2.701   4.900 -0.2391 -0.2002 -0.3208
 6388SOL    HW225318   0.133   2.710   4.972 -0.1977  1.8364 -0.5505
 6388SOL    HW325319   0.004   2.768   4.917 -0.4551  0.0290 -1.9044
 6388SOL    MW425320   0.071   2.711   4.911 -0.2621  0.0987 -0.5600
 6389SOL     OW25321   5.152   4.262   5.906 -0.1244  0.7578 -0.0545
 6389SOL    HW225322   5.177   4.249   5.814  0.0799  0.8131 -0.0073
 6389SOL    HW325323   5.223   4.221   5.956 -0.8817 -0.4368  0.0703
 6389SOL    MW425324   5.165   4.255   5.900 -0.1974  0.6075 -0.0318
 6390SOL     OW25325   3.814   5.583   2.203  0.4345  0.5722  0.1652
 6390SOL    HW225326   3.854   5.634   2.273  1.0976  0.6654 -0.2723
 6390SOL    HW325327   3.889   5.548   2.154  0.0529 -1.6959  1.0734
 6390SOL    MW425328   3.830   5.585   2.206  0.4716  0.2853  0.2273
 6391SOL     OW25329   2.413   1.806   0.661  0.1735 -0.4667  0.2011
 6391SOL    HW225330   2.468   1.773   0.732 -0.3422 -0.3855  0.6410
 6391SOL    HW325331   2.447   1.763   0.582  1.1756 -0.0515  0.3881
 6391SOL    MW425332   2.425   1.796   0.660  0.2377 -0.4012  0.2838
 6392SOL     OW25333   4.280   5.968   2.827  0.2167  0.1810 -0.5550
 6392SOL    HW225334   4.338   5.893   2.844  1.0284  0.5059 -1.7544
 6392SOL    HW325335   4.278   5.976   2.731 -1.5783  0.3873 -0.5356
 6392SOL    MW425336   4.288   5.959   2.816  0.0870  0.2511 -0.7107
 6393SOL     OW25337   2.973   4.679   2.425  0.4530  0.2670  0.1118
 6393SOL    HW225338   2.881   4.669   2.401  0.3185 -0.2989  0.8543
 6393SOL    HW325339   3.008   4.738   2.358 -0.7338  1.4949  0.5134
 6393SOL    MW425340   2.965   4.686   2.413  0.2787  0.3543  0.2628
 6394SOL     OW25341   0.567   5.341   4.541  0.2574  0.3249 -0.0551
 6394SOL    HW225342   0.578   5.272   4.476  1.2909  0.1562  0.2778
 6394SOL    HW325343   0.565   5.296   4.625  0.0367  0.6259  0.1035
 6394SOL    MW425344   0.568   5.326   4.544  0.3646  0.3424  0.0097
 6395SOL     OW25345   2.241   0.091   1.579 -0.0099  0.3676  0.1286
 6395SOL    HW225346   2.336   0.091   1.566 -0.1303 -0.0997 -0.8139
 6395SOL    HW325347   2.207   0.033   1.511 -1.2831  3.3370 -2.0353
 6395SOL    MW425348   2.249   0.084   1.568 -0.1937  0.6977 -0.2813
 6396SOL     OW25349   6.343   2.181   0.146  0.5836 -0.3341 -0.2747
 6396SOL    HW225350   6.390   2.264   0.143  0.0060 -0.0090 -0.5358
 6396SOL    HW325351   6.251   2.205   0.136  0.0249 -0.6544  2.8984
 6396SOL    MW425352   6.337   2.195   0.145  0.4337 -0.3335  0.1095
 6397SOL     OW25353   3.320   3.275   4.584  0.3058  0.8334 -0.0829
 6397SOL    HW225354   3.261   3.323   4.525 -0.3430 -0.1984 -0.2915
 6397SOL    HW325355   3.394   3.251   4.528 -0.0231  0.3842 -0.3303
 6397SOL    MW425356   3.322   3.278   4.569  0.1768  0.6380 -0.1431
 6398SOL     OW25357   5.306   1.167   1.514 -0.0469  0.4954 -0.2736
 6398SOL    HW225358   5.323   1.121   1.432  0.8913  0.2603  0.0430
 6398SOL    HW325359   5.262   1.248   1.488  0.2526  0.4302 -1.0036
 6398SOL    MW425360   5.302   1.171   1.500  0.1164  0.4558 -0.3281
 6399SOL     OW25361   5.920   4.461   4.564 -0.6393  0.2326 -0.0453
 6399SOL    HW225362   5.834   4.471   4.605 -0.4392 -2.0256  1.0616
 6399SOL    HW325363   5.983   4.468   4.636 -0.1067 -1.0084 -0.3608
 6399SOL    MW425364   5.917   4.464   4.579 -0.5426 -0.2291  0.0591
 6400SOL     OW25365   5.556   4.316   2.208 -0.0959  0.0148 -0.5381
 6400SOL    HW225366   5.651   4.325   2.199 -0.1458  1.0875 -0.1006
 6400SOL    HW325367   5.527   4.286   2.122  0.5110  0.8538 -1.0492
 6400SOL    MW425368   5.565   4.313   2.195 -0.0224  0.2670 -0.5478
 6401SOL     OW25369   4.800   5.678   3.333 -0.0953  0.5995  0.0422
 6401SOL    HW225370   4.786   5.609   3.398 -1.7768 -0.6403 -1.5432
 6401SOL    HW325371   4.895   5.688   3.329  0.2772 -2.1148 -0.0983
 6401SOL    MW425372   4.811   5.670   3.341 -0.2680  0.0778 -0.1855
 6402SOL     OW25373   3.806   0.466   2.197 -0.4699 -0.6711  0.3687
 6402SOL    HW225374   3.714   0.473   2.224  0.0870 -1.7217  2.7973
 6402SOL    HW325375   3.802   0.442   2.104 -2.6198 -0.0079  0.2322
 6402SOL    MW425376   3.793   0.464   2.188 -0.6801 -0.7222  0.6711
 6403SOL     OW25377   3.843   4.354   0.912  0.0491 -0.3035 -0.3244
 6403SOL    HW225378   3.863   4.446   0.896  1.2432 -0.2607  1.1645
 6403SOL    HW325379   3.820   4.351   1.005  0.0076 -1.5005 -0.3608
 6403SOL    MW425380   3.843   4.366   0.922  0.2012 -0.4557 -0.1328
 6404SOL     OW25381   0.728   3.124   4.267  0.2429 -0.5760  0.0699
 6404SOL    HW225382   0.659   3.119   4.200  0.2250 -2.1165  0.1687
 6404SOL    HW325383   0.682   3.154   4.346 -0.4238 -1.9358  0.2313
 6404SOL    MW425384   0.713   3.128   4.269  0.1525 -0.9587  0.1043
 6405SOL     OW25385   3.946   3.699   3.514  0.0474 -0.2439 -0.4777
 6405SOL    HW225386   3.977   3.609   3.514 -0.2313 -0.3844 -2.2788
 6405SOL    HW325387   4.016   3.749   3.555  1.0959 -1.0214 -1.2887
 6405SOL    MW425388   3.959   3.694   3.519  0.1489 -0.3650 -0.8224
 6406SOL     OW25389   0.546   2.503   5.180  0.1587  0.5973 -0.4007
 6406SOL    HW225390   0.605   2.434   5.150  0.2740  0.1283  0.8214
 6406SOL    HW325391   0.592   2.585   5.161  0.0980  0.3465 -1.7087
 6406SOL    MW425392   0.560   2.505   5.174  0.1659  0.5023 -0.4120
 6407SOL     OW25393   3.678   2.365   4.758  0.3791 -0.3574  0.0128
 6407SOL    HW225394   3.740   2.317   4.812  0.9007 -0.4808 -0.6813
 6407SOL    HW325395   3.705   2.457   4.765  0.2612 -0.3352  0.1943
 6407SOL    MW425396   3.690   2.371   4.766  0.4324 -0.3707 -0.0548
 6408SOL     OW25397   3.060   0.722   1.707 -0.6485  0.1639 -0.1116
 6408SOL    HW225398   3.084   0.708   1.798 -1.1191 -0.0794 -0.0214
 6408SOL    HW325399   3.009   0.644   1.683 -0.1771  0.0301 -0.7053
 6408SOL    MW425400   3.056   0.710   1.716 -0.6484  0.1142 -0.1780
 6409SOL     OW25401   4.791   4.533   3.919 -0.1980 -0.5987  0.0638
 6409SOL    HW225402   4.749   4.461   3.967 -1.4729  0.7867  1.1044
 6409SOL    HW325403   4.817   4.595   3.987 -0.5650  0.6488 -0.8985
 6409SOL    MW425404   4.789   4.531   3.934 -0.4146 -0.2513  0.0741
 6410SOL     OW25405   5.543   0.552   5.340  0.4020  1.0618  0.0819
 6410SOL    HW225406   5.578   0.479   5.392 -0.0681  0.6203 -0.2206
 6410SOL    HW325407   5.511   0.511   5.260 -2.4568  1.1832  1.0620
 6410SOL    MW425408   5.544   0.537   5.337 -0.0372  1.0196  0.1713
 6411SOL     OW25409   0.584   5.109   2.974  0.1671 -0.0449  0.0142
 6411SOL    HW225410   0.578   5.055   3.052 -0.7672 -0.1160 -0.0910
 6411SOL    HW325411   0.521   5.070   2.913  2.2140 -1.1557 -1.5121
 6411SOL    MW425412   0.575   5.097   2.976  0.3139 -0.2008 -0.2011
 6412SOL     OW25413   1.559   4.699   1.099  0.0860 -0.2034 -0.1463
 6412SOL    HW225414   1.527   4.710   1.009  0.6200 -2.3229 -0.6631
 6412SOL    HW325415   1.636   4.756   1.105  0.8765 -1.0576 -1.5412
 6412SOL    MW425416   1.565   4.708   1.088  0.2607 -0.5958 -0.3985
 6413SOL     OW25417   5.085   2.912   2.277  0.9322  0.6976 -0.0337
 6413SOL    HW225418   5.002   2.870   2.301  0.9877 -0.5640 -1.9116
 6413SOL    HW325419   5.062   3.005   2.270 -0.6531  0.2546 -1.5960
 6413SOL    MW425420   5.071   2.919   2.279  0.7303  0.4727 -0.4876
 6414SOL     OW25421   2.758   1.600   6.275  0.8566 -0.1318  0.2193
 6414SOL    HW225422   2.796   1.685   6.295  0.3198  0.1543  0.0370
 6414SOL    HW325423   2.710   1.614   6.194  1.5042 -0.8333 -0.3039
 6414SOL    MW425424   2.757   1.613   6.267  0.8712 -0.1866  0.1262
 6415SOL     OW25425   2.986   5.881   1.476 -0.0559 -0.3518 -0.0558
 6415SOL    HW225426   3.023   5.965   1.448 -1.5625  0.6183  0.6698
 6415SOL    HW325427   3.026   5.865   1.561  0.1764 -0.3217 -0.1587
 6415SOL    MW425428   2.996   5.890   1.483 -0.2240 -0.2199  0.0263
 6416SOL     OW25429   6.173   2.342   2.294 -0.0344 -0.0408 -0.4627
 6416SOL    HW225430   6.078   2.334   2.301  0.0161 -2.3594 -1.5027
 6416SOL    HW325431   6.202   2.358   2.384 -1.4103  1.5305 -0.2367
 6416SOL    MW425432   6.164   2.343   2.307 -0.2093 -0.1394 -0.5701
 6417SOL     OW25433   3.337   4.752   3.573  0.2924  0.1845 -0.9402
 6417SOL    HW225434   3.310   4.840   3.601 -0.4436  0.4354 -2.3619
 6417SOL    HW325435   3.265   4.721   3.519  0.5278 -1.3383 -0.4132
 6417SOL    MW425436   3.324   4.760   3.570  0.2264  0.0167 -1.0583
 6418SOL     OW25437   4.974   4.732   1.650  0.6808  0.1660  0.5706
 6418SOL    HW225438   4.905   4.703   1.710  1.7300 -0.9283  1.3210
 6418SOL    HW325439   4.986   4.825   1.670  0.0600  0.1468  1.0820
 6418SOL    MW425440   4.966   4.740   1.661  0.7374  0.0191  0.7371
 6419SOL     OW25441   1.810   5.547   5.639 -0.0456 -0.4537 -0.2905
 6419SOL    HW225442   1.854   5.583   5.562  1.4330 -1.7026 -0.0620
 6419SOL    HW325443   1.757   5.475   5.605  0.4510 -0.8780 -0.1677
 6419SOL    MW425444   1.809   5.542   5.625  0.2150 -0.6744 -0.2442
 6420SOL     OW25445  -0.035   3.928   3.768 -0.1029 -0.3225  0.5440
 6420SOL    HW225446  -0.044   3.837   3.739  0.0298  0.0787 -0.8173
 6420SOL    HW325447   0.043   3.961   3.722 -0.8836  0.8493  0.0142
 6420SOL    MW425448  -0.026   3.921   3.758 -0.1884 -0.1150  0.2945
 6421SOL     OW25449   1.856   0.663   1.075 -0.0627  0.1987 -0.2183
 6421SOL    HW225450   1.916   0.692   1.006  0.7854  0.2012  0.4988
 6421SOL    HW325451   1.857   0.567   1.068  1.8041  0.0529  1.1932
 6421SOL    MW425452   1.864   0.654   1.065  0.2955  0.1798  0.0625
 6422SOL     OW25453   0.428   1.031   2.683 -0.0946  0.0498 -0.2188
 6422SOL    HW225454   0.416   0.951   2.734 -2.4072 -0.8959 -2.0750
 6422SOL    HW325455   0.441   1.099   2.749 -1.9894 -1.2520  1.6344
 6422SOL    MW425456   0.428   1.029   2.699 -0.6497 -0.2467 -0.2192
 6423SOL     OW25457   2.986   2.169   3.900  0.5113 -0.0417  0.5742
 6423SOL    HW225458   2.895   2.195   3.916  0.9870  2.9552 -0.8246
 6423SOL    HW325459   2.982   2.116   3.820  0.0458  0.6944  0.0987
 6423SOL    MW425460   2.974   2.166   3.891  0.5126  0.4508  0.3269
 6424SOL     OW25461   2.352   0.178   4.416  0.0512  0.0818  0.1203
 6424SOL    HW225462   2.374   0.159   4.325  1.7136 -0.8765  0.6795
 6424SOL    HW325463   2.355   0.273   4.422 -1.2182  0.2250 -1.0668
 6424SOL    MW425464   2.356   0.188   4.405  0.1031 -0.0257  0.0375
 6425SOL     OW25465   6.180   0.730   1.300 -0.2615 -0.5079 -0.4016
 6425SOL    HW225466   6.203   0.716   1.392 -0.7472 -0.5479 -0.2838
 6425SOL    HW325467   6.174   0.825   1.291  1.9217 -0.3814 -0.9273
 6425SOL    MW425468   6.182   0.741   1.311 -0.0375 -0.4965 -0.4554
 6426SOL     OW25469   0.181   6.181   3.782 -0.1039 -0.2019 -0.1144
 6426SOL    HW225470   0.208   6.232   3.705 -1.5105  0.0704 -0.4552
 6426SOL    HW325471   0.245   6.110   3.787  0.8738  0.6062 -0.6548
 6426SOL    MW425472   0.193   6.178   3.772 -0.1605 -0.0594 -0.2307
 6427SOL     OW25473   3.211   5.673   2.692  0.2249  0.1509  0.0517
 6427SOL    HW225474   3.287   5.725   2.719  0.1213 -0.5823  1.8980
 6427SOL    HW325475   3.136   5.724   2.721  0.0330  0.3632 -0.8037
 6427SOL    MW425476   3.211   5.687   2.699  0.1859  0.0822  0.1825
 6428SOL     OW25477   5.160   0.448   0.088  0.0615  0.3701  0.0059
 6428SOL    HW225478   5.136   0.365   0.047 -0.8862  1.2200 -1.2318
 6428SOL    HW325479   5.203   0.498   0.019  3.2008 -0.0750  1.4508
 6428SOL    MW425480   5.162   0.443   0.074  0.3506  0.4235  0.0332
 6429SOL     OW25481   0.433   3.153   3.669  0.8699 -0.2235 -0.3109
 6429SOL    HW225482   0.444   3.109   3.585  2.2647 -1.2538  0.3571
 6429SOL    HW325483   0.521   3.152   3.708  0.1558 -0.3444  1.4167
 6429SOL    MW425484   0.446   3.147   3.663  0.9597 -0.3754  0.0052
 6430SOL     OW25485   1.376   0.569   5.377  0.2243  0.1481 -0.1223
 6430SOL    HW225486   1.305   0.561   5.441  0.7368 -0.7710  0.3580
 6430SOL    HW325487   1.347   0.637   5.317 -1.4815 -0.8299 -0.4670
 6430SOL    MW425488   1.363   0.577   5.378  0.0669 -0.1022 -0.1044
 6431SOL     OW25489   5.138   5.550   0.763 -0.1818  0.0038 -0.8075
 6431SOL    HW225490   5.127   5.629   0.816  0.4568 -1.6531  2.0127
 6431SOL    HW325491   5.233   5.536   0.761 -0.3513 -1.3749 -0.1292
 6431SOL    MW425492   5.149   5.559   0.770 -0.1199 -0.3967 -0.3459
 6432SOL     OW25493   3.706   3.263   1.763  0.2183 -0.0884  0.0719
 6432SOL    HW225494   3.667   3.340   1.721  0.3829  0.6546  1.2303
 6432SOL    HW325495   3.659   3.189   1.725 -1.9615  0.7274  1.0230
 6432SOL    MW425496   3.695   3.263   1.752 -0.0476  0.1173  0.3502
 6433SOL     OW25497   0.958   0.683   3.661 -0.6474 -0.3641  0.5777
 6433SOL    HW225498   1.030   0.694   3.723 -2.0241 -0.2576  2.2142
 6433SOL    HW325499   0.974   0.749   3.593  0.3870  0.1340  1.2866
 6433SOL    MW425500   0.969   0.693   3.660 -0.6925 -0.2843  0.8871
 6434SOL     OW25501   2.200   1.899   3.121  0.5374 -0.1589 -0.2887
 6434SOL    HW225502   2.202   1.939   3.208 -2.1701 -2.1071  0.8088
 6434SOL    HW325503   2.278   1.933   3.077  1.2158  2.0431  2.3541
 6434SOL    MW425504   2.211   1.909   3.127  0.2697 -0.1254  0.2048
 6435SOL     OW25505   0.668   5.441   2.038  0.1019 -0.1288  0.1778
 6435SOL    HW225506   0.590   5.496   2.028  1.4593  1.5566 -1.9131
 6435SOL    HW325507   0.654   5.368   1.979 -0.6020 -0.7462  1.0831
 6435SOL    MW425508   0.656   5.439   2.029  0.1881  0.0121  0.0214
 6436SOL     OW25509   2.270   5.256   1.224 -0.5380 -0.1003  0.2558
 6436SOL    HW225510   2.232   5.330   1.178  1.1637  0.6691  0.0191
 6436SOL    HW325511   2.216   5.246   1.303 -0.7719  1.4112  0.3100
 6436SOL    MW425512   2.258   5.264   1.229 -0.3443  0.2007  0.2317
 6437SOL     OW25513   3.463   0.476   6.028  0.6205 -0.1051  0.3935
 6437SOL    HW225514   3.488   0.454   6.117  0.5443 -0.5571  0.3061
 6437SOL    HW325515   3.379   0.433   6.015  1.7019 -2.0255 -0.6568
 6437SOL    MW425516   3.455   0.468   6.038  0.7531 -0.4181  0.2434
 6438SOL     OW25517   1.993   5.080  -0.027  0.0611  0.2234 -0.5857
 6438SOL    HW225518   2.014   5.155   0.028  1.7397 -0.3176 -0.4497
 6438SOL    HW325519   2.043   5.095  -0.107  0.2818 -0.6770 -0.6192
 6438SOL    MW425520   2.002   5.092  -0.031  0.3117  0.0332 -0.5722
 6439SOL     OW25521   4.315   2.093   4.417  0.1816  0.2823  0.1012
 6439SOL    HW225522   4.252   2.163   4.402 -0.8954 -0.3673  1.3311
 6439SOL    HW325523   4.311   2.039   4.338 -2.3310 -0.8437  0.9004
 6439SOL    MW425524   4.306   2.095   4.404 -0.2920  0.0480  0.3689
 6440SOL     OW25525   2.846   3.755   4.852  0.0374 -0.3775 -0.2071
 6440SOL    HW225526   2.867   3.693   4.782 -2.0433  0.6247 -1.8323
 6440SOL    HW325527   2.784   3.709   4.908  0.3145 -0.5516 -0.0382
 6440SOL    MW425528   2.841   3.741   4.850 -0.2006 -0.2682 -0.3993
 6441SOL     OW25529   4.547   4.886   1.702 -0.1780 -0.0824  0.6130
 6441SOL    HW225530   4.565   4.916   1.612 -1.7738 -3.0371 -0.8301
 6441SOL    HW325531   4.453   4.897   1.713 -0.5926 -2.9011  0.5473
 6441SOL    MW425532   4.537   4.891   1.691 -0.4433 -0.8442  0.4139
 6442SOL     OW25533   3.478   4.879   4.081  0.1084  0.2764 -0.3253
 6442SOL    HW225534   3.502   4.906   3.992  0.4206 -0.3238 -0.4357
 6442SOL    HW325535   3.540   4.808   4.101 -2.0302 -1.8758 -0.8981
 6442SOL    MW425536   3.490   4.873   4.072 -0.1326 -0.0867 -0.4155
 6443SOL     OW25537   0.074   0.616   0.370 -0.0133  0.1177 -0.0012
 6443SOL    HW225538   0.051   0.525   0.351  1.7941 -0.4515  0.3286
 6443SOL    HW325539   0.161   0.627   0.332 -1.1207  2.4760 -2.2307
 6443SOL    MW425540   0.082   0.605   0.362  0.0791  0.3538 -0.2518
 6444SOL     OW25541   1.703   0.016   3.126 -0.2590 -0.1382 -0.2366
 6444SOL    HW225542   1.716  -0.043   3.052 -0.5345 -0.0441 -0.3602
 6444SOL    HW325543   1.743   0.098   3.099  1.0530 -0.5654  0.3417
 6444SOL    MW425544   1.710   0.019   3.113 -0.1222 -0.1822 -0.1766
 6445SOL     OW25545   5.439   5.592   0.759 -0.4791  0.1503 -0.2776
 6445SOL    HW225546   5.470   5.503   0.777 -0.7646 -0.4375 -2.4630
 6445SOL    HW325547   5.427   5.630   0.846  2.8289 -0.7706  0.7376
 6445SOL    MW425548   5.441   5.585   0.773 -0.0804 -0.0488 -0.4320
 6446SOL     OW25549   6.201   3.089   5.794  0.4346  0.5437 -0.3648
 6446SOL    HW225550   6.243   3.166   5.833 -0.8443  0.8390  0.5376
 6446SOL    HW325551   6.158   3.046   5.868  0.3479 -0.5105 -1.0160
 6446SOL    MW425552   6.201   3.094   5.809  0.2544  0.4435 -0.3316
 6447SOL     OW25553   6.058   2.598   4.028 -0.0108 -0.0572 -0.0632
 6447SOL    HW225554   6.046   2.550   4.110  0.7002  0.1798  0.1850
 6447SOL    HW325555   6.140   2.564   3.992 -1.7017 -2.3494 -2.2041
 6447SOL    MW425556   6.067   2.587   4.034 -0.1401 -0.3284 -0.3130
 6448SOL     OW25557   4.430   2.513   5.236  0.3288  0.0856  0.5333
 6448SOL    HW225558   4.496   2.536   5.170  0.7981  1.0038  1.2995
 6448SOL    HW325559   4.346   2.535   5.196  0.4439 -1.2638 -0.5283
 6448SOL    MW425560   4.428   2.519   5.222  0.4059  0.0287  0.4943
 6449SOL     OW25561   5.746   6.143   2.244  0.3008  0.6616 -0.4613
 6449SOL    HW225562   5.717   6.072   2.187 -0.4058  0.7527 -0.2226
 6449SOL    HW325563   5.690   6.218   2.221  0.4698  0.8957 -0.1307
 6449SOL    MW425564   5.735   6.144   2.234  0.2298  0.7045 -0.3862
 6450SOL     OW25565   1.847   4.369   5.343 -0.1793  0.0687  0.4079
 6450SOL    HW225566   1.934   4.347   5.378  0.1607 -0.2080 -0.5765
 6450SOL    HW325567   1.847   4.465   5.340  0.5375  0.0533 -0.6312
 6450SOL    MW425568   1.859   4.379   5.347 -0.0399  0.0301  0.1409
 6451SOL     OW25569   2.410   5.966   5.782  0.3205 -0.1116 -0.1839
 6451SOL    HW225570   2.402   6.061   5.788 -0.6847 -0.2330  0.7173
 6451SOL    HW325571   2.489   5.945   5.831 -1.0753  0.0303  2.2809
 6451SOL    MW425572   2.419   5.976   5.789  0.0038 -0.1089  0.2602
 6452SOL     OW25573   1.198   3.499   0.463 -0.0063  0.2093  0.3048
 6452SOL    HW225574   1.246   3.515   0.544 -0.7893 -1.4427  1.1577
 6452SOL    HW325575   1.207   3.404   0.449  0.0910  0.4606 -1.5391
 6452SOL    MW425576   1.206   3.488   0.472 -0.0968  0.0245  0.1740
 6453SOL     OW25577   5.645   5.754   3.058 -0.2377  0.2962  0.6339
 6453SOL    HW225578   5.616   5.843   3.076  0.2646  0.7829 -0.8002
 6453SOL    HW325579   5.622   5.739   2.966  0.7318 -0.6155  0.5101
 6453SOL    MW425580   5.638   5.764   3.048 -0.0435  0.2401  0.4283
 6454SOL     OW25581   6.031   4.960   3.184 -0.1328  0.1730 -0.0420
 6454SOL    HW225582   5.975   5.038   3.179 -0.7519 -0.3503 -1.5505
 6454SOL    HW325583   6.120   4.994   3.175 -0.3619  0.7707 -0.0815
 6454SOL    MW425584   6.036   4.975   3.182 -0.2447  0.1828 -0.2462
 6455SOL     OW25585   3.123   1.533   2.802  0.3381  0.3403  0.5735
 6455SOL    HW225586   3.118   1.619   2.844  1.8073  0.4295  0.6181
 6455SOL    HW325587   3.206   1.497   2.832 -0.6056 -1.4421  1.1616
 6455SOL    MW425588   3.133   1.540   2.811  0.4074  0.1169  0.6570
 6456SOL     OW25589   4.136   3.245   3.772 -0.3107 -0.1919 -0.6178
 6456SOL    HW225590   4.053   3.292   3.782 -0.9667 -1.2936 -0.7605
 6456SOL    HW325591   4.111   3.156   3.750  0.8863 -0.8972  0.6885
 6456SOL    MW425592   4.122   3.239   3.770 -0.2393 -0.4303 -0.4643
 6457SOL     OW25593   3.850   5.232   1.384  0.2355  0.1436  0.3319
 6457SOL    HW225594   3.931   5.275   1.412  0.3427 -0.7840  1.5338
 6457SOL    HW325595   3.781   5.292   1.412  0.4808  0.7867 -0.4077
 6457SOL    MW425596   3.852   5.245   1.391  0.2820  0.1061  0.3929
 6458SOL     OW25597   5.997   3.224   0.813  0.7631  0.7024  0.3848
 6458SOL    HW225598   5.913   3.198   0.777 -0.3317  4.7267 -0.5550
 6458SOL    HW325599   6.020   3.155   0.875 -2.1456 -1.5900 -0.8593
 6458SOL    MW425600   5.989   3.212   0.817  0.2349  0.9309  0.0966
 6459SOL     OW25601   2.470   2.598   6.055  0.0834  0.3160  0.3862
 6459SOL    HW225602   2.544   2.658   6.062 -0.1008  0.8650 -1.6968
 6459SOL    HW325603   2.509   2.511   6.050  0.4362  0.3832  1.6573
 6459SOL    MW425604   2.485   2.594   6.056  0.1056  0.3973  0.2791
 6460SOL     OW25605   3.350   1.816   0.327  0.0680  0.0616 -0.1879
 6460SOL    HW225606   3.358   1.892   0.385 -0.9104  1.0099 -1.2316
 6460SOL    HW325607   3.269   1.773   0.355 -0.3470  0.4585 -0.7511
 6460SOL    MW425608   3.341   1.821   0.338 -0.1158  0.2391 -0.3999
 6461SOL     OW25609   3.987   0.071   3.668 -0.2618 -0.5896  0.2871
 6461SOL    HW225610   3.955   0.135   3.732  0.7430 -0.8002  1.0184
 6461SOL    HW325611   3.924  -0.001   3.673 -1.2472  0.2079 -0.3413
 6461SOL    MW425612   3.974   0.070   3.677 -0.2593 -0.5122  0.3007
 6462SOL     OW25613   5.540   1.356   4.495 -0.1868 -0.3239 -0.3204
 6462SOL    HW225614   5.618   1.379   4.444 -0.8937  2.0809 -0.4633
 6462SOL    HW325615   5.475   1.330   4.429 -0.3718  0.5106 -0.4866
 6462SOL    MW425616   5.542   1.356   4.479 -0.3045  0.1035 -0.3612
 6463SOL     OW25617   1.846   3.130   2.862  0.0214 -0.9017  0.3291
 6463SOL    HW225618   1.902   3.070   2.911 -0.8816 -1.2392  0.9695
 6463SOL    HW325619   1.772   3.146   2.920 -0.8301 -0.9090 -0.7301
 6463SOL    MW425620   1.844   3.124   2.877 -0.2101 -0.9472  0.2739
 6464SOL     OW25621   2.132   2.115   5.578  0.0286 -0.1080  0.0500
 6464SOL    HW225622   2.223   2.136   5.596 -0.2442  0.0636  1.3149
 6464SOL    HW325623   2.116   2.034   5.627 -0.6958  0.2818  0.4836
 6464SOL    MW425624   2.142   2.107   5.587 -0.1030 -0.0339  0.2741
 6465SOL     OW25625   0.026   0.766   4.044  0.1565 -0.3226 -0.0494
 6465SOL    HW225626  -0.021   0.686   4.022  1.4459 -1.4440  1.0921
 6465SOL    HW325627   0.110   0.757   3.997 -0.2058  1.0162 -1.0031
 6465SOL    MW425628   0.031   0.754   4.035  0.2788 -0.2939 -0.0246
 6466SOL     OW25629   5.222   1.484   4.299 -0.1646  0.2114 -0.0289
 6466SOL    HW225630   5.311   1.513   4.279  0.1628 -1.9174 -2.0223
 6466SOL    HW325631   5.170   1.510   4.223 -1.5066  2.0763  1.4172
 6466SOL    MW425632   5.227   1.491   4.287 -0.2984  0.1766 -0.1011
 6467SOL     OW25633   5.141   4.653   4.003 -0.2423 -0.3009 -0.2688
 6467SOL    HW225634   5.070   4.658   4.066 -1.6644 -0.7739 -1.7699
 6467SOL    HW325635   5.130   4.729   3.947 -1.6704 -2.0339 -2.5403
 6467SOL    MW425636   5.131   4.663   4.004 -0.6183 -0.5919 -0.7666
 6468SOL     OW25637   2.374   2.006   3.906  0.2584 -0.5517 -0.0976
 6468SOL    HW225638   2.469   2.013   3.897  0.2605  0.6024  0.5516
 6468SOL    HW325639   2.345   1.962   3.826  1.2814 -0.3051 -0.6202
 6468SOL    MW425640   2.382   2.001   3.894  0.3937 -0.3669 -0.0809
 6469SOL     OW25641   2.772   4.683   3.244 -0.1617  0.2694 -0.3071
 6469SOL    HW225642   2.705   4.672   3.311 -0.0412 -0.2478 -0.2639
 6469SOL    HW325643   2.817   4.764   3.269  0.2841 -0.2341  0.6031
 6469SOL    MW425644   2.769   4.692   3.256 -0.0870  0.1347 -0.1813
 6470SOL     OW25645   3.778   2.892   5.819  0.1771 -0.5436  0.2043
 6470SOL    HW225646   3.725   2.960   5.860 -0.2566  0.1009 -1.3738
 6470SOL    HW325647   3.816   2.844   5.893  1.2795  1.9777  1.4002
 6470SOL    MW425648   3.776   2.895   5.835  0.2653 -0.1259  0.1539
 6471SOL     OW25649   4.632   1.972   6.376  0.3261  0.2381  0.1692
 6471SOL    HW225650   4.691   1.898   6.391 -1.7084 -1.0611  2.3908
 6471SOL    HW325651   4.559   1.935   6.328 -1.0660  0.5636  1.9413
 6471SOL    MW425652   4.630   1.958   6.372 -0.1260  0.1096  0.6961
 6472SOL     OW25653   1.732   5.129   0.068  0.1011  0.0374 -0.7644
 6472SOL    HW225654   1.705   5.218   0.044  1.2795  1.6102  2.9248
 6472SOL    HW325655   1.823   5.123   0.039  0.1649  0.2242 -0.6047
 6472SOL    MW425656   1.740   5.140   0.061  0.2650  0.2696 -0.2566
 6473SOL     OW25657   0.569   4.509   1.053  0.2645 -0.3677 -0.0191
 6473SOL    HW225658   0.593   4.433   1.105 -0.9178 -0.4574  0.4254
 6473SOL    HW325659   0.499   4.478   0.996 -1.4034  0.7160  1.3045
 6473SOL    MW425660   0.563   4.495   1.053 -0.1116 -0.2365  0.2142
 6474SOL     OW25661   5.659   1.951   4.360  0.1613 -0.1670  0.1687
 6474SOL    HW225662   5.594   2.010   4.397  0.7453  0.8888 -0.4569
 6474SOL    HW325663   5.629   1.935   4.271  0.9415  0.6445 -0.2582
 6474SOL    MW425664   5.647   1.956   4.353  0.3413  0.0794  0.0298
 6475SOL     OW25665   2.714   4.431   0.080  0.6599  0.2840  0.1154
 6475SOL    HW225666   2.653   4.489   0.125 -0.2711 -0.4271 -0.2005
 6475SOL    HW325667   2.746   4.372   0.149  2.2829  1.6641  0.6248
 6475SOL    MW425668   2.710   4.431   0.095  0.7512  0.3722  0.1409
 6476SOL     OW25669   1.027   3.239   0.090 -0.5958 -0.5383  0.0313
 6476SOL    HW225670   1.021   3.219  -0.004  0.9998 -1.7653  0.1435
 6476SOL    HW325671   1.008   3.157   0.134  0.0159 -0.3156  0.7353
 6476SOL    MW425672   1.024   3.226   0.083 -0.3046 -0.6708  0.1390
 6477SOL     OW25673   3.624   3.060   0.920 -0.3733  0.0016  0.1071
 6477SOL    HW225674   3.713   3.075   0.952 -0.3370 -1.2276  0.6584
 6477SOL    HW325675   3.601   2.973   0.953 -1.8662  0.3793  0.1567
 6477SOL    MW425676   3.633   3.050   0.929 -0.5655 -0.1108  0.1864
 6478SOL     OW25677   3.217   2.250   1.330  0.1132  0.3818  0.1102
 6478SOL    HW225678   3.244   2.184   1.266  1.1876 -0.1444  1.0790
 6478SOL    HW325679   3.154   2.205   1.386  0.4771  0.3226  0.4738
 6478SOL    MW425680   3.212   2.235   1.329  0.3030  0.3046  0.2860
 6479SOL     OW25681   1.909   5.324   2.147  0.4654 -0.2086 -0.1346
 6479SOL    HW225682   1.877   5.411   2.120 -0.3329 -0.5968 -0.4657
 6479SOL    HW325683   1.973   5.343   2.216 -0.8766  0.6023  0.9545
 6479SOL    MW425684   1.913   5.338   2.153  0.1830 -0.1528 -0.0346
 6480SOL     OW25685   5.842   1.119   4.023 -0.6782  0.0541 -0.3468
 6480SOL    HW225686   5.859   1.135   3.930 -0.7388 -0.0365 -0.3736
 6480SOL    HW325687   5.804   1.032   4.026 -1.2200  0.2891 -0.2945
 6480SOL    MW425688   5.839   1.110   4.011 -0.7577  0.0732 -0.3434
 6481SOL     OW25689   2.743   0.698   2.889  0.2945 -0.3110 -0.2089
 6481SOL    HW225690   2.712   0.721   2.801  0.3166 -0.2707 -0.2059
 6481SOL    HW325691   2.817   0.639   2.873 -1.2596 -2.3688 -0.2198
 6481SOL    MW425692   2.749   0.693   2.875  0.0924 -0.5772 -0.2099
 6482SOL     OW25693   5.877   4.340   5.319  0.1974  0.1194  0.4759
 6482SOL    HW225694   5.939   4.411   5.300  0.8657 -0.1427  1.5862
 6482SOL    HW325695   5.835   4.368   5.401 -1.5181  0.5200 -0.5018
 6482SOL    MW425696   5.880   4.353   5.327  0.0592  0.1376  0.4934
 6483SOL     OW25697   3.832   5.942   2.857  0.5548  0.5582  0.2188
 6483SOL    HW225698   3.775   6.015   2.880  1.0411  0.5201  1.6266
 6483SOL    HW325699   3.894   5.936   2.929 -0.6681 -2.5100  1.1739
 6483SOL    MW425700   3.833   5.951   2.869  0.4576  0.1484  0.5306
 6484SOL     OW25701   3.741   2.738   6.132 -0.1928  1.0496  0.4995
 6484SOL    HW225702   3.755   2.645   6.117 -0.6818  0.8443  1.3025
 6484SOL    HW325703   3.821   2.779   6.100 -0.5886  0.5126 -1.3106
 6484SOL    MW425704   3.753   2.731   6.126 -0.3096  0.9516  0.3666
 6485SOL     OW25705   4.635   0.149   2.912 -0.1903  0.3470  0.3663
 6485SOL    HW225706   4.613   0.138   3.004 -0.4085  0.5784  0.3403
 6485SOL    HW325707   4.659   0.241   2.903  3.7570 -0.4068  1.0461
 6485SOL    MW425708   4.636   0.159   2.923  0.3017  0.2781  0.4525
 6486SOL     OW25709   5.496   1.131   1.706 -0.0537 -0.0588 -0.1239
 6486SOL    HW225710   5.420   1.148   1.650 -0.4878 -0.6190  0.2896
 6486SOL    HW325711   5.458   1.115   1.793  0.5274 -0.4843  0.0534
 6486SOL    MW425712   5.481   1.131   1.710 -0.0343 -0.1889 -0.0459
 6487SOL     OW25713   1.496   6.079  -0.022  0.0711 -0.3424  0.0310
 6487SOL    HW225714   1.591   6.088  -0.022  0.0735  0.7602  2.7593
 6487SOL    HW325715   1.481   5.986  -0.006  0.6777 -0.5580 -0.6151
 6487SOL    MW425716   1.507   6.068  -0.020  0.1514 -0.2254  0.3057
 6488SOL     OW25717   3.433   6.094   5.410 -0.3087  0.0657 -0.2669
 6488SOL    HW225718   3.417   6.082   5.317  1.5993  2.0246 -0.9354
 6488SOL    HW325719   3.436   6.189   5.422 -0.2614 -0.1375  1.7479
 6488SOL    MW425720   3.432   6.105   5.399 -0.0507  0.2973 -0.0893
 6489SOL     OW25721   4.177   1.545   3.338 -0.4685 -0.4117  0.4569
 6489SOL    HW225722   4.135   1.474   3.388 -0.3123 -1.4719 -0.8549
 6489SOL    HW325723   4.142   1.536   3.250  1.9234 -0.8676 -0.5215
 6489SOL    MW425724   4.167   1.534   3.333 -0.1323 -0.6117  0.1548
 6490SOL     OW25725   0.620   4.986   4.478 -0.2828 -0.4145  0.0133
 6490SOL    HW225726   0.623   4.976   4.573 -1.3242 -1.0736 -0.0042
 6490SOL    HW325727   0.705   5.023   4.455 -0.7747  1.7889  1.4152
 6490SOL    MW425728   0.631   4.990   4.487 -0.4851 -0.2108  0.1959
 6491SOL     OW25729   6.192   5.387   5.243  0.1563 -0.1583  0.2687
 6491SOL    HW225730   6.271   5.353   5.284 -0.4365 -1.4565  0.4050
 6491SOL    HW325731   6.196   5.355   5.152 -0.1010 -0.0515  0.2181
 6491SOL    MW425732   6.203   5.378   5.236  0.0441 -0.3155  0.2800
 6492SOL     OW25733   5.885   3.748   1.174 -0.8550 -0.2464  0.5242
 6492SOL    HW225734   5.809   3.773   1.227 -1.9917 -0.0182 -1.1272
 6492SOL    HW325735   5.850   3.735   1.086  1.0226 -0.1668 -0.2994
 6492SOL    MW425736   5.871   3.750   1.170 -0.7572 -0.2058  0.1976
 6493SOL     OW25737   6.049   5.150   2.656  0.3166  0.1003  0.2290
 6493SOL    HW225738   6.002   5.205   2.594 -0.3302  0.4068  0.9757
 6493SOL    HW325739   6.006   5.166   2.740  1.3948 -0.0505  0.8265
 6493SOL    MW425740   6.037   5.159   2.659  0.3736  0.1209  0.4063
 6494SOL     OW25741   3.001   5.045   4.821 -0.2727 -0.6545  0.1401
 6494SOL    HW225742   3.092   5.013   4.820  0.6873  1.6540  2.5224
 6494SOL    HW325743   2.964   5.008   4.901 -0.9921 -0.4165 -0.0789
 6494SOL    MW425744   3.008   5.036   4.832 -0.2409 -0.3186  0.4255
 6495SOL     OW25745   3.833   4.059   1.136  0.1349 -0.7215  0.2505
 6495SOL    HW225746   3.744   4.025   1.127 -0.5688  1.2124 -0.3744
 6495SOL    HW325747   3.884   3.983   1.166 -1.7640 -1.7832  0.9726
 6495SOL    MW425748   3.828   4.044   1.139 -0.2085 -0.6064  0.2633
 6496SOL     OW25749   2.794   5.261   6.181 -0.8464 -0.0631  0.3271
 6496SOL    HW225750   2.804   5.188   6.120 -0.2128  0.6151 -0.4093
 6496SOL    HW325751   2.789   5.220   6.267 -1.0785 -1.0053 -0.1245
 6496SOL    MW425752   2.795   5.246   6.184 -0.7934 -0.0980  0.1703
 6497SOL     OW25753   1.409   2.399   2.767  0.2334  0.4839 -0.3801
 6497SOL    HW225754   1.413   2.358   2.681  0.0470 -1.2944  0.4145
 6497SOL    HW325755   1.444   2.487   2.754  0.4621  0.1461 -2.2042
 6497SOL    MW425756   1.414   2.406   2.754  0.2390  0.2047 -0.5160
 6498SOL     OW25757   4.516   2.910   5.433 -0.1816 -0.1358  0.7296
 6498SOL    HW225758   4.468   2.945   5.508  0.2341 -0.1065  0.9857
 6498SOL    HW325759   4.605   2.944   5.444 -0.1015 -0.1960  0.2644
 6498SOL    MW425760   4.522   2.919   5.445 -0.1162 -0.1399  0.7020
 6499SOL     OW25761   5.932   3.220   3.347 -0.0252  0.2417 -0.6472
 6499SOL    HW225762   5.958   3.170   3.424 -1.3609  0.5804  0.0630
 6499SOL    HW325763   5.951   3.163   3.273 -1.0825 -1.1498  0.1131
 6499SOL    MW425764   5.938   3.206   3.347 -0.3409  0.1028 -0.4532
 6500SOL     OW25765   5.865   5.670   1.820  0.1553 -0.1486  0.2191
 6500SOL    HW225766   5.812   5.727   1.765  0.5997 -0.6395 -0.7312
 6500SOL    HW325767   5.915   5.616   1.759  0.4902 -0.8665  1.1004
 6500SOL    MW425768   5.865   5.670   1.805  0.2582 -0.3081  0.2100
 6501SOL     OW25769   3.404   2.547   2.274  0.1929  0.7888 -0.0102
 6501SOL    HW225770   3.342   2.535   2.202 -0.4168 -2.2528  0.8640
 6501SOL    HW325771   3.490   2.533   2.234 -0.1453 -0.9538 -0.1926
 6501SOL    MW425772   3.407   2.544   2.259  0.0678  0.1576  0.0811
 6502SOL     OW25773   2.193   3.927   0.604  0.2217  0.1736 -0.3944
 6502SOL    HW225774   2.282   3.944   0.632 -0.0227 -0.2726  0.7168
 6502SOL    HW325775   2.163   4.009   0.567  0.7388  0.6509  0.2187
 6502SOL    MW425776   2.201   3.940   0.603  0.2577  0.1777 -0.1669
 6503SOL     OW25777   1.920   2.557   3.049  0.4857  0.1181 -0.7879
 6503SOL    HW225778   1.870   2.567   3.130  0.3228  1.4788 -1.0256
 6503SOL    HW325779   2.011   2.551   3.078  0.3495 -0.3873 -0.4562
 6503SOL    MW425780   1.925   2.557   3.064  0.4462  0.2310 -0.7755
 6504SOL     OW25781   3.698   5.130   0.631 -0.4916 -0.0698 -0.5393
 6504SOL    HW225782   3.620   5.179   0.604 -0.2005 -0.0465 -1.3803
 6504SOL    HW325783   3.733   5.179   0.705 -2.1308 -0.9354  0.8972
 6504SOL    MW425784   3.692   5.143   0.637 -0.6695 -0.1809 -0.4607
 6505SOL     OW25785   3.756   4.190   2.992 -0.5972  0.3206 -0.3475
 6505SOL    HW225786   3.759   4.096   2.977 -0.7647 -0.1836  2.3920
 6505SOL    HW325787   3.827   4.225   2.938 -0.0581 -1.4438 -0.8363
 6505SOL    MW425788   3.766   4.182   2.983 -0.5481  0.0213 -0.0506
 6506SOL     OW25789   5.876   3.144   5.183  0.0328 -0.0511  0.1315
 6506SOL    HW225790   5.859   3.066   5.129 -0.7963  1.1471 -1.4015
 6506SOL    HW325791   5.967   3.167   5.162  0.1853 -0.4341  0.3660
 6506SOL    MW425792   5.886   3.137   5.173 -0.0564  0.0565 -0.0399
 6507SOL     OW25793   5.581   5.002   2.531 -0.3342 -0.1247 -0.2768
 6507SOL    HW225794   5.498   5.047   2.548 -0.9343 -1.9063  2.1495
 6507SOL    HW325795   5.637   5.026   2.605  1.1219  0.5196 -1.5418
 6507SOL    MW425796   5.577   5.011   2.543 -0.2213 -0.2748 -0.1236
 6508SOL     OW25797   3.738   1.396   5.276 -0.0760 -0.5753 -0.9785
 6508SOL    HW225798   3.652   1.354   5.265 -0.9761 -0.1350  2.8741
 6508SOL    HW325799   3.734   1.435   5.363  3.5567  0.8025 -1.2763
 6508SOL    MW425800   3.726   1.396   5.286  0.2845 -0.3354 -0.5095
 6509SOL     OW25801   4.986   5.800   4.241 -0.2155 -0.1854  0.2132
 6509SOL    HW225802   5.025   5.733   4.297 -0.9830  0.3102  1.3800
 6509SOL    HW325803   4.892   5.792   4.257 -0.4244  0.2011 -0.7528
 6509SOL    MW425804   4.979   5.790   4.250 -0.3443 -0.0690  0.2397
 6510SOL     OW25805   0.724   5.176   6.113  0.0917  0.5629  0.7842
 6510SOL    HW225806   0.644   5.140   6.075  1.6962 -1.0587 -1.2582
 6510SOL    HW325807   0.696   5.259   6.152 -2.9615 -0.8907  2.0396
 6510SOL    MW425808   0.710   5.182   6.113 -0.0995  0.1571  0.6804
 6511SOL     OW25809   2.550   1.197   4.866 -0.6793  0.5791 -0.3062
 6511SOL    HW225810   2.479   1.202   4.803  0.4652  0.4814 -1.6591
 6511SOL    HW325811   2.591   1.284   4.862  0.4974  0.0108 -1.0557
 6511SOL    MW425812   2.546   1.209   4.857 -0.3730  0.4913 -0.5836
 6512SOL     OW25813   3.131   2.625   4.162 -0.2459 -0.1899 -0.2572
 6512SOL    HW225814   3.107   2.672   4.082 -1.4953  0.2999  0.3715
 6512SOL    HW325815   3.226   2.626   4.162 -0.2268  1.0518 -1.0273
 6512SOL    MW425816   3.140   2.632   4.151 -0.4083  0.0385 -0.2759
 6513SOL     OW25817   1.424   5.446   0.366  0.2892  0.1792 -0.0428
 6513SOL    HW225818   1.488   5.380   0.392  0.7653  1.3480  1.9081
 6513SOL    HW325819   1.476   5.519   0.332 -0.1054  0.4169 -0.1523
 6513SOL    MW425820   1.439   5.447   0.365  0.3000  0.3648  0.2002
 6514SOL     OW25821   0.180   5.913   4.102  0.0803  0.2058 -0.6177
 6514SOL    HW225822   0.146   5.824   4.099 -0.3647  0.2207  2.0002
 6514SOL    HW325823   0.103   5.968   4.083 -0.1309  0.0959 -0.0786
 6514SOL    MW425824   0.165   5.909   4.099 -0.0063  0.1933 -0.2012
 6515SOL     OW25825   5.593   1.439   1.375  0.0648  0.2658  0.0759
 6515SOL    HW225826   5.628   1.404   1.456  1.3004  0.9924 -0.1271
 6515SOL    HW325827   5.540   1.514   1.402  2.1940  1.8513  0.1191
 6515SOL    MW425828   5.590   1.444   1.389  0.5087  0.5709  0.0548
 6516SOL     OW25829   5.656   4.200   0.924 -0.4458 -0.0961  0.4529
 6516SOL    HW225830   5.713   4.167   0.994  1.6203 -0.9178 -1.5097
 6516SOL    HW325831   5.671   4.295   0.924 -0.4943 -0.0829  1.1449
 6516SOL    MW425832   5.666   4.208   0.933 -0.1796 -0.2027  0.2853
 6517SOL     OW25833   5.421   3.474   4.932  0.2336  0.5347  0.7314
 6517SOL    HW225834   5.392   3.477   4.841 -2.8092  1.4043  1.6230
 6517SOL    HW325835   5.387   3.391   4.965  1.3818  0.1880  1.0900
 6517SOL    MW425836   5.413   3.463   4.924 -0.0164  0.6037  0.8963
 6518SOL     OW25837   2.360   1.515   2.342 -0.5030 -0.5799  1.0385
 6518SOL    HW225838   2.294   1.447   2.354  0.9529 -2.3198 -0.2644
 6518SOL    HW325839   2.434   1.470   2.301  1.2306  1.4273  1.7683
 6518SOL    MW425840   2.361   1.500   2.338 -0.0821 -0.5446  0.9629
 6519SOL     OW25841   6.342   1.131   5.159 -0.4557 -0.1168  0.3722
 6519SOL    HW225842   6.406   1.068   5.126 -1.3337 -1.6695  1.5341
 6519SOL    HW325843   6.393   1.188   5.218 -0.1718 -1.5702  1.5886
 6519SOL    MW425844   6.357   1.130   5.163 -0.5341 -0.5134  0.6860
 6520SOL     OW25845   1.651   3.489   5.618 -0.0347  0.0987  0.5336
 6520SOL    HW225846   1.722   3.430   5.643  0.6535 -0.5049 -2.4747
 6520SOL    HW325847   1.579   3.430   5.594 -0.1729  0.5698 -0.2166
 6520SOL    MW425848   1.651   3.473   5.618  0.0379  0.0812  0.0377
 6521SOL     OW25849   5.048   6.272   1.264 -0.7838  0.1647 -0.0896
 6521SOL    HW225850   5.038   6.237   1.352  1.5203  0.8336  0.5166
 6521SOL    HW325851   5.088   6.201   1.214 -1.0582  0.1556 -0.2993
 6521SOL    MW425852   5.052   6.258   1.269 -0.5160  0.2518 -0.0373
 6522SOL     OW25853   2.732   3.383   3.459 -0.1104  0.4804  0.2872
 6522SOL    HW225854   2.661   3.440   3.489  1.4855  2.5192  0.4010
 6522SOL    HW325855   2.812   3.432   3.477  1.3883 -1.8097  0.3587
 6522SOL    MW425856   2.733   3.397   3.465  0.2979  0.4472  0.3117
 6523SOL     OW25857   1.938   2.496   5.107 -0.7262 -0.2736 -0.5759
 6523SOL    HW225858   1.860   2.496   5.163  0.1374  1.4197  0.6996
 6523SOL    HW325859   2.010   2.477   5.166  0.4039  3.0041 -0.7140
 6523SOL    MW425860   1.937   2.494   5.122 -0.4631  0.3823 -0.4258
 6524SOL     OW25861   3.588   2.497   5.150  0.0946  0.1744 -0.0502
 6524SOL    HW225862   3.574   2.483   5.243 -1.0775 -1.4170 -0.4213
 6524SOL    HW325863   3.631   2.582   5.144 -1.3193  1.0700  1.8147
 6524SOL    MW425864   3.592   2.506   5.161 -0.2466  0.0826  0.1469
 6525SOL     OW25865   3.686   3.233   3.984 -0.2302  0.2932  0.4313
 6525SOL    HW225866   3.779   3.212   3.972 -0.2842  0.2833 -0.0099
 6525SOL    HW325867   3.649   3.156   4.027 -0.2308 -0.1283 -0.3019
 6525SOL    MW425868   3.693   3.220   3.988 -0.2374  0.2362  0.2764
 6526SOL     OW25869   0.298   4.322   0.242  0.4193  0.2900 -0.3335
 6526SOL    HW225870   0.269   4.267   0.170  1.9041  0.6632 -1.2528
 6526SOL    HW325871   0.233   4.392   0.246 -0.1479 -0.2043 -0.7450
 6526SOL    MW425872   0.286   4.324   0.233  0.5404  0.2740 -0.5091
 6527SOL     OW25873   3.907   1.136   4.794  0.6644 -0.2834  0.1137
 6527SOL    HW225874   3.970   1.176   4.734  0.4449  0.1184  0.1465
 6527SOL    HW325875   3.830   1.192   4.788  0.3956 -0.6342  0.2572
 6527SOL    MW425876   3.905   1.148   4.785  0.5999 -0.2766  0.1369
 6528SOL     OW25877   5.778   1.263   4.336 -0.1391 -0.8361 -0.6147
 6528SOL    HW225878   5.824   1.332   4.384  0.1590 -1.4356 -0.0235
 6528SOL    HW325879   5.767   1.193   4.400  0.8856 -1.9416 -1.6086
 6528SOL    MW425880   5.783   1.263   4.351  0.0354 -1.0611 -0.6678
 6529SOL     OW25881   2.226   3.032   4.690  0.0380  0.3197 -0.1394
 6529SOL    HW225882   2.278   3.088   4.632 -0.3782  0.1212 -0.7122
 6529SOL    HW325883   2.138   3.068   4.685  0.2384  1.1554  1.4516
 6529SOL    MW425884   2.221   3.044   4.682  0.0095  0.4037 -0.0051
 6530SOL     OW25885   0.731   3.222   0.319 -0.1167  0.0306 -0.0894
 6530SOL    HW225886   0.757   3.313   0.338  0.6517 -0.5113  1.6925
 6530SOL    HW325887   0.814   3.179   0.295 -0.3674 -0.3544 -0.2656
 6530SOL    MW425888   0.746   3.229   0.318 -0.0484 -0.0917  0.1224
 6531SOL     OW25889   5.387   5.970   0.796 -0.1841  1.1157 -0.2098
 6531SOL    HW225890   5.396   5.978   0.702 -1.7955 -0.4460 -0.5568
 6531SOL    HW325891   5.471   5.936   0.826  0.4782  2.0045 -1.0011
 6531SOL    MW425892   5.399   5.967   0.788 -0.3094  1.0269 -0.3600
 6532SOL     OW25893   4.481   0.925   5.740 -0.3106 -0.0417 -0.1968
 6532SOL    HW225894   4.554   0.941   5.681 -0.0118  1.3705  0.5137
 6532SOL    HW325895   4.506   0.846   5.789  0.4770  0.1085 -0.3491
 6532SOL    MW425896   4.494   0.917   5.739 -0.1673  0.1645 -0.1232
 6533SOL     OW25897   1.473   4.558   0.860 -0.0208  0.2088 -0.3725
 6533SOL    HW225898   1.524   4.524   0.933 -0.7760 -0.2185 -0.0281
 6533SOL    HW325899   1.527   4.544   0.783  0.6687  0.4106  0.0667
 6533SOL    MW425900   1.487   4.552   0.860 -0.0294  0.1790 -0.2691
 6534SOL     OW25901   5.077   2.274   3.923 -0.5689  0.0201 -0.0027
 6534SOL    HW225902   5.098   2.211   3.991  0.6283  0.4429  0.0406
 6534SOL    HW325903   5.051   2.353   3.971  1.0712  0.5881  0.0154
 6534SOL    MW425904   5.076   2.276   3.938 -0.1946  0.1508  0.0054
 6535SOL     OW25905   6.102   4.313   4.097 -0.1051  0.0500  0.2455
 6535SOL    HW225906   6.094   4.221   4.123 -1.5539 -0.0171 -0.3249
 6535SOL    HW325907   6.083   4.362   4.177 -0.5995 -0.1537  0.2558
 6535SOL    MW425908   6.098   4.307   4.111 -0.3615  0.0143  0.1716
 6536SOL     OW25909   5.907   1.764   1.647  0.3313 -0.2510 -0.4672
 6536SOL    HW225910   5.862   1.797   1.569  1.0955  1.1335 -0.3551
 6536SOL    HW325911   5.928   1.673   1.626 -1.3846 -0.5597 -0.9976
 6536SOL    MW425912   5.904   1.757   1.634  0.2057 -0.1090 -0.5224
 6537SOL     OW25913   1.569   2.587   4.224  0.6397 -0.5613  0.7237
 6537SOL    HW225914   1.564   2.592   4.319 -0.7489 -0.7067  0.6793
 6537SOL    HW325915   1.538   2.498   4.203 -1.1255  0.1577  0.0499
 6537SOL    MW425916   1.564   2.576   4.234  0.2236 -0.4856  0.6289
 6538SOL     OW25917   4.320   2.324   2.955 -0.2287  0.1870 -0.4640
 6538SOL    HW225918   4.389   2.369   2.907 -0.9476  2.3394  0.3818
 6538SOL    HW325919   4.273   2.274   2.889  0.1865  1.2708 -1.6156
 6538SOL    MW425920   4.323   2.323   2.940 -0.2688  0.6140 -0.5044
 6539SOL     OW25921   5.213   2.552   2.333  0.2601 -0.3727 -0.1067
 6539SOL    HW225922   5.146   2.579   2.395  0.5288  2.8623 -1.0726
 6539SOL    HW325923   5.278   2.506   2.387 -0.5100  0.4762  1.6243
 6539SOL    MW425924   5.213   2.549   2.349  0.1939  0.1662 -0.0057
 6540SOL     OW25925   0.481   1.311   4.547  0.8582 -0.2805  0.0628
 6540SOL    HW225926   0.534   1.233   4.561  1.2756 -0.3879 -1.8211
 6540SOL    HW325927   0.455   1.306   4.455 -1.7487  0.2058  0.7106
 6540SOL    MW425928   0.485   1.300   4.537  0.5693 -0.2305 -0.1003
 6541SOL     OW25929   2.197   1.334   2.685  0.2057 -0.0941 -0.0497
 6541SOL    HW225930   2.175   1.265   2.747  1.1382 -0.8873 -0.5693
 6541SOL    HW325931   2.293   1.332   2.681  0.1516 -0.2126 -1.6744
 6541SOL    MW425932   2.207   1.325   2.693  0.3216 -0.2144 -0.3326
 6542SOL     OW25933   0.152   6.215   5.486  0.1296  0.3790 -0.2869
 6542SOL    HW225934   0.223   6.263   5.443 -0.3129  0.3190 -1.1144
 6542SOL    HW325935   0.089   6.199   5.416 -0.5456  0.1391  0.3690
 6542SOL    MW425936   0.153   6.219   5.471 -0.0179  0.3394 -0.3095
 6543SOL     OW25937   4.352   5.984   4.092 -0.0515  0.3994 -0.2768
 6543SOL    HW225938   4.423   5.991   4.028 -0.5448 -0.3310 -0.9201
 6543SOL    HW325939   4.273   6.006   4.044 -0.6019 -1.4377 -0.3027
 6543SOL    MW425940   4.351   5.988   4.077 -0.1892  0.0607 -0.3651
 6544SOL     OW25941   3.851   0.500   1.910 -0.3828  0.2580  0.8044
 6544SOL    HW225942   3.916   0.453   1.857  0.3225  0.1372  1.7442
 6544SOL    HW325943   3.807   0.558   1.848 -1.0001 -1.3389 -0.3078
 6544SOL    MW425944   3.854   0.502   1.895 -0.3712  0.0313  0.7817
 6545SOL     OW25945   4.169   4.732   6.016 -1.2303 -0.0177  0.0993
 6545SOL    HW225946   4.208   4.819   6.003  0.0111 -0.6527 -0.5875
 6545SOL    HW325947   4.116   4.741   6.095 -1.1553  1.3704  0.0243
 6545SOL    MW425948   4.167   4.745   6.024 -1.0566  0.0816 -0.0012
 6546SOL     OW25949   4.159   5.186   5.322  0.4865  0.4851 -0.1260
 6546SOL    HW225950   4.068   5.178   5.351  0.9037 -0.6665  0.9863
 6546SOL    HW325951   4.168   5.277   5.294 -0.7411  0.8784  0.6767
 6546SOL    MW425952   4.149   5.197   5.322  0.3796  0.3850  0.1267
 6547SOL     OW25953   6.387   5.311   4.041  0.0380 -0.2402 -0.5574
 6547SOL    HW225954   6.455   5.260   3.997  0.2571 -0.7589  0.3354
 6547SOL    HW325955   6.387   5.277   4.131 -1.9566 -0.8319 -0.7244
 6547SOL    MW425956   6.396   5.300   4.047 -0.1963 -0.3867 -0.4617
 6548SOL     OW25957   2.886   2.092   2.521 -0.1405 -0.7901 -0.1183
 6548SOL    HW225958   2.873   2.176   2.565 -0.6332 -0.0059 -1.6909
 6548SOL    HW325959   2.919   2.035   2.589  0.3867  0.7296  0.9624
 6548SOL    MW425960   2.889   2.096   2.536 -0.1360 -0.4861 -0.1832
 6549SOL     OW25961   3.805   0.778   0.277 -0.0454 -0.0996 -0.2133
 6549SOL    HW225962   3.816   0.689   0.245  0.5987 -0.5201  1.1274
 6549SOL    HW325963   3.793   0.769   0.371 -1.2319  1.1519 -0.2092
 6549SOL    MW425964   3.804   0.765   0.285 -0.1170  0.0101 -0.0358
 6550SOL     OW25965   2.225   5.945   3.355 -0.6598 -0.2868  0.1197
 6550SOL    HW225966   2.212   5.864   3.306 -1.8442  0.3918 -0.7368
 6550SOL    HW325967   2.170   5.935   3.432 -0.5458 -0.4260  0.1850
 6550SOL    MW425968   2.216   5.933   3.359 -0.8010 -0.2156  0.0153
 6551SOL     OW25969   2.049   5.532   0.678 -0.5282 -0.4388 -0.3367
 6551SOL    HW225970   2.082   5.564   0.762  0.3719  0.0228 -0.8570
 6551SOL    HW325971   1.954   5.528   0.690 -0.4711  0.3041  0.4751
 6551SOL    MW425972   2.041   5.536   0.690 -0.4019 -0.2799 -0.2982
 6552SOL     OW25973   3.148   0.477   5.884 -0.5722 -0.2656 -0.3938
 6552SOL    HW225974   3.204   0.550   5.857  0.7707 -0.8266  0.7453
 6552SOL    HW325975   3.119   0.500   5.972 -0.3242 -0.9997 -0.1152
 6552SOL    MW425976   3.152   0.489   5.892 -0.3623 -0.4365 -0.2068
 6553SOL     OW25977   2.355   6.137   3.127  0.3855  0.5032 -0.1404
 6553SOL    HW225978   2.401   6.082   3.190 -0.9761 -0.4033  0.1018
 6553SOL    HW325979   2.264   6.108   3.131  0.5476 -1.1313 -4.0829
 6553SOL    MW425980   2.349   6.126   3.136  0.2272  0.1679 -0.6286
 6554SOL     OW25981   1.728   2.799   4.580  0.4256 -0.1266 -0.0765
 6554SOL    HW225982   1.802   2.759   4.534 -0.0495  1.6140 -2.5740
 6554SOL    HW325983   1.722   2.887   4.544 -2.2668  0.1199  0.7548
 6554SOL    MW425984   1.737   2.805   4.569  0.0077  0.1355 -0.2963
 6555SOL     OW25985   2.627   3.826   0.331 -0.3450  0.9788 -0.1685
 6555SOL    HW225986   2.592   3.765   0.396  0.3193 -0.1430 -0.8354
 6555SOL    HW325987   2.711   3.787   0.305  0.0542  2.1481 -0.6696
 6555SOL    MW425988   2.634   3.813   0.336 -0.2047  0.9851 -0.3226
 6556SOL     OW25989   5.687   2.407   2.153 -0.1676  0.4996  0.0602
 6556SOL    HW225990   5.712   2.435   2.065 -1.4145  1.7083  0.0464
 6556SOL    HW325991   5.770   2.387   2.196  0.3884 -2.8056 -2.1669
 6556SOL    MW425992   5.701   2.408   2.147 -0.2588  0.2230 -0.2355
 6557SOL     OW25993   4.896   2.321   5.633 -0.2053 -0.0281  0.0687
 6557SOL    HW225994   4.805   2.341   5.654 -0.8037 -0.7189 -1.6502
 6557SOL    HW325995   4.947   2.365   5.700 -1.6733  2.6920 -0.4760
 6557SOL    MW425996   4.891   2.329   5.645 -0.4780  0.2397 -0.2300
 6558SOL     OW25997   2.648   2.824   5.997  0.1752  0.1929 -0.1877
 6558SOL    HW225998   2.719   2.860   5.944  0.7210  2.2673  1.7689
 6558SOL    HW325999   2.581   2.892   5.999 -1.0397 -0.9348 -0.3815
 6558SOL    MW426000   2.648   2.837   5.991  0.0869  0.3178  0.0449
 6559SOL     OW26001   2.558   0.049   2.098 -0.0399  0.0225 -0.0193
 6559SOL    HW226002   2.614   0.025   2.025 -1.1410  1.4959 -1.4000
 6559SOL    HW326003   2.577   0.141   2.115 -0.8926  0.1139  0.5331
 6559SOL    MW426004   2.568   0.058   2.091 -0.2977  0.2290 -0.1286
 6560SOL     OW26005   1.422   6.140   2.570  0.0601 -0.0952 -0.0292
 6560SOL    HW226006   1.426   6.078   2.498 -0.1003 -0.4121  0.2313
 6560SOL    HW326007   1.412   6.225   2.528 -2.1936 -0.4547 -0.3764
 6560SOL    MW426008   1.421   6.143   2.555 -0.2584 -0.1844 -0.0406
 6561SOL     OW26009   3.582   0.245   2.526 -0.2494  0.2821 -0.1690
 6561SOL    HW226010   3.553   0.170   2.474  0.0955  1.3285 -1.9812
 6561SOL    HW326011   3.659   0.278   2.480 -0.2526  1.5986  0.7056
 6561SOL    MW426012   3.588   0.239   2.513 -0.2044  0.5938 -0.2927
 6562SOL     OW26013   4.356   6.033   4.474  0.1460  0.4731  0.6373
 6562SOL    HW226014   4.277   5.978   4.472  0.2645  0.3015 -1.4510
 6562SOL    HW326015   4.346   6.085   4.553 -1.8471  0.1095  0.6919
 6562SOL    MW426016   4.344   6.032   4.484 -0.1013  0.4025  0.3690
 6563SOL     OW26017   2.474   2.263   6.316  0.0161  0.1592  0.0640
 6563SOL    HW226018   2.476   2.275   6.221  1.4234  0.4276  0.0996
 6563SOL    HW326019   2.391   2.302   6.344 -0.7300 -0.5519 -1.1208
 6563SOL    MW426020   2.463   2.270   6.308  0.1034  0.1008 -0.0876
 6564SOL     OW26021   4.370   0.336   3.479 -0.0546 -0.0263  0.4187
 6564SOL    HW226022   4.360   0.417   3.528  0.1960 -0.3716  1.0504
 6564SOL    HW326023   4.332   0.355   3.393  1.1983  1.1746  0.0890
 6564SOL    MW426024   4.364   0.349   3.474  0.1437  0.0866  0.4586
 6565SOL     OW26025   5.956   4.986   3.861  0.0772 -0.4454 -0.5906
 6565SOL    HW226026   5.861   4.982   3.850  0.0422 -0.7636 -0.1762
 6565SOL    HW326027   5.976   4.920   3.927  0.6264 -0.6110 -0.9162
 6565SOL    MW426028   5.946   4.977   3.868  0.1450 -0.5092 -0.5789
 6566SOL     OW26029   4.825   5.322   2.785  0.2256  0.4460  0.0945
 6566SOL    HW226030   4.920   5.308   2.785 -0.0532 -2.0743  0.4572
 6566SOL    HW326031   4.808   5.374   2.863  1.3308  1.2269 -0.1670
 6566SOL    MW426032   4.835   5.327   2.796  0.3346  0.2165  0.1078
 6567SOL     OW26033   6.007   3.458   3.263 -0.4001  0.4291 -0.1111
 6567SOL    HW226034   6.076   3.449   3.197  0.5507  0.8096  0.7970
 6567SOL    HW326035   5.986   3.368   3.288 -0.6025  0.2915 -0.7465
 6567SOL    MW426036   6.014   3.444   3.257 -0.3014  0.4612 -0.0751
 6568SOL     OW26037   0.663   6.065   0.772  1.0788 -0.4669  0.2963
 6568SOL    HW226038   0.723   6.019   0.830  1.0879  0.2813  0.8913
 6568SOL    HW326039   0.610   5.995   0.732  2.9444 -1.2267 -0.9651
 6568SOL    MW426040   0.664   6.050   0.774  1.3262 -0.4684  0.2084
 6569SOL     OW26041   3.872   4.968   0.900  0.6218  0.1281  0.5238
 6569SOL    HW226042   3.863   5.062   0.888 -0.9599  0.0614  0.9040
 6569SOL    HW326043   3.964   4.950   0.882  0.8829  1.6892  0.1289
 6569SOL    MW426044   3.883   4.978   0.896  0.4476  0.3253  0.5219
 6570SOL     OW26045   5.719   4.337   0.577 -0.0697  0.4458 -0.1894
 6570SOL    HW226046   5.727   4.351   0.482  1.0795  2.5979  0.1402
 6570SOL    HW326047   5.721   4.426   0.614 -3.4110 -0.1025  1.7150
 6570SOL    MW426048   5.720   4.351   0.569 -0.3589  0.6574  0.1053
 6571SOL     OW26049   2.642   0.288   1.075 -0.4037 -0.6489 -0.4804
 6571SOL    HW226050   2.547   0.294   1.080 -0.4052  0.2611 -1.3576
 6571SOL    HW326051   2.658   0.223   1.007 -0.4446  1.3901 -2.5557
 6571SOL    MW426052   2.632   0.280   1.067 -0.4093 -0.2598 -0.8700
 6572SOL     OW26053   4.168   0.515   5.513  0.4737 -0.9096 -0.5792
 6572SOL    HW226054   4.246   0.546   5.558 -0.3954  0.2965  0.1703
 6572SOL    HW326055   4.144   0.434   5.559 -0.0861  0.0138  0.8389
 6572SOL    MW426056   4.175   0.509   5.525  0.2851 -0.6286 -0.2932
 6573SOL     OW26057   4.588   4.573   5.191  0.1600 -0.1351 -0.3138
 6573SOL    HW226058   4.630   4.510   5.132  0.5177 -1.9078  1.7293
 6573SOL    HW326059   4.556   4.642   5.133  0.5153 -1.7563 -2.5694
 6573SOL    MW426060   4.589   4.574   5.176  0.2541 -0.5829 -0.3418
 6574SOL     OW26061   6.377   6.315   4.659 -0.0531 -0.4985 -0.1266
 6574SOL    HW226062   6.417   6.250   4.717  1.3513  2.1003  2.0280
 6574SOL    HW326063   6.294   6.337   4.702  0.4651  0.6135  0.3452
 6574SOL    MW426064   6.371   6.309   4.672  0.2006 -0.0089  0.2199
 6575SOL     OW26065   1.954   2.401   2.675 -0.3079  0.1309 -0.2281
 6575SOL    HW226066   1.992   2.320   2.642 -0.0918  0.2813 -0.3513
 6575SOL    HW326067   1.908   2.376   2.755  0.1482 -0.0301 -0.0158
 6575SOL    MW426068   1.953   2.387   2.681 -0.2192  0.1295 -0.2164
 6576SOL     OW26069   2.204   5.814   5.867  0.3750  0.4628  0.1947
 6576SOL    HW226070   2.267   5.870   5.821  1.1341  0.8712  1.6631
 6576SOL    HW326071   2.202   5.849   5.955 -1.2961 -0.0931  0.4008
 6576SOL    MW426072   2.212   5.826   5.872  0.2547  0.4433  0.4156
 6577SOL     OW26073   2.787   4.285   4.634  0.2936 -0.4243  0.3876
 6577SOL    HW226074   2.781   4.376   4.604 -0.7145 -1.1000 -1.6285
 6577SOL    HW326075   2.874   4.256   4.608  0.5366 -0.1056  0.8396
 6577SOL    MW426076   2.797   4.293   4.627  0.1927 -0.4714  0.1812
 6578SOL     OW26077   1.872   1.996   1.594 -0.1554  0.3756 -0.3887
 6578SOL    HW226078   1.898   2.088   1.587  0.9758  0.3199  2.2114
 6578SOL    HW326079   1.778   1.999   1.613  0.2012  1.1363  1.4687
 6578SOL    MW426080   1.863   2.009   1.595  0.0409  0.4686  0.1994
 6579SOL     OW26081   4.171   5.470   5.513  0.3650 -0.3452  0.5370
 6579SOL    HW226082   4.077   5.477   5.497  0.4526 -0.0660  0.1062
 6579SOL    HW326083   4.179   5.412   5.588 -0.3135  2.0393  2.5951
 6579SOL    MW426084   4.160   5.463   5.521  0.2870  0.0062  0.7517
 6580SOL     OW26085   1.672   4.413   1.038 -0.3562  0.5352 -0.1342
 6580SOL    HW226086   1.715   4.330   1.018  2.2122  1.3526  1.4416
 6580SOL    HW326087   1.741   4.479   1.024 -1.4239  2.0913  1.4417
 6580SOL    MW426088   1.687   4.411   1.033 -0.1582  0.8483  0.2816
 6581SOL     OW26089   3.274   5.126   0.253 -0.4510 -0.1277 -0.3796
 6581SOL    HW226090   3.346   5.116   0.315 -2.0137 -0.6311  1.4509
 6581SOL    HW326091   3.276   5.218   0.228  1.4094 -0.3387 -1.1708
 6581SOL    MW426092   3.283   5.137   0.258 -0.4117 -0.2219 -0.2425
 6582SOL     OW26093   0.399   2.115   2.654  0.5544  0.0402  0.0683
 6582SOL    HW226094   0.348   2.075   2.584  0.8604  0.0097 -0.1377
 6582SOL    HW326095   0.423   2.201   2.620 -0.1976  0.4549  0.5520
 6582SOL    MW426096   0.395   2.121   2.641  0.4955  0.0909  0.1049
 6583SOL     OW26097   3.535   1.160   0.543 -0.0786 -0.3429  0.1324
 6583SOL    HW226098   3.496   1.184   0.628 -0.2036 -0.8601  0.2225
 6583SOL    HW326099   3.496   1.075   0.522 -0.6022  0.0990 -0.7876
 6583SOL    MW426100   3.525   1.152   0.551 -0.1641 -0.3528  0.0229
 6584SOL     OW26101   1.832   1.671   0.642  0.2447  0.4726 -0.2608
 6584SOL    HW226102   1.923   1.693   0.621  0.3878  1.1926  1.0340
 6584SOL    HW326103   1.826   1.679   0.737 -1.5866  2.1302 -0.4489
 6584SOL    MW426104   1.843   1.675   0.651  0.0220  0.7863 -0.1147
 6585SOL     OW26105   0.117   1.790   0.698  0.5643  0.2760  0.0781
 6585SOL    HW226106   0.129   1.854   0.769  0.4206 -0.7684  1.0862
 6585SOL    HW326107   0.142   1.707   0.738 -1.6779 -0.6995 -0.3732
 6585SOL    MW426108   0.122   1.788   0.713  0.2495  0.0095  0.1515
 6586SOL     OW26109   2.942   1.196   5.016 -0.7990  0.1896 -0.0168
 6586SOL    HW226110   3.029   1.169   5.046 -0.9982 -0.8090 -0.2824
 6586SOL    HW326111   2.938   1.165   4.925 -0.8435  1.6581 -0.5366
 6586SOL    MW426112   2.953   1.188   5.008 -0.8312  0.2516 -0.1204
 6587SOL     OW26113   2.135   0.405   4.639  0.3394  0.0530  0.6832
 6587SOL    HW226114   2.187   0.485   4.642  0.9374 -0.1669 -2.0509
 6587SOL    HW326115   2.048   0.435   4.612 -0.1844  0.0390  2.2392
 6587SOL    MW426116   2.130   0.420   4.636  0.3492  0.0221  0.5278
 6588SOL     OW26117   2.052   0.375   6.055 -0.3092 -0.0059 -0.4115
 6588SOL    HW226118   2.018   0.295   6.095 -0.1286 -0.0994 -0.4448
 6588SOL    HW326119   1.985   0.442   6.074 -0.4623 -0.1657 -0.3903
 6588SOL    MW426120   2.039   0.374   6.063 -0.3056 -0.0393 -0.4131
 6589SOL     OW26121   4.397   4.579   3.294 -0.3652  0.2120 -0.4668
 6589SOL    HW226122   4.444   4.661   3.309  0.3618 -0.3250  0.2943
 6589SOL    HW326123   4.318   4.587   3.346 -0.5573  0.6445 -0.8188
 6589SOL    MW426124   4.393   4.591   3.302 -0.2946  0.1982 -0.4128
 6590SOL     OW26125   4.996   1.848   5.999  0.5447  0.5176 -0.1017
 6590SOL    HW226126   4.955   1.776   6.047 -0.1410  1.0270  0.1054
 6590SOL    HW326127   5.083   1.816   5.975 -0.2588 -0.9005 -1.2471
 6590SOL    MW426128   5.002   1.834   6.002  0.3482  0.3977 -0.2255
 6591SOL     OW26129   1.528   3.410   4.143 -0.1137  0.1876 -0.4587
 6591SOL    HW226130   1.536   3.358   4.223  2.6641  0.4190 -0.4813
 6591SOL    HW326131   1.454   3.468   4.159 -1.8881 -2.1806  0.4665
 6591SOL    MW426132   1.520   3.411   4.156  0.0187 -0.0943 -0.3396
 6592SOL     OW26133   1.954   1.781   3.031  0.0563 -0.4811 -0.2726
 6592SOL    HW226134   2.037   1.821   3.057 -0.0396  0.6925 -1.6292
 6592SOL    HW326135   1.904   1.776   3.112  0.9606 -0.0016  0.3449
 6592SOL    MW426136   1.959   1.786   3.045  0.1630 -0.2630 -0.3701
 6593SOL     OW26137   1.723   6.072   3.539  0.1686  0.0272  0.2524
 6593SOL    HW226138   1.679   6.152   3.510  2.0478  1.2816  0.6911
 6593SOL    HW326139   1.814   6.084   3.511  1.1816 -0.5014  3.0661
 6593SOL    MW426140   1.729   6.084   3.531  0.5502  0.1230  0.6815
 6594SOL     OW26141   3.374   4.505   1.304  0.1575  0.2764 -0.4760
 6594SOL    HW226142   3.418   4.486   1.220  0.4594 -0.0249 -0.2546
 6594SOL    HW326143   3.296   4.553   1.279  0.8829  1.2968 -0.8418
 6594SOL    MW426144   3.370   4.509   1.290  0.2931  0.3713 -0.4950
 6595SOL     OW26145   4.134   3.479   2.917 -0.3000  0.2601 -0.5133
 6595SOL    HW226146   4.115   3.409   2.980  0.1174 -1.5230 -2.2622
 6595SOL    HW326147   4.049   3.516   2.896 -0.4472  0.8620  1.0344
 6595SOL    MW426148   4.120   3.474   2.922 -0.2644  0.1043 -0.5398
 6596SOL     OW26149   1.702   4.512   4.754 -0.1348  0.0697 -0.0641
 6596SOL    HW226150   1.788   4.490   4.718  0.3595  0.8794  0.5791
 6596SOL    HW326151   1.721   4.574   4.825 -1.2286  0.0310  0.2810
 6596SOL    MW426152   1.716   4.518   4.759 -0.2139  0.1714  0.0663
 6597SOL     OW26153   0.541   1.321   6.222  0.3007  0.1483 -0.9000
 6597SOL    HW226154   0.452   1.313   6.188  0.1335  2.5193 -1.1727
 6597SOL    HW326155   0.594   1.342   6.146  1.2673 -1.7619 -0.8311
 6597SOL    MW426156   0.536   1.322   6.208  0.4062  0.2091 -0.9269
 6598SOL     OW26157   2.357   1.589   3.191 -0.0278  0.1757 -0.2952
 6598SOL    HW226158   2.391   1.499   3.193 -0.1188  0.1199 -0.9413
 6598SOL    HW326159   2.298   1.591   3.116  0.6491  1.0059 -0.8363
 6598SOL    MW426160   2.354   1.578   3.181  0.0495  0.2779 -0.4518
 6599SOL     OW26161   3.070   3.564   2.201  0.3523 -0.0066 -0.2043
 6599SOL    HW226162   3.059   3.634   2.137 -0.0744  1.4367  1.3501
 6599SOL    HW326163   3.164   3.546   2.200  0.1022 -1.7426 -2.8634
 6599SOL    MW426164   3.081   3.571   2.193  0.2630 -0.0452 -0.3501
 6600SOL     OW26165   5.487   4.014   4.102 -0.3544  0.6028  0.0499
 6600SOL    HW226166   5.487   4.019   4.006 -0.8267  1.4536  0.0884
 6600SOL    HW326167   5.567   3.965   4.123 -0.5455 -0.1098 -0.7946
 6600SOL    MW426168   5.498   4.008   4.092 -0.4419  0.6211 -0.0564
 6601SOL     OW26169   1.669   5.890   3.315  0.2486 -0.1111  0.0880
 6601SOL    HW226170   1.686   5.959   3.380  2.5407  0.1709 -0.7231
 6601SOL    HW326171   1.583   5.912   3.279 -0.7417  0.1459  2.4490
 6601SOL    MW426172   1.660   5.902   3.319  0.4203 -0.0400  0.2925
 6602SOL     OW26173   4.089   4.057   3.358 -0.6090  0.8176 -0.2306
 6602SOL    HW226174   4.039   3.977   3.342  0.9711 -0.3474  0.4628
 6602SOL    HW326175   4.162   4.052   3.297  0.4457  0.8598  0.9933
 6602SOL    MW426176   4.092   4.046   3.348 -0.2614  0.6695  0.0224
 6603SOL     OW26177   5.216   0.591   4.800  0.0587  0.5327  0.0705
 6603SOL    HW226178   5.300   0.619   4.835 -0.1431  2.7712 -1.0301
 6603SOL    HW326179   5.177   0.671   4.765 -0.7817 -1.0727 -3.0329
 6603SOL    MW426180   5.222   0.606   4.800 -0.0788  0.6162 -0.4841
 6604SOL     OW26181   6.286   0.757   0.234 -0.1186 -0.7104 -0.3835
 6604SOL    HW226182   6.326   0.821   0.175  0.2246 -0.0693  0.5257
 6604SOL    HW326183   6.359   0.721   0.284 -0.4159 -1.1645 -0.2747
 6604SOL    MW426184   6.301   0.761   0.233 -0.1125 -0.6857 -0.2492
 6605SOL     OW26185   2.152   2.280   0.504 -0.1313 -0.0628  0.0848
 6605SOL    HW226186   2.187   2.319   0.584 -0.0148  0.9646 -0.4377
 6605SOL    HW326187   2.078   2.227   0.533  0.3909 -0.3297  0.9488
 6605SOL    MW426188   2.147   2.278   0.518 -0.0470  0.0376  0.1298
 6606SOL     OW26189   3.022   1.948   3.177  0.1414 -0.0519 -0.2730
 6606SOL    HW226190   2.997   1.914   3.091  0.6031  0.9949 -0.8500
 6606SOL    HW326191   2.970   2.027   3.187 -0.7338 -0.7596  0.9291
 6606SOL    MW426192   3.012   1.954   3.167  0.0869 -0.0072 -0.1905
 6607SOL     OW26193   0.137   0.230   0.913  0.2308 -0.2185  0.1138
 6607SOL    HW226194   0.215   0.284   0.900  0.2586 -0.5525 -1.4042
 6607SOL    HW326195   0.161   0.145   0.876 -1.6925  0.4272 -3.0280
 6607SOL    MW426196   0.150   0.226   0.906 -0.0193 -0.1774 -0.5010
 6608SOL     OW26197   1.373   1.993   2.460 -0.4367 -0.6336 -0.7360
 6608SOL    HW226198   1.312   1.986   2.534 -0.3056 -2.5128 -0.7619
 6608SOL    HW326199   1.356   2.080   2.424 -1.2853 -0.1029  0.8179
 6608SOL    MW426200   1.362   2.004   2.465 -0.5313 -0.8115 -0.5344
 6609SOL     OW26201   0.855   0.743   5.567 -0.4126 -0.4039  0.4315
 6609SOL    HW226202   0.815   0.661   5.595 -0.5320 -0.1870  0.9177
 6609SOL    HW326203   0.807   0.811   5.615  1.5830 -0.2244  2.3474
 6609SOL    MW426204   0.843   0.741   5.577 -0.1650 -0.3516  0.7485
 6610SOL     OW26205   3.170   4.064   2.720 -0.7903  0.0272 -0.0545
 6610SOL    HW226206   3.145   3.974   2.700  1.6782 -1.5340  2.9044
 6610SOL    HW326207   3.101   4.095   2.780 -0.9671 -0.4099 -0.0257
 6610SOL    MW426208   3.157   4.056   2.726 -0.4880 -0.2364  0.3397
 6611SOL     OW26209   6.365   2.221   3.119  0.3167 -0.4963  0.1500
 6611SOL    HW226210   6.410   2.299   3.086 -2.0421 -0.0293 -2.3921
 6611SOL    HW326211   6.396   2.149   3.064 -0.8893 -0.4213 -0.6780
 6611SOL    MW426212   6.375   2.222   3.108 -0.1537 -0.4248 -0.2947
 6612SOL     OW26213   5.631   5.713   4.642 -0.0424  0.5735  0.0076
 6612SOL    HW226214   5.619   5.755   4.727  0.5570  1.1779 -0.1963
 6612SOL    HW326215   5.716   5.669   4.649 -0.6690 -0.6391  0.2212
 6612SOL    MW426216   5.641   5.713   4.654 -0.0460  0.4932  0.0089
 6613SOL     OW26217   3.314   0.539   4.082  0.5329 -0.3814  0.3755
 6613SOL    HW226218   3.409   0.536   4.069  0.4342  2.6258 -2.0196
 6613SOL    HW326219   3.302   0.598   4.157  0.4907 -1.9811  1.7038
 6613SOL    MW426220   3.325   0.546   4.090  0.5143 -0.1957  0.2348
 6614SOL     OW26221   3.536   0.543   1.584 -0.5559 -1.2359  0.4296
 6614SOL    HW226222   3.499   0.519   1.669 -0.6628  1.1828  1.1506
 6614SOL    HW326223   3.473   0.605   1.548 -1.4664 -3.6019 -2.3379
 6614SOL    MW426224   3.523   0.548   1.591 -0.6901 -1.2290  0.1596
 6615SOL     OW26225   3.468   5.462   4.365  0.1409 -0.0532  0.1810
 6615SOL    HW226226   3.449   5.375   4.400 -0.5938 -0.2015 -0.5804
 6615SOL    HW326227   3.499   5.511   4.441 -0.1194 -0.7698  0.7663
 6615SOL    MW426228   3.470   5.457   4.380  0.0096 -0.1673  0.1578
 6616SOL     OW26229   4.731   3.196   6.171  0.3567  0.2335  0.6543
 6616SOL    HW226230   4.773   3.143   6.104  0.9524  0.9328  0.4682
 6616SOL    HW326231   4.655   3.144   6.198  0.9927 -0.7627  0.5693
 6616SOL    MW426232   4.726   3.182   6.166  0.5192  0.1943  0.6185
 6617SOL     OW26233   5.347   4.180   2.352 -0.5497  0.1335 -0.0749
 6617SOL    HW226234   5.420   4.213   2.300 -1.2242  0.1255 -1.0746
 6617SOL    HW326235   5.308   4.259   2.390 -1.1973  0.3575 -1.1597
 6617SOL    MW426236   5.351   4.195   2.350 -0.7241  0.1620 -0.3499
 6618SOL     OW26237   5.809   6.068   1.834 -0.4289 -0.2029 -0.0754
 6618SOL    HW226238   5.827   6.009   1.908  1.7085  0.1713 -0.2144
 6618SOL    HW326239   5.878   6.134   1.840 -2.7929  2.4182  0.1416
 6618SOL    MW426240   5.821   6.069   1.845 -0.4588  0.1923 -0.0651
 6619SOL     OW26241   6.345   6.129   2.950  0.1848  0.3744  0.0526
 6619SOL    HW226242   6.326   6.041   2.919  1.6502 -0.9437  2.5840
 6619SOL    HW326243   6.395   6.169   2.879 -0.8373 -0.6477 -1.3002
 6619SOL    MW426244   6.349   6.123   2.936  0.2433  0.0657  0.2081
 6620SOL     OW26245   0.550   2.444   4.124  0.2552  0.0152  0.0231
 6620SOL    HW226246   0.628   2.494   4.149  1.0834 -1.2065 -0.0537
 6620SOL    HW326247   0.551   2.446   4.028 -1.0172  1.7761 -0.0173
 6620SOL    MW426248   0.561   2.451   4.115  0.1966  0.0863  0.0077
 6621SOL     OW26249   5.441   4.225   2.770 -0.2078  0.1184 -0.2474
 6621SOL    HW226250   5.352   4.195   2.787  0.7314 -2.0560  1.2365
 6621SOL    HW326251   5.430   4.312   2.732 -2.9351  0.1423  0.4045
 6621SOL    MW426252   5.428   4.233   2.768 -0.4437 -0.1654  0.0344
 6622SOL     OW26253   4.305   3.285   3.996 -0.5772  0.5614 -0.0006
 6622SOL    HW226254   4.230   3.284   3.936 -0.6271 -0.3322  0.0560
 6622SOL    HW326255   4.269   3.318   4.079 -0.2444  2.9694 -0.7475
 6622SOL    MW426256   4.290   3.289   3.999 -0.5399  0.7612 -0.0917
 6623SOL     OW26257   0.269   4.036   1.328 -0.2319  0.6964  0.2162
 6623SOL    HW226258   0.214   4.104   1.290  0.6254  1.5860  0.5171
 6623SOL    HW326259   0.338   4.084   1.375 -0.2781 -0.3652  1.4268
 6623SOL    MW426260   0.271   4.051   1.329 -0.1249  0.6737  0.4156
 6624SOL     OW26261   6.059   2.194   5.571  0.1302 -0.1587 -0.2586
 6624SOL    HW226262   6.107   2.177   5.652 -0.9110  0.2054  0.4667
 6624SOL    HW326263   6.016   2.279   5.586  1.4476  0.8914 -1.9564
 6624SOL    MW426264   6.060   2.203   5.584  0.1666  0.0279 -0.3869
 6625SOL     OW26265   4.739   1.592   5.826 -0.0271  0.0150 -0.0145
 6625SOL    HW226266   4.699   1.507   5.845 -0.0484 -0.0259 -0.2443
 6625SOL    HW326267   4.782   1.580   5.741 -0.4470  0.3808 -0.2819
 6625SOL    MW426268   4.740   1.579   5.817 -0.0853  0.0578 -0.0801
 6626SOL     OW26269   1.789   1.825   0.229 -0.0095 -0.2446 -0.0624
 6626SOL    HW226270   1.728   1.851   0.161  0.6936  0.2218 -0.5265
 6626SOL    HW326271   1.842   1.756   0.189 -1.7646 -2.3984  1.1073
 6626SOL    MW426272   1.788   1.819   0.215 -0.1483 -0.4672  0.0307
 6627SOL     OW26273   0.142   1.222   5.829  0.3104  0.4608 -0.4921
 6627SOL    HW226274   0.135   1.176   5.913  0.0781  0.2594 -0.6207
 6627SOL    HW326275   0.053   1.252   5.811 -0.1302 -1.4479 -1.7658
 6627SOL    MW426276   0.129   1.220   5.838  0.2216  0.1824 -0.6771
 6628SOL     OW26277   1.411   3.774   3.144 -0.4941 -0.1908 -0.5928
 6628SOL    HW226278   1.394   3.785   3.050 -1.3900  0.0386 -0.4046
 6628SOL    HW326279   1.455   3.689   3.150  1.1932  0.5646 -1.4050
 6628SOL    MW426280   1.415   3.764   3.132 -0.3897 -0.0608 -0.6751
 6629SOL     OW26281   3.263   6.156   4.534  0.3231 -0.4195 -0.2148
 6629SOL    HW226282   3.179   6.174   4.576  0.0357 -1.8337 -0.1578
 6629SOL    HW326283   3.323   6.219   4.574 -0.8433  1.1997 -0.8577
 6629SOL    MW426284   3.260   6.167   4.545  0.1313 -0.3924 -0.2921
 6630SOL     OW26285   2.994   5.100   5.873 -0.1062  0.7288  0.7462
 6630SOL    HW226286   3.029   5.108   5.962 -2.1135  0.1426  1.6423
 6630SOL    HW326287   2.906   5.065   5.885  0.1687 -0.9733 -1.5894
 6630SOL    MW426288   2.987   5.097   5.886 -0.3348  0.4269  0.5563
 6631SOL     OW26289   4.354   3.370   2.195  0.7248  0.3346  0.2576
 6631SOL    HW226290   4.431   3.363   2.250  1.2657 -1.6560 -0.6543
 6631SOL    HW326291   4.386   3.353   2.106 -0.3957  1.7880 -0.4864
 6631SOL    MW426292   4.369   3.367   2.190  0.6483  0.2637  0.0391
 6632SOL     OW26293   3.286   0.262   6.158 -0.4067  0.3395 -0.0475
 6632SOL    HW226294   3.196   0.253   6.127  0.1454  0.7747 -1.8714
 6632SOL    HW326295   3.331   0.184   6.125 -0.1230  0.0347  1.0046
 6632SOL    MW426296   3.280   0.251   6.150 -0.2964  0.3567 -0.1493
 6633SOL     OW26297   1.404   4.296   1.209 -0.3246  0.3246  0.5277
 6633SOL    HW226298   1.460   4.367   1.242  1.0021 -1.3979  2.1506
 6633SOL    HW326299   1.441   4.275   1.123 -0.0117  0.8192  0.5333
 6633SOL    MW426300   1.416   4.303   1.202 -0.1083  0.1626  0.7426
 6634SOL     OW26301   4.596   5.953   4.944  0.1369  0.5363 -0.1492
 6634SOL    HW226302   4.571   5.909   4.863 -0.3167 -0.0940  0.3182
 6634SOL    HW326303   4.579   6.046   4.928  1.5528  0.6262 -1.3166
 6634SOL    MW426304   4.591   5.959   4.931  0.2639  0.4650 -0.2416
 6635SOL     OW26305   2.784   1.690   3.657  0.7281 -0.4735 -0.1799
 6635SOL    HW226306   2.799   1.704   3.751  1.1888 -0.4513 -0.2559
 6635SOL    HW326307   2.779   1.595   3.648 -1.0264 -0.4476  0.1228
 6635SOL    MW426308   2.785   1.679   3.669  0.5574 -0.4671 -0.1500
 6636SOL     OW26309   0.900   4.944   4.626 -0.0231 -0.7877 -0.5174
 6636SOL    HW226310   0.932   5.022   4.671  0.5390 -0.7944 -0.9030
 6636SOL    HW326311   0.920   4.872   4.686  0.7308 -0.7984 -0.7773
 6636SOL    MW426312   0.907   4.945   4.640  0.1505 -0.7900 -0.6026
 6637SOL     OW26313   2.699   2.055   1.488  0.2845  0.0094 -0.5819
 6637SOL    HW226314   2.617   2.052   1.439 -0.7981  1.2557  1.0789
 6637SOL    HW326315   2.720   1.963   1.504 -0.1573 -0.3726 -1.9668
 6637SOL    MW426316   2.691   2.043   1.483  0.0834  0.1234 -0.5455
 6638SOL     OW26317   0.143   0.425   3.085  0.1258 -0.5676  0.5332
 6638SOL    HW226318   0.111   0.466   3.166  0.6743  0.1554  0.3904
 6638SOL    HW326319   0.066   0.381   3.049 -0.2372 -0.5054  1.2079
 6638SOL    MW426320   0.128   0.425   3.091  0.1503 -0.4640  0.6034
 6639SOL     OW26321   1.753   5.447   0.106 -0.2192 -0.4215  0.8002
 6639SOL    HW226322   1.847   5.435   0.091  0.1247  1.8444  0.6473
 6639SOL    HW326323   1.714   5.445   0.018 -0.0224  0.4293  0.6822
 6639SOL    MW426324   1.760   5.445   0.092 -0.1479 -0.0103  0.7644
 6640SOL     OW26325   1.554   2.205   2.901 -0.1990 -0.4938 -0.1940
 6640SOL    HW226326   1.511   2.258   2.835 -1.8834  0.3800  1.4991
 6640SOL    HW326327   1.633   2.255   2.924  0.4148 -0.8186 -1.4853
 6640SOL    MW426328   1.559   2.219   2.896 -0.3403 -0.4213 -0.1410
 6641SOL     OW26329   5.733   1.841   2.189 -0.5170 -0.2970  0.0130
 6641SOL    HW226330   5.747   1.746   2.194 -0.6844 -0.3506 -0.5665
 6641SOL    HW326331   5.751   1.864   2.098 -1.0294  0.1403  0.0173
 6641SOL    MW426332   5.737   1.831   2.178 -0.6067 -0.2464 -0.0629
 6642SOL     OW26333   5.252   1.915   3.873  0.1749  0.2225 -0.5946
 6642SOL    HW226334   5.318   1.898   3.940 -1.8044 -0.0359  1.4485
 6642SOL    HW326335   5.256   2.009   3.859 -0.3466  0.5302  1.0685
 6642SOL    MW426336   5.261   1.925   3.880 -0.1551  0.2290 -0.1056
 6643SOL     OW26337   5.720   2.902   5.089  0.3135 -0.0219  0.2120
 6643SOL    HW226338   5.680   2.817   5.072 -1.4881  0.8558 -0.1250
 6643SOL    HW326339   5.653   2.953   5.134  0.9394  1.5942 -0.5657
 6643SOL    MW426340   5.706   2.898   5.093  0.1584  0.3072  0.0649
 6644SOL     OW26341   2.662   4.223   5.786 -0.4194 -0.1367 -0.0137
 6644SOL    HW226342   2.643   4.166   5.860 -0.7591  1.3085  1.0468
 6644SOL    HW326343   2.665   4.311   5.823  0.5041  0.5165 -1.5330
 6644SOL    MW426344   2.660   4.227   5.801 -0.3424  0.1402 -0.0742
 6645SOL     OW26345   5.273   5.383   0.375 -0.2977  0.4391 -0.1162
 6645SOL    HW226346   5.265   5.473   0.406 -0.3918 -0.2425  2.0148
 6645SOL    HW326347   5.182   5.353   0.365 -0.2802  0.2907  0.1495
 6645SOL    MW426348   5.260   5.391   0.378 -0.3078  0.3296  0.2001
 6646SOL     OW26349   2.198   1.245   2.430  0.2628  0.0632 -0.4940
 6646SOL    HW226350   2.111   1.211   2.411  0.2026  0.1827 -0.4306
 6646SOL    HW326351   2.193   1.274   2.521  1.0263 -2.0978  0.3052
 6646SOL    MW426352   2.186   1.244   2.440  0.3556 -0.2062 -0.3802
 6647SOL     OW26353   1.460   5.343   5.370  0.0882 -0.2802  0.0414
 6647SOL    HW226354   1.520   5.273   5.345  0.9029  1.2878 -2.8714
 6647SOL    HW326355   1.373   5.310   5.348  0.4683 -0.4487 -1.3195
 6647SOL    MW426356   1.456   5.330   5.364  0.2459 -0.0956 -0.5225
 6648SOL     OW26357   3.519   3.697   4.942 -0.1420  0.0836  0.3173
 6648SOL    HW226358   3.428   3.693   4.912  0.1569  2.6267 -1.1531
 6648SOL    HW326359   3.531   3.787   4.971  2.3411  0.2688 -1.0378
 6648SOL    MW426360   3.508   3.708   4.942  0.2251  0.4436 -0.0555
 6649SOL     OW26361   3.831   3.208   0.519  0.2380 -0.1740  0.2318
 6649SOL    HW226362   3.857   3.122   0.551 -0.0750 -0.5970 -0.6318
 6649SOL    HW326363   3.770   3.240   0.585  0.2374 -0.6725  0.4798
 6649SOL    MW426364   3.827   3.201   0.532  0.1966 -0.2955  0.1506
 6650SOL     OW26365   0.851   0.829   1.012 -0.0861  0.2195 -0.1010
 6650SOL    HW226366   0.921   0.893   0.998 -0.4486  0.5774 -0.3253
 6650SOL    HW326367   0.863   0.764   0.943  1.8075 -1.3709  1.5903
 6650SOL    MW426368   0.862   0.829   1.001  0.1159  0.0569  0.0926
 6651SOL     OW26369   0.987   1.557   5.639  0.0112 -0.1636 -0.2853
 6651SOL    HW226370   1.050   1.614   5.683 -0.0086 -1.1076  1.0380
 6651SOL    HW326371   0.912   1.613   5.621 -0.0600  0.2237  1.1106
 6651SOL    MW426372   0.985   1.572   5.643 -0.0008 -0.2370  0.0734
 6652SOL     OW26373   4.115   4.325   4.767 -0.2212  0.2486 -0.3067
 6652SOL    HW226374   4.129   4.289   4.679 -0.7888 -0.2275 -0.2104
 6652SOL    HW326375   4.061   4.403   4.753  0.5226  0.7433 -0.4638
 6652SOL    MW426376   4.110   4.330   4.753 -0.1980  0.2510 -0.3147
 6653SOL     OW26377   2.390   2.821   5.037  0.3574 -0.2075 -0.0966
 6653SOL    HW226378   2.307   2.804   5.082 -0.5210  1.3205 -1.0519
 6653SOL    HW326379   2.378   2.907   4.997  2.3164 -0.0815 -0.4963
 6653SOL    MW426380   2.377   2.830   5.038  0.5000  0.0107 -0.2754
 6654SOL     OW26381   2.037   4.589   3.399  0.2791  0.5055 -0.0052
 6654SOL    HW226382   2.126   4.588   3.433  0.6726 -1.9814 -0.8693
 6654SOL    HW326383   1.981   4.587   3.477  0.9906  0.9271  0.5270
 6654SOL    MW426384   2.041   4.588   3.414  0.4249  0.2330 -0.0490
 6655SOL     OW26385   1.815   6.376   3.647  0.3598 -0.0003 -0.4273
 6655SOL    HW226386   1.828   6.459   3.692  0.9786 -0.1215 -0.3636
 6655SOL    HW326387   1.769   6.321   3.711  0.7751 -0.0033 -0.1206
 6655SOL    MW426388   1.811   6.379   3.662  0.4962 -0.0167 -0.3785
 6656SOL     OW26389   3.179   5.395   2.672  0.0511  0.2164  0.0294
 6656SOL    HW226390   3.183   5.491   2.676  1.2625  0.2277 -0.7759
 6656SOL    HW326391   3.220   5.374   2.588 -1.9747 -0.9184 -0.7234
 6656SOL    MW426392   3.185   5.405   2.661 -0.0564  0.0682 -0.1762
 6657SOL     OW26393   4.070   4.270   5.399  0.2285  0.0633  0.1531
 6657SOL    HW226394   4.157   4.268   5.359 -0.4611 -0.5979 -1.4122
 6657SOL    HW326395   4.012   4.304   5.331 -1.0619 -1.4254  0.4233
 6657SOL    MW426396   4.073   4.274   5.385 -0.0327 -0.2204 -0.0177
 6658SOL     OW26397   5.936   1.338   5.108 -0.1034 -0.6804  0.7894
 6658SOL    HW226398   5.878   1.401   5.067  0.7708 -0.1418  0.3457
 6658SOL    HW326399   5.927   1.353   5.202  0.0376  0.0571  0.6877
 6658SOL    MW426400   5.927   1.348   5.115  0.0305 -0.5120  0.7175
 6659SOL     OW26401  -0.025   3.298   3.928 -0.1631 -0.7011 -0.6547
 6659SOL    HW226402  -0.113   3.311   3.892 -1.0523 -3.3334  0.3939
 6659SOL    HW326403   0.025   3.261   3.855 -0.7422 -1.9073 -0.4523
 6659SOL    MW426404  -0.030   3.295   3.913 -0.3568 -1.2076 -0.4896
 6660SOL     OW26405   3.193   3.975   6.306 -0.6218 -0.1069  0.0059
 6660SOL    HW226406   3.242   3.992   6.226 -0.6793  0.8127  0.1578
 6660SOL    HW326407   3.185   4.060   6.349 -0.7267 -0.5568  0.9172
 6660SOL    MW426408   3.198   3.988   6.301 -0.6432 -0.0450  0.1462
 6661SOL     OW26409   0.685   6.035   0.095 -0.0438 -0.1534  0.1176
 6661SOL    HW226410   0.720   6.091   0.026 -1.2522 -0.0410 -0.4267
 6661SOL    HW326411   0.686   6.091   0.173 -0.1519  0.2391 -0.1581
 6661SOL    MW426412   0.690   6.050   0.096 -0.2175 -0.0868  0.0094
 6662SOL     OW26413   3.749   3.919   2.912  1.0067  0.5852 -0.1585
 6662SOL    HW226414   3.741   3.912   3.007  0.6363  1.9703 -0.0576
 6662SOL    HW326415   3.842   3.902   2.894  0.7762 -1.2311  0.2648
 6662SOL    MW426416   3.761   3.916   2.922  0.9274  0.5283 -0.0893
 6663SOL     OW26417   5.647   3.680   5.472  0.0388 -0.5013 -0.0686
 6663SOL    HW226418   5.598   3.683   5.390  0.8069 -1.0686 -0.5641
 6663SOL    HW326419   5.735   3.654   5.446  0.0665 -1.5960  1.0437
 6663SOL    MW426420   5.652   3.677   5.457  0.1438 -0.7206  0.0128
 6664SOL     OW26421   4.077   5.141   6.326  0.2648 -1.0296 -0.2576
 6664SOL    HW226422   4.070   5.060   6.376 -0.0844 -0.0252  1.3870
 6664SOL    HW326423   4.037   5.121   6.241  1.1082 -2.8545 -0.2700
 6664SOL    MW426424   4.071   5.128   6.321  0.3300 -1.1378 -0.0423
 6665SOL     OW26425   5.938   2.838   5.256 -0.7895 -0.1885 -0.4944
 6665SOL    HW226426   5.949   2.887   5.337  0.1481  0.7586 -1.1647
 6665SOL    HW326427   5.851   2.863   5.224 -0.5890  0.5333 -0.4915
 6665SOL    MW426428   5.928   2.848   5.263 -0.6393  0.0317 -0.5824
 6666SOL     OW26429   1.870   1.102   0.453  0.4433  0.2567  0.4879
 6666SOL    HW226430   1.833   1.186   0.481 -1.2124 -0.7834  1.6510
 6666SOL    HW326431   1.878   1.051   0.534  0.5615 -1.0115 -0.2872
 6666SOL    MW426432   1.866   1.106   0.467  0.2404 -0.0479  0.5391
 6667SOL     OW26433   3.378   4.767   2.177 -0.3365 -0.2734  0.3248
 6667SOL    HW226434   3.386   4.677   2.210 -1.9227 -0.9907 -1.0477
 6667SOL    HW326435   3.303   4.803   2.224 -1.1028 -0.4811 -0.6845
 6667SOL    MW426436   3.369   4.760   2.187 -0.6469 -0.3955  0.0105
 6668SOL     OW26437   3.413   4.097   3.097 -0.2992 -0.2260 -0.6694
 6668SOL    HW226438   3.441   4.131   3.012  2.7864 -1.1688 -0.1282
 6668SOL    HW326439   3.382   4.175   3.144 -1.3837  0.4130 -2.3407
 6668SOL    MW426440   3.412   4.112   3.092 -0.0352 -0.2661 -0.8185
 6669SOL     OW26441   4.613   4.182   5.153 -0.3679 -0.2363 -0.6414
 6669SOL    HW226442   4.634   4.107   5.097 -0.6926 -0.3635 -0.5974
 6669SOL    HW326443   4.602   4.255   5.092 -0.7937 -0.3911 -0.7511
 6669SOL    MW426444   4.614   4.181   5.138 -0.4669 -0.2735 -0.6501
 6670SOL     OW26445   1.102   1.212   5.768 -0.5151  0.3193 -0.1219
 6670SOL    HW226446   1.165   1.277   5.739 -0.8250  0.5516 -0.2862
 6670SOL    HW326447   1.038   1.261   5.819 -1.3188  0.3248 -1.1069
 6670SOL    MW426448   1.102   1.227   5.771 -0.6620  0.3507 -0.2735
 6671SOL     OW26449   2.999   1.942   2.713 -0.4295 -0.5121  1.1550
 6671SOL    HW226450   2.976   1.882   2.642  2.1103 -0.2446 -0.0132
 6671SOL    HW326451   3.087   1.972   2.692 -0.8094  2.1182  2.7554
 6671SOL    MW426452   3.007   1.938   2.701 -0.1445 -0.1298  1.2120
 6672SOL     OW26453   6.258   4.175   0.290 -0.1439 -0.4503  0.9399
 6672SOL    HW226454   6.223   4.097   0.333  1.3093 -1.0780  1.0410
 6672SOL    HW326455   6.256   4.243   0.358 -0.4936 -0.6633  1.1438
 6672SOL    MW426456   6.253   4.174   0.305  0.0017 -0.5612  0.9802
 6673SOL     OW26457   4.419   4.471   4.028 -0.5558  0.4543  0.1991
 6673SOL    HW226458   4.419   4.528   3.952  1.7863  1.0539  0.5763
 6673SOL    HW326459   4.492   4.502   4.082 -0.2900 -1.8046  1.2654
 6673SOL    MW426460   4.429   4.483   4.025 -0.2117  0.2353  0.3896
 6674SOL     OW26461   6.021   6.137   0.665 -0.4053 -0.0946 -0.0349
 6674SOL    HW226462   5.981   6.224   0.656  0.5441  0.1601 -2.7694
 6674SOL    HW326463   6.070   6.142   0.747 -1.1033  1.6216  0.3301
 6674SOL    MW426464   6.022   6.149   0.675 -0.3721  0.1654 -0.3475
 6675SOL     OW26465   4.788   3.366   5.614 -0.1655  0.0918 -0.1408
 6675SOL    HW226466   4.864   3.311   5.630 -0.6082 -0.6924 -0.6457
 6675SOL    HW326467   4.717   3.324   5.662 -0.4169  0.4663 -0.1787
 6675SOL    MW426468   4.788   3.353   5.622 -0.2571  0.0377 -0.2124
 6676SOL     OW26469   0.516   5.054   6.398 -0.1885 -0.1028 -0.4445
 6676SOL    HW226470   0.586   5.118   6.410  2.8614 -3.1788 -0.4758
 6676SOL    HW326471   0.499   5.020   6.486 -1.1419  0.0489 -0.5524
 6676SOL    MW426472   0.523   5.058   6.412  0.0881 -0.4886 -0.4629
 6677SOL     OW26473   2.875   4.199   5.013 -0.6442 -0.3665 -0.6939
 6677SOL    HW226474   2.822   4.278   5.006  1.0840  1.1072  1.5711
 6677SOL    HW326475   2.845   4.158   5.094  0.3256 -0.5754 -0.4384
 6677SOL    MW426476   2.864   4.204   5.023 -0.2882 -0.1996 -0.3613
 6678SOL     OW26477   5.752   3.987   5.196 -0.1113 -0.1436 -0.2576
 6678SOL    HW226478   5.695   4.013   5.268 -1.3201  0.8316 -1.4911
 6678SOL    HW326479   5.839   4.019   5.220 -0.4707  0.0753  0.7989
 6678SOL    MW426480   5.756   3.995   5.208 -0.3182  0.0139 -0.2810
 6679SOL     OW26481   0.885   0.474   1.135 -0.5288 -0.2924 -0.2990
 6679SOL    HW226482   0.873   0.393   1.184  0.6769  0.4840  1.3886
 6679SOL    HW326483   0.798   0.497   1.103 -1.2915 -1.0813  1.1200
 6679SOL    MW426484   0.872   0.466   1.137 -0.4704 -0.2940  0.1109
 6680SOL     OW26485   5.994   2.902   0.191  0.2740  0.0547  0.6149
 6680SOL    HW226486   5.944   2.871   0.266 -0.1846  0.6852  0.5711
 6680SOL    HW326487   5.938   2.885   0.115  1.2555 -1.7888  0.2375
 6680SOL    MW426488   5.980   2.896   0.191  0.3430 -0.1053  0.5593
 6681SOL     OW26489   0.789   4.730   6.061  0.1520  0.1813 -0.1250
 6681SOL    HW226490   0.718   4.677   6.024  0.7641 -0.6867 -0.0824
 6681SOL    HW326491   0.820   4.678   6.136  0.0726  1.1015  0.5587
 6681SOL    MW426492   0.784   4.716   6.066  0.2223  0.1882 -0.0291
 6682SOL     OW26493   2.080   2.867   5.520  0.1137  0.5155 -0.1523
 6682SOL    HW226494   2.172   2.855   5.496 -0.0254 -1.6157  0.2315
 6682SOL    HW326495   2.080   2.868   5.616 -0.4079 -1.3677 -0.0878
 6682SOL    MW426496   2.092   2.866   5.530  0.0266 -0.0141 -0.0932
 6683SOL     OW26497   2.350   5.034   4.981 -0.3241 -0.3095 -0.2443
 6683SOL    HW226498   2.379   5.109   5.032  0.9219 -0.4835 -0.6745
 6683SOL    HW326499   2.391   4.958   5.023 -0.7567 -0.6427 -0.4104
 6683SOL    MW426500   2.359   5.034   4.993 -0.2168 -0.3764 -0.3230
 6684SOL     OW26501   3.678   2.995   2.787  0.5191 -0.2835 -0.1831
 6684SOL    HW226502   3.741   2.991   2.715  0.7481 -0.9305  0.0404
 6684SOL    HW326503   3.694   3.079   2.829  0.9447 -0.2603 -0.3893
 6684SOL    MW426504   3.688   3.005   2.783  0.6055 -0.3658 -0.1809
 6685SOL     OW26505   0.411   3.868   4.287  0.0209  0.2033  0.5969
 6685SOL    HW226506   0.331   3.841   4.241 -0.1762 -0.2834  1.2106
 6685SOL    HW326507   0.481   3.856   4.222 -0.2657 -0.3718  0.3815
 6685SOL    MW426508   0.410   3.863   4.272 -0.0429  0.0632  0.6495
 6686SOL     OW26509   0.304   0.458   5.677 -0.4750  0.1007  0.2307
 6686SOL    HW226510   0.340   0.469   5.765 -0.9737 -0.4877  0.5205
 6686SOL    HW326511   0.239   0.388   5.687  2.1686 -2.8027 -1.3675
 6686SOL    MW426512   0.300   0.450   5.690 -0.1920 -0.3600  0.0581
 6687SOL     OW26513   3.953   4.977   2.523 -0.5415 -0.4824 -0.0166
 6687SOL    HW226514   4.032   4.923   2.516 -1.0213 -1.1027 -0.8442
 6687SOL    HW326515   3.952   5.007   2.614  1.1951  0.3956 -0.2316
 6687SOL    MW426516   3.963   4.974   2.534 -0.3757 -0.4484 -0.1542
 6688SOL     OW26517   4.914   2.446   2.843 -0.3751  0.0770 -0.4674
 6688SOL    HW226518   5.006   2.473   2.847 -0.6295  0.9250 -0.0790
 6688SOL    HW326519   4.865   2.528   2.852 -1.2175 -0.6057  1.8195
 6688SOL    MW426520   4.920   2.460   2.844 -0.5198  0.0989 -0.1144
 6689SOL     OW26521   4.704   6.138   6.216  0.1527  0.8804  0.2153
 6689SOL    HW226522   4.724   6.203   6.150 -0.1320  0.0086 -0.7585
 6689SOL    HW326523   4.643   6.181   6.276 -1.2839  1.0307 -1.3005
 6689SOL    MW426524   4.698   6.152   6.215 -0.0744  0.7852 -0.1131
 6690SOL     OW26525   0.601   4.362   3.205  0.0415 -0.1600  0.3771
 6690SOL    HW226526   0.605   4.276   3.248  0.8427  0.1218  0.8950
 6690SOL    HW326527   0.540   4.412   3.260 -0.7525 -0.5101 -0.1611
 6690SOL    MW426528   0.593   4.357   3.218  0.0424 -0.1690  0.3744
 6691SOL     OW26529   6.381   0.664   4.980  0.2201  0.6477 -0.1800
 6691SOL    HW226530   6.308   0.676   5.041  0.3943  1.2423 -0.0861
 6691SOL    HW326531   6.339   0.643   4.897 -0.0067 -1.1064  0.3262
 6691SOL    MW426532   6.365   0.663   4.977  0.2132  0.4947 -0.1008
 6692SOL     OW26533   4.677   0.372   2.734 -0.6230 -0.1690  0.3841
 6692SOL    HW226534   4.619   0.296   2.732  1.5702 -1.9161 -1.7682
 6692SOL    HW326535   4.653   0.423   2.657  0.2539 -0.5655 -0.1584
 6692SOL    MW426536   4.666   0.369   2.724 -0.2180 -0.4518  0.0286
 6693SOL     OW26537   4.675   3.202   3.350 -0.0779  0.2677  0.1426
 6693SOL    HW226538   4.690   3.296   3.361 -1.1732  0.2751  2.0499
 6693SOL    HW326539   4.648   3.192   3.259 -1.0055  1.9611  0.1890
 6693SOL    MW426540   4.674   3.213   3.339 -0.3448  0.4921  0.4004
 6694SOL     OW26541   3.698   4.124   1.706  0.2902  0.2743 -0.4391
 6694SOL    HW226542   3.663   4.035   1.701  1.9045 -0.3739 -1.1620
 6694SOL    HW326543   3.684   4.161   1.619  0.1000  0.5248 -0.3019
 6694SOL    MW426544   3.692   4.117   1.694  0.4781  0.2219 -0.5164
 6695SOL     OW26545   1.710   1.088   6.021  0.0513 -0.3093  0.1607
 6695SOL    HW226546   1.740   0.999   6.005  0.0654 -0.6306  1.7691
 6695SOL    HW326547   1.636   1.100   5.961 -0.4163 -1.6761  0.4257
 6695SOL    MW426548   1.704   1.078   6.011 -0.0085 -0.5320  0.4079
 6696SOL     OW26549   1.522   5.239   1.468  0.1406  0.0488 -0.8211
 6696SOL    HW226550   1.562   5.206   1.548 -0.5181 -1.0140 -0.9132
 6696SOL    HW326551   1.583   5.306   1.436  0.3651  0.5530  0.6030
 6696SOL    MW426552   1.535   5.244   1.474  0.0833 -0.0249 -0.6453
 6697SOL     OW26553   4.985   2.318   2.613 -0.3181  0.8113  0.3212
 6697SOL    HW226554   5.070   2.289   2.645 -0.5478  0.6995  0.8375
 6697SOL    HW326555   4.951   2.374   2.682 -0.5332  1.0981 -0.0159
 6697SOL    MW426556   4.991   2.321   2.626 -0.3768  0.8344  0.3448
 6698SOL     OW26557   6.274   0.149   4.839  0.6439 -0.0730  0.1989
 6698SOL    HW226558   6.302   0.082   4.902  0.6545  0.8522  1.2183
 6698SOL    HW326559   6.343   0.215   4.843  1.3264 -0.6175 -1.8156
 6698SOL    MW426560   6.287   0.149   4.848  0.7354 -0.0228  0.0676
 6699SOL     OW26561   1.170   1.571   4.200 -0.6325 -0.5576 -0.0512
 6699SOL    HW226562   1.224   1.531   4.132 -0.7752 -2.1583  0.7285
 6699SOL    HW326563   1.232   1.612   4.260 -0.1488 -2.8161  1.1133
 6699SOL    MW426564   1.185   1.571   4.199 -0.5875 -1.0668  0.2053
 6700SOL     OW26565   5.568   2.987   1.121 -0.1237  0.3098  0.1404
 6700SOL    HW226566   5.568   2.918   1.187 -2.5640 -0.0364 -0.1398
 6700SOL    HW326567   5.565   3.068   1.170 -1.4537  0.0665  0.4935
 6700SOL    MW426568   5.568   2.988   1.136 -0.6211  0.2320  0.1501
 6701SOL     OW26569   0.720   2.358   4.475  0.4716  0.0972 -0.0777
 6701SOL    HW226570   0.805   2.316   4.465  0.4143  0.2622 -1.3228
 6701SOL    HW326571   0.733   2.447   4.442  0.0174  0.3807  0.4836
 6701SOL    MW426572   0.733   2.364   4.470  0.4041  0.1564 -0.1679
 6702SOL     OW26573   0.599   4.255  -0.025 -0.4191  0.0310  0.5896
 6702SOL    HW226574   0.503   4.252  -0.015 -0.3459  0.2824  1.3948
 6702SOL    HW326575   0.630   4.301   0.053  0.3343  0.2966  0.1411
 6702SOL    MW426576   0.590   4.261  -0.014 -0.3100  0.0992  0.6367
 6703SOL     OW26577   3.474   2.185   5.116 -0.7837  0.3035  0.4673
 6703SOL    HW226578   3.552   2.167   5.169 -0.8443  0.0575  0.4742
 6703SOL    HW326579   3.494   2.266   5.069 -0.7057  0.4909  0.8231
 6703SOL    MW426580   3.487   2.193   5.117 -0.7814  0.2957  0.5151
 6704SOL     OW26581   1.085   2.193   6.121 -0.2985  0.3261  0.2178
 6704SOL    HW226582   1.050   2.262   6.065  2.2877  1.2758 -0.3455
 6704SOL    HW326583   1.158   2.156   6.072 -0.3679 -1.5056  1.3716
 6704SOL    MW426584   1.090   2.197   6.107  0.0336  0.2098  0.2957
 6705SOL     OW26585   3.120   4.214   4.541 -0.1777 -0.1155 -0.0629
 6705SOL    HW226586   3.183   4.184   4.476  1.5348 -0.6323  1.7206
 6705SOL    HW326587   3.105   4.137   4.597 -1.8224  0.2185  0.0068
 6705SOL    MW426588   3.126   4.200   4.540 -0.1687 -0.1396  0.1816
 6706SOL     OW26589   5.774   0.436   4.906  0.1001 -0.4698  0.1756
 6706SOL    HW226590   5.762   0.472   4.994 -1.2472 -0.2231 -0.0896
 6706SOL    HW326591   5.694   0.386   4.889  0.6457 -1.0956 -0.6435
 6706SOL    MW426592   5.762   0.434   4.915 -0.0057 -0.5199  0.0325
 6707SOL     OW26593   3.941   2.297   5.630  0.1212 -0.0050 -0.1785
 6707SOL    HW226594   3.896   2.381   5.635 -0.0502 -0.1098  0.0238
 6707SOL    HW326595   3.951   2.269   5.721  1.4946  0.4964 -0.1446
 6707SOL    MW426596   3.936   2.304   5.643  0.2798  0.0473 -0.1474
 6708SOL     OW26597   4.221   4.669   2.813  0.2636 -0.9194  0.7806
 6708SOL    HW226598   4.239   4.625   2.896 -2.0413 -1.9729  0.7955
 6708SOL    HW326599   4.132   4.643   2.790 -0.7889  2.6378  0.0805
 6708SOL    MW426600   4.211   4.660   2.821 -0.1794 -0.5890  0.6902
 6709SOL     OW26601   3.794   2.569   4.911  0.6308 -0.3257 -0.1893
 6709SOL    HW226602   3.867   2.547   4.968  0.5000  0.5217  0.3083
 6709SOL    HW326603   3.829   2.633   4.849  0.6457 -0.8854 -0.7754
 6709SOL    MW426604   3.808   2.574   4.910  0.6155 -0.2877 -0.2010
 6710SOL     OW26605   3.827   3.109   5.114 -0.5637  0.0370  0.7433
 6710SOL    HW226606   3.750   3.164   5.122 -0.3682  0.2207  1.3562
 6710SOL    HW326607   3.895   3.153   5.165 -0.1355 -0.2749  0.4556
 6710SOL    MW426608   3.826   3.122   5.122 -0.4814  0.0201  0.7862
 6711SOL     OW26609   5.666   0.143   6.071  0.2887  0.0816  0.3080
 6711SOL    HW226610   5.702   0.119   6.157  1.2782  1.2095  0.2336
 6711SOL    HW326611   5.717   0.092   6.008 -0.0477 -0.3101  0.3475
 6711SOL    MW426612   5.677   0.133   6.074  0.3748  0.1787  0.3034
 6712SOL     OW26613   1.350   2.204   5.090  0.1387  0.4073 -0.0768
 6712SOL    HW226614   1.296   2.238   5.161 -0.2535  0.4337 -0.3875
 6712SOL    HW326615   1.332   2.110   5.089  0.4835  0.3367  0.1470
 6712SOL    MW426616   1.341   2.196   5.099  0.1324  0.4014 -0.0883
 6713SOL     OW26617   0.341   4.545   0.633 -0.3766  0.2201  0.0970
 6713SOL    HW226618   0.258   4.591   0.627 -0.9474 -0.8578 -0.5730
 6713SOL    HW326619   0.324   4.459   0.596  1.0405 -0.0306 -0.0479
 6713SOL    MW426620   0.328   4.540   0.627 -0.2650  0.0448 -0.0105
 6714SOL     OW26621   3.021   1.724   3.338  0.0853 -0.2887 -0.1218
 6714SOL    HW226622   3.003   1.789   3.270 -3.7889 -0.5642  0.4159
 6714SOL    HW326623   2.994   1.641   3.300 -5.0029 -0.1382  2.3512
 6714SOL    MW426624   3.015   1.721   3.324 -1.0972 -0.3052  0.2754
 6715SOL     OW26625   1.033   1.352   4.738 -0.2857  0.3413  0.0778
 6715SOL    HW226626   0.948   1.346   4.693 -0.0148  0.5352 -0.4691
 6715SOL    HW326627   1.096   1.320   4.673  0.1781  1.1697  0.1100
 6715SOL    MW426628   1.030   1.347   4.723 -0.1888  0.4762  0.0099
 6716SOL     OW26629   0.250   4.793   0.129 -0.2801 -0.1177 -0.8054
 6716SOL    HW226630   0.239   4.782   0.035  1.6883  1.8633 -1.3509
 6716SOL    HW326631   0.343   4.813   0.140 -0.2023 -1.3951  1.7121
 6716SOL    MW426632   0.261   4.794   0.118 -0.0101 -0.0248 -0.5452
 6717SOL     OW26633   5.850   6.269   3.820 -0.1886 -0.1868 -0.1122
 6717SOL    HW226634   5.805   6.232   3.897 -1.1151  0.4747 -0.3192
 6717SOL    HW326635   5.790   6.252   3.747  0.3052 -0.0633 -0.5526
 6717SOL    MW426636   5.836   6.262   3.821 -0.2457 -0.0832 -0.1976
 6718SOL     OW26637   3.140   1.010   3.769  0.1720  0.5026  0.4541
 6718SOL    HW226638   3.189   1.092   3.759 -0.4538  0.9880  1.2790
 6718SOL    HW326639   3.199   0.943   3.734  0.3149  1.4012 -1.1776
 6718SOL    MW426640   3.154   1.012   3.763  0.1083  0.6852  0.3477
 6719SOL     OW26641   6.341   2.448   6.395  0.0495 -0.3924  0.5518
 6719SOL    HW226642   6.389   2.500   6.459 -0.5298  0.4853  0.3023
 6719SOL    HW326643   6.407   2.393   6.353  0.2777 -1.8113  2.6509
 6719SOL    MW426644   6.356   2.448   6.398  0.0032 -0.4638  0.7958
 6720SOL     OW26645   2.393   3.478   2.904  0.4549 -0.0239 -0.6778
 6720SOL    HW226646   2.358   3.399   2.945 -0.5352  0.4375 -0.6256
 6720SOL    HW326647   2.316   3.528   2.877  1.0630  0.0990 -2.3132
 6720SOL    MW426648   2.378   3.474   2.906  0.4045  0.0532 -0.8867
 6721SOL     OW26649   0.125   0.268   5.368 -0.0424  0.0792  0.1951
 6721SOL    HW226650   0.126   0.191   5.310 -2.0598  0.6234 -0.6719
 6721SOL    HW326651   0.050   0.319   5.337  1.6900  2.8160  0.2321
 6721SOL    MW426652   0.115   0.264   5.356 -0.0800  0.5121  0.0856
 6722SOL     OW26653   3.848   4.981   5.100  0.7073  0.4216  0.1917
 6722SOL    HW226654   3.807   4.900   5.071 -0.5100  1.1613 -0.2511
 6722SOL    HW326655   3.931   4.984   5.052  0.9798 -0.7540  0.5523
 6722SOL    MW426656   3.853   4.971   5.090  0.5826  0.3641  0.1809
 6723SOL     OW26657   0.134   3.737   0.286  0.0330  0.4636 -0.1190
 6723SOL    HW226658   0.074   3.722   0.213  0.2083 -1.6895  0.1028
 6723SOL    HW326659   0.204   3.791   0.249  0.2458 -0.7605 -1.6696
 6723SOL    MW426660   0.135   3.742   0.271  0.0842  0.0180 -0.2943
 6724SOL     OW26661   1.911   2.443   6.140  0.0277 -0.0918 -0.1877
 6724SOL    HW226662   1.883   2.517   6.194 -0.1048 -0.2553 -0.0321
 6724SOL    HW326663   1.933   2.482   6.056 -1.2687 -0.0529 -0.5154
 6724SOL    MW426664   1.910   2.458   6.136 -0.1609 -0.1083 -0.2104
 6725SOL     OW26665   4.121   3.744   2.323  0.1187  0.1049 -0.3300
 6725SOL    HW226666   4.113   3.839   2.318 -2.0075 -0.0664 -0.8504
 6725SOL    HW326667   4.119   3.715   2.232  2.2044 -0.3967 -0.2707
 6725SOL    MW426668   4.120   3.753   2.311  0.1134  0.0161 -0.3908
 6726SOL     OW26669   2.953   3.719   5.630 -0.3812 -0.3715  0.0801
 6726SOL    HW226670   3.044   3.710   5.603 -0.0117  2.2763  0.1888
 6726SOL    HW326671   2.955   3.708   5.725 -0.6554 -2.8901 -0.1223
 6726SOL    MW426672   2.965   3.716   5.639 -0.3686 -0.3544  0.0677
 6727SOL     OW26673   2.501   4.986   3.767 -0.4367 -0.0254 -0.1641
 6727SOL    HW226674   2.451   4.950   3.840 -0.5840  1.2806  0.4212
 6727SOL    HW326675   2.592   4.961   3.784 -0.2339  1.5491  1.3476
 6727SOL    MW426676   2.506   4.978   3.779 -0.4294  0.3547  0.1126
 6728SOL     OW26677   0.047   2.027   5.797 -0.1041 -0.1812  0.2198
 6728SOL    HW226678   0.095   1.974   5.860  1.4932 -0.0760 -0.8667
 6728SOL    HW326679   0.110   2.091   5.764 -0.6623 -0.6773 -2.0000
 6728SOL    MW426680   0.061   2.029   5.801  0.0330 -0.2328 -0.2164
 6729SOL     OW26681   1.541   3.475   4.947  0.3638 -0.0285 -0.0159
 6729SOL    HW226682   1.449   3.480   4.921  0.5617 -0.5007 -0.8270
 6729SOL    HW326683   1.544   3.520   5.032 -0.3656  1.2266 -0.6160
 6729SOL    MW426684   1.529   3.482   4.955  0.2936  0.0748 -0.2020
 6730SOL     OW26685   3.456   2.402   4.927 -0.5176  0.1139  0.4732
 6730SOL    HW226686   3.497   2.458   4.993 -1.6970  1.6690 -0.0411
 6730SOL    HW326687   3.523   2.391   4.860 -0.4735  1.5329  0.2495
 6730SOL    MW426688   3.470   2.408   4.927 -0.6674  0.5063  0.3758
 6731SOL     OW26689   2.505   2.370   1.632 -0.2635 -0.7657 -0.2204
 6731SOL    HW226690   2.539   2.343   1.546  1.5397 -1.5566  0.6960
 6731SOL    HW326691   2.565   2.330   1.695  1.1509  3.2879  1.3487
 6731SOL    MW426692   2.518   2.361   1.629  0.1610 -0.3352  0.1075
 6732SOL     OW26693   0.930   1.782   0.151 -0.0440 -0.3469  0.5514
 6732SOL    HW226694   0.973   1.736   0.224  1.3970  1.0772  0.6591
 6732SOL    HW326695   0.837   1.773   0.169  0.2629 -0.2993  2.4339
 6732SOL    MW426696   0.923   1.775   0.163  0.1866 -0.1527  0.8140
 6733SOL     OW26697   2.332   1.944   6.341 -0.2080  0.6186  0.0576
 6733SOL    HW226698   2.390   1.869   6.349 -1.9401 -1.0759 -2.1204
 6733SOL    HW326699   2.328   1.981   6.430 -0.7840 -3.0295  1.7034
 6733SOL    MW426700   2.339   1.939   6.354 -0.5125 -0.0863 -0.0126
 6734SOL     OW26701   4.366   4.705   1.283  0.2801  0.1487  0.4374
 6734SOL    HW226702   4.461   4.717   1.290  0.0882  1.2785  1.2947
 6734SOL    HW326703   4.345   4.642   1.352  0.0783  1.8750  2.0089
 6734SOL    MW426704   4.376   4.698   1.293  0.2281  0.5255  0.7578
 6735SOL     OW26705   1.174   3.476   5.562  0.4947 -0.3095  0.6264
 6735SOL    HW226706   1.260   3.449   5.531  1.9315  0.7351  3.3791
 6735SOL    HW326707   1.163   3.565   5.529  0.2638 -0.5877 -0.0614
 6735SOL    MW426708   1.184   3.484   5.554  0.6538 -0.2083  0.8989
 6736SOL     OW26709   2.082   3.419   2.611 -0.1707  0.2991  0.1204
 6736SOL    HW226710   1.992   3.389   2.629 -1.2008  2.6635 -0.7860
 6736SOL    HW326711   2.099   3.485   2.678  0.4409  0.7324 -0.4520
 6736SOL    MW426712   2.072   3.424   2.622 -0.2259  0.6682 -0.0747
 6737SOL     OW26713   3.899   3.261   1.253 -0.3258  0.6747  0.7057
 6737SOL    HW226714   3.931   3.174   1.275  0.5261  0.7480 -0.2033
 6737SOL    HW326715   3.806   3.259   1.278 -0.3936 -0.5801  0.4204
 6737SOL    MW426716   3.891   3.249   1.260 -0.2224  0.5188  0.5481
 6738SOL     OW26717   2.032   5.328   5.230  0.6322  0.1542  0.5431
 6738SOL    HW226718   1.992   5.247   5.264 -3.3734  0.7779 -1.9798
 6738SOL    HW326719   1.986   5.398   5.276  2.2032  1.0542  0.8100
 6738SOL    MW426720   2.020   5.326   5.241  0.3110  0.3552  0.2454
 6739SOL     OW26721   5.638   6.004   5.114 -0.2151 -0.3834 -0.2991
 6739SOL    HW226722   5.581   6.078   5.137 -1.5657 -1.1353 -1.0885
 6739SOL    HW326723   5.723   6.044   5.098 -0.0371  0.5950  2.4950
 6739SOL    MW426724   5.642   6.019   5.115 -0.3698 -0.3536 -0.0346
 6740SOL     OW26725   0.299   1.541   3.533 -0.1043 -0.0339 -0.2567
 6740SOL    HW226726   0.235   1.490   3.583  0.5901 -1.5306 -0.8211
 6740SOL    HW326727   0.261   1.546   3.445 -0.5967  1.2684 -0.0029
 6740SOL    MW426728   0.285   1.535   3.528 -0.0776 -0.0595 -0.2977
 6741SOL     OW26729   2.656   1.900   4.493  0.2005 -0.1259  0.2604
 6741SOL    HW226730   2.603   1.980   4.495  1.7534  0.9433  0.6514
 6741SOL    HW326731   2.624   1.849   4.567 -0.6229  0.2586  0.1831
 6741SOL    MW426732   2.644   1.904   4.503  0.2967  0.0659  0.3018
 6742SOL     OW26733   5.018   0.865   0.576 -0.2454 -0.7653  0.0798
 6742SOL    HW226734   5.043   0.824   0.493 -0.7559 -1.0412  0.0574
 6742SOL    HW326735   5.101   0.888   0.617  0.0789 -2.3785  0.3710
 6742SOL    MW426736   5.033   0.863   0.570 -0.2700 -1.0145  0.1153
 6743SOL     OW26737   6.300   4.456   1.861 -0.5122  0.4500  0.5133
 6743SOL    HW226738   6.382   4.467   1.814 -0.5403 -0.0444  0.3458
 6743SOL    HW326739   6.261   4.544   1.860 -0.1444  0.6160  0.3050
 6743SOL    MW426740   6.305   4.469   1.854 -0.4674  0.4066  0.4637
 6744SOL     OW26741   2.438   5.063   5.421  0.0590  0.0566  0.0348
 6744SOL    HW226742   2.468   5.127   5.355  0.9288  0.7467  1.0720
 6744SOL    HW326743   2.502   5.069   5.491 -0.4960 -1.1527  0.6712
 6744SOL    MW426744   2.450   5.073   5.421  0.1006 -0.0119  0.2556
 6745SOL     OW26745   3.901   1.946   2.438  0.5112  0.1844  0.1526
 6745SOL    HW226746   3.892   2.019   2.500  0.3607  0.8147 -0.5886
 6745SOL    HW326747   3.869   1.870   2.486  0.0894  0.7163  0.7457
 6745SOL    MW426748   3.895   1.946   2.452  0.4357  0.3378  0.1330
 6746SOL     OW26749   3.142   3.412   1.011 -0.5948  0.3348  0.7908
 6746SOL    HW226750   3.097   3.496   1.010 -0.3447  0.4880  1.4290
 6746SOL    HW326751   3.100   3.363   1.082  0.0597  0.3868  1.2244
 6746SOL    MW426752   3.131   3.416   1.021 -0.4755  0.3619  0.9322
 6747SOL     OW26753   1.856   3.584   5.442 -0.0462 -0.1653 -0.2969
 6747SOL    HW226754   1.775   3.583   5.494  0.8023 -1.2579  1.0721
 6747SOL    HW326755   1.835   3.639   5.366 -2.3989 -1.2766 -0.5348
 6747SOL    MW426756   1.842   3.591   5.439 -0.2447 -0.4560 -0.1477
 6748SOL     OW26757   4.378   3.920   1.443 -0.2164  0.4853 -0.1665
 6748SOL    HW226758   4.338   3.901   1.358  5.0284  0.5523 -3.0787
 6748SOL    HW326759   4.387   3.835   1.485 -2.5651  0.4072  0.3026
 6748SOL    MW426760   4.374   3.907   1.437  0.1657  0.4838 -0.4889
 6749SOL     OW26761   5.279   3.738   4.593 -0.5636 -0.1197  0.0913
 6749SOL    HW226762   5.299   3.758   4.501 -0.1180  0.5960  0.3376
 6749SOL    HW326763   5.295   3.820   4.639 -1.8958 -0.1504  0.6491
 6749SOL    MW426764   5.284   3.751   4.587 -0.6806 -0.0293  0.1974
 6750SOL     OW26765   4.131   4.758   3.388 -0.6975  0.0815 -0.2762
 6750SOL    HW226766   4.090   4.783   3.305 -0.1077  0.4586 -0.4643
 6750SOL    HW326767   4.213   4.807   3.389  0.3342 -1.5571 -0.4869
 6750SOL    MW426768   4.137   4.768   3.377 -0.4835 -0.0850 -0.3289
 6751SOL     OW26769   0.932   2.946   4.291  0.3849  0.0810 -0.0039
 6751SOL    HW226770   0.935   2.900   4.375  0.6735 -0.4026 -0.2780
 6751SOL    HW326771   0.842   2.979   4.285 -0.1574 -1.3793 -0.2916
 6751SOL    MW426772   0.920   2.945   4.301  0.3514 -0.1755 -0.0780
 6752SOL     OW26773   4.642   0.757   0.609  0.4108  0.5362  0.5862
 6752SOL    HW226774   4.573   0.813   0.646 -1.5794 -1.2177 -0.2153
 6752SOL    HW326775   4.686   0.813   0.545 -0.1774  1.7738  1.2197
 6752SOL    MW426776   4.639   0.772   0.605  0.0706  0.4681  0.5640
 6753SOL     OW26777   3.544   0.447   6.317 -0.0792 -0.5108  0.4240
 6753SOL    HW226778   3.629   0.402   6.316  0.1562 -0.2189  2.6211
 6753SOL    HW326779   3.487   0.388   6.367 -0.7935 -0.0735  0.1340
 6753SOL    MW426780   3.548   0.433   6.323 -0.1424 -0.4146  0.6756
 6754SOL     OW26781   0.474   0.828   5.713  0.0237 -0.0044 -0.1257
 6754SOL    HW226782   0.566   0.847   5.730  0.2246 -1.0188 -0.0091
 6754SOL    HW326783   0.464   0.837   5.618  0.7927 -2.0270 -0.4494
 6754SOL    MW426784   0.484   0.832   5.702  0.1517 -0.4051 -0.1530
 6755SOL     OW26785   5.529   1.627   4.852  0.7998 -0.0741 -0.3961
 6755SOL    HW226786   5.545   1.721   4.865 -1.4062  0.7078 -2.4635
 6755SOL    HW326787   5.451   1.609   4.905 -0.3589 -0.0326 -2.0164
 6755SOL    MW426788   5.521   1.637   4.861  0.3559  0.0345 -0.8826
 6756SOL     OW26789   5.531   1.181   2.170  0.0153  0.1391 -0.1745
 6756SOL    HW226790   5.484   1.104   2.203  0.2753  0.1814  0.3095
 6756SOL    HW326791   5.591   1.204   2.241  0.1173  0.6362 -0.4207
 6756SOL    MW426792   5.533   1.174   2.184  0.0630  0.2103 -0.1431
 6757SOL     OW26793   2.877   0.694   2.565  0.0017  0.1398 -0.2406
 6757SOL    HW226794   2.886   0.633   2.637 -1.3682  0.0500 -0.1267
 6757SOL    HW326795   2.880   0.639   2.486 -1.5281 -0.1283 -0.1280
 6757SOL    MW426796   2.879   0.679   2.564 -0.3809  0.0926 -0.2107
 6758SOL     OW26797   0.203   4.971   1.883 -0.3356  0.0413  0.0179
 6758SOL    HW226798   0.266   4.934   1.945 -2.1627  0.1680  2.0752
 6758SOL    HW326799   0.252   5.040   1.837  2.0328 -2.2440 -1.1882
 6758SOL    MW426800   0.218   4.975   1.885 -0.2642 -0.2435  0.1302
 6759SOL     OW26801   0.948   3.217   4.894 -0.4434  0.6627 -0.4703
 6759SOL    HW226802   0.986   3.248   4.977 -2.6206  1.5576  0.2618
 6759SOL    HW326803   0.873   3.163   4.921 -1.3171  1.1365 -1.8557
 6759SOL    MW426804   0.943   3.214   4.909 -0.8459  0.8433 -0.5565
 6760SOL     OW26805   1.435   0.881   4.114 -0.0828  0.1091 -0.4590
 6760SOL    HW226806   1.440   0.818   4.042  2.6864 -1.9246  1.2845
 6760SOL    HW326807   1.401   0.830   4.188 -0.0738  1.3313  0.4037
 6760SOL    MW426808   1.431   0.866   4.114  0.2838  0.0021 -0.1151
 6761SOL     OW26809   3.400   6.103   1.203 -0.1927 -0.3885  0.1716
 6761SOL    HW226810   3.361   6.180   1.161 -0.1150 -0.0777  0.6698
 6761SOL    HW326811   3.420   6.131   1.292  0.4048 -0.8043  0.1716
 6761SOL    MW426812   3.397   6.117   1.209 -0.1036 -0.4024  0.2374
 6762SOL     OW26813   2.776   4.558   4.523  0.3035 -0.0831  0.5296
 6762SOL    HW226814   2.816   4.636   4.563  0.7204 -0.5689  1.0807
 6762SOL    HW326815   2.693   4.589   4.487  1.2743  1.0323 -0.9037
 6762SOL    MW426816   2.771   4.573   4.523  0.4866 -0.0000  0.4132
 6763SOL     OW26817   2.168   2.573   5.538  0.3500  0.2188  0.0901
 6763SOL    HW226818   2.220   2.647   5.505  0.7885  0.7325  1.8340
 6763SOL    HW326819   2.217   2.541   5.613 -0.5686 -0.9648  0.2119
 6763SOL    MW426820   2.182   2.579   5.543  0.2866  0.1304  0.3363
 6764SOL     OW26821   2.793   0.990   0.871  0.2233 -0.2231 -0.2211
 6764SOL    HW226822   2.756   1.072   0.838 -0.9525 -0.2652  0.9329
 6764SOL    HW326823   2.813   0.939   0.792  1.1144  1.2087 -0.9635
 6764SOL    MW426824   2.791   0.994   0.856  0.1857 -0.0398 -0.1668
 6765SOL     OW26825   5.227   4.534   1.193 -0.2952  0.5502 -0.6211
 6765SOL    HW226826   5.263   4.560   1.278  0.2405  0.4345 -0.8128
 6765SOL    HW326827   5.167   4.462   1.214 -0.7152  0.9963 -0.2591
 6765SOL    MW426828   5.224   4.528   1.207 -0.2799  0.5938 -0.5986
 6766SOL     OW26829   0.256   3.877   2.486  0.2960  0.0386 -0.1004
 6766SOL    HW226830   0.248   3.862   2.392  2.8342  0.1522 -0.4175
 6766SOL    HW326831   0.280   3.792   2.522 -0.8726 -0.0528  0.5037
 6766SOL    MW426832   0.258   3.864   2.478  0.4767  0.0415 -0.0625
 6767SOL     OW26833   4.344   0.435   2.463 -0.6034 -0.4135 -0.0224
 6767SOL    HW226834   4.277   0.395   2.520  0.2321 -0.4836  0.9409
 6767SOL    HW326835   4.312   0.524   2.449  0.1513  0.3057  2.3049
 6767SOL    MW426836   4.331   0.441   2.469 -0.3936 -0.3279  0.4118
 6768SOL     OW26837   0.869   6.017   4.801 -0.0815  0.0256  0.6676
 6768SOL    HW226838   0.956   5.995   4.833 -0.0568  1.3179  1.5485
 6768SOL    HW326839   0.811   5.954   4.844  0.3398 -0.4114  0.6013
 6768SOL    MW426840   0.873   6.005   4.811 -0.0226  0.1385  0.7751
 6769SOL     OW26841   3.695   4.486   1.599  0.2031 -0.2084  1.2436
 6769SOL    HW226842   3.791   4.490   1.598  0.2581 -0.5777 -0.7651
 6769SOL    HW326843   3.667   4.571   1.565 -0.1049 -0.6175  0.4331
 6769SOL    MW426844   3.704   4.498   1.594  0.1698 -0.3111  0.8717
 6770SOL     OW26845   1.553   6.056   4.360 -0.0237 -0.1240 -0.2420
 6770SOL    HW226846   1.625   6.071   4.299 -1.0752  0.7248 -1.3193
 6770SOL    HW326847   1.487   6.011   4.308  0.3031 -2.3774  1.1486
 6770SOL    MW426848   1.554   6.052   4.345 -0.1193 -0.3094 -0.2007
 6771SOL     OW26849   1.014   1.974   5.034  0.1698 -0.0383  0.1027
 6771SOL    HW226850   0.997   2.068   5.040  0.2306 -0.0462  0.4275
 6771SOL    HW326851   0.927   1.933   5.041  0.2198 -0.0402  0.8652
 6771SOL    MW426852   1.000   1.981   5.036  0.1844 -0.0396  0.2462
 6772SOL     OW26853   5.623   3.778   2.724 -1.3012  0.1604 -0.1397
 6772SOL    HW226854   5.544   3.826   2.749 -1.8264 -1.6094  1.9568
 6772SOL    HW326855   5.693   3.818   2.777 -0.5351  2.1732 -2.4804
 6772SOL    MW426856   5.622   3.789   2.735 -1.2694  0.1925 -0.1719
 6773SOL     OW26857   2.430   5.327   1.667  0.9566  0.3727 -0.3042
 6773SOL    HW226858   2.434   5.372   1.751 -1.8244 -2.1746  1.4280
 6773SOL    HW326859   2.352   5.272   1.673  0.8564 -0.3043 -4.4374
 6773SOL    MW426860   2.420   5.326   1.679  0.5765 -0.0527 -0.6210
 6774SOL     OW26861   4.853   5.411   0.219  0.4255  0.7957  0.1579
 6774SOL    HW226862   4.760   5.411   0.241  0.1991 -0.5683 -0.6926
 6774SOL    HW326863   4.864   5.338   0.158  1.7191  2.1240 -1.2792
 6774SOL    MW426864   4.842   5.401   0.214  0.5663  0.7910 -0.1439
 6775SOL     OW26865   5.925   0.715   0.679  0.0907 -0.5736 -0.2476
 6775SOL    HW226866   5.842   0.669   0.690 -0.3861  0.7589  2.6993
 6775SOL    HW326867   5.902   0.795   0.631 -0.0295 -0.9199 -0.7759
 6775SOL    MW426868   5.911   0.720   0.674  0.0119 -0.4435  0.0715
 6776SOL     OW26869   1.845   4.115   4.897 -0.0461 -0.1298  0.1445
 6776SOL    HW226870   1.878   4.124   4.808 -0.8327  2.2936  0.0119
 6776SOL    HW326871   1.872   4.196   4.941  1.4034 -1.7797  2.5411
 6776SOL    MW426872   1.853   4.127   4.891  0.0413 -0.0278  0.4432
 6777SOL     OW26873   0.458   3.095   4.140  0.3034 -0.3867 -0.1897
 6777SOL    HW226874   0.420   3.085   4.227 -1.0278  0.9240 -0.5641
 6777SOL    HW326875   0.447   3.010   4.098  1.2262 -1.1144  1.0027
 6777SOL    MW426876   0.451   3.083   4.146  0.2495 -0.3098 -0.0818
 6778SOL     OW26877   4.203   1.493   5.553 -0.2295  0.6148 -0.1522
 6778SOL    HW226878   4.203   1.402   5.583  1.7430 -0.0993 -1.9979
 6778SOL    HW326879   4.294   1.511   5.531 -1.0878  1.6167 -3.6573
 6778SOL    MW426880   4.215   1.483   5.554 -0.0825  0.6528 -0.8582
 6779SOL     OW26881   3.919   4.680   2.286 -0.2567 -0.1316  1.0876
 6779SOL    HW226882   3.842   4.670   2.342 -1.9668 -0.7642 -1.2110
 6779SOL    HW326883   3.918   4.772   2.261 -0.6503 -0.2626  0.5952
 6779SOL    MW426884   3.909   4.691   2.290 -0.5343 -0.2323  0.7194
 6780SOL     OW26885   1.981   3.888   6.276  0.8093  0.0883 -0.0445
 6780SOL    HW226886   1.886   3.882   6.280  0.8772 -1.0700  0.0815
 6780SOL    HW326887   2.007   3.822   6.211  1.5000  0.6468 -0.3497
 6780SOL    MW426888   1.972   3.878   6.268  0.9094  0.0092 -0.0681
 6781SOL     OW26889   4.836   3.231   5.321 -0.5118  0.5299 -0.3161
 6781SOL    HW226890   4.750   3.252   5.284 -0.7007 -0.5529 -0.5281
 6781SOL    HW326891   4.818   3.208   5.412 -0.2591  1.5805  0.0173
 6781SOL    MW426892   4.822   3.231   5.328 -0.5034  0.5256 -0.3001
 6782SOL     OW26893   4.155   0.190   0.039 -0.1395  0.0323 -0.2273
 6782SOL    HW226894   4.119   0.275   0.014  0.4180  0.2268 -0.3863
 6782SOL    HW326895   4.242   0.188  -0.000 -0.0179 -0.4767  0.0523
 6782SOL    MW426896   4.162   0.201   0.031 -0.0499 -0.0092 -0.2114
 6783SOL     OW26897   2.574   3.194   0.394 -0.2692 -0.1399 -0.5462
 6783SOL    HW226898   2.508   3.125   0.403  0.1700 -0.4508  0.3339
 6783SOL    HW326899   2.587   3.201   0.299 -1.7840  0.1466 -0.7581
 6783SOL    MW426900   2.567   3.186   0.382 -0.4111 -0.1431 -0.4580
 6784SOL     OW26901   5.063   1.107   1.724 -0.3608 -0.3015  0.8404
 6784SOL    HW226902   4.995   1.143   1.666 -1.2838  1.0529  2.6830
 6784SOL    HW326903   5.139   1.162   1.707  0.1701 -1.4708 -0.8246
 6784SOL    MW426904   5.064   1.119   1.714 -0.4125 -0.2771  0.8638
 6785SOL     OW26905   0.908   2.252   0.924 -0.2088  0.3861  0.4021
 6785SOL    HW226906   0.985   2.198   0.937  0.0588  0.6384 -0.1003
 6785SOL    HW326907   0.900   2.261   0.829 -0.5183  0.8401  0.4637
 6785SOL    MW426908   0.917   2.246   0.913 -0.2143  0.4793  0.3439
 6786SOL     OW26909   3.183   4.928   2.554 -0.5547  0.6436  0.7725
 6786SOL    HW226910   3.099   4.896   2.586 -1.5791  0.3028 -1.9846
 6786SOL    HW326911   3.160   4.997   2.492  1.0465 -0.7034 -1.4658
 6786SOL    MW426912   3.169   4.933   2.550 -0.4786  0.4209  0.1134
 6787SOL     OW26913   2.729   6.060   6.223  0.4645  0.0550 -0.0290
 6787SOL    HW226914   2.669   6.061   6.297  1.1013 -0.1539  0.4955
 6787SOL    HW326915   2.794   5.994   6.245 -0.2244 -1.1833 -1.5080
 6787SOL    MW426916   2.730   6.052   6.236  0.4576 -0.1360 -0.1550
 6788SOL     OW26917   5.127   4.682   4.417 -0.2268  0.2609  0.2132
 6788SOL    HW226918   5.179   4.706   4.340 -0.0918  0.3396  0.3280
 6788SOL    HW326919   5.124   4.587   4.415 -0.8778  0.2795 -0.3227
 6788SOL    MW426920   5.133   4.673   4.406 -0.2949  0.2737  0.1576
 6789SOL     OW26921   5.552   2.742   6.186  0.0560  0.3428  0.2592
 6789SOL    HW226922   5.587   2.831   6.180  0.7765 -0.0370 -1.8661
 6789SOL    HW326923   5.547   2.725   6.280  0.8039  2.2698  0.6942
 6789SOL    MW426924   5.556   2.751   6.198  0.2497  0.5469  0.0362
 6790SOL     OW26925   5.793   0.405   6.057 -0.0179  0.2251 -0.0761
 6790SOL    HW226926   5.757   0.317   6.045 -1.2409  0.4607  1.5864
 6790SOL    HW326927   5.876   0.390   6.102 -0.2739 -0.0750  0.3018
 6790SOL    MW426928   5.800   0.391   6.062 -0.2130  0.2166  0.1931
 6791SOL     OW26929   4.550   5.691   1.040 -0.0960  0.4281 -0.6549
 6791SOL    HW226930   4.523   5.771   1.084  0.2331 -0.1489  0.6425
 6791SOL    HW326931   4.502   5.621   1.084  1.0619 -0.2810 -0.4755
 6791SOL    MW426932   4.540   5.692   1.051  0.1002  0.2584 -0.4600
 6792SOL     OW26933   3.610   2.337   1.120  0.7223  0.3066  0.2112
 6792SOL    HW226934   3.591   2.333   1.214  0.6930 -1.1467  0.1704
 6792SOL    HW326935   3.667   2.414   1.110  0.8579  0.3846  1.4402
 6792SOL    MW426936   3.615   2.347   1.131  0.7363  0.1252  0.3679
 6793SOL     OW26937   3.681   2.668   0.321  0.4156 -0.6990 -0.0838
 6793SOL    HW226938   3.667   2.628   0.407 -0.8058  0.4035  0.2625
 6793SOL    HW326939   3.772   2.699   0.323  0.0006  0.5685  1.3882
 6793SOL    MW426940   3.691   2.667   0.332  0.1997 -0.3863  0.1561
 6794SOL     OW26941   1.250   0.727   3.797 -0.1471  0.0459 -0.3852
 6794SOL    HW226942   1.308   0.668   3.845  0.4719  1.5174  0.7492
 6794SOL    HW326943   1.307   0.770   3.734 -0.4416  0.0017 -0.6851
 6794SOL    MW426944   1.265   0.725   3.795 -0.1043  0.2342 -0.2751
 6795SOL     OW26945   3.646   5.580   0.766  0.3118  0.3774 -0.3757
 6795SOL    HW226946   3.658   5.555   0.857 -0.0069 -0.1665 -0.4760
 6795SOL    HW326947   3.555   5.556   0.746  1.5547 -3.6954 -2.0731
 6795SOL    MW426948   3.636   5.574   0.775  0.4337 -0.2317 -0.6129
 6796SOL     OW26949   4.809   2.858   2.359 -0.3342  0.3911 -0.0115
 6796SOL    HW226950   4.838   2.931   2.413 -0.6123  0.3797  0.1562
 6796SOL    HW326951   4.790   2.898   2.274  0.4661  0.3455 -0.2222
 6796SOL    MW426952   4.810   2.873   2.355 -0.2653  0.3836 -0.0171
 6797SOL     OW26953   2.316   5.158   4.492 -0.0398  0.0129 -0.2878
 6797SOL    HW226954   2.281   5.085   4.441 -0.0862  0.4025 -0.8164
 6797SOL    HW326955   2.378   5.201   4.434  1.3540 -0.6673  0.6369
 6797SOL    MW426956   2.320   5.154   4.478  0.1380 -0.0254 -0.2355
 6798SOL     OW26957   0.978   0.215   5.270  0.1578  0.2643  0.5461
 6798SOL    HW226958   0.892   0.184   5.241  0.3495 -0.6537  0.9481
 6798SOL    HW326959   0.958   0.290   5.326 -0.4106 -0.2418  1.0339
 6798SOL    MW426960   0.964   0.221   5.274  0.1081  0.0764  0.6635
 6799SOL     OW26961   3.739   6.331   3.306  0.7882 -0.2333 -0.0617
 6799SOL    HW226962   3.667   6.361   3.361  0.5871 -1.2466  0.2548
 6799SOL    HW326963   3.713   6.356   3.217  0.8686  0.9355  0.2263
 6799SOL    MW426964   3.726   6.338   3.301  0.7723 -0.2128  0.0181
 6800SOL     OW26965   1.699   5.315   0.378  0.3101 -0.6090  0.1053
 6800SOL    HW226966   1.700   5.335   0.284  0.4523  0.9335  0.4033
 6800SOL    HW326967   1.754   5.238   0.387  1.4171  0.0186 -0.9284
 6800SOL    MW426968   1.706   5.308   0.367  0.4749 -0.3227  0.0082
 6801SOL     OW26969   5.706   0.547   5.846  0.5734  0.1969  0.1488
 6801SOL    HW226970   5.742   0.503   5.923  1.1326  0.9036  0.3003
 6801SOL    HW326971   5.632   0.597   5.879 -0.2712 -0.8591 -0.0784
 6801SOL    MW426972   5.701   0.548   5.860  0.5358  0.1508  0.1388
 6802SOL     OW26973   0.648   3.750   1.031 -0.3106  0.3380 -0.3974
 6802SOL    HW226974   0.661   3.656   1.042 -2.1906 -0.0673 -1.3990
 6802SOL    HW326975   0.595   3.759   0.952  1.0224  2.3494 -1.1675
 6802SOL    MW426976   0.643   3.739   1.022 -0.3828  0.5499 -0.6312
 6803SOL     OW26977   6.188   1.069   0.993  0.2854 -0.3698  0.0651
 6803SOL    HW226978   6.182   1.162   1.012  0.4036  0.0586 -1.7723
 6803SOL    HW326979   6.180   1.064   0.898  0.9398 -2.1837  0.0720
 6803SOL    MW426980   6.186   1.081   0.983  0.3873 -0.5526 -0.1764
 6804SOL     OW26981   1.340   4.393   0.483 -0.2279  0.1139  0.6568
 6804SOL    HW226982   1.246   4.400   0.468 -0.2438  0.3603  0.8786
 6804SOL    HW326983   1.350   4.315   0.537 -0.4100  0.7360  1.6096
 6804SOL    MW426984   1.329   4.384   0.488 -0.2540  0.2285  0.8118
 6805SOL     OW26985   4.672   2.665   4.113 -0.6702 -0.0729  0.1180
 6805SOL    HW226986   4.727   2.686   4.038 -2.4943 -0.3222 -1.3764
 6805SOL    HW326987   4.710   2.714   4.185  1.0234  0.3628 -1.0069
 6805SOL    MW426988   4.684   2.674   4.112 -0.6875 -0.0483 -0.2276
 6806SOL     OW26989   4.587   1.282   2.555  0.0056 -0.5479  0.2935
 6806SOL    HW226990   4.547   1.285   2.468 -0.1356 -0.7269  0.3520
 6806SOL    HW326991   4.514   1.289   2.616  0.0684 -0.8227  0.4003
 6806SOL    MW426992   4.572   1.283   2.551 -0.0048 -0.6078  0.3153
 6807SOL     OW26993   5.781   1.347   6.209  0.4561  0.0216  0.0237
 6807SOL    HW226994   5.731   1.286   6.154  1.7843 -0.5744 -0.5471
 6807SOL    HW326995   5.720   1.372   6.279 -0.3337 -1.4144 -0.1309
 6807SOL    MW426996   5.766   1.343   6.211  0.5272 -0.2465 -0.0720
 6808SOL     OW26997   4.733   2.130   6.156 -0.3084 -0.2342 -0.1294
 6808SOL    HW226998   4.736   2.220   6.189  1.6516 -0.2123 -0.2445
 6808SOL    HW326999   4.685   2.082   6.223  0.3324  0.5279  0.9073
 6808SOL    MW427000   4.727   2.136   6.169  0.0348 -0.1307 -0.0078
 6809SOL     OW27001   0.758   4.660   6.387  0.2980 -0.7577  0.4657
 6809SOL    HW227002   0.827   4.726   6.390 -0.8002  0.6477 -1.7489
 6809SOL    HW327003   0.758   4.621   6.474  3.1335 -0.0920  0.8638
 6809SOL    MW427004   0.767   4.664   6.399  0.5272 -0.4845  0.2261
 6810SOL     OW27005   2.309   3.775   1.004  0.3029 -0.8667  0.6606
 6810SOL    HW227006   2.318   3.728   0.921 -2.2241  0.3622 -0.4198
 6810SOL    HW327007   2.336   3.865   0.983 -0.2976 -0.5573  1.1639
 6810SOL    MW427008   2.314   3.781   0.990 -0.1097 -0.6637  0.5845
 6811SOL     OW27009   0.947   5.533   3.184  0.7277  0.1582  0.0841
 6811SOL    HW227010   0.996   5.472   3.241 -0.1700  0.0055  0.7131
 6811SOL    HW327011   0.866   5.487   3.164  0.0540  1.1310  0.5245
 6811SOL    MW427012   0.943   5.519   3.189  0.5204  0.2664  0.2252
 6812SOL     OW27013   0.640   5.539   0.388  0.0355  0.7431 -0.2431
 6812SOL    HW227014   0.545   5.548   0.401 -0.0057 -0.7198  0.8036
 6812SOL    HW327015   0.679   5.598   0.452 -0.1909  0.0800  0.5247
 6812SOL    MW427016   0.632   5.548   0.398  0.0002  0.4626 -0.0037
 6813SOL     OW27017   0.398   6.350   3.920 -0.2031 -0.4020 -0.4388
 6813SOL    HW227018   0.399   6.382   4.010 -1.2298  1.5304 -1.0644
 6813SOL    HW327019   0.336   6.277   3.922  0.3041 -0.8317  0.5263
 6813SOL    MW427020   0.390   6.344   3.933 -0.2716 -0.2038 -0.3940
 6814SOL     OW27021   6.155   4.393   2.470 -0.5406  0.3451  0.1631
 6814SOL    HW227022   6.082   4.432   2.420 -2.1680  0.6457  2.5957
 6814SOL    HW327023   6.114   4.359   2.549  2.0557  0.9652  1.9001
 6814SOL    MW427024   6.140   4.394   2.474 -0.4128  0.4666  0.7132
 6815SOL     OW27025   1.956   0.947   2.164  0.0585  0.0965 -0.2171
 6815SOL    HW227026   2.047   0.978   2.159  0.4033 -0.9967 -0.8471
 6815SOL    HW327027   1.961   0.869   2.219 -0.2609 -0.8169 -1.4663
 6815SOL    MW427028   1.969   0.941   2.171  0.0618 -0.1682 -0.4651
 6816SOL     OW27029   5.996   4.914   2.534 -0.5899 -0.6997 -0.2014
 6816SOL    HW227030   6.078   4.893   2.491  0.1225  1.3740  0.0226
 6816SOL    HW327031   6.013   4.997   2.579 -2.2203 -1.2118  1.4977
 6816SOL    MW427032   6.009   4.923   2.534 -0.7110 -0.4937  0.0523
 6817SOL     OW27033   0.224   2.349   0.653  0.5129  0.0787  0.4168
 6817SOL    HW227034   0.267   2.301   0.724 -2.7543 -2.4008  1.0068
 6817SOL    HW327035   0.153   2.396   0.697  0.9650  1.9488 -0.7744
 6817SOL    MW427036   0.220   2.349   0.668  0.1414 -0.0017  0.3374
 6818SOL     OW27037   1.474   0.939   2.425  0.2599 -0.3222  0.5654
 6818SOL    HW227038   1.390   0.940   2.381  0.1361 -0.6764  0.7897
 6818SOL    HW327039   1.535   0.979   2.363 -0.1814  0.4554  0.6243
 6818SOL    MW427040   1.471   0.944   2.411  0.1853 -0.2664  0.6028
 6819SOL     OW27041   0.368   5.515   5.049  0.4296 -0.2304 -0.0539
 6819SOL    HW227042   0.378   5.423   5.024 -0.5151 -0.2242 -0.5002
 6819SOL    HW327043   0.281   5.520   5.089 -0.6192  0.9001 -2.2756
 6819SOL    MW427044   0.358   5.503   5.051  0.1666 -0.0805 -0.4059
 6820SOL     OW27045   1.905   6.422   1.291 -0.2363 -0.2366  0.4077
 6820SOL    HW227046   1.848   6.354   1.328  0.6101 -0.6544  0.9876
 6820SOL    HW327047   1.912   6.487   1.361 -0.4277  0.0758  0.1365
 6820SOL    MW427048   1.898   6.421   1.305 -0.1499 -0.2505  0.4484
 6821SOL     OW27049   3.573   0.161   5.821 -0.0921  0.3775 -0.0087
 6821SOL    HW227050   3.593   0.088   5.762 -1.3674  0.5493 -0.6850
 6821SOL    HW327051   3.524   0.223   5.767 -1.4799  0.4526  1.2586
 6821SOL    MW427052   3.569   0.159   5.806 -0.4435  0.4101  0.0693
 6822SOL     OW27053   3.173   4.451   4.684 -0.2608  0.3661 -0.4106
 6822SOL    HW227054   3.124   4.515   4.632 -1.0177  0.3954  0.3293
 6822SOL    HW327055   3.155   4.367   4.642 -2.4739  0.1076  0.9047
 6822SOL    MW427056   3.164   4.449   4.672 -0.6526  0.3359 -0.1394
 6823SOL     OW27057   0.254   3.057   3.850 -0.0255 -0.3466 -0.0141
 6823SOL    HW227058   0.339   3.071   3.809 -0.1339  0.5149  0.0308
 6823SOL    HW327059   0.191   3.095   3.788 -0.5017 -1.9553 -0.5788
 6823SOL    MW427060   0.257   3.064   3.836 -0.1026 -0.4452 -0.0827
 6824SOL     OW27061   6.134   5.636   3.839 -0.2191 -0.1080  0.1279
 6824SOL    HW227062   6.206   5.583   3.804 -0.6056  2.0572 -4.6694
 6824SOL    HW327063   6.065   5.572   3.858  0.0799 -1.7090 -3.3772
 6824SOL    MW427064   6.135   5.620   3.837 -0.2306 -0.0335 -0.9675
 6825SOL     OW27065   1.606   3.742   4.798 -0.0085 -0.3399  0.0402
 6825SOL    HW227066   1.564   3.660   4.825  0.6708 -0.4381  0.8426
 6825SOL    HW327067   1.543   3.783   4.739 -0.3269 -1.4767 -0.4331
 6825SOL    MW427068   1.592   3.737   4.794  0.0391 -0.5028  0.0836
 6826SOL     OW27069   2.597   1.696   3.129 -0.8784 -0.0177 -0.5889
 6826SOL    HW227070   2.659   1.626   3.147 -0.9837  0.3837  1.6055
 6826SOL    HW327071   2.512   1.660   3.155 -0.8791  0.9990  0.9575
 6826SOL    MW427072   2.594   1.682   3.135 -0.8924  0.1694 -0.0954
 6827SOL     OW27073   0.299   4.003   1.633 -0.1366 -0.3514  0.2373
 6827SOL    HW227074   0.391   4.016   1.608 -0.8459  2.3091 -1.3779
 6827SOL    HW327075   0.266   3.939   1.571  0.0519  0.4816 -0.7427
 6827SOL    MW427076   0.307   3.996   1.622 -0.2053  0.1095 -0.1051
 6828SOL     OW27077   3.805   5.380   3.808 -0.2399 -0.6580 -0.6670
 6828SOL    HW227078   3.767   5.456   3.764  1.3059  0.8276  0.4351
 6828SOL    HW327079   3.845   5.416   3.888  3.6997 -1.9692 -1.8258
 6828SOL    MW427080   3.805   5.395   3.813  0.4838 -0.6350 -0.6745
 6829SOL     OW27081   3.328   2.536   4.713  0.1502  0.2073 -0.0987
 6829SOL    HW227082   3.380   2.532   4.794  0.6685  0.4894 -0.4170
 6829SOL    HW327083   3.317   2.444   4.688  0.2356  0.1322  0.1327
 6829SOL    MW427084   3.333   2.523   4.721  0.2298  0.2346 -0.1102
 6830SOL     OW27085   3.105   2.209   2.397  0.7325  0.1255  0.0742
 6830SOL    HW227086   3.089   2.244   2.309  0.6300  2.3569  0.9177
 6830SOL    HW327087   3.022   2.166   2.421 -0.4183  2.3281  0.2809
 6830SOL    MW427088   3.092   2.208   2.388  0.5671  0.7105  0.2127
 6831SOL     OW27089   3.099   1.717   6.210 -0.2613  0.0945 -0.6505
 6831SOL    HW227090   3.014   1.755   6.186 -0.0239 -0.0325 -1.7101
 6831SOL    HW327091   3.160   1.791   6.207 -0.3024  0.1617 -0.0064
 6831SOL    MW427092   3.096   1.732   6.207 -0.2354  0.0866 -0.7053
 6832SOL     OW27093   0.784   5.073   5.019 -0.5224  0.1673 -0.4489
 6832SOL    HW227094   0.842   5.109   4.952  1.7419  0.7831  1.6734
 6832SOL    HW327095   0.785   4.978   5.003 -0.7674  0.3729 -1.7916
 6832SOL    MW427096   0.792   5.065   5.008 -0.2560  0.2757 -0.3461
 6833SOL     OW27097   0.821   2.240   5.893 -0.5860  0.4340 -0.2769
 6833SOL    HW227098   0.906   2.235   5.850 -0.4837 -1.0958  0.0270
 6833SOL    HW327099   0.758   2.243   5.821 -0.2885  1.3113 -0.5057
 6833SOL    MW427100   0.824   2.240   5.878 -0.5332  0.3479 -0.2670
 6834SOL     OW27101   4.745   0.846   2.365 -0.1704  0.0154  0.1679
 6834SOL    HW227102   4.738   0.834   2.271  1.1220 -0.5696  0.1294
 6834SOL    HW327103   4.835   0.874   2.380 -0.3046 -0.0748  1.2429
 6834SOL    MW427104   4.756   0.848   2.355 -0.0176 -0.0737  0.3047
 6835SOL     OW27105   5.164   0.113   2.574 -0.0473 -0.9295 -0.7528
 6835SOL    HW227106   5.209   0.158   2.502  3.8166  0.7288  2.2983
 6835SOL    HW327107   5.094   0.174   2.600  0.7663  0.1442 -0.9929
 6835SOL    MW427108   5.161   0.127   2.568  0.5698 -0.5691 -0.3819
 6836SOL     OW27109   4.428   2.406   1.347  0.2080  0.0490 -0.3989
 6836SOL    HW227110   4.459   2.436   1.432  1.5695  0.3244 -0.9719
 6836SOL    HW327111   4.500   2.354   1.312 -1.5853 -2.9441  0.0183
 6836SOL    MW427112   4.441   2.403   1.354  0.1510 -0.3096 -0.4195
 6837SOL     OW27113   0.084   2.388   3.652  0.3333  0.0759 -0.0903
 6837SOL    HW227114   0.017   2.392   3.583  0.7248 -1.5668 -0.6028
 6837SOL    HW327115   0.077   2.300   3.689  2.4555 -0.3149 -0.4432
 6837SOL    MW427116   0.074   2.377   3.648  0.6650 -0.1924 -0.2045
 6838SOL     OW27117   3.060   3.958   1.383 -0.2549  0.0364 -0.1469
 6838SOL    HW227118   3.138   4.013   1.393 -0.5697  0.4242  0.2315
 6838SOL    HW327119   2.987   4.019   1.392 -0.6005 -0.2274 -1.0884
 6838SOL    MW427120   3.060   3.974   1.386 -0.3420  0.0527 -0.2212
 6839SOL     OW27121   0.137   1.459   1.604 -0.8489  0.0553  0.1369
 6839SOL    HW227122   0.041   1.455   1.603 -0.8601 -0.3424 -1.6869
 6839SOL    HW327123   0.164   1.369   1.621 -0.8800 -0.5320 -2.4223
 6839SOL    MW427124   0.128   1.447   1.606 -0.8545 -0.0746 -0.4414
 6840SOL     OW27125   5.661   1.172   2.433  0.2219 -0.3676  0.0770
 6840SOL    HW227126   5.574   1.144   2.462  0.6590 -1.2199  0.5939
 6840SOL    HW327127   5.681   1.248   2.487 -0.3958  0.1224 -0.3700
 6840SOL    MW427128   5.652   1.178   2.444  0.1981 -0.4154  0.0862
 6841SOL     OW27129   5.004   3.225   3.184  0.5285 -0.0175  0.0321
 6841SOL    HW227130   5.004   3.261   3.272 -0.5868  1.6473 -0.6039
 6841SOL    HW327131   5.095   3.233   3.155  0.1310  3.9324 -0.6373
 6841SOL    MW427132   5.016   3.231   3.192  0.3289  0.7233 -0.1402
 6842SOL     OW27133   3.857   5.006   5.718 -0.1937  0.0952  0.0205
 6842SOL    HW227134   3.931   5.018   5.659  0.2397  1.8268  0.8446
 6842SOL    HW327135   3.818   4.923   5.692  0.8136  0.1417 -1.7582
 6842SOL    MW427136   3.861   4.997   5.707 -0.0036  0.3298 -0.1055
 6843SOL     OW27137   1.418   0.376   5.111  0.1727  0.4709 -0.7960
 6843SOL    HW227138   1.353   0.318   5.149  0.1380  0.3890 -0.9811
 6843SOL    HW327139   1.388   0.464   5.134  0.6752  0.3969  0.2153
 6843SOL    MW427140   1.406   0.380   5.119  0.2344  0.4503 -0.6870
 6844SOL     OW27141   0.841   3.875   4.907 -0.0111 -0.8161 -0.1846
 6844SOL    HW227142   0.870   3.965   4.894  0.0638 -0.8638 -0.3520
 6844SOL    HW327143   0.815   3.845   4.820  0.2020 -1.0382 -0.1741
 6844SOL    MW427144   0.841   3.883   4.894  0.0269 -0.8517 -0.2053
 6845SOL     OW27145   0.677   0.240   2.357 -0.2355 -0.5772 -0.5938
 6845SOL    HW227146   0.582   0.249   2.359 -0.2579 -0.8260 -0.4335
 6845SOL    HW327147   0.709   0.324   2.325 -0.4081  0.1122  0.9693
 6845SOL    MW427148   0.669   0.252   2.353 -0.2612 -0.5191 -0.3665
 6846SOL     OW27149   4.762   3.873   0.750  0.4241  0.6232  0.3543
 6846SOL    HW227150   4.806   3.901   0.670  1.6988 -3.7620 -0.7827
 6846SOL    HW327151   4.670   3.892   0.734  0.8717  1.6742 -1.2520
 6846SOL    MW427152   4.756   3.879   0.737  0.6513  0.1833 -0.0077
 6847SOL     OW27153   3.605   5.649   2.945  0.2841 -0.4951  0.8608
 6847SOL    HW227154   3.546   5.605   3.005 -0.6261 -1.1211 -0.4530
 6847SOL    HW327155   3.662   5.579   2.912  1.2877 -0.0269  1.5472
 6847SOL    MW427156   3.605   5.634   2.948  0.2964 -0.5159  0.7781
 6848SOL     OW27157   1.223   1.246   4.554  0.1658 -0.3935  0.2638
 6848SOL    HW227158   1.279   1.170   4.570  0.3826 -0.9880 -2.6595
 6848SOL    HW327159   1.282   1.321   4.561  1.1564 -0.9281 -1.6146
 6848SOL    MW427160   1.238   1.246   4.557  0.3251 -0.5425 -0.3697
 6849SOL     OW27161   4.508   1.071   4.154 -0.1702  0.8384 -0.3672
 6849SOL    HW227162   4.535   1.018   4.079 -1.7292 -1.7191  0.7392
 6849SOL    HW327163   4.558   1.035   4.228  0.0727  2.1482  0.1232
 6849SOL    MW427164   4.518   1.059   4.154 -0.3438  0.6738 -0.1565
 6850SOL     OW27165   4.467   5.158   0.157  0.8019  0.0119  0.2566
 6850SOL    HW227166   4.533   5.123   0.216  0.9054 -0.2310  0.0015
 6850SOL    HW327167   4.490   5.122   0.071 -0.7247 -1.6056  0.4532
 6850SOL    MW427168   4.479   5.149   0.153  0.6142 -0.2336  0.2489
 6851SOL     OW27169   6.149   1.917   1.263  0.1309  0.1485  0.1409
 6851SOL    HW227170   6.129   1.957   1.178  0.6809 -2.2254 -1.2403
 6851SOL    HW327171   6.234   1.954   1.287 -0.7040  1.9629  0.4619
 6851SOL    MW427172   6.158   1.927   1.255  0.0933  0.0747  0.0010
 6852SOL     OW27173   5.674   6.288   0.047  0.0706  0.0212  0.0639
 6852SOL    HW227174   5.662   6.265  -0.045  1.5174  0.4904 -0.2687
 6852SOL    HW327175   5.713   6.211   0.087 -0.6041 -0.2000  0.2977
 6852SOL    MW427176   5.678   6.275   0.040  0.1725  0.0539  0.0509
 6853SOL     OW27177   2.838   3.591   3.830 -0.0404 -0.1881 -0.3590
 6853SOL    HW227178   2.925   3.583   3.868 -0.7288  2.5275  2.1728
 6853SOL    HW327179   2.787   3.520   3.870  0.3319 -0.0498  0.3713
 6853SOL    MW427180   2.843   3.580   3.840 -0.0821  0.1884  0.0714
 6854SOL     OW27181   4.181   0.380   3.289  0.0006 -0.6033 -0.0396
 6854SOL    HW227182   4.122   0.357   3.360 -2.3625 -0.3641 -1.8327
 6854SOL    HW327183   4.168   0.474   3.275  1.1395 -0.4492 -0.1941
 6854SOL    MW427184   4.172   0.389   3.296 -0.1609 -0.5514 -0.2965
 6855SOL     OW27185   0.111   4.859   4.927 -0.1737  0.9520 -0.0947
 6855SOL    HW227186   0.174   4.888   4.993 -0.3402  1.3684 -0.1166
 6855SOL    HW327187   0.092   4.768   4.951 -1.1403  1.4629  1.1628
 6855SOL    MW427188   0.117   4.851   4.939 -0.3232  1.0743  0.0683
 6856SOL     OW27189   2.071   4.884   5.553 -0.1994 -0.3004 -0.2413
 6856SOL    HW227190   2.014   4.884   5.630 -2.2453 -0.8331 -1.6722
 6856SOL    HW327191   2.038   4.956   5.499  0.3518 -0.7601 -1.2066
 6856SOL    MW427192   2.059   4.894   5.556 -0.3966 -0.4313 -0.5575
 6857SOL     OW27193   1.744   4.135   5.421  0.2154 -0.0538  0.5147
 6857SOL    HW227194   1.771   4.227   5.420  0.0946 -0.0227 -0.2509
 6857SOL    HW327195   1.810   4.089   5.370 -1.3102  0.0877 -1.7358
 6857SOL    MW427196   1.756   4.141   5.414 -0.0018 -0.0310  0.1168
 6858SOL     OW27197   2.676   2.989   5.518 -0.2578 -0.6176  0.6839
 6858SOL    HW227198   2.748   2.931   5.542  0.8808  0.4323 -0.0399
 6858SOL    HW327199   2.602   2.961   5.572  0.6536 -1.8085  1.3485
 6858SOL    MW427200   2.676   2.978   5.528  0.0127 -0.6362  0.6761
 6859SOL     OW27201   1.470   2.318   0.461  0.3647 -0.3687 -0.4870
 6859SOL    HW227202   1.452   2.303   0.368 -1.7107  1.0702 -0.3875
 6859SOL    HW327203   1.458   2.412   0.473  1.0275 -0.4584  1.1743
 6859SOL    MW427204   1.466   2.329   0.450  0.1783 -0.1907 -0.2547
 6860SOL     OW27205   3.352   4.336   3.238  0.1064  0.1583 -0.1404
 6860SOL    HW227206   3.310   4.395   3.174 -0.3917 -0.9237 -0.8353
 6860SOL    HW327207   3.437   4.378   3.256  0.2469  0.5104 -1.4938
 6860SOL    MW427208   3.358   4.350   3.232  0.0592  0.0620 -0.4106
 6861SOL     OW27209   0.117   3.447   3.556  0.4322 -0.1901  0.7165
 6861SOL    HW227210   0.060   3.511   3.599 -0.7058  1.5681 -2.9947
 6861SOL    HW327211   0.201   3.456   3.601 -0.4877  1.7831  2.2136
 6861SOL    MW427212   0.120   3.457   3.568  0.1607  0.3022  0.4244
 6862SOL     OW27213   6.310   1.761   4.104  0.3860 -0.8645  0.2301
 6862SOL    HW227214   6.319   1.839   4.049 -0.0186 -1.1154 -0.1918
 6862SOL    HW327215   6.215   1.753   4.119  0.5195 -0.5380  1.3373
 6862SOL    MW427216   6.298   1.771   4.099  0.3502 -0.8545  0.3206
 6863SOL     OW27217   1.009   4.706   4.781 -0.3018  0.7691  0.6049
 6863SOL    HW227218   1.064   4.691   4.858 -0.2884 -0.9325  0.2950
 6863SOL    HW327219   0.990   4.619   4.747 -1.6429  1.4102 -0.4010
 6863SOL    MW427220   1.014   4.693   4.786 -0.4770  0.6291  0.4313
 6864SOL     OW27221   0.768   5.003   1.598 -0.2585  0.0512 -0.1376
 6864SOL    HW227222   0.746   4.920   1.555 -1.0689  0.1133  0.1308
 6864SOL    HW327223   0.725   4.997   1.684  0.7932  0.2050  0.4100
 6864SOL    MW427224   0.759   4.991   1.604 -0.2267  0.0797 -0.0299
 6865SOL     OW27225   6.063   1.353   1.804 -0.3036  0.3732 -0.6258
 6865SOL    HW227226   5.978   1.381   1.838 -0.4819  1.1542 -1.6343
 6865SOL    HW327227   6.053   1.260   1.785 -0.8768  0.4234 -0.5768
 6865SOL    MW427228   6.051   1.345   1.806 -0.4027  0.4829 -0.7524
 6866SOL     OW27229   1.682   0.889   3.441  0.4229 -0.0940  0.3911
 6866SOL    HW227230   1.665   0.955   3.374  1.7360  2.4435  2.4094
 6866SOL    HW327231   1.601   0.882   3.491 -0.0107 -0.7473 -0.3767
 6866SOL    MW427232   1.669   0.897   3.438  0.5390  0.1546  0.5561
 6867SOL     OW27233   6.187   1.815   0.092  0.0629  0.3397  0.0191
 6867SOL    HW227234   6.212   1.723   0.084  0.2537  0.5036 -1.4728
 6867SOL    HW327235   6.103   1.813   0.138 -0.5032 -0.6605 -1.0231
 6867SOL    MW427236   6.179   1.802   0.097  0.0134  0.2294 -0.3152
 6868SOL     OW27237   1.345   3.073   4.295 -0.1656  0.2215 -0.5613
 6868SOL    HW227238   1.291   3.130   4.241 -0.2373  0.1250 -0.5916
 6868SOL    HW327239   1.416   3.129   4.326  0.2541  0.1082 -1.3029
 6868SOL    MW427240   1.347   3.088   4.292 -0.1197  0.1938 -0.6631
 6869SOL     OW27241   4.200   5.596   1.314  0.1548 -0.4634 -0.3103
 6869SOL    HW227242   4.233   5.678   1.350  0.2594 -0.0835 -1.2327
 6869SOL    HW327243   4.267   5.569   1.251 -0.6210 -0.4127 -1.1766
 6869SOL    MW427244   4.213   5.603   1.311  0.0663 -0.4066 -0.5463
 6870SOL     OW27245   5.530   0.029   1.945  0.1017  0.0131 -0.8097
 6870SOL    HW227246   5.601   0.008   1.885  0.6427  1.2572 -0.6472
 6870SOL    HW327247   5.463  -0.037   1.928  1.6011 -1.6746 -0.4090
 6870SOL    MW427248   5.530   0.018   1.935  0.3709 -0.0454 -0.7354
 6871SOL     OW27249   4.209   6.372   1.429 -0.0818  0.3818  0.4665
 6871SOL    HW227250   4.214   6.402   1.519 -0.8763  0.1111  0.6068
 6871SOL    HW327251   4.176   6.283   1.435  0.6600  0.0663 -0.0460
 6871SOL    MW427252   4.205   6.365   1.441 -0.0887  0.3044  0.4174
 6872SOL     OW27253   1.139   2.407   3.440  0.3699 -0.1249  0.3772
 6872SOL    HW227254   1.063   2.372   3.485  0.1467 -0.8447 -0.5274
 6872SOL    HW327255   1.168   2.480   3.495 -2.3915  1.7556 -0.4194
 6872SOL    MW427256   1.133   2.412   3.453 -0.0239  0.0282  0.1527
 6873SOL     OW27257   0.667   1.764   3.845 -0.3102 -0.1427  0.1339
 6873SOL    HW227258   0.702   1.675   3.847 -1.0017 -0.4026  1.4902
 6873SOL    HW327259   0.642   1.782   3.936  0.1249  1.5583 -0.0565
 6873SOL    MW427260   0.669   1.755   3.857 -0.3441  0.0474  0.2877
 6874SOL     OW27261   5.782   2.900   0.940  0.6943  0.0376 -0.0054
 6874SOL    HW227262   5.785   2.806   0.957  0.4097 -0.0031 -0.1767
 6874SOL    HW327263   5.694   2.927   0.967  0.1938 -0.0448 -1.4598
 6874SOL    MW427264   5.771   2.891   0.946  0.5907  0.0214 -0.2199
 6875SOL     OW27265   2.806   5.120   0.695  0.5070  0.0932 -0.0545
 6875SOL    HW227266   2.827   5.179   0.768 -1.7800  0.2871  0.5203
 6875SOL    HW327267   2.802   5.033   0.735 -0.9444  0.2252  0.1330
 6875SOL    MW427268   2.808   5.117   0.710  0.0137  0.1362  0.0461
 6876SOL     OW27269   0.544   0.272   1.363 -0.5937 -0.6289  0.0034
 6876SOL    HW227270   0.562   0.247   1.454  0.3443  0.7861  0.2354
 6876SOL    HW327271   0.568   0.364   1.358 -3.4596  0.1818 -0.9354
 6876SOL    MW427272   0.550   0.280   1.374 -0.8480 -0.3353 -0.0898
 6877SOL     OW27273   6.253   0.388   0.566 -0.0502  0.0225 -0.2315
 6877SOL    HW227274   6.241   0.296   0.591  0.1743 -0.0006 -0.2114
 6877SOL    HW327275   6.309   0.386   0.489 -0.2550  0.1306 -0.3870
 6877SOL    MW427276   6.259   0.376   0.559 -0.0476  0.0337 -0.2493
 6878SOL     OW27277   0.689   2.255   5.115 -0.1919 -0.3117 -0.4168
 6878SOL    HW227278   0.784   2.247   5.100 -0.0960 -0.1828  0.0897
 6878SOL    HW327279   0.649   2.207   5.043  0.3141 -2.4683  0.6527
 6878SOL    MW427280   0.697   2.247   5.104 -0.1125 -0.5793 -0.2089
 6879SOL     OW27281   4.985   5.862   0.294  0.1989  0.8900  0.7904
 6879SOL    HW227282   4.954   5.849   0.383  2.0831 -0.3081  1.3304
 6879SOL    HW327283   5.005   5.955   0.288 -2.1148  1.4433  0.8263
 6879SOL    MW427284   4.984   5.872   0.305  0.1422  0.8049  0.8664
 6880SOL     OW27285   1.668   2.322   5.828  0.0367 -0.3931 -0.0613
 6880SOL    HW227286   1.627   2.239   5.807 -0.4451 -0.1864  0.0527
 6880SOL    HW327287   1.762   2.306   5.819 -0.0701 -0.8661 -0.3243
 6880SOL    MW427288   1.675   2.309   5.824 -0.0409 -0.4283 -0.0810
 6881SOL     OW27289   1.047   1.480   1.934  0.2007 -0.4293 -0.2676
 6881SOL    HW227290   0.978   1.481   2.001  0.7238  2.6822  0.3577
 6881SOL    HW327291   1.124   1.447   1.980  0.2308  0.4364  0.3272
 6881SOL    MW427292   1.048   1.476   1.949  0.2737  0.0955 -0.1067
 6882SOL     OW27293   1.331   3.401   6.398 -0.4518 -0.0165  0.1919
 6882SOL    HW227294   1.309   3.494   6.392  0.9038  0.3728  0.9174
 6882SOL    HW327295   1.420   3.396   6.363 -0.1973 -0.9067  0.9611
 6882SOL    MW427296   1.340   3.413   6.392 -0.2393 -0.0826  0.3891
 6883SOL     OW27297   0.879   1.361   5.827  0.2046 -0.9235 -0.0643
 6883SOL    HW227298   0.917   1.427   5.768 -0.9195 -0.1227  0.0762
 6883SOL    HW327299   0.819   1.311   5.772 -2.8278  1.4514  0.7884
 6883SOL    MW427300   0.876   1.363   5.812 -0.3438 -0.5045  0.0668
 6884SOL     OW27301   0.010   4.802   1.781 -0.7346  0.0675  0.4921
 6884SOL    HW227302  -0.076   4.843   1.777 -0.1572  1.5250  1.8711
 6884SOL    HW327303   0.069   4.872   1.810  0.4131 -1.5852  2.4542
 6884SOL    MW427304   0.007   4.816   1.784 -0.5070  0.0417  0.9329
 6885SOL     OW27305   0.168   2.841   4.524  0.2117 -0.0606  0.3120
 6885SOL    HW227306   0.207   2.805   4.604 -2.1323 -2.6361  0.4383
 6885SOL    HW327307   0.088   2.883   4.555  0.4129  0.9324 -0.4786
 6885SOL    MW427308   0.163   2.842   4.539 -0.0710 -0.2694  0.2244
 6886SOL     OW27309   0.700   1.147   3.878 -0.2160 -0.1683 -0.2635
 6886SOL    HW227310   0.640   1.118   3.946  1.3111 -0.1187  1.1666
 6886SOL    HW327311   0.720   1.068   3.828  1.1587 -0.9533  1.4072
 6886SOL    MW427312   0.695   1.133   3.880  0.1669 -0.2654  0.1456
 6887SOL     OW27313   1.327   3.586   5.790  0.0312  0.2253 -0.6014
 6887SOL    HW227314   1.307   3.535   5.712  0.4868 -2.5983  0.9793
 6887SOL    HW327315   1.423   3.583   5.797  0.0296  0.8474 -0.1621
 6887SOL    MW427316   1.337   3.579   5.781  0.0911 -0.0651 -0.3349
 6888SOL     OW27317   5.984   0.583   0.243  0.5399  0.3854 -0.1932
 6888SOL    HW227318   6.070   0.577   0.199 -0.2022 -0.7469 -1.5811
 6888SOL    HW327319   6.001   0.554   0.333  1.5176 -0.4029 -0.6082
 6888SOL    MW427320   5.998   0.578   0.249  0.5710  0.1320 -0.4310
 6889SOL     OW27321   5.681   3.865   4.258 -0.1967 -0.0553 -0.3836
 6889SOL    HW227322   5.706   3.927   4.326 -1.6289  1.5704 -1.2664
 6889SOL    HW327323   5.646   3.790   4.306  1.8608 -0.3750  0.7148
 6889SOL    MW427324   5.680   3.863   4.274 -0.1142  0.1170 -0.3551
 6890SOL     OW27325   3.547   2.222   0.637  0.0090  0.2045  0.8530
 6890SOL    HW227326   3.578   2.305   0.674  1.0489  0.5293 -0.6438
 6890SOL    HW327327   3.566   2.157   0.705 -0.1328  1.0886  1.7487
 6890SOL    MW427328   3.554   2.224   0.651  0.1275  0.3640  0.7737
 6891SOL     OW27329   0.193   0.385   2.642 -0.6686  0.1408  0.2062
 6891SOL    HW227330   0.287   0.366   2.644 -0.9966 -1.6032  0.7920
 6891SOL    HW327331   0.175   0.408   2.551  0.2479  0.0682 -0.0030
 6891SOL    MW427332   0.203   0.385   2.630 -0.5909 -0.0989  0.2559
 6892SOL     OW27333   6.250   2.174   0.630 -0.4602  0.0575 -0.3967
 6892SOL    HW227334   6.286   2.242   0.574  1.3243 -1.1360 -0.7857
 6892SOL    HW327335   6.199   2.118   0.570 -0.9095  0.3434 -0.2912
 6892SOL    MW427336   6.248   2.175   0.614 -0.2841 -0.0623 -0.4341
 6893SOL     OW27337   1.213   5.105   3.817 -0.6435 -0.1810 -0.1353
 6893SOL    HW227338   1.276   5.152   3.763 -0.7717 -0.8348 -0.8865
 6893SOL    HW327339   1.137   5.094   3.759 -0.8190 -0.8151  0.2117
 6893SOL    MW427340   1.211   5.110   3.802 -0.6836 -0.3509 -0.1887
 6894SOL     OW27341   5.746   3.018   2.653 -0.2237  0.0624  0.4193
 6894SOL    HW227342   5.661   3.001   2.612  0.0898 -0.6929  0.0578
 6894SOL    HW327343   5.775   2.932   2.683 -0.4825  0.5899  2.3400
 6894SOL    MW427344   5.738   3.004   2.652 -0.2165  0.0324  0.6250
 6895SOL     OW27345   4.429   0.205   3.920  0.2551  0.8281  0.0046
 6895SOL    HW227346   4.506   0.150   3.927  0.3097  0.8433 -0.4867
 6895SOL    HW327347   4.381   0.170   3.845 -0.0595  1.0128  0.1176
 6895SOL    MW427348   4.433   0.193   3.911  0.2208  0.8545 -0.0453
 6896SOL     OW27349   3.340   5.936   0.040  0.1711  0.3146 -0.1528
 6896SOL    HW227350   3.314   5.938   0.133 -1.1650  0.6756 -0.5029
 6896SOL    HW327351   3.319   6.024   0.008  0.9086  0.2825 -0.7290
 6896SOL    MW427352   3.334   5.948   0.048  0.0921  0.3580 -0.2750
 6897SOL     OW27353   2.685   3.008   1.136  0.3046  0.1143 -0.2630
 6897SOL    HW227354   2.706   3.005   1.229  2.2224  1.2706 -0.5982
 6897SOL    HW327355   2.599   3.049   1.131 -0.3932 -1.1257  1.0378
 6897SOL    MW427356   2.677   3.013   1.147  0.4656  0.1033 -0.1356
 6898SOL     OW27357   3.134   0.780   6.238  0.3895 -0.6015  0.3203
 6898SOL    HW227358   3.202   0.764   6.172 -0.7315  1.3595 -1.4150
 6898SOL    HW327359   3.086   0.697   6.242  0.5132 -0.7860 -1.3122
 6898SOL    MW427360   3.137   0.767   6.230  0.2579 -0.3671 -0.1240
 6899SOL     OW27361   4.109   2.888   5.573  0.4324 -0.4907  0.0224
 6899SOL    HW227362   4.053   2.880   5.650 -0.7756  0.0184 -0.7815
 6899SOL    HW327363   4.096   2.806   5.525  2.0094 -1.2863  0.8443
 6899SOL    MW427364   4.100   2.876   5.577  0.4811 -0.5285  0.0248
 6900SOL     OW27365   4.425   4.941   2.568  0.2709  0.1643 -0.4063
 6900SOL    HW227366   4.428   4.969   2.659 -0.9127  2.0866 -0.9054
 6900SOL    HW327367   4.478   4.861   2.566  0.1591 -0.0375  1.9803
 6900SOL    MW427368   4.433   4.934   2.580  0.1000  0.3913 -0.1573
 6901SOL     OW27369   3.788   3.369   4.391  0.0862  0.2364  0.2399
 6901SOL    HW227370   3.838   3.300   4.347 -0.8663  0.3918 -1.1314
 6901SOL    HW327371   3.823   3.370   4.480  2.0476 -0.1150 -0.4751
 6901SOL    MW427372   3.800   3.360   4.397  0.2193  0.2105 -0.0354
 6902SOL     OW27373   1.317   4.169   2.593  0.2468 -0.0154  0.0189
 6902SOL    HW227374   1.278   4.210   2.516  0.5194  1.4473  0.6451
 6902SOL    HW327375   1.246   4.166   2.657  1.1917  3.2739  1.4026
 6902SOL    MW427376   1.303   4.174   2.591  0.4074  0.6116  0.2841
 6903SOL     OW27377   5.301   2.703   1.217  0.0025  0.1778 -0.2230
 6903SOL    HW227378   5.389   2.739   1.229  0.2851  0.1626 -1.9185
 6903SOL    HW327379   5.242   2.776   1.235  0.3273  0.0980  1.2444
 6903SOL    MW427380   5.304   2.717   1.221  0.0826  0.1653 -0.2531
 6904SOL     OW27381   0.284   1.927   1.688  0.0711 -0.4209 -0.0596
 6904SOL    HW227382   0.261   1.864   1.620  1.3869 -1.1242  0.1329
 6904SOL    HW327383   0.200   1.965   1.714 -0.5283 -0.6177 -1.5931
 6904SOL    MW427384   0.270   1.924   1.683  0.1656 -0.5397 -0.2365
 6905SOL     OW27385   5.555   1.571   2.408  0.1319 -0.5048  0.0917
 6905SOL    HW227386   5.507   1.498   2.369 -0.5297  0.3410 -0.7299
 6905SOL    HW327387   5.641   1.568   2.365 -1.0695  1.3270 -2.7268
 6905SOL    MW427388   5.560   1.561   2.397 -0.1139 -0.1515 -0.3886
 6906SOL     OW27389   0.105   3.597   5.970  0.2668 -0.0078 -1.0889
 6906SOL    HW227390   0.086   3.575   5.879  0.0826 -0.2559 -0.9896
 6906SOL    HW327391   0.019   3.614   6.009  0.3750  0.5246 -1.0690
 6906SOL    MW427392   0.091   3.596   5.963  0.2568  0.0297 -1.0732
 6907SOL     OW27393   3.133   6.126   6.328  0.2002 -0.1171  0.4735
 6907SOL    HW227394   3.063   6.062   6.311  0.6270 -0.6189  0.5795
 6907SOL    HW327395   3.117   6.196   6.264 -0.5601 -0.0934  0.6775
 6907SOL    MW427396   3.122   6.127   6.317  0.1562 -0.1802  0.5144
 6908SOL     OW27397   5.887   5.242   2.887  0.0706  0.2627  0.1991
 6908SOL    HW227398   5.854   5.331   2.872 -2.8351 -0.7372  0.0824
 6908SOL    HW327399   5.862   5.222   2.977  1.5579 -0.1441  0.5548
 6908SOL    MW427400   5.879   5.251   2.897 -0.1165  0.0771  0.2307
 6909SOL     OW27401   2.720   3.388   2.735  0.2147 -0.4084 -0.0878
 6909SOL    HW227402   2.805   3.409   2.774 -0.5006 -0.8157  1.7866
 6909SOL    HW327403   2.735   3.396   2.641  2.4795 -1.0643  0.1462
 6909SOL    MW427404   2.733   3.392   2.728  0.4191 -0.5487  0.1903
 6910SOL     OW27405   1.509   5.621   5.369 -0.4222  0.3256  0.0371
 6910SOL    HW227406   1.426   5.665   5.349 -0.6071  0.0295  0.1539
 6910SOL    HW327407   1.490   5.528   5.359 -0.2634  0.2245  0.6437
 6910SOL    MW427408   1.496   5.615   5.365 -0.4257  0.2732  0.1325
 6911SOL     OW27409   5.527   6.278   0.499  0.0601  0.3408 -0.1958
 6911SOL    HW227410   5.478   6.355   0.529  0.1321 -0.0285  0.9328
 6911SOL    HW327411   5.590   6.313   0.437  0.7029  1.3498  0.9822
 6911SOL    MW427412   5.529   6.293   0.495  0.1544  0.4252  0.1086
 6912SOL     OW27413   5.075   3.896   2.011 -0.7284  0.0202 -0.1152
 6912SOL    HW227414   5.041   3.918   2.098 -0.4332 -1.6244  0.4459
 6912SOL    HW327415   5.056   3.974   1.958 -1.5649  0.7780  1.2274
 6912SOL    MW427416   5.068   3.909   2.016 -0.7998 -0.0968  0.1360
 6913SOL     OW27417   2.459   3.530   6.397  0.2192  0.0825 -0.0720
 6913SOL    HW227418   2.465   3.597   6.329  0.3586  0.1482  0.0040
 6913SOL    HW327419   2.498   3.452   6.357  0.2685  0.1111 -0.0794
 6913SOL    MW427420   2.465   3.529   6.383  0.2441  0.0949 -0.0630
 6914SOL     OW27421   0.253   6.426   3.277  0.1469 -0.1645 -0.0362
 6914SOL    HW227422   0.328   6.407   3.221  0.1911 -0.5863  0.1624
 6914SOL    HW327423   0.189   6.359   3.255  0.9576 -1.6700  1.8906
 6914SOL    MW427424   0.255   6.415   3.267  0.2597 -0.4188  0.2442
 6915SOL     OW27425   2.382   2.036   2.933  0.0786  0.1622  0.2955
 6915SOL    HW227426   2.320   2.063   2.865 -0.3514 -0.1471  0.5559
 6915SOL    HW327427   2.468   2.039   2.890 -0.3783 -2.1742 -0.9475
 6915SOL    MW427428   2.385   2.040   2.918 -0.0384 -0.1869  0.1658
 6916SOL     OW27429   4.712   3.920   6.121 -0.0007  0.4333 -0.5653
 6916SOL    HW227430   4.783   3.948   6.180  0.8253  0.1550 -1.3987
 6916SOL    HW327431   4.707   3.825   6.135 -2.3328  0.7865  1.7564
 6916SOL    MW427432   4.721   3.911   6.131 -0.1994  0.4432 -0.3689
 6917SOL     OW27433   5.540   2.667   2.465  0.0614 -0.0188 -0.2853
 6917SOL    HW227434   5.492   2.697   2.388  0.1776 -1.4973 -0.9651
 6917SOL    HW327435   5.474   2.624   2.519 -0.2472  1.9501  1.0248
 6917SOL    MW427436   5.525   2.665   2.462  0.0360  0.0459 -0.2022
 6918SOL     OW27437   5.102   2.967   1.856 -0.2909  0.1266 -0.2628
 6918SOL    HW227438   5.168   2.937   1.918  1.8722  1.9696 -1.5516
 6918SOL    HW327439   5.036   3.010   1.910  0.9889  0.7258  0.8611
 6918SOL    MW427440   5.102   2.968   1.871  0.1634  0.4488 -0.2845
 6919SOL     OW27441   0.428   0.991   0.964  0.1506 -0.0943 -0.1911
 6919SOL    HW227442   0.376   1.039   1.028  2.4728  0.2712  1.5581
 6919SOL    HW327443   0.418   0.899   0.989 -1.5310 -0.2881 -1.4012
 6919SOL    MW427444   0.420   0.985   0.975  0.2351 -0.0717 -0.1199
 6920SOL     OW27445   2.842   5.610   2.088  0.0153  0.0632 -0.2152
 6920SOL    HW227446   2.822   5.658   2.008  1.9869  0.3757 -0.5627
 6920SOL    HW327447   2.937   5.609   2.093 -0.0310  0.1802  2.2045
 6920SOL    MW427448   2.852   5.616   2.078  0.2693  0.1199  0.0582
 6921SOL     OW27449   0.847   1.865   1.017 -0.4633 -0.1285  0.0246
 6921SOL    HW227450   0.801   1.899   0.940 -1.9211 -2.6790 -0.3437
 6921SOL    HW327451   0.796   1.897   1.091 -1.2980 -0.7711 -0.2623
 6921SOL    MW427452   0.834   1.874   1.016 -0.7658 -0.5498 -0.0619
 6922SOL     OW27453   5.464   4.862   1.895  0.2324 -0.1592 -0.4746
 6922SOL    HW227454   5.375   4.898   1.889  0.1508  0.8796  3.7253
 6922SOL    HW327455   5.473   4.838   1.987  4.6057  0.6867 -0.4991
 6922SOL    MW427456   5.453   4.864   1.907  0.7986  0.0894  0.0763
 6923SOL     OW27457   3.071   4.309   0.462 -0.8489  0.0184  0.4859
 6923SOL    HW227458   2.994   4.281   0.510 -2.2771  0.2508 -1.5352
 6923SOL    HW327459   3.127   4.231   0.459 -0.5913  0.0602  2.6064
 6923SOL    MW427460   3.068   4.295   0.468 -1.0033  0.0546  0.4990
 6924SOL     OW27461   4.329   0.009   2.494  0.1626  0.1713  0.2673
 6924SOL    HW227462   4.412   0.043   2.460 -1.0428  1.0325 -2.0273
 6924SOL    HW327463   4.355  -0.062   2.552  2.5397  1.2291  0.6422
 6924SOL    MW427464   4.343   0.004   2.497  0.3172  0.4245  0.0140
 6925SOL     OW27465   4.339   1.036   2.566 -0.0280  0.6906  0.1502
 6925SOL    HW227466   4.429   1.026   2.595 -0.1315  0.4677  0.4016
 6925SOL    HW327467   4.333   1.126   2.534  0.0997  0.9246  0.7828
 6925SOL    MW427468   4.350   1.047   2.565 -0.0248  0.6921  0.2668
 6926SOL     OW27469   4.944   1.413   4.306 -0.0531  0.3798  0.3085
 6926SOL    HW227470   5.039   1.401   4.311 -0.0887  0.2462  0.7457
 6926SOL    HW327471   4.918   1.361   4.230  0.0849 -0.5413  0.8730
 6926SOL    MW427472   4.953   1.404   4.297 -0.0396  0.2406  0.4407
 6927SOL     OW27473   3.133   0.256   5.027  0.4462  0.3307  0.2089
 6927SOL    HW227474   3.084   0.233   4.948  2.7073 -0.3886 -1.0864
 6927SOL    HW327475   3.066   0.283   5.090 -1.5232 -0.0388 -1.6044
 6927SOL    MW427476   3.118   0.257   5.025  0.4847  0.1871 -0.2013
 6928SOL     OW27477   4.641   5.154   5.384 -0.0179 -0.5607 -0.1010
 6928SOL    HW227478   4.622   5.125   5.295 -0.4068 -1.3463  0.2230
 6928SOL    HW327479   4.703   5.089   5.417  0.9313  0.3100 -0.1400
 6928SOL    MW427480   4.647   5.141   5.377  0.0560 -0.5495 -0.0634
 6929SOL     OW27481   0.318   4.244   6.395 -0.0851  0.1928  0.6374
 6929SOL    HW227482   0.283   4.155   6.390 -0.7684  0.5390 -2.2265
 6929SOL    HW327483   0.249   4.300   6.360  1.3094  1.5175 -0.1353
 6929SOL    MW427484   0.305   4.239   6.390  0.0088  0.4132  0.1576
 6930SOL     OW27485   1.867   4.164   5.841  0.5773  0.6234 -0.1501
 6930SOL    HW227486   1.840   4.121   5.922 -2.0055  0.2053 -1.1130
 6930SOL    HW327487   1.895   4.251   5.867  0.2149  0.3431  1.2363
 6930SOL    MW427488   1.867   4.170   5.855  0.1887  0.5313 -0.0943
 6931SOL     OW27489   3.746   1.470   0.815 -0.0832 -0.5259  0.0462
 6931SOL    HW227490   3.760   1.530   0.743 -0.6906  0.6367  0.8629
 6931SOL    HW327491   3.651   1.474   0.832 -0.2204 -2.0860 -0.1914
 6931SOL    MW427492   3.735   1.478   0.808 -0.1814 -0.5784  0.1226
 6932SOL     OW27493   3.696   6.193   2.908 -0.0415  0.0954 -0.2460
 6932SOL    HW227494   3.658   6.247   2.838  1.3184 -0.1879 -1.2459
 6932SOL    HW327495   3.626   6.132   2.931 -0.3409 -0.1893 -1.7776
 6932SOL    MW427496   3.681   6.192   2.902  0.0985  0.0205 -0.5800
 6933SOL     OW27497   6.369   0.335   3.807 -0.2485 -0.0259 -0.6668
 6933SOL    HW227498   6.445   0.295   3.850 -0.2333  1.1912  0.5023
 6933SOL    HW327499   6.298   0.274   3.825  0.3086 -0.8492 -1.2019
 6933SOL    MW427500   6.370   0.322   3.815 -0.1730  0.0261 -0.5832
 6934SOL     OW27501   5.091   4.031   0.093 -0.1846  0.8105 -0.1990
 6934SOL    HW227502   5.150   4.095   0.053  2.1256 -1.5250 -0.8000
 6934SOL    HW327503   5.072   4.066   0.180  0.6159  2.5021 -0.6667
 6934SOL    MW427504   5.096   4.044   0.099  0.2258  0.7256 -0.3400
 6935SOL     OW27505   5.836   0.166   1.583 -0.1530 -0.0026 -0.5204
 6935SOL    HW227506   5.813   0.090   1.637  1.0944  1.1161  1.7238
 6935SOL    HW327507   5.930   0.156   1.566 -0.2051  0.5024 -1.1515
 6935SOL    MW427508   5.845   0.155   1.588  0.0047  0.2116 -0.3076
 6936SOL     OW27509   0.692   3.165   3.109  0.3863 -0.7384 -0.0921
 6936SOL    HW227510   0.705   3.259   3.119  1.3076 -0.8161 -0.3890
 6936SOL    HW327511   0.604   3.149   3.143  0.6189  0.0658  0.9813
 6936SOL    MW427512   0.682   3.175   3.115  0.5385 -0.6425  0.0103
 6937SOL     OW27513   2.853   3.972   2.346  0.4833  0.4076 -0.0524
 6937SOL    HW227514   2.862   4.004   2.435 -0.5043  1.2358 -0.2348
 6937SOL    HW327515   2.767   4.003   2.317 -0.3242 -1.9987 -0.4236
 6937SOL    MW427516   2.843   3.980   2.354  0.2465  0.1994 -0.1254
 6938SOL     OW27517   4.681   1.418   2.093 -0.1780  0.0128  0.1843
 6938SOL    HW227518   4.749   1.438   2.028 -0.6847 -0.2818 -0.4378
 6938SOL    HW327519   4.601   1.407   2.042 -0.6437  0.0787  0.8904
 6938SOL    MW427520   4.680   1.419   2.078 -0.3063 -0.0174  0.1953
 6939SOL     OW27521   2.070   0.974   1.223  0.1382 -0.0769 -0.5896
 6939SOL    HW227522   1.993   1.027   1.199  0.0453 -0.3186 -0.8279
 6939SOL    HW327523   2.107   1.019   1.299  0.2342  0.5065 -0.9726
 6939SOL    MW427524   2.064   0.987   1.230  0.1386 -0.0318 -0.6716
 6940SOL     OW27525   0.710   2.209   0.203 -0.5301 -1.2464 -0.0130
 6940SOL    HW227526   0.710   2.152   0.126 -1.8714 -0.7962 -0.3847
 6940SOL    HW327527   0.802   2.226   0.220 -0.1677 -2.3680 -0.7622
 6940SOL    MW427528   0.722   2.204   0.195 -0.6592 -1.3350 -0.1609
 6941SOL     OW27529   4.662   4.692   1.339 -0.4232 -0.6405  0.3630
 6941SOL    HW227530   4.713   4.773   1.333 -1.0226 -0.1673  1.3431
 6941SOL    HW327531   4.725   4.622   1.324  0.3276 -0.0285  0.6011
 6941SOL    MW427532   4.677   4.693   1.337 -0.4032 -0.4973  0.5237
 6942SOL     OW27533   2.390   3.594   2.254 -0.6943 -0.2136 -0.6009
 6942SOL    HW227534   2.420   3.685   2.257  1.7463 -0.9357 -0.9484
 6942SOL    HW327535   2.311   3.593   2.308 -0.5682  2.0270 -0.2760
 6942SOL    MW427536   2.384   3.606   2.261 -0.3557 -0.0132 -0.6039
 6943SOL     OW27537   1.572   0.385   2.014  0.3068 -0.3457  0.3842
 6943SOL    HW227538   1.662   0.387   1.982  0.0700 -0.6328 -0.3325
 6943SOL    HW327539   1.575   0.327   2.090  1.1673  1.5464  1.8767
 6943SOL    MW427540   1.584   0.377   2.020  0.3891 -0.1339  0.4865
 6944SOL     OW27541   0.855   4.814   3.904 -0.1173  0.2934  0.0197
 6944SOL    HW227542   0.888   4.726   3.885 -0.7823  0.1931 -0.7751
 6944SOL    HW327543   0.913   4.849   3.971 -0.2887 -1.0426  0.8992
 6944SOL    MW427544   0.867   4.807   3.910 -0.2276  0.1039  0.0309
 6945SOL     OW27545   3.147   1.733   4.217  0.0094  0.1435  0.4999
 6945SOL    HW227546   3.160   1.773   4.303  1.7074 -0.1124  0.3827
 6945SOL    HW327547   3.184   1.796   4.155  0.7817 -0.6535  0.1427
 6945SOL    MW427548   3.154   1.747   4.220  0.3354  0.0046  0.4373
 6946SOL     OW27549   3.666   3.837   0.751  0.2104 -0.5536 -0.0043
 6946SOL    HW227550   3.690   3.821   0.660  0.4935 -0.8728  0.1217
 6946SOL    HW327551   3.705   3.922   0.771  2.2599 -1.5335  0.5145
 6946SOL    MW427552   3.675   3.846   0.742  0.5182 -0.7250  0.0808
 6947SOL     OW27553   0.899   5.301   1.742 -0.1582  0.3952  0.3193
 6947SOL    HW227554   0.974   5.314   1.684  0.7963  0.0209  1.4470
 6947SOL    HW327555   0.880   5.388   1.777  0.3559  0.3378  0.7518
 6947SOL    MW427556   0.906   5.314   1.739  0.0356  0.3382  0.5251
 6948SOL     OW27557   1.444   5.471   3.105 -1.0211 -0.4696 -0.6233
 6948SOL    HW227558   1.397   5.549   3.077 -1.0760 -0.3299 -0.1368
 6948SOL    HW327559   1.484   5.437   3.024 -0.1328  0.6347 -0.6652
 6948SOL    MW427560   1.443   5.477   3.090 -0.9112 -0.3055 -0.5647
 6949SOL     OW27561   2.907   0.307   3.161 -0.2454 -0.2202  0.5049
 6949SOL    HW227562   2.862   0.249   3.100 -0.5943 -1.0878  1.5512
 6949SOL    HW327563   2.890   0.395   3.128  0.0493 -0.6827 -0.9500
 6949SOL    MW427564   2.899   0.311   3.148 -0.2526 -0.3957  0.4510
 6950SOL     OW27565   3.081   5.585   4.914  0.3227  0.6018  0.6810
 6950SOL    HW227566   2.996   5.551   4.886  0.5952  0.3988  0.0849
 6950SOL    HW327567   3.060   5.648   4.982 -0.4791  2.0841 -0.8473
 6950SOL    MW427568   3.067   5.589   4.919  0.2528  0.7706  0.4007
 6951SOL     OW27569   4.232   1.483   4.699 -0.0963 -0.2923  0.2988
 6951SOL    HW227570   4.217   1.564   4.650  0.8774  0.2310  0.8496
 6951SOL    HW327571   4.149   1.468   4.746 -0.1812  0.5499  0.4354
 6951SOL    MW427572   4.219   1.492   4.698  0.0210 -0.1122  0.3895
 6952SOL     OW27573   5.172   0.062   3.552 -0.3436  0.4045 -0.2710
 6952SOL    HW227574   5.254   0.110   3.558  0.0354 -0.2650  0.0858
 6952SOL    HW327575   5.134   0.068   3.639 -0.0179 -0.4008 -0.0622
 6952SOL    MW427576   5.178   0.069   3.564 -0.2506  0.2099 -0.1964
 6953SOL     OW27577   6.342   5.471   3.142  0.0110  0.3719  0.3051
 6953SOL    HW227578   6.351   5.471   3.047  0.3106  0.1787  0.3325
 6953SOL    HW327579   6.251   5.498   3.157 -0.9279 -2.2189 -0.1367
 6953SOL    MW427580   6.331   5.474   3.131 -0.0734  0.0046  0.2504
 6954SOL     OW27581   4.290   1.197   5.288 -0.2337  0.4526  0.2516
 6954SOL    HW227582   4.318   1.115   5.248  1.8910  1.9396 -1.5309
 6954SOL    HW327583   4.245   1.244   5.218  0.3923  1.6550  0.6420
 6954SOL    MW427584   4.287   1.192   5.274  0.1292  0.8075  0.0680
 6955SOL     OW27585  -0.031   0.369   0.320 -0.2564  0.1717  0.1667
 6955SOL    HW227586  -0.103   0.367   0.257  0.8186  1.3660 -1.1409
 6955SOL    HW327587   0.023   0.293   0.298  0.0347  0.5001 -0.2556
 6955SOL    MW427588  -0.034   0.359   0.309 -0.0761  0.3726 -0.0616
 6956SOL     OW27589   2.149   3.170   2.513  0.3882 -0.4411  0.1736
 6956SOL    HW227590   2.063   3.142   2.483  1.0217 -3.2366  0.6450
 6956SOL    HW327591   2.144   3.265   2.516 -2.4251 -0.4814 -0.4981
 6956SOL    MW427592   2.137   3.179   2.509  0.1006 -0.8152  0.1472
 6957SOL     OW27593   2.900   2.863   1.000  0.2439  0.2203  0.1307
 6957SOL    HW227594   2.810   2.896   1.000  0.2879  0.5070 -2.0061
 6957SOL    HW327595   2.915   2.832   1.089 -2.2637 -0.6489  0.3250
 6957SOL    MW427596   2.890   2.863   1.011 -0.0812  0.1435 -0.1256
 6958SOL     OW27597   0.818   5.150   4.256 -0.3938 -0.0158 -0.5124
 6958SOL    HW227598   0.883   5.084   4.232 -0.3354 -0.1401 -0.0303
 6958SOL    HW327599   0.750   5.143   4.188  0.0095 -0.0077 -0.9160
 6958SOL    MW427600   0.817   5.140   4.244 -0.3329 -0.0311 -0.5021
 6959SOL     OW27601   4.718   5.213   5.713 -0.2424  0.3691 -0.6015
 6959SOL    HW227602   4.722   5.190   5.806  0.2165  1.5678 -0.3055
 6959SOL    HW327603   4.770   5.145   5.670  1.1541  0.8481  0.2503
 6959SOL    MW427604   4.726   5.201   5.720  0.0024  0.5905 -0.4501
 6960SOL     OW27605   4.531   2.220   5.942 -0.3346 -0.0968 -0.5759
 6960SOL    HW227606   4.595   2.196   6.008  0.6016  1.2463 -0.9400
 6960SOL    HW327607   4.518   2.141   5.890 -1.5699 -1.3582  1.5567
 6960SOL    MW427608   4.538   2.207   5.944 -0.3741 -0.0860 -0.3426
 6961SOL     OW27609   4.436   3.004   5.688  0.2080 -0.5309  0.8456
 6961SOL    HW227610   4.497   2.975   5.755  1.1341 -0.7032 -0.0499
 6961SOL    HW327611   4.363   2.941   5.692  0.7609 -1.1685  0.9669
 6961SOL    MW427612   4.434   2.992   5.697  0.4031 -0.6377  0.7435
 6962SOL     OW27613   0.128   4.561   0.258  0.3072 -0.1104  0.4291
 6962SOL    HW227614   0.159   4.644   0.222 -2.5180  1.3801  1.0752
 6962SOL    HW327615   0.134   4.573   0.353 -0.3780 -0.5109  0.5273
 6962SOL    MW427616   0.133   4.574   0.266 -0.1560  0.0334  0.5273
 6963SOL     OW27617   1.204   4.228   5.866 -0.1737 -0.4312 -0.4000
 6963SOL    HW227618   1.209   4.240   5.771  0.0811  0.8097 -0.2390
 6963SOL    HW327619   1.125   4.177   5.879  0.4109 -1.6494 -1.3610
 6963SOL    MW427620   1.194   4.223   5.855 -0.0630 -0.4282 -0.5056
 6964SOL     OW27621   2.818   5.634   3.713  0.0977 -0.0232 -0.4402
 6964SOL    HW227622   2.740   5.685   3.695 -0.2781 -0.5031 -0.1931
 6964SOL    HW327623   2.865   5.685   3.780  0.2139  0.4741 -0.8991
 6964SOL    MW427624   2.814   5.647   3.720  0.0634 -0.0209 -0.4681
 6965SOL     OW27625   1.953   1.488   3.191 -0.0582  0.1225 -0.2520
 6965SOL    HW227626   1.995   1.411   3.151 -0.2869  0.9218 -2.1476
 6965SOL    HW327627   2.019   1.524   3.249  0.0218 -1.5434  0.7715
 6965SOL    MW427628   1.967   1.482   3.193 -0.0778  0.0082 -0.3671
 6966SOL     OW27629   2.767   4.952   0.967 -0.0119  0.1944 -0.4859
 6966SOL    HW227630   2.786   4.860   0.986  0.8356  0.1102 -1.6367
 6966SOL    HW327631   2.839   5.000   1.008  1.0722  0.1088 -2.1641
 6966SOL    MW427632   2.779   4.947   0.975  0.2430  0.1720 -0.8592
 6967SOL     OW27633   6.382   6.082   5.321  0.0814 -0.1873 -0.3235
 6967SOL    HW227634   6.404   5.991   5.341  0.5297 -0.2637 -1.1139
 6967SOL    HW327635   6.347   6.080   5.233  2.0706  0.6561 -1.1986
 6967SOL    MW427636   6.380   6.070   5.312  0.4030 -0.0861 -0.5432
 6968SOL     OW27637   4.360   4.428   5.654 -0.1017 -0.6592 -0.2128
 6968SOL    HW227638   4.426   4.477   5.704  0.0890  1.3128 -2.2398
 6968SOL    HW327639   4.409   4.356   5.615  0.7099  0.2900 -0.9963
 6968SOL    MW427640   4.375   4.425   5.656  0.0306 -0.2738 -0.5836
 6969SOL     OW27641   4.174   1.967   3.680  0.1157 -0.0311 -0.2360
 6969SOL    HW227642   4.167   1.906   3.753  0.6943 -2.0821 -1.8181
 6969SOL    HW327643   4.085   2.002   3.670 -0.5533 -1.5892 -0.0623
 6969SOL    MW427644   4.161   1.964   3.688  0.1038 -0.5073 -0.4218
 6970SOL     OW27645   6.299   0.265   0.899  0.1029  0.5412  0.0409
 6970SOL    HW227646   6.384   0.252   0.858  0.1516  0.2428  0.2379
 6970SOL    HW327647   6.318   0.317   0.978 -0.1083  2.0052 -0.8284
 6970SOL    MW427648   6.312   0.270   0.904  0.0815  0.6950 -0.0478
 6971SOL     OW27649   5.307   0.649   5.736  0.2893  0.1238 -0.2300
 6971SOL    HW227650   5.370   0.579   5.717 -0.3247 -0.2953 -0.7866
 6971SOL    HW327651   5.302   0.699   5.654 -1.0903 -0.6522 -0.6576
 6971SOL    MW427652   5.315   0.647   5.723  0.0263 -0.0338 -0.3599
 6972SOL     OW27653   4.256   4.725   0.676 -0.1048 -0.3978 -0.3025
 6972SOL    HW227654   4.163   4.721   0.652  0.1272  1.1070 -1.6461
 6972SOL    HW327655   4.288   4.805   0.634  1.9650 -1.2384 -0.4534
 6972SOL    MW427656   4.248   4.735   0.667  0.1989 -0.3102 -0.4997
 6973SOL     OW27657   4.759   5.457   2.491 -0.5886  0.2868  0.3520
 6973SOL    HW227658   4.828   5.396   2.517 -0.6472  0.0569 -0.0197
 6973SOL    HW327659   4.748   5.515   2.567  0.7374  0.9982  0.0304
 6973SOL    MW427660   4.767   5.457   2.505 -0.4214  0.3503  0.2606
 6974SOL     OW27661   1.731   3.168   0.502  0.8681  0.0313 -0.9780
 6974SOL    HW227662   1.682   3.136   0.427  2.0492 -0.7919 -1.4192
 6974SOL    HW327663   1.755   3.089   0.551  1.8816  0.3947 -0.8619
 6974SOL    MW427664   1.728   3.154   0.499  1.1577 -0.0294 -1.0209
 6975SOL     OW27665   4.192   4.403   6.053 -0.0005  0.1890 -0.2011
 6975SOL    HW227666   4.200   4.496   6.033  2.2131  0.2885  0.8930
 6975SOL    HW327667   4.204   4.359   5.969 -0.0459  0.8447 -0.5618
 6975SOL    MW427668   4.194   4.410   6.039  0.2856  0.2886 -0.1043
 6976SOL     OW27669   2.613   2.477   0.018 -0.9274  0.1257  0.2730
 6976SOL    HW227670   2.587   2.459   0.108 -1.2076  2.3760  0.7040
 6976SOL    HW327671   2.594   2.396  -0.029 -3.7736 -0.1210  1.6072
 6976SOL    MW427672   2.607   2.464   0.024 -1.3399  0.3900  0.5059
 6977SOL     OW27673   3.585   0.515   4.074  0.5915 -0.0959  0.0489
 6977SOL    HW227674   3.627   0.433   4.103  0.6470 -0.0073  0.2189
 6977SOL    HW327675   3.652   0.581   4.084  0.6890 -0.1066 -0.5234
 6977SOL    MW427676   3.599   0.513   4.079  0.6117 -0.0856 -0.0042
 6978SOL     OW27677   1.095   5.650   0.459  0.6754 -0.2671 -1.0220
 6978SOL    HW227678   1.178   5.630   0.502  0.2050 -0.3966 -0.1559
 6978SOL    HW327679   1.106   5.739   0.425  0.9165 -0.0054 -0.2749
 6978SOL    MW427680   1.107   5.659   0.460  0.6452 -0.2497 -0.8091
 6979SOL     OW27681   3.103   3.218   6.393  0.4649  0.0288 -0.0759
 6979SOL    HW227682   3.192   3.195   6.422  0.8861  3.4057  1.8640
 6979SOL    HW327683   3.115   3.296   6.339 -1.2715  0.1979 -0.2512
 6979SOL    MW427684   3.117   3.225   6.390  0.2914  0.4967  0.1570
 6980SOL     OW27685   0.887   2.505   1.251  0.0475 -0.1203 -0.2551
 6980SOL    HW227686   0.962   2.510   1.191 -0.1825  0.3545 -0.5086
 6980SOL    HW327687   0.826   2.570   1.218  0.5946  1.3400  1.4362
 6980SOL    MW427688   0.889   2.514   1.239  0.0893  0.1350 -0.0654
 6981SOL     OW27689   5.208   5.941   3.833 -0.4972  0.1981  0.0375
 6981SOL    HW227690   5.174   5.938   3.744 -1.8030  1.6374  0.4330
 6981SOL    HW327691   5.153   5.880   3.882 -2.0624  1.8621  0.4890
 6981SOL    MW427692   5.196   5.933   3.828 -0.8760  0.6075  0.1493
 6982SOL     OW27693   3.982   1.143   5.065 -0.5297 -0.4886  0.0008
 6982SOL    HW227694   3.975   1.118   4.972  1.9635 -2.1084  0.1347
 6982SOL    HW327695   4.046   1.214   5.065 -3.1359  2.0055  0.2338
 6982SOL    MW427696   3.990   1.149   5.052 -0.5446 -0.3732  0.0492
 6983SOL     OW27697   2.960   5.953   1.139 -0.1341  0.1276 -0.0027
 6983SOL    HW227698   2.917   6.008   1.073  0.2308  0.8139  0.3211
 6983SOL    HW327699   2.888   5.907   1.182 -0.4907  0.6609 -0.0080
 6983SOL    MW427700   2.945   5.954   1.136 -0.1330  0.2885  0.0393
 6984SOL     OW27701   2.846   2.379   1.815  0.1002 -0.0326  0.4001
 6984SOL    HW227702   2.791   2.302   1.800  0.0088  0.2114 -0.6128
 6984SOL    HW327703   2.832   2.401   1.907 -1.4987  0.0086  0.1863
 6984SOL    MW427704   2.837   2.372   1.825 -0.1228  0.0051  0.2383
 6985SOL     OW27705   3.628   2.829   4.380 -0.2515 -0.0477  0.2918
 6985SOL    HW227706   3.563   2.803   4.445 -1.2027  0.6403 -0.3395
 6985SOL    HW327707   3.669   2.908   4.417  0.8493 -0.9600  1.0712
 6985SOL    MW427708   3.625   2.836   4.393 -0.2318 -0.0773  0.3114
 6986SOL     OW27709   0.955   0.965   4.016  0.2117  0.3463  0.1084
 6986SOL    HW227710   0.989   0.877   4.032 -1.1375 -0.0194  1.1355
 6986SOL    HW327711   1.032   1.022   4.027  0.6180 -0.4725  2.0466
 6986SOL    MW427712   0.970   0.961   4.020  0.0873  0.1900  0.4996
 6987SOL     OW27713   2.035   2.237   3.229 -0.1185 -0.2450  0.2376
 6987SOL    HW227714   2.058   2.196   3.146 -1.5480  1.3568 -1.0259
 6987SOL    HW327715   2.096   2.311   3.237  1.4716 -1.6022  1.7791
 6987SOL    MW427716   2.046   2.241   3.219 -0.0973 -0.2127  0.2743
 6988SOL     OW27717   1.869   4.043   2.155 -0.0226  0.1661  0.0969
 6988SOL    HW227718   1.837   4.124   2.195 -0.9479  0.4664 -1.1953
 6988SOL    HW327719   1.903   4.070   2.070 -0.2543 -0.7833 -0.3118
 6988SOL    MW427720   1.869   4.057   2.149 -0.1752  0.0804 -0.1275
 6989SOL     OW27721   5.270   3.579   2.174 -0.2241 -0.1218  0.0442
 6989SOL    HW227722   5.299   3.654   2.225  1.3295  0.1694 -1.1518
 6989SOL    HW327723   5.206   3.615   2.112  2.2539  0.8771 -2.1785
 6989SOL    MW427724   5.265   3.593   2.172  0.3078  0.0484 -0.4068
 6990SOL     OW27725   3.563   0.681   4.634 -0.6076  0.3825  0.0701
 6990SOL    HW227726   3.629   0.622   4.597 -1.9923 -1.1838 -0.0055
 6990SOL    HW327727   3.613   0.756   4.666  1.2691 -1.0022  0.5179
 6990SOL    MW427728   3.578   0.683   4.633 -0.5427 -0.0069  0.1192
 6991SOL     OW27729   2.338   4.837   6.274  0.4234 -0.0470  0.3646
 6991SOL    HW227730   2.391   4.768   6.316 -2.9102 -2.4988  0.9883
 6991SOL    HW327731   2.358   4.829   6.181  0.8662 -1.1858  0.5408
 6991SOL    MW427732   2.348   4.826   6.267  0.0420 -0.5207  0.4701
 6992SOL     OW27733   3.768   0.677   0.927 -0.0934 -0.3678  0.2780
 6992SOL    HW227734   3.801   0.742   0.866 -0.8683 -0.1370  0.0935
 6992SOL    HW327735   3.843   0.619   0.944  0.6157  0.6045  0.5013
 6992SOL    MW427736   3.782   0.678   0.922 -0.1021 -0.2091  0.2831
 6993SOL     OW27737   1.784   1.304   0.005  0.9014  0.5845  0.5929
 6993SOL    HW227738   1.841   1.229   0.019 -0.4860 -0.9597 -1.4352
 6993SOL    HW327739   1.833   1.362  -0.052  0.9561 -0.1206 -0.0880
 6993SOL    MW427740   1.798   1.302  -0.001  0.7256  0.2877  0.2355
 6994SOL     OW27741   0.890   3.746   2.063 -0.6809 -0.4540  0.4251
 6994SOL    HW227742   0.917   3.697   1.986 -0.0847  0.3641  0.1030
 6994SOL    HW327743   0.971   3.761   2.112 -0.2396  2.9807 -1.0955
 6994SOL    MW427744   0.904   3.742   2.060 -0.5440  0.1071  0.1820
 6995SOL     OW27745   2.213   3.627   2.477  0.3940  0.4354  0.0840
 6995SOL    HW227746   2.303   3.597   2.481  0.8740  1.9010  1.2076
 6995SOL    HW327747   2.161   3.556   2.514  1.1204 -0.2436 -0.1888
 6995SOL    MW427748   2.218   3.614   2.482  0.5531  0.5392  0.1963
 6996SOL     OW27749   2.070   0.915   4.463 -0.4287 -0.0963 -0.1717
 6996SOL    HW227750   2.090   0.974   4.390 -1.2695 -1.1377 -1.2780
 6996SOL    HW327751   2.156   0.891   4.498 -0.0439  1.0813 -0.2716
 6996SOL    MW427752   2.084   0.920   4.458 -0.4889 -0.0783 -0.3308
 6997SOL     OW27753   3.781   0.129   1.672 -0.1403 -0.4233  0.0313
 6997SOL    HW227754   3.843   0.105   1.604  0.2823  1.7519 -0.4102
 6997SOL    HW327755   3.731   0.049   1.689  1.2667 -1.5998 -1.1968
 6997SOL    MW427756   3.783   0.115   1.665  0.1011 -0.2915 -0.1890
 6998SOL     OW27757   0.288   5.259   2.630 -0.5544  0.3081  0.2930
 6998SOL    HW227758   0.277   5.193   2.560 -0.3519 -2.1709  2.4338
 6998SOL    HW327759   0.380   5.251   2.655 -0.7245  0.8760  1.0995
 6998SOL    MW427760   0.298   5.249   2.624 -0.5501  0.0560  0.6819
 6999SOL     OW27761   4.351   1.693   3.638  0.1811 -0.3801  0.0546
 6999SOL    HW227762   4.373   1.682   3.730 -2.2248  2.8377  1.2239
 6999SOL    HW327763   4.397   1.772   3.612 -0.5119 -0.3049 -0.9861
 6999SOL    MW427764   4.360   1.702   3.647 -0.2277  0.0544  0.0716
 7000SOL     OW27765   1.208   3.415   5.125  0.7206  0.0004 -0.2759
 7000SOL    HW227766   1.226   3.418   5.031  2.1902 -1.1790 -0.0624
 7000SOL    HW327767   1.290   3.385   5.165  0.2417  0.8169  1.4308
 7000SOL    MW427768   1.221   3.412   5.118  0.8513 -0.0475 -0.0226
 7001SOL     OW27769   6.203   5.753   0.090  0.1088  0.1838 -0.6242
 7001SOL    HW227770   6.279   5.778   0.143  0.1693 -0.4180 -0.4224
 7001SOL    HW327771   6.135   5.813   0.118 -0.9721 -2.3134  2.8425
 7001SOL    MW427772   6.204   5.764   0.101 -0.0258 -0.2251 -0.1402
 7002SOL     OW27773   0.225   1.302   2.408  0.3121 -0.2702 -0.7604
 7002SOL    HW227774   0.270   1.361   2.468  0.3789  1.1109 -2.1096
 7002SOL    HW327775   0.207   1.224   2.461  0.5100  0.8067  0.9881
 7002SOL    MW427776   0.229   1.299   2.423  0.3470  0.0541 -0.7077
 7003SOL     OW27777   1.907   1.350   5.366 -0.4113 -0.0304 -0.6126
 7003SOL    HW227778   1.837   1.391   5.314 -1.0513  1.4649  1.2937
 7003SOL    HW327779   1.928   1.270   5.319 -1.1641  1.0757 -2.9681
 7003SOL    MW427780   1.900   1.345   5.353 -0.5950  0.3128 -0.6719
 7004SOL     OW27781   4.483   0.987   5.163 -0.2827  0.1589 -0.1829
 7004SOL    HW227782   4.518   1.032   5.086 -0.4489  0.1317 -0.2756
 7004SOL    HW327783   4.559   0.974   5.220 -0.3797  1.3440  0.2443
 7004SOL    MW427784   4.497   0.991   5.161 -0.3174  0.3117 -0.1388
 7005SOL     OW27785   4.829   4.572   0.943  0.1750  0.0753  0.3485
 7005SOL    HW227786   4.755   4.554   1.001 -0.9877 -0.4930 -1.2258
 7005SOL    HW327787   4.789   4.605   0.863  1.5701 -0.8095 -0.7716
 7005SOL    MW427788   4.814   4.574   0.940  0.2057 -0.1164 -0.0070
 7006SOL     OW27789   1.415   3.876   4.638 -0.0688  0.3473  0.5931
 7006SOL    HW227790   1.371   3.930   4.703  0.3893  1.1025  0.2851
 7006SOL    HW327791   1.346   3.821   4.601 -0.6232  1.0456  0.5829
 7006SOL    MW427792   1.400   3.876   4.641 -0.0815  0.5391  0.5511
 7007SOL     OW27793   1.082   5.085   0.688  0.0739  0.2775  0.0941
 7007SOL    HW227794   1.055   5.176   0.697  1.0141  0.9400 -2.7150
 7007SOL    HW327795   1.049   5.042   0.767 -1.2717  2.8186  1.0269
 7007SOL    MW427796   1.074   5.091   0.699  0.0204  0.7002 -0.1534
 7008SOL     OW27797   1.270   4.707   6.284 -0.5665 -0.5168  0.0259
 7008SOL    HW227798   1.188   4.752   6.305 -0.5562  0.1557 -1.3023
 7008SOL    HW327799   1.318   4.705   6.367 -1.6346 -0.3060  0.6611
 7008SOL    MW427800   1.266   4.713   6.298 -0.7060 -0.4002 -0.0655
 7009SOL     OW27801   4.864   2.090   5.450 -0.6930 -0.3519  0.0084
 7009SOL    HW227802   4.830   2.005   5.478  0.6071 -0.1695  2.4615
 7009SOL    HW327803   4.870   2.140   5.531  2.5729  0.5928 -0.6967
 7009SOL    MW427804   4.860   2.085   5.465 -0.0906 -0.2032  0.2390
 7010SOL     OW27805   3.506   2.242   3.725 -0.2815 -0.4595 -0.0170
 7010SOL    HW227806   3.411   2.241   3.723 -0.2871  0.1866 -0.0666
 7010SOL    HW327807   3.530   2.334   3.722  0.3427 -0.6068  0.2384
 7010SOL    MW427808   3.497   2.254   3.724 -0.1999 -0.3937  0.0102
 7011SOL     OW27809   5.298   5.587   3.095  0.3724 -0.0766  0.2874
 7011SOL    HW227810   5.304   5.681   3.111  1.1412  0.0133 -0.4478
 7011SOL    HW327811   5.382   5.552   3.126  0.7537 -0.2775 -0.8975
 7011SOL    MW427812   5.310   5.594   3.101  0.5242 -0.0912  0.0341
 7012SOL     OW27813   2.422   5.919   2.763  0.4011 -0.3805 -0.0292
 7012SOL    HW227814   2.472   5.853   2.715 -0.8066 -0.9550 -0.5197
 7012SOL    HW327815   2.373   5.967   2.696  1.8218  1.5678  0.2216
 7012SOL    MW427816   2.422   5.917   2.748  0.4292 -0.1993 -0.0608
 7013SOL     OW27817   5.369   2.754   1.833 -0.2050 -0.5745 -0.0329
 7013SOL    HW227818   5.311   2.738   1.907 -1.2815  1.6321 -0.3328
 7013SOL    HW327819   5.311   2.755   1.757  0.4943 -0.1409 -0.5694
 7013SOL    MW427820   5.354   2.752   1.833 -0.2547 -0.2261 -0.1433
 7014SOL     OW27821   1.553   3.712   4.310 -0.4351 -0.2788  0.0387
 7014SOL    HW227822   1.633   3.690   4.261 -0.5915  0.1834 -0.4392
 7014SOL    HW327823   1.580   3.786   4.365 -0.6208  0.1296 -0.4043
 7014SOL    MW427824   1.567   3.719   4.311 -0.4802 -0.1639 -0.0828
 7015SOL     OW27825   2.526   5.401   1.943  0.3099  0.4304 -0.7800
 7015SOL    HW227826   2.600   5.387   1.884 -0.2737 -1.4523 -1.1363
 7015SOL    HW327827   2.566   5.427   2.026  1.1267  3.6957 -2.0302
 7015SOL    MW427828   2.541   5.403   1.946  0.3406  0.6128 -0.9919
 7016SOL     OW27829   5.361   3.659   4.097 -0.5938  1.0754 -0.8674
 7016SOL    HW227830   5.451   3.646   4.066 -0.8483 -1.3771 -0.7815
 7016SOL    HW327831   5.310   3.674   4.017 -0.5763 -0.8156 -1.2632
 7016SOL    MW427832   5.366   3.660   4.082 -0.6251  0.5023 -0.9083
 7017SOL     OW27833   5.254   1.924   1.239 -0.4189  0.2334 -0.1387
 7017SOL    HW227834   5.320   1.947   1.174  2.1182 -2.9254  1.0230
 7017SOL    HW327835   5.287   1.958   1.322 -0.4396 -0.9750  0.3935
 7017SOL    MW427836   5.267   1.931   1.241 -0.0869 -0.3428  0.0848
 7018SOL     OW27837   4.642   3.582   5.943 -0.6498  0.6797  0.8798
 7018SOL    HW227838   4.585   3.614   6.013 -1.9430  1.3287 -0.4097
 7018SOL    HW327839   4.602   3.615   5.863  1.5083  1.0828 -0.1093
 7018SOL    MW427840   4.630   3.591   5.942 -0.5357  0.8185  0.5792
 7019SOL     OW27841   3.673   3.993   5.388 -0.7275  0.3597 -0.0866
 7019SOL    HW227842   3.765   4.017   5.379 -1.2701  3.6939  1.5615
 7019SOL    HW327843   3.626   4.053   5.330 -1.9255 -1.6245 -1.3045
 7019SOL    MW427844   3.679   4.004   5.379 -0.9572  0.5378 -0.0298
 7020SOL     OW27845   1.328   0.651   4.830  0.0676 -0.4656 -0.1151
 7020SOL    HW227846   1.341   0.557   4.821 -1.0365 -0.6118 -0.3113
 7020SOL    HW327847   1.235   0.665   4.811 -0.3356  0.3678  2.1428
 7020SOL    MW427848   1.318   0.641   4.826 -0.1313 -0.3749  0.1569
 7021SOL     OW27849   0.942   6.150   0.411 -0.5344 -0.2968 -0.0075
 7021SOL    HW227850   0.984   6.219   0.463  1.7643 -1.3282 -0.3913
 7021SOL    HW327851   0.946   6.182   0.321 -2.4428  0.4574  0.1172
 7021SOL    MW427852   0.948   6.164   0.406 -0.4829 -0.3334 -0.0417
 7022SOL     OW27853   0.971   5.677   3.920 -0.1800 -0.1758 -0.2360
 7022SOL    HW227854   0.895   5.624   3.894  0.5383 -0.5207 -1.7534
 7022SOL    HW327855   0.933   5.747   3.973 -1.4934 -0.6935 -0.4350
 7022SOL    MW427856   0.956   5.680   3.923 -0.2585 -0.2896 -0.4625
 7023SOL     OW27857   6.198   0.652   5.213 -0.8170  0.4060  0.6820
 7023SOL    HW227858   6.270   0.694   5.259 -0.7261  0.8085  0.1837
 7023SOL    HW327859   6.132   0.635   5.281 -1.7779  3.2756  0.6212
 7023SOL    MW427860   6.199   0.655   5.228 -0.9318  0.8377  0.6082
 7024SOL     OW27861   0.998   2.205   0.249  0.6549  0.0962 -0.1248
 7024SOL    HW227862   1.009   2.200   0.344  0.9426 -0.4133 -0.1855
 7024SOL    HW327863   1.053   2.279   0.223 -1.1572  1.7020  0.3674
 7024SOL    MW427864   1.007   2.214   0.258  0.4538  0.2409 -0.0679
 7025SOL     OW27865   1.682   0.518   2.883  0.3172 -0.2683  0.0959
 7025SOL    HW227866   1.777   0.507   2.879  0.8696  2.5920  2.1771
 7025SOL    HW327867   1.666   0.565   2.965 -2.9240 -0.6737 -0.1540
 7025SOL    MW427868   1.692   0.523   2.893 -0.0376  0.0556  0.3375
 7026SOL     OW27869   3.048   3.062   1.868  0.1970 -0.3289  0.4637
 7026SOL    HW227870   3.007   2.979   1.842  0.5939 -0.6405  0.8028
 7026SOL    HW327871   2.985   3.129   1.845  0.0077 -0.7047 -0.1273
 7026SOL    MW427872   3.035   3.060   1.862  0.2244 -0.4196  0.4305
 7027SOL     OW27873   5.627   5.691   2.767  0.0965  0.4915  0.6274
 7027SOL    HW227874   5.702   5.691   2.707  1.3228  0.9128  2.1021
 7027SOL    HW327875   5.552   5.704   2.710  1.1661  0.4573 -0.8712
 7027SOL    MW427876   5.627   5.693   2.752  0.3994  0.5426  0.6243
 7028SOL     OW27877  -0.022   5.842   0.285  0.1888  0.0713 -0.4022
 7028SOL    HW227878  -0.098   5.869   0.337  1.5255 -0.4225  1.9655
 7028SOL    HW327879   0.012   5.765   0.331  2.3671  0.5255 -1.1507
 7028SOL    MW427880  -0.028   5.835   0.298  0.6526  0.0661 -0.1886
 7029SOL     OW27881   2.040   0.134   2.812 -0.4423  0.0347  0.2780
 7029SOL    HW227882   2.064   0.206   2.754 -1.0951  0.2298  0.2382
 7029SOL    HW327883   2.109   0.069   2.799 -0.3450  0.2575 -0.3847
 7029SOL    MW427884   2.052   0.135   2.803 -0.5156  0.0899  0.1853
 7030SOL     OW27885   2.448   2.976   0.108 -0.8020  0.2214 -0.7705
 7030SOL    HW227886   2.540   2.983   0.132 -0.6472 -0.4549 -1.1469
 7030SOL    HW327887   2.406   3.048   0.154 -0.3062 -0.2823  0.5085
 7030SOL    MW427888   2.455   2.986   0.117 -0.7162  0.0657 -0.6514
 7031SOL     OW27889   4.593   5.401   5.043  0.3617 -0.4946  0.6027
 7031SOL    HW227890   4.555   5.417   4.957 -0.2098 -1.1038  0.7295
 7031SOL    HW327891   4.536   5.450   5.103 -0.3687 -1.5621  0.8126
 7031SOL    MW427892   4.580   5.409   5.040  0.1899 -0.7158  0.6471
 7032SOL     OW27893   5.578   5.007   0.863 -0.0382  0.1993 -0.1313
 7032SOL    HW227894   5.646   5.035   0.801 -1.4634  0.4082 -1.6622
 7032SOL    HW327895   5.561   4.916   0.840 -0.2655  0.1421  0.2592
 7032SOL    MW427896   5.585   4.999   0.851 -0.2563  0.2193 -0.2818
 7033SOL     OW27897   5.784   4.039   0.723  0.1651  0.3944 -0.5278
 7033SOL    HW227898   5.866   4.087   0.708 -0.2946  1.6128  0.6924
 7033SOL    HW327899   5.734   4.094   0.783 -1.0275 -0.9326 -0.2447
 7033SOL    MW427900   5.788   4.053   0.729 -0.0529  0.3801 -0.3294
 7034SOL     OW27901   3.123   5.833   5.598  0.6756  0.3651 -0.3404
 7034SOL    HW227902   3.078   5.853   5.680  0.6108 -0.8277 -0.0634
 7034SOL    HW327903   3.194   5.773   5.624  1.1596  0.6247 -1.0470
 7034SOL    MW427904   3.127   5.828   5.612  0.7309  0.2420 -0.3971
 7035SOL     OW27905   3.364   4.052   1.750 -0.6086  0.2811 -0.0524
 7035SOL    HW227906   3.385   4.087   1.836 -0.3210  0.7538 -0.3133
 7035SOL    HW327907   3.286   3.998   1.765 -1.0405  0.9981  0.3575
 7035SOL    MW427908   3.356   4.049   1.763 -0.6277  0.4381 -0.0327
 7036SOL     OW27909   3.971   2.852   0.855  0.1833 -0.3958 -0.2028
 7036SOL    HW227910   3.965   2.941   0.890  1.4737 -0.5268  0.4244
 7036SOL    HW327911   3.917   2.854   0.776 -0.6809  0.6406  0.3828
 7036SOL    MW427912   3.963   2.864   0.849  0.2396 -0.2763 -0.0428
 7037SOL     OW27913   6.154   2.671   5.114  0.2738 -0.2472  0.0798
 7037SOL    HW227914   6.086   2.731   5.145  0.2562  0.7474 -1.7306
 7037SOL    HW327915   6.236   2.718   5.128  0.3334 -0.1723 -0.4765
 7037SOL    MW427916   6.156   2.685   5.120  0.2794 -0.1061 -0.2325
 7038SOL     OW27917   5.797   4.739   5.556 -0.2926 -0.2033 -0.4471
 7038SOL    HW227918   5.730   4.806   5.543  0.5656  0.3801 -2.0506
 7038SOL    HW327919   5.849   4.740   5.476  1.2584 -1.0853  0.4917
 7038SOL    MW427920   5.795   4.748   5.544  0.0253 -0.2427 -0.5348
 7039SOL     OW27921   1.953   1.952   2.789  0.3553 -0.1052 -0.7500
 7039SOL    HW227922   1.998   1.914   2.713  1.5670  0.1958 -0.2059
 7039SOL    HW327923   1.941   1.879   2.849 -2.1860 -0.7277 -1.9050
 7039SOL    MW427924   1.958   1.937   2.787  0.1799 -0.1476 -0.8306
 7040SOL     OW27925   1.276   3.502   4.175  0.4638  0.5500  0.1363
 7040SOL    HW227926   1.234   3.574   4.128  0.1094  1.6171  1.9934
 7040SOL    HW327927   1.234   3.502   4.261 -0.3066 -2.5975 -0.1536
 7040SOL    MW427928   1.265   3.512   4.180  0.3154  0.2755  0.3431
 7041SOL     OW27929   3.728   6.078   3.513  0.0294  0.0978 -0.0406
 7041SOL    HW227930   3.700   6.013   3.578  0.0659  0.8451  0.7351
 7041SOL    HW327931   3.647   6.101   3.466 -1.4661  4.1385  3.8502
 7041SOL    MW427932   3.714   6.072   3.515 -0.1631  0.7295  0.5751
 7042SOL     OW27933   3.231   2.399   6.367  0.1885 -0.4354  0.2332
 7042SOL    HW227934   3.219   2.402   6.462 -0.2280  0.1668  0.1630
 7042SOL    HW327935   3.181   2.322   6.340 -2.1566  1.0229  0.1655
 7042SOL    MW427936   3.223   2.389   6.376 -0.1759 -0.1636  0.2150
 7043SOL     OW27937   1.109   4.296   1.179  0.3748 -0.1513  0.6394
 7043SOL    HW227938   1.204   4.312   1.180  0.5798 -0.5498 -2.7145
 7043SOL    HW327939   1.095   4.238   1.105 -2.7952  2.1123 -0.7331
 7043SOL    MW427940   1.120   4.291   1.170 -0.0164  0.0948  0.0158
 7044SOL     OW27941   1.864   3.147   4.056  0.5317  0.6487  0.2861
 7044SOL    HW227942   1.818   3.227   4.028  0.9577  2.0301  3.1057
 7044SOL    HW327943   1.808   3.111   4.124  0.7107 -1.1112 -0.4643
 7044SOL    MW427944   1.850   3.153   4.061  0.6115  0.5988  0.5591
 7045SOL     OW27945   0.354   2.794   0.142 -0.0890 -0.4202 -0.0907
 7045SOL    HW227946   0.331   2.707   0.110  0.7447 -0.4474 -0.6658
 7045SOL    HW327947   0.312   2.854   0.079  0.8171 -0.4571 -0.7556
 7045SOL    MW427948   0.346   2.791   0.129  0.1406 -0.4286 -0.2543
 7046SOL     OW27949   2.431   4.020   0.008  0.5109 -0.1369 -0.0527
 7046SOL    HW227950   2.340   3.990   0.008  0.4395  0.0255 -1.1080
 7046SOL    HW327951   2.441   4.065  -0.076  1.5718 -0.1850  0.0358
 7046SOL    MW427952   2.420   4.022  -0.003  0.6415 -0.1218 -0.1803
 7047SOL     OW27953   0.407   0.405   5.068  0.1899  0.5782  0.9691
 7047SOL    HW227954   0.353   0.451   5.004 -0.8025 -1.5467  0.1512
 7047SOL    HW327955   0.365   0.423   5.152 -0.5750  0.6382  0.5829
 7047SOL    MW427956   0.394   0.413   5.071 -0.0420  0.3058  0.8102
 7048SOL     OW27957   5.359   2.046   3.586 -0.7180  0.0079 -0.3983
 7048SOL    HW227958   5.342   1.962   3.543 -1.1167 -1.1912  1.9378
 7048SOL    HW327959   5.272   2.080   3.609 -0.4997  0.2746  0.0540
 7048SOL    MW427960   5.345   2.039   3.584 -0.7418 -0.1151 -0.0304
 7049SOL     OW27961   3.728   4.773   5.665  0.0348 -0.4941 -0.6072
 7049SOL    HW227962   3.737   4.795   5.573 -0.9698 -1.9756 -1.1010
 7049SOL    HW327963   3.643   4.730   5.671 -0.1109 -0.0437  1.0973
 7049SOL    MW427964   3.718   4.770   5.654 -0.1170 -0.6301 -0.4475
 7050SOL     OW27965   2.869   6.365   4.261 -0.5003 -0.8950 -0.1380
 7050SOL    HW227966   2.918   6.284   4.278  1.1035  0.0920  0.1951
 7050SOL    HW327967   2.898   6.392   4.174  0.4250  0.2470  0.4782
 7050SOL    MW427968   2.879   6.358   4.252 -0.1666 -0.6141 -0.0128
 7051SOL     OW27969   0.569   2.784   3.565  0.0606  0.1017 -0.3442
 7051SOL    HW227970   0.524   2.730   3.629  0.0851  0.1660 -0.2734
 7051SOL    HW327971   0.626   2.722   3.518  0.9854  0.2579  0.5331
 7051SOL    MW427972   0.571   2.769   3.567  0.1859  0.1308 -0.2191
 7052SOL     OW27973   6.148   4.224   1.358 -0.1824  0.0217  0.4539
 7052SOL    HW227974   6.212   4.245   1.426 -1.4879 -0.2010  1.8128
 7052SOL    HW327975   6.100   4.148   1.392  0.3354 -1.2976 -1.5744
 7052SOL    MW427976   6.150   4.217   1.372 -0.2864 -0.1818  0.3656
 7053SOL     OW27977   5.803   0.073   3.508  0.3554 -0.2898  0.2357
 7053SOL    HW227978   5.837   0.037   3.590 -0.4063 -0.9553  0.2665
 7053SOL    HW327979   5.838   0.162   3.505  0.3901 -0.2550  1.2875
 7053SOL    MW427980   5.812   0.080   3.518  0.2595 -0.3730  0.3785
 7054SOL     OW27981   5.785   0.680   2.935 -0.0140  0.0382  0.1134
 7054SOL    HW227982   5.734   0.758   2.959  0.1136 -0.2436  1.3576
 7054SOL    HW327983   5.855   0.714   2.880 -0.5750  0.6587 -0.2374
 7054SOL    MW427984   5.788   0.695   2.931 -0.0712  0.0829  0.2312
 7055SOL     OW27985   5.955   2.454   3.807 -0.4088 -0.6645 -0.1466
 7055SOL    HW227986   6.039   2.424   3.770  0.3999 -2.1275  2.5603
 7055SOL    HW327987   5.980   2.520   3.873 -1.3795 -0.9583  0.5418
 7055SOL    MW427988   5.970   2.459   3.811 -0.4301 -0.8963  0.3013
 7056SOL     OW27989   5.457   1.207   2.873 -0.7418 -0.1612  0.0803
 7056SOL    HW227990   5.491   1.119   2.890 -1.7961 -0.4361  0.8179
 7056SOL    HW327991   5.534   1.263   2.876 -0.3100 -0.7980  1.5364
 7056SOL    MW427992   5.472   1.203   2.875 -0.8240 -0.2815  0.3697
 7057SOL     OW27993   4.596   4.476   6.268 -0.4592  0.2381  0.2207
 7057SOL    HW227994   4.540   4.511   6.200 -2.2585 -0.0086  1.5102
 7057SOL    HW327995   4.567   4.520   6.348  1.5675  0.5049  0.8708
 7057SOL    MW427996   4.585   4.486   6.270 -0.4292  0.2408  0.4766
 7058SOL     OW27997   0.281   3.655   1.641  0.2990  0.3521 -0.0154
 7058SOL    HW227998   0.376   3.669   1.637  0.1173  1.7229  0.0057
 7058SOL    HW327999   0.244   3.719   1.581 -0.6774  0.6379  0.8528
 7058SOL    MW428000   0.289   3.665   1.633  0.1462  0.5707  0.1019
 7059SOL     OW28001   3.094   4.802   2.977  0.3263  0.3719  0.1071
 7059SOL    HW228002   3.103   4.883   3.027 -1.6511  0.7153 -0.0047
 7059SOL    HW328003   3.160   4.809   2.908  1.7285  0.8063  1.4572
 7059SOL    MW428004   3.104   4.813   2.974  0.2504  0.4745  0.2705
 7060SOL     OW28005   0.119   5.254   2.235  0.3696 -0.3595  0.3982
 7060SOL    HW228006   0.077   5.330   2.275  0.0570 -0.4006  0.1507
 7060SOL    HW328007   0.064   5.233   2.160  0.5727 -0.7023  0.3441
 7060SOL    MW428008   0.106   5.261   2.231  0.3552 -0.4102  0.3584
 7061SOL     OW28009   4.540   2.304   4.382  0.3505 -0.2047 -0.3848
 7061SOL    HW228010   4.617   2.308   4.327  0.2047  0.1696 -0.5635
 7061SOL    HW328011   4.495   2.224   4.355  0.1722  0.0848 -0.9499
 7061SOL    MW428012   4.544   2.294   4.371  0.3077 -0.1171 -0.4829
 7062SOL     OW28013   4.779   6.015   0.922  0.2170 -0.0213 -0.1797
 7062SOL    HW228014   4.775   5.920   0.932  0.6281 -0.0546 -0.2940
 7062SOL    HW328015   4.869   6.032   0.895 -0.0086  0.3465 -0.7253
 7062SOL    MW428016   4.790   6.004   0.919  0.2415  0.0229 -0.2667
 7063SOL     OW28017   1.389   3.091   5.644 -0.6636 -0.0663  0.0158
 7063SOL    HW228018   1.451   3.020   5.661 -0.7551 -0.1187  0.1288
 7063SOL    HW328019   1.303   3.049   5.641 -0.8456  0.1871  1.2058
 7063SOL    MW428020   1.386   3.076   5.646 -0.6997 -0.0398  0.1877
 7064SOL     OW28021   1.095   3.554   3.349  0.1960 -0.5370  0.3471
 7064SOL    HW228022   1.073   3.606   3.427 -1.4633  1.1210 -1.0982
 7064SOL    HW328023   1.029   3.485   3.347 -1.9653  1.4085 -1.2548
 7064SOL    MW428024   1.083   3.552   3.359 -0.3081 -0.0615 -0.0549
 7065SOL     OW28025   5.462   5.998   2.073  0.8109 -0.1170  0.0972
 7065SOL    HW228026   5.461   5.905   2.095 -2.1043 -0.7817 -2.1742
 7065SOL    HW328027   5.475   6.000   1.978 -1.3660  1.5852 -0.2592
 7065SOL    MW428028   5.464   5.986   2.063  0.1390  0.0199 -0.2495
 7066SOL     OW28029   5.393   5.345   0.137  0.6086 -0.2505  0.0950
 7066SOL    HW228030   5.351   5.399   0.070  0.4548 -1.2760 -0.6500
 7066SOL    HW328031   5.362   5.382   0.220  1.3057  1.4304 -0.3613
 7066SOL    MW428032   5.383   5.357   0.139  0.6803 -0.1640 -0.0635
 7067SOL     OW28033   6.264   1.923   3.504 -0.6218 -0.4810 -0.4737
 7067SOL    HW228034   6.350   1.882   3.515 -0.8740 -1.0553 -0.6093
 7067SOL    HW328035   6.283   2.004   3.457 -0.2531 -1.1142 -1.4783
 7067SOL    MW428036   6.278   1.928   3.499 -0.6064 -0.6403 -0.6241
 7068SOL     OW28037   1.099   3.633   3.091  0.1068  0.3839  0.0183
 7068SOL    HW228038   1.108   3.588   3.175 -0.4894 -0.2727 -0.2643
 7068SOL    HW328039   1.007   3.655   3.084  0.4331  1.9954  0.3021
 7068SOL    MW428040   1.088   3.630   3.101  0.0712  0.5099  0.0184
 7069SOL     OW28041   5.994   2.807   1.283  0.8057  0.2085  0.0093
 7069SOL    HW228042   6.077   2.850   1.303  0.7690  0.8654 -1.1589
 7069SOL    HW328043   5.929   2.858   1.331  0.7844  1.4075 -1.2104
 7069SOL    MW428044   5.996   2.820   1.292  0.7981  0.4533 -0.3058
 7070SOL     OW28045   1.933   1.208   0.861  0.0337 -0.0913  0.8330
 7070SOL    HW228046   1.858   1.197   0.803  1.0955 -4.2932 -0.0408
 7070SOL    HW328047   1.911   1.158   0.940  1.5131 -0.6409  0.9261
 7070SOL    MW428048   1.920   1.200   0.864  0.3690 -0.7182  0.7300
 7071SOL     OW28049   5.132   6.396   6.106  0.2233  0.0104 -0.0521
 7071SOL    HW228050   5.173   6.463   6.160 -1.1229  1.2404 -0.4917
 7071SOL    HW328051   5.201   6.366   6.047  0.8359  1.0426  0.1239
 7071SOL    MW428052   5.147   6.401   6.105  0.1265  0.3089 -0.0869
 7072SOL     OW28053   2.966   2.998   4.270 -0.1634 -0.0130  0.0968
 7072SOL    HW228054   2.908   2.999   4.194 -1.3537 -0.4486  0.9578
 7072SOL    HW328055   2.931   3.067   4.327  1.0438  0.6827  0.0359
 7072SOL    MW428056   2.954   3.007   4.268 -0.1612  0.0213  0.2023
 7073SOL     OW28057   5.069   4.399   4.406  0.2050  0.2634  0.4195
 7073SOL    HW228058   4.987   4.429   4.368  0.4833 -0.7298 -1.0843
 7073SOL    HW328059   5.068   4.304   4.393  1.1604  0.1081  1.2802
 7073SOL    MW428060   5.058   4.390   4.399  0.3678  0.1119  0.3347
 7074SOL     OW28061   4.709   3.497   3.089 -0.1999 -0.1007 -0.0159
 7074SOL    HW228062   4.715   3.469   2.998  1.9976  0.3820 -0.0689
 7074SOL    HW328063   4.700   3.592   3.085 -0.9067 -0.1489  0.2692
 7074SOL    MW428064   4.709   3.506   3.077 -0.0032 -0.0434  0.0147
 7075SOL     OW28065   5.620   3.291   2.010  0.1733 -0.0108 -0.1831
 7075SOL    HW228066   5.634   3.223   2.075 -3.0890 -2.0654 -1.3557
 7075SOL    HW328067   5.581   3.363   2.059  0.0633 -0.5380  0.5170
 7075SOL    MW428068   5.616   3.292   2.025 -0.2716 -0.3514 -0.2454
 7076SOL     OW28069   1.235   5.250   1.422 -0.1953 -0.6486 -0.7603
 7076SOL    HW228070   1.247   5.158   1.398 -0.1822 -0.6595 -0.7124
 7076SOL    HW328071   1.318   5.276   1.460 -0.2508 -0.6629 -0.6272
 7076SOL    MW428072   1.247   5.241   1.424 -0.2009 -0.6519 -0.7364
 7077SOL     OW28073   0.550   5.385   3.908 -0.0141 -0.4170  0.2900
 7077SOL    HW228074   0.456   5.372   3.898  0.0452 -1.1686  0.5733
 7077SOL    HW328075   0.560   5.415   3.998 -0.0697  0.7934 -0.0887
 7077SOL    MW428076   0.539   5.387   3.919 -0.0136 -0.3564  0.2774
 7078SOL     OW28077   5.504   0.461   3.230 -0.0072  0.0899  0.7336
 7078SOL    HW228078   5.427   0.482   3.178 -0.4013 -4.1486 -0.8524
 7078SOL    HW328079   5.507   0.528   3.298 -2.2601  3.1517 -1.9248
 7078SOL    MW428080   5.494   0.472   3.232 -0.3565 -0.0653  0.1736
 7079SOL     OW28081   2.534   4.641   4.428 -0.3394  0.6827 -0.1528
 7079SOL    HW228082   2.548   4.708   4.495 -0.4044  0.2317  0.3197
 7079SOL    HW328083   2.580   4.674   4.351  0.1893  0.9537  0.2732
 7079SOL    MW428084   2.542   4.654   4.427 -0.2782  0.6590 -0.0343
 7080SOL     OW28085   0.923   3.809   1.026  0.6187  0.0985 -0.1841
 7080SOL    HW228086   0.831   3.784   1.018  0.9949 -0.8753 -1.9201
 7080SOL    HW328087   0.928   3.856   1.109 -1.2363 -0.7549  0.4577
 7080SOL    MW428088   0.912   3.812   1.036  0.4236 -0.1426 -0.3285
 7081SOL     OW28089   2.145   3.529   3.829 -0.2377 -0.1229 -0.4411
 7081SOL    HW228090   2.070   3.578   3.863  0.4691  0.2354  0.6511
 7081SOL    HW328091   2.128   3.439   3.854 -1.0529 -0.2905 -1.5667
 7081SOL    MW428092   2.133   3.524   3.837 -0.2520 -0.0977 -0.4455
 7082SOL     OW28093   4.061   6.405   6.000  0.1679 -0.4119  0.0484
 7082SOL    HW228094   3.986   6.379   5.947 -0.5812  1.3830  0.1740
 7082SOL    HW328095   4.136   6.397   5.941 -0.6149  1.3174 -1.2432
 7082SOL    MW428096   4.061   6.400   5.985 -0.0342  0.0530 -0.1055
 7083SOL     OW28097   5.292   1.936   0.629 -0.8759  0.3469  0.0899
 7083SOL    HW228098   5.346   1.896   0.561 -3.4087  0.2679 -1.9902
 7083SOL    HW328099   5.289   1.869   0.698  1.2977  0.2109  0.1496
 7083SOL    MW428100   5.299   1.922   0.629 -0.9233  0.3186 -0.1766
 7084SOL     OW28101   5.768   4.804   6.223  0.8202  0.1148 -0.1651
 7084SOL    HW228102   5.725   4.822   6.306  1.5029 -1.0874  0.4752
 7084SOL    HW328103   5.699   4.819   6.157  0.6377  2.4149  0.4442
 7084SOL    MW428104   5.753   4.808   6.225  0.8862  0.2597 -0.0003
 7085SOL     OW28105   5.132   0.276   4.781  0.6117  0.2728 -0.0751
 7085SOL    HW228106   5.133   0.359   4.829  1.1355 -0.7198  1.7450
 7085SOL    HW328107   5.210   0.230   4.812 -2.1482 -2.9866  2.9407
 7085SOL    MW428108   5.142   0.281   4.791  0.3167 -0.2882  0.5629
 7086SOL     OW28109   4.676   4.450   5.972  0.1890  0.3869 -0.6320
 7086SOL    HW228110   4.715   4.381   5.918  0.6126  0.7019 -0.7328
 7086SOL    HW328111   4.738   4.461   6.044 -1.1809 -1.2290  0.8849
 7086SOL    MW428112   4.689   4.442   5.975  0.0641  0.2153 -0.4452
 7087SOL     OW28113   3.175   1.866   1.155 -0.1550 -0.1510  0.3544
 7087SOL    HW228114   3.173   1.851   1.060  0.0066 -1.4003  0.5395
 7087SOL    HW328115   3.087   1.898   1.175 -0.4678 -0.7103 -0.0918
 7087SOL    MW428116   3.163   1.868   1.145 -0.1750 -0.3896  0.3199
 7088SOL     OW28117   3.478   0.863   3.247 -0.4547  0.3478 -0.4083
 7088SOL    HW228118   3.525   0.785   3.277  0.8081  1.1837 -0.0917
 7088SOL    HW328119   3.393   0.859   3.291 -0.4997 -0.9513 -0.5822
 7088SOL    MW428120   3.473   0.852   3.257 -0.2940  0.2867 -0.3895
 7089SOL     OW28121   4.816   3.543   3.727  0.2830 -0.1739  0.1235
 7089SOL    HW228122   4.766   3.580   3.800  0.4882 -0.3163  0.3349
 7089SOL    HW328123   4.757   3.477   3.689 -0.4579  0.9847 -0.8300
 7089SOL    MW428124   4.802   3.539   3.731  0.2124 -0.0399  0.0256
 7090SOL     OW28125   0.817   1.443   4.927  0.1235  0.3953  0.0877
 7090SOL    HW228126   0.833   1.404   4.841  0.6585  2.6087 -0.8925
 7090SOL    HW328127   0.727   1.475   4.922 -0.2460 -0.4956  0.8079
 7090SOL    MW428128   0.807   1.442   4.915  0.1453  0.5698  0.0534
 7091SOL     OW28129   5.161   1.698   4.947 -0.0491 -0.1036 -0.5172
 7091SOL    HW228130   5.098   1.680   5.016  0.5914 -0.9741 -0.1304
 7091SOL    HW328131   5.236   1.737   4.991  0.0324  0.1221 -0.8462
 7091SOL    MW428132   5.163   1.701   4.962  0.0461 -0.1886 -0.5096
 7092SOL     OW28133   0.643   0.538   5.269  0.1683  0.2992 -0.3046
 7092SOL    HW228134   0.614   0.629   5.265 -0.4512  0.1279  0.1118
 7092SOL    HW328135   0.584   0.496   5.332 -0.3703 -0.6924 -1.4156
 7092SOL    MW428136   0.631   0.544   5.277  0.0155  0.1458 -0.3962
 7093SOL     OW28137   2.662   1.356   1.191 -0.4289  0.0101  0.2409
 7093SOL    HW228138   2.693   1.338   1.280  0.7766  1.0214  0.0383
 7093SOL    HW328139   2.733   1.403   1.149 -1.1920  0.0141 -1.1151
 7093SOL    MW428140   2.675   1.360   1.197 -0.3705  0.1440  0.0353
 7094SOL     OW28141   1.367   5.179   3.577 -0.4717 -0.0366  0.3284
 7094SOL    HW228142   1.297   5.122   3.546 -1.2180  0.8827  0.2986
 7094SOL    HW328143   1.361   5.257   3.521  2.3670 -1.0281 -1.6414
 7094SOL    MW428144   1.357   5.182   3.565 -0.1956 -0.0461  0.0646
 7095SOL     OW28145   5.110   5.294   1.441  0.4344  0.0666  0.2245
 7095SOL    HW228146   5.071   5.243   1.370  2.2135 -0.9807 -0.0498
 7095SOL    HW328147   5.035   5.333   1.486 -0.9030 -1.5259 -0.5211
 7095SOL    MW428148   5.095   5.292   1.438  0.4927 -0.2817  0.0900
 7096SOL     OW28149   0.694   4.843   3.063 -0.1543  0.3827  0.9494
 7096SOL    HW228150   0.756   4.794   3.009  1.1806  1.8450  1.1029
 7096SOL    HW328151   0.696   4.798   3.148  0.0404 -0.0755  0.7047
 7096SOL    MW428152   0.702   4.830   3.067  0.0475  0.5152  0.9374
 7097SOL     OW28153   3.922   5.314   1.107  0.4471 -0.2792  0.3652
 7097SOL    HW228154   4.014   5.292   1.123  0.3188 -1.7183 -0.7513
 7097SOL    HW328155   3.877   5.282   1.185  0.4790 -2.7006 -0.5445
 7097SOL    MW428156   3.928   5.307   1.120  0.4344 -0.7885  0.0979
 7098SOL     OW28157   3.362   5.213   2.096  0.2420 -0.3149  0.1558
 7098SOL    HW228158   3.419   5.284   2.068 -0.5336  0.2448 -0.0331
 7098SOL    HW328159   3.379   5.143   2.033 -2.8810  1.5599 -3.1927
 7098SOL    MW428160   3.372   5.213   2.084 -0.2724  0.0063 -0.3109
 7099SOL     OW28161   6.204   1.185   1.414 -0.4695  0.2002 -0.3046
 7099SOL    HW228162   6.242   1.223   1.335 -0.7347  1.3432  0.0895
 7099SOL    HW328163   6.115   1.222   1.418  0.2282  1.8663  1.5918
 7099SOL    MW428164   6.197   1.195   1.404 -0.4124  0.5708 -0.0024
 7100SOL     OW28165   0.970   2.441   3.819  0.4363  1.0132 -0.2331
 7100SOL    HW228166   0.946   2.503   3.750  0.0494  1.1807  0.0461
 7100SOL    HW328167   0.886   2.414   3.857  0.5954  0.2690 -0.3873
 7100SOL    MW428168   0.956   2.446   3.815  0.4062  0.9371 -0.2166
 7101SOL     OW28169   3.969   6.152   3.318  0.8135  0.5936 -0.3734
 7101SOL    HW228170   4.026   6.217   3.359  0.8208  0.3701 -0.0256
 7101SOL    HW328171   3.880   6.184   3.332  0.5367 -1.1256  2.8742
 7101SOL    MW428172   3.965   6.165   3.325  0.7780  0.3373  0.1010
 7102SOL     OW28173   1.873   0.112   1.750 -0.3117 -0.4309  0.6078
 7102SOL    HW228174   1.875   0.119   1.655  1.1215 -0.0228  0.6402
 7102SOL    HW328175   1.873   0.018   1.768 -1.1891 -0.5188  0.2245
 7102SOL    MW428176   1.873   0.101   1.740 -0.2384 -0.3887  0.5615
 7103SOL     OW28177   1.400   2.002   5.512 -0.3077  0.3298 -0.4162
 7103SOL    HW228178   1.356   1.965   5.589  0.7086  1.3088  0.6727
 7103SOL    HW328179   1.392   1.933   5.446 -0.2522 -1.0166  0.9017
 7103SOL    MW428180   1.393   1.988   5.514 -0.1663  0.2814 -0.0986
 7104SOL     OW28181   3.788   5.558   1.180  0.7298  0.2028 -0.1228
 7104SOL    HW228182   3.832   5.642   1.169  2.2644 -0.4128  0.9545
 7104SOL    HW328183   3.854   5.493   1.157  0.5578 -0.7631  1.9309
 7104SOL    MW428184   3.803   5.561   1.176  0.9096 -0.0059  0.2903
 7105SOL     OW28185   0.980   4.965   5.201 -0.5868 -0.3539 -0.1726
 7105SOL    HW228186   0.940   5.045   5.170  0.6686  0.2195 -0.3786
 7105SOL    HW328187   1.068   4.966   5.164 -1.3372 -3.0958 -2.3378
 7105SOL    MW428188   0.986   4.975   5.192 -0.5202 -0.6400 -0.4855
 7106SOL     OW28189   3.264   6.131   3.731  0.0576  0.1110 -0.1896
 7106SOL    HW228190   3.216   6.061   3.686  0.2374 -0.9764  1.2267
 7106SOL    HW328191   3.198   6.198   3.749 -1.2116 -1.6198  2.2830
 7106SOL    MW428192   3.249   6.130   3.727 -0.0861 -0.2608  0.3234
 7107SOL     OW28193   1.023   1.820   5.286 -0.6444  0.0157 -0.8693
 7107SOL    HW228194   1.041   1.862   5.202  0.3215  0.9608 -0.2235
 7107SOL    HW328195   0.990   1.891   5.342  0.5033 -0.1432  0.0823
 7107SOL    MW428196   1.021   1.835   5.283 -0.3655  0.1194 -0.6585
 7108SOL     OW28197   3.923   3.282   0.013 -0.7819  0.0080  1.0354
 7108SOL    HW228198   3.922   3.314   0.103  1.1229  1.7644  0.5147
 7108SOL    HW328199   3.995   3.218   0.011  0.1859  1.0801  0.4669
 7108SOL    MW428200   3.932   3.278   0.025 -0.4029  0.3812  0.8917
 7109SOL     OW28201   3.955   0.041   0.952 -0.1869 -0.5977  0.0471
 7109SOL    HW228202   4.040   0.083   0.963  0.0509 -1.2775  0.8544
 7109SOL    HW328203   3.912   0.050   1.036 -0.5329 -1.0875 -0.0701
 7109SOL    MW428204   3.961   0.048   0.964 -0.2012 -0.7520  0.1381
 7110SOL     OW28205   5.880   3.456   3.974 -0.3490 -0.7592  0.0712
 7110SOL    HW228206   5.913   3.536   3.932  1.1171 -0.9819  0.7290
 7110SOL    HW328207   5.878   3.392   3.903 -2.1419 -0.0151 -0.6059
 7110SOL    MW428208   5.884   3.458   3.959 -0.3921 -0.6904  0.0687
 7111SOL     OW28209   2.845   0.106   4.958 -0.0263 -0.1573  0.2678
 7111SOL    HW228210   2.804   0.191   4.973  0.2380  0.2999 -1.3905
 7111SOL    HW328211   2.867   0.074   5.046 -1.8644  0.5950  1.0550
 7111SOL    MW428212   2.842   0.113   4.972 -0.2340  0.0023  0.1529
 7112SOL     OW28213   2.745   0.186   0.307 -0.1895 -0.2199 -0.6017
 7112SOL    HW228214   2.781   0.275   0.303 -0.3841 -0.1590 -1.2219
 7112SOL    HW328215   2.792   0.144   0.379 -0.2867  0.4682 -0.1277
 7112SOL    MW428216   2.756   0.193   0.316 -0.2280 -0.1211 -0.6210
 7113SOL     OW28217   4.522   4.696   2.539  0.5027  0.0435  0.1333
 7113SOL    HW228218   4.616   4.699   2.555  0.7464 -2.1222 -0.5459
 7113SOL    HW328219   4.514   4.680   2.445 -0.4576 -1.2917  0.4089
 7113SOL    MW428220   4.533   4.694   2.529  0.4081 -0.4184  0.0801
 7114SOL     OW28221   4.277   4.492   2.235 -0.1818 -0.5865 -0.1283
 7114SOL    HW228222   4.231   4.505   2.318 -3.3894  2.2191 -2.0532
 7114SOL    HW328223   4.367   4.518   2.253 -0.9902  0.8889  2.2755
 7114SOL    MW428224   4.283   4.497   2.248 -0.7117 -0.0217 -0.0651
 7115SOL     OW28225   3.747   3.623   5.414  0.5220  0.7870 -0.0731
 7115SOL    HW228226   3.742   3.629   5.319 -3.8021 -0.4689 -0.1202
 7115SOL    HW328227   3.751   3.714   5.444  0.7627  1.2425 -1.4261
 7115SOL    MW428228   3.747   3.635   5.406 -0.0167  0.6814 -0.2578
 7116SOL     OW28229   4.528   1.781   4.435  0.7384  0.2302  0.2981
 7116SOL    HW228230   4.616   1.744   4.428  2.0196  3.0516 -0.2030
 7116SOL    HW328231   4.505   1.772   4.527  2.0305  0.3977  0.6559
 7116SOL    MW428232   4.536   1.775   4.446  1.0779  0.6245  0.2792
 7117SOL     OW28233   2.820   2.789   5.741  0.2070  0.3180 -0.7422
 7117SOL    HW228234   2.870   2.830   5.671 -1.1373  0.7439 -1.4804
 7117SOL    HW328235   2.792   2.705   5.705 -1.9855  1.2840 -1.4243
 7117SOL    MW428236   2.823   2.783   5.727 -0.2596  0.5016 -0.9296
 7118SOL     OW28237   2.766   1.310   5.396 -0.3750 -0.5017 -0.4280
 7118SOL    HW228238   2.850   1.354   5.388 -0.3105 -0.0880  1.7217
 7118SOL    HW328239   2.702   1.377   5.370 -0.1202 -0.2042 -0.3022
 7118SOL    MW428240   2.768   1.325   5.392 -0.3329 -0.4079 -0.1278
 7119SOL     OW28241   2.048   6.211   3.647 -0.8973  0.5130  0.4448
 7119SOL    HW228242   1.962   6.247   3.669 -0.4412  2.2738 -0.4944
 7119SOL    HW328243   2.079   6.265   3.574  1.4016  0.5304  1.3352
 7119SOL    MW428244   2.041   6.223   3.640 -0.5338  0.7476  0.4384
 7120SOL     OW28245   4.469   2.299   5.415  0.2889 -0.2414 -0.0046
 7120SOL    HW228246   4.457   2.366   5.347  2.2649 -0.4081 -0.5735
 7120SOL    HW328247   4.409   2.229   5.390  1.5498 -0.6609 -2.1137
 7120SOL    MW428248   4.459   2.299   5.402  0.7160 -0.3187 -0.3579
 7121SOL     OW28249   5.239   0.706   2.228  0.5275 -0.3146  0.1853
 7121SOL    HW228250   5.257   0.624   2.182 -0.7548 -1.1183  1.0509
 7121SOL    HW328251   5.191   0.680   2.307 -2.3966  1.4443 -0.8462
 7121SOL    MW428252   5.235   0.692   2.232 -0.0274 -0.1885  0.1634
 7122SOL     OW28253   6.030   4.284   2.690  0.2851 -0.0517 -0.1184
 7122SOL    HW228254   6.096   4.257   2.755 -0.7975  0.5662  1.2746
 7122SOL    HW328255   5.992   4.201   2.660  0.8125 -0.3452 -0.0013
 7122SOL    MW428256   6.034   4.269   2.695  0.2119 -0.0089  0.0809
 7123SOL     OW28257   5.356   3.056   3.806  0.0794 -0.0526 -0.4458
 7123SOL    HW228258   5.270   3.039   3.768 -0.5341 -0.3804  1.0072
 7123SOL    HW328259   5.336   3.089   3.894  1.3946  1.8435 -0.7923
 7123SOL    MW428260   5.342   3.058   3.812  0.1720  0.1543 -0.2998
 7124SOL     OW28261   2.169   4.497   5.686  0.2128 -0.0176 -0.3734
 7124SOL    HW228262   2.095   4.458   5.733  1.6201 -0.8346  1.2980
 7124SOL    HW328263   2.130   4.537   5.608 -2.0660  0.1749  0.7726
 7124SOL    MW428264   2.154   4.497   5.682  0.0978 -0.1000 -0.0016
 7125SOL     OW28265   1.259   4.760   4.918  0.3517  0.4884  0.4874
 7125SOL    HW228266   1.277   4.666   4.915 -1.5845  0.0741  0.7691
 7125SOL    HW328267   1.284   4.791   4.831  3.2007  0.1961  1.1221
 7125SOL    MW428268   1.265   4.751   4.906  0.4722  0.3952  0.6083
 7126SOL     OW28269   3.225   2.809   6.277 -0.5420  0.3031  0.0472
 7126SOL    HW228270   3.294   2.812   6.210 -0.7344 -0.6106 -0.2101
 7126SOL    HW328271   3.266   2.845   6.356  0.1126  0.1082 -0.1962
 7126SOL    MW428272   3.239   2.814   6.278 -0.4810  0.1569 -0.0188
 7127SOL     OW28273   5.774   5.018   2.743  0.0841  0.1429 -0.2657
 7127SOL    HW228274   5.765   5.091   2.805 -1.3117  0.2724 -0.5861
 7127SOL    HW328275   5.838   4.960   2.783  0.7200  1.2177  0.3205
 7127SOL    MW428276   5.781   5.020   2.756 -0.0162  0.3018 -0.2307
 7128SOL     OW28277   2.913   1.949   1.202  0.4178 -0.6301 -0.2793
 7128SOL    HW228278   2.847   1.894   1.160 -0.5669 -0.1321  0.5709
 7128SOL    HW328279   2.883   2.039   1.185  0.8888 -0.3957  0.0986
 7128SOL    MW428280   2.900   1.954   1.194  0.3500 -0.5334 -0.1172
 7129SOL     OW28281   2.019   2.831   1.527  0.1229 -0.5536 -0.4893
 7129SOL    HW228282   1.975   2.902   1.574  0.0887 -1.7254  1.3504
 7129SOL    HW328283   1.954   2.761   1.524  0.9372 -1.3450 -0.1185
 7129SOL    MW428284   2.004   2.832   1.533  0.2258 -0.8126 -0.1976
 7130SOL     OW28285   3.330   1.061   4.180 -0.4760 -0.2854  0.2839
 7130SOL    HW228286   3.344   1.015   4.263 -2.0200 -0.5518  0.4226
 7130SOL    HW328287   3.250   1.022   4.144  1.6306 -2.2391 -2.7779
 7130SOL    MW428288   3.322   1.050   4.186 -0.4018 -0.5783 -0.1018
 7131SOL     OW28289   1.714   3.174   1.325  0.6641 -0.5631  0.2856
 7131SOL    HW228290   1.685   3.264   1.306 -0.5546 -1.1763 -0.9456
 7131SOL    HW328291   1.809   3.180   1.327  0.6916  0.4906 -1.4682
 7131SOL    MW428292   1.723   3.187   1.322  0.5069 -0.5050 -0.1082
 7132SOL     OW28293   4.675   2.287   2.963  0.1093  0.1911 -0.7896
 7132SOL    HW228294   4.666   2.326   2.876 -0.6015  2.2447  0.1273
 7132SOL    HW328295   4.662   2.361   3.023  0.4390 -1.1938  1.0654
 7132SOL    MW428296   4.672   2.302   2.959  0.0590  0.2793 -0.4239
 7133SOL     OW28297   3.217   2.629   5.087  0.5171  0.4577 -0.1634
 7133SOL    HW228298   3.202   2.718   5.119  1.8226  0.6254  0.0693
 7133SOL    HW328299   3.167   2.624   5.005 -1.9009  0.4056  1.2435
 7133SOL    MW428300   3.209   2.640   5.080  0.3703  0.4729  0.0530
 7134SOL     OW28301   5.475   1.722   6.297  0.4547  0.2130 -0.3160
 7134SOL    HW228302   5.443   1.636   6.269 -1.0544  0.1185  1.5229
 7134SOL    HW328303   5.545   1.703   6.359  0.4753  0.3111 -0.3092
 7134SOL    MW428304   5.480   1.708   6.301  0.2583  0.2135 -0.0725
 7135SOL     OW28305  -0.007   5.762   0.661 -0.2195  0.0320  0.2258
 7135SOL    HW228306  -0.100   5.754   0.679 -0.2217  0.8667  0.6329
 7135SOL    HW328307   0.009   5.856   0.657  1.0212  0.0123  2.5799
 7135SOL    MW428308  -0.017   5.773   0.663 -0.0561  0.1395  0.5901
 7136SOL     OW28309   0.292   3.578   2.057 -0.8059 -0.4252  0.1779
 7136SOL    HW228310   0.352   3.515   2.017 -0.9332 -0.9184  0.7642
 7136SOL    HW328311   0.244   3.615   1.982  0.4372  0.2128 -0.3310
 7136SOL    MW428312   0.294   3.575   2.042 -0.6587 -0.4061  0.1881
 7137SOL     OW28313   3.515   1.630   0.927 -0.2444 -0.2867 -0.1655
 7137SOL    HW228314   3.582   1.695   0.905 -0.7480  0.2446 -0.1513
 7137SOL    HW328315   3.437   1.659   0.880 -0.9916  0.1549  1.3109
 7137SOL    MW428316   3.514   1.642   0.918 -0.4094 -0.1583  0.0312
 7138SOL     OW28317   5.013   5.557   5.710 -1.0935  0.4355 -0.4270
 7138SOL    HW228318   4.994   5.645   5.742  0.0470  0.8590 -0.8609
 7138SOL    HW328319   5.015   5.502   5.788 -0.2951  1.0901  0.0227
 7138SOL    MW428320   5.011   5.561   5.724 -0.8377  0.5777 -0.4249
 7139SOL     OW28321   3.341   3.512   2.158 -0.5812  0.4249  0.4867
 7139SOL    HW228322   3.332   3.511   2.063  1.9919 -0.0583  0.1801
 7139SOL    HW328323   3.391   3.433   2.179  2.9524  2.7577  1.6704
 7139SOL    MW428324   3.346   3.501   2.149  0.2245  0.6689  0.6024
 7140SOL     OW28325   2.978   0.620   4.470  0.4671  0.1321 -0.0789
 7140SOL    HW228326   2.983   0.694   4.410  0.8383  0.0825 -0.1127
 7140SOL    HW328327   2.922   0.557   4.426  0.5303  0.2007 -0.2583
 7140SOL    MW428328   2.971   0.622   4.456  0.5244  0.1346 -0.1070
 7141SOL     OW28329   4.363   2.621   3.966  0.0543 -0.8913  0.2719
 7141SOL    HW228330   4.298   2.688   3.988  0.3418 -0.2214 -0.8354
 7141SOL    HW328331   4.435   2.670   3.926 -0.0938 -1.9233 -1.3439
 7141SOL    MW428332   4.364   2.636   3.963  0.0727 -0.9391 -0.0873
 7142SOL     OW28333   3.353   1.460   0.224 -0.4598  0.3436 -0.1248
 7142SOL    HW228334   3.377   1.389   0.165  0.8782 -0.9789  1.8521
 7142SOL    HW328335   3.263   1.482   0.201 -0.3830 -0.9360 -1.8023
 7142SOL    MW428336   3.344   1.453   0.213 -0.2732  0.0003 -0.0853
 7143SOL     OW28337   4.929   0.787   2.809 -0.3955  0.1881  0.1314
 7143SOL    HW228338   4.903   0.716   2.750 -0.3431  0.6550 -0.4610
 7143SOL    HW328339   4.851   0.842   2.816  0.5385  2.0062 -2.2439
 7143SOL    MW428340   4.915   0.785   2.802 -0.2654  0.4896 -0.2602
 7144SOL     OW28341   0.677   2.051   4.144 -0.2854 -0.2609  0.3901
 7144SOL    HW228342   0.627   2.107   4.203 -1.7473 -1.4733  0.3504
 7144SOL    HW328343   0.704   2.110   4.073 -1.7685  0.4345  0.3611
 7144SOL    MW428344   0.674   2.066   4.142 -0.6739 -0.3291  0.3811
 7145SOL     OW28345   6.033   6.306   5.174 -0.1536  0.2347 -0.4317
 7145SOL    HW228346   6.118   6.312   5.131 -0.1761  0.9739 -0.3903
 7145SOL    HW328347   6.053   6.286   5.265  0.0740  1.8294 -0.0967
 7145SOL    MW428348   6.047   6.304   5.180 -0.1266  0.5426 -0.3820
 7146SOL     OW28349   0.395   4.592   6.384  0.0128  0.0657  0.4801
 7146SOL    HW228350   0.300   4.602   6.388 -0.2712 -2.4379  3.6507
 7146SOL    HW328351   0.426   4.672   6.341 -3.3626  1.7619  0.8869
 7146SOL    MW428352   0.387   4.604   6.379 -0.4700 -0.0409  0.9521
 7147SOL     OW28353   6.158   3.667   1.604 -0.3586  0.0423  0.1615
 7147SOL    HW228354   6.235   3.694   1.653 -0.0452  0.2451 -0.4233
 7147SOL    HW328355   6.193   3.636   1.520 -0.9719  0.9347 -0.4369
 7147SOL    MW428356   6.173   3.666   1.599 -0.3981  0.1868  0.0054
 7148SOL     OW28357   2.715   3.797   6.219 -0.5106  0.0144  0.7990
 7148SOL    HW228358   2.778   3.737   6.177 -1.0768 -1.2525  1.6874
 7148SOL    HW328359   2.768   3.850   6.278  0.0381  0.5667 -0.1737
 7148SOL    MW428360   2.731   3.796   6.221 -0.5129 -0.0799  0.7879
 7149SOL     OW28361   5.508   5.952   3.803 -0.6211 -0.0361 -0.2888
 7149SOL    HW228362   5.489   5.860   3.786 -1.4697  0.3682 -1.7243
 7149SOL    HW328363   5.423   5.995   3.800  0.0068  1.1964 -2.5687
 7149SOL    MW428364   5.494   5.945   3.800 -0.6502  0.1799 -0.7790
 7150SOL     OW28365   6.266   4.756   5.234  0.4642 -0.8433 -0.1228
 7150SOL    HW228366   6.223   4.815   5.297  0.4142  0.5531 -1.4215
 7150SOL    HW328367   6.357   4.786   5.232 -0.0256  0.7130 -2.4189
 7150SOL    MW428368   6.273   4.768   5.242  0.3930 -0.4538 -0.5971
 7151SOL     OW28369   0.389   1.243   3.595 -1.1745 -0.2377  0.2306
 7151SOL    HW228370   0.450   1.301   3.641 -1.9142  1.5492 -0.9603
 7151SOL    HW328371   0.302   1.270   3.625 -1.7464  1.5168 -2.6135
 7151SOL    MW428372   0.386   1.254   3.605 -1.3475  0.2295 -0.3017
 7152SOL     OW28373   5.069   3.811   3.960  0.5004  0.2525  0.0184
 7152SOL    HW228374   4.997   3.850   4.010 -1.2196 -0.9622 -1.4109
 7152SOL    HW328375   5.076   3.865   3.881  1.3017  0.4778  0.2351
 7152SOL    MW428376   5.060   3.823   3.956  0.3792  0.1219 -0.1416
 7153SOL     OW28377   6.363   1.171   2.976  0.3881  0.2142  0.1322
 7153SOL    HW228378   6.379   1.080   3.001 -0.2429 -0.1496 -0.7294
 7153SOL    HW328379   6.303   1.204   3.043  0.0282 -0.2389  0.0413
 7153SOL    MW428380   6.357   1.163   2.988  0.2574  0.1064  0.0065
 7154SOL     OW28381   4.024   4.896   5.340  0.2027 -0.4593  0.1123
 7154SOL    HW228382   4.097   4.915   5.281 -1.1307  0.4821 -1.3190
 7154SOL    HW328383   3.948   4.937   5.299 -0.8726 -0.0538  2.3425
 7154SOL    MW428384   4.023   4.904   5.327 -0.1151 -0.2816  0.2177
 7155SOL     OW28385   4.900   4.175   3.920  0.0576  0.2000  0.3629
 7155SOL    HW228386   4.971   4.134   3.869  0.1402 -0.7825  1.2297
 7155SOL    HW328387   4.945   4.238   3.976 -0.0900  1.6688 -1.1144
 7155SOL    MW428388   4.916   4.178   3.921  0.0490  0.2642  0.2824
 7156SOL     OW28389   0.439   0.920   3.959 -0.4822 -0.6164 -0.3517
 7156SOL    HW228390   0.388   0.999   3.975 -0.4404 -0.5679 -0.4569
 7156SOL    HW328391   0.375   0.857   3.924 -0.9197 -1.2482  1.4597
 7156SOL    MW428392   0.423   0.922   3.956 -0.5344 -0.6934 -0.1266
 7157SOL     OW28393   5.723   0.787   3.587 -0.3458 -0.0337 -0.9594
 7157SOL    HW228394   5.700   0.865   3.638 -0.4086  0.3987 -1.6325
 7157SOL    HW328395   5.710   0.714   3.647  1.5730  0.5965  0.3041
 7157SOL    MW428396   5.718   0.788   3.602 -0.1009  0.1065 -0.8815
 7158SOL     OW28397   2.242   4.086   3.049  0.3836  0.3642 -0.1515
 7158SOL    HW228398   2.330   4.057   3.072  0.1893 -1.1327 -1.1491
 7158SOL    HW328399   2.255   4.145   2.975  0.6104  0.8970  0.3088
 7158SOL    MW428400   2.255   4.090   3.042  0.3879  0.2370 -0.2224
 7159SOL     OW28401   0.867   0.128   3.521  0.0588 -0.3404 -0.1860
 7159SOL    HW228402   0.912   0.193   3.468  0.0394 -0.1723  0.0005
 7159SOL    HW328403   0.922   0.118   3.599 -0.0102 -0.4443 -0.1496
 7159SOL    MW428404   0.880   0.135   3.525  0.0471 -0.3319 -0.1566
 7160SOL     OW28405   2.077   4.110   5.665  0.0088  0.0868 -0.0027
 7160SOL    HW228406   2.145   4.108   5.732 -1.4391  2.0851  1.6483
 7160SOL    HW328407   1.998   4.136   5.712 -1.3383  0.3786 -2.2952
 7160SOL    MW428408   2.076   4.113   5.680 -0.3599  0.3889 -0.0873
 7161SOL     OW28409   5.952   4.055   1.995  0.6602  0.3292  0.1854
 7161SOL    HW228410   5.863   4.042   2.028  0.9177  0.0796  0.8034
 7161SOL    HW328411   5.959   4.149   1.980  0.0683  0.2663 -0.5338
 7161SOL    MW428412   5.941   4.065   1.998  0.6161  0.2880  0.1721
 7162SOL     OW28413   2.365   3.068   2.311 -0.9165 -0.4763 -0.4404
 7162SOL    HW228414   2.303   3.065   2.384  0.0705  0.7643  0.5035
 7162SOL    HW328415   2.435   3.008   2.336 -0.1151  0.6537  0.1184
 7162SOL    MW428416   2.366   3.060   2.324 -0.6805 -0.1636 -0.2422
 7163SOL     OW28417   4.423   5.658   6.026 -0.0179 -0.1380 -0.3957
 7163SOL    HW228418   4.513   5.631   6.004  0.8053  1.0545  1.2826
 7163SOL    HW328419   4.399   5.603   6.100  0.2400  1.1007  0.6385
 7163SOL    MW428420   4.432   5.647   6.033  0.1248  0.1827 -0.0378
 7164SOL     OW28421   5.090   5.831   6.267 -0.0015 -0.4996  0.0614
 7164SOL    HW228422   5.055   5.907   6.219 -0.5507 -0.0161  1.1841
 7164SOL    HW328423   5.030   5.759   6.244 -0.6288 -0.1246  0.4911
 7164SOL    MW428424   5.077   5.832   6.258 -0.1567 -0.3863  0.2662
 7165SOL     OW28425   3.763   2.231   6.264  0.2453 -0.5400  0.0024
 7165SOL    HW228426   3.677   2.267   6.284 -0.2767 -0.7068 -1.7575
 7165SOL    HW328427   3.771   2.154   6.320 -1.4775 -1.4838 -1.0048
 7165SOL    MW428428   3.753   2.226   6.274 -0.0508 -0.6865 -0.3627
 7166SOL     OW28429   1.624   5.340   5.582  0.3560  0.3123  0.0729
 7166SOL    HW228430   1.682   5.267   5.563  0.7551  0.7127 -0.2917
 7166SOL    HW328431   1.554   5.332   5.517  0.9284  0.8177 -0.6244
 7166SOL    MW428432   1.622   5.329   5.571  0.4841  0.4318 -0.0672
 7167SOL     OW28433   4.226   2.477   0.755  1.0916  0.0077  0.2200
 7167SOL    HW228434   4.156   2.432   0.707  1.4026 -1.5360  1.1283
 7167SOL    HW328435   4.206   2.570   0.746 -1.3436 -0.3892  0.7939
 7167SOL    MW428436   4.214   2.483   0.748  0.8113 -0.2484  0.4155
 7168SOL     OW28437   0.929   1.704   4.140  0.2841  0.1723  0.1461
 7168SOL    HW228438   1.014   1.661   4.157 -0.1004 -0.5110  0.3960
 7168SOL    HW328439   0.901   1.734   4.227 -0.7917 -1.6390  0.4810
 7168SOL    MW428440   0.937   1.702   4.154  0.0914 -0.1568  0.2232
 7169SOL     OW28441   3.566   2.069   2.553 -0.1863  0.1893 -0.2386
 7169SOL    HW228442   3.518   2.149   2.532  0.7486  0.9526  0.4700
 7169SOL    HW328443   3.557   2.015   2.475  0.5891  1.6874 -1.4354
 7169SOL    MW428444   3.559   2.072   2.540  0.0394  0.4877 -0.3030
 7170SOL     OW28445   3.850   2.407   2.658  0.8628 -0.0297 -0.2774
 7170SOL    HW228446   3.864   2.315   2.636 -0.0945 -0.1845 -0.2770
 7170SOL    HW328447   3.798   2.442   2.586 -3.8901 -0.9905  2.2983
 7170SOL    MW428448   3.845   2.399   2.646  0.1094 -0.1769  0.0625
 7171SOL     OW28449   0.714   5.330   5.242 -0.4621  0.4277  0.4748
 7171SOL    HW228450   0.746   5.338   5.152  0.1477  3.2328  0.8461
 7171SOL    HW328451   0.656   5.253   5.240  1.3243 -1.0066 -1.7201
 7171SOL    MW428452   0.710   5.321   5.230 -0.1460  0.6085  0.2342
 7172SOL     OW28453   3.704   4.387   4.688  0.8232  0.0377  0.4745
 7172SOL    HW228454   3.622   4.435   4.696  1.2779  1.3389 -1.6224
 7172SOL    HW328455   3.766   4.437   4.741  1.1106  1.4180 -1.0747
 7172SOL    MW428456   3.701   4.400   4.696  0.9211  0.3915 -0.0066
 7173SOL     OW28457   1.469   0.145   5.761 -0.1164  0.1411  0.3836
 7173SOL    HW228458   1.427   0.184   5.684  1.6838 -0.2060 -0.8436
 7173SOL    HW328459   1.529   0.080   5.725 -1.3542 -2.2297  2.2400
 7173SOL    MW428460   1.471   0.141   5.746 -0.0422 -0.2175  0.4666
 7174SOL     OW28461   0.314   3.764   3.872 -0.0475 -0.1947  0.5938
 7174SOL    HW228462   0.253   3.804   3.810  1.1537 -0.5140 -0.8451
 7174SOL    HW328463   0.272   3.682   3.897 -1.0542  0.4445  1.0995
 7174SOL    MW428464   0.300   3.759   3.867 -0.0218 -0.1525  0.4707
 7175SOL     OW28465   4.424   3.334   2.985  0.1589  0.1550  0.0981
 7175SOL    HW228466   4.364   3.281   2.933  1.3141 -1.3984  0.2749
 7175SOL    HW328467   4.367   3.380   3.047 -0.8793 -1.3049  0.2971
 7175SOL    MW428468   4.409   3.333   2.986  0.1744 -0.2425  0.1477
 7176SOL     OW28469   4.785   1.943   0.502 -0.5831 -0.2465 -0.1702
 7176SOL    HW228470   4.841   2.019   0.483  0.8203 -1.0695  0.5396
 7176SOL    HW328471   4.703   1.982   0.535 -0.8757  1.0096 -2.1859
 7176SOL    MW428472   4.781   1.958   0.504 -0.4366 -0.1894 -0.3425
 7177SOL     OW28473   0.785   5.032   0.227 -0.0000 -0.4987  0.5242
 7177SOL    HW228474   0.829   4.973   0.289  0.4910 -0.6749  0.0183
 7177SOL    HW328475   0.779   5.116   0.273 -0.1470 -0.7812  1.0196
 7177SOL    MW428476   0.790   5.035   0.241  0.0454 -0.5592  0.5228
 7178SOL     OW28477   6.240   0.369   1.519  0.2671 -0.2860  0.2000
 7178SOL    HW228478   6.194   0.435   1.468 -0.4529 -0.2433  0.8928
 7178SOL    HW328479   6.288   0.318   1.454 -0.8256 -0.3880 -0.5418
 7178SOL    MW428480   6.240   0.371   1.504  0.0280 -0.2938  0.1935
 7179SOL     OW28481   1.461   0.918   4.888 -0.5866 -0.3275 -0.2976
 7179SOL    HW228482   1.549   0.911   4.849 -0.4336 -0.8375  0.1347
 7179SOL    HW328483   1.416   0.839   4.860 -1.2680  0.4161 -1.3742
 7179SOL    MW428484   1.467   0.907   4.879 -0.6563 -0.2967 -0.3826
 7180SOL     OW28485   1.706   5.274   2.526  0.3275  0.2495 -0.0264
 7180SOL    HW228486   1.782   5.228   2.491  1.4772  2.5822 -0.8422
 7180SOL    HW328487   1.737   5.364   2.537 -1.8627  0.9022  1.1986
 7180SOL    MW428488   1.720   5.280   2.523  0.1902  0.6434  0.0276
 7181SOL     OW28489   4.108   1.323   3.506  0.9351 -0.1573 -0.4225
 7181SOL    HW228490   4.103   1.241   3.457  0.8507  0.6150 -1.7740
 7181SOL    HW328491   4.202   1.338   3.517  0.9597 -0.2394 -0.5127
 7181SOL    MW428492   4.120   1.314   3.501  0.9272 -0.0663 -0.6127
 7182SOL     OW28493   0.288   0.936   3.056 -0.5894 -0.3573 -0.5070
 7182SOL    HW228494   0.343   0.870   3.014 -0.9820 -1.1363  0.1823
 7182SOL    HW328495   0.198   0.908   3.040 -0.7869 -1.6659  2.2438
 7182SOL    MW428496   0.283   0.924   3.049 -0.6672 -0.6328 -0.0531
 7183SOL     OW28497   5.848   0.360   1.808  0.3531 -0.3957 -0.5661
 7183SOL    HW228498   5.783   0.342   1.875 -0.3383  1.2426 -0.7507
 7183SOL    HW328499   5.837   0.289   1.744  0.6201 -1.6360  0.7192
 7183SOL    MW428500   5.838   0.348   1.808  0.2971 -0.3432 -0.4209
 7184SOL     OW28501   3.301   3.696   3.860  0.7088  0.8959  0.9670
 7184SOL    HW228502   3.323   3.732   3.774 -0.8151  0.1363  0.2181
 7184SOL    HW328503   3.313   3.770   3.921  1.4228  1.5510  0.0700
 7184SOL    MW428504   3.306   3.711   3.857  0.6019  0.8821  0.7499
 7185SOL     OW28505   1.058   5.913   0.762  0.4015 -0.2356  0.1356
 7185SOL    HW228506   1.145   5.921   0.722 -0.4945  1.4543 -1.6475
 7185SOL    HW328507   0.999   5.952   0.698 -1.4338  0.5676  2.2098
 7185SOL    MW428508   1.062   5.919   0.748  0.0412  0.0933  0.1740
 7186SOL     OW28509   6.171   3.773   3.353 -0.2981  0.2355  0.0255
 7186SOL    HW228510   6.196   3.768   3.260 -1.0363 -0.5181 -0.1412
 7186SOL    HW328511   6.188   3.685   3.387 -2.4204 -0.2514 -0.0329
 7186SOL    MW428512   6.177   3.761   3.345 -0.6755  0.0719 -0.0042
 7187SOL     OW28513   1.928   5.569   5.329 -0.3444 -0.5193 -0.2369
 7187SOL    HW228514   1.866   5.603   5.265  0.3324  1.3301  0.0053
 7187SOL    HW328515   2.003   5.629   5.324  1.0559 -2.1370  0.1103
 7187SOL    MW428516   1.930   5.581   5.320 -0.0703 -0.4887 -0.1592
 7188SOL     OW28517   5.318   0.586   3.898 -0.0658  0.2454  0.0479
 7188SOL    HW228518   5.300   0.605   3.806  1.8784  0.9477 -0.2333
 7188SOL    HW328519   5.240   0.615   3.945 -0.2886  1.7138 -1.1835
 7188SOL    MW428520   5.305   0.592   3.892  0.1613  0.5318 -0.1517
 7189SOL     OW28521   1.496   5.832   1.532 -0.4246 -0.2242  0.3774
 7189SOL    HW228522   1.533   5.749   1.561  0.4759  0.6604  1.9457
 7189SOL    HW328523   1.571   5.879   1.494 -0.4864  0.5403  1.1497
 7189SOL    MW428524   1.511   5.827   1.531 -0.3140 -0.0066  0.6862
 7190SOL     OW28525   0.915   0.146   0.602 -0.0086  0.1169 -0.0042
 7190SOL    HW228526   0.998   0.189   0.625 -0.5008  0.4466  1.2677
 7190SOL    HW328527   0.903   0.165   0.509  0.2373  2.0017  0.3070
 7190SOL    MW428528   0.924   0.154   0.593 -0.0411  0.4091  0.2047
 7191SOL     OW28529   5.381   0.480   1.341 -0.0297  0.2886 -0.1786
 7191SOL    HW228530   5.401   0.573   1.325  3.6107 -0.2340  0.4663
 7191SOL    HW328531   5.319   0.481   1.414 -1.0212  2.1933 -0.9746
 7191SOL    MW428532   5.375   0.493   1.348  0.3198  0.4709 -0.1986
 7192SOL     OW28533   5.079   2.362   3.218  0.2509 -0.1470 -0.0957
 7192SOL    HW228534   5.149   2.297   3.229  2.4224  2.0608 -0.1376
 7192SOL    HW328535   5.022   2.324   3.151  1.2968 -2.1011  0.0554
 7192SOL    MW428536   5.081   2.348   3.210  0.6754 -0.1135 -0.0813
 7193SOL     OW28537   1.243   4.906   0.139 -0.5163 -0.3334 -0.0836
 7193SOL    HW228538   1.336   4.915   0.160 -0.6725  1.7072 -0.0392
 7193SOL    HW328539   1.200   4.975   0.191 -2.1033 -1.4323  0.1354
 7193SOL    MW428540   1.250   4.916   0.149 -0.7463 -0.2091 -0.0489
 7194SOL     OW28541   1.071   2.697   1.068  0.2822  0.0691  0.4842
 7194SOL    HW228542   1.150   2.744   1.040  0.8596  0.3376  2.4471
 7194SOL    HW328543   1.089   2.606   1.046  0.7325  0.2457  0.0857
 7194SOL    MW428544   1.084   2.692   1.061  0.4178  0.1278  0.6906
 7195SOL     OW28545   2.448   5.358   4.102  0.3881  0.0792 -0.0055
 7195SOL    HW228546   2.493   5.325   4.024 -0.7407 -1.4356 -0.0618
 7195SOL    HW328547   2.398   5.433   4.071  0.2446 -0.2800 -0.6662
 7195SOL    MW428548   2.447   5.363   4.088  0.2203 -0.1680 -0.1001
 7196SOL     OW28549   1.403   2.460   3.798 -0.0715  0.0870  0.1900
 7196SOL    HW228550   1.442   2.535   3.844  0.0464  1.1246 -1.4982
 7196SOL    HW328551   1.478   2.413   3.762 -0.1921 -0.2713  0.4089
 7196SOL    MW428552   1.418   2.464   3.799 -0.0718  0.1766 -0.0038
 7197SOL     OW28553   3.196   1.878   1.922 -0.1120 -0.5486  0.2891
 7197SOL    HW228554   3.154   1.963   1.934  0.0308 -0.5109  0.5241
 7197SOL    HW328555   3.282   1.888   1.963 -0.6501 -1.2681  1.6503
 7197SOL    MW428556   3.202   1.891   1.929 -0.1642 -0.6385  0.4997
 7198SOL     OW28557   1.846   2.182   1.004 -0.0666  0.1386 -0.5360
 7198SOL    HW228558   1.826   2.263   0.956  1.3101 -0.3716 -2.0566
 7198SOL    HW328559   1.765   2.164   1.052 -1.7633  0.4848 -3.0014
 7198SOL    MW428560   1.833   2.191   1.004 -0.1088  0.1169 -1.0619
 7199SOL     OW28561   1.864   2.713   5.394  0.2316  0.1565  0.1496
 7199SOL    HW228562   1.871   2.634   5.447  0.0824  0.3046  0.3908
 7199SOL    HW328563   1.941   2.764   5.416  0.4808 -0.0528 -0.2252
 7199SOL    MW428564   1.875   2.709   5.404  0.2448  0.1484  0.1320
 7200SOL     OW28565   5.605   4.946   5.513  0.1324 -0.7196  0.2918
 7200SOL    HW228566   5.514   4.926   5.495 -0.1694 -0.6838  1.6605
 7200SOL    HW328567   5.613   5.040   5.498 -0.9355 -0.0332  3.3417
 7200SOL    MW428568   5.594   4.956   5.508 -0.0483 -0.6243  0.8748
 7201SOL     OW28569   4.307   4.111   3.509 -0.2024  0.2473  0.0916
 7201SOL    HW228570   4.223   4.098   3.467 -0.3316  2.2803 -0.3484
 7201SOL    HW328571   4.290   4.173   3.580  1.0028  1.1440 -0.3624
 7201SOL    MW428572   4.294   4.117   3.513 -0.0604  0.6339 -0.0264
 7202SOL     OW28573   2.275   5.876   5.059  0.1025 -0.1823 -0.7113
 7202SOL    HW228574   2.241   5.939   4.995 -0.0293 -1.3844 -1.8579
 7202SOL    HW328575   2.367   5.863   5.033  0.6679  0.8660  0.6243
 7202SOL    MW428576   2.283   5.883   5.047  0.1597 -0.2026 -0.6864
 7203SOL     OW28577   6.311   5.815   5.000  0.1527  0.3345 -1.1047
 7203SOL    HW228578   6.304   5.743   5.063 -0.6601  0.3036 -1.2206
 7203SOL    HW328579   6.405   5.822   4.982  0.2084 -0.9737 -1.4186
 7203SOL    MW428580   6.323   5.807   5.006  0.0528  0.1579 -1.1614
 7204SOL     OW28581   4.864   2.550   3.593 -0.2867 -0.6123  0.1101
 7204SOL    HW228582   4.818   2.536   3.509 -1.6365 -0.1619  0.7423
 7204SOL    HW328583   4.931   2.615   3.572 -0.4468 -0.6858 -0.6831
 7204SOL    MW428584   4.867   2.557   3.579 -0.4860 -0.5626  0.0889
 7205SOL     OW28585   3.918   2.336   4.519 -0.3587  0.6589  0.1775
 7205SOL    HW228586   4.011   2.343   4.496 -0.2126 -0.7408  0.2901
 7205SOL    HW328587   3.916   2.284   4.599 -1.3057 -0.2419 -0.4046
 7205SOL    MW428588   3.930   2.330   4.526 -0.4644  0.3554  0.1156
 7206SOL     OW28589   5.590   0.850   4.642 -0.1358 -0.0299 -0.0705
 7206SOL    HW228590   5.621   0.899   4.565  0.7056  0.6211  0.6637
 7206SOL    HW328591   5.670   0.814   4.680 -0.6900 -1.5679 -0.3011
 7206SOL    MW428592   5.605   0.852   4.637 -0.0979 -0.1469 -0.0041
 7207SOL     OW28593   0.042   5.545   2.167  0.1001  0.2142  0.0560
 7207SOL    HW228594   0.131   5.537   2.134  0.2399  0.1689  0.4470
 7207SOL    HW328595   0.052   5.570   2.259 -0.2781 -0.4970  0.2985
 7207SOL    MW428596   0.055   5.548   2.175  0.0686  0.1144  0.1396
 7208SOL     OW28597   1.745   0.450  -0.022  0.1828  0.0416  0.8255
 7208SOL    HW228598   1.790   0.512   0.037  1.8508 -0.5345  0.2157
 7208SOL    HW328599   1.799   0.371  -0.019 -0.8368 -0.7057  0.0706
 7208SOL    MW428600   1.758   0.448  -0.014  0.2684 -0.1330  0.6455
 7209SOL     OW28601   4.610   2.452   0.974 -0.1890  0.7436  0.2487
 7209SOL    HW228602   4.621   2.400   1.054  0.0515  1.4035  0.6529
 7209SOL    HW328603   4.632   2.541   1.001 -0.2304  0.9898 -0.5297
 7209SOL    MW428604   4.614   2.457   0.988 -0.1627  0.8631  0.1993
 7210SOL     OW28605   6.193   5.431   1.885  0.7531  0.2480  0.7336
 7210SOL    HW228606   6.188   5.470   1.972  0.5956 -0.8754  1.2442
 7210SOL    HW328607   6.287   5.417   1.870  1.0062  2.3610 -0.2030
 7210SOL    MW428608   6.205   5.435   1.894  0.7657  0.3786  0.6774
 7211SOL     OW28609   1.913   5.688   6.401 -0.1430 -0.2309 -0.5644
 7211SOL    HW228610   1.989   5.745   6.390  0.6525 -1.5071 -2.1586
 7211SOL    HW328611   1.838   5.744   6.380  0.2952  1.1030  1.2296
 7211SOL    MW428612   1.913   5.703   6.396  0.0197 -0.2233 -0.5381
 7212SOL     OW28613   4.085   6.149   5.686 -0.2000 -0.2056  0.5874
 7212SOL    HW228614   4.022   6.196   5.741 -2.1259 -1.4155 -0.4692
 7212SOL    HW328615   4.033   6.119   5.611  1.5718 -1.6399 -0.1320
 7212SOL    MW428616   4.070   6.151   5.683 -0.2204 -0.5545  0.3531
 7213SOL     OW28617   4.962   1.981   3.438  0.0809  0.0688 -0.8903
 7213SOL    HW228618   5.045   1.933   3.441 -0.3239 -0.6664 -1.1078
 7213SOL    HW328619   4.899   1.916   3.408 -0.4645  0.7811 -1.3119
 7213SOL    MW428620   4.965   1.966   3.434 -0.0444  0.0658 -0.9746
 7214SOL     OW28621   4.988   1.969  -0.011 -0.0489 -0.9803  0.6278
 7214SOL    HW228622   4.966   2.040  -0.072  0.4994 -0.5318  0.9406
 7214SOL    HW328623   4.967   2.004   0.076  0.4398 -1.1081  0.8023
 7214SOL    MW428624   4.982   1.983  -0.008  0.0879 -0.9380  0.6921
 7215SOL     OW28625   4.851   5.905   0.584 -0.7892  0.2387 -0.0758
 7215SOL    HW228626   4.785   5.974   0.579 -1.5151 -0.2574  1.8575
 7215SOL    HW328627   4.928   5.949   0.622 -0.3275  0.5535 -1.3037
 7215SOL    MW428628   4.852   5.920   0.588 -0.8241  0.2147  0.0172
 7216SOL     OW28629   0.006   1.041   1.418  0.5781  0.0257  0.1976
 7216SOL    HW228630  -0.069   1.098   1.434 -0.9111 -2.1226  1.3391
 7216SOL    HW328631  -0.003   1.014   1.327 -0.2007 -0.3773  0.3803
 7216SOL    MW428632  -0.005   1.045   1.408  0.2789 -0.3109  0.3723
 7217SOL     OW28633   3.810   5.235   0.876 -0.4679 -0.3827  0.0054
 7217SOL    HW228634   3.865   5.270   0.946 -1.4359 -0.7959  0.9977
 7217SOL    HW328635   3.722   5.236   0.912 -1.1228  0.1814 -1.5261
 7217SOL    MW428636   3.806   5.240   0.890 -0.6820 -0.3628 -0.0658
 7218SOL     OW28637   6.001   2.072   3.704 -0.3325 -0.3810  0.0010
 7218SOL    HW228638   6.001   2.137   3.634 -0.2938 -0.6861 -0.2883
 7218SOL    HW328639   5.990   1.988   3.658 -0.2998 -0.5834  0.3597
 7218SOL    MW428640   5.999   2.069   3.688 -0.3231 -0.4480  0.0102
 7219SOL     OW28641   5.976   3.063   3.142 -0.0401 -0.3678 -0.7010
 7219SOL    HW228642   6.036   3.068   3.068  0.0732  0.4274 -0.5654
 7219SOL    HW328643   5.907   3.004   3.113  0.4395 -0.7307 -1.1218
 7219SOL    MW428644   5.975   3.056   3.128  0.0382 -0.3108 -0.7387
 7220SOL     OW28645   1.503   4.719   5.762  0.3751  0.4229  0.1494
 7220SOL    HW228646   1.466   4.631   5.754 -1.1385  1.1250 -1.2834
 7220SOL    HW328647   1.487   4.742   5.854 -1.5707  0.1410 -0.0679
 7220SOL    MW428648   1.496   4.710   5.773 -0.0813  0.4783 -0.0683
 7221SOL     OW28649   1.249   0.744   2.033  0.0212  0.6911 -0.2256
 7221SOL    HW228650   1.276   0.835   2.049  0.4374  0.6151 -0.4756
 7221SOL    HW328651   1.308   0.714   1.963  0.7169 -0.1679  0.7035
 7221SOL    MW428652   1.261   0.752   2.026  0.1679  0.5677 -0.1360
 7222SOL     OW28653   2.902   3.713   5.910 -0.3639 -0.0237 -0.2291
 7222SOL    HW228654   2.808   3.724   5.900 -0.3085  0.6191 -0.0564
 7222SOL    HW328655   2.935   3.800   5.931  0.2436 -0.2821 -0.0812
 7222SOL    MW428656   2.894   3.726   5.911 -0.2764  0.0270 -0.1868
 7223SOL     OW28657   0.453   3.706   3.568 -0.1841 -0.3028 -0.7091
 7223SOL    HW228658   0.477   3.736   3.480 -1.2974  1.3898 -0.4785
 7223SOL    HW328659   0.524   3.738   3.624 -0.3398  0.1029 -0.7465
 7223SOL    MW428660   0.466   3.714   3.564 -0.3515 -0.0260 -0.6836
 7224SOL     OW28661   2.704   4.642   2.365 -0.0574 -0.5867  0.2507
 7224SOL    HW228662   2.628   4.692   2.394  0.2767  0.0605  0.0245
 7224SOL    HW328663   2.704   4.651   2.269  0.8988  0.2991  0.3199
 7224SOL    MW428664   2.694   4.650   2.356  0.1129 -0.3844  0.2300
 7225SOL     OW28665   1.428   0.912   2.840  0.1968 -0.4242 -0.2236
 7225SOL    HW228666   1.491   0.973   2.879 -1.2193  0.7545  0.2900
 7225SOL    HW328667   1.470   0.883   2.759  1.2977  0.5008 -0.0130
 7225SOL    MW428668   1.442   0.916   2.835  0.1552 -0.1467 -0.1281
 7226SOL     OW28669   2.253   0.756   1.762  0.0289 -0.2066  0.6047
 7226SOL    HW228670   2.286   0.807   1.687 -1.7763  1.1999  0.7015
 7226SOL    HW328671   2.322   0.691   1.778  2.0340  1.5959 -0.1322
 7226SOL    MW428672   2.267   0.754   1.754  0.0553  0.2168  0.5203
 7227SOL     OW28673   5.944   5.463   3.949 -0.7532 -0.2790  0.2111
 7227SOL    HW228674   5.936   5.401   3.877 -1.2982  1.0705 -0.9473
 7227SOL    HW328675   5.885   5.430   4.016  0.0636 -1.7791  0.2321
 7227SOL    MW428676   5.935   5.451   3.948 -0.7174 -0.2989  0.0610
 7228SOL     OW28677   3.721   5.116   4.389 -0.3507  0.3718 -0.3358
 7228SOL    HW228678   3.722   5.075   4.303 -2.1640 -0.8017  0.1494
 7228SOL    HW328679   3.720   5.210   4.372  2.5700  0.2864 -1.4986
 7228SOL    MW428680   3.721   5.123   4.376 -0.2046  0.2057 -0.4252
 7229SOL     OW28681   0.290   5.401   3.774 -0.0535 -0.2678 -0.0823
 7229SOL    HW228682   0.316   5.493   3.763 -0.2753 -0.2028 -0.0606
 7229SOL    HW328683   0.199   5.398   3.744  0.4366 -0.8054 -1.6542
 7229SOL    MW428684   0.282   5.413   3.768 -0.0181 -0.3302 -0.2868
 7230SOL     OW28685   2.031   2.028   2.113 -0.2109  0.0726  0.2101
 7230SOL    HW228686   2.003   2.028   2.204  1.5294  2.1764  0.8159
 7230SOL    HW328687   2.043   1.935   2.092 -1.6709 -0.5240  1.7410
 7230SOL    MW428688   2.028   2.015   2.122 -0.1739  0.2715  0.4920
 7231SOL     OW28689   0.057   3.111   4.874  0.4235 -0.5643 -0.6478
 7231SOL    HW228690   0.028   3.202   4.885 -0.0544 -0.7196 -0.6147
 7231SOL    HW328691   0.130   3.117   4.813  0.7282 -0.1011 -0.2403
 7231SOL    MW428692   0.063   3.124   4.867  0.4007 -0.5237 -0.5897
 7232SOL     OW28693   3.623   1.899   2.856 -0.1393  0.1900  0.0030
 7232SOL    HW228694   3.657   1.968   2.799 -0.5765  1.5091  1.2931
 7232SOL    HW328695   3.568   1.846   2.798  0.6115  0.5917 -1.1227
 7232SOL    MW428696   3.620   1.901   2.841 -0.0979  0.4170  0.0247
 7233SOL     OW28697   2.524   6.347   2.801  0.0269  0.0377 -0.2485
 7233SOL    HW228698   2.564   6.385   2.879  0.2069 -0.6855  0.0206
 7233SOL    HW328699   2.570   6.264   2.788 -1.0107 -0.5630 -0.2400
 7233SOL    MW428700   2.535   6.341   2.810 -0.0862 -0.1370 -0.2119
 7234SOL     OW28701   2.722   5.478   0.811 -0.3239 -0.0037 -0.0926
 7234SOL    HW228702   2.799   5.454   0.863 -1.3840 -1.8229  0.7412
 7234SOL    HW328703   2.747   5.457   0.721  0.1520 -0.6201  0.1736
 7234SOL    MW428704   2.735   5.472   0.806 -0.4010 -0.3250  0.0525
 7235SOL     OW28705   1.175   4.003   0.368  0.2281 -0.0580 -0.4472
 7235SOL    HW228706   1.094   4.041   0.402 -0.7979 -0.7237 -1.9743
 7235SOL    HW328707   1.153   3.978   0.278  2.3667  0.4023 -1.1598
 7235SOL    MW428708   1.161   4.005   0.360  0.3749 -0.0851 -0.7427
 7236SOL     OW28709   4.556   1.850   3.506  0.4713 -0.2675 -0.4917
 7236SOL    HW228710   4.580   1.924   3.561 -1.7422  1.3319 -1.4920
 7236SOL    HW328711   4.635   1.796   3.502  2.5165  2.4881 -0.4294
 7236SOL    MW428712   4.570   1.853   3.513  0.4491  0.3071 -0.6155
 7237SOL     OW28713   2.750   5.901   0.158  0.0388 -0.0498 -0.6829
 7237SOL    HW228714   2.767   5.838   0.089  0.5051 -1.0921  0.3580
 7237SOL    HW328715   2.748   5.850   0.238  2.8200  1.5242  0.5233
 7237SOL    MW428716   2.752   5.886   0.159  0.4673  0.0204 -0.3865
 7238SOL     OW28717   4.534   4.648   4.213  0.2754  0.3366  0.1848
 7238SOL    HW228718   4.524   4.628   4.307 -1.5911 -0.8308 -0.2122
 7238SOL    HW328719   4.452   4.690   4.188  0.2158 -0.5298 -1.1876
 7238SOL    MW428720   4.522   4.651   4.222  0.0213  0.0682 -0.0487
 7239SOL     OW28721   1.896   2.566   5.852  0.2626  0.3010  0.0646
 7239SOL    HW228722   1.958   2.639   5.849 -1.5713  1.9212 -0.8707
 7239SOL    HW328723   1.896   2.531   5.763  1.2112 -0.9593  0.5364
 7239SOL    MW428724   1.904   2.571   5.840  0.1458  0.3485  0.0034
 7240SOL     OW28725   5.458   0.641   4.916  0.1279  0.1991  0.2740
 7240SOL    HW228726   5.501   0.681   4.841 -0.7579  0.7521  0.0476
 7240SOL    HW328727   5.430   0.715   4.970 -2.1011 -0.0334 -0.4686
 7240SOL    MW428728   5.460   0.656   4.914 -0.2831  0.2414  0.1461
 7241SOL     OW28729   0.822   5.693   0.562 -0.2462 -0.0513 -0.4321
 7241SOL    HW228730   0.834   5.787   0.575 -0.2699 -0.3241  2.1864
 7241SOL    HW328731   0.900   5.664   0.516  1.0884  0.8635  1.1584
 7241SOL    MW428732   0.834   5.702   0.558 -0.0732  0.0334  0.1232
 7242SOL     OW28733   2.170   3.323   2.188  0.0231 -0.5396 -0.4286
 7242SOL    HW228734   2.244   3.341   2.129 -0.4324  0.1976 -0.7881
 7242SOL    HW328735   2.150   3.231   2.174  0.7473 -0.6960 -0.4734
 7242SOL    MW428736   2.177   3.313   2.178  0.0585 -0.4629 -0.4820
 7243SOL     OW28737   6.361   5.831   5.414  0.0877 -0.5354 -0.6024
 7243SOL    HW228738   6.278   5.841   5.461 -0.1061 -2.3503 -0.4857
 7243SOL    HW328739   6.428   5.831   5.483 -0.0356 -1.3273 -0.4690
 7243SOL    MW428740   6.359   5.832   5.429  0.0459 -0.8793 -0.5694
 7244SOL     OW28741   1.758   3.611   5.885  0.3744 -0.4002 -0.9983
 7244SOL    HW228742   1.849   3.581   5.880  0.3448 -0.4892 -0.9922
 7244SOL    HW328743   1.706   3.531   5.884  0.3688 -0.4917  1.2709
 7244SOL    MW428744   1.763   3.596   5.884  0.3697 -0.4240 -0.6981
 7245SOL     OW28745   1.327   0.446   6.122 -0.0662  0.1158 -0.2024
 7245SOL    HW228746   1.293   0.390   6.052  0.5383  0.0976 -0.4923
 7245SOL    HW328747   1.250   0.485   6.162 -0.5752 -1.6024  0.5818
 7245SOL    MW428748   1.312   0.444   6.118 -0.0536 -0.1133 -0.1372
 7246SOL     OW28749   0.852   0.084   2.528  0.2314  0.4829  0.1897
 7246SOL    HW228750   0.819   0.139   2.457 -1.3405  1.3155  1.5013
 7246SOL    HW328751   0.855  -0.004   2.491  1.6415  1.2194 -1.5786
 7246SOL    MW428752   0.848   0.080   2.514  0.2100  0.6899  0.1295
 7247SOL     OW28753   0.201   5.677   3.050  0.2360 -0.4858  0.1733
 7247SOL    HW228754   0.211   5.710   2.961 -1.0012  1.6196  0.7248
 7247SOL    HW328755   0.252   5.737   3.104 -2.3038  0.8649  1.2610
 7247SOL    MW428756   0.209   5.689   3.045 -0.2624 -0.0299  0.3896
 7248SOL     OW28757   1.345   0.040   0.541  0.2066 -0.1860  0.0874
 7248SOL    HW228758   1.419  -0.019   0.527 -0.0225  0.0103 -2.4515
 7248SOL    HW328759   1.347   0.099   0.466 -2.2211  0.1317  0.1937
 7248SOL    MW428760   1.355   0.040   0.529 -0.1439 -0.1182 -0.2335
 7249SOL     OW28761   4.289   4.779   4.183 -0.6650  0.2109 -0.4234
 7249SOL    HW228762   4.241   4.721   4.123 -1.4646  1.7368 -1.2984
 7249SOL    HW328763   4.293   4.863   4.138 -0.1117  1.0477  1.1091
 7249SOL    MW428764   4.283   4.782   4.169 -0.6975  0.5226 -0.3366
 7250SOL     OW28765   6.382   2.326   4.141  0.0448 -0.1754  0.0865
 7250SOL    HW228766   6.370   2.236   4.109 -0.4579  0.2527 -0.9662
 7250SOL    HW328767   6.406   2.315   4.234 -1.2351 -1.3486  0.3073
 7250SOL    MW428768   6.384   2.313   4.149 -0.1904 -0.2737 -0.0233
 7251SOL     OW28769   4.333   6.306   0.905  0.2174  0.1042 -0.2262
 7251SOL    HW228770   4.336   6.294   1.000  1.6460 -1.1737 -0.3908
 7251SOL    HW328771   4.406   6.365   0.887  0.1276  0.1127 -0.5557
 7251SOL    MW428772   4.343   6.312   0.915  0.3940 -0.0633 -0.2914
 7252SOL     OW28773   0.632   1.169   5.732 -0.4130 -1.3396 -0.3383
 7252SOL    HW228774   0.547   1.148   5.771 -0.6000  0.8256  0.5703
 7252SOL    HW328775   0.613   1.183   5.639 -0.8281 -1.9267 -0.3493
 7252SOL    MW428776   0.618   1.168   5.725 -0.4924 -1.1314 -0.2198
 7253SOL     OW28777   3.916   4.600   1.724  0.1425 -0.3434  0.5973
 7253SOL    HW228778   3.861   4.675   1.747  0.6657  0.2191  0.0368
 7253SOL    HW328779   3.992   4.638   1.681  0.8349 -1.1398  1.0983
 7253SOL    MW428780   3.919   4.615   1.721  0.3029 -0.3742  0.5895
 7254SOL     OW28781   1.695   1.359   3.071  0.4828  0.2531 -0.0727
 7254SOL    HW228782   1.759   1.424   3.043 -0.8339  1.0070 -1.5024
 7254SOL    HW328783   1.622   1.369   3.010 -0.2946 -1.7365  0.4314
 7254SOL    MW428784   1.694   1.369   3.059  0.2065  0.0901 -0.1948
 7255SOL     OW28785   4.553   4.559   2.845 -0.5045 -0.4504  0.0818
 7255SOL    HW228786   4.501   4.524   2.773  1.2791  1.0602 -2.0937
 7255SOL    HW328787   4.551   4.654   2.831  1.2865 -0.2399  0.9870
 7255SOL    MW428788   4.546   4.567   2.834 -0.0329 -0.2233 -0.0858
 7256SOL     OW28789   5.850   2.982   1.454 -0.4185 -0.7125 -0.1879
 7256SOL    HW228790   5.765   2.959   1.492  0.5092 -2.8671  0.7647
 7256SOL    HW328791   5.901   3.015   1.528 -0.3221  0.2775 -0.6895
 7256SOL    MW428792   5.845   2.983   1.469 -0.2834 -0.8662 -0.1284
 7257SOL     OW28793   0.916   6.304   5.744 -0.5691  0.6702 -0.7491
 7257SOL    HW228794   0.855   6.238   5.774 -0.0532  0.0561 -1.0218
 7257SOL    HW328795   0.986   6.303   5.810 -0.5041  0.8655 -0.8152
 7257SOL    MW428796   0.918   6.295   5.757 -0.4925  0.6149 -0.7938
 7258SOL     OW28797   5.443   2.389   4.068 -0.3016  0.6860  0.0771
 7258SOL    HW228798   5.537   2.407   4.060 -0.2762  0.7727  0.5396
 7258SOL    HW328799   5.407   2.466   4.112 -0.7944  1.1778 -1.1525
 7258SOL    MW428800   5.451   2.401   4.073 -0.3633  0.7623 -0.0241
 7259SOL     OW28801   3.294   3.002   1.773  0.9754  0.1736  0.6209
 7259SOL    HW228802   3.203   3.023   1.795  0.2744  0.3161 -2.0957
 7259SOL    HW328803   3.328   3.082   1.732  0.6138 -1.3592 -3.0518
 7259SOL    MW428804   3.287   3.016   1.771  0.8352 -0.0098 -0.2221
 7260SOL     OW28805   2.059   4.106   1.918 -0.1521  0.2159 -0.0402
 7260SOL    HW228806   2.029   4.073   1.833 -0.2871  0.1165  0.0444
 7260SOL    HW328807   2.023   4.195   1.923  0.4606  0.4895 -0.3961
 7260SOL    MW428808   2.050   4.113   1.908 -0.0891  0.2389 -0.0760
 7261SOL     OW28809   0.605   2.574   1.588 -0.1464  0.6241 -0.5127
 7261SOL    HW228810   0.571   2.495   1.547 -1.7582  1.0976 -0.1469
 7261SOL    HW328811   0.699   2.571   1.572  0.3602 -2.8871  1.9757
 7261SOL    MW428812   0.613   2.564   1.581 -0.2922  0.2233 -0.1361
 7262SOL     OW28813   2.364   5.175   2.062 -0.5778 -0.1534 -0.2010
 7262SOL    HW228814   2.407   5.090   2.059  0.1012 -0.0102  2.5625
 7262SOL    HW328815   2.423   5.234   2.016  0.3753 -0.6596  0.3521
 7262SOL    MW428816   2.377   5.172   2.056 -0.3625 -0.2013  0.2366
 7263SOL     OW28817   3.265   3.970   5.109  0.5371 -0.0081 -0.3938
 7263SOL    HW228818   3.202   3.901   5.086  0.1401  0.3263 -0.3266
 7263SOL    HW328819   3.248   3.987   5.202 -0.5358  1.3539 -0.8106
 7263SOL    MW428820   3.255   3.963   5.118  0.3431  0.2157 -0.4399
 7264SOL     OW28821   3.637   1.583   3.207 -0.1763 -0.0389 -0.3618
 7264SOL    HW228822   3.698   1.642   3.251 -0.4956 -0.0196  0.0555
 7264SOL    HW328823   3.654   1.596   3.114  1.0699 -0.6703 -0.2442
 7264SOL    MW428824   3.647   1.592   3.200 -0.0540 -0.1197 -0.2912
 7265SOL     OW28825   2.023   5.955   0.971 -0.4284  0.5543 -0.1055
 7265SOL    HW228826   2.054   5.865   0.982  0.4134  1.0514  2.0349
 7265SOL    HW328827   2.088   5.995   0.914  0.7771  0.5213  1.1939
 7265SOL    MW428828   2.036   5.948   0.965 -0.1583  0.6156  0.3484
 7266SOL     OW28829   6.148   6.264   2.388 -0.2537 -0.2352  0.3589
 7266SOL    HW228830   6.097   6.274   2.307 -0.2611 -1.8002  0.1299
 7266SOL    HW328831   6.137   6.347   2.434 -0.7543  0.4650 -0.9589
 7266SOL    MW428832   6.140   6.276   2.383 -0.3208 -0.3493  0.1548
 7267SOL     OW28833   2.905   3.288   1.132  0.7270  0.3325 -0.3436
 7267SOL    HW228834   2.828   3.344   1.137  0.9355  0.7733 -1.6933
 7267SOL    HW328835   2.876   3.213   1.080  1.1994  0.4893 -0.8366
 7267SOL    MW428836   2.891   3.285   1.126  0.8168  0.4114 -0.5867
 7268SOL     OW28837   4.138   2.141   6.086  0.0648  0.5143 -0.0705
 7268SOL    HW228838   4.145   2.089   6.165 -0.1743  0.6803  0.0623
 7268SOL    HW328839   4.138   2.078   6.014 -0.2824  0.3266  0.0917
 7268SOL    MW428840   4.139   2.126   6.087 -0.0126  0.5115 -0.0316
 7269SOL     OW28841   3.763   4.447   3.990  0.1050  0.1335 -0.2161
 7269SOL    HW228842   3.728   4.364   4.022 -1.1291  0.1195 -1.5045
 7269SOL    HW328843   3.721   4.513   4.044  0.6341 -0.0418  0.4193
 7269SOL    MW428844   3.753   4.445   4.001  0.0119  0.1085 -0.3023
 7270SOL     OW28845   2.811   1.343   4.216 -0.0998  0.2640  0.4517
 7270SOL    HW228846   2.839   1.308   4.301  0.5117  0.8380  0.4953
 7270SOL    HW328847   2.852   1.285   4.152  1.3298  1.1668  0.5128
 7270SOL    MW428848   2.820   1.331   4.219  0.1695  0.4588  0.4655
 7271SOL     OW28849   5.773   1.102   2.968 -0.4937  0.4737 -0.6451
 7271SOL    HW228850   5.834   1.114   3.041 -2.0582 -1.0405  1.0137
 7271SOL    HW328851   5.811   1.031   2.917 -1.7955 -2.0790  1.6437
 7271SOL    MW428852   5.786   1.094   2.971 -0.8719 -0.0629 -0.1243
 7272SOL     OW28853   5.017   1.469   6.377 -0.0463  0.0456 -0.0705
 7272SOL    HW228854   5.049   1.558   6.388 -1.4304  0.6859 -0.9234
 7272SOL    HW328855   4.941   1.478   6.320 -0.9959 -1.5298  0.8723
 7272SOL    MW428856   5.011   1.482   6.371 -0.3542 -0.0778 -0.0587
 7273SOL     OW28857   6.029   2.948   3.926  0.0671 -0.2399  0.6772
 7273SOL    HW228858   5.997   2.896   3.853 -1.8354 -1.9526  2.5827
 7273SOL    HW328859   6.101   2.897   3.963  3.7711  2.4778 -2.1620
 7273SOL    MW428860   6.034   2.935   3.921  0.3048 -0.1073  0.5540
 7274SOL     OW28861   2.335   5.529   5.559 -0.3985 -0.4346 -0.3364
 7274SOL    HW228862   2.346   5.436   5.540 -0.4069 -0.2975 -1.0331
 7274SOL    HW328863   2.369   5.574   5.482  3.2099  0.2947  1.4673
 7274SOL    MW428864   2.341   5.523   5.546  0.0765 -0.3203 -0.1903
 7275SOL     OW28865   1.065   0.315   5.678 -0.2708 -0.1850  0.7450
 7275SOL    HW228866   0.971   0.312   5.696 -0.1577  0.0744  1.4192
 7275SOL    HW328867   1.085   0.408   5.672 -0.3614 -0.2423 -1.1645
 7275SOL    MW428868   1.055   0.327   5.679 -0.2678 -0.1583  0.5820
 7276SOL     OW28869   1.478   0.156   3.863 -0.2703 -0.3776  0.3065
 7276SOL    HW228870   1.540   0.102   3.911 -0.9145 -2.9074 -1.5132
 7276SOL    HW328871   1.407   0.173   3.926 -0.1098 -1.8031  0.9020
 7276SOL    MW428872   1.477   0.151   3.878 -0.3341 -0.8995  0.1450
 7277SOL     OW28873   2.400   1.897   5.237 -0.1547 -0.5145  0.3359
 7277SOL    HW228874   2.315   1.915   5.276 -0.2042 -0.9914  0.4557
 7277SOL    HW328875   2.432   1.982   5.208 -0.1620 -0.1664  1.3223
 7277SOL    MW428876   2.393   1.910   5.238 -0.1622 -0.5315  0.4818
 7278SOL     OW28877   3.389   3.495   0.884  0.1477 -0.1783  0.0779
 7278SOL    HW228878   3.336   3.505   0.963  0.0179  0.4845 -0.0842
 7278SOL    HW328879   3.472   3.538   0.904  1.1602 -2.3514  0.7940
 7278SOL    MW428880   3.393   3.502   0.897  0.2641 -0.3776  0.1510
 7279SOL     OW28881   3.873   4.417   2.482 -0.2327 -0.0570 -0.0703
 7279SOL    HW228882   3.846   4.346   2.540 -0.0006 -1.4238 -1.5541
 7279SOL    HW328883   3.916   4.372   2.409  2.9730  1.7817  0.5144
 7279SOL    MW428884   3.875   4.401   2.480  0.2209  0.0052 -0.1889
 7280SOL     OW28885   2.708   3.044   1.458 -0.0710  0.3176  0.2891
 7280SOL    HW228886   2.678   3.077   1.543 -0.1440 -0.6881  0.6759
 7280SOL    HW328887   2.743   2.957   1.478  0.8353  0.4734 -0.5561
 7280SOL    MW428888   2.709   3.036   1.472  0.0389  0.2054  0.2286
 7281SOL     OW28889   3.901   1.373   1.791 -0.2609 -0.3521  0.0822
 7281SOL    HW228890   3.958   1.449   1.804 -1.0614  0.1166  0.9844
 7281SOL    HW328891   3.920   1.315   1.865 -3.6396  1.5733  2.7887
 7281SOL    MW428892   3.911   1.376   1.803 -0.8123 -0.0363  0.5583
 7282SOL     OW28893   2.780   0.493   6.181  0.0619 -0.3427 -0.1663
 7282SOL    HW228894   2.754   0.404   6.208  1.0821 -0.2853  1.0853
 7282SOL    HW328895   2.751   0.549   6.253  1.1897  0.0758 -0.0278
 7282SOL    MW428896   2.773   0.489   6.194  0.3453 -0.2799  0.0171
 7283SOL     OW28897   0.371   5.504   1.065  0.2071 -0.1285  0.1879
 7283SOL    HW228898   0.452   5.522   1.112  0.3143 -0.5043  0.1440
 7283SOL    HW328899   0.333   5.429   1.110  0.6929 -0.9866 -0.8052
 7283SOL    MW428900   0.376   5.497   1.077  0.2853 -0.2913  0.0511
 7284SOL     OW28901   5.176   6.051   4.207 -0.1757  0.4730  0.0617
 7284SOL    HW228902   5.249   6.074   4.264 -0.9919  1.7385  0.6416
 7284SOL    HW328903   5.143   5.968   4.243  0.6077  0.1904  0.1419
 7284SOL    MW428904   5.181   6.043   4.219 -0.1800  0.6027  0.1488
 7285SOL     OW28905   5.389   0.725   5.473 -0.3429  0.2679 -0.2323
 7285SOL    HW228906   5.446   0.652   5.448  0.6185  1.2371 -0.9704
 7285SOL    HW328907   5.333   0.739   5.396 -0.4904  0.3449 -0.1120
 7285SOL    MW428908   5.389   0.717   5.460 -0.2355  0.4059 -0.3138
 7286SOL     OW28909   0.135   5.556   5.726 -0.2526 -0.4775 -0.0772
 7286SOL    HW228910   0.224   5.560   5.763 -0.4454  1.1017  0.2961
 7286SOL    HW328911   0.135   5.477   5.672  0.8461 -1.4566  1.2704
 7286SOL    MW428912   0.147   5.546   5.724 -0.1331 -0.3983  0.1499
 7287SOL     OW28913   2.656   3.203   4.125 -0.1899 -0.0361 -0.0735
 7287SOL    HW228914   2.657   3.254   4.044  2.6617 -0.1980 -0.2311
 7287SOL    HW328915   2.696   3.261   4.190 -1.1988 -0.4104  0.9145
 7287SOL    MW428916   2.662   3.217   4.123  0.0533 -0.1069  0.0361
 7288SOL     OW28917   4.775   2.136   4.342 -0.2119 -0.3172 -0.0946
 7288SOL    HW228918   4.820   2.099   4.418 -0.2350  0.3120  0.2284
 7288SOL    HW328919   4.837   2.199   4.305 -0.3847 -0.2743 -0.3170
 7288SOL    MW428920   4.789   2.139   4.347 -0.2377 -0.2286 -0.0814
 7289SOL     OW28921   1.779   4.488   0.310  0.0873 -0.1269  0.0637
 7289SOL    HW228922   1.769   4.575   0.271 -0.4967 -0.7271 -1.2047
 7289SOL    HW328923   1.872   4.481   0.330  0.2976  0.4675 -0.6485
 7289SOL    MW428924   1.790   4.498   0.308  0.0380 -0.1277 -0.1976
 7290SOL     OW28925   4.351   1.445   4.301 -0.1707 -0.2177  0.3122
 7290SOL    HW228926   4.343   1.539   4.315 -0.0639 -0.4231  1.9210
 7290SOL    HW328927   4.262   1.412   4.313 -0.0942 -0.3947  0.3881
 7290SOL    MW428928   4.338   1.453   4.304 -0.1465 -0.2682  0.5345
 7291SOL     OW28929   5.619   3.776   4.885 -0.1100 -0.0805 -0.1329
 7291SOL    HW228930   5.548   3.816   4.935  1.0149  2.7565 -0.6303
 7291SOL    HW328931   5.683   3.750   4.950  0.6598  2.1991  0.1297
 7291SOL    MW428932   5.618   3.778   4.900  0.1400  0.5945 -0.1639
 7292SOL     OW28933   0.483   2.805   3.265  0.5693  0.0103 -0.2204
 7292SOL    HW228934   0.537   2.792   3.343  0.4140 -0.3971 -0.1812
 7292SOL    HW328935   0.393   2.795   3.296  0.4654  0.6806 -0.2878
 7292SOL    MW428936   0.478   2.802   3.279  0.5351  0.0450 -0.2241
 7293SOL     OW28937   1.817   3.965   2.565  0.1075 -0.5025  0.2416
 7293SOL    HW228938   1.829   3.871   2.573 -0.7017 -0.4976  1.8760
 7293SOL    HW328939   1.887   4.003   2.619 -0.4588 -0.2225  0.7978
 7293SOL    MW428940   1.828   3.958   2.573 -0.0740 -0.4649  0.5306
 7294SOL     OW28941   0.892   0.468   2.562  0.2144  0.0014 -1.2359
 7294SOL    HW228942   0.937   0.427   2.488 -0.3660  1.2664 -2.3326
 7294SOL    HW328943   0.956   0.529   2.599  0.6376 -0.9058 -0.4084
 7294SOL    MW428944   0.906   0.470   2.557  0.1936  0.0486 -1.2714
 7295SOL     OW28945   1.393   5.288   0.996  0.0333 -0.6175 -0.1934
 7295SOL    HW228946   1.319   5.321   1.047 -0.7678 -1.6394 -0.6595
 7295SOL    HW328947   1.360   5.209   0.954  0.7536  0.0361 -2.0831
 7295SOL    MW428948   1.379   5.282   0.997  0.0226 -0.6661 -0.5042
 7296SOL     OW28949   0.965   5.449   2.431  0.1487 -0.1313 -0.2797
 7296SOL    HW228950   1.000   5.530   2.393 -0.5019 -0.1053 -0.8274
 7296SOL    HW328951   0.888   5.477   2.480  0.3006 -0.3343  0.0785
 7296SOL    MW428952   0.960   5.464   2.433  0.0829 -0.1546 -0.3047
 7297SOL     OW28953   0.479   1.968   5.051 -0.3731  0.0724 -0.6575
 7297SOL    HW228954   0.437   1.890   5.087  0.7021 -0.4939 -0.5759
 7297SOL    HW328955   0.464   2.036   5.117  1.4918 -0.9207  0.9003
 7297SOL    MW428956   0.472   1.967   5.065  0.0148 -0.1333 -0.4412
 7298SOL     OW28957   0.063   6.430   1.763 -0.4675  0.2064 -0.7234
 7298SOL    HW228958   0.074   6.335   1.760  0.9719  0.2574  1.1560
 7298SOL    HW328959   0.119   6.463   1.692 -1.0375 -0.3171 -1.4369
 7298SOL    MW428960   0.072   6.422   1.753 -0.3528  0.1440 -0.5695
 7299SOL     OW28961   4.715   5.226   3.126  0.1755  0.2252 -0.2832
 7299SOL    HW228962   4.810   5.234   3.125  0.1195  1.2272  0.7873
 7299SOL    HW328963   4.689   5.259   3.212 -1.2494  1.3956 -1.1247
 7299SOL    MW428964   4.724   5.231   3.137 -0.0199  0.5118 -0.2530
 7300SOL     OW28965   1.730   6.072   1.161  0.1110 -0.1970 -0.2795
 7300SOL    HW228966   1.709   5.979   1.146 -0.5184  0.2340 -2.5171
 7300SOL    HW328967   1.654   6.106   1.208  0.6689 -0.9457  1.2180
 7300SOL    MW428968   1.717   6.064   1.165  0.1016 -0.2389 -0.3772
 7301SOL     OW28969   4.811   0.419   3.031  0.7585 -0.2383 -0.4456
 7301SOL    HW228970   4.799   0.514   3.023  0.7521 -0.2857 -1.1196
 7301SOL    HW328971   4.876   0.409   3.100  0.6338  0.2517 -0.2525
 7301SOL    MW428972   4.818   0.430   3.039  0.7412 -0.1799 -0.5091
 7302SOL     OW28973   1.396   0.923   0.181 -0.3470 -0.3075  0.0208
 7302SOL    HW228974   1.390   0.863   0.107  0.6253 -1.1834  0.6245
 7302SOL    HW328975   1.489   0.922   0.205 -0.4553  0.8078  0.5733
 7302SOL    MW428976   1.408   0.915   0.174 -0.2330 -0.2759  0.1734
 7303SOL     OW28977   1.486   2.443   2.070  0.4460 -0.1665 -0.3573
 7303SOL    HW228978   1.555   2.381   2.092  0.1896 -0.7309 -1.1198
 7303SOL    HW328979   1.438   2.456   2.153  1.3070  0.0579  0.1206
 7303SOL    MW428980   1.489   2.437   2.084  0.5258 -0.2113 -0.3949
 7304SOL     OW28981   5.051   5.928   5.639 -0.2986  0.0913 -0.6997
 7304SOL    HW228982   5.146   5.936   5.633 -0.3049  1.7512  0.8036
 7304SOL    HW328983   5.037   5.875   5.717 -0.6085  1.0056 -0.1218
 7304SOL    MW428984   5.062   5.922   5.648 -0.3403  0.4309 -0.4251
 7305SOL     OW28985   3.739   6.113   0.067  0.3341 -0.0126 -0.5109
 7305SOL    HW228986   3.697   6.171   0.131  0.8788  1.6717 -1.6055
 7305SOL    HW328987   3.684   6.035   0.066 -0.5983  0.5802  0.8245
 7305SOL    MW428988   3.726   6.111   0.075  0.2829  0.2878 -0.4791
 7306SOL     OW28989   1.880   4.824   2.007  0.0127  0.6058  0.1235
 7306SOL    HW228990   1.866   4.731   2.027  0.7955  0.3798 -0.3245
 7306SOL    HW328991   1.832   4.839   1.926 -0.9863  0.8629  0.7531
 7306SOL    MW428992   1.872   4.814   1.999 -0.0158  0.6099  0.1475
 7307SOL     OW28993   4.492   6.167   5.173 -0.2229  0.2648 -0.1017
 7307SOL    HW228994   4.578   6.209   5.179 -0.8789  1.6345  0.0121
 7307SOL    HW328995   4.500   6.090   5.229  0.8379  0.5457  0.1597
 7307SOL    MW428996   4.505   6.162   5.181 -0.1695  0.4826 -0.0522
 7308SOL     OW28997   1.305   6.436   3.612 -0.7856  0.5696  0.1223
 7308SOL    HW228998   1.372   6.504   3.608 -2.0157  1.7600 -0.5671
 7308SOL    HW328999   1.332   6.372   3.545 -1.2039  1.8709 -1.3405
 7308SOL    MW429000   1.318   6.436   3.603 -1.0031  0.8984 -0.1617
 7309SOL     OW29001   1.701   4.891   6.048 -0.3902  0.2831 -0.0580
 7309SOL    HW229002   1.637   4.890   6.119 -0.3076  0.0036  0.0160
 7309SOL    HW329003   1.747   4.974   6.057  0.4063 -0.2430  0.9286
 7309SOL    MW429004   1.699   4.902   6.058 -0.2742  0.1768  0.0819
 7310SOL     OW29005   3.764   6.408   5.395 -0.0414  0.8416 -0.2375
 7310SOL    HW229006   3.833   6.454   5.347  1.1714 -1.7311 -1.1209
 7310SOL    HW329007   3.774   6.316   5.371 -1.4300 -0.1604  2.5107
 7310SOL    MW429008   3.774   6.402   5.385 -0.0646  0.3700  0.0085
 7311SOL     OW29009   4.510   4.824   5.517  0.0021  0.7346  0.0879
 7311SOL    HW229010   4.595   4.796   5.482 -1.0557 -0.0167 -2.0195
 7311SOL    HW329011   4.498   4.912   5.481 -0.1351  0.8138  0.3309
 7311SOL    MW429012   4.520   4.832   5.508 -0.1555  0.6459 -0.1581
 7312SOL     OW29013   5.792   0.889   5.438 -0.0554  0.3996  0.5479
 7312SOL    HW229014   5.839   0.886   5.355 -2.4361 -1.3897 -0.8695
 7312SOL    HW329015   5.828   0.965   5.484  0.9974  1.7547 -2.3167
 7312SOL    MW429016   5.803   0.898   5.433 -0.2306  0.3423 -0.0171
 7313SOL     OW29017   5.187   0.003   5.526 -0.1593  0.4417 -0.0153
 7313SOL    HW229018   5.225   0.087   5.553 -1.2839  0.9104  0.1436
 7313SOL    HW329019   5.155   0.018   5.438  1.1655 -0.3441 -0.6666
 7313SOL    MW429020   5.188   0.016   5.518 -0.1329  0.3999 -0.0803
 7314SOL     OW29021   2.123   3.475   1.354 -0.2065 -0.1137  0.3519
 7314SOL    HW229022   2.161   3.560   1.379  3.4525 -1.7537  1.0347
 7314SOL    HW329023   2.135   3.471   1.259 -1.3173  0.4875  0.1696
 7314SOL    MW429024   2.130   3.486   1.345  0.1297 -0.2508  0.4179
 7315SOL     OW29025   5.983   3.368   0.513 -0.2119  0.2901  0.4009
 7315SOL    HW229026   6.029   3.415   0.444  0.4004  2.9959  2.4839
 7315SOL    HW329027   6.000   3.419   0.592 -0.7903 -2.6721  2.6199
 7315SOL    MW429028   5.991   3.381   0.515 -0.2074  0.2563  0.9685
 7316SOL     OW29029   1.183   6.274   5.054 -0.0869  0.0143 -0.2273
 7316SOL    HW229030   1.233   6.212   5.002  0.6183  0.5704 -0.2245
 7316SOL    HW329031   1.099   6.230   5.070  1.3968 -2.2215  2.2725
 7316SOL    MW429032   1.178   6.260   5.050  0.2019 -0.2073  0.1029
 7317SOL     OW29033   4.555   3.018   2.264 -0.0062 -0.1829 -0.2722
 7317SOL    HW229034   4.503   2.997   2.186 -0.0179 -0.1197 -0.2813
 7317SOL    HW329035   4.532   2.950   2.327 -0.5836  0.2102 -0.0468
 7317SOL    MW429036   4.545   3.006   2.262 -0.0839 -0.1227 -0.2437
 7318SOL     OW29037   3.699   3.939   2.400  0.3385 -0.7085  0.5423
 7318SOL    HW229038   3.774   3.960   2.345  1.2019 -1.5062  1.3748
 7318SOL    HW329039   3.712   3.847   2.425 -0.7416 -0.7619  0.9709
 7318SOL    MW429040   3.711   3.930   2.396  0.3099 -0.8208  0.7087
 7319SOL     OW29041   4.119   5.518   4.671 -0.4945 -0.1519 -0.6141
 7319SOL    HW229042   4.170   5.438   4.662 -0.0572  0.0811 -0.2693
 7319SOL    HW329043   4.151   5.575   4.601 -1.8944 -0.8211 -1.8748
 7319SOL    MW429044   4.130   5.515   4.661 -0.6215 -0.2095 -0.7349
 7320SOL     OW29045   0.649   6.415   2.700  0.0820  0.6200 -0.3840
 7320SOL    HW229046   0.626   6.469   2.776 -0.1789  0.6987 -0.5163
 7320SOL    HW329047   0.710   6.470   2.650  0.9398  0.2306  0.2023
 7320SOL    MW429048   0.654   6.429   2.704  0.1607  0.5790 -0.3241
 7321SOL     OW29049   1.680   5.298   4.408 -0.2806 -0.2955 -0.4126
 7321SOL    HW229050   1.691   5.321   4.501  1.3344  0.2156 -0.7160
 7321SOL    HW329051   1.699   5.204   4.404  0.3195 -0.1777 -0.3336
 7321SOL    MW429052   1.684   5.289   4.420  0.0116 -0.2125 -0.4422
 7322SOL     OW29053   0.570   3.046   0.176 -0.0397 -0.7291  0.4979
 7322SOL    HW229054   0.536   3.109   0.113  0.8131 -1.8479 -1.1652
 7322SOL    HW329055   0.626   3.097   0.235 -0.1766  0.2105 -0.1768
 7322SOL    MW429056   0.573   3.061   0.176  0.0547 -0.7527  0.1895
 7323SOL     OW29057   0.001   1.445   2.258  0.5606 -0.0172 -0.0792
 7323SOL    HW229058  -0.041   1.422   2.175  0.5937  0.9536 -0.3702
 7323SOL    HW329059   0.063   1.373   2.273 -0.9644 -1.3320  0.2239
 7323SOL    MW429060   0.004   1.432   2.249  0.3637 -0.0626 -0.0776
 7324SOL     OW29061   2.648   0.269   2.640 -0.1283  0.3385 -0.2027
 7324SOL    HW229062   2.631   0.177   2.620  0.2222  0.0529  0.7351
 7324SOL    HW329063   2.741   0.272   2.660  0.3133  1.2981 -2.2061
 7324SOL    MW429064   2.658   0.257   2.640 -0.0238  0.4275 -0.3433
 7325SOL     OW29065   0.965   5.241   2.634  0.5855 -0.4520  0.5846
 7325SOL    HW229066   1.011   5.277   2.710  2.2906 -0.6421 -0.3039
 7325SOL    HW329067   0.974   5.309   2.566  1.5379 -1.4351 -0.2953
 7325SOL    MW429068   0.972   5.255   2.635  0.9361 -0.6068  0.3513
 7326SOL     OW29069   4.132   3.699   2.057  0.1873 -0.2485 -0.2543
 7326SOL    HW229070   4.099   3.707   1.968 -0.7931  0.9763  0.1955
 7326SOL    HW329071   4.228   3.700   2.048  0.0963  0.3311 -1.2460
 7326SOL    MW429072   4.141   3.700   2.044  0.0460 -0.0104 -0.3258
 7327SOL     OW29073   4.706   4.941   3.964  0.3551 -0.3625  0.1964
 7327SOL    HW229074   4.794   4.979   3.958 -0.7975  2.4438 -0.3628
 7327SOL    HW329075   4.686   4.944   4.058  1.0451 -1.6585  0.4199
 7327SOL    MW429076   4.715   4.946   3.976  0.2941 -0.1632  0.1521
 7328SOL     OW29077   2.712   5.935   0.860  0.5995 -0.5857  0.4207
 7328SOL    HW229078   2.762   6.015   0.876  0.9964 -0.1525 -2.3361
 7328SOL    HW329079   2.705   5.931   0.764 -2.5373 -1.9524  0.5956
 7328SOL    MW429080   2.718   5.945   0.849  0.2380 -0.7089  0.0801
 7329SOL     OW29081   4.375   4.253   0.109 -0.5937 -0.0352  0.0034
 7329SOL    HW229082   4.292   4.216   0.140 -0.6334  0.1584  0.1322
 7329SOL    HW329083   4.373   4.238   0.014 -0.5943 -0.3856  0.0597
 7329SOL    MW429084   4.364   4.246   0.100 -0.5990 -0.0559  0.0278
 7330SOL     OW29085   6.053   2.920   0.758  0.0022  0.4796 -0.5003
 7330SOL    HW229086   5.959   2.925   0.779  0.0397 -0.2543 -0.1314
 7330SOL    HW329087   6.097   2.949   0.838  0.0995  0.1716 -0.4411
 7330SOL    MW429088   6.046   2.924   0.772  0.0200  0.3422 -0.4438
 7331SOL     OW29089   4.428   2.804   2.714 -0.2816 -0.2178 -0.5316
 7331SOL    HW229090   4.474   2.866   2.771 -1.5796 -0.7930  1.2656
 7331SOL    HW329091   4.478   2.804   2.633  1.5633  0.8182  0.5218
 7331SOL    MW429092   4.440   2.812   2.711 -0.2094 -0.1570 -0.1555
 7332SOL     OW29093   2.192   2.122   6.165 -0.0684 -0.0290 -0.3213
 7332SOL    HW229094   2.243   2.080   6.234 -0.1114 -0.0633 -0.3098
 7332SOL    HW329095   2.130   2.177   6.212 -0.0105  0.0491 -0.3367
 7332SOL    MW429096   2.190   2.123   6.181 -0.0665 -0.0232 -0.3218
 7333SOL     OW29097   5.698   2.952   5.499  0.0934  0.6461 -0.5150
 7333SOL    HW229098   5.654   2.920   5.578  0.2657  2.0046  0.1496
 7333SOL    HW329099   5.666   2.894   5.430 -1.8983  0.8817  0.1370
 7333SOL    MW429100   5.688   2.940   5.500 -0.1467  0.8564 -0.3413
 7334SOL     OW29101   5.616   2.891   1.585  0.0421 -0.6597  0.3251
 7334SOL    HW229102   5.632   2.859   1.673 -0.6844 -1.5112  0.1616
 7334SOL    HW329103   5.538   2.946   1.593  0.6972  0.2932  0.4199
 7334SOL    MW429104   5.608   2.894   1.597  0.0327 -0.6463  0.3161
 7335SOL     OW29105   5.254   6.125   4.941  0.7287 -0.1148  0.1499
 7335SOL    HW229106   5.205   6.079   4.873  1.1862 -0.2157 -0.1126
 7335SOL    HW329107   5.190   6.139   5.010 -0.1561  1.3838 -0.9283
 7335SOL    MW429108   5.239   6.120   4.941  0.6723  0.0696 -0.0270
 7336SOL     OW29109   0.174   4.457   3.214 -0.1626  0.8422 -0.3063
 7336SOL    HW229110   0.113   4.386   3.195  1.3093 -1.1547  1.8642
 7336SOL    HW329111   0.238   4.453   3.142  0.0326 -0.2298 -0.0944
 7336SOL    MW429112   0.175   4.447   3.202  0.0574  0.4373  0.0080
 7337SOL     OW29113   2.780   5.415   1.801 -0.5134 -0.2474 -0.2178
 7337SOL    HW229114   2.831   5.389   1.725  1.6671 -1.7594  1.6062
 7337SOL    HW329115   2.821   5.496   1.831 -1.2366  0.2373 -0.5158
 7337SOL    MW429116   2.792   5.422   1.795 -0.3211 -0.3830 -0.0164
 7338SOL     OW29117   2.269   6.407   5.376 -0.0154  0.3401  0.3788
 7338SOL    HW229118   2.261   6.332   5.318  2.2706  0.6744 -0.4731
 7338SOL    HW329119   2.186   6.453   5.368 -0.9427 -1.3489 -0.1239
 7338SOL    MW429120   2.257   6.404   5.368  0.1639  0.1613  0.2001
 7339SOL     OW29121   1.758   3.120   5.801 -0.0055  0.6918  0.3635
 7339SOL    HW229122   1.704   3.043   5.780 -0.2267  0.4682  1.6469
 7339SOL    HW329123   1.718   3.156   5.880 -0.4267  2.6652 -0.7034
 7339SOL    MW429124   1.745   3.114   5.809 -0.0903  0.9226  0.3920
 7340SOL     OW29125   6.219   6.154   0.866  0.4623 -0.1896  0.1369
 7340SOL    HW229126   6.189   6.228   0.920 -0.3512 -0.2916 -0.1607
 7340SOL    HW329127   6.283   6.193   0.806  0.4941  0.1567  0.3919
 7340SOL    MW429128   6.223   6.169   0.865  0.3591 -0.1573  0.1313
 7341SOL     OW29129   1.880   2.276   1.558  0.0437 -0.2609 -0.4732
 7341SOL    HW229130   1.924   2.356   1.587  1.0826 -1.2275  0.7255
 7341SOL    HW329131   1.792   2.305   1.533  0.5799  1.3378 -0.6250
 7341SOL    MW429132   1.874   2.290   1.558  0.2515 -0.1775 -0.3351
 7342SOL     OW29133   5.626   1.635   1.680  0.1751  0.0962  0.1523
 7342SOL    HW229134   5.702   1.670   1.634 -0.2678  0.1009 -0.5922
 7342SOL    HW329135   5.650   1.639   1.773 -0.0475  2.9189  0.1788
 7342SOL    MW429136   5.639   1.640   1.686  0.0873  0.4692  0.0576
 7343SOL     OW29137   3.623   3.355   4.868  0.5512 -0.4035 -0.1630
 7343SOL    HW229138   3.640   3.364   4.962  1.4707 -0.3927 -0.3157
 7343SOL    HW329139   3.607   3.445   4.839  2.4811 -0.0761 -0.3876
 7343SOL    MW429140   3.623   3.368   4.877  0.9271 -0.3589 -0.2128
 7344SOL     OW29141   5.499   4.041   4.501  0.1099 -0.1927  0.4804
 7344SOL    HW229142   5.595   4.048   4.499  0.0699  0.1704 -0.7457
 7344SOL    HW329143   5.478   3.975   4.435 -0.5345  0.3565  0.1234
 7344SOL    MW429144   5.509   4.033   4.492  0.0196 -0.0723  0.2715
 7345SOL     OW29145   2.041   5.246   0.206 -0.1851 -0.2752 -0.4702
 7345SOL    HW229146   2.004   5.171   0.253  1.3301 -0.1693  0.9997
 7345SOL    HW329147   2.019   5.322   0.259  1.0674 -0.0903 -0.1691
 7345SOL    MW429148   2.033   5.246   0.219  0.1801 -0.2368 -0.2366
 7346SOL     OW29149   1.221   1.198   1.182 -0.0365 -0.4720  0.2492
 7346SOL    HW229150   1.156   1.251   1.136 -0.3595 -1.3159 -0.2938
 7346SOL    HW329151   1.279   1.166   1.112  0.8748  0.1409  0.7063
 7346SOL    MW429152   1.220   1.201   1.166  0.0411 -0.5025  0.2379
 7347SOL     OW29153   5.810   4.333   0.295 -0.0214  0.3163 -0.0941
 7347SOL    HW229154   5.717   4.345   0.273 -0.0459  0.8658  0.2749
 7347SOL    HW329155   5.854   4.407   0.253  0.0114  1.0263  1.1432
 7347SOL    MW429156   5.803   4.344   0.287 -0.0203  0.4824  0.1178
 7348SOL     OW29157   3.608   2.894   4.777 -0.0711 -0.2362 -0.2784
 7348SOL    HW229158   3.552   2.972   4.779 -0.1755 -0.3130  0.8773
 7348SOL    HW329159   3.565   2.835   4.716  0.1456  0.6935 -1.3784
 7348SOL    MW429160   3.595   2.897   4.769 -0.0563 -0.1236 -0.2711
 7349SOL     OW29161   1.496   5.046   1.291  0.1235  0.4223  0.3893
 7349SOL    HW229162   1.411   5.004   1.278 -0.3046  2.1464 -4.3615
 7349SOL    HW329163   1.475   5.127   1.339 -0.8431  0.4802 -0.1056
 7349SOL    MW429164   1.482   5.051   1.295 -0.0605  0.6574 -0.3028
 7350SOL     OW29165   0.079   3.134   4.121  0.1835  0.4373  0.4411
 7350SOL    HW229166   0.039   3.199   4.062  0.8891  0.7543  0.2981
 7350SOL    HW329167   0.140   3.086   4.065  0.2834  0.2192  0.7381
 7350SOL    MW429168   0.082   3.136   4.106  0.2898  0.4504  0.4614
 7351SOL     OW29169   3.616   5.935   1.529  0.1191  0.2545  0.0316
 7351SOL    HW229170   3.522   5.955   1.526 -0.3092 -1.3507  1.4479
 7351SOL    HW329171   3.629   5.894   1.614  1.6678 -1.6520 -1.0501
 7351SOL    MW429172   3.605   5.932   1.540  0.2670 -0.2088  0.0758
 7352SOL     OW29173   1.341   1.340   5.713  0.0784  0.3207  0.3894
 7352SOL    HW229174   1.340   1.305   5.802  2.0905  2.2295  1.2349
 7352SOL    HW329175   1.327   1.434   5.723 -0.3278  0.4958 -1.3968
 7352SOL    MW429176   1.339   1.348   5.726  0.2903  0.5957  0.2653
 7353SOL     OW29177   5.888   1.865   3.149 -0.1447 -0.6566 -0.5521
 7353SOL    HW229178   5.897   1.928   3.221 -0.3424 -0.5112 -0.6522
 7353SOL    HW329179   5.947   1.897   3.081  0.6658 -1.2542 -0.1394
 7353SOL    MW429180   5.897   1.877   3.150 -0.0639 -0.7162 -0.5108
 7354SOL     OW29181   3.603   3.575   1.331 -0.2629 -1.0100 -0.2523
 7354SOL    HW229182   3.677   3.577   1.270 -0.2215 -2.0487 -0.2604
 7354SOL    HW329183   3.525   3.578   1.275 -0.2376 -0.0434 -0.2498
 7354SOL    MW429184   3.603   3.576   1.316 -0.2541 -1.0195 -0.2530
 7355SOL     OW29185   3.611   3.833   3.457  0.5358 -0.0911 -0.3831
 7355SOL    HW229186   3.662   3.858   3.380  2.5140  0.1116  0.9321
 7355SOL    HW329187   3.656   3.757   3.493 -0.3325 -0.1641  0.6045
 7355SOL    MW429188   3.624   3.826   3.452  0.6823 -0.0740 -0.0793
 7356SOL     OW29189   5.350   5.638   0.428  0.5779  0.0608  0.2625
 7356SOL    HW229190   5.407   5.650   0.504  2.0361  1.3990 -0.9700
 7356SOL    HW329191   5.410   5.638   0.353 -0.9274  0.0631 -0.9880
 7356SOL    MW429192   5.366   5.640   0.428  0.5717  0.2376 -0.0651
 7357SOL     OW29193   2.574   4.503   1.614  0.1657 -0.5078  0.2265
 7357SOL    HW229194   2.559   4.416   1.651 -0.6800 -1.4363 -2.1783
 7357SOL    HW329195   2.639   4.542   1.673 -1.7874 -1.4531  3.2574
 7357SOL    MW429196   2.581   4.497   1.627 -0.2035 -0.7550  0.3091
 7358SOL     OW29197   5.090   3.521   0.249 -0.2409 -0.7101  0.1473
 7358SOL    HW229198   5.108   3.447   0.190  0.1271 -0.6919  0.2295
 7358SOL    HW329199   5.036   3.581   0.197  0.4512 -0.4865 -0.3352
 7358SOL    MW429200   5.086   3.519   0.234 -0.1010 -0.6782  0.0945
 7359SOL     OW29201   6.392   1.707   5.948  0.7239  0.1558 -0.0485
 7359SOL    HW229202   6.312   1.742   5.907  1.1721 -0.4329 -1.4590
 7359SOL    HW329203   6.400   1.618   5.913  2.8249  0.7269 -1.1401
 7359SOL    MW429204   6.382   1.700   5.938  1.0603  0.1535 -0.3786
 7360SOL     OW29205   0.605   4.495   5.142  0.0262  0.1813  0.5930
 7360SOL    HW229206   0.521   4.481   5.097 -0.3678  0.3427  1.2593
 7360SOL    HW329207   0.626   4.410   5.180  1.5748 -0.6278 -1.8501
 7360SOL    MW429208   0.596   4.482   5.141  0.1785  0.0958  0.3586
 7361SOL     OW29209   5.972   0.738   2.399  0.1735  0.2572 -0.0506
 7361SOL    HW229210   5.997   0.691   2.479  1.0219  0.8803  0.0634
 7361SOL    HW329211   5.945   0.669   2.338 -1.8878 -0.1432  1.2223
 7361SOL    MW429212   5.971   0.723   2.402  0.0135  0.2866  0.1324
 7362SOL     OW29213   5.713   2.294   4.418 -0.3261 -0.2174  0.6168
 7362SOL    HW229214   5.773   2.348   4.470 -1.2718  2.1800 -0.6450
 7362SOL    HW329215   5.638   2.350   4.401 -0.5967 -1.2529 -2.2942
 7362SOL    MW429216   5.711   2.308   4.422 -0.4866 -0.0377  0.0662
 7363SOL     OW29217   4.364   5.537   0.621  0.3461 -0.6723  0.0361
 7363SOL    HW229218   4.332   5.603   0.559  0.5877 -0.6765 -0.0957
 7363SOL    HW329219   4.344   5.574   0.707  0.7291 -0.2970 -0.0313
 7363SOL    MW429220   4.357   5.551   0.624  0.4285 -0.6234  0.0098
 7364SOL     OW29221   1.521   4.901   4.824  0.5778  0.8600 -0.0975
 7364SOL    HW229222   1.614   4.880   4.816  1.1348  2.8054  0.6582
 7364SOL    HW329223   1.481   4.864   4.746  1.6140 -1.7667  0.5084
 7364SOL    MW429224   1.528   4.894   4.813  0.7880  0.7701  0.0822
 7365SOL     OW29225   2.572   4.731   4.147 -0.0756 -0.1210  0.2206
 7365SOL    HW229226   2.643   4.706   4.088  1.0301  1.1848  0.9446
 7365SOL    HW329227   2.605   4.808   4.193 -1.0166 -0.9137  2.3301
 7365SOL    MW429228   2.586   4.738   4.145 -0.0538 -0.0533  0.5944
 7366SOL     OW29229   3.295   4.444   4.153  0.7406 -0.1220 -0.5451
 7366SOL    HW229230   3.277   4.506   4.224  0.0958  0.7881 -1.4881
 7366SOL    HW329231   3.282   4.494   4.073  1.8960 -1.0250 -1.3236
 7366SOL    MW429232   3.291   4.458   4.152  0.8080 -0.1210 -0.7722
 7367SOL     OW29233   1.736   1.264   2.088 -0.4520  0.4148  0.0269
 7367SOL    HW229234   1.830   1.270   2.067  0.2731  0.4388  2.8327
 7367SOL    HW329235   1.715   1.349   2.126 -0.6266 -0.7109  2.6488
 7367SOL    MW429236   1.746   1.276   2.090 -0.3793  0.2695  0.7430
 7368SOL     OW29237   3.546   2.109   6.013  0.1011  0.1555  0.2693
 7368SOL    HW229238   3.613   2.054   5.972  1.2217  0.8990  1.0212
 7368SOL    HW329239   3.535   2.072   6.100  0.1150  0.5085  0.4236
 7368SOL    MW429240   3.554   2.097   6.019  0.2508  0.3002  0.3889
 7369SOL     OW29241   4.147   6.296   2.751  0.0221  0.4202 -0.4335
 7369SOL    HW229242   4.100   6.259   2.825 -0.1457  0.3477 -0.5746
 7369SOL    HW329243   4.211   6.355   2.790  0.2308  0.0540 -0.2091
 7369SOL    MW429244   4.149   6.299   2.766  0.0275  0.3623 -0.4225
 7370SOL     OW29245   0.254   3.379   1.387 -0.3167 -0.5674 -0.3469
 7370SOL    HW229246   0.227   3.351   1.299  0.6197  1.1610 -1.2556
 7370SOL    HW329247   0.340   3.419   1.373  0.6876 -1.9115  1.6926
 7370SOL    MW429248   0.262   3.381   1.373 -0.0607 -0.5167 -0.1977
 7371SOL     OW29249   4.114   4.322   1.433 -0.1411  0.4581  0.5180
 7371SOL    HW229250   4.055   4.248   1.449  0.2341  0.4223  1.8305
 7371SOL    HW329251   4.146   4.347   1.519 -0.3313  2.2351  0.1266
 7371SOL    MW429252   4.111   4.316   1.446 -0.1167  0.6878  0.6395
 7372SOL     OW29253   1.164   3.036   4.805 -0.2314 -0.2596 -0.2276
 7372SOL    HW229254   1.096   3.098   4.831 -2.0210 -2.2403  0.0766
 7372SOL    HW329255   1.161   3.036   4.709  0.8071  1.1237 -0.3024
 7372SOL    MW429256   1.154   3.044   4.796 -0.3305 -0.3384 -0.1973
 7373SOL     OW29257   6.327   5.341   5.503 -0.4624 -0.0226  0.3465
 7373SOL    HW229258   6.277   5.401   5.558  0.5006  1.2555 -0.0986
 7373SOL    HW329259   6.285   5.256   5.513 -1.2198  0.5135  1.8420
 7373SOL    MW429260   6.315   5.338   5.511 -0.4353  0.2167  0.4851
 7374SOL     OW29261   5.027   4.652   6.074 -0.4710 -0.4476 -0.0221
 7374SOL    HW229262   4.996   4.627   5.987 -0.5315 -2.1682  0.4546
 7374SOL    HW329263   4.986   4.589   6.133  0.3027  0.1101  1.1485
 7374SOL    MW429264   5.017   4.641   6.070 -0.3769 -0.6010  0.1952
 7375SOL     OW29265   5.641   0.310   2.309  0.2918 -0.3340 -0.3236
 7375SOL    HW229266   5.673   0.248   2.373  1.7754  1.2604  0.5586
 7375SOL    HW329267   5.678   0.280   2.226 -0.6987 -1.7485 -0.2925
 7375SOL    MW429268   5.650   0.298   2.306  0.3569 -0.3103 -0.2031
 7376SOL     OW29269   2.634   5.986   2.465  0.5575 -0.4534 -0.1708
 7376SOL    HW229270   2.632   6.038   2.545 -0.6899  0.4091 -0.7189
 7376SOL    HW329271   2.711   6.020   2.417  0.3705  0.1631 -0.0482
 7376SOL    MW429272   2.644   5.998   2.469  0.3682 -0.2583 -0.2270
 7377SOL     OW29273   3.568   0.690   0.004  0.2717  0.0696  0.0049
 7377SOL    HW229274   3.570   0.610  -0.049 -0.3282 -0.3987  0.6749
 7377SOL    HW329275   3.563   0.761  -0.061 -0.3765 -0.4883 -0.5716
 7377SOL    MW429276   3.568   0.689  -0.012  0.1070 -0.0658  0.0173
 7378SOL     OW29277   0.233   1.952   6.226 -0.3626  0.3193  0.1207
 7378SOL    HW229278   0.154   1.963   6.278 -0.2789  0.9477  0.1187
 7378SOL    HW329279   0.201   1.921   6.141 -0.4171 -1.8277  0.8642
 7378SOL    MW429280   0.219   1.949   6.221 -0.3587  0.1189  0.2185
 7379SOL     OW29281   0.213   2.944   6.392 -0.2244 -0.4440  0.0044
 7379SOL    HW229282   0.133   2.949   6.339  0.4427 -0.8131 -1.0480
 7379SOL    HW329283   0.281   2.984   6.338  0.3960 -0.5065  0.7263
 7379SOL    MW429284   0.211   2.950   6.378 -0.0545 -0.5009 -0.0392
 7380SOL     OW29285   6.024   4.199   4.493  1.1134  0.2420 -0.2216
 7380SOL    HW229286   6.047   4.137   4.562  2.3112 -0.3608 -1.0968
 7380SOL    HW329287   5.993   4.276   4.538 -1.5653 -1.3771  0.9028
 7380SOL    MW429288   6.023   4.201   4.508  0.9180 -0.0512 -0.1888
 7381SOL     OW29289   3.439   4.035   1.471  0.2463 -0.1791 -0.4825
 7381SOL    HW229290   3.461   4.126   1.453  0.2594 -0.1533 -0.3418
 7381SOL    HW329291   3.432   4.031   1.567  0.9667 -0.4905 -0.4387
 7381SOL    MW429292   3.441   4.046   1.482  0.3431 -0.2168 -0.4582
 7382SOL     OW29293   2.836   5.677   2.994 -0.0547 -0.1197 -0.1081
 7382SOL    HW229294   2.853   5.584   2.987 -1.5815 -0.6302  1.9498
 7382SOL    HW329295   2.743   5.683   3.018  0.2599  1.8451  0.8327
 7382SOL    MW429296   2.826   5.666   2.996 -0.2146  0.0722  0.2876
 7383SOL     OW29297   2.595   1.747   2.864 -0.3727 -0.4348  0.2384
 7383SOL    HW229298   2.601   1.731   2.958  1.6672 -2.0581 -0.0980
 7383SOL    HW329299   2.510   1.710   2.839 -1.7262  1.4921  1.6078
 7383SOL    MW429300   2.584   1.740   2.873 -0.2821 -0.3948  0.3747
 7384SOL     OW29301   4.485   3.460   1.937 -0.5643 -0.0241  0.2446
 7384SOL    HW229302   4.579   3.465   1.923 -0.5664  1.9573  0.7376
 7384SOL    HW329303   4.448   3.525   1.877 -1.8264 -2.1262 -1.4108
 7384SOL    MW429304   4.492   3.469   1.927 -0.7311 -0.0400  0.0913
 7385SOL     OW29305   2.957   0.082   0.528 -1.6230 -0.1966 -0.3673
 7385SOL    HW229306   2.931  -0.008   0.547  0.0405 -0.1380  3.0410
 7385SOL    HW329307   2.928   0.132   0.604 -1.3323  1.9283 -1.5588
 7385SOL    MW429308   2.950   0.077   0.541 -1.3651  0.0915 -0.0748
 7386SOL     OW29309   5.407   2.079   4.463  0.6463 -0.4855 -0.2326
 7386SOL    HW229310   5.374   1.989   4.473  1.4539 -0.8735 -1.0048
 7386SOL    HW329311   5.395   2.099   4.371  0.5869  0.1618 -0.0853
 7386SOL    MW429312   5.401   2.070   4.452  0.7450 -0.4513 -0.3150
 7387SOL     OW29313   1.721   3.385   5.281 -0.3134  0.0985  0.2919
 7387SOL    HW229314   1.770   3.305   5.304 -0.5940  0.1958  1.2832
 7387SOL    HW329315   1.767   3.455   5.326 -0.4734  0.4058 -0.0187
 7387SOL    MW429316   1.734   3.383   5.290 -0.3715  0.1519  0.3817
 7388SOL     OW29317   2.729   6.154   3.223  0.8031 -0.1037 -0.1853
 7388SOL    HW229318   2.704   6.151   3.315  2.3981  0.1946  0.2716
 7388SOL    HW329319   2.800   6.090   3.215 -0.1945 -1.1181 -1.5102
 7388SOL    MW429320   2.735   6.145   3.234  0.8819 -0.1982 -0.2998
 7389SOL     OW29321   5.122   1.255   6.196 -0.4156  0.3419  0.6144
 7389SOL    HW229322   5.111   1.328   6.256 -0.3138  0.5554  0.3747
 7389SOL    HW329323   5.051   1.195   6.217 -0.0814  0.1821  1.2892
 7389SOL    MW429324   5.111   1.257   6.206 -0.3581  0.3490  0.6718
 7390SOL     OW29325   4.781   2.450   3.365  0.2703 -0.4791  0.4042
 7390SOL    HW229326   4.794   2.361   3.399  1.2723  0.2010  1.8743
 7390SOL    HW329327   4.697   2.445   3.319  1.3298 -2.7465 -1.5027
 7390SOL    MW429328   4.772   2.438   3.363  0.5423 -0.6886  0.3465
 7391SOL     OW29329   0.720   1.415   0.173  0.2232  0.0288  0.0619
 7391SOL    HW229330   0.640   1.370   0.146 -0.5649  0.5339  1.4682
 7391SOL    HW329331   0.699   1.508   0.166  0.9155  0.1769 -0.1544
 7391SOL    MW429332   0.707   1.421   0.168  0.2106  0.1150  0.2189
 7392SOL     OW29333   0.493   1.847   4.088 -0.3252  0.3631 -0.0223
 7392SOL    HW229334   0.556   1.914   4.114  0.6140  0.3864 -2.1829
 7392SOL    HW329335   0.426   1.849   4.157  1.2694  1.3400  1.5753
 7392SOL    MW429336   0.492   1.856   4.100  0.0091  0.4951 -0.0966
 7393SOL     OW29337   0.937   0.573   4.597  0.0825 -0.0332  0.1971
 7393SOL    HW229338   0.981   0.494   4.630  0.7691  0.5125  0.6086
 7393SOL    HW329339   0.911   0.550   4.508 -0.8563 -1.1602  0.7289
 7393SOL    MW429340   0.940   0.559   4.590  0.0493 -0.1099  0.3215
 7394SOL     OW29341   0.603   4.090   0.956  0.2417  0.0909  0.2223
 7394SOL    HW229342   0.654   4.076   0.876 -1.4402 -0.4512 -0.8084
 7394SOL    HW329343   0.669   4.108   1.024  1.7384  0.0641 -1.1640
 7394SOL    MW429344   0.619   4.091   0.955  0.2173  0.0158 -0.0966
 7395SOL     OW29345   5.293   5.111   2.847 -0.0151  0.5675 -0.1038
 7395SOL    HW229346   5.344   5.081   2.922 -0.0684  0.7514  0.0059
 7395SOL    HW329347   5.228   5.043   2.833  0.4036  0.2167 -0.3881
 7395SOL    MW429348   5.291   5.098   2.855  0.0331  0.5455 -0.1268
 7396SOL     OW29349   3.785   0.041   1.166  0.1274  0.7991 -0.2922
 7396SOL    HW229350   3.744  -0.045   1.156  0.3648  0.8784 -2.3172
 7396SOL    HW329351   3.725   0.101   1.121  0.6107  1.4846 -0.0290
 7396SOL    MW429352   3.772   0.037   1.159  0.2225  0.9000 -0.5246
 7397SOL     OW29353   5.984   5.225   0.909  0.6044  0.2737 -0.3880
 7397SOL    HW229354   5.906   5.247   0.959 -0.3135  1.2937 -2.1655
 7397SOL    HW329355   5.956   5.158   0.847  1.4912 -0.3406 -0.1520
 7397SOL    MW429356   5.970   5.219   0.907  0.6003  0.3272 -0.5914
 7398SOL     OW29357   2.893   0.994   0.035 -0.4110 -0.0808  0.2299
 7398SOL    HW229358   2.959   0.935   0.070 -0.2315  0.5503  0.9689
 7398SOL    HW329359   2.882   0.967  -0.056  0.4974 -0.5167  0.2478
 7398SOL    MW429360   2.900   0.983   0.027 -0.2675 -0.0550  0.3298
 7399SOL     OW29361   4.117   5.876   5.984 -0.5667  0.0417  0.5510
 7399SOL    HW229362   4.106   5.815   5.910  0.5273  0.3297  0.1374
 7399SOL    HW329363   4.172   5.828   6.046  0.2115  0.5574  0.2700
 7399SOL    MW429364   4.123   5.861   5.982 -0.3197  0.1477  0.4594
 7400SOL     OW29365   1.092   0.619   2.655 -0.5893  0.3648  0.1550
 7400SOL    HW229366   1.091   0.697   2.710  0.2085 -0.2836  1.1185
 7400SOL    HW329367   1.097   0.652   2.565 -1.5943  1.4354  0.4746
 7400SOL    MW429368   1.092   0.634   2.650 -0.6166  0.4205  0.3243
 7401SOL     OW29369   4.109   0.488   1.566 -0.6540  0.4154  0.0933
 7401SOL    HW229370   4.060   0.501   1.485 -0.0045  1.2527 -0.1884
 7401SOL    HW329371   4.052   0.436   1.621 -1.5420  0.7315 -0.5116
 7401SOL    MW429372   4.095   0.483   1.563 -0.6854  0.5675 -0.0237
 7402SOL     OW29373   4.418   3.681   2.149 -0.6742  0.1097 -0.0544
 7402SOL    HW229374   4.449   3.699   2.237  2.4819  0.9539 -1.2299
 7402SOL    HW329375   4.433   3.587   2.138  1.4986  0.4767 -0.5488
 7402SOL    MW429376   4.424   3.671   2.159  0.0289  0.2695 -0.2747
 7403SOL     OW29377   3.883   5.818   4.374 -0.1727 -0.1310  0.5029
 7403SOL    HW229378   3.898   5.910   4.354  0.2030  0.1723  2.0608
 7403SOL    HW329379   3.872   5.815   4.469 -1.4587 -1.5250  0.3587
 7403SOL    MW429380   3.883   5.829   4.384 -0.2928 -0.2749  0.6894
 7404SOL     OW29381   6.265   1.812   3.106 -0.3829 -0.2127 -0.2120
 7404SOL    HW229382   6.223   1.784   3.187 -1.7857  0.8599 -0.5348
 7404SOL    HW329383   6.297   1.731   3.066  0.7323 -0.7101  1.6058
 7404SOL    MW429384   6.264   1.798   3.111 -0.4208 -0.1368 -0.0147
 7405SOL     OW29385   2.436   1.988   1.382  0.3074  0.1512 -0.1364
 7405SOL    HW229386   2.393   2.065   1.345  1.9675  0.9022 -0.5603
 7405SOL    HW329387   2.416   1.917   1.320  0.0296  0.5743 -0.5372
 7405SOL    MW429388   2.427   1.989   1.369  0.4897  0.3061 -0.2452
 7406SOL     OW29389   5.097   2.453   5.449 -0.4009 -0.2611 -0.0328
 7406SOL    HW229390   5.096   2.548   5.461  1.4778 -0.3468  1.4178
 7406SOL    HW329391   5.034   2.420   5.513  0.1741 -0.0453  0.6633
 7406SOL    MW429392   5.089   2.461   5.459 -0.0771 -0.2439  0.2504
 7407SOL     OW29393   3.379   0.345   2.772  0.0911  0.0489 -0.2159
 7407SOL    HW229394   3.309   0.283   2.794  1.0731 -0.6311  1.1178
 7407SOL    HW329395   3.405   0.322   2.683 -1.7165  0.6636 -0.9516
 7407SOL    MW429396   3.373   0.333   2.763 -0.0178  0.0403 -0.1370
 7408SOL     OW29397   5.232   0.633   1.630  0.1830  0.2160  0.1824
 7408SOL    HW229398   5.180   0.586   1.696  1.9005  0.4588  1.8050
 7408SOL    HW329399   5.182   0.713   1.613 -0.3357  0.1317  1.1856
 7408SOL    MW429400   5.218   0.637   1.637  0.3411  0.2369  0.5288
 7409SOL     OW29401   3.051   4.170   0.843  0.6709 -0.0183  0.0537
 7409SOL    HW229402   3.001   4.178   0.762 -0.3342  0.0239  0.6618
 7409SOL    HW329403   3.142   4.171   0.815  0.3370 -0.1045 -1.0824
 7409SOL    MW429404   3.056   4.172   0.829  0.4942 -0.0241 -0.0160
 7410SOL     OW29405   3.305   5.202   4.862 -0.0639  0.1178  0.2207
 7410SOL    HW229406   3.249   5.195   4.939  1.5882  1.0979  1.5755
 7410SOL    HW329407   3.257   5.259   4.802 -1.3230 -0.5731  0.5329
 7410SOL    MW429408   3.291   5.208   4.864 -0.0121  0.1560  0.4407
 7411SOL     OW29409   2.173   1.073   1.450  0.1437 -0.2358  0.0700
 7411SOL    HW229410   2.108   1.095   1.517  1.6374  2.3032  0.7920
 7411SOL    HW329411   2.243   1.028   1.497  1.2579  1.6690  0.3500
 7411SOL    MW429412   2.173   1.070   1.465  0.4878  0.3505  0.2022
 7412SOL     OW29413   4.821   6.423   0.467  0.7582 -0.5682  0.2788
 7412SOL    HW229414   4.768   6.351   0.500  1.7844 -0.9136  1.2533
 7412SOL    HW329415   4.787   6.500   0.512  0.6417 -0.6778  0.3795
 7412SOL    MW429416   4.809   6.424   0.477  0.8782 -0.6282  0.4207
 7413SOL     OW29417   1.468   2.494   5.711  0.0957 -0.3464  0.5437
 7413SOL    HW229418   1.534   2.425   5.707 -1.1670 -1.5241 -1.0484
 7413SOL    HW329419   1.428   2.483   5.798  1.6679  0.1391  1.3700
 7413SOL    MW429420   1.471   2.483   5.722  0.1365 -0.4377  0.4426
 7414SOL     OW29421   0.612   3.322   3.930  0.5756 -1.0084  0.4368
 7414SOL    HW229422   0.632   3.370   4.010 -1.7780  1.3746 -0.2857
 7414SOL    HW329423   0.519   3.304   3.936  0.6441 -2.0382 -1.1640
 7414SOL    MW429424   0.603   3.326   3.942  0.2741 -0.8298  0.1302
 7415SOL     OW29425   1.665   5.601   5.972 -0.5393  0.8023  0.0586
 7415SOL    HW229426   1.633   5.690   5.961  1.8212  1.5259 -1.7857
 7415SOL    HW329427   1.697   5.575   5.886  1.2899 -0.7897  1.1237
 7415SOL    MW429428   1.665   5.609   5.959  0.0135  0.6878 -0.0442
 7416SOL     OW29429   4.317   5.214   6.202  0.0256  0.3535 -0.2993
 7416SOL    HW229430   4.240   5.198   6.256 -0.6865  0.2029 -1.3428
 7416SOL    HW329431   4.385   5.158   6.241 -0.7543 -0.5268 -0.1639
 7416SOL    MW429432   4.316   5.204   6.215 -0.1712  0.2175 -0.4191
 7417SOL     OW29433   2.328   4.614   1.519  0.6835 -0.1368  0.3204
 7417SOL    HW229434   2.402   4.578   1.566 -0.2605 -2.9817 -0.2155
 7417SOL    HW329435   2.291   4.541   1.470 -2.3192  1.1853  0.3220
 7417SOL    MW429436   2.333   4.600   1.519  0.1628 -0.3377  0.2499
 7418SOL     OW29437   2.772   3.711   2.048  0.1839  0.0533 -0.0992
 7418SOL    HW229438   2.749   3.618   2.046  0.8106 -0.1788  1.6928
 7418SOL    HW329439   2.867   3.713   2.032  0.4855  0.2126  1.5828
 7418SOL    MW429440   2.782   3.699   2.045  0.3064  0.0437  0.3592
 7419SOL     OW29441   3.314   2.447   4.373 -0.3372 -0.2503  0.1882
 7419SOL    HW229442   3.257   2.473   4.445 -0.5285 -2.9096  1.0777
 7419SOL    HW329443   3.402   2.447   4.410 -0.4545 -1.7800  0.4977
 7419SOL    MW429444   3.318   2.451   4.387 -0.3779 -0.8029  0.3464
 7420SOL     OW29445   5.421   2.416   4.769 -0.1908  0.0766 -0.2447
 7420SOL    HW229446   5.349   2.442   4.828 -0.3773  1.1700 -0.9404
 7420SOL    HW329447   5.499   2.422   4.823 -0.6625 -2.0542  0.8175
 7420SOL    MW429448   5.422   2.420   4.784 -0.2777 -0.0603 -0.1963
 7421SOL     OW29449   3.081   6.243   4.750 -0.1705 -0.7229 -0.8408
 7421SOL    HW229450   3.097   6.236   4.844 -0.2034 -0.8963 -0.8475
 7421SOL    HW329451   2.993   6.280   4.744  0.1383  0.0257 -0.8055
 7421SOL    MW429452   3.071   6.247   4.762 -0.1341 -0.6470 -0.8370
 7422SOL     OW29453   5.207   3.788   2.342  0.2089 -0.2560 -0.1676
 7422SOL    HW229454   5.151   3.843   2.288 -0.6998  0.4158  1.3898
 7422SOL    HW329455   5.282   3.842   2.362  0.2021 -0.2502 -0.1578
 7422SOL    MW429456   5.209   3.802   2.337  0.0881 -0.1666  0.0392
 7423SOL     OW29457   3.294   1.102   2.692 -0.2770 -0.0512 -0.1031
 7423SOL    HW229458   3.380   1.104   2.651  1.3472 -1.5449  2.9140
 7423SOL    HW329459   3.257   1.017   2.668  0.1084 -0.3691  0.4009
 7423SOL    MW429460   3.300   1.091   2.684 -0.0119 -0.2902  0.3614
 7424SOL     OW29461   3.865   4.125   3.574 -0.3402 -0.0234 -0.3419
 7424SOL    HW229462   3.875   4.036   3.606  0.1706 -0.1250 -0.7701
 7424SOL    HW329463   3.827   4.173   3.648 -0.3908 -0.5368 -0.0306
 7424SOL    MW429464   3.861   4.120   3.588 -0.2795 -0.1046 -0.3573
 7425SOL     OW29465   4.343   0.162   4.825 -0.4230 -0.2173  0.1109
 7425SOL    HW229466   4.318   0.242   4.870 -1.0998 -0.5189  0.2841
 7425SOL    HW329467   4.415   0.188   4.767 -1.2449  0.7104 -0.5242
 7425SOL    MW429468   4.350   0.176   4.823 -0.6207 -0.1347  0.0500
 7426SOL     OW29469   5.347   2.322   2.044 -0.3330 -0.7460  0.2746
 7426SOL    HW229470   5.409   2.356   1.980 -0.3032 -1.0112  0.1634
 7426SOL    HW329471   5.386   2.343   2.129 -0.4146 -0.3157  0.2106
 7426SOL    MW429472   5.360   2.329   2.047 -0.3398 -0.7242  0.2515
 7427SOL     OW29473   3.310   0.443   2.381  0.0150  0.1198 -0.5820
 7427SOL    HW229474   3.239   0.503   2.360  0.1702  0.6014  0.2109
 7427SOL    HW329475   3.267   0.358   2.393 -0.5674  0.5821  0.7754
 7427SOL    MW429476   3.295   0.440   2.380 -0.0414  0.2443 -0.2983
 7428SOL     OW29477   1.760   2.822   5.050  0.1176 -0.2373 -0.5197
 7428SOL    HW229478   1.767   2.869   4.966 -1.5624 -0.5086 -0.8681
 7428SOL    HW329479   1.734   2.733   5.025 -4.1709  0.5372  0.2507
 7428SOL    MW429480   1.757   2.817   5.035 -0.6699 -0.1709 -0.4640
 7429SOL     OW29481   5.685   3.960   0.476 -0.1336  0.0685  0.0437
 7429SOL    HW229482   5.758   3.994   0.424  0.9168 -1.1043  0.6921
 7429SOL    HW329483   5.691   4.006   0.559 -1.5003  1.5661 -0.6421
 7429SOL    MW429484   5.696   3.970   0.480 -0.1753  0.1113  0.0387
 7430SOL     OW29485   2.259   3.687   3.114  0.3910 -0.0548 -0.7982
 7430SOL    HW229486   2.242   3.686   3.019 -0.6150  2.1278 -0.7064
 7430SOL    HW329487   2.354   3.696   3.121  0.3924  0.7891 -1.6507
 7430SOL    MW429488   2.269   3.688   3.102  0.2585  0.3445 -0.8986
 7431SOL     OW29489   0.747   0.690   3.984  0.3123 -0.0835 -0.0441
 7431SOL    HW229490   0.812   0.629   3.947  0.6011  0.5387 -0.5689
 7431SOL    HW329491   0.668   0.674   3.933 -0.1289 -1.1953  0.9163
 7431SOL    MW429492   0.745   0.680   3.972  0.2922 -0.1481  0.0133
 7432SOL     OW29493   3.410   0.929   0.458  0.0042 -0.0445 -0.0975
 7432SOL    HW229494   3.450   0.858   0.409  0.8000 -0.4453  1.0892
 7432SOL    HW329495   3.341   0.888   0.509  0.5837 -0.0217  0.7300
 7432SOL    MW429496   3.406   0.914   0.459  0.1857 -0.0943  0.1683
 7433SOL     OW29497   5.345   2.559   0.487 -0.1887  0.0857  0.5360
 7433SOL    HW229498   5.398   2.524   0.416 -1.3184 -0.5813  0.0014
 7433SOL    HW329499   5.378   2.648   0.499 -1.3831  1.0193 -2.3049
 7433SOL    MW429500   5.357   2.566   0.479 -0.4954  0.1209  0.0906
 7434SOL     OW29501   2.853   4.027   4.784 -0.3088  0.2774  0.5185
 7434SOL    HW229502   2.837   3.938   4.815 -2.2477  0.8863  1.3799
 7434SOL    HW329503   2.859   4.080   4.863  0.9214  0.9284  0.0184
 7434SOL    MW429504   2.852   4.022   4.798 -0.4023  0.4436  0.5661
 7435SOL     OW29505   4.024   0.947   0.227 -0.0232  0.5162 -0.7383
 7435SOL    HW229506   4.071   0.963   0.309  0.8074 -0.4157 -1.0106
 7435SOL    HW329507   3.939   0.914   0.255 -0.0007  0.8573 -0.2506
 7435SOL    MW429508   4.019   0.945   0.242  0.0894  0.4383 -0.7099
 7436SOL     OW29509   4.395   3.783   6.335  0.1010  0.0103 -0.8652
 7436SOL    HW229510   4.380   3.718   6.403 -0.5957 -0.9688 -1.9133
 7436SOL    HW329511   4.456   3.845   6.374  1.3303 -1.6386 -0.0581
 7436SOL    MW429512   4.401   3.783   6.349  0.1712 -0.3364 -0.8970
 7437SOL     OW29513   3.211   5.597   3.334 -0.0634  0.0066 -0.1282
 7437SOL    HW229514   3.215   5.675   3.279 -0.3543  1.2517  1.5742
 7437SOL    HW329515   3.292   5.550   3.315  0.3399  0.9515 -0.8011
 7437SOL    MW429516   3.222   5.601   3.324 -0.0485  0.2955  0.0076
 7438SOL     OW29517   6.286   4.937   2.938  0.1845 -0.3457 -1.0009
 7438SOL    HW229518   6.256   5.027   2.942  0.3457 -0.3274 -0.0991
 7438SOL    HW329519   6.216   4.891   2.891  0.0743  0.2256 -1.4132
 7438SOL    MW429520   6.273   4.943   2.932  0.1912 -0.2679 -0.9363
 7439SOL     OW29521   1.357   3.298   0.220 -0.0874  0.3271 -0.1658
 7439SOL    HW229522   1.390   3.378   0.260 -0.9141  1.4853 -1.6808
 7439SOL    HW329523   1.343   3.322   0.128 -1.5916 -1.1793 -0.3675
 7439SOL    MW429524   1.360   3.312   0.213 -0.3949  0.2812 -0.3923
 7440SOL     OW29525   5.571   6.364   2.204 -0.7156  0.0830  0.2792
 7440SOL    HW229526   5.523   6.422   2.262  0.9900  0.6156  1.2333
 7440SOL    HW329527   5.559   6.402   2.117 -1.3806  0.6341  0.6032
 7440SOL    MW429528   5.563   6.377   2.200 -0.5783  0.2260  0.4479
 7441SOL     OW29529   0.592   6.010   1.722  0.3509  0.0434 -0.1390
 7441SOL    HW229530   0.650   5.964   1.661  0.4556  0.4248 -0.3324
 7441SOL    HW329531   0.599   6.102   1.697 -0.2992  0.1013 -0.1237
 7441SOL    MW429532   0.601   6.016   1.711  0.2790  0.1014 -0.1625
 7442SOL     OW29533   6.011   0.409   0.957  0.0799  0.2064 -0.0986
 7442SOL    HW229534   6.076   0.439   0.894  1.6635 -0.8494  0.9635
 7442SOL    HW329535   5.927   0.431   0.917  1.0137 -0.1075 -2.3974
 7442SOL    MW429536   6.009   0.416   0.943  0.4121  0.0257 -0.2618
 7443SOL     OW29537   5.602   4.294   6.067 -0.4460 -0.0631  0.0565
 7443SOL    HW229538   5.625   4.264   5.979  1.4222 -0.0046  0.4651
 7443SOL    HW329539   5.526   4.350   6.055 -0.7949 -0.8078 -1.3891
 7443SOL    MW429540   5.595   4.297   6.054 -0.2456 -0.1537 -0.0803
 7444SOL     OW29541   1.133   4.604   5.586  0.0003 -0.1411 -0.3641
 7444SOL    HW229542   1.187   4.618   5.664 -0.7385  2.0520 -0.1776
 7444SOL    HW329543   1.131   4.690   5.543 -2.0095 -0.5723 -1.2271
 7444SOL    MW429544   1.140   4.617   5.590 -0.3624  0.0914 -0.4533
 7445SOL     OW29545   3.234   3.687   6.312  0.7202  0.7354  0.0586
 7445SOL    HW229546   3.245   3.781   6.300  2.7208  0.4680 -0.4413
 7445SOL    HW329547   3.319   3.655   6.342  0.3154 -1.0224 -0.5140
 7445SOL    MW429548   3.246   3.695   6.314  0.9307  0.4682 -0.0829
 7446SOL     OW29549   0.700   3.967   3.586 -0.1471 -0.1088 -0.1539
 7446SOL    HW229550   0.759   4.012   3.647  0.1625  0.6430 -0.9851
 7446SOL    HW329551   0.613   3.994   3.613  0.0446  1.3787 -0.8814
 7446SOL    MW429552   0.697   3.977   3.598 -0.0810  0.1866 -0.3596
 7447SOL     OW29553   2.258   0.150   0.077 -0.0771  0.8200 -0.0637
 7447SOL    HW229554   2.274   0.159  -0.017  0.2108  1.1185  0.0113
 7447SOL    HW329555   2.174   0.105   0.083  1.3080 -2.0423 -0.4796
 7447SOL    MW429556   2.249   0.146   0.066  0.1436  0.4817 -0.1087
 7448SOL     OW29557   5.880   2.366   0.571 -0.1873 -0.8283 -0.4185
 7448SOL    HW229558   5.970   2.397   0.579 -0.1974 -0.9691  0.2393
 7448SOL    HW329559   5.833   2.410   0.642 -1.2462  1.3831 -2.3502
 7448SOL    MW429560   5.886   2.376   0.581 -0.3284 -0.5551 -0.5866
 7449SOL     OW29561   5.362   6.204   0.149 -0.1871  0.2512 -0.2307
 7449SOL    HW229562   5.383   6.113   0.172 -0.7264  0.2751  0.3951
 7449SOL    HW329563   5.444   6.251   0.159 -0.4021  0.2754  1.8114
 7449SOL    MW429564   5.376   6.198   0.153 -0.2866  0.2576  0.1213
 7450SOL     OW29565   4.366   3.213   1.951  0.2320  0.0944 -0.3761
 7450SOL    HW229566   4.403   3.299   1.932 -1.7970  1.0631 -0.1809
 7450SOL    HW329567   4.271   3.225   1.944 -0.2292 -1.6186  1.6534
 7450SOL    MW429568   4.358   3.226   1.948 -0.0965 -0.0038 -0.0825
 7451SOL     OW29569   4.865   1.940   4.976  0.0247  0.1435 -0.3493
 7451SOL    HW229570   4.931   1.876   5.004 -0.1953 -0.9586 -2.2096
 7451SOL    HW329571   4.891   1.965   4.887 -0.7472  1.5239 -0.2235
 7451SOL    MW429572   4.877   1.935   4.968 -0.1062  0.1802 -0.5781
 7452SOL     OW29573   1.898   4.042   3.689  0.2105 -0.0216  0.2212
 7452SOL    HW229574   1.871   3.981   3.621  0.7817  0.9663 -0.9348
 7452SOL    HW329575   1.934   4.117   3.641 -0.9136  1.4517  1.5604
 7452SOL    MW429576   1.899   4.044   3.674  0.1375  0.3031  0.2453
 7453SOL     OW29577   2.505   1.169   0.527 -0.2729  0.1011 -0.1673
 7453SOL    HW229578   2.600   1.176   0.535 -0.3712 -0.3963  2.0714
 7453SOL    HW329579   2.490   1.137   0.438  1.4970  2.3615 -1.3667
 7453SOL    MW429580   2.515   1.166   0.517 -0.0524  0.3337 -0.0302
 7454SOL     OW29581   1.136   6.038   1.124 -0.0786 -0.2768  0.0608
 7454SOL    HW229582   1.080   6.021   1.200  0.0052  0.8529  0.3974
 7454SOL    HW329583   1.083   6.096   1.068  0.0209 -0.7606 -0.5454
 7454SOL    MW429584   1.121   6.044   1.127 -0.0544 -0.1916  0.0253
 7455SOL     OW29585   3.342   5.272   3.617 -0.3939 -0.2768 -0.1577
 7455SOL    HW229586   3.321   5.186   3.654  0.1777 -0.6975 -0.8065
 7455SOL    HW329587   3.296   5.274   3.533  0.5648 -0.4406 -0.7013
 7455SOL    MW429588   3.333   5.261   3.611 -0.1920 -0.3539 -0.3150
 7456SOL     OW29589   3.555   1.908   6.249 -0.0739 -0.0638 -0.1282
 7456SOL    HW229590   3.587   1.853   6.320  1.6216  0.7470 -0.2297
 7456SOL    HW329591   3.474   1.947   6.283 -0.5543 -1.5010  0.4473
 7456SOL    MW429592   3.549   1.906   6.263  0.0864 -0.1465 -0.0656
 7457SOL     OW29593   0.398   5.553   0.554 -0.3786 -0.8684 -0.0545
 7457SOL    HW229594   0.375   5.525   0.642 -0.9737  1.1854  0.5116
 7457SOL    HW329595   0.346   5.632   0.540  1.9866  0.6323 -1.0399
 7457SOL    MW429596   0.388   5.560   0.564 -0.1450 -0.3994 -0.1098
 7458SOL     OW29597   4.710   1.697   5.160  0.1088 -0.3740 -0.2421
 7458SOL    HW229598   4.707   1.640   5.084  1.9084 -0.7939 -0.0588
 7458SOL    HW329599   4.730   1.638   5.233  1.5905  0.3971  0.0185
 7458SOL    MW429600   4.712   1.681   5.160  0.5418 -0.3277 -0.1835
 7459SOL     OW29601   2.638   1.937   3.267 -0.1391 -0.7173 -0.7922
 7459SOL    HW229602   2.700   1.918   3.337 -0.1920  2.1280  0.1378
 7459SOL    HW329603   2.620   1.851   3.227  2.6017 -1.9280  0.3399
 7459SOL    MW429604   2.644   1.923   3.271  0.2156 -0.5016 -0.5201
 7460SOL     OW29605   4.249   2.753   0.793 -0.0564  0.5131  0.1423
 7460SOL    HW229606   4.165   2.786   0.824 -0.0920 -1.0464  1.9072
 7460SOL    HW329607   4.311   2.776   0.862  0.6139  0.1438 -0.3261
 7460SOL    MW429608   4.246   2.760   0.806  0.0273  0.2586  0.3134
 7461SOL     OW29609   4.057   6.253   0.796  0.1048  0.4460  0.1045
 7461SOL    HW229610   4.000   6.310   0.847 -0.2472 -2.1950  2.9515
 7461SOL    HW329611   4.141   6.255   0.843  0.1087 -1.2500  0.2061
 7461SOL    MW429612   4.061   6.261   0.809  0.0589 -0.1262  0.4935
 7462SOL     OW29613   2.946   4.191   2.857  0.5192 -0.3797  0.3537
 7462SOL    HW229614   2.947   4.255   2.928 -0.1557 -0.2473  0.2495
 7462SOL    HW329615   2.916   4.240   2.781  2.1744 -0.2677 -0.2877
 7462SOL    MW429616   2.942   4.206   2.856  0.6485 -0.3474  0.2553
 7463SOL     OW29617   2.840   0.818   0.636 -0.3378  0.0301  0.0279
 7463SOL    HW229618   2.800   0.730   0.637 -0.3073  0.0188  0.2972
 7463SOL    HW329619   2.926   0.804   0.597 -0.2957 -0.0766  0.1566
 7463SOL    MW429620   2.846   0.804   0.631 -0.3282  0.0146  0.0804
 7464SOL     OW29621   2.430   1.555   4.704 -0.1094 -0.4220 -0.0092
 7464SOL    HW229622   2.487   1.632   4.708  1.9453 -1.8062 -0.9823
 7464SOL    HW329623   2.344   1.590   4.680  0.8025  1.5425 -0.6297
 7464SOL    MW429624   2.426   1.569   4.701  0.2820 -0.3454 -0.2194
 7465SOL     OW29625   5.100   3.338   0.014 -0.4289  0.5181 -0.0072
 7465SOL    HW229626   5.051   3.260  -0.012  0.5915 -0.5369  1.1176
 7465SOL    HW329627   5.064   3.408  -0.041 -0.9582 -0.8461 -1.4867
 7465SOL    MW429628   5.089   3.337   0.003 -0.3641  0.1989 -0.0540
 7466SOL     OW29629   0.727   2.623   3.879 -0.0077  0.0998 -0.0836
 7466SOL    HW229630   0.652   2.678   3.903  1.0557  1.5447  0.0687
 7466SOL    HW329631   0.702   2.585   3.795  0.0162  2.5259 -1.2800
 7466SOL    MW429632   0.714   2.626   3.871  0.1358  0.6106 -0.2214
 7467SOL     OW29633   2.446   4.039   0.642 -0.5970 -0.2288  0.9193
 7467SOL    HW229634   2.538   4.023   0.619 -0.7199 -0.9448  0.9011
 7467SOL    HW329635   2.445   4.032   0.738 -0.8429 -1.4633  0.8481
 7467SOL    MW429636   2.458   4.036   0.652 -0.6456 -0.4862  0.9075
 7468SOL     OW29637   0.509   4.717   3.777 -0.7865 -0.1158  0.5434
 7468SOL    HW229638   0.515   4.799   3.827  0.4271  1.4727 -1.9814
 7468SOL    HW329639   0.438   4.732   3.715 -3.9529 -2.9724  3.1282
 7468SOL    MW429640   0.501   4.730   3.775 -1.0441 -0.2831  0.5513
 7469SOL     OW29641   3.314   0.785   1.548 -0.5004 -0.0938  0.4995
 7469SOL    HW229642   3.277   0.804   1.634 -0.6631  1.0541  0.1942
 7469SOL    HW329643   3.308   0.868   1.501  0.1591 -0.5485 -0.4099
 7469SOL    MW429644   3.309   0.798   1.553 -0.4349 -0.0023  0.3392
 7470SOL     OW29645   0.531   4.650   0.453 -0.0119 -0.2695  0.4172
 7470SOL    HW229646   0.468   4.611   0.514 -0.9946 -0.7771 -0.8628
 7470SOL    HW329647   0.505   4.616   0.367  0.5564  1.3653 -0.4540
 7470SOL    MW429648   0.519   4.640   0.449 -0.0665 -0.1208  0.1334
 7471SOL     OW29649   1.659   6.218   1.959  0.3004  0.0626 -0.2671
 7471SOL    HW229650   1.624   6.209   1.871  0.6425  0.8250 -0.4810
 7471SOL    HW329651   1.591   6.179   2.015 -1.1223  1.8748 -0.6229
 7471SOL    MW429652   1.645   6.211   1.955  0.1578  0.4023 -0.3422
 7472SOL     OW29653   5.439   0.322   2.924 -0.2585 -0.0966 -0.2629
 7472SOL    HW229654   5.510   0.376   2.889  0.5738 -0.2151  1.1791
 7472SOL    HW329655   5.376   0.385   2.959  0.1925 -0.0347  0.4406
 7472SOL    MW429656   5.440   0.337   2.924 -0.0892 -0.1041  0.0201
 7473SOL     OW29657   0.107   0.541   1.507  0.3631 -0.6145 -0.6841
 7473SOL    HW229658   0.153   0.576   1.430  1.8870  0.2118  0.5587
 7473SOL    HW329659   0.054   0.614   1.539 -0.3587 -0.9918 -0.9792
 7473SOL    MW429660   0.106   0.555   1.501  0.4689 -0.5553 -0.5590
 7474SOL     OW29661   1.234   3.482   2.446  0.0039 -0.3161  0.1961
 7474SOL    HW229662   1.263   3.497   2.536  0.0501 -1.1509  0.3267
 7474SOL    HW329663   1.294   3.417   2.412 -0.2168 -0.2470 -0.3356
 7474SOL    MW429664   1.246   3.475   2.453 -0.0191 -0.4171  0.1431
 7475SOL     OW29665   4.062   5.216   2.491  0.3115 -0.1528  0.1949
 7475SOL    HW229666   4.030   5.127   2.498 -1.0052  0.1842 -1.0651
 7475SOL    HW329667   4.012   5.266   2.556 -0.7701  0.0942 -0.7785
 7475SOL    MW429668   4.051   5.211   2.501 -0.0049 -0.0757 -0.0998
 7476SOL     OW29669   0.847   5.558   1.849  0.5107 -0.3836 -0.4082
 7476SOL    HW229670   0.786   5.579   1.779  1.3045 -0.1983 -1.0542
 7476SOL    HW329671   0.791   5.528   1.921 -0.3990  0.6329 -0.6688
 7476SOL    MW429672   0.831   5.557   1.850  0.4954 -0.2250 -0.5278
 7477SOL     OW29673   5.385   0.883   3.710  0.4511  0.3025 -0.4619
 7477SOL    HW229674   5.401   0.861   3.802  0.5623 -0.6549 -0.6908
 7477SOL    HW329675   5.378   0.978   3.708  1.2205  0.3904  0.4188
 7477SOL    MW429676   5.386   0.892   3.722  0.5673  0.1878 -0.3759
 7478SOL     OW29677   5.731   5.493   4.893 -0.8411  0.3683  0.2479
 7478SOL    HW229678   5.644   5.460   4.866 -0.0306 -0.6785 -1.2376
 7478SOL    HW329679   5.765   5.536   4.815 -0.2315  1.2599  0.9964
 7478SOL    MW429680   5.724   5.494   4.879 -0.6537  0.3478  0.1507
 7479SOL     OW29681   1.323   6.243   1.131  0.4992 -0.2406  0.1890
 7479SOL    HW229682   1.263   6.169   1.122  0.4391 -0.2068  0.3074
 7479SOL    HW329683   1.331   6.278   1.042  0.9712 -0.7305  0.0388
 7479SOL    MW429684   1.316   6.238   1.118  0.5535 -0.3008  0.1848
 7480SOL     OW29685   0.053   6.335   4.340  0.1235  0.3648 -0.0739
 7480SOL    HW229686   0.012   6.422   4.338 -1.7024 -0.3717  1.5210
 7480SOL    HW329687   0.106   6.336   4.420  0.4409  0.1652 -0.2837
 7480SOL    MW429688   0.055   6.347   4.350 -0.0755  0.2413  0.1089
 7481SOL     OW29689   5.115   2.339   6.066 -0.2705  0.2048 -0.0977
 7481SOL    HW229690   5.081   2.258   6.105 -0.4879 -0.7830 -2.2035
 7481SOL    HW329691   5.151   2.312   5.982  1.9493  1.9305  0.2002
 7481SOL    MW429692   5.115   2.325   6.060 -0.0063  0.3021 -0.3362
 7482SOL     OW29693   3.324   0.380   2.115 -0.4639 -0.1531  0.3174
 7482SOL    HW229694   3.329   0.413   2.205 -0.6003  0.4936  0.0927
 7482SOL    HW329695   3.239   0.335   2.111 -0.8424  0.5418  0.2817
 7482SOL    MW429696   3.313   0.378   2.127 -0.5318  0.0239  0.2830
 7483SOL     OW29697   1.084   0.726   4.039  0.2523 -0.3092  0.0164
 7483SOL    HW229698   1.038   0.642   4.035  0.2964 -0.3108 -0.4321
 7483SOL    HW329699   1.144   0.724   3.964  0.4775 -0.0081  0.1882
 7483SOL    MW429700   1.086   0.714   4.029  0.2878 -0.2697 -0.0201
 7484SOL     OW29701   5.588   1.864   0.214  0.2931  0.4107  0.6122
 7484SOL    HW229702   5.621   1.795   0.156  0.3737  0.9030  0.0734
 7484SOL    HW329703   5.562   1.935   0.156  0.0433  0.7709  1.1563
 7484SOL    MW429704   5.589   1.864   0.199  0.2708  0.5232  0.6129
 7485SOL     OW29705   4.436   2.815   0.595  0.1613  0.6678  0.6034
 7485SOL    HW229706   4.510   2.754   0.602 -0.5413 -0.3369 -0.4059
 7485SOL    HW329707   4.382   2.796   0.672 -2.2106 -3.0243 -1.7072
 7485SOL    MW429708   4.439   2.804   0.606 -0.2443  0.0481  0.1654
 7486SOL     OW29709   3.213   2.961   2.774  0.3492  0.5086 -0.2776
 7486SOL    HW229710   3.224   2.941   2.867 -0.2525 -0.5591 -0.4197
 7486SOL    HW329711   3.233   2.879   2.729  0.7157  1.0335 -1.1079
 7486SOL    MW429712   3.217   2.948   2.780  0.3182  0.4370 -0.4059
 7487SOL     OW29713   5.549   4.134   5.392  0.6063  0.1891  0.3122
 7487SOL    HW229714   5.534   4.225   5.418  0.5683 -0.2087  1.7970
 7487SOL    HW329715   5.557   4.086   5.475  0.6521 -1.1622 -0.4343
 7487SOL    MW429716   5.548   4.140   5.406  0.6073 -0.0417  0.4096
 7488SOL     OW29717   3.731   2.790   3.506  0.1811  0.5169  0.2945
 7488SOL    HW229718   3.680   2.808   3.584  0.2136  1.0069  0.2047
 7488SOL    HW329719   3.718   2.867   3.450  1.2289  0.7784  0.3867
 7488SOL    MW429720   3.723   2.803   3.509  0.3237  0.6161  0.2948
 7489SOL     OW29721   3.022   3.670   0.933  0.4012 -0.7589  0.4002
 7489SOL    HW229722   3.016   3.760   0.965 -1.1372 -0.0327 -1.6525
 7489SOL    HW329723   2.931   3.644   0.918  0.8612 -2.3899  0.1992
 7489SOL    MW429724   3.009   3.678   0.935  0.2589 -0.8783  0.1028
 7490SOL     OW29725   5.564   1.583   0.527 -0.2240  0.0826 -0.2002
 7490SOL    HW229726   5.598   1.658   0.576 -1.4198  0.5603 -0.0688
 7490SOL    HW329727   5.548   1.516   0.593  2.7746 -1.1101 -0.5334
 7490SOL    MW429728   5.566   1.584   0.542  0.0139 -0.0117 -0.2269
 7491SOL     OW29729   6.161   3.308   2.661  0.2390 -0.0158  0.0571
 7491SOL    HW229730   6.147   3.252   2.585 -3.1359 -1.5621  1.6134
 7491SOL    HW329731   6.073   3.321   2.697  1.5004  2.1679  2.6616
 7491SOL    MW429732   6.147   3.303   2.655 -0.0399  0.0683  0.6061
 7492SOL     OW29733   0.838   0.012   6.032 -0.4672 -0.1179 -0.2138
 7492SOL    HW229734   0.802   0.027   6.120  0.6391 -1.0537  0.4266
 7492SOL    HW329735   0.922   0.059   6.032 -1.6104  2.0846 -1.7049
 7492SOL    MW429736   0.845   0.020   6.044 -0.4721  0.0492 -0.3260
 7493SOL     OW29737   3.568   2.805   3.108  0.5013 -0.2512  0.3554
 7493SOL    HW229738   3.488   2.759   3.134  0.8783 -1.5948 -0.7167
 7493SOL    HW329739   3.570   2.797   3.013  1.6196  0.2550  0.3228
 7493SOL    MW429740   3.558   2.798   3.099  0.6986 -0.3617  0.2096
 7494SOL     OW29741   5.971   0.400   5.748 -0.2738 -0.3831 -0.6790
 7494SOL    HW229742   6.062   0.401   5.720 -0.2280 -0.9838 -0.5670
 7494SOL    HW329743   5.956   0.487   5.784  1.1530 -1.1323  2.0433
 7494SOL    MW429744   5.981   0.411   5.749 -0.0795 -0.5612 -0.3051
 7495SOL     OW29745   2.722   1.356   5.801 -0.6906  0.5761 -0.8434
 7495SOL    HW229746   2.646   1.318   5.846  0.2181  0.0788  0.3148
 7495SOL    HW329747   2.747   1.290   5.736  1.6739 -1.6184  2.0037
 7495SOL    MW429748   2.715   1.342   5.798 -0.2587  0.2210 -0.3150
 7496SOL     OW29749   1.822   6.102   4.216 -0.0303  0.0034  0.3373
 7496SOL    HW229750   1.872   6.086   4.295  0.5097  1.4943  0.3421
 7496SOL    HW329751   1.883   6.085   4.144 -0.2139 -0.3779  0.2702
 7496SOL    MW429752   1.837   6.098   4.217  0.0167  0.1498  0.3291
 7497SOL     OW29753   4.860   3.927   3.227  0.0235 -0.0794  0.1587
 7497SOL    HW229754   4.769   3.900   3.218 -0.7112  1.8137  1.3931
 7497SOL    HW329755   4.901   3.855   3.276 -0.8266 -0.8834 -0.2824
 7497SOL    MW429756   4.853   3.914   3.233 -0.1856  0.0643  0.2633
 7498SOL     OW29757   5.190   2.513   2.935  0.1638 -0.2243  0.2905
 7498SOL    HW229758   5.248   2.465   2.995  0.1867  0.1516  0.5740
 7498SOL    HW329759   5.225   2.602   2.934 -0.7216  0.1411  0.8798
 7498SOL    MW429760   5.202   2.518   2.943  0.0500 -0.1265  0.4057
 7499SOL     OW29761   4.664   3.841   1.782 -0.0380  0.2299  0.0283
 7499SOL    HW229762   4.593   3.896   1.815  1.3451  1.5532  0.9160
 7499SOL    HW329763   4.734   3.903   1.759  1.2569 -1.0979  0.2554
 7499SOL    MW429764   4.664   3.856   1.783  0.3154  0.2293  0.1754
 7500SOL     OW29765   4.484   2.357   0.113  0.5852  0.4015  0.2248
 7500SOL    HW229766   4.525   2.271   0.123 -2.4062 -1.1354  0.7117
 7500SOL    HW329767   4.522   2.393   0.034  2.7993 -0.8211  0.6455
 7500SOL    MW429768   4.494   2.350   0.104  0.4826  0.0374  0.3445
 7501SOL     OW29769   4.575   4.833   2.847  0.2860  0.2740 -0.4592
 7501SOL    HW229770   4.665   4.821   2.876  0.5771 -0.0233 -1.4564
 7501SOL    HW329771   4.550   4.919   2.881  0.2514 -0.4651  1.5423
 7501SOL    MW429772   4.583   4.843   2.855  0.3198  0.1373 -0.3267
 7502SOL     OW29773   0.111   6.381   3.997 -0.6106  0.1448 -0.4267
 7502SOL    HW229774   0.031   6.417   4.035  0.6368  1.9086  0.6949
 7502SOL    HW329775   0.083   6.301   3.952 -2.9092  0.4973  0.2663
 7502SOL    MW429776   0.097   6.375   3.996 -0.7493  0.4240 -0.1873
 7503SOL     OW29777   5.089   2.419   2.138 -0.4056  0.1498 -0.1974
 7503SOL    HW229778   5.159   2.368   2.098 -0.4640 -0.0626 -0.0295
 7503SOL    HW329779   5.131   2.465   2.210 -0.2590  0.6801 -0.6121
 7503SOL    MW429780   5.104   2.418   2.142 -0.3939  0.1917 -0.2300
 7504SOL     OW29781   0.238   1.047   4.216 -0.1449 -0.0742  0.1607
 7504SOL    HW229782   0.143   1.057   4.213 -0.1464  0.3361  1.2637
 7504SOL    HW329783   0.260   1.054   4.308  0.8386 -1.3284  0.0585
 7504SOL    MW429784   0.229   1.049   4.227 -0.0153 -0.1855  0.2927
 7505SOL     OW29785   2.504   2.001   1.884 -0.2869  0.5720 -0.5044
 7505SOL    HW229786   2.468   1.945   1.816  0.8565 -1.6129  0.5916
 7505SOL    HW329787   2.587   1.960   1.907 -0.5739  1.2912  2.1105
 7505SOL    MW429788   2.510   1.988   1.878 -0.1739  0.3786 -0.0148
 7506SOL     OW29789   1.895   1.517   2.371 -0.4819 -0.4406 -0.0392
 7506SOL    HW229790   1.974   1.520   2.317 -0.4828 -1.5672 -0.1258
 7506SOL    HW329791   1.926   1.531   2.460 -0.4993  1.6044 -0.3028
 7506SOL    MW429792   1.910   1.519   2.375 -0.4843 -0.3194 -0.0854
 7507SOL     OW29793   5.270   3.253   6.161 -0.6180 -0.4722 -0.0065
 7507SOL    HW229794   5.285   3.234   6.254 -0.5347 -0.4483 -0.0148
 7507SOL    HW329795   5.332   3.196   6.115 -1.4164 -1.2821 -0.0942
 7507SOL    MW429796   5.281   3.243   6.167 -0.7124 -0.5759 -0.0192
 7508SOL     OW29797   4.289   5.346   0.294 -0.3565  0.0078  0.2909
 7508SOL    HW229798   4.331   5.274   0.248 -0.5608 -0.0917  0.2582
 7508SOL    HW329799   4.204   5.357   0.251 -0.4969 -0.0033  0.5592
 7508SOL    MW429800   4.283   5.338   0.282 -0.4020 -0.0068  0.3220
 7509SOL     OW29801   1.118   3.865   2.531 -0.0989  0.0732  0.4307
 7509SOL    HW229802   1.212   3.849   2.534 -0.1782 -0.7740 -0.8425
 7509SOL    HW329803   1.107   3.931   2.462 -0.4509  0.0847  0.4954
 7509SOL    MW429804   1.129   3.872   2.522 -0.1558 -0.0371  0.2712
 7510SOL     OW29805   2.761   3.385   4.318  0.5830 -0.6650 -0.2216
 7510SOL    HW229806   2.715   3.457   4.362  0.5581 -0.4666 -0.5715
 7510SOL    HW329807   2.833   3.427   4.272  0.2347 -0.7942 -0.8858
 7510SOL    MW429808   2.764   3.400   4.318  0.5338 -0.6558 -0.3554
 7511SOL     OW29809   5.397   1.737   2.230 -0.0012 -0.1550  0.1315
 7511SOL    HW229810   5.449   1.707   2.305 -1.0277 -1.0154  0.5207
 7511SOL    HW329811   5.308   1.712   2.252 -0.7423  2.0599 -0.1290
 7511SOL    MW429812   5.392   1.730   2.243 -0.2344  0.0237  0.1485
 7512SOL     OW29813   3.094   2.510   0.665 -0.4181 -0.1771 -0.1001
 7512SOL    HW229814   3.114   2.595   0.626  3.1515  0.3960  2.4547
 7512SOL    HW329815   3.023   2.527   0.726  1.4676  1.6105  1.7909
 7512SOL    MW429816   3.088   2.523   0.668  0.3016  0.1344  0.4865
 7513SOL     OW29817   5.911   2.122   4.996 -0.2150 -0.2627 -0.1158
 7513SOL    HW229818   5.824   2.156   5.017 -0.2014  0.4435 -1.1103
 7513SOL    HW329819   5.943   2.181   4.928 -0.2278 -2.3392 -2.0139
 7513SOL    MW429820   5.903   2.135   4.990 -0.2149 -0.4434 -0.4974
 7514SOL     OW29821   1.950   1.354   5.018 -0.0377 -0.5442  0.1559
 7514SOL    HW229822   1.898   1.316   4.947  0.2090 -2.0077  0.7431
 7514SOL    HW329823   2.028   1.389   4.974  0.1563 -1.5243 -0.2936
 7514SOL    MW429824   1.953   1.354   5.003  0.0204 -0.8666  0.1740
 7515SOL     OW29825   1.130   6.364   0.051  0.0546  0.2370 -0.0730
 7515SOL    HW229826   1.114   6.322  -0.034  0.7402  0.4566 -0.3110
 7515SOL    HW329827   1.215   6.405   0.042 -0.2704  1.0335  0.4259
 7515SOL    MW429828   1.139   6.364   0.038  0.1022  0.3710 -0.0386
 7516SOL     OW29829   2.076   3.197   4.359 -0.1230  0.5177 -0.0683
 7516SOL    HW229830   1.986   3.228   4.342 -0.2872  0.6715  1.0153
 7516SOL    HW329831   2.073   3.103   4.340 -1.5493 -0.3175  3.4496
 7516SOL    MW429832   2.063   3.188   4.354 -0.3329  0.4278  0.5388
 7517SOL     OW29833   5.687   5.415   4.390 -0.1935 -0.1282 -0.1441
 7517SOL    HW229834   5.744   5.492   4.383 -0.4340  0.1081  0.4614
 7517SOL    HW329835   5.671   5.389   4.299 -2.0378  1.9746 -0.5139
 7517SOL    MW429836   5.692   5.422   4.377 -0.4686  0.1804 -0.1130
 7518SOL     OW29837   2.688   4.912   4.339  0.4620  0.3587  0.2477
 7518SOL    HW229838   2.711   4.944   4.426  1.3334  0.3712  0.0161
 7518SOL    HW329839   2.772   4.895   4.296  0.0360 -0.0082 -0.4574
 7518SOL    MW429840   2.702   4.914   4.345  0.5207  0.3119  0.1241
 7519SOL     OW29841   0.396   5.189   1.483  0.2160  0.0306  0.5363
 7519SOL    HW229842   0.377   5.212   1.573  0.7121 -0.2895  0.7275
 7519SOL    HW329843   0.405   5.094   1.484  1.2932  0.1189  0.3625
 7519SOL    MW429844   0.395   5.179   1.495  0.4236 -0.0000  0.5386
 7520SOL     OW29845   2.340   1.347   2.042 -0.0913 -0.1179  0.1730
 7520SOL    HW229846   2.278   1.398   2.093 -1.3862 -0.9678 -0.4894
 7520SOL    HW329847   2.425   1.363   2.083 -0.7827  0.8906  1.2426
 7520SOL    MW429848   2.343   1.356   2.054 -0.3534 -0.0969  0.2267
 7521SOL     OW29849   1.535   4.475   6.329  0.4738 -0.0404  0.3402
 7521SOL    HW229850   1.514   4.558   6.371 -0.8958 -0.6491  0.9169
 7521SOL    HW329851   1.573   4.421   6.398  0.7412 -0.1345  0.1260
 7521SOL    MW429852   1.538   4.479   6.343  0.3284 -0.1331  0.3880
 7522SOL     OW29853   4.238   2.639   3.305 -0.2537 -0.2171 -0.3389
 7522SOL    HW229854   4.153   2.679   3.324  0.9254  1.6568  1.3488
 7522SOL    HW329855   4.249   2.572   3.372  0.4757  0.9925  0.7891
 7522SOL    MW429856   4.228   2.636   3.316 -0.0019  0.1898  0.0326
 7523SOL     OW29857   4.129   1.986   5.825  0.4959  0.0169  0.2589
 7523SOL    HW229858   4.188   1.931   5.877  0.6699  0.9158  1.0501
 7523SOL    HW329859   4.186   2.033   5.765  0.5388  0.4856  0.6570
 7523SOL    MW429860   4.144   1.985   5.824  0.5245  0.1973  0.4158
 7524SOL     OW29861   1.316   3.321   2.712 -1.0240  0.8270  0.0475
 7524SOL    HW229862   1.305   3.226   2.706  2.0077  0.3132  1.1870
 7524SOL    HW329863   1.253   3.348   2.779 -0.5266 -0.7172  1.2050
 7524SOL    MW429864   1.306   3.312   2.720 -0.5584  0.5555  0.3505
 7525SOL     OW29865   6.025   4.521   3.396  0.2070  0.4178  0.0191
 7525SOL    HW229866   6.010   4.456   3.327  4.8178  0.4526 -1.3574
 7525SOL    HW329867   6.076   4.474   3.462  1.0358  1.8467  0.4434
 7525SOL    MW429868   6.030   4.506   3.396  0.9247  0.6109 -0.1066
 7526SOL     OW29869   0.133   0.536   0.647  0.0176 -0.0815  0.1378
 7526SOL    HW229870   0.131   0.553   0.553 -0.3981 -0.3867  0.0852
 7526SOL    HW329871   0.045   0.558   0.677  0.1135 -0.0955  0.4328
 7526SOL    MW429872   0.121   0.541   0.639 -0.0246 -0.1236  0.1698
 7527SOL     OW29873   0.623   1.555   3.115  0.0667  0.0116 -0.3121
 7527SOL    HW229874   0.629   1.585   3.024 -0.8651 -1.6432 -0.9657
 7527SOL    HW329875   0.542   1.594   3.148 -1.0352 -1.5567 -1.0914
 7527SOL    MW429876   0.613   1.564   3.107 -0.2016 -0.4136 -0.5012
 7528SOL     OW29877   0.974   2.938   1.221 -0.2643 -0.4666  0.1028
 7528SOL    HW229878   1.003   2.855   1.184 -0.9950 -0.1923 -1.1588
 7528SOL    HW329879   0.936   2.914   1.306  0.7894 -1.2131  0.3868
 7528SOL    MW429880   0.972   2.924   1.227 -0.2217 -0.5289 -0.0262
 7529SOL     OW29881   5.478   4.489   3.028 -0.4078  0.5620 -0.5773
 7529SOL    HW229882   5.530   4.410   3.017 -2.5464 -0.7857 -1.7199
 7529SOL    HW329883   5.433   4.477   3.112 -0.4049  0.7633 -0.5456
 7529SOL    MW429884   5.479   4.477   3.038 -0.6895  0.4107 -0.7238
 7530SOL     OW29885   6.385   3.788   0.857  0.1298  0.1060 -0.0247
 7530SOL    HW229886   6.440   3.714   0.834 -0.6223 -0.4334 -0.1388
 7530SOL    HW329887   6.420   3.861   0.805 -0.5410 -0.7207 -1.7340
 7530SOL    MW429888   6.397   3.788   0.847 -0.0580 -0.0743 -0.2653
 7531SOL     OW29889   4.787   3.535   5.125 -0.4218 -0.0334  0.0036
 7531SOL    HW229890   4.749   3.621   5.141 -1.4234  0.4599 -4.0265
 7531SOL    HW329891   4.714   3.474   5.134 -0.6125  0.0492 -0.9086
 7531SOL    MW429892   4.773   3.539   5.128 -0.5791  0.0426 -0.6485
 7532SOL     OW29893   3.245   1.272   4.374  0.0007 -0.1174  0.1010
 7532SOL    HW229894   3.294   1.201   4.333 -0.8644 -0.2391 -0.7588
 7532SOL    HW329895   3.196   1.312   4.303 -0.0222  0.9336  0.6924
 7532SOL    MW429896   3.245   1.268   4.360 -0.1165  0.0052  0.0656
 7533SOL     OW29897   3.753   4.346   1.165  1.1640 -0.1931 -0.2222
 7533SOL    HW229898   3.802   4.397   1.230 -0.9390  1.3246  0.2853
 7533SOL    HW329899   3.775   4.255   1.185  0.3949  0.1938  2.8829
 7533SOL    MW429900   3.763   4.341   1.176  0.7850  0.0582  0.2544
 7534SOL     OW29901   4.572   2.871   1.760 -0.4869  0.0258 -0.0273
 7534SOL    HW229902   4.550   2.887   1.852  3.1429  2.6275  0.6119
 7534SOL    HW329903   4.512   2.928   1.711 -1.3925 -0.1876  0.7994
 7534SOL    MW429904   4.561   2.881   1.766 -0.1275  0.3409  0.1661
 7535SOL     OW29905   0.935   4.088   0.492 -0.2990 -0.0464 -0.1758
 7535SOL    HW229906   0.954   4.159   0.553  1.0864 -0.5540  0.0070
 7535SOL    HW329907   0.902   4.017   0.547  0.8333 -0.4608 -0.0132
 7535SOL    MW429908   0.933   4.088   0.507  0.0332 -0.1680 -0.1302
 7536SOL     OW29909   4.950   0.054   0.908 -0.0511  1.2857  0.5497
 7536SOL    HW229910   5.008   0.110   0.856  0.6455  2.3322  2.3402
 7536SOL    HW329911   4.989  -0.033   0.902 -0.3016  1.2600 -1.0874
 7536SOL    MW429912   4.963   0.050   0.900  0.0077  1.4204  0.5699
 7537SOL     OW29913   0.333   3.152   4.415  0.9308 -0.0373 -0.1523
 7537SOL    HW229914   0.278   3.229   4.401  0.2262 -0.2695  1.2900
 7537SOL    HW329915   0.417   3.188   4.443  0.6717  0.2255  0.3001
 7537SOL    MW429916   0.337   3.167   4.417  0.8037 -0.0333  0.0977
 7538SOL     OW29917   1.441   4.604   3.424  0.0895 -0.2554 -0.3647
 7538SOL    HW229918   1.486   4.681   3.459  0.0310 -0.1217 -0.5825
 7538SOL    HW329919   1.490   4.581   3.345 -0.0480 -0.2854 -0.4419
 7538SOL    MW429920   1.453   4.611   3.418  0.0636 -0.2417 -0.4036
 7539SOL     OW29921   5.107   3.835   1.014 -0.2594 -0.2618  0.2407
 7539SOL    HW229922   5.128   3.877   0.931 -0.8393 -0.5097 -0.0355
 7539SOL    HW329923   5.148   3.891   1.080 -0.2253  0.2164 -0.1795
 7539SOL    MW429924   5.115   3.848   1.012 -0.3314 -0.2314  0.1488
 7540SOL     OW29925   5.692   4.601   2.123  0.4827 -0.2968  0.2483
 7540SOL    HW229926   5.739   4.679   2.093  0.1323 -0.3076 -0.3433
 7540SOL    HW329927   5.737   4.576   2.204  0.2312  0.8630  0.7759
 7540SOL    MW429928   5.704   4.608   2.130  0.4033 -0.1452  0.2399
 7541SOL     OW29929   2.482   4.021   5.277 -0.1513 -0.0485  0.1286
 7541SOL    HW229930   2.535   4.031   5.356 -0.0047 -1.2865  0.1963
 7541SOL    HW329931   2.532   3.963   5.220 -1.7069 -1.8099  0.4641
 7541SOL    MW429932   2.495   4.015   5.280 -0.3372 -0.4443  0.1818
 7542SOL     OW29933   1.342   0.370   4.846 -0.4085  0.1202  0.2588
 7542SOL    HW229934   1.376   0.373   4.935 -0.9786 -2.6356  0.6471
 7542SOL    HW329935   1.419   0.358   4.790 -0.3117 -2.1372  0.7899
 7542SOL    MW429936   1.357   0.369   4.850 -0.4710 -0.5412  0.3801
 7543SOL     OW29937   1.549   2.061   4.595 -0.5892 -0.0460  0.1472
 7543SOL    HW229938   1.623   2.105   4.636 -0.7616  0.5842 -0.2177
 7543SOL    HW329939   1.589   1.997   4.535 -0.3379 -0.9287  1.2247
 7543SOL    MW429940   1.564   2.058   4.592 -0.5788 -0.0793  0.2412
 7544SOL     OW29941   1.593   1.008   0.702  0.1111  0.3664  0.5048
 7544SOL    HW229942   1.676   0.961   0.713 -0.7738 -0.8291  2.6538
 7544SOL    HW329943   1.527   0.947   0.734 -1.7553  0.9158 -2.0168
 7544SOL    MW429944   1.596   0.994   0.707 -0.2519  0.2812  0.4557
 7545SOL     OW29945   3.954   4.512   1.330  0.2791  0.5164 -0.2985
 7545SOL    HW229946   4.010   4.560   1.269 -0.1490 -0.0001 -1.1077
 7545SOL    HW329947   4.011   4.444   1.366  0.1693 -0.0359 -1.1561
 7545SOL    MW429948   3.969   4.509   1.327  0.2081  0.3754 -0.5184
 7546SOL     OW29949   0.745   1.101   2.799  0.0819 -0.0208  0.3705
 7546SOL    HW229950   0.733   1.052   2.881 -0.9842  0.3933  0.4751
 7546SOL    HW329951   0.839   1.120   2.797  0.1747 -0.3019  1.3439
 7546SOL    MW429952   0.756   1.097   2.810 -0.0465 -0.0033  0.5127
 7547SOL     OW29953   2.605   1.647   5.018 -0.4356 -0.3553  0.3268
 7547SOL    HW229954   2.653   1.718   5.061 -1.4976  0.5938 -0.0078
 7547SOL    HW329955   2.513   1.672   5.026 -0.8169 -1.6575  0.1137
 7547SOL    MW429956   2.600   1.660   5.024 -0.6260 -0.4019  0.2546
 7548SOL     OW29957   5.494   4.052   3.500 -0.0651  0.1525 -0.5991
 7548SOL    HW229958   5.589   4.058   3.508  0.1450 -1.9797 -0.8846
 7548SOL    HW329959   5.479   3.969   3.455 -2.0231  1.2643 -2.1460
 7548SOL    MW429960   5.505   4.042   3.495 -0.2957  0.0179 -0.8409
 7549SOL     OW29961   5.087   2.036   0.460  0.0021 -0.4175 -0.6630
 7549SOL    HW229962   5.128   1.999   0.538  1.4472 -0.1305 -1.2516
 7549SOL    HW329963   5.158   2.082   0.416 -1.6995  3.3387  0.1383
 7549SOL    MW429964   5.102   2.037   0.465 -0.0317  0.1159 -0.6349
 7550SOL     OW29965   5.847   0.252   4.317 -0.8145 -0.0920 -0.1719
 7550SOL    HW229966   5.910   0.180   4.309 -0.3973  0.3705 -1.2244
 7550SOL    HW329967   5.776   0.228   4.257 -1.6393 -0.5772  0.9540
 7550SOL    MW429968   5.846   0.239   4.308 -0.8683 -0.0950 -0.1622
 7551SOL     OW29969   4.510   1.860   2.467 -0.0825  0.1794  0.1280
 7551SOL    HW229970   4.452   1.923   2.509  0.2184  0.2338  0.4686
 7551SOL    HW329971   4.457   1.820   2.398  0.0181  1.5368 -0.7854
 7551SOL    MW429972   4.496   1.863   2.463 -0.0296  0.3657  0.0524
 7552SOL     OW29973   4.829   4.200   4.906  0.3201  0.7919  0.2460
 7552SOL    HW229974   4.917   4.238   4.915  0.0985  1.5159 -0.5611
 7552SOL    HW329975   4.818   4.188   4.812  0.2927 -1.0936  0.4576
 7552SOL    MW429976   4.839   4.203   4.895  0.2872  0.6387  0.1674
 7553SOL     OW29977   3.604   0.110   3.163 -0.0788 -0.0515  0.0526
 7553SOL    HW229978   3.581   0.196   3.197 -0.1304 -0.8736  2.2584
 7553SOL    HW329979   3.676   0.127   3.102 -0.6700  1.6304 -0.2147
 7553SOL    MW429980   3.611   0.124   3.160 -0.1636  0.0619  0.3084
 7554SOL     OW29981   2.230   2.329   1.531 -0.4832 -0.1798  0.1871
 7554SOL    HW229982   2.193   2.286   1.608 -0.7682 -1.5361 -0.6616
 7554SOL    HW329983   2.324   2.330   1.548 -0.2492 -2.8491 -0.5057
 7554SOL    MW429984   2.238   2.323   1.543 -0.4900 -0.7109 -0.0162
 7555SOL     OW29985   4.657   6.272   3.054  0.5113  0.0674  0.4290
 7555SOL    HW229986   4.576   6.297   3.100  0.5561 -0.5323  0.8420
 7555SOL    HW329987   4.715   6.242   3.123  0.8646 -0.1032  0.0594
 7555SOL    MW429988   4.654   6.271   3.069  0.5638 -0.0342  0.4347
 7556SOL     OW29989   3.320   6.407   4.015  0.3242  0.4991 -0.0638
 7556SOL    HW229990   3.400   6.412   3.964  0.5377 -0.6536  0.1329
 7556SOL    HW329991   3.262   6.352   3.963 -0.7870  2.2107 -0.7487
 7556SOL    MW429992   3.323   6.401   4.001  0.2058  0.5728 -0.1282
 7557SOL     OW29993   4.538   1.548   5.566  0.4419  0.1240 -0.5045
 7557SOL    HW229994   4.494   1.627   5.538 -0.5201 -0.1653  0.1292
 7557SOL    HW329995   4.548   1.495   5.487 -1.0033 -0.1044 -0.5592
 7557SOL    MW429996   4.534   1.551   5.552  0.1243  0.0557 -0.4281
 7558SOL     OW29997   4.661   4.231   1.458 -0.1484 -0.1932 -0.2720
 7558SOL    HW229998   4.709   4.249   1.538 -0.7971 -1.1644  0.3509
 7558SOL    HW329999   4.654   4.136   1.454 -1.1411 -0.1173 -0.8518
 7558SOL    MW430000   4.666   4.221   1.468 -0.3649 -0.3113 -0.2663
 7559SOL     OW30001   2.821   0.803   3.458 -0.4970 -0.1385  0.7714
 7559SOL    HW230002   2.865   0.887   3.446 -2.5304  1.1183  1.5990
 7559SOL    HW330003   2.728   0.823   3.450 -1.0029 -2.5596 -0.2849
 7559SOL    MW430004   2.814   0.817   3.455 -0.8320 -0.2921  0.7412
 7560SOL     OW30005   2.144   4.311   2.348 -0.1016 -0.0873 -0.0127
 7560SOL    HW230006   2.055   4.280   2.333  1.0439 -3.1666 -1.2491
 7560SOL    HW330007   2.163   4.288   2.439 -0.4391  0.2390  0.1405
 7560SOL    MW430008   2.135   4.304   2.358  0.0050 -0.4505 -0.1556
 7561SOL     OW30009   1.917   1.873   1.854 -0.1057  0.4174 -0.1702
 7561SOL    HW230010   1.882   1.930   1.922  2.2837  3.1543 -1.0247
 7561SOL    HW330011   1.877   1.904   1.773  2.0777  1.8217 -0.7954
 7561SOL    MW430012   1.907   1.884   1.852  0.4977  0.9638 -0.3654
 7562SOL     OW30013   2.863   0.450   4.856 -0.0837  0.2211  0.1971
 7562SOL    HW230014   2.935   0.464   4.794 -1.7386  0.1803 -1.8344
 7562SOL    HW330015   2.864   0.527   4.912  1.5812  0.1708  0.3053
 7562SOL    MW430016   2.873   0.462   4.855 -0.0824  0.2091 -0.0566
 7563SOL     OW30017   0.253   6.064   2.966  0.6689  0.6902  0.0727
 7563SOL    HW230018   0.233   5.987   2.913 -0.3504  0.5309  0.6665
 7563SOL    HW330019   0.286   6.030   3.048 -1.0252  0.8010  0.8520
 7563SOL    MW430020   0.255   6.050   2.970  0.3109  0.6838  0.2539
 7564SOL     OW30021   0.431   1.687   2.235  0.0534 -0.3275 -0.1307
 7564SOL    HW230022   0.348   1.685   2.282 -0.9300 -1.0532 -1.7720
 7564SOL    HW330023   0.462   1.596   2.237  0.0944 -0.3320 -0.6871
 7564SOL    MW430024   0.424   1.675   2.241 -0.0710 -0.4238 -0.4206
 7565SOL     OW30025   2.844   1.427   3.723  0.0602 -0.3144 -0.6754
 7565SOL    HW230026   2.780   1.383   3.778 -1.8521 -1.1436 -3.3286
 7565SOL    HW330027   2.855   1.370   3.647  0.6499  1.8148 -2.3243
 7565SOL    MW430028   2.837   1.414   3.720 -0.1143 -0.1429 -1.2430
 7566SOL     OW30029   6.355   1.010   5.565  0.1877  0.4883 -0.3976
 7566SOL    HW230030   6.358   0.943   5.497  1.0371 -0.0970  0.1869
 7566SOL    HW330031   6.280   1.065   5.542 -0.9006 -1.0071 -0.5649
 7566SOL    MW430032   6.346   1.009   5.553  0.1561  0.2138 -0.3425
 7567SOL     OW30033   5.401   5.116   6.282 -0.5238 -0.1920  0.2275
 7567SOL    HW230034   5.444   5.058   6.345  2.3382  1.1197 -0.3454
 7567SOL    HW330035   5.370   5.057   6.213  0.5918 -1.2249  0.5748
 7567SOL    MW430036   5.403   5.100   6.281  0.0010 -0.1552  0.1977
 7568SOL     OW30037   0.208   0.825   4.568 -0.7919  0.1615  0.8264
 7568SOL    HW230038   0.223   0.916   4.542  0.3657 -0.5918 -1.4497
 7568SOL    HW330039   0.137   0.829   4.631 -0.2798  2.6989  1.3545
 7568SOL    MW430040   0.201   0.837   4.573 -0.5716  0.3969  0.5958
 7569SOL     OW30041   4.154   5.708   1.059  0.1655  0.3193 -0.2262
 7569SOL    HW230042   4.062   5.736   1.053 -0.2000 -0.8312 -0.2170
 7569SOL    HW330043   4.167   5.688   1.152  0.7802  1.5772 -0.0175
 7569SOL    MW430044   4.143   5.709   1.071  0.1984  0.3335 -0.1975
 7570SOL     OW30045   4.874   3.096   2.519  0.3789  0.6097  0.4256
 7570SOL    HW230046   4.929   3.152   2.465  0.3873  0.1274 -0.0780
 7570SOL    HW330047   4.910   3.103   2.607  0.2668  1.5344  0.4040
 7570SOL    MW430048   4.886   3.104   2.524  0.3653  0.6681  0.3563
 7571SOL     OW30049   6.368   4.782   3.145  0.0050  0.2031  0.1628
 7571SOL    HW230050   6.431   4.738   3.087 -0.4059 -0.8174  0.4729
 7571SOL    HW330051   6.324   4.846   3.088  0.4614  0.0705 -0.3518
 7571SOL    MW430052   6.371   4.785   3.130  0.0110  0.0510  0.1358
 7572SOL     OW30053   3.471   2.350   1.397  0.2196 -0.2891 -0.5959
 7572SOL    HW230054   3.382   2.318   1.380 -0.0318 -0.7703  1.4014
 7572SOL    HW330055   3.458   2.433   1.443  0.6973 -1.4611  1.8034
 7572SOL    MW430056   3.458   2.357   1.401  0.2495 -0.5072 -0.0158
 7573SOL     OW30057   5.018   4.199   5.358 -0.2308  0.1384  0.0717
 7573SOL    HW230058   5.031   4.207   5.264 -1.3755  1.6459 -0.0142
 7573SOL    HW330059   4.957   4.126   5.368  2.2453 -2.0558 -0.0653
 7573SOL    MW430060   5.011   4.191   5.347 -0.0551  0.0478  0.0423
 7574SOL     OW30061  -0.037   5.988   3.745  0.8036 -0.1238 -0.2844
 7574SOL    HW230062   0.033   6.044   3.779  0.4060 -0.0353  0.4149
 7574SOL    HW330063  -0.062   5.934   3.819  0.3520 -0.3831 -0.6221
 7574SOL    MW430064  -0.031   5.988   3.759  0.6916 -0.1463 -0.2367
 7575SOL     OW30065   4.982   6.209   5.795 -0.1987 -0.0560  0.0941
 7575SOL    HW230066   4.939   6.240   5.875 -0.4160  1.6184 -0.6347
 7575SOL    HW330067   4.956   6.272   5.728  0.6126 -0.9880 -1.1370
 7575SOL    MW430068   4.973   6.222   5.797 -0.1203  0.0419 -0.1645
 7576SOL     OW30069   4.367   5.580   2.050 -0.1422  0.0997 -0.1942
 7576SOL    HW230070   4.374   5.675   2.065 -1.7223  0.1924  0.1070
 7576SOL    HW330071   4.284   5.569   2.005 -1.9715 -1.4856  3.1986
 7576SOL    MW430072   4.357   5.591   2.046 -0.5920 -0.0972  0.2931
 7577SOL     OW30073   4.580   0.657   5.839 -0.0100 -0.3800 -0.0838
 7577SOL    HW230074   4.526   0.610   5.903 -1.1687 -0.4605 -1.0838
 7577SOL    HW330075   4.536   0.642   5.755  1.5038 -0.3315 -0.9283
 7577SOL    MW430076   4.567   0.649   5.836  0.0368 -0.3842 -0.3272
 7578SOL     OW30077   0.947   2.217   2.728  0.1419 -0.3397  0.1579
 7578SOL    HW230078   0.916   2.195   2.816 -0.2896 -0.8739 -0.1248
 7578SOL    HW330079   0.963   2.312   2.732 -0.4871 -0.2454  0.6307
 7578SOL    MW430080   0.945   2.227   2.740  0.0019 -0.3977  0.1830
 7579SOL     OW30081   3.895   3.120   5.639  0.4276  0.1489  0.3332
 7579SOL    HW230082   3.817   3.170   5.614 -0.2826 -0.6634  0.8673
 7579SOL    HW330083   3.863   3.053   5.700  1.7148  0.4672  1.4125
 7579SOL    MW430084   3.880   3.117   5.643  0.5037  0.0837  0.5461
 7580SOL     OW30085   0.160   4.885   3.341  0.1496 -0.1586  0.1350
 7580SOL    HW230086   0.234   4.846   3.294 -0.4099 -0.5787 -0.4026
 7580SOL    HW330087   0.103   4.812   3.362 -0.8418  0.3439 -0.7626
 7580SOL    MW430088   0.163   4.870   3.338 -0.0550 -0.1477 -0.0544
 7581SOL     OW30089   2.286   2.883   1.964 -0.1763 -0.0950 -0.1913
 7581SOL    HW230090   2.241   2.829   1.899 -0.1181 -0.0658 -0.2553
 7581SOL    HW330091   2.322   2.820   2.026  2.2913 -0.3447 -1.7406
 7581SOL    MW430092   2.285   2.867   1.963  0.1569 -0.1241 -0.4041
 7582SOL     OW30093   3.435   0.959   1.780  0.0473  0.5983  0.3976
 7582SOL    HW230094   3.502   1.013   1.822  0.2732  1.0437 -0.5126
 7582SOL    HW330095   3.449   0.871   1.817 -0.0019  1.0366  1.5104
 7582SOL    MW430096   3.446   0.954   1.791  0.0706  0.7149  0.4243
 7583SOL     OW30097   1.679   2.534   5.265  0.0883  0.1662  0.4300
 7583SOL    HW230098   1.594   2.572   5.240  0.8880  0.6676 -1.7148
 7583SOL    HW330099   1.727   2.607   5.304 -0.0187  0.1765  0.5464
 7583SOL    MW430100   1.674   2.549   5.267  0.1797  0.2337  0.1624
 7584SOL     OW30101   5.690   3.323   2.966  0.1603 -0.1506  0.3249
 7584SOL    HW230102   5.708   3.362   3.052  0.6972  2.2699 -0.7938
 7584SOL    HW330103   5.600   3.348   2.945 -0.1361 -1.1337  0.3440
 7584SOL    MW430104   5.681   3.331   2.974  0.1920  0.0391  0.1798
 7585SOL     OW30105   4.090   3.846   0.714  0.3511  0.0516 -0.5444
 7585SOL    HW230106   4.176   3.826   0.750 -0.7369  0.3777  2.5378
 7585SOL    HW330107   4.054   3.760   0.690  1.0901 -0.2093 -0.7390
 7585SOL    MW430108   4.096   3.832   0.716  0.3050  0.0602 -0.1634
 7586SOL     OW30109   2.313   0.115   6.207  0.2598 -0.4627  0.0452
 7586SOL    HW230110   2.326   0.198   6.161 -0.8784 -0.8512 -1.0493
 7586SOL    HW330111   2.218   0.101   6.204  0.3636 -1.4710  0.8220
 7586SOL    MW430112   2.302   0.124   6.201  0.1233 -0.6470  0.0033
 7587SOL     OW30113   1.940   1.402   6.034  0.1856  0.5024  0.4740
 7587SOL    HW230114   1.866   1.394   5.975  1.3002  1.0594 -1.0737
 7587SOL    HW330115   1.905   1.446   6.111 -1.3281 -0.3252  0.2906
 7587SOL    MW430116   1.926   1.407   6.036  0.1329  0.4667  0.2456
 7588SOL     OW30117   4.541   2.056   0.599  0.1180  0.3822  0.6064
 7588SOL    HW230118   4.560   2.094   0.685  1.1075  0.6608  0.2789
 7588SOL    HW330119   4.470   2.110   0.564 -0.4003  0.1691  1.3024
 7588SOL    MW430120   4.534   2.068   0.605  0.1801  0.3908  0.6550
 7589SOL     OW30121   5.928   0.242   0.543 -0.4468  0.4063 -0.0861
 7589SOL    HW230122   5.920   0.338   0.540 -0.0393  0.4175 -1.6697
 7589SOL    HW330123   6.003   0.226   0.602 -0.5917  1.0475  0.2839
 7589SOL    MW430124   5.937   0.253   0.551 -0.4122  0.4924 -0.2462
 7590SOL     OW30125   4.420   1.676   1.140 -0.7762 -0.2222 -0.8424
 7590SOL    HW230126   4.361   1.738   1.098 -1.1263  0.5023  0.6362
 7590SOL    HW330127   4.502   1.723   1.150 -1.9516  1.4412  3.3136
 7590SOL    MW430128   4.423   1.690   1.136 -0.9774  0.0929 -0.0990
 7591SOL     OW30129   4.476   1.978   1.693 -0.3986  0.2608 -0.4472
 7591SOL    HW230130   4.570   1.995   1.706 -0.1149 -0.6000 -1.2527
 7591SOL    HW330131   4.473   1.887   1.663 -1.6736 -0.5087  1.7626
 7591SOL    MW430132   4.488   1.968   1.691 -0.5294  0.0457 -0.2620
 7592SOL     OW30133   3.837   5.883   4.914 -0.1427  0.0979  0.2582
 7592SOL    HW230134   3.746   5.860   4.931 -0.3815  0.3933 -0.5702
 7592SOL    HW330135   3.837   5.979   4.907  0.4410  0.1992  1.4074
 7592SOL    MW430136   3.825   5.893   4.915 -0.0972  0.1503  0.3005
 7593SOL     OW30137   1.003   5.362   0.696 -0.2547  0.5632 -0.3409
 7593SOL    HW230138   1.072   5.345   0.632 -0.5687  1.9686 -1.0932
 7593SOL    HW330139   1.028   5.444   0.737 -2.1789  1.8898 -1.6640
 7593SOL    MW430140   1.015   5.370   0.693 -0.5500  0.9236 -0.6147
 7594SOL     OW30141   4.411   6.284   1.754 -0.5801  0.4027  0.0433
 7594SOL    HW230142   4.497   6.271   1.795 -0.4737  0.2662 -0.2215
 7594SOL    HW330143   4.379   6.366   1.793 -0.6311  0.0975  0.6455
 7594SOL    MW430144   4.418   6.293   1.764 -0.5728  0.3445  0.0878
 7595SOL     OW30145   4.453   2.952   2.006 -0.0777 -0.2863  0.0651
 7595SOL    HW230146   4.421   3.040   1.987  0.3538 -0.3472 -1.0613
 7595SOL    HW330147   4.375   2.903   2.033 -0.5183  0.1584 -0.3799
 7595SOL    MW430148   4.439   2.957   2.007 -0.0789 -0.2357 -0.1422
 7596SOL     OW30149   0.859   0.887   2.063  0.6938 -0.2222  0.2028
 7596SOL    HW230150   0.771   0.861   2.090  0.0149  0.4939 -1.2076
 7596SOL    HW330151   0.876   0.833   1.986  1.8707 -0.9742  0.9556
 7596SOL    MW430152   0.849   0.876   2.056  0.7595 -0.2269  0.1160
 7597SOL     OW30153   6.198   0.115   6.109  0.1182  0.4779 -1.1302
 7597SOL    HW230154   6.147   0.104   6.030  0.1930 -0.4087 -1.0643
 7597SOL    HW330155   6.207   0.027   6.145  0.4980  0.8014 -0.3968
 7597SOL    MW430156   6.193   0.102   6.104  0.1782  0.4036 -1.0247
 7598SOL     OW30157   1.264   6.191   0.436  0.3005 -0.1845  0.2284
 7598SOL    HW230158   1.333   6.257   0.427 -0.9177  0.9872 -1.0113
 7598SOL    HW330159   1.262   6.148   0.351 -0.7095  0.0245  0.1406
 7598SOL    MW430160   1.273   6.194   0.424  0.0065 -0.0023  0.0533
 7599SOL     OW30161   5.660   3.466   1.287 -0.5665  0.0705  0.4418
 7599SOL    HW230162   5.677   3.542   1.343  1.0960 -0.7181  1.1036
 7599SOL    HW330163   5.743   3.450   1.242 -0.9981 -1.1115  0.0115
 7599SOL    MW430164   5.673   3.474   1.289 -0.4041 -0.1895  0.4723
 7600SOL     OW30165   2.109   3.924   4.770  0.1405  0.0717 -0.0651
 7600SOL    HW230166   2.102   3.906   4.864  1.1791 -0.0748 -0.0109
 7600SOL    HW330167   2.021   3.907   4.737 -0.0718 -0.5399  0.7657
 7600SOL    MW430168   2.096   3.920   4.778  0.2495 -0.0283  0.0517
 7601SOL     OW30169   2.179   1.902   1.076  0.3814 -0.1185 -0.4394
 7601SOL    HW230170   2.202   1.955   1.000 -0.2693  0.3820 -0.3024
 7601SOL    HW330171   2.141   1.964   1.138 -0.0142 -0.6758 -0.1086
 7601SOL    MW430172   2.177   1.917   1.074  0.2433 -0.1260 -0.3777
 7602SOL     OW30173   0.520   6.026   2.678 -0.3609 -0.5600  0.0687
 7602SOL    HW230174   0.497   6.102   2.731 -3.9535 -0.9151 -0.7439
 7602SOL    HW330175   0.576   6.061   2.608  0.7722  0.6604  1.5132
 7602SOL    MW430176   0.524   6.041   2.676 -0.6854 -0.4459  0.1521
 7603SOL     OW30177   3.334   5.959   2.388  0.2355 -0.3028 -0.0663
 7603SOL    HW230178   3.339   6.043   2.341 -3.1968 -0.4216 -0.9331
 7603SOL    HW330179   3.249   5.962   2.432  2.1629 -1.2885  4.2332
 7603SOL    MW430180   3.323   5.971   2.388  0.0370 -0.4485  0.3866
 7604SOL     OW30181   5.803   2.917   6.406  0.7400  0.3715  0.2430
 7604SOL    HW230182   5.756   2.990   6.365 -1.0970  0.9615  3.0963
 7604SOL    HW330183   5.734   2.858   6.435  2.1189 -1.6419 -0.3905
 7604SOL    MW430184   5.788   2.919   6.405  0.6795  0.1837  0.5359
 7605SOL     OW30185   3.443   6.036   3.014  0.0361  0.2496 -0.4606
 7605SOL    HW230186   3.397   6.119   3.030  2.0281  1.2152  0.7302
 7605SOL    HW330187   3.428   5.985   3.093  0.0398  0.0978 -0.5585
 7605SOL    MW430188   3.435   6.040   3.027  0.2994  0.3570 -0.3164
 7606SOL     OW30189   5.715   5.479   5.570  0.3554  0.5422  0.4222
 7606SOL    HW230190   5.642   5.513   5.621 -0.3428  1.1349 -0.9180
 7606SOL    HW330191   5.768   5.556   5.549  0.1004  0.4779 -0.5398
 7606SOL    MW430192   5.712   5.494   5.574  0.2297  0.6119  0.1185
 7607SOL     OW30193   1.401   5.712   4.531  0.0870  0.1026  0.2060
 7607SOL    HW230194   1.309   5.713   4.558 -0.8579 -1.3959 -2.5460
 7607SOL    HW330195   1.399   5.678   4.442  3.3079  0.4989 -0.1251
 7607SOL    MW430196   1.389   5.708   4.523  0.3873 -0.0428 -0.2008
 7608SOL     OW30197   1.030   0.281   4.246  0.4484 -0.2225  0.2075
 7608SOL    HW230198   1.003   0.241   4.329 -1.4813  0.2130 -0.1519
 7608SOL    HW330199   0.981   0.231   4.180  1.8841 -0.4964 -0.6726
 7608SOL    MW430200   1.020   0.269   4.248  0.3832 -0.2012  0.0439
 7609SOL     OW30201   3.356   3.263   5.787 -0.3433  0.1501 -0.4152
 7609SOL    HW230202   3.342   3.212   5.708 -0.0637 -0.1406 -0.2815
 7609SOL    HW330203   3.329   3.352   5.764 -1.7635 -0.2451 -0.3554
 7609SOL    MW430204   3.350   3.268   5.774 -0.4938  0.0596 -0.3897
 7610SOL     OW30205   3.793   5.653   6.014  0.1252  0.1357 -0.0156
 7610SOL    HW230206   3.811   5.692   5.928  0.8600  0.2618  0.1905
 7610SOL    HW330207   3.709   5.609   6.003  0.1432  0.2764 -0.7611
 7610SOL    MW430208   3.784   5.652   6.001  0.2245  0.1709 -0.0868
 7611SOL     OW30209   4.991   5.560   1.097 -0.0642 -0.2792 -0.1190
 7611SOL    HW230210   4.924   5.493   1.096 -0.9540  0.5815 -1.2809
 7611SOL    HW330211   4.951   5.635   1.054  0.9787  0.9306  0.9127
 7611SOL    MW430212   4.977   5.561   1.091 -0.0440 -0.0060 -0.1361
 7612SOL     OW30213   1.125   4.192   2.824 -0.3973 -0.3581 -0.3266
 7612SOL    HW230214   1.098   4.284   2.820 -0.2208 -0.0482  2.9334
 7612SOL    HW330215   1.048   4.143   2.793 -1.4231  0.8241  0.2663
 7612SOL    MW430216   1.111   4.198   2.819 -0.5093 -0.1613  0.1817
 7613SOL     OW30217   3.867   5.445   3.172  0.1493  0.1224 -0.2478
 7613SOL    HW230218   3.903   5.418   3.257 -0.7617 -1.6483 -0.4019
 7613SOL    HW330219   3.895   5.377   3.111  0.0969  0.9581 -1.2268
 7613SOL    MW430220   3.876   5.433   3.175  0.0222 -0.0010 -0.3973
 7614SOL     OW30221   4.088   5.114   4.119 -0.2133 -0.3087  0.4248
 7614SOL    HW230222   3.999   5.129   4.088  0.1830 -0.6432 -0.9094
 7614SOL    HW330223   4.138   5.189   4.086  0.0713 -0.2702  0.9249
 7614SOL    MW430224   4.083   5.126   4.111 -0.1235 -0.3478  0.3147
 7615SOL     OW30225   0.509   5.407   6.079  0.0010 -0.0977  0.5582
 7615SOL    HW230226   0.447   5.370   6.141  0.0614 -1.7797 -0.3288
 7615SOL    HW330227   0.548   5.482   6.125 -2.5746  0.9533  1.1669
 7615SOL    MW430228   0.506   5.412   6.093 -0.3308 -0.1810  0.5215
 7616SOL     OW30229   0.076   3.183   3.678 -0.8042  0.0941 -0.5332
 7616SOL    HW230230   0.106   3.270   3.650  1.1837 -0.1295  0.7463
 7616SOL    HW330231   0.012   3.158   3.611  1.0533  1.0936 -2.8405
 7616SOL    MW430232   0.071   3.191   3.665 -0.2969  0.1964 -0.6688
 7617SOL     OW30233   2.006   4.383   1.882 -0.1529 -0.1250  0.1377
 7617SOL    HW230234   1.975   4.441   1.952  0.1532 -0.1158  0.2705
 7617SOL    HW330235   2.072   4.435   1.836 -0.2803 -0.1685 -0.0962
 7617SOL    MW430236   2.011   4.397   1.886 -0.1294 -0.1295  0.1243
 7618SOL     OW30237   6.335   1.487   3.609  0.0872  0.2470 -0.4927
 7618SOL    HW230238   6.268   1.419   3.623  0.1623  0.3111  0.2103
 7618SOL    HW330239   6.289   1.569   3.627 -0.1977  0.4566 -2.0289
 7618SOL    MW430240   6.320   1.489   3.614  0.0595  0.2831 -0.6026
 7619SOL     OW30241   3.170   6.392   5.230  0.0128  0.6095  0.3766
 7619SOL    HW230242   3.225   6.441   5.170  0.1467  0.0553  0.0320
 7619SOL    HW330243   3.081   6.424   5.215  0.2555  1.6629  1.0927
 7619SOL    MW430244   3.166   6.402   5.220  0.0625  0.6753  0.4256
 7620SOL     OW30245   1.119   6.086   5.344  0.3216  0.5614  0.8501
 7620SOL    HW230246   1.047   6.128   5.391  0.3784  2.0105 -0.2819
 7620SOL    HW330247   1.178   6.056   5.413 -1.6047 -1.2131  1.8334
 7620SOL    MW430248   1.117   6.088   5.360  0.0749  0.5185  0.8305
 7621SOL     OW30249   2.621   3.384   1.725 -0.5802 -0.0229 -0.0294
 7621SOL    HW230250   2.536   3.416   1.696 -0.7870  1.1620  1.7865
 7621SOL    HW330251   2.641   3.435   1.803  1.7538 -0.3557 -0.3393
 7621SOL    MW430252   2.613   3.395   1.731 -0.2996  0.0895  0.1693
 7622SOL     OW30253   3.280   2.832   5.803 -0.1932 -0.2758 -0.3424
 7622SOL    HW230254   3.324   2.850   5.886 -1.4819  0.3748  0.2274
 7622SOL    HW330255   3.212   2.769   5.826  0.0727 -0.8467 -1.1035
 7622SOL    MW430256   3.277   2.826   5.817 -0.3281 -0.2653 -0.3676
 7623SOL     OW30257   5.564   3.220   1.258 -0.7491  0.2141 -0.0179
 7623SOL    HW230258   5.591   3.312   1.260  1.1390 -0.2908  0.2805
 7623SOL    HW330259   5.526   3.204   1.344 -2.1476  0.9835 -0.4748
 7623SOL    MW430260   5.563   3.230   1.270 -0.6845  0.2490 -0.0388
 7624SOL     OW30261   5.025   4.819   4.922  0.4548 -0.4617 -0.1190
 7624SOL    HW230262   5.062   4.732   4.931  0.0024 -0.6366  0.0732
 7624SOL    HW330263   4.995   4.842   5.010 -0.3255 -0.5246 -0.3547
 7624SOL    MW430264   5.026   4.811   4.935  0.2921 -0.4931 -0.1247
 7625SOL     OW30265   5.596   2.038   2.632 -0.2317  0.4851 -0.2674
 7625SOL    HW230266   5.527   1.984   2.670  0.4864  0.0212  0.4031
 7625SOL    HW330267   5.641   1.980   2.571 -1.9379  1.4555 -2.6440
 7625SOL    MW430268   5.593   2.024   2.629 -0.3621  0.5520 -0.4925
 7626SOL     OW30269   2.345   5.429   3.666  0.1785  0.1193 -0.2540
 7626SOL    HW230270   2.336   5.523   3.650 -1.9326  0.1482  0.7202
 7626SOL    HW330271   2.265   5.405   3.714 -0.0313 -2.4465 -1.7148
 7626SOL    MW430272   2.333   5.438   3.671 -0.1277 -0.2154 -0.3182
 7627SOL     OW30273   3.504   6.400   0.688 -0.0772 -0.1941  0.2681
 7627SOL    HW230274   3.492   6.370   0.778  1.5030  0.4786  0.7265
 7627SOL    HW330275   3.458   6.483   0.684 -0.1569 -0.2296  0.4484
 7627SOL    MW430276   3.496   6.407   0.699  0.1208 -0.1100  0.3524
 7628SOL     OW30277   4.500   4.813   0.395  0.1892  0.2989  0.5277
 7628SOL    HW230278   4.584   4.824   0.351  0.0643 -0.3875  0.0977
 7628SOL    HW330279   4.510   4.732   0.445  0.7392  1.6420  2.7624
 7628SOL    MW430280   4.512   4.804   0.396  0.2453  0.3856  0.7658
 7629SOL     OW30281   4.444   5.339   5.765  0.6054  0.1424  0.3511
 7629SOL    HW230282   4.439   5.399   5.691  1.0087 -0.4010 -0.1288
 7629SOL    HW330283   4.531   5.299   5.758  0.4573 -0.2810  0.8244
 7629SOL    MW430284   4.455   5.341   5.754  0.6391  0.0149  0.3502
 7630SOL     OW30285   1.657   2.690   0.602 -0.5749 -0.6599  0.4458
 7630SOL    HW230286   1.637   2.699   0.695  2.1206  2.1384  0.9044
 7630SOL    HW330287   1.718   2.616   0.598  0.0456 -0.2034  1.0900
 7630SOL    MW430288   1.662   2.681   0.614 -0.1374 -0.2305  0.5913
 7631SOL     OW30289   2.667   0.834   2.316 -0.4411 -0.1612 -0.4363
 7631SOL    HW230290   2.577   0.855   2.288 -0.8718  0.5174  1.3248
 7631SOL    HW330291   2.682   0.746   2.283 -1.7161 -0.2523 -0.8543
 7631SOL    MW430292   2.657   0.825   2.308 -0.6661 -0.0837 -0.2591
 7632SOL     OW30293   5.618   5.798  -0.020 -0.5441  0.2299 -0.1316
 7632SOL    HW230294   5.647   5.732  -0.083  2.5963  0.3776  0.9694
 7632SOL    HW330295   5.598   5.749   0.059  0.2342  0.4277  0.1978
 7632SOL    MW430296   5.619   5.783  -0.018 -0.0271  0.2755  0.0571
 7633SOL     OW30297   2.841   4.683   5.736 -0.0977  0.2228  1.4663
 7633SOL    HW230298   2.900   4.737   5.789  1.7222  1.4542 -1.5673
 7633SOL    HW330299   2.765   4.739   5.721 -0.1805  0.2377  1.9051
 7633SOL    MW430300   2.839   4.697   5.741  0.1315  0.3872  1.1240
 7634SOL     OW30301   0.678   2.663   2.150 -0.3198  0.4572  0.2933
 7634SOL    HW230302   0.690   2.681   2.243  1.7447  1.5844 -0.1200
 7634SOL    HW330303   0.722   2.579   2.136 -0.5011  0.3593  0.3140
 7634SOL    MW430304   0.686   2.655   2.161 -0.0713  0.5930  0.2415
 7635SOL     OW30305   0.641   1.807   2.081  0.2338  0.1624  0.2975
 7635SOL    HW230306   0.588   1.780   2.157  1.6319  0.5364  1.4496
 7635SOL    HW330307   0.705   1.868   2.117  1.6632 -0.5143 -0.9914
 7635SOL    MW430308   0.642   1.812   2.096  0.6069  0.1225  0.2795
 7636SOL     OW30309   4.844   3.142   4.892  0.9363  0.2694 -0.3562
 7636SOL    HW230310   4.889   3.094   4.823  0.8799 -0.2342 -0.0515
 7636SOL    HW330311   4.771   3.085   4.918  1.5845 -0.0554  0.8548
 7636SOL    MW430312   4.840   3.128   4.887  1.0144  0.1601 -0.1562
 7637SOL     OW30313   0.330   3.430   5.958  0.2692 -0.3237 -0.4822
 7637SOL    HW230314   0.360   3.464   5.873 -1.0283 -2.0463 -1.6978
 7637SOL    HW330315   0.262   3.491   5.986 -0.1499 -0.3996 -1.3003
 7637SOL    MW430316   0.325   3.443   5.950  0.0427 -0.5610 -0.7506
 7638SOL     OW30317   4.844   0.880   1.762 -0.4956 -0.2909  0.2548
 7638SOL    HW230318   4.852   0.808   1.826 -0.9461 -0.2774  0.3304
 7638SOL    HW330319   4.929   0.925   1.766  0.0323 -1.2006 -0.2578
 7638SOL    MW430320   4.857   0.876   1.771 -0.4854 -0.4092  0.1971
 7639SOL     OW30321   2.061   0.336   2.398  0.0923  0.1432  0.5340
 7639SOL    HW230322   2.014   0.253   2.409 -0.4742  0.4005  0.0925
 7639SOL    HW330323   2.049   0.382   2.480 -2.3244  1.1594 -0.3123
 7639SOL    MW430324   2.054   0.331   2.410 -0.3013  0.3112  0.3641
 7640SOL     OW30325   5.847   4.064   2.623  0.3572 -0.0615  0.5871
 7640SOL    HW230326   5.809   4.091   2.539  0.4338  1.5760  1.0475
 7640SOL    HW330327   5.774   4.071   2.685 -0.0421 -2.4758  0.5003
 7640SOL    MW430328   5.832   4.068   2.620  0.3146 -0.1640  0.6364
 7641SOL     OW30329   0.116   2.378   0.239  0.0354 -0.1807  0.5379
 7641SOL    HW230330   0.048   2.388   0.306  0.9405 -1.7383  1.7747
 7641SOL    HW330331   0.181   2.444   0.262  0.3322 -0.6951  1.1953
 7641SOL    MW430332   0.115   2.388   0.251  0.1940 -0.4541  0.7878
 7642SOL     OW30333   3.775   2.500   1.374  0.6212  0.2361  0.2805
 7642SOL    HW230334   3.773   2.549   1.291  0.7423  1.1028  0.7774
 7642SOL    HW330335   3.831   2.424   1.355  0.4055  0.2641 -0.5147
 7642SOL    MW430336   3.782   2.496   1.360  0.6087  0.3541  0.2411
 7643SOL     OW30337   2.925   3.590   3.569 -0.3967 -0.0741 -0.0988
 7643SOL    HW230338   2.891   3.593   3.658  1.5249  0.7188  0.6635
 7643SOL    HW330339   2.950   3.681   3.550  0.8823 -0.5361 -0.7332
 7643SOL    MW430340   2.924   3.602   3.578  0.0255 -0.0305 -0.0819
 7644SOL     OW30341   4.260   0.234   2.203  0.0015 -0.3099 -0.1119
 7644SOL    HW230342   4.304   0.253   2.286 -0.0738 -2.7061  0.5370
 7644SOL    HW330343   4.206   0.312   2.187  0.3352  0.4057  1.8611
 7644SOL    MW430344   4.259   0.247   2.212  0.0356 -0.5316  0.2340
 7645SOL     OW30345   4.747   1.462   2.696 -0.3709 -0.2896 -0.0497
 7645SOL    HW230346   4.683   1.529   2.672 -0.4746 -0.1232  0.6670
 7645SOL    HW330347   4.744   1.399   2.624 -1.5202 -0.4071  0.0843
 7645SOL    MW430348   4.738   1.463   2.683 -0.5362 -0.2831  0.0625
 7646SOL     OW30349   4.006   5.644   2.993  0.5973 -0.0488  0.1075
 7646SOL    HW230350   3.946   5.611   3.060  0.6298 -0.5047 -0.0887
 7646SOL    HW330351   3.981   5.736   2.981 -1.0475 -0.6158 -1.0429
 7646SOL    MW430352   3.995   5.652   3.000  0.3846 -0.1837 -0.0702
 7647SOL     OW30353   0.852   2.704   5.556 -0.5385  0.4971 -0.2502
 7647SOL    HW230354   0.792   2.750   5.615 -1.2047  0.4417 -0.8763
 7647SOL    HW330355   0.812   2.712   5.470 -0.9357 -1.6661 -0.3294
 7647SOL    MW430356   0.839   2.711   5.553 -0.6788  0.2044 -0.3433
 7648SOL     OW30357   1.883   2.540   4.780  0.6313  0.0102  0.2310
 7648SOL    HW230358   1.903   2.467   4.838  0.1793 -0.3567 -0.0606
 7648SOL    HW330359   1.806   2.581   4.819  0.8394  0.2891  0.3528
 7648SOL    MW430360   1.875   2.536   4.793  0.5991 -0.0014  0.2086
 7649SOL     OW30361   3.585   6.285   5.055 -0.1466 -0.2036 -0.0678
 7649SOL    HW230362   3.674   6.256   5.076 -0.1059 -0.2588 -0.3148
 7649SOL    HW330363   3.575   6.368   5.102  0.0975 -0.1092 -0.1807
 7649SOL    MW430364   3.595   6.292   5.064 -0.1090 -0.1984 -0.1153
 7650SOL     OW30365   2.795   1.202   2.212 -0.0447  0.5907 -0.4313
 7650SOL    HW230366   2.847   1.276   2.182 -0.3587  1.0319  0.0773
 7650SOL    HW330367   2.853   1.153   2.270 -0.3773  1.4537  0.6726
 7650SOL    MW430368   2.809   1.205   2.216 -0.1300  0.7627 -0.2186
 7651SOL     OW30369   0.175   1.073   5.595 -0.2507  0.0352 -0.3262
 7651SOL    HW230370   0.182   1.109   5.684  0.3627  0.5971 -0.5924
 7651SOL    HW330371   0.091   1.028   5.594 -0.2786  0.0571  0.5321
 7651SOL    MW430372   0.164   1.072   5.607 -0.1734  0.1123 -0.2481
 7652SOL     OW30373  -0.040   2.827   5.191 -0.4294 -0.0698 -0.4176
 7652SOL    HW230374   0.003   2.770   5.255 -1.3336 -0.3802 -0.0683
 7652SOL    HW330375  -0.004   2.914   5.209 -1.5253  0.0775  1.3349
 7652SOL    MW430376  -0.029   2.831   5.202 -0.6933 -0.0913 -0.1403
 7653SOL     OW30377   5.815   4.875   0.179 -0.3872  0.2729  0.0921
 7653SOL    HW230378   5.876   4.938   0.218 -0.9321  0.3431  0.8549
 7653SOL    HW330379   5.867   4.830   0.112  0.2445  0.9508  0.1117
 7653SOL    MW430380   5.830   4.877   0.176 -0.3758  0.3716  0.1953
 7654SOL     OW30381   0.151   3.213   5.747 -0.1519  0.0637  0.2099
 7654SOL    HW230382   0.120   3.208   5.657  2.4280  2.7685 -0.9846
 7654SOL    HW330383   0.093   3.277   5.789 -0.5739 -0.2477  0.1071
 7654SOL    MW430384   0.139   3.221   5.741  0.1328  0.3795  0.0388
 7655SOL     OW30385   5.933   0.625   3.163 -0.3550  0.0203 -0.7798
 7655SOL    HW230386   5.882   0.646   3.084 -1.9578 -2.4856 -0.5149
 7655SOL    HW330387   5.903   0.689   3.227 -2.0396 -0.3582 -1.1171
 7655SOL    MW430388   5.922   0.636   3.161 -0.7887 -0.3602 -0.7893
 7656SOL     OW30389   5.332   0.963   1.280 -0.1953 -0.7437 -0.5646
 7656SOL    HW230390   5.238   0.944   1.278 -0.0388 -1.5147 -1.1067
 7656SOL    HW330391   5.364   0.931   1.196  0.2642  1.1302 -1.1361
 7656SOL    MW430392   5.324   0.956   1.269 -0.1140 -0.5982 -0.7116
 7657SOL     OW30393   2.790   6.329   4.772  0.3491 -0.3754 -0.0244
 7657SOL    HW230394   2.810   6.410   4.818  1.0278  0.1691 -1.2246
 7657SOL    HW330395   2.766   6.357   4.683  1.8273 -1.5245 -0.8474
 7657SOL    MW430396   2.789   6.344   4.766  0.6337 -0.4552 -0.2913
 7658SOL     OW30397   5.762   2.096   1.793  0.4668 -0.3895  0.3206
 7658SOL    HW230398   5.724   2.122   1.877 -0.9684  1.9147 -0.9361
 7658SOL    HW330399   5.790   2.005   1.807 -1.8314 -0.8759  2.6024
 7658SOL    MW430400   5.760   2.087   1.806 -0.0258 -0.1497  0.4559
 7659SOL     OW30401   1.106   1.600   3.334 -0.1664  0.5416  0.1826
 7659SOL    HW230402   1.132   1.533   3.397  0.5567  1.6608  1.1353
 7659SOL    HW330403   1.012   1.585   3.320  0.2755 -1.5966 -0.8388
 7659SOL    MW430404   1.097   1.590   3.341 -0.0127  0.4071  0.1735
 7660SOL     OW30405   3.365   4.545   5.355  0.3515 -0.5765  0.4018
 7660SOL    HW230406   3.456   4.548   5.325  0.2795  0.0327  0.2283
 7660SOL    HW330407   3.365   4.591   5.438  0.0064  0.4413 -0.1444
 7660SOL    MW430408   3.377   4.551   5.362  0.2965 -0.3618  0.3068
 7661SOL     OW30409   1.410   5.871   3.202  0.3510 -0.5630 -0.4511
 7661SOL    HW230410   1.366   5.955   3.188  2.0248  0.2426 -1.0565
 7661SOL    HW330411   1.370   5.837   3.283 -1.2201  0.2015 -0.8498
 7661SOL    MW430412   1.399   5.878   3.211  0.3646 -0.3559 -0.5835
 7662SOL     OW30413   3.328   5.196   4.048  0.3899 -0.2967  0.4102
 7662SOL    HW230414   3.282   5.257   3.990  1.0433  0.1061  0.3037
 7662SOL    HW330415   3.316   5.111   4.007 -0.3559 -0.2189  0.4463
 7662SOL    MW430416   3.320   5.193   4.035  0.3777 -0.2333  0.4009
 7663SOL     OW30417   5.882   2.322   1.689 -0.4059  0.7968  0.1660
 7663SOL    HW230418   5.974   2.309   1.715 -0.5577  0.5145  0.5848
 7663SOL    HW330419   5.839   2.241   1.716 -0.5095  0.3417 -1.3010
 7663SOL    MW430420   5.889   2.309   1.696 -0.4396  0.6995  0.0277
 7664SOL     OW30421   1.933   3.493   2.131 -0.0371 -0.1903  0.4232
 7664SOL    HW230422   2.005   3.433   2.148 -0.7857 -0.7865  1.6513
 7664SOL    HW330423   1.865   3.439   2.090  0.6005  0.6060 -1.8567
 7664SOL    MW430424   1.933   3.478   2.128 -0.0517 -0.1639  0.2844
 7665SOL     OW30425   5.446   0.157   0.315 -0.0945 -0.3620  0.1487
 7665SOL    HW230426   5.448   0.194   0.403  0.8227 -0.1466  0.0452
 7665SOL    HW330427   5.477   0.228   0.258  0.4160 -0.8667 -0.2094
 7665SOL    MW430428   5.450   0.172   0.319  0.0939 -0.4002  0.0878
 7666SOL     OW30429   0.647   5.859   1.215 -0.1998  0.4056  0.6899
 7666SOL    HW230430   0.639   5.797   1.143 -1.8543 -0.4397  1.5400
 7666SOL    HW330431   0.643   5.945   1.174 -2.0208 -0.0578 -0.1904
 7666SOL    MW430432   0.645   5.862   1.200 -0.6584  0.2329  0.6859
 7667SOL     OW30433   1.672   6.405   0.860 -0.3427 -0.3830 -0.5579
 7667SOL    HW230434   1.695   6.439   0.946 -2.3752 -1.0324  0.3069
 7667SOL    HW330435   1.676   6.310   0.870 -1.3364 -0.4742 -0.9467
 7667SOL    MW430436   1.676   6.397   0.873 -0.7420 -0.4807 -0.4951
 7668SOL     OW30437   2.313   5.722   3.613 -0.7983 -0.8398 -0.3496
 7668SOL    HW230438   2.230   5.709   3.568  0.1467 -0.7564 -2.2032
 7668SOL    HW330439   2.311   5.814   3.639 -0.4700 -0.2622 -2.2214
 7668SOL    MW430440   2.302   5.732   3.610 -0.6303 -0.7526 -0.8411
 7669SOL     OW30441   2.006   2.871   0.463  0.2166  0.0340 -0.2285
 7669SOL    HW230442   2.029   2.954   0.419 -1.1363  0.5622  0.0071
 7669SOL    HW330443   2.060   2.870   0.541  0.7014  0.3971 -0.5542
 7669SOL    MW430444   2.016   2.882   0.467  0.1020  0.1516 -0.2404
 7670SOL     OW30445   1.554   6.306   0.510 -0.4550 -0.3193  0.4316
 7670SOL    HW230446   1.629   6.324   0.568 -0.9521  0.7307  0.7680
 7670SOL    HW330447   1.541   6.212   0.517 -0.2379 -0.2778  1.7271
 7670SOL    MW430448   1.562   6.296   0.519 -0.4920 -0.1753  0.6469
 7671SOL     OW30449   3.875   2.147   4.288  0.1320  0.3727  0.0679
 7671SOL    HW230450   3.786   2.116   4.301  0.1820  0.2762  0.1840
 7671SOL    HW330451   3.885   2.220   4.349  0.2496  0.1504  0.3180
 7671SOL    MW430452   3.865   2.152   4.298  0.1541  0.3307  0.1162
 7672SOL     OW30453   4.699   4.581   4.744 -0.5121  0.2361 -0.2094
 7672SOL    HW230454   4.688   4.675   4.760 -1.2896 -0.2602  2.9746
 7672SOL    HW330455   4.785   4.573   4.705 -0.2941  2.2595 -0.2570
 7672SOL    MW430456   4.709   4.593   4.741 -0.5859  0.4376  0.2044
 7673SOL     OW30457   2.148   1.528   3.385 -0.1753  0.0633 -0.5857
 7673SOL    HW230458   2.226   1.559   3.339 -1.5683  1.2633 -2.2886
 7673SOL    HW330459   2.170   1.439   3.413  2.3722  0.9750  0.4978
 7673SOL    MW430460   2.161   1.520   3.382 -0.0230  0.3419 -0.6674
 7674SOL     OW30461   0.981   5.925   4.403  0.0496  0.2671 -0.2821
 7674SOL    HW230462   0.910   5.953   4.460  1.1778  1.0613  0.7859
 7674SOL    HW330463   1.059   5.969   4.438  0.6346  1.6963 -3.1036
 7674SOL    MW430464   0.982   5.934   4.415  0.2756  0.5604 -0.5135
 7675SOL     OW30465   0.327   3.470   4.225 -0.2685 -0.4158 -0.2781
 7675SOL    HW230466   0.275   3.468   4.144 -0.7852  2.3569 -0.1066
 7675SOL    HW330467   0.263   3.483   4.295  0.1447 -3.0379  0.7192
 7675SOL    MW430468   0.311   3.472   4.223 -0.2822 -0.3959 -0.1239
 7676SOL     OW30469   6.363   4.277   6.056  0.0094  0.3601 -0.1048
 7676SOL    HW230470   6.433   4.250   5.996 -0.8321 -1.4188 -0.3668
 7676SOL    HW330471   6.287   4.289   5.999 -0.7333 -1.0938  0.5317
 7676SOL    MW430472   6.362   4.275   6.041 -0.1996 -0.0664 -0.0554
 7677SOL     OW30473   6.365   1.522   3.954 -0.4923  0.2486  0.3737
 7677SOL    HW230474   6.298   1.457   3.973  0.3127 -0.2970  1.5216
 7677SOL    HW330475   6.338   1.600   4.002 -0.7695  0.3298  0.0875
 7677SOL    MW430476   6.353   1.524   3.963 -0.4226  0.1874  0.4874
 7678SOL     OW30477   5.663   5.094   4.094  0.2587 -0.0447  0.3946
 7678SOL    HW230478   5.659   5.048   4.011  0.2473  0.6726 -0.0087
 7678SOL    HW330479   5.710   5.034   4.153 -1.3942 -1.3722  0.4370
 7678SOL    MW430480   5.669   5.080   4.091  0.0391 -0.1252  0.3470
 7679SOL     OW30481   6.317   4.080   4.653 -0.3557  0.7507  0.0947
 7679SOL    HW230482   6.357   4.045   4.574 -1.3640 -0.6397  0.1610
 7679SOL    HW330483   6.231   4.038   4.657 -0.2492  0.6314  2.0190
 7679SOL    MW430484   6.311   4.070   4.643 -0.4747  0.5515  0.3573
 7680SOL     OW30485   6.152   3.270   5.123 -0.4519 -0.0336 -0.4887
 7680SOL    HW230486   6.148   3.364   5.139 -0.5734 -0.2030  0.5671
 7680SOL    HW330487   6.190   3.262   5.036  0.1497  0.9796 -0.3401
 7680SOL    MW430488   6.157   3.281   5.114 -0.3885  0.0778 -0.3298
 7681SOL     OW30489   5.946   1.652   5.458  0.0533  0.7953 -0.3342
 7681SOL    HW230490   5.983   1.724   5.508  1.5249  0.6360 -1.1521
 7681SOL    HW330491   5.902   1.694   5.384 -0.6970  0.9350  0.1778
 7681SOL    MW430492   5.945   1.667   5.455  0.1485  0.7927 -0.3746
 7682SOL     OW30493   2.347   6.020   2.288 -0.5304  0.2598 -0.6114
 7682SOL    HW230494   2.404   6.088   2.251 -0.0442  0.0305 -0.3028
 7682SOL    HW330495   2.277   6.009   2.224  0.9534 -1.0128 -2.1208
 7682SOL    MW430496   2.346   6.027   2.275 -0.2705  0.0617 -0.7698
 7683SOL     OW30497   0.543   0.776   3.058  0.3509 -0.1307 -0.2959
 7683SOL    HW230498   0.523   0.783   3.152  0.3017  0.2593 -0.3341
 7683SOL    HW330499   0.609   0.843   3.043 -1.4405  1.5509 -1.0362
 7683SOL    MW430500   0.549   0.786   3.069  0.1080  0.1426 -0.3986
 7684SOL     OW30501   4.603   5.751   2.293 -0.2531 -0.2898 -0.6130
 7684SOL    HW230502   4.687   5.758   2.339 -0.7008 -0.7270  0.2833
 7684SOL    HW330503   4.627   5.729   2.203  0.5913 -0.5196 -0.3408
 7684SOL    MW430504   4.617   5.749   2.287 -0.2008 -0.3778 -0.4589
 7685SOL     OW30505   1.033   2.128   5.683 -0.5892  0.1166 -0.5929
 7685SOL    HW230506   1.061   2.207   5.636 -1.1539  0.8753  0.3141
 7685SOL    HW330507   1.115   2.091   5.717 -0.2390 -0.1277 -1.6746
 7685SOL    MW430508   1.048   2.134   5.682 -0.6175  0.1845 -0.6160
 7686SOL     OW30509   1.058   0.357   4.748 -0.4228  0.3108  0.2176
 7686SOL    HW230510   0.996   0.294   4.784 -0.7839  0.5606  0.0372
 7686SOL    HW330511   1.141   0.338   4.793 -0.9312  0.8191  1.4070
 7686SOL    MW430512   1.061   0.346   4.759 -0.5375  0.4108  0.3507
 7687SOL     OW30513   0.192   2.881   5.537  0.2795  0.1917 -0.0698
 7687SOL    HW230514   0.162   2.790   5.527 -0.8505  0.4452  0.8070
 7687SOL    HW330515   0.169   2.904   5.627  1.5314  1.0162  0.0654
 7687SOL    MW430516   0.185   2.872   5.548  0.2956  0.3339  0.0637
 7688SOL     OW30517   1.144   5.349   2.813  0.5357 -0.2516 -0.4043
 7688SOL    HW230518   1.148   5.435   2.856 -1.7297 -0.4971  0.4386
 7688SOL    HW330519   1.179   5.288   2.877 -0.3233 -0.2758  0.0499
 7688SOL    MW430520   1.149   5.353   2.827  0.1235 -0.2872 -0.2332
 7689SOL     OW30521   0.367   2.446   2.876 -0.5681 -0.3195 -0.3072
 7689SOL    HW230522   0.329   2.440   2.788 -1.1256 -0.7353 -0.0518
 7689SOL    HW330523   0.291   2.440   2.935 -0.0956 -1.3416  0.2253
 7689SOL    MW430524   0.352   2.444   2.872 -0.5793 -0.5092 -0.2033
 7690SOL     OW30525   2.138   1.681   6.244  0.6234  0.6564 -0.8732
 7690SOL    HW230526   2.179   1.603   6.206  1.7035  1.1261 -0.7026
 7690SOL    HW330527   2.146   1.748   6.176  1.9428  1.3033 -0.1137
 7690SOL    MW430528   2.145   1.679   6.230  0.9400  0.8037 -0.7504
 7691SOL     OW30529   4.147   3.852   5.365 -0.1450 -0.2435  0.4381
 7691SOL    HW230530   4.108   3.765   5.366 -0.0789 -0.2766  0.1088
 7691SOL    HW330531   4.149   3.877   5.273  1.4810 -0.6517  0.3300
 7691SOL    MW430532   4.142   3.844   5.353  0.0783 -0.3017  0.3804
 7692SOL     OW30533   1.670   4.957   2.783  0.5916  0.3789  0.8195
 7692SOL    HW230534   1.575   4.959   2.772  0.5036  3.7397  1.1884
 7692SOL    HW330535   1.702   4.909   2.706 -1.3511 -0.0629  0.2400
 7692SOL    MW430536   1.662   4.951   2.771  0.3237  0.7640  0.7917
 7693SOL     OW30537   1.886   1.142   1.126 -0.0282  0.7829 -0.3273
 7693SOL    HW230538   1.818   1.076   1.112  0.6443  0.0837 -0.3650
 7693SOL    HW330539   1.838   1.223   1.144 -1.0273 -0.5075  4.2357
 7693SOL    MW430540   1.871   1.144   1.127 -0.0713  0.5204  0.2698
 7694SOL     OW30541   2.570   1.198   3.409 -0.0814 -0.3200 -0.0975
 7694SOL    HW230542   2.510   1.229   3.477  1.4711  0.2108  1.1135
 7694SOL    HW330543   2.567   1.102   3.415 -0.1333 -0.2787  0.5695
 7694SOL    MW430544   2.562   1.189   3.419  0.1166 -0.2445  0.1503
 7695SOL     OW30545   4.958   5.387   3.455 -0.2154 -0.2571 -0.0222
 7695SOL    HW230546   4.872   5.388   3.413 -0.2836 -0.3128  0.1163
 7695SOL    HW330547   4.964   5.301   3.497 -0.3561 -0.0161  0.5100
 7695SOL    MW430548   4.947   5.375   3.455 -0.2430 -0.2326  0.0663
 7696SOL     OW30549   3.186   4.994   3.161 -0.6004  0.7460 -0.1600
 7696SOL    HW230550   3.242   4.969   3.234 -0.0288  1.0950 -0.4735
 7696SOL    HW330551   3.128   5.062   3.196 -1.2740 -0.0612  0.3361
 7696SOL    MW430552   3.186   5.000   3.175 -0.6139  0.6856 -0.1359
 7697SOL     OW30553   1.684   1.063   2.303 -0.1335  0.1435 -0.1354
 7697SOL    HW230554   1.695   1.135   2.242  1.2585  1.3029  1.3684
 7697SOL    HW330555   1.684   0.985   2.248 -1.9046  1.2508 -1.8359
 7697SOL    MW430556   1.686   1.062   2.288 -0.1835  0.4425 -0.1613
 7698SOL     OW30557   2.856   5.398   1.502  0.6155 -0.0453  0.2048
 7698SOL    HW230558   2.773   5.359   1.474  1.2575 -0.7774 -0.7905
 7698SOL    HW330559   2.839   5.492   1.506 -0.1638 -0.1513 -0.3563
 7698SOL    MW430560   2.843   5.405   1.499  0.5974 -0.1559 -0.0006
 7699SOL     OW30561   2.554   3.212   3.353  0.0094 -0.2369  0.2954
 7699SOL    HW230562   2.616   3.141   3.336 -1.0574 -0.7735 -1.5715
 7699SOL    HW330563   2.608   3.283   3.388  1.7368 -0.6022 -1.4832
 7699SOL    MW430564   2.570   3.212   3.356  0.0966 -0.3559 -0.1856
 7700SOL     OW30565   0.422   2.299   5.842 -0.6124  0.1871 -0.0409
 7700SOL    HW230566   0.377   2.262   5.918 -0.9286 -0.1981 -0.4113
 7700SOL    HW330567   0.373   2.266   5.767  0.4199 -0.4336 -0.4670
 7700SOL    MW430568   0.410   2.290   5.842 -0.5180  0.0544 -0.1460
 7701SOL     OW30569   5.547   1.845   1.377  0.0000  0.2297 -0.2063
 7701SOL    HW230570   5.507   1.932   1.380  0.9707  0.7263 -0.9277
 7701SOL    HW330571   5.635   1.858   1.414  0.2670 -0.3703 -0.6173
 7701SOL    MW430572   5.554   1.858   1.382  0.1633  0.2161 -0.3557
 7702SOL     OW30573   6.378   4.388   4.769 -0.1572 -0.1739  0.0260
 7702SOL    HW230574   6.283   4.402   4.775 -0.0963 -0.1889  1.4671
 7702SOL    HW330575   6.391   4.298   4.800  0.5044  0.5571  2.0057
 7702SOL    MW430576   6.367   4.378   4.774 -0.0619 -0.0794  0.4773
 7703SOL     OW30577   6.202   1.149   2.711  0.2882 -0.1329 -0.0108
 7703SOL    HW230578   6.242   1.083   2.654  0.4108  0.5304 -0.7197
 7703SOL    HW330579   6.258   1.151   2.788  1.7619  0.8924 -1.0551
 7703SOL    MW430580   6.215   1.141   2.713  0.4988  0.0899 -0.2421
 7704SOL     OW30581   5.024   3.228   5.715 -0.3639  0.0582  0.3679
 7704SOL    HW230582   5.041   3.247   5.808  0.9574 -0.6238  0.2888
 7704SOL    HW330583   5.019   3.132   5.711 -0.7263  0.0985 -0.2239
 7704SOL    MW430584   5.025   3.218   5.727 -0.2374 -0.0265  0.2794
 7705SOL     OW30585   4.551   4.447   0.222 -0.2862  0.6832 -0.8083
 7705SOL    HW230586   4.504   4.518   0.178 -0.8550 -0.3736 -1.9743
 7705SOL    HW330587   4.507   4.367   0.192 -0.4017 -0.1348  1.3690
 7705SOL    MW430588   4.539   4.446   0.212 -0.3765  0.4359 -0.6749
 7706SOL     OW30589   2.339   5.080   2.525 -0.0454 -0.1906 -0.3013
 7706SOL    HW230590   2.339   4.995   2.482 -1.6193 -0.5346  0.2978
 7706SOL    HW330591   2.422   5.084   2.572  0.1642 -1.2772 -0.5723
 7706SOL    MW430592   2.350   5.069   2.526 -0.2254 -0.3793 -0.2580
 7707SOL     OW30593   5.935   2.441   5.666  0.2994 -0.1001 -0.0756
 7707SOL    HW230594   5.846   2.436   5.701  1.3998  0.2015  3.0452
 7707SOL    HW330595   5.930   2.508   5.598 -1.6003  0.9263  0.9940
 7707SOL    MW430596   5.923   2.449   5.662  0.1939  0.0751  0.4773
 7708SOL     OW30597   5.562   4.800   4.479 -0.1470 -0.5968  0.0929
 7708SOL    HW230598   5.560   4.732   4.411 -1.1348 -0.9243  0.4306
 7708SOL    HW330599   5.652   4.797   4.513  0.5605  0.0297 -1.6309
 7708SOL    MW430600   5.574   4.790   4.474 -0.1840 -0.5574 -0.0900
 7709SOL     OW30601   0.639   3.128   5.962 -0.0162  0.8219 -0.4633
 7709SOL    HW230602   0.628   3.205   6.018  1.7217 -0.7312  2.2611
 7709SOL    HW330603   0.696   3.156   5.891 -0.1708  2.2632 -0.0325
 7709SOL    MW430604   0.645   3.142   5.960  0.1927  0.8072 -0.0470
 7710SOL     OW30605   4.968   0.540   2.198 -0.4404  0.4833  1.0517
 7710SOL    HW230606   4.901   0.591   2.152 -0.6767 -0.9896 -0.3577
 7710SOL    HW330607   5.051   0.578   2.171 -0.6416  0.8344  0.9281
 7710SOL    MW430608   4.970   0.552   2.188 -0.4981  0.3353  0.8495
 7711SOL     OW30609   0.916   3.366   2.240  0.3733  0.0044  0.3232
 7711SOL    HW230610   0.895   3.440   2.298  0.8464  0.7706 -0.4612
 7711SOL    HW330611   0.831   3.326   2.221  0.0735  0.5311  0.5157
 7711SOL    MW430612   0.902   3.370   2.245  0.3962  0.1750  0.2451
 7712SOL     OW30613   6.241   5.862   2.817 -0.3024 -0.2411 -0.2135
 7712SOL    HW230614   6.175   5.793   2.808  1.8159 -2.2210 -1.4330
 7712SOL    HW330615   6.225   5.919   2.742  0.9858 -2.2538 -2.1329
 7712SOL    MW430616   6.230   5.860   2.806  0.1470 -0.7679 -0.6276
 7713SOL     OW30617   0.627   3.552   5.150 -0.7639  0.2095  0.4499
 7713SOL    HW230618   0.718   3.581   5.160  0.7362 -4.0394  1.1091
 7713SOL    HW330619   0.582   3.592   5.225  0.5011  2.3252  0.1731
 7713SOL    MW430620   0.633   3.561   5.162 -0.3991 -0.0719  0.5004
 7714SOL     OW30621   2.286   4.873   5.702 -0.5672 -0.5799  0.2618
 7714SOL    HW230622   2.270   4.798   5.759 -0.7777 -0.5420  0.2523
 7714SOL    HW330623   2.226   4.862   5.629  0.8638 -1.5096 -0.8139
 7714SOL    MW430624   2.276   4.862   5.700 -0.4061 -0.6975  0.1186
 7715SOL     OW30625   2.141   2.352   3.677  0.1325 -0.0384  0.2554
 7715SOL    HW230626   2.170   2.265   3.648 -0.3128  0.2111 -0.9822
 7715SOL    HW330627   2.171   2.358   3.768  2.6326 -0.3997 -0.4628
 7715SOL    MW430628   2.149   2.341   3.685  0.4036 -0.0532 -0.0027
 7716SOL     OW30629   4.142   1.968   4.643  0.1962  0.1661 -0.4466
 7716SOL    HW230630   4.131   1.978   4.548  0.7011 -0.3091 -0.5620
 7716SOL    HW330631   4.233   1.993   4.659  0.4741 -0.9086 -0.2637
 7716SOL    MW430632   4.153   1.973   4.632  0.2995 -0.0384 -0.4377
 7717SOL     OW30633   5.137   2.695   0.279  0.4025  0.1064  0.5932
 7717SOL    HW230634   5.146   2.601   0.296  1.3391 -0.0790 -0.7502
 7717SOL    HW330635   5.222   2.731   0.304  0.7795  0.2563 -0.8401
 7717SOL    MW430636   5.149   2.687   0.284  0.5758  0.1017  0.2268
 7718SOL     OW30637   1.116   1.311   6.109  0.0063 -0.4317  0.1419
 7718SOL    HW230638   1.138   1.279   6.197 -1.1149 -1.2574  0.1435
 7718SOL    HW330639   1.189   1.281   6.054  1.1288  0.8038  0.9162
 7718SOL    MW430640   1.129   1.303   6.113  0.0065 -0.3776  0.2442
 7719SOL     OW30641   1.581   5.639   0.269  0.5078  0.1481 -0.0823
 7719SOL    HW230642   1.646   5.663   0.336  1.4588  1.8955 -1.5367
 7719SOL    HW330643   1.630   5.584   0.207 -0.2027 -0.9618  0.3211
 7719SOL    MW430644   1.596   5.635   0.270  0.5396  0.2322 -0.2210
 7720SOL     OW30645   0.214   6.359   3.554  0.1687  0.7001 -0.1647
 7720SOL    HW230646   0.134   6.401   3.584 -0.0674 -0.4160  0.8259
 7720SOL    HW330647   0.217   6.376   3.460 -1.6522  0.0559 -0.3637
 7720SOL    MW430648   0.204   6.367   3.546 -0.1027  0.4678 -0.0603
 7721SOL     OW30649   3.270   3.745   2.933 -0.3836 -0.6308  0.2023
 7721SOL    HW230650   3.267   3.717   2.841  1.9023  0.4288 -0.2707
 7721SOL    HW330651   3.223   3.828   2.934  1.6755  0.6090 -0.5928
 7721SOL    MW430652   3.263   3.752   2.921  0.1896 -0.3274  0.0350
 7722SOL     OW30653   0.018   3.096   1.331 -0.0997  0.7879 -1.0318
 7722SOL    HW230654   0.060   3.121   1.413  0.3205  3.5317 -1.9948
 7722SOL    HW330655   0.082   3.039   1.288 -1.7416 -3.8535  1.9260
 7722SOL    MW430656   0.032   3.091   1.336 -0.2609  0.5376 -0.7686
 7723SOL     OW30657   1.362   0.088   4.660  0.1263 -0.0923  0.0312
 7723SOL    HW230658   1.434   0.068   4.719 -0.1352  2.8110  1.5400
 7723SOL    HW330659   1.324   0.003   4.638  2.9614 -1.5849  0.4657
 7723SOL    MW430660   1.366   0.074   4.665  0.4659  0.0938  0.2876
 7724SOL     OW30661   3.108   3.047   0.976  0.1585 -0.2692 -0.4986
 7724SOL    HW230662   3.040   2.980   0.990 -0.9472  1.1345  1.1793
 7724SOL    HW330663   3.067   3.110   0.917  0.7805 -0.4520 -1.1422
 7724SOL    MW430664   3.093   3.046   0.970  0.0947 -0.1081 -0.3621
 7725SOL     OW30665   0.608   3.819   0.608  0.1109 -0.8267  0.6160
 7725SOL    HW230666   0.540   3.767   0.565  0.3824 -0.7309  0.0639
 7725SOL    HW330667   0.568   3.906   0.618  0.9421 -0.0898 -1.8463
 7725SOL    MW430668   0.593   3.824   0.604  0.2564 -0.7169  0.2183
 7726SOL     OW30669   4.264   2.391   3.856 -0.1542 -0.1683  0.2237
 7726SOL    HW230670   4.233   2.369   3.943  0.9514  0.2575  0.7378
 7726SOL    HW330671   4.317   2.470   3.868  1.1426 -0.8764 -0.6001
 7726SOL    MW430672   4.267   2.399   3.869  0.1627 -0.2056  0.1828
 7727SOL     OW30673   6.051   6.248   2.760 -0.1859 -0.4754  0.0728
 7727SOL    HW230674   5.989   6.316   2.738 -0.2977  0.4864  3.0233
 7727SOL    HW330675   6.135   6.281   2.727 -0.7536 -0.6485 -1.6906
 7727SOL    MW430676   6.054   6.261   2.753 -0.2756 -0.3713  0.2294
 7728SOL     OW30677   1.293   3.488   0.716  0.5039  0.4412 -0.3050
 7728SOL    HW230678   1.271   3.397   0.735  1.0631  0.2520 -0.5679
 7728SOL    HW330679   1.345   3.517   0.791  0.3623  0.5377 -0.2414
 7728SOL    MW430680   1.297   3.480   0.728  0.5590  0.4290 -0.3313
 7729SOL     OW30681   5.744   1.056   1.806  0.0114 -0.5896  0.0364
 7729SOL    HW230682   5.660   1.093   1.781 -0.3030 -0.5620  1.0654
 7729SOL    HW330683   5.752   1.076   1.899  2.4047  1.8105 -0.5763
 7729SOL    MW430684   5.734   1.063   1.815  0.2857 -0.2693  0.0913
 7730SOL     OW30685   4.803   0.039   2.576  0.5963  0.4535 -0.3574
 7730SOL    HW230686   4.800  -0.029   2.644 -1.7115 -0.3328 -1.1570
 7730SOL    HW330687   4.867   0.006   2.513 -0.0560 -0.7013 -0.4345
 7730SOL    MW430688   4.811   0.025   2.577  0.2058  0.1974 -0.4731
 7731SOL     OW30689  -0.004   0.340   3.511 -0.1628 -0.4974  0.0052
 7731SOL    HW230690  -0.013   0.270   3.576 -0.6824 -2.3871 -1.9486
 7731SOL    HW330691  -0.084   0.334   3.459 -0.0933  1.4344 -0.3847
 7731SOL    MW430692  -0.015   0.330   3.513 -0.2222 -0.4918 -0.3040
 7732SOL     OW30693   5.663   0.824   1.639 -0.0082  0.5882  0.5815
 7732SOL    HW230694   5.735   0.860   1.587  0.3665  0.6936  1.1687
 7732SOL    HW330695   5.666   0.874   1.721  0.4556 -0.7029  1.3777
 7732SOL    MW430696   5.673   0.836   1.643  0.1025  0.4318  0.7640
 7733SOL     OW30697   0.234   0.064   6.395 -0.9876  0.2943  0.7673
 7733SOL    HW230698   0.164   0.125   6.375  0.4062  1.5340 -0.6672
 7733SOL    HW330699   0.285   0.060   6.314 -0.2877 -1.7899  1.2473
 7733SOL    MW430700   0.232   0.071   6.382 -0.7113  0.1829  0.6414
 7734SOL     OW30701   2.198   1.447   4.953  0.3868  0.5553  0.3302
 7734SOL    HW230702   2.280   1.466   4.907  1.1028  2.4655  2.2759
 7734SOL    HW330703   2.209   1.484   5.040 -2.6695  1.1385  0.5870
 7734SOL    MW430704   2.210   1.454   4.958  0.0780  0.8843  0.6208
 7735SOL     OW30705   0.082   4.817   5.329 -0.8041 -0.3706  0.2933
 7735SOL    HW230706   0.121   4.904   5.327  1.3583 -1.2114  1.5763
 7735SOL    HW330707   0.055   4.806   5.421 -0.6073 -1.2331  0.2499
 7735SOL    MW430708   0.083   4.827   5.341 -0.4929 -0.5953  0.4569
 7736SOL     OW30709   0.247   6.187   2.419  0.0895  0.4390  0.0253
 7736SOL    HW230710   0.302   6.257   2.383 -0.1388  1.2032  1.1072
 7736SOL    HW330711   0.174   6.181   2.357  1.1430 -0.3102 -1.2014
 7736SOL    MW430712   0.244   6.196   2.406  0.1984  0.4410  0.0062
 7737SOL     OW30713   3.954   4.786   0.617 -0.0472  0.0908  0.0859
 7737SOL    HW230714   3.866   4.797   0.580  0.9937  0.7060 -2.4072
 7737SOL    HW330715   3.993   4.873   0.613  1.1585 -0.4388 -0.2363
 7737SOL    MW430716   3.948   4.799   0.611  0.2492  0.1021 -0.2855
 7738SOL     OW30717   1.998   1.256   1.981 -0.2051 -0.2654  0.3318
 7738SOL    HW230718   2.062   1.193   2.014 -0.9851 -0.6265  1.2147
 7738SOL    HW330719   2.017   1.264   1.888  1.3056 -0.1332  0.6281
 7738SOL    MW430720   2.009   1.249   1.973 -0.1087 -0.2956  0.4873
 7739SOL     OW30721   5.946   4.323  -0.023 -0.8645  0.6125  0.3546
 7739SOL    HW230722   5.872   4.379  -0.049 -0.8896  0.1603 -0.5767
 7739SOL    HW330723   5.906   4.241   0.006 -0.6951 -0.4164 -2.0926
 7739SOL    MW430724   5.931   4.320  -0.022 -0.8455  0.4171 -0.0911
 7740SOL     OW30725   4.653   5.920   2.961  0.0164 -0.0859  0.2544
 7740SOL    HW230726   4.642   5.887   3.050  1.1431 -1.6327 -0.1526
 7740SOL    HW330727   4.626   6.012   2.966 -2.2020 -0.7553  1.6515
 7740SOL    MW430728   4.648   5.928   2.973 -0.1276 -0.3783  0.3850
 7741SOL     OW30729   4.763   5.309   5.976  0.6816  0.9696 -0.5888
 7741SOL    HW230730   4.717   5.389   5.953  0.4352  1.1351  0.4312
 7741SOL    HW330731   4.850   5.319   5.937  0.3894  1.3768 -1.1424
 7741SOL    MW430732   4.769   5.321   5.968  0.6106  1.0452 -0.5273
 7742SOL     OW30733   1.457   2.903   2.992  0.3007 -0.1012  0.1511
 7742SOL    HW230734   1.478   2.812   3.013 -0.3623 -0.0812  0.9553
 7742SOL    HW330735   1.378   2.897   2.939  0.5366 -0.0166 -0.2110
 7742SOL    MW430736   1.449   2.890   2.988  0.2444 -0.0874  0.2095
 7743SOL     OW30737   2.604   0.452   4.458 -0.1272 -0.2156 -0.3099
 7743SOL    HW230738   2.613   0.480   4.549 -2.1369 -1.1976  0.2537
 7743SOL    HW330739   2.657   0.373   4.451  0.6339  0.2805 -0.2048
 7743SOL    MW430740   2.612   0.446   4.469 -0.2919 -0.2797 -0.2216
 7744SOL     OW30741   3.877   2.970   1.607 -0.1214 -0.3170 -0.0910
 7744SOL    HW230742   3.948   2.974   1.671  0.9448 -0.8056 -1.2053
 7744SOL    HW330743   3.797   2.972   1.659  0.7181 -1.4900  1.2982
 7744SOL    MW430744   3.876   2.971   1.622  0.1301 -0.5362 -0.0548
 7745SOL     OW30745   0.475   4.430   3.742 -0.5257  0.4594 -0.1082
 7745SOL    HW230746   0.520   4.388   3.668 -0.3031  1.2630 -0.4316
 7745SOL    HW330747   0.491   4.523   3.730 -0.4532  0.5913  0.9877
 7745SOL    MW430748   0.483   4.437   3.731 -0.4867  0.5828 -0.0063
 7746SOL     OW30749   3.622   4.683   5.260 -0.4675 -0.3936 -0.1100
 7746SOL    HW230750   3.664   4.747   5.317 -1.3620 -0.3538  0.5157
 7746SOL    HW330751   3.662   4.698   5.174  0.6240 -0.2062  0.4088
 7746SOL    MW430752   3.633   4.693   5.256 -0.4415 -0.3636  0.0410
 7747SOL     OW30753   0.817   0.238   1.267 -0.3222 -0.2755 -0.6093
 7747SOL    HW230754   0.728   0.259   1.296 -0.9451 -0.3615 -2.3788
 7747SOL    HW330755   0.817   0.144   1.253  0.2802 -0.3892  0.0912
 7747SOL    MW430756   0.805   0.229   1.269 -0.3249 -0.3018 -0.7504
 7748SOL     OW30757   3.812   4.251   3.313 -0.4229  0.2094  0.5467
 7748SOL    HW230758   3.825   4.201   3.393 -1.3562  0.0053  0.5891
 7748SOL    HW330759   3.897   4.291   3.295 -0.0219 -0.3002  1.2542
 7748SOL    MW430760   3.825   4.250   3.321 -0.4931  0.1152  0.6457
 7749SOL     OW30761   0.578   4.957   4.765  0.2816 -0.2306 -0.4032
 7749SOL    HW230762   0.503   4.898   4.770 -0.0178  0.1263 -0.5898
 7749SOL    HW330763   0.645   4.917   4.820 -0.2572 -0.2553  0.2369
 7749SOL    MW430764   0.577   4.944   4.773  0.1710 -0.1867 -0.3434
 7750SOL     OW30765   6.328   1.560   6.186  0.3616 -0.7694  0.1440
 7750SOL    HW230766   6.320   1.612   6.106 -0.0973 -0.2552  0.5092
 7750SOL    HW330767   6.271   1.485   6.172  0.8756 -1.0835 -0.3107
 7750SOL    MW430768   6.319   1.557   6.174  0.3688 -0.7430  0.1322
 7751SOL     OW30769   4.190   3.222   1.460 -0.0470  0.1429  0.6540
 7751SOL    HW230770   4.161   3.145   1.412  0.8746  0.8489 -1.1417
 7751SOL    HW330771   4.246   3.188   1.529  0.5027 -0.7965 -0.2354
 7751SOL    MW430772   4.193   3.207   1.463  0.1471  0.1121  0.2997
 7752SOL     OW30773   3.733   3.279   5.460  0.3427 -0.1624 -0.2280
 7752SOL    HW230774   3.668   3.293   5.391  0.3635 -0.4588 -0.3087
 7752SOL    HW330775   3.726   3.357   5.515  0.3586  0.0970 -0.5892
 7752SOL    MW430776   3.724   3.291   5.458  0.3476 -0.1673 -0.2863
 7753SOL     OW30777   2.183   5.391   0.951  0.1247 -0.2351 -0.0316
 7753SOL    HW230778   2.268   5.421   0.919  0.0798 -0.2782 -0.1927
 7753SOL    HW330779   2.153   5.328   0.885 -1.7309  2.4938 -2.0097
 7753SOL    MW430780   2.190   5.387   0.938 -0.1260  0.1192 -0.3138
 7754SOL     OW30781   5.132   4.900   0.555  0.4419 -0.4412 -0.0986
 7754SOL    HW230782   5.090   4.976   0.593 -0.1824 -0.8542  0.0470
 7754SOL    HW330783   5.157   4.846   0.631 -0.5778 -1.1451 -0.2356
 7754SOL    MW430784   5.130   4.903   0.570  0.2250 -0.5886 -0.0974
 7755SOL     OW30785  -0.037   1.132   3.947  0.1285  0.3622 -0.0630
 7755SOL    HW230786   0.057   1.150   3.941  0.2036  0.3482  0.8819
 7755SOL    HW330787  -0.056   1.138   4.041 -0.4279 -1.5860 -0.0098
 7755SOL    MW430788  -0.027   1.135   3.959  0.0650  0.1034  0.0687
 7756SOL     OW30789   2.285   4.773   0.979 -0.0631 -0.1656  0.4139
 7756SOL    HW230790   2.296   4.839   1.046  0.6227 -0.1537  0.2980
 7756SOL    HW330791   2.366   4.777   0.927 -0.9099  0.4073 -0.9273
 7756SOL    MW430792   2.297   4.782   0.981 -0.0844 -0.0884  0.2217
 7757SOL     OW30793   1.962   1.504   4.128  0.0309  0.3532  0.1745
 7757SOL    HW230794   2.045   1.496   4.082 -0.1606  2.4444 -0.6742
 7757SOL    HW330795   1.935   1.414   4.146  2.3189 -0.3903  0.2309
 7757SOL    MW430796   1.969   1.491   4.125  0.3075  0.5310  0.0700
 7758SOL     OW30797   1.376   6.367   2.842 -0.4430 -0.4202  0.0996
 7758SOL    HW230798   1.402   6.375   2.750  2.1735 -0.5029  0.7596
 7758SOL    HW330799   1.364   6.273   2.855 -0.9061 -0.3997 -0.1830
 7758SOL    MW430800   1.378   6.356   2.832 -0.1589 -0.4284  0.1494
 7759SOL     OW30801   0.397   1.727   0.881 -0.2091  0.3212 -0.6185
 7759SOL    HW230802   0.483   1.686   0.894 -0.2481  0.9454  2.2397
 7759SOL    HW330803   0.337   1.654   0.866  0.6247 -0.1773 -1.7114
 7759SOL    MW430804   0.401   1.712   0.880 -0.1042  0.3378 -0.3856
 7760SOL     OW30805   2.109   2.750   6.319  0.3021 -0.4257 -0.3002
 7760SOL    HW230806   2.140   2.827   6.270  2.2955 -1.4279 -0.7335
 7760SOL    HW330807   2.138   2.767   6.409 -2.2519  0.8331  0.3647
 7760SOL    MW430808   2.117   2.763   6.325  0.2281 -0.3918 -0.2696
 7761SOL     OW30809   1.598   3.565   0.591 -0.4100 -0.1724 -0.1977
 7761SOL    HW230810   1.568   3.626   0.659  1.4161 -0.3318  0.8030
 7761SOL    HW330811   1.593   3.479   0.632  1.3307 -0.2089  0.0139
 7761SOL    MW430812   1.593   3.562   0.605  0.0606 -0.1983 -0.0378
 7762SOL     OW30813   5.174   6.398   2.985 -0.2392  0.3508  0.0434
 7762SOL    HW230814   5.231   6.447   2.925  0.1426  1.8580  1.5592
 7762SOL    HW330815   5.184   6.307   2.958  2.4929  0.6092 -0.1483
 7762SOL    MW430816   5.183   6.393   2.973  0.1717  0.5837  0.2181
 7763SOL     OW30817   1.821   1.545   2.887  0.1238 -0.0467 -0.2405
 7763SOL    HW230818   1.855   1.616   2.942  0.6963  0.6687 -1.4834
 7763SOL    HW330819   1.729   1.569   2.872  0.2869  0.3774 -0.5690
 7763SOL    MW430820   1.813   1.558   2.892  0.2208  0.1036 -0.4478
 7764SOL     OW30821   6.326   6.388   5.029  0.1332  0.1556 -0.3179
 7764SOL    HW230822   6.385   6.411   5.100  0.9194  0.1511 -0.9579
 7764SOL    HW330823   6.372   6.320   4.980 -0.7972 -0.5060 -0.3021
 7764SOL    MW430824   6.340   6.382   5.032  0.1142  0.0677 -0.4003
 7765SOL     OW30825   4.364   5.048   4.556 -0.5562  1.0670 -0.2885
 7765SOL    HW230826   4.413   5.073   4.477  0.2448 -2.6254 -1.1240
 7765SOL    HW330827   4.323   4.965   4.533 -1.7292  0.7437  2.6654
 7765SOL    MW430828   4.365   5.041   4.542 -0.6053  0.5372 -0.0090
 7766SOL     OW30829   4.842   3.799   2.853 -0.2105  0.0553  0.0489
 7766SOL    HW230830   4.911   3.857   2.884 -2.1706  2.2453  0.6237
 7766SOL    HW330831   4.873   3.768   2.768  1.8429  0.1889  0.6855
 7766SOL    MW430832   4.855   3.802   2.846 -0.1982  0.3619  0.2087
 7767SOL     OW30833   5.975   3.220   4.778  0.2117  0.5256  0.5660
 7767SOL    HW230834   5.951   3.303   4.818  0.8046  0.9292  0.0838
 7767SOL    HW330835   5.901   3.199   4.720  0.6285  1.3483 -0.2732
 7767SOL    MW430836   5.962   3.228   4.775  0.3449  0.6874  0.3917
 7768SOL     OW30837   4.453   0.046   0.554 -0.2800 -0.2628  0.6414
 7768SOL    HW230838   4.360   0.034   0.570 -0.1233  0.4764  2.3770
 7768SOL    HW330839   4.460   0.058   0.459 -2.0557  0.5321  0.5692
 7768SOL    MW430840   4.442   0.046   0.543 -0.4936 -0.0604  0.8608
 7769SOL     OW30841   1.726   3.122   1.036 -0.5804 -0.1945  0.1259
 7769SOL    HW230842   1.718   3.135   1.130  0.2150  2.6583 -0.1255
 7769SOL    HW330843   1.717   3.027   1.024  0.9128 -0.8445  3.2298
 7769SOL    MW430844   1.724   3.111   1.047 -0.2785  0.0961  0.5022
 7770SOL     OW30845   5.228   1.107   5.522  0.0153 -0.7925  0.3464
 7770SOL    HW230846   5.223   1.120   5.616 -3.1411 -0.8550  0.2948
 7770SOL    HW330847   5.209   1.014   5.509 -0.8584 -0.5294 -0.3761
 7770SOL    MW430848   5.225   1.096   5.532 -0.5164 -0.7660  0.2443
 7771SOL     OW30849   1.028   3.912   6.233 -0.5740 -0.6232 -0.2447
 7771SOL    HW230850   0.987   3.867   6.307 -1.6084 -0.6932 -0.8394
 7771SOL    HW330851   0.978   3.884   6.157 -0.2233  0.3049 -0.8401
 7771SOL    MW430852   1.016   3.902   6.233 -0.6642 -0.5100 -0.4017
 7772SOL     OW30853   4.012   2.335   0.555 -0.1442 -0.4889  0.7459
 7772SOL    HW230854   3.941   2.272   0.569  0.6270 -1.6591 -0.3722
 7772SOL    HW330855   4.030   2.329   0.461 -0.1585  1.5523  0.5644
 7772SOL    MW430856   4.005   2.326   0.544 -0.0444 -0.3740  0.5744
 7773SOL     OW30857   6.194   0.354   0.149  0.1844 -0.6874  0.0462
 7773SOL    HW230858   6.123   0.298   0.117 -0.5828  0.8508 -1.0999
 7773SOL    HW330859   6.240   0.381   0.070 -0.6897  1.8355  0.2955
 7773SOL    MW430860   6.191   0.351   0.134 -0.0321 -0.1516 -0.0721
 7774SOL     OW30861   1.612   0.371   3.775 -0.7218  0.5045 -0.3054
 7774SOL    HW230862   1.590   0.390   3.683 -2.9203  1.7531  0.3940
 7774SOL    HW330863   1.559   0.294   3.796 -0.9514  0.7854  0.1564
 7774SOL    MW430864   1.602   0.363   3.766 -1.0422  0.7063 -0.1522
 7775SOL     OW30865   0.942   1.526   0.002  0.1060 -0.1368 -0.4298
 7775SOL    HW230866   0.892   1.600   0.037  0.1717 -0.6530  0.8139
 7775SOL    HW330867   0.897   1.449   0.036 -1.2317 -0.8315 -3.3801
 7775SOL    MW430868   0.929   1.526   0.011 -0.0618 -0.2966 -0.6550
 7776SOL     OW30869   2.462   4.817   5.129 -0.4608 -0.0226  0.2284
 7776SOL    HW230870   2.523   4.757   5.086 -0.5562  0.1254 -0.1195
 7776SOL    HW330871   2.384   4.764   5.145 -0.0820 -0.3378  1.0946
 7776SOL    MW430872   2.459   4.802   5.125 -0.4234 -0.0447  0.2968
 7777SOL     OW30873   1.635   5.101   3.528  0.4241 -0.3188 -0.3076
 7777SOL    HW230874   1.542   5.118   3.545  0.3456 -1.3282  0.3446
 7777SOL    HW330875   1.643   5.112   3.433  0.2257  2.3535 -0.0891
 7777SOL    MW430876   1.624   5.105   3.517  0.3876 -0.0994 -0.1927
 7778SOL     OW30877   3.513   2.669  -0.019  0.5554 -0.0683 -0.2517
 7778SOL    HW230878   3.499   2.627  -0.104  0.6683 -1.9934  0.6123
 7778SOL    HW330879   3.582   2.733  -0.034  2.5402 -2.2648 -1.0947
 7778SOL    MW430880   3.520   2.672  -0.032  0.8322 -0.6121 -0.2489
 7779SOL     OW30881   2.499   3.821   4.706 -0.4442  0.2727  0.0565
 7779SOL    HW230882   2.575   3.813   4.648 -0.5212 -1.5198  0.1484
 7779SOL    HW330883   2.504   3.910   4.739  1.1449  0.4691 -0.5958
 7779SOL    MW430884   2.510   3.831   4.702 -0.2447  0.0621 -0.0174
 7780SOL     OW30885   5.022   0.421   4.541  0.1017 -0.0464  0.0297
 7780SOL    HW230886   5.045   0.394   4.630  2.9140  1.2208 -0.1995
 7780SOL    HW330887   4.993   0.512   4.550 -2.1556 -0.6867 -0.1063
 7780SOL    MW430888   5.021   0.429   4.554  0.1750  0.0363 -0.0185
 7781SOL     OW30889   5.179   3.879   6.308  0.4612 -0.1413  0.2222
 7781SOL    HW230890   5.142   3.926   6.383 -2.0917  1.2430 -1.7059
 7781SOL    HW330891   5.130   3.797   6.306  2.1089 -1.1932  1.2883
 7781SOL    MW430892   5.167   3.875   6.317  0.3418 -0.0975  0.1084
 7782SOL     OW30893   0.451   4.414   6.120 -0.2763 -0.7645 -0.0174
 7782SOL    HW230894   0.450   4.411   6.216  1.9677 -1.3293  0.0420
 7782SOL    HW330895   0.372   4.462   6.097  0.5774  1.9625  2.2218
 7782SOL    MW430896   0.440   4.420   6.130  0.1324 -0.4793  0.2859
 7783SOL     OW30897   4.033   3.607   5.413  0.6007  0.3101  0.5315
 7783SOL    HW230898   4.062   3.564   5.493  1.5956  3.7325  2.2297
 7783SOL    HW330899   3.937   3.608   5.420  0.6596  0.3212  1.5835
 7783SOL    MW430900   4.024   3.602   5.425  0.7397  0.7631  0.8943
 7784SOL     OW30901   1.019   5.604   0.825 -0.1773 -0.3858  0.4489
 7784SOL    HW230902   1.024   5.686   0.775 -2.1443  0.2977  1.2324
 7784SOL    HW330903   1.108   5.588   0.855  0.1509  1.8645  0.8509
 7784SOL    MW430904   1.031   5.613   0.822 -0.3935  0.0013  0.6053
 7785SOL     OW30905   3.947   3.129   4.312 -0.1018  0.3526 -0.3433
 7785SOL    HW230906   3.901   3.085   4.384 -0.8211 -0.2412 -1.1512
 7785SOL    HW330907   4.040   3.124   4.336 -0.3850  0.9892  0.9922
 7785SOL    MW430908   3.953   3.123   4.325 -0.2341  0.3583 -0.2737
 7786SOL     OW30909   0.322   6.341   5.303  0.2193 -0.3442  0.1166
 7786SOL    HW230910   0.388   6.273   5.285  1.1360  0.1509  1.4585
 7786SOL    HW330911   0.371   6.410   5.347 -0.3559  1.9440 -2.5477
 7786SOL    MW430912   0.337   6.341   5.306  0.2644  0.0231 -0.0579
 7787SOL     OW30913   5.691   1.363   1.639  0.3418  0.0332 -0.7216
 7787SOL    HW230914   5.619   1.303   1.660  1.7221 -0.6461  2.8626
 7787SOL    HW330915   5.651   1.450   1.645 -0.3058 -0.3317  1.1732
 7787SOL    MW430916   5.676   1.367   1.643  0.4385 -0.1046  0.0013
 7788SOL     OW30917   2.485   4.843   2.341  0.1202  0.5204  0.3926
 7788SOL    HW230918   2.548   4.915   2.332  1.9038 -1.1767 -2.3677
 7788SOL    HW330919   2.429   4.851   2.264 -0.5916 -0.2163  0.8231
 7788SOL    MW430920   2.486   4.854   2.330  0.2616  0.1993  0.0852
 7789SOL     OW30921   0.003   2.067   2.541 -0.1063  0.1687  0.2278
 7789SOL    HW230922  -0.007   2.092   2.449 -0.1436 -2.0003 -0.4055
 7789SOL    HW330923   0.096   2.047   2.551  0.0638  1.2225  0.9174
 7789SOL    MW430924   0.014   2.068   2.530 -0.0888  0.0216  0.2353
 7790SOL     OW30925   6.346   1.001   0.542 -0.2035  0.2124  0.4331
 7790SOL    HW230926   6.375   1.059   0.472 -2.5734  2.3531  1.0631
 7790SOL    HW330927   6.287   0.939   0.500 -0.9696  0.9651  0.3812
 7790SOL    MW430928   6.342   1.000   0.527 -0.6173  0.5942  0.5094
 7791SOL     OW30929   0.643   1.971   2.667  0.1494  0.0281 -0.0147
 7791SOL    HW230930   0.646   1.920   2.586 -2.8239 -1.4226  0.6599
 7791SOL    HW330931   0.561   2.020   2.661  0.2647  0.5069  1.7948
 7791SOL    MW430932   0.633   1.971   2.655 -0.2277 -0.1002  0.3131
 7792SOL     OW30933   2.855   3.719   2.752 -0.0009  0.1354  0.2950
 7792SOL    HW230934   2.868   3.624   2.755 -0.3735  0.1010  1.1054
 7792SOL    HW330935   2.943   3.756   2.761  0.1634 -0.1286 -0.1893
 7792SOL    MW430936   2.869   3.711   2.754 -0.0284  0.0961  0.3380
 7793SOL     OW30937   4.152   0.194   4.579  0.3501  0.3918  0.4343
 7793SOL    HW230938   4.097   0.160   4.509 -0.2690  2.2071 -0.0208
 7793SOL    HW330939   4.219   0.127   4.593  0.3566 -0.1056 -1.7372
 7793SOL    MW430940   4.154   0.181   4.572  0.2693  0.5657  0.0877
 7794SOL     OW30941   0.951   4.824   5.866  0.0575 -0.2521  0.2218
 7794SOL    HW230942   1.034   4.777   5.860 -0.2491 -0.6318 -2.3155
 7794SOL    HW330943   0.902   4.777   5.933  1.3664 -0.9065  0.7608
 7794SOL    MW430944   0.956   4.811   5.874  0.1897 -0.3886 -0.0419
 7795SOL     OW30945   0.000   4.302   3.737 -0.0572 -0.2375  0.2778
 7795SOL    HW230946  -0.025   4.312   3.646  1.3475 -0.9774 -0.2339
 7795SOL    HW330947   0.095   4.289   3.734  0.1178  0.4480  1.9060
 7795SOL    MW430948   0.010   4.301   3.725  0.1512 -0.2446  0.4251
 7796SOL     OW30949   0.961   4.346   3.665 -0.1467 -0.5287  0.5465
 7796SOL    HW230950   0.951   4.272   3.725 -0.0745  0.2261  1.5388
 7796SOL    HW330951   1.024   4.317   3.600  0.4880 -1.0764  1.3796
 7796SOL    MW430952   0.968   4.333   3.665 -0.0534 -0.5014  0.7874
 7797SOL     OW30953   1.574   3.608   2.068  0.0241  0.0329 -0.1174
 7797SOL    HW230954   1.484   3.615   2.098  0.1899 -0.0997  0.4274
 7797SOL    HW330955   1.626   3.652   2.136  0.3869 -0.0600 -0.3281
 7797SOL    MW430956   1.569   3.615   2.081  0.0939  0.0031 -0.0733
 7798SOL     OW30957   5.159   3.124   4.491  0.2776 -0.2238 -0.2804
 7798SOL    HW230958   5.075   3.170   4.489  1.2095  1.7980  1.9895
 7798SOL    HW330959   5.224   3.191   4.472  1.5897 -0.8847  1.5392
 7798SOL    MW430960   5.156   3.139   4.489  0.5737 -0.0442  0.2592
 7799SOL     OW30961   5.323   4.328   4.184 -0.6248 -0.3461 -0.1255
 7799SOL    HW230962   5.341   4.417   4.215  0.1224 -0.4981 -0.0936
 7799SOL    HW330963   5.388   4.274   4.230  0.0248 -0.6797 -1.4016
 7799SOL    MW430964   5.334   4.333   4.194 -0.4405 -0.4101 -0.2897
 7800SOL     OW30965   2.153   1.472   5.854  0.3655  0.2453 -0.1155
 7800SOL    HW230966   2.076   1.444   5.902  0.8510 -1.0299 -0.0351
 7800SOL    HW330967   2.183   1.393   5.809  0.8809  1.0217 -1.1784
 7800SOL    MW430968   2.147   1.458   5.854  0.4976  0.1795 -0.2451
 7801SOL     OW30969   2.068   3.904   2.288 -0.2499 -0.4535 -0.0981
 7801SOL    HW230970   2.116   3.865   2.215 -1.3383  0.4119 -1.3293
 7801SOL    HW330971   1.997   3.953   2.246 -1.5774 -0.8501  1.6035
 7801SOL    MW430972   2.065   3.906   2.273 -0.5686 -0.3916 -0.0360
 7802SOL     OW30973   4.944   1.852   3.714  0.0347 -0.0211 -0.4770
 7802SOL    HW230974   4.876   1.861   3.781  0.9625 -1.0917  0.6624
 7802SOL    HW330975   5.024   1.880   3.757  1.1004 -3.0699 -0.2433
 7802SOL    MW430976   4.945   1.857   3.728  0.2977 -0.5646 -0.2958
 7803SOL     OW30977   2.702   0.116   5.990  0.2810 -0.4623  0.1857
 7803SOL    HW230978   2.668   0.027   5.992 -0.5076 -0.2294 -1.3582
 7803SOL    HW330979   2.639   0.165   5.937  1.7408  0.5306 -0.7240
 7803SOL    MW430980   2.690   0.111   5.983  0.3695 -0.3006 -0.1380
 7804SOL     OW30981   2.633   5.581   1.087  0.3033  0.7696  0.1354
 7804SOL    HW230982   2.642   5.662   1.139 -1.9975  0.7598  0.6617
 7804SOL    HW330983   2.666   5.604   1.001  0.3409  2.0868  0.4756
 7804SOL    MW430984   2.638   5.595   1.083  0.0047  0.9421  0.2498
 7805SOL     OW30985   6.328   0.472   1.114  0.0282  0.0188 -0.7193
 7805SOL    HW230986   6.373   0.556   1.104 -1.5346  0.9357 -0.4260
 7805SOL    HW330987   6.368   0.431   1.190 -0.6883  1.5615  0.5440
 7805SOL    MW430988   6.339   0.478   1.123 -0.2725  0.3433 -0.5139
 7806SOL     OW30989   1.697   4.869   4.212 -0.1021 -0.0047 -0.1213
 7806SOL    HW230990   1.694   4.866   4.116 -2.3785  0.3524 -0.1281
 7806SOL    HW330991   1.666   4.782   4.239  1.4945 -0.4618  0.3348
 7806SOL    MW430992   1.692   4.857   4.203 -0.1918 -0.0179 -0.0620
 7807SOL     OW30993   2.726   4.496   2.775 -0.2300 -0.7935 -0.0310
 7807SOL    HW230994   2.654   4.557   2.758  0.6000  0.8251  1.8604
 7807SOL    HW330995   2.740   4.501   2.869 -0.2019 -4.1016  0.2496
 7807SOL    MW430996   2.718   4.505   2.785 -0.1168 -1.0164  0.2556
 7808SOL     OW30997   0.014   0.821   2.253 -0.0730 -0.0205 -0.0881
 7808SOL    HW230998   0.054   0.821   2.340  1.8689  0.3637 -0.9218
 7808SOL    HW330999   0.027   0.910   2.221 -1.1340 -0.0488 -0.6214
 7808SOL    MW431000   0.021   0.833   2.260  0.0433  0.0265 -0.2685
 7809SOL     OW31001   0.497   5.759   2.873  0.2255 -0.2226  0.1366
 7809SOL    HW231002   0.562   5.811   2.826 -0.3344 -0.3933 -0.8647
 7809SOL    HW331003   0.520   5.768   2.965  1.6814 -0.3110 -0.2025
 7809SOL    MW431004   0.508   5.767   2.879  0.3437 -0.2568 -0.0402
 7810SOL     OW31005   5.565   4.751   6.028  0.0277  0.1814 -0.4398
 7810SOL    HW231006   5.573   4.804   5.949 -0.4496 -0.1315 -0.6994
 7810SOL    HW331007   5.599   4.665   6.003 -1.5836 -0.3851 -0.7804
 7810SOL    MW431008   5.571   4.747   6.014 -0.2478  0.0654 -0.5190
 7811SOL     OW31009   4.955   0.437   0.754 -0.0557 -0.0517  0.0042
 7811SOL    HW231010   4.859   0.440   0.753 -0.1630 -1.7654  0.8473
 7811SOL    HW331011   4.979   0.442   0.846  0.6402 -0.0452 -0.1687
 7811SOL    MW431012   4.946   0.438   0.766  0.0220 -0.2769  0.0926
 7812SOL     OW31013   3.926   5.750   0.265  0.3685 -0.2119  0.3554
 7812SOL    HW231014   3.930   5.841   0.237  0.4348 -0.1855  0.4496
 7812SOL    HW331015   3.973   5.702   0.197 -1.6567 -0.4770 -0.9339
 7812SOL    MW431016   3.932   5.756   0.252  0.1101 -0.2434  0.1977
 7813SOL     OW31017   2.958   1.904   1.637 -0.0276  0.5163 -0.7828
 7813SOL    HW231018   2.948   1.901   1.732  2.6613 -2.4536 -0.4395
 7813SOL    HW331019   2.877   1.864   1.603  0.5633 -2.0307  0.5439
 7813SOL    MW431020   2.946   1.898   1.645  0.4051 -0.2116 -0.5625
 7814SOL     OW31021   5.010   0.952   2.450 -0.5650 -0.0374  0.3161
 7814SOL    HW231022   5.011   1.017   2.520  3.3872 -0.1257  0.5559
 7814SOL    HW331023   5.010   1.002   2.369 -0.8224  0.1529  0.4325
 7814SOL    MW431024   5.010   0.967   2.449 -0.0776 -0.0239  0.3631
 7815SOL     OW31025   0.539   3.776   4.035  0.0652 -0.4035 -0.2448
 7815SOL    HW231026   0.565   3.687   4.058 -1.1940 -0.5350  0.8260
 7815SOL    HW331027   0.458   3.766   3.984 -0.0099  0.1091 -0.2357
 7815SOL    MW431028   0.531   3.763   4.032 -0.1108 -0.3532 -0.1023
 7816SOL     OW31029   4.231   4.036   1.654 -0.3116  0.1211 -0.0334
 7816SOL    HW231030   4.272   4.010   1.572 -0.7624  0.6038 -0.4179
 7816SOL    HW331031   4.228   4.131   1.650  1.8234  0.3344  1.6060
 7816SOL    MW431032   4.236   4.045   1.643 -0.0894  0.2129  0.1322
 7817SOL     OW31033   1.474   2.910   2.629  0.3488  0.1975 -0.4228
 7817SOL    HW231034   1.564   2.942   2.628 -0.0484  1.3988  0.0566
 7817SOL    HW331035   1.478   2.828   2.678  0.9947  0.8703  0.6961
 7817SOL    MW431036   1.486   2.903   2.635  0.3816  0.4448 -0.2119
 7818SOL     OW31037   2.335   3.532   5.314 -0.2322  0.0261  0.4128
 7818SOL    HW231038   2.321   3.601   5.250  0.4274  1.2889  1.5709
 7818SOL    HW331039   2.246   3.502   5.336 -0.4704 -0.3332 -0.9449
 7818SOL    MW431040   2.321   3.537   5.309 -0.1766  0.1453  0.3865
 7819SOL     OW31041   0.977   1.397   2.256 -0.0816 -0.3664  0.7318
 7819SOL    HW231042   1.020   1.320   2.219 -0.4584  0.2550 -1.1177
 7819SOL    HW331043   0.988   1.388   2.350 -0.1154 -2.6586  0.5584
 7819SOL    MW431044   0.984   1.386   2.263 -0.1358 -0.5868  0.4649
 7820SOL     OW31045   1.878   4.620   2.933  0.3379  0.1897  0.8407
 7820SOL    HW231046   1.884   4.711   2.906  4.3271  0.2427  1.2105
 7820SOL    HW331047   1.860   4.622   3.027 -0.0284  0.5604  0.7623
 7820SOL    MW431048   1.877   4.632   2.942  0.8159  0.2456  0.8791
 7821SOL     OW31049   4.413   3.557   3.887  0.2485  0.3659  0.2458
 7821SOL    HW231050   4.505   3.562   3.912  0.0503  0.1616  1.0154
 7821SOL    HW331051   4.388   3.466   3.902 -0.0193  0.3650 -0.1833
 7821SOL    MW431052   4.422   3.546   3.892  0.1870  0.3388  0.2907
 7822SOL     OW31053   5.940   5.908  -0.013 -0.3896  0.7074  0.3254
 7822SOL    HW231054   5.984   5.973   0.041 -0.3778  0.5007  0.5714
 7822SOL    HW331055   5.847   5.914   0.012 -0.2886  0.1515  0.8641
 7822SOL    MW431056   5.933   5.917  -0.002 -0.3747  0.6068  0.4289
 7823SOL     OW31057   0.960   1.026   3.181 -0.1475  0.0054  0.1608
 7823SOL    HW231058   0.990   1.088   3.248  2.1397 -0.4174 -0.3848
 7823SOL    HW331059   0.923   0.953   3.230  0.7340  0.0759  0.9455
 7823SOL    MW431060   0.959   1.025   3.196  0.2706 -0.0411  0.1924
 7824SOL     OW31061   4.215   5.171   0.911 -0.4751  0.8039  0.2044
 7824SOL    HW231062   4.308   5.187   0.893 -0.3285 -0.5238 -0.3371
 7824SOL    HW331063   4.169   5.214   0.839 -0.2562  1.0968  0.2386
 7824SOL    MW431064   4.221   5.179   0.899 -0.4269  0.6674  0.1374
 7825SOL     OW31065   4.794   4.144   4.257  0.5526  0.0228 -0.0556
 7825SOL    HW231066   4.884   4.125   4.283  0.1810  0.6918  1.8907
 7825SOL    HW331067   4.740   4.095   4.320 -0.4485  0.1435 -0.7878
 7825SOL    MW431068   4.798   4.135   4.269  0.3715  0.1270  0.1046
 7826SOL     OW31069   3.957   2.113   3.574 -0.1847  0.4340  0.1196
 7826SOL    HW231070   4.006   2.104   3.493 -2.4763 -0.4282 -1.2659
 7826SOL    HW331071   3.885   2.050   3.566 -1.1831  1.1884  2.2862
 7826SOL    MW431072   3.954   2.103   3.562 -0.6187  0.4198  0.2227
 7827SOL     OW31073   1.875   5.058   0.381  0.2793 -0.4634  0.1453
 7827SOL    HW231074   1.919   5.049   0.466  0.6794  0.2852  0.0284
 7827SOL    HW331075   1.902   4.980   0.332  1.4215 -0.0664  0.1095
 7827SOL    MW431076   1.885   5.046   0.386  0.4828 -0.3123  0.1251
 7828SOL     OW31077   0.766   2.779   0.944  0.0981 -0.1398  0.6852
 7828SOL    HW231078   0.820   2.842   0.991  1.2657  0.0415 -0.8308
 7828SOL    HW331079   0.791   2.789   0.852  0.7152 -3.1955  0.4285
 7828SOL    MW431080   0.776   2.789   0.938  0.3336 -0.5190  0.4513
 7829SOL     OW31081   6.339   2.952   4.605 -0.0316 -0.0446  0.1104
 7829SOL    HW231082   6.334   2.965   4.510  0.4160  0.4157  0.1468
 7829SOL    HW331083   6.367   3.036   4.639  1.1798 -0.5791  0.5131
 7829SOL    MW431084   6.342   2.965   4.597  0.1873 -0.0544  0.1684
 7830SOL     OW31085   6.307   1.684   1.910  0.2461  0.3750 -0.4754
 7830SOL    HW231086   6.251   1.742   1.857  1.0826  1.6551 -0.0125
 7830SOL    HW331087   6.395   1.697   1.875  0.7322  0.8478  0.8444
 7830SOL    MW431088   6.311   1.694   1.898  0.4206  0.6062 -0.2402
 7831SOL     OW31089   1.454   6.313   4.287 -0.0069  1.0055  0.5319
 7831SOL    HW231090   1.487   6.237   4.335  1.9018  2.0652  0.9664
 7831SOL    HW331091   1.422   6.277   4.204  0.4444 -0.3193  0.9094
 7831SOL    MW431092   1.454   6.298   4.283  0.3045  0.9705  0.6391
 7832SOL     OW31093   2.533   3.153   2.642 -0.9899 -0.4993  0.4506
 7832SOL    HW231094   2.442   3.160   2.671 -1.4023  0.2969 -0.9839
 7832SOL    HW331095   2.583   3.202   2.708 -1.4658 -1.6493  1.7181
 7832SOL    MW431096   2.527   3.160   2.655 -1.1071 -0.5460  0.4286
 7833SOL     OW31097   1.294   0.223   5.546 -0.2966  0.3475 -0.1050
 7833SOL    HW231098   1.203   0.245   5.564 -0.0349  1.4798 -0.1098
 7833SOL    HW331099   1.308   0.248   5.455 -0.1310 -0.3695 -0.2879
 7833SOL    MW431100   1.284   0.229   5.536 -0.2402  0.4023 -0.1297
 7834SOL     OW31101   0.121   3.453   0.071 -0.4136 -0.7002 -0.3225
 7834SOL    HW231102   0.172   3.421   0.145 -1.7830 -1.6440  0.2625
 7834SOL    HW331103   0.163   3.535   0.046  1.3845 -1.4429  0.0920
 7834SOL    MW431104   0.133   3.459   0.077 -0.3570 -0.9227 -0.1906
 7835SOL     OW31105   5.523   5.635   0.196  0.2224  0.5722 -0.1265
 7835SOL    HW231106   5.583   5.585   0.251 -0.7155 -0.0753  0.3148
 7835SOL    HW331107   5.493   5.572   0.130 -0.8976  0.5552  0.3805
 7835SOL    MW431108   5.527   5.620   0.194 -0.0491  0.4845 -0.0014
 7836SOL     OW31109   1.608   1.797   2.200  0.5784  0.3542 -0.1837
 7836SOL    HW231110   1.622   1.773   2.292 -0.8632 -0.0687 -0.0561
 7836SOL    HW331111   1.514   1.787   2.187  0.6468  1.2212 -1.4895
 7836SOL    MW431112   1.598   1.793   2.211  0.3972  0.4128 -0.3391
 7837SOL     OW31113   4.306   3.319   0.990  0.1354 -0.3539  0.3354
 7837SOL    HW231114   4.237   3.384   1.003  0.7952  0.3988  0.1468
 7837SOL    HW331115   4.354   3.319   1.072  0.8949  0.3128 -0.1002
 7837SOL    MW431116   4.303   3.327   1.002  0.3226 -0.1666  0.2530
 7838SOL     OW31117   5.186   5.057   0.196 -0.0837 -0.2819  0.0983
 7838SOL    HW231118   5.259   5.063   0.257 -0.7682 -1.6953  1.1253
 7838SOL    HW331119   5.221   5.013   0.119  0.1583 -0.9874  0.6026
 7838SOL    MW431120   5.200   5.052   0.194 -0.1421 -0.5615  0.3003
 7839SOL     OW31121   3.501   4.623   2.664  0.9254  0.3572  0.2911
 7839SOL    HW231122   3.533   4.708   2.632  1.8497  0.7215  2.0579
 7839SOL    HW331123   3.419   4.644   2.709 -1.0668 -0.3303 -2.7107
 7839SOL    MW431124   3.494   4.637   2.665  0.7845  0.3145  0.1281
 7840SOL     OW31125   0.356   5.953   3.806  0.5110 -0.0254 -0.6595
 7840SOL    HW231126   0.424   6.007   3.767  0.5357 -0.2282 -0.8976
 7840SOL    HW331127   0.374   5.955   3.900  1.0518 -0.3702 -0.7546
 7840SOL    MW431128   0.367   5.960   3.813  0.5856 -0.0976 -0.7035
 7841SOL     OW31129   4.450   2.820   3.432 -0.1453  0.0202  0.1198
 7841SOL    HW231130   4.409   2.760   3.370  0.7658 -0.5911  0.0926
 7841SOL    HW331131   4.534   2.780   3.452 -0.0664  0.6447  1.0978
 7841SOL    MW431132   4.456   2.807   3.427 -0.0147  0.0219  0.2452
 7842SOL     OW31133   1.129   0.530   1.010  0.0479 -0.0306  0.2274
 7842SOL    HW231134   1.035   0.515   1.018 -0.4396  1.7000 -1.4170
 7842SOL    HW331135   1.165   0.501   1.094 -2.1876  0.9739  1.6456
 7842SOL    MW431136   1.121   0.524   1.022 -0.3114  0.3302  0.1976
 7843SOL     OW31137   2.832   0.960   5.109 -0.3996 -0.2880 -0.2445
 7843SOL    HW231138   2.895   0.931   5.174 -0.6799 -0.1806  0.0762
 7843SOL    HW331139   2.863   1.046   5.081 -0.3116 -0.3091 -0.2122
 7843SOL    MW431140   2.844   0.967   5.114 -0.4250 -0.2766 -0.1979
 7844SOL     OW31141   5.602   5.180   5.973 -0.2024  0.2899 -0.3115
 7844SOL    HW231142   5.689   5.200   5.939  0.9933 -2.4012  0.8775
 7844SOL    HW331143   5.598   5.227   6.056  0.5396 -0.3144  0.0845
 7844SOL    MW431144   5.613   5.189   5.980  0.0533 -0.1449 -0.1024
 7845SOL     OW31145   0.964   1.781   3.775 -0.3740  0.7860  0.0494
 7845SOL    HW231146   0.966   1.827   3.691 -1.4047  0.7536 -0.0012
 7845SOL    HW331147   0.872   1.782   3.801  0.1062  2.0814  1.9111
 7845SOL    MW431148   0.952   1.787   3.768 -0.4467  0.9526  0.2883
 7846SOL     OW31149   3.620   5.085   3.448 -0.0096  0.3301  0.5950
 7846SOL    HW231150   3.653   4.997   3.429 -0.2207  0.3624  0.0772
 7846SOL    HW331151   3.637   5.097   3.542 -0.4906 -0.4893  0.8008
 7846SOL    MW431152   3.626   5.075   3.458 -0.1009  0.2263  0.5538
 7847SOL     OW31153   0.596   0.787   2.120 -0.5209  0.1615 -0.2309
 7847SOL    HW231154   0.566   0.814   2.207 -0.5067  0.3255 -0.2755
 7847SOL    HW331155   0.571   0.695   2.113  2.9245 -1.0590  1.4800
 7847SOL    MW431156   0.589   0.778   2.131 -0.0644  0.0221 -0.0110
 7848SOL     OW31157   4.583   5.232   3.748  0.2675 -0.2508  0.0990
 7848SOL    HW231158   4.677   5.229   3.731  0.2489 -1.8022  0.1578
 7848SOL    HW331159   4.553   5.312   3.705  1.2954 -0.7684 -1.6604
 7848SOL    MW431160   4.591   5.242   3.740  0.4006 -0.5238 -0.1254
 7849SOL     OW31161   5.519   5.237   2.342  0.5456  0.3769  0.4205
 7849SOL    HW231162   5.550   5.180   2.271 -0.0032  0.0046  0.4715
 7849SOL    HW331163   5.451   5.186   2.385 -0.9878  1.6204 -0.4218
 7849SOL    MW431164   5.514   5.223   2.338  0.2709  0.4919  0.3161
 7850SOL     OW31165   1.626   0.868   6.344  0.1209  0.2658 -0.1732
 7850SOL    HW231166   1.612   0.958   6.317 -1.3505 -0.2329 -1.2097
 7850SOL    HW331167   1.541   0.825   6.331  0.7052 -1.1974  0.5617
 7850SOL    MW431168   1.613   0.874   6.339  0.0038  0.0070 -0.2130
 7851SOL     OW31169   2.890   5.727   0.957  0.5079 -0.3998  0.0037
 7851SOL    HW231170   2.822   5.779   0.913 -2.1264 -2.5705  1.2003
 7851SOL    HW331171   2.941   5.791   1.007  0.3325  1.4825 -2.0664
 7851SOL    MW431172   2.888   5.743   0.958  0.1372 -0.4378 -0.1115
 7852SOL     OW31173   1.189   2.630   2.377  0.2251 -0.8867  0.1601
 7852SOL    HW231174   1.261   2.693   2.387  0.4553 -1.1084 -0.0848
 7852SOL    HW331175   1.152   2.622   2.465  0.0868 -0.2832  0.1603
 7852SOL    MW431176   1.194   2.637   2.390  0.2372 -0.8363  0.1278
 7853SOL     OW31177   2.142   1.309   0.408 -0.0698  0.3952  0.7991
 7853SOL    HW231178   2.141   1.295   0.503 -0.6956  0.9210  0.8813
 7853SOL    HW331179   2.079   1.380   0.394 -0.6724 -0.2989 -0.1029
 7853SOL    MW431180   2.133   1.317   0.419 -0.2319  0.3730  0.6909
 7854SOL     OW31181   5.501   0.490   2.617 -0.1797  0.2118  0.1634
 7854SOL    HW231182   5.551   0.480   2.698  0.3710  1.0249 -0.0763
 7854SOL    HW331183   5.416   0.523   2.646 -0.4749 -0.8108  0.5303
 7854SOL    MW431184   5.496   0.493   2.632 -0.1460  0.1841  0.1802
 7855SOL     OW31185   1.889   4.320   4.128  0.2173  0.6407 -0.2459
 7855SOL    HW231186   1.798   4.311   4.156  0.4320  1.0754  0.6373
 7855SOL    HW331187   1.927   4.233   4.137 -0.0730  0.4918 -0.4753
 7855SOL    MW431188   1.882   4.308   4.133  0.2074  0.6784 -0.1596
 7856SOL     OW31189   4.368   4.009   2.165  0.3123 -0.0071 -0.3550
 7856SOL    HW231190   4.369   4.104   2.170  1.7140 -0.0195 -0.1369
 7856SOL    HW331191   4.447   3.981   2.211 -0.5703 -1.3254  0.4272
 7856SOL    MW431192   4.379   4.018   2.172  0.3808 -0.1827 -0.2230
 7857SOL     OW31193   2.790   3.088   2.488 -0.0031  0.2284 -0.1081
 7857SOL    HW231194   2.802   3.149   2.416 -0.3152  0.9187  0.4164
 7857SOL    HW331195   2.711   3.118   2.533 -0.2675 -0.6679  0.0475
 7857SOL    MW431196   2.781   3.100   2.485 -0.0791  0.2012 -0.0184
 7858SOL     OW31197   2.777   4.272   3.380  0.0053 -0.3017 -0.0124
 7858SOL    HW231198   2.834   4.344   3.352 -0.5625 -0.0392 -0.5289
 7858SOL    HW331199   2.706   4.315   3.429  1.5305 -0.8342  2.8927
 7858SOL    MW431200   2.775   4.287   3.383  0.1316 -0.3373  0.3027
 7859SOL     OW31201   1.840   1.906   3.934 -0.2188 -0.0371 -0.5605
 7859SOL    HW231202   1.784   1.829   3.923 -0.7567  0.1801  0.5104
 7859SOL    HW331203   1.843   1.946   3.847 -1.3274 -0.3336 -0.7514
 7859SOL    MW431204   1.833   1.901   3.921 -0.4360 -0.0476 -0.4444
 7860SOL     OW31205   0.143   6.255   0.991  0.3978  0.6508  0.5704
 7860SOL    HW231206   0.068   6.223   1.040 -0.0797 -0.7771 -1.0054
 7860SOL    HW331207   0.206   6.182   0.993  0.1154  0.3032 -1.3790
 7860SOL    MW431208   0.142   6.241   0.998  0.2976  0.4165  0.1053
 7861SOL     OW31209   6.059   1.725   3.973  0.6172  0.1765  0.1439
 7861SOL    HW231210   6.025   1.637   3.957 -0.3037  0.7807 -1.4375
 7861SOL    HW331211   6.023   1.750   4.058 -1.9761  0.2943 -0.9100
 7861SOL    MW431212   6.050   1.717   3.982  0.1536  0.2718 -0.2038
 7862SOL     OW31213   3.138   2.756   2.019  0.0198  0.1348  0.5977
 7862SOL    HW231214   3.080   2.765   1.943  0.8092 -0.6598 -0.1243
 7862SOL    HW331215   3.222   2.791   1.989  0.7801 -1.6044  0.5423
 7862SOL    MW431216   3.141   2.762   2.005  0.2243 -0.1995  0.4951
 7863SOL     OW31217   4.891   4.399   5.533 -0.6262  0.2073 -0.3546
 7863SOL    HW231218   4.810   4.371   5.491 -0.1496  0.5592 -1.5271
 7863SOL    HW331219   4.953   4.329   5.515 -0.9100 -0.6055  1.4818
 7863SOL    MW431220   4.888   4.386   5.525 -0.6007  0.1465 -0.2670
 7864SOL     OW31221   0.771   2.562   3.604 -0.6029 -0.1542 -0.1090
 7864SOL    HW231222   0.799   2.515   3.526  0.3059 -1.5389  1.0139
 7864SOL    HW331223   0.833   2.635   3.610 -0.6339 -0.0761 -0.6189
 7864SOL    MW431224   0.783   2.566   3.594 -0.4871 -0.3266 -0.0281
 7865SOL     OW31225   2.476   5.054   1.041  0.0795 -0.0450 -0.1445
 7865SOL    HW231226   2.563   5.044   1.003 -0.5211  0.0702 -1.6221
 7865SOL    HW331227   2.473   5.144   1.073  0.5725 -0.1255  0.1308
 7865SOL    MW431228   2.487   5.065   1.041  0.0653 -0.0404 -0.3032
 7866SOL     OW31229   1.105   6.005   2.886  0.4455  0.2976  0.3939
 7866SOL    HW231230   1.089   5.911   2.881 -1.8630  0.5836  0.9535
 7866SOL    HW331231   1.071   6.031   2.972  1.7238  1.5429  0.5624
 7866SOL    MW431232   1.098   5.996   2.896  0.3096  0.4997  0.4899
 7867SOL     OW31233   3.706   6.078   4.420  0.2238  0.4394  0.3633
 7867SOL    HW231234   3.744   6.164   4.436  0.2158  1.1817 -2.8349
 7867SOL    HW331235   3.624   6.097   4.374 -0.9503 -1.2789  1.6393
 7867SOL    MW431236   3.700   6.092   4.416  0.0678  0.3106  0.1097
 7868SOL     OW31237   5.208   1.349   1.957 -0.3114 -0.3044 -0.2577
 7868SOL    HW231238   5.158   1.419   1.916 -0.0639  0.1009  0.1223
 7868SOL    HW331239   5.172   1.342   2.046  0.5694  0.2698  0.1564
 7868SOL    MW431240   5.197   1.357   1.963 -0.1625 -0.1752 -0.1529
 7869SOL     OW31241  -0.025   6.279   1.435 -0.4016  0.1415 -0.6992
 7869SOL    HW231242   0.062   6.245   1.454 -1.1644 -1.0827  0.8220
 7869SOL    HW331243  -0.041   6.254   1.344  0.4243 -0.5403 -0.6722
 7869SOL    MW431244  -0.016   6.271   1.425 -0.3933 -0.1100 -0.4949
 7870SOL     OW31245   3.836   2.126   3.218  0.2704  0.2294  0.3245
 7870SOL    HW231246   3.755   2.115   3.167 -0.4263  0.6444  1.3168
 7870SOL    HW331247   3.834   2.217   3.247 -0.6548 -0.5964  3.1877
 7870SOL    MW431248   3.825   2.137   3.215  0.0564  0.1752  0.8332
 7871SOL     OW31249   4.851   0.668   1.498  0.2024 -0.1837 -0.4998
 7871SOL    HW231250   4.772   0.720   1.503 -1.2786 -2.3417  0.0682
 7871SOL    HW331251   4.860   0.645   1.406  1.0959  1.3128 -0.8236
 7871SOL    MW431252   4.842   0.671   1.487  0.1249 -0.2710 -0.4676
 7872SOL     OW31253   3.194   5.107   2.333 -0.0264  0.1010  0.0445
 7872SOL    HW231254   3.251   5.150   2.396  0.5723 -0.0283 -0.4068
 7872SOL    HW331255   3.154   5.179   2.284  1.8599  0.1751 -1.4992
 7872SOL    MW431256   3.196   5.122   2.335  0.3014  0.0937 -0.2187
 7873SOL     OW31257   5.826   1.895   1.434 -0.1453  0.1084  0.9053
 7873SOL    HW231258   5.884   1.969   1.451  0.1190  0.3754 -1.0202
 7873SOL    HW331259   5.873   1.841   1.371 -2.1289  0.5833 -1.0873
 7873SOL    MW431260   5.840   1.898   1.428 -0.3721  0.2063  0.3884
 7874SOL     OW31261   4.960   2.333   0.705  0.2907 -0.4101  0.6062
 7874SOL    HW231262   4.866   2.346   0.707 -0.0338 -2.3452 -0.0020
 7874SOL    HW331263   4.997   2.418   0.732 -1.5910  0.3863  0.8174
 7874SOL    MW431264   4.953   2.346   0.709 -0.0004 -0.5604  0.5538
 7875SOL     OW31265   6.270   3.802   4.470 -0.2219  0.1269 -0.4542
 7875SOL    HW231266   6.311   3.752   4.540 -0.8711  1.9266  1.2994
 7875SOL    HW331267   6.221   3.737   4.419  1.5206 -1.4329 -0.2019
 7875SOL    MW431268   6.269   3.787   4.472 -0.0777  0.1585 -0.1896
 7876SOL     OW31269   4.426   4.092   4.481 -0.0775 -0.2397  0.7331
 7876SOL    HW231270   4.373   4.023   4.519 -0.0986 -1.6484 -1.6109
 7876SOL    HW331271   4.420   4.077   4.386  0.0089  2.9293  0.1062
 7876SOL    MW431272   4.418   4.081   4.473 -0.0688 -0.0074  0.3411
 7877SOL     OW31273   2.240   5.572   4.861  0.3119  0.7209  0.4674
 7877SOL    HW231274   2.200   5.509   4.802  0.8245 -1.4037  2.2393
 7877SOL    HW331275   2.165   5.615   4.904 -0.0804 -0.0974  0.6300
 7877SOL    MW431276   2.225   5.570   4.859  0.3278  0.3326  0.7226
 7878SOL     OW31277   2.573   1.781   4.734  0.3815 -0.3270 -0.2459
 7878SOL    HW231278   2.604   1.736   4.812  1.0149  1.7396  0.7696
 7878SOL    HW331279   2.494   1.826   4.762  0.6499  0.4891 -0.7649
 7878SOL    MW431280   2.567   1.781   4.748  0.5005  0.0534 -0.1804
 7879SOL     OW31281   1.106   4.516   3.077  0.1388 -0.1369  0.0229
 7879SOL    HW231282   1.173   4.497   3.011  0.8550 -1.1638  0.9907
 7879SOL    HW331283   1.122   4.607   3.101  1.3809 -0.4340  0.4094
 7879SOL    MW431284   1.117   4.525   3.072  0.3972 -0.3116  0.2016
 7880SOL     OW31285   4.689   0.492   0.676 -0.4353  0.2389 -0.0810
 7880SOL    HW231286   4.653   0.570   0.636  0.0503  1.4094  1.6433
 7880SOL    HW331287   4.650   0.490   0.764  1.1590 -0.2593  0.6517
 7880SOL    MW431288   4.679   0.502   0.683 -0.1609  0.3276  0.2431
 7881SOL     OW31289   4.168   1.363   0.436  0.4397 -0.3826  0.2299
 7881SOL    HW231290   4.163   1.408   0.520  0.4142  2.3689 -1.1257
 7881SOL    HW331291   4.245   1.307   0.444 -0.6043 -1.6059  2.6587
 7881SOL    MW431292   4.177   1.362   0.448  0.2986 -0.1810  0.3715
 7882SOL     OW31293   4.821   6.308   3.546  0.2787  0.3221  0.2948
 7882SOL    HW231294   4.849   6.391   3.510  0.8855  0.2942  0.6995
 7882SOL    HW331295   4.747   6.330   3.603  1.6579  0.8780  1.9705
 7882SOL    MW431296   4.815   6.322   3.549  0.5407  0.3917  0.5693
 7883SOL     OW31297   5.879   3.830   3.387 -0.1710 -0.2527  0.5821
 7883SOL    HW231298   5.968   3.796   3.400  0.9342  2.1720 -0.1133
 7883SOL    HW331299   5.823   3.752   3.392  1.9682 -1.8600  1.0420
 7883SOL    MW431300   5.883   3.815   3.389  0.2571 -0.1448  0.5510
 7884SOL     OW31301   5.094   2.109   3.646 -0.2337 -0.3737  0.5439
 7884SOL    HW231302   5.079   2.195   3.607  2.9256 -0.5050 -1.3474
 7884SOL    HW331303   5.043   2.049   3.592 -0.0497  0.0113 -0.0728
 7884SOL    MW431304   5.086   2.113   3.634  0.2074 -0.3403  0.2130
 7885SOL     OW31305   4.474   4.457   1.771 -0.1243  0.0194  0.0745
 7885SOL    HW231306   4.543   4.497   1.718 -0.0656 -0.7337 -0.4530
 7885SOL    HW331307   4.517   4.384   1.815 -0.4867 -0.1934  0.0799
 7885SOL    MW431308   4.489   4.452   1.770 -0.1644 -0.1080  0.0056
 7886SOL     OW31309   0.742   4.125   6.214 -0.2138  0.2486  0.4087
 7886SOL    HW231310   0.766   4.050   6.269  2.1872  0.1349 -0.6747
 7886SOL    HW331311   0.703   4.188   6.275  0.9775 -0.4700  1.9885
 7886SOL    MW431312   0.740   4.123   6.229  0.2602  0.1388  0.4742
 7887SOL     OW31313   1.730   5.158   6.174  0.2802 -0.1689 -0.1202
 7887SOL    HW231314   1.690   5.217   6.110 -0.4628  0.5484  0.9757
 7887SOL    HW331315   1.799   5.211   6.215  2.2238 -1.2827 -1.7572
 7887SOL    MW431316   1.734   5.173   6.171  0.4386 -0.2213 -0.1916
 7888SOL     OW31317   0.501   6.357   4.614 -0.4311  0.0224  0.3611
 7888SOL    HW231318   0.566   6.380   4.547 -2.1617 -1.7069 -2.0878
 7888SOL    HW331319   0.464   6.441   4.641  1.0376  0.8394 -0.0270
 7888SOL    MW431320   0.505   6.371   4.609 -0.4657 -0.0980 -0.0132
 7889SOL     OW31321   0.426   1.458   2.548  0.1772  0.0658  0.0869
 7889SOL    HW231322   0.471   1.442   2.466  1.0077  1.0413  0.3231
 7889SOL    HW331323   0.481   1.417   2.615  1.2326  1.9633  0.4682
 7889SOL    MW431324   0.439   1.450   2.546  0.4260  0.4449  0.1684
 7890SOL     OW31325   1.001   4.070   4.584  0.2169 -0.1181  0.2314
 7890SOL    HW231326   0.954   3.990   4.607 -0.9208  0.6753  0.7412
 7890SOL    HW331327   0.933   4.133   4.561  0.9149  1.3697  1.9270
 7890SOL    MW431328   0.986   4.068   4.584  0.1589  0.1829  0.5224
 7891SOL     OW31329   3.958   4.556   3.097  0.1646 -0.2784 -0.4614
 7891SOL    HW231330   3.966   4.555   3.002 -1.8381  0.0225 -0.6817
 7891SOL    HW331331   3.987   4.468   3.125  0.4909 -0.4634 -1.3679
 7891SOL    MW431332   3.963   4.544   3.088 -0.0566 -0.2631 -0.6101
 7892SOL     OW31333   2.607   2.635   1.196 -0.2400 -0.6305  0.6286
 7892SOL    HW231334   2.698   2.623   1.169 -0.0667 -0.4068  1.0979
 7892SOL    HW331335   2.609   2.714   1.251 -0.6910 -0.7138  0.7649
 7892SOL    MW431336   2.620   2.644   1.200 -0.2766 -0.6119  0.7085
 7893SOL     OW31337   3.993   1.138   4.272  0.2504 -0.0016 -0.0428
 7893SOL    HW231338   4.085   1.125   4.298 -0.2816 -0.6029  1.6904
 7893SOL    HW331339   3.957   1.049   4.270 -0.1401  0.1664 -1.4540
 7893SOL    MW431340   4.001   1.124   4.275  0.1287 -0.0587 -0.0003
 7894SOL     OW31341   4.474   5.020   4.287 -0.1867 -0.3420  0.3473
 7894SOL    HW231342   4.559   4.980   4.271  0.0768  0.6073 -0.7165
 7894SOL    HW331343   4.430   5.021   4.202 -2.4715 -3.3727  1.3219
 7894SOL    MW431344   4.479   5.015   4.274 -0.4534 -0.6166  0.3355
 7895SOL     OW31345   0.767   4.784   4.909 -0.1571  0.0345 -0.0529
 7895SOL    HW231346   0.798   4.753   4.994  0.8591  1.7213  0.2414
 7895SOL    HW331347   0.831   4.750   4.846 -0.9896 -1.3353 -0.1948
 7895SOL    MW431348   0.780   4.775   4.912 -0.1329  0.0763 -0.0328
 7896SOL     OW31349   1.858   2.913   4.800 -0.3476 -0.0591 -0.0942
 7896SOL    HW231350   1.946   2.876   4.797 -0.9422 -1.9922  2.5088
 7896SOL    HW331351   1.810   2.865   4.732 -0.2306 -1.6812  0.9121
 7896SOL    MW431352   1.863   2.902   4.790 -0.4106 -0.5281  0.3820
 7897SOL     OW31353   4.157   3.169   2.602  0.3254 -0.3710 -0.4120
 7897SOL    HW231354   4.209   3.178   2.683  2.6963  0.6846 -1.9436
 7897SOL    HW331355   4.087   3.234   2.612  1.1952  0.4781  0.3664
 7897SOL    MW431356   4.155   3.179   2.614  0.7529 -0.1197 -0.5114
 7898SOL     OW31357   2.420   3.078   6.295  0.0240  0.4367  0.4956
 7898SOL    HW231358   2.438   3.056   6.386  0.9566  1.1105  0.4993
 7898SOL    HW331359   2.462   3.164   6.282  0.1354  0.2347 -0.6318
 7898SOL    MW431360   2.428   3.087   6.305  0.1617  0.4990  0.3473
 7899SOL     OW31361   3.693   4.515   5.561  0.1682 -0.5687  0.0645
 7899SOL    HW231362   3.686   4.594   5.506  0.4349 -1.2165 -0.9293
 7899SOL    HW331363   3.626   4.456   5.527 -0.9926 -0.2795  1.7189
 7899SOL    MW431364   3.683   4.518   5.549  0.0502 -0.6160  0.1516
 7900SOL     OW31365   3.713   5.674   4.175  0.1528  0.4584  0.0120
 7900SOL    HW231366   3.769   5.702   4.248  0.9288 -0.8017 -0.0670
 7900SOL    HW331367   3.775   5.642   4.109 -0.6006  0.5748 -0.7697
 7900SOL    MW431368   3.729   5.674   4.176  0.1558  0.3075 -0.1015
 7901SOL     OW31369   5.610   4.728   2.444 -0.3336  0.6263 -0.1122
 7901SOL    HW231370   5.695   4.707   2.483 -1.3105 -0.3728  1.5905
 7901SOL    HW331371   5.592   4.817   2.474 -1.5511 -0.4973  2.7710
 7901SOL    MW431372   5.619   4.737   2.453 -0.6231  0.3463  0.4928
 7902SOL     OW31373   3.438   3.042   2.652 -0.1436 -0.1711 -0.9497
 7902SOL    HW231374   3.518   3.023   2.702 -0.4283 -0.7618 -0.7105
 7902SOL    HW331375   3.367   3.016   2.710 -0.5132  0.4656 -1.1185
 7902SOL    MW431376   3.439   3.036   2.666 -0.2299 -0.1650 -0.9404
 7903SOL     OW31377   2.322   5.562   2.866  0.6541 -0.5138 -0.1616
 7903SOL    HW231378   2.309   5.557   2.772  2.0628 -0.5903 -0.3789
 7903SOL    HW331379   2.357   5.476   2.890 -1.3838 -1.1582  0.7583
 7903SOL    MW431380   2.325   5.550   2.857  0.5711 -0.6089 -0.0689
 7904SOL     OW31381   5.456   3.890   1.457 -0.1582 -0.0600 -0.5478
 7904SOL    HW231382   5.475   3.953   1.526 -2.4444 -0.9911  1.0540
 7904SOL    HW331383   5.479   3.805   1.495 -1.7572 -0.6194 -0.7649
 7904SOL    MW431384   5.461   3.887   1.471 -0.6708 -0.2567 -0.3651
 7905SOL     OW31385   6.329   3.089   3.495  0.0294 -0.8503 -0.0198
 7905SOL    HW231386   6.332   3.141   3.414  0.9938 -0.6545  0.1277
 7905SOL    HW331387   6.389   3.016   3.479 -2.2109 -2.6859 -0.6989
 7905SOL    MW431388   6.337   3.086   3.482 -0.1389 -1.0666 -0.0899
 7906SOL     OW31389   4.058   4.304   3.192  0.7978  0.1817 -0.0293
 7906SOL    HW231390   4.079   4.216   3.221  0.9312  0.9250  2.3879
 7906SOL    HW331391   4.083   4.360   3.266 -2.0242  1.9589 -0.2695
 7906SOL    MW431392   4.064   4.300   3.205  0.4431  0.5143  0.2579
 7907SOL     OW31393   5.893   5.794   4.089 -0.7839  0.2429 -0.1432
 7907SOL    HW231394   5.830   5.854   4.048 -0.0648  0.2674 -1.2649
 7907SOL    HW331395   5.898   5.720   4.028  1.3507  0.8988 -0.8756
 7907SOL    MW431396   5.885   5.792   4.075 -0.4074  0.3327 -0.3878
 7908SOL     OW31397   0.322   0.211   2.965  0.2233  0.4824  0.7801
 7908SOL    HW231398   0.274   0.272   3.020 -0.2491  0.4230  0.4433
 7908SOL    HW331399   0.258   0.182   2.900  0.0258 -1.4412  1.7586
 7908SOL    MW431400   0.307   0.215   2.963  0.1349  0.2208  0.8648
 7909SOL     OW31401   5.444   0.615   0.099 -0.4026  0.1192  0.0605
 7909SOL    HW231402   5.519   0.675   0.104 -0.8341  0.5679  1.3153
 7909SOL    HW331403   5.383   0.658   0.039  0.4111 -0.3468 -1.1334
 7909SOL    MW431404   5.446   0.629   0.091 -0.3522  0.1169  0.0685
 7910SOL     OW31405   1.688   3.646   3.735  0.1806 -0.1206  0.1380
 7910SOL    HW231406   1.599   3.679   3.747  0.0533 -0.6595  0.7145
 7910SOL    HW331407   1.734   3.670   3.816  0.6120  0.3036 -0.2233
 7910SOL    MW431408   1.683   3.653   3.747  0.2207 -0.1358  0.1664
 7911SOL     OW31409   1.328   4.021   5.197  0.0614 -0.0558  0.2203
 7911SOL    HW231410   1.241   3.992   5.224 -0.1503 -1.6615 -1.9126
 7911SOL    HW331411   1.355   3.958   5.129  3.9247 -1.0977  2.3660
 7911SOL    MW431412   1.320   4.009   5.192  0.5432 -0.4051  0.2220
 7912SOL     OW31413   0.973   4.733   1.872  0.4879  0.0478 -0.4106
 7912SOL    HW231414   1.008   4.803   1.816 -0.5344  0.5417 -0.4550
 7912SOL    HW331415   1.046   4.710   1.930  0.0712  3.1962  1.6169
 7912SOL    MW431416   0.988   4.740   1.872  0.2980  0.5284 -0.1490
 7913SOL     OW31417   2.848   5.528   5.824 -0.0798 -0.9576  0.0813
 7913SOL    HW231418   2.760   5.499   5.804 -0.3165 -1.0452  1.1797
 7913SOL    HW331419   2.867   5.595   5.758 -0.3932 -1.9609 -1.0513
 7913SOL    MW431420   2.839   5.533   5.813 -0.1524 -1.1015  0.0768
 7914SOL     OW31421   5.226   2.873   5.667  0.5670  0.2375  0.4856
 7914SOL    HW231422   5.190   2.834   5.587 -0.2175  0.5116  0.6988
 7914SOL    HW331423   5.227   2.801   5.730 -0.7580  0.5019  0.8399
 7914SOL    MW431424   5.221   2.858   5.664  0.2887  0.3085  0.5605
 7915SOL     OW31425   4.399   3.548   1.249 -0.1408  0.2872  0.2307
 7915SOL    HW231426   4.341   3.556   1.173  1.6445 -1.2208 -1.4177
 7915SOL    HW331427   4.484   3.578   1.217  1.0367 -1.9060  1.1004
 7915SOL    MW431428   4.402   3.553   1.235  0.2501 -0.2011  0.1279
 7916SOL     OW31429   1.484   6.178   6.100 -0.5013  0.4645 -0.6038
 7916SOL    HW231430   1.484   6.145   6.190  0.7284  0.0512 -0.7383
 7916SOL    HW331431   1.451   6.267   6.108  0.9581  0.9661  0.4924
 7916SOL    MW431432   1.480   6.185   6.113 -0.1465  0.4761 -0.4769
 7917SOL     OW31433   0.422   1.033   1.548  0.0511  0.3457 -0.3356
 7917SOL    HW231434   0.339   1.081   1.555 -1.2834 -1.9555  0.9245
 7917SOL    HW331435   0.474   1.064   1.622 -0.4669  0.4084  0.0072
 7917SOL    MW431436   0.418   1.043   1.559 -0.1933  0.0504 -0.1241
 7918SOL     OW31437   1.393   3.250   2.368  0.2693  0.6879 -0.4701
 7918SOL    HW231438   1.487   3.242   2.352  0.3495  0.1456  0.1947
 7918SOL    HW331439   1.356   3.170   2.330  0.4302 -0.4729  1.6455
 7918SOL    MW431440   1.400   3.238   2.361  0.3011  0.4632 -0.1032
 7919SOL     OW31441   2.942   2.759   2.239  0.0917 -0.3019 -0.4423
 7919SOL    HW231442   2.970   2.704   2.312 -1.4187 -1.1630 -0.4583
 7919SOL    HW331443   3.023   2.788   2.198  0.9736 -0.0745  1.3552
 7919SOL    MW431444   2.956   2.755   2.243  0.0088 -0.3855 -0.2072
 7920SOL     OW31445   3.018   1.256   0.034  0.0493  0.9860 -0.3120
 7920SOL    HW231446   2.996   1.169   0.067  0.8143  1.2694  0.9982
 7920SOL    HW331447   2.936   1.288  -0.003 -0.7411  0.4597  0.9113
 7920SOL    MW431448   3.004   1.249   0.034  0.0459  0.9539  0.0223
 7921SOL     OW31449   3.916   5.520   5.444  0.0112  0.3413  0.4010
 7921SOL    HW231450   3.946   5.605   5.413 -0.4948  0.7548  1.0162
 7921SOL    HW331451   3.901   5.469   5.364 -1.4845  1.4530 -0.0789
 7921SOL    MW431452   3.918   5.524   5.429 -0.2529  0.5425  0.4189
 7922SOL     OW31453   2.544   0.037   4.834 -0.4212 -0.3090 -0.2882
 7922SOL    HW231454   2.485   0.014   4.906  1.3572  1.3102  1.8611
 7922SOL    HW331455   2.608  -0.034   4.831 -0.2786 -0.1944  0.0056
 7922SOL    MW431456   2.545   0.025   4.843 -0.1677 -0.0802  0.0342
 7923SOL     OW31457   0.268   0.531   4.856 -0.4040 -0.0823 -0.0106
 7923SOL    HW231458   0.336   0.550   4.791  0.0633 -0.2417  0.4206
 7923SOL    HW331459   0.250   0.615   4.898 -1.2907  0.1815 -0.8872
 7923SOL    MW431460   0.275   0.544   4.853 -0.4594 -0.0685 -0.0694
 7924SOL     OW31461   3.293   0.477   5.073 -1.3666  0.3951  0.0434
 7924SOL    HW231462   3.329   0.431   5.149  1.2039 -0.5200 -1.5968
 7924SOL    HW331463   3.225   0.419   5.040 -0.3149 -0.7454 -0.1763
 7924SOL    MW431464   3.289   0.463   5.079 -0.8887  0.1239 -0.2020
 7925SOL     OW31465   3.357   3.777   1.443  0.0119 -0.2882 -0.1885
 7925SOL    HW231466   3.406   3.733   1.512  0.1403  0.7178  0.3825
 7925SOL    HW331467   3.399   3.863   1.434 -1.1162  0.2766 -0.2743
 7925SOL    MW431468   3.369   3.782   1.451 -0.1200 -0.0809 -0.1245
 7926SOL     OW31469   2.009   0.732   4.269 -0.0106 -0.1588  0.3044
 7926SOL    HW231470   2.013   0.638   4.283 -0.3999 -0.3368 -0.7179
 7926SOL    HW331471   2.013   0.770   4.357 -0.4653 -1.1444  0.7581
 7926SOL    MW431472   2.010   0.725   4.282 -0.1219 -0.3123  0.2294
 7927SOL     OW31473   0.570   0.253   5.826  0.0055 -0.2081  0.0603
 7927SOL    HW231474   0.567   0.210   5.740  1.9687 -0.0248 -0.1665
 7927SOL    HW331475   0.660   0.286   5.832 -0.3105  0.4144  1.8976
 7927SOL    MW431476   0.582   0.252   5.815  0.2228 -0.1018  0.2728
 7928SOL     OW31477   1.289   3.305   4.591  0.5515  0.1570 -0.6444
 7928SOL    HW231478   1.241   3.378   4.553  0.2434  0.5233  0.4126
 7928SOL    HW331479   1.235   3.229   4.573  0.1180  0.4091 -0.4077
 7928SOL    MW431480   1.276   3.305   4.583  0.4537  0.2386 -0.4737
 7929SOL     OW31481   2.442   3.635   1.209  0.1252  0.6356  0.5290
 7929SOL    HW231482   2.416   3.687   1.133  1.2662  1.9453  0.9883
 7929SOL    HW331483   2.395   3.675   1.282  1.1753  1.1776  0.9200
 7929SOL    MW431484   2.432   3.647   1.208  0.4143  0.8799  0.6412
 7930SOL     OW31485   0.930   3.860   3.199 -0.4659 -0.2131 -0.1056
 7930SOL    HW231486   0.887   3.856   3.284 -1.0808  0.2579 -0.3880
 7930SOL    HW331487   1.024   3.857   3.220 -0.6083 -0.1058  0.5832
 7930SOL    MW431488   0.937   3.859   3.213 -0.5658 -0.1368 -0.0520
 7931SOL     OW31489   4.583   1.417   4.496 -0.4925 -0.1233 -0.3082
 7931SOL    HW231490   4.641   1.483   4.459 -1.0624 -0.1859 -1.3811
 7931SOL    HW331491   4.502   1.426   4.446 -1.5597  0.2236  1.4049
 7931SOL    MW431492   4.580   1.427   4.484 -0.7085 -0.0858 -0.2238
 7932SOL     OW31493   1.731   5.803   4.687  0.0417  0.3383 -0.1545
 7932SOL    HW231494   1.822   5.803   4.716  0.6955 -1.0240 -1.9904
 7932SOL    HW331495   1.698   5.717   4.712 -0.4672  0.4815 -0.3180
 7932SOL    MW431496   1.739   5.792   4.694  0.0608  0.1775 -0.4183
 7933SOL     OW31497   3.565   4.863   2.891 -0.4357 -0.0991  0.3270
 7933SOL    HW231498   3.587   4.771   2.900 -3.2478 -0.8676  0.4005
 7933SOL    HW331499   3.538   4.890   2.979  2.0978  1.4002  0.7466
 7933SOL    MW431500   3.564   4.854   2.904 -0.4725 -0.0026  0.3921
 7934SOL     OW31501   2.734   0.216   4.101 -0.9514 -0.8207 -0.1259
 7934SOL    HW231502   2.647   0.198   4.136 -1.2884  1.0536  0.1214
 7934SOL    HW331503   2.773   0.278   4.163 -0.1931 -0.1705 -1.2073
 7934SOL    MW431504   2.728   0.222   4.114 -0.8958 -0.4876 -0.2360
 7935SOL     OW31505   3.111   1.866   4.784 -0.0581 -0.3522  0.1477
 7935SOL    HW231506   3.048   1.796   4.798 -1.5179  0.4727 -1.7613
 7935SOL    HW331507   3.072   1.942   4.829  1.2797 -0.5904  1.8088
 7935SOL    MW431508   3.097   1.867   4.792 -0.0742 -0.2748  0.1150
 7936SOL     OW31509   0.539   2.196   0.431 -0.2512  0.6011 -0.1860
 7936SOL    HW231510   0.458   2.209   0.380 -0.1091 -0.4316 -0.7201
 7936SOL    HW331511   0.608   2.193   0.365  0.0441  0.1304  0.1385
 7936SOL    MW431512   0.537   2.197   0.415 -0.1935  0.4027 -0.2137
 7937SOL     OW31513   4.017   0.286   4.813  0.0121  0.1347 -0.0662
 7937SOL    HW231514   4.056   0.281   4.725  0.3450  3.6753 -0.2436
 7937SOL    HW331515   4.091   0.300   4.871 -0.3506 -0.6862  0.6091
 7937SOL    MW431516   4.032   0.287   4.809  0.0081  0.4936 -0.0005
 7938SOL     OW31517   0.800   0.115   5.623  0.6587  0.3930 -0.3870
 7938SOL    HW231518   0.808   0.197   5.672 -2.6888  0.7056 -0.1082
 7938SOL    HW331519   0.830   0.047   5.684  0.6737  1.1507  0.4725
 7938SOL    MW431520   0.805   0.117   5.637  0.2190  0.5342 -0.2368
 7939SOL     OW31521   4.710   5.807   6.370  0.1438 -0.1745  0.4184
 7939SOL    HW231522   4.799   5.771   6.374  0.6542  0.6775 -1.7610
 7939SOL    HW331523   4.715   5.889   6.419  1.3348  1.1992 -1.8484
 7939SOL    MW431524   4.723   5.813   6.377  0.3683  0.1192 -0.1682
 7940SOL     OW31525   5.237   2.524   4.962  0.4548 -0.4156 -0.2943
 7940SOL    HW231526   5.272   2.493   5.046  1.3771 -0.2216 -0.5952
 7940SOL    HW331527   5.268   2.615   4.956  2.2581 -1.0626 -1.8175
 7940SOL    MW431528   5.246   2.532   4.972  0.8144 -0.4754 -0.5350
 7941SOL     OW31529   5.979   4.774   0.495  0.4265  0.1569 -0.4567
 7941SOL    HW231530   6.033   4.752   0.419  1.1683  0.3791 -0.0077
 7941SOL    HW331531   6.042   4.807   0.560 -0.3209  0.8968 -0.1012
 7941SOL    MW431532   5.995   4.775   0.493  0.4257  0.2838 -0.3505
 7942SOL     OW31533   5.456   5.728   2.170 -0.2547 -0.8628  0.8192
 7942SOL    HW231534   5.466   5.698   2.260 -1.9137 -1.4974  0.8209
 7942SOL    HW331535   5.364   5.714   2.149 -0.1814  0.4255 -0.5814
 7942SOL    MW431536   5.445   5.722   2.179 -0.4639 -0.7765  0.6346
 7943SOL     OW31537   5.002   2.341   0.120 -0.0517 -0.6603  0.2253
 7943SOL    HW231538   5.085   2.380   0.095 -1.8101  2.1007 -1.8734
 7943SOL    HW331539   4.991   2.366   0.212  1.2983 -0.9211  0.4819
 7943SOL    MW431540   5.011   2.349   0.129 -0.1056 -0.3304 -0.0178
 7944SOL     OW31541   3.405   3.236   2.411 -0.1416  0.2480 -0.1526
 7944SOL    HW231542   3.438   3.204   2.495 -0.7708  0.2935  0.1197
 7944SOL    HW331543   3.310   3.223   2.416 -0.1105 -0.4756 -1.1784
 7944SOL    MW431544   3.397   3.230   2.423 -0.2205  0.1585 -0.2520
 7945SOL     OW31545   2.218   6.045   0.771 -0.4392  0.0409 -0.1716
 7945SOL    HW231546   2.283   6.013   0.833 -0.3245 -0.4534 -0.5394
 7945SOL    HW331547   2.213   5.976   0.705 -1.1328  0.1987 -0.2903
 7945SOL    MW431548   2.226   6.032   0.771 -0.5156 -0.0035 -0.2358
 7946SOL     OW31549   0.823   6.217   2.596 -0.2812  0.2673 -0.2066
 7946SOL    HW231550   0.782   6.159   2.532  0.0866  0.5532 -0.7101
 7946SOL    HW331551   0.750   6.259   2.641 -0.5662 -1.1326  0.6797
 7946SOL    MW431552   0.808   6.215   2.594 -0.2703  0.1203 -0.1561
 7947SOL     OW31553   3.994   0.937   1.312  0.4055  0.0327 -0.4341
 7947SOL    HW231554   3.932   0.884   1.362  1.1819  0.0468  0.5873
 7947SOL    HW331555   4.076   0.888   1.316 -0.2401 -1.9140 -4.8896
 7947SOL    MW431556   3.997   0.923   1.319  0.4227 -0.2222 -0.8872
 7948SOL     OW31557   6.200   2.720   4.625 -0.5976  0.4208 -0.0493
 7948SOL    HW231558   6.136   2.763   4.568 -0.4925 -0.3653 -0.7751
 7948SOL    HW331559   6.265   2.788   4.642 -2.3385  1.7440  1.9611
 7948SOL    MW431560   6.200   2.735   4.620 -0.8134  0.4917  0.1202
 7949SOL     OW31561   1.164   4.989   0.442  0.2653 -0.2719 -0.5932
 7949SOL    HW231562   1.131   5.026   0.524  0.4340  0.3325 -0.7896
 7949SOL    HW331563   1.129   5.047   0.374  0.2463 -0.6827 -0.9406
 7949SOL    MW431564   1.155   5.002   0.444  0.2851 -0.2463 -0.6649
 7950SOL     OW31565   0.731   0.993   1.246  0.0190 -0.5928 -0.0756
 7950SOL    HW231566   0.765   0.947   1.170 -0.0081 -1.5845  0.5008
 7950SOL    HW331567   0.808   1.026   1.291 -0.0115  1.4345 -1.3693
 7950SOL    MW431568   0.745   0.991   1.242  0.0114 -0.4562 -0.1702
 7951SOL     OW31569   4.888   6.228   0.094 -0.3075  0.4229 -0.4144
 7951SOL    HW231570   4.927   6.258   0.012  1.4096  1.1964  0.6412
 7951SOL    HW331571   4.962   6.206   0.149 -1.4288 -0.0079  0.9883
 7951SOL    MW431572   4.903   6.229   0.090 -0.2289  0.4681 -0.0900
 7952SOL     OW31573   2.987   0.352   5.264 -0.0609  0.4301 -0.0797
 7952SOL    HW231574   2.981   0.267   5.308 -0.2453  1.2236  1.4517
 7952SOL    HW331575   2.899   0.388   5.268  0.2065  1.0739  0.0405
 7952SOL    MW431576   2.975   0.345   5.270 -0.0500  0.6198  0.1382
 7953SOL     OW31577   0.552   2.447   0.242 -0.0442 -0.1188 -0.2467
 7953SOL    HW231578   0.593   2.360   0.246 -1.2529 -0.6834  0.7483
 7953SOL    HW331579   0.470   2.436   0.290 -0.6068  1.3755 -0.8255
 7953SOL    MW431580   0.547   2.434   0.249 -0.2779  0.0039 -0.1918
 7954SOL     OW31581   5.533   0.149   1.628 -0.5624 -0.0991  0.2295
 7954SOL    HW231582   5.528   0.084   1.558  0.4964 -0.9844  0.9382
 7954SOL    HW331583   5.581   0.222   1.590  0.6009 -0.8463  0.1991
 7954SOL    MW431584   5.539   0.150   1.614 -0.2692 -0.3145  0.3190
 7955SOL     OW31585   2.930   3.459   5.005  0.4384 -0.4852  0.3808
 7955SOL    HW231586   2.943   3.508   4.924 -1.1277 -0.3216  0.2009
 7955SOL    HW331587   2.880   3.517   5.061 -0.1686 -1.3148  0.7247
 7955SOL    MW431588   2.925   3.473   5.002  0.1517 -0.5730  0.4024
 7956SOL     OW31589   3.796   3.271   2.836  0.8395  0.2369 -0.2870
 7956SOL    HW231590   3.863   3.208   2.864  0.5667 -0.1452 -0.4743
 7956SOL    HW331591   3.830   3.306   2.754  0.0175 -1.2713 -1.3318
 7956SOL    MW431592   3.810   3.267   2.829  0.6950 -0.0125 -0.4495
 7957SOL     OW31593   5.747   3.147   0.725 -0.0074 -0.9166 -0.2169
 7957SOL    HW231594   5.656   3.165   0.750  0.1530  3.7198 -1.8726
 7957SOL    HW331595   5.741   3.106   0.639 -0.4798 -1.8952  0.2692
 7957SOL    MW431596   5.734   3.144   0.717 -0.0485 -0.4340 -0.3712
 7958SOL     OW31597   4.905   0.574   2.622 -0.5354 -0.1714  0.2681
 7958SOL    HW231598   4.913   0.504   2.686 -2.9860 -0.1751  0.6618
 7958SOL    HW331599   4.814   0.569   2.592 -0.0490  1.1968 -1.6264
 7958SOL    MW431600   4.894   0.564   2.626 -0.7946  0.0087  0.0701
 7959SOL     OW31601   2.708   2.848   6.282 -0.7713 -0.1799  0.0610
 7959SOL    HW231602   2.705   2.872   6.189  2.1545  1.1437  0.1899
 7959SOL    HW331603   2.616   2.839   6.307 -1.7734  1.7367 -2.3997
 7959SOL    MW431604   2.695   2.850   6.273 -0.5175  0.2476 -0.2466
 7960SOL     OW31605   5.474   3.745   0.839 -0.2361 -0.4266  0.3998
 7960SOL    HW231606   5.452   3.709   0.925  2.7460 -0.9806  1.0474
 7960SOL    HW331607   5.429   3.830   0.836 -0.6979 -0.5559  2.3317
 7960SOL    MW431608   5.465   3.752   0.850  0.0965 -0.5168  0.7401
 7961SOL     OW31609   6.191   1.542   0.107  0.2512  0.0658  0.0840
 7961SOL    HW231610   6.170   1.524   0.199 -0.4845 -0.0819 -0.1049
 7961SOL    HW331611   6.239   1.464   0.077  0.0825 -0.0904  0.2166
 7961SOL    MW431612   6.195   1.529   0.115  0.1319  0.0257  0.0766
 7962SOL     OW31613   1.167   1.286   0.419 -0.3556 -0.6219 -0.4667
 7962SOL    HW231614   1.232   1.245   0.477 -0.5011  1.6847  1.5385
 7962SOL    HW331615   1.206   1.371   0.396 -1.6744 -0.1631 -1.1354
 7962SOL    MW431616   1.181   1.292   0.424 -0.5488 -0.2571 -0.2904
 7963SOL     OW31617   5.603   2.510   1.189  0.5312  0.2793  0.4198
 7963SOL    HW231618   5.614   2.442   1.256  0.9041  0.2589  0.3377
 7963SOL    HW331619   5.542   2.471   1.126  0.3847  0.1974  0.6075
 7963SOL    MW431620   5.596   2.496   1.190  0.5611  0.2658  0.4337
 7964SOL     OW31621   4.806   1.762  -0.020  0.1420  0.2569 -0.5658
 7964SOL    HW231622   4.802   1.735   0.072  0.3281  0.6571 -0.4362
 7964SOL    HW331623   4.880   1.822  -0.024 -0.8343  1.5102 -0.6317
 7964SOL    MW431624   4.815   1.766  -0.008  0.0377  0.4750 -0.5574
 7965SOL     OW31625   2.802   6.321   6.169 -0.4160 -0.7362  0.0412
 7965SOL    HW231626   2.894   6.301   6.155 -0.1965 -0.7175  1.3121
 7965SOL    HW331627   2.759   6.236   6.174 -0.3617 -0.7610  0.0896
 7965SOL    MW431628   2.808   6.307   6.168 -0.3799 -0.7370  0.2152
 7966SOL     OW31629   2.792   1.408   4.592 -0.2962 -0.3662 -0.3346
 7966SOL    HW231630   2.798   1.502   4.572 -1.5263 -0.0006  0.8973
 7966SOL    HW331631   2.791   1.404   4.688 -0.8074 -1.6049 -0.3754
 7966SOL    MW431632   2.793   1.420   4.602 -0.5260 -0.4814 -0.1775
 7967SOL     OW31633   5.933   3.642   2.169 -0.1206 -0.0066  0.2792
 7967SOL    HW231634   6.027   3.647   2.151 -0.4996  1.9292 -1.6856
 7967SOL    HW331635   5.920   3.706   2.239 -0.2227  1.4700 -1.0277
 7967SOL    MW431636   5.944   3.651   2.176 -0.1841  0.4436 -0.1525
 7968SOL     OW31637   1.394   4.761   1.639 -0.4770 -0.9556 -0.7278
 7968SOL    HW231638   1.486   4.743   1.623 -0.4014  0.1352 -1.6988
 7968SOL    HW331639   1.347   4.704   1.579 -0.3871 -0.6669 -1.0737
 7968SOL    MW431640   1.400   4.751   1.629 -0.4552 -0.7736 -0.9015
 7969SOL     OW31641   5.992   1.496   2.983 -0.0570  0.0644  0.0202
 7969SOL    HW231642   6.046   1.551   2.927  0.8039 -1.9317 -1.2139
 7969SOL    HW331643   5.975   1.417   2.931 -2.6808 -0.1516  1.0559
 7969SOL    MW431644   5.997   1.493   2.969 -0.2896 -0.2275 -0.0060
 7970SOL     OW31645   5.447   0.134   3.860  0.3920 -0.2454 -0.2758
 7970SOL    HW231646   5.356   0.105   3.864  1.0574 -2.7978 -1.8969
 7970SOL    HW331647   5.492   0.085   3.929  0.7612  0.2418 -0.1555
 7970SOL    MW431648   5.441   0.124   3.870  0.5285 -0.5178 -0.4738
 7971SOL     OW31649   5.505   0.760   1.402  0.4571  0.2905 -0.3118
 7971SOL    HW231650   5.557   0.778   1.481  0.4420  0.8950 -0.4362
 7971SOL    HW331651   5.444   0.834   1.396 -1.4170 -1.1026  0.6337
 7971SOL    MW431652   5.504   0.772   1.412  0.2078  0.1864 -0.2035
 7972SOL     OW31653   4.324   2.644   4.343  0.3196  0.0371 -0.1115
 7972SOL    HW231654   4.310   2.646   4.249 -2.9978  0.4604  0.2783
 7972SOL    HW331655   4.398   2.704   4.358 -1.4124  2.9418 -2.1887
 7972SOL    MW431656   4.332   2.652   4.333 -0.3466  0.4762 -0.3341
 7973SOL     OW31657   0.311   1.680   6.186 -0.0079 -0.1509 -0.0566
 7973SOL    HW231658   0.295   1.775   6.181  0.2004 -0.0968  0.2284
 7973SOL    HW331659   0.266   1.644   6.110  0.5891  0.2652 -0.6204
 7973SOL    MW431660   0.303   1.688   6.176  0.0984 -0.0888 -0.0934
 7974SOL     OW31661   0.519   3.301   0.062  0.0152 -0.1417  0.4542
 7974SOL    HW231662   0.495   3.304  -0.030 -0.1889  0.9534  0.5290
 7974SOL    HW331663   0.592   3.362   0.070 -1.2494  1.3534  1.3423
 7974SOL    MW431664   0.525   3.310   0.051 -0.1786  0.2001  0.5812
 7975SOL     OW31665   3.947   4.831   4.745 -0.3880 -0.1575  0.1018
 7975SOL    HW231666   3.865   4.870   4.777  1.2212  2.5890  1.2529
 7975SOL    HW331667   3.972   4.886   4.671  0.5380 -0.8194 -0.0908
 7975SOL    MW431668   3.939   4.843   4.740 -0.0535  0.1176  0.2282
 7976SOL     OW31669   2.947   3.359   2.088 -0.3768  0.0803  0.0755
 7976SOL    HW231670   2.993   3.437   2.120  0.3372 -0.7149  1.0498
 7976SOL    HW331671   3.015   3.291   2.083 -0.9688 -0.4733 -0.8384
 7976SOL    MW431672   2.962   3.360   2.091 -0.3607 -0.0977  0.0834
 7977SOL     OW31673   3.552   1.129   2.570 -0.1198 -0.2115 -0.0553
 7977SOL    HW231674   3.627   1.132   2.629 -0.0414 -0.6964 -0.1268
 7977SOL    HW331675   3.566   1.052   2.516 -0.8290 -0.4983  0.1519
 7977SOL    MW431676   3.564   1.120   2.571 -0.2030 -0.3133 -0.0374
 7978SOL     OW31677   4.172   5.245   4.631  0.4834 -0.0784 -0.4607
 7978SOL    HW231678   4.125   5.235   4.548 -1.2192 -0.5966  0.5041
 7978SOL    HW331679   4.232   5.170   4.633 -1.3382 -1.6097 -0.1099
 7978SOL    MW431680   4.173   5.233   4.621  0.0184 -0.3488 -0.2871
 7979SOL     OW31681   1.686   5.120   3.249 -0.5376  0.6744  0.1863
 7979SOL    HW231682   1.605   5.112   3.200  0.6909 -0.1130 -1.8399
 7979SOL    HW331683   1.703   5.214   3.253 -1.4749  0.8401  0.5708
 7979SOL    MW431684   1.678   5.132   3.243 -0.4992  0.5924 -0.0303
 7980SOL     OW31685   0.804   4.407   1.983 -0.4094  0.1645 -0.0752
 7980SOL    HW231686   0.749   4.423   2.059  0.3527  2.3418  0.1088
 7980SOL    HW331687   0.768   4.465   1.915 -0.0944 -0.5322 -0.8560
 7980SOL    MW431688   0.792   4.417   1.984 -0.2673  0.3598 -0.1540
 7981SOL     OW31689   5.344   2.265   3.810 -0.1671 -0.1352 -0.2266
 7981SOL    HW231690   5.262   2.287   3.854 -0.2664  2.8141 -1.6119
 7981SOL    HW331691   5.411   2.279   3.876 -0.4198  2.8756 -0.4509
 7981SOL    MW431692   5.342   2.270   3.824 -0.2135  0.6512 -0.4390
 7982SOL     OW31693   4.358   0.946  -0.012  0.0966  0.7245  0.2587
 7982SOL    HW231694   4.269   0.949  -0.046  0.4945 -0.8400 -1.0527
 7982SOL    HW331695   4.358   0.871   0.048  0.5311  0.6532  0.1775
 7982SOL    MW431696   4.346   0.936  -0.008  0.2064  0.5087  0.0750
 7983SOL     OW31697   0.306   3.947   0.169 -0.0615  0.2554 -0.4606
 7983SOL    HW231698   0.225   3.997   0.154 -0.4844 -0.2383  0.1162
 7983SOL    HW331699   0.364   4.009   0.214 -1.2697 -0.2903  1.9974
 7983SOL    MW431700   0.303   3.962   0.173 -0.2767  0.1183 -0.0602
 7984SOL     OW31701   1.412   1.446   1.046  0.1948 -0.1447 -0.1019
 7984SOL    HW231702   1.391   1.466   0.955 -1.6567 -0.6297  0.1789
 7984SOL    HW331703   1.372   1.517   1.096  0.8112 -0.1222  0.3706
 7984SOL    MW431704   1.404   1.458   1.041  0.0318 -0.2057 -0.0025
 7985SOL     OW31705   2.630   4.443   5.523 -0.1005  0.3761  0.6212
 7985SOL    HW231706   2.641   4.405   5.435  1.3694  1.7873  0.1342
 7985SOL    HW331707   2.694   4.397   5.577 -1.5066 -1.0001  1.1641
 7985SOL    MW431708   2.640   4.432   5.518 -0.0921  0.3807  0.6286
 7986SOL     OW31709   0.264   5.237   4.423  0.1605  0.0244  0.1389
 7986SOL    HW231710   0.265   5.331   4.441 -0.9507  0.0699  0.0246
 7986SOL    HW331711   0.340   5.222   4.366  1.4824  0.5170  1.7104
 7986SOL    MW431712   0.274   5.247   4.418  0.1883  0.0954  0.3312
 7987SOL     OW31713   0.520   6.340   4.885  0.2884 -0.1961  0.6117
 7987SOL    HW231714   0.537   6.353   4.792 -1.4783  0.1408  0.2986
 7987SOL    HW331715   0.596   6.378   4.929  0.8274  0.2624 -0.6714
 7987SOL    MW431716   0.532   6.346   4.879  0.1264 -0.0911  0.4011
 7988SOL     OW31717   5.030   6.221   4.568  0.1522  0.5163  0.4825
 7988SOL    HW231718   5.054   6.314   4.564  0.4022  0.5126  1.5042
 7988SOL    HW331719   5.114   6.175   4.565  0.0945  0.3727  0.9586
 7988SOL    MW431720   5.044   6.227   4.567  0.1776  0.4969  0.6801
 7989SOL     OW31721   4.211   1.818   2.752  0.1787  0.0276  0.4300
 7989SOL    HW231722   4.259   1.854   2.827  0.3990  0.0634  0.2738
 7989SOL    HW331723   4.147   1.886   2.729 -0.3682 -0.2762  1.0266
 7989SOL    MW431724   4.209   1.832   2.759  0.1356 -0.0077  0.4881
 7990SOL     OW31725   1.958   2.495   1.285 -0.0821 -0.0603 -0.5971
 7990SOL    HW231726   1.925   2.533   1.367 -1.4850 -0.1938 -1.0777
 7990SOL    HW331727   1.968   2.402   1.305  1.9300  0.2610  0.1291
 7990SOL    MW431728   1.955   2.488   1.298 -0.0017 -0.0355 -0.5647
 7991SOL     OW31729   3.327   5.175   5.296  0.2243  0.1682  0.1536
 7991SOL    HW231730   3.266   5.215   5.357  0.0572  1.0592 -0.5754
 7991SOL    HW331731   3.381   5.247   5.265  0.8100 -0.3996 -0.1777
 7991SOL    MW431732   3.326   5.190   5.300  0.2795  0.2109  0.0137
 7992SOL     OW31733   2.796   2.172   5.698 -0.1058  0.5715 -0.4503
 7992SOL    HW231734   2.804   2.189   5.604  2.5604  0.6660 -0.3064
 7992SOL    HW331735   2.760   2.252   5.734 -0.3753  0.8486 -1.3119
 7992SOL    MW431736   2.793   2.185   5.690  0.2104  0.6206 -0.5450
 7993SOL     OW31737   4.057   6.306   0.308  0.0532 -0.2671  0.4069
 7993SOL    HW231738   4.056   6.374   0.241  0.7170 -0.5180  0.1269
 7993SOL    HW331739   4.052   6.224   0.259 -0.0650 -0.4391  0.7020
 7993SOL    MW431740   4.057   6.304   0.293  0.1252 -0.3229  0.4089
 7994SOL     OW31741   3.978   2.275   0.915  0.3434  0.1536 -0.8600
 7994SOL    HW231742   4.009   2.358   0.950 -1.4613  0.2751  0.6225
 7994SOL    HW331743   3.960   2.222   0.992 -2.4464 -0.0848 -1.5548
 7994SOL    MW431744   3.980   2.279   0.930 -0.2628  0.1382 -0.7561
 7995SOL     OW31745   6.205   2.139   2.794  0.0559 -0.3985  0.0744
 7995SOL    HW231746   6.292   2.107   2.819  0.3992  0.7372  0.4190
 7995SOL    HW331747   6.181   2.087   2.718  1.1983 -0.5036 -0.2378
 7995SOL    MW431748   6.213   2.128   2.788  0.2519 -0.2625  0.0787
 7996SOL     OW31749   2.808   3.752   4.103  0.2432  0.1147  0.3476
 7996SOL    HW231750   2.861   3.819   4.060  0.3616  0.0178  0.3431
 7996SOL    HW331751   2.758   3.711   4.032  0.1273  0.2367  0.3577
 7996SOL    MW431752   2.808   3.755   4.088  0.2435  0.1180  0.3483
 7997SOL     OW31753   3.538   6.216   0.240 -0.1106  0.3287 -0.0261
 7997SOL    HW231754   3.493   6.286   0.287  0.6087  0.5488  0.3551
 7997SOL    HW331755   3.544   6.144   0.302  0.2905  0.3964  0.0201
 7997SOL    MW431756   3.533   6.215   0.254  0.0372  0.3667  0.0303
 7998SOL     OW31757   2.034   0.569   3.606 -0.2314  0.5059 -0.4960
 7998SOL    HW231758   1.982   0.609   3.537 -0.9637  1.3101  0.4849
 7998SOL    HW331759   2.009   0.616   3.686 -0.8068 -1.6056  0.6544
 7998SOL    MW431760   2.024   0.580   3.608 -0.4039  0.3334 -0.2148
 7999SOL     OW31761   2.563   2.512   5.046  0.3571 -0.2280  0.4223
 7999SOL    HW231762   2.509   2.499   4.968 -0.8591  3.5693  0.4709
 7999SOL    HW331763   2.509   2.480   5.118 -0.1860 -0.0900  0.0834
 7999SOL    MW431764   2.549   2.506   5.045  0.1250  0.2912  0.3840
 8000SOL     OW31765   0.664   4.118   3.341  0.1690  0.5925  0.2876
 8000SOL    HW231766   0.747   4.125   3.294  0.0834 -0.2728 -0.0116
 8000SOL    HW331767   0.688   4.084   3.428 -0.1899 -5.6703 -1.5235
 8000SOL    MW431768   0.678   4.114   3.346  0.1104 -0.3480  0.0092
 8001SOL     OW31769   6.330   0.590   2.474 -0.4730  0.1269 -0.2590
 8001SOL    HW231770   6.416   0.581   2.435 -0.2493 -0.4307  0.3490
 8001SOL    HW331771   6.335   0.541   2.556 -1.1516  0.6620  0.1167
 8001SOL    MW431772   6.342   0.583   2.480 -0.5330  0.1239 -0.1292
 8002SOL     OW31773   2.127   4.325   0.144  0.2090 -0.1617  0.4035
 8002SOL    HW231774   2.157   4.238   0.173  0.6339 -0.4863 -0.9359
 8002SOL    HW331775   2.198   4.358   0.089 -0.8747  0.0754 -0.9110
 8002SOL    MW431776   2.141   4.318   0.141  0.1221 -0.1733  0.0533
 8003SOL     OW31777   3.678   5.243   3.052  0.3090 -0.2124  0.3189
 8003SOL    HW231778   3.696   5.291   2.971 -0.3733 -0.3823  0.0575
 8003SOL    HW331779   3.620   5.172   3.025  1.0462 -0.9987  0.7600
 8003SOL    MW431780   3.673   5.240   3.038  0.3163 -0.3385  0.3426
 8004SOL     OW31781   0.231   0.372   6.205 -0.3018 -0.0955 -0.0945
 8004SOL    HW231782   0.292   0.369   6.132 -0.6119 -2.5966 -0.3495
 8004SOL    HW331783   0.157   0.423   6.172  0.8801  1.4896 -0.3810
 8004SOL    MW431784   0.229   0.378   6.191 -0.1868 -0.2164 -0.1660
 8005SOL     OW31785   6.190   4.187   0.751 -0.5845  0.5093  0.8373
 8005SOL    HW231786   6.167   4.153   0.837 -1.0247 -0.4267  0.3642
 8005SOL    HW331787   6.108   4.222   0.717 -0.6585 -0.0990  0.3722
 8005SOL    MW431788   6.176   4.187   0.758 -0.6523  0.3055  0.7135
 8006SOL     OW31789   4.794   4.466   4.313  0.2005  0.2293 -0.2545
 8006SOL    HW231790   4.772   4.412   4.237  0.9755 -0.5125  0.0259
 8006SOL    HW331791   4.718   4.459   4.371  0.4497 -0.9356 -0.0354
 8006SOL    MW431792   4.781   4.458   4.311  0.3356 -0.0223 -0.1886
 8007SOL     OW31793   4.866   2.439   5.967 -0.3280 -0.0597 -0.1077
 8007SOL    HW231794   4.790   2.446   6.025 -0.6488 -0.4349 -0.4806
 8007SOL    HW331795   4.940   2.424   6.027 -0.7581 -1.1388  0.1784
 8007SOL    MW431796   4.866   2.438   5.983 -0.4271 -0.2516 -0.1191
 8008SOL     OW31797   3.382   6.150   2.605  0.2532  0.7476  0.0593
 8008SOL    HW231798   3.366   6.066   2.563 -2.5402  2.0175 -1.6541
 8008SOL    HW331799   3.474   6.169   2.586  0.9777 -1.8817  0.5655
 8008SOL    MW431800   3.392   6.142   2.597 -0.0197  0.5682 -0.0999
 8009SOL     OW31801   3.359   3.158   0.007 -0.2879 -0.2500 -0.0146
 8009SOL    HW231802   3.373   3.064   0.020 -0.4904 -0.2084  0.5355
 8009SOL    HW331803   3.388   3.198   0.089 -1.3276  0.0555  0.2162
 8009SOL    MW431804   3.365   3.151   0.020 -0.4518 -0.2042  0.0885
 8010SOL     OW31805   3.710   4.766   4.991  0.1463  0.4687 -0.2641
 8010SOL    HW231806   3.619   4.748   4.966  0.1292  0.1241  0.0326
 8010SOL    HW331807   3.762   4.702   4.943  0.1580  0.1472  0.1639
 8010SOL    MW431808   3.705   4.755   4.981  0.1456  0.3808 -0.1685
 8011SOL     OW31809   4.868   3.602   2.203 -0.4607  0.6529 -0.2820
 8011SOL    HW231810   4.795   3.654   2.169 -0.2889  0.3613 -1.1109
 8011SOL    HW331811   4.940   3.620   2.143  0.0202  0.5630  0.2543
 8011SOL    MW431812   4.868   3.611   2.191 -0.3746  0.6025 -0.3206
 8012SOL     OW31813   1.046   4.220   0.744 -0.4083  0.7497 -0.5397
 8012SOL    HW231814   1.121   4.279   0.746  0.9163 -0.8624 -1.2521
 8012SOL    HW331815   1.041   4.184   0.832  0.2774  0.1112 -0.7576
 8012SOL    MW431816   1.055   4.223   0.756 -0.1431  0.4527 -0.6625
 8013SOL     OW31817   3.413   2.223   2.154 -0.5807 -0.4460  0.2416
 8013SOL    HW231818   3.345   2.261   2.098 -1.2486 -1.1826  0.5307
 8013SOL    HW331819   3.417   2.131   2.127  1.5069 -0.0757 -0.9381
 8013SOL    MW431820   3.405   2.216   2.143 -0.3934 -0.4944  0.1241
 8014SOL     OW31821   5.359   0.124   4.872  0.1712 -0.0657 -0.1199
 8014SOL    HW231822   5.424   0.191   4.849 -2.3478  1.8282 -2.3060
 8014SOL    HW331823   5.398   0.042   4.841  1.0103  1.1780 -2.6394
 8014SOL    MW431824   5.373   0.122   4.865 -0.0504  0.3483 -0.7407
 8015SOL     OW31825   4.937   4.516   4.640  0.1357 -0.0319 -0.8045
 8015SOL    HW231826   4.987   4.474   4.570  0.9312 -0.3184 -0.0823
 8015SOL    HW331827   4.982   4.490   4.721 -0.7047  0.3703 -0.1896
 8015SOL    MW431828   4.950   4.507   4.642  0.1298 -0.0167 -0.6281
 8016SOL     OW31829   4.058   1.408   1.088 -0.1239 -0.3110 -0.0191
 8016SOL    HW231830   4.036   1.333   1.144 -1.4742 -0.2635 -0.4642
 8016SOL    HW331831   4.086   1.369   1.006 -0.4031 -0.3333 -0.1031
 8016SOL    MW431832   4.059   1.393   1.085 -0.3389 -0.3077 -0.0889
 8017SOL     OW31833   5.067   1.490   0.656  0.0611  0.3793 -0.1585
 8017SOL    HW231834   5.000   1.461   0.719  1.6962 -1.2608  0.9321
 8017SOL    HW331835   5.133   1.533   0.710  0.9446 -0.0122 -0.9019
 8017SOL    MW431836   5.067   1.492   0.672  0.3934  0.1113 -0.1127
 8018SOL     OW31837   0.984   3.692   1.397 -0.9307 -0.5654 -0.0899
 8018SOL    HW231838   1.038   3.640   1.338 -1.1109 -0.7516 -0.0929
 8018SOL    HW331839   1.043   3.714   1.470  0.6104  3.2026 -2.1739
 8018SOL    MW431840   0.999   3.688   1.399 -0.7511 -0.0928 -0.3652
 8019SOL     OW31841   3.340   6.187   3.367 -0.0685 -0.4079  0.0083
 8019SOL    HW231842   3.380   6.256   3.421 -1.4700 -0.3018  0.9819
 8019SOL    HW331843   3.320   6.230   3.284  0.0148  0.0885  0.2382
 8019SOL    MW431844   3.342   6.202   3.363 -0.2424 -0.3284  0.1671
 8020SOL     OW31845   2.582   5.473   5.287 -0.1159  0.3897  1.0873
 8020SOL    HW231846   2.515   5.537   5.308 -1.2237  0.6646 -2.6153
 8020SOL    HW331847   2.533   5.396   5.258  1.1213  0.1277 -0.4438
 8020SOL    MW431848   2.567   5.471   5.286 -0.0988  0.3914  0.3967
 8021SOL     OW31849   4.163   5.772   3.252  0.2218 -0.4823 -0.1486
 8021SOL    HW231850   4.148   5.707   3.182  0.3053 -1.9246  1.1180
 8021SOL    HW331851   4.080   5.775   3.300  0.5801 -0.5167  0.4824
 8021SOL    MW431852   4.150   5.764   3.249  0.2801 -0.6772  0.1018
 8022SOL     OW31853   3.580   0.872   3.699  0.5691  0.1935  0.0163
 8022SOL    HW231854   3.616   0.927   3.630 -0.8961 -0.8780 -1.7160
 8022SOL    HW331855   3.603   0.916   3.781  1.1409  2.2714 -1.2053
 8022SOL    MW431856   3.588   0.885   3.701  0.4512  0.3263 -0.3734
 8023SOL     OW31857   3.050   0.165   4.751  0.1194 -0.4725  0.2399
 8023SOL    HW231858   3.021   0.140   4.663 -0.0063 -0.7936  0.3697
 8023SOL    HW331859   2.974   0.147   4.806  0.1963 -0.2613  0.4119
 8023SOL    MW431860   3.036   0.159   4.746  0.1130 -0.4870  0.2797
 8024SOL     OW31861   4.483   1.009   1.344 -0.3351  0.5511  0.2732
 8024SOL    HW231862   4.533   1.016   1.263 -1.3693  2.6274 -0.2332
 8024SOL    HW331863   4.534   0.948   1.398  1.1457  0.2828 -1.3370
 8024SOL    MW431864   4.496   1.002   1.341 -0.2762  0.7896 -0.0061
 8025SOL     OW31865   2.850   0.872   4.859 -0.2412  0.4476 -0.3972
 8025SOL    HW231866   2.943   0.886   4.838 -0.6405  1.8505 -1.3468
 8025SOL    HW331867   2.835   0.925   4.937 -0.0837 -0.3889  0.2176
 8025SOL    MW431868   2.860   0.881   4.866 -0.2731  0.5223 -0.4414
 8026SOL     OW31869   4.719   4.228   6.375 -0.4476  0.2398  0.2350
 8026SOL    HW231870   4.664   4.291   6.328  0.2783  0.7723  0.0703
 8026SOL    HW331871   4.774   4.283   6.432 -0.2149 -0.2908  0.5257
 8026SOL    MW431872   4.719   4.244   6.376 -0.3211  0.2400  0.2517
 8027SOL     OW31873   6.303   2.898   4.913  0.0297 -0.4507  0.4912
 8027SOL    HW231874   6.214   2.924   4.938 -1.3269 -1.9294 -2.3369
 8027SOL    HW331875   6.335   2.971   4.859  0.4923 -0.0227  1.3185
 8027SOL    MW431876   6.295   2.911   4.909 -0.0882 -0.5894  0.2272
 8028SOL     OW31877   5.675   5.926   6.056 -0.4910 -0.1827  0.1383
 8028SOL    HW231878   5.604   5.901   6.115 -1.0722  3.1204  0.9906
 8028SOL    HW331879   5.744   5.958   6.114  0.7774 -1.0942 -0.8102
 8028SOL    MW431880   5.675   5.927   6.071 -0.4003  0.1328  0.1256
 8029SOL     OW31881   1.245   0.689   4.360 -0.0235  0.1421  0.0100
 8029SOL    HW231882   1.214   0.685   4.451  2.2672 -1.1029  0.8349
 8029SOL    HW331883   1.253   0.597   4.334  0.5102  0.4662 -1.0014
 8029SOL    MW431884   1.242   0.676   4.369  0.3491  0.0206 -0.0146
 8030SOL     OW31885   6.270   0.433   2.706 -0.0912 -0.4837  0.3490
 8030SOL    HW231886   6.244   0.341   2.709 -1.2508 -0.1577  1.6684
 8030SOL    HW331887   6.328   0.445   2.781  1.0890 -0.4051 -0.5556
 8030SOL    MW431888   6.274   0.423   2.717 -0.0885 -0.4303  0.4037
 8031SOL     OW31889   5.793   3.032   5.848 -0.2410  0.1478 -0.0510
 8031SOL    HW231890   5.776   2.949   5.804 -1.3009  1.4492 -2.2744
 8031SOL    HW331891   5.707   3.072   5.859  0.2035  0.7711  1.4300
 8031SOL    MW431892   5.779   3.027   5.844 -0.3222  0.4017 -0.1490
 8032SOL     OW31893   5.352   2.841   5.247  0.0802 -0.2405  0.1563
 8032SOL    HW231894   5.414   2.778   5.284  0.0706 -0.3350  0.0078
 8032SOL    HW331895   5.332   2.808   5.160  2.6317  1.6840 -1.3033
 8032SOL    MW431896   5.358   2.828   5.241  0.4156  0.0009 -0.0559
 8033SOL     OW31897   2.070   4.550   4.148  0.7096  0.0029  0.5536
 8033SOL    HW231898   2.018   4.475   4.119  0.1544 -0.0101  1.5695
 8033SOL    HW331899   2.156   4.513   4.167  1.0161 -0.0371 -0.7847
 8033SOL    MW431900   2.075   4.535   4.146  0.6768 -0.0041  0.5110
 8034SOL     OW31901   3.202   4.287   2.552  0.8923 -0.4537  0.3403
 8034SOL    HW231902   3.290   4.322   2.560  0.4737  0.9944 -0.7751
 8034SOL    HW331903   3.180   4.256   2.640  1.1759  2.5366  1.5981
 8034SOL    MW431904   3.210   4.288   2.565  0.8745  0.1318  0.3591
 8035SOL     OW31905   4.172   4.903   0.908 -0.2397 -0.3561 -0.3020
 8035SOL    HW231906   4.218   4.858   0.838 -1.0924 -0.6671 -0.6760
 8035SOL    HW331907   4.196   4.995   0.897  0.4863 -0.5456 -0.3294
 8035SOL    MW431908   4.181   4.909   0.897 -0.2564 -0.4221 -0.3549
 8036SOL     OW31909   4.229   5.779   6.234 -0.0250  0.0731  1.1169
 8036SOL    HW231910   4.213   5.792   6.328 -0.8852 -0.6307  1.0805
 8036SOL    HW331911   4.264   5.691   6.228 -0.3397 -0.0254  0.7338
 8036SOL    MW431912   4.231   5.769   6.246 -0.1800 -0.0328  1.0616
 8037SOL     OW31913   0.192   3.997   5.043  0.2753  0.1946  0.1719
 8037SOL    HW231914   0.195   3.902   5.030  1.1549  0.2158  0.2062
 8037SOL    HW331915   0.188   4.008   5.138 -3.1910  0.1261  0.1576
 8037SOL    MW431916   0.192   3.986   5.053 -0.0660  0.1884  0.1746
 8038SOL     OW31917   5.618   5.149   4.891  0.1104  0.0794 -0.1866
 8038SOL    HW231918   5.590   5.080   4.830  1.7570 -1.9964  1.2442
 8038SOL    HW331919   5.577   5.125   4.974 -0.2402  1.5470  0.0825
 8038SOL    MW431920   5.609   5.137   4.894  0.2814 -0.0009  0.0377
 8039SOL     OW31921   5.842   1.950   5.195 -0.0896  0.2220  0.3416
 8039SOL    HW231922   5.814   2.017   5.258 -0.3223  0.0119  0.4643
 8039SOL    HW331923   5.868   2.000   5.118  0.3242  0.4901  0.6492
 8039SOL    MW431924   5.842   1.966   5.193 -0.0657  0.2296  0.3984
 8040SOL     OW31925   3.696   1.337   6.245 -0.3130  0.1838  0.5910
 8040SOL    HW231926   3.704   1.340   6.341 -0.7010  1.7904  0.5907
 8040SOL    HW331927   3.666   1.424   6.220  3.2093  1.0340 -1.3094
 8040SOL    MW431928   3.693   1.349   6.255  0.1006  0.5080  0.3402
 8041SOL     OW31929   4.942   0.225   6.203 -0.1715 -0.5873 -0.7980
 8041SOL    HW231930   4.984   0.260   6.125  2.1029  0.0545  0.6098
 8041SOL    HW331931   5.015   0.197   6.259 -1.6043  0.6014  1.8380
 8041SOL    MW431932   4.958   0.226   6.200 -0.0604 -0.3458 -0.2645
 8042SOL     OW31933   0.939   4.403   2.811 -0.5067  0.0233  0.5150
 8042SOL    HW231934   0.877   4.467   2.775 -0.4702  0.2103  0.7806
 8042SOL    HW331935   0.916   4.321   2.768  0.3411  0.4866 -0.9059
 8042SOL    MW431936   0.928   4.401   2.801 -0.3900  0.1091  0.3626
 8043SOL     OW31937   5.316   2.073   1.873  0.1963  0.1248 -0.4640
 8043SOL    HW231938   5.336   2.158   1.912  0.8013  0.9016 -2.3446
 8043SOL    HW331939   5.337   2.009   1.941  0.1894  1.4378  0.8206
 8043SOL    MW431940   5.321   2.076   1.887  0.2752  0.4005 -0.5427
 8044SOL     OW31941   5.708   0.955   2.080  0.0803  0.3523  0.0836
 8044SOL    HW231942   5.715   0.871   2.125 -1.1198 -0.1140 -0.5657
 8044SOL    HW331943   5.635   0.999   2.124  0.5571  0.9782  0.2700
 8044SOL    MW431944   5.699   0.950   2.092 -0.0151  0.3734  0.0225
 8045SOL     OW31945   1.515   0.232   6.152 -0.4154 -0.0896 -0.4182
 8045SOL    HW231946   1.479   0.320   6.138 -1.3981 -0.4003  0.0488
 8045SOL    HW331947   1.582   0.244   6.219  0.8229  0.5936 -1.7217
 8045SOL    MW431948   1.519   0.245   6.159 -0.3817 -0.0404 -0.5285
 8046SOL     OW31949   0.642   4.241   2.809 -0.1556 -0.0544  0.1697
 8046SOL    HW231950   0.731   4.222   2.779 -0.7978  1.3644 -3.0129
 8046SOL    HW331951   0.603   4.156   2.826  1.3644 -0.7536  0.2842
 8046SOL    MW431952   0.648   4.228   2.808 -0.0398  0.0405 -0.2351
 8047SOL     OW31953   4.173   2.314   4.413  0.2844 -0.5249 -0.3784
 8047SOL    HW231954   4.167   2.338   4.321  1.0091 -1.0460 -0.5674
 8047SOL    HW331955   4.250   2.361   4.445 -1.4217  1.7483  0.6390
 8047SOL    MW431956   4.182   2.324   4.405  0.1549 -0.2937 -0.2691
 8048SOL     OW31957   3.359   3.103   6.002 -0.6501  0.3129 -0.0907
 8048SOL    HW231958   3.363   3.172   5.936 -1.0368  2.6297  2.1358
 8048SOL    HW331959   3.278   3.120   6.050  0.5660  0.0557  2.2290
 8048SOL    MW431960   3.349   3.114   6.000 -0.5407  0.5846  0.5091
 8049SOL     OW31961   4.920   3.567   4.072  0.3035 -0.2116 -0.1402
 8049SOL    HW231962   4.968   3.487   4.092  0.3763 -0.0090  0.5249
 8049SOL    HW331963   4.985   3.624   4.031  0.6588  0.0716  0.7809
 8049SOL    MW431964   4.935   3.564   4.069  0.3600 -0.1475  0.0691
 8050SOL     OW31965   2.259   6.057   1.626  0.0692 -0.6148  0.2226
 8050SOL    HW231966   2.352   6.074   1.612 -0.1524  1.0299  0.6415
 8050SOL    HW331967   2.233   6.008   1.547  1.0259 -0.0858 -0.4518
 8050SOL    MW431968   2.268   6.053   1.613  0.1662 -0.3280  0.1889
 8051SOL     OW31969   5.706   0.865   0.497 -0.2365 -0.0917 -0.6066
 8051SOL    HW231970   5.617   0.831   0.505  0.1304 -0.7649  0.7678
 8051SOL    HW331971   5.705   0.946   0.547  0.4285 -1.1363  1.1772
 8051SOL    MW431972   5.694   0.871   0.504 -0.1003 -0.3184 -0.1899
 8052SOL     OW31973   0.015   5.015   0.701 -0.3549  0.0844 -0.0888
 8052SOL    HW231974   0.098   4.996   0.657 -0.5190 -0.8304 -0.0054
 8052SOL    HW331975   0.041   5.039   0.790 -0.2463 -1.4791  0.3291
 8052SOL    MW431976   0.030   5.016   0.707 -0.3622 -0.2425 -0.0227
 8053SOL     OW31977   6.077   3.942   4.622  0.7510  0.1775 -0.2524
 8053SOL    HW231978   6.124   3.878   4.568 -0.4121 -2.1159  1.3010
 8053SOL    HW331979   5.985   3.932   4.596  0.4353  0.5436  0.6855
 8053SOL    MW431980   6.071   3.932   4.611  0.5559 -0.0768  0.0763
 8054SOL     OW31981   1.729   2.832   1.104 -0.1728 -0.1449  0.1954
 8054SOL    HW231982   1.694   2.814   1.191  3.3595 -0.9035  1.6126
 8054SOL    HW331983   1.797   2.766   1.090  0.8212  1.2428 -2.2446
 8054SOL    MW431984   1.733   2.821   1.114  0.4244 -0.0619  0.0605
 8055SOL     OW31985   4.338   3.625   3.630 -0.2808 -0.0527 -0.0679
 8055SOL    HW231986   4.378   3.645   3.715 -0.1355 -0.0468 -0.1374
 8055SOL    HW331987   4.314   3.533   3.636 -1.3979  0.2373  0.4382
 8055SOL    MW431988   4.340   3.616   3.642 -0.4090 -0.0137 -0.0103
 8056SOL     OW31989   0.594   1.073   4.609 -0.1944 -0.0714 -0.0655
 8056SOL    HW231990   0.687   1.067   4.630  0.4742  2.0386 -2.0247
 8056SOL    HW331991   0.578   0.999   4.549 -0.1788 -1.2512  1.3204
 8056SOL    MW431992   0.604   1.062   4.604 -0.1041  0.0513 -0.1412
 8057SOL     OW31993   2.819   3.609   3.082  0.0100  0.1771  0.1422
 8057SOL    HW231994   2.758   3.539   3.106 -0.1028  0.0953 -0.3811
 8057SOL    HW331995   2.829   3.602   2.988  2.1284 -0.8543  0.3959
 8057SOL    MW431996   2.812   3.599   3.073  0.2746  0.0302  0.1066
 8058SOL     OW31997   0.185   1.834   5.966  0.3040  0.0550  0.5757
 8058SOL    HW231998   0.251   1.798   5.907 -0.2758  0.9292 -0.6492
 8058SOL    HW331999   0.107   1.780   5.951  0.2976 -0.0419  0.9357
 8058SOL    MW432000   0.183   1.822   5.956  0.2267  0.1576  0.4616
 8059SOL     OW32001   4.091   3.159   4.636  0.2921  0.3655  0.2143
 8059SOL    HW232002   4.105   3.141   4.729 -1.7283 -1.1425  0.3045
 8059SOL    HW332003   4.026   3.229   4.634 -0.0137  0.0811 -0.0391
 8059SOL    MW432004   4.084   3.166   4.648 -0.0148  0.1290  0.1927
 8060SOL     OW32005   0.987   5.024   6.101 -0.0828 -0.7269 -0.1831
 8060SOL    HW232006   0.982   4.973   6.020 -0.6522 -0.1298 -0.5320
 8060SOL    HW332007   0.903   5.068   6.108  0.6555  0.7853 -0.3095
 8060SOL    MW432008   0.975   5.023   6.091 -0.0605 -0.4486 -0.2458
 8061SOL     OW32009   6.285   6.183   1.928 -0.1501 -0.0865  0.2363
 8061SOL    HW232010   6.244   6.171   1.842  0.5844 -1.0449  0.0035
 8061SOL    HW332011   6.317   6.273   1.926  0.3225 -0.2563 -0.7152
 8061SOL    MW432012   6.283   6.193   1.916  0.0092 -0.2353  0.0800
 8062SOL     OW32013   0.493   2.914   5.580  0.1993 -0.6328 -0.4346
 8062SOL    HW232014   0.481   3.006   5.603  1.8438 -0.2299 -0.9990
 8062SOL    HW332015   0.407   2.874   5.592  0.0879  0.3125  2.7192
 8062SOL    MW432016   0.480   2.920   5.584  0.4016 -0.4549 -0.0929
 8063SOL     OW32017   6.367   5.101   0.395  0.1377  0.3751  0.5329
 8063SOL    HW232018   6.292   5.148   0.433 -0.0912  0.4302  0.0278
 8063SOL    HW332019   6.439   5.164   0.397  0.4614 -0.0180  1.9794
 8063SOL    MW432020   6.366   5.115   0.400  0.1502  0.3305  0.6571
 8064SOL     OW32021   2.960   3.717   1.272 -0.3151 -0.6668  0.0629
 8064SOL    HW232022   2.959   3.727   1.177  2.0228 -1.2467 -0.0718
 8064SOL    HW332023   2.989   3.802   1.305 -1.1221 -0.4663  0.2962
 8064SOL    MW432024   2.964   3.730   1.264 -0.1131 -0.7168  0.0759
 8065SOL     OW32025   1.676   5.158   1.857  0.7340  0.4725 -0.3641
 8065SOL    HW232026   1.753   5.212   1.840  2.5613 -1.9330 -0.2619
 8065SOL    HW332027   1.665   5.159   1.952 -2.5609  4.7866 -0.5128
 8065SOL    MW432028   1.685   5.165   1.867  0.5404  0.7243 -0.3702
 8066SOL     OW32029   0.710   0.773   1.626 -0.1963 -0.2350 -0.2351
 8066SOL    HW232030   0.786   0.830   1.613 -1.5030  1.3136 -1.3941
 8066SOL    HW332031   0.650   0.796   1.556 -2.4004 -0.2998  1.5180
 8066SOL    MW432032   0.712   0.784   1.615 -0.6595 -0.0392 -0.1567
 8067SOL     OW32033   2.516   5.295   3.247  0.0547 -0.5839  0.2510
 8067SOL    HW232034   2.581   5.301   3.318  1.0556  1.2361 -0.7491
 8067SOL    HW332035   2.432   5.307   3.291  0.6583  0.5622  1.1532
 8067SOL    MW432036   2.514   5.297   3.263  0.2664 -0.1925  0.2381
 8068SOL     OW32037   2.097   6.123   2.899  0.0193 -0.0912  0.1770
 8068SOL    HW232038   2.182   6.166   2.910  0.2886 -0.8907  1.5174
 8068SOL    HW332039   2.116   6.030   2.914 -1.1071 -0.2552  0.6426
 8068SOL    MW432040   2.111   6.116   2.902 -0.0938 -0.2183  0.4153
 8069SOL     OW32041   4.858   4.955   5.145  0.1096 -0.1709 -0.4022
 8069SOL    HW232042   4.780   4.930   5.096  2.5721 -0.4990 -4.7889
 8069SOL    HW332043   4.862   5.050   5.137  0.2549 -0.1800 -0.4473
 8069SOL    MW432044   4.849   4.964   5.137  0.4537 -0.2154 -0.9869
 8070SOL     OW32045   1.584   4.051   3.581 -0.0200 -0.2077 -0.0592
 8070SOL    HW232046   1.656   4.060   3.519 -0.5755  0.0026 -0.6876
 8070SOL    HW332047   1.588   4.131   3.634  1.8776 -1.4038  1.7633
 8070SOL    MW432048   1.594   4.063   3.580  0.1571 -0.3377  0.0983
 8071SOL     OW32049   3.674   4.823   1.970 -0.1114 -0.0867  0.6571
 8071SOL    HW232050   3.593   4.864   1.939 -1.1018 -1.9951  0.5141
 8071SOL    HW332051   3.739   4.844   1.903 -0.6826  0.8345  0.3737
 8071SOL    MW432052   3.672   4.831   1.957 -0.3174 -0.2169  0.6009
 8072SOL     OW32053   5.184   4.386   2.420  0.4268 -0.0582  0.0841
 8072SOL    HW232054   5.211   4.408   2.509  0.7260 -0.1760  0.0241
 8072SOL    HW332055   5.099   4.429   2.409  0.5776  0.2927  0.2855
 8072SOL    MW432056   5.177   4.395   2.430  0.4862 -0.0274  0.1028
 8073SOL     OW32057   1.110   4.799   2.749  0.2561  0.4318 -0.3701
 8073SOL    HW232058   1.073   4.783   2.662  0.8684 -1.6100 -0.3051
 8073SOL    HW332059   1.035   4.791   2.809  0.1271  0.1444 -0.5674
 8073SOL    MW432060   1.095   4.796   2.745  0.3199  0.1245 -0.3876
 8074SOL     OW32061   0.295   1.985   2.209  0.1681 -0.3392  0.2556
 8074SOL    HW232062   0.341   2.027   2.136 -0.3392  2.2037  1.3014
 8074SOL    HW332063   0.208   1.965   2.175  0.3839 -0.4558 -0.2342
 8074SOL    MW432064   0.290   1.988   2.195  0.1296 -0.0191  0.3290
 8075SOL     OW32065   1.321   4.034   4.838  0.0878  0.0952 -0.4485
 8075SOL    HW232066   1.413   4.056   4.855  0.0631  0.2022 -0.4579
 8075SOL    HW332067   1.282   4.115   4.806 -0.0443  0.0833 -0.3129
 8075SOL    MW432068   1.328   4.047   4.836  0.0671  0.1078 -0.4319
 8076SOL     OW32069   5.529   5.124   2.083 -0.6738  0.1424  0.2684
 8076SOL    HW232070   5.510   5.037   2.118  0.9039  0.3342  1.7339
 8076SOL    HW332071   5.581   5.107   2.004  0.7936 -0.2946  1.2750
 8076SOL    MW432072   5.533   5.111   2.077 -0.2720  0.1101  0.5946
 8077SOL     OW32073   5.024   2.101   2.172  0.4569 -0.1748 -0.0926
 8077SOL    HW232074   4.950   2.149   2.210  0.5666  0.1326 -0.2708
 8077SOL    HW332075   5.095   2.112   2.235  0.2214 -0.8406  0.2947
 8077SOL    MW432076   5.023   2.109   2.185  0.4403 -0.2221 -0.0650
 8078SOL     OW32077   4.894   1.304   5.943  0.3380  0.3411 -0.2126
 8078SOL    HW232078   4.968   1.245   5.928  0.1761  0.3983 -1.2577
 8078SOL    HW332079   4.932   1.379   5.989  1.1356  0.8414 -1.6393
 8078SOL    MW432080   4.908   1.306   5.947  0.4219  0.4146 -0.5387
 8079SOL     OW32081   2.525   5.820   2.177  0.3550 -0.3357 -0.3658
 8079SOL    HW232082   2.485   5.889   2.229 -0.4051 -1.1047  0.1034
 8079SOL    HW332083   2.594   5.864   2.127 -0.9130  0.9810 -1.0230
 8079SOL    MW432084   2.529   5.835   2.177  0.0874 -0.2634 -0.3906
 8080SOL     OW32085   2.734   4.467   5.892 -0.0980  0.0001  0.5379
 8080SOL    HW232086   2.758   4.546   5.845  1.2786 -1.4971 -1.4487
 8080SOL    HW332087   2.812   4.442   5.941 -1.1208  0.8421  2.7600
 8080SOL    MW432088   2.747   4.474   5.892 -0.0513 -0.0864  0.5690
 8081SOL     OW32089   0.558   4.517   4.113  0.1687 -0.9142 -0.1095
 8081SOL    HW232090   0.469   4.544   4.088  0.1337 -1.5405 -0.6852
 8081SOL    HW332091   0.587   4.461   4.041  2.0027  1.2227 -1.1693
 8081SOL    MW432092   0.550   4.514   4.100  0.4060 -0.7149 -0.3253
 8082SOL     OW32093   3.698   2.205   1.530 -0.2210  0.6654 -0.8490
 8082SOL    HW232094   3.701   2.123   1.480 -4.1108 -1.4249  1.7834
 8082SOL    HW332095   3.642   2.263   1.479 -1.2733 -0.1206 -0.6187
 8082SOL    MW432096   3.691   2.201   1.517 -0.8731  0.2859 -0.4713
 8083SOL     OW32097   3.129   3.274   3.770 -0.4522  0.9045  0.0175
 8083SOL    HW232098   3.212   3.233   3.748 -1.8058 -1.1552 -1.7208
 8083SOL    HW332099   3.093   3.219   3.840 -1.1813  0.6004 -0.5818
 8083SOL    MW432100   3.135   3.261   3.777 -0.7270  0.5926 -0.2909
 8084SOL     OW32101   0.513   4.738   5.217  0.0661 -0.2006 -0.5089
 8084SOL    HW232102   0.553   4.670   5.163 -0.1768 -0.8639  0.1309
 8084SOL    HW332103   0.546   4.721   5.306  1.4871  1.6374 -0.5989
 8084SOL    MW432104   0.523   4.727   5.222  0.2215 -0.0456 -0.4364
 8085SOL     OW32105   3.868   4.039   5.009  0.2596  0.6598 -0.1228
 8085SOL    HW232106   3.825   3.954   4.999 -1.0671  1.2307  0.5340
 8085SOL    HW332107   3.880   4.070   4.919  0.3807 -0.0269 -0.3522
 8085SOL    MW432108   3.864   4.032   4.996  0.1005  0.6445 -0.0664
 8086SOL     OW32109   4.063   1.575   2.348  0.3422  0.4537  0.7062
 8086SOL    HW232110   3.984   1.619   2.319  1.1849  0.5355 -1.6704
 8086SOL    HW332111   4.108   1.640   2.402  0.5802  1.8483 -1.0623
 8086SOL    MW432112   4.059   1.589   2.351  0.4848  0.6485  0.1593
 8087SOL     OW32113   3.315   4.102   0.703 -0.3883 -0.6524 -0.1858
 8087SOL    HW232114   3.264   4.087   0.623 -1.3196 -2.7006  0.7286
 8087SOL    HW332115   3.338   4.014   0.734  1.1254  0.1362  1.0876
 8087SOL    MW432116   3.311   4.088   0.696 -0.3115 -0.8186  0.1028
 8088SOL     OW32117   2.833   3.187   5.637 -0.1483 -0.4864 -0.2704
 8088SOL    HW232118   2.923   3.200   5.607 -0.3481 -0.8747 -1.0725
 8088SOL    HW332119   2.794   3.129   5.571 -1.4008  0.7778 -0.6787
 8088SOL    MW432120   2.840   3.181   5.624 -0.3399 -0.3709 -0.4301
 8089SOL     OW32121   1.839   3.703   1.951  0.0361  0.8194 -0.5526
 8089SOL    HW232122   1.871   3.629   2.003 -0.4744 -0.0874 -1.4780
 8089SOL    HW332123   1.817   3.770   2.015  0.6605  0.2292  0.3022
 8089SOL    MW432124   1.841   3.702   1.966  0.0511  0.6219 -0.5619
 8090SOL     OW32125   6.166   0.327   3.370 -0.4859  0.1038  0.1080
 8090SOL    HW232126   6.129   0.275   3.298  0.4944 -0.9506  0.3442
 8090SOL    HW332127   6.098   0.329   3.436 -1.1935  0.6228 -0.6158
 8090SOL    MW432128   6.152   0.320   3.369 -0.4499  0.0332  0.0437
 8091SOL     OW32129   2.073   0.949   0.330 -0.1203  0.1548  0.0583
 8091SOL    HW232130   2.021   1.013   0.378 -1.6221 -0.0463 -1.1911
 8091SOL    HW332131   2.008   0.900   0.280  1.1656 -1.1888 -0.3393
 8091SOL    MW432132   2.057   0.951   0.330 -0.1488 -0.0490 -0.1590
 8092SOL     OW32133   3.892   3.172   3.225  0.1150 -0.5646 -0.2760
 8092SOL    HW232134   3.846   3.250   3.258 -0.0041 -0.3137 -1.0186
 8092SOL    HW332135   3.823   3.110   3.204  0.0588 -0.0149 -1.8352
 8092SOL    MW432136   3.877   3.174   3.227  0.0918 -0.4590 -0.5797
 8093SOL     OW32137   6.049   5.403   6.387  0.3336 -0.1931  0.3141
 8093SOL    HW232138   6.036   5.494   6.360  2.0158  0.1680  0.6232
 8093SOL    HW332139   5.965   5.378   6.426 -0.6023  0.7724 -0.9902
 8093SOL    MW432140   6.036   5.412   6.389  0.4321 -0.0181  0.1828
 8094SOL     OW32141   1.278   5.352   6.287 -0.0936  0.1500  0.3771
 8094SOL    HW232142   1.282   5.263   6.322 -0.8603 -0.7049 -1.5395
 8094SOL    HW332143   1.237   5.341   6.201 -0.9397  2.4743  0.4310
 8094SOL    MW432144   1.273   5.339   6.280 -0.3064  0.3439  0.1313
 8095SOL     OW32145   5.576   1.636   3.910  0.6912  0.0149 -0.3091
 8095SOL    HW232146   5.645   1.589   3.863 -1.2632 -2.3137 -1.0317
 8095SOL    HW332147   5.523   1.677   3.842 -1.0673 -1.8081 -0.1068
 8095SOL    MW432148   5.578   1.635   3.895  0.2014 -0.5329 -0.3777
 8096SOL     OW32149   5.475   5.055   4.490  0.0843 -0.0392  0.7371
 8096SOL    HW232150   5.505   4.965   4.483 -0.6741 -0.1942 -1.6685
 8096SOL    HW332151   5.549   5.104   4.525  1.6703 -1.0752 -1.0450
 8096SOL    MW432152   5.488   5.050   4.494  0.1935 -0.1963  0.1846
 8097SOL     OW32153   3.288   4.658   3.113  0.1477  0.0229  1.0074
 8097SOL    HW232154   3.230   4.720   3.068  0.0710  1.0735  2.4984
 8097SOL    HW332155   3.371   4.705   3.122  0.8676 -0.9953  0.0505
 8097SOL    MW432156   3.292   4.672   3.108  0.2326  0.0272  1.0779
 8098SOL     OW32157   2.630   6.291   5.932  0.6446  1.0613  0.2565
 8098SOL    HW232158   2.695   6.252   5.873  1.7588  1.2140  1.3364
 8098SOL    HW332159   2.550   6.296   5.880  0.8327 -1.3318 -0.3859
 8098SOL    MW432160   2.628   6.286   5.917  0.8164  0.7657  0.3142
 8099SOL     OW32161   4.036   3.502   1.013  0.3175  0.0996  0.1778
 8099SOL    HW232162   4.104   3.569   1.003  1.8713 -1.4571 -0.2073
 8099SOL    HW332163   4.017   3.473   0.924  1.5796 -1.7166  0.4241
 8099SOL    MW432164   4.043   3.507   1.000  0.6890 -0.3454  0.1595
 8100SOL     OW32165   3.647   5.296   4.633 -0.4886  0.0617  0.0305
 8100SOL    HW232166   3.696   5.374   4.607  0.6096 -0.1977  1.2076
 8100SOL    HW332167   3.610   5.319   4.718 -0.3663 -0.6074  0.2691
 8100SOL    MW432168   3.649   5.309   4.641 -0.3276 -0.0608  0.2173
 8101SOL     OW32169   2.808   4.893   2.086 -0.2116 -0.4342  0.3197
 8101SOL    HW232170   2.793   4.800   2.075  0.5439 -0.3966 -1.3320
 8101SOL    HW332171   2.879   4.913   2.026 -0.7582  1.3233  0.2011
 8101SOL    MW432172   2.815   4.884   2.077 -0.1841 -0.1973  0.0862
 8102SOL     OW32173   4.565   0.132   3.163 -0.6996 -0.0426  0.3486
 8102SOL    HW232174   4.529   0.220   3.172 -0.0655  0.1622  0.9379
 8102SOL    HW332175   4.533   0.085   3.239 -0.8161 -0.2455  0.1751
 8102SOL    MW432176   4.556   0.137   3.174 -0.6313 -0.0424  0.4035
 8103SOL     OW32177   3.504   4.263   0.829 -0.1511 -0.0856 -0.2461
 8103SOL    HW232178   3.444   4.208   0.779  0.9421 -0.2662 -1.4333
 8103SOL    HW332179   3.588   4.216   0.825 -0.2300 -0.6622  2.7302
 8103SOL    MW432180   3.507   4.249   0.822 -0.0173 -0.1855 -0.0101
 8104SOL     OW32181   1.226   3.316   1.036 -0.1524 -0.3413 -0.3001
 8104SOL    HW232182   1.320   3.301   1.046  0.0283  0.0781 -1.2698
 8104SOL    HW332183   1.199   3.356   1.119  0.2656 -1.5848  0.4654
 8104SOL    MW432184   1.235   3.319   1.048 -0.0734 -0.4500 -0.3270
 8105SOL     OW32185   3.366   0.200   0.609 -0.5079  0.3690 -0.0292
 8105SOL    HW232186   3.281   0.241   0.591 -0.6681  0.3767  0.7135
 8105SOL    HW332187   3.430   0.268   0.587 -0.7264  0.6153  0.0865
 8105SOL    MW432188   3.363   0.214   0.604 -0.5578  0.4025  0.0841
 8106SOL     OW32189   0.851   2.773   3.267 -0.1605  0.0627  0.1167
 8106SOL    HW232190   0.930   2.778   3.214 -0.4241  1.9604 -0.1864
 8106SOL    HW332191   0.780   2.772   3.203 -0.4867  2.4521  0.3398
 8106SOL    MW432192   0.852   2.774   3.252 -0.2383  0.6283  0.1061
 8107SOL     OW32193   0.705   0.739   4.680  0.2887 -0.0303 -0.0005
 8107SOL    HW232194   0.777   0.682   4.653  0.5193  0.4376 -0.4000
 8107SOL    HW332195   0.741   0.828   4.673 -0.2115  0.1888  0.1554
 8107SOL    MW432196   0.720   0.744   4.676  0.2531  0.0603 -0.0327
 8108SOL     OW32197   0.707   4.288   2.280 -0.4118 -0.1373 -0.1464
 8108SOL    HW232198   0.678   4.312   2.368  0.5461 -0.9110  0.4019
 8108SOL    HW332199   0.669   4.202   2.265  2.1083 -1.5622  0.9252
 8108SOL    MW432200   0.698   4.280   2.290  0.0471 -0.4274  0.0673
 8109SOL     OW32201   4.097   4.040   2.590 -0.2900 -0.1451 -0.0722
 8109SOL    HW232202   4.131   4.035   2.679 -0.2704  2.6270  0.1691
 8109SOL    HW332203   4.163   3.996   2.536 -0.4465 -2.1154  1.2552
 8109SOL    MW432204   4.111   4.033   2.595 -0.3081 -0.0393  0.1347
 8110SOL     OW32205   1.137   5.137   4.376  0.1549  0.1770  0.4075
 8110SOL    HW232206   1.117   5.162   4.286 -0.6454 -2.1999 -0.1319
 8110SOL    HW332207   1.053   5.144   4.422  0.4492  0.8418  0.8714
 8110SOL    MW432208   1.123   5.141   4.370  0.0881 -0.0489  0.3976
 8111SOL     OW32209   5.016   5.923   5.208  0.2876 -0.2453  0.0938
 8111SOL    HW232210   4.958   5.893   5.138 -0.5170 -0.8057  0.9664
 8111SOL    HW332211   4.983   5.879   5.286  1.0641  0.4872  0.8559
 8111SOL    MW432212   5.004   5.913   5.209  0.2839 -0.2226  0.3095
 8112SOL     OW32213   0.627   5.248   1.843  0.1450  0.0177 -0.0867
 8112SOL    HW232214   0.619   5.161   1.882  1.2012  0.1504  0.4762
 8112SOL    HW332215   0.693   5.237   1.774  0.4136  0.4008  0.1030
 8112SOL    MW432216   0.635   5.235   1.839  0.3198  0.0858  0.0126
 8113SOL     OW32217   2.942   4.365   1.783 -0.6049 -0.3281  0.2444
 8113SOL    HW232218   3.023   4.352   1.734 -1.2617  0.1966 -1.0232
 8113SOL    HW332219   2.949   4.306   1.858  1.2893  0.2849  0.5887
 8113SOL    MW432220   2.954   4.355   1.787 -0.4416 -0.1780  0.1226
 8114SOL     OW32221   3.166   1.479   4.137  0.1663  0.2814  0.3632
 8114SOL    HW232222   3.093   1.469   4.077 -0.5211  2.5058  0.7395
 8114SOL    HW332223   3.152   1.564   4.178  2.5024  0.3983  1.0809
 8114SOL    MW432224   3.155   1.489   4.134  0.3838  0.5903  0.5075
 8115SOL     OW32225   5.553   0.895   5.305  0.2135  0.4313  0.5337
 8115SOL    HW232226   5.506   0.831   5.359 -1.8177  1.0035 -0.4577
 8115SOL    HW332227   5.644   0.887   5.333  0.1341 -3.0721  0.3045
 8115SOL    MW432228   5.559   0.885   5.315 -0.0650  0.0445  0.3726
 8116SOL     OW32229  -0.011   1.550   5.626 -0.7711  0.2203  0.0043
 8116SOL    HW232230   0.010   1.643   5.611  1.1957 -0.0220  1.0185
 8116SOL    HW332231  -0.044   1.547   5.716 -0.8364 -0.0864 -0.0289
 8116SOL    MW432232  -0.013   1.562   5.636 -0.5202  0.1479  0.1337
 8117SOL     OW32233   0.953   1.991   4.078 -0.1911 -0.1886 -0.4661
 8117SOL    HW232234   0.998   2.013   3.997  0.4090 -0.3587 -0.1869
 8117SOL    HW332235   0.915   1.905   4.062  0.7189 -0.6488 -0.2645
 8117SOL    MW432236   0.954   1.982   4.065  0.0081 -0.2718 -0.4027
 8118SOL     OW32237   0.495   4.069   5.593  0.2767 -1.1563 -0.6149
 8118SOL    HW232238   0.543   4.135   5.642  1.1544 -0.8267 -1.8765
 8118SOL    HW332239   0.477   4.109   5.508 -0.3521 -2.0528 -0.9277
 8118SOL    MW432240   0.499   4.083   5.588  0.3096 -1.2311 -0.8226
 8119SOL     OW32241   3.791   1.802   0.944  0.3719  0.3629 -0.0713
 8119SOL    HW232242   3.803   1.718   0.989 -2.2798  0.4410  0.9606
 8119SOL    HW332243   3.838   1.865   1.000  1.3694 -0.2306 -0.2096
 8119SOL    MW432244   3.799   1.800   0.957  0.1537  0.2949  0.0466
 8120SOL     OW32245   1.587   5.541   1.093 -0.2043  0.3053 -0.4086
 8120SOL    HW232246   1.597   5.485   1.016  0.4559 -1.2179  0.7305
 8120SOL    HW332247   1.498   5.525   1.124  0.0205 -0.2137 -0.0206
 8120SOL    MW432248   1.577   5.532   1.087 -0.0876  0.0359 -0.2071
 8121SOL     OW32249   1.557   6.355   1.256 -0.1631  0.2514  0.0280
 8121SOL    HW232250   1.605   6.422   1.206 -0.1487  0.3118  0.1224
 8121SOL    HW332251   1.486   6.328   1.197  0.6803 -0.7002 -0.5945
 8121SOL    MW432252   1.554   6.360   1.241 -0.0499  0.1338 -0.0417
 8122SOL     OW32253   6.000   0.022   3.691 -0.5074 -0.2791 -0.0095
 8122SOL    HW232254   5.959  -0.043   3.748 -2.7675 -0.6856 -1.9244
 8122SOL    HW332255   6.067  -0.027   3.642 -0.4899 -0.5693  0.3049
 8122SOL    MW432256   6.004   0.007   3.692 -0.8033 -0.3710 -0.2206
 8123SOL     OW32257   2.358   4.544   2.006 -0.1208  0.1418  0.0713
 8123SOL    HW232258   2.408   4.481   2.058  0.7300  0.6831 -0.0715
 8123SOL    HW332259   2.378   4.629   2.046 -0.5316  0.4165 -0.2998
 8123SOL    MW432260   2.368   4.547   2.018 -0.0628  0.2495  0.0035
 8124SOL     OW32261   1.905   0.321   5.075 -0.0488  0.5548 -0.8381
 8124SOL    HW232262   1.982   0.287   5.030 -0.4981 -1.0565 -0.4215
 8124SOL    HW332263   1.831   0.277   5.035 -0.6220  0.7058  0.0200
 8124SOL    MW432264   1.906   0.311   5.064 -0.1837  0.3622 -0.6699
 8125SOL     OW32265   5.245   4.512   3.208  0.1046  0.3414  0.1458
 8125SOL    HW232266   5.172   4.531   3.267  1.2137  1.7467  1.1376
 8125SOL    HW332267   5.216   4.437   3.156 -1.7099  0.3693  1.0689
 8125SOL    MW432268   5.232   4.504   3.209  0.0115  0.5305  0.3984
 8126SOL     OW32269   3.859   4.821   0.305 -0.5247  0.4649  0.2903
 8126SOL    HW232270   3.791   4.859   0.249 -0.7913  0.7692  0.8118
 8126SOL    HW332271   3.935   4.877   0.293 -0.7648  0.8804  0.6804
 8126SOL    MW432272   3.860   4.833   0.296 -0.5915  0.5599  0.4106
 8127SOL     OW32273   4.495   2.636   5.477  0.4149  0.2531 -0.3024
 8127SOL    HW232274   4.481   2.590   5.394  0.4596  0.1324 -0.2437
 8127SOL    HW332275   4.509   2.727   5.452 -1.0515  0.4992 -0.3235
 8127SOL    MW432276   4.495   2.642   5.463  0.2273  0.2696 -0.2975
 8128SOL     OW32277   4.409   2.801   1.489  0.1013 -0.2413  0.6597
 8128SOL    HW232278   4.380   2.729   1.544 -2.0317  0.2524  0.2555
 8128SOL    HW332279   4.502   2.783   1.473 -0.3184 -2.7851  0.7079
 8128SOL    MW432280   4.417   2.789   1.494 -0.2355 -0.5118  0.6127
 8129SOL     OW32281   5.109   0.918   4.595  0.4452 -0.5604  0.3119
 8129SOL    HW232282   5.077   1.006   4.574 -1.9440 -1.7800 -1.7196
 8129SOL    HW332283   5.108   0.914   4.691 -1.5146  0.9131  0.4072
 8129SOL    MW432284   5.105   0.929   4.605 -0.1286 -0.5269  0.0564
 8130SOL     OW32285   4.735   5.542   4.143 -0.0869  0.2214 -0.3087
 8130SOL    HW232286   4.674   5.468   4.139  0.1831  0.0286 -1.2053
 8130SOL    HW332287   4.727   5.575   4.233 -0.6892 -0.4887 -0.0866
 8130SOL    MW432288   4.726   5.536   4.154 -0.1308  0.1023 -0.3977
 8131SOL     OW32289   0.751   5.872   1.537  0.1199  0.1436 -0.4999
 8131SOL    HW232290   0.717   5.885   1.449  1.2707  0.0755 -0.9762
 8131SOL    HW332291   0.846   5.880   1.527  0.2888 -0.2361  0.6675
 8131SOL    MW432292   0.759   5.875   1.524  0.2940  0.0845 -0.4087
 8132SOL     OW32293   2.157   3.155   3.600  0.0676  0.1404  0.3253
 8132SOL    HW232294   2.069   3.163   3.638  0.2122 -0.2201  0.7418
 8132SOL    HW332295   2.158   3.219   3.528 -0.4921  0.2335  0.3955
 8132SOL    MW432296   2.145   3.165   3.595  0.0129  0.1051  0.3895
 8133SOL     OW32297   4.544   0.437   3.130 -0.0480 -0.6609  0.2183
 8133SOL    HW232298   4.638   0.420   3.136 -0.1040 -0.9125  0.4210
 8133SOL    HW332299   4.532   0.474   3.043  0.4749  0.9824  0.8132
 8133SOL    MW432300   4.555   0.440   3.120  0.0136 -0.4773  0.3235
 8134SOL     OW32301   1.681   4.579   3.833  0.1179 -0.1957 -0.5207
 8134SOL    HW232302   1.656   4.487   3.819 -1.6861  0.2280 -0.3101
 8134SOL    HW332303   1.602   4.620   3.870  0.7447  1.5579 -1.0408
 8134SOL    MW432304   1.667   4.572   3.836 -0.0374  0.0915 -0.5615
 8135SOL     OW32305   1.457   2.754   3.430 -0.5869  0.0783  0.0617
 8135SOL    HW232306   1.472   2.838   3.475 -1.4816 -0.1998  0.9257
 8135SOL    HW332307   1.538   2.738   3.382 -0.0603  1.0033  0.6012
 8135SOL    MW432308   1.469   2.763   3.430 -0.6355  0.1637  0.2469
 8136SOL     OW32309   1.277   5.142   2.954  0.1076  0.4534 -0.0207
 8136SOL    HW232310   1.330   5.130   3.033 -0.1455 -2.3640 -0.1506
 8136SOL    HW332311   1.321   5.089   2.888 -0.7943  1.1389 -1.2113
 8136SOL    MW432312   1.289   5.133   2.956 -0.0448  0.1721 -0.1949
 8137SOL     OW32313   4.835   5.237   5.099 -0.7423  0.0662 -0.3407
 8137SOL    HW232314   4.769   5.305   5.086  1.8072  2.4748 -2.0355
 8137SOL    HW332315   4.851   5.202   5.011  0.5229 -0.1184 -0.0564
 8137SOL    MW432316   4.828   5.242   5.086 -0.2390  0.3597 -0.5268
 8138SOL     OW32317   1.789   5.452   0.613 -0.2974 -0.5036 -0.5624
 8138SOL    HW232318   1.755   5.402   0.539  0.7547 -1.3584 -0.4865
 8138SOL    HW332319   1.725   5.436   0.683 -1.1555  0.1006 -1.1788
 8138SOL    MW432320   1.776   5.443   0.613 -0.2718 -0.5367 -0.6337
 8139SOL     OW32321   6.003   5.154   5.783  0.5937  0.1563  0.4866
 8139SOL    HW232322   5.948   5.083   5.816  1.9861 -1.2094  0.0325
 8139SOL    HW332323   6.071   5.165   5.849  1.4396 -0.2299 -0.3017
 8139SOL    MW432324   6.005   5.146   5.796  0.8890 -0.0749  0.3227
 8140SOL     OW32325   2.864   2.412   4.785 -0.2923 -0.4051  0.8237
 8140SOL    HW232326   2.860   2.320   4.757 -0.1233 -0.1346 -0.1559
 8140SOL    HW332327   2.780   2.449   4.757 -0.0289 -0.0740  0.4512
 8140SOL    MW432328   2.853   2.405   4.777 -0.2352 -0.3257  0.6453
 8141SOL     OW32329   2.630   4.378   4.989 -0.0559 -0.2112 -0.0286
 8141SOL    HW232330   2.541   4.377   4.954  0.1795 -0.1715 -0.6415
 8141SOL    HW332331   2.620   4.354   5.081 -0.8594  1.1694  0.2711
 8141SOL    MW432332   2.617   4.375   4.997 -0.1309 -0.0238 -0.0699
 8142SOL     OW32333   4.221   4.941   2.858  0.3121  0.0349  0.2817
 8142SOL    HW232334   4.197   4.849   2.856  1.9122 -0.4575  1.5183
 8142SOL    HW332335   4.277   4.950   2.935  2.4033  1.4607 -1.2814
 8142SOL    MW432336   4.225   4.930   2.868  0.7991  0.1581  0.2386
 8143SOL     OW32337   2.921   3.985   5.534  0.3336  0.2336  0.1931
 8143SOL    HW232338   2.935   3.899   5.573  1.4636 -0.1226 -0.9134
 8143SOL    HW332339   2.934   4.046   5.606  0.9377 -0.4643  0.6991
 8143SOL    MW432340   2.925   3.981   5.549  0.5624  0.0945  0.1139
 8144SOL     OW32341   3.539   4.029   1.159 -0.3428  0.2930 -0.1044
 8144SOL    HW232342   3.460   4.081   1.174 -0.5382 -0.3114  1.0635
 8144SOL    HW332343   3.562   3.994   1.245  1.0339  0.2119 -0.4723
 8144SOL    MW432344   3.532   4.032   1.172 -0.1869  0.2025  0.0011
 8145SOL     OW32345   4.765   3.421   1.844 -0.6246  0.0350 -0.1705
 8145SOL    HW232346   4.853   3.426   1.808 -0.9176  1.4866 -0.7228
 8145SOL    HW332347   4.714   3.378   1.776 -1.1085  2.4944 -1.4684
 8145SOL    MW432348   4.770   3.416   1.831 -0.7271  0.5510 -0.4146
 8146SOL     OW32349   1.019   0.718   1.867  0.0235 -0.2090  0.2327
 8146SOL    HW232350   0.971   0.644   1.904 -0.6712  0.2961  0.3476
 8146SOL    HW332351   1.094   0.729   1.925  1.7475 -2.6209 -1.3494
 8146SOL    MW432352   1.022   0.709   1.879  0.1593 -0.4606  0.0391
 8147SOL     OW32353   5.067   3.614   5.666  1.0496  0.6660 -0.2254
 8147SOL    HW232354   5.059   3.655   5.752  1.9502  3.3013 -1.3140
 8147SOL    HW332355   4.989   3.642   5.619  0.2244 -1.3087 -0.1262
 8147SOL    MW432356   5.056   3.623   5.672  1.0595  0.7532 -0.3559
 8148SOL     OW32357   5.738   1.671   4.193  0.6189  0.0237 -0.2021
 8148SOL    HW232358   5.754   1.592   4.141 -1.6038 -1.5591  1.3656
 8148SOL    HW332359   5.712   1.737   4.128  0.6160 -1.0818 -1.3699
 8148SOL    MW432360   5.737   1.669   4.178  0.3253 -0.3310 -0.1493
 8149SOL     OW32361   6.140   2.626   0.827  0.6056 -0.8351 -0.1500
 8149SOL    HW232362   6.113   2.714   0.801 -1.9753 -1.1470  1.0981
 8149SOL    HW332363   6.174   2.637   0.916 -0.3474 -1.1425  0.2689
 8149SOL    MW432364   6.141   2.639   0.835  0.1393 -0.9168  0.0700
 8150SOL     OW32365   0.949   2.765   3.638 -0.0007  0.0904 -0.2849
 8150SOL    HW232366   0.925   2.853   3.669  2.5867  0.0396  2.3201
 8150SOL    HW332367   1.020   2.780   3.576  0.0199 -0.1341 -0.3146
 8150SOL    MW432368   0.955   2.778   3.634  0.3434  0.0541  0.0549
 8151SOL     OW32369   1.252   6.402   5.493 -0.8208 -0.4355 -0.8245
 8151SOL    HW232370   1.160   6.413   5.469 -0.9360 -0.3771 -0.3616
 8151SOL    HW332371   1.278   6.488   5.527 -0.8590 -0.7143 -0.0824
 8151SOL    MW432372   1.243   6.415   5.494 -0.8410 -0.4646 -0.6655
 8152SOL     OW32373   0.458   4.062   0.582  0.7585 -0.1668 -0.1910
 8152SOL    HW232374   0.396   3.990   0.594  3.4281 -2.2599  3.0524
 8152SOL    HW332375   0.432   4.128   0.645 -0.1704  0.5972 -1.3415
 8152SOL    MW432376   0.447   4.061   0.592  0.9881 -0.3421  0.0851
 8153SOL     OW32377   4.018   2.324   1.434 -0.4714 -0.5458  0.4173
 8153SOL    HW232378   4.090   2.269   1.465  0.0016 -0.1000  0.1282
 8153SOL    HW332379   3.994   2.377   1.510 -0.0990 -0.2840  0.3566
 8153SOL    MW432380   4.024   2.323   1.448 -0.3599 -0.4525  0.3711
 8154SOL     OW32381   3.758   1.228   0.086 -0.3397 -0.1818 -0.0757
 8154SOL    HW232382   3.750   1.246   0.179  1.7533 -0.1586  0.1548
 8154SOL    HW332383   3.734   1.136   0.076 -1.1740 -0.0186  0.3758
 8154SOL    MW432384   3.754   1.219   0.097 -0.1736 -0.1572  0.0143
 8155SOL     OW32385   2.660   0.167   3.548  0.8733  0.3101 -0.3968
 8155SOL    HW232386   2.690   0.257   3.539  0.7290  0.6281  1.7198
 8155SOL    HW332387   2.736   0.114   3.524  1.0659  0.9776 -1.3193
 8155SOL    MW432388   2.674   0.172   3.544  0.8797  0.4401 -0.2392
 8156SOL     OW32389   5.742   5.396   3.327  0.4736  0.2650 -0.4740
 8156SOL    HW232390   5.700   5.323   3.371 -1.9387  2.3282  0.9102
 8156SOL    HW332391   5.831   5.397   3.362  0.6679 -2.0908 -0.7378
 8156SOL    MW432392   5.748   5.387   3.337  0.1810  0.2264 -0.3262
 8157SOL     OW32393   4.060   4.422   3.651  0.0540  0.4312  0.3399
 8157SOL    HW232394   3.983   4.391   3.697 -0.9000 -1.0057 -2.0475
 8157SOL    HW332395   4.129   4.360   3.674 -0.4521 -0.3562 -0.2158
 8157SOL    MW432396   4.059   4.410   3.660 -0.1386  0.1377 -0.0484
 8158SOL     OW32397   5.188   6.033   5.903  0.3458 -0.2672  0.1224
 8158SOL    HW232398   5.126   6.084   5.851  1.1344  0.6223  0.0429
 8158SOL    HW332399   5.158   5.942   5.893 -0.3635  0.0464 -0.7141
 8158SOL    MW432400   5.176   6.027   5.894  0.3562 -0.1085  0.0016
 8159SOL     OW32401   0.918   6.243   3.612  0.1460 -0.2708 -0.5584
 8159SOL    HW232402   0.959   6.281   3.534  0.4388 -1.6411 -1.1033
 8159SOL    HW332403   0.830   6.281   3.614 -0.2068 -0.9236 -2.1186
 8159SOL    MW432404   0.912   6.253   3.602  0.1381 -0.5377 -0.8362
 8160SOL     OW32405   2.393   2.747   2.192  0.0725 -0.5005 -0.5913
 8160SOL    HW232406   2.392   2.651   2.199  1.6941 -0.5515 -0.7263
 8160SOL    HW332407   2.459   2.775   2.255  0.3681  0.4537 -1.3073
 8160SOL    MW432408   2.402   2.738   2.201  0.3254 -0.3813 -0.7036
 8161SOL     OW32409   5.242   1.147   3.096  0.0143 -0.1574  0.0916
 8161SOL    HW232410   5.286   1.183   3.019 -0.0952  0.1610  0.1777
 8161SOL    HW332411   5.229   1.222   3.154 -3.0452  0.3136 -1.0459
 8161SOL    MW432412   5.246   1.162   3.094 -0.4038 -0.0532 -0.0471
 8162SOL     OW32413   3.847   6.129   3.937 -0.0254 -0.2454  0.2473
 8162SOL    HW232414   3.816   6.070   4.006  0.6692  0.5859  1.3223
 8162SOL    HW332415   3.896   6.196   3.984  0.2893  0.4779 -1.0589
 8162SOL    MW432416   3.849   6.130   3.952  0.1078 -0.0403  0.2168
 8163SOL     OW32417   6.084   4.440   3.656 -0.0601 -0.0365  0.5237
 8163SOL    HW232418   6.030   4.451   3.735 -0.4192  3.2981 -0.0753
 8163SOL    HW332419   6.161   4.495   3.671  0.7061 -0.7048 -0.7669
 8163SOL    MW432420   6.087   4.448   3.669 -0.0064  0.3153  0.2744
 8164SOL     OW32421   1.124   4.236   3.472  0.1608 -0.3913 -0.6251
 8164SOL    HW232422   1.062   4.195   3.411  2.1328 -1.5675 -1.9564
 8164SOL    HW332423   1.180   4.164   3.500  0.3814  0.4635  1.2969
 8164SOL    MW432424   1.123   4.221   3.468  0.4500 -0.4337 -0.5472
 8165SOL     OW32425   4.882   1.945   5.777  0.5651  0.9178  0.1852
 8165SOL    HW232426   4.911   1.899   5.856 -0.5970 -1.0822 -0.4736
 8165SOL    HW332427   4.963   1.976   5.737  1.5878 -1.6793  0.0532
 8165SOL    MW432428   4.896   1.943   5.782  0.5467  0.3112  0.0809
 8166SOL     OW32429   1.646   0.292   4.963 -0.1920 -0.5508  0.5607
 8166SOL    HW232430   1.615   0.209   4.928  0.6437 -1.6562  2.2992
 8166SOL    HW332431   1.582   0.315   5.031 -0.1529 -0.0322  0.4258
 8166SOL    MW432432   1.634   0.284   4.968 -0.0766 -0.6282  0.7722
 8167SOL     OW32433   1.294   1.727   2.699 -0.4074  0.1486  0.1998
 8167SOL    HW232434   1.310   1.709   2.606  0.8591  0.3149  0.3615
 8167SOL    HW332435   1.227   1.794   2.700 -1.8042 -1.1849 -0.5389
 8167SOL    MW432436   1.288   1.733   2.687 -0.4246 -0.0054  0.1237
 8168SOL     OW32437   1.121   4.742   0.869 -0.2530  0.0559 -0.0617
 8168SOL    HW232438   1.057   4.813   0.857 -0.4727 -0.1597 -0.1655
 8168SOL    HW332439   1.191   4.764   0.807 -0.6363 -0.1797 -0.5859
 8168SOL    MW432440   1.122   4.754   0.859 -0.3326 -0.0036 -0.1445
 8169SOL     OW32441   2.156   4.385   0.906 -0.0432 -0.5993  0.4017
 8169SOL    HW232442   2.219   4.419   0.842 -0.4731  0.1967  0.3932
 8169SOL    HW332443   2.165   4.443   0.981 -3.4274  2.0251 -0.9596
 8169SOL    MW432444   2.166   4.397   0.907 -0.5464 -0.1480  0.2210
 8170SOL     OW32445   5.427   1.630   1.489 -0.3320  0.0281 -0.8414
 8170SOL    HW232446   5.461   1.641   1.578 -1.6616  1.1269 -0.4465
 8170SOL    HW332447   5.444   1.715   1.447 -0.3132 -0.2643 -1.4288
 8170SOL    MW432448   5.434   1.643   1.495 -0.5049  0.1345 -0.8668
 8171SOL     OW32449   2.732   5.013   2.358  0.1780  0.0431 -0.4559
 8171SOL    HW232450   2.755   4.961   2.281  0.7610  0.3209 -0.4744
 8171SOL    HW332451   2.713   5.100   2.324  0.1290  0.0870 -0.3167
 8171SOL    MW432452   2.732   5.018   2.344  0.2485  0.0856 -0.4400
 8172SOL     OW32453   0.038   4.965   0.135  0.4744 -0.5336 -0.0903
 8172SOL    HW232454   0.117   4.913   0.154  0.0321 -1.1655  0.0486
 8172SOL    HW332455  -0.002   4.980   0.220  1.5358  1.6198  0.1073
 8172SOL    MW432456   0.043   4.960   0.149  0.5561 -0.3329 -0.0459
 8173SOL     OW32457   3.206   1.357   0.854  0.2042 -0.0339  0.1597
 8173SOL    HW232458   3.154   1.277   0.849 -0.4091  0.4117 -0.9296
 8173SOL    HW332459   3.295   1.329   0.833  0.2177 -0.6175  0.9475
 8173SOL    MW432460   3.211   1.343   0.850  0.1251 -0.0521  0.1200
 8174SOL     OW32461   1.652   1.209   5.075 -0.0450  0.0770  0.1486
 8174SOL    HW232462   1.618   1.160   5.150  0.8723  0.7609  1.0409
 8174SOL    HW332463   1.687   1.289   5.113 -0.5571  0.9553 -1.1570
 8174SOL    MW432464   1.652   1.213   5.090  0.0085  0.2831  0.0940
 8175SOL     OW32465   6.248   6.059   5.089  0.0736  0.1354  0.9406
 8175SOL    HW232466   6.266   5.969   5.062 -0.1902  0.1998  0.5378
 8175SOL    HW332467   6.258   6.111   5.008 -0.4591  0.3684  1.0196
 8175SOL    MW432468   6.252   6.054   5.075 -0.0315  0.1747  0.8979
 8176SOL     OW32469   1.747   2.131   0.004  0.5044  0.8806 -0.9273
 8176SOL    HW232470   1.771   2.146   0.095 -1.1302  0.3321 -0.3901
 8176SOL    HW332471   1.673   2.071   0.007  1.1168 -0.0648 -2.6699
 8176SOL    MW432472   1.741   2.125   0.016  0.3696  0.6835 -1.0863
 8177SOL     OW32473   3.809   4.560   4.426  0.3589  0.3880 -0.2232
 8177SOL    HW232474   3.848   4.612   4.355  0.9667  3.3129  2.0445
 8177SOL    HW332475   3.716   4.583   4.424  0.8128  2.7565  1.5274
 8177SOL    MW432476   3.802   4.570   4.416  0.4990  1.0864  0.3070
 8178SOL     OW32477   3.807   1.554   1.085 -0.2225  0.0346 -0.1355
 8178SOL    HW232478   3.892   1.513   1.103 -0.2866 -0.5799 -1.1463
 8178SOL    HW332479   3.775   1.508   1.008 -1.3339  0.4892  0.0469
 8178SOL    MW432480   3.814   1.542   1.077 -0.3776  0.0135 -0.2448
 8179SOL     OW32481   0.957   5.167   4.776  0.2770  0.3924  0.4744
 8179SOL    HW232482   0.930   5.234   4.713  0.7672 -0.9658 -1.2565
 8179SOL    HW332483   1.044   5.193   4.804  1.5506 -0.7571 -2.1321
 8179SOL    MW432484   0.965   5.179   4.771  0.5097  0.0615 -0.0978
 8180SOL     OW32485   5.079   2.759   0.002  0.0122  0.4053 -0.3689
 8180SOL    HW232486   4.993   2.722  -0.020 -0.7669  1.1911  1.2086
 8180SOL    HW332487   5.092   2.737   0.094  1.4399  0.4779 -0.5282
 8180SOL    MW432488   5.069   2.751   0.011  0.0978  0.5186 -0.1818
 8181SOL     OW32489   1.305   5.138   1.754 -0.1356 -0.0938  0.2228
 8181SOL    HW232490   1.378   5.086   1.787  0.1800 -1.9503 -2.9987
 8181SOL    HW332491   1.276   5.092   1.675 -0.9788  3.6936 -1.9246
 8181SOL    MW432492   1.310   5.125   1.748 -0.2052  0.1610 -0.4856
 8182SOL     OW32493   5.449   0.302   0.559  0.1289 -0.0086 -0.2719
 8182SOL    HW232494   5.485   0.379   0.514  0.7005 -0.3451 -0.3875
 8182SOL    HW332495   5.524   0.245   0.573 -0.2826 -0.5093 -0.1031
 8182SOL    MW432496   5.463   0.305   0.555  0.1500 -0.1191 -0.2649
 8183SOL     OW32497   4.921   2.323   4.210 -0.1826  0.1899 -0.3807
 8183SOL    HW232498   4.940   2.410   4.246 -0.2894  0.5981 -1.2798
 8183SOL    HW332499   4.836   2.334   4.167  0.1946 -0.1312 -1.2270
 8183SOL    MW432500   4.912   2.336   4.209 -0.1469  0.2014 -0.6110
 8184SOL     OW32501   0.369   5.987   6.092  0.1390  0.0176 -0.0474
 8184SOL    HW232502   0.305   6.007   6.024 -0.0784  1.2544  0.4928
 8184SOL    HW332503   0.343   5.901   6.125 -0.3746 -0.1245 -0.8059
 8184SOL    MW432504   0.357   5.978   6.087  0.0426  0.1621 -0.0762
 8185SOL     OW32505   2.998   2.053   0.072 -0.4152 -0.1853  0.1565
 8185SOL    HW232506   3.077   2.084   0.116 -1.4529 -0.0832  2.0390
 8185SOL    HW332507   2.931   2.119   0.094 -1.2533 -0.7288 -0.6681
 8185SOL    MW432508   3.000   2.066   0.080 -0.6627 -0.2435  0.2961
 8186SOL     OW32509   3.129   3.797   0.141  0.2979 -0.2404  0.7157
 8186SOL    HW232510   3.178   3.742   0.202 -0.2103 -0.8864  0.5571
 8186SOL    HW332511   3.161   3.770   0.054 -0.9120 -1.2853  0.5577
 8186SOL    MW432512   3.140   3.786   0.137  0.0712 -0.4635  0.6739
 8187SOL     OW32513   2.631   2.017   2.809  0.0138 -0.0244  0.8290
 8187SOL    HW232514   2.601   1.926   2.817 -0.2605 -0.0467 -0.2554
 8187SOL    HW332515   2.687   2.031   2.885  1.3361 -1.6116  0.2182
 8187SOL    MW432516   2.635   2.007   2.820  0.1521 -0.2367  0.6053
 8188SOL     OW32517   0.513   2.223   4.289  0.5741  0.4479 -0.0467
 8188SOL    HW232518   0.557   2.232   4.374 -0.6515  0.6028  0.6034
 8188SOL    HW332519   0.527   2.307   4.246 -2.2596  2.0653  1.7871
 8188SOL    MW432520   0.520   2.235   4.295  0.0385  0.6817  0.2810
 8189SOL     OW32521  -0.038   2.128   2.280 -0.5431 -0.0136  0.4846
 8189SOL    HW232522  -0.100   2.198   2.298 -1.8384 -0.7364 -0.9248
 8189SOL    HW332523   0.033   2.170   2.232 -2.3664  0.0524 -2.3695
 8189SOL    MW432524  -0.037   2.142   2.276 -0.9545 -0.1002 -0.0779
 8190SOL     OW32525   5.943   4.915   3.460  0.1841  0.2693  0.2167
 8190SOL    HW232526   5.990   4.914   3.377  2.0989  1.6563  1.2157
 8190SOL    HW332527   5.870   4.854   3.447  1.0367 -0.3498 -2.0990
 8190SOL    MW432528   5.939   4.907   3.447  0.5492  0.3706  0.0430
 8191SOL     OW32529   5.408   6.314   4.765  0.2036 -0.3740 -0.5990
 8191SOL    HW232530   5.498   6.292   4.791 -0.3121 -0.1090  1.5868
 8191SOL    HW332531   5.353   6.257   4.819 -0.9851  0.8954 -0.4410
 8191SOL    MW432532   5.413   6.303   4.775 -0.0213 -0.1715 -0.2898
 8192SOL     OW32533   1.869   2.840   1.970 -0.1225 -0.2518 -0.7390
 8192SOL    HW232534   1.802   2.772   1.979 -2.0744  1.4695 -1.6150
 8192SOL    HW332535   1.921   2.832   2.050 -0.1948 -2.7951 -0.8459
 8192SOL    MW432536   1.867   2.830   1.982 -0.3896 -0.3603 -0.8687
 8193SOL     OW32537   3.033   2.108   1.922  0.1563 -0.6181 -0.1466
 8193SOL    HW232538   3.030   2.170   1.995  1.6477 -0.5802 -0.0993
 8193SOL    HW332539   3.054   2.161   1.846  3.2454 -1.2055  0.1674
 8193SOL    MW432540   3.035   2.123   1.922  0.7607 -0.6906 -0.0989
 8194SOL     OW32541   2.198   3.348   4.158 -0.0066 -0.2233 -0.4032
 8194SOL    HW232542   2.166   3.271   4.205  0.7025 -0.4359 -0.2515
 8194SOL    HW332543   2.158   3.343   4.072 -1.1228  0.0326  0.0828
 8194SOL    MW432544   2.189   3.337   4.153 -0.0603 -0.2176 -0.3191
 8195SOL     OW32545   4.032   1.402   2.741  0.0728  0.3267 -0.4923
 8195SOL    HW232546   4.004   1.492   2.760 -0.5663  0.0843 -0.2414
 8195SOL    HW332547   3.988   1.379   2.659  0.1246  0.1959 -0.4844
 8195SOL    MW432548   4.023   1.411   2.733 -0.0046  0.2774 -0.4582
 8196SOL     OW32549   2.843   3.297   5.263  0.2964 -0.0267  0.1622
 8196SOL    HW232550   2.818   3.388   5.280  0.9674  0.8285 -2.7944
 8196SOL    HW332551   2.759   3.253   5.246  0.0259  0.2194  0.8206
 8196SOL    MW432552   2.828   3.303   5.263  0.3492  0.1186 -0.1410
 8197SOL     OW32553   2.720   0.306   1.897 -0.1156  0.3414  0.1122
 8197SOL    HW232554   2.664   0.334   1.825  2.3878  0.6220 -1.8802
 8197SOL    HW332555   2.719   0.211   1.893  1.6374  0.3403 -1.7752
 8197SOL    MW432556   2.712   0.297   1.887  0.4460  0.3782 -0.3997
 8198SOL     OW32557   0.272   4.611   5.308 -0.2913  0.0635 -0.6672
 8198SOL    HW232558   0.349   4.655   5.272 -0.3224  0.9163  0.2742
 8198SOL    HW332559   0.205   4.680   5.310 -0.5378 -0.1917  0.2151
 8198SOL    MW432560   0.273   4.626   5.303 -0.3279  0.1423 -0.4266
 8199SOL     OW32561   5.612   3.542   4.025 -0.0395 -0.4678 -0.0148
 8199SOL    HW232562   5.703   3.514   4.015  0.0581 -0.2472  0.2701
 8199SOL    HW332563   5.571   3.518   3.941 -0.1052 -2.0219  0.4221
 8199SOL    MW432564   5.618   3.535   4.012 -0.0353 -0.6437  0.0805
 8200SOL     OW32565   4.974   3.151   2.764  0.3369  0.5907  0.4431
 8200SOL    HW232566   4.989   3.231   2.814 -0.4039  0.3485  1.0729
 8200SOL    HW332567   4.928   3.093   2.824 -2.4600  1.0388 -1.1261
 8200SOL    MW432568   4.970   3.154   2.778 -0.1298  0.6178  0.3191
 8201SOL     OW32569   6.135   5.704   4.787 -0.0481 -1.2217  0.2975
 8201SOL    HW232570   6.133   5.730   4.694 -0.4765 -1.3611  0.2677
 8201SOL    HW332571   6.194   5.767   4.828 -2.9792  1.4698  0.7295
 8201SOL    MW432572   6.143   5.716   4.780 -0.4914 -0.8850  0.3506
 8202SOL     OW32573   0.145   2.406   5.983  0.0224  0.2640 -0.7877
 8202SOL    HW232574   0.137   2.341   6.053  0.5655  0.1016 -0.8772
 8202SOL    HW332575   0.056   2.441   5.973 -0.5139 -1.2298 -1.4787
 8202SOL    MW432576   0.132   2.402   5.991  0.0233  0.0455 -0.8907
 8203SOL     OW32577   0.998   3.224   3.795 -0.0993  0.6157  0.1540
 8203SOL    HW232578   0.922   3.178   3.831 -0.7673  0.8227 -0.9594
 8203SOL    HW332579   1.033   3.164   3.729  1.6168 -0.1224  1.6436
 8203SOL    MW432580   0.992   3.210   3.791  0.0390  0.5456  0.2036
 8204SOL     OW32581   6.010   2.304   3.489  0.3044  0.2446 -0.0097
 8204SOL    HW232582   5.943   2.365   3.457 -1.0652 -0.5128  1.2930
 8204SOL    HW332583   6.088   2.326   3.438 -0.2075  2.8577  0.1899
 8204SOL    MW432584   6.011   2.315   3.478  0.0562  0.4895  0.1885
 8205SOL     OW32585   2.616   2.740   4.146 -0.5436 -0.1633  0.7981
 8205SOL    HW232586   2.538   2.796   4.146 -0.9603 -0.6315 -1.8597
 8205SOL    HW332587   2.649   2.747   4.236 -1.7771  2.6161  1.1651
 8205SOL    MW432588   2.610   2.748   4.158 -0.7613  0.1417  0.4959
 8206SOL     OW32589   5.379   0.129   0.952 -0.0941 -0.0989  0.3104
 8206SOL    HW232590   5.358   0.222   0.958  3.2035  0.6615  2.3951
 8206SOL    HW332591   5.318   0.086   1.011 -1.3706  0.7381 -0.3529
 8206SOL    MW432592   5.368   0.135   0.960  0.1726  0.1118  0.4979
 8207SOL     OW32593   5.911   6.412   0.786 -0.9235 -0.5101 -0.2359
 8207SOL    HW232594   5.908   6.453   0.873  0.1414 -0.7211 -0.0873
 8207SOL    HW332595   5.820   6.411   0.757 -1.1037  1.0028  0.2070
 8207SOL    MW432596   5.899   6.417   0.794 -0.8068 -0.3383 -0.1579
 8208SOL     OW32597   2.131   3.872   2.927  0.1675 -0.4658 -0.0916
 8208SOL    HW232598   2.176   3.940   2.977 -0.7872 -0.0516  0.2162
 8208SOL    HW332599   2.038   3.883   2.948  0.0419 -2.2525  0.4396
 8208SOL    MW432600   2.125   3.883   2.936  0.0250 -0.6469  0.0191
 8209SOL     OW32601   5.550   6.252   6.235 -0.6842 -0.0394 -0.5501
 8209SOL    HW232602   5.475   6.197   6.258 -0.4330 -0.5461 -0.9258
 8209SOL    HW332603   5.548   6.257   6.140 -0.0346 -0.3500 -0.5820
 8209SOL    MW432604   5.540   6.245   6.226 -0.5653 -0.1472 -0.6039
 8210SOL     OW32605   6.040   0.720   4.648 -0.3248  0.5698 -0.0545
 8210SOL    HW232606   5.991   0.638   4.649 -1.7366  1.3743  1.4154
 8210SOL    HW332607   6.035   0.749   4.556 -0.6229 -0.5059 -0.3949
 8210SOL    MW432608   6.033   0.713   4.636 -0.5504  0.5340  0.0945
 8211SOL     OW32609  -0.022   6.129   4.096 -0.0157  0.0173  0.5071
 8211SOL    HW232610  -0.008   6.203   4.154  1.4149 -0.2197  0.5127
 8211SOL    HW332611  -0.116   6.129   4.078 -0.0426  1.8381  0.4800
 8211SOL    MW432612  -0.032   6.139   4.101  0.1695  0.2263  0.5043
 8212SOL     OW32613   3.800   6.343   4.451  0.0445  0.2969 -0.8682
 8212SOL    HW232614   3.836   6.366   4.537 -2.6342 -1.7708  0.9593
 8212SOL    HW332615   3.733   6.408   4.434 -1.3971 -0.8862  0.0557
 8212SOL    MW432616   3.796   6.354   4.460 -0.4991 -0.1320 -0.5052
 8213SOL     OW32617   5.414   2.727   2.222  0.2977  0.2443  0.2168
 8213SOL    HW232618   5.371   2.799   2.176  0.7613  0.1351 -0.4044
 8213SOL    HW332619   5.347   2.659   2.229  0.2442  0.2358 -0.3638
 8213SOL    MW432620   5.399   2.728   2.217  0.3518  0.2288  0.0582
 8214SOL     OW32621   2.678   2.166   1.740  0.4354  0.1455 -0.5432
 8214SOL    HW232622   2.603   2.119   1.776  0.3655  0.2112 -0.6027
 8214SOL    HW332623   2.693   2.125   1.655  0.2614  0.3464 -0.6752
 8214SOL    MW432624   2.670   2.154   1.733  0.4033  0.1807 -0.5685
 8215SOL     OW32625   5.015   3.317   5.051  0.3534 -0.6216 -0.3413
 8215SOL    HW232626   4.970   3.387   5.097  1.1903 -1.5018  1.9388
 8215SOL    HW332627   4.947   3.274   4.999 -0.4035  1.0585 -0.7993
 8215SOL    MW432628   5.000   3.321   5.050  0.3639 -0.5161 -0.1009
 8216SOL     OW32629   0.814   1.404   3.627 -0.5419  0.0893  0.5831
 8216SOL    HW232630   0.833   1.310   3.631  0.0566  0.1635 -0.1854
 8216SOL    HW332631   0.737   1.415   3.682  1.0302 -0.4119  3.0798
 8216SOL    MW432632   0.806   1.393   3.635 -0.2555  0.0330  0.8111
 8217SOL     OW32633   6.306   3.323   4.894  0.1221  0.2004 -0.4360
 8217SOL    HW232634   6.332   3.399   4.946  2.2023 -0.5394 -0.3260
 8217SOL    HW332635   6.337   3.342   4.806 -1.8169  0.6583 -1.0665
 8217SOL    MW432636   6.313   3.335   4.889  0.1407  0.1632 -0.5047
 8218SOL     OW32637   0.620   2.927   3.833 -0.0436 -0.0297  0.2446
 8218SOL    HW232638   0.543   2.878   3.862  0.0993  0.1590  0.9620
 8218SOL    HW332639   0.645   2.886   3.750  0.4673 -1.6096  1.1495
 8218SOL    MW432640   0.613   2.915   3.825  0.0427 -0.2133  0.4587
 8219SOL     OW32641   4.968   3.144   3.946  0.8186 -0.2905  0.0279
 8219SOL    HW232642   4.965   3.064   3.894  0.5805 -0.1627 -0.1569
 8219SOL    HW332643   5.057   3.148   3.980  1.6237  0.6885 -2.0513
 8219SOL    MW432644   4.979   3.134   3.944  0.8934 -0.1445 -0.2708
 8220SOL     OW32645   1.415   2.409   3.070 -0.2650 -0.7651 -0.0472
 8220SOL    HW232646   1.440   2.322   3.099 -2.2252 -1.8907 -1.5254
 8220SOL    HW332647   1.398   2.400   2.977 -1.2948  0.9966 -0.0836
 8220SOL    MW432648   1.416   2.397   3.062 -0.6595 -0.6812 -0.2470
 8221SOL     OW32649   3.573   1.004   5.239  0.2678  0.1197 -0.0804
 8221SOL    HW232650   3.576   1.096   5.266 -1.2490 -0.0201  0.6791
 8221SOL    HW332651   3.555   0.956   5.320 -2.3614 -0.5199 -0.9506
 8221SOL    MW432652   3.571   1.010   5.253 -0.2792  0.0169 -0.0950
 8222SOL     OW32653   1.257   4.720   1.134  0.1368  0.2210  0.1696
 8222SOL    HW232654   1.212   4.721   1.049  0.8031 -2.1363 -0.2623
 8222SOL    HW332655   1.350   4.725   1.112  0.3215 -0.5910  0.7463
 8222SOL    MW432656   1.263   4.721   1.120  0.2490 -0.1971  0.1887
 8223SOL     OW32657   3.048   5.825   1.764  0.0868 -0.4642 -0.6424
 8223SOL    HW232658   3.078   5.901   1.815 -0.8447 -1.4153  1.4361
 8223SOL    HW332659   2.958   5.811   1.792 -1.1816  0.0421 -3.9833
 8223SOL    MW432660   3.040   5.833   1.774 -0.2034 -0.5228 -0.8090
 8224SOL     OW32661   4.113   2.370   4.118 -0.0804 -0.5746 -0.3982
 8224SOL    HW232662   4.071   2.288   4.089  0.4578 -0.9167 -0.2119
 8224SOL    HW332663   4.044   2.436   4.110 -0.7616 -1.1928  0.2113
 8224SOL    MW432664   4.098   2.368   4.113 -0.0992 -0.7013 -0.2932
 8225SOL     OW32665   4.768   5.387   6.333 -0.0486  0.7681 -0.4226
 8225SOL    HW232666   4.678   5.409   6.357 -0.9689 -2.2376 -0.7439
 8225SOL    HW332667   4.762   5.300   6.294  3.0579  0.3013 -0.1209
 8225SOL    MW432668   4.756   5.379   6.331  0.2398  0.3100 -0.4252
 8226SOL     OW32669   1.062   0.085   3.251  0.5481  0.6972 -0.2524
 8226SOL    HW232670   0.978   0.103   3.208 -0.6652 -1.7616  0.8865
 8226SOL    HW332671   1.116   0.046   3.182  1.1614  3.0705 -1.2184
 8226SOL    MW432672   1.058   0.083   3.236  0.4690  0.6859 -0.2296
 8227SOL     OW32673   0.603   1.487   2.327 -0.5832 -0.1846 -0.7250
 8227SOL    HW232674   0.641   1.401   2.309 -0.2757 -0.2190  0.0652
 8227SOL    HW332675   0.659   1.525   2.394 -1.1272  0.3417 -0.5581
 8227SOL    MW432676   0.615   1.481   2.333 -0.6144 -0.1197 -0.5987
 8228SOL     OW32677   3.775   6.239   0.695  0.3845 -0.3829  0.6093
 8228SOL    HW232678   3.683   6.258   0.678  0.1227 -3.0325 -1.6169
 8228SOL    HW332679   3.823   6.291   0.631  0.1589 -1.6072 -0.5873
 8228SOL    MW432680   3.769   6.248   0.685  0.3202 -0.8940  0.1577
 8229SOL     OW32681   3.089   0.608   0.477  0.1502  0.4498  0.1567
 8229SOL    HW232682   3.111   0.637   0.389 -0.5737  0.6590  0.0390
 8229SOL    HW332683   3.021   0.542   0.465 -0.3773  0.9047  0.5858
 8229SOL    MW432684   3.083   0.603   0.464 -0.0149  0.5374  0.1978
 8230SOL     OW32685   5.285   0.630   2.695  0.0278  0.1266 -0.2368
 8230SOL    HW232686   5.328   0.714   2.707 -1.4630  0.7912  0.7903
 8230SOL    HW332687   5.208   0.649   2.641 -0.8025 -0.3871  0.7220
 8230SOL    MW432688   5.281   0.644   2.689 -0.2785  0.1465  0.0252
 8231SOL     OW32689   0.657   6.066   2.427  0.0307 -0.7310  0.4142
 8231SOL    HW232690   0.615   6.129   2.369 -1.1395 -0.5474  1.4265
 8231SOL    HW332691   0.601   5.989   2.423  0.5876 -1.1365  0.4012
 8231SOL    MW432692   0.644   6.064   2.419 -0.0502 -0.7603  0.5461
 8232SOL     OW32693   0.403   2.186   4.640  0.0194  0.2236 -0.1871
 8232SOL    HW232694   0.415   2.122   4.570  0.7258  0.4434 -0.2672
 8232SOL    HW332695   0.351   2.256   4.600  0.3430  0.3056 -0.4611
 8232SOL    MW432696   0.398   2.186   4.626  0.1553  0.2634 -0.2339
 8233SOL     OW32697   4.087   4.736   5.733  0.4174  0.0434 -0.5145
 8233SOL    HW232698   4.125   4.716   5.818  0.3996  0.1651 -0.4768
 8233SOL    HW332699   4.144   4.692   5.670 -0.4135 -1.3038 -0.3659
 8233SOL    MW432700   4.100   4.728   5.736  0.3054 -0.1183 -0.4899
 8234SOL     OW32701   2.725   3.980   3.681 -0.6176 -0.1891 -0.4077
 8234SOL    HW232702   2.795   4.044   3.696 -0.7905 -0.1173  0.1035
 8234SOL    HW332703   2.712   3.982   3.586  1.6215 -1.8172 -0.8412
 8234SOL    MW432704   2.733   3.989   3.671 -0.3450 -0.3944 -0.3975
 8235SOL     OW32705   2.212   2.522   2.573 -0.2417 -0.1551 -0.0175
 8235SOL    HW232706   2.172   2.489   2.493 -0.7921  0.6977 -0.0999
 8235SOL    HW332707   2.144   2.512   2.640  0.4301 -1.4931  0.5265
 8235SOL    MW432708   2.198   2.516   2.571 -0.2257 -0.2191  0.0434
 8236SOL     OW32709   3.957   6.025   0.211 -0.0654 -0.2354  0.1423
 8236SOL    HW232710   3.891   6.045   0.144  0.0306  2.2387  0.6850
 8236SOL    HW332711   4.038   6.010   0.162 -0.1028  1.0928 -0.3827
 8236SOL    MW432712   3.959   6.026   0.196 -0.0576  0.2662  0.1446
 8237SOL     OW32713   5.657   2.828   3.324 -0.3846  0.1627 -0.3607
 8237SOL    HW232714   5.604   2.749   3.336  0.5862 -0.5970 -0.8617
 8237SOL    HW332715   5.624   2.889   3.389 -0.0713 -1.2383  1.1766
 8237SOL    MW432716   5.645   2.825   3.334 -0.2152 -0.1224 -0.2240
 8238SOL     OW32717   1.576   0.719   5.058 -0.3644 -0.8735 -0.4095
 8238SOL    HW232718   1.565   0.724   5.153 -2.7214 -0.5996 -0.6277
 8238SOL    HW332719   1.549   0.806   5.027 -2.5565 -1.8628 -1.4862
 8238SOL    MW432720   1.571   0.731   5.067 -0.9646 -0.9679 -0.5804
 8239SOL     OW32721  -0.033   6.121   2.316 -0.6271 -0.2385 -0.0962
 8239SOL    HW232722  -0.053   6.029   2.302 -0.0805 -0.4084  0.1882
 8239SOL    HW332723  -0.118   6.164   2.324 -0.9292 -0.4029 -2.1435
 8239SOL    MW432724  -0.047   6.115   2.316 -0.5948 -0.2826 -0.3288
 8240SOL     OW32725   1.679   5.167   5.317 -0.8775 -0.0492  0.2015
 8240SOL    HW232726   1.682   5.191   5.224  1.0530  0.6222  0.4054
 8240SOL    HW332727   1.626   5.087   5.319 -1.1257  0.0399 -1.4393
 8240SOL    MW432728   1.672   5.160   5.305 -0.6555  0.0511  0.0119
 8241SOL     OW32729   2.344   0.282   1.066  0.5246 -0.5708  0.1365
 8241SOL    HW232730   2.325   0.218   0.996  1.8224 -0.7368 -0.0887
 8241SOL    HW332731   2.325   0.367   1.026  0.7970 -0.6970 -0.2762
 8241SOL    MW432732   2.339   0.285   1.051  0.7318 -0.6094  0.0523
 8242SOL     OW32733   4.314   3.323   3.359  0.1347 -0.3535  0.0492
 8242SOL    HW232734   4.377   3.371   3.306  0.1585 -1.0703 -0.5928
 8242SOL    HW332735   4.360   3.243   3.384  0.3259  0.2136  1.6447
 8242SOL    MW432736   4.328   3.318   3.355  0.1630 -0.3732  0.1750
 8243SOL     OW32737   1.840   2.465   0.574 -1.0533 -0.2367 -0.4062
 8243SOL    HW232738   1.809   2.378   0.549  0.2903 -0.7839 -0.2315
 8243SOL    HW332739   1.872   2.504   0.493  1.6806 -1.3384  0.0357
 8243SOL    MW432740   1.840   2.459   0.560 -0.5153 -0.4542 -0.3248
 8244SOL     OW32741   5.690   0.235   2.009  0.3673 -0.2940 -0.1965
 8244SOL    HW232742   5.758   0.180   2.049  0.2923 -0.5732 -0.4503
 8244SOL    HW332743   5.625   0.173   1.976  0.4764 -0.0756 -0.8427
 8244SOL    MW432744   5.690   0.220   2.010  0.3718 -0.3020 -0.3153
 8245SOL     OW32745   4.102   0.864   2.914  0.0928 -0.1416  0.5070
 8245SOL    HW232746   4.139   0.888   2.999  0.4001  0.4810  0.2088
 8245SOL    HW332747   4.023   0.919   2.907  1.4375  1.7791 -0.7006
 8245SOL    MW432748   4.096   0.875   2.924  0.3108  0.1940  0.3083
 8246SOL     OW32749   1.151   0.779   0.667 -0.1019  0.1645  0.0945
 8246SOL    HW232750   1.139   0.698   0.619 -1.1916  0.6876 -0.5630
 8246SOL    HW332751   1.147   0.848   0.600  2.7683  0.6913  0.3456
 8246SOL    MW432752   1.148   0.778   0.652  0.1330  0.3030  0.0409
 8247SOL     OW32753   4.234   3.347   0.586 -0.0668  0.1359 -0.4646
 8247SOL    HW232754   4.203   3.261   0.613 -0.1904 -0.0394 -1.1525
 8247SOL    HW332755   4.311   3.363   0.641  0.5522 -0.8472 -1.0306
 8247SOL    MW432756   4.240   3.338   0.597 -0.0014 -0.0170 -0.6301
 8248SOL     OW32757   2.151   0.626   2.165  0.1122 -0.4121  0.2829
 8248SOL    HW232758   2.093   0.660   2.233 -1.0008 -1.6681  0.0119
 8248SOL    HW332759   2.182   0.542   2.199  1.5548  0.1066  0.2889
 8248SOL    MW432760   2.147   0.619   2.178  0.1557 -0.5094  0.2479
 8249SOL     OW32761   2.278   0.622   3.937  0.1433  0.0281  0.2629
 8249SOL    HW232762   2.359   0.636   3.887 -0.0757  2.0846  0.3883
 8249SOL    HW332763   2.213   0.596   3.872  0.4814  0.1048 -0.1071
 8249SOL    MW432764   2.280   0.620   3.922  0.1590  0.3095  0.2306
 8250SOL     OW32765   1.428   0.532   3.923  0.8649 -0.1083 -0.1652
 8250SOL    HW232766   1.493   0.536   3.993  2.5135  0.7979 -1.6365
 8250SOL    HW332767   1.472   0.483   3.853 -0.7671 -1.0865 -0.5581
 8250SOL    MW432768   1.442   0.526   3.923  0.8671 -0.1178 -0.4112
 8251SOL     OW32769   5.595   4.460   5.160 -0.3058  0.1155 -0.4524
 8251SOL    HW232770   5.617   4.367   5.152  1.9566  0.5721 -0.1943
 8251SOL    HW332771   5.680   4.505   5.160 -1.2835  2.0957  0.6474
 8251SOL    MW432772   5.609   4.454   5.159 -0.1363  0.4370 -0.2732
 8252SOL     OW32773   4.553   2.755   3.798 -0.0181 -0.4605  0.1365
 8252SOL    HW232774   4.566   2.843   3.762 -0.6480 -1.1959 -2.0449
 8252SOL    HW332775   4.640   2.715   3.795  0.0490 -0.3091 -0.0100
 8252SOL    MW432776   4.566   2.761   3.793 -0.0924 -0.5375 -0.1706
 8253SOL     OW32777   4.380   2.068   1.355 -0.5184  0.0139  0.0889
 8253SOL    HW232778   4.347   2.132   1.292  0.9992  0.6771 -0.0634
 8253SOL    HW332779   4.327   1.989   1.339 -0.7558  0.4489 -1.3984
 8253SOL    MW432780   4.369   2.066   1.344 -0.3495  0.1588 -0.1275
 8254SOL     OW32781   1.514   3.294   0.984  0.3175  0.5063  0.8223
 8254SOL    HW232782   1.585   3.232   1.002 -0.2869 -0.5799 -0.3141
 8254SOL    HW332783   1.528   3.319   0.893 -1.5790 -0.9320  0.0627
 8254SOL    MW432784   1.525   3.289   0.974 -0.0124  0.1732  0.5721
 8255SOL     OW32785   5.170   0.805   3.097 -0.0593 -0.0606 -0.2473
 8255SOL    HW232786   5.257   0.823   3.131  0.0909 -0.9226 -0.1498
 8255SOL    HW332787   5.165   0.855   3.015  0.3686  0.3128 -0.0502
 8255SOL    MW432788   5.181   0.814   3.091  0.0170 -0.1250 -0.2084
 8256SOL     OW32789   1.199   1.207   5.165 -0.4678  0.2904 -0.0082
 8256SOL    HW232790   1.247   1.214   5.248  0.0430  0.3909 -0.3133
 8256SOL    HW332791   1.137   1.280   5.167 -1.0907 -0.2341  0.6899
 8256SOL    MW432792   1.197   1.217   5.176 -0.4826  0.2345  0.0437
 8257SOL     OW32793   1.148   1.178   5.507  0.4853 -0.2756 -0.0803
 8257SOL    HW232794   1.108   1.195   5.593 -1.9959  1.6364 -1.4761
 8257SOL    HW332795   1.213   1.247   5.497  1.4504 -1.0599  0.5978
 8257SOL    MW432796   1.151   1.190   5.517  0.2853 -0.1268 -0.1750
 8258SOL     OW32797   6.275   4.581   3.306 -0.2422  0.1420  0.1824
 8258SOL    HW232798   6.181   4.589   3.323 -0.0961 -0.6398  1.5028
 8258SOL    HW332799   6.297   4.661   3.258 -1.9076 -0.5484 -1.8990
 8258SOL    MW432800   6.265   4.593   3.302 -0.4426 -0.0523  0.0820
 8259SOL     OW32801   0.951   5.829   3.415 -0.2601 -0.9187  0.0804
 8259SOL    HW232802   1.035   5.822   3.461  0.5138 -0.6922 -1.2568
 8259SOL    HW332803   0.893   5.770   3.463  0.7396 -1.3059  0.8519
 8259SOL    MW432804   0.954   5.820   3.428 -0.0261 -0.9399  0.0058
 8260SOL     OW32805   4.697   0.654   2.137 -0.0546  0.4060  0.4634
 8260SOL    HW232806   4.687   0.590   2.208 -0.5448 -1.3473 -1.1149
 8260SOL    HW332807   4.612   0.697   2.132 -0.2126  0.1050  0.5366
 8260SOL    MW432808   4.684   0.651   2.146 -0.1401  0.1350  0.2648
 8261SOL     OW32809   2.782   2.203   1.160  0.0960 -0.0786  0.1702
 8261SOL    HW232810   2.747   2.217   1.248  2.1735  0.9305  0.9065
 8261SOL    HW332811   2.801   2.291   1.127 -1.6933 -0.3468 -1.8068
 8261SOL    MW432812   2.780   2.217   1.167  0.1340  0.0192  0.0065
 8262SOL     OW32813   2.908   4.380   5.380 -0.2813  0.1935  0.0940
 8262SOL    HW232814   2.898   4.471   5.353  0.9558  0.4172  0.3286
 8262SOL    HW332815   2.977   4.345   5.324 -2.4296 -1.3835 -1.7505
 8262SOL    MW432816   2.916   4.387   5.369 -0.4015  0.0149 -0.1184
 8263SOL     OW32817   4.607   0.808   1.505 -0.1140 -0.4490 -0.0719
 8263SOL    HW232818   4.548   0.738   1.476 -0.3968 -0.4646  0.5301
 8263SOL    HW332819   4.592   0.814   1.599  0.9504 -0.5443  0.1076
 8263SOL    MW432820   4.597   0.799   1.513 -0.0109 -0.4636  0.0312
 8264SOL     OW32821   6.181   4.180   0.017 -0.5798  0.0861  0.9408
 8264SOL    HW232822   6.215   4.204   0.103  2.0671  0.3885 -0.0825
 8264SOL    HW332823   6.134   4.258  -0.012 -1.4996 -0.0170  2.0848
 8264SOL    MW432824   6.180   4.194   0.024 -0.3519  0.1124  0.9567
 8265SOL     OW32825   0.099   4.023   0.792  0.0412 -0.3745 -0.1873
 8265SOL    HW232826   0.066   4.062   0.711  0.0312  1.6058  0.7149
 8265SOL    HW332827   0.094   4.094   0.856 -0.5952 -2.0690  1.7353
 8265SOL    MW432828   0.094   4.038   0.790 -0.0441 -0.3368  0.1854
 8266SOL     OW32829   1.847   0.693   1.767 -0.4627 -0.3534  0.0010
 8266SOL    HW232830   1.877   0.701   1.676  2.2175  1.7099  0.9336
 8266SOL    HW332831   1.903   0.625   1.804 -0.8219 -0.4495  0.3689
 8266SOL    MW432832   1.858   0.685   1.760 -0.1565 -0.0939  0.1726
 8267SOL     OW32833   5.240   6.275   1.567 -0.5784 -0.0631  0.5397
 8267SOL    HW232834   5.276   6.268   1.656  1.8305 -2.4083 -0.4719
 8267SOL    HW332835   5.306   6.324   1.519 -0.0556 -1.8805 -0.6969
 8267SOL    MW432836   5.254   6.281   1.573 -0.1916 -0.6123  0.2431
 8268SOL     OW32837   3.743   0.608   2.930  0.4174  0.6099  0.2582
 8268SOL    HW232838   3.657   0.642   2.955  0.3326  2.1669 -1.9188
 8268SOL    HW332839   3.724   0.529   2.879  0.3988  0.0960  1.0276
 8268SOL    MW432840   3.729   0.602   2.927  0.4037  0.7475  0.0725
 8269SOL     OW32841   5.264   2.755   6.153  0.4343  0.1675 -0.4546
 8269SOL    HW232842   5.359   2.756   6.163  0.6292 -1.1638 -1.9020
 8269SOL    HW332843   5.234   2.692   6.219  0.5259  0.5908  0.0051
 8269SOL    MW432844   5.272   2.747   6.163  0.4721  0.0477 -0.5849
 8270SOL     OW32845   0.246   5.344   1.265  0.2032 -0.7807 -0.1344
 8270SOL    HW232846   0.241   5.432   1.302 -2.6529 -1.3667  1.2073
 8270SOL    HW332847   0.308   5.298   1.321  0.8029  0.0226 -0.1087
 8270SOL    MW432848   0.253   5.350   1.277 -0.0945 -0.7520  0.0460
 8271SOL     OW32849   3.115   3.993   5.359  0.0974  0.0986  0.2695
 8271SOL    HW232850   3.052   3.966   5.427  1.1674  0.7495  1.5555
 8271SOL    HW332851   3.169   4.060   5.401  2.8185 -1.6653 -0.1739
 8271SOL    MW432852   3.113   3.998   5.374  0.5976 -0.0483  0.3807
 8272SOL     OW32853   4.347   3.652   1.815 -0.5170 -0.3541 -0.4098
 8272SOL    HW232854   4.373   3.744   1.818  1.1070 -0.8070  1.2104
 8272SOL    HW332855   4.349   3.630   1.722  1.6617  0.5942 -0.6544
 8272SOL    MW432856   4.351   3.662   1.803 -0.0153 -0.2887 -0.2283
 8273SOL     OW32857   3.733   4.299   2.204 -0.2402  0.1069  0.7382
 8273SOL    HW232858   3.685   4.381   2.220 -0.9597  0.0665 -0.9656
 8273SOL    HW332859   3.674   4.230   2.235 -0.4447  0.1495  0.4455
 8273SOL    MW432860   3.719   4.301   2.210 -0.3621  0.1072  0.4747
 8274SOL     OW32861   5.591   0.218   4.207  0.0040  0.0407 -0.0192
 8274SOL    HW232862   5.559   0.307   4.192 -1.8772 -0.3716  1.1661
 8274SOL    HW332863   5.624   0.189   4.121 -2.0156  0.8745 -1.1449
 8274SOL    MW432864   5.591   0.226   4.193 -0.5106  0.0963 -0.0113
 8275SOL     OW32865   2.554   3.766   1.881 -0.2247  0.1379 -0.0277
 8275SOL    HW232866   2.478   3.714   1.907  0.4663 -0.7857  0.2186
 8275SOL    HW332867   2.610   3.766   1.959  2.0237 -2.9195 -1.4346
 8275SOL    MW432868   2.551   3.759   1.895  0.1632 -0.3874 -0.1808
 8276SOL     OW32869   0.287   2.996   2.242  0.3300 -0.0282 -0.2541
 8276SOL    HW232870   0.253   2.965   2.158  1.3302  0.4719 -0.8666
 8276SOL    HW332871   0.219   3.054   2.276 -0.2135 -0.4762 -0.5765
 8276SOL    MW432872   0.274   3.000   2.235  0.3902 -0.0214 -0.3775
 8277SOL     OW32873   1.909   4.570   2.077  0.1355 -0.2365 -0.1332
 8277SOL    HW232874   1.828   4.519   2.079  0.7723 -1.2519  0.4143
 8277SOL    HW332875   1.929   4.587   2.169  1.0269 -0.7915 -0.2129
 8277SOL    MW432876   1.901   4.566   2.089  0.3371 -0.4437 -0.0715
 8278SOL     OW32877   4.862   0.124   2.265 -0.2934 -0.0019  0.0840
 8278SOL    HW232878   4.899   0.204   2.301 -2.1129 -0.0515  2.2387
 8278SOL    HW332879   4.785   0.152   2.216 -0.4892 -0.3712  0.1736
 8278SOL    MW432880   4.857   0.138   2.263 -0.5593 -0.0572  0.3801
 8279SOL     OW32881   4.137   1.246   0.856  0.0437 -0.5908  0.4698
 8279SOL    HW232882   4.057   1.194   0.867 -0.1995  0.2887  3.9155
 8279SOL    HW332883   4.106   1.326   0.813 -0.6542 -0.8773  0.4189
 8279SOL    MW432884   4.122   1.250   0.852 -0.0805 -0.5126  0.9177
 8280SOL     OW32885   0.088   1.812   3.527 -0.2371 -0.0344 -0.1141
 8280SOL    HW232886   0.140   1.770   3.596  0.1441  0.5166 -0.0632
 8280SOL    HW332887   0.073   1.742   3.464  1.9610  0.1530 -0.9306
 8280SOL    MW432888   0.093   1.797   3.528  0.1032  0.0630 -0.2151
 8281SOL     OW32889   4.137   2.411   2.674  0.0787  0.1123  0.3862
 8281SOL    HW232890   4.045   2.438   2.674 -0.1600 -0.5480 -1.6320
 8281SOL    HW332891   4.156   2.390   2.583  2.3236  0.4749  0.7088
 8281SOL    MW432892   4.127   2.412   2.662  0.3434  0.0730  0.1625
 8282SOL     OW32893   2.456   3.852   2.205 -0.0218 -1.0611  0.1892
 8282SOL    HW232894   2.378   3.869   2.151 -2.6774  0.8275  4.1133
 8282SOL    HW332895   2.502   3.936   2.208 -1.0151 -0.5198  2.2255
 8282SOL    MW432896   2.451   3.865   2.199 -0.5033 -0.7405  0.9756
 8283SOL     OW32897   0.282   2.323   3.953 -0.0343 -0.3032  0.3792
 8283SOL    HW232898   0.217   2.326   4.023 -0.0109  0.6647  0.3754
 8283SOL    HW332899   0.310   2.231   3.950 -1.6298 -0.8108  0.1523
 8283SOL    MW432900   0.277   2.311   3.962 -0.2417 -0.2425  0.3488
 8284SOL     OW32901   5.473   2.359   2.318  0.1934 -0.4269  0.1227
 8284SOL    HW232902   5.521   2.343   2.399 -1.2826  0.3561  1.2056
 8284SOL    HW332903   5.538   2.398   2.259  0.5332  2.3570  2.1593
 8284SOL    MW432904   5.488   2.362   2.321  0.0435  0.0437  0.5343
 8285SOL     OW32905   0.124   6.297   2.101 -0.1640  0.0287 -0.0494
 8285SOL    HW232906   0.094   6.217   2.145  1.1210 -0.1841  0.4872
 8285SOL    HW332907   0.079   6.368   2.147  2.8610  0.0376  3.4062
 8285SOL    MW432908   0.114   6.295   2.113  0.4046  0.0018  0.4773
 8286SOL     OW32909   4.323   4.260   2.052  0.4379  0.0827  0.8126
 8286SOL    HW232910   4.264   4.269   1.978  1.8100 -0.1310 -0.3518
 8286SOL    HW332911   4.311   4.341   2.102 -0.0895  0.4893  0.0477
 8286SOL    MW432912   4.314   4.272   2.049  0.5494  0.1082  0.5581
 8287SOL     OW32913   0.169   5.790   5.557  0.5682  0.4331  0.4113
 8287SOL    HW232914   0.153   5.710   5.607  2.8339 -0.5265 -0.2499
 8287SOL    HW332915   0.201   5.853   5.623  0.8308  0.0928  0.6144
 8287SOL    MW432916   0.171   5.788   5.573  0.9018  0.2616  0.3509
 8288SOL     OW32917   5.364   5.688   5.463  0.4295  0.0710  0.5450
 8288SOL    HW232918   5.416   5.667   5.540  1.0611 -1.9185 -0.3526
 8288SOL    HW332919   5.302   5.616   5.455 -0.3199  0.7734 -0.2379
 8288SOL    MW432920   5.363   5.676   5.472  0.4140 -0.0988  0.3233
 8289SOL     OW32921   1.254   5.181   5.316 -0.0398 -0.4479 -0.0087
 8289SOL    HW232922   1.190   5.137   5.372  0.4948 -0.9342  0.2353
 8289SOL    HW332923   1.263   5.123   5.240  0.2685 -0.4909  0.0594
 8289SOL    MW432924   1.247   5.167   5.314  0.0714 -0.5177  0.0325
 8290SOL     OW32925   5.664   3.386   0.986  0.5206 -0.1700  0.0945
 8290SOL    HW232926   5.667   3.457   0.922 -2.1090  0.5953  0.7138
 8290SOL    HW332927   5.665   3.306   0.934  0.0733  0.3994 -0.8189
 8290SOL    MW432928   5.665   3.385   0.971  0.1146  0.0061  0.0557
 8291SOL     OW32929   2.494   4.267   4.267  0.1469 -0.0573  0.1317
 8291SOL    HW232930   2.439   4.190   4.255  0.9968 -0.3360 -2.6970
 8291SOL    HW332931   2.565   4.257   4.203  0.3866  2.9928 -0.2534
 8291SOL    MW432932   2.496   4.256   4.257  0.2906  0.3083 -0.2923
 8292SOL     OW32933   2.222   1.605   0.081  0.3018 -0.4539 -0.1818
 8292SOL    HW232934   2.233   1.636  -0.009 -0.1943 -1.1959 -0.5055
 8292SOL    HW332935   2.275   1.526   0.086 -0.7551 -1.1877 -0.2461
 8292SOL    MW432936   2.230   1.599   0.069  0.0969 -0.6486 -0.2330
 8293SOL     OW32937   2.740   2.175   4.374  0.0108  0.7634  0.4083
 8293SOL    HW232938   2.760   2.245   4.311  1.6881  1.1208  1.2882
 8293SOL    HW332939   2.825   2.145   4.405 -0.7133 -1.1742  0.6243
 8293SOL    MW432940   2.754   2.180   4.370  0.1366  0.5549  0.5529
 8294SOL     OW32941   2.997   3.817   4.440 -0.3128  0.3431  0.0183
 8294SOL    HW232942   3.028   3.860   4.520  0.3148 -0.2577  0.1010
 8294SOL    HW332943   2.998   3.887   4.374  0.2692  0.5659  0.2563
 8294SOL    MW432944   3.001   3.832   4.442 -0.1532  0.2933  0.0606
 8295SOL     OW32945   4.667   0.153   4.723 -0.3531  0.6040 -0.2184
 8295SOL    HW232946   4.704   0.241   4.727  0.3250  0.3062  0.1824
 8295SOL    HW332947   4.648   0.130   4.814  0.8335 -0.2239 -0.1563
 8295SOL    MW432948   4.669   0.161   4.735 -0.1071  0.4555 -0.1574
 8296SOL     OW32949   4.582   2.440   3.166 -0.1210 -0.2393  0.3635
 8296SOL    HW232950   4.520   2.501   3.126 -0.5265 -0.3041  0.8839
 8296SOL    HW332951   4.527   2.371   3.203  0.2478 -0.1931  1.0100
 8296SOL    MW432952   4.567   2.439   3.165 -0.1258 -0.2418  0.5175
 8297SOL     OW32953   2.710   2.479   2.553 -0.3026  0.1288 -0.2424
 8297SOL    HW232954   2.636   2.518   2.601  0.0854  1.5884 -0.7721
 8297SOL    HW332955   2.716   2.390   2.587 -2.4650 -0.1261 -0.3724
 8297SOL    MW432956   2.701   2.473   2.564 -0.5367  0.2877 -0.3295
 8298SOL     OW32957   3.658   1.898   0.396 -0.3800 -0.8695 -0.2339
 8298SOL    HW232958   3.698   1.817   0.363 -0.1845 -1.1501  0.6508
 8298SOL    HW332959   3.697   1.967   0.343  1.9140 -1.0465  1.0839
 8298SOL    MW432960   3.669   1.896   0.385 -0.0516 -0.9299  0.0567
 8299SOL     OW32961   3.236   5.383   3.872  0.3052 -0.1510  0.4315
 8299SOL    HW232962   3.278   5.368   3.788  0.5662 -0.5128  0.6270
 8299SOL    HW332963   3.151   5.339   3.865  0.3189 -0.1643  0.3538
 8299SOL    MW432964   3.230   5.375   3.860  0.3414 -0.2005  0.4471
 8300SOL     OW32965   4.128   6.311   5.053 -0.0738  0.1301  0.1876
 8300SOL    HW232966   4.189   6.366   5.101 -0.3875 -0.2025  1.0031
 8300SOL    HW332967   4.154   6.221   5.076  0.1691 -0.0585 -0.7817
 8300SOL    MW432968   4.140   6.306   5.063 -0.0831  0.0613  0.1673
 8301SOL     OW32969   2.834   2.511   2.086  0.0576  0.0251 -0.1919
 8301SOL    HW232970   2.883   2.591   2.104  0.2398 -0.1300  0.0221
 8301SOL    HW332971   2.777   2.500   2.162 -1.3243  0.9337 -1.0510
 8301SOL    MW432972   2.833   2.520   2.099 -0.1007  0.1245 -0.2770
 8302SOL     OW32973   3.221   0.453   1.716  0.3504  0.0444  0.2129
 8302SOL    HW232974   3.203   0.534   1.668  1.7878  0.4189  0.2471
 8302SOL    HW332975   3.230   0.386   1.649 -0.9174 -0.1228  0.1888
 8302SOL    MW432976   3.220   0.455   1.701  0.3728  0.0717  0.2142
 8303SOL     OW32977   3.891   6.002   1.875 -0.1340 -0.0615  0.0090
 8303SOL    HW232978   3.956   5.932   1.883  0.6861  0.3341 -2.3165
 8303SOL    HW332979   3.810   5.957   1.853 -0.2292 -0.4148  1.0055
 8303SOL    MW432980   3.889   5.987   1.873 -0.0383 -0.0559 -0.1664
 8304SOL     OW32981   4.235   1.494   2.121  0.3868  1.0995  0.1105
 8304SOL    HW232982   4.222   1.574   2.070  0.7564  0.8859 -0.3304
 8304SOL    HW332983   4.182   1.506   2.200 -0.2308  1.4192 -0.3440
 8304SOL    MW432984   4.226   1.506   2.125  0.3540  1.1135 -0.0076
 8305SOL     OW32985   5.816   3.924   4.766 -0.9865 -0.0585 -0.2541
 8305SOL    HW232986   5.875   3.951   4.836  0.7191 -1.2179 -1.1804
 8305SOL    HW332987   5.747   3.874   4.810 -0.6649  0.3300  0.7132
 8305SOL    MW432988   5.814   3.921   4.781 -0.7190 -0.1602 -0.2487
 8306SOL     OW32989   5.451   3.628   1.089  0.4475  0.3571  0.9140
 8306SOL    HW232990   5.506   3.553   1.111  1.4030  0.7194 -0.1116
 8306SOL    HW332991   5.362   3.598   1.107  0.7494 -1.2255  0.0167
 8306SOL    MW432992   5.447   3.614   1.094  0.6134  0.1961  0.6603
 8307SOL     OW32993   2.083   1.878   5.703 -0.1324 -0.6471  0.0789
 8307SOL    HW232994   2.172   1.867   5.738  0.4942  0.7182 -1.0008
 8307SOL    HW332995   2.059   1.790   5.672  0.5414 -1.1851  1.0275
 8307SOL    MW432996   2.092   1.865   5.703  0.0391 -0.5380  0.0616
 8308SOL     OW32997   0.169   6.144   1.784 -0.6226 -0.7024  0.0885
 8308SOL    HW232998   0.177   6.178   1.873 -0.0273  0.2172 -0.3001
 8308SOL    HW332999   0.116   6.064   1.793 -0.4357 -0.7079  1.2759
 8308SOL    MW433000   0.163   6.138   1.797 -0.5194 -0.5818  0.1939
 8309SOL     OW33001   3.578   1.157   1.315 -0.1910 -0.3722  0.1254
 8309SOL    HW233002   3.577   1.112   1.399  0.4774  0.7687  0.7745
 8309SOL    HW333003   3.621   1.241   1.333  0.5075 -0.3384 -1.4685
 8309SOL    MW433004   3.584   1.162   1.328 -0.0107 -0.2172  0.0007
 8310SOL     OW33005   3.945   0.573   5.817  0.1773 -0.0149 -0.6232
 8310SOL    HW233006   3.886   0.507   5.852  0.5209  0.0044  0.0065
 8310SOL    HW333007   3.907   0.597   5.733 -1.9213  1.5192  0.6486
 8310SOL    MW433008   3.932   0.568   5.811 -0.0542  0.1901 -0.3723
 8311SOL     OW33009   2.306   0.317   2.250 -0.4406  0.0822  0.0764
 8311SOL    HW233010   2.228   0.337   2.302 -0.0874  0.9586  0.2757
 8311SOL    HW333011   2.277   0.248   2.190 -0.7756 -1.1596  1.6095
 8311SOL    MW433012   2.292   0.311   2.249 -0.4382  0.0340  0.3050
 8312SOL     OW33013   5.277   5.111   3.821 -0.0276  0.1103 -0.7302
 8312SOL    HW233014   5.280   5.174   3.893 -0.6538 -0.9584  0.2499
 8312SOL    HW333015   5.364   5.114   3.782  0.0297  1.3880 -0.5432
 8312SOL    MW433016   5.289   5.120   3.825 -0.1027  0.1379 -0.5762
 8313SOL     OW33017   5.346   3.497   0.763 -0.3835 -0.1781 -0.2644
 8313SOL    HW233018   5.386   3.583   0.751 -0.6902  0.0811  0.4733
 8313SOL    HW333019   5.385   3.442   0.696  1.5109 -0.0327  0.6474
 8313SOL    MW433020   5.356   3.501   0.753 -0.1740 -0.1247 -0.0468
 8314SOL     OW33021   2.376   2.491   4.830  0.5533  0.1672 -0.2235
 8314SOL    HW233022   2.288   2.492   4.793  0.5902  0.1278 -0.3114
 8314SOL    HW333023   2.406   2.581   4.822 -0.9293  1.1628  3.2453
 8314SOL    MW433024   2.368   2.503   4.824  0.3626  0.2933  0.2226
 8315SOL     OW33025   4.535   6.048   3.374 -0.2796  0.2777  0.3998
 8315SOL    HW233026   4.470   6.106   3.412  0.1651  2.0906 -1.4188
 8315SOL    HW333027   4.619   6.092   3.388  0.4432 -1.3296  1.4468
 8315SOL    MW433028   4.537   6.061   3.381 -0.1256  0.3049  0.2980
 8316SOL     OW33029   4.394   3.769   2.428 -0.2125 -0.1806  0.1087
 8316SOL    HW233030   4.381   3.863   2.417 -0.3598 -0.3703 -1.6092
 8316SOL    HW333031   4.318   3.729   2.385 -0.1270 -1.0897  0.7658
 8316SOL    MW433032   4.382   3.776   2.421 -0.2207 -0.3255 -0.0312
 8317SOL     OW33033   5.466   4.595   1.746  0.4761 -0.0957  0.1378
 8317SOL    HW233034   5.440   4.616   1.836  0.8877  1.0010  0.0122
 8317SOL    HW333035   5.474   4.680   1.703 -0.1781 -0.6251 -1.0756
 8317SOL    MW433036   5.463   4.609   1.753  0.4441 -0.0208 -0.0389
 8318SOL     OW33037   1.863   2.779   2.885  0.3106  0.1861  0.3205
 8318SOL    HW233038   1.869   2.698   2.937  0.0833  0.0796  0.1800
 8318SOL    HW333039   1.837   2.749   2.798 -0.0842  0.4423  0.3512
 8318SOL    MW433040   1.861   2.764   2.880  0.2285  0.2058  0.3060
 8319SOL     OW33041   2.642   3.122   5.244  0.0699  0.0931 -0.3742
 8319SOL    HW233042   2.630   3.079   5.329  0.1858 -0.2483 -0.5281
 8319SOL    HW333043   2.678   3.054   5.188  1.2934  0.6835 -0.3371
 8319SOL    MW433044   2.645   3.107   5.248  0.2466  0.1259 -0.3896
 8320SOL     OW33045   5.696   1.847   1.126 -0.4483  0.1721  0.0831
 8320SOL    HW233046   5.774   1.792   1.140 -1.2223 -0.9975 -0.0422
 8320SOL    HW333047   5.645   1.835   1.206 -2.4635 -2.4443 -1.4475
 8320SOL    MW433048   5.700   1.838   1.139 -0.8163 -0.3274 -0.1354
 8321SOL     OW33049   5.553   5.979   4.557 -0.8284  0.2882  0.3017
 8321SOL    HW233050   5.629   6.014   4.603  0.7438 -0.2134 -1.7709
 8321SOL    HW333051   5.552   5.885   4.578 -0.5536  0.1953 -0.1000
 8321SOL    MW433052   5.563   5.971   4.566 -0.5847  0.2098 -0.0247
 8322SOL     OW33053   6.285   0.459   4.479 -0.4627  0.3290  0.5495
 8322SOL    HW233054   6.241   0.386   4.522 -2.2860 -0.4595 -2.4045
 8322SOL    HW333055   6.375   0.429   4.467 -0.7549 -0.7256  0.9244
 8322SOL    MW433056   6.291   0.446   4.483 -0.7418  0.0858  0.2092
 8323SOL     OW33057   3.098   0.037   1.967 -0.0886  0.0221 -0.0327
 8323SOL    HW233058   3.186   0.038   1.929  0.1525 -0.3143  0.4990
 8323SOL    HW333059   3.041   0.010   1.895  0.0339  1.6107 -0.7707
 8323SOL    MW433060   3.102   0.033   1.952 -0.0406  0.1873 -0.0599
 8324SOL     OW33061   4.067   0.766   0.020  0.1696  0.3651  0.0008
 8324SOL    HW233062   4.048   0.825   0.093  0.2064  2.1692 -1.3681
 8324SOL    HW333063   3.991   0.709   0.015 -0.7271  1.5002  0.2598
 8324SOL    MW433064   4.055   0.766   0.029  0.0561  0.7529 -0.1456
 8325SOL     OW33065   1.728   3.713   2.965  0.6793 -0.2474 -0.2791
 8325SOL    HW233066   1.757   3.732   3.054  0.4523 -0.5863 -0.1299
 8325SOL    HW333067   1.722   3.799   2.923  0.8460 -0.0911  0.0146
 8325SOL    MW433068   1.731   3.727   2.971  0.6714 -0.2715 -0.2207
 8326SOL     OW33069   5.978   4.892   2.867 -0.6232  0.3592  0.9191
 8326SOL    HW233070   6.025   4.848   2.796 -4.5211  2.2011 -3.2769
 8326SOL    HW333071   5.938   4.820   2.917  0.2054 -1.0119 -0.2891
 8326SOL    MW433072   5.979   4.876   2.864 -1.0281  0.4213  0.2061
 8327SOL     OW33073   1.400   1.229   4.942 -0.2182 -0.0973  0.0097
 8327SOL    HW233074   1.333   1.227   5.011  0.4989  1.2293  0.7955
 8327SOL    HW333075   1.479   1.196   4.985  0.2875  0.9446 -0.1011
 8327SOL    MW433076   1.401   1.224   4.957 -0.0568  0.2152  0.0987
 8328SOL     OW33077   0.176   0.193   3.857 -0.3917 -0.4107  0.3149
 8328SOL    HW233078   0.184   0.100   3.875 -0.4567  0.0261  2.9806
 8328SOL    HW333079   0.183   0.235   3.943  0.2458  2.0914 -0.8666
 8328SOL    MW433080   0.178   0.187   3.871 -0.3162 -0.0229  0.5107
 8329SOL     OW33081   5.996   5.043   1.840 -0.1701  0.6009 -0.0981
 8329SOL    HW233082   5.907   5.009   1.827 -0.0453  0.5582 -0.8828
 8329SOL    HW333083   5.983   5.136   1.859 -0.4541  0.3288  1.1517
 8329SOL    MW433084   5.982   5.051   1.841 -0.1911  0.5593 -0.0368
 8330SOL     OW33085   1.496   3.077   4.764 -0.8367  0.0399  0.0958
 8330SOL    HW233086   1.430   3.146   4.764 -0.1934  0.6826 -0.7476
 8330SOL    HW333087   1.557   3.103   4.833  0.0401  0.9801 -0.9903
 8330SOL    MW433088   1.495   3.090   4.773 -0.6361  0.2488 -0.1588
 8331SOL     OW33089   5.727   2.629   5.982 -0.5500  0.3138 -0.3370
 8331SOL    HW233090   5.819   2.610   6.000 -0.6752 -0.5030 -0.4989
 8331SOL    HW333091   5.686   2.635   6.069 -0.5096 -0.2224 -0.2777
 8331SOL    MW433092   5.734   2.627   5.996 -0.5612  0.1353 -0.3505
 8332SOL     OW33093   3.187   0.165   2.834  0.2246  0.2091  0.2614
 8332SOL    HW233094   3.102   0.210   2.831  0.0471 -0.0204  1.3694
 8332SOL    HW333095   3.169   0.077   2.801  0.1334  0.3095  0.0421
 8332SOL    MW433096   3.173   0.159   2.829  0.1892  0.1921  0.3786
 8333SOL     OW33097   6.137   0.267   4.609  0.1127 -0.0144  0.3613
 8333SOL    HW233098   6.162   0.228   4.693 -0.6282  0.7861  0.9719
 8333SOL    HW333099   6.088   0.198   4.565  1.8556 -0.9978 -0.1153
 8333SOL    MW433100   6.134   0.253   4.615  0.2449 -0.0385  0.3790
 8334SOL     OW33101   4.179   2.089   0.736 -0.1011 -0.4422  0.1890
 8334SOL    HW233102   4.141   2.175   0.755  1.0494  0.8126 -2.6287
 8334SOL    HW333103   4.105   2.029   0.741 -1.8101  1.3324 -1.5190
 8334SOL    MW433104   4.164   2.093   0.739 -0.1748 -0.0425 -0.4081
 8335SOL     OW33105   1.626   0.609   2.162 -0.0649 -0.2897  0.1229
 8335SOL    HW233106   1.709   0.597   2.208 -0.0404 -3.2370 -0.4749
 8335SOL    HW333107   1.617   0.530   2.109 -2.8706  0.3385 -0.4794
 8335SOL    MW433108   1.636   0.597   2.161 -0.4318 -0.5957 -0.0354
 8336SOL     OW33109   5.549   1.104   1.139  0.0892 -0.0549 -0.3525
 8336SOL    HW233110   5.500   1.184   1.117 -0.1415 -0.1838 -0.3123
 8336SOL    HW333111   5.498   1.063   1.208 -0.3809 -0.7908 -1.1151
 8336SOL    MW433112   5.536   1.109   1.145 -0.0033 -0.1690 -0.4478
 8337SOL     OW33113   4.004   6.105   4.532  0.3685  0.1089  0.5521
 8337SOL    HW233114   3.969   6.023   4.569 -0.1013 -0.3847 -0.9219
 8337SOL    HW333115   3.959   6.174   4.581 -1.1598 -0.5243  0.1022
 8337SOL    MW433116   3.993   6.103   4.544  0.1048 -0.0397  0.2983
 8338SOL     OW33117   5.500   2.299   3.578 -0.0025 -0.2050  0.3164
 8338SOL    HW233118   5.443   2.374   3.561  1.1302  1.4453  3.0150
 8338SOL    HW333119   5.441   2.232   3.612 -0.6693  0.5926  0.7861
 8338SOL    MW433120   5.484   2.300   3.581  0.0590  0.1180  0.7344
 8339SOL     OW33121   4.177   2.521   1.295  0.1833  0.4795  0.7401
 8339SOL    HW233122   4.261   2.477   1.284 -0.6770 -0.5879 -2.6355
 8339SOL    HW333123   4.116   2.452   1.321 -0.2957  0.5488 -0.1674
 8339SOL    MW433124   4.180   2.506   1.297  0.0066  0.3478  0.1750
 8340SOL     OW33125   2.432   0.934   2.785  0.1073  0.3276  0.5911
 8340SOL    HW233126   2.424   1.006   2.722  1.5700 -0.0903 -0.1315
 8340SOL    HW333127   2.499   0.877   2.747 -0.7107 -1.2016  1.3636
 8340SOL    MW433128   2.440   0.936   2.772  0.1924  0.0707  0.5977
 8341SOL     OW33129   3.209   5.385   4.636  0.2210 -0.0601 -0.2006
 8341SOL    HW233130   3.182   5.452   4.572  0.0862  0.5604  0.4945
 8341SOL    HW333131   3.284   5.342   4.595 -0.5921 -0.4926 -1.3110
 8341SOL    MW433132   3.215   5.388   4.622  0.0959 -0.0353 -0.2554
 8342SOL     OW33133   5.079   4.333   4.821  0.4952 -0.1426  0.1103
 8342SOL    HW233134   5.123   4.247   4.827 -0.3301 -0.4935  2.1269
 8342SOL    HW333135   5.133   4.391   4.875 -0.7001 -0.2616  1.5257
 8342SOL    MW433136   5.092   4.329   4.829  0.2286 -0.2046  0.5631
 8343SOL     OW33137   1.858   3.583   1.383  0.1612  1.0056  0.1981
 8343SOL    HW233138   1.952   3.573   1.374  0.1947  2.1918 -1.1716
 8343SOL    HW333139   1.845   3.615   1.473  0.7495 -1.8612  1.4262
 8343SOL    MW433140   1.869   3.586   1.394  0.2432  0.7838  0.1794
 8344SOL     OW33141   2.181   2.993   6.204  0.1397  0.3005  0.1343
 8344SOL    HW233142   2.115   3.058   6.231  1.5688  2.5599 -1.4281
 8344SOL    HW333143   2.265   3.032   6.231  1.0421 -0.9735 -0.7568
 8344SOL    MW433144   2.183   3.007   6.211  0.4473  0.4305 -0.1894
 8345SOL     OW33145   0.281   2.376   5.223  0.8220  0.0335  0.2246
 8345SOL    HW233146   0.365   2.418   5.243  0.6888  0.9210 -0.9490
 8345SOL    HW333147   0.280   2.370   5.128 -0.1475 -0.6382  0.2647
 8345SOL    MW433148   0.292   2.381   5.213  0.6765  0.0620  0.0751
 8346SOL     OW33149   5.142   3.610   2.831 -0.0621  0.4502  0.2779
 8346SOL    HW233150   5.146   3.624   2.736  1.0151 -0.1946  0.2075
 8346SOL    HW333151   5.180   3.690   2.868 -1.0088  0.9505  0.2075
 8346SOL    MW433152   5.148   3.623   2.823 -0.0449  0.4311  0.2593
 8347SOL     OW33153   0.234   0.860   3.596  0.1463 -0.1560 -0.3044
 8347SOL    HW233154   0.312   0.902   3.633  0.0985 -0.5032  0.2040
 8347SOL    HW333155   0.165   0.877   3.661 -0.0071 -0.5322 -0.3683
 8347SOL    MW433156   0.235   0.868   3.610  0.1197 -0.2515 -0.2458
 8348SOL     OW33157   3.883   1.025   3.295  0.4969 -0.2027  0.0277
 8348SOL    HW233158   3.858   1.115   3.272  1.5042 -0.2252 -1.2826
 8348SOL    HW333159   3.978   1.027   3.301  0.6055 -1.3496 -0.8654
 8348SOL    MW433160   3.892   1.037   3.293  0.6441 -0.3570 -0.2630
 8349SOL     OW33161   6.173   4.038   5.502  0.0434  0.0091  0.2773
 8349SOL    HW233162   6.260   4.045   5.542  0.4332 -1.4992 -0.2146
 8349SOL    HW333163   6.134   3.960   5.542 -1.0096  0.5461  0.3354
 8349SOL    MW433164   6.179   4.029   5.512 -0.0441 -0.1191  0.2201
 8350SOL     OW33165   0.101   1.713   3.836  0.0897  0.0107 -0.0610
 8350SOL    HW233166   0.062   1.634   3.873  1.2408  0.5187  2.3973
 8350SOL    HW333167   0.026   1.767   3.811 -0.7312 -0.7618  0.6702
 8350SOL    MW433168   0.086   1.709   3.837  0.1332 -0.0242  0.3598
 8351SOL     OW33169   2.641   2.333   3.084 -0.2579 -0.4706 -0.0609
 8351SOL    HW233170   2.653   2.381   3.166  1.4941  0.2355 -0.6861
 8351SOL    HW333171   2.546   2.323   3.076 -0.6077  1.6628  0.7885
 8351SOL    MW433172   2.630   2.338   3.094 -0.0729 -0.0960 -0.0313
 8352SOL     OW33173   3.881   4.685   5.437  0.0509  0.0040 -0.5543
 8352SOL    HW233174   3.877   4.614   5.372  0.7582  0.2958 -0.9251
 8352SOL    HW333175   3.927   4.756   5.392 -0.4902  0.6416 -0.1253
 8352SOL    MW433176   3.886   4.685   5.422  0.0728  0.1266 -0.5466
 8353SOL     OW33177   5.837   0.096   4.873 -0.6544 -0.0421 -0.7499
 8353SOL    HW233178   5.872   0.183   4.852 -0.8582  0.1707 -0.2247
 8353SOL    HW333179   5.790   0.108   4.956 -0.7102 -0.6482 -0.6871
 8353SOL    MW433180   5.835   0.109   4.881 -0.6887 -0.0940 -0.6723
 8354SOL     OW33181   3.946   2.483   0.090 -0.0188  0.2703  0.2696
 8354SOL    HW233182   3.857   2.454   0.069 -0.8797  2.1020  1.2381
 8354SOL    HW333183   3.954   2.568   0.048  0.7073  0.8379  1.5368
 8354SOL    MW433184   3.935   2.490   0.081 -0.0366  0.5869  0.5646
 8355SOL     OW33185   0.092   0.989   0.753 -0.4171 -0.0204 -0.2523
 8355SOL    HW233186   0.017   0.965   0.699 -0.6442 -3.1306  1.1938
 8355SOL    HW333187   0.132   0.905   0.776  1.7577  1.3799  1.4487
 8355SOL    MW433188   0.087   0.975   0.749 -0.1601 -0.2460  0.1629
 8356SOL     OW33189   3.407   4.493   2.246  0.3034 -0.3440  0.1434
 8356SOL    HW233190   3.329   4.477   2.299  0.3503  1.5374  0.8685
 8356SOL    HW333191   3.480   4.483   2.307  0.7790 -3.0874 -0.7519
 8356SOL    MW433192   3.406   4.490   2.261  0.3723 -0.4577  0.1210
 8357SOL     OW33193   4.975   1.215   2.901 -0.7313  0.1820  0.1342
 8357SOL    HW233194   4.981   1.286   2.965  0.2577 -0.5229  0.8623
 8357SOL    HW333195   4.890   1.174   2.918  0.3254 -1.2858  2.4773
 8357SOL    MW433196   4.965   1.219   2.911 -0.4614 -0.1047  0.5394
 8358SOL     OW33197   4.266   4.893   1.756 -0.1553 -0.0303 -0.1042
 8358SOL    HW233198   4.229   4.846   1.681  0.4518  1.6331 -1.5074
 8358SOL    HW333199   4.189   4.922   1.806 -0.5729 -1.0627 -0.1188
 8358SOL    MW433200   4.251   4.890   1.753 -0.1303  0.0529 -0.2913
 8359SOL     OW33201   5.456   6.182   2.936 -0.2837  0.5122  0.3514
 8359SOL    HW233202   5.363   6.169   2.951 -0.0160 -0.8369  0.9956
 8359SOL    HW333203   5.480   6.113   2.873  0.3646  0.5082  0.5895
 8359SOL    MW433204   5.447   6.171   2.929 -0.1628  0.3337  0.4678
 8360SOL     OW33205   0.378   5.189   3.624 -0.4588 -0.0307 -1.0498
 8360SOL    HW233206   0.353   5.257   3.686  0.0589  0.1219 -1.0096
 8360SOL    HW333207   0.295   5.144   3.603 -0.6724  0.0825 -0.4535
 8360SOL    MW433208   0.364   5.192   3.629 -0.4187  0.0043 -0.9658
 8361SOL     OW33209   4.444   0.139   1.119 -0.3131  0.3832 -0.5600
 8361SOL    HW233210   4.447   0.187   1.201 -0.5754 -0.1172 -0.2533
 8361SOL    HW333211   4.451   0.047   1.145  0.2629  0.2596 -1.1426
 8361SOL    MW433212   4.445   0.133   1.133 -0.2717  0.3008 -0.5964
 8362SOL     OW33213   2.382   0.559   0.979  0.4312  0.0034 -0.0322
 8362SOL    HW233214   2.443   0.583   0.909  0.4127  2.2813  0.6405
 8362SOL    HW333215   2.398   0.625   1.047 -1.2709 -0.6622  1.0633
 8362SOL    MW433216   2.392   0.571   0.979  0.2042  0.2161  0.2011
 8363SOL     OW33217   1.177   5.364   1.157  0.4018  0.5104 -0.1639
 8363SOL    HW233218   1.202   5.330   1.243  1.2978 -0.1473 -0.6718
 8363SOL    HW333219   1.214   5.453   1.155 -0.6565  0.9820  0.5822
 8363SOL    MW433220   1.186   5.371   1.168  0.3804  0.4858 -0.1324
 8364SOL     OW33221   1.073   1.993   0.057  0.0018  0.1696  0.2068
 8364SOL    HW233222   1.008   1.924   0.074 -1.1463  1.0413 -0.4700
 8364SOL    HW333223   1.053   2.061   0.121  1.0068 -0.0215  0.7424
 8364SOL    MW433224   1.061   1.993   0.067 -0.0171  0.2594  0.1882
 8365SOL     OW33225   5.633   4.870   5.184  0.2897 -0.1502 -0.2996
 8365SOL    HW233226   5.709   4.928   5.176 -1.3520  2.1373 -0.4711
 8365SOL    HW333227   5.647   4.824   5.266  2.4662 -0.8005 -0.9685
 8365SOL    MW433228   5.645   4.872   5.194  0.3603  0.0658 -0.4105
 8366SOL     OW33229   2.897   2.965   3.542  0.0307 -0.1875 -0.7757
 8366SOL    HW233230   2.851   3.025   3.601  1.5384  1.1800 -0.8963
 8366SOL    HW333231   2.912   2.886   3.593 -2.7367 -0.8653 -0.8716
 8366SOL    MW433232   2.893   2.963   3.556 -0.1355 -0.0965 -0.8043
 8367SOL     OW33233   2.318   3.742   3.812 -0.2724 -0.8204 -0.2965
 8367SOL    HW233234   2.254   3.671   3.819 -3.0300  1.5906  0.8575
 8367SOL    HW333235   2.366   3.723   3.732 -1.4495 -3.5105 -0.4707
 8367SOL    MW433236   2.316   3.730   3.803 -0.7915 -0.8572 -0.1673
 8368SOL     OW33237   0.970   3.312   3.328  0.0507  0.1279 -0.6188
 8368SOL    HW233238   0.905   3.337   3.263  0.8243  0.7660 -1.1771
 8368SOL    HW333239   0.921   3.299   3.409 -0.8010  0.2545 -1.1104
 8368SOL    MW433240   0.955   3.313   3.330  0.0404  0.2288 -0.7573
 8369SOL     OW33241   2.934   5.498   1.147  0.0633 -0.4951  0.8589
 8369SOL    HW233242   2.878   5.555   1.095  1.1720 -1.0449 -1.0621
 8369SOL    HW333243   2.958   5.550   1.224 -1.4808  0.4231  0.7568
 8369SOL    MW433244   2.930   5.512   1.150  0.0059 -0.4465  0.5920
 8370SOL     OW33245   0.677   4.939   5.473  0.2152  0.5322  0.6317
 8370SOL    HW233246   0.771   4.956   5.466 -0.1736  2.8816  0.3573
 8370SOL    HW333247   0.660   4.934   5.568  0.6932 -0.6437  0.6749
 8370SOL    MW433248   0.687   4.941   5.485  0.2269  0.6870  0.6012
 8371SOL     OW33249   2.485   4.443   3.951  0.0908  0.3118 -0.1074
 8371SOL    HW233250   2.480   4.501   3.875  1.9684  0.4490 -0.1746
 8371SOL    HW333251   2.453   4.496   4.024 -0.6566  0.5551 -0.6042
 8371SOL    MW433252   2.480   4.458   3.951  0.2400  0.3620 -0.1818
 8372SOL     OW33253   1.767   2.960   3.529 -0.1538 -0.4199  0.8306
 8372SOL    HW233254   1.719   3.011   3.464  1.5974  0.6987  0.3638
 8372SOL    HW333255   1.785   3.021   3.600  3.1956  0.1652 -0.3393
 8372SOL    MW433256   1.763   2.975   3.530  0.5192 -0.1951  0.6147
 8373SOL     OW33257   3.144   4.703   3.370 -0.6132  0.5423  0.4467
 8373SOL    HW233258   3.183   4.690   3.284  0.5025  1.9278  0.7044
 8373SOL    HW333259   3.076   4.770   3.356 -1.0383  0.1284  0.4960
 8373SOL    MW433260   3.140   4.710   3.357 -0.5221  0.6705  0.4872
 8374SOL     OW33261   6.214   0.901   4.116 -0.3621  0.1369 -0.6981
 8374SOL    HW233262   6.298   0.883   4.075 -0.6807 -0.3122 -1.1628
 8374SOL    HW333263   6.214   0.847   4.195 -0.5401 -0.4728 -1.1115
 8374SOL    MW433264   6.225   0.891   4.121 -0.4276 -0.0028 -0.8140
 8375SOL     OW33265   3.908   5.429   2.611  0.7111  0.5231  0.1468
 8375SOL    HW233266   3.854   5.423   2.533  0.7770  0.2430  0.1205
 8375SOL    HW333267   3.956   5.511   2.601 -0.5817  1.3880  0.7450
 8375SOL    MW433268   3.908   5.439   2.599  0.5492  0.6002  0.2222
 8376SOL     OW33269   4.723   5.161   4.212  0.6297 -0.3810  0.4859
 8376SOL    HW233270   4.741   5.077   4.254 -1.7686 -0.0147  2.4934
 8376SOL    HW333271   4.748   5.226   4.276  1.4804  0.4394 -0.6438
 8376SOL    MW433272   4.728   5.158   4.226  0.4255 -0.2245  0.6017
 8377SOL     OW33273   3.840   2.564   5.717  0.7400  0.0566  0.5763
 8377SOL    HW233274   3.821   2.610   5.636  0.3976  0.8261  1.0834
 8377SOL    HW333275   3.757   2.564   5.765  0.6552 -1.3558  0.4643
 8377SOL    MW433276   3.827   2.570   5.713  0.6836 -0.0283  0.6284
 8378SOL     OW33277   4.694   1.439   2.958  0.2276  0.0841 -0.2604
 8378SOL    HW233278   4.707   1.442   2.864  1.3801 -0.9058 -0.1509
 8378SOL    HW333279   4.782   1.438   2.995 -0.1468 -1.8976  0.7247
 8378SOL    MW433280   4.707   1.439   2.951  0.3303 -0.3080 -0.1160
 8379SOL     OW33281   2.195   5.185   5.714  0.3519  0.4888  0.2096
 8379SOL    HW233282   2.228   5.095   5.709  2.9874  1.4157 -0.5345
 8379SOL    HW333283   2.204   5.219   5.625 -4.5002  0.3438 -0.5766
 8379SOL    MW433284   2.201   5.177   5.701  0.0595  0.5919  0.0077
 8380SOL     OW33285   2.939   0.520   2.784  0.2213 -0.4958  0.0638
 8380SOL    HW233286   2.942   0.424   2.777 -1.1786 -0.5069 -0.6045
 8380SOL    HW333287   3.031   0.546   2.786  0.6920 -1.9895  2.6914
 8380SOL    MW433288   2.952   0.510   2.783  0.0987 -0.6943  0.3223
 8381SOL     OW33289   0.678   6.255   3.993 -0.2353  0.0770  0.1171
 8381SOL    HW233290   0.594   6.215   3.971 -1.7240  2.0565  1.7631
 8381SOL    HW333291   0.698   6.311   3.919  1.3263 -2.6772 -1.7135
 8381SOL    MW433292   0.669   6.257   3.981 -0.2256 -0.0252  0.0927
 8382SOL     OW33293   1.990   2.314   4.919  0.1295 -0.9072  0.4717
 8382SOL    HW233294   2.064   2.347   4.869  0.8706 -0.5096  1.7857
 8382SOL    HW333295   1.968   2.385   4.980 -2.7927 -0.0917 -1.3322
 8382SOL    MW433296   1.997   2.328   4.920 -0.1583 -0.7472  0.4071
 8383SOL     OW33297   1.195   4.731   3.751  0.7407  0.4706  0.3300
 8383SOL    HW233298   1.202   4.636   3.764  1.0336  0.5832  1.0485
 8383SOL    HW333299   1.105   4.752   3.777  0.3836  0.2603 -0.7143
 8383SOL    MW433300   1.184   4.721   3.756  0.7322  0.4577  0.2871
 8384SOL     OW33301   4.033   0.632   3.914  0.3863 -0.0725  0.1362
 8384SOL    HW233302   3.986   0.575   3.853 -1.4121  1.2802  0.1709
 8384SOL    HW333303   4.107   0.666   3.864  0.2164 -0.7116 -0.5599
 8384SOL    MW433304   4.037   0.629   3.900  0.1266  0.0217  0.0489
 8385SOL     OW33305   1.604   3.981   4.940 -0.2091  0.3772  0.0487
 8385SOL    HW233306   1.693   4.016   4.951  0.2351 -0.6242 -0.2164
 8385SOL    HW333307   1.617   3.898   4.895 -1.3469  0.5468 -0.6182
 8385SOL    MW433308   1.618   3.975   4.935 -0.3006  0.2674 -0.0743
 8386SOL     OW33309   6.020   1.747   4.264 -0.0099 -0.2099 -0.0281
 8386SOL    HW233310   6.034   1.826   4.317 -0.1108 -1.1913  1.5418
 8386SOL    HW333311   5.926   1.734   4.265  0.0602 -0.6989  0.2594
 8386SOL    MW433312   6.010   1.756   4.271 -0.0140 -0.4039  0.2170
 8387SOL     OW33313   5.981   2.489   5.924 -0.5801  0.0816 -0.0052
 8387SOL    HW233314   5.976   2.472   5.830 -1.0840 -2.3529  0.4171
 8387SOL    HW333315   6.074   2.483   5.945 -0.5503 -0.1553 -0.2081
 8387SOL    MW433316   5.992   2.486   5.915 -0.6427 -0.2709  0.0238
 8388SOL     OW33317   0.173   3.375   0.628  0.3596  0.1851  0.7845
 8388SOL    HW233318   0.116   3.338   0.561  0.3577  0.7059  0.4891
 8388SOL    HW333319   0.256   3.329   0.620  0.8593  1.2496 -0.5810
 8388SOL    MW433320   0.176   3.364   0.618  0.4253  0.3942  0.5654
 8389SOL     OW33321   1.656   1.792   0.476 -0.0405  0.3691  0.2671
 8389SOL    HW233322   1.695   1.795   0.389  0.9419 -2.2210  0.5217
 8389SOL    HW333323   1.726   1.758   0.532 -1.8715 -2.2143  1.1752
 8389SOL    MW433324   1.670   1.788   0.472 -0.1525 -0.3135  0.4205
 8390SOL     OW33325   0.640   2.793   5.765 -0.0953  0.1054  0.1702
 8390SOL    HW233326   0.596   2.854   5.705 -0.9519  1.2214  1.8289
 8390SOL    HW333327   0.591   2.712   5.758 -0.0814  0.1702 -0.7419
 8390SOL    MW433328   0.628   2.791   5.756 -0.2065  0.2612  0.2687
 8391SOL     OW33329   4.189   1.746   2.026 -0.0597  0.1682  0.2807
 8391SOL    HW233330   4.222   1.826   1.984 -0.5234 -0.3187 -1.0659
 8391SOL    HW333331   4.108   1.773   2.069  1.3214  1.0844  2.5214
 8391SOL    MW433332   4.182   1.760   2.026  0.0614  0.2249  0.3987
 8392SOL     OW33333   5.857   0.665   5.632  0.0750 -0.8870  0.3197
 8392SOL    HW233334   5.794   0.647   5.702 -1.1568  0.7163 -0.3095
 8392SOL    HW333335   5.812   0.727   5.575  1.7352 -0.7517 -0.9111
 8392SOL    MW433336   5.843   0.671   5.634  0.1315 -0.6576  0.0743
 8393SOL     OW33337   3.436   3.039   3.010 -0.0936 -0.5457 -0.3008
 8393SOL    HW233338   3.494   2.969   3.037  1.5373  0.2452 -1.5957
 8393SOL    HW333339   3.364   3.036   3.073 -0.6092 -3.9532 -0.8490
 8393SOL    MW433340   3.434   3.030   3.022  0.0535 -0.8909 -0.5440
 8394SOL     OW33341   5.746   2.839   3.820 -0.1932  0.0748  0.4354
 8394SOL    HW233342   5.751   2.767   3.757  0.8860 -0.6470  1.3075
 8394SOL    HW333343   5.775   2.800   3.902 -0.0083  1.4151  1.0239
 8394SOL    MW433344   5.750   2.824   3.822 -0.0264  0.1564  0.6281
 8395SOL     OW33345   2.164   1.646   4.616  0.5377  0.3465 -0.6658
 8395SOL    HW233346   2.167   1.704   4.692  1.7397 -1.1151  0.4744
 8395SOL    HW333347   2.149   1.704   4.541 -1.3564  1.7549  0.7290
 8395SOL    MW433348   2.163   1.661   4.616  0.4464  0.3395 -0.3313
 8396SOL     OW33349   4.296   5.375   3.386  0.5100  0.0384  0.2224
 8396SOL    HW233350   4.326   5.434   3.317  0.4975 -0.1514  0.0545
 8396SOL    HW333351   4.348   5.399   3.462 -1.0033  1.7629  0.7797
 8396SOL    MW433352   4.307   5.386   3.387  0.3087  0.2409  0.2737
 8397SOL     OW33353   1.708   3.362   2.039 -0.2145  0.0788  0.0888
 8397SOL    HW233354   1.648   3.436   2.034 -0.8465 -0.4298 -0.0021
 8397SOL    HW333355   1.675   3.300   1.974 -0.2717 -0.6866  0.8208
 8397SOL    MW433356   1.696   3.364   2.030 -0.3055 -0.0893  0.1734
 8398SOL     OW33357   3.987   2.745   2.927  0.7659  0.0476  0.5971
 8398SOL    HW233358   4.064   2.709   2.883  0.3223  0.9184 -1.0060
 8398SOL    HW333359   3.983   2.700   3.011 -0.0811 -4.0693 -1.4103
 8398SOL    MW433360   3.997   2.735   2.932  0.5956 -0.3807  0.1207
 8399SOL     OW33361   0.336   5.500   1.991  0.1399  0.3232  0.2659
 8399SOL    HW233362   0.356   5.562   2.061 -1.9858 -0.7386  1.9199
 8399SOL    HW333363   0.356   5.414   2.029 -1.9122 -0.3391 -0.0538
 8399SOL    MW433364   0.342   5.497   2.005 -0.4113  0.0957  0.4419
 8400SOL     OW33365   6.214   1.876   0.776 -0.7700 -0.5796  0.2973
 8400SOL    HW233366   6.260   1.954   0.805 -0.4970 -0.4705 -0.4166
 8400SOL    HW333367   6.221   1.815   0.850  0.4423 -0.5334  0.2479
 8400SOL    MW433368   6.221   1.878   0.790 -0.5740 -0.5591  0.1966
 8401SOL     OW33369   3.856   0.488   3.737  0.1684 -0.1879  0.6173
 8401SOL    HW233370   3.858   0.465   3.644  0.9265 -2.6331  1.1541
 8401SOL    HW333371   3.764   0.476   3.762  0.0131  0.2176  0.2605
 8401SOL    MW433372   3.844   0.483   3.728  0.2479 -0.4570  0.6411
 8402SOL     OW33373   0.200   5.509   0.264  0.0748 -0.0297 -0.3560
 8402SOL    HW233374   0.281   5.466   0.237  1.0619  0.5110  1.5742
 8402SOL    HW333375   0.168   5.457   0.337 -0.3410  0.8138  0.0786
 8402SOL    MW433376   0.206   5.496   0.270  0.1502  0.1529 -0.0440
 8403SOL     OW33377   6.206   5.057   3.767 -1.2171 -0.1606 -0.0421
 8403SOL    HW233378   6.218   5.151   3.756 -2.0510 -0.2096 -1.6060
 8403SOL    HW333379   6.122   5.049   3.812 -0.7313 -0.1409  0.8796
 8403SOL    MW433380   6.197   5.068   3.771 -1.2630 -0.1645 -0.1269
 8404SOL     OW33381   4.172   2.220   2.094 -0.0094 -0.1249  0.1195
 8404SOL    HW233382   4.262   2.191   2.078 -0.0561 -0.3063  0.1901
 8404SOL    HW333383   4.129   2.145   2.135 -0.0908  0.0919  0.4364
 8404SOL    MW433384   4.178   2.206   2.097 -0.0263 -0.1203  0.1706
 8405SOL     OW33385   5.804   3.904   1.783  0.6147 -0.2874 -0.6008
 8405SOL    HW233386   5.877   3.936   1.837  0.2745  0.3662 -0.5236
 8405SOL    HW333387   5.798   3.811   1.805 -0.4329  0.2439  1.5922
 8405SOL    MW433388   5.813   3.896   1.793  0.4316 -0.1310 -0.3012
 8406SOL     OW33389   5.321   5.940   5.581 -0.1774 -0.0359  0.5140
 8406SOL    HW233390   5.306   5.867   5.520  0.5869  0.8565 -0.7958
 8406SOL    HW333391   5.414   5.959   5.573 -0.5693  1.8484 -0.0944
 8406SOL    MW433392   5.331   5.933   5.572 -0.1283  0.3304  0.2609
 8407SOL     OW33393   2.461   4.612   2.802  0.1022  0.1509 -0.6360
 8407SOL    HW233394   2.444   4.704   2.822  0.7088 -0.2836  2.4390
 8407SOL    HW333395   2.420   4.597   2.717 -0.3157  3.1477 -1.0517
 8407SOL    MW433396   2.453   4.622   2.794  0.1271  0.4890 -0.2852
 8408SOL     OW33397   4.932   3.632   1.701  0.6516  0.7125  0.1799
 8408SOL    HW233398   5.000   3.597   1.643  0.4294 -1.1309  0.9723
 8408SOL    HW333399   4.852   3.629   1.648 -0.0416 -3.2096  1.1613
 8408SOL    MW433400   4.930   3.627   1.686  0.5308 -0.0482  0.4139
 8409SOL     OW33401   1.963   0.718   3.830  0.5361 -0.5830 -0.4002
 8409SOL    HW233402   1.885   0.663   3.840  0.0190  0.2579  0.2830
 8409SOL    HW333403   1.966   0.771   3.909  0.7839  0.6976 -1.2409
 8409SOL    MW433404   1.953   0.718   3.842  0.5006 -0.3031 -0.4210
 8410SOL     OW33405   1.738   2.367   2.505  0.1156 -0.2538  0.0807
 8410SOL    HW233406   1.787   2.375   2.423 -0.6153  4.8828 -0.1518
 8410SOL    HW333407   1.803   2.385   2.574 -0.4402  2.1142  0.0597
 8410SOL    MW433408   1.753   2.370   2.503 -0.0542  0.7363  0.0473
 8411SOL     OW33409   3.626   0.581   5.255  0.1070  0.5033 -0.6912
 8411SOL    HW233410   3.622   0.597   5.161 -1.4839 -0.4314 -0.8123
 8411SOL    HW333411   3.584   0.657   5.294  0.7359  0.8745 -0.7222
 8411SOL    MW433412   3.620   0.593   5.248 -0.0199  0.4289 -0.7113
 8412SOL     OW33413   1.922   0.894   5.131 -0.4070  0.0522  0.3994
 8412SOL    HW233414   1.966   0.974   5.159  0.5305  0.0925 -1.0772
 8412SOL    HW333415   1.859   0.923   5.064 -2.5288 -0.0482  2.2276
 8412SOL    MW433416   1.919   0.909   5.126 -0.5633  0.0443  0.4458
 8413SOL     OW33417   0.086   4.227   1.254 -0.0892 -0.3898 -0.4131
 8413SOL    HW233418   0.016   4.163   1.236 -0.5133 -0.1745  0.4215
 8413SOL    HW333419   0.077   4.247   1.347 -0.8413  1.8869 -0.9069
 8413SOL    MW433420   0.075   4.221   1.264 -0.2444 -0.0610 -0.3681
 8414SOL     OW33421   2.974   4.547   4.321 -0.1469  0.2736  0.0103
 8414SOL    HW233422   2.982   4.459   4.284 -1.5536  0.3606 -0.5786
 8414SOL    HW333423   2.899   4.542   4.381 -1.1065  1.3357 -1.0169
 8414SOL    MW433424   2.965   4.535   4.324 -0.4591  0.4252 -0.2029
 8415SOL     OW33425   5.948   4.350   1.219 -0.0208 -0.1804  0.3539
 8415SOL    HW233426   5.906   4.276   1.174  1.0320 -1.1201  0.8496
 8415SOL    HW333427   6.007   4.309   1.282 -0.3807  1.1146  1.5693
 8415SOL    MW433428   5.951   4.335   1.221  0.0707 -0.1336  0.5796
 8416SOL     OW33429   3.138   6.372   5.846  0.3003  0.1551  0.0593
 8416SOL    HW233430   3.053   6.413   5.832  1.3760  1.3160 -4.7663
 8416SOL    HW333431   3.122   6.279   5.830 -0.1519  0.2697 -0.1872
 8416SOL    MW433432   3.124   6.365   5.842  0.3826  0.3234 -0.6099
 8417SOL     OW33433   0.786   0.307   0.877 -0.2039 -0.1975 -0.3541
 8417SOL    HW233434   0.835   0.258   0.942  0.5013  1.3367  0.3112
 8417SOL    HW333435   0.795   0.256   0.796 -0.3750 -1.6778  0.5337
 8417SOL    MW433436   0.793   0.294   0.875 -0.1334 -0.1904 -0.1492
 8418SOL     OW33437   0.342   4.083   1.057 -0.0311  0.5305  0.0611
 8418SOL    HW233438   0.303   3.997   1.038  0.3948  0.6484 -1.5108
 8418SOL    HW333439   0.427   4.081   1.013 -0.7756  2.4063 -1.6259
 8418SOL    MW433440   0.348   4.071   1.049 -0.0732  0.7935 -0.3689
 8419SOL     OW33441   0.908   5.421   1.059  1.1413 -0.1616  0.3186
 8419SOL    HW233442   0.945   5.442   0.973  0.3632  0.9127  0.2280
 8419SOL    HW333443   0.975   5.368   1.102  1.7823 -0.2216 -0.7243
 8419SOL    MW433444   0.922   5.416   1.053  1.1232 -0.0278  0.1690
 8420SOL     OW33445   2.413   4.000   0.909 -0.0785 -0.0655  0.6651
 8420SOL    HW233446   2.454   4.038   0.987  0.5257  1.3342 -0.2803
 8420SOL    HW333447   2.329   4.046   0.901  0.6899  1.2291 -0.5297
 8420SOL    MW433448   2.407   4.011   0.918  0.1026  0.2900  0.3827
 8421SOL     OW33449   0.766   5.700   3.588 -0.2369  0.6977 -0.4568
 8421SOL    HW233450   0.784   5.632   3.653 -0.3429  1.2398  0.1518
 8421SOL    HW333451   0.784   5.782   3.633  0.0641  1.0723 -1.2438
 8421SOL    MW433452   0.770   5.702   3.602 -0.2112  0.8186 -0.4804
 8422SOL     OW33453   1.537   0.287   1.346  0.0802 -0.6336 -0.4048
 8422SOL    HW233454   1.510   0.298   1.437 -1.7810 -1.1472 -0.8679
 8422SOL    HW333455   1.557   0.194   1.337  1.3854 -0.3945 -0.2667
 8422SOL    MW433456   1.536   0.276   1.357  0.0068 -0.6698 -0.4477
 8423SOL     OW33457   4.515   0.328   4.221  0.0249 -0.6659  0.0543
 8423SOL    HW233458   4.530   0.238   4.251  0.9666  0.5581  3.7235
 8423SOL    HW333459   4.585   0.343   4.157  1.9303 -1.6190  1.7689
 8423SOL    MW433460   4.526   0.318   4.216  0.4005 -0.6302  0.7646
 8424SOL     OW33461   0.457   4.508   3.368  0.3894 -0.0571 -0.3248
 8424SOL    HW233462   0.521   4.536   3.433 -0.7143  0.1449  0.7174
 8424SOL    HW333463   0.433   4.589   3.322  0.1262  0.0479 -0.0083
 8424SOL    MW433464   0.462   4.523   3.371  0.2090 -0.0166 -0.1455
 8425SOL     OW33465   4.333   4.260   0.439  0.2744  0.1281 -0.4305
 8425SOL    HW233466   4.291   4.214   0.367 -1.2287  0.4837  0.1877
 8425SOL    HW333467   4.262   4.284   0.498  1.5482 -0.9047  1.6416
 8425SOL    MW433468   4.318   4.257   0.437  0.2441  0.0388 -0.0756
 8426SOL     OW33469   2.131   4.867   3.942  0.6527 -0.4970 -0.6358
 8426SOL    HW233470   2.076   4.853   4.019  1.5797  0.3013  0.2055
 8426SOL    HW333471   2.093   4.943   3.899  0.8272 -0.2044 -0.2855
 8426SOL    MW433472   2.119   4.876   3.947  0.7980 -0.3531 -0.4786
 8427SOL     OW33473   3.796   0.145   3.429  0.0164  0.9740  0.1545
 8427SOL    HW233474   3.773   0.084   3.360 -1.0843  0.6389  0.7833
 8427SOL    HW333475   3.849   0.094   3.490 -0.3695  0.8038  0.3569
 8427SOL    MW433476   3.800   0.131   3.428 -0.1798  0.9073  0.2641
 8428SOL     OW33477   1.513   2.617   4.532 -0.0290 -0.8045  0.8333
 8428SOL    HW233478   1.579   2.548   4.542  0.5641 -0.3239  0.2566
 8428SOL    HW333479   1.557   2.697   4.557 -0.2139 -0.3954 -0.1092
 8428SOL    MW433480   1.527   2.618   4.536  0.0248 -0.6871  0.6328
 8429SOL     OW33481   1.190   3.388   2.956 -0.0821 -0.5033  0.1319
 8429SOL    HW233482   1.124   3.321   2.938 -0.4981 -0.3579  1.0546
 8429SOL    HW333483   1.141   3.460   2.997  0.6330 -0.3767  0.7950
 8429SOL    MW433484   1.174   3.389   2.959 -0.0426 -0.4674  0.3411
 8430SOL     OW33485   5.600   4.482   0.899 -0.0210 -0.1345  0.3370
 8430SOL    HW233486   5.507   4.492   0.919 -0.1078  2.9486 -1.0499
 8430SOL    HW333487   5.644   4.521   0.975  0.0624  0.2803  0.0766
 8430SOL    MW433488   5.594   4.489   0.912 -0.0215  0.3270  0.1196
 8431SOL     OW33489   4.106   4.619   4.049  0.3514  0.4318  0.2483
 8431SOL    HW233490   4.097   4.635   3.955  0.5662  1.8656  0.4566
 8431SOL    HW333491   4.114   4.523   4.056  3.2463  0.4231 -1.4701
 8431SOL    MW433492   4.106   4.608   4.038  0.7617  0.6198  0.0490
 8432SOL     OW33493   1.749   5.556   2.545 -0.3246 -0.2799  0.1636
 8432SOL    HW233494   1.730   5.586   2.634  0.6726 -0.6779  0.5242
 8432SOL    HW333495   1.844   5.559   2.539 -0.4254  1.1400 -1.3911
 8432SOL    MW433496   1.759   5.560   2.556 -0.2063 -0.1451  0.0061
 8433SOL     OW33497   5.282   4.103   0.512 -0.4932  0.1878  0.0219
 8433SOL    HW233498   5.343   4.176   0.517 -0.5916  0.2151  1.0028
 8433SOL    HW333499   5.333   4.031   0.474 -0.2555  0.6043 -0.4672
 8433SOL    MW433500   5.297   4.103   0.507 -0.4748  0.2464  0.0868
 8434SOL     OW33501   5.661   5.494   5.971  0.4206  0.5956 -0.0500
 8434SOL    HW233502   5.698   5.437   5.904 -0.0351 -1.7082  1.5367
 8434SOL    HW333503   5.567   5.476   5.970  0.4142  0.4599  1.2233
 8434SOL    MW433504   5.654   5.484   5.962  0.3597  0.2737  0.3273
 8435SOL     OW33505   2.896   0.494   1.612  0.2874 -0.0865 -0.1196
 8435SOL    HW233506   2.822   0.434   1.623 -1.2053  1.8140  0.9343
 8435SOL    HW333507   2.871   0.547   1.536  1.8772 -1.1151 -1.4318
 8435SOL    MW433508   2.883   0.493   1.603  0.3002  0.0285 -0.1537
 8436SOL     OW33509   1.544   6.301   0.187 -0.0653  0.0180 -0.6564
 8436SOL    HW233510   1.493   6.220   0.183  2.0916 -1.4261 -0.7135
 8436SOL    HW333511   1.600   6.290   0.263  1.5366  0.6444 -1.6917
 8436SOL    MW433512   1.544   6.289   0.196  0.4306 -0.0899 -0.8005
 8437SOL     OW33513   6.330   3.458   1.205 -0.3300 -0.2300 -0.2473
 8437SOL    HW233514   6.318   3.459   1.110 -1.9343  1.1598 -0.0657
 8437SOL    HW333515   6.276   3.385   1.236 -0.9042  0.1773 -0.2848
 8437SOL    MW433516   6.322   3.448   1.197 -0.6175  0.0071 -0.2283
 8438SOL     OW33517   6.067   2.611   4.847  0.2364  0.2875  0.6378
 8438SOL    HW233518   6.124   2.639   4.775  0.2346  0.8123  0.8392
 8438SOL    HW333519   6.109   2.644   4.926 -0.7648  1.4363  0.7372
 8438SOL    MW433520   6.080   2.619   4.848  0.1041  0.5083  0.6775
 8439SOL     OW33521   4.979   5.654   1.369  0.0962  0.0774  0.1337
 8439SOL    HW233522   4.988   5.613   1.283  0.2253 -0.1339  0.2487
 8439SOL    HW333523   4.916   5.725   1.355 -0.5924 -0.5317  0.0658
 8439SOL    MW433524   4.972   5.658   1.356  0.0224 -0.0308  0.1399
 8440SOL     OW33525   6.300   2.450   3.488  0.1235  0.1699 -0.2709
 8440SOL    HW233526   6.256   2.446   3.573  0.1774  0.0397 -0.2499
 8440SOL    HW333527   6.282   2.539   3.457 -2.0593 -0.5698 -1.2981
 8440SOL    MW433528   6.292   2.462   3.495 -0.1574  0.0551 -0.4037
 8441SOL     OW33529   1.260   2.233   4.324 -0.4923 -0.1255  0.4455
 8441SOL    HW233530   1.205   2.308   4.346  0.0975  0.3218  0.4152
 8441SOL    HW333531   1.332   2.270   4.272 -1.3248 -1.0062 -1.4029
 8441SOL    MW433532   1.263   2.247   4.320 -0.5243 -0.1827  0.1976
 8442SOL     OW33533   3.778   2.577   1.103  1.0419  0.2378 -0.2984
 8442SOL    HW233534   3.865   2.578   1.064  0.9700 -0.8798 -0.5399
 8442SOL    HW333535   3.732   2.649   1.061  1.8042  0.7519 -0.2669
 8442SOL    MW433536   3.783   2.586   1.092  1.1330  0.1582 -0.3261
 8443SOL     OW33537   0.261   5.260   3.211  0.0678  0.2089 -0.1196
 8443SOL    HW233538   0.193   5.198   3.184  0.0515 -0.3795  1.2002
 8443SOL    HW333539   0.282   5.308   3.131 -1.8729  0.3871 -0.5781
 8443SOL    MW433540   0.254   5.258   3.197 -0.1904  0.1548 -0.0059
 8444SOL     OW33541   0.332   0.354   1.197  0.2592  0.4356  0.2156
 8444SOL    HW233542   0.368   0.330   1.111 -0.0646 -1.6840  0.6291
 8444SOL    HW333543   0.397   0.324   1.260 -0.5817 -0.2094  0.8045
 8444SOL    MW433544   0.345   0.347   1.194  0.1056  0.0709  0.3478
 8445SOL     OW33545   4.672   2.392   4.123 -0.8555 -0.1304  0.3024
 8445SOL    HW233546   4.681   2.351   4.037  1.7379  0.1600  0.3374
 8445SOL    HW333547   4.663   2.485   4.105 -1.6719 -0.1938  0.3413
 8445SOL    MW433548   4.672   2.398   4.109 -0.6210 -0.1005  0.3122
 8446SOL     OW33549   0.369   4.489   2.503 -0.3150  0.5948 -0.3702
 8446SOL    HW233550   0.437   4.422   2.489  0.1851  0.5320  2.0156
 8446SOL    HW333551   0.298   4.442   2.545 -0.3420  1.3688  0.4696
 8446SOL    MW433552   0.369   4.474   2.507 -0.2526  0.6886  0.0554
 8447SOL     OW33553   4.775   3.058   5.523  0.2018  0.0123 -0.1282
 8447SOL    HW233554   4.762   3.036   5.615  3.1722  0.5337  0.5059
 8447SOL    HW333555   4.815   2.981   5.484 -0.7972 -0.1133 -0.9636
 8447SOL    MW433556   4.778   3.045   5.530  0.4619  0.0646 -0.1547
 8448SOL     OW33557   3.642   3.503   1.629  0.5526  0.0065  0.0015
 8448SOL    HW233558   3.658   3.587   1.673 -4.5217  1.8359 -1.0025
 8448SOL    HW333559   3.623   3.527   1.539  0.8859 -2.5292 -0.8085
 8448SOL    MW433560   3.642   3.517   1.623 -0.0729 -0.0867 -0.2379
 8449SOL     OW33561   4.212   0.680   1.303  0.3536  0.4055 -0.0711
 8449SOL    HW233562   4.155   0.607   1.276  0.6821  0.3576 -0.6452
 8449SOL    HW333563   4.296   0.638   1.321  0.3458  0.5467  0.2982
 8449SOL    MW433564   4.216   0.665   1.302  0.3960  0.4178 -0.0981
 8450SOL     OW33565   4.143   1.075   3.365  0.2682  0.3278  0.3567
 8450SOL    HW233566   4.189   1.016   3.304 -1.5576 -1.8545  0.9349
 8450SOL    HW333567   4.175   1.048   3.452 -0.5988  0.1395  0.6275
 8450SOL    MW433568   4.154   1.063   3.369 -0.0871  0.0150  0.4687
 8451SOL     OW33569   5.222   5.301   6.103  0.0258  0.0053 -0.2349
 8451SOL    HW233570   5.153   5.252   6.149 -1.3625  2.6101  0.6684
 8451SOL    HW333571   5.302   5.281   6.152 -0.6502 -0.6064  0.6506
 8451SOL    MW433572   5.223   5.292   6.116 -0.2465  0.2683  0.0011
 8452SOL     OW33573   5.536   3.941   5.609 -0.1918  0.2283 -0.1117
 8452SOL    HW233574   5.481   3.997   5.664 -0.9863 -0.6599  0.0312
 8452SOL    HW333575   5.506   3.852   5.629  0.0936 -0.1613 -1.3470
 8452SOL    MW433576   5.525   3.937   5.619 -0.2590  0.0598 -0.2558
 8453SOL     OW33577   1.467   6.010   4.615 -0.2083 -0.3087 -0.4534
 8453SOL    HW233578   1.484   6.044   4.527  3.9285  0.6942  0.5402
 8453SOL    HW333579   1.506   5.923   4.615 -1.3833 -0.8560  0.0480
 8453SOL    MW433580   1.474   6.003   4.603  0.1825 -0.2486 -0.2561
 8454SOL     OW33581   6.294   6.145   4.402 -0.3951 -0.2546 -0.0196
 8454SOL    HW233582   6.370   6.201   4.412 -0.4556 -0.4856  2.1772
 8454SOL    HW333583   6.230   6.199   4.355  0.2240  0.8317  0.3651
 8454SOL    MW433584   6.295   6.160   4.397 -0.3214 -0.1418  0.3210
 8455SOL     OW33585   3.724   6.106   2.274  0.0309  0.2100 -0.1663
 8455SOL    HW233586   3.707   6.032   2.331  0.4066  1.8263  2.2286
 8455SOL    HW333587   3.660   6.099   2.203  0.7477 -2.8927 -0.6402
 8455SOL    MW433588   3.713   6.096   2.272  0.1750  0.0139  0.0871
 8456SOL     OW33589   5.887   2.336   0.992 -0.0025  0.0444  0.1552
 8456SOL    HW233590   5.952   2.376   0.935  0.9542 -1.2266  0.3170
 8456SOL    HW333591   5.828   2.290   0.931  0.3775 -0.4051  0.1274
 8456SOL    MW433592   5.888   2.335   0.976  0.1739 -0.1826  0.1729
 8457SOL     OW33593   0.603   3.729   3.067  0.6743 -1.0497  0.1245
 8457SOL    HW233594   0.533   3.697   3.010  1.1121 -0.8280 -0.5544
 8457SOL    HW333595   0.558   3.755   3.147 -0.2590  0.4802 -0.8302
 8457SOL    MW433596   0.588   3.728   3.070  0.6090 -0.8186 -0.0910
 8458SOL     OW33597   2.060   2.419   0.265 -0.3500 -0.1711 -0.3494
 8458SOL    HW233598   2.138   2.432   0.211 -1.2454  0.5698 -1.5419
 8458SOL    HW333599   2.088   2.362   0.336  0.9547 -0.9927 -1.4741
 8458SOL    MW433600   2.074   2.413   0.267 -0.2960 -0.1817 -0.6551
 8459SOL     OW33601   2.920   4.189   3.766 -0.4494 -0.4693 -0.1766
 8459SOL    HW233602   2.963   4.173   3.682 -0.0883  0.1751 -0.1189
 8459SOL    HW333603   2.874   4.272   3.754 -0.5788 -0.4848  0.1975
 8459SOL    MW433604   2.919   4.198   3.753 -0.4188 -0.3863 -0.1197
 8460SOL     OW33605   6.261   2.273   5.040 -0.3375 -0.1597  0.1690
 8460SOL    HW233606   6.255   2.181   5.069 -0.2145  0.3639  2.0165
 8460SOL    HW333607   6.355   2.289   5.033 -0.3689 -0.2779 -0.4966
 8460SOL    MW433608   6.273   2.263   5.043 -0.3254 -0.1062  0.3249
 8461SOL     OW33609   1.406   4.703   6.042 -0.3109 -0.1808  0.0758
 8461SOL    HW233610   1.357   4.714   6.123 -2.2310  1.1897 -1.1897
 8461SOL    HW333611   1.449   4.617   6.051 -2.0940 -0.9640  1.6951
 8461SOL    MW433612   1.406   4.693   6.054 -0.7995 -0.1033  0.1225
 8462SOL     OW33613   3.412   2.843   1.979 -0.3144  0.2905  0.1994
 8462SOL    HW233614   3.391   2.914   1.918 -0.2008  0.4338  0.3272
 8462SOL    HW333615   3.439   2.888   2.059 -0.7091  0.1029  0.4402
 8462SOL    MW433616   3.412   2.859   1.982 -0.3515  0.2847  0.2480
 8463SOL     OW33617   2.313   3.178   5.738  0.8428 -0.4497  0.4250
 8463SOL    HW233618   2.351   3.251   5.690 -0.3729 -0.5476 -0.7314
 8463SOL    HW333619   2.281   3.217   5.820 -1.8285  0.8610 -1.1184
 8463SOL    MW433620   2.314   3.193   5.743  0.3299 -0.2897  0.0688
 8464SOL     OW33621   3.750   6.052   0.473 -1.0688  0.3911 -0.2454
 8464SOL    HW233622   3.766   6.117   0.541 -1.2617 -1.0002  1.1806
 8464SOL    HW333623   3.831   6.051   0.421 -1.2970  2.1774 -0.6860
 8464SOL    MW433624   3.763   6.060   0.475 -1.1243  0.4432 -0.1154
 8465SOL     OW33625   4.414   2.097   4.691  0.0643 -0.4340 -0.2667
 8465SOL    HW233626   4.477   2.164   4.713 -1.9122  1.4774 -0.1093
 8465SOL    HW333627   4.396   2.109   4.598 -1.5582  0.4479  0.1223
 8465SOL    MW433628   4.420   2.107   4.681 -0.4105 -0.0655 -0.1946
 8466SOL     OW33629   5.447   4.835   1.148 -0.2081  0.0084  0.2064
 8466SOL    HW233630   5.379   4.864   1.088  0.2111 -1.6792 -1.1651
 8466SOL    HW333631   5.418   4.864   1.234 -2.8744 -1.0016 -0.2806
 8466SOL    MW433632   5.434   4.842   1.152 -0.5045 -0.3475 -0.0388
 8467SOL     OW33633   2.369   4.826   2.079  0.4458 -0.4190 -0.3489
 8467SOL    HW233634   2.437   4.871   2.030 -0.4045  0.8413 -0.4133
 8467SOL    HW333635   2.295   4.822   2.018  0.4689 -1.8343 -0.3085
 8467SOL    MW433636   2.368   4.831   2.064  0.3366 -0.4394 -0.3521
 8468SOL     OW33637   0.362   5.920   5.385 -0.1750  0.3259  0.3136
 8468SOL    HW233638   0.290   5.907   5.447 -0.5497  0.0454 -0.1769
 8468SOL    HW333639   0.387   5.832   5.359 -0.1765  0.4501 -0.1118
 8468SOL    MW433640   0.356   5.907   5.390 -0.2246  0.3053  0.1927
 8469SOL     OW33641   4.724   3.227   0.803  0.1915  0.2774  0.1710
 8469SOL    HW233642   4.680   3.239   0.719 -0.6234 -1.6502  0.2643
 8469SOL    HW333643   4.682   3.149   0.841  2.2520 -0.3856  1.2310
 8469SOL    MW433644   4.713   3.218   0.797  0.3559 -0.0644  0.3232
 8470SOL     OW33645   5.049   5.124   6.223 -0.6447 -0.0436 -0.1181
 8470SOL    HW233646   4.955   5.113   6.231 -0.5429 -1.1252 -0.2596
 8470SOL    HW333647   5.076   5.163   6.306 -1.2121  0.2235 -0.0586
 8470SOL    MW433648   5.040   5.127   6.235 -0.7061 -0.1510 -0.1289
 8471SOL     OW33649   1.839   1.062   4.536 -0.0869 -0.0467  0.3926
 8471SOL    HW233650   1.856   1.095   4.624 -0.3057 -0.3286  0.5421
 8471SOL    HW333651   1.918   1.012   4.514 -0.5988 -1.1426  0.9852
 8471SOL    MW433652   1.852   1.060   4.545 -0.1833 -0.2285  0.4905
 8472SOL     OW33653   2.354   0.995   6.375 -0.2053 -0.0536 -0.0253
 8472SOL    HW233654   2.381   0.924   6.317 -1.1736 -1.6437  1.3866
 8472SOL    HW333655   2.406   0.983   6.454  0.7197  1.7802 -0.2793
 8472SOL    MW433656   2.365   0.984   6.377 -0.2110 -0.0214  0.1274
 8473SOL     OW33657   4.528   5.934   2.582 -0.2267 -0.1216  1.0396
 8473SOL    HW233658   4.506   5.875   2.510  3.9134  0.8051 -1.2613
 8473SOL    HW333659   4.502   6.021   2.551  1.0105  0.2087  0.8934
 8473SOL    MW433660   4.522   5.938   2.568  0.4828  0.0442  0.7167
 8474SOL     OW33661   0.488   3.951   2.028 -0.0965 -0.1096 -0.2908
 8474SOL    HW233662   0.490   3.866   2.072  0.2281 -0.6327 -1.2851
 8474SOL    HW333663   0.572   3.990   2.048 -0.0529 -0.2329 -0.2319
 8474SOL    MW433664   0.499   3.945   2.037 -0.0479 -0.1949 -0.4142
 8475SOL     OW33665   0.572   5.247   5.840 -0.1344 -0.4050 -0.0585
 8475SOL    HW233666   0.580   5.291   5.924  1.1633  0.2203 -0.4797
 8475SOL    HW333667   0.654   5.199   5.830 -0.5245 -0.9655 -0.7029
 8475SOL    MW433668   0.584   5.246   5.850 -0.0147 -0.3964 -0.1991
 8476SOL     OW33669   3.681   4.346   6.240 -0.1911  0.0461  0.0484
 8476SOL    HW233670   3.681   4.388   6.326  1.4059 -1.3426  0.7928
 8476SOL    HW333671   3.768   4.364   6.204 -0.5563 -0.0799 -0.9397
 8476SOL    MW433672   3.693   4.354   6.246 -0.0286 -0.1537  0.0162
 8477SOL     OW33673   3.435   4.505   4.753 -0.1032  0.3380 -0.5048
 8477SOL    HW233674   3.349   4.492   4.713 -0.2413 -1.3242  0.2757
 8477SOL    HW333675   3.426   4.586   4.804 -1.0616  0.4145 -0.7788
 8477SOL    MW433676   3.422   4.514   4.754 -0.2479  0.1288 -0.4380
 8478SOL     OW33677   3.912   4.271   0.285  0.1746 -0.4345  0.0989
 8478SOL    HW233678   3.841   4.242   0.344 -0.2194  0.1850 -0.0596
 8478SOL    HW333679   3.896   4.365   0.273  1.4674 -0.1197  0.6604
 8478SOL    MW433680   3.900   4.280   0.291  0.2932 -0.3112  0.1521
 8479SOL     OW33681   1.654   2.315   6.123  0.6158 -0.3994  0.2172
 8479SOL    HW233682   1.748   2.328   6.137  0.3601  0.5910  1.0834
 8479SOL    HW333683   1.641   2.329   6.030  1.3106 -0.4266  0.1135
 8479SOL    MW433684   1.665   2.318   6.113  0.6737 -0.2723  0.3178
 8480SOL     OW33685   4.301   4.083   3.175  0.2951 -0.1567  0.1152
 8480SOL    HW233686   4.292   4.145   3.103  1.3397 -2.3877 -2.0499
 8480SOL    HW333687   4.390   4.097   3.208  0.4757 -0.3902 -0.2701
 8480SOL    MW433688   4.312   4.093   3.170  0.4567 -0.4819 -0.2213
 8481SOL     OW33689   0.497   0.717   4.184 -0.5256 -0.5525 -0.3323
 8481SOL    HW233690   0.465   0.767   4.109  1.0301  0.8060 -0.1629
 8481SOL    HW333691   0.574   0.671   4.150  0.9892  1.1089  0.6804
 8481SOL    MW433692   0.503   0.717   4.170 -0.1205 -0.1541 -0.1764
 8482SOL     OW33693   2.526   3.738   3.607 -0.1115  0.1124 -0.5305
 8482SOL    HW233694   2.605   3.790   3.624 -0.5590 -0.1354  2.9912
 8482SOL    HW333695   2.467   3.798   3.561  0.8050  1.4403 -0.0350
 8482SOL    MW433696   2.529   3.753   3.603 -0.0496  0.2549 -0.0005
 8483SOL     OW33697   2.739   2.989   0.105 -0.0111  0.1870 -0.3882
 8483SOL    HW233698   2.732   2.960   0.015 -1.8769  0.1415 -0.2608
 8483SOL    HW333699   2.744   3.084   0.100 -2.7455  0.3806 -0.4829
 8483SOL    MW433700   2.739   2.998   0.093 -0.6181  0.2065 -0.3839
 8484SOL     OW33701   4.880   0.824   5.384  0.0087  0.7141  0.2331
 8484SOL    HW233702   4.847   0.831   5.474 -0.3160  1.6754  0.0504
 8484SOL    HW333703   4.807   0.787   5.335  0.0443  0.5730  0.2854
 8484SOL    MW433704   4.866   0.820   5.389 -0.0295  0.8223  0.2159
 8485SOL     OW33705   6.011   6.333   0.087  0.0933 -0.2085  0.3610
 8485SOL    HW233706   5.985   6.385   0.163  0.4586 -0.7786  0.8875
 8485SOL    HW333707   6.101   6.361   0.069  0.4435 -0.9318  0.9074
 8485SOL    MW433708   6.019   6.344   0.095  0.1877 -0.3792  0.5026
 8486SOL     OW33709   1.874   1.230   4.166 -0.4437  0.2116 -0.3431
 8486SOL    HW233710   1.953   1.182   4.189  0.1474  1.0586 -0.5590
 8486SOL    HW333711   1.829   1.244   4.249  0.7670  1.6703  0.1040
 8486SOL    MW433712   1.879   1.226   4.180 -0.2060  0.5158 -0.3126
 8487SOL     OW33713   1.807   4.000   3.335  0.8302 -0.5352 -0.6917
 8487SOL    HW233714   1.714   4.001   3.311  1.3213  0.2270 -2.7742
 8487SOL    HW333715   1.821   3.912   3.370 -0.4714 -0.9757 -1.2029
 8487SOL    MW433716   1.797   3.988   3.336  0.7233 -0.4927 -1.0339
 8488SOL     OW33717   1.530   2.765   0.869 -0.0169 -0.3726  0.2647
 8488SOL    HW233718   1.596   2.788   0.935 -0.0920  1.0147 -0.1164
 8488SOL    HW333719   1.525   2.842   0.812 -2.6234 -0.0490  0.8163
 8488SOL    MW433720   1.538   2.778   0.870 -0.3707 -0.1469  0.2872
 8489SOL     OW33721   3.709   3.796   4.583 -0.8011 -0.2273  0.1034
 8489SOL    HW233722   3.654   3.726   4.548 -1.6004  0.2292  0.4062
 8489SOL    HW333723   3.647   3.856   4.625 -0.2982  1.3348 -1.2854
 8489SOL    MW433724   3.694   3.795   4.584 -0.8402  0.0390 -0.0399
 8490SOL     OW33725   5.602   1.874   4.937  0.0001  0.2681 -0.2832
 8490SOL    HW233726   5.678   1.870   4.879 -0.0761  0.8353 -0.4282
 8490SOL    HW333727   5.596   1.966   4.962 -1.1691  0.4045 -0.9843
 8490SOL    MW433728   5.611   1.886   4.932 -0.1642  0.3609 -0.3949
 8491SOL     OW33729   4.100   0.546   0.403 -0.0671 -0.8014  0.1907
 8491SOL    HW233730   4.102   0.477   0.469 -0.5630  1.4340  2.7404
 8491SOL    HW333731   4.178   0.531   0.350 -1.1045 -4.3074 -0.5917
 8491SOL    MW433732   4.111   0.535   0.405 -0.2694 -0.9691  0.4239
 8492SOL     OW33733   3.320   4.539   6.161 -0.2182  0.2268 -0.2463
 8492SOL    HW233734   3.285   4.451   6.146  1.8643 -0.4488 -1.5842
 8492SOL    HW333735   3.299   4.587   6.080 -0.6513  0.7483  0.1629
 8492SOL    MW433736   3.312   4.534   6.148 -0.0006  0.2065 -0.3689
 8493SOL     OW33737   3.236   4.326   1.661 -0.0985 -0.1650 -0.4618
 8493SOL    HW233738   3.218   4.306   1.569  1.9260 -0.7496 -0.7900
 8493SOL    HW333739   3.269   4.243   1.696  0.7275  0.5010  0.3532
 8493SOL    MW433740   3.238   4.312   1.653  0.2776 -0.1543 -0.3975
 8494SOL     OW33741   3.391   0.217   4.301 -0.0585  0.4600 -0.2140
 8494SOL    HW233742   3.330   0.176   4.363 -0.0885  0.5467 -0.1873
 8494SOL    HW333743   3.395   0.308   4.328 -0.5781  0.6486 -0.7449
 8494SOL    MW433744   3.383   0.223   4.313 -0.1310  0.4963 -0.2805
 8495SOL     OW33745   6.075   1.936   2.963  0.4511 -0.2800  0.1819
 8495SOL    HW233746   6.138   1.902   3.026  1.5681 -1.4636 -1.4900
 8495SOL    HW333747   6.124   2.002   2.913  0.1740 -0.7015 -0.6702
 8495SOL    MW433748   6.090   1.940   2.964  0.5619 -0.4918 -0.1511
 8496SOL     OW33749   3.558   0.059   4.476  0.2753  0.1698  0.3726
 8496SOL    HW233750   3.514   0.094   4.398  3.2393  0.3774 -1.3590
 8496SOL    HW333751   3.543   0.125   4.543 -3.2418 -0.4912  0.4549
 8496SOL    MW433752   3.550   0.072   4.475  0.2023  0.1100  0.1550
 8497SOL     OW33753   3.947   0.391   3.437  0.7715  0.3308 -0.9257
 8497SOL    HW233754   3.916   0.431   3.356  0.2552 -1.4444 -1.6639
 8497SOL    HW333755   3.888   0.316   3.450  0.6594  0.7175  1.2533
 8497SOL    MW433756   3.935   0.386   3.428  0.6886  0.1476 -0.7356
 8498SOL     OW33757   1.830   4.838   3.695 -0.0630  0.5229 -0.6585
 8498SOL    HW233758   1.901   4.775   3.708 -0.1298  0.1670 -1.8565
 8498SOL    HW333759   1.789   4.847   3.781  0.2167 -0.7417 -0.3742
 8498SOL    MW433760   1.834   4.831   3.708 -0.0349  0.3091 -0.7790
 8499SOL     OW33761   4.715   2.873   1.415 -1.2153 -0.2497 -0.4555
 8499SOL    HW233762   4.685   2.928   1.342 -0.3948 -0.0710 -0.6756
 8499SOL    HW333763   4.790   2.825   1.379 -0.0280  0.7442  0.6078
 8499SOL    MW433764   4.721   2.874   1.401 -0.9504 -0.0950 -0.3443
 8500SOL     OW33765   4.382   1.401   3.603 -0.5204  0.3108  0.0109
 8500SOL    HW233766   4.367   1.495   3.593  0.2910  0.3411 -1.1659
 8500SOL    HW333767   4.355   1.382   3.692 -1.0780  1.5861  0.1386
 8500SOL    MW433768   4.377   1.411   3.613 -0.4869  0.4830 -0.1275
 8501SOL     OW33769   2.551   6.389   5.517  0.1264 -0.3052  0.0448
 8501SOL    HW233770   2.568   6.448   5.444 -0.9925  0.7089  0.5667
 8501SOL    HW333771   2.485   6.329   5.485  0.5320 -0.6416 -0.1651
 8501SOL    MW433772   2.544   6.389   5.503  0.0323 -0.2158  0.0860
 8502SOL     OW33773   2.287   1.248   5.740  0.1249  0.0979 -0.1039
 8502SOL    HW233774   2.337   1.199   5.674 -1.2288 -0.8960 -0.4347
 8502SOL    HW333775   2.214   1.190   5.762  0.7204  0.2209  2.5812
 8502SOL    MW433776   2.284   1.234   5.734  0.0249 -0.0170  0.2067
 8503SOL     OW33777   2.943   4.595   0.487 -0.0731  0.1985  0.4938
 8503SOL    HW233778   2.879   4.526   0.501 -0.7630  0.6117 -0.5026
 8503SOL    HW333779   3.025   4.549   0.469  0.0700 -0.3347  2.3341
 8503SOL    MW433780   2.945   4.580   0.486 -0.1452  0.1826  0.6052
 8504SOL     OW33781   4.389   2.609   3.078  0.3204 -0.1847  0.6404
 8504SOL    HW233782   4.339   2.619   3.160 -1.2776 -0.4239 -0.2685
 8504SOL    HW333783   4.326   2.573   3.016  1.5345 -0.0855 -0.6897
 8504SOL    MW433784   4.374   2.606   3.081  0.2697 -0.2032  0.3450
 8505SOL     OW33785   3.152   5.028   3.912  0.1814 -0.0241 -0.0544
 8505SOL    HW233786   3.091   5.101   3.915  0.1211 -0.0462 -0.7645
 8505SOL    HW333787   3.097   4.950   3.920  0.0816 -0.0548 -0.9411
 8505SOL    MW433788   3.137   5.027   3.914  0.1603 -0.0311 -0.2651
 8506SOL     OW33789   1.726   5.802   3.691 -0.1754 -0.4149 -0.3192
 8506SOL    HW233790   1.750   5.734   3.628  1.8686 -1.2460  1.2478
 8506SOL    HW333791   1.758   5.883   3.651  1.2332 -0.9486 -0.3288
 8506SOL    MW433792   1.733   5.804   3.677  0.2801 -0.5950 -0.1137
 8507SOL     OW33793   4.260   2.592   1.600  0.0162  0.4146  0.0269
 8507SOL    HW233794   4.190   2.629   1.654 -0.3010 -0.4677  0.2370
 8507SOL    HW333795   4.216   2.561   1.521 -0.2534 -2.1423  1.0755
 8507SOL    MW433796   4.245   2.592   1.597 -0.0612 -0.0392  0.1930
 8508SOL     OW33797   5.881   4.805   4.872  0.2956 -0.0264 -0.2858
 8508SOL    HW233798   5.910   4.791   4.782 -0.8721  1.0710 -0.8612
 8508SOL    HW333799   5.940   4.873   4.905 -0.5645  1.0717 -0.9350
 8508SOL    MW433800   5.893   4.812   4.864  0.0280  0.2632 -0.4473
 8509SOL     OW33801   3.818   4.498   4.925  0.4151  0.0581  0.2100
 8509SOL    HW233802   3.793   4.428   4.986  0.5282 -0.2205 -0.0626
 8509SOL    HW333803   3.912   4.508   4.937  0.2455  0.8601  0.9752
 8509SOL    MW433804   3.827   4.490   4.935  0.4076  0.1271  0.2750
 8510SOL     OW33805   0.881   5.477   5.893 -0.2025 -0.3171  0.5344
 8510SOL    HW233806   0.869   5.490   5.799 -0.4654 -0.2404  0.5769
 8510SOL    HW333807   0.967   5.514   5.913 -0.7757  1.0340  0.5922
 8510SOL    MW433808   0.890   5.483   5.883 -0.3128 -0.1287  0.5476
 8511SOL     OW33809   4.681   3.761   2.053 -0.1496 -0.0645 -0.1081
 8511SOL    HW233810   4.588   3.741   2.038 -0.2559  1.3788 -1.6610
 8511SOL    HW333811   4.721   3.753   1.966  1.0294  0.0798  0.4133
 8511SOL    MW433812   4.674   3.757   2.039 -0.0081  0.1450 -0.2442
 8512SOL     OW33813   0.342   4.922   5.068 -0.6733  0.4683  0.3155
 8512SOL    HW233814   0.405   4.877   5.124  0.4890  2.0702  0.4040
 8512SOL    HW333815   0.386   5.004   5.045 -1.9782  0.7940 -1.2134
 8512SOL    MW433816   0.356   4.927   5.072 -0.6921  0.7226  0.1254
 8513SOL     OW33817   2.095   2.184   2.540 -0.2790 -0.4222 -0.2642
 8513SOL    HW233818   2.059   2.114   2.486  2.2530  0.0920 -2.7901
 8513SOL    HW333819   2.186   2.159   2.556 -0.0791  0.9978  1.1623
 8513SOL    MW433820   2.102   2.171   2.535  0.0815 -0.1670 -0.4093
 8514SOL     OW33821   1.513   3.615   1.743  0.1352 -0.1187  0.0004
 8514SOL    HW233822   1.459   3.694   1.737 -1.9437 -1.3587  1.1118
 8514SOL    HW333823   1.548   3.617   1.832  0.2331 -0.3611 -0.0310
 8514SOL    MW433824   1.511   3.626   1.754 -0.1262 -0.3143  0.1429
 8515SOL     OW33825   4.289   4.395   0.834  0.6315 -0.2658  0.0212
 8515SOL    HW233826   4.215   4.347   0.872  0.9063 -1.4178 -0.8491
 8515SOL    HW333827   4.292   4.477   0.884 -0.6203 -0.6116  0.7210
 8515SOL    MW433828   4.279   4.400   0.846  0.5026 -0.4634 -0.0013
 8516SOL     OW33829   6.234   4.885   2.390  0.1214  0.7132 -0.0835
 8516SOL    HW233830   6.318   4.875   2.434 -0.4840  1.1047  1.1996
 8516SOL    HW333831   6.251   4.951   2.322  1.0641  0.0962 -0.4752
 8516SOL    MW433832   6.247   4.893   2.387  0.1659  0.6835  0.0341
 8517SOL     OW33833   2.264   2.106   3.569 -0.3365  0.2178  0.8919
 8517SOL    HW233834   2.336   2.163   3.596  1.4059 -0.5476 -1.6741
 8517SOL    HW333835   2.280   2.024   3.615 -0.0719  0.3224  0.9913
 8517SOL    MW433836   2.275   2.103   3.578 -0.0717  0.1306  0.5664
 8518SOL     OW33837   2.573   1.393   2.184 -0.1339  0.4030 -0.3442
 8518SOL    HW233838   2.616   1.465   2.139 -3.1332  0.5867 -3.2791
 8518SOL    HW333839   2.636   1.321   2.178  0.8264  1.3131 -2.1867
 8518SOL    MW433840   2.587   1.393   2.177 -0.4029  0.5473 -0.9745
 8519SOL     OW33841   6.361   3.765   0.092  0.2577  0.0662  0.7528
 8519SOL    HW233842   6.301   3.824   0.138  0.7461  2.3225 -1.2849
 8519SOL    HW333843   6.308   3.688   0.072 -1.6656  1.4668  0.0860
 8519SOL    MW433844   6.346   3.763   0.096  0.0684  0.5487  0.3960
 8520SOL     OW33845   6.187   5.852   3.245 -0.0478  0.4692  0.3240
 8520SOL    HW233846   6.184   5.944   3.272  1.8064  0.5094  0.5299
 8520SOL    HW333847   6.230   5.854   3.159 -0.5678 -0.1506  0.0448
 8520SOL    MW433848   6.193   5.864   3.237  0.1282  0.3927  0.3143
 8521SOL     OW33849   5.436   6.413   1.425  0.1956  0.4361  0.1137
 8521SOL    HW233850   5.452   6.343   1.362  2.7895  0.7046  0.3590
 8521SOL    HW333851   5.424   6.492   1.372 -1.3547  0.0608 -0.1191
 8521SOL    MW433852   5.437   6.415   1.410  0.3333  0.4220  0.1154
 8522SOL     OW33853   2.278   1.841   4.783 -0.1196  0.2182 -0.1621
 8522SOL    HW233854   2.260   1.935   4.779 -1.5331 -0.0553 -0.7040
 8522SOL    HW333855   2.290   1.822   4.876 -2.4498  0.4978  0.2462
 8522SOL    MW433856   2.277   1.851   4.794 -0.6135  0.2190 -0.1797
 8523SOL     OW33857   3.576   1.127   3.284 -0.2777 -0.1108  0.1726
 8523SOL    HW233858   3.517   1.159   3.352 -0.0044  0.8380 -0.0226
 8523SOL    HW333859   3.549   1.036   3.270 -3.0100  0.7901 -1.2489
 8523SOL    MW433860   3.565   1.120   3.291 -0.6021  0.1333 -0.0407
 8524SOL     OW33861   0.248   1.472   5.522 -0.0925 -0.3335  0.1479
 8524SOL    HW233862   0.291   1.439   5.601 -1.4022  0.5027  1.2586
 8524SOL    HW333863   0.157   1.484   5.548 -0.4264  0.5750 -1.3239
 8524SOL    MW433864   0.241   1.469   5.536 -0.3094 -0.1033  0.1002
 8525SOL     OW33865   3.966   3.690   2.707  0.2290 -0.2374 -0.5387
 8525SOL    HW233866   4.046   3.643   2.683 -0.0313 -0.9759  0.0150
 8525SOL    HW333867   3.995   3.756   2.770  0.4468 -0.2994 -0.5720
 8525SOL    MW433868   3.980   3.693   2.712  0.2234 -0.3430 -0.4700
 8526SOL     OW33869   3.253   1.154   5.119 -0.1017  0.4999 -0.0147
 8526SOL    HW233870   3.288   1.130   5.033  0.3134  0.0371  0.2789
 8526SOL    HW333871   3.321   1.211   5.157  0.6003 -0.8038  0.7612
 8526SOL    MW433872   3.267   1.159   5.113  0.0457  0.2668  0.1264
 8527SOL     OW33873   3.392   3.178   0.565  0.4746 -0.0732 -0.0855
 8527SOL    HW233874   3.462   3.233   0.600 -0.6054  1.4849 -0.2519
 8527SOL    HW333875   3.313   3.210   0.609 -0.3154 -0.9628 -0.8126
 8527SOL    MW433876   3.391   3.189   0.575  0.2279  0.0150 -0.2034
 8528SOL     OW33877   4.810   2.260   2.305  0.1787  0.5863  0.1884
 8528SOL    HW233878   4.715   2.250   2.312 -0.0363  0.3125 -2.0810
 8528SOL    HW333879   4.821   2.339   2.252  1.2892  1.3940  1.5829
 8528SOL    MW433880   4.799   2.269   2.299  0.2968  0.6567  0.0729
 8529SOL     OW33881   4.118   2.861   4.634 -0.0879 -0.3418  0.7430
 8529SOL    HW233882   4.114   2.951   4.603 -0.0735 -0.4118  0.5348
 8529SOL    HW333883   4.033   2.847   4.677  0.1554 -0.0347  1.3259
 8529SOL    MW433884   4.106   2.871   4.635 -0.0539 -0.3105  0.7924
 8530SOL     OW33885   3.506   0.618   5.633  0.0234  0.1247 -0.2418
 8530SOL    HW233886   3.485   0.679   5.562 -1.2852 -2.4694 -2.2829
 8530SOL    HW333887   3.439   0.635   5.699 -0.6583  0.5596 -1.0173
 8530SOL    MW433888   3.494   0.628   5.632 -0.2392 -0.1602 -0.6134
 8531SOL     OW33889   2.013   2.959   3.020 -0.1034  0.5181 -0.2813
 8531SOL    HW233890   1.960   2.893   2.976  1.3093  0.2652 -1.6664
 8531SOL    HW333891   2.096   2.915   3.039  0.8433  1.8518 -1.1735
 8531SOL    MW433892   2.017   2.944   3.017  0.2079  0.6607 -0.5818
 8532SOL     OW33893   4.760   0.940   5.621 -0.2516  0.7074 -0.1552
 8532SOL    HW233894   4.727   1.029   5.606 -0.6053  0.9151  1.5624
 8532SOL    HW333895   4.792   0.942   5.711 -1.5286 -1.2651  0.4145
 8532SOL    MW433896   4.760   0.952   5.631 -0.4667  0.4745  0.1466
 8533SOL     OW33897   0.416   0.303   0.936  0.1168  0.4282 -0.3345
 8533SOL    HW233898   0.472   0.232   0.903 -1.8368 -1.8969  1.0221
 8533SOL    HW333899   0.476   0.376   0.950  2.9573 -1.9854  1.3564
 8533SOL    MW433900   0.432   0.303   0.933  0.2338 -0.1970  0.0676
 8534SOL     OW33901   5.892   2.186   0.362 -0.0375  0.3534  0.0590
 8534SOL    HW233902   5.866   2.100   0.396 -3.1028  0.4107 -1.7813
 8534SOL    HW333903   5.903   2.240   0.440  2.0970 -1.6618  1.2721
 8534SOL    MW433904   5.890   2.181   0.377 -0.1603  0.0951 -0.0238
 8535SOL     OW33905   3.367   2.440   1.028 -0.5218  0.4284  0.3424
 8535SOL    HW233906   3.369   2.400   0.942  0.6249 -0.6776  0.8688
 8535SOL    HW333907   3.443   2.404   1.074 -0.6587  1.6012  1.5484
 8535SOL    MW433908   3.377   2.430   1.023 -0.3886  0.4372  0.5710
 8536SOL     OW33909   6.345   0.409   5.249 -0.4955 -0.6561  0.0354
 8536SOL    HW233910   6.266   0.355   5.247 -1.1494  0.2790  0.2793
 8536SOL    HW333911   6.314   0.499   5.238  0.1563  0.1325  3.5118
 8536SOL    MW433912   6.331   0.414   5.247 -0.4958 -0.4287  0.5262
 8537SOL     OW33913   4.354   6.084   0.504  0.1102 -0.1686  0.0167
 8537SOL    HW233914   4.413   6.105   0.576 -2.1946  0.5246  1.8319
 8537SOL    HW333915   4.365   6.157   0.443  2.8554 -1.2777 -0.9754
 8537SOL    MW433916   4.363   6.096   0.505  0.1683 -0.2234  0.1253
 8538SOL     OW33917   5.826   2.689   4.407 -0.2380 -0.2408 -0.6186
 8538SOL    HW233918   5.909   2.734   4.418 -0.7033  0.4510  0.2062
 8538SOL    HW333919   5.760   2.752   4.438 -0.8720 -1.6159  0.9893
 8538SOL    MW433920   5.828   2.703   4.413 -0.3831 -0.3310 -0.2976
 8539SOL     OW33921   1.324   6.208   5.682 -0.5903 -0.1737 -0.1499
 8539SOL    HW233922   1.415   6.188   5.660  0.0218  0.5864  1.4679
 8539SOL    HW333923   1.300   6.281   5.625 -0.4275 -0.8348 -1.0674
 8539SOL    MW433924   1.333   6.215   5.672 -0.4881 -0.1606 -0.0575
 8540SOL     OW33925   6.219   3.637   3.106  0.1717 -0.0031 -0.1255
 8540SOL    HW233926   6.312   3.652   3.087 -0.1490 -0.8241 -2.9154
 8540SOL    HW333927   6.173   3.691   3.042 -1.2070 -1.2508 -0.2298
 8540SOL    MW433928   6.226   3.646   3.095 -0.0525 -0.2760 -0.5073
 8541SOL     OW33929   5.922   4.902   1.498  0.2413  0.3054  0.5691
 8541SOL    HW233930   5.992   4.966   1.495  0.4695  0.0197 -0.7835
 8541SOL    HW333931   5.946   4.837   1.432 -1.2664  0.1965  0.0784
 8541SOL    MW433932   5.934   4.902   1.489  0.0725  0.2533  0.3259
 8542SOL     OW33933   6.118   2.180   6.090 -0.4118 -0.5410 -0.0770
 8542SOL    HW233934   6.098   2.164   6.182 -0.9652  1.3814  0.1944
 8542SOL    HW333935   6.035   2.164   6.045 -0.7331  0.5380  0.0836
 8542SOL    MW433936   6.104   2.176   6.096 -0.5272 -0.1450 -0.0200
 8543SOL     OW33937   1.377   5.410   1.719  0.2660 -0.5509 -0.8343
 8543SOL    HW233938   1.357   5.317   1.730  0.4429 -0.3155  2.2810
 8543SOL    HW333939   1.292   5.453   1.728  0.4428 -0.2957 -0.4097
 8543SOL    MW433940   1.363   5.403   1.721  0.3127 -0.4862 -0.3672
 8544SOL     OW33941   6.039   0.133   1.320  0.6815  0.2185  0.1579
 8544SOL    HW233942   6.120   0.128   1.372  0.2013  1.2107  1.0502
 8544SOL    HW333943   5.982   0.067   1.357  0.7140  0.2227  0.2160
 8544SOL    MW433944   6.042   0.124   1.331  0.6224  0.3500  0.2833
 8545SOL     OW33945   2.541   2.668   5.427 -0.4617  0.3084  0.7281
 8545SOL    HW233946   2.560   2.721   5.505  2.3769  0.9184 -0.2582
 8545SOL    HW333947   2.547   2.577   5.458  1.4317  0.5303  1.1346
 8545SOL    MW433948   2.545   2.663   5.441  0.1626  0.4182  0.6516
 8546SOL     OW33949   2.577   3.214   4.858 -0.1527  0.1385 -0.1906
 8546SOL    HW233950   2.508   3.152   4.881 -1.9308  3.0166  3.3463
 8546SOL    HW333951   2.550   3.252   4.775  0.1591 -2.4924 -1.6037
 8546SOL    MW433952   2.564   3.211   4.850 -0.3462  0.1711  0.0896
 8547SOL     OW33953   2.770   1.759   3.933  0.1855  0.1012  0.5125
 8547SOL    HW233954   2.725   1.843   3.921  0.0338 -0.1657 -1.0714
 8547SOL    HW333955   2.789   1.755   4.026  0.2283  1.9188  0.6214
 8547SOL    MW433956   2.767   1.770   3.944  0.1712  0.3058  0.3179
 8548SOL     OW33957   4.244   5.966   1.036  0.7346 -0.1422  0.0361
 8548SOL    HW233958   4.261   5.969   0.942  1.2491  0.6594  0.1522
 8548SOL    HW333959   4.198   5.883   1.049 -0.2203  0.1882 -1.0642
 8548SOL    MW433960   4.240   5.955   1.025  0.6765  0.0072 -0.0937
 8549SOL     OW33961   4.373   5.569   2.993 -0.1022  0.3420 -0.2960
 8549SOL    HW233962   4.338   5.485   2.962 -1.3787  0.6247  0.3253
 8549SOL    HW333963   4.381   5.622   2.914  0.0719 -0.1356 -0.6031
 8549SOL    MW433964   4.370   5.565   2.978 -0.2476  0.3162 -0.2545
 8550SOL     OW33965   4.255   2.050   4.131 -0.5637 -0.4031 -0.7111
 8550SOL    HW233966   4.304   2.131   4.142 -1.4930  0.1591 -0.6343
 8550SOL    HW333967   4.180   2.074   4.077 -1.4825 -0.9414  0.2776
 8550SOL    MW433968   4.251   2.064   4.125 -0.8075 -0.4000 -0.5705
 8551SOL     OW33969   5.324   2.072   6.061  0.7495  0.2756 -0.6582
 8551SOL    HW233970   5.275   2.100   5.983 -0.4304 -1.2504 -0.5123
 8551SOL    HW333971   5.363   2.153   6.094 -0.3518  1.2976 -1.7179
 8551SOL    MW433972   5.322   2.086   6.055  0.4485  0.2091 -0.7788
 8552SOL     OW33973   1.482   6.014   2.336  0.3057  0.3149  0.0655
 8552SOL    HW233974   1.466   6.005   2.242 -0.4358 -0.0111  0.2053
 8552SOL    HW333975   1.576   6.004   2.346  0.6805  2.4192 -0.8519
 8552SOL    MW433976   1.492   6.011   2.325  0.2573  0.5495 -0.0371
 8553SOL     OW33977   2.301   5.343   0.504  0.4034  0.0869 -0.3571
 8553SOL    HW233978   2.311   5.269   0.445  1.0061  2.3624 -3.3342
 8553SOL    HW333979   2.212   5.376   0.488  0.5875  0.7702 -0.0268
 8553SOL    MW433980   2.291   5.337   0.494  0.5072  0.4773 -0.7063
 8554SOL     OW33981   0.801   3.094   3.930  0.0290 -0.2216  0.2896
 8554SOL    HW233982   0.732   3.034   3.904 -0.8466  0.5050  0.8892
 8554SOL    HW333983   0.758   3.158   3.985  1.4679 -0.6398  1.9988
 8554SOL    MW433984   0.786   3.094   3.934  0.1033 -0.1809  0.5943
 8555SOL     OW33985   3.809   6.088   0.907 -0.1313  0.4353 -0.3218
 8555SOL    HW233986   3.788   6.005   0.865  0.9269 -0.0189  0.0359
 8555SOL    HW333987   3.798   6.153   0.837 -0.6017 -0.0325 -0.6966
 8555SOL    MW433988   3.805   6.086   0.892 -0.0538  0.3137 -0.3241
 8556SOL     OW33989   2.859   0.973   1.130  0.3637  0.4570 -0.1988
 8556SOL    HW233990   2.889   1.063   1.140  0.0363  0.5345  0.1013
 8556SOL    HW333991   2.837   0.965   1.037  0.0461  0.8001 -0.1555
 8556SOL    MW433992   2.860   0.984   1.119  0.2786  0.5125 -0.1535
 8557SOL     OW33993   3.552   5.632   5.200 -0.1915 -0.1000 -0.2061
 8557SOL    HW233994   3.556   5.689   5.123 -0.6676  0.6698  0.3249
 8557SOL    HW333995   3.461   5.636   5.229  0.0597 -0.0706  0.6156
 8557SOL    MW433996   3.541   5.640   5.194 -0.2212  0.0054 -0.0277
 8558SOL     OW33997   0.668   0.527   1.393  0.2816  0.3718  0.3820
 8558SOL    HW233998   0.762   0.533   1.380  0.2669 -0.6557 -0.3526
 8558SOL    HW333999   0.642   0.613   1.426  1.3955  0.8385  0.0678
 8558SOL    MW434000   0.677   0.539   1.395  0.4267  0.2978  0.2436
 8559SOL     OW34001   1.411   3.792   6.272  0.3986  0.5653 -1.1196
 8559SOL    HW234002   1.424   3.715   6.216  0.1132 -0.0265 -0.3924
 8559SOL    HW334003   1.358   3.852   6.218 -0.9497 -0.5084 -1.0605
 8559SOL    MW434004   1.406   3.790   6.257  0.1831  0.3455 -1.0158
 8560SOL     OW34005   6.211   3.214   1.249 -0.3238  0.0950 -0.3248
 8560SOL    HW234006   6.160   3.207   1.330  0.4560  1.9061  0.3898
 8560SOL    HW334007   6.294   3.171   1.270 -0.3882 -0.0754 -0.4169
 8560SOL    MW434008   6.215   3.208   1.263 -0.2294  0.3115 -0.2427
 8561SOL     OW34009   0.632   1.073   3.444 -0.1683  0.1796  0.1098
 8561SOL    HW234010   0.620   1.032   3.530 -1.6609 -0.4142 -0.3356
 8561SOL    HW334011   0.672   1.005   3.390  0.1062  0.3097  0.1503
 8561SOL    MW434012   0.636   1.059   3.448 -0.3290  0.1184  0.0564
 8562SOL     OW34013   0.476   1.549   4.055  0.7658 -0.1784 -0.6192
 8562SOL    HW234014   0.487   1.643   4.047  0.8195 -0.2783 -1.8954
 8562SOL    HW334015   0.564   1.515   4.069  0.8615 -0.1123 -1.0491
 8562SOL    MW434016   0.489   1.557   4.056  0.7855 -0.1829 -0.8443
 8563SOL     OW34017   0.244   3.196   3.104 -0.0102  0.5001 -0.4945
 8563SOL    HW234018   0.316   3.135   3.089 -0.2733  0.0138  0.1553
 8563SOL    HW334019   0.251   3.260   3.033 -0.5550 -1.0493 -2.0260
 8563SOL    MW434020   0.254   3.197   3.093 -0.1168  0.2315 -0.6108
 8564SOL     OW34021   5.410   6.038   1.512 -0.4990 -0.6780  0.0442
 8564SOL    HW234022   5.411   5.983   1.590 -2.1809 -0.1672  0.4772
 8564SOL    HW334023   5.355   6.112   1.536 -0.1078  0.0690 -1.2642
 8564SOL    MW434024   5.403   6.040   1.525 -0.6693 -0.5121 -0.0713
 8565SOL     OW34025   4.470   3.097   3.488 -0.7472 -0.5641 -0.3240
 8565SOL    HW234026   4.455   3.011   3.448 -0.2839 -0.7330 -0.1418
 8565SOL    HW334027   4.546   3.132   3.442 -1.7425  0.3494 -1.3466
 8565SOL    MW434028   4.478   3.090   3.477 -0.8174 -0.4658 -0.4349
 8566SOL     OW34029   3.316   0.810   3.677 -0.2553  0.6041 -0.2826
 8566SOL    HW234030   3.324   0.836   3.585  0.6189  0.9523 -0.1209
 8566SOL    HW334031   3.400   0.835   3.716 -0.8953  1.1421  0.7879
 8566SOL    MW434032   3.328   0.817   3.670 -0.2244  0.7210 -0.1200
 8567SOL     OW34033   3.670   1.241   3.998 -0.0542 -0.1430 -0.0337
 8567SOL    HW234034   3.638   1.222   3.910  1.1402  0.6610 -0.6736
 8567SOL    HW334035   3.607   1.303   4.034 -0.3676 -0.2167 -0.4611
 8567SOL    MW434036   3.658   1.247   3.992  0.0621 -0.0466 -0.1745
 8568SOL     OW34037   2.627   1.301   3.851 -0.4882 -0.5899  0.0385
 8568SOL    HW234038   2.601   1.376   3.905  1.0111  1.1680 -1.5483
 8568SOL    HW334039   2.633   1.228   3.913 -0.1006  1.0362  2.0360
 8568SOL    MW434040   2.625   1.301   3.866 -0.2393 -0.1434  0.0927
 8569SOL     OW34041   0.053   3.554   5.693  0.1730  0.7224 -0.7142
 8569SOL    HW234042   0.148   3.556   5.684  0.1244  2.3460 -1.3123
 8569SOL    HW334043   0.023   3.504   5.617  0.5982 -2.0018  0.7778
 8569SOL    MW434044   0.062   3.548   5.682  0.2227  0.5772 -0.5963
 8570SOL     OW34045   3.201   4.425   0.719 -0.7741  0.0347  0.3600
 8570SOL    HW234046   3.291   4.402   0.697 -1.6681 -1.7226 -1.8835
 8570SOL    HW334047   3.148   4.377   0.655 -3.2693  1.8417  0.9400
 8570SOL    MW434048   3.206   4.415   0.708 -1.2213  0.0413  0.1405
 8571SOL     OW34049   0.205   3.711   4.959  0.0570 -0.6246 -0.1051
 8571SOL    HW234050   0.275   3.652   4.985 -1.3477 -2.1020  0.5161
 8571SOL    HW334051   0.230   3.743   4.872  1.8961 -0.3882  0.4750
 8571SOL    MW434052   0.218   3.708   4.951  0.1143 -0.7883  0.0534
 8572SOL     OW34053   0.844   5.210   5.801  0.0471  0.2519 -0.2922
 8572SOL    HW234054   0.926   5.170   5.772  1.7770  2.0310  1.7864
 8572SOL    HW334055   0.870   5.291   5.845 -2.5050 -0.4826  3.0562
 8572SOL    MW434056   0.858   5.215   5.803 -0.0614  0.3897  0.4239
 8573SOL     OW34057   4.199   0.209   6.082 -0.1095 -0.1873 -0.0443
 8573SOL    HW234058   4.151   0.133   6.051  0.8918 -0.3884 -1.2014
 8573SOL    HW334059   4.150   0.284   6.049  0.3846 -0.3898 -1.2838
 8573SOL    MW434060   4.187   0.209   6.074  0.0878 -0.2406 -0.3605
 8574SOL     OW34061   5.834   3.774   2.937  0.2227 -0.0895 -0.3360
 8574SOL    HW234062   5.901   3.832   2.973  1.2589 -0.5266 -1.4884
 8574SOL    HW334063   5.770   3.765   3.007  0.9129  1.0622  0.4754
 8574SOL    MW434064   5.834   3.780   2.951  0.4505  0.0048 -0.3810
 8575SOL     OW34065   4.090   0.642   3.262 -0.2203  0.1962  0.3379
 8575SOL    HW234066   4.119   0.687   3.342 -1.6875 -0.4844  1.3024
 8575SOL    HW334067   3.996   0.662   3.256 -0.2845 -0.3870 -0.7995
 8575SOL    MW434068   4.081   0.650   3.272 -0.4223  0.0294  0.3151
 8576SOL     OW34069   2.320   5.012   1.573  0.0943 -0.5051  0.0031
 8576SOL    HW234070   2.249   5.075   1.562  0.9434  0.6727  1.0819
 8576SOL    HW334071   2.365   5.013   1.488  0.3855  0.7165  0.1507
 8576SOL    MW434072   2.317   5.021   1.560  0.2448 -0.1885  0.1649
 8577SOL     OW34073   0.054   3.716   3.053 -0.0764  0.4434 -0.0568
 8577SOL    HW234074   0.120   3.681   3.112 -1.2330  0.2359  1.1869
 8577SOL    HW334075   0.097   3.788   3.008  0.7549  0.8793  1.3706
 8577SOL    MW434076   0.068   3.721   3.055 -0.1193  0.4735  0.2956
 8578SOL     OW34077   0.605   0.082   3.411 -0.0555 -0.3897  0.4322
 8578SOL    HW234078   0.559   0.160   3.444  0.0104 -0.0663 -0.2214
 8578SOL    HW334079   0.695   0.094   3.442  0.5516  1.0442 -1.6546
 8578SOL    MW434080   0.611   0.094   3.419  0.0333 -0.1579  0.0707
 8579SOL     OW34081   2.186   0.615   0.527  0.4093  0.1583  0.3111
 8579SOL    HW234082   2.093   0.638   0.524 -0.1089 -1.7207  1.0384
 8579SOL    HW334083   2.198   0.555   0.453  0.3431 -1.8563  1.8483
 8579SOL    MW434084   2.175   0.610   0.517  0.3322 -0.3554  0.6099
 8580SOL     OW34085   1.865   2.275   2.001  0.0183 -0.8517 -0.1072
 8580SOL    HW234086   1.781   2.265   1.957 -0.0710 -0.4846 -0.0196
 8580SOL    HW334087   1.897   2.185   2.012  0.8669 -0.9030 -2.5202
 8580SOL    MW434088   1.858   2.262   1.997  0.1185 -0.8101 -0.4140
 8581SOL     OW34089   4.466   3.502   3.205  0.0334  0.1638 -0.5021
 8581SOL    HW234090   4.495   3.573   3.262 -0.3443 -0.1816  0.1273
 8581SOL    HW334091   4.543   3.483   3.151  1.4078 -1.4328  1.8409
 8581SOL    MW434092   4.480   3.509   3.205  0.1649 -0.0925 -0.1100
 8582SOL     OW34093   1.339   1.374   5.406  0.3372  0.8427  0.1423
 8582SOL    HW234094   1.275   1.442   5.425 -0.3503  0.2335  0.0563
 8582SOL    HW334095   1.400   1.377   5.480 -0.6713  0.4088  1.0193
 8582SOL    MW434096   1.338   1.383   5.418  0.1134  0.7051  0.2467
 8583SOL     OW34097   6.309   5.101   5.306  0.3777  0.3113  0.4313
 8583SOL    HW234098   6.270   5.122   5.391  0.9316  2.0141  0.2983
 8583SOL    HW334099   6.404   5.100   5.324  0.4442 -0.6304  0.0882
 8583SOL    MW434100   6.317   5.103   5.320  0.4595  0.4117  0.3685
 8584SOL     OW34101   2.199   5.681   4.238  0.4281  0.5417  0.3508
 8584SOL    HW234102   2.106   5.674   4.258  0.4155 -2.2084 -0.2439
 8584SOL    HW334103   2.242   5.653   4.319  0.6184 -0.8982 -0.2173
 8584SOL    MW434104   2.192   5.677   4.252  0.4515 -0.0111  0.1974
 8585SOL     OW34105   6.373   4.395   4.021 -0.0421  0.5376 -0.4950
 8585SOL    HW234106   6.281   4.389   3.998 -0.0932  1.5189 -0.5833
 8585SOL    HW334107   6.420   4.366   3.942 -0.2280  3.2905 -1.7307
 8585SOL    MW434108   6.367   4.391   4.007 -0.0733  1.0302 -0.6697
 8586SOL     OW34109   2.066   5.568   1.880  0.2499  0.1664  0.2037
 8586SOL    HW234110   2.153   5.563   1.919 -0.1263  0.1180  1.0480
 8586SOL    HW334111   2.069   5.646   1.824  0.1770  1.4681  1.9263
 8586SOL    MW434112   2.078   5.578   1.878  0.1907  0.3318  0.5424
 8587SOL     OW34113   0.696   3.497   4.838 -0.1526  0.5817 -0.1216
 8587SOL    HW234114   0.659   3.410   4.826  2.5066 -0.3961 -2.2529
 8587SOL    HW334115   0.713   3.503   4.932 -1.6128 -0.6148  0.2487
 8587SOL    MW434116   0.694   3.487   4.849  0.0056  0.2949 -0.3539
 8588SOL     OW34117   4.277   4.359   4.259 -0.0695 -0.3661 -0.3134
 8588SOL    HW234118   4.304   4.268   4.245 -0.1226 -0.1063 -2.3183
 8588SOL    HW334119   4.322   4.408   4.190  0.6388  1.2944  1.2517
 8588SOL    MW434120   4.287   4.354   4.248  0.0170 -0.1128 -0.3714
 8589SOL     OW34121   1.188   4.427   1.590  0.2001 -0.2312 -0.7723
 8589SOL    HW234122   1.201   4.452   1.681  1.1075  0.8647 -1.1798
 8589SOL    HW334123   1.229   4.341   1.583 -1.0024 -0.9019  0.1347
 8589SOL    MW434124   1.195   4.419   1.601  0.1612 -0.1751 -0.7064
 8590SOL     OW34125   5.685   2.399   1.440  0.1093  0.6034  0.0212
 8590SOL    HW234126   5.683   2.331   1.506  0.9838 -0.3624 -0.9136
 8590SOL    HW334127   5.752   2.460   1.470  1.1514 -0.3092 -0.4113
 8590SOL    MW434128   5.693   2.398   1.453  0.3621  0.3556 -0.1592
 8591SOL     OW34129   5.640   3.236   4.303  0.1074  0.0739 -0.0541
 8591SOL    HW234130   5.726   3.204   4.277 -0.3702 -0.4826 -1.0155
 8591SOL    HW334131   5.645   3.245   4.398  1.4628  0.7916 -0.1739
 8591SOL    MW434132   5.652   3.233   4.312  0.2232  0.0951 -0.1967
 8592SOL     OW34133   5.007   6.352   2.431  0.1026  0.1723  0.0575
 8592SOL    HW234134   4.995   6.391   2.345  0.6531  1.0865  0.3864
 8592SOL    HW334135   5.067   6.411   2.477 -0.8451  0.1559  1.3710
 8592SOL    MW434136   5.014   6.365   2.426  0.0502  0.2908  0.2742
 8593SOL     OW34137   2.420   5.647   2.437 -0.3468  0.1559 -0.3217
 8593SOL    HW234138   2.345   5.619   2.489  0.0115 -0.8199 -0.3151
 8593SOL    HW334139   2.478   5.571   2.435  0.9559  1.1028  0.2376
 8593SOL    MW434140   2.418   5.634   2.443 -0.1277  0.1521 -0.2471
 8594SOL     OW34141   4.561   0.367   0.326  0.0497  0.4233  0.5537
 8594SOL    HW234142   4.555   0.401   0.237 -2.9005 -1.8714 -0.2824
 8594SOL    HW334143   4.515   0.283   0.323  2.0561 -1.0001  3.6921
 8594SOL    MW434144   4.554   0.360   0.314 -0.0749 -0.0673  0.8575
 8595SOL     OW34145   3.399   0.346   3.474 -0.7318 -0.0634  0.2805
 8595SOL    HW234146   3.322   0.315   3.426 -0.1947  2.0103 -2.1400
 8595SOL    HW334147   3.368   0.423   3.521 -0.4079  0.0575  0.2947
 8595SOL    MW434148   3.385   0.352   3.474 -0.6182  0.2262 -0.0370
 8596SOL     OW34149   3.156   6.203   4.276 -0.4754  0.2180  0.2424
 8596SOL    HW234150   3.199   6.189   4.360 -2.2912 -0.4949  1.1007
 8596SOL    HW334151   3.152   6.298   4.266  0.3078  0.3011  0.6415
 8596SOL    MW434152   3.161   6.214   4.286 -0.6116  0.1349  0.4083
 8597SOL     OW34153   6.090   1.804   5.202  0.1336 -0.1719  0.1557
 8597SOL    HW234154   6.004   1.845   5.207 -0.6746 -1.8318  0.7587
 8597SOL    HW334155   6.146   1.869   5.159 -1.3652  1.0200 -0.0585
 8597SOL    MW434156   6.086   1.818   5.197 -0.1708 -0.2337  0.2070
 8598SOL     OW34157   3.813   2.349   3.893 -0.3138 -0.1145  0.1564
 8598SOL    HW234158   3.771   2.433   3.912 -1.0488 -0.3109 -0.5328
 8598SOL    HW334159   3.747   2.284   3.914  0.0674 -0.4965  0.1834
 8598SOL    MW434160   3.799   2.352   3.898 -0.3605 -0.1908  0.0691
 8599SOL     OW34161   1.820   3.749   5.221  0.6504  0.3619  0.0533
 8599SOL    HW234162   1.857   3.709   5.143  0.1197  0.5222 -0.2828
 8599SOL    HW334163   1.875   3.825   5.239  1.5834 -0.4204  0.6134
 8599SOL    MW434164   1.832   3.754   5.213  0.7035  0.2798  0.0829
 8600SOL     OW34165   2.254   2.264   2.807  0.0874 -0.0627  0.6248
 8600SOL    HW234166   2.280   2.345   2.850  1.8012 -0.2398 -0.0007
 8600SOL    HW334167   2.236   2.289   2.716 -0.5549 -0.1957  0.7096
 8600SOL    MW434168   2.255   2.278   2.800  0.2288 -0.1036  0.5534
 8601SOL     OW34169   3.252   1.263   3.751 -0.3923 -0.1884 -0.1123
 8601SOL    HW234170   3.303   1.271   3.831  0.4996 -0.3252 -0.6508
 8601SOL    HW334171   3.311   1.292   3.682 -0.6134 -1.5260 -0.8990
 8601SOL    MW434172   3.266   1.268   3.752 -0.3038 -0.3829 -0.2871
 8602SOL     OW34173   4.955   2.026   1.915 -0.1751  0.4832  0.1481
 8602SOL    HW234174   4.991   2.060   1.997 -0.4148 -0.3739  0.6131
 8602SOL    HW334175   4.889   1.962   1.942 -0.5567  0.4959 -0.7115
 8602SOL    MW434176   4.951   2.022   1.930 -0.2571  0.3718  0.0960
 8603SOL     OW34177   2.806   1.695   2.274  0.1186 -0.0395 -0.4296
 8603SOL    HW234178   2.740   1.648   2.326  0.5076 -0.3094 -0.1743
 8603SOL    HW334179   2.770   1.784   2.265 -0.8392 -0.4894 -1.2949
 8603SOL    MW434180   2.792   1.701   2.280  0.0435 -0.1345 -0.5101
 8604SOL     OW34181   5.752   4.074   3.613  0.0160 -0.2209 -0.9595
 8604SOL    HW234182   5.727   4.148   3.668  0.6106 -1.2612  0.8105
 8604SOL    HW334183   5.818   4.109   3.553  0.0748  0.7454 -0.3519
 8604SOL    MW434184   5.757   4.088   3.612  0.1022 -0.2306 -0.6458
 8605SOL     OW34185   2.327   4.212   2.154  0.1440 -0.4113  0.0018
 8605SOL    HW234186   2.280   4.233   2.234 -1.5828 -0.9555 -0.8264
 8605SOL    HW334187   2.398   4.277   2.150 -0.8101  0.7462  1.0668
 8605SOL    MW434188   2.330   4.224   2.164 -0.2097 -0.3304  0.0330
 8606SOL     OW34189   4.074   4.478   5.039 -0.1710  0.0962  0.1433
 8606SOL    HW234190   4.127   4.524   5.104 -0.5897 -0.3429  0.8034
 8606SOL    HW334191   4.133   4.413   5.001  0.3203  0.9185 -0.5403
 8606SOL    MW434192   4.089   4.476   5.043 -0.1614  0.1468  0.1402
 8607SOL     OW34193   5.379   6.037   0.539 -0.2961  0.5806  0.1851
 8607SOL    HW234194   5.444   6.107   0.532  2.1686 -1.5070  0.5359
 8607SOL    HW334195   5.388   5.988   0.457 -1.4075  0.2134  0.2707
 8607SOL    MW434196   5.389   6.040   0.527 -0.1176  0.2567  0.2426
 8608SOL     OW34197   5.461   4.079   1.082 -0.3792  0.2429 -0.9720
 8608SOL    HW234198   5.518   4.109   1.011  0.9686 -1.4262 -0.6640
 8608SOL    HW334199   5.487   3.988   1.097 -0.9430  0.3949  1.3408
 8608SOL    MW434200   5.472   4.071   1.075 -0.2758  0.0427 -0.6262
 8609SOL     OW34201   0.444   1.707   5.425 -0.5482  0.3541  0.4327
 8609SOL    HW234202   0.419   1.765   5.497 -1.2332 -0.1722  0.6242
 8609SOL    HW334203   0.413   1.621   5.452  0.5973 -0.1334  0.2119
 8609SOL    MW434204   0.437   1.703   5.438 -0.4874  0.2203  0.4288
 8610SOL     OW34205   2.967   5.385   5.101 -0.1902  0.5672 -0.1157
 8610SOL    HW234206   3.024   5.448   5.057  1.5425 -0.3284  0.7566
 8610SOL    HW334207   3.012   5.301   5.092 -0.8373  0.0018  1.5100
 8610SOL    MW434208   2.981   5.382   5.094 -0.0469  0.3744  0.2139
 8611SOL     OW34209   1.858   4.624   1.059  0.1748 -0.3694 -0.4851
 8611SOL    HW234210   1.929   4.618   1.123 -0.9993  1.0691  1.0317
 8611SOL    HW334211   1.897   4.669   0.984  1.0172 -0.0720  0.1138
 8611SOL    MW434212   1.872   4.629   1.057  0.1311 -0.1403 -0.2060
 8612SOL     OW34213   4.070   3.868   0.166  0.1309  0.2378 -0.0309
 8612SOL    HW234214   4.091   3.849   0.074  0.1185 -1.9777  0.3687
 8612SOL    HW334215   3.974   3.863   0.170  0.0856  1.0687 -0.0354
 8612SOL    MW434216   4.060   3.865   0.154  0.1233  0.0551  0.0212
 8613SOL     OW34217   1.247   0.792   3.314 -0.0640  0.1549 -0.1928
 8613SOL    HW234218   1.274   0.700   3.308  1.7282  0.5788  0.7390
 8613SOL    HW334219   1.311   0.840   3.262 -0.8572  0.9230 -0.4946
 8613SOL    MW434220   1.259   0.786   3.307  0.0678  0.3121 -0.1097
 8614SOL     OW34221   4.743   0.506   1.736  0.0676 -0.0190 -0.1424
 8614SOL    HW234222   4.740   0.545   1.649  0.7583  0.0571 -0.1360
 8614SOL    HW334223   4.727   0.412   1.721 -2.1325  0.2879 -0.1042
 8614SOL    MW434224   4.740   0.498   1.722 -0.1316  0.0315 -0.1365
 8615SOL     OW34225   4.417   3.470   0.770  0.0473 -0.0786 -0.5027
 8615SOL    HW234226   4.406   3.426   0.854  1.3742 -1.2679 -0.9168
 8615SOL    HW334227   4.494   3.525   0.781 -1.1891  1.6693 -0.2165
 8615SOL    MW434228   4.426   3.471   0.782  0.0593 -0.0049 -0.5196
 8616SOL     OW34229   2.763   2.067   3.050 -0.0171  0.4147 -0.0958
 8616SOL    HW234230   2.733   2.155   3.071  2.2807  0.7798  2.2421
 8616SOL    HW334231   2.724   2.012   3.118 -1.0790 -0.3280 -1.2778
 8616SOL    MW434232   2.754   2.071   3.062  0.1460  0.3649  0.0567
 8617SOL     OW34233   0.023   3.424   6.250  0.2430 -0.0916 -0.2572
 8617SOL    HW234234   0.063   3.394   6.332  0.1831  0.2819 -0.0896
 8617SOL    HW334235  -0.060   3.377   6.246 -0.3619  0.8741  0.5622
 8617SOL    MW434236   0.018   3.413   6.260  0.1553  0.0851 -0.1270
 8618SOL     OW34237   2.489   2.379   4.183 -0.1609 -0.2861  0.2106
 8618SOL    HW234238   2.432   2.327   4.239 -0.6126 -0.2605 -0.2130
 8618SOL    HW334239   2.464   2.354   4.094  0.0328  0.2112  0.0109
 8618SOL    MW434240   2.478   2.369   4.178 -0.1950 -0.2171  0.1284
 8619SOL     OW34241   0.854   5.047   2.843  0.3957  0.3968  0.6952
 8619SOL    HW234242   0.780   5.055   2.903 -1.0090  0.9355 -1.0264
 8619SOL    HW334243   0.855   5.130   2.794 -0.2222 -0.9818 -1.8399
 8619SOL    MW434244   0.844   5.059   2.844  0.1288  0.2860  0.1336
 8620SOL     OW34245   4.520   6.216   5.612 -0.1180  0.2809  0.0169
 8620SOL    HW234246   4.598   6.181   5.570  0.8935  1.1608  1.1024
 8620SOL    HW334247   4.466   6.139   5.631  0.0717 -0.2522 -1.5053
 8620SOL    MW434248   4.523   6.201   5.609  0.0405  0.3267 -0.0407
 8621SOL     OW34249   6.258   1.983   5.054 -0.1838 -0.4192 -0.0702
 8621SOL    HW234250   6.340   1.950   5.091  1.0536  1.3525 -1.0675
 8621SOL    HW334251   6.246   1.932   4.974  1.6972  1.3136 -1.5842
 8621SOL    MW434252   6.267   1.972   5.048  0.2276  0.0431 -0.4016
 8622SOL     OW34253   0.351   1.826   4.667 -0.2491 -0.8144  0.1177
 8622SOL    HW234254   0.319   1.843   4.756  1.3793 -0.7974  0.7382
 8622SOL    HW334255   0.374   1.733   4.668 -4.2275 -2.0533 -1.6655
 8622SOL    MW434256   0.349   1.816   4.679 -0.5591 -0.9756 -0.0357
 8623SOL     OW34257   0.501   0.404   4.463 -0.2124 -0.4112  0.0314
 8623SOL    HW234258   0.478   0.487   4.503 -0.4299 -0.3368 -0.2402
 8623SOL    HW334259   0.564   0.364   4.523 -0.5131 -0.2912  0.4284
 8623SOL    MW434260   0.506   0.409   4.476 -0.2808 -0.3855  0.0479
 8624SOL     OW34261   6.361   5.541   0.501 -0.2603 -0.0375 -0.0203
 8624SOL    HW234262   6.320   5.614   0.548 -2.1360 -0.5549 -0.7360
 8624SOL    HW334263   6.430   5.511   0.559 -1.8922 -0.0764  2.0407
 8624SOL    MW434264   6.364   5.547   0.515 -0.7231 -0.1109  0.1572
 8625SOL     OW34265   5.606   3.628   4.375 -0.3290  0.0044 -0.2803
 8625SOL    HW234266   5.602   3.618   4.470 -1.0943 -0.4006 -0.3474
 8625SOL    HW334267   5.618   3.539   4.342  3.1216  0.3918 -0.4636
 8625SOL    MW434268   5.607   3.615   4.383  0.0253  0.0021 -0.3133
 8626SOL     OW34269   5.033   2.981   0.630 -0.4387 -0.1904  0.5787
 8626SOL    HW234270   5.023   2.941   0.717  0.1491  2.0762  1.7661
 8626SOL    HW334271   5.010   3.073   0.644 -0.3958  0.2042 -1.7098
 8626SOL    MW434272   5.028   2.988   0.644 -0.3555  0.1607  0.4334
 8627SOL     OW34273   6.012   0.287   6.210 -0.2878  0.1723 -0.2076
 8627SOL    HW234274   6.074   0.223   6.177 -0.5141  0.0439 -0.3875
 8627SOL    HW334275   5.990   0.255   6.298  1.5846  1.4091  0.7716
 8627SOL    MW434276   6.017   0.274   6.218 -0.0706  0.3186 -0.1021
 8628SOL     OW34277   3.517   0.720   0.291 -0.7070 -0.1287  0.0324
 8628SOL    HW234278   3.487   0.719   0.200  2.0366 -2.6826 -1.0359
 8628SOL    HW334279   3.611   0.738   0.284  0.1281 -3.0361  2.0198
 8628SOL    MW434280   3.525   0.722   0.278 -0.2349 -0.8493  0.1536
 8629SOL     OW34281   4.826   1.986   0.973  0.3994 -0.4740  0.4320
 8629SOL    HW234282   4.908   1.954   0.935  0.3385 -1.5078  1.1153
 8629SOL    HW334283   4.850   2.070   1.013  0.6146  0.2804 -1.2142
 8629SOL    MW434284   4.840   1.993   0.974  0.4198 -0.5109  0.3049
 8630SOL     OW34285   2.159   4.836   1.915 -0.5197  0.2892 -0.0109
 8630SOL    HW234286   2.158   4.787   1.833  0.4210 -0.3050  0.3186
 8630SOL    HW334287   2.078   4.811   1.960 -1.0721  0.6708 -0.7830
 8630SOL    MW434288   2.148   4.826   1.910 -0.4684  0.2611 -0.0693
 8631SOL     OW34289   2.731   6.087   1.696 -0.3718 -0.2615 -0.1180
 8631SOL    HW234290   2.679   6.087   1.616  0.5843 -1.3616 -0.7637
 8631SOL    HW334291   2.666   6.090   1.767 -1.2884 -0.9775 -0.9112
 8631SOL    MW434292   2.716   6.087   1.695 -0.3666 -0.5011 -0.3079
 8632SOL     OW34293   1.652   1.689   2.439 -0.6702 -0.6709 -0.3996
 8632SOL    HW234294   1.644   1.750   2.512 -1.3328  0.9275 -1.7648
 8632SOL    HW334295   1.746   1.673   2.431 -0.4519  0.4515 -0.2305
 8632SOL    MW434296   1.663   1.695   2.448 -0.7288 -0.3119 -0.5574
 8633SOL     OW34297   4.714   0.807   0.203 -0.0314  0.0994 -0.5079
 8633SOL    HW234298   4.784   0.748   0.175  0.4312 -0.2098  1.2118
 8633SOL    HW334299   4.746   0.895   0.180  0.0969 -0.1654 -1.3777
 8633SOL    MW434300   4.728   0.811   0.196  0.0466  0.0236 -0.3958
 8634SOL     OW34301   6.125   4.497   4.350  0.5921 -0.0253  0.0599
 8634SOL    HW234302   6.063   4.479   4.421  0.2075  1.5511  0.1529
 8634SOL    HW334303   6.211   4.480   4.389  0.2874 -1.5695  0.1299
 8634SOL    MW434304   6.128   4.492   4.365  0.5012 -0.0210  0.0814
 8635SOL     OW34305   1.772   0.575   2.427 -0.8555 -0.0375 -0.0377
 8635SOL    HW234306   1.727   0.594   2.509 -0.6870  0.0512  0.0352
 8635SOL    HW334307   1.774   0.479   2.423 -0.1255 -0.0550  0.4774
 8635SOL    MW434308   1.767   0.565   2.438 -0.7370 -0.0281  0.0399
 8636SOL     OW34309   3.848   4.178   1.955 -0.8531 -0.2713 -0.2486
 8636SOL    HW234310   3.795   4.229   2.016 -0.7035 -0.8615  0.3896
 8636SOL    HW334311   3.793   4.168   1.878 -1.5211 -0.5604  0.2611
 8636SOL    MW434312   3.834   4.184   1.953 -0.9215 -0.3873 -0.0972
 8637SOL     OW34313   4.724   1.283   5.130  0.0738  0.5356 -0.1123
 8637SOL    HW234314   4.660   1.239   5.074  0.5069  0.3199 -0.4379
 8637SOL    HW334315   4.766   1.213   5.179  0.5264  0.6173 -0.3835
 8637SOL    MW434316   4.721   1.268   5.129  0.1906  0.5179 -0.1911
 8638SOL     OW34317   0.455   5.967   4.519  0.4782 -0.5202 -0.2343
 8638SOL    HW234318   0.438   5.892   4.461  0.2564 -0.0159 -0.8322
 8638SOL    HW334319   0.550   5.968   4.529  0.4361 -1.2864  0.3330
 8638SOL    MW434320   0.466   5.957   4.512  0.4434 -0.5548 -0.2383
 8639SOL     OW34321   3.286   6.434   4.773  0.0854 -0.5900  0.0114
 8639SOL    HW234322   3.283   6.500   4.704  0.1920  0.4640  1.0005
 8639SOL    HW334323   3.199   6.395   4.772 -0.1251 -0.1199 -0.2710
 8639SOL    MW434324   3.274   6.437   4.764  0.0717 -0.3889  0.1046
 8640SOL     OW34325   6.068   3.511   1.843 -0.2396 -0.5899 -0.8526
 8640SOL    HW234326   6.110   3.588   1.806  0.1712 -0.4088 -0.0134
 8640SOL    HW334327   5.986   3.543   1.881  0.9389 -0.1315  1.4735
 8640SOL    MW434328   6.062   3.525   1.843 -0.0299 -0.5056 -0.4350
 8641SOL     OW34329   1.167   3.069   3.621 -0.4864 -0.5403 -0.9349
 8641SOL    HW234330   1.232   3.122   3.575 -0.8737 -1.4820 -2.6401
 8641SOL    HW334331   1.169   2.984   3.577 -4.7138  0.1162 -2.9474
 8641SOL    MW434332   1.176   3.065   3.610 -1.0953 -0.5779 -1.4254
 8642SOL     OW34333   2.488   5.237   5.157  0.1830  0.5547 -0.1657
 8642SOL    HW234334   2.562   5.254   5.100 -1.1340  0.9819 -1.8320
 8642SOL    HW334335   2.419   5.295   5.126 -1.4418 -1.1017  0.1109
 8642SOL    MW434336   2.488   5.247   5.146 -0.2051  0.3925 -0.3491
 8643SOL     OW34337   2.715   2.962   3.323  0.1059 -0.5994 -0.2513
 8643SOL    HW234338   2.673   2.879   3.302  1.3247 -1.4205  0.3951
 8643SOL    HW334339   2.765   2.944   3.403  1.5435  0.3464 -0.8819
 8643SOL    MW434340   2.716   2.949   3.331  0.4564 -0.5829 -0.2492
 8644SOL     OW34341   1.859   6.362   0.640  0.0193 -0.7782 -0.0308
 8644SOL    HW234342   1.809   6.398   0.713  0.1308  1.0418 -0.7917
 8644SOL    HW334343   1.944   6.339   0.679  0.1026  0.2247  0.4241
 8644SOL    MW434344   1.864   6.363   0.655  0.0450 -0.4058 -0.0712
 8645SOL     OW34345   4.061   1.733   6.209 -0.2620  0.3978  0.0176
 8645SOL    HW234346   3.979   1.763   6.169  0.7278  1.6342 -1.1921
 8645SOL    HW334347   4.097   1.810   6.252 -0.3720 -0.4761  1.7724
 8645SOL    MW434348   4.055   1.747   6.209 -0.1459  0.4456  0.0895
 8646SOL     OW34349   1.619   4.810   3.522  0.1210 -0.0554  0.2310
 8646SOL    HW234350   1.607   4.901   3.496 -1.4656 -0.1390  0.5805
 8646SOL    HW334351   1.678   4.813   3.597  0.9926  0.5671 -0.4577
 8646SOL    MW434352   1.625   4.822   3.528  0.0267  0.0157  0.1862
 8647SOL     OW34353   4.815   1.243   2.272 -0.1679 -0.2016  0.7016
 8647SOL    HW234354   4.780   1.301   2.204 -0.7476 -1.5634 -0.2123
 8647SOL    HW334355   4.749   1.175   2.282  1.7170 -2.3194 -0.3702
 8647SOL    MW434356   4.802   1.242   2.264  0.0043 -0.6607  0.4396
 8648SOL     OW34357   4.632   1.191   5.552 -0.5728  0.5905  0.0202
 8648SOL    HW234358   4.716   1.229   5.577 -0.0445  0.2054 -1.0822
 8648SOL    HW334359   4.594   1.254   5.490 -0.4719  0.1536 -0.5022
 8648SOL    MW434360   4.638   1.204   5.547 -0.4898  0.4820 -0.1942
 8649SOL     OW34361   4.282   3.937   1.149 -0.3924 -0.1960  0.0499
 8649SOL    HW234362   4.213   3.932   1.082 -0.6025  0.0007  0.2505
 8649SOL    HW334363   4.274   4.025   1.185 -0.6119 -0.4815  0.6955
 8649SOL    MW434364   4.272   3.948   1.145 -0.4491 -0.2077  0.1615
 8650SOL     OW34365   0.037   0.710   1.071 -0.1351 -0.1162  0.0654
 8650SOL    HW234366   0.098   0.686   1.141 -0.3127 -0.1344  0.2139
 8650SOL    HW334367   0.093   0.723   0.994 -0.0124 -0.7892  0.0340
 8650SOL    MW434368   0.052   0.708   1.070 -0.1424 -0.2074  0.0808
 8651SOL     OW34369   6.045   4.967   6.151 -0.4130 -0.0801 -0.0278
 8651SOL    HW234370   6.098   4.922   6.085  0.2385 -0.4109  0.7154
 8651SOL    HW334371   6.090   5.049   6.166 -0.7076  0.1113 -0.1853
 8651SOL    MW434372   6.058   4.972   6.144 -0.3659 -0.0985  0.0495
 8652SOL     OW34373   5.984   2.830   3.587  0.3805 -0.0428 -0.0252
 8652SOL    HW234374   5.910   2.798   3.536  0.5788 -0.9187  0.2098
 8652SOL    HW334375   6.060   2.782   3.553  0.3885 -1.3206  1.6273
 8652SOL    MW434376   5.985   2.820   3.576  0.4077 -0.3269  0.2239
 8653SOL     OW34377   2.486   2.135   4.497 -0.3114  0.2864  0.1986
 8653SOL    HW234378   2.415   2.165   4.440 -0.3588 -2.3012 -1.2302
 8653SOL    HW334379   2.565   2.177   4.461 -0.3695 -1.1400 -1.7234
 8653SOL    MW434380   2.487   2.145   4.484 -0.3253 -0.2432 -0.2435
 8654SOL     OW34381   3.397   0.044   0.388 -0.0331 -0.3219 -0.4791
 8654SOL    HW234382   3.397   0.095   0.469  1.5854 -1.2938  0.1734
 8654SOL    HW334383   3.322   0.078   0.339 -1.4292 -0.1169  1.6707
 8654SOL    MW434384   3.387   0.055   0.392 -0.0037 -0.4231 -0.1094
 8655SOL     OW34385   0.673   1.876   5.325 -0.7728 -0.2810 -0.2449
 8655SOL    HW234386   0.598   1.817   5.329 -1.6864  0.8882  1.0166
 8655SOL    HW334387   0.711   1.861   5.239 -0.3164 -3.4294  0.4105
 8655SOL    MW434388   0.668   1.866   5.315 -0.8331 -0.5421  0.0080
 8656SOL     OW34389   2.108   4.964   4.864 -0.4504 -0.2932  0.1514
 8656SOL    HW234390   2.191   4.978   4.910  0.1464  2.2996 -1.4889
 8656SOL    HW334391   2.117   4.877   4.825  0.8188 -0.7127  1.2866
 8656SOL    MW434392   2.120   4.955   4.865 -0.2042 -0.0065  0.0847
 8657SOL     OW34393   2.912   3.603   4.630  0.1186  0.3433  0.4945
 8657SOL    HW234394   2.949   3.662   4.565 -1.0126  1.0242  0.4514
 8657SOL    HW334395   2.969   3.526   4.627 -0.6848 -0.2750 -2.3508
 8657SOL    MW434396   2.924   3.600   4.621 -0.1367  0.3516  0.1134
 8658SOL     OW34397   1.923   3.304   0.363 -0.1851 -0.5504 -0.3486
 8658SOL    HW234398   1.914   3.393   0.396  1.2429 -0.7019  0.5355
 8658SOL    HW334399   1.872   3.251   0.424 -0.5862 -0.4067 -0.5568
 8658SOL    MW434400   1.915   3.309   0.376 -0.0496 -0.5514 -0.2594
 8659SOL     OW34401   3.009   1.441   5.346  0.3603 -0.7134 -0.0159
 8659SOL    HW234402   3.000   1.507   5.415  1.8461  0.1430 -0.5967
 8659SOL    HW334403   2.971   1.482   5.268 -2.0773 -1.9954  0.4205
 8659SOL    MW434404   3.003   1.455   5.345  0.2347 -0.7696 -0.0350
 8660SOL     OW34405   5.720   2.461   4.034 -0.1123  0.1488 -0.3537
 8660SOL    HW234406   5.740   2.555   4.040 -3.8838  1.0215  1.0074
 8660SOL    HW334407   5.677   2.452   3.948 -1.1612  0.0421  0.1648
 8660SOL    MW434408   5.717   2.473   4.023 -0.7483  0.2499 -0.1057
 8661SOL     OW34409   3.157   6.198   0.265  0.2418  0.4499  0.6059
 8661SOL    HW234410   3.062   6.186   0.260  0.2637  0.6347 -0.8928
 8661SOL    HW334411   3.179   6.243   0.184  2.0617 -2.8103 -0.9284
 8661SOL    MW434412   3.147   6.202   0.253  0.4848  0.0441  0.2057
 8662SOL     OW34413   4.135   5.772   3.714  0.3127 -0.1373  0.1911
 8662SOL    HW234414   4.076   5.703   3.683  0.9963 -1.1605  1.0945
 8662SOL    HW334415   4.193   5.789   3.640  0.3152 -0.7428  0.0451
 8662SOL    MW434416   4.134   5.765   3.700  0.4032 -0.3522  0.2910
 8663SOL     OW34417   2.689   1.039   0.202 -0.0032 -0.0509 -0.0928
 8663SOL    HW234418   2.762   1.014   0.145  0.1311  0.5346 -0.1867
 8663SOL    HW334419   2.730   1.062   0.285 -0.1659 -0.5686  0.1279
 8663SOL    MW434420   2.704   1.039   0.205 -0.0069 -0.0420 -0.0761
 8664SOL     OW34421   1.292   0.420   2.733 -0.4204  0.3419  0.1095
 8664SOL    HW234422   1.230   0.487   2.704 -1.4640 -0.6234  0.0789
 8664SOL    HW334423   1.284   0.350   2.669  0.7015  0.1929  0.1134
 8664SOL    MW434424   1.283   0.420   2.721 -0.4101  0.1949  0.1060
 8665SOL     OW34425   1.404   1.459   4.575  0.3987  0.1123 -0.0483
 8665SOL    HW234426   1.479   1.408   4.608 -0.1685  0.6128  2.1447
 8665SOL    HW334427   1.372   1.507   4.651 -2.1130 -0.0013 -0.9571
 8665SOL    MW434428   1.410   1.458   4.589 -0.0076  0.1634  0.1211
 8666SOL     OW34429   5.097   0.525   5.043  0.0953  0.7443  0.2642
 8666SOL    HW234430   5.006   0.521   5.013 -0.0361  1.6766  0.4982
 8666SOL    HW334431   5.139   0.585   4.982  0.2715  1.2180  0.8490
 8666SOL    MW434432   5.091   0.532   5.031  0.1012  0.9298  0.3722
 8667SOL     OW34433   0.787   2.198   1.648 -0.0164  0.4529 -0.1592
 8667SOL    HW234434   0.698   2.170   1.625  0.7244 -1.1626 -1.2987
 8667SOL    HW334435   0.816   2.249   1.572  0.0890  0.8409  0.1415
 8667SOL    MW434436   0.779   2.201   1.635  0.0952  0.2910 -0.2699
 8668SOL     OW34437   5.403   6.246   2.507 -0.1183 -0.6708 -0.3718
 8668SOL    HW234438   5.386   6.237   2.413  1.3014  0.0400 -0.7272
 8668SOL    HW334439   5.412   6.341   2.521 -0.0771 -0.7844  0.4408
 8668SOL    MW434440   5.402   6.258   2.497  0.0745 -0.5920 -0.3115
 8669SOL     OW34441   1.518   3.965   5.388 -0.4792 -0.1939 -0.2285
 8669SOL    HW234442   1.448   3.985   5.326 -0.7802  0.8177  0.4130
 8669SOL    HW334443   1.578   4.039   5.381 -0.6129  0.0286  0.8129
 8669SOL    MW434444   1.517   3.978   5.379 -0.5365 -0.0311 -0.0065
 8670SOL     OW34445   0.591   0.841   5.209  0.1185  0.2121  0.0535
 8670SOL    HW234446   0.633   0.855   5.124  1.6689  1.6668  0.9973
 8670SOL    HW334447   0.655   0.872   5.273 -1.4350  0.1680  1.7080
 8670SOL    MW434448   0.605   0.847   5.206  0.1181  0.3983  0.3963
 8671SOL     OW34449   0.197   2.941   1.181 -0.4992  0.3331  0.0250
 8671SOL    HW234450   0.186   2.914   1.090 -0.6854 -1.7387  0.6098
 8671SOL    HW334451   0.191   2.860   1.231  0.6715  1.2794  1.8068
 8671SOL    MW434452   0.195   2.927   1.176 -0.3693  0.1846  0.3373
 8672SOL     OW34453   2.772   1.305   1.457 -0.0726  0.0093  0.0316
 8672SOL    HW234454   2.797   1.388   1.497  0.4700  0.5363 -1.3323
 8672SOL    HW334455   2.710   1.266   1.518  0.9522  0.6180  1.5186
 8672SOL    MW434456   2.767   1.311   1.470  0.1342  0.1592  0.0478
 8673SOL     OW34457   1.592   4.201   5.660 -0.3556 -0.5355  0.0646
 8673SOL    HW234458   1.604   4.168   5.571  0.3420  1.3744 -0.5993
 8673SOL    HW334459   1.681   4.207   5.695 -0.5594 -0.4050  0.5701
 8673SOL    MW434460   1.606   4.197   5.653 -0.2905 -0.2663  0.0437
 8674SOL     OW34461   3.836   2.891   4.119  0.7954  0.7253  0.1010
 8674SOL    HW234462   3.842   2.801   4.152  1.4412  0.3827 -0.9131
 8674SOL    HW334463   3.916   2.933   4.150  1.3655  0.4251 -0.9215
 8674SOL    MW434464   3.847   2.885   4.128  0.9558  0.6405 -0.1677
 8675SOL     OW34465   5.557   4.279   4.319  0.3733 -0.2429 -0.5408
 8675SOL    HW234466   5.590   4.220   4.251  1.7722 -0.1132 -0.0009
 8675SOL    HW334467   5.536   4.222   4.393 -0.2981 -0.2836 -0.7555
 8675SOL    MW434468   5.559   4.264   4.320  0.4693 -0.2312 -0.4979
 8676SOL     OW34469   0.023   4.029   2.880  0.2840 -0.2157 -0.0628
 8676SOL    HW234470   0.017   3.984   2.796  1.2773  1.2438 -0.9540
 8676SOL    HW334471  -0.041   4.100   2.874  0.3452 -0.1117  0.4353
 8676SOL    MW434472   0.013   4.033   2.868  0.4231 -0.0094 -0.1147
 8677SOL     OW34473   0.775   1.377   4.655  0.0930  0.1083 -0.1487
 8677SOL    HW234474   0.789   1.403   4.564 -2.0347 -0.2569 -0.6306
 8677SOL    HW334475   0.681   1.387   4.668  0.2736 -0.4862  1.8208
 8677SOL    MW434476   0.764   1.382   4.644 -0.1639 -0.0183  0.0476
 8678SOL     OW34477   6.329   1.421   2.694 -0.1542  0.1141  0.8076
 8678SOL    HW234478   6.287   1.339   2.669  1.1495  0.3033 -2.5348
 8678SOL    HW334479   6.300   1.485   2.628 -0.0667  2.0383  2.5224
 8678SOL    MW434480   6.320   1.419   2.682  0.0294  0.3930  0.5928
 8679SOL     OW34481   3.928   6.362   4.699  0.0442  0.1297 -0.0832
 8679SOL    HW234482   3.890   6.419   4.766  1.0705 -0.8458  1.3686
 8679SOL    HW334483   4.017   6.346   4.729  0.1533 -1.2664 -1.0875
 8679SOL    MW434484   3.935   6.367   4.712  0.1940 -0.1832 -0.0241
 8680SOL     OW34485   4.025   3.829   5.898  0.0713 -0.3945 -0.3469
 8680SOL    HW234486   4.002   3.769   5.968  1.4179 -0.7326 -0.1855
 8680SOL    HW334487   4.024   3.916   5.939 -0.1401 -0.4850 -0.1606
 8680SOL    MW434488   4.022   3.833   5.913  0.2211 -0.4511 -0.3010
 8681SOL     OW34489   2.295   0.621   6.365  0.2153  0.2861  0.0181
 8681SOL    HW234490   2.245   0.542   6.390  1.4773 -0.2812  0.8288
 8681SOL    HW334491   2.331   0.653   6.447  1.8150  0.2431 -0.6460
 8681SOL    MW434492   2.293   0.614   6.379  0.5929  0.2056  0.0374
 8682SOL     OW34493   0.367   0.775   5.001 -0.2764  0.3766 -0.1685
 8682SOL    HW234494   0.399   0.796   5.088 -0.5535  0.2882 -0.0422
 8682SOL    HW334495   0.415   0.833   4.942  1.9056 -1.3652 -0.2605
 8682SOL    MW434496   0.377   0.785   5.005 -0.0251  0.1351 -0.1640
 8683SOL     OW34497   3.334   4.053   6.065  0.1034  0.1589 -0.3837
 8683SOL    HW234498   3.413   4.106   6.064  0.9439 -1.0055  0.8871
 8683SOL    HW334499   3.364   3.964   6.044 -1.2826  0.1204 -2.5844
 8683SOL    MW434500   3.348   4.048   6.062  0.0315  0.0002 -0.5064
 8684SOL     OW34501   1.687   0.819   4.200 -0.4315  0.3959  0.5172
 8684SOL    HW234502   1.610   0.864   4.167 -0.4865  1.9381  2.5244
 8684SOL    HW334503   1.760   0.856   4.151 -0.6464  1.5765  1.0532
 8684SOL    MW434504   1.687   0.830   4.189 -0.4671  0.7551  0.8528
 8685SOL     OW34505   5.968   6.293   2.158  0.0223  0.2681  0.1926
 8685SOL    HW234506   5.906   6.229   2.193  0.2794 -0.6153 -0.9482
 8685SOL    HW334507   5.917   6.374   2.153 -0.9142 -0.3383 -0.2997
 8685SOL    MW434508   5.953   6.296   2.162 -0.0673  0.0716 -0.0229
 8686SOL     OW34509   3.678   4.832   2.496 -0.0303 -0.2423  0.3867
 8686SOL    HW234510   3.664   4.849   2.402  0.3807  1.8932  0.6582
 8686SOL    HW334511   3.765   4.867   2.514 -0.9334  1.3232  1.9737
 8686SOL    MW434512   3.688   4.839   2.486 -0.0952  0.2460  0.6319
 8687SOL     OW34513   2.997   0.640   3.122  0.5162  0.7870 -0.0593
 8687SOL    HW234514   3.058   0.689   3.067  0.5076 -0.6725 -1.4598
 8687SOL    HW334515   2.928   0.703   3.143  1.1566  1.7301 -0.6797
 8687SOL    MW434516   2.996   0.655   3.117  0.5996  0.7189 -0.3259
 8688SOL     OW34517  -0.002   1.776   1.117  0.0748  0.0922  0.2257
 8688SOL    HW234518   0.019   1.706   1.178  0.0158 -0.3908 -0.3029
 8688SOL    HW334519  -0.018   1.852   1.173  1.0255 -0.0794  0.7646
 8688SOL    MW434520  -0.001   1.777   1.132  0.1924  0.0059  0.2271
 8689SOL     OW34521   1.128   3.708   2.297 -0.2587  0.2504  0.3493
 8689SOL    HW234522   1.176   3.638   2.342 -0.3786 -0.1455 -0.1370
 8689SOL    HW334523   1.138   3.784   2.355  0.6179  0.0690  0.4576
 8689SOL    MW434524   1.136   3.709   2.311 -0.1588  0.1742  0.2994
 8690SOL     OW34525   2.335   3.630   0.760  0.3864  0.3716 -0.0317
 8690SOL    HW234526   2.407   3.645   0.699  0.3481 -0.2306 -0.2358
 8690SOL    HW334527   2.256   3.647   0.709  0.3077 -1.3544 -0.5454
 8690SOL    MW434528   2.334   3.634   0.745  0.3710  0.0644 -0.1264
 8691SOL     OW34529   4.073   1.683   1.216  0.4481  0.2431  0.1266
 8691SOL    HW234530   4.117   1.732   1.147 -1.3525  0.4457 -0.9414
 8691SOL    HW334531   4.078   1.591   1.187  2.4174 -0.0960  1.3360
 8691SOL    MW434532   4.079   1.677   1.203  0.4704  0.2251  0.1452
 8692SOL     OW34533   0.152   3.400   2.690 -1.1056 -0.0676 -0.1098
 8692SOL    HW234534   0.093   3.371   2.621 -0.1445 -1.3099 -0.4350
 8692SOL    HW334535   0.095   3.448   2.751 -2.1331  0.2180 -1.2524
 8692SOL    MW434536   0.137   3.402   2.689 -1.1144 -0.1938 -0.3035
 8693SOL     OW34537   2.143   1.864   6.015  0.4113 -0.0232 -0.2307
 8693SOL    HW234538   2.124   1.938   6.073 -0.2299 -0.7457  0.5085
 8693SOL    HW334539   2.063   1.853   5.963  0.2641 -0.5847  0.1045
 8693SOL    MW434540   2.130   1.872   6.015  0.3072 -0.1926 -0.0889
 8694SOL     OW34541   5.755   0.707   4.846 -1.3067 -0.0654  0.5435
 8694SOL    HW234542   5.760   0.614   4.866 -0.3990  0.0343  0.8666
 8694SOL    HW334543   5.843   0.740   4.866 -1.2396  0.6277 -0.7440
 8694SOL    MW434544   5.767   0.699   4.851 -1.1781  0.0392  0.4163
 8695SOL     OW34545   6.217   5.276   2.366  0.1750 -0.3492  0.4144
 8695SOL    HW234546   6.247   5.365   2.352  1.8706 -0.7624  1.2715
 8695SOL    HW334547   6.259   5.247   2.446 -1.0919 -1.6181  0.6804
 8695SOL    MW434548   6.226   5.284   2.375  0.2315 -0.5712  0.5626
 8696SOL     OW34549   0.141   3.720   1.866  0.0743 -0.5508  0.6908
 8696SOL    HW234550   0.173   3.803   1.902  2.1079 -1.4181  1.0463
 8696SOL    HW334551   0.192   3.707   1.786 -1.7443 -0.4752 -0.5443
 8696SOL    MW434552   0.152   3.729   1.860  0.1026 -0.6552  0.5748
 8697SOL     OW34553   5.822   4.540   1.400  0.4701 -0.2544  0.1085
 8697SOL    HW234554   5.733   4.538   1.364 -0.2491  1.5301  1.6011
 8697SOL    HW334555   5.872   4.479   1.345 -1.7521 -1.6220 -0.5300
 8697SOL    MW434556   5.817   4.532   1.388  0.0820 -0.1994  0.2212
 8698SOL     OW34557   4.820   5.822   6.082 -0.0707  0.0767  0.1050
 8698SOL    HW234558   4.765   5.900   6.083 -0.9000 -0.4976 -0.0149
 8698SOL    HW334559   4.800   5.777   6.165  1.4075  0.6609  0.8200
 8698SOL    MW434560   4.810   5.826   6.093  0.0149  0.0780  0.1835
 8699SOL     OW34561   0.401   2.820   2.424 -0.3200  0.6294 -0.1903
 8699SOL    HW234562   0.408   2.857   2.512 -0.3948 -0.8547  0.4665
 8699SOL    HW334563   0.371   2.893   2.370 -3.2902  0.8701  1.5822
 8699SOL    MW434564   0.398   2.835   2.429 -0.7217  0.4653  0.1302
 8700SOL     OW34565   0.399   3.482   5.000  0.0246 -0.6682 -0.4713
 8700SOL    HW234566   0.375   3.399   5.041 -1.1477 -0.0161  0.2143
 8700SOL    HW334567   0.488   3.500   5.032  0.1931 -1.5267 -0.4411
 8700SOL    MW434568   0.408   3.474   5.010 -0.1079 -0.6955 -0.3769
 8701SOL     OW34569   3.588   3.498   0.429 -0.0326  0.0845 -0.2337
 8701SOL    HW234570   3.527   3.569   0.445 -0.2772 -0.3025  0.6063
 8701SOL    HW334571   3.668   3.541   0.397 -0.3959  0.6715 -0.3545
 8701SOL    MW434572   3.591   3.513   0.427 -0.1128  0.1109 -0.1389
 8702SOL     OW34573   2.730   4.784  -0.016  0.0607  0.6385  0.0710
 8702SOL    HW234574   2.730   4.821   0.072 -0.8658  2.7162 -0.7252
 8702SOL    HW334575   2.657   4.722  -0.016 -1.0929  1.9520  0.2927
 8702SOL    MW434576   2.720   4.781  -0.004 -0.2138  1.0859 -0.0048
 8703SOL     OW34577   5.067   1.844   2.455 -0.1508 -0.0279  0.2600
 8703SOL    HW234578   5.107   1.771   2.407 -0.4551 -0.1930  0.2553
 8703SOL    HW334579   4.982   1.856   2.413  1.1528  2.4839 -1.9781
 8703SOL    MW434580   5.061   1.836   2.443 -0.0189  0.2817 -0.0359
 8704SOL     OW34581   5.112   3.902   5.419 -0.3986  0.1617  1.0478
 8704SOL    HW234582   5.127   3.857   5.501 -0.2075  0.4195  1.1537
 8704SOL    HW334583   5.097   3.832   5.355 -1.1433 -0.0287  1.4137
 8704SOL    MW434584   5.112   3.887   5.421 -0.4717  0.1706  1.1101
 8705SOL     OW34585   0.688   5.171   4.007 -0.2958 -0.0095  0.1145
 8705SOL    HW234586   0.626   5.238   3.978 -0.2978  0.2947  0.7943
 8705SOL    HW334587   0.774   5.214   4.001 -0.2200 -0.1933 -0.1443
 8705SOL    MW434588   0.692   5.185   4.002 -0.2861  0.0064  0.1700
 8706SOL     OW34589   5.238   5.560   2.086 -0.2902 -1.0340  0.1415
 8706SOL    HW234590   5.153   5.523   2.061 -0.0105 -0.8342 -1.1991
 8706SOL    HW334591   5.301   5.508   2.037  0.4783 -1.9161  1.9805
 8706SOL    MW434592   5.235   5.548   2.076 -0.1519 -1.1240  0.2072
 8707SOL     OW34593   5.781   4.039   5.720  0.2004 -0.2206 -0.3441
 8707SOL    HW234594   5.703   4.003   5.678  0.0058  0.5276 -0.6563
 8707SOL    HW334595   5.818   3.966   5.769 -1.5590 -0.2096  1.0955
 8707SOL    MW434596   5.775   4.025   5.721 -0.0574 -0.1204 -0.1953
 8708SOL     OW34597   4.500   3.764   0.309  0.6318  0.0494 -0.0896
 8708SOL    HW234598   4.543   3.769   0.224  1.0130  1.4935  0.1692
 8708SOL    HW334599   4.544   3.692   0.354 -0.1406 -1.2965 -1.3901
 8708SOL    MW434600   4.511   3.755   0.304  0.5802  0.0624 -0.2270
 8709SOL     OW34601   0.680   3.091   1.338 -0.0946 -0.5372 -0.3137
 8709SOL    HW234602   0.698   3.073   1.246  2.0677  1.3812 -0.3452
 8709SOL    HW334603   0.728   3.023   1.385  0.8379 -0.0795 -0.5822
 8709SOL    MW434604   0.689   3.080   1.332  0.3137 -0.2237 -0.3533
 8710SOL     OW34605   3.682   6.171   1.136  0.0813  0.1614 -0.1117
 8710SOL    HW234606   3.732   6.136   1.062 -0.0111 -1.8163  0.6976
 8710SOL    HW334607   3.598   6.198   1.097 -0.2063 -1.4348 -0.6759
 8710SOL    MW434608   3.677   6.170   1.121  0.0312 -0.3101 -0.0794
 8711SOL     OW34609   4.748   1.040   4.295  0.0846  0.2733  0.0799
 8711SOL    HW234610   4.783   1.097   4.227 -0.8766 -0.9444 -1.4778
 8711SOL    HW334611   4.806   0.965   4.297 -1.3125 -0.9108 -1.2654
 8711SOL    MW434612   4.760   1.038   4.287 -0.2266 -0.0436 -0.3031
 8712SOL     OW34613   5.548   5.192   5.163  0.5233 -0.2780 -0.4757
 8712SOL    HW234614   5.489   5.247   5.110 -3.0594 -2.3025  1.0502
 8712SOL    HW334615   5.542   5.229   5.251  2.2707 -0.0607 -0.4222
 8712SOL    MW434616   5.539   5.204   5.167  0.2812 -0.5164 -0.2673
 8713SOL     OW34617   2.664   3.013   4.565  0.3503  0.3407 -0.2393
 8713SOL    HW234618   2.700   2.962   4.638  0.3702 -1.0840 -1.1961
 8713SOL    HW334619   2.576   3.039   4.594 -0.1395 -1.2985 -0.1609
 8713SOL    MW434620   2.657   3.010   4.578  0.2883 -0.0635 -0.3552
 8714SOL     OW34621   5.088   1.908   4.346  0.0849 -0.6512 -0.0418
 8714SOL    HW234622   5.030   1.874   4.415  0.1356 -2.2656 -0.7501
 8714SOL    HW334623   5.065   1.857   4.268  1.3856 -0.2342 -0.7246
 8714SOL    MW434624   5.077   1.897   4.345  0.2632 -0.8092 -0.2254
 8715SOL     OW34625   0.036   3.085   2.349  0.4075  0.3314  0.1455
 8715SOL    HW234626   0.043   3.171   2.389 -1.2052  0.1118  0.9854
 8715SOL    HW334627  -0.050   3.085   2.305  0.4566 -0.7656  0.0067
 8715SOL    MW434628   0.025   3.096   2.348  0.2012  0.1577  0.2380
 8716SOL     OW34629   1.770   4.179   0.923  0.2119 -0.4896  0.2089
 8716SOL    HW234630   1.799   4.255   0.872 -1.1951  0.6559  1.0623
 8716SOL    HW334631   1.786   4.105   0.865  0.2255  0.6088 -1.2537
 8716SOL    MW434632   1.776   4.179   0.908  0.0280 -0.1935  0.1285
 8717SOL     OW34633   4.276   2.569   5.637 -0.2878  0.1522  0.4908
 8717SOL    HW234634   4.283   2.485   5.682 -0.4285 -0.0636  0.1125
 8717SOL    HW334635   4.347   2.569   5.573  0.2055  0.6555  1.0219
 8717SOL    MW434636   4.286   2.558   5.635 -0.2413  0.1901  0.5109
 8718SOL     OW34637   3.635   2.131   5.571 -0.4236 -0.5974  0.4340
 8718SOL    HW234638   3.724   2.152   5.601 -0.2037  2.4485 -1.8490
 8718SOL    HW334639   3.577   2.174   5.634 -0.2661 -1.1735  0.9864
 8718SOL    MW434640   3.639   2.140   5.583 -0.3738 -0.2716  0.2057
 8719SOL     OW34641   5.968   1.089   0.197  0.2669  0.2347 -0.1571
 8719SOL    HW234642   5.948   1.014   0.253  0.0228  1.8464  2.0581
 8719SOL    HW334643   6.063   1.099   0.203  0.5481 -0.9165 -1.9273
 8719SOL    MW434644   5.978   1.080   0.205  0.2718  0.2955 -0.0984
 8720SOL     OW34645   3.000   1.003   3.118  0.2286 -0.6703 -0.0830
 8720SOL    HW234646   3.061   0.946   3.070  1.9935  0.8599  0.2348
 8720SOL    HW334647   3.052   1.038   3.190 -0.7570  1.4174 -0.3244
 8720SOL    MW434648   3.015   1.000   3.122  0.3315 -0.1930 -0.0729
 8721SOL     OW34649   5.807   5.737   5.908 -0.3813  0.1076 -0.0472
 8721SOL    HW234650   5.778   5.815   5.955  0.9270  0.0970  0.8290
 8721SOL    HW334651   5.749   5.668   5.939 -1.7223  0.7421 -1.0258
 8721SOL    MW434652   5.795   5.738   5.918 -0.3856  0.1899 -0.0607
 8722SOL     OW34653   5.643   2.898   4.467  0.4851 -0.0782  0.3644
 8722SOL    HW234654   5.579   2.838   4.506 -1.5454  0.6472 -1.6164
 8722SOL    HW334655   5.657   2.965   4.533 -1.3921  0.1215  0.6230
 8722SOL    MW434656   5.637   2.899   4.481 -0.0305  0.0439  0.1372
 8723SOL     OW34657   5.008   0.390   3.571 -0.1438 -0.2315  0.5498
 8723SOL    HW234658   4.997   0.296   3.552  0.8587 -0.2134 -0.1682
 8723SOL    HW334659   5.027   0.393   3.665  1.5415 -0.9179  0.2676
 8723SOL    MW434660   5.009   0.378   3.581  0.2108 -0.3197  0.4178
 8724SOL     OW34661   3.322   4.958   4.538  0.3686  0.0672 -0.2590
 8724SOL    HW234662   3.311   4.928   4.628  0.7530 -1.8240 -0.8013
 8724SOL    HW334663   3.408   4.924   4.512  1.1903  2.3179 -0.7139
 8724SOL    MW434664   3.332   4.949   4.547  0.5277  0.1146 -0.3906
 8725SOL     OW34665   1.248   6.248   3.797 -0.4444  0.1133 -0.1178
 8725SOL    HW234666   1.160   6.272   3.824 -0.7440 -1.1122  0.0863
 8725SOL    HW334667   1.276   6.318   3.738 -2.0696 -0.1421 -1.2526
 8725SOL    MW434668   1.240   6.260   3.793 -0.6983 -0.0821 -0.2406
 8726SOL     OW34669   3.368   6.214   2.248 -0.0314  0.2199 -0.0942
 8726SOL    HW234670   3.280   6.235   2.217 -0.2165 -1.0352 -0.4987
 8726SOL    HW334671   3.403   6.297   2.281 -2.0978  0.3832  1.9166
 8726SOL    MW434672   3.361   6.228   2.248 -0.3284  0.0759  0.1177
 8727SOL     OW34673   2.208   1.077   2.143  0.0916 -0.2632 -0.1280
 8727SOL    HW234674   2.237   1.068   2.052  1.1091 -2.3497  0.3329
 8727SOL    HW334675   2.235   1.166   2.168 -1.8738  1.0794 -2.3485
 8727SOL    MW434676   2.216   1.088   2.134 -0.0334 -0.3613 -0.3602
 8728SOL     OW34677   5.511   2.151   1.681 -0.0319  0.9273  0.1200
 8728SOL    HW234678   5.432   2.134   1.732 -0.4332  0.5350 -0.6099
 8728SOL    HW334679   5.582   2.111   1.731 -0.6524 -0.9944 -0.4535
 8728SOL    MW434680   5.510   2.144   1.694 -0.1667  0.6220 -0.0520
 8729SOL     OW34681   1.219   5.627   0.185  0.0884  0.3090 -0.0329
 8729SOL    HW234682   1.135   5.674   0.179  0.4027  0.8204 -0.5794
 8729SOL    HW334683   1.202   5.554   0.245 -1.4814 -1.1005 -2.0301
 8729SOL    MW434684   1.205   5.623   0.192 -0.0772  0.1905 -0.3685
 8730SOL     OW34685   5.771   0.163   3.933 -0.0018  0.1645  0.6755
 8730SOL    HW234686   5.783   0.103   3.859  0.3487  0.5733  0.3978
 8730SOL    HW334687   5.806   0.246   3.902  0.1195  0.3432  1.2942
 8730SOL    MW434688   5.777   0.166   3.919  0.0604  0.2420  0.7205
 8731SOL     OW34689   0.742   2.825   0.596 -0.2070  0.0451 -0.0342
 8731SOL    HW234690   0.674   2.841   0.531 -0.6183 -0.0817  0.3570
 8731SOL    HW334691   0.760   2.731   0.590 -0.6490 -0.0719  0.4198
 8731SOL    MW434692   0.736   2.815   0.587 -0.3196  0.0130  0.0773
 8732SOL     OW34693   0.762   1.503   4.370 -0.2900 -0.7964  0.2396
 8732SOL    HW234694   0.826   1.570   4.346  0.0388 -0.6513  1.4643
 8732SOL    HW334695   0.800   1.421   4.339 -0.4073 -0.5062 -0.7125
 8732SOL    MW434696   0.775   1.501   4.363 -0.2621 -0.7390  0.2756
 8733SOL     OW34697   2.919   0.887   5.426  0.3595  0.3098 -0.1107
 8733SOL    HW234698   2.997   0.922   5.382  0.2378  1.8784  0.8300
 8733SOL    HW334699   2.951   0.857   5.511  0.6676 -3.0667 -1.2702
 8733SOL    MW434700   2.934   0.888   5.431  0.3841  0.0713 -0.1396
 8734SOL     OW34701   5.952   3.869   2.400  0.0667  0.3799  0.3762
 8734SOL    HW234702   5.914   3.807   2.462 -0.1893  0.8289  0.6749
 8734SOL    HW334703   5.882   3.932   2.382 -0.2899 -0.4532 -1.3670
 8734SOL    MW434704   5.938   3.870   2.406 -0.0141  0.3292  0.1856
 8735SOL     OW34705   0.811   3.851   4.619 -0.8391 -0.0522  0.0830
 8735SOL    HW234706   0.717   3.843   4.602 -0.7127 -1.1537 -0.1679
 8735SOL    HW334707   0.849   3.771   4.581  0.1331  0.1416  0.6251
 8735SOL    MW434708   0.804   3.839   4.612 -0.6942 -0.1719  0.1214
 8736SOL     OW34709   3.368   5.139   0.867 -0.3004 -0.4630 -0.3358
 8736SOL    HW234710   3.304   5.190   0.918  0.8318  0.3727  0.2884
 8736SOL    HW334711   3.341   5.151   0.776  0.7663  2.5115 -0.3421
 8736SOL    MW434712   3.356   5.147   0.862 -0.0103  0.0397 -0.2543
 8737SOL     OW34713   0.196   5.530   4.433  0.8815  0.0506  0.8909
 8737SOL    HW234714   0.153   5.611   4.405 -0.3917 -0.0950  2.3090
 8737SOL    HW334715   0.277   5.560   4.476  1.2280  0.4531 -0.0239
 8737SOL    MW434716   0.201   5.545   4.435  0.7592  0.0845  0.9573
 8738SOL     OW34717   1.095   6.027   3.616 -0.1587 -0.0332 -0.0552
 8738SOL    HW234718   1.181   6.065   3.597  0.0585 -1.0015 -1.1421
 8738SOL    HW334719   1.035   6.102   3.616  0.8560  0.8385  2.0894
 8738SOL    MW434720   1.098   6.042   3.613  0.0038 -0.0460  0.0844
 8739SOL     OW34721   5.611   6.188   5.942 -0.4564 -0.1441 -0.3964
 8739SOL    HW234722   5.609   6.187   5.846  1.5219  2.7052 -0.6071
 8739SOL    HW334723   5.651   6.105   5.966 -0.6447 -0.7483 -2.0609
 8739SOL    MW434724   5.616   6.177   5.932 -0.2202  0.1521 -0.6438
 8740SOL     OW34725   0.269   2.082   4.885 -0.4151  0.2337  0.6436
 8740SOL    HW234726   0.335   2.052   4.947 -0.2359  0.5085  0.5907
 8740SOL    HW334727   0.318   2.099   4.804 -0.7835 -0.9896  0.1382
 8740SOL    MW434728   0.284   2.081   4.882 -0.4401  0.1086  0.5699
 8741SOL     OW34729   6.325   5.215   2.631  0.7371  0.3498 -0.0267
 8741SOL    HW234730   6.230   5.203   2.630  0.3835  2.4547 -2.9853
 8741SOL    HW334731   6.360   5.136   2.589  0.2481 -0.0032  0.2144
 8741SOL    MW434732   6.317   5.203   2.626  0.6259  0.5810 -0.3852
 8742SOL     OW34733   2.413   3.134   4.258 -0.1127  0.3893  0.3477
 8742SOL    HW234734   2.362   3.215   4.254 -0.5414  0.1578  0.8814
 8742SOL    HW334735   2.497   3.156   4.220 -1.1134  0.3876 -2.0465
 8742SOL    MW434736   2.417   3.147   4.252 -0.3013  0.3585  0.1022
 8743SOL     OW34737   5.710   0.067   5.509 -0.3399  0.3072 -0.5411
 8743SOL    HW234738   5.633   0.014   5.490 -1.9185  2.5642 -0.9062
 8743SOL    HW334739   5.753   0.023   5.582 -2.1285 -0.8819 -0.1473
 8743SOL    MW434740   5.705   0.054   5.516 -0.7841  0.4481 -0.5373
 8744SOL     OW34741   4.045   1.056   2.618 -0.2035  0.1291 -0.2211
 8744SOL    HW234742   4.133   1.061   2.580 -0.4967 -0.3387 -0.9995
 8744SOL    HW334743   4.048   1.113   2.694  0.6085  0.5799 -0.5785
 8744SOL    MW434744   4.057   1.064   2.623 -0.1351  0.1269 -0.3710
 8745SOL     OW34745   5.553   4.901   0.544  0.1453  0.1291 -0.1910
 8745SOL    HW234746   5.473   4.954   0.546  0.3961  0.5234 -0.4653
 8745SOL    HW334747   5.545   4.843   0.620 -0.4219  0.1338 -0.2400
 8745SOL    MW434748   5.541   4.900   0.554  0.1036  0.1818 -0.2336
 8746SOL     OW34749   6.185   5.760   1.414 -0.6442 -0.6490  0.3077
 8746SOL    HW234750   6.207   5.711   1.493  1.0099 -0.7970 -0.2194
 8746SOL    HW334751   6.158   5.693   1.351  1.0384 -0.8654 -0.2206
 8746SOL    MW434752   6.184   5.745   1.416 -0.2040 -0.6971  0.1684
 8747SOL     OW34753   5.349   3.983   4.726 -0.3236 -0.1664  0.2542
 8747SOL    HW234754   5.372   4.031   4.805 -0.7338 -0.3241  0.4756
 8747SOL    HW334755   5.396   4.027   4.656 -2.0362  1.6660  0.1768
 8747SOL    MW434756   5.358   3.995   4.727 -0.6037  0.0546  0.2732
 8748SOL     OW34757   0.081   4.628   3.420 -0.6003  0.1332  0.0851
 8748SOL    HW234758   0.132   4.575   3.359  0.0456 -0.6193  1.2439
 8748SOL    HW334759  -0.009   4.621   3.388 -0.1254  0.7587 -1.4708
 8748SOL    MW434760   0.076   4.620   3.408 -0.4525  0.1165  0.0327
 8749SOL     OW34761   0.542   2.847   6.376 -0.1648 -0.2512  0.2670
 8749SOL    HW234762   0.491   2.864   6.455  2.0472  0.4760  1.6033
 8749SOL    HW334763   0.603   2.778   6.401  1.8104  1.2442 -0.1957
 8749SOL    MW434764   0.543   2.840   6.390  0.3876  0.0420  0.3823
 8750SOL     OW34765   6.059   2.733   1.682  0.3339  0.0714  0.6328
 8750SOL    HW234766   6.139   2.680   1.685  0.4998  0.3641  2.2386
 8750SOL    HW334767   6.086   2.815   1.642  0.9535  0.3125  1.5063
 8750SOL    MW434768   6.073   2.737   1.677  0.4375  0.1418  0.9599
 8751SOL     OW34769   4.332   4.997   4.026  0.4280  0.4111  0.1806
 8751SOL    HW234770   4.323   4.951   3.942 -0.3439 -1.2986  1.1464
 8751SOL    HW334771   4.244   5.027   4.046  0.1901 -0.9345  1.2891
 8751SOL    MW434772   4.319   4.995   4.017  0.2948  0.0080  0.4543
 8752SOL     OW34773   3.666   2.572   3.932  0.5834 -0.2212 -0.3432
 8752SOL    HW234774   3.631   2.574   3.843  0.6127 -0.0938 -0.3518
 8752SOL    HW334775   3.745   2.627   3.928  0.9442 -0.7287 -0.3906
 8752SOL    MW434776   3.672   2.580   3.919  0.6349 -0.2714 -0.3506
 8753SOL     OW34777   2.414   5.443   0.801  0.1812  0.1378 -1.0263
 8753SOL    HW234778   2.387   5.362   0.759  0.9287 -2.1438  2.4126
 8753SOL    HW334779   2.509   5.446   0.788  0.2364  0.1303 -0.6306
 8753SOL    MW434780   2.423   5.433   0.794  0.2871 -0.1643 -0.5203
 8754SOL     OW34781   0.303   2.727   5.080  0.5732  0.2475  0.1651
 8754SOL    HW234782   0.330   2.644   5.120  0.1917  0.2823  0.5017
 8754SOL    HW334783   0.290   2.786   5.155  1.5195  0.8239 -0.1004
 8754SOL    MW434784   0.305   2.724   5.095  0.6477  0.3281  0.1745
 8755SOL     OW34785   1.748   4.618   5.941 -0.1344  0.5431 -0.0591
 8755SOL    HW234786   1.698   4.699   5.928 -2.5484 -1.1907 -2.8574
 8755SOL    HW334787   1.689   4.562   5.993 -0.0718 -0.5996 -1.1538
 8755SOL    MW434788   1.733   4.621   5.946 -0.4446  0.1635 -0.5727
 8756SOL     OW34789   1.817   2.454   0.866  0.0851  0.0614  0.0564
 8756SOL    HW234790   1.851   2.462   0.776  1.6386  0.0973  0.6034
 8756SOL    HW334791   1.859   2.526   0.913 -1.5761  0.7197  0.5876
 8756SOL    MW434792   1.827   2.465   0.860  0.0709  0.1530  0.1986
 8757SOL     OW34793   5.154   1.636   1.558 -0.0545 -0.6495  0.0559
 8757SOL    HW234794   5.243   1.629   1.523 -0.9473 -0.8884 -2.3794
 8757SOL    HW334795   5.111   1.701   1.502 -1.8324 -1.6586  0.1685
 8757SOL    MW434796   5.160   1.643   1.546 -0.4069 -0.8141 -0.2505
 8758SOL     OW34797   3.475   1.813   3.245 -0.1065 -0.5386  0.5262
 8758SOL    HW234798   3.538   1.883   3.229  0.0276 -0.1829  2.4089
 8758SOL    HW334799   3.527   1.733   3.244  0.0922 -0.4089  0.4253
 8758SOL    MW434800   3.490   1.812   3.243 -0.0626 -0.4745  0.7613
 8759SOL     OW34801   1.874   1.019   5.654  0.0328  0.6418 -0.4159
 8759SOL    HW234802   1.907   0.974   5.732 -1.8286  0.0275  0.0802
 8759SOL    HW334803   1.903   1.110   5.665 -1.9189  1.0780  2.1451
 8759SOL    MW434804   1.882   1.025   5.666 -0.4703  0.6183 -0.0126
 8760SOL     OW34805   4.727   2.995   1.019  0.6823 -0.0745 -0.3385
 8760SOL    HW234806   4.819   3.023   1.021  0.3156  1.1451  1.0598
 8760SOL    HW334807   4.693   3.017   1.106 -1.3404  0.9088 -1.3075
 8760SOL    MW434808   4.735   3.001   1.031  0.3670  0.2161 -0.2818
 8761SOL     OW34809   3.586   1.582   6.181 -0.1463 -0.4359 -0.9002
 8761SOL    HW234810   3.497   1.613   6.197  0.3519  0.5137  0.1623
 8761SOL    HW334811   3.601   1.599   6.088  0.2693  3.1589 -0.3200
 8761SOL    MW434812   3.576   1.588   6.171 -0.0258  0.1637 -0.6834
 8762SOL     OW34813   0.386   0.679   2.494  0.2847 -0.4019 -0.4251
 8762SOL    HW234814   0.351   0.710   2.578 -0.1473 -1.0260 -0.3660
 8762SOL    HW334815   0.480   0.672   2.509  0.1803 -0.7902  0.1117
 8762SOL    MW434816   0.393   0.682   2.507  0.2139 -0.5354 -0.3465
 8763SOL     OW34817   0.329   4.899   1.117 -0.2616  0.0928 -0.6601
 8763SOL    HW234818   0.419   4.867   1.117 -0.6011 -0.9262  0.5603
 8763SOL    HW334819   0.279   4.832   1.071 -0.7746 -0.5540  0.7991
 8763SOL    MW434820   0.334   4.886   1.111 -0.3741 -0.1270 -0.3066
 8764SOL     OW34821   0.902   3.590   2.416  0.0494 -0.3629  0.2212
 8764SOL    HW234822   0.978   3.638   2.382 -0.2234 -0.3312 -0.3535
 8764SOL    HW334823   0.936   3.540   2.490  0.7716 -0.8283 -0.4089
 8764SOL    MW434824   0.917   3.590   2.421  0.1087 -0.4201  0.0622
 8765SOL     OW34825   2.724   3.488   1.243 -0.2515 -0.2657 -0.5715
 8765SOL    HW234826   2.632   3.514   1.234 -0.0658  0.4537 -0.4125
 8765SOL    HW334827   2.740   3.486   1.337 -0.3704 -1.3588 -0.5637
 8765SOL    MW434828   2.714   3.491   1.254 -0.2427 -0.3150 -0.5495
 8766SOL     OW34829   2.989   1.410   3.951 -0.3733 -0.6472  1.0579
 8766SOL    HW234830   2.974   1.319   3.974  0.0441 -1.0797 -0.2489
 8766SOL    HW334831   2.959   1.417   3.860 -0.4618  0.5320  1.1598
 8766SOL    MW434832   2.983   1.399   3.942 -0.3299 -0.5487  0.8989
 8767SOL     OW34833   4.227   3.634   5.855 -0.1700 -0.8160 -0.9517
 8767SOL    HW234834   4.298   3.633   5.919  1.8473 -2.5930 -3.0368
 8767SOL    HW334835   4.187   3.720   5.864  2.9769  0.7069 -0.3968
 8767SOL    MW434836   4.231   3.645   5.865  0.5114 -0.8495 -1.1536
 8768SOL     OW34837   4.322   2.982   0.187 -0.0145  0.4367  0.1568
 8768SOL    HW234838   4.373   3.031   0.251 -1.3035  2.1861 -0.1062
 8768SOL    HW334839   4.287   2.908   0.236  0.0197  1.0817  1.1732
 8768SOL    MW434840   4.324   2.978   0.202 -0.1801  0.7526  0.2562
 8769SOL     OW34841   3.952   1.203   0.500 -0.5962 -0.4614 -0.0547
 8769SOL    HW234842   4.021   1.267   0.481 -0.3224 -0.3646  1.1632
 8769SOL    HW334843   3.994   1.118   0.483 -0.5753 -0.3636 -0.5059
 8769SOL    MW434844   3.967   1.200   0.495 -0.5573 -0.4358  0.0465
 8770SOL     OW34845   5.358   1.508   1.208 -0.4585 -0.1283 -0.2581
 8770SOL    HW234846   5.434   1.452   1.225 -1.0817 -0.9621 -0.2121
 8770SOL    HW334847   5.298   1.491   1.281  0.2092  2.1718  0.9368
 8770SOL    MW434848   5.360   1.499   1.220 -0.4526  0.0652 -0.0944
 8771SOL     OW34849   3.129   5.939   4.202 -0.0855  0.3183 -0.5118
 8771SOL    HW234850   3.034   5.928   4.193 -0.1943  1.1045 -0.4234
 8771SOL    HW334851   3.141   6.034   4.211  0.3505  0.0782  3.4676
 8771SOL    MW434852   3.118   5.950   4.202 -0.0423  0.3903  0.0249
 8772SOL     OW34853   4.015   4.408   5.625 -0.4793 -0.1705 -0.0456
 8772SOL    HW234854   4.067   4.356   5.686  0.8035 -0.3369 -1.2088
 8772SOL    HW334855   4.040   4.374   5.538  1.3573  3.1080 -0.9513
 8772SOL    MW434856   4.025   4.396   5.621 -0.0677  0.2401 -0.3186
 8773SOL     OW34857   2.020   1.152   5.212 -0.4520 -0.6597 -0.2132
 8773SOL    HW234858   1.988   1.208   5.141 -0.3629 -1.5192 -0.9517
 8773SOL    HW334859   2.115   1.152   5.202 -0.0774  2.1395  2.1667
 8773SOL    MW434860   2.028   1.159   5.201 -0.3908 -0.4038  0.0034
 8774SOL     OW34861   0.625   5.710   5.705 -0.0334  0.0458  0.4289
 8774SOL    HW234862   0.673   5.749   5.778  0.8723 -0.4615  0.1251
 8774SOL    HW334863   0.592   5.784   5.654  0.5836  0.4000  0.5449
 8774SOL    MW434864   0.627   5.725   5.708  0.1675  0.0256  0.4041
 8775SOL     OW34865   0.743   2.408   2.421 -0.0710 -0.5095 -0.0741
 8775SOL    HW234866   0.767   2.318   2.441  1.5887 -0.1869 -0.4643
 8775SOL    HW334867   0.772   2.422   2.331 -2.4327 -0.2594 -0.8939
 8775SOL    MW434868   0.750   2.398   2.412 -0.1636 -0.4339 -0.2338
 8776SOL     OW34869   4.332   0.417   6.261 -0.0612  0.4156 -0.5767
 8776SOL    HW234870   4.380   0.483   6.212 -2.2624  0.5053 -2.7794
 8776SOL    HW334871   4.302   0.355   6.195 -0.8338 -0.9928  1.0317
 8776SOL    MW434872   4.335   0.418   6.246 -0.4536  0.2416 -0.6551
 8777SOL     OW34873   6.279   2.413   5.906  0.1014 -0.5065 -0.8152
 8777SOL    HW234874   6.255   2.321   5.905  0.2470 -0.5514 -0.4901
 8777SOL    HW334875   6.271   2.442   5.815 -0.2242 -0.7657 -0.8697
 8777SOL    MW434876   6.275   2.405   5.894  0.0776 -0.5467 -0.7795
 8778SOL     OW34877   5.179   6.169   5.249  0.4654 -0.0315 -0.4630
 8778SOL    HW234878   5.105   6.111   5.230 -1.8521  2.9639 -1.3792
 8778SOL    HW334879   5.168   6.191   5.342  0.9827 -0.5225 -0.2776
 8778SOL    MW434880   5.167   6.164   5.259  0.2279  0.2989 -0.5595
 8779SOL     OW34881   1.920   5.431   5.856 -0.4472 -0.5370 -0.1258
 8779SOL    HW234882   2.007   5.471   5.865  0.2414 -1.6224 -1.4734
 8779SOL    HW334883   1.884   5.469   5.776 -1.5063  0.3570  0.7429
 8779SOL    MW434884   1.927   5.441   5.847 -0.4961 -0.5622 -0.1890
 8780SOL     OW34885   6.294   6.409   3.223 -0.1091 -0.6218  0.1980
 8780SOL    HW234886   6.382   6.372   3.229  0.1014 -0.0394  0.9989
 8780SOL    HW334887   6.236   6.334   3.215  0.4900 -0.9923 -0.7932
 8780SOL    MW434888   6.298   6.395   3.223 -0.0023 -0.5938  0.1729
 8781SOL     OW34889   4.476   6.214   2.304  0.0844 -0.4234  0.5150
 8781SOL    HW234890   4.449   6.215   2.396 -1.1482 -1.2944  0.1830
 8781SOL    HW334891   4.437   6.134   2.268  0.2043  0.1094 -0.8675
 8781SOL    MW434892   4.467   6.204   2.311 -0.0624 -0.4680  0.2888
 8782SOL     OW34893   2.635   4.745   3.008  0.5028 -0.1359 -0.2873
 8782SOL    HW234894   2.605   4.657   2.983  0.2684  0.0469 -0.6686
 8782SOL    HW334895   2.682   4.732   3.090  1.7684 -0.8541 -1.0870
 8782SOL    MW434896   2.637   4.731   3.015  0.6389 -0.2066 -0.4431
 8783SOL     OW34897   1.598   0.301   3.026 -0.0278 -0.1489  0.2333
 8783SOL    HW234898   1.635   0.382   2.992  1.6056 -1.0163 -0.1576
 8783SOL    HW334899   1.587   0.245   2.949 -1.3014 -0.2775  0.4739
 8783SOL    MW434900   1.601   0.304   3.011  0.0197 -0.2803  0.2135
 8784SOL     OW34901   5.178   4.558   2.678 -0.3052 -0.0266  0.0641
 8784SOL    HW234902   5.272   4.545   2.677 -0.1915  0.6747 -1.7624
 8784SOL    HW334903   5.154   4.552   2.770  1.1508 -2.5978  0.3630
 8784SOL    MW434904   5.187   4.556   2.690 -0.0981 -0.2733 -0.1374
 8785SOL     OW34905   3.951   2.508   1.658  0.0575 -0.2278  0.5506
 8785SOL    HW234906   3.856   2.498   1.646 -0.6654  2.7347  2.5556
 8785SOL    HW334907   3.965   2.491   1.751  1.4092 -0.0933  0.3908
 8785SOL    MW434908   3.940   2.504   1.669  0.1404  0.1808  0.7940
 8786SOL     OW34909   2.023   3.784   5.549  0.4344 -0.1144  0.4766
 8786SOL    HW234910   1.977   3.791   5.632  0.5816 -0.0046  0.5498
 8786SOL    HW334911   1.981   3.710   5.504 -0.6424  0.7485  0.0090
 8786SOL    MW434912   2.012   3.775   5.554  0.3117  0.0140  0.4245
 8787SOL     OW34913   0.261   4.198   2.827 -0.1985  0.3626 -0.9873
 8787SOL    HW234914   0.180   4.147   2.832 -1.8531  2.6248 -2.2222
 8787SOL    HW334915   0.307   4.178   2.908 -2.7535  0.0966  0.5282
 8787SOL    MW434916   0.256   4.189   2.838 -0.7539  0.6260 -0.9503
 8788SOL     OW34917   1.169   6.424   4.259 -0.1567 -0.2425 -0.2364
 8788SOL    HW234918   1.164   6.499   4.199  0.2884  0.3961  0.5063
 8788SOL    HW334919   1.232   6.365   4.218  0.3899  0.3345 -0.2540
 8788SOL    MW434920   1.177   6.426   4.246 -0.0259 -0.0821 -0.1408
 8789SOL     OW34921   2.502   1.685   3.719  0.3974 -0.0621 -0.1018
 8789SOL    HW234922   2.588   1.691   3.677  0.5730  0.2647  0.2939
 8789SOL    HW334923   2.521   1.649   3.806  0.4571  2.2367  0.9102
 8789SOL    MW434924   2.516   1.681   3.725  0.4284  0.2843  0.0839
 8790SOL     OW34925   1.936   4.593   1.557 -0.7698 -0.3430  0.0283
 8790SOL    HW234926   1.994   4.659   1.596  2.7322 -1.3295 -2.9250
 8790SOL    HW334927   1.983   4.510   1.571 -3.2975 -1.7677  0.5510
 8790SOL    MW434928   1.950   4.591   1.564 -0.6413 -0.6611 -0.2924
 8791SOL     OW34929   4.559   4.210   1.904  0.0162  0.1543  0.1351
 8791SOL    HW234930   4.638   4.255   1.937  0.2339  0.8319 -1.2246
 8791SOL    HW334931   4.497   4.215   1.977  1.3133 -0.6771  1.3617
 8791SOL    MW434932   4.561   4.217   1.918  0.2160  0.1340  0.1175
 8792SOL     OW34933   0.880   4.421   4.146 -0.0293 -0.3129 -0.0611
 8792SOL    HW234934   0.835   4.447   4.065 -0.0552 -0.9173 -0.2499
 8792SOL    HW334935   0.821   4.448   4.216 -0.3628 -0.4644 -0.2794
 8792SOL    MW434936   0.866   4.428   4.144 -0.0767 -0.4126 -0.1148
 8793SOL     OW34937   0.279   2.583   4.128 -0.5578  0.0873  0.0869
 8793SOL    HW234938   0.205   2.549   4.177 -1.1085  1.1278 -0.0162
 8793SOL    HW334939   0.355   2.535   4.163 -1.0017  0.4204  1.5531
 8793SOL    MW434940   0.279   2.572   4.139 -0.6890  0.2685  0.2667
 8794SOL     OW34941   4.996   2.808   1.059 -0.0069  0.0175  0.3698
 8794SOL    HW234942   5.054   2.882   1.041  2.7775 -2.0266  0.2582
 8794SOL    HW334943   4.970   2.777   0.972  1.4575 -1.0270  0.2832
 8794SOL    MW434944   5.000   2.814   1.045  0.5537 -0.3900  0.3437
 8795SOL     OW34945   1.057   5.018   3.047 -0.1757 -0.5575 -0.4559
 8795SOL    HW234946   1.125   5.073   3.007 -0.3246  0.8057  1.0804
 8795SOL    HW334947   0.988   5.015   2.981  0.3660  0.0472 -1.0761
 8795SOL    MW434948   1.057   5.025   3.033 -0.1239 -0.2978 -0.3350
 8796SOL     OW34949   2.223   0.388   3.234  0.2965 -0.6496  0.3555
 8796SOL    HW234950   2.163   0.351   3.299 -3.1875  1.1083 -1.5760
 8796SOL    HW334951   2.197   0.347   3.152  0.5626  1.3717 -0.8114
 8796SOL    MW434952   2.211   0.378   3.232 -0.1281 -0.1510 -0.0533
 8797SOL     OW34953   2.795   4.439   3.776 -0.0365 -0.1889 -0.4283
 8797SOL    HW234954   2.867   4.491   3.739  1.7519 -2.4705 -0.4115
 8797SOL    HW334955   2.788   4.470   3.866  1.4849 -0.4154 -0.1997
 8797SOL    MW434956   2.804   4.450   3.783  0.4002 -0.5198 -0.3959
 8798SOL     OW34957   3.778   1.704   2.528  0.2996  0.4630  0.1846
 8798SOL    HW234958   3.834   1.688   2.603  0.3541  0.9962  0.2623
 8798SOL    HW334959   3.710   1.637   2.534 -0.0344  0.8631  1.0464
 8798SOL    MW434960   3.776   1.693   2.539  0.2627  0.5861  0.3086
 8799SOL     OW34961   5.972   6.316   1.462  0.4526 -0.0619  0.0409
 8799SOL    HW234962   6.058   6.322   1.506  0.7030  1.1920 -0.5649
 8799SOL    HW334963   5.948   6.224   1.470  1.2844 -0.2050  1.3064
 8799SOL    MW434964   5.980   6.305   1.469  0.5954  0.0847  0.1279
 8800SOL     OW34965   3.656   1.806   5.207  0.1513  0.0400  0.2275
 8800SOL    HW234966   3.641   1.882   5.263  2.4308  1.2962 -0.7404
 8800SOL    HW334967   3.571   1.762   5.202 -1.4209  2.8627  0.3446
 8800SOL    MW434968   3.643   1.810   5.214  0.2446  0.5782  0.1152
 8801SOL     OW34969   3.615   2.829   3.760  0.1549 -0.1968  0.3738
 8801SOL    HW234970   3.531   2.806   3.802  0.2757 -0.0707  0.6866
 8801SOL    HW334971   3.681   2.803   3.824  0.3694 -0.5103  0.0298
 8801SOL    MW434972   3.612   2.823   3.774  0.1991 -0.2215  0.3697
 8802SOL     OW34973  -0.033   6.155   1.181  0.3673 -0.5629 -0.0802
 8802SOL    HW234974  -0.122   6.182   1.156  0.3953  0.4321  0.8171
 8802SOL    HW334975  -0.046   6.074   1.230 -0.3085  0.7494  2.0252
 8802SOL    MW434976  -0.047   6.148   1.184  0.2818 -0.2585  0.3160
 8803SOL     OW34977   4.015   5.174   4.387  0.1345 -0.3781  0.4597
 8803SOL    HW234978   3.920   5.174   4.374  0.2894 -0.5605 -0.8531
 8803SOL    HW334979   4.051   5.156   4.300  1.3977  0.3732  0.7978
 8803SOL    MW434980   4.007   5.171   4.373  0.3216 -0.3030  0.3311
 8804SOL     OW34981   5.049   0.064   4.570  0.6531  0.6502  0.0533
 8804SOL    HW234982   5.065   0.096   4.659 -0.8153 -1.1840  1.0353
 8804SOL    HW334983   4.959   0.090   4.550 -0.2674 -1.9142  0.5330
 8804SOL    MW434984   5.040   0.072   4.579  0.3379  0.0699  0.2462
 8805SOL     OW34985   3.877   0.164   5.741 -0.6991  0.6100  0.3984
 8805SOL    HW234986   3.842   0.221   5.672  1.1914  1.0048 -0.2801
 8805SOL    HW334987   3.957   0.207   5.769  0.7094 -1.5931 -0.0075
 8805SOL    MW434988   3.883   0.177   5.735 -0.2639  0.3714  0.2553
 8806SOL     OW34989   1.062   0.842   2.799 -0.1983  0.1814  0.2475
 8806SOL    HW234990   0.994   0.817   2.861 -0.9752  3.2549  0.7923
 8806SOL    HW334991   1.125   0.893   2.851  1.1698 -0.4107 -0.7648
 8806SOL    MW434992   1.062   0.845   2.814 -0.1203  0.5088  0.1858
 8807SOL     OW34993   5.971   4.241   0.583 -0.0209 -0.1500  0.0856
 8807SOL    HW234994   5.884   4.281   0.595 -0.1721 -0.4929  0.1365
 8807SOL    HW334995   6.008   4.288   0.509 -1.0595 -1.3477 -1.2470
 8807SOL    MW434996   5.964   4.253   0.575 -0.1779 -0.3533 -0.0835
 8808SOL     OW34997   1.750   2.347   3.242  0.3934  0.3830  0.8498
 8808SOL    HW234998   1.675   2.289   3.227 -0.8220  1.6286  1.7147
 8808SOL    HW334999   1.826   2.297   3.215 -0.8162 -0.6735 -0.7815
 8808SOL    MW435000   1.750   2.333   3.237  0.0734  0.4079  0.7486
 8809SOL     OW35001   3.471   1.259   5.307  0.0128  0.3004 -0.2328
 8809SOL    HW235002   3.492   1.228   5.395 -1.2519 -1.6791 -0.5514
 8809SOL    HW335003   3.416   1.335   5.321  2.4756  2.0543  0.6032
 8809SOL    MW435004   3.467   1.265   5.321  0.1709  0.2706 -0.1646
 8810SOL     OW35005   4.185   4.276   5.807 -0.7261 -0.1628  0.4823
 8810SOL    HW235006   4.243   4.324   5.748  1.3177 -0.5143  2.0850
 8810SOL    HW335007   4.197   4.184   5.782  0.8804 -0.4008  1.9670
 8810SOL    MW435008   4.194   4.270   5.796 -0.2445 -0.2406  0.8897
 8811SOL     OW35009   2.228   4.327   3.521  0.2037  0.1968 -1.3418
 8811SOL    HW235010   2.266   4.266   3.585 -0.0414 -0.0600 -1.4409
 8811SOL    HW335011   2.150   4.283   3.489 -0.2688  0.7918 -1.0261
 8811SOL    MW435012   2.223   4.313   3.525  0.1090  0.2414 -1.3132
 8812SOL     OW35013   3.833   2.787   1.382 -0.4576  0.1025  0.1218
 8812SOL    HW235014   3.888   2.826   1.450 -1.3773 -0.3724  1.1814
 8812SOL    HW335015   3.840   2.693   1.398  1.0256 -0.1668 -1.8347
 8812SOL    MW435016   3.841   2.780   1.393 -0.3833  0.0043  0.0035
 8813SOL     OW35017   6.066   0.295   4.948 -0.0944  0.0747  0.6719
 8813SOL    HW235018   6.088   0.388   4.945 -1.3270  0.6117  3.8373
 8813SOL    HW335019   6.148   0.250   4.925  1.0433  1.9191  0.8955
 8813SOL    MW435020   6.080   0.302   4.945 -0.1070  0.3889  1.1191
 8814SOL     OW35021   5.074   1.860   4.083 -0.2792 -0.6649  0.0413
 8814SOL    HW235022   5.143   1.874   4.018  0.2635  0.8798  0.8842
 8814SOL    HW335023   4.994   1.891   4.040 -0.4212 -2.1501 -0.8196
 8814SOL    MW435024   5.073   1.866   4.069 -0.2263 -0.6571  0.0390
 8815SOL     OW35025   4.003   3.428   3.502  0.2793  1.0203 -0.2340
 8815SOL    HW235026   4.052   3.346   3.494 -0.6978  0.2824  0.9425
 8815SOL    HW335027   3.959   3.421   3.586 -0.1548  2.5954 -0.3003
 8815SOL    MW435028   4.004   3.416   3.512  0.0931  1.1307 -0.0875
 8816SOL     OW35029   3.362   0.745   6.051 -0.3929 -0.0180 -0.2085
 8816SOL    HW235030   3.428   0.814   6.044 -0.2800 -0.2563 -2.4597
 8816SOL    HW335031   3.413   0.665   6.064 -0.3779  0.0396  0.0964
 8816SOL    MW435032   3.378   0.744   6.051 -0.3760 -0.0418 -0.4653
 8817SOL     OW35033   2.173   4.065   0.290  0.1261  0.5392  0.4842
 8817SOL    HW235034   2.210   4.003   0.227  0.2198  2.1509 -1.1098
 8817SOL    HW335035   2.244   4.082   0.351  0.1011 -0.8778  0.9556
 8817SOL    MW435036   2.187   4.059   0.290  0.1351  0.5649  0.3361
 8818SOL     OW35037   0.067   4.495   4.230 -0.2109  0.2278  0.2391
 8818SOL    HW235038   0.021   4.464   4.152  1.5190  1.1316 -1.2233
 8818SOL    HW335039   0.027   4.447   4.302 -2.1246 -0.3810 -1.1419
 8818SOL    MW435040   0.056   4.484   4.229 -0.2351  0.2667 -0.1361
 8819SOL     OW35041   0.275   6.030   5.679  0.5371  0.4647  0.4040
 8819SOL    HW235042   0.234   6.098   5.627  0.2941 -0.0460 -0.0849
 8819SOL    HW335043   0.249   6.049   5.769  0.4202  0.9750  0.2660
 8819SOL    MW435044   0.266   6.041   5.684  0.4896  0.4646  0.3213
 8820SOL     OW35045   0.124   4.492   4.541  0.0869  0.0773  0.2261
 8820SOL    HW235046   0.075   4.448   4.610  0.2398  0.6073  0.6801
 8820SOL    HW335047   0.145   4.578   4.577 -0.5153  0.6657 -0.7695
 8820SOL    MW435048   0.121   4.498   4.555  0.0276  0.2248  0.1547
 8821SOL     OW35049   3.210   1.761   5.090  0.3306 -0.1780  0.0850
 8821SOL    HW235050   3.258   1.773   5.009 -0.3564 -0.1807 -0.3353
 8821SOL    HW335051   3.220   1.844   5.138 -1.0305  0.6484 -0.9759
 8821SOL    MW435052   3.217   1.774   5.086  0.0604 -0.0693 -0.1104
 8822SOL     OW35053   2.070   6.278   0.228  0.5130 -0.3823  0.5988
 8822SOL    HW235054   2.005   6.254   0.294 -1.0280 -0.3823 -0.8863
 8822SOL    HW335055   2.038   6.359   0.189  1.0342 -0.7412 -0.6334
 8822SOL    MW435056   2.057   6.286   0.232  0.3784 -0.4296  0.2403
 8823SOL     OW35057   4.970   1.616   2.079 -0.0065 -0.7208  0.0883
 8823SOL    HW235058   4.908   1.687   2.067 -0.2638 -0.6130  1.7985
 8823SOL    HW335059   5.026   1.619   2.001 -1.1299  0.1971 -0.7043
 8823SOL    MW435060   4.969   1.626   2.067 -0.1886 -0.5855  0.2094
 8824SOL     OW35061   1.685   5.619   2.803  0.6616  0.1102 -0.1696
 8824SOL    HW235062   1.718   5.654   2.885 -1.8192  3.0788 -0.2511
 8824SOL    HW335063   1.618   5.555   2.829 -0.8399  1.7678  0.2647
 8824SOL    MW435064   1.680   5.615   2.817  0.1362  0.7206 -0.1231
 8825SOL     OW35065   5.883   2.053   3.369  0.0526  0.1092  0.8028
 8825SOL    HW235066   5.801   2.100   3.378 -0.0381  0.3061 -0.7189
 8825SOL    HW335067   5.946   2.119   3.339 -0.2513 -0.7576 -2.1066
 8825SOL    MW435068   5.881   2.068   3.366  0.0005  0.0208  0.2182
 8826SOL     OW35069   3.991   3.996   0.483 -0.0943 -0.1435  0.0417
 8826SOL    HW235070   4.050   4.062   0.447 -1.2623  0.8200 -0.1454
 8826SOL    HW335071   4.042   3.954   0.553  0.5721  1.1432  0.3437
 8826SOL    MW435072   4.005   3.999   0.488 -0.1605  0.1534  0.0569
 8827SOL     OW35073   3.536   3.227   3.562  0.3419 -0.4364  0.2305
 8827SOL    HW235074   3.490   3.310   3.549  0.6918 -0.3573 -0.5424
 8827SOL    HW335075   3.498   3.168   3.497 -0.0688 -0.9626  0.9284
 8827SOL    MW435076   3.525   3.230   3.552  0.3339 -0.4954  0.2206
 8828SOL     OW35077   3.480   5.886   5.816  0.4373  0.3028 -0.1335
 8828SOL    HW235078   3.452   5.873   5.907  1.9993  0.9001  0.4828
 8828SOL    HW335079   3.431   5.822   5.766 -0.8969  0.3478  1.0457
 8828SOL    MW435080   3.470   5.876   5.821  0.4673  0.3875  0.1034
 8829SOL     OW35081   6.129   2.526   0.554 -0.2185 -0.1979 -0.2286
 8829SOL    HW235082   6.126   2.589   0.481 -2.4797  0.0763  0.0336
 8829SOL    HW335083   6.156   2.578   0.629  4.6094 -0.9369 -1.1522
 8829SOL    MW435084   6.132   2.542   0.554  0.1201 -0.2592 -0.3158
 8830SOL     OW35085   3.967   1.864   1.639 -0.2554  0.0875  0.3863
 8830SOL    HW235086   3.982   1.949   1.681 -0.5586  0.2769  0.1193
 8830SOL    HW335087   4.037   1.857   1.573 -1.8700  1.4527 -1.5964
 8830SOL    MW435088   3.978   1.874   1.636 -0.5084  0.2926  0.0895
 8831SOL     OW35089   2.712   3.440   5.651  0.1884  0.1093 -0.8102
 8831SOL    HW235090   2.723   3.456   5.745  1.7694  1.4274 -1.1934
 8831SOL    HW335091   2.746   3.351   5.638  1.2184  0.4156 -0.3311
 8831SOL    MW435092   2.718   3.430   5.662  0.5329  0.3236 -0.7976
 8832SOL     OW35093   5.350   4.850   5.440  0.4554 -0.6354  0.2034
 8832SOL    HW235094   5.286   4.915   5.469 -1.6702 -2.4647 -0.1502
 8832SOL    HW335095   5.316   4.766   5.472  1.3437 -1.9979 -2.1398
 8832SOL    MW435096   5.337   4.847   5.448  0.2921 -1.0565 -0.1524
 8833SOL     OW35097   4.218   3.828   4.235  0.1234  0.6356 -0.1465
 8833SOL    HW235098   4.221   3.859   4.325 -0.0872  0.3438 -0.0353
 8833SOL    HW335099   4.126   3.836   4.210  0.6966  4.3622 -1.6496
 8833SOL    MW435100   4.206   3.833   4.243  0.1712  1.0888 -0.3302
 8834SOL     OW35101   4.048   0.537   5.120 -0.0185 -0.5252  0.3460
 8834SOL    HW235102   3.981   0.490   5.170 -0.2121 -2.6071 -1.7358
 8834SOL    HW335103   4.008   0.554   5.035  1.2784  0.3779 -0.1197
 8834SOL    MW435104   4.034   0.533   5.116  0.1271 -0.6808  0.0099
 8835SOL     OW35105   1.236   2.629   4.597  0.2862  0.0216 -0.4775
 8835SOL    HW235106   1.331   2.621   4.598  0.2569 -0.5594 -1.1846
 8835SOL    HW335107   1.205   2.546   4.632  0.0362 -0.0500 -0.8606
 8835SOL    MW435108   1.244   2.617   4.602  0.2493 -0.0645 -0.6213
 8836SOL     OW35109   4.817   1.501   1.419 -0.0768  0.3823 -0.0103
 8836SOL    HW235110   4.772   1.422   1.386  0.0389 -1.1427  3.1596
 8836SOL    HW335111   4.747   1.566   1.426 -0.2907  0.4552 -2.1048
 8836SOL    MW435112   4.802   1.499   1.415 -0.0898  0.1907  0.1316
 8837SOL     OW35113   1.710   1.172   2.579  0.6438  0.3073  0.1724
 8837SOL    HW235114   1.678   1.260   2.563 -0.0916  0.0234  0.0382
 8837SOL    HW335115   1.664   1.118   2.515  0.0708 -0.3724  1.1430
 8837SOL    MW435116   1.700   1.176   2.569  0.4712  0.1801  0.2827
 8838SOL     OW35117   5.139   2.596   0.696 -0.3767 -0.5038 -1.1392
 8838SOL    HW235118   5.192   2.615   0.774 -1.5607 -0.2139 -0.3836
 8838SOL    HW335119   5.204   2.581   0.627  0.6878  0.7135 -0.4625
 8838SOL    MW435120   5.155   2.597   0.697 -0.3925 -0.3049 -0.9502
 8839SOL     OW35121   1.349   2.930   0.438 -0.0974  0.4058  0.2418
 8839SOL    HW235122   1.412   2.999   0.417 -0.2772  0.7806  0.9158
 8839SOL    HW335123   1.367   2.861   0.373  1.2200  0.3609  0.6220
 8839SOL    MW435124   1.360   2.930   0.426  0.0527  0.4493  0.3809
 8840SOL     OW35125   6.274   6.050   4.698  0.1998 -0.4000  0.2834
 8840SOL    HW235126   6.271   6.129   4.646  1.1642  0.2840  1.2085
 8840SOL    HW335127   6.203   6.060   4.762 -0.5033 -0.8929 -0.4066
 8840SOL    MW435128   6.264   6.061   4.700  0.2343 -0.3748  0.3144
 8841SOL     OW35129   0.216   2.386   4.509  0.1171 -0.1502  0.3991
 8841SOL    HW235130   0.172   2.307   4.478  0.1356  0.4130 -1.1982
 8841SOL    HW335131   0.176   2.404   4.594 -1.7804 -0.4475 -0.3639
 8841SOL    MW435132   0.205   2.378   4.516 -0.1308 -0.1151  0.0877
 8842SOL     OW35133   4.760   6.201   3.293 -0.1023  0.5658 -0.0364
 8842SOL    HW235134   4.779   6.262   3.364 -0.1898 -0.8906  1.3061
 8842SOL    HW335135   4.827   6.133   3.301  1.0718  1.3004 -2.5909
 8842SOL    MW435136   4.771   6.200   3.304  0.0411  0.4706 -0.1963
 8843SOL     OW35137   5.108   1.695   3.074  0.1683 -0.1846  0.1431
 8843SOL    HW235138   5.096   1.769   3.134  1.4329  0.0243  0.1607
 8843SOL    HW335139   5.120   1.736   2.988 -0.5680 -0.4392 -0.0855
 8843SOL    MW435140   5.108   1.710   3.070  0.2380 -0.1906  0.1152
 8844SOL     OW35141   6.218   1.163   0.725  0.3780 -0.2369 -0.1006
 8844SOL    HW235142   6.259   1.248   0.734  0.4416 -0.4312  1.7985
 8844SOL    HW335143   6.271   1.117   0.660  0.1842  1.2331 -1.3456
 8844SOL    MW435144   6.230   1.168   0.717  0.3608 -0.0686 -0.0143
 8845SOL     OW35145   3.162   0.040   4.245  0.9989  0.0976  0.7853
 8845SOL    HW235146   3.089   0.069   4.190 -0.1258 -0.7300  1.7812
 8845SOL    HW335147   3.230   0.012   4.183  0.3269  0.5318 -0.1622
 8845SOL    MW435148   3.161   0.040   4.229  0.7619  0.0457  0.7917
 8846SOL     OW35149   1.211   6.418   1.331  0.6039  0.2141 -0.5273
 8846SOL    HW235150   1.116   6.413   1.335  0.5829 -0.0519 -1.1783
 8846SOL    HW335151   1.236   6.349   1.269  1.1856  0.5842 -0.7122
 8846SOL    MW435152   1.202   6.408   1.324  0.6778  0.2279 -0.6376
 8847SOL     OW35153   2.400   3.534   1.609  0.1769  0.1060  0.4405
 8847SOL    HW235154   2.318   3.521   1.656 -1.1766  1.2752 -1.4397
 8847SOL    HW335155   2.411   3.455   1.556  1.0839 -0.6906  1.7545
 8847SOL    MW435156   2.391   3.522   1.608  0.1180  0.1551  0.3658
 8848SOL     OW35157   1.345   6.094   4.896 -0.2026  0.1753 -0.1777
 8848SOL    HW235158   1.412   6.056   4.953  0.3618 -1.1011 -1.6294
 8848SOL    HW335159   1.388   6.102   4.811 -2.3958 -2.5142 -1.7023
 8848SOL    MW435160   1.360   6.090   4.892 -0.4175 -0.3480 -0.5704
 8849SOL     OW35161   4.567   3.014   6.263  0.2990  0.1054 -0.0144
 8849SOL    HW235162   4.496   2.977   6.211  0.0872 -1.8124  1.5084
 8849SOL    HW335163   4.641   2.955   6.247  0.7473  0.5290  0.4748
 8849SOL    MW435164   4.568   3.001   6.254  0.3302 -0.0917  0.2510
 8850SOL     OW35165   1.147   0.468   3.585 -0.1709 -0.1708  0.0760
 8850SOL    HW235166   1.107   0.404   3.526 -0.2132  0.1366 -0.2332
 8850SOL    HW335167   1.076   0.528   3.607  0.1398  0.4488 -0.5721
 8850SOL    MW435168   1.132   0.468   3.580 -0.1355 -0.0485 -0.0503
 8851SOL     OW35169   6.135   4.116   1.007 -0.0150  0.2137  0.1457
 8851SOL    HW235170   6.143   4.209   1.027  1.2574  0.5806 -1.7601
 8851SOL    HW335171   6.213   4.076   1.046  1.1393  0.5268 -1.7003
 8851SOL    MW435172   6.146   4.123   1.015  0.3051  0.3034 -0.3493
 8852SOL     OW35173   3.826   0.761   3.202 -0.6450 -0.7529 -0.5140
 8852SOL    HW235174   3.773   0.726   3.274 -1.0930  0.0874 -0.4158
 8852SOL    HW335175   3.839   0.853   3.225 -0.1754 -0.6542 -1.1515
 8852SOL    MW435176   3.820   0.769   3.215 -0.6422 -0.6290 -0.5852
 8853SOL     OW35177   4.419   3.829   3.045 -0.0341  0.1513  0.4991
 8853SOL    HW235178   4.447   3.879   2.968 -2.9300  2.1746  0.6127
 8853SOL    HW335179   4.432   3.887   3.119  0.7661 -1.0087  1.3095
 8853SOL    MW435180   4.424   3.843   3.044 -0.3106  0.2652  0.6210
 8854SOL     OW35181   5.221   3.498   1.182 -0.6711 -0.0055  0.0669
 8854SOL    HW235182   5.143   3.524   1.133 -0.4120  0.2969 -0.1881
 8854SOL    HW335183   5.269   3.441   1.121  0.8360  2.2154 -0.9826
 8854SOL    MW435184   5.217   3.494   1.167 -0.4381  0.3275 -0.1052
 8855SOL     OW35185   5.059   3.622   1.995  0.7552  0.4528 -0.1687
 8855SOL    HW235186   5.064   3.718   1.990 -0.3469  0.5882  0.8335
 8855SOL    HW335187   5.010   3.596   1.917 -0.9843  0.9396  0.7140
 8855SOL    MW435188   5.053   3.631   1.984  0.3803  0.5349  0.0800
 8856SOL     OW35189   1.605   1.926   3.276 -0.2641  0.2258  0.3136
 8856SOL    HW235190   1.577   1.848   3.227 -1.1280  0.1572  0.8857
 8856SOL    HW335191   1.694   1.906   3.304 -0.2802 -0.3264 -0.0093
 8856SOL    MW435192   1.613   1.913   3.273 -0.3802  0.1439  0.3465
 8857SOL     OW35193   2.659   3.721   2.563 -0.1802  0.2329 -0.4895
 8857SOL    HW235194   2.684   3.701   2.473 -0.4542  0.8730 -0.7195
 8857SOL    HW335195   2.736   3.699   2.615 -1.5317 -4.9348 -0.1466
 8857SOL    MW435196   2.672   3.716   2.558 -0.3947 -0.3644 -0.4746
 8858SOL     OW35197   5.155   3.587   2.541  0.4529 -0.1030 -0.0374
 8858SOL    HW235198   5.154   3.647   2.466 -1.1146  0.6924  0.5638
 8858SOL    HW335199   5.085   3.524   2.522 -1.5430  1.4173  1.6730
 8858SOL    MW435200   5.145   3.587   2.529 -0.0173  0.2025  0.2676
 8859SOL     OW35201   0.165   5.343   5.559  0.4096 -0.1824 -0.1174
 8859SOL    HW235202   0.074   5.344   5.529 -0.1102 -0.1143  1.3629
 8859SOL    HW335203   0.179   5.253   5.590  0.2008  0.3126  1.4689
 8859SOL    MW435204   0.155   5.331   5.559  0.3135 -0.1081  0.2872
 8860SOL     OW35205   4.966   3.305   3.472  0.4111 -0.0828 -0.4982
 8860SOL    HW235206   4.900   3.239   3.493 -0.3754  1.4566  2.2930
 8860SOL    HW335207   4.916   3.381   3.444  1.0752  0.5706  0.0489
 8860SOL    MW435208   4.951   3.306   3.471  0.3950  0.2065 -0.0578
 8861SOL     OW35209   0.773   0.652   3.172  0.0136  0.2958 -0.1782
 8861SOL    HW235210   0.707   0.680   3.109 -0.5640 -0.6360 -0.0122
 8861SOL    HW335211   0.786   0.728   3.229 -0.4724  0.6836 -0.5788
 8861SOL    MW435212   0.766   0.666   3.171 -0.1267  0.2241 -0.2092
 8862SOL     OW35213   5.096   6.029   0.665 -0.1276 -0.1216 -0.3087
 8862SOL    HW235214   5.178   5.990   0.635  1.1011  0.7490  1.7172
 8862SOL    HW335215   5.089   6.111   0.616  0.1122 -0.3049 -0.6494
 8862SOL    MW435216   5.106   6.035   0.655  0.0661 -0.0309 -0.0863
 8863SOL     OW35217   0.274   3.618   1.094 -0.6713 -0.4042  0.0969
 8863SOL    HW235218   0.219   3.559   1.042 -0.7946 -0.6875  0.5413
 8863SOL    HW335219   0.302   3.565   1.169  0.2434 -0.2714 -0.1417
 8863SOL    MW435220   0.270   3.603   1.097 -0.5669 -0.4240  0.1241
 8864SOL     OW35221   1.433   4.261   5.089 -0.0925  0.2271 -0.2825
 8864SOL    HW235222   1.389   4.185   5.126 -0.0043  0.0208 -0.5994
 8864SOL    HW335223   1.486   4.226   5.017  1.4659  0.2972  0.7837
 8864SOL    MW435224   1.434   4.246   5.084  0.1247  0.2091 -0.1837
 8865SOL     OW35225   0.674   5.869   4.910  0.0132 -0.1991  0.9006
 8865SOL    HW235226   0.589   5.895   4.874  1.0762  0.1258 -1.5933
 8865SOL    HW335227   0.679   5.775   4.894  0.3822 -0.0996  0.3859
 8865SOL    MW435228   0.664   5.860   4.903  0.2021 -0.1431  0.5037
 8866SOL     OW35229   3.836   1.673   0.658  0.0324  0.3635  0.1899
 8866SOL    HW235230   3.872   1.760   0.673 -0.2353  0.2680  1.5001
 8866SOL    HW335231   3.837   1.663   0.563  0.2927  1.6926  0.0312
 8866SOL    MW435232   3.841   1.683   0.648  0.0314  0.5263  0.3418
 8867SOL     OW35233   2.286   0.633   1.404  0.4596 -0.1338 -1.0247
 8867SOL    HW235234   2.254   0.545   1.426  2.3890 -0.4089  0.9732
 8867SOL    HW335235   2.212   0.674   1.359 -2.5053 -0.9620  2.5666
 8867SOL    MW435236   2.272   0.627   1.401  0.3230 -0.2793 -0.2873
 8868SOL     OW35237   4.365   3.194   5.955 -0.1634 -0.2933 -0.1803
 8868SOL    HW235238   4.301   3.180   5.885 -0.3096  1.2617 -0.3918
 8868SOL    HW335239   4.438   3.239   5.912 -0.3608  0.9000  0.7057
 8868SOL    MW435240   4.366   3.198   5.940 -0.2087  0.0693 -0.0913
 8869SOL     OW35241   0.900   2.459   5.681  0.2873  0.1841 -0.1018
 8869SOL    HW235242   0.821   2.406   5.689 -0.9667  1.9741 -0.0409
 8869SOL    HW335243   0.880   2.522   5.612  0.9385  1.8432  1.1507
 8869SOL    MW435244   0.887   2.460   5.673  0.2078  0.6392  0.0715
 8870SOL     OW35245   3.485   2.295   5.731 -0.4016 -0.1647  0.0868
 8870SOL    HW235246   3.452   2.261   5.814 -0.2684  1.1107  0.6852
 8870SOL    HW335247   3.463   2.388   5.732  0.8518  0.1701 -0.6766
 8870SOL    MW435248   3.477   2.303   5.742 -0.2187  0.0477  0.0651
 8871SOL     OW35249   0.329   5.731   0.887  0.5923  0.2770 -0.5714
 8871SOL    HW235250   0.409   5.770   0.853  1.8140 -1.5057  0.1351
 8871SOL    HW335251   0.358   5.659   0.944 -1.4799  0.1112  0.4043
 8871SOL    MW435252   0.343   5.727   0.890  0.4801  0.0199 -0.3494
 8872SOL     OW35253   5.377   3.720   5.745 -0.0656  0.0062 -0.0028
 8872SOL    HW235254   5.369   3.624   5.747 -1.9952  0.0992 -0.5249
 8872SOL    HW335255   5.291   3.749   5.714  0.2275  1.9481  0.9197
 8872SOL    MW435256   5.364   3.711   5.741 -0.2816  0.2747  0.0500
 8873SOL     OW35257   0.878   6.291   0.158 -0.4343  0.2330  0.4696
 8873SOL    HW235258   0.809   6.356   0.149  0.0014  0.7095  0.5439
 8873SOL    HW335259   0.942   6.314   0.091 -0.2443 -0.0765  0.5422
 8873SOL    MW435260   0.877   6.302   0.148 -0.3518  0.2551  0.4889
 8874SOL     OW35261   4.841   1.541   3.944  0.2612  0.2555 -0.1400
 8874SOL    HW235262   4.759   1.587   3.931  0.9425  1.6932  0.4316
 8874SOL    HW335263   4.829   1.457   3.900  0.1455  2.2111 -4.2939
 8874SOL    MW435264   4.829   1.536   3.936  0.3359  0.7032 -0.6126
 8875SOL     OW35265   2.303   2.769   5.347 -0.0833  0.3901  0.5403
 8875SOL    HW235266   2.390   2.739   5.375 -0.6570 -0.6601  1.2630
 8875SOL    HW335267   2.313   2.864   5.338  1.4379  0.1618 -0.5408
 8875SOL    MW435268   2.316   2.778   5.350  0.0417  0.2215  0.4930
 8876SOL     OW35269   6.229   1.819   6.253  0.3074 -0.1297  0.4713
 8876SOL    HW235270   6.184   1.838   6.336 -3.3610  0.2654 -1.3810
 8876SOL    HW335271   6.228   1.724   6.246 -0.3740 -0.1218  0.4157
 8876SOL    MW435272   6.223   1.809   6.263 -0.2665 -0.0765  0.2196
 8877SOL     OW35273   0.789   3.417   3.138  0.1563 -0.2103 -0.2829
 8877SOL    HW235274   0.765   3.454   3.223  0.4596 -0.0560 -0.2649
 8877SOL    HW335275   0.804   3.493   3.082 -1.2387 -0.2956 -0.8274
 8877SOL    MW435276   0.788   3.432   3.142  0.0123 -0.2012 -0.3523
 8878SOL     OW35277   5.701   6.207   4.052  0.6164  0.1515 -0.2951
 8878SOL    HW235278   5.694   6.124   4.004  0.0343  0.2787 -0.4400
 8878SOL    HW335279   5.613   6.243   4.050  0.3205 -0.3363  1.7691
 8878SOL    MW435280   5.689   6.200   4.045  0.5005  0.1039 -0.0419
 8879SOL     OW35281   0.840   2.489   3.309  0.0423 -0.4329  0.0196
 8879SOL    HW235282   0.917   2.443   3.342 -0.0231 -1.7719 -1.5668
 8879SOL    HW335283   0.873   2.573   3.279  0.4980 -0.1455  1.3002
 8879SOL    MW435284   0.855   2.494   3.309  0.0938 -0.5716 -0.0208
 8880SOL     OW35285   2.424   5.973   0.942 -0.4206 -0.3871 -0.8463
 8880SOL    HW235286   2.395   5.898   0.994  0.3214 -0.0760  0.0539
 8880SOL    HW335287   2.515   5.953   0.921 -0.2256  0.2452 -0.6201
 8880SOL    MW435288   2.432   5.960   0.947 -0.2970 -0.2626 -0.6977
 8881SOL     OW35289   0.767   4.821   2.038  0.1201 -0.1307 -0.8549
 8881SOL    HW235290   0.841   4.782   1.991 -0.0348  0.3518 -1.5140
 8881SOL    HW335291   0.807   4.891   2.091  0.3199 -0.7950 -0.1053
 8881SOL    MW435292   0.782   4.825   2.039  0.1260 -0.1547 -0.8430
 8882SOL     OW35293   5.869   6.319   6.253  0.2836 -0.5194 -0.6165
 8882SOL    HW235294   5.924   6.310   6.331  0.4755 -1.0134 -0.8090
 8882SOL    HW335295   5.796   6.374   6.282 -0.2498 -1.6392  0.2215
 8882SOL    MW435296   5.867   6.325   6.267  0.2385 -0.7323 -0.5314
 8883SOL     OW35297   3.127   5.206   1.932 -0.2482  0.3351  0.0584
 8883SOL    HW235298   3.192   5.222   2.001  0.3285 -1.6739  0.0517
 8883SOL    HW335299   3.173   5.228   1.851 -0.1290  0.4520  0.1556
 8883SOL    MW435300   3.142   5.211   1.930 -0.1564  0.0854  0.0703
 8884SOL     OW35301   1.655   5.377   0.857  0.0662  0.3193  0.0576
 8884SOL    HW235302   1.731   5.329   0.890  1.4684  2.6268  0.4528
 8884SOL    HW335303   1.596   5.309   0.825  1.4034 -1.6884  1.5538
 8884SOL    MW435304   1.657   5.362   0.857  0.4276  0.3589  0.3071
 8885SOL     OW35305   4.568   6.274   5.940 -0.4175  0.4498  0.3287
 8885SOL    HW235306   4.500   6.207   5.946 -1.1804  0.9324 -1.8678
 8885SOL    HW335307   4.548   6.334   6.012  0.3990 -1.6945  2.4630
 8885SOL    MW435308   4.556   6.273   5.951 -0.4104  0.2306  0.3205
 8886NA      NA35309   3.720   5.536   5.593  0.1244 -0.6640 -0.2567
 8887NA      NA35310   0.495   1.264   3.340  0.0054  0.0787 -0.6571
 8888NA      NA35311   1.350   3.802   0.068 -0.4058  0.0479  0.0042
 8889NA      NA35312   2.393   1.084   0.925  0.3607  0.0388  0.1167
 8890NA      NA35313   6.104   0.552   1.120 -0.0455  0.0460  0.0241
 8891NA      NA35314   3.896   4.600   5.662  0.3427  0.4060 -0.0297
 8892NA      NA35315   0.641   0.447   5.051 -0.2121 -0.1479  0.0022
   6.42920   6.42920   6.42920
