A-SYNC WITH FASUDIL
35315
  121NASP     N    1   2.254   4.443   5.115 -0.0104 -0.8311 -0.9926
  121NASP    H1    2   2.332   4.490   5.071 -0.2312  0.6239  0.1029
  121NASP    H2    3   2.289   4.353   5.144  2.0243 -0.2412 -1.4669
  121NASP    H3    4   2.214   4.507   5.182 -1.4414 -1.5867 -1.0807
  121NASP    CA    5   2.146   4.423   5.013 -0.5932 -0.6310 -0.2240
  121NASP    HA    6   2.066   4.376   5.070 -0.4780 -2.4070 -1.4376
  121NASP    CB    7   2.101   4.551   4.942  0.4921  0.5642  0.0899
  121NASP   HB1    8   2.010   4.523   4.888  1.9537 -3.0891 -0.7693
  121NASP   HB2    9   2.181   4.586   4.876  0.3408 -0.4576 -0.6654
  121NASP    CG   10   2.074   4.667   5.029 -0.5688 -0.6383 -0.3431
  121NASP   OD1   11   2.087   4.651   5.153 -0.1977 -0.4425  0.3675
  121NASP   OD2   12   2.046   4.776   4.976  0.0895 -0.3427 -1.1917
  121NASP     C   13   2.193   4.319   4.909 -1.0426 -0.0866  0.1958
  121NASP     O   14   2.314   4.301   4.891 -0.1603 -0.3570 -0.2182
  122ASN      N   15   2.107   4.253   4.836  0.4560  0.2372 -0.3460
  122ASN      H   16   2.010   4.280   4.833  0.4767  0.4652  0.8273
  122ASN     CA   17   2.144   4.160   4.725 -0.7217 -1.1206 -0.4286
  122ASN     HA   18   2.247   4.182   4.697 -0.8962  3.1994  1.5925
  122ASN     CB   19   2.116   4.016   4.782  0.2928  0.0258 -0.7781
  122ASN    HB1   20   2.101   3.949   4.697  1.5809 -2.1271  0.6084
  122ASN    HB2   21   2.026   4.018   4.843  0.6915  0.8659 -0.1956
  122ASN     CG   22   2.221   3.959   4.877 -0.3664 -0.1708 -0.3281
  122ASN    OD1   23   2.208   3.930   4.994  0.0384  0.3447 -0.4797
  122ASN    ND2   24   2.336   3.941   4.815  0.4552 -0.3121  0.1773
  122ASN   HD21   25   2.417   3.908   4.866 -0.4981 -2.5712  0.3367
  122ASN   HD22   26   2.338   3.953   4.714 -0.0842 -1.9966 -0.0661
  122ASN      C   27   2.060   4.200   4.600 -0.2593  0.1402  0.1202
  122ASN      O   28   1.966   4.281   4.616 -0.5750  0.1786  0.1818
  123GLU      N   29   2.094   4.142   4.482  0.0422  0.1799 -0.4148
  123GLU      H   30   2.177   4.085   4.474 -0.0831  0.1421 -1.7816
  123GLU     CA   31   2.022   4.160   4.361 -0.4668  0.1002  0.4016
  123GLU     HA   32   2.024   4.269   4.348 -0.7964  0.4075  2.5482
  123GLU     CB   33   2.092   4.100   4.234 -0.4122  0.5777 -0.1846
  123GLU    HB1   34   2.075   3.992   4.237  2.3158  0.0211 -1.4218
  123GLU    HB2   35   2.197   4.122   4.252  0.2528  0.0489 -2.9529
  123GLU     CG   36   2.053   4.162   4.097  0.0567 -0.7579 -0.1064
  123GLU    HG1   37   2.044   4.269   4.110 -1.0304 -0.5418 -2.1575
  123GLU    HG2   38   1.956   4.125   4.062 -1.1314  1.4442  0.7013
  123GLU     CD   39   2.160   4.129   3.987  0.1023  0.0532  0.1768
  123GLU    OE1   40   2.190   4.223   3.908 -0.6370  0.0458  0.2677
  123GLU    OE2   41   2.197   4.010   3.963  0.6557 -0.4216 -0.2897
  123GLU      C   42   1.875   4.113   4.366  0.1480 -0.1522 -0.4648
  123GLU      O   43   1.856   3.995   4.389  0.0133  0.3809  0.6414
  124ALA      N   44   1.791   4.209   4.343  0.1916 -0.8909  0.1252
  124ALA      H   45   1.824   4.305   4.340 -2.4301  0.4688  4.5422
  124ALA     CA   46   1.647   4.207   4.356  0.4022 -0.0475 -0.1128
  124ALA     HA   47   1.610   4.132   4.426 -2.8063  0.8547 -0.6391
  124ALA     CB   48   1.597   4.351   4.404 -0.0440  0.3870  0.2741
  124ALA    HB1   49   1.649   4.386   4.493  0.1019  1.1101 -0.0876
  124ALA    HB2   50   1.492   4.333   4.429 -0.0756  0.6899  0.3570
  124ALA    HB3   51   1.607   4.427   4.327 -1.0773 -1.6226 -1.9681
  124ALA      C   52   1.568   4.168   4.224 -0.4193 -0.1291  0.4807
  124ALA      O   53   1.617   4.171   4.114  0.2008 -0.3426  0.1491
  125TYR      N   54   1.438   4.140   4.241 -0.6824  0.2490  0.1346
  125TYR      H   55   1.401   4.143   4.335 -0.3050  0.6264  0.2709
  125TYR     CA   56   1.352   4.096   4.133  0.4321  0.3673 -0.3173
  125TYR     HA   57   1.404   4.023   4.070  0.0906  0.7653 -1.0734
  125TYR     CB   58   1.223   4.030   4.193  0.9582 -0.8075 -0.0764
  125TYR    HB1   59   1.177   4.095   4.267  2.5623 -0.1151  0.3734
  125TYR    HB2   60   1.261   3.953   4.260 -1.3665 -1.6920  0.2963
  125TYR     CG   61   1.128   3.973   4.086  0.4032 -0.1004 -0.5385
  125TYR    CD1   62   1.165   3.853   4.027  0.0406 -0.2085 -0.5182
  125TYR    HD1   63   1.256   3.803   4.056 -0.1888  1.1424  3.0309
  125TYR    CE1   64   1.098   3.803   3.916  0.0346 -0.2216 -0.8805
  125TYR    HE1   65   1.118   3.703   3.881  1.7689 -0.6801  1.1881
  125TYR     CZ   66   0.995   3.890   3.859  0.7649 -0.4089  0.2477
  125TYR     OH   67   0.932   3.859   3.746  0.2738  0.2449 -0.4888
  125TYR     HH   68   0.932   3.765   3.726 -4.1002 -0.3379  1.0594
  125TYR    CE2   69   0.961   4.012   3.921 -0.5046  1.0153  0.6912
  125TYR    HE2   70   0.885   4.075   3.880 -0.6321  0.1831 -0.3771
  125TYR    CD2   71   1.024   4.049   4.038  0.1813 -0.6426 -0.5235
  125TYR    HD2   72   0.990   4.132   4.098  1.1500  0.0995 -0.9854
  125TYR      C   73   1.323   4.223   4.043  0.7799  0.9845  0.6839
  125TYR      O   74   1.357   4.342   4.074 -0.1238  0.3791 -0.3415
  126GLU      N   75   1.261   4.206   3.931  0.0195  0.3818  0.2281
  126GLU      H   76   1.239   4.110   3.907 -2.7942  0.4171  2.1001
  126GLU     CA   77   1.224   4.308   3.835 -0.1033 -0.0962 -0.0762
  126GLU     HA   78   1.309   4.361   3.791 -0.7529  0.7007 -0.3981
  126GLU     CB   79   1.161   4.235   3.715 -0.1007  0.0851  0.1078
  126GLU    HB1   80   1.143   4.310   3.637 -0.6933  0.4341  0.5699
  126GLU    HB2   81   1.062   4.198   3.742 -0.8211  2.0273  0.2871
  126GLU     CG   82   1.243   4.121   3.650 -0.2207  0.3261  0.2574
  126GLU    HG1   83   1.267   4.041   3.720  1.8405 -0.8770 -1.6900
  126GLU    HG2   84   1.330   4.162   3.600 -0.5842  0.6526 -0.1159
  126GLU     CD   85   1.170   4.054   3.538  0.0644 -0.1358  0.2080
  126GLU    OE1   86   1.213   3.948   3.489  0.3876  0.3442 -0.0668
  126GLU    OE2   87   1.069   4.107   3.485  0.4867 -0.0992 -0.3840
  126GLU      C   88   1.124   4.410   3.891  0.0643  0.1085 -0.2661
  126GLU      O   89   1.117   4.518   3.834  0.2831 -0.0934  0.3838
  127MET      N   90   1.050   4.376   4.003  0.0929 -0.0779  0.0417
  127MET      H   91   1.067   4.290   4.053 -0.4844  0.7824  1.7724
  127MET     CA   92   0.961   4.476   4.075 -1.1695  0.1006  0.2409
  127MET     HA   93   1.012   4.572   4.065 -0.6675 -0.3337 -1.7232
  127MET     CB   94   0.828   4.504   4.010  0.1584 -0.3959  0.2535
  127MET    HB1   95   0.855   4.563   3.922 -1.6249 -0.0533 -0.1199
  127MET    HB2   96   0.770   4.571   4.074  0.9015  2.4360 -1.8254
  127MET     CG   97   0.756   4.380   3.963  0.5261  0.0446 -0.2908
  127MET    HG1   98   0.739   4.312   4.047 -0.1038  0.4465 -0.0861
  127MET    HG2   99   0.816   4.322   3.893 -0.9481  1.6724 -3.0855
  127MET     SD  100   0.600   4.402   3.870 -0.4789 -0.0395 -0.2809
  127MET     CE  101   0.501   4.415   4.023  0.6806 -0.3619 -0.0467
  127MET    HE1  102   0.529   4.509   4.071  3.9286 -0.6797 -1.0816
  127MET    HE2  103   0.503   4.324   4.083 -2.8194  0.9729  2.4219
  127MET    HE3  104   0.397   4.415   3.991  0.2068 -0.8391  1.4364
  127MET      C  105   0.945   4.436   4.222  0.1016 -1.2055 -0.4330
  127MET      O  106   0.966   4.318   4.249 -0.6764  0.4446  0.4529
  128PRO      N  107   0.919   4.531   4.313  0.3247 -0.5211 -0.0346
  128PRO     CD  108   0.934   4.679   4.305  0.6893 -0.0726  0.4648
  128PRO    HD1  109   0.843   4.719   4.259  0.2529 -0.7572  0.7057
  128PRO    HD2  110   1.022   4.705   4.246 -0.5238  1.8650 -0.6137
  128PRO     CG  111   0.941   4.738   4.443 -0.1916 -0.4483  0.4434
  128PRO    HG1  112   0.890   4.834   4.451  2.2120  0.9002  0.5715
  128PRO    HG2  113   1.044   4.748   4.479 -0.9043  1.2147  2.1613
  128PRO     CB  114   0.860   4.631   4.521 -0.4106 -0.1960 -0.0020
  128PRO    HB1  115   0.887   4.633   4.627  0.3373 -0.2171 -0.1888
  128PRO    HB2  116   0.757   4.655   4.496 -0.9286 -1.8319  0.4091
  128PRO     CA  117   0.892   4.501   4.448  0.5523  0.1195 -0.1470
  128PRO     HA  118   0.985   4.458   4.485 -0.1574 -0.6003  0.8531
  128PRO      C  119   0.771   4.407   4.451  0.3280 -0.0713  0.7412
  128PRO      O  120   0.671   4.422   4.377 -0.6116  0.4135  1.0548
  129SER      N  121   0.778   4.308   4.537 -0.5581  0.6085 -0.2616
  129SER      H  122   0.857   4.288   4.597 -0.8164 -0.3501 -0.2264
  129SER     CA  123   0.672   4.207   4.557  0.1056 -0.0342  0.6346
  129SER     HA  124   0.654   4.156   4.463  0.0419  2.0915 -0.5507
  129SER     CB  125   0.711   4.102   4.654 -0.6231 -0.0148 -0.3715
  129SER    HB1  126   0.631   4.030   4.670  1.1631 -1.9277  0.3869
  129SER    HB2  127   0.727   4.153   4.749 -2.0257  0.3726 -0.3220
  129SER     OG  128   0.821   4.027   4.611  0.3639 -0.0467  0.5210
  129SER    HG1  129   0.848   3.976   4.688  1.1167  0.5992  0.6968
  129SER      C  130   0.537   4.275   4.600 -0.1412 -0.0813 -0.6516
  129SER      O  131   0.534   4.341   4.703  0.0687  0.0003 -0.3902
  130GLU      N  132   0.426   4.244   4.532 -0.6366 -0.6850  0.0215
  130GLU      H  133   0.440   4.179   4.456  1.5466 -0.1618 -0.0695
  130GLU     CA  134   0.294   4.305   4.547 -0.1252  0.5444  0.0165
  130GLU     HA  135   0.297   4.413   4.534 -1.3332  0.4474 -1.2425
  130GLU     CB  136   0.196   4.247   4.440  0.0313  0.2343 -0.1786
  130GLU    HB1  137   0.097   4.258   4.483 -0.1455  1.7758 -0.9302
  130GLU    HB2  138   0.214   4.142   4.418 -2.0598 -0.2436  0.1414
  130GLU     CG  139   0.198   4.318   4.308 -0.2554 -0.2599  0.4798
  130GLU    HG1  140   0.304   4.307   4.285 -0.1009  0.6085  0.7437
  130GLU    HG2  141   0.172   4.423   4.320 -2.1029 -0.5429 -0.5650
  130GLU     CD  142   0.106   4.254   4.209 -0.7837  0.6169 -0.6618
  130GLU    OE1  143   0.133   4.138   4.163 -0.2541 -0.2214 -0.3036
  130GLU    OE2  144   0.008   4.318   4.164  0.1650  0.1240  0.4349
  130GLU      C  145   0.238   4.281   4.692 -0.0971 -0.7844  0.2049
  130GLU      O  146   0.289   4.205   4.776  0.0563 -0.6692 -0.2336
  131GLU      N  147   0.131   4.355   4.726 -0.3374  0.3961  0.2041
  131GLU      H  148   0.086   4.417   4.660  1.4827  0.0981 -1.4016
  131GLU     CA  149   0.069   4.355   4.862 -0.0023  0.0871  0.3116
  131GLU     HA  150   0.136   4.386   4.943  1.5026 -1.3732 -0.3319
  131GLU     CB  151  -0.047   4.456   4.871 -0.7068  0.9467 -0.0811
  131GLU    HB1  152  -0.115   4.425   4.950 -0.1327  1.9413  0.8324
  131GLU    HB2  153  -0.097   4.444   4.775 -0.0860 -1.9610 -0.1560
  131GLU     CG  154   0.009   4.587   4.897  0.5914 -0.8941  0.1262
  131GLU    HG1  155   0.077   4.613   4.816  1.2228 -1.8353  0.3496
  131GLU    HG2  156   0.062   4.589   4.992  0.1373  1.2131  0.3927
  131GLU     CD  157  -0.109   4.688   4.910  0.0073 -0.2520  0.9516
  131GLU    OE1  158  -0.144   4.746   4.804 -0.5938  0.1749 -0.4931
  131GLU    OE2  159  -0.169   4.708   5.018  0.1162  0.4110 -0.0575
  131GLU      C  160   0.023   4.218   4.905  0.2047 -0.1360 -0.0682
  131GLU      O  161   0.041   4.196   5.026 -0.1574  0.7274  0.3860
  132GLY      N  162  -0.024   4.137   4.815  0.3668 -0.7523 -1.1294
  132GLY      H  163  -0.048   4.170   4.723 -3.0376 -0.4673 -0.2592
  132GLY     CA  164  -0.079   4.004   4.852 -0.3909  0.0476 -0.1809
  132GLY    HA1  165  -0.175   3.992   4.801 -0.1310  0.5603 -0.8055
  132GLY    HA2  166  -0.081   3.994   4.961  2.5114 -0.2941 -0.0739
  132GLY      C  167   0.016   3.899   4.796 -0.2499  0.3818 -0.5961
  132GLY      O  168  -0.031   3.788   4.763 -0.3524  0.2338  0.1036
  133TYR      N  169   0.138   3.936   4.775  0.0526 -0.1598  0.7675
  133TYR      H  170   0.161   4.031   4.802 -0.0106 -0.0888  0.5702
  133TYR     CA  171   0.246   3.837   4.726  0.6011  0.7500 -0.1612
  133TYR     HA  172   0.202   3.796   4.636 -1.2633 -0.8169  1.3665
  133TYR     CB  173   0.381   3.902   4.688 -0.8142  0.5952 -0.1522
  133TYR    HB1  174   0.409   3.947   4.783 -1.3181 -0.1182  0.3454
  133TYR    HB2  175   0.373   3.988   4.621 -0.1621 -0.8027 -2.1367
  133TYR     CG  176   0.487   3.808   4.636 -0.1593  0.3399  0.4027
  133TYR    CD1  177   0.477   3.758   4.509  0.1772  0.1968 -0.4085
  133TYR    HD1  178   0.393   3.782   4.445 -0.3851  0.1673  0.3076
  133TYR    CE1  179   0.574   3.669   4.452 -0.1929  0.0420  0.1999
  133TYR    HE1  180   0.555   3.637   4.351 -2.7290  2.2283 -0.1320
  133TYR     CZ  181   0.689   3.643   4.530  0.0512  0.0386 -0.5662
  133TYR     OH  182   0.777   3.553   4.473 -0.1933 -0.5431 -0.2952
  133TYR     HH  183   0.754   3.520   4.386  0.3775  1.8932 -1.4710
  133TYR    CE2  184   0.701   3.689   4.661 -0.3159  0.4414 -0.4402
  133TYR    HE2  185   0.779   3.649   4.724 -0.3043 -1.6983 -1.7025
  133TYR    CD2  186   0.595   3.764   4.720  0.1635 -0.2949  0.2304
  133TYR    HD2  187   0.600   3.795   4.823 -0.3258 -0.4733  0.3122
  133TYR      C  188   0.270   3.718   4.818  0.3294 -0.3154 -0.1008
  133TYR      O  189   0.308   3.731   4.935  0.2451 -0.5952  0.5573
  134GLN      N  190   0.273   3.596   4.767  0.3107  0.6689 -0.0815
  134GLN      H  191   0.238   3.577   4.674 -0.5432  0.9277  0.1750
  134GLN     CA  192   0.295   3.483   4.856 -0.1363  0.2869  0.0196
  134GLN     HA  193   0.270   3.515   4.957  1.0920  0.1534  0.3836
  134GLN     CB  194   0.197   3.370   4.816  0.1225  0.2464 -0.7621
  134GLN    HB1  195   0.221   3.341   4.714  1.8796  1.0580 -0.6133
  134GLN    HB2  196   0.091   3.394   4.823 -0.3082 -1.7597  0.3240
  134GLN     CG  197   0.213   3.253   4.907  0.2264  0.0030 -0.4748
  134GLN    HG1  198   0.209   3.287   5.010 -3.0362 -0.1225 -0.4686
  134GLN    HG2  199   0.310   3.212   4.879  0.4819  0.8430 -0.8602
  134GLN     CD  200   0.111   3.140   4.890  0.4004 -0.0127  0.1813
  134GLN    OE1  201   0.147   3.021   4.888 -0.8604 -0.4004 -0.1706
  134GLN    NE2  202  -0.022   3.158   4.859 -0.5581 -0.2399  0.3455
  134GLN   HE21  203  -0.091   3.086   4.878  0.3585 -1.1075  0.4237
  134GLN   HE22  204  -0.063   3.250   4.868 -0.7051 -0.4024  1.6254
  134GLN      C  205   0.441   3.433   4.853 -0.7403 -0.1956  0.6785
  134GLN      O  206   0.481   3.360   4.759 -0.0728  0.3206 -0.2790
  135ASP      N  207   0.519   3.483   4.951 -0.1551 -0.4294  0.5464
  135ASP      H  208   0.490   3.542   5.028  0.6101 -0.7206  1.0741
  135ASP     CA  209   0.666   3.440   4.964  0.3482 -0.9176  0.3986
  135ASP     HA  210   0.697   3.418   4.861 -0.4779 -0.5395  0.0544
  135ASP     CB  211   0.757   3.553   5.012 -0.6401 -0.2227 -1.1572
  135ASP    HB1  212   0.739   3.637   4.945  0.1603  1.6678  0.8466
  135ASP    HB2  213   0.863   3.533   4.994 -0.4498 -0.7219  0.3674
  135ASP     CG  214   0.737   3.586   5.166  0.3133  0.3071  0.9680
  135ASP    OD1  215   0.639   3.551   5.229  0.0967 -0.1461 -0.0385
  135ASP    OD2  216   0.834   3.646   5.216 -0.4696 -0.3327  0.0632
  135ASP      C  217   0.682   3.308   5.034 -0.3604 -0.4550  0.1613
  135ASP      O  218   0.795   3.260   5.040 -0.5102  0.5129 -0.3706
  136TYR      N  219   0.573   3.245   5.076  0.1271  0.5101 -0.1513
  136TYR      H  220   0.485   3.293   5.090  0.1072  0.4266  0.0115
  136TYR     CA  221   0.574   3.112   5.133 -0.3498  0.1190  0.3601
  136TYR     HA  222   0.634   3.109   5.224  0.1541 -2.8320  0.0404
  136TYR     CB  223   0.427   3.070   5.165  0.8709  0.6410  0.3250
  136TYR    HB1  224   0.418   2.963   5.181  0.4182  0.2880 -2.0028
  136TYR    HB2  225   0.369   3.094   5.076  2.4472  3.0254 -0.1672
  136TYR     CG  226   0.361   3.124   5.300 -0.2044 -0.2125 -0.2071
  136TYR    CD1  227   0.442   3.136   5.416  0.3224 -0.3828  0.4672
  136TYR    HD1  228   0.547   3.110   5.425  1.5250  4.0670  2.6000
  136TYR    CE1  229   0.382   3.183   5.534 -0.1229 -0.3740  0.1443
  136TYR    HE1  230   0.423   3.189   5.633 -1.1349  2.9871  0.4645
  136TYR     CZ  231   0.247   3.236   5.532 -0.1529 -0.4772 -0.1337
  136TYR     OH  232   0.186   3.284   5.641 -0.2470 -0.4690 -0.0778
  136TYR     HH  233   0.228   3.266   5.725 -1.4174  0.6164  0.7863
  136TYR    CE2  234   0.176   3.243   5.406 -0.6338  0.2317  0.3332
  136TYR    HE2  235   0.085   3.300   5.392 -0.1930  0.1732 -3.6952
  136TYR    CD2  236   0.231   3.174   5.300 -0.3734  0.4606  0.0625
  136TYR    HD2  237   0.175   3.173   5.208 -0.4310  2.1208  0.0521
  136TYR      C  238   0.618   3.003   5.030 -0.1878 -0.1211 -0.0328
  136TYR      O  239   0.660   2.896   5.076 -0.4500 -0.3413 -0.1134
  137GLU      N  240   0.621   3.039   4.898  0.3615  0.4426  0.1554
  137GLU      H  241   0.598   3.136   4.882 -2.5795 -0.0609  0.8299
  137GLU     CA  242   0.659   2.953   4.785  0.0960 -0.7048 -0.0539
  137GLU     HA  243   0.584   2.874   4.778  1.2725 -2.2638  2.9788
  137GLU     CB  244   0.645   3.042   4.666  0.8049 -0.1869  0.8368
  137GLU    HB1  245   0.711   3.128   4.675  0.5075  0.3832 -1.8214
  137GLU    HB2  246   0.547   3.086   4.681  1.1412  1.4886 -1.4823
  137GLU     CG  247   0.663   2.966   4.527 -0.3135  0.2410  0.1996
  137GLU    HG1  248   0.756   2.909   4.535 -1.2215 -1.2278  0.7709
  137GLU    HG2  249   0.686   3.033   4.444  0.9971  0.3636  0.6352
  137GLU     CD  250   0.542   2.873   4.500 -0.9832  0.5311  0.3268
  137GLU    OE1  251   0.430   2.907   4.535 -0.1863 -0.7543  0.9467
  137GLU    OE2  252   0.569   2.764   4.443 -0.5324 -0.1860 -0.7022
  137GLU      C  253   0.800   2.890   4.811  0.3480 -0.6693  0.0178
  137GLU      O  254   0.890   2.959   4.854 -0.0673 -0.1459  0.3587
  138PRO      N  255   0.819   2.757   4.789 -0.3141  0.3633 -0.1251
  138PRO     CD  256   0.715   2.665   4.761  0.0748  0.1146 -0.2730
  138PRO    HD1  257   0.688   2.675   4.656  1.9714 -0.1304 -0.8254
  138PRO    HD2  258   0.631   2.683   4.829  2.2743 -0.2668  2.7297
  138PRO     CG  259   0.765   2.529   4.799 -0.8055  0.2207  0.4999
  138PRO    HG1  260   0.762   2.467   4.709 -1.7775  0.3848  0.4140
  138PRO    HG2  261   0.712   2.495   4.888  0.0079  1.1036  1.3396
  138PRO     CB  262   0.907   2.553   4.843 -0.2323  0.2770  0.5028
  138PRO    HB1  263   0.917   2.533   4.949  0.5708 -2.4754 -0.0206
  138PRO    HB2  264   0.980   2.491   4.791  0.4696  0.6220  1.0690
  138PRO     CA  265   0.941   2.694   4.811  0.4538  0.3759 -0.1645
  138PRO     HA  266   0.984   2.737   4.902  0.4332 -0.3778  0.2127
  138PRO      C  267   1.043   2.714   4.687  0.1406  0.7515 -0.4084
  138PRO      O  268   1.000   2.719   4.569  0.5145 -0.0456  0.3415
  139GLU      N  269   1.179   2.694   4.720  0.1773 -0.6467 -0.0709
  139GLU      H  270   1.213   2.670   4.812  2.4766  1.5529 -0.2216
  139GLU     CA  271   1.272   2.687   4.606  0.4427 -0.1741  0.0015
  139GLU     HA  272   1.221   2.703   4.512  0.3704  1.7099  0.3263
  139GLU     CB  273   1.372   2.800   4.620  0.4435  0.2495  0.3665
  139GLU    HB1  274   1.453   2.781   4.550 -0.6825 -1.9819 -0.4018
  139GLU    HB2  275   1.411   2.807   4.722 -1.0429  1.6596  0.8805
  139GLU     CG  276   1.307   2.932   4.578  0.5985 -0.1492  0.2585
  139GLU    HG1  277   1.202   2.938   4.607  0.5389  1.2595 -0.1622
  139GLU    HG2  278   1.311   2.945   4.470 -0.7039  0.6893  0.2906
  139GLU     CD  279   1.374   3.055   4.639 -0.4241  0.0975  0.2434
  139GLU    OE1  280   1.498   3.051   4.645 -0.4033  0.5610  0.1355
  139GLU    OE2  281   1.304   3.154   4.679  0.3190  0.0187  0.3374
  139GLU      C  282   1.345   2.555   4.593  1.1836  0.5053  0.0824
  139GLU      O  283   1.394   2.507   4.696  0.5026 -0.2301  1.1222
  140CALA     N  284   1.355   2.509   4.466 -0.4276 -0.1773  0.1204
  140CALA     H  285   1.300   2.546   4.390  0.0405 -1.5566 -0.9504
  140CALA    CA  286   1.433   2.386   4.439  0.3564  0.2946  0.3854
  140CALA    HA  287   1.417   2.309   4.516 -0.1808 -0.2863 -0.2955
  140CALA    CB  288   1.392   2.331   4.302 -0.1391 -0.4316 -0.2796
  140CALA   HB1  289   1.284   2.335   4.292 -0.0813  1.6695 -0.3819
  140CALA   HB2  290   1.420   2.226   4.300  2.5653  0.2012  0.3484
  140CALA   HB3  291   1.434   2.382   4.216 -0.7117  0.3570 -0.0975
  140CALA     C  292   1.575   2.419   4.443 -0.2191  0.0301  0.1862
  140CALA   OC1  293   1.658   2.335   4.484 -0.0149  0.4312 -0.1866
  140CALA   OC2  294   1.607   2.532   4.393  0.0184  0.2512  0.1849
  141FAS      C  295   1.468   3.920   5.124 -0.3612 -0.1190  0.0365
  141FAS     C1  296   1.423   3.841   5.255  0.1089 -0.0188 -0.0229
  141FAS      N  297   1.522   3.837   5.372  0.2959 -0.3665  0.2467
  141FAS     C2  298   1.650   3.760   5.324  0.4231 -0.0951 -0.4907
  141FAS     C3  299   1.763   3.841   5.259  0.6048 -0.1112 -0.0972
  141FAS     N1  300   1.715   3.926   5.150 -0.1985  0.0829  0.0250
  141FAS     C4  301   1.604   3.872   5.063 -0.0487 -0.4389 -0.0230
  141FAS      S  302   1.827   4.003   5.055 -0.6669  0.4710  0.1813
  141FAS      O  303   1.914   4.078   5.145  0.3781 -0.0849  0.0970
  141FAS     O1  304   1.869   3.888   4.978 -0.4922 -0.1201  0.6752
  141FAS     C5  305   1.728   4.115   4.965  0.4265 -0.2266  0.1230
  141FAS     C6  306   1.726   4.089   4.828  0.3162 -0.5614 -0.7394
  141FAS     C7  307   1.644   4.163   4.745 -0.4099 -0.2196 -0.1384
  141FAS     C8  308   1.563   4.265   4.797  0.0643 -0.1001 -0.2487
  141FAS     C9  309   1.558   4.285   4.938  0.3701 -0.1273 -0.9403
  141FAS    C10  310   1.641   4.209   5.024 -0.0271 -0.4407  0.8635
  141FAS    C11  311   1.625   4.231   5.161 -1.2873  0.5829 -0.7121
  141FAS    C12  312   1.524   4.313   5.207  0.4563 -0.3340 -0.7778
  141FAS     N2  313   1.448   4.392   5.127 -0.2514  0.4795 -0.0237
  141FAS    C13  314   1.464   4.375   4.996  0.0660  0.2185  0.7076
  141FAS      H  315   1.467   4.030   5.134 -0.5666 -0.1482  0.3365
  141FAS     H1  316   1.392   3.905   5.047 -0.9969  2.1151  0.1442
  141FAS     H2  317   1.409   3.736   5.227 -0.5818  0.2965 -0.9046
  141FAS     H3  318   1.332   3.884   5.298 -0.9179 -0.7570 -1.3673
  141FAS     H4  319   1.537   3.930   5.413 -2.4873  0.4761 -0.4464
  141FAS     H5  320   1.623   3.684   5.250 -1.3191  1.0250 -1.0863
  141FAS     H6  321   1.700   3.703   5.402  0.4938 -0.9858 -1.1688
  141FAS     H7  322   1.842   3.775   5.222 -0.0345 -0.7447 -0.3522
  141FAS     H8  323   1.813   3.909   5.330  3.7968 -0.6160 -1.6763
  141FAS     H9  324   1.610   3.762   5.057  0.0303 -0.3705 -1.5401
  141FAS    H10  325   1.606   3.913   4.962 -0.6233 -1.6940 -0.5677
  141FAS    H11  326   1.785   4.010   4.782  0.6249 -1.2938  0.8432
  141FAS    H12  327   1.647   4.144   4.638  0.4962 -0.6230 -0.0498
  141FAS    H13  328   1.483   4.310   4.740  0.1234 -1.7760 -1.7357
  141FAS    H14  329   1.675   4.180   5.243 -0.4829  3.4822  0.7210
  141FAS    H15  330   1.509   4.325   5.315  0.4566 -1.3122 -0.6596
  141FAS    H16  331   1.404   4.430   4.925 -0.3365 -0.4876  0.4904
  141FAS    H17  332   1.493   3.782   5.455  1.5629 -1.2370  0.1578
  142SOL     OW  333   5.202   2.062   4.587 -0.3062 -0.0223 -0.3020
  142SOL    HW2  334   5.181   2.051   4.494  0.5597 -1.7658 -0.3312
  142SOL    HW3  335   5.277   2.120   4.588 -1.0385  0.9526 -0.5986
  142SOL    MW4  336   5.209   2.068   4.575  0.3488 -0.2378 -0.0222
  143SOL     OW  337   4.741   0.643   4.214 -0.4420  0.2404 -0.0410
  143SOL    HW2  338   4.779   0.726   4.242  0.6335 -0.7269  1.5110
  143SOL    HW3  339   4.816   0.587   4.193 -0.9591 -1.3153  1.8992
  143SOL    MW4  340   4.756   0.646   4.215  0.0540  0.3644  0.8956
  144SOL     OW  341   5.115   6.294   5.080  0.0560  0.0150  0.3738
  144SOL    HW2  342   5.156   6.363   5.028  0.0305 -1.3383 -1.5268
  144SOL    HW3  343   5.186   6.234   5.102 -0.0003  0.3760  1.6327
  144SOL    MW4  344   5.130   6.295   5.076 -0.3313  0.2592 -0.0691
  145SOL     OW  345   5.649   0.836   0.018  0.1703 -0.6442 -0.0227
  145SOL    HW2  346   5.718   0.796   0.071 -0.0335 -0.6498  0.2410
  145SOL    HW3  347   5.676   0.927   0.009  0.0788 -0.5797  0.3129
  145SOL    MW4  348   5.662   0.843   0.024  0.4761  1.0541  0.8342
  146SOL     OW  349   4.179   6.238   4.787  0.0219  0.3394 -0.0819
  146SOL    HW2  350   4.247   6.176   4.760 -0.3839 -0.0972 -0.1210
  146SOL    HW3  351   4.164   6.292   4.709  1.1057  1.1728  0.2687
  146SOL    MW4  352   4.186   6.237   4.773  0.6939  0.1463 -0.5671
  147SOL     OW  353   5.950   3.756   3.635 -0.0440 -0.4743 -0.1553
  147SOL    HW2  354   6.005   3.737   3.711  0.2146 -0.2804 -0.2933
  147SOL    HW3  355   6.011   3.789   3.569 -0.4247  0.4137 -0.0713
  147SOL    MW4  356   5.966   3.758   3.636  0.4606  0.1550 -0.4240
  148SOL     OW  357   0.517   6.186   4.282 -0.2199 -0.4390 -0.4765
  148SOL    HW2  358   0.508   6.091   4.274  1.4084 -1.2731  4.5029
  148SOL    HW3  359   0.431   6.217   4.311 -0.4834 -0.4640 -1.1972
  148SOL    MW4  360   0.504   6.178   4.285 -0.0157 -0.2774  0.0841
  149SOL     OW  361   5.122   4.472   0.031  0.1232  0.2273  0.3567
  149SOL    HW2  362   5.085   4.539   0.088 -0.6619  0.9633 -0.9673
  149SOL    HW3  363   5.089   4.389   0.066  1.0427  0.4931  1.9710
  149SOL    MW4  364   5.113   4.470   0.043  0.0807 -0.4731 -0.2607
  150SOL     OW  365   2.979   2.934   5.812  0.0440 -0.0156 -0.1100
  150SOL    HW2  366   3.049   2.992   5.840  0.4693  0.7063 -2.4728
  150SOL    HW3  367   2.957   2.963   5.724 -1.4505 -1.8712 -0.4187
  150SOL    MW4  368   2.985   2.945   5.804 -0.0083 -0.2746 -0.3243
  151SOL     OW  369   3.601   4.483   0.225 -0.1521  0.0372  0.1986
  151SOL    HW2  370   3.638   4.569   0.205 -3.7079  1.3167 -1.6222
  151SOL    HW3  371   3.613   4.433   0.145  1.9959 -1.3391  1.2844
  151SOL    MW4  372   3.608   4.488   0.212 -0.3283  0.5631  0.0245
  152SOL     OW  373   3.759   2.459   5.149 -0.2464  0.4889 -0.2123
  152SOL    HW2  374   3.798   2.515   5.215  0.1577 -1.4422  1.2680
  152SOL    HW3  375   3.668   2.449   5.176 -0.0843 -0.2932  0.0901
  152SOL    MW4  376   3.752   2.465   5.161  0.7775  0.8080  0.5905
  153SOL     OW  377   5.490   3.822   3.243  0.5679  0.0585  0.4798
  153SOL    HW2  378   5.509   3.915   3.257  1.2799 -0.3137  2.2195
  153SOL    HW3  379   5.575   3.784   3.220  0.0701  0.0006 -1.4552
  153SOL    MW4  380   5.504   3.829   3.242 -0.1828 -0.5846 -0.0568
  154SOL     OW  381   0.791   6.190   5.627  0.4061 -0.1410  0.1115
  154SOL    HW2  382   0.817   6.243   5.703 -3.3410 -0.1421  1.6445
  154SOL    HW3  383   0.838   6.107   5.638  1.3901  0.5384  1.3374
  154SOL    MW4  384   0.801   6.186   5.639 -0.2309 -0.3166  0.1520
  155SOL     OW  385   1.990   2.831   5.092 -0.3240 -0.1032  0.0233
  155SOL    HW2  386   1.952   2.904   5.141  0.9589  0.1977  0.6245
  155SOL    HW3  387   1.944   2.831   5.008 -1.9171 -0.0402  0.8612
  155SOL    MW4  388   1.979   2.840   5.087  0.0574  0.0344  0.0242
  156SOL     OW  389   2.089   4.249   1.676  0.1981 -0.3346  0.7254
  156SOL    HW2  390   2.056   4.312   1.612  0.4929 -1.2504 -0.3565
  156SOL    HW3  391   2.010   4.217   1.721  0.1316  1.5982  2.0882
  156SOL    MW4  392   2.074   4.253   1.673  0.1088 -0.0803 -0.0846
  157SOL     OW  393   0.907   6.168   0.303 -0.2594 -0.4144 -0.0814
  157SOL    HW2  394   0.999   6.189   0.285 -0.6810  0.4400 -1.4209
  157SOL    HW3  395   0.873   6.246   0.348 -0.0595 -1.2044  1.4981
  157SOL    MW4  396   0.915   6.181   0.306  0.3733  0.2592 -0.3998
  158SOL     OW  397   5.376   3.521   1.354 -0.2567 -0.2338  0.1164
  158SOL    HW2  398   5.307   3.485   1.409 -0.5048 -0.1627 -0.1451
  158SOL    HW3  399   5.449   3.537   1.414 -0.6828  0.2718  0.5106
  158SOL    MW4  400   5.376   3.519   1.369 -0.2565  0.1596  0.8262
  159SOL     OW  401   4.090   2.949   2.048  0.1613 -0.0274  0.3802
  159SOL    HW2  402   4.055   2.948   1.958  3.6322  1.6496 -1.1888
  159SOL    HW3  403   4.071   2.862   2.082 -1.6925 -0.5677 -1.7870
  159SOL    MW4  404   4.083   2.937   2.040  0.1527  0.4647 -0.3379
  160SOL     OW  405   6.324   3.191   3.256  0.4794 -0.1474 -0.1384
  160SOL    HW2  406   6.365   3.276   3.274  1.1743  0.1377 -2.6971
  160SOL    HW3  407   6.239   3.212   3.218  1.1947 -0.4997 -2.0312
  160SOL    MW4  408   6.318   3.205   3.253  0.0928  0.1402  0.6694
  161SOL     OW  409   3.230   0.780   4.269  0.0984 -0.2021 -0.1250
  161SOL    HW2  410   3.149   0.730   4.276 -0.9000  0.8321 -3.0006
  161SOL    HW3  411   3.290   0.737   4.330 -1.1025 -4.0216 -1.3649
  161SOL    MW4  412   3.228   0.768   4.278  0.0309 -0.4821  0.4865
  162SOL     OW  413   3.172   1.249   2.594 -0.4556  0.3417  0.2954
  162SOL    HW2  414   3.104   1.292   2.645 -0.1319  0.7660  0.3672
  162SOL    HW3  415   3.254   1.284   2.628 -0.1630 -0.7301  0.7288
  162SOL    MW4  416   3.174   1.259   2.605 -0.2971  0.0127 -0.1796
  163SOL     OW  417   4.460   3.642   0.870  0.2532  0.6212 -0.0103
  163SOL    HW2  418   4.406   3.564   0.857  0.3959  0.3177  1.0556
  163SOL    HW3  419   4.424   3.707   0.811  0.9778 -0.6390 -1.9553
  163SOL    MW4  420   4.448   3.640   0.861 -0.3410 -0.0670 -0.1395
  164SOL     OW  421   0.485   5.616   2.114  0.3358 -0.0781 -0.0327
  164SOL    HW2  422   0.406   5.665   2.090  0.7835  1.2779  1.1450
  164SOL    HW3  423   0.558   5.671   2.084  0.8468 -0.4147  0.5653
  164SOL    MW4  424   0.484   5.630   2.107  0.0948 -0.0526  0.2394
  165SOL     OW  425   2.426   4.658   2.158  0.5091  0.0817  0.7382
  165SOL    HW2  426   2.356   4.718   2.182  0.0167  0.9553 -2.4036
  165SOL    HW3  427   2.381   4.584   2.118  1.2982 -0.0289  0.0320
  165SOL    MW4  428   2.411   4.656   2.156  0.1962 -0.4929  1.3232
  166SOL     OW  429   3.437   4.710   0.763 -0.0525  0.0330 -0.2354
  166SOL    HW2  430   3.450   4.735   0.855 -1.3777  0.6804 -0.2057
  166SOL    HW3  431   3.379   4.634   0.766 -1.1232  0.8148 -0.5655
  166SOL    MW4  432   3.431   4.703   0.775  0.3853 -0.1909  0.0120
  167SOL     OW  433   1.279   3.120   5.231 -0.2741  0.4298 -0.3616
  167SOL    HW2  434   1.192   3.158   5.217  0.2440  1.7697 -0.1140
  167SOL    HW3  435   1.308   3.095   5.143 -0.3416  1.3144 -0.6511
  167SOL    MW4  436   1.272   3.122   5.217 -0.3714 -0.2780  0.6044
  168SOL     OW  437   3.331   2.003   5.794  0.5286 -0.1098 -0.2076
  168SOL    HW2  438   3.307   1.914   5.768  0.5860 -0.5679  1.2350
  168SOL    HW3  439   3.252   2.055   5.779  0.5557 -0.3355 -1.2388
  168SOL    MW4  440   3.318   1.998   5.788  0.2688  0.5601 -0.4224
  169SOL     OW  441   5.747   0.308   1.437  0.3690 -0.0867  0.3299
  169SOL    HW2  442   5.663   0.344   1.411  0.9381  1.6835  0.8173
  169SOL    HW3  443   5.733   0.276   1.526  0.0834 -0.2509  0.2257
  169SOL    MW4  444   5.734   0.308   1.445  0.1584 -0.4841  0.2627
  170SOL     OW  445   3.890   4.410   3.577 -0.0156 -0.6372 -0.2523
  170SOL    HW2  446   3.944   4.382   3.651 -2.2970 -0.9353  1.4193
  170SOL    HW3  447   3.833   4.477   3.614  0.1496  0.7354 -2.3118
  170SOL    MW4  448   3.890   4.415   3.592 -0.2716  0.0313 -0.3696
  171SOL     OW  449   1.389   5.697   4.359 -0.6034  0.0595  0.1844
  171SOL    HW2  450   1.383   5.631   4.428 -0.2118 -2.0290 -1.6500
  171SOL    HW3  451   1.345   5.774   4.394  0.4322 -0.5621  3.1083
  171SOL    MW4  452   1.383   5.698   4.373  0.1043  0.1756 -0.5817
  172SOL     OW  453   0.890   1.090   5.493  0.3164 -0.0418  0.8583
  172SOL    HW2  454   0.805   1.089   5.536 -0.4894 -0.4866 -0.6641
  172SOL    HW3  455   0.893   1.174   5.447  0.9434  0.2110  1.3477
  172SOL    MW4  456   0.879   1.101   5.493 -0.0282 -0.7504 -0.0065
  173SOL     OW  457   1.057   2.932   1.052 -0.6429 -0.6545 -0.5712
  173SOL    HW2  458   1.030   2.920   0.961 -1.6681 -0.8217 -0.2531
  173SOL    HW3  459   1.033   2.851   1.095  0.3656 -0.7991 -0.2594
  173SOL    MW4  460   1.050   2.920   1.045  0.0812 -0.0984  0.3686
  174SOL     OW  461   1.174   4.506   5.384  0.0772  0.0012 -0.1498
  174SOL    HW2  462   1.231   4.579   5.407  0.1325 -0.7580  2.4561
  174SOL    HW3  463   1.090   4.547   5.362 -0.0848  0.8798  1.8777
  174SOL    MW4  464   1.170   4.521   5.384  0.4257  0.2981  0.2125
  175SOL     OW  465   5.667   4.426   1.050 -0.2895 -0.4639 -0.6489
  175SOL    HW2  466   5.652   4.450   1.141 -0.2154  0.7529 -0.9466
  175SOL    HW3  467   5.727   4.492   1.016 -0.6764 -0.6332 -1.7116
  175SOL    MW4  468   5.673   4.438   1.057 -0.2043  0.0193 -0.0428
  176SOL     OW  469   4.413   5.204   0.338 -0.3137  0.1608  0.3718
  176SOL    HW2  470   4.387   5.287   0.378  1.1284  1.1242 -0.5699
  176SOL    HW3  471   4.479   5.168   0.397 -2.7393 -1.7244  2.1723
  176SOL    MW4  472   4.418   5.210   0.351 -0.1550  0.1179 -0.0013
  177SOL     OW  473   3.692   0.163   0.497 -0.7031 -0.1675  0.0689
  177SOL    HW2  474   3.685   0.071   0.521 -0.7759  0.0386  0.8821
  177SOL    HW3  475   3.628   0.207   0.553  1.0258  0.6754  1.5093
  177SOL    MW4  476   3.682   0.157   0.508  0.0878 -0.8305  0.5095
  178SOL     OW  477   3.228   0.279   2.842 -0.5167  0.5314  0.1588
  178SOL    HW2  478   3.312   0.322   2.854 -0.4155  0.4416 -0.2167
  178SOL    HW3  479   3.176   0.306   2.918  0.6267 -1.2789  1.6844
  178SOL    MW4  480   3.232   0.288   2.854 -0.2130  0.0275 -0.1453
  179SOL     OW  481   4.579   3.647   2.926  0.3846 -0.2765 -0.3175
  179SOL    HW2  482   4.667   3.659   2.961  0.1060  0.5040  0.1521
  179SOL    HW3  483   4.575   3.555   2.901  1.5403 -0.1911 -0.9181
  179SOL    MW4  484   4.590   3.637   2.927 -0.3339  0.1948  1.1121
  180SOL     OW  485   4.345   3.671   3.112 -0.4954 -0.4759  0.2721
  180SOL    HW2  486   4.373   3.706   3.028  0.9080 -0.5390  0.6900
  180SOL    HW3  487   4.327   3.579   3.095 -1.4149 -0.2199 -0.2086
  180SOL    MW4  488   4.346   3.664   3.099  0.2023 -0.2455  0.1325
  181SOL     OW  489   5.138   3.069   3.119 -0.2330 -0.0665  0.1785
  181SOL    HW2  490   5.104   3.128   3.052  0.5007  0.6374  0.4036
  181SOL    HW3  491   5.193   3.007   3.070 -1.1443 -0.6898 -0.0800
  181SOL    MW4  492   5.141   3.068   3.103 -0.4442  0.5020  0.0982
  182SOL     OW  493   1.156   1.866   2.576  0.1799 -0.0684  0.4478
  182SOL    HW2  494   1.208   1.899   2.503 -0.1014 -0.6785 -0.0333
  182SOL    HW3  495   1.079   1.827   2.535  0.3733 -1.0816  1.0229
  182SOL    MW4  496   1.153   1.865   2.561  0.1617  0.5762  0.4630
  183SOL     OW  497   6.069   3.234   5.079 -0.0734 -0.2749  0.2140
  183SOL    HW2  498   6.057   3.314   5.131 -1.2896  0.8318 -1.6322
  183SOL    HW3  499   6.036   3.164   5.135 -0.7870  0.7797  1.1739
  183SOL    MW4  500   6.063   3.235   5.093  0.7645 -0.1603 -0.0102
  184SOL     OW  501   0.229   4.375   3.752  0.5261 -0.6250 -0.1346
  184SOL    HW2  502   0.196   4.460   3.724  1.7956 -0.2467 -0.5390
  184SOL    HW3  503   0.198   4.366   3.843 -0.4009 -0.1635 -0.3954
  184SOL    MW4  504   0.220   4.385   3.761  0.1781 -0.5997 -0.8096
  185SOL     OW  505   0.958   2.606   3.844  0.2024 -0.7836 -0.1768
  185SOL    HW2  506   0.958   2.589   3.938  0.0508 -0.0740 -0.0448
  185SOL    HW3  507   1.039   2.566   3.812  0.4611 -0.6627  0.3198
  185SOL    MW4  508   0.968   2.598   3.852  0.3556  0.3636 -0.3341
  186SOL     OW  509   5.733   0.062   3.150  0.8792  0.5554 -0.5794
  186SOL    HW2  510   5.793  -0.012   3.161  1.0769  0.7959  0.0009
  186SOL    HW3  511   5.780   0.137   3.187  0.3969  0.8293 -0.5098
  186SOL    MW4  512   5.747   0.062   3.157 -0.0748  0.5243 -0.4511
  187SOL     OW  513   0.828   2.027   2.156  0.4209 -0.5093  0.6624
  187SOL    HW2  514   0.811   2.111   2.200 -1.3486 -0.3594 -0.2289
  187SOL    HW3  515   0.760   1.969   2.188  0.3170 -0.9711 -0.3566
  187SOL    MW4  516   0.817   2.031   2.166  0.0533 -0.7829  0.8066
  188SOL     OW  517   5.456   2.866   3.834  0.2348 -0.0830  0.3105
  188SOL    HW2  518   5.454   2.924   3.759  1.0085  0.0030  0.3477
  188SOL    HW3  519   5.548   2.844   3.845  0.2188  0.4112  1.6130
  188SOL    MW4  520   5.467   2.871   3.826  0.0811  0.2029 -1.2192
  189SOL     OW  521   3.676   5.354   1.104 -0.3217 -0.0368  1.0147
  189SOL    HW2  522   3.635   5.375   1.020  1.3776  0.3214  0.2271
  189SOL    HW3  523   3.770   5.369   1.089  0.0389 -0.1788  2.9188
  189SOL    MW4  524   3.683   5.359   1.091 -0.2266 -0.5151  0.4090
  190SOL     OW  525   2.758   3.999   4.809  0.3178  0.4520 -0.3915
  190SOL    HW2  526   2.684   4.025   4.864 -0.0352  1.0112 -1.1245
  190SOL    HW3  527   2.792   3.920   4.852 -1.0095 -0.1108 -0.3224
  190SOL    MW4  528   2.753   3.992   4.822 -0.0482  0.5688 -0.1019
  191SOL     OW  529   0.867   2.701   0.110 -0.1732 -0.2846 -0.4532
  191SOL    HW2  530   0.790   2.648   0.133  0.1961 -2.3769 -3.4028
  191SOL    HW3  531   0.934   2.636   0.089  2.0196  1.4868  0.6612
  191SOL    MW4  532   0.865   2.685   0.110 -0.2304 -0.1140  0.3275
  192SOL     OW  533   0.528   4.629   0.304  0.3774 -0.3087 -0.0233
  192SOL    HW2  534   0.550   4.561   0.240 -3.0921 -1.7442  0.0866
  192SOL    HW3  535   0.562   4.596   0.387  2.4136  0.2139 -0.5851
  192SOL    MW4  536   0.536   4.616   0.306  0.0504 -0.6262 -0.4473
  193SOL     OW  537   6.301   3.239   5.550 -0.5971 -0.2573  0.3594
  193SOL    HW2  538   6.385   3.195   5.536 -1.2272 -0.8806 -1.8187
  193SOL    HW3  539   6.324   3.331   5.562  0.5402 -0.7295  2.2342
  193SOL    MW4  540   6.315   3.245   5.550  0.0645 -0.1351  0.3495
  194SOL     OW  541   0.156   5.950   4.989 -0.1610 -0.2973  0.1825
  194SOL    HW2  542   0.073   5.914   4.959 -0.5698  0.1393  0.7682
  194SOL    HW3  543   0.168   6.030   4.939 -0.8156  0.4020  1.1203
  194SOL    MW4  544   0.147   5.956   4.978 -0.4405 -0.1912 -0.5560
  195SOL     OW  545   2.902   3.104   4.368  0.1522 -0.1418 -0.4057
  195SOL    HW2  546   2.929   3.188   4.405 -1.6859  0.5066 -0.4156
  195SOL    HW3  547   2.887   3.123   4.275 -0.3219 -0.4590 -0.3947
  195SOL    MW4  548   2.903   3.118   4.360  0.2450 -0.2162  0.0234
  196SOL     OW  549   6.033   6.197   0.935  0.1436  0.3005  0.2457
  196SOL    HW2  550   6.078   6.271   0.893 -1.5033  0.7882 -0.7374
  196SOL    HW3  551   5.957   6.236   0.978 -1.6040 -0.9414 -1.5474
  196SOL    MW4  552   6.029   6.212   0.935  0.1718 -0.0172  0.0441
  197SOL     OW  553   6.153   1.909   5.500 -0.2058  0.3098 -0.0026
  197SOL    HW2  554   6.108   1.964   5.565 -0.3910  0.5348 -0.3193
  197SOL    HW3  555   6.153   1.962   5.420  0.0980  0.0674 -0.1629
  197SOL    MW4  556   6.147   1.923   5.498 -0.1579 -0.8594 -0.0850
  198SOL     OW  557   3.933   0.407   5.807 -0.5709 -0.1926  0.0845
  198SOL    HW2  558   3.929   0.440   5.717 -0.6262 -0.1149  0.1150
  198SOL    HW3  559   4.024   0.419   5.834 -0.9380  1.5150  0.6861
  198SOL    MW4  560   3.944   0.413   5.799  0.3226 -1.0955 -0.0844
  199SOL     OW  561   5.748   4.228   5.155  0.1657  0.1121  0.8076
  199SOL    HW2  562   5.667   4.252   5.111  0.6808 -0.6952 -0.6693
  199SOL    HW3  563   5.722   4.208   5.244 -1.3507 -0.5554  0.2505
  199SOL    MW4  564   5.734   4.228   5.161 -0.4143 -0.7118  0.3401
  200SOL     OW  565   2.036   0.156   0.409 -0.1609  0.7085 -0.1886
  200SOL    HW2  566   1.943   0.176   0.416 -0.6198 -1.1901 -0.2448
  200SOL    HW3  567   2.058   0.178   0.319 -1.2349 -1.1881 -0.9816
  200SOL    MW4  568   2.027   0.162   0.398 -0.0891  0.3817  0.2237
  201SOL     OW  569   5.406   2.001   3.201 -0.4897  0.3441 -0.2236
  201SOL    HW2  570   5.329   2.045   3.237 -1.2269  0.5999 -2.0022
  201SOL    HW3  571   5.376   1.912   3.181 -0.2813  0.3959 -0.7753
  201SOL    MW4  572   5.392   1.995   3.203  0.0721 -0.1719  0.1051
  202SOL     OW  573   5.403   2.393   1.860  0.5429 -0.0089  0.7384
  202SOL    HW2  574   5.360   2.309   1.874 -1.9847  1.4700  2.6500
  202SOL    HW3  575   5.432   2.390   1.769 -2.9317 -1.5237 -0.4877
  202SOL    MW4  576   5.402   2.382   1.850  0.8572  0.0385 -0.3301
  203SOL     OW  577   2.540   4.317   5.185 -0.4468 -0.4825  0.1218
  203SOL    HW2  578   2.480   4.243   5.173 -1.7877  0.5753  0.0119
  203SOL    HW3  579   2.519   4.350   5.272 -0.3241  0.1598 -0.0875
  203SOL    MW4  580   2.529   4.312   5.195  0.0440  0.6338 -0.0477
  204SOL     OW  581   2.670   3.697   1.299  0.1911 -0.5542 -0.1408
  204SOL    HW2  582   2.576   3.699   1.317 -0.1079 -1.1479 -1.5249
  204SOL    HW3  583   2.709   3.671   1.382 -0.9997 -1.8182  0.0744
  204SOL    MW4  584   2.663   3.694   1.312 -1.1395 -0.1659 -0.1452
  205SOL     OW  585   2.152   2.170   2.069 -0.0885  0.5889 -0.2737
  205SOL    HW2  586   2.164   2.086   2.114 -1.1482 -0.1879 -1.3825
  205SOL    HW3  587   2.206   2.163   1.990 -0.4771  0.7934 -0.5586
  205SOL    MW4  588   2.161   2.158   2.065  0.0929  0.6919  0.0588
  206SOL     OW  589   2.366   0.808   0.526  0.0796 -0.4961  0.3670
  206SOL    HW2  590   2.384   0.722   0.563 -1.5887 -0.9345  0.2335
  206SOL    HW3  591   2.411   0.869   0.585 -0.1964 -1.3508  1.4896
  206SOL    MW4  592   2.375   0.805   0.539 -0.3087  0.3545 -0.0268
  207SOL     OW  593   1.469   3.533   4.068 -0.3906 -0.6294 -0.2492
  207SOL    HW2  594   1.397   3.488   4.024 -0.3157 -0.8295 -0.1672
  207SOL    HW3  595   1.495   3.474   4.138  1.8899 -2.0282 -2.1366
  207SOL    MW4  596   1.463   3.520   4.072 -0.6067  0.7701 -1.0680
  208SOL     OW  597   3.759   1.539   3.144  0.1730 -0.1223  0.1595
  208SOL    HW2  598   3.842   1.585   3.157 -1.1968  2.5214  0.1551
  208SOL    HW3  599   3.785   1.448   3.127  3.0426  0.5906  0.1698
  208SOL    MW4  600   3.773   1.533   3.144  0.1795  0.0834 -0.2285
  209SOL     OW  601   1.336   5.145   5.553  0.3598 -0.3569 -0.2682
  209SOL    HW2  602   1.394   5.169   5.481  0.7096 -1.0188 -0.2095
  209SOL    HW3  603   1.373   5.189   5.630  0.9302 -0.9714 -0.1844
  209SOL    MW4  604   1.349   5.154   5.554 -0.0938 -0.2553 -0.3506
  210SOL     OW  605   5.659   4.788   3.256  0.5752  0.2957  0.1820
  210SOL    HW2  606   5.647   4.708   3.204 -1.6104  0.6087  0.1062
  210SOL    HW3  607   5.711   4.760   3.331  2.1826 -0.5825 -1.1909
  210SOL    MW4  608   5.664   4.774   3.259 -0.1591  0.6483  0.0048
  211SOL     OW  609   2.774   4.537   5.941  0.1753  0.0657  0.3813
  211SOL    HW2  610   2.840   4.546   6.011  1.9273 -1.7164 -0.9167
  211SOL    HW3  611   2.695   4.507   5.986  0.7577  0.5828  1.8002
  211SOL    MW4  612   2.773   4.534   5.956 -0.4714  0.3252 -0.1093
  212SOL     OW  613   5.698   6.207   5.422 -0.8665  0.8575 -0.3393
  212SOL    HW2  614   5.762   6.223   5.491  0.6077 -1.5113 -1.0641
  212SOL    HW3  615   5.689   6.292   5.379 -0.5263  1.9678  1.6448
  212SOL    MW4  616   5.705   6.221   5.425 -0.1676 -0.4260  0.4692
  213SOL     OW  617   0.489   5.684   5.248 -0.1792 -0.1821  0.5201
  213SOL    HW2  618   0.479   5.660   5.156 -1.3573  0.3960  0.4770
  213SOL    HW3  619   0.410   5.733   5.268 -0.1012 -0.6097  1.9517
  213SOL    MW4  620   0.477   5.687   5.238 -0.3057 -0.2151 -0.1012
  214SOL     OW  621   3.969   6.064   4.713 -0.2116  0.1825  0.5848
  214SOL    HW2  622   4.003   5.975   4.729  0.2265  0.6446  2.5467
  214SOL    HW3  623   4.047   6.120   4.718 -0.4532  0.6749 -0.8960
  214SOL    MW4  624   3.984   6.059   4.716  0.4765 -0.0584 -0.4798
  215SOL     OW  625   2.536   4.576   2.424  0.4792 -0.3416  0.6846
  215SOL    HW2  626   2.508   4.485   2.411 -2.3092  0.6136 -0.9958
  215SOL    HW3  627   2.501   4.622   2.348  3.6615  1.8495  0.3672
  215SOL    MW4  628   2.527   4.570   2.413 -0.3449 -0.2898 -0.5347
  216SOL     OW  629   5.148   3.000   6.153 -0.1443 -0.1104  0.2153
  216SOL    HW2  630   5.179   3.065   6.089 -0.9334  0.8656  0.7943
  216SOL    HW3  631   5.226   2.978   6.204  0.2893 -0.1823 -0.4666
  216SOL    MW4  632   5.163   3.006   6.152  0.1886 -0.9540 -0.5673
  217SOL     OW  633   3.797   4.348   6.234 -0.4334 -0.2307 -0.4832
  217SOL    HW2  634   3.727   4.351   6.299 -1.5192 -1.7508 -1.5009
  217SOL    HW3  635   3.770   4.411   6.167  1.1077  1.9688  0.8527
  217SOL    MW4  636   3.784   4.357   6.234  0.1229 -0.6797 -0.2100
  218SOL     OW  637   6.131   0.246   4.332  0.1672  0.0762 -0.5094
  218SOL    HW2  638   6.166   0.310   4.270 -0.3079 -1.3091 -2.3043
  218SOL    HW3  639   6.203   0.185   4.348 -0.1955 -0.4876 -0.9960
  218SOL    MW4  640   6.145   0.247   4.326 -0.0204  0.6346 -0.2293
  219SOL     OW  641   0.149   3.816   2.649 -0.2555 -0.6321  0.1820
  219SOL    HW2  642   0.070   3.793   2.601 -0.8347 -1.8018  1.5815
  219SOL    HW3  643   0.117   3.852   2.732  0.6150 -2.0394  1.1845
  219SOL    MW4  644   0.134   3.817   2.654  0.0693  0.9268 -0.6188
  220SOL     OW  645   4.867   1.305   0.950  0.0901  0.2715  0.5537
  220SOL    HW2  646   4.950   1.353   0.946  0.8954 -0.9539  1.6920
  220SOL    HW3  647   4.822   1.343   1.025  0.5016 -0.3606  1.1363
  220SOL    MW4  648   4.872   1.317   0.960 -0.2686 -0.0943  0.0831
  221SOL     OW  649   2.970   1.879   3.432  0.6197  0.1637  0.2012
  221SOL    HW2  650   3.034   1.821   3.391 -2.2792 -2.6158 -0.8361
  221SOL    HW3  651   2.905   1.897   3.364 -2.1707 -1.1624  2.2816
  221SOL    MW4  652   2.970   1.874   3.418 -0.0551  0.3198  0.0935
  222SOL     OW  653   0.030   2.632   2.238 -0.5188 -0.2471  0.2398
  222SOL    HW2  654   0.071   2.707   2.194 -0.2331 -0.8690 -0.5752
  222SOL    HW3  655   0.093   2.561   2.227 -1.5726 -1.0860 -0.5779
  222SOL    MW4  656   0.044   2.632   2.231  0.0304  0.1899  0.0190
  223SOL     OW  657   2.704   3.213   3.706  0.5921 -0.1900 -0.2845
  223SOL    HW2  658   2.664   3.293   3.673  2.5663  1.5673  1.3154
  223SOL    HW3  659   2.631   3.165   3.747 -0.5256  1.0628 -0.7233
  223SOL    MW4  660   2.689   3.217   3.707 -0.0519  0.2566 -0.0011
  224SOL     OW  661   2.697   5.726   4.194 -0.4039 -0.0017  0.1543
  224SOL    HW2  662   2.641   5.655   4.224  0.8223 -0.9262  0.3366
  224SOL    HW3  663   2.760   5.685   4.136  0.0068  1.0323 -0.1624
  224SOL    MW4  664   2.698   5.711   4.191 -0.3779  0.4029 -0.1588
  225SOL     OW  665   5.234   4.441   3.858  0.4065 -0.1792 -0.3201
  225SOL    HW2  666   5.215   4.505   3.926  1.5905 -0.7017  0.5497
  225SOL    HW3  667   5.157   4.441   3.802  0.6397  2.4654 -0.7323
  225SOL    MW4  668   5.221   4.449   3.860  0.0121 -0.1780 -0.1203
  226SOL     OW  669   0.749   5.345   0.870  0.2720 -0.0989 -0.2270
  226SOL    HW2  670   0.698   5.423   0.893  0.1270 -0.5814  1.1418
  226SOL    HW3  671   0.817   5.378   0.811  0.6666  1.2033  0.8897
  226SOL    MW4  672   0.751   5.360   0.865  0.7513  0.0212 -0.5175
  227SOL     OW  673   3.831   3.074   5.736  0.1312 -0.9802 -0.4741
  227SOL    HW2  674   3.808   3.088   5.644  1.5167 -3.1121 -1.2118
  227SOL    HW3  675   3.752   3.101   5.785 -1.1902 -1.2101 -2.3833
  227SOL    MW4  676   3.817   3.079   5.731 -0.0402 -0.5867 -0.2383
  228SOL     OW  677   6.397   1.328   1.309 -0.3485  0.4875  0.0951
  228SOL    HW2  678   6.476   1.381   1.313 -1.3028  1.9308  0.8504
  228SOL    HW3  679   6.327   1.391   1.289 -1.1936 -0.8756 -1.4430
  228SOL    MW4  680   6.398   1.343   1.307 -0.3593  0.3208 -0.0754
  229SOL     OW  681   2.187   2.521   2.276 -0.8719 -0.1906 -0.1737
  229SOL    HW2  682   2.225   2.462   2.210 -0.9060 -1.0621  0.5718
  229SOL    HW3  683   2.218   2.608   2.250  0.7850 -0.7486 -0.1943
  229SOL    MW4  684   2.196   2.524   2.264  0.0908  0.1400  0.3862
  230SOL     OW  685   2.031   0.055   4.130  0.4992 -0.2952 -0.4310
  230SOL    HW2  686   2.083   0.111   4.188 -1.0987  0.0623  0.6985
  230SOL    HW3  687   2.076   0.062   4.045  1.1784  1.5698  0.0219
  230SOL    MW4  688   2.044   0.064   4.126  0.1298 -0.0830 -0.4375
  231SOL     OW  689   3.659   5.028   0.632  0.2493  0.4896  0.1622
  231SOL    HW2  690   3.711   4.973   0.691  1.4607  0.2823 -1.0216
  231SOL    HW3  691   3.682   5.118   0.656 -1.7163  0.5477  2.0860
  231SOL    MW4  692   3.669   5.033   0.643 -0.1727 -0.0928  0.2353
  232SOL     OW  693   4.815   1.460   3.352  0.1351  0.9257  0.9578
  232SOL    HW2  694   4.878   1.507   3.297 -0.2436  2.5031  1.8053
  232SOL    HW3  695   4.864   1.386   3.387 -0.1505 -1.4756 -3.0919
  232SOL    MW4  696   4.830   1.457   3.350 -0.6913 -0.6979 -0.2161
  233SOL     OW  697   2.447   0.343   2.771  0.3748  0.1718  0.5887
  233SOL    HW2  698   2.502   0.353   2.849  2.2390  2.2946 -0.9168
  233SOL    HW3  699   2.429   0.432   2.742 -1.1942 -0.5543 -0.8342
  233SOL    MW4  700   2.452   0.356   2.778  0.0286  0.4351 -0.8524
  234SOL     OW  701   1.892   1.741   6.081  0.2552  0.3779  0.0159
  234SOL    HW2  702   1.819   1.745   6.020  0.7450 -0.5985 -0.6590
  234SOL    HW3  703   1.851   1.730   6.167 -0.4457  1.9134 -0.0887
  234SOL    MW4  704   1.877   1.740   6.084  0.4513  0.2411 -0.2943
  235SOL     OW  705   0.396   0.644   0.020 -0.5374 -0.3168  0.0821
  235SOL    HW2  706   0.307   0.676   0.037 -1.1109 -2.0317  0.5814
  235SOL    HW3  707   0.447   0.677   0.094 -0.5696  1.2577 -0.5603
  235SOL    MW4  708   0.391   0.653   0.032 -0.0771  0.2764  0.4033
  236SOL     OW  709   5.239   3.751   0.909  0.0853 -0.1183  0.5644
  236SOL    HW2  710   5.310   3.739   0.972  1.1321  0.7422 -0.4169
  236SOL    HW3  711   5.282   3.781   0.829 -1.3278 -0.1265 -0.2356
  236SOL    MW4  712   5.254   3.753   0.907 -0.2776  0.1738  0.4930
  237SOL     OW  713   4.422   1.685   0.365 -0.1194  0.6554 -0.2587
  237SOL    HW2  714   4.407   1.636   0.284 -0.4399  0.0465  0.1604
  237SOL    HW3  715   4.391   1.774   0.346  0.2703  0.6421 -0.9594
  237SOL    MW4  716   4.416   1.690   0.352  0.4025 -0.4456  0.5503
  238SOL     OW  717   0.928   5.263   3.914  0.0254 -0.0224  0.1062
  238SOL    HW2  718   0.849   5.227   3.873 -0.9306  2.4959 -0.3992
  238SOL    HW3  719   0.991   5.269   3.843 -0.6806  1.6622 -0.4082
  238SOL    MW4  720   0.926   5.259   3.899 -0.3778 -0.4856 -0.3702
  239SOL     OW  721   2.468   4.521   3.025 -0.5897  0.7020  0.3340
  239SOL    HW2  722   2.446   4.608   3.060  0.0658  0.4638  1.4108
  239SOL    HW3  723   2.564   4.519   3.028 -0.6230 -0.6585  1.9221
  239SOL    MW4  724   2.478   4.533   3.030 -0.0254 -0.6418  0.2556
  240SOL     OW  725   0.241   4.760   5.422 -0.2982 -0.3417 -0.1677
  240SOL    HW2  726   0.167   4.752   5.483 -0.3519  0.1945 -0.1634
  240SOL    HW3  727   0.234   4.682   5.367 -0.1912 -0.8814  0.5741
  240SOL    MW4  728   0.230   4.748   5.423 -0.4688 -0.2485 -0.0207
  241SOL     OW  729   3.489   0.834   0.088 -0.3418 -0.6419 -0.1789
  241SOL    HW2  730   3.526   0.833   0.176  1.4697  0.4118 -0.8838
  241SOL    HW3  731   3.564   0.832   0.029 -1.4900 -0.9161 -1.7136
  241SOL    MW4  732   3.504   0.834   0.092 -0.0386  0.1019 -0.2997
  242SOL     OW  733   5.699   2.902   5.547 -0.0324  0.3854  0.1649
  242SOL    HW2  734   5.794   2.895   5.549 -0.0629  0.0273  0.2991
  242SOL    HW3  735   5.675   2.881   5.456 -0.0871 -0.8360  0.4469
  242SOL    MW4  736   5.708   2.899   5.535  0.0987 -0.5334  0.2203
  243SOL     OW  737   5.302   0.765   2.441 -0.0296 -0.4879  0.2528
  243SOL    HW2  738   5.247   0.841   2.425 -2.0461 -1.4406  2.1601
  243SOL    HW3  739   5.384   0.801   2.475 -1.1593  0.8635  1.6705
  243SOL    MW4  740   5.306   0.780   2.443  0.0347  0.6482 -0.2608
  244SOL     OW  741   4.206   0.308   4.599 -0.4218  0.1922  0.0515
  244SOL    HW2  742   4.278   0.342   4.546 -1.3314  0.3477 -1.1215
  244SOL    HW3  743   4.131   0.305   4.539 -1.7769  1.3756  1.5658
  244SOL    MW4  744   4.205   0.312   4.584  0.6296  0.3599  0.3089
  245SOL     OW  745   0.652   5.686   4.594 -0.2080 -0.0273  0.0796
  245SOL    HW2  746   0.673   5.777   4.615 -2.1899  0.6671 -0.7462
  245SOL    HW3  747   0.593   5.658   4.664  0.0531 -0.5525  0.0962
  245SOL    MW4  748   0.647   5.694   4.606 -0.2584  0.2336  0.5440
  246SOL     OW  749   1.300   4.460   2.068 -1.0507 -0.3526  0.1588
  246SOL    HW2  750   1.378   4.413   2.039  0.6668  1.2932  1.8595
  246SOL    HW3  751   1.322   4.552   2.059 -3.1511  0.1736 -0.1347
  246SOL    MW4  752   1.313   4.466   2.063 -0.5968  0.0560  0.2327
  247SOL     OW  753   1.125   1.598   4.844 -0.1832  0.1503  0.3563
  247SOL    HW2  754   1.032   1.603   4.821  0.0375  1.9383 -0.2496
  247SOL    HW3  755   1.125   1.582   4.939 -1.1417  2.0765  0.7248
  247SOL    MW4  756   1.112   1.597   4.854 -0.0922  0.0326  0.0902
  248SOL     OW  757   0.907   4.331   1.427 -0.1054  0.1100  0.1851
  248SOL    HW2  758   0.976   4.392   1.403  0.2798  0.4544  2.0354
  248SOL    HW3  759   0.841   4.385   1.470  0.2367 -0.7264  1.8392
  248SOL    MW4  760   0.907   4.346   1.430  0.3107  0.0308 -0.1818
  249SOL     OW  761   5.463   5.096   1.463 -0.6294  0.1558  0.1552
  249SOL    HW2  762   5.431   5.102   1.372  0.8174 -0.4190 -0.4195
  249SOL    HW3  763   5.550   5.058   1.455 -0.0672  1.0412  1.7205
  249SOL    MW4  764   5.470   5.092   1.450  0.1545  0.2022  0.0124
  250SOL     OW  765   3.932   2.288   2.995 -0.0060  0.1474 -0.0297
  250SOL    HW2  766   3.909   2.279   3.088 -0.0035  1.2889  0.1055
  250SOL    HW3  767   3.917   2.381   2.976  0.2289 -0.0200 -1.1129
  250SOL    MW4  768   3.927   2.299   3.005 -0.2443  0.1323 -0.2184
  251SOL     OW  769   1.878   1.094   2.833  0.1877 -0.0681  0.7015
  251SOL    HW2  770   1.825   1.135   2.901 -0.6318  1.1592 -0.6187
  251SOL    HW3  771   1.911   1.167   2.781  0.2071 -0.9997 -0.6452
  251SOL    MW4  772   1.876   1.109   2.835 -0.5566 -0.0659 -0.6683
  252SOL     OW  773   3.550   2.980   0.288  0.0744 -0.5745  0.1800
  252SOL    HW2  774   3.505   3.039   0.227  0.7254  0.4825  0.6932
  252SOL    HW3  775   3.603   3.038   0.343  0.4273 -1.6123  0.9683
  252SOL    MW4  776   3.551   2.995   0.287  0.2905  0.0345  0.7894
  253SOL     OW  777   0.014   5.790   3.113 -0.1975 -0.8804  0.1296
  253SOL    HW2  778  -0.072   5.781   3.070  0.2501  0.1557 -1.0366
  253SOL    HW3  779   0.075   5.747   3.053  0.6568  1.8296 -1.1155
  253SOL    MW4  780   0.010   5.783   3.099 -0.0588  0.3614 -0.5759
  254SOL     OW  781   1.494   0.411   5.370  0.1364 -0.1405  0.3729
  254SOL    HW2  782   1.551   0.488   5.372 -0.9410  0.7176 -0.4924
  254SOL    HW3  783   1.482   0.393   5.277 -3.7005  1.8489  0.2730
  254SOL    MW4  784   1.500   0.419   5.358  0.5750  0.4680  0.3946
  255SOL     OW  785   4.778   5.839   0.052 -0.0828  0.2963 -0.3576
  255SOL    HW2  786   4.779   5.793  -0.032  1.4323  1.1869 -0.8440
  255SOL    HW3  787   4.703   5.898   0.045 -1.0017 -0.8275 -0.3920
  255SOL    MW4  788   4.768   5.841   0.040  0.2989  0.1263  0.1906
  256SOL     OW  789   3.563   5.741   4.818  0.0175  0.0941 -0.3103
  256SOL    HW2  790   3.562   5.836   4.826 -0.9931  0.0302  0.7059
  256SOL    HW3  791   3.498   5.711   4.883 -1.3044 -1.1714 -2.1178
  256SOL    MW4  792   3.554   5.750   4.828 -0.5924  0.2157 -0.2066
  257SOL     OW  793   5.958   1.988   2.580 -0.1315  0.4003  0.5396
  257SOL    HW2  794   6.050   2.011   2.593  0.0033 -1.0280  2.4876
  257SOL    HW3  795   5.957   1.892   2.576 -1.7114  0.2630  2.5433
  257SOL    MW4  796   5.970   1.978   2.581 -0.3148 -0.3574 -0.0574
  258SOL     OW  797   0.986   3.945   2.672 -0.4036 -0.1248 -0.1637
  258SOL    HW2  798   1.071   3.966   2.634  0.1372  0.2980  1.2449
  258SOL    HW3  799   0.923   3.980   2.609  0.4675  0.5113 -0.7032
  258SOL    MW4  800   0.989   3.953   2.658  0.0928  0.9473 -0.0805
  259SOL     OW  801   0.832   2.572   5.543 -0.0086  0.0303 -0.0488
  259SOL    HW2  802   0.871   2.486   5.560 -2.0191 -0.3275  4.0784
  259SOL    HW3  803   0.882   2.633   5.597 -0.3892  0.9550 -0.7005
  259SOL    MW4  804   0.844   2.569   5.552  0.3787 -0.1934  0.2981
  260SOL     OW  805   4.397   4.004   4.226 -0.1690  0.3162 -0.2351
  260SOL    HW2  806   4.343   4.083   4.218 -0.2479  0.3171  0.2787
  260SOL    HW3  807   4.468   4.018   4.163  0.4911  1.3674  0.6863
  260SOL    MW4  808   4.400   4.016   4.217  0.1725 -0.0321 -0.4377
  261SOL     OW  809   2.754   3.893   5.224  0.0617  0.0239  0.0554
  261SOL    HW2  810   2.696   3.937   5.286 -0.7190  0.3057 -0.8510
  261SOL    HW3  811   2.804   3.831   5.277 -1.1602 -0.3091  0.8500
  261SOL    MW4  812   2.753   3.891   5.239 -0.4836  0.1408 -0.1143
  262SOL     OW  813   3.839   1.227   2.429 -0.0113  0.3344  0.1718
  262SOL    HW2  814   3.801   1.230   2.517  0.2758 -0.2194  0.3236
  262SOL    HW3  815   3.789   1.290   2.378 -2.2720 -1.5582 -0.1015
  262SOL    MW4  816   3.828   1.235   2.434  0.1740 -0.3527  0.1510
  263SOL     OW  817   5.047   3.593   4.168 -0.3401 -0.0913  0.0473
  263SOL    HW2  818   5.105   3.647   4.222 -0.7785  1.9454 -1.3967
  263SOL    HW3  819   5.033   3.514   4.220 -0.0845  1.3992  2.5581
  263SOL    MW4  820   5.053   3.590   4.182  0.1276 -0.2128 -0.2516
  264SOL     OW  821   5.676   0.046   2.104  0.0500  0.2348  0.5388
  264SOL    HW2  822   5.612   0.116   2.090  0.6313  0.8077  0.7131
  264SOL    HW3  823   5.641  -0.003   2.179 -0.5473  0.1056  0.1849
  264SOL    MW4  824   5.663   0.049   2.112  0.2419 -0.0227 -0.4742
  265SOL     OW  825   4.238   0.913   6.128 -0.3244 -0.8722 -0.1111
  265SOL    HW2  826   4.161   0.856   6.130 -0.2060 -1.0138  0.5389
  265SOL    HW3  827   4.205   0.998   6.158 -0.4611 -0.6391 -0.9003
  265SOL    MW4  828   4.223   0.917   6.132 -0.3721 -0.1906 -0.8069
  266SOL     OW  829   1.696   2.640   3.232  0.2540 -0.7604  0.2707
  266SOL    HW2  830   1.619   2.653   3.176  0.8339  1.6307 -0.1133
  266SOL    HW3  831   1.661   2.608   3.315 -1.3852  1.5712  0.5768
  266SOL    MW4  832   1.681   2.638   3.236 -0.4072 -0.3623  0.0321
  267SOL     OW  833   5.176   2.864   2.554  0.6255 -0.8245 -0.4063
  267SOL    HW2  834   5.124   2.929   2.602 -0.1213 -2.0274  0.4829
  267SOL    HW3  835   5.111   2.812   2.507  1.2565 -0.5681 -1.5957
  267SOL    MW4  836   5.160   2.866   2.554 -0.1660 -0.3664 -0.1222
  268SOL     OW  837   3.973   4.137   4.216 -0.3531 -0.2801 -0.3435
  268SOL    HW2  838   3.913   4.206   4.188 -0.0806 -0.1436 -0.5967
  268SOL    HW3  839   4.001   4.095   4.135  0.2634 -0.0305 -0.2672
  268SOL    MW4  840   3.969   4.141   4.202 -0.0829  0.4473  0.5124
  269SOL     OW  841   0.833   3.526   5.697  0.1700  0.0093  0.1647
  269SOL    HW2  842   0.808   3.454   5.639  0.5901  0.0986 -0.1324
  269SOL    HW3  843   0.835   3.603   5.639 -0.0438  0.2162  0.4296
  269SOL    MW4  844   0.830   3.527   5.681 -0.2938  0.2918  0.2791
  270SOL     OW  845   1.415   6.139   4.172 -0.0879  0.2894  0.0348
  270SOL    HW2  846   1.448   6.165   4.257  2.4496 -0.4822 -0.6278
  270SOL    HW3  847   1.323   6.165   4.173  0.5581  2.9284  1.9097
  270SOL    MW4  848   1.407   6.146   4.183  0.0884 -0.0993 -0.2074
  271SOL     OW  849   6.337   4.646   3.224  0.2423 -0.2358  0.1971
  271SOL    HW2  850   6.249   4.615   3.244 -0.4885  2.1397  1.0440
  271SOL    HW3  851   6.332   4.674   3.132  0.0882 -0.0465  0.2619
  271SOL    MW4  852   6.325   4.646   3.214  0.8296 -0.6369 -0.3533
  272SOL     OW  853   4.728   4.023   4.832  0.5864  0.5960 -0.0160
  272SOL    HW2  854   4.689   4.110   4.835  1.6084  1.0886 -0.5580
  272SOL    HW3  855   4.709   3.990   4.744  1.1963  0.7590 -0.2166
  272SOL    MW4  856   4.721   4.030   4.821  0.4210 -0.0588 -0.0528
  273SOL     OW  857   2.359   3.653   4.511  0.3490  0.2562 -0.7858
  273SOL    HW2  858   2.332   3.600   4.437  2.1118 -1.6737 -0.1384
  273SOL    HW3  859   2.452   3.635   4.522  0.8265  2.7614  0.1108
  273SOL    MW4  860   2.368   3.644   4.503  0.1745 -0.4379  0.0363
  274SOL     OW  861   3.992   4.167   0.209 -0.4348 -0.4938  0.4711
  274SOL    HW2  862   4.035   4.107   0.270 -0.5183 -0.9294  0.1125
  274SOL    HW3  863   3.931   4.217   0.263  1.3499  1.0020  1.2100
  274SOL    MW4  864   3.990   4.166   0.224  0.0509  0.1335 -0.3367
  275SOL     OW  865   1.777   6.045   2.306 -0.3312 -0.5293 -0.0460
  275SOL    HW2  866   1.687   6.015   2.294  0.2154 -2.1870 -0.2154
  275SOL    HW3  867   1.793   6.037   2.400 -0.6083  0.5593  0.1064
  275SOL    MW4  868   1.767   6.040   2.317 -0.0280 -0.4302  0.2322
  276SOL     OW  869   2.320   3.021   5.957 -0.1167 -0.2046  0.1618
  276SOL    HW2  870   2.355   3.014   6.046 -1.0994  0.1211  0.5869
  276SOL    HW3  871   2.244   2.963   5.957  0.5636 -1.1516 -0.8443
  276SOL    MW4  872   2.315   3.012   5.969 -0.1180  0.2077  0.2203
  277SOL     OW  873   5.966   6.171   4.423 -0.1943  0.6185  0.0554
  277SOL    HW2  874   5.942   6.162   4.515 -0.0978 -1.7648 -0.0856
  277SOL    HW3  875   6.043   6.228   4.423 -0.7381  1.3967  1.3251
  277SOL    MW4  876   5.973   6.178   4.435 -0.4817 -0.5114 -0.3705
  278SOL     OW  877   6.328   2.502   5.634 -0.5055 -0.3712 -0.4904
  278SOL    HW2  878   6.266   2.512   5.705 -1.1026 -3.0563 -0.5608
  278SOL    HW3  879   6.313   2.414   5.600  0.9811  0.1663 -2.7852
  278SOL    MW4  880   6.318   2.492   5.639  0.6079  0.2248 -0.5656
  279SOL     OW  881   4.385   3.646   4.355 -0.2250 -0.2356  0.8669
  279SOL    HW2  882   4.358   3.556   4.335 -2.1154  0.2261  1.1379
  279SOL    HW3  883   4.304   3.697   4.352  1.0803  1.9166 -1.4528
  279SOL    MW4  884   4.370   3.641   4.352  0.1861 -0.0029  0.6615
  280SOL     OW  885   2.485   4.272   6.337 -0.0638  0.3444 -0.1843
  280SOL    HW2  886   2.495   4.260   6.432  0.1185 -1.5804 -0.4038
  280SOL    HW3  887   2.413   4.334   6.328  1.6945  2.7507  1.2224
  280SOL    MW4  888   2.477   4.278   6.349 -0.2069 -0.4716  0.2493
  281SOL     OW  889   1.220   6.118   6.054 -0.5670  0.1634  0.0580
  281SOL    HW2  890   1.200   6.130   6.147 -0.5093  0.1518  0.0716
  281SOL    HW3  891   1.173   6.039   6.030  1.6458 -1.4576  0.7574
  281SOL    MW4  892   1.211   6.109   6.063  0.5270  0.1846 -0.2642
  282SOL     OW  893   4.143   0.289   2.274  0.2493  0.2831  0.2789
  282SOL    HW2  894   4.135   0.382   2.252 -1.0146 -0.2017 -1.5874
  282SOL    HW3  895   4.186   0.250   2.197  4.3844 -0.1919  2.5252
  282SOL    MW4  896   4.148   0.296   2.261  0.3144 -0.2305  0.0882
  283SOL     OW  897   3.641   4.999   3.254  0.1253 -0.4163 -0.4091
  283SOL    HW2  898   3.592   4.951   3.187 -0.5467 -2.1589  1.2561
  283SOL    HW3  899   3.665   4.933   3.318  1.9180  0.9755  0.4344
  283SOL    MW4  900   3.638   4.984   3.253  0.0227 -0.3613  0.4242
  284SOL     OW  901   3.526   5.312   2.518  0.4786  0.3094 -0.5235
  284SOL    HW2  902   3.614   5.278   2.504 -0.5590 -1.6388 -2.8240
  284SOL    HW3  903   3.523   5.394   2.469  1.2102  0.7960  0.2211
  284SOL    MW4  904   3.537   5.318   2.510 -0.3857 -0.2800 -0.8810
  285SOL     OW  905   1.026   1.926   0.103 -0.0121 -0.2194  0.1334
  285SOL    HW2  906   1.082   1.861   0.061  1.1582  0.9576 -0.2145
  285SOL    HW3  907   1.020   1.897   0.194  0.0456 -1.0945 -0.1368
  285SOL    MW4  908   1.033   1.914   0.110  0.3566 -0.2262 -0.4636
  286SOL     OW  909   0.810   6.082   2.837 -0.4753  0.4398 -0.0694
  286SOL    HW2  910   0.759   6.138   2.778  0.3813  0.5644 -0.7212
  286SOL    HW3  911   0.789   6.114   2.925 -1.6939  0.3214 -0.3076
  286SOL    MW4  912   0.801   6.094   2.841  0.5731  0.0898  0.2502
  287SOL     OW  913   1.243   1.180   5.801 -0.2532 -0.3227 -0.2287
  287SOL    HW2  914   1.194   1.221   5.729 -1.6690 -1.8545 -0.1963
  287SOL    HW3  915   1.229   1.238   5.875 -1.3365 -0.2889 -0.4414
  287SOL    MW4  916   1.234   1.193   5.801 -0.3960  0.3298  0.1171
  288SOL     OW  917   3.144   0.092   3.811 -0.2652  0.3153  0.6473
  288SOL    HW2  918   3.144   0.105   3.906  0.2752  1.5322  0.4974
  288SOL    HW3  919   3.057   0.058   3.792 -0.5483  0.5167  1.5185
  288SOL    MW4  920   3.132   0.089   3.821  0.0511  0.5178 -0.3844
  289SOL     OW  921   2.352   6.063   6.383  0.4956  0.0760  0.7937
  289SOL    HW2  922   2.354   5.971   6.410 -0.9562 -0.9979 -2.3029
  289SOL    HW3  923   2.309   6.108   6.456 -1.9314 -2.3334  1.0335
  289SOL    MW4  924   2.347   6.057   6.396  0.3898  0.4345  1.2982
  290SOL     OW  925   1.015   2.079   2.741 -0.2538 -0.0028 -0.3675
  290SOL    HW2  926   1.086   2.021   2.716  1.7195  0.7251  2.9270
  290SOL    HW3  927   1.048   2.167   2.720 -1.1176  0.2469 -0.7358
  290SOL    MW4  928   1.028   2.083   2.735  0.3568  0.3191 -0.7470
  291SOL     OW  929   4.499   1.244   0.161 -0.3497 -0.2270 -0.4381
  291SOL    HW2  930   4.412   1.204   0.160 -0.2630 -0.4522  0.3961
  291SOL    HW3  931   4.483   1.338   0.162 -0.6122 -0.2714  0.9475
  291SOL    MW4  932   4.485   1.251   0.161 -0.5867  0.5560 -0.5637
  292SOL     OW  933   1.970   5.400   0.184 -0.2783  0.3548 -0.3233
  292SOL    HW2  934   2.049   5.443   0.218 -0.7235  1.5555 -0.7579
  292SOL    HW3  935   1.976   5.310   0.217  0.4473  0.8638  1.0185
  292SOL    MW4  936   1.981   5.394   0.193  0.0931 -0.2228 -0.6597
  293SOL     OW  937   5.461   4.814   1.895  0.4908 -0.0651 -0.3408
  293SOL    HW2  938   5.401   4.770   1.835  1.1527 -1.3728 -0.0856
  293SOL    HW3  939   5.534   4.843   1.840  0.3545  0.1611 -0.4061
  293SOL    MW4  940   5.463   4.812   1.880  0.2411 -0.3941 -0.0354
  294SOL     OW  941   5.425   2.878   0.804 -0.5473  0.3226  0.4027
  294SOL    HW2  942   5.506   2.890   0.755 -0.6114  0.1375  0.2507
  294SOL    HW3  943   5.447   2.817   0.874 -1.3113 -2.4001 -1.5699
  294SOL    MW4  944   5.438   2.872   0.807  0.2968  0.0294 -0.0166
  295SOL     OW  945   3.869   3.121   1.003  0.2795 -0.3853  0.0051
  295SOL    HW2  946   3.829   3.157   0.924 -0.2751  0.2764  0.5777
  295SOL    HW3  947   3.862   3.191   1.069  3.6526  0.3420 -0.2102
  295SOL    MW4  948   3.863   3.135   1.002 -0.2332 -0.4209  0.1182
  296SOL     OW  949   2.042   0.152   3.649  0.4415 -0.4780  0.0826
  296SOL    HW2  950   2.071   0.094   3.579  0.9499 -2.0672  1.5294
  296SOL    HW3  951   1.954   0.177   3.624  0.3867 -1.5006 -0.8446
  296SOL    MW4  952   2.034   0.147   3.637 -0.3854  0.2220  0.4008
  297SOL     OW  953   1.296   0.864   5.981 -0.0417 -0.1336  0.2138
  297SOL    HW2  954   1.353   0.866   6.057  1.5527  3.1404 -0.8339
  297SOL    HW3  955   1.341   0.808   5.918 -0.0144 -0.7080  0.7364
  297SOL    MW4  956   1.309   0.857   5.983 -0.9016 -0.1438  0.5640
  298SOL     OW  957   5.040   0.093   3.013 -0.6943  1.0107 -0.1838
  298SOL    HW2  958   5.048   0.050   3.098  0.5987  0.6934 -0.4447
  298SOL    HW3  959   4.974   0.042   2.966  0.8908 -0.8449 -0.5352
  298SOL    MW4  960   5.032   0.081   3.018 -0.1622  0.1379 -0.0237
  299SOL     OW  961   1.494   1.685   3.985  0.0602 -0.1283  0.4278
  299SOL    HW2  962   1.411   1.715   4.022 -0.0384 -0.4579  0.4736
  299SOL    HW3  963   1.499   1.593   4.008  0.0741 -0.3003 -0.2426
  299SOL    MW4  964   1.483   1.677   3.993  0.2288  0.0809  0.0473
  300SOL     OW  965   3.367   1.163   2.377  0.0454  0.3287 -0.7526
  300SOL    HW2  966   3.371   1.226   2.305 -0.0772 -0.0310 -1.0797
  300SOL    HW3  967   3.454   1.122   2.377  0.4605  1.1795  0.0912
  300SOL    MW4  968   3.379   1.166   2.367  0.0211  0.2517  0.2269
  301SOL     OW  969   4.385   5.036   0.721 -0.0085  0.6539 -0.1569
  301SOL    HW2  970   4.428   4.959   0.760 -1.7081  0.9493  2.5662
  301SOL    HW3  971   4.457   5.092   0.692  1.2797 -1.3328 -1.0166
  301SOL    MW4  972   4.400   5.033   0.722 -0.9271 -0.3837  0.3263
  302SOL     OW  973   3.575   2.761   5.027 -0.2223  0.3779  0.0665
  302SOL    HW2  974   3.667   2.737   5.024 -0.2011  0.2528  1.1927
  302SOL    HW3  975   3.529   2.681   5.002 -0.0379  0.3543 -0.2014
  302SOL    MW4  976   3.581   2.747   5.024  0.1256  0.2216  0.1496
  303SOL     OW  977   4.292   0.399   5.236  0.7239  0.5439  0.3491
  303SOL    HW2  978   4.310   0.313   5.273 -0.3376  0.4996  0.7735
  303SOL    HW3  979   4.332   0.460   5.298 -1.4159  0.4898  1.8807
  303SOL    MW4  980   4.300   0.396   5.249 -0.2807 -0.3184 -0.1117
  304SOL     OW  981   0.861   1.929   4.485 -0.3924 -0.6680  0.0267
  304SOL    HW2  982   0.916   1.992   4.533  0.4224 -2.0022  0.9384
  304SOL    HW3  983   0.778   1.974   4.473  0.2086  0.6367  0.5052
  304SOL    MW4  984   0.857   1.943   4.490 -0.6700 -0.4500  0.2377
  305SOL     OW  985   5.523   4.140   1.458 -0.2923 -0.0483 -0.0445
  305SOL    HW2  986   5.469   4.123   1.535 -0.3349  1.3238  0.2596
  305SOL    HW3  987   5.461   4.153   1.387 -0.2363 -2.4550 -0.6244
  305SOL    MW4  988   5.508   4.140   1.459 -0.0455 -0.2901  0.6942
  306SOL     OW  989   4.194   0.087   1.610  0.4589  0.1459 -0.0023
  306SOL    HW2  990   4.220   0.161   1.665 -1.8312  1.3186 -0.3605
  306SOL    HW3  991   4.114   0.055   1.651  0.7593 -1.3859 -0.5557
  306SOL    MW4  992   4.187   0.093   1.623 -0.5118  0.2054  0.2166
  307SOL     OW  993   5.224   1.771   1.945 -0.5250 -0.5769  0.0805
  307SOL    HW2  994   5.143   1.806   1.907 -0.0240 -0.8294 -1.2888
  307SOL    HW3  995   5.246   1.697   1.888 -0.4810 -1.8811  1.7280
  307SOL    MW4  996   5.216   1.766   1.932 -0.2561 -0.5927  0.2358
  308SOL     OW  997   4.156   4.605   3.166 -0.4977  0.3033 -0.0968
  308SOL    HW2  998   4.116   4.520   3.148 -0.0778  0.1158 -0.1526
  308SOL    HW3  999   4.250   4.591   3.153  0.0839 -0.2593  3.6765
  308SOL    MW4 1000   4.163   4.592   3.162 -0.2711 -0.0133 -0.2712
  309SOL     OW 1001   2.541   2.949   2.272 -0.1359 -0.1296  1.0800
  309SOL    HW2 1002   2.635   2.962   2.261 -0.1348 -2.1070 -3.1788
  309SOL    HW3 1003   2.529   2.936   2.366  3.8569 -0.1596  1.7533
  309SOL    MW4 1004   2.552   2.949   2.283  0.2012  0.3952 -0.1384
  310SOL     OW 1005   2.445   1.325   4.657 -0.0595 -1.0309  0.7741
  310SOL    HW2 1006   2.387   1.272   4.602  0.5379 -1.9175  0.9732
  310SOL    HW3 1007   2.422   1.415   4.636 -0.7907 -1.3601  0.0915
  310SOL    MW4 1008   2.434   1.330   4.647 -0.2187  0.8298  0.2486
  311SOL     OW 1009   4.290   0.402   1.303  0.3967  0.0390  0.3711
  311SOL    HW2 1010   4.316   0.402   1.211 -0.2658 -0.0313  0.1807
  311SOL    HW3 1011   4.249   0.488   1.316 -0.0502 -0.1826  0.4430
  311SOL    MW4 1012   4.288   0.413   1.293  0.2001  0.3807 -0.4188
  312SOL     OW 1013   5.242   5.468   3.106 -0.0260 -0.2617 -0.5501
  312SOL    HW2 1014   5.185   5.440   3.035  1.9670 -0.2588 -2.2274
  312SOL    HW3 1015   5.189   5.531   3.155 -1.3628 -0.0097 -2.2144
  312SOL    MW4 1016   5.227   5.472   3.103  0.4044  0.1813  0.3005
  313SOL     OW 1017   3.138   1.827   1.932 -0.1861 -0.0288  0.1717
  313SOL    HW2 1018   3.047   1.799   1.942 -0.0474 -0.2097  0.9704
  313SOL    HW3 1019   3.133   1.905   1.876 -0.9734  0.8074  1.3491
  313SOL    MW4 1020   3.125   1.834   1.926  0.3737  0.1513 -0.8361
  314SOL     OW 1021   2.873   6.113   2.018  0.1489  0.1928 -0.2732
  314SOL    HW2 1022   2.826   6.195   2.001  0.3437  0.4708  0.4652
  314SOL    HW3 1023   2.937   6.136   2.085 -0.1163 -0.6733  0.3039
  314SOL    MW4 1024   2.875   6.127   2.025  0.2562  0.2251  0.0397
  315SOL     OW 1025   4.693   0.169   3.078 -0.3257  0.1418  0.3566
  315SOL    HW2 1026   4.753   0.243   3.074 -1.4968  1.0930 -0.4564
  315SOL    HW3 1027   4.727   0.107   3.015  0.7250 -0.0786  1.1150
  315SOL    MW4 1028   4.705   0.171   3.069  0.4121  0.0357  0.2431
  316SOL     OW 1029   3.161   2.588   3.609  0.1479 -0.0074 -0.0393
  316SOL    HW2 1030   3.229   2.522   3.600 -0.6660 -1.1666  1.7079
  316SOL    HW3 1031   3.095   2.548   3.666 -2.0950  1.0079 -1.7468
  316SOL    MW4 1032   3.161   2.574   3.615  0.2885  0.7248 -0.1921
  317SOL     OW 1033   2.557   3.323   5.425 -0.7147  0.3989  0.4524
  317SOL    HW2 1034   2.638   3.324   5.476  1.1296  0.5870 -2.2295
  317SOL    HW3 1035   2.524   3.233   5.434  0.0263  0.1949  1.2483
  317SOL    MW4 1036   2.564   3.311   5.433  0.2307  0.0829  0.1930
  318SOL     OW 1037   2.829   0.662   1.868 -0.3170  0.2042  0.0967
  318SOL    HW2 1038   2.846   0.577   1.828 -0.5002 -0.8076  2.0609
  318SOL    HW3 1039   2.754   0.697   1.819 -0.9644 -1.2735 -0.0167
  318SOL    MW4 1040   2.821   0.656   1.856 -0.7363 -0.7832 -0.2397
  319SOL     OW 1041   1.038   3.201   1.974 -0.1911  0.4702 -0.6459
  319SOL    HW2 1042   1.095   3.159   1.909  1.1851  0.4195  0.5444
  319SOL    HW3 1043   0.956   3.152   1.970  0.8131 -1.2969 -0.4441
  319SOL    MW4 1044   1.035   3.189   1.965  0.1666 -0.2555  0.2054
  320SOL     OW 1045   0.933   4.442   3.144  0.1727  0.3328  0.1005
  320SOL    HW2 1046   0.987   4.390   3.204  0.6493  1.1657  0.4045
  320SOL    HW3 1047   0.966   4.420   3.057  0.6825  0.4620  0.2549
  320SOL    MW4 1048   0.945   4.432   3.141  0.3065  0.1337 -0.8062
  321SOL     OW 1049   3.457   3.281   0.879  0.8370  0.0481  0.3551
  321SOL    HW2 1050   3.401   3.347   0.839  0.7877 -0.1146  0.1538
  321SOL    HW3 1051   3.536   3.281   0.825 -0.0729 -1.6951 -1.1057
  321SOL    MW4 1052   3.460   3.290   0.867  0.5844 -0.2086 -0.1071
  322SOL     OW 1053   3.626   3.188   3.222  0.0190 -0.2351 -0.2390
  322SOL    HW2 1054   3.558   3.173   3.156 -0.9318  0.0096  0.6590
  322SOL    HW3 1055   3.646   3.282   3.213  0.6927 -0.4254 -0.9009
  322SOL    MW4 1056   3.620   3.199   3.212  0.1524 -0.2809 -0.0884
  323SOL     OW 1057   0.938   4.719   2.698 -0.1717 -0.6214  0.0194
  323SOL    HW2 1058   0.918   4.795   2.644 -1.3669 -2.0673 -1.7126
  323SOL    HW3 1059   0.878   4.724   2.772 -0.2866  0.0824 -0.1202
  323SOL    MW4 1060   0.927   4.730   2.700  0.1489  0.2278  0.0297
  324SOL     OW 1061   2.760   4.115   2.834  0.1194  0.0143  0.3819
  324SOL    HW2 1062   2.820   4.145   2.903  1.7140  0.1937 -1.0470
  324SOL    HW3 1063   2.732   4.028   2.863 -1.3588  1.0879  2.5471
  324SOL    MW4 1064   2.764   4.108   2.847 -0.2350  0.6904 -0.5601
  325SOL     OW 1065   2.195   1.350   0.242 -0.6589 -0.4787  0.0204
  325SOL    HW2 1066   2.252   1.345   0.165 -0.9542 -0.2953 -0.2084
  325SOL    HW3 1067   2.244   1.404   0.304 -0.0474 -1.3114  0.2829
  325SOL    MW4 1068   2.209   1.356   0.240 -0.2202 -0.3792 -0.1085
  326SOL     OW 1069   0.194   0.873   2.135 -0.1336  0.1113  0.0708
  326SOL    HW2 1070   0.181   0.934   2.063  2.9489 -0.0285 -0.7412
  326SOL    HW3 1071   0.188   0.927   2.214  2.3046  1.5344 -0.6188
  326SOL    MW4 1072   0.192   0.888   2.136 -0.1836  0.4600 -0.1039
  327SOL     OW 1073   3.270   2.721   4.021 -0.2564  0.0338 -0.4133
  327SOL    HW2 1074   3.188   2.676   4.039 -0.1020  0.4193  1.4521
  327SOL    HW3 1075   3.257   2.810   4.054  1.6356 -0.5252  2.1416
  327SOL    MW4 1076   3.258   2.727   4.028 -0.5693  0.1019 -0.2536
  328SOL     OW 1077   5.687   3.511   5.111 -0.5664 -0.2545  0.5852
  328SOL    HW2 1078   5.637   3.533   5.033 -0.4586 -1.5966  0.1087
  328SOL    HW3 1079   5.699   3.416   5.106 -0.4936 -0.3619  2.1998
  328SOL    MW4 1080   5.682   3.502   5.100 -0.5688  0.0826  0.0199
  329SOL     OW 1081   4.047   2.019   3.739 -0.1650  0.6868 -0.3767
  329SOL    HW2 1082   3.964   2.053   3.707 -0.6673  0.0493  0.2342
  329SOL    HW3 1083   4.079   2.087   3.798 -0.4965  0.7095 -0.2222
  329SOL    MW4 1084   4.040   2.033   3.743  0.4768 -0.1566 -0.4514
  330SOL     OW 1085   5.159   4.910   2.784 -0.0673  0.3125  0.3911
  330SOL    HW2 1086   5.221   4.896   2.855 -0.5118  1.4234  1.0181
  330SOL    HW3 1087   5.211   4.949   2.714  0.3217 -0.5518  0.1882
  330SOL    MW4 1088   5.174   4.913   2.784  0.0429 -0.4340 -0.5547
  331SOL     OW 1089   0.722   3.899   5.465 -0.0957  0.1790  0.2114
  331SOL    HW2 1090   0.654   3.872   5.403  1.4140  0.8963 -1.8782
  331SOL    HW3 1091   0.789   3.831   5.459  0.1408  0.3370  0.9388
  331SOL    MW4 1092   0.722   3.887   5.456 -0.8953  0.4429  0.0391
  332SOL     OW 1093   0.870   5.076   3.613  0.2954 -0.1836 -0.8751
  332SOL    HW2 1094   0.860   5.044   3.703  1.0684 -0.1553 -0.7712
  332SOL    HW3 1095   0.790   5.125   3.596 -0.0009 -0.4623 -0.3161
  332SOL    MW4 1096   0.859   5.078   3.623 -0.5627  0.3749  0.2022
  333SOL     OW 1097   3.972   3.238   0.644  0.1921  0.0636  0.1784
  333SOL    HW2 1098   4.042   3.180   0.674  0.8218  0.6424 -0.1507
  333SOL    HW3 1099   4.017   3.307   0.596 -0.4215  1.5247  1.6221
  333SOL    MW4 1100   3.987   3.240   0.642 -0.3225  0.3634 -0.0125
  334SOL     OW 1101   4.981   0.761   2.514  0.2240  0.1172  0.1303
  334SOL    HW2 1102   4.946   0.828   2.573  0.2649  0.4237 -0.1868
  334SOL    HW3 1103   4.990   0.806   2.430 -0.8875 -0.6055 -0.3985
  334SOL    MW4 1104   4.977   0.776   2.511  0.1169 -0.0075  0.0589
  335SOL     OW 1105   0.216   0.854   0.389  0.2176  0.1310  0.0557
  335SOL    HW2 1106   0.147   0.807   0.436  0.2745 -0.3175 -0.2999
  335SOL    HW3 1107   0.259   0.907   0.456  1.2824 -1.6377  0.8456
  335SOL    MW4 1108   0.212   0.855   0.404  0.3868  0.4353 -0.1369
  336SOL     OW 1109   2.038   3.379   5.992  0.3069  0.1592  0.2296
  336SOL    HW2 1110   2.077   3.306   5.944 -0.5541  0.1976 -0.5729
  336SOL    HW3 1111   2.109   3.442   6.003  1.0082 -0.7115  0.7638
  336SOL    MW4 1112   2.052   3.378   5.987 -0.6727  0.1956 -0.0329
  337SOL     OW 1113   5.898   1.728   3.096  0.3369 -0.1920 -0.2653
  337SOL    HW2 1114   5.988   1.760   3.087  0.8239 -1.8436 -2.0799
  337SOL    HW3 1115   5.856   1.791   3.153  2.8036  0.3365  1.1360
  337SOL    MW4 1116   5.905   1.740   3.102 -0.0296  0.1655 -0.4318
  338SOL     OW 1117   0.239   6.319   2.704  0.0144  0.2514 -0.5507
  338SOL    HW2 1118   0.234   6.366   2.787  0.5019  2.1492 -1.5546
  338SOL    HW3 1119   0.148   6.294   2.685 -0.2309  0.6785  0.0472
  338SOL    MW4 1120   0.226   6.322   2.712  0.3626 -0.2540 -0.0245
  339SOL     OW 1121   6.380   2.967   0.243 -0.2156 -0.3969  0.0045
  339SOL    HW2 1122   6.449   2.987   0.180 -0.2025  0.8648  0.4047
  339SOL    HW3 1123   6.393   2.874   0.264 -0.1148 -0.7976 -1.6912
  339SOL    MW4 1124   6.391   2.957   0.238 -0.3762 -0.3001  0.1143
  340SOL     OW 1125   0.008   0.453   3.402 -0.1544  0.1882 -0.2162
  340SOL    HW2 1126   0.034   0.388   3.337 -0.2445  0.0826 -0.1459
  340SOL    HW3 1127   0.015   0.537   3.355  1.9820  0.3518  0.2788
  340SOL    MW4 1128   0.013   0.455   3.387 -0.3997 -0.0663  0.1430
  341SOL     OW 1129   0.217   0.466   1.153  0.3339 -0.4109 -0.0215
  341SOL    HW2 1130   0.274   0.390   1.166 -1.4558 -1.8786 -0.4662
  341SOL    HW3 1131   0.131   0.430   1.135 -0.8185  1.7511  0.7670
  341SOL    MW4 1132   0.213   0.451   1.152  0.1385 -0.1302 -0.0486
  342SOL     OW 1133   0.088   1.261   2.451 -0.2738  0.0936  0.3306
  342SOL    HW2 1134   0.014   1.219   2.495  0.5891 -0.1932  1.5770
  342SOL    HW3 1135   0.137   1.188   2.413 -1.1136  0.3517 -1.3403
  342SOL    MW4 1136   0.085   1.245   2.452  0.1650 -0.5666  0.3030
  343SOL     OW 1137   5.228   4.763   2.074  0.9172 -0.4854  0.1328
  343SOL    HW2 1138   5.166   4.814   2.022  0.0992 -1.5511  0.0350
  343SOL    HW3 1139   5.314   4.785   2.037  0.4054 -0.7385 -1.2634
  343SOL    MW4 1140   5.232   4.773   2.062  0.0187  0.5670 -0.1481
  344SOL     OW 1141   3.968   1.980   1.741 -0.1087  0.3217 -0.3026
  344SOL    HW2 1142   3.909   2.024   1.802 -0.8135  0.7639 -1.2703
  344SOL    HW3 1143   3.916   1.909   1.704 -0.3450  1.1951 -1.7530
  344SOL    MW4 1144   3.954   1.977   1.744  0.3162 -0.1630  0.1172
  345SOL     OW 1145   1.781   6.429   5.098 -0.2875 -0.8109  0.1934
  345SOL    HW2 1146   1.698   6.435   5.146 -0.4264 -0.0677 -0.1251
  345SOL    HW3 1147   1.848   6.450   5.164 -0.4198 -0.5347  0.2420
  345SOL    MW4 1148   1.779   6.432   5.113 -0.0601  0.0006 -0.2822
  346SOL     OW 1149   0.253   2.826   0.724  0.0679  0.2390  0.3994
  346SOL    HW2 1150   0.259   2.847   0.631 -1.2276 -1.1374 -0.0335
  346SOL    HW3 1151   0.298   2.742   0.733 -0.3935  0.0334  0.8838
  346SOL    MW4 1152   0.260   2.818   0.713 -0.8899 -0.2148 -0.0499
  347SOL     OW 1153   2.668   3.836   2.210  0.0428 -0.0907  0.0252
  347SOL    HW2 1154   2.603   3.775   2.247  1.0941 -1.2419  0.0439
  347SOL    HW3 1155   2.737   3.779   2.176  0.5802  1.0775 -0.8889
  347SOL    MW4 1156   2.669   3.821   2.210  0.0500 -0.3930  0.4862
  348SOL     OW 1157   4.955   2.092   5.596  0.2049  0.1176  0.4534
  348SOL    HW2 1158   5.047   2.077   5.576 -0.0882 -1.6976  0.3251
  348SOL    HW3 1159   4.909   2.070   5.515 -0.4647 -0.6909  1.0374
  348SOL    MW4 1160   4.961   2.087   5.583 -0.3185 -0.0241  0.3941
  349SOL     OW 1161   0.459   4.356   3.013 -0.3564 -0.1538 -0.0082
  349SOL    HW2 1162   0.472   4.280   3.069 -1.3973 -1.0611 -0.9376
  349SOL    HW3 1163   0.485   4.327   2.925 -1.9967  0.1044 -0.6205
  349SOL    MW4 1164   0.464   4.342   3.009 -0.1407  0.2324 -0.2242
  350SOL     OW 1165   5.139   2.050   1.257  0.1913  0.1599 -0.1135
  350SOL    HW2 1166   5.182   1.983   1.310 -0.9354 -1.1890 -0.8262
  350SOL    HW3 1167   5.059   2.070   1.304 -0.2009 -0.1210 -0.6441
  350SOL    MW4 1168   5.134   2.043   1.270 -0.0238 -0.6460 -0.3559
  351SOL     OW 1169   1.381   0.170   3.258 -0.3250 -0.5160 -0.8116
  351SOL    HW2 1170   1.460   0.220   3.241 -1.6528  1.7378 -0.7435
  351SOL    HW3 1171   1.394   0.132   3.345  1.0924 -1.1108 -1.2549
  351SOL    MW4 1172   1.393   0.172   3.267 -0.2457 -0.3351 -0.0120
  352SOL     OW 1173   3.416   3.477   4.845 -0.0603  0.3152  0.6518
  352SOL    HW2 1174   3.346   3.436   4.793 -0.6725  2.4996 -0.4119
  352SOL    HW3 1175   3.411   3.435   4.930 -1.6507 -0.6858  0.1133
  352SOL    MW4 1176   3.406   3.466   4.849 -0.4916  0.4100  0.2280
  353SOL     OW 1177   1.147   1.589   1.964 -0.3289  0.0498 -0.4299
  353SOL    HW2 1178   1.211   1.550   2.023 -0.0862  2.8370  1.3877
  353SOL    HW3 1179   1.089   1.517   1.939  0.2863 -1.5257  2.2848
  353SOL    MW4 1180   1.148   1.575   1.969 -0.4320  0.1376  0.1465
  354SOL     OW 1181   2.926   0.037   5.309 -0.1323 -0.0407  0.0109
  354SOL    HW2 1182   2.859  -0.005   5.256  0.2373  0.3433 -0.7805
  354SOL    HW3 1183   2.937  -0.021   5.385 -1.7523  0.1792  0.4563
  354SOL    MW4 1184   2.919   0.024   5.312 -0.0395  0.1051  0.0148
  355SOL     OW 1185   4.699   4.328   0.949  0.1593 -0.6899 -0.0324
  355SOL    HW2 1186   4.751   4.407   0.938  0.3485 -1.1789 -4.2632
  355SOL    HW3 1187   4.763   4.259   0.967  0.7710 -0.7763 -2.2535
  355SOL    MW4 1188   4.714   4.329   0.950  0.3529  0.0699 -0.4114
  356SOL     OW 1189   3.355   5.200   4.942  0.8121 -0.3125  0.2104
  356SOL    HW2 1190   3.295   5.271   4.921  0.2692 -0.4856  1.1313
  356SOL    HW3 1191   3.301   5.121   4.940  1.0889 -0.5184  0.6337
  356SOL    MW4 1192   3.340   5.199   4.939 -0.1250 -0.8372  0.2384
  357SOL     OW 1193   6.223   6.284   4.451 -0.1874  0.1624  0.0025
  357SOL    HW2 1194   6.173   6.344   4.507  0.1637 -0.2117  0.7293
  357SOL    HW3 1195   6.251   6.214   4.510 -0.6040 -0.7358 -0.8373
  357SOL    MW4 1196   6.220   6.283   4.466  0.1704  0.5588  0.6649
  358SOL     OW 1197   4.185   4.644   5.082  0.2931 -0.0687 -0.2281
  358SOL    HW2 1198   4.148   4.718   5.129  1.1290 -0.6197  1.3849
  358SOL    HW3 1199   4.263   4.679   5.038 -0.7722  0.5624 -1.6832
  358SOL    MW4 1200   4.191   4.658   5.082 -0.7255 -0.6690 -0.5931
  359SOL     OW 1201   4.541   3.569   1.127  0.2099 -0.3265  0.2205
  359SOL    HW2 1202   4.515   3.613   1.046  1.1199 -1.3507 -0.6635
  359SOL    HW3 1203   4.500   3.482   1.122  2.0103 -1.2019 -0.2184
  359SOL    MW4 1204   4.532   3.563   1.116  0.3521  0.2677 -0.4651
  360SOL     OW 1205   5.525   0.099   6.264 -0.3337  0.0812  0.1551
  360SOL    HW2 1206   5.594   0.074   6.326 -0.2281  0.4451  0.1821
  360SOL    HW3 1207   5.443   0.075   6.309 -0.2820  0.8499  0.6650
  360SOL    MW4 1208   5.523   0.092   6.278  0.0531 -0.0994 -0.2709
  361SOL     OW 1209   6.000   4.662   4.269 -0.0914 -0.2817  0.0686
  361SOL    HW2 1210   6.001   4.613   4.187  3.3668  0.2121 -0.3013
  361SOL    HW3 1211   6.089   4.658   4.301 -0.6243  2.2032  2.2118
  361SOL    MW4 1212   6.012   4.655   4.262  0.0519 -0.2573  0.3491
  362SOL     OW 1213   4.105   3.209   4.715 -0.0334 -0.7094 -0.3200
  362SOL    HW2 1214   4.121   3.302   4.702 -0.2736 -0.6512 -0.2182
  362SOL    HW3 1215   4.069   3.203   4.803  1.7741 -1.1228  0.4361
  362SOL    MW4 1216   4.102   3.220   4.725 -0.0848 -0.6933  0.5299
  363SOL     OW 1217   5.152   1.317   2.270 -0.3175 -0.8794 -0.0268
  363SOL    HW2 1218   5.081   1.381   2.272 -0.6568 -1.2589  0.7217
  363SOL    HW3 1219   5.222   1.360   2.222 -0.8158 -0.2422 -0.1968
  363SOL    MW4 1220   5.152   1.331   2.264 -0.4758  0.1443 -0.9396
  364SOL     OW 1221   4.749   3.250   2.131  0.6424  0.4846 -0.4550
  364SOL    HW2 1222   4.725   3.266   2.222  0.3842 -1.4806 -0.1378
  364SOL    HW3 1223   4.821   3.187   2.135 -1.2497 -1.9316 -1.6008
  364SOL    MW4 1224   4.755   3.244   2.143  0.2724 -0.5494  0.2028
  365SOL     OW 1225   5.732   2.293   5.195 -0.7221  0.2924 -0.3310
  365SOL    HW2 1226   5.754   2.384   5.215  1.6781  0.2339 -2.2443
  365SOL    HW3 1227   5.789   2.242   5.253  1.3532  0.1234 -2.3561
  365SOL    MW4 1228   5.743   2.298   5.205 -0.0940  0.0577  0.0479
  366SOL     OW 1229   5.006   4.693   0.185  0.3628  0.7222  0.0805
  366SOL    HW2 1230   5.050   4.701   0.270  0.6131 -2.6832  0.4141
  366SOL    HW3 1231   4.912   4.696   0.207  0.3955  2.2360  0.1110
  366SOL    MW4 1232   4.999   4.694   0.199 -0.4432  0.1699 -0.1264
  367SOL     OW 1233   2.065   4.731   3.304 -0.4520 -0.4460  0.1692
  367SOL    HW2 1234   2.075   4.662   3.238  2.1175 -0.5638  0.5833
  367SOL    HW3 1235   1.989   4.703   3.356  1.7206 -4.2924  1.7207
  367SOL    MW4 1236   2.056   4.718   3.302 -0.0649 -0.3178  0.8198
  368SOL     OW 1237   1.323   4.623   1.222 -0.5707 -0.5594 -0.4531
  368SOL    HW2 1238   1.390   4.555   1.222  0.7037  0.6226  0.5301
  368SOL    HW3 1239   1.305   4.639   1.129  0.4664 -0.9522 -0.7388
  368SOL    MW4 1240   1.329   4.616   1.209 -0.5459 -0.3302  0.6372
  369SOL     OW 1241   5.357   1.216   1.935  0.6024  0.0374  0.5359
  369SOL    HW2 1242   5.320   1.168   2.009 -0.5744 -1.4739 -0.9669
  369SOL    HW3 1243   5.429   1.265   1.973  0.9047 -1.7396  2.4613
  369SOL    MW4 1244   5.362   1.216   1.950  0.1961 -0.5703  0.1622
  370SOL     OW 1245   2.102   3.261   6.232  0.1132 -0.5112 -0.1074
  370SOL    HW2 1246   2.085   3.297   6.145 -0.2827 -3.1125 -1.2011
  370SOL    HW3 1247   2.077   3.331   6.292  0.4346  1.3864 -2.0433
  370SOL    MW4 1248   2.097   3.275   6.228  0.1722  0.6911  0.5255
  371SOL     OW 1249   4.099   5.672   3.190  0.4391 -0.0463  0.3205
  371SOL    HW2 1250   4.080   5.655   3.098  1.6295 -1.7826  0.3594
  371SOL    HW3 1251   4.093   5.587   3.232 -2.5454  1.0002  2.3932
  371SOL    MW4 1252   4.096   5.659   3.184 -0.1215  0.1057  0.3902
  372SOL     OW 1253   5.269   6.345   6.070 -0.0055 -0.1580 -0.1628
  372SOL    HW2 1254   5.349   6.387   6.038 -0.2087 -0.0780 -0.5605
  372SOL    HW3 1255   5.265   6.262   6.024 -0.1335 -0.1779 -0.1162
  372SOL    MW4 1256   5.279   6.340   6.060  0.4071  0.0673  0.1077
  373SOL     OW 1257   5.011   5.565   0.790  0.2003  0.5754  0.2801
  373SOL    HW2 1258   4.939   5.523   0.837  0.8935 -2.1733 -0.9328
  373SOL    HW3 1259   5.078   5.579   0.857 -0.6087  1.1759  0.9946
  373SOL    MW4 1260   5.010   5.561   0.805  0.3402  0.2390  0.4949
  374SOL     OW 1261   1.109   4.327   1.042  0.1279  0.1953 -0.3169
  374SOL    HW2 1262   1.120   4.242   1.085  0.9149 -0.7239 -2.1937
  374SOL    HW3 1263   1.049   4.309   0.970  1.2563  0.9127 -1.4844
  374SOL    MW4 1264   1.103   4.313   1.038  0.0083 -0.2315  0.7872
  375SOL     OW 1265   1.204   2.262   0.658 -0.2143  0.9759  0.3490
  375SOL    HW2 1266   1.252   2.339   0.629  1.9060 -0.5462 -0.4688
  375SOL    HW3 1267   1.188   2.212   0.578  0.9361 -0.7043  1.0868
  375SOL    MW4 1268   1.209   2.265   0.643 -0.0671  0.0259 -0.5442
  376SOL     OW 1269   4.940   5.836   4.716 -0.1267  0.4502 -0.0294
  376SOL    HW2 1270   4.848   5.809   4.722  0.1423 -0.2452  1.4059
  376SOL    HW3 1271   4.947   5.876   4.630 -1.3637 -1.0746 -0.9035
  376SOL    MW4 1272   4.929   5.838   4.705  0.1411 -0.7744  0.2134
  377SOL     OW 1273   0.516   2.916   4.023  0.0651  0.1917 -0.3573
  377SOL    HW2 1274   0.470   2.943   3.944  0.6391 -0.6082 -0.9833
  377SOL    HW3 1275   0.449   2.914   4.091 -0.7304 -0.4757 -1.1333
  377SOL    MW4 1276   0.501   2.919   4.022 -0.1419 -0.0979 -0.5993
  378SOL     OW 1277   2.551   4.480   1.225 -0.3083 -0.3762 -0.1466
  378SOL    HW2 1278   2.575   4.571   1.206  1.1942 -0.9132 -1.0431
  378SOL    HW3 1279   2.503   4.451   1.148 -1.6629 -0.0651  0.5642
  378SOL    MW4 1280   2.548   4.488   1.212  0.3849  0.5436 -1.1242
  379SOL     OW 1281   2.363   2.933   0.358  0.7031  0.1139  0.0842
  379SOL    HW2 1282   2.302   2.953   0.286  0.9565  0.5065 -0.0283
  379SOL    HW3 1283   2.323   2.974   0.435  0.9663  0.6353 -0.0481
  379SOL    MW4 1284   2.350   2.941   0.359  0.0822  0.2021  0.1091
  380SOL     OW 1285   4.326   5.446   0.447 -0.0770  0.0373  0.0854
  380SOL    HW2 1286   4.348   5.421   0.537  0.1460  1.4164  0.4410
  380SOL    HW3 1287   4.393   5.511   0.424 -0.2240 -0.1897 -1.0323
  380SOL    MW4 1288   4.338   5.451   0.456  0.1186  0.6567 -0.5522
  381SOL     OW 1289   6.359   0.169   3.598 -0.2496 -0.3325 -0.2650
  381SOL    HW2 1290   6.363   0.080   3.563 -1.3783 -0.3392 -0.4072
  381SOL    HW3 1291   6.350   0.158   3.693  1.6766 -0.3257 -0.0425
  381SOL    MW4 1292   6.358   0.156   3.606  0.7236  0.1786 -1.0695
  382SOL     OW 1293   1.458   4.695   2.131 -0.5728  0.2847  0.5859
  382SOL    HW2 1294   1.429   4.774   2.177  1.4548  0.0511  2.3923
  382SOL    HW3 1295   1.504   4.728   2.054  0.4783  0.8996  1.4584
  382SOL    MW4 1296   1.460   4.709   2.127 -0.4636 -0.5827 -0.6125
  383SOL     OW 1297   2.040   1.020   2.028 -0.0762 -0.7516  0.0685
  383SOL    HW2 1298   2.044   1.105   1.984 -0.3317 -0.4067  0.6878
  383SOL    HW3 1299   1.954   1.020   2.071 -0.1770 -1.4280 -0.1263
  383SOL    MW4 1300   2.029   1.031   2.028  0.2045 -0.5013  0.0556
  384SOL     OW 1301   3.340   3.357   0.289  0.4068 -0.0850  0.1505
  384SOL    HW2 1302   3.351   3.269   0.254 -0.9906  0.4781 -1.8359
  384SOL    HW3 1303   3.429   3.385   0.309  1.2277 -0.8179 -2.1214
  384SOL    MW4 1304   3.353   3.349   0.287 -0.1139  0.1130 -0.1816
  385SOL     OW 1305   2.034   0.613   4.822  0.4419  0.8734 -0.4329
  385SOL    HW2 1306   2.064   0.699   4.795 -0.8561  1.8070  0.9742
  385SOL    HW3 1307   2.111   0.573   4.863  0.6051  2.0492  0.4545
  385SOL    MW4 1308   2.048   0.619   4.824 -0.0172  0.1966 -0.0682
  386SOL     OW 1309   5.517   0.487   6.140 -0.1100  0.1955  0.5731
  386SOL    HW2 1310   5.573   0.562   6.162  2.0906 -1.1826 -0.0226
  386SOL    HW3 1311   5.538   0.468   6.048 -1.4039 -0.5356  0.4094
  386SOL    MW4 1312   5.527   0.494   6.131  0.1193 -0.2525  0.9219
  387SOL     OW 1313   5.811   4.814   2.102 -0.3146  0.5127 -0.2895
  387SOL    HW2 1314   5.841   4.790   2.190 -0.3407 -0.3645 -0.5076
  387SOL    HW3 1315   5.782   4.731   2.063 -0.6476  0.9484 -0.9946
  387SOL    MW4 1316   5.811   4.800   2.108  0.1008  0.4657  0.2474
  388SOL     OW 1317   0.198   0.699   6.113  0.2288  0.3240  0.2010
  388SOL    HW2 1318   0.267   0.754   6.148  1.2695 -1.3157  0.8203
  388SOL    HW3 1319   0.241   0.616   6.094 -0.6733  0.4753 -3.2057
  388SOL    MW4 1320   0.213   0.695   6.115  0.4413 -0.2096  0.4161
  389SOL     OW 1321   1.636   5.480   1.185  0.0912  0.4232 -0.3715
  389SOL    HW2 1322   1.690   5.411   1.223 -0.1356  0.8081  0.6942
  389SOL    HW3 1323   1.596   5.440   1.108  0.3342 -0.4847 -0.0367
  389SOL    MW4 1324   1.638   5.466   1.180  0.4421  0.5667  0.3096
  390SOL     OW 1325   2.315   0.843   4.066  0.1269 -0.1283 -0.2369
  390SOL    HW2 1326   2.308   0.767   4.124  0.0201 -0.6343 -0.8915
  390SOL    HW3 1327   2.391   0.891   4.097  0.0217 -0.3486  0.3703
  390SOL    MW4 1328   2.324   0.839   4.078 -0.1025 -0.6323  0.1921
  391SOL     OW 1329   2.377   1.243   0.902  0.1876 -0.1104 -0.2487
  391SOL    HW2 1330   2.429   1.296   0.842 -0.7125 -0.4198 -1.3437
  391SOL    HW3 1331   2.333   1.307   0.958 -1.0655  0.3856 -1.7009
  391SOL    MW4 1332   2.378   1.258   0.901 -0.2250  0.1367  0.0158
  392SOL     OW 1333   4.455   2.711   6.291 -0.8943 -0.2570  0.3398
  392SOL    HW2 1334   4.440   2.801   6.322  1.9341 -0.1190  1.5715
  392SOL    HW3 1335   4.497   2.722   6.206  0.1326 -0.3647  0.8224
  392SOL    MW4 1336   4.459   2.724   6.284 -0.1328  0.8306  0.5296
  393SOL     OW 1337   4.064   5.885   0.073 -0.2260  0.6055  0.1933
  393SOL    HW2 1338   4.134   5.918   0.017 -0.1397  0.9006  0.4691
  393SOL    HW3 1339   4.075   5.934   0.155 -1.4965  1.5560 -0.1716
  393SOL    MW4 1340   4.075   5.896   0.077  0.6368 -0.4144 -0.2994
  394SOL     OW 1341   3.308   3.025   3.390 -0.3052  0.1383 -0.4482
  394SOL    HW2 1342   3.358   2.944   3.380 -0.8413 -0.1154 -1.0883
  394SOL    HW3 1343   3.235   3.001   3.447 -0.0185  0.3783  0.0328
  394SOL    MW4 1344   3.305   3.012   3.396 -0.3101 -0.5311  0.2860
  395SOL     OW 1345   5.246   3.615   0.559  0.3614 -0.1464  0.0488
  395SOL    HW2 1346   5.281   3.690   0.607 -1.3233  0.8225 -0.1469
  395SOL    HW3 1347   5.218   3.554   0.627 -1.0547  0.7598  0.3106
  395SOL    MW4 1348   5.247   3.617   0.574  0.7819 -0.7049  0.2479
  396SOL     OW 1349   1.271   1.143   6.171 -0.1365  0.0138 -0.0812
  396SOL    HW2 1350   1.353   1.129   6.122  0.2132  2.0707 -0.1857
  396SOL    HW3 1351   1.205   1.094   6.122  1.0793 -2.0777  0.2631
  396SOL    MW4 1352   1.273   1.135   6.158 -0.3023  0.0731 -0.0231
  397SOL     OW 1353   4.960   5.259   0.814 -0.5256  0.4881 -0.0385
  397SOL    HW2 1354   4.988   5.168   0.820 -0.3229  0.6044  1.1633
  397SOL    HW3 1355   4.868   5.258   0.839 -1.3479  0.2724 -2.7777
  397SOL    MW4 1356   4.952   5.247   0.818 -0.5090 -0.1970  0.0142
  398SOL     OW 1357   0.126   1.820   1.797 -0.1817 -0.2542 -0.2957
  398SOL    HW2 1358   0.221   1.832   1.802  0.0449 -1.9745 -0.0368
  398SOL    HW3 1359   0.090   1.898   1.838  1.1180  0.3616 -0.2816
  398SOL    MW4 1360   0.134   1.832   1.803  0.7530 -0.4336  0.1472
  399SOL     OW 1361   6.192   3.761   0.522  0.3792  0.1655 -1.0053
  399SOL    HW2 1362   6.200   3.829   0.455  0.4662  0.4331 -0.7216
  399SOL    HW3 1363   6.182   3.680   0.472  1.1285  0.2791 -1.3564
  399SOL    MW4 1364   6.192   3.759   0.506 -0.1410 -0.1649 -0.5428
  400SOL     OW 1365   0.567   5.570   3.510  0.3170 -0.0500  0.2739
  400SOL    HW2 1366   0.652   5.599   3.543  0.2538  0.1673  0.2421
  400SOL    HW3 1367   0.574   5.576   3.415  0.3446 -0.2528  0.2612
  400SOL    MW4 1368   0.579   5.574   3.502  0.2257  0.6406 -0.4122
  401SOL     OW 1369   0.030   6.278   3.126 -0.1682 -0.1990  0.2379
  401SOL    HW2 1370   0.055   6.325   3.206 -0.5219  0.3815  0.0137
  401SOL    HW3 1371  -0.064   6.290   3.120 -0.2551 -0.8772  0.1271
  401SOL    MW4 1372   0.021   6.286   3.136  0.1450  0.3194 -0.7128
  402SOL     OW 1373   5.854   0.667   0.171 -0.1653 -0.9193 -0.2058
  402SOL    HW2 1374   5.929   0.623   0.211 -0.0794  0.6022  1.4405
  402SOL    HW3 1375   5.777   0.624   0.209 -0.1779 -2.1989 -1.5788
  402SOL    MW4 1376   5.854   0.655   0.181  0.0456  0.3381  0.5989
  403SOL     OW 1377   6.210   3.842   5.105  0.0225 -0.5254  0.4357
  403SOL    HW2 1378   6.206   3.791   5.186 -2.8913  0.7590  1.2552
  403SOL    HW3 1379   6.175   3.783   5.038 -0.5555 -0.5914  0.7833
  403SOL    MW4 1380   6.205   3.827   5.107 -0.3662 -0.4141 -0.5793
  404SOL     OW 1381   1.450   0.196   2.870 -0.3778 -0.0766  0.0865
  404SOL    HW2 1382   1.382   0.176   2.805  0.7596 -1.6584 -0.6852
  404SOL    HW3 1383   1.495   0.113   2.883  3.9944  1.5992 -2.4389
  404SOL    MW4 1384   1.447   0.182   2.863  0.0041 -0.0062  0.4375
  405SOL     OW 1385   0.946   3.926   3.344 -0.0090 -0.4284  1.1589
  405SOL    HW2 1386   0.998   3.994   3.387  0.6865 -0.7445  0.8496
  405SOL    HW3 1387   0.882   3.900   3.409  0.5434 -0.3728  1.7377
  405SOL    MW4 1388   0.945   3.932   3.358  0.1980 -0.0821 -0.2117
  406SOL     OW 1389   4.987   3.658   0.814 -0.3682 -0.1306  0.2609
  406SOL    HW2 1390   5.073   3.665   0.855 -0.3770 -0.8019  0.4142
  406SOL    HW3 1391   4.959   3.568   0.834 -0.9372 -0.0372 -0.1087
  406SOL    MW4 1392   4.994   3.647   0.822  0.7428 -0.0693  0.1130
  407SOL     OW 1393   0.366   5.595   2.414 -0.0381  0.8917 -0.0239
  407SOL    HW2 1394   0.383   5.553   2.329 -0.1002  1.9873 -0.5893
  407SOL    HW3 1395   0.279   5.564   2.438  0.6030 -0.6895  0.4357
  407SOL    MW4 1396   0.357   5.585   2.406  0.0097 -0.0902  0.1989
  408SOL     OW 1397   3.157   4.126   3.364 -0.0996  0.1655  0.2429
  408SOL    HW2 1398   3.214   4.049   3.359 -2.0350 -1.3172 -0.6617
  408SOL    HW3 1399   3.072   4.091   3.390 -1.4126  1.7725 -1.5870
  408SOL    MW4 1400   3.153   4.111   3.366  0.5289 -0.1501 -0.1388
  409SOL     OW 1401   2.028   0.711   5.602  0.0367 -0.9619  0.2500
  409SOL    HW2 1402   2.046   0.776   5.535  0.4751 -1.0641  0.2652
  409SOL    HW3 1403   1.946   0.740   5.642 -0.7152 -1.4022 -0.9291
  409SOL    MW4 1404   2.020   0.723   5.599 -0.1099 -0.2949 -0.3201
  410SOL     OW 1405   0.127   0.844   0.985 -0.1628  0.4523 -0.0890
  410SOL    HW2 1406   0.047   0.885   0.954 -0.2858  0.3850  0.1439
  410SOL    HW3 1407   0.193   0.868   0.919 -0.5297 -0.0974 -0.6749
  410SOL    MW4 1408   0.125   0.853   0.972  0.4996 -0.2853 -0.1763
  411SOL     OW 1409   2.212   4.847   4.779  0.1617  0.0777 -0.1379
  411SOL    HW2 1410   2.165   4.814   4.856  0.8277  0.0018  0.2407
  411SOL    HW3 1411   2.144   4.889   4.726 -0.4869 -0.7888 -0.0174
  411SOL    MW4 1412   2.197   4.848   4.782  0.2364  0.2322  0.3579
  412SOL     OW 1413   1.177   4.768   3.263  0.3611  0.5263 -0.1578
  412SOL    HW2 1414   1.154   4.805   3.348 -1.9467 -1.7729  0.3571
  412SOL    HW3 1415   1.240   4.699   3.283 -0.5373 -0.3310 -0.2000
  412SOL    MW4 1416   1.182   4.764   3.276  0.1045 -0.7652  0.6008
  413SOL     OW 1417   4.743   5.704   4.426 -0.4912  0.7354 -0.0073
  413SOL    HW2 1418   4.739   5.609   4.436  3.5115  0.1912 -1.6777
  413SOL    HW3 1419   4.676   5.724   4.361  0.4964 -1.4700 -1.8582
  413SOL    MW4 1420   4.734   5.694   4.419  0.9089  0.0483 -0.1812
  414SOL     OW 1421   3.041   2.229   5.188  0.2231  0.5347 -0.4345
  414SOL    HW2 1422   3.130   2.215   5.220  0.5408 -2.3968 -2.2753
  414SOL    HW3 1423   3.049   2.224   5.093 -1.8665  0.6607 -0.6553
  414SOL    MW4 1424   3.054   2.227   5.180 -0.0867 -0.1429  0.7419
  415SOL     OW 1425   1.328   2.296   5.789  0.0870 -0.4786 -0.5329
  415SOL    HW2 1426   1.366   2.363   5.732 -1.8257 -0.0727 -1.3986
  415SOL    HW3 1427   1.243   2.332   5.815 -0.2334 -1.8338  0.3935
  415SOL    MW4 1428   1.322   2.309   5.785 -0.1169  0.1526 -0.1025
  416SOL     OW 1429   1.539   0.367   2.626 -0.1316 -0.7059  0.2412
  416SOL    HW2 1430   1.454   0.333   2.654  1.1381 -3.6047  0.9002
  416SOL    HW3 1431   1.542   0.456   2.662 -2.7598 -0.5881  0.3618
  416SOL    MW4 1432   1.528   0.374   2.634  0.6435 -0.5051 -0.4102
  417SOL     OW 1433   4.479   2.527   3.455  0.1591  0.0025  0.0672
  417SOL    HW2 1434   4.547   2.502   3.392  2.0217  1.1601  1.5397
  417SOL    HW3 1435   4.462   2.447   3.505  2.9542  0.4210  1.8904
  417SOL    MW4 1436   4.485   2.513   3.453 -0.1087  0.4456 -0.2800
  418SOL     OW 1437   3.919   1.242   4.220  0.7889 -0.7520  0.0207
  418SOL    HW2 1438   4.005   1.215   4.189  1.2815  0.5733  0.1885
  418SOL    HW3 1439   3.932   1.264   4.312  0.4819  0.3299 -0.1820
  418SOL    MW4 1440   3.932   1.241   4.228  0.0155  0.9438  0.1877
  419SOL     OW 1441   0.021   0.911   6.034 -0.0633 -0.4006 -0.5990
  419SOL    HW2 1442   0.074   0.842   6.073 -1.5804 -0.6146  1.1810
  419SOL    HW3 1443   0.071   0.991   6.049  0.5470 -0.7961 -0.4948
  419SOL    MW4 1444   0.035   0.913   6.041 -0.0485 -0.4120 -0.4435
  420SOL     OW 1445   1.359   0.082   1.603  0.0058 -0.6428  0.3280
  420SOL    HW2 1446   1.309   0.004   1.577  0.4892 -0.2024 -2.1929
  420SOL    HW3 1447   1.414   0.101   1.527  1.3230  1.0310  1.6413
  420SOL    MW4 1448   1.359   0.074   1.589  1.1587 -0.6384  0.6744
  421SOL     OW 1449   1.348   2.468   0.547 -0.3504  0.2053  0.7444
  421SOL    HW2 1450   1.415   2.413   0.507 -1.0625  0.0719 -0.3057
  421SOL    HW3 1451   1.363   2.555   0.511 -2.6055 -0.3944 -2.0707
  421SOL    MW4 1452   1.359   2.472   0.537  0.4921  0.0752  0.1287
  422SOL     OW 1453   2.327   3.629   3.980 -0.2012 -0.2504 -0.1824
  422SOL    HW2 1454   2.277   3.649   3.900 -1.8381 -0.7487  0.6613
  422SOL    HW3 1455   2.334   3.713   4.025 -0.0928 -0.1378 -0.4051
  422SOL    MW4 1456   2.321   3.643   3.975 -0.1299 -0.1134 -0.6523
  423SOL     OW 1457   6.162   1.101   4.097 -0.0171 -0.3163  0.0137
  423SOL    HW2 1458   6.154   1.020   4.047  0.7440 -0.3377 -0.0852
  423SOL    HW3 1459   6.073   1.137   4.100 -0.4716 -1.4459  0.5540
  423SOL    MW4 1460   6.149   1.095   4.091  0.0692 -0.1898  0.1958
  424SOL     OW 1461   5.384   3.817   0.692  0.1678  0.3569 -0.3456
  424SOL    HW2 1462   5.473   3.792   0.668  1.1321  3.0248  0.1250
  424SOL    HW3 1463   5.368   3.899   0.644 -0.6552  1.8149  2.2215
  424SOL    MW4 1464   5.394   3.825   0.682  0.6356  0.2079  0.2718
  425SOL     OW 1465   1.981   6.161   4.776  0.1976  0.6810 -0.6522
  425SOL    HW2 1466   2.043   6.111   4.723  0.0736  0.4991 -0.6282
  425SOL    HW3 1467   1.906   6.103   4.785  0.7498  0.1419  0.8511
  425SOL    MW4 1468   1.980   6.146   4.771 -0.2422 -0.1880 -0.5051
  426SOL     OW 1469   2.300   3.991   2.180 -0.6259  0.2555 -0.8276
  426SOL    HW2 1470   2.321   4.057   2.114  0.2783 -1.3351 -2.2108
  426SOL    HW3 1471   2.376   3.989   2.237  1.0385 -1.9935 -2.9011
  426SOL    MW4 1472   2.313   3.999   2.179  0.0648 -0.0068 -0.4394
  427SOL     OW 1473   0.900   1.770   1.846  0.1704  0.0829  0.2024
  427SOL    HW2 1474   0.861   1.686   1.820 -0.3007  0.3017  0.1968
  427SOL    HW3 1475   0.950   1.798   1.769 -2.2977  1.3815 -1.0087
  427SOL    MW4 1476   0.902   1.763   1.832 -0.0026  0.1894 -0.1045
  428SOL     OW 1477   5.964   5.596   4.202 -0.3150 -0.2129 -0.2540
  428SOL    HW2 1478   6.036   5.533   4.214 -1.0033 -0.8145  0.9395
  428SOL    HW3 1479   5.983   5.638   4.119  1.3804 -0.4196 -0.0118
  428SOL    MW4 1480   5.976   5.593   4.193  0.2835  0.2026 -0.4071
  429SOL     OW 1481   2.487   0.875   6.009 -0.5308 -0.2018  0.7175
  429SOL    HW2 1482   2.533   0.841   6.085 -0.3584 -0.2386  0.5965
  429SOL    HW3 1483   2.498   0.970   6.013 -0.5666 -0.2002  0.7681
  429SOL    MW4 1484   2.494   0.883   6.019 -0.4012 -0.1241 -0.1991
  430SOL     OW 1485   3.622   2.212   1.538 -0.5419  0.2516 -0.1173
  430SOL    HW2 1486   3.581   2.131   1.569 -1.0903 -0.9728 -3.5521
  430SOL    HW3 1487   3.715   2.201   1.560 -0.6885 -1.0900 -0.0568
  430SOL    MW4 1488   3.629   2.200   1.545 -0.2840 -0.1403 -0.2682
  431SOL     OW 1489   2.600   4.268   4.091 -0.7665 -0.2357 -0.2951
  431SOL    HW2 1490   2.618   4.181   4.127 -0.3923  0.2045  0.6045
  431SOL    HW3 1491   2.554   4.251   4.008 -0.4485 -1.2856 -0.2615
  431SOL    MW4 1492   2.596   4.254   4.085  0.1346  0.5525 -0.5274
  432SOL     OW 1493   3.425   6.351   3.488  0.3045 -0.1417  0.0459
  432SOL    HW2 1494   3.380   6.351   3.573  1.6237 -0.6150  0.7699
  432SOL    HW3 1495   3.355   6.366   3.424 -0.9539 -1.3362  1.0850
  432SOL    MW4 1496   3.409   6.353   3.491  0.1761  0.0400 -0.1374
  433SOL     OW 1497   0.533   2.850   3.699 -0.0941  0.0706  0.4279
  433SOL    HW2 1498   0.625   2.867   3.717 -0.3526  2.4430 -0.0808
  433SOL    HW3 1499   0.490   2.935   3.714 -2.6808 -1.5419  3.4027
  433SOL    MW4 1500   0.539   2.863   3.703 -0.4650 -0.1744 -0.1177
  434SOL     OW 1501   5.734   2.792   3.315 -0.4327  0.5617 -0.6415
  434SOL    HW2 1502   5.644   2.794   3.348 -0.1750  1.1629  0.0511
  434SOL    HW3 1503   5.787   2.773   3.392  0.0207 -0.0238 -1.0926
  434SOL    MW4 1504   5.729   2.789   3.330 -0.2236 -0.4976 -0.1920
  435SOL     OW 1505   1.016   3.727   1.802 -0.0567 -0.1077  0.0090
  435SOL    HW2 1506   1.017   3.632   1.812  0.6311  0.0265  1.6728
  435SOL    HW3 1507   0.996   3.760   1.889 -3.0096  1.2797 -1.0715
  435SOL    MW4 1508   1.014   3.719   1.815 -0.7532  0.0295 -0.1675
  436SOL     OW 1509   5.942   5.494   2.822  0.2117 -0.8636 -0.6572
  436SOL    HW2 1510   5.858   5.453   2.843  0.4817 -0.9686  0.2562
  436SOL    HW3 1511   6.000   5.468   2.894  0.2246  1.6173  0.3378
  436SOL    MW4 1512   5.939   5.485   2.834  0.0447  0.0730 -0.4133
  437SOL     OW 1513   0.820   4.413   0.941  0.0065  0.0577 -0.4215
  437SOL    HW2 1514   0.750   4.478   0.946  0.9253  1.1897 -1.6595
  437SOL    HW3 1515   0.802   4.353   1.014 -1.0263  1.5299  0.5920
  437SOL    MW4 1516   0.808   4.414   0.951 -0.0200 -0.1558  0.0440
  438SOL     OW 1517   3.158   0.449   2.632 -0.2215  0.2504 -0.0505
  438SOL    HW2 1518   3.236   0.456   2.578 -0.6821 -1.3395 -0.9867
  438SOL    HW3 1519   3.178   0.380   2.695 -1.3072 -1.1652 -1.1809
  438SOL    MW4 1520   3.171   0.441   2.633 -0.3364  0.7675  0.2967
  439SOL     OW 1521   6.239   1.976   2.509 -0.7779  0.1771  0.2624
  439SOL    HW2 1522   6.285   2.048   2.466 -2.6316 -0.0859 -2.3590
  439SOL    HW3 1523   6.304   1.938   2.568  1.5266  1.4172 -1.3319
  439SOL    MW4 1524   6.253   1.980   2.511  0.1368  0.4119  0.0956
  440SOL     OW 1525   0.913   4.893   6.224  0.2075 -0.1673 -0.8190
  440SOL    HW2 1526   0.881   4.876   6.136  0.6917 -1.5651 -0.7513
  440SOL    HW3 1527   0.965   4.816   6.246  0.6646  0.4631  0.4293
  440SOL    MW4 1528   0.916   4.881   6.215  0.5495  0.4994  0.1330
  441SOL     OW 1529   1.925   1.708   1.433 -0.0120  0.7853  0.3722
  441SOL    HW2 1530   1.982   1.646   1.478 -0.1448  1.2861  1.2500
  441SOL    HW3 1531   1.867   1.654   1.380  1.0965  0.2514 -0.3367
  441SOL    MW4 1532   1.925   1.693   1.432  0.0201  0.5346 -0.9116
  442SOL     OW 1533   6.263   1.209   0.262  0.1853 -0.3441 -0.3897
  442SOL    HW2 1534   6.233   1.166   0.182 -0.8206  0.9520 -0.7484
  442SOL    HW3 1535   6.227   1.298   0.256  1.9147  0.4541  0.4680
  442SOL    MW4 1536   6.254   1.215   0.251  0.2012 -0.1616 -0.3152
  443SOL     OW 1537   3.487   1.300   2.024 -0.4693  0.0087  0.4583
  443SOL    HW2 1538   3.425   1.333   2.090  0.1029 -0.5210  1.2848
  443SOL    HW3 1539   3.572   1.329   2.055 -0.0118 -1.6731  0.8716
  443SOL    MW4 1540   3.490   1.308   2.037  0.2052 -0.8729  0.4924
  444SOL     OW 1541   2.006   4.301   1.119  0.2725  0.5612 -0.7840
  444SOL    HW2 1542   2.033   4.272   1.032 -0.4683  1.4381 -1.3128
  444SOL    HW3 1543   1.925   4.349   1.105  0.1083  0.6665  0.4030
  444SOL    MW4 1544   1.999   4.303   1.106  0.2038 -0.4059  0.2568
  445SOL     OW 1545   3.033   5.028   4.371  0.1411  0.2555 -0.1430
  445SOL    HW2 1546   3.125   5.039   4.397  0.2313 -1.7138  0.5184
  445SOL    HW3 1547   2.983   5.053   4.448  0.1519  0.5642 -0.2359
  445SOL    MW4 1548   3.039   5.033   4.384  0.3792 -0.5119 -0.5301
  446SOL     OW 1549   1.756   4.339   2.859  0.1302  0.0463 -0.3487
  446SOL    HW2 1550   1.805   4.323   2.778  0.9753  0.9048 -0.0393
  446SOL    HW3 1551   1.786   4.271   2.919 -0.4933 -0.5880 -0.7477
  446SOL    MW4 1552   1.767   4.328   2.857  0.2054  0.8180 -0.4459
  447SOL     OW 1553   2.335   2.737   0.662 -0.3627 -0.1216  0.1567
  447SOL    HW2 1554   2.404   2.673   0.648  0.4377  0.7361  0.0508
  447SOL    HW3 1555   2.264   2.710   0.603 -0.3202 -1.2910  0.6317
  447SOL    MW4 1556   2.334   2.725   0.652 -0.5339  0.5132  0.2703
  448SOL     OW 1557   3.322   4.676   5.083 -0.2024  0.0966 -0.2014
  448SOL    HW2 1558   3.313   4.640   4.994 -0.7750  0.7689 -0.4259
  448SOL    HW3 1559   3.235   4.664   5.122 -0.2289  0.6876 -0.0750
  448SOL    MW4 1560   3.309   4.670   5.076  0.2204  0.1600 -0.1864
  449SOL     OW 1561   4.355   2.561   2.148  0.1522 -0.3924 -0.1404
  449SOL    HW2 1562   4.303   2.509   2.086  0.4746 -2.3679  1.1714
  449SOL    HW3 1563   4.342   2.518   2.232  2.6354 -0.0222  0.5081
  449SOL    MW4 1564   4.346   2.548   2.151  0.2241  0.0114  0.4594
  450SOL     OW 1565   0.430   1.094   4.696  0.3244  0.3395 -0.0155
  450SOL    HW2 1566   0.453   1.108   4.788 -1.0555 -1.9479  0.7706
  450SOL    HW3 1567   0.513   1.071   4.654  0.5956 -1.5758  1.3812
  450SOL    MW4 1568   0.444   1.093   4.703 -0.1402  0.2008 -0.1247
  451SOL     OW 1569   3.453   0.443   1.179 -0.2712  0.0521  0.7047
  451SOL    HW2 1570   3.546   0.431   1.201 -0.1531 -1.5610 -0.5121
  451SOL    HW3 1571   3.454   0.472   1.088 -0.9718 -2.1317 -0.0679
  451SOL    MW4 1572   3.466   0.445   1.170 -0.1878  0.1520  0.1936
  452SOL     OW 1573   1.303   0.598   5.165 -0.0761  0.5503  0.2111
  452SOL    HW2 1574   1.325   0.680   5.209 -0.1610  0.7725 -0.1583
  452SOL    HW3 1575   1.266   0.543   5.234  0.9127  0.4471  0.6731
  452SOL    MW4 1576   1.301   0.601   5.180  0.1886 -0.5614  0.7341
  453SOL     OW 1577   1.355   3.636   0.865  0.2202  0.1615 -0.5457
  453SOL    HW2 1578   1.399   3.575   0.805 -1.7112  0.6515 -2.5581
  453SOL    HW3 1579   1.271   3.655   0.823 -0.2757  2.3023  1.2529
  453SOL    MW4 1580   1.350   3.630   0.851  0.5826 -0.6873  0.5957
  454SOL     OW 1581   6.223   2.384   4.308  0.5931 -0.4152 -0.9244
  454SOL    HW2 1582   6.239   2.445   4.236 -2.2122  1.6615 -0.0072
  454SOL    HW3 1583   6.274   2.420   4.381 -0.8265  0.7951 -0.4670
  454SOL    MW4 1584   6.232   2.397   4.308 -0.1038 -0.9477  0.6884
  455SOL     OW 1585   5.475   5.767   6.422  0.0762 -0.1697  0.7622
  455SOL    HW2 1586   5.502   5.741   6.334 -1.8220 -0.6406  0.2760
  455SOL    HW3 1587   5.502   5.859   6.429 -0.7561  0.2291 -0.7625
  455SOL    MW4 1588   5.482   5.776   6.412  0.2029  0.2796 -0.0618
  456SOL     OW 1589   5.290   5.703   4.416 -0.1124 -0.3778 -0.1902
  456SOL    HW2 1590   5.237   5.686   4.493 -0.2034 -1.6923 -0.5206
  456SOL    HW3 1591   5.229   5.740   4.352 -0.0961  0.4348  0.2576
  456SOL    MW4 1592   5.275   5.705   4.418  0.7324  0.1739 -0.3291
  457SOL     OW 1593   4.836   4.035   1.225  0.0764  0.4466  0.0038
  457SOL    HW2 1594   4.746   4.048   1.195 -0.4352 -0.7166  0.9588
  457SOL    HW3 1595   4.890   4.078   1.159 -1.2740  4.3000  1.1819
  457SOL    MW4 1596   4.832   4.042   1.212 -0.8397  0.9250  0.0581
  458SOL     OW 1597   4.010   4.587   1.457 -0.3360 -0.2108  0.1825
  458SOL    HW2 1598   3.985   4.509   1.506  0.3849  0.0402  0.9777
  458SOL    HW3 1599   3.928   4.636   1.445 -0.4289  0.0667  1.7686
  458SOL    MW4 1600   3.996   4.583   1.462  0.2523 -0.1723  0.0449
  459SOL     OW 1601   1.801   3.171   1.212 -0.1239 -0.7610 -0.0001
  459SOL    HW2 1602   1.847   3.206   1.136  1.0650  0.0205  1.0436
  459SOL    HW3 1603   1.709   3.173   1.187 -0.2345  3.5028  0.0563
  459SOL    MW4 1604   1.795   3.176   1.199 -0.1138  0.1070 -0.1587
  460SOL     OW 1605   3.766   6.085   3.285  0.6588  0.1500 -0.5743
  460SOL    HW2 1606   3.749   6.145   3.358 -1.8424  1.4984 -2.1081
  460SOL    HW3 1607   3.807   6.009   3.326  2.1968  2.0559  1.7526
  460SOL    MW4 1608   3.769   6.083   3.300  0.1448  0.4559 -0.0493
  461SOL     OW 1609   1.800   0.693   0.715  0.6056 -0.2974 -0.1014
  461SOL    HW2 1610   1.787   0.712   0.622  1.4839  0.3299 -0.1059
  461SOL    HW3 1611   1.762   0.605   0.726 -2.0110  0.6956 -0.4367
  461SOL    MW4 1612   1.793   0.684   0.704 -0.3316 -0.2723 -0.4704
  462SOL     OW 1613   2.275   1.886   5.424  0.3931 -0.6320  0.0742
  462SOL    HW2 1614   2.336   1.852   5.359  2.0871  3.5133 -0.8699
  462SOL    HW3 1615   2.207   1.929   5.372  0.7166  1.0705  0.9894
  462SOL    MW4 1616   2.274   1.887   5.409  0.1545  0.6131 -0.9438
  463SOL     OW 1617   5.742   5.394   2.205 -0.4126  0.8151 -0.2369
  463SOL    HW2 1618   5.804   5.409   2.277 -1.8818  1.2587  1.0030
  463SOL    HW3 1619   5.693   5.317   2.232 -3.2632  2.8879  1.0065
  463SOL    MW4 1620   5.744   5.386   2.218  0.0756  0.1555 -0.1930
  464SOL     OW 1621   0.906   5.525   6.169 -0.2302  0.2723 -0.5463
  464SOL    HW2 1622   0.942   5.511   6.081 -0.5802 -1.2833 -0.4789
  464SOL    HW3 1623   0.837   5.589   6.157 -2.2805 -2.0368 -1.9853
  464SOL    MW4 1624   0.902   5.532   6.156 -0.4791 -0.1967  0.2263
  465SOL     OW 1625   5.203   2.937   4.533 -0.6742 -0.0543 -0.0890
  465SOL    HW2 1626   5.123   2.890   4.557 -1.8931  1.6298 -0.6712
  465SOL    HW3 1627   5.192   2.955   4.439  0.5183 -0.0025 -0.2328
  465SOL    MW4 1628   5.191   2.933   4.524 -0.5301  0.1559 -0.1238
  466SOL     OW 1629   0.128   0.711   0.087  0.5230 -0.3163  0.1405
  466SOL    HW2 1630   0.064   0.656   0.041 -0.8416  0.9148  0.4814
  466SOL    HW3 1631   0.146   0.665   0.168  0.2143 -0.7744 -0.0459
  466SOL    MW4 1632   0.122   0.698   0.091  0.0333  0.4716  0.0409
  467SOL     OW 1633   5.020   5.840   0.851 -0.0175  0.2426  0.4553
  467SOL    HW2 1634   5.069   5.884   0.782 -1.5720  1.0773 -0.1888
  467SOL    HW3 1635   5.005   5.752   0.818  0.5010  0.1779  0.3876
  467SOL    MW4 1636   5.024   5.834   0.837 -0.4763 -0.4287 -0.2926
  468SOL     OW 1637   0.087   0.164   0.489 -0.3522  0.2285 -0.0020
  468SOL    HW2 1638  -0.007   0.163   0.471 -1.0784 -0.2191  3.1893
  468SOL    HW3 1639   0.112   0.072   0.494  0.3866  0.3390 -1.1604
  468SOL    MW4 1640   0.078   0.152   0.488  0.5629  0.1658  0.0905
  469SOL     OW 1641   3.853   1.455   0.759 -0.1276 -0.4792 -0.3185
  469SOL    HW2 1642   3.764   1.434   0.787 -0.6396 -0.9075 -2.1160
  469SOL    HW3 1643   3.884   1.374   0.717  0.7756 -0.0340 -0.5347
  469SOL    MW4 1644   3.845   1.441   0.757 -0.2517 -0.4132  0.0835
  470SOL     OW 1645   5.702   0.228   5.677  0.0100 -0.2826  0.0268
  470SOL    HW2 1646   5.652   0.260   5.752  1.6838 -0.1377  1.1195
  470SOL    HW3 1647   5.674   0.286   5.605 -0.6582  0.4256  0.8198
  470SOL    MW4 1648   5.691   0.240   5.677  0.2352 -0.0215  0.1372
  471SOL     OW 1649   6.348   3.517   0.682 -0.8725  0.8073  0.3185
  471SOL    HW2 1650   6.321   3.594   0.634 -1.8316  1.1254  1.3173
  471SOL    HW3 1651   6.352   3.546   0.774 -0.2051 -0.0600  0.5842
  471SOL    MW4 1652   6.345   3.531   0.688 -0.2216 -0.0066 -0.0412
  472SOL     OW 1653   3.964   3.927   4.685 -0.5482 -0.1202  0.1165
  472SOL    HW2 1654   3.915   3.849   4.661  0.1712 -0.2584 -0.9859
  472SOL    HW3 1655   3.935   3.994   4.623 -1.7577  0.7548  1.5567
  472SOL    MW4 1656   3.954   3.926   4.673 -0.1480 -0.0062  0.1468
  473SOL     OW 1657   3.036   3.979   1.759  0.3890 -0.0779 -0.7741
  473SOL    HW2 1658   3.014   4.072   1.749 -0.1686 -0.0611  0.4028
  473SOL    HW3 1659   3.101   3.976   1.829 -1.2065 -0.7232  0.7547
  473SOL    MW4 1660   3.042   3.991   1.767 -0.2206 -0.4496  0.1743
  474SOL     OW 1661   2.117   3.307   1.010 -0.5282  0.3965 -0.4761
  474SOL    HW2 1662   2.168   3.378   1.049 -2.5474  1.0067  1.3009
  474SOL    HW3 1663   2.123   3.236   1.074 -0.5289 -0.1299 -1.0570
  474SOL    MW4 1664   2.125   3.307   1.024  0.2131 -0.1358  0.5198
  475SOL     OW 1665   3.148   1.309   5.682 -0.2723  0.2084  0.3930
  475SOL    HW2 1666   3.228   1.360   5.686  0.0629 -0.3266  0.5332
  475SOL    HW3 1667   3.156   1.245   5.753 -0.9056  0.2742  0.5319
  475SOL    MW4 1668   3.159   1.307   5.692 -0.7791 -0.0278 -0.7246
  476SOL     OW 1669   4.085   0.196   5.321  0.8084 -0.2594  0.1998
  476SOL    HW2 1670   4.037   0.182   5.403  0.8315  0.0054  0.2596
  476SOL    HW3 1671   4.130   0.113   5.305 -0.1278 -0.7127 -0.1648
  476SOL    MW4 1672   4.084   0.184   5.330 -0.2585  0.3001  0.0137
  477SOL     OW 1673   0.093   3.586   3.700 -0.1160  0.3899 -0.5195
  477SOL    HW2 1674   0.183   3.620   3.695  0.2119 -0.4666 -0.7036
  477SOL    HW3 1675   0.084   3.556   3.791  0.0838 -0.2887 -0.7163
  477SOL    MW4 1676   0.104   3.586   3.711 -0.3312 -0.1863 -0.3034
  478SOL     OW 1677   4.237   5.589   4.652  0.0660 -0.1849  0.6398
  478SOL    HW2 1678   4.232   5.647   4.576 -0.2348  0.1176  0.8825
  478SOL    HW3 1679   4.150   5.595   4.692 -0.2855 -1.5591  0.1374
  478SOL    MW4 1680   4.225   5.598   4.647  0.4045 -0.5017 -0.2992
  479SOL     OW 1681   2.332   0.872   2.892 -0.4553 -0.7321 -0.1915
  479SOL    HW2 1682   2.328   0.801   2.828 -0.8783  0.2464 -1.2872
  479SOL    HW3 1683   2.241   0.894   2.911 -0.3348 -0.2744 -0.1074
  479SOL    MW4 1684   2.320   0.866   2.886  0.3187 -0.4578 -0.3624
  480SOL     OW 1685   3.663   5.263   4.675 -0.4885 -0.1112 -0.2747
  480SOL    HW2 1686   3.688   5.266   4.767 -0.3608  0.4905 -0.3248
  480SOL    HW3 1687   3.597   5.194   4.670  0.0208 -0.6430  0.1386
  480SOL    MW4 1688   3.658   5.254   4.687  0.1060  0.0378 -0.3132
  481SOL     OW 1689   4.985   2.720   2.434  0.1488  0.2613  0.0294
  481SOL    HW2 1690   4.938   2.665   2.497  0.4856  0.1327  0.1678
  481SOL    HW3 1691   4.916   2.772   2.392 -0.4759 -1.7001 -1.5825
  481SOL    MW4 1692   4.970   2.719   2.437  0.3767 -0.1974  0.2009
  482SOL     OW 1693   5.336   4.174   1.257 -0.3126  0.6718 -0.6198
  482SOL    HW2 1694   5.418   4.143   1.218  0.4823  0.9595  0.7185
  482SOL    HW3 1695   5.285   4.094   1.273 -0.2355  0.4766 -1.3394
  482SOL    MW4 1696   5.340   4.159   1.254 -0.0343  0.0288  0.0339
  483SOL     OW 1697   0.786   0.340   5.787  0.1891  0.1179  0.2003
  483SOL    HW2 1698   0.695   0.346   5.759 -0.1077  3.5464  1.3945
  483SOL    HW3 1699   0.837   0.336   5.706 -0.9256  1.1119 -0.5760
  483SOL    MW4 1700   0.781   0.340   5.773  0.7870 -0.1050  0.2532
  484SOL     OW 1701   1.188   1.091   4.719  0.3763 -0.2967 -0.0291
  484SOL    HW2 1702   1.282   1.099   4.706  0.2219  0.1921 -0.9079
  484SOL    HW3 1703   1.160   1.178   4.746 -0.0431 -0.0229 -1.2825
  484SOL    MW4 1704   1.196   1.103   4.721  0.1529 -0.4080 -0.1123
  485SOL     OW 1705   0.495   5.347   2.055  0.4145  0.5305  0.1733
  485SOL    HW2 1706   0.488   5.439   2.081  1.3204 -0.0321  2.6181
  485SOL    HW3 1707   0.410   5.309   2.079  1.6741 -0.2855  3.9954
  485SOL    MW4 1708   0.483   5.354   2.061 -0.1671  0.5126 -0.0562
  486SOL     OW 1709   2.305   5.361   0.710 -0.2552 -0.0865 -0.0562
  486SOL    HW2 1710   2.283   5.422   0.781 -1.3461  0.2606 -0.6644
  486SOL    HW3 1711   2.344   5.286   0.754  1.1605  1.0425  0.7135
  486SOL    MW4 1712   2.307   5.359   0.725  0.3760  0.1779 -0.0492
  487SOL     OW 1713   3.208   5.774   1.781  0.1512  0.7438  0.2898
  487SOL    HW2 1714   3.193   5.740   1.869  0.2465  0.1440  0.0748
  487SOL    HW3 1715   3.152   5.851   1.775  0.0087  0.6798  0.8127
  487SOL    MW4 1716   3.199   5.780   1.791  0.6910  0.6278  0.0262
  488SOL     OW 1717   5.011   4.351   1.725 -0.6416  0.0432 -0.2673
  488SOL    HW2 1718   5.013   4.260   1.755  1.5986  0.0551 -0.2118
  488SOL    HW3 1719   5.005   4.403   1.805  1.7775 -0.0207  0.0338
  488SOL    MW4 1720   5.010   4.346   1.739 -0.0728 -0.6540 -0.4313
  489SOL     OW 1721   0.378   3.816   3.976  0.2518  0.2638  0.2606
  489SOL    HW2 1722   0.331   3.840   4.056 -0.2995 -0.8350  0.3014
  489SOL    HW3 1723   0.464   3.856   3.985 -1.0386  3.4369 -0.4005
  489SOL    MW4 1724   0.383   3.824   3.988  0.2918 -0.0103 -0.5008
  490SOL     OW 1725   1.483   3.723   4.793 -0.1686  0.2194  0.0722
  490SOL    HW2 1726   1.419   3.657   4.820  0.4652 -1.1680 -1.6906
  490SOL    HW3 1727   1.568   3.680   4.803  0.2639  0.7911 -1.0312
  490SOL    MW4 1728   1.486   3.709   4.798  0.1744  0.3497  0.7722
  491SOL     OW 1729   1.727   5.245   5.675  0.0225 -0.3102  0.2443
  491SOL    HW2 1730   1.651   5.299   5.695 -0.2310  0.4440 -2.3329
  491SOL    HW3 1731   1.799   5.286   5.724 -0.6663  0.8133  0.3550
  491SOL    MW4 1732   1.727   5.258   5.684 -0.5845 -0.4069 -0.0624
  492SOL     OW 1733   5.596   0.569   1.117  0.1633 -0.4917 -0.1280
  492SOL    HW2 1734   5.549   0.511   1.177 -0.4194 -0.2521 -0.3365
  492SOL    HW3 1735   5.568   0.657   1.143  1.3441 -0.2748  0.4432
  492SOL    MW4 1736   5.586   0.573   1.128 -0.3949 -0.2428 -0.1198
  493SOL     OW 1737   5.508   2.996   0.509 -0.3836 -0.2197 -0.4352
  493SOL    HW2 1738   5.590   3.029   0.471 -1.5167  1.7835 -1.2922
  493SOL    HW3 1739   5.471   3.072   0.554 -1.3581 -1.3347  0.6930
  493SOL    MW4 1740   5.514   3.010   0.510 -0.0446 -0.1390  0.3290
  494SOL     OW 1741   0.460   2.341   3.098 -0.2715 -0.5566 -0.3670
  494SOL    HW2 1742   0.417   2.258   3.075  2.2946 -1.9381 -0.5886
  494SOL    HW3 1743   0.466   2.388   3.015 -0.4052 -0.8129 -0.5244
  494SOL    MW4 1744   0.455   2.336   3.084  0.1511  0.2311  0.2129
  495SOL     OW 1745   5.784   5.106   5.983  0.4318  0.2994 -0.1569
  495SOL    HW2 1746   5.801   5.101   6.077  2.6580  0.9091 -0.4642
  495SOL    HW3 1747   5.711   5.167   5.975  0.4870  0.5586  1.1581
  495SOL    MW4 1748   5.777   5.114   5.994 -0.3436 -0.3864 -0.3134
  496SOL     OW 1749   1.293   0.014   6.208 -0.2056  0.1451 -0.1556
  496SOL    HW2 1750   1.383  -0.006   6.182 -0.0841 -1.9411  1.5970
  496SOL    HW3 1751   1.301   0.052   6.295 -0.9707  1.2806 -0.5574
  496SOL    MW4 1752   1.306   0.016   6.216 -0.1374  0.8168  0.6262
  497SOL     OW 1753   6.101   4.877   0.779 -0.2638  0.2315 -0.0127
  497SOL    HW2 1754   6.056   4.959   0.759 -1.6647 -0.0550  1.7203
  497SOL    HW3 1755   6.041   4.808   0.749  0.8421 -0.2190 -1.3354
  497SOL    MW4 1756   6.088   4.878   0.772 -0.0764  0.0869 -0.1367
  498SOL     OW 1757   1.257   4.663   4.875 -0.0968  0.4938 -0.3130
  498SOL    HW2 1758   1.246   4.753   4.845  1.4567 -0.0098 -2.6689
  498SOL    HW3 1759   1.310   4.621   4.807 -0.4011 -2.1001  0.9173
  498SOL    MW4 1760   1.263   4.669   4.862  0.0410  0.2529  0.1235
  499SOL     OW 1761   2.666   4.196   3.153 -0.8286 -0.5529  0.1812
  499SOL    HW2 1762   2.593   4.206   3.092 -1.4629 -0.8663  0.8705
  499SOL    HW3 1763   2.741   4.175   3.097 -1.2861 -0.3379 -0.5297
  499SOL    MW4 1764   2.666   4.195   3.138  0.2788  0.6865 -0.2069
  500SOL     OW 1765   3.239   2.805   1.466 -0.3121  0.4894 -0.4496
  500SOL    HW2 1766   3.259   2.874   1.529 -1.0403 -0.6944  1.1634
  500SOL    HW3 1767   3.180   2.846   1.403 -1.2109  1.2127  0.8101
  500SOL    MW4 1768   3.234   2.819   1.466  0.2290 -0.2420  0.2417
  501SOL     OW 1769   1.186   1.569   0.878 -0.4513  0.5998 -0.1961
  501SOL    HW2 1770   1.232   1.587   0.795 -1.0337  2.3518 -0.1788
  501SOL    HW3 1771   1.106   1.524   0.851 -0.2589  0.4285 -0.5017
  501SOL    MW4 1772   1.182   1.566   0.863 -0.1198  0.1880  0.3232
  502SOL     OW 1773   0.444   0.733   4.860 -0.7141  0.1066  0.1672
  502SOL    HW2 1774   0.527   0.716   4.817 -1.0489 -2.2411  0.3436
  502SOL    HW3 1775   0.379   0.689   4.805 -1.3778 -1.3036  1.9692
  502SOL    MW4 1776   0.446   0.725   4.847  0.9777  0.2373  0.3594
  503SOL     OW 1777   4.826   2.505   5.467 -0.2568  0.7863  0.8829
  503SOL    HW2 1778   4.864   2.526   5.382 -1.3710  0.1163  0.1981
  503SOL    HW3 1779   4.751   2.563   5.475 -1.5861 -0.7814  0.3056
  503SOL    MW4 1780   4.821   2.515   5.457  0.4976 -0.1701  0.2512
  504SOL     OW 1781   4.387   2.183   4.051  0.5147  0.1100 -0.3736
  504SOL    HW2 1782   4.303   2.217   4.020  0.9253  2.9514  1.2515
  504SOL    HW3 1783   4.415   2.122   3.983 -1.2782  1.5980 -2.6094
  504SOL    MW4 1784   4.379   2.179   4.038  0.1179  0.8100 -0.7042
  505SOL     OW 1785   4.587   3.225   1.899 -0.1723  0.2256 -0.1775
  505SOL    HW2 1786   4.667   3.222   1.952 -0.4890 -0.1510  0.2916
  505SOL    HW3 1787   4.547   3.310   1.921 -0.4338 -0.0362  0.4030
  505SOL    MW4 1788   4.592   3.236   1.909  0.3320  0.3161  0.1675
  506SOL     OW 1789   0.325   1.181   1.128  0.0632 -0.1811 -0.5522
  506SOL    HW2 1790   0.391   1.157   1.062  2.2533 -1.6008  1.9804
  506SOL    HW3 1791   0.293   1.097   1.161 -0.6639  0.4990  0.5179
  506SOL    MW4 1792   0.329   1.167   1.123 -0.0749 -0.0320 -0.1125
  507SOL     OW 1793   1.190   5.761   3.743 -0.3306 -0.2190  0.2513
  507SOL    HW2 1794   1.282   5.736   3.733 -0.3800 -0.1360 -0.5165
  507SOL    HW3 1795   1.192   5.853   3.768 -0.2048  0.3158 -1.5387
  507SOL    MW4 1796   1.202   5.770   3.745  0.5481 -0.0299 -0.2484
  508SOL     OW 1797   3.709   0.881   1.986  0.6715  0.3477  0.4970
  508SOL    HW2 1798   3.643   0.935   1.942  1.2272 -0.4886 -1.4790
  508SOL    HW3 1799   3.780   0.942   2.006  0.9983  0.5057 -1.0614
  508SOL    MW4 1800   3.709   0.896   1.983 -0.3800 -0.2282  0.0191
  509SOL     OW 1801   6.358   5.467   2.594 -0.1187 -0.7518 -0.6240
  509SOL    HW2 1802   6.401   5.526   2.532 -0.8752 -1.2591 -1.6816
  509SOL    HW3 1803   6.292   5.521   2.638  2.2608  0.3185  1.8382
  509SOL    MW4 1804   6.355   5.482   2.591  0.5558 -0.2867 -0.0574
  510SOL     OW 1805   1.470   0.995   2.846  0.0341  0.4223  0.0837
  510SOL    HW2 1806   1.399   1.052   2.816  0.2188  1.7027  1.9452
  510SOL    HW3 1807   1.521   0.977   2.767 -1.6079  0.5003 -1.0648
  510SOL    MW4 1808   1.467   1.000   2.832  0.2008 -0.1046  0.4645
  511SOL     OW 1809   3.340   6.330   3.762 -0.9109 -0.4389 -0.0008
  511SOL    HW2 1810   3.275   6.399   3.773  0.0917  0.3674  1.0924
  511SOL    HW3 1811   3.300   6.253   3.803 -1.9206 -0.4629 -0.9875
  511SOL    MW4 1812   3.326   6.329   3.769 -0.3909  0.6182 -0.2846
  512SOL     OW 1813   0.673   2.420   2.548  0.4817 -0.5339 -0.1833
  512SOL    HW2 1814   0.689   2.347   2.487  0.6531 -1.2809  0.7399
  512SOL    HW3 1815   0.759   2.462   2.557  0.4879 -0.5127 -0.3233
  512SOL    MW4 1816   0.687   2.416   2.541  0.4001 -0.2910 -0.6159
  513SOL     OW 1817   0.506   2.526   5.601 -0.2747 -0.4353  0.3572
  513SOL    HW2 1818   0.595   2.506   5.630 -0.1141 -2.1075 -1.0358
  513SOL    HW3 1819   0.464   2.440   5.595 -1.4460  0.1758 -0.6020
  513SOL    MW4 1820   0.512   2.512   5.604  0.2450 -0.1536 -0.3302
  514SOL     OW 1821   0.066   6.220   0.947  0.4579  0.0980  0.4473
  514SOL    HW2 1822   0.096   6.295   0.999 -1.8645 -0.2648  2.4808
  514SOL    HW3 1823   0.096   6.143   0.996 -0.8575 -0.2546  0.7428
  514SOL    MW4 1824   0.074   6.220   0.960 -0.5497  0.0012  0.2999
  515SOL     OW 1825   6.158   6.338   0.390  0.0300 -0.0499  0.1357
  515SOL    HW2 1826   6.248   6.314   0.410  0.8345  1.8542 -0.9335
  515SOL    HW3 1827   6.140   6.300   0.304  0.7545  1.6788 -0.8294
  515SOL    MW4 1828   6.167   6.330   0.382 -0.3119  0.3499  0.1126
  516SOL     OW 1829   0.814   5.538   0.263 -0.2959  0.1658  0.4516
  516SOL    HW2 1830   0.832   5.447   0.287  0.4802  0.1212 -0.2631
  516SOL    HW3 1831   0.881   5.560   0.198  0.2044  1.5897  1.3834
  516SOL    MW4 1832   0.825   5.529   0.258 -0.1894 -0.0547 -0.6663
  517SOL     OW 1833   0.849   5.250   0.168  0.8433  0.8133  0.3303
  517SOL    HW2 1834   0.782   5.285   0.110  0.5647  0.8745  0.6903
  517SOL    HW3 1835   0.920   5.223   0.109  1.5056  2.8874  0.0798
  517SOL    MW4 1836   0.850   5.251   0.153 -0.3002  0.5194 -0.2227
  518SOL     OW 1837   0.639   0.626   0.176 -0.0684  0.6239  0.5210
  518SOL    HW2 1838   0.713   0.567   0.184  0.4597  1.0263 -1.1500
  518SOL    HW3 1839   0.677   0.710   0.148 -1.3221 -0.0711 -4.0838
  518SOL    MW4 1840   0.653   0.630   0.174 -0.2750  0.1807 -0.2274
  519SOL     OW 1841   3.882   6.024   4.395  0.2734 -0.4428  0.0221
  519SOL    HW2 1842   3.975   6.020   4.373 -0.1175 -2.1686 -1.5858
  519SOL    HW3 1843   3.845   6.087   4.333  0.3141  0.0874  0.5256
  519SOL    MW4 1844   3.890   6.032   4.384 -0.3267  0.2628  0.0460
  520SOL     OW 1845   4.017   0.049   2.985  0.0944  0.1992 -1.2112
  520SOL    HW2 1846   3.960   0.058   3.061 -0.0765 -1.9464 -1.0411
  520SOL    HW3 1847   3.971   0.096   2.915 -0.2310  1.3323 -0.2771
  520SOL    MW4 1848   4.004   0.056   2.986  0.0383  0.3424 -0.8545
  521SOL     OW 1849   1.274   3.502   5.713  0.2084  0.0515  0.1044
  521SOL    HW2 1850   1.319   3.456   5.784 -0.1304  0.4200  0.5624
  521SOL    HW3 1851   1.334   3.573   5.690  1.7735 -1.8443 -2.1007
  521SOL    MW4 1852   1.288   3.506   5.719 -0.3294 -0.3671 -0.0298
  522SOL     OW 1853   4.242   4.234   3.315  0.6246  0.2143 -0.2542
  522SOL    HW2 1854   4.294   4.154   3.324  0.8943  0.4795  0.5512
  522SOL    HW3 1855   4.220   4.259   3.404  0.1342  0.7813 -0.5277
  522SOL    MW4 1856   4.246   4.226   3.328 -0.4870 -0.4260  0.4416
  523SOL     OW 1857   1.575   6.182   0.730 -0.6640  0.0682  0.3028
  523SOL    HW2 1858   1.601   6.189   0.822  0.4152  1.7662 -0.0793
  523SOL    HW3 1859   1.497   6.236   0.723 -1.3385 -0.8732  0.4034
  523SOL    MW4 1860   1.568   6.190   0.741 -0.2597  0.2804 -0.0318
  524SOL     OW 1861   2.721   5.257   3.828 -0.0034 -0.2432 -0.3388
  524SOL    HW2 1862   2.776   5.209   3.766 -0.7870 -1.0021 -0.4657
  524SOL    HW3 1863   2.637   5.267   3.782 -0.6651 -1.0011  0.6787
  524SOL    MW4 1864   2.717   5.252   3.814 -0.1736  0.3122 -0.8265
  525SOL     OW 1865   1.422   5.618   3.968  0.5214  0.3824  0.1431
  525SOL    HW2 1866   1.512   5.609   3.936  1.0468  2.2741  0.9342
  525SOL    HW3 1867   1.418   5.707   4.004 -1.4966  0.1254  0.6914
  525SOL    MW4 1868   1.433   5.629   3.969  0.2348  0.2033 -0.5867
  526SOL     OW 1869   1.354   5.511   5.367  0.0861 -0.1653  0.4543
  526SOL    HW2 1870   1.264   5.516   5.335  0.3921  0.7448 -0.2848
  526SOL    HW3 1871   1.387   5.429   5.330  0.1854  0.4858 -0.9508
  526SOL    MW4 1872   1.346   5.501   5.358  0.0879 -0.1347  0.5258
  527SOL     OW 1873   3.602   5.243   0.241 -0.4509 -0.1733  0.1166
  527SOL    HW2 1874   3.610   5.304   0.315  2.0444  0.8311 -0.8644
  527SOL    HW3 1875   3.509   5.224   0.236 -0.7532 -0.1814  3.4118
  527SOL    MW4 1876   3.591   5.248   0.250  0.1569 -0.0135 -0.4094
  528SOL     OW 1877   0.436   5.916   4.240  0.0411 -0.7602 -0.5698
  528SOL    HW2 1878   0.387   5.837   4.217 -0.8831 -0.6551  0.9145
  528SOL    HW3 1879   0.525   5.898   4.209 -0.4995 -1.7156 -1.6731
  528SOL    MW4 1880   0.442   5.903   4.233  0.4510  0.0512  0.0482
  529SOL     OW 1881   2.486   2.796   2.041 -0.2870  0.8736  0.1866
  529SOL    HW2 1882   2.481   2.846   2.122  0.5806 -0.3869  1.0571
  529SOL    HW3 1883   2.407   2.743   2.041  0.6802 -0.6441  1.2930
  529SOL    MW4 1884   2.475   2.796   2.052  0.2910  0.0769 -0.2295
  530SOL     OW 1885   4.862   3.024   5.761 -0.0841  0.4335  0.1160
  530SOL    HW2 1886   4.823   2.996   5.843  1.5215  0.0736  0.7786
  530SOL    HW3 1887   4.803   2.990   5.693 -1.3349  0.6023  1.0840
  530SOL    MW4 1888   4.849   3.016   5.763 -0.5147  0.3695 -0.8487
  531SOL     OW 1889   5.989   2.654   5.183 -0.2863 -0.4309 -0.6536
  531SOL    HW2 1890   6.065   2.628   5.236  0.7731  2.4394 -0.6224
  531SOL    HW3 1891   5.914   2.620   5.232  0.7289  0.9560  2.0572
  531SOL    MW4 1892   5.989   2.646   5.197  0.4374  0.3205 -0.0416
  532SOL     OW 1893   0.537   2.615   0.639  0.3917  0.8473 -0.2699
  532SOL    HW2 1894   0.481   2.557   0.587  2.3909 -0.0773 -1.4809
  532SOL    HW3 1895   0.613   2.561   0.662 -0.0882  1.3991  3.1654
  532SOL    MW4 1896   0.539   2.600   0.635 -0.0171 -0.3956  0.6360
  533SOL     OW 1897   0.522   0.417   5.642  0.2602 -0.6083 -0.2376
  533SOL    HW2 1898   0.448   0.357   5.636  0.7567 -1.2389 -0.2461
  533SOL    HW3 1899   0.571   0.402   5.560  1.2221 -1.3304  0.4495
  533SOL    MW4 1900   0.519   0.407   5.630  0.1661  0.5177  0.0414
  534SOL     OW 1901   3.288   1.925   3.577  0.7730  0.3833  0.3859
  534SOL    HW2 1902   3.316   1.836   3.558  1.3422  0.7322 -0.4637
  534SOL    HW3 1903   3.311   1.939   3.669 -3.8048 -2.0248  2.2048
  534SOL    MW4 1904   3.295   1.915   3.587  0.1256  0.5996 -0.0289
  535SOL     OW 1905   3.008   1.757   4.650  0.3303  0.5808  0.2821
  535SOL    HW2 1906   3.082   1.807   4.687  0.0045  1.9048 -0.7791
  535SOL    HW3 1907   3.022   1.761   4.556 -0.7518  0.2790  0.1045
  535SOL    MW4 1908   3.020   1.764   4.643 -0.7300  0.2175  0.0083
  536SOL     OW 1909   4.187   5.799   1.991 -0.0746  0.3658  0.8189
  536SOL    HW2 1910   4.209   5.857   2.064 -1.1973 -0.5356  1.9165
  536SOL    HW3 1911   4.094   5.783   2.000 -0.0233 -0.6215 -0.2036
  536SOL    MW4 1912   4.178   5.805   2.002 -0.0686 -0.0281 -0.3084
  537SOL     OW 1913   1.732   3.621   3.523 -0.5167 -0.0634 -0.3118
  537SOL    HW2 1914   1.767   3.700   3.563  0.4690 -0.4439 -0.3983
  537SOL    HW3 1915   1.692   3.650   3.441  0.7603  0.2100 -0.8502
  537SOL    MW4 1916   1.731   3.635   3.518  0.6877 -0.1911 -0.1088
  538SOL     OW 1917   0.170   6.009   1.094  0.1032  0.3123  0.8236
  538SOL    HW2 1918   0.190   5.954   1.018 -0.2762  0.5846  0.5189
  538SOL    HW3 1919   0.091   5.970   1.132  0.3554  0.1145  1.1383
  538SOL    MW4 1920   0.162   5.997   1.089  0.2268 -0.3635  0.6632
  539SOL     OW 1921   0.904   2.541   0.431 -0.2590 -0.2338  0.0778
  539SOL    HW2 1922   0.967   2.505   0.368  0.4112 -0.5798  0.9245
  539SOL    HW3 1923   0.883   2.467   0.488 -1.0702  0.0065  0.0907
  539SOL    MW4 1924   0.910   2.526   0.430  0.1328 -0.3051 -0.2119
  540SOL     OW 1925   0.351   1.565   2.909 -0.1462 -0.5400  1.0425
  540SOL    HW2 1926   0.377   1.596   2.823  1.8138 -0.2287  1.7005
  540SOL    HW3 1927   0.271   1.515   2.893 -1.8282  2.3658 -0.4504
  540SOL    MW4 1928   0.344   1.562   2.896  0.1621 -0.1653  0.2382
  541SOL     OW 1929   5.583   4.482   1.316  0.0458 -0.2644 -0.1641
  541SOL    HW2 1930   5.493   4.482   1.347 -0.6887 -0.4212 -2.1431
  541SOL    HW3 1931   5.632   4.435   1.383 -1.0179  1.1930  1.7330
  541SOL    MW4 1932   5.577   4.476   1.329 -0.6069  0.0443 -0.1908
  542SOL     OW 1933   1.075   5.144   5.635  0.2713 -0.7679  0.2172
  542SOL    HW2 1934   1.169   5.131   5.623  0.6695 -0.4218  2.4486
  542SOL    HW3 1935   1.039   5.055   5.643  0.6659 -0.8854  0.7956
  542SOL    MW4 1936   1.082   5.130   5.635  0.3111 -0.0799 -0.1383
  543SOL     OW 1937   2.086   2.431   3.677 -0.2144  0.8027 -0.7215
  543SOL    HW2 1938   2.083   2.404   3.769  0.6872 -2.6908 -1.5563
  543SOL    HW3 1939   2.125   2.518   3.678  0.1778  0.6817  2.1735
  543SOL    MW4 1940   2.091   2.439   3.689 -0.5919 -0.4613  0.0730
  544SOL     OW 1941   4.901   0.004   4.209 -0.3350  0.2815 -0.2117
  544SOL    HW2 1942   4.842   0.003   4.133 -2.0236 -0.1415  1.0449
  544SOL    HW3 1943   4.945  -0.081   4.207  0.7255  0.8249 -1.4895
  544SOL    MW4 1944   4.899  -0.007   4.198  0.4168 -0.3932  0.1792
  545SOL     OW 1945   2.732   2.430   4.371  0.5478  0.5828  0.5551
  545SOL    HW2 1946   2.740   2.525   4.378 -0.1033  0.6579  0.3454
  545SOL    HW3 1947   2.687   2.404   4.452 -0.1963  0.5775  0.1484
  545SOL    MW4 1948   2.727   2.439   4.383 -0.0421  0.1757 -0.2449
  546SOL     OW 1949   2.291   6.130   3.594 -0.1807 -0.0323 -0.2781
  546SOL    HW2 1950   2.245   6.174   3.522 -1.7453  0.7857  1.1751
  546SOL    HW3 1951   2.252   6.165   3.673  2.3845  0.0361  1.0596
  546SOL    MW4 1952   2.280   6.140   3.595  0.5150  0.0852  1.1945
  547SOL     OW 1953   2.050   3.669   3.302 -0.5649  0.3450 -0.0612
  547SOL    HW2 1954   2.042   3.764   3.299 -1.5002  0.3467  1.3984
  547SOL    HW3 1955   2.073   3.649   3.392 -0.2647 -0.8158 -0.3735
  547SOL    MW4 1956   2.052   3.679   3.313 -0.0803  0.0541 -0.0782
  548SOL     OW 1957   1.409   1.180   4.181  0.0329 -0.0128 -0.4313
  548SOL    HW2 1958   1.377   1.090   4.176  0.3476 -0.0850 -1.3387
  548SOL    HW3 1959   1.499   1.175   4.149  0.8046  0.2826  1.5161
  548SOL    MW4 1960   1.417   1.167   4.176 -0.5781 -0.0044 -0.2738
  549SOL     OW 1961   2.979   2.387   4.826  0.0930 -0.2479  0.4536
  549SOL    HW2 1962   3.014   2.457   4.881  1.3178  0.3167 -0.9592
  549SOL    HW3 1963   3.041   2.382   4.753 -2.7707  0.8647 -2.2544
  549SOL    MW4 1964   2.992   2.396   4.824  0.5210  0.0201 -0.4967
  550SOL     OW 1965   1.701   6.269   2.016 -0.3218  0.0141  0.4212
  550SOL    HW2 1966   1.769   6.219   1.972  0.4616  0.6103  0.9169
  550SOL    HW3 1967   1.631   6.278   1.951 -0.2316 -1.2068  0.1410
  550SOL    MW4 1968   1.700   6.264   2.002 -0.0750 -0.0590  0.6161
  551SOL     OW 1969   5.261   0.675   4.032  0.0326  0.2545  0.4310
  551SOL    HW2 1970   5.298   0.731   3.964 -1.5460  0.1299 -0.5594
  551SOL    HW3 1971   5.316   0.692   4.109  1.8699  0.3692 -0.8502
  551SOL    MW4 1972   5.274   0.685   4.033  0.3362 -0.0331 -0.1320
  552SOL     OW 1973   1.487   1.018   0.801  1.1358  0.1711 -0.4931
  552SOL    HW2 1974   1.438   0.957   0.745  0.0508 -0.4381  1.0764
  552SOL    HW3 1975   1.437   1.100   0.797 -1.4150 -1.0159  2.7607
  552SOL    MW4 1976   1.474   1.021   0.793  0.2514 -0.2495 -0.4273
  553SOL     OW 1977   5.020   4.364   3.688 -0.0791 -0.0045  0.2905
  553SOL    HW2 1978   4.959   4.353   3.614  0.5401  1.8058 -0.5567
  553SOL    HW3 1979   5.013   4.282   3.737  0.8539 -2.1049 -2.7717
  553SOL    MW4 1980   5.011   4.352   3.685 -0.1935 -0.4694 -0.2254
  554SOL     OW 1981   0.111   5.075   1.870 -0.4649 -0.0280  0.0172
  554SOL    HW2 1982   0.076   4.987   1.881 -0.1402  0.0304  1.7778
  554SOL    HW3 1983   0.161   5.071   1.789  1.9134 -2.2816  1.4530
  554SOL    MW4 1984   0.113   5.063   1.861 -0.1746 -0.4043 -0.3459
  555SOL     OW 1985   1.262   3.423   3.941  0.8012  0.3547 -0.3602
  555SOL    HW2 1986   1.202   3.349   3.937  0.6112  0.5450 -1.1793
  555SOL    HW3 1987   1.295   3.432   3.851  1.2715  0.8943 -0.1404
  555SOL    MW4 1988   1.259   3.414   3.929  0.4497 -0.2399  0.0647
  556SOL     OW 1989   0.372   0.387   4.510  0.3806  0.8112 -0.4074
  556SOL    HW2 1990   0.306   0.330   4.471  0.1363 -0.4356  1.6883
  556SOL    HW3 1991   0.440   0.394   4.443 -0.0196 -1.2009 -1.0781
  556SOL    MW4 1992   0.372   0.381   4.496  0.0892 -0.0205  0.7601
  557SOL     OW 1993   1.896   2.974   5.826  0.0360  0.6370  0.3015
  557SOL    HW2 1994   1.886   3.034   5.900  1.1981  1.8087 -0.4447
  557SOL    HW3 1995   1.895   3.031   5.749 -3.1974 -0.7042 -0.8209
  557SOL    MW4 1996   1.894   2.989   5.826 -0.5264  0.1637 -0.4036
  558SOL     OW 1997   3.233   3.289   4.705  0.4744  0.4503 -0.0584
  558SOL    HW2 1998   3.268   3.220   4.648  0.1225  0.7401 -0.6408
  558SOL    HW3 1999   3.149   3.256   4.735  0.6960  0.2647  0.3576
  558SOL    MW4 2000   3.227   3.276   4.701  0.8259  0.1614 -0.1959
  559SOL     OW 2001   2.208   3.733   1.173 -0.3067 -0.5487  0.2063
  559SOL    HW2 2002   2.243   3.646   1.187  2.4853  0.2455 -1.1943
  559SOL    HW3 2003   2.119   3.729   1.207  0.2866 -3.4428  1.6642
  559SOL    MW4 2004   2.201   3.721   1.179 -0.1706  0.3999  0.0360
  560SOL     OW 2005   1.145   0.924   5.694 -0.0151  0.0523  0.3156
  560SOL    HW2 2006   1.059   0.902   5.728  0.6615 -2.2338  0.7345
  560SOL    HW3 2007   1.182   0.984   5.759 -0.9059  0.2289  0.6667
  560SOL    MW4 2008   1.139   0.929   5.707  0.3555  0.0076 -0.6025
  561SOL     OW 2009   0.119   0.541   5.244 -0.4967  0.1745  0.1329
  561SOL    HW2 2010   0.107   0.629   5.209 -0.8131  0.0657 -0.0420
  561SOL    HW3 2011   0.167   0.553   5.325  2.3013  0.2712 -1.4006
  561SOL    MW4 2012   0.124   0.554   5.250 -0.1462 -0.6209  0.1255
  562SOL     OW 2013   5.999   2.525   1.432 -0.1445 -0.2401 -0.4433
  562SOL    HW2 2014   6.077   2.515   1.486 -0.5500  0.3089  0.2505
  562SOL    HW3 2015   6.002   2.451   1.372  0.5857 -0.5642 -0.0155
  562SOL    MW4 2016   6.010   2.514   1.431 -0.2625 -0.3821 -0.6924
  563SOL     OW 2017   0.166   4.307   2.431  0.1453 -0.0006 -1.2335
  563SOL    HW2 2018   0.220   4.383   2.453 -0.9857  0.3472  0.5899
  563SOL    HW3 2019   0.228   4.234   2.427  0.8748  0.5123  0.0850
  563SOL    MW4 2020   0.181   4.307   2.434  0.5988  0.2318 -0.4698
  564SOL     OW 2021   3.216   0.793   3.382 -0.2026  0.2276  0.0564
  564SOL    HW2 2022   3.169   0.726   3.431  0.1937 -0.1543 -0.0777
  564SOL    HW3 2023   3.237   0.861   3.447  0.6542 -0.4487  0.5018
  564SOL    MW4 2024   3.213   0.793   3.397 -0.9371 -0.1611  0.0232
  565SOL     OW 2025   0.792   4.673   5.790  0.0312 -0.6895 -0.0407
  565SOL    HW2 2026   0.844   4.615   5.846  1.6930  1.6089  0.9495
  565SOL    HW3 2027   0.758   4.740   5.849 -0.4037  0.2975 -1.3559
  565SOL    MW4 2028   0.795   4.674   5.805  0.2369  0.6811 -0.4250
  566SOL     OW 2029   3.944   4.612   4.656  0.0725  0.0413 -0.2541
  566SOL    HW2 2030   3.910   4.609   4.745  0.1091 -0.3812 -0.2544
  566SOL    HW3 2031   3.866   4.623   4.601  0.0174 -0.0507 -0.1949
  566SOL    MW4 2032   3.929   4.613   4.661 -0.2402  0.4151 -0.1752
  567SOL     OW 2033   5.967   3.220   3.504  0.1406  0.3339  0.0513
  567SOL    HW2 2034   6.004   3.286   3.444  0.9291  0.1533  0.3265
  567SOL    HW3 2035   5.895   3.182   3.455 -0.2280  1.2925 -0.1785
  567SOL    MW4 2036   5.963   3.224   3.489 -0.6376 -0.2832 -0.3981
  568SOL     OW 2037   5.076   4.916   1.875 -0.9363  0.1601  0.2923
  568SOL    HW2 2038   5.103   4.995   1.827 -0.4654  0.0930  0.4445
  568SOL    HW3 2039   4.982   4.927   1.888 -0.5687  1.6989  2.1083
  568SOL    MW4 2040   5.067   4.928   1.870 -0.0100 -0.3957  0.2525
  569SOL     OW 2041   5.650   5.410   1.869  0.3335 -0.1552 -0.2025
  569SOL    HW2 2042   5.606   5.451   1.794 -0.9304 -2.0359 -0.5536
  569SOL    HW3 2043   5.651   5.479   1.936 -2.8889  0.1617 -0.2931
  569SOL    MW4 2044   5.644   5.425   1.868  1.2038 -0.3708  0.3256
  570SOL     OW 2045   2.448   3.356   4.317 -0.2040  0.4497  0.2654
  570SOL    HW2 2046   2.405   3.274   4.294 -1.0959  0.6238  1.2593
  570SOL    HW3 2047   2.387   3.424   4.287  0.9365  0.8202 -1.4010
  570SOL    MW4 2048   2.435   3.354   4.310  0.0451  0.5923  0.3171
  571SOL     OW 2049   0.501   4.708   6.086  0.0390 -0.6408  0.3731
  571SOL    HW2 2050   0.502   4.687   6.179  1.1963  0.1982  0.5801
  571SOL    HW3 2051   0.505   4.624   6.042  0.8897 -1.0089  1.1104
  571SOL    MW4 2052   0.502   4.694   6.093 -0.6793  0.9590 -0.7068
  572SOL     OW 2053   5.732   5.818   6.127 -0.7413  0.1401  0.0350
  572SOL    HW2 2054   5.697   5.889   6.072 -1.2708  0.3985  0.6929
  572SOL    HW3 2055   5.730   5.741   6.070  0.2845  0.7380 -0.8440
  572SOL    MW4 2056   5.727   5.817   6.112  0.1194 -0.6505 -0.4259
  573SOL     OW 2057   4.900   4.297   0.484 -0.2577  0.0677  0.0227
  573SOL    HW2 2058   4.945   4.221   0.520 -1.8016 -0.4084  1.0423
  573SOL    HW3 2059   4.843   4.328   0.555 -2.3065 -0.0048 -1.4851
  573SOL    MW4 2060   4.898   4.291   0.498  0.0220  0.0994  0.3770
  574SOL     OW 2061   6.370   0.837   4.951 -0.0048  0.3135 -0.2760
  574SOL    HW2 2062   6.311   0.762   4.944 -1.3191  1.4112 -1.8789
  574SOL    HW3 2063   6.365   0.879   4.865 -0.3954  3.0011  0.9609
  574SOL    MW4 2064   6.361   0.833   4.939 -0.0423  0.7125 -0.3787
  575SOL     OW 2065   3.238   6.363   2.257  0.0849 -0.3762  0.0089
  575SOL    HW2 2066   3.226   6.396   2.346 -2.5803  0.8834 -0.7371
  575SOL    HW3 2067   3.169   6.297   2.247  0.1936 -0.3204 -1.2016
  575SOL    MW4 2068   3.227   6.358   2.268  0.0848 -0.1288  0.0027
  576SOL     OW 2069   3.361   6.046   6.119  0.7982 -0.7820 -0.4496
  576SOL    HW2 2070   3.372   6.033   6.213 -0.4164 -0.9451 -0.3125
  576SOL    HW3 2071   3.372   5.959   6.081  2.1238 -0.5873 -0.5738
  576SOL    MW4 2072   3.364   6.033   6.126 -0.0301  0.0744 -0.1947
  577SOL     OW 2073   0.087   0.520   0.516 -0.2112  0.1811  0.6809
  577SOL    HW2 2074   0.169   0.480   0.544 -1.0686 -2.2855 -0.0736
  577SOL    HW3 2075   0.079   0.499   0.423 -0.5210  2.6341  0.0674
  577SOL    MW4 2076   0.097   0.512   0.508  0.1830 -1.0813 -0.4759
  578SOL     OW 2077   4.164   3.082   1.303  0.3529 -0.0302  0.6087
  578SOL    HW2 2078   4.181   3.048   1.215  1.4163  0.3316  0.6635
  578SOL    HW3 2079   4.080   3.043   1.328 -0.1251  0.1236 -0.6941
  578SOL    MW4 2080   4.155   3.073   1.295 -0.7527  0.2104 -0.5822
  579SOL     OW 2081   1.234   1.087   2.208  0.8648 -0.1009 -0.0197
  579SOL    HW2 2082   1.232   1.008   2.155 -0.6074  1.0194 -1.7429
  579SOL    HW3 2083   1.195   1.061   2.292  1.0580 -1.3449 -0.3036
  579SOL    MW4 2084   1.229   1.073   2.212  0.8175  0.0181 -0.3077
  580SOL     OW 2085   2.802   2.120   1.093  0.9313 -0.1966 -0.6869
  580SOL    HW2 2086   2.785   2.029   1.117  0.9718 -0.3025 -1.0532
  580SOL    HW3 2087   2.717   2.154   1.066  0.7538  0.1145  0.2089
  580SOL    MW4 2088   2.788   2.113   1.093 -0.2940 -0.0118  0.1085
  581SOL     OW 2089   4.282   1.642   5.049  0.1034  0.1134  0.1517
  581SOL    HW2 2090   4.189   1.650   5.071 -0.0288  0.8278 -0.5981
  581SOL    HW3 2091   4.283   1.624   4.955  0.7036 -0.9662  0.3451
  581SOL    MW4 2092   4.270   1.641   5.039  0.1821 -0.2075 -0.8659
  582SOL     OW 2093   6.027   1.084   5.896 -0.1274  0.2363  0.6866
  582SOL    HW2 2094   6.058   1.059   5.809  0.5456 -0.0776  1.0092
  582SOL    HW3 2095   6.055   1.013   5.953 -0.1719  0.6524  1.2354
  582SOL    MW4 2096   6.035   1.071   5.892 -0.0987  0.0624  0.5193
  583SOL     OW 2097   0.345   2.515   1.175 -0.5884  0.0869 -0.1791
  583SOL    HW2 2098   0.378   2.523   1.086  0.8883 -1.7733  0.1143
  583SOL    HW3 2099   0.251   2.504   1.166 -0.3219 -1.3342 -1.6371
  583SOL    MW4 2100   0.337   2.514   1.162  0.2686 -0.3434 -0.0270
  584SOL     OW 2101   6.363   2.360   0.695 -0.4745  0.0796  0.0217
  584SOL    HW2 2102   6.356   2.368   0.791  1.2884 -1.5165  0.3360
  584SOL    HW3 2103   6.414   2.281   0.681 -0.9762  0.0997 -2.2861
  584SOL    MW4 2104   6.369   2.351   0.706  0.4898 -0.2406  0.5517
  585SOL     OW 2105   4.745   3.860   1.804  0.0049  0.9086  0.4419
  585SOL    HW2 2106   4.830   3.850   1.846  0.1001  1.0471  0.2781
  585SOL    HW3 2107   4.684   3.820   1.866  0.4341 -1.2757 -0.4356
  585SOL    MW4 2108   4.748   3.854   1.818  0.4711  0.4233 -0.0742
  586SOL     OW 2109   0.029   3.400   1.313 -0.1565  0.2730 -0.2051
  586SOL    HW2 2110  -0.012   3.333   1.259  1.9067 -1.8727  0.6815
  586SOL    HW3 2111  -0.005   3.483   1.279 -2.5577 -1.1603 -1.5997
  586SOL    MW4 2112   0.019   3.402   1.302 -0.5374  0.0518 -0.1143
  587SOL     OW 2113   3.825   0.375   6.165  0.4570 -0.7872 -0.9679
  587SOL    HW2 2114   3.793   0.458   6.200 -0.3894 -1.8121  0.8781
  587SOL    HW3 2115   3.907   0.396   6.122  0.8330  0.8502  0.4353
  587SOL    MW4 2116   3.831   0.389   6.164  0.4743  0.2923  0.0897
  588SOL     OW 2117   2.372   1.916   5.041  0.8873  0.8266 -0.2241
  588SOL    HW2 2118   2.406   1.854   5.106 -1.6497 -1.5954 -0.9960
  588SOL    HW3 2119   2.426   1.902   4.964  1.7170  1.1804  0.2864
  588SOL    MW4 2120   2.383   1.906   5.040  0.2122  0.6535  0.0581
  589SOL     OW 2121   4.493   1.026   6.175  0.4047 -0.4361  0.3246
  589SOL    HW2 2122   4.405   0.994   6.154 -0.0426  0.5455  0.6176
  589SOL    HW3 2123   4.552   0.965   6.132 -0.4050 -1.6838  0.9256
  589SOL    MW4 2124   4.489   1.014   6.167 -0.2117 -0.1365 -0.0648
  590SOL     OW 2125   5.894   0.790   0.530  0.4104 -0.0497  0.4059
  590SOL    HW2 2126   5.931   0.778   0.617  0.4277  1.6101  0.6677
  590SOL    HW3 2127   5.951   0.854   0.488 -0.2292 -0.0000 -0.4172
  590SOL    MW4 2128   5.906   0.797   0.536 -0.0537  0.2109  0.1800
  591SOL     OW 2129   4.212   2.148   2.217 -0.4231 -0.2372 -0.3800
  591SOL    HW2 2130   4.139   2.107   2.171 -2.5848  0.5208  2.1465
  591SOL    HW3 2131   4.226   2.093   2.295 -1.2791  1.9347  1.4198
  591SOL    MW4 2132   4.204   2.136   2.221 -0.5966  0.9465  0.2408
  592SOL     OW 2133   6.015   3.115   5.513  0.2514  0.0316 -0.5368
  592SOL    HW2 2134   6.084   3.049   5.501  1.4911  1.4532 -1.7291
  592SOL    HW3 2135   5.964   3.110   5.432  1.0036  1.1983 -1.1173
  592SOL    MW4 2136   6.018   3.106   5.501  0.4071  0.8557  0.0140
  593SOL     OW 2137   3.050   6.120   2.761 -0.5650 -0.4394  1.0393
  593SOL    HW2 2138   3.127   6.098   2.813  1.8553  2.3278 -1.0770
  593SOL    HW3 2139   3.037   6.045   2.704  0.1594 -1.2045  1.8556
  593SOL    MW4 2140   3.058   6.107   2.760  0.4328  0.1315 -0.3937
  594SOL     OW 2141   5.272   1.349   5.450  0.2575  0.2691  0.1949
  594SOL    HW2 2142   5.255   1.280   5.514  0.2716  1.3569  1.4009
  594SOL    HW3 2143   5.358   1.327   5.413 -0.1916 -0.9092 -0.1949
  594SOL    MW4 2144   5.281   1.337   5.454 -0.5692 -0.1861 -0.0176
  595SOL     OW 2145   1.973   2.145   2.349 -0.4507 -0.0117 -0.4154
  595SOL    HW2 2146   1.942   2.063   2.311 -1.7070  0.5170 -0.5494
  595SOL    HW3 2147   1.910   2.164   2.419  1.6933 -0.8931  1.9233
  595SOL    MW4 2148   1.961   2.137   2.354 -0.0475  0.0369  0.2030
  596SOL     OW 2149   2.490   3.834   1.047  0.1454  0.6058 -0.1043
  596SOL    HW2 2150   2.396   3.840   1.064  0.6254  0.7800  3.1840
  596SOL    HW3 2151   2.526   3.914   1.086  1.7662  0.0652 -0.4174
  596SOL    MW4 2152   2.483   3.846   1.054  0.1489  0.1892 -0.1124
  597SOL     OW 2153   2.682   6.375   3.928  0.5406 -0.1834  0.3585
  597SOL    HW2 2154   2.600   6.349   3.886  0.9224 -0.7514 -0.0436
  597SOL    HW3 2155   2.689   6.469   3.910  0.4668 -0.3262 -0.4759
  597SOL    MW4 2156   2.672   6.384   3.920 -0.3298  0.5972 -0.0162
  598SOL     OW 2157   4.296   2.740   5.313  0.0976  0.1409 -0.5932
  598SOL    HW2 2158   4.271   2.649   5.327  0.0577  0.3781  1.0627
  598SOL    HW3 2159   4.268   2.785   5.393 -1.5088  1.9724 -2.0872
  598SOL    MW4 2160   4.289   2.734   5.325 -0.2180 -0.7791 -0.2779
  599SOL     OW 2161   5.089   5.772   3.550 -0.0808  0.3712  0.2431
  599SOL    HW2 2162   5.080   5.696   3.606 -0.2182  0.4469  0.3242
  599SOL    HW3 2163   5.014   5.767   3.491 -0.9147  1.2354  1.1928
  599SOL    MW4 2164   5.078   5.762   3.549  0.4346 -0.2255 -0.4380
  600SOL     OW 2165   2.545   2.538   3.818 -0.6416 -0.0139 -0.1155
  600SOL    HW2 2166   2.467   2.483   3.807 -0.5445  0.0089 -0.9340
  600SOL    HW3 2167   2.523   2.595   3.892 -1.6645  0.4492 -0.7584
  600SOL    MW4 2168   2.532   2.538   3.826 -0.0071  0.8640  0.3891
  601SOL     OW 2169   1.400   6.124   0.355  0.6792 -0.3413 -0.1654
  601SOL    HW2 2170   1.410   6.063   0.428  1.5083  1.0132  0.9138
  601SOL    HW3 2171   1.448   6.083   0.283  2.6902 -0.2568  1.0226
  601SOL    MW4 2172   1.408   6.111   0.355  0.0517  0.6478  0.0878
  602SOL     OW 2173   5.277   4.545   1.358 -0.6376 -0.3176 -0.5125
  602SOL    HW2 2174   5.197   4.532   1.306 -0.9503 -0.2648 -0.0492
  602SOL    HW3 2175   5.260   4.501   1.441  0.1372 -1.0150 -0.7107
  602SOL    MW4 2176   5.264   4.538   1.362  0.0910  0.3290 -0.5579
  603SOL     OW 2177   0.115   1.051   5.274 -0.6201  0.1008  0.0465
  603SOL    HW2 2178   0.167   1.100   5.211  0.8128 -1.3608  0.0199
  603SOL    HW3 2179   0.025   1.076   5.256 -0.1374  0.7388 -1.6608
  603SOL    MW4 2180   0.110   1.060   5.263  0.7389 -0.2955 -0.3833
  604SOL     OW 2181   0.997   5.143   3.346 -0.3523 -0.2651 -0.3715
  604SOL    HW2 2182   0.944   5.080   3.298 -1.7789 -0.6738  1.5953
  604SOL    HW3 2183   0.958   5.145   3.433 -0.5016  3.4661 -0.3637
  604SOL    MW4 2184   0.985   5.135   3.351  0.4569 -0.2220  0.1029
  605SOL     OW 2185   0.020   4.966   2.623  0.2634 -0.1931  0.1712
  605SOL    HW2 2186  -0.061   4.971   2.673  0.2962 -2.8554  0.6381
  605SOL    HW3 2187   0.034   4.873   2.608  2.5452  0.2577 -1.0794
  605SOL    MW4 2188   0.011   4.954   2.628 -0.1694 -0.7060  0.5524
  606SOL     OW 2189   0.328   1.590   4.302  0.1827  0.2262 -0.0690
  606SOL    HW2 2190   0.379   1.555   4.229 -1.2481 -0.8540 -0.5893
  606SOL    HW3 2191   0.372   1.672   4.324  0.7676  0.4997 -2.0280
  606SOL    MW4 2192   0.341   1.597   4.295  0.3912  0.1559  0.4119
  607SOL     OW 2193   1.526   0.639   4.569  0.1869 -0.3981 -0.0891
  607SOL    HW2 2194   1.510   0.545   4.576 -2.5216  0.1038  2.1399
  607SOL    HW3 2195   1.621   0.647   4.581  0.4366 -2.7834  0.1579
  607SOL    MW4 2196   1.536   0.627   4.572 -0.6241  0.0051  0.4373
  608SOL     OW 2197   1.566   0.654   0.064 -0.4258 -0.1116  0.4785
  608SOL    HW2 2198   1.579   0.737   0.018 -0.0973 -0.3129  0.2074
  608SOL    HW3 2199   1.609   0.666   0.148  1.4585 -0.7083 -0.3315
  608SOL    MW4 2200   1.573   0.667   0.069 -0.0350 -0.1287  0.1352
  609SOL     OW 2201   0.493   1.063   4.975  0.2099  0.2079  0.3756
  609SOL    HW2 2202   0.587   1.060   4.990  0.3396 -1.5551 -0.5889
  609SOL    HW3 2203   0.466   0.971   4.973 -1.2894  0.6354 -0.7950
  609SOL    MW4 2204   0.502   1.051   4.977 -0.4652 -0.2377  0.2696
  610SOL     OW 2205   3.702   2.691   0.488  0.1590 -0.2364 -0.0595
  610SOL    HW2 2206   3.751   2.631   0.431 -2.0139 -1.1171 -1.0912
  610SOL    HW3 2207   3.759   2.768   0.495  0.1007  0.4379 -4.4348
  610SOL    MW4 2208   3.716   2.693   0.481 -0.4587 -0.3437 -0.9634
  611SOL     OW 2209   0.783   6.340   3.399 -0.1345  0.0229  0.7553
  611SOL    HW2 2210   0.843   6.412   3.420  0.4732 -1.0438  2.9817
  611SOL    HW3 2211   0.812   6.309   3.313 -0.0296  2.0051  0.0230
  611SOL    MW4 2212   0.795   6.346   3.390  0.7693  0.2134 -0.1050
  612SOL     OW 2213   3.920   6.285   5.495 -0.2303 -0.6369  0.8840
  612SOL    HW2 2214   3.992   6.223   5.484  0.7105  0.3569  1.2071
  612SOL    HW3 2215   3.842   6.231   5.498  0.1629 -1.5855 -2.4534
  612SOL    MW4 2216   3.920   6.270   5.494 -0.1936 -0.5488  0.9594
  613SOL     OW 2217   2.686   5.941   4.364  0.2378  0.2815  0.5812
  613SOL    HW2 2218   2.700   5.866   4.306 -0.9578 -0.4533  1.1951
  613SOL    HW3 2219   2.744   5.925   4.439 -0.3926 -0.3358  0.9565
  613SOL    MW4 2220   2.696   5.929   4.366  0.3842 -0.1458 -0.5321
  614SOL     OW 2221   2.933   3.996   3.470 -0.0041 -0.2191  0.0505
  614SOL    HW2 2222   2.930   3.909   3.430 -0.2750 -0.4495  0.5604
  614SOL    HW3 2223   2.849   4.036   3.449 -0.2531 -0.4422  0.6054
  614SOL    MW4 2224   2.922   3.990   3.462  0.1007 -0.0547  0.5848
  615SOL     OW 2225   0.435   5.061   3.016  0.5193  0.8230 -0.4596
  615SOL    HW2 2226   0.416   5.147   2.978  0.4392  1.3739  0.7945
  615SOL    HW3 2227   0.515   5.032   2.971  0.4489  1.4617 -1.0149
  615SOL    MW4 2228   0.443   5.068   3.005  0.0290 -0.6210 -0.1136
  616SOL     OW 2229   0.508   5.050   1.451  0.0257  0.3080 -0.4759
  616SOL    HW2 2230   0.559   4.980   1.492  0.9185  1.2941  0.1508
  616SOL    HW3 2231   0.552   5.065   1.367  0.5584  0.8971 -0.1015
  616SOL    MW4 2232   0.521   5.042   1.445  0.7153  0.3273  0.4357
  617SOL     OW 2233   6.274   3.541   4.681  0.1420 -0.0633  0.3054
  617SOL    HW2 2234   6.253   3.560   4.590  1.3357 -2.3609 -0.5135
  617SOL    HW3 2235   6.307   3.624   4.716  3.6306 -0.0223 -2.5892
  617SOL    MW4 2236   6.275   3.555   4.674  0.0674 -0.6704 -0.2829
  618SOL     OW 2237   0.397   3.468   5.205 -0.1460 -0.4675  0.1184
  618SOL    HW2 2238   0.371   3.425   5.287  0.6125 -0.4738  0.3607
  618SOL    HW3 2239   0.481   3.510   5.225 -0.3697  0.2637 -0.4096
  618SOL    MW4 2240   0.405   3.468   5.219 -0.2704  0.0079  0.4136
  619SOL     OW 2241   6.424   5.872   3.378 -0.0614 -0.7129  0.2791
  619SOL    HW2 2242   6.431   5.968   3.386  0.8537 -0.7746  0.3654
  619SOL    HW3 2243   6.404   5.857   3.285  1.4348 -0.4880 -0.1090
  619SOL    MW4 2244   6.423   5.883   3.367  0.2241  0.1501 -0.0361
  620SOL     OW 2245   2.164   1.574   1.855 -0.5464  0.0243 -0.6741
  620SOL    HW2 2246   2.077   1.581   1.895 -0.0616  0.0835  0.4225
  620SOL    HW3 2247   2.147   1.555   1.763 -1.7189 -0.4407 -0.3851
  620SOL    MW4 2248   2.151   1.572   1.848 -0.5386  0.0013  0.3666
  621SOL     OW 2249   2.008   5.953   2.843  0.1619  0.4409 -0.6088
  621SOL    HW2 2250   1.923   5.963   2.799 -1.3322  3.8984  2.4992
  621SOL    HW3 2251   2.062   6.023   2.806  0.0754  1.1103  0.4968
  621SOL    MW4 2252   2.004   5.964   2.832 -0.3014 -0.1302  0.4819
  622SOL     OW 2253   3.698   4.701   2.822 -0.3841  0.0724  0.1737
  622SOL    HW2 2254   3.630   4.741   2.876 -0.2285 -0.8943  1.1338
  622SOL    HW3 2255   3.750   4.774   2.790 -0.8142  0.7043  0.8897
  622SOL    MW4 2256   3.696   4.716   2.825  0.4200  0.2368  0.0674
  623SOL     OW 2257   0.007   2.167   3.753 -0.3231 -0.2604 -0.6769
  623SOL    HW2 2258   0.086   2.113   3.751  0.8937  1.4096 -0.2220
  623SOL    HW3 2259  -0.009   2.190   3.661  1.4606  1.7173 -0.5583
  623SOL    MW4 2260   0.015   2.163   3.740  0.2635  0.2065 -0.1945
  624SOL     OW 2261   1.920   3.454   1.780 -0.2754 -0.3988  0.2741
  624SOL    HW2 2262   1.941   3.482   1.869  0.8658 -1.4231  0.3489
  624SOL    HW3 2263   1.868   3.526   1.744 -1.6829 -0.4329  2.1164
  624SOL    MW4 2264   1.916   3.467   1.787  0.3479 -0.4050  0.3660
  625SOL     OW 2265   0.766   2.283   3.508  0.3727  0.0346  0.3764
  625SOL    HW2 2266   0.851   2.326   3.498 -0.1297  0.9032 -0.3060
  625SOL    HW3 2267   0.750   2.284   3.603  0.4199  1.2910  0.3905
  625SOL    MW4 2268   0.775   2.289   3.520  0.2104  0.4073  0.1778
  626SOL     OW 2269   3.328   3.901   0.899  0.2723  0.5687 -0.2701
  626SOL    HW2 2270   3.282   3.985   0.902 -0.6213  0.1325 -1.0454
  626SOL    HW3 2271   3.420   3.924   0.886 -0.3110  1.4556 -3.8788
  626SOL    MW4 2272   3.334   3.915   0.897  0.2944 -0.3144  0.2129
  627SOL     OW 2273   2.698   2.329   0.100 -0.0803  0.2713  0.0534
  627SOL    HW2 2274   2.712   2.322   0.194 -0.7663 -0.3474  0.1169
  627SOL    HW3 2275   2.604   2.343   0.090 -0.3200 -1.4573 -0.5946
  627SOL    MW4 2276   2.687   2.330   0.111  0.2139 -0.1853 -0.4283
  628SOL     OW 2277   5.774   0.992   4.789 -0.4948  0.5621  0.3586
  628SOL    HW2 2278   5.775   1.086   4.809  2.3688  1.1207 -1.8110
  628SOL    HW3 2279   5.738   0.987   4.701  1.1297 -0.1318 -0.2944
  628SOL    MW4 2280   5.769   1.004   4.780 -0.8541 -0.0097  0.4257
  629SOL     OW 2281   1.770   2.079   1.341  0.0057 -0.5057 -0.1721
  629SOL    HW2 2282   1.816   2.043   1.266  0.9346  1.2097 -0.4621
  629SOL    HW3 2283   1.802   2.027   1.415  0.3140 -1.1325 -0.7301
  629SOL    MW4 2284   1.780   2.067   1.341  0.0802 -0.2189  0.0840
  630SOL     OW 2285   4.558   3.559   2.240  0.1068 -0.2329  0.7768
  630SOL    HW2 2286   4.512   3.535   2.160  1.4403 -0.5126  0.0764
  630SOL    HW3 2287   4.494   3.610   2.290 -0.6190  0.2755 -0.6224
  630SOL    MW4 2288   4.543   3.563   2.236  0.8597 -0.5273 -0.4088
  631SOL     OW 2289   0.896   1.378   2.300 -0.1249  0.5303 -0.3758
  631SOL    HW2 2290   0.815   1.421   2.271 -1.0496 -0.9019 -0.0425
  631SOL    HW3 2291   0.867   1.315   2.366  1.6057  1.7812  1.7002
  631SOL    MW4 2292   0.881   1.375   2.305  0.3694  0.1297  0.5623
  632SOL     OW 2293   2.390   0.301   0.147  0.1916  0.2987  0.1218
  632SOL    HW2 2294   2.388   0.344   0.061  0.4859 -0.1181 -0.0967
  632SOL    HW3 2295   2.441   0.361   0.202 -1.8627  1.6737  0.6281
  632SOL    MW4 2296   2.397   0.315   0.143  0.2596 -0.5630 -0.1266
  633SOL     OW 2297   2.661   1.788   0.809 -0.7106  0.2499  0.0783
  633SOL    HW2 2298   2.681   1.751   0.723  1.8482  0.9251  0.2993
  633SOL    HW3 2299   2.685   1.719   0.871 -0.1651  0.6647  0.3316
  633SOL    MW4 2300   2.667   1.774   0.806 -0.2151 -0.1720 -0.2800
  634SOL     OW 2301   4.808   2.683   4.102  0.2615 -0.2953 -0.3086
  634SOL    HW2 2302   4.769   2.765   4.071  0.1272  0.2028  1.1324
  634SOL    HW3 2303   4.844   2.643   4.023  0.4109  1.1982 -1.0291
  634SOL    MW4 2304   4.808   2.688   4.087 -0.3357  0.5612 -0.8954
  635SOL     OW 2305   5.139   2.366   2.727 -0.2937  0.1464  0.1831
  635SOL    HW2 2306   5.147   2.392   2.635  0.5374 -2.2327 -0.5020
  635SOL    HW3 2307   5.047   2.380   2.748 -0.5963  0.3392 -1.1570
  635SOL    MW4 2308   5.128   2.371   2.718 -0.4988 -0.2660 -0.7353
  636SOL     OW 2309   0.694   6.267   4.942 -0.3919  0.2054  0.5266
  636SOL    HW2 2310   0.739   6.238   4.863 -0.4760 -0.4110  0.7041
  636SOL    HW3 2311   0.762   6.312   4.992  0.4275 -1.9112  1.4351
  636SOL    MW4 2312   0.709   6.269   4.938  0.0147  0.0667 -0.1618
  637SOL     OW 2313   5.675   3.901   1.500 -0.5043  0.0122  0.1802
  637SOL    HW2 2314   5.646   3.991   1.484  0.6837  0.0195 -2.7127
  637SOL    HW3 2315   5.645   3.853   1.423  2.3384 -1.1006 -0.3581
  637SOL    MW4 2316   5.667   3.907   1.487 -0.8812 -0.2161 -0.2028
  638SOL     OW 2317   3.495   2.198   4.179  0.1620  0.3788 -0.4634
  638SOL    HW2 2318   3.558   2.226   4.246 -0.9051 -1.7997  1.6110
  638SOL    HW3 2319   3.539   2.125   4.135 -0.3694 -0.3421  0.1602
  638SOL    MW4 2320   3.509   2.192   4.182  0.0497 -0.3486  0.1049
  639SOL     OW 2321   0.131   2.002   5.577 -0.2285  0.7142 -0.5456
  639SOL    HW2 2322   0.085   2.050   5.646 -2.0921 -0.3192 -0.9850
  639SOL    HW3 2323   0.224   2.018   5.594 -0.6042  0.5222  2.1961
  639SOL    MW4 2324   0.137   2.010   5.588  0.4186 -0.4324 -0.4701
  640SOL     OW 2325   1.401   4.922   6.191 -0.1057 -0.8765 -0.6195
  640SOL    HW2 2326   1.425   4.872   6.269 -1.1684 -1.2576 -0.5253
  640SOL    HW3 2327   1.371   5.006   6.225  1.8462 -0.0554 -0.7873
  640SOL    MW4 2328   1.401   4.927   6.206  0.2039  0.2737 -0.1366
  641SOL     OW 2329   5.424   1.871   4.959 -0.1828  0.6075  0.1655
  641SOL    HW2 2330   5.366   1.864   4.884  0.8892  0.2197 -0.6552
  641SOL    HW3 2331   5.475   1.950   4.943  0.8399 -0.0877 -0.1075
  641SOL    MW4 2332   5.423   1.880   4.947 -0.0126 -0.1143 -0.2380
  642SOL     OW 2333   6.023   3.291   2.148  0.2685 -0.4620 -0.1920
  642SOL    HW2 2334   6.041   3.217   2.091 -0.4092 -1.1423  0.4594
  642SOL    HW3 2335   6.082   3.360   2.117  0.2091 -0.9449 -1.4323
  642SOL    MW4 2336   6.033   3.290   2.136 -0.1028  0.7329  0.3388
  643SOL     OW 2337   2.859   4.578   2.789  0.1261  0.0282 -0.8314
  643SOL    HW2 2338   2.858   4.521   2.712  0.8224  0.4296 -1.1538
  643SOL    HW3 2339   2.883   4.520   2.861 -1.6622 -0.5903 -0.6876
  643SOL    MW4 2340   2.862   4.563   2.788 -0.0706  0.4197  0.3752
  644SOL     OW 2341   0.755   5.010   2.024 -0.7673  0.5284 -0.2329
  644SOL    HW2 2342   0.754   5.105   2.018  2.0276  0.5789 -1.9283
  644SOL    HW3 2343   0.691   4.980   1.960 -1.1078  1.2871 -0.2454
  644SOL    MW4 2344   0.747   5.018   2.015 -0.0231 -0.0873 -0.3231
  645SOL     OW 2345   5.332   0.984   4.513  0.2067  0.7306 -0.0460
  645SOL    HW2 2346   5.272   1.013   4.581  0.1274  0.1366  0.1461
  645SOL    HW3 2347   5.282   0.991   4.432  0.1719  1.0694  0.0025
  645SOL    MW4 2348   5.318   0.989   4.512 -0.6638  0.3473  1.0281
  646SOL     OW 2349   2.395   3.159   2.429 -0.3963  0.4354  0.0853
  646SOL    HW2 2350   2.410   3.148   2.523  0.9055  1.6549  0.0637
  646SOL    HW3 2351   2.469   3.114   2.388 -1.2272 -0.5262 -0.3975
  646SOL    MW4 2352   2.407   3.152   2.436 -0.1759  0.5399 -0.0500
  647SOL     OW 2353   4.766   4.764   3.628  0.5550  0.0884  0.4302
  647SOL    HW2 2354   4.741   4.841   3.578 -1.7583  0.0635  1.3802
  647SOL    HW3 2355   4.760   4.692   3.566 -1.1566  0.2136  0.3869
  647SOL    MW4 2356   4.762   4.764   3.614  0.4418  0.2323 -0.3101
  648SOL     OW 2357   1.070   4.393   5.617  0.2239  0.4781 -0.1751
  648SOL    HW2 2358   1.088   4.443   5.537 -0.6297 -1.2136 -1.5183
  648SOL    HW3 2359   1.145   4.334   5.626 -0.1433 -0.0281 -0.3382
  648SOL    MW4 2360   1.082   4.392   5.607  0.2902 -0.3197 -0.3473
  649SOL     OW 2361   6.035   4.336   3.326 -0.4939 -0.2384  0.5968
  649SOL    HW2 2362   6.039   4.317   3.420 -1.7525  1.8889  1.1564
  649SOL    HW3 2363   6.088   4.268   3.286  0.2284 -1.1244  2.8641
  649SOL    MW4 2364   6.043   4.325   3.333 -0.4004 -0.1793 -0.2082
  650SOL     OW 2365   0.363   4.228   5.877  0.1816  0.3632  0.4581
  650SOL    HW2 2366   0.299   4.264   5.815  2.9299  0.8198 -2.3725
  650SOL    HW3 2367   0.409   4.305   5.911  1.1712 -0.0589  0.1172
  650SOL    MW4 2368   0.360   4.243   5.873  0.4112 -0.3977  0.4554
  651SOL     OW 2369   4.902   0.499   3.669  0.2203  0.2149 -0.1512
  651SOL    HW2 2370   4.817   0.538   3.692 -0.1403  0.5537 -1.8904
  651SOL    HW3 2371   4.881   0.434   3.603  1.1312 -1.1306  0.8497
  651SOL    MW4 2372   4.888   0.496   3.663  0.0113  0.1026 -0.4212
  652SOL     OW 2373   0.765   0.330   1.257 -0.5556  0.2136 -0.4020
  652SOL    HW2 2374   0.736   0.276   1.331 -2.0255  0.1122 -1.0298
  652SOL    HW3 2375   0.685   0.366   1.221  0.1558  0.3436 -1.9113
  652SOL    MW4 2376   0.751   0.328   1.262  0.0218  0.4683  0.5124
  653SOL     OW 2377   1.010   2.419   1.067 -0.7780 -0.2939 -0.3842
  653SOL    HW2 2378   0.967   2.334   1.071 -0.0574 -0.6188  1.0249
  653SOL    HW3 2379   1.095   2.405   1.107 -0.6794  1.1088 -0.0489
  653SOL    MW4 2380   1.015   2.406   1.073 -0.3217 -0.1354 -0.5160
  654SOL     OW 2381   4.407   5.395   0.994  0.4372 -0.5904 -0.6705
  654SOL    HW2 2382   4.488   5.360   1.031  0.0674 -1.0876 -0.3217
  654SOL    HW3 2383   4.415   5.490   1.004  0.3337 -0.7128  0.6940
  654SOL    MW4 2384   4.419   5.403   1.000  0.4990  0.3702 -0.0726
  655SOL     OW 2385   6.245   6.122   1.123 -0.0573 -0.1594  0.1360
  655SOL    HW2 2386   6.289   6.063   1.062  0.1260 -0.2193  0.3259
  655SOL    HW3 2387   6.164   6.146   1.079  0.7065  0.9113 -0.7467
  655SOL    MW4 2388   6.240   6.117   1.109 -0.0508  0.0921 -0.4198
  656SOL     OW 2389   2.190   6.223   3.116  0.1535  0.3966 -0.2041
  656SOL    HW2 2390   2.234   6.244   3.199 -1.3694  1.8217  0.3238
  656SOL    HW3 2391   2.207   6.131   3.101  1.9353  0.5348  0.7841
  656SOL    MW4 2392   2.198   6.214   3.125 -0.7040  0.0443 -0.3334
  657SOL     OW 2393   5.943   1.027   3.601  0.1051  0.2619 -0.4348
  657SOL    HW2 2394   5.987   1.041   3.517  1.0414  1.5503  0.2296
  657SOL    HW3 2395   5.975   0.943   3.631 -0.2405 -0.2141 -1.3600
  657SOL    MW4 2396   5.953   1.018   3.594 -0.2915  0.2397 -0.4623
  658SOL     OW 2397   5.171   2.792   6.382 -0.3167  0.3794 -0.1042
  658SOL    HW2 2398   5.088   2.808   6.338 -0.4973  1.1733  0.5053
  658SOL    HW3 2399   5.195   2.876   6.421  0.4519  0.0017  0.2743
  658SOL    MW4 2400   5.163   2.805   6.381  0.3653 -0.5467  0.1520
  659SOL     OW 2401   1.504   0.423   1.491 -0.2758 -0.5772 -0.5654
  659SOL    HW2 2402   1.540   0.448   1.406  1.0466 -2.1331 -0.5194
  659SOL    HW3 2403   1.414   0.397   1.472 -0.2242 -0.2082 -1.3566
  659SOL    MW4 2404   1.497   0.423   1.477 -0.2258  0.1667  0.1552
  660SOL     OW 2405   1.443   4.664   3.362  0.3247  0.1918  0.0362
  660SOL    HW2 2406   1.466   4.622   3.279  0.3397  0.1043  0.0847
  660SOL    HW3 2407   1.440   4.593   3.425  2.9923  0.5731  0.7054
  660SOL    MW4 2408   1.446   4.649   3.360  0.4270 -0.9305  0.4615
  661SOL     OW 2409   3.073   0.820   0.857 -0.5930 -0.0623  0.3139
  661SOL    HW2 2410   3.014   0.887   0.823 -0.0852  0.2100 -0.0376
  661SOL    HW3 2411   3.018   0.743   0.869 -0.7402 -0.2572 -1.4025
  661SOL    MW4 2412   3.058   0.819   0.854 -0.1806 -0.1958  0.0954
  662SOL     OW 2413   1.701   5.554   6.016 -0.2070 -0.4462 -0.1331
  662SOL    HW2 2414   1.753   5.479   6.045  0.3170  0.4970  1.4866
  662SOL    HW3 2415   1.765   5.618   5.984 -0.2419  0.8322  2.1296
  662SOL    MW4 2416   1.716   5.553   6.015  0.4933  0.0604 -0.6930
  663SOL     OW 2417   3.186   0.437   3.787  0.1151  0.2101 -0.2368
  663SOL    HW2 2418   3.101   0.406   3.820  0.6654 -0.9999  0.1189
  663SOL    HW3 2419   3.184   0.532   3.799 -1.5033  0.2999 -0.9833
  663SOL    MW4 2420   3.175   0.445   3.793 -0.1825 -0.0578  0.6421
  664SOL     OW 2421   4.370   4.309   6.389 -0.1098  0.2179  0.2039
  664SOL    HW2 2422   4.313   4.234   6.406 -0.1080 -0.1800 -1.3857
  664SOL    HW3 2423   4.364   4.323   6.295  3.0109 -0.3827 -0.2263
  664SOL    MW4 2424   4.362   4.301   6.379 -0.5848  0.1837 -0.0234
  665SOL     OW 2425   0.660   5.239   3.784  0.1814 -0.0717  0.3247
  665SOL    HW2 2426   0.601   5.204   3.718  1.9891 -0.9357 -0.9431
  665SOL    HW3 2427   0.629   5.203   3.867 -0.8595 -0.7389 -0.3421
  665SOL    MW4 2428   0.648   5.230   3.787 -0.1565 -0.3191  0.1272
  666SOL     OW 2429   5.011   6.159   4.239 -0.1279  0.1682 -0.3597
  666SOL    HW2 2430   5.013   6.137   4.333 -3.6216 -0.5842 -0.3256
  666SOL    HW3 2431   5.092   6.122   4.204  0.5943 -0.8157  2.1207
  666SOL    MW4 2432   5.022   6.151   4.247 -0.1123 -0.6183  0.4160
  667SOL     OW 2433   5.578   5.966   2.554 -0.1447  0.2203 -0.1418
  667SOL    HW2 2434   5.623   6.047   2.580 -1.1062  0.3389  1.3041
  667SOL    HW3 2435   5.578   5.912   2.633 -0.6067 -0.6756 -0.7369
  667SOL    MW4 2436   5.584   5.970   2.568  0.0998  0.0895  0.3092
  668SOL     OW 2437   5.477   2.696   1.023  0.1711 -0.1244  0.9387
  668SOL    HW2 2438   5.424   2.635   1.074  0.0370 -1.7150 -0.9744
  668SOL    HW3 2439   5.565   2.659   1.024  0.6207  0.9141  1.6447
  668SOL    MW4 2440   5.482   2.683   1.030 -0.1819  0.6243 -0.0897
  669SOL     OW 2441   1.568   5.016   0.822  0.4274 -0.0791 -0.1799
  669SOL    HW2 2442   1.495   5.045   0.768  1.1623 -0.4658 -1.4278
  669SOL    HW3 2443   1.541   5.035   0.912 -1.1182 -0.0527 -0.6219
  669SOL    MW4 2444   1.555   5.022   0.827  0.0280 -0.5020 -0.2588
  670SOL     OW 2445   2.396   0.141   6.137  0.3315 -0.8242  0.0239
  670SOL    HW2 2446   2.445   0.199   6.078  1.3666 -0.8793  0.8127
  670SOL    HW3 2447   2.332   0.199   6.179  0.2225 -0.5953 -0.4497
  670SOL    MW4 2448   2.394   0.157   6.135  0.2716 -0.5095 -0.4462
  671SOL     OW 2449   1.178   3.197   5.939  0.5099  0.0979 -0.4051
  671SOL    HW2 2450   1.269   3.225   5.929  0.5008 -0.3008 -1.7015
  671SOL    HW3 2451   1.130   3.278   5.957  1.2310  0.1923  1.2640
  671SOL    MW4 2452   1.184   3.211   5.940  1.0062  0.8755 -0.2655
  672SOL     OW 2453   5.438   2.683   4.752  0.1326 -0.1997  0.2889
  672SOL    HW2 2454   5.455   2.636   4.834  0.9954 -0.4392 -0.0224
  672SOL    HW3 2455   5.390   2.619   4.699 -0.8975  0.1347  0.7914
  672SOL    MW4 2456   5.434   2.668   4.756  0.6010 -0.3534  0.7895
  673SOL     OW 2457   5.194   0.967   5.230  0.1400  0.3165 -0.2421
  673SOL    HW2 2458   5.163   0.886   5.189 -0.0622 -1.0114  2.3044
  673SOL    HW3 2459   5.254   0.937   5.299  0.4806  2.3855  0.4233
  673SOL    MW4 2460   5.198   0.952   5.233 -0.4317  0.1322  0.1495
  674SOL     OW 2461   5.079   2.740   0.386  0.2446 -0.1915 -0.2695
  674SOL    HW2 2462   5.122   2.657   0.364 -0.6124 -0.6639 -0.2225
  674SOL    HW3 2463   5.054   2.730   0.478 -2.0299 -0.9002 -0.9070
  674SOL    MW4 2464   5.081   2.728   0.395 -0.2090  0.4181  0.6040
  675SOL     OW 2465   0.324   2.701   6.315  0.7580  0.3095 -0.3973
  675SOL    HW2 2466   0.417   2.684   6.301  0.7292 -1.3102  0.9599
  675SOL    HW3 2467   0.288   2.616   6.342 -1.4793  0.4575 -2.4898
  675SOL    MW4 2468   0.331   2.687   6.317  0.0751  0.4824 -0.0443
  676SOL     OW 2469   4.849   0.950   5.058 -0.6316 -0.1862  0.4024
  676SOL    HW2 2470   4.865   1.039   5.090  2.1882 -0.9973  1.6160
  676SOL    HW3 2471   4.771   0.921   5.105 -0.3859  0.9507  1.5752
  676SOL    MW4 2472   4.841   0.958   5.068  0.0637  0.1353  0.3168
  677SOL     OW 2473   1.956   5.035   3.852  0.4479 -0.2896  0.1390
  677SOL    HW2 2474   1.907   5.116   3.868 -0.4847 -0.9429  0.7159
  677SOL    HW3 2475   1.944   4.983   3.932  0.8840 -1.0678 -0.2828
  677SOL    MW4 2476   1.948   5.039   3.864  0.4952 -0.4283 -0.1544
  678SOL     OW 2477   6.167   0.200   2.379  0.0456 -0.3964 -0.1038
  678SOL    HW2 2478   6.089   0.216   2.327  1.3215  2.2467 -1.3463
  678SOL    HW3 2479   6.169   0.272   2.442  0.1309 -1.9005  1.6942
  678SOL    MW4 2480   6.157   0.211   2.381 -0.0459  0.0936  0.7290
  679SOL     OW 2481   4.002   3.672   5.843 -0.0415  0.5176 -0.2525
  679SOL    HW2 2482   4.090   3.656   5.876 -1.0380 -1.1253  1.8192
  679SOL    HW3 2483   3.949   3.600   5.877 -2.5979  2.4665  0.2409
  679SOL    MW4 2484   4.007   3.661   5.852  0.3233 -0.1299  0.1162
  680SOL     OW 2485   5.543   6.379   1.394  0.0064 -0.3345  0.1490
  680SOL    HW2 2486   5.627   6.407   1.431 -0.2008 -0.7649  0.9709
  680SOL    HW3 2487   5.480   6.444   1.424  0.0596  0.0851 -0.6104
  680SOL    MW4 2488   5.546   6.391   1.402  0.5531 -0.0372 -0.0356
  681SOL     OW 2489   1.555   4.590   3.127  0.2992  0.0885 -0.2430
  681SOL    HW2 2490   1.484   4.526   3.121  0.1036  0.1518  1.0867
  681SOL    HW3 2491   1.621   4.549   3.182 -0.2901  1.3980  1.5312
  681SOL    MW4 2492   1.554   4.576   3.133  0.4621 -0.3236  0.3615
  682SOL     OW 2493   3.710   6.116   5.501 -0.2290  0.3752  0.2972
  682SOL    HW2 2494   3.709   6.024   5.476 -0.1833  0.3033  0.5487
  682SOL    HW3 2495   3.648   6.121   5.574  0.1994  0.4244  0.6687
  682SOL    MW4 2496   3.702   6.104   5.507  0.2056  0.3538  0.1990
  683SOL     OW 2497   3.212   2.873   2.447 -0.2401 -0.1103 -0.0591
  683SOL    HW2 2498   3.260   2.866   2.530  0.7307 -0.8838 -0.6768
  683SOL    HW3 2499   3.261   2.938   2.396 -0.6889  0.1717 -0.1394
  683SOL    MW4 2500   3.225   2.881   2.452  0.5280 -0.7799 -0.4986
  684SOL     OW 2501   2.777   5.855   0.278 -0.1083  0.1449  0.5193
  684SOL    HW2 2502   2.726   5.855   0.360  0.0381  0.7993  0.6124
  684SOL    HW3 2503   2.835   5.930   0.286  1.0460 -0.7199  0.5060
  684SOL    MW4 2504   2.778   5.865   0.290  0.1280  0.2974 -0.0742
  685SOL     OW 2505   1.514   1.704   1.142  0.4400  0.0008  0.1217
  685SOL    HW2 2506   1.469   1.783   1.110 -1.8386 -0.7771  1.2082
  685SOL    HW3 2507   1.583   1.689   1.078 -2.9957 -0.7145 -3.9003
  685SOL    MW4 2508   1.517   1.712   1.129  0.3621  0.3467 -0.0109
  686SOL     OW 2509   0.539   6.162   4.560  0.0395 -0.2153  0.4081
  686SOL    HW2 2510   0.611   6.187   4.617 -0.8264  2.0638  0.6033
  686SOL    HW3 2511   0.564   6.193   4.473  0.1487 -1.2423  0.0515
  686SOL    MW4 2512   0.552   6.169   4.556 -0.0301  0.3520  0.0096
  687SOL     OW 2513   0.090   4.913   4.116  0.4472  0.5461  0.1984
  687SOL    HW2 2514   0.160   4.853   4.091 -0.6685 -1.9060  2.3893
  687SOL    HW3 2515   0.123   4.959   4.193  0.0132 -0.0062  0.7316
  687SOL    MW4 2516   0.103   4.911   4.123 -0.3432 -0.0574  0.6204
  688SOL     OW 2517   0.246   1.582   3.190  0.2408 -0.6799 -0.2070
  688SOL    HW2 2518   0.249   1.597   3.096 -0.4440  0.3021 -0.0908
  688SOL    HW3 2519   0.323   1.528   3.208  1.3515  0.5255 -1.0934
  688SOL    MW4 2520   0.257   1.577   3.180 -0.0818  0.5098 -0.0306
  689SOL     OW 2521   5.413   2.447   3.490  0.7361  0.2691  0.3044
  689SOL    HW2 2522   5.345   2.430   3.556 -0.7382  0.1811 -1.1561
  689SOL    HW3 2523   5.413   2.368   3.435  1.6606  0.4856 -0.0159
  689SOL    MW4 2524   5.404   2.434   3.491  0.0279  0.2908  0.0398
  690SOL     OW 2525   1.644   2.763   6.304 -0.4464  0.4268 -0.4267
  690SOL    HW2 2526   1.676   2.771   6.214  1.5287  0.1082  0.2081
  690SOL    HW3 2527   1.586   2.838   6.316  0.9488  1.6954 -1.2963
  690SOL    MW4 2528   1.641   2.774   6.294 -0.3822  0.2164  0.3634
  691SOL     OW 2529   4.682   3.435   6.363 -0.7812 -0.3368  0.0463
  691SOL    HW2 2530   4.637   3.372   6.307 -2.2692  0.5429  0.2060
  691SOL    HW3 2531   4.732   3.490   6.302 -1.1067 -0.3886 -0.2669
  691SOL    MW4 2532   4.683   3.434   6.347  1.2032 -0.1664 -0.0654
  692SOL     OW 2533   0.912   2.309   4.153 -0.2561 -0.9647  0.2223
  692SOL    HW2 2534   0.884   2.399   4.142 -1.6742 -1.3774  0.3453
  692SOL    HW3 2535   0.920   2.298   4.248  1.8375 -0.4339  0.1649
  692SOL    MW4 2536   0.910   2.319   4.164 -0.0407  0.8500  0.1686
  693SOL     OW 2537   1.690   3.854   1.328  0.2116 -0.3673  0.2357
  693SOL    HW2 2538   1.646   3.769   1.318 -0.4531  0.0474 -0.5420
  693SOL    HW3 2539   1.748   3.842   1.402 -1.6347 -0.7846  1.7030
  693SOL    MW4 2540   1.692   3.841   1.336  0.1241  0.2327 -0.4523
  694SOL     OW 2541   0.588   5.113   0.813  0.2732  0.2391 -0.1551
  694SOL    HW2 2542   0.621   5.198   0.843 -0.2728  0.4881 -0.2413
  694SOL    HW3 2543   0.501   5.133   0.778 -0.1213 -0.4622  0.4171
  694SOL    MW4 2544   0.581   5.127   0.812 -0.0807  0.5286  0.0706
  695SOL     OW 2545   2.416   0.582   3.643  0.6704  0.3014 -0.0682
  695SOL    HW2 2546   2.321   0.583   3.654  0.6398 -0.9575 -0.1679
  695SOL    HW3 2547   2.449   0.635   3.715 -0.1097  0.9096 -0.1449
  695SOL    MW4 2548   2.408   0.589   3.654  0.9082 -0.4656 -0.3118
  696SOL     OW 2549   6.165   5.412   4.267  0.2506  0.2149 -0.4455
  696SOL    HW2 2550   6.129   5.367   4.343  0.8081  0.8395  0.2033
  696SOL    HW3 2551   6.153   5.351   4.195 -1.2131  0.0212 -0.0606
  696SOL    MW4 2552   6.159   5.398   4.268  0.1528 -0.0936 -0.5885
  697SOL     OW 2553   2.807   2.703   4.369 -0.4185  0.3614 -0.1492
  697SOL    HW2 2554   2.806   2.776   4.431 -0.6714  0.0722  0.1920
  697SOL    HW3 2555   2.900   2.685   4.355 -0.3583  0.5949 -0.0444
  697SOL    MW4 2556   2.819   2.710   4.376  0.1202 -0.4260  0.1042
  698SOL     OW 2557   0.941   6.025   3.357 -0.3864  0.7807 -0.5026
  698SOL    HW2 2558   0.888   6.073   3.293 -1.0689  0.3676 -0.2513
  698SOL    HW3 2559   1.015   5.992   3.307 -0.2225  1.5766 -0.8048
  698SOL    MW4 2560   0.944   6.027   3.342  0.3675  0.2635  0.3172
  699SOL     OW 2561   2.267   2.412   1.219 -0.3908 -0.4130 -0.2237
  699SOL    HW2 2562   2.234   2.405   1.309 -0.3124  2.2477  0.1094
  699SOL    HW3 2563   2.219   2.486   1.182  2.5591  1.3341 -0.8877
  699SOL    MW4 2564   2.257   2.421   1.226  0.2149 -0.4828 -0.0257
  700SOL     OW 2565   3.174   4.942   2.219  0.0317 -0.2584 -0.1585
  700SOL    HW2 2566   3.211   4.856   2.241 -1.7596 -1.0898 -0.1987
  700SOL    HW3 2567   3.218   5.003   2.278  1.1206 -1.2451  0.0879
  700SOL    MW4 2568   3.185   4.939   2.230  0.0165  0.3769 -0.3028
  701SOL     OW 2569   0.028   5.582   0.696  0.4697 -0.5960  0.0807
  701SOL    HW2 2570  -0.017   5.549   0.618  1.2943  0.4548 -0.8600
  701SOL    HW3 2571   0.073   5.505   0.732 -1.3121 -1.4843  0.5638
  701SOL    MW4 2572   0.028   5.567   0.691  0.5629  0.2107  0.5822
  702SOL     OW 2573   4.888   6.189   4.510  0.3698  0.0203 -0.0472
  702SOL    HW2 2574   4.863   6.102   4.480  1.6076  0.2493 -1.9502
  702SOL    HW3 2575   4.957   6.173   4.575  2.4604 -0.4815 -2.2268
  702SOL    MW4 2576   4.894   6.175   4.515  0.4757 -0.1221 -0.2941
  703SOL     OW 2577   2.470   4.611   3.987 -0.0937  0.1105  0.2115
  703SOL    HW2 2578   2.452   4.703   3.968  1.2490  0.7764  1.8798
  703SOL    HW3 2579   2.384   4.571   3.993 -0.7031  1.2032 -0.7121
  703SOL    MW4 2580   2.456   4.618   3.985  0.1871  0.2265 -0.0988
  704SOL     OW 2581   1.396   3.091   5.618 -0.2317  0.2889 -0.1241
  704SOL    HW2 2582   1.360   3.170   5.577 -1.2498 -0.5952 -0.9747
  704SOL    HW3 2583   1.336   3.021   5.592 -0.0425 -0.5697  1.6385
  704SOL    MW4 2584   1.383   3.092   5.609  0.1455 -0.0217 -0.8162
  705SOL     OW 2585   6.199   3.917   5.521 -0.3394 -0.0861 -0.2304
  705SOL    HW2 2586   6.209   3.831   5.482  2.0090 -0.3506  0.7777
  705SOL    HW3 2587   6.235   3.977   5.455  1.9660 -0.3611  0.6769
  705SOL    MW4 2588   6.205   3.914   5.507 -0.0375 -0.4254  0.6016
  706SOL     OW 2589   5.839   2.855   0.412 -0.8846  0.0202 -0.2704
  706SOL    HW2 2590   5.815   2.894   0.328 -1.8984  0.2758  0.1190
  706SOL    HW3 2591   5.899   2.785   0.389 -1.2525 -0.0036 -1.2285
  706SOL    MW4 2592   5.844   2.851   0.398 -0.8980  0.5352  0.1086
  707SOL     OW 2593   4.407   2.266   2.532 -0.9616  0.9597  0.0958
  707SOL    HW2 2594   4.404   2.178   2.568  0.1255  0.5310 -0.8118
  707SOL    HW3 2595   4.385   2.323   2.606  0.6125  0.0752  1.3075
  707SOL    MW4 2596   4.404   2.262   2.547 -0.8627  0.8104 -0.0477
  708SOL     OW 2597   3.266   2.862   5.005 -0.5904 -0.3923  0.1138
  708SOL    HW2 2598   3.264   2.957   4.992 -1.7277 -0.2890  0.9454
  708SOL    HW3 2599   3.336   2.849   5.069 -0.5890 -0.0890  0.1767
  708SOL    MW4 2600   3.275   2.873   5.012 -0.2721 -0.4784  0.4407
  709SOL     OW 2601   1.290   4.094   0.581 -0.5022  0.2193  0.1892
  709SOL    HW2 2602   1.370   4.146   0.586 -0.3626 -0.0404  0.7318
  709SOL    HW3 2603   1.240   4.134   0.510 -0.0392  0.5886  0.0638
  709SOL    MW4 2604   1.294   4.106   0.572 -0.1905  0.2369  0.0023
  710SOL     OW 2605   6.208   1.354   3.452 -0.1424  0.7602  0.3880
  710SOL    HW2 2606   6.289   1.375   3.500 -0.2043 -0.8845  1.2920
  710SOL    HW3 2607   6.209   1.258   3.446 -3.0615  0.4931  2.3501
  710SOL    MW4 2608   6.219   1.344   3.458  0.3522 -0.3135 -0.2675
  711SOL     OW 2609   5.592   0.367   0.595 -0.0842 -0.4718  0.2474
  711SOL    HW2 2610   5.511   0.360   0.646 -0.6111 -0.3369 -0.5394
  711SOL    HW3 2611   5.646   0.294   0.625 -0.8482 -1.0840  0.1874
  711SOL    MW4 2612   5.588   0.357   0.606  0.8892 -0.0766  0.3382
  712SOL     OW 2613   5.186   0.026   2.258  0.3682 -0.2339  0.1009
  712SOL    HW2 2614   5.128   0.028   2.335 -0.2451 -0.1443 -0.3568
  712SOL    HW3 2615   5.213   0.117   2.246  0.8022 -0.3096  0.4520
  712SOL    MW4 2616   5.182   0.039   2.267 -0.5885  0.0300 -1.1264
  713SOL     OW 2617   6.160   0.851   3.981 -0.8379 -0.2864  1.0735
  713SOL    HW2 2618   6.247   0.869   3.944 -1.3599  1.8420  0.7647
  713SOL    HW3 2619   6.176   0.787   4.050  0.8466 -0.6008  0.4400
  713SOL    MW4 2620   6.174   0.845   3.985  0.3730  0.0617  0.1174
  714SOL     OW 2621   3.709   3.817   5.287 -0.1968  0.0435 -0.1960
  714SOL    HW2 2622   3.675   3.828   5.198  1.6470 -0.7309 -1.0671
  714SOL    HW3 2623   3.717   3.722   5.297 -0.3776  0.1290  0.7931
  714SOL    MW4 2624   3.706   3.806   5.277  0.3775 -0.0320  0.0665
  715SOL     OW 2625   0.015   1.220   4.114  0.1166 -1.1381  0.0082
  715SOL    HW2 2626   0.048   1.201   4.202 -1.7694 -0.6221  0.8643
  715SOL    HW3 2627  -0.073   1.183   4.113  0.6258 -2.5024 -2.2245
  715SOL    MW4 2628   0.008   1.212   4.125  0.5594 -0.4280  0.0726
  716SOL     OW 2629   6.133   2.807   3.881  0.2787 -0.0183 -0.2418
  716SOL    HW2 2630   6.074   2.734   3.860  0.1206  0.0854 -0.1563
  716SOL    HW3 2631   6.076   2.875   3.917  0.2563  0.6043 -1.4178
  716SOL    MW4 2632   6.118   2.806   3.883  0.6420  0.0369 -0.2857
  717SOL     OW 2633   3.963   4.983   4.828  0.2901  0.0434 -0.0374
  717SOL    HW2 2634   3.895   4.931   4.785  0.7256 -0.5370 -0.0402
  717SOL    HW3 2635   4.027   5.000   4.758  0.3557  0.2225  0.0666
  717SOL    MW4 2636   3.963   4.978   4.813 -0.1934 -0.4139 -0.0553
  718SOL     OW 2637   2.185   3.206   5.838  0.2636 -0.3497 -0.3781
  718SOL    HW2 2638   2.249   3.241   5.776  1.1424 -2.4864 -0.7674
  718SOL    HW3 2639   2.237   3.151   5.897 -0.9117 -0.2635  0.7820
  718SOL    MW4 2640   2.200   3.204   5.838 -0.3291  0.3774 -0.6277
  719SOL     OW 2641   5.266   2.327   0.743  0.1814 -0.2506  0.0889
  719SOL    HW2 2642   5.309   2.325   0.829 -1.4793  0.4342  0.9760
  719SOL    HW3 2643   5.176   2.301   0.761 -0.0162 -0.8655 -1.5973
  719SOL    MW4 2644   5.260   2.323   0.757  0.0349  0.0591  0.6560
  720SOL     OW 2645   3.662   0.022   4.895  0.5303 -0.1021 -0.1323
  720SOL    HW2 2646   3.741  -0.002   4.942  0.8112  1.0399  0.0003
  720SOL    HW3 2647   3.689   0.025   4.803  1.0795  1.8464  0.0504
  720SOL    MW4 2648   3.676   0.019   4.889  0.2788 -0.0801 -0.4758
  721SOL     OW 2649   1.924   2.728   2.434 -0.1875 -0.6805 -0.3614
  721SOL    HW2 2650   1.982   2.766   2.368 -0.4163  0.3043 -0.0030
  721SOL    HW3 2651   1.974   2.733   2.515 -1.2187  1.3907  0.2138
  721SOL    MW4 2652   1.938   2.734   2.436 -0.0848  0.1418  0.3899
  722SOL     OW 2653   3.395   1.342   4.616 -0.5306 -0.4459  0.2679
  722SOL    HW2 2654   3.365   1.252   4.598  0.9911 -1.3373  1.8840
  722SOL    HW3 2655   3.338   1.371   4.688 -0.9335 -0.1511 -0.1648
  722SOL    MW4 2656   3.383   1.334   4.623 -0.1434  0.6463 -0.2904
  723SOL     OW 2657   2.208   5.942   1.769 -0.2158 -0.0976 -0.3031
  723SOL    HW2 2658   2.156   6.012   1.730  0.4376  0.3692 -0.3431
  723SOL    HW3 2659   2.263   5.985   1.833  1.2453 -0.3471 -1.3461
  723SOL    MW4 2660   2.208   5.957   1.772 -0.2091 -0.2912  0.0612
  724SOL     OW 2661   3.932   5.989   1.806 -0.0436 -0.3941 -0.7729
  724SOL    HW2 2662   4.015   6.032   1.787  0.6087 -1.7682 -1.1100
  724SOL    HW3 2663   3.867   6.044   1.761  0.4401  1.5895  0.7790
  724SOL    MW4 2664   3.934   6.002   1.797 -0.5341  0.5137  0.1364
  725SOL     OW 2665   1.207   1.272   0.240 -0.4050  0.2074 -0.3987
  725SOL    HW2 2666   1.257   1.239   0.314  2.1729  1.5817 -1.3676
  725SOL    HW3 2667   1.274   1.289   0.172 -2.2271  1.9414 -1.8896
  725SOL    MW4 2668   1.223   1.270   0.240 -0.4261 -0.2640 -0.0175
  726SOL     OW 2669   3.731   4.149   0.575  0.5014  0.2578 -0.3263
  726SOL    HW2 2670   3.736   4.084   0.504  0.5861 -1.0649  0.8458
  726SOL    HW3 2671   3.811   4.135   0.625 -0.3515 -0.0006  1.0031
  726SOL    MW4 2672   3.742   4.138   0.572 -0.1399  0.4096 -0.2139
  727SOL     OW 2673   1.828   0.291   5.714 -0.1697 -0.5663 -1.0163
  727SOL    HW2 2674   1.837   0.354   5.643 -0.2224 -0.3300 -0.8155
  727SOL    HW3 2675   1.888   0.220   5.691  0.6185  0.0067 -0.7575
  727SOL    MW4 2676   1.837   0.290   5.702  0.4925 -0.0408 -0.4897
  728SOL     OW 2677   0.650   5.512   2.430 -0.0238 -0.0716 -0.3683
  728SOL    HW2 2678   0.651   5.421   2.399 -0.3503 -0.3681  0.4475
  728SOL    HW3 2679   0.559   5.529   2.452  0.4452 -0.6206  2.4251
  728SOL    MW4 2680   0.638   5.502   2.429  0.6067  0.6307  0.3219
  729SOL     OW 2681   2.222   1.303   4.907  0.3424 -0.2141 -0.5378
  729SOL    HW2 2682   2.285   1.248   4.860  0.8912 -1.6687  1.7428
  729SOL    HW3 2683   2.188   1.247   4.977 -2.3465  1.0229 -0.7028
  729SOL    MW4 2684   2.226   1.288   4.910 -0.4366  0.0475  0.0019
  730SOL     OW 2685   0.273   6.257   0.451 -0.0852  0.0303  0.1195
  730SOL    HW2 2686   0.301   6.186   0.509  0.8898  0.7704  0.5765
  730SOL    HW3 2687   0.354   6.302   0.427 -0.4507 -0.2847 -1.8861
  730SOL    MW4 2688   0.287   6.254   0.455 -0.9961  0.2325 -0.1428
  731SOL     OW 2689   1.905   5.533   2.036 -0.3104  0.0758 -0.2604
  731SOL    HW2 2690   1.980   5.578   1.997  0.3312 -1.1565 -0.4977
  731SOL    HW3 2691   1.851   5.508   1.961 -1.4746  1.7976 -0.0354
  731SOL    MW4 2692   1.908   5.535   2.021 -0.0938 -0.1356 -0.0329
  732SOL     OW 2693   6.319   4.309   1.602 -0.3113  0.5017  0.1322
  732SOL    HW2 2694   6.363   4.293   1.518  0.7167 -0.5824  0.8665
  732SOL    HW3 2695   6.385   4.290   1.668 -2.2317 -2.6307  1.3368
  732SOL    MW4 2696   6.333   4.304   1.599  0.4386  0.0564 -0.9455
  733SOL     OW 2697   4.677   3.937   6.409 -0.3828  0.3116  0.0065
  733SOL    HW2 2698   4.627   3.966   6.333  0.4392 -0.6317 -0.9158
  733SOL    HW3 2699   4.635   3.856   6.436 -0.0512  0.1161 -0.0659
  733SOL    MW4 2700   4.665   3.930   6.403  0.0600  0.2972 -0.4446
  734SOL     OW 2701   4.538   6.402   1.606 -0.1301  0.5902 -0.2517
  734SOL    HW2 2702   4.518   6.389   1.698 -1.4618 -0.2719 -0.6266
  734SOL    HW3 2703   4.517   6.494   1.590  0.3458  0.8088  0.3512
  734SOL    MW4 2704   4.532   6.413   1.616 -0.2444 -0.1387 -0.2474
  735SOL     OW 2705   4.348   5.032   0.994 -0.2293 -0.2308 -0.1231
  735SOL    HW2 2706   4.343   5.042   0.899  0.1533  0.5841 -0.0631
  735SOL    HW3 2707   4.268   5.072   1.027 -1.6581 -2.8180 -0.2372
  735SOL    MW4 2708   4.337   5.039   0.986  0.4236 -0.1676  0.0370
  736SOL     OW 2709   6.014   0.376   1.340  0.1113 -0.4243 -0.1703
  736SOL    HW2 2710   6.023   0.323   1.261  1.0420 -0.7536  0.1461
  736SOL    HW3 2711   5.920   0.388   1.350 -0.2875 -3.3561  0.6218
  736SOL    MW4 2712   6.003   0.371   1.331  0.2376  0.2193 -0.5159
  737SOL     OW 2713   4.439   3.267   3.668  0.3668 -0.4553  0.3906
  737SOL    HW2 2714   4.355   3.233   3.638  0.2318  1.1697 -1.2358
  737SOL    HW3 2715   4.421   3.306   3.753 -1.2398  2.2841 -1.0711
  737SOL    MW4 2716   4.426   3.268   3.675 -0.0880 -0.2350 -0.5981
  738SOL     OW 2717   0.394   0.658   0.469  0.1266  0.3960 -0.1331
  738SOL    HW2 2718   0.320   0.707   0.436 -0.0426 -0.0918 -0.4852
  738SOL    HW3 2719   0.470   0.712   0.448  0.3074 -0.9720 -3.6115
  738SOL    MW4 2720   0.395   0.671   0.462 -0.1247 -0.0256 -0.0064
  739SOL     OW 2721   1.694   0.860   6.351  0.1160  0.4943  0.1802
  739SOL    HW2 2722   1.689   0.948   6.315  0.7290  0.2898 -0.4356
  739SOL    HW3 2723   1.688   0.803   6.274 -0.3464 -0.0076  0.5789
  739SOL    MW4 2724   1.692   0.864   6.336 -0.4827  0.4813 -1.3035
  740SOL     OW 2725   4.792   4.941   5.669 -0.7996  0.7589  0.4651
  740SOL    HW2 2726   4.699   4.935   5.688 -1.1667  1.2634 -1.0559
  740SOL    HW3 2727   4.834   4.883   5.733 -2.4272 -2.1461 -0.9153
  740SOL    MW4 2728   4.785   4.933   5.680  0.6385  0.1095 -0.1872
  741SOL     OW 2729   1.715   2.625   0.280 -0.0823 -0.5770  0.0558
  741SOL    HW2 2730   1.786   2.655   0.337  0.1637 -3.0439  1.1836
  741SOL    HW3 2731   1.757   2.611   0.195  0.5801 -0.9653  0.4300
  741SOL    MW4 2732   1.730   2.627   0.276 -0.1741  0.4714 -0.2757
  742SOL     OW 2733   1.672   4.763   4.308  0.1602  0.1553  1.0230
  742SOL    HW2 2734   1.711   4.784   4.223  1.0357 -0.9531  1.1361
  742SOL    HW3 2735   1.699   4.836   4.365 -1.0415  1.2840  0.1993
  742SOL    MW4 2736   1.681   4.776   4.305 -0.4153  0.2726 -0.0896
  743SOL     OW 2737   6.210   1.894   0.438  0.3377  0.4838 -0.0213
  743SOL    HW2 2738   6.184   1.804   0.421  0.6353  0.1789  1.0521
  743SOL    HW3 2739   6.146   1.926   0.502 -0.5687  1.4905 -1.3732
  743SOL    MW4 2740   6.198   1.886   0.444 -0.2979 -0.0855  0.2880
  744SOL     OW 2741   0.434   3.713   1.263  0.3976 -0.1168  0.4775
  744SOL    HW2 2742   0.370   3.646   1.241 -0.0501  0.6442 -0.6138
  744SOL    HW3 2743   0.429   3.720   1.358 -2.2754  0.9832  0.3433
  744SOL    MW4 2744   0.425   3.705   1.273  1.1927 -0.6446 -0.0618
  745SOL     OW 2745   6.368   1.605   0.687  0.9683 -0.0090  0.1502
  745SOL    HW2 2746   6.387   1.698   0.677 -1.3706  0.5280  0.1919
  745SOL    HW3 2747   6.334   1.597   0.776  0.1411 -0.7094 -0.2169
  745SOL    MW4 2748   6.366   1.616   0.698 -0.3479  0.3643 -0.0263
  746SOL     OW 2749   4.045   1.548   3.089  0.2280 -0.4093  0.1227
  746SOL    HW2 2750   4.135   1.519   3.105  0.4227  0.4069  0.5479
  746SOL    HW3 2751   4.042   1.636   3.125 -0.6394 -0.2864 -0.2441
  746SOL    MW4 2752   4.057   1.556   3.096 -0.6932  0.4944 -0.4474
  747SOL     OW 2753   4.704   5.436   5.768  0.4376  0.1570  0.1956
  747SOL    HW2 2754   4.778   5.402   5.819 -0.5022 -0.5942  1.1249
  747SOL    HW3 2755   4.655   5.489   5.830  0.2812  0.7787 -0.4560
  747SOL    MW4 2756   4.707   5.438   5.783  0.5370 -0.0588 -0.2012
  748SOL     OW 2757   1.202   3.546   2.485 -0.4387 -0.0569 -0.2795
  748SOL    HW2 2758   1.242   3.632   2.487 -0.3129 -0.1233  0.0366
  748SOL    HW3 2759   1.240   3.499   2.559 -0.7337 -0.2834 -0.2688
  748SOL    MW4 2760   1.213   3.551   2.495  0.6372  0.2344 -0.1803
  749SOL     OW 2761   1.194   1.152   5.194 -0.2989  0.0867  0.3649
  749SOL    HW2 2762   1.116   1.170   5.142  0.0997  0.5710 -0.0759
  749SOL    HW3 2763   1.166   1.087   5.258 -0.5713 -1.2666 -1.0763
  749SOL    MW4 2764   1.180   1.146   5.195 -0.7340 -0.3604  0.1313
  750SOL     OW 2765   3.869   4.176   0.899  0.4442  0.1730 -0.3442
  750SOL    HW2 2766   3.850   4.179   0.993 -2.4448  1.0511 -0.8658
  750SOL    HW3 2767   3.964   4.183   0.894  0.5500  5.5236  2.4136
  750SOL    MW4 2768   3.879   4.177   0.911  0.2291  0.0834 -0.3819
  751SOL     OW 2769   3.313   1.015   3.536  0.5350  0.2233 -0.8878
  751SOL    HW2 2770   3.304   1.108   3.517  1.3166  0.5138  0.1025
  751SOL    HW3 2771   3.289   1.006   3.628  1.8464 -0.3031 -0.5741
  751SOL    MW4 2772   3.309   1.026   3.545  0.5757 -0.2237 -0.1190
  752SOL     OW 2773   6.066   1.711   6.093  0.0011  0.0324  0.4982
  752SOL    HW2 2774   6.047   1.622   6.126 -0.0352 -0.3882 -0.6151
  752SOL    HW3 2775   6.153   1.731   6.127  0.4255 -0.8343 -0.0498
  752SOL    MW4 2776   6.075   1.702   6.102 -0.0561 -0.7794 -0.1255
  753SOL     OW 2777   5.388   1.406   2.629  0.2290  0.1702 -0.0698
  753SOL    HW2 2778   5.367   1.449   2.713 -0.9677  1.5466 -1.0191
  753SOL    HW3 2779   5.348   1.320   2.636 -2.0275  1.1565 -0.1233
  753SOL    MW4 2780   5.380   1.400   2.641  0.3624 -0.6739  0.2607
  754SOL     OW 2781   6.224   0.657   4.205 -0.3929  0.5371 -0.4903
  754SOL    HW2 2782   6.229   0.562   4.220  1.3760  0.6695 -0.1439
  754SOL    HW3 2783   6.208   0.695   4.291  2.2845  0.7584 -0.0262
  754SOL    MW4 2784   6.222   0.649   4.218 -0.4691  0.1237 -0.0019
  755SOL     OW 2785   3.481   2.320   2.602 -0.7318 -0.3914 -0.3207
  755SOL    HW2 2786   3.515   2.231   2.615  0.8301  0.0800 -0.9640
  755SOL    HW3 2787   3.450   2.347   2.688 -1.2404 -1.5493 -0.1185
  755SOL    MW4 2788   3.481   2.312   2.615 -0.0346  0.4040  0.1409
  756SOL     OW 2789   3.384   4.199   6.179 -0.0154  0.3951  0.3617
  756SOL    HW2 2790   3.459   4.206   6.121 -0.1845  0.1500  0.1072
  756SOL    HW3 2791   3.371   4.287   6.214  0.4648  0.4095  0.5020
  756SOL    MW4 2792   3.392   4.211   6.176 -0.3343  0.0666 -0.5297
  757SOL     OW 2793   5.604   3.693   0.318 -0.2498  0.3010 -0.2081
  757SOL    HW2 2794   5.610   3.768   0.259 -0.2918  0.4066 -0.0797
  757SOL    HW3 2795   5.518   3.656   0.302 -0.2641  0.3350 -0.2089
  757SOL    MW4 2796   5.593   3.698   0.308  0.5633 -0.3340 -0.0427
  758SOL     OW 2797   6.028   5.177   2.926  0.3113  0.7160 -0.0895
  758SOL    HW2 2798   6.071   5.133   2.999 -2.3741 -1.0750  0.5669
  758SOL    HW3 2799   6.097   5.190   2.861  1.7470 -2.7214  0.5324
  758SOL    MW4 2800   6.043   5.173   2.927 -0.6199  0.2108  0.0576
  759SOL     OW 2801   5.815   6.121   3.748 -0.0308 -0.0279  0.0768
  759SOL    HW2 2802   5.754   6.187   3.782  0.0117  0.9949 -1.7444
  759SOL    HW3 2803   5.878   6.108   3.819 -1.2405  0.3121  1.2542
  759SOL    MW4 2804   5.816   6.128   3.762  0.0561 -0.2350 -0.2131
  760SOL     OW 2805   2.365   4.771   3.059  0.3095 -0.1234 -0.0344
  760SOL    HW2 2806   2.363   4.814   2.973 -0.1246 -0.2691 -0.0985
  760SOL    HW3 2807   2.399   4.838   3.119 -0.6580  0.4119 -0.0749
  760SOL    MW4 2808   2.370   4.785   3.055 -0.3551 -0.5333 -0.5059
  761SOL     OW 2809   5.426   4.398   3.510 -0.6305 -0.0700 -0.2795
  761SOL    HW2 2810   5.426   4.310   3.546  1.4489  0.4213  1.1412
  761SOL    HW3 2811   5.446   4.454   3.585 -2.7150  1.7423 -0.9647
  761SOL    MW4 2812   5.429   4.394   3.525 -0.3579 -0.1752  0.0583
  762SOL     OW 2813   0.133   1.243   0.541 -0.1877 -0.6173  0.1523
  762SOL    HW2 2814   0.099   1.259   0.453  0.7802 -0.6597 -0.2360
  762SOL    HW3 2815   0.115   1.324   0.589  0.1531 -0.2302 -0.3640
  762SOL    MW4 2816   0.126   1.256   0.536  0.0604  0.0427  0.2441
  763SOL     OW 2817   3.741   5.150   1.344 -0.5848  0.2721 -0.9735
  763SOL    HW2 2818   3.710   5.198   1.267 -0.9830 -1.7126 -2.1230
  763SOL    HW3 2819   3.670   5.158   1.407 -1.8096 -0.9010 -2.1176
  763SOL    MW4 2820   3.727   5.157   1.342 -0.3601 -0.3591  0.8114
  764SOL     OW 2821   6.206   0.460   3.859  0.5862  0.4201  0.1202
  764SOL    HW2 2822   6.164   0.399   3.799  1.6962  1.5923 -1.9991
  764SOL    HW3 2823   6.296   0.466   3.827  0.5160  3.1242  0.2052
  764SOL    MW4 2824   6.213   0.453   3.847  0.2903 -0.2287  0.0891
  765SOL     OW 2825   3.237   0.979   0.691 -0.7053  0.1197  0.8956
  765SOL    HW2 2826   3.194   0.912   0.746 -2.1471 -1.1184 -1.5705
  765SOL    HW3 2827   3.324   0.943   0.673 -0.1609  0.6018  2.3851
  765SOL    MW4 2828   3.243   0.965   0.696 -0.3171  0.4245  0.4777
  766SOL     OW 2829   5.826   4.665   1.765  0.3962 -0.0236  0.1081
  766SOL    HW2 2830   5.856   4.666   1.674 -1.1009  0.7847 -0.3978
  766SOL    HW3 2831   5.769   4.742   1.773  0.0058 -0.4318  1.5589
  766SOL    MW4 2832   5.823   4.675   1.754 -0.0289 -0.0887  0.4409
  767SOL     OW 2833   0.370   1.921   2.658  0.0121  0.3033  0.4087
  767SOL    HW2 2834   0.413   1.991   2.708 -1.1417  1.1101  0.3170
  767SOL    HW3 2835   0.277   1.934   2.674 -0.2931 -0.4259 -0.6529
  767SOL    MW4 2836   0.363   1.932   2.666 -0.0478  0.4024 -0.5426
  768SOL     OW 2837   0.444   5.560   4.146 -0.2249  0.2863  0.1152
  768SOL    HW2 2838   0.480   5.508   4.218 -0.2353  1.9970  1.4244
  768SOL    HW3 2839   0.490   5.529   4.068  1.7028  0.1404  1.2470
  768SOL    MW4 2840   0.455   5.549   4.145 -0.0548 -0.4046  0.3914
  769SOL     OW 2841   0.279   1.141   2.816 -0.5815  0.1032  0.0989
  769SOL    HW2 2842   0.259   1.119   2.907 -0.9417 -0.3029 -0.0752
  769SOL    HW3 2843   0.371   1.167   2.817 -0.9524  1.5201  0.8369
  769SOL    MW4 2844   0.288   1.141   2.828  0.3938  0.2183  0.1921
  770SOL     OW 2845   3.339   2.615   5.394  0.8938 -0.6710 -0.4116
  770SOL    HW2 2846   3.360   2.695   5.345  1.9429 -0.1294  0.8474
  770SOL    HW3 2847   3.285   2.646   5.467  1.0642 -1.1435 -0.0819
  770SOL    MW4 2848   3.335   2.630   5.397  0.2433 -0.8919 -0.1580
  771SOL     OW 2849   6.062   4.056   5.909 -0.5833 -0.4984 -0.0264
  771SOL    HW2 2850   6.073   4.093   5.821  1.5439  0.4058  0.5527
  771SOL    HW3 2851   6.106   3.971   5.905  2.6072  0.9764  0.9721
  771SOL    MW4 2852   6.069   4.050   5.897  0.1710 -0.1419 -0.0433
  772SOL     OW 2853   3.630   1.894   2.785  0.5342  0.0536 -0.2505
  772SOL    HW2 2854   3.679   1.846   2.718  1.4550  1.1182 -0.3694
  772SOL    HW3 2855   3.681   1.973   2.800  0.6017 -0.3526  2.0524
  772SOL    MW4 2856   3.643   1.898   2.778  0.2753  0.4963  0.2204
  773SOL     OW 2857   1.679   2.854   6.025 -0.0671 -0.1788  0.2743
  773SOL    HW2 2858   1.745   2.810   5.972 -0.1820  0.0583 -0.0701
  773SOL    HW3 2859   1.708   2.945   6.028 -0.4744 -0.0356 -0.0380
  773SOL    MW4 2860   1.691   2.860   6.018  0.2007  0.1704  0.0016
  774SOL     OW 2861   5.759   2.933   0.835 -0.5931  0.2205  0.3477
  774SOL    HW2 2862   5.798   3.003   0.781 -1.1158  0.9564  0.9030
  774SOL    HW3 2863   5.824   2.917   0.903 -1.1226  1.2869  1.1382
  774SOL    MW4 2864   5.773   2.940   0.837 -0.2124  0.9687 -0.2958
  775SOL     OW 2865   0.181   5.348   5.291  0.2544  0.0313 -0.1570
  775SOL    HW2 2866   0.160   5.432   5.251  1.0545 -0.0148 -0.6895
  775SOL    HW3 2867   0.096   5.313   5.320 -0.0727  1.0507  0.1526
  775SOL    MW4 2868   0.167   5.355   5.290 -0.8334  0.4000  0.2782
  776SOL     OW 2869   4.697   3.412   4.256  0.2182 -0.3414  0.0688
  776SOL    HW2 2870   4.687   3.505   4.233 -1.8349 -0.0908  1.6774
  776SOL    HW3 2871   4.691   3.366   4.173 -1.3368  0.8306 -0.5071
  776SOL    MW4 2872   4.695   3.419   4.242 -0.1195  0.5434  0.0960
  777SOL     OW 2873   5.523   0.344   3.092 -0.2618 -0.9659  0.1961
  777SOL    HW2 2874   5.564   0.374   3.173 -1.2412 -1.1049  0.7589
  777SOL    HW3 2875   5.597   0.321   3.035  0.4369 -1.0054  1.0911
  777SOL    MW4 2876   5.538   0.345   3.095 -0.0746  0.1200  0.1067
  778SOL     OW 2877   3.034   0.873   1.656  0.1396  0.2990 -0.3061
  778SOL    HW2 2878   3.112   0.929   1.657 -0.8763  1.7863 -0.6469
  778SOL    HW3 2879   2.978   0.909   1.725 -0.1546 -0.9384  0.1380
  778SOL    MW4 2880   3.037   0.885   1.665  0.6544  0.3677  0.3346
  779SOL     OW 2881   0.735   4.337   3.305  0.5680 -0.1194 -0.5834
  779SOL    HW2 2882   0.689   4.416   3.335  2.2552  0.5570  0.3576
  779SOL    HW3 2883   0.808   4.371   3.252  1.0112 -1.0709 -0.5905
  779SOL    MW4 2884   0.738   4.352   3.302 -0.3450  0.0160 -0.2696
  780SOL     OW 2885   0.723   5.839   2.703 -0.5496 -0.3973 -0.1559
  780SOL    HW2 2886   0.748   5.906   2.767 -1.2508 -0.6953  0.4453
  780SOL    HW3 2887   0.663   5.884   2.644  0.1848 -0.0912 -0.6895
  780SOL    MW4 2888   0.719   5.854   2.704 -0.8870 -0.4763  0.4737
  781SOL     OW 2889   2.464   4.868   5.438 -0.4259  0.2705  0.1901
  781SOL    HW2 2890   2.549   4.835   5.410 -0.4577  2.0059 -2.2599
  781SOL    HW3 2891   2.476   4.892   5.530  1.0674 -1.5019  0.5016
  781SOL    MW4 2892   2.477   4.867   5.446  1.0701  0.5541  0.1391
  782SOL     OW 2893   3.659   6.291   0.880 -0.6451  0.5645 -0.2162
  782SOL    HW2 2894   3.751   6.290   0.905 -0.4831  1.6373 -0.7294
  782SOL    HW3 2895   3.621   6.216   0.926  0.4750  0.1073 -0.0026
  782SOL    MW4 2896   3.666   6.281   0.889  0.2872 -0.0045  0.0046
  783SOL     OW 2897   2.961   1.618   5.629  0.4885  0.3258  0.1593
  783SOL    HW2 2898   2.877   1.660   5.612  1.0541  1.8549  0.9163
  783SOL    HW3 2899   2.962   1.602   5.723  1.4019  1.2158  0.3257
  783SOL    MW4 2900   2.950   1.621   5.639  0.4189  0.3926  0.1230
  784SOL     OW 2901   5.679   6.354   3.811 -0.6952  0.4023  0.4516
  784SOL    HW2 2902   5.710   6.429   3.862  0.9284 -0.5563  0.9414
  784SOL    HW3 2903   5.594   6.332   3.849 -0.0697  0.4800  1.9466
  784SOL    MW4 2904   5.672   6.361   3.823 -0.3559 -0.0739  0.2482
  785SOL     OW 2905   0.805   4.332   5.732 -0.1601  0.3408  0.0494
  785SOL    HW2 2906   0.888   4.363   5.698  0.7497 -0.7028  1.2184
  785SOL    HW3 2907   0.740   4.365   5.671  1.1097  1.1394 -0.9155
  785SOL    MW4 2908   0.807   4.341   5.720 -0.6530  0.0789  0.7118
  786SOL     OW 2909   5.725   5.095   2.537 -0.4161 -0.1807  0.2317
  786SOL    HW2 2910   5.820   5.080   2.536 -0.4179 -0.1735 -1.3010
  786SOL    HW3 2911   5.693   5.037   2.606  0.5704 -1.0396 -0.0034
  786SOL    MW4 2912   5.733   5.085   2.546  0.1155  0.3102 -0.2909
  787SOL     OW 2913   5.423   2.359   0.506 -0.1970 -0.5528 -0.3382
  787SOL    HW2 2914   5.441   2.451   0.524  2.0404 -1.1290  0.7368
  787SOL    HW3 2915   5.360   2.333   0.573  0.0195 -0.0771  0.0546
  787SOL    MW4 2916   5.417   2.368   0.517  0.4142  0.0077  0.7242
  788SOL     OW 2917   5.882   0.240   2.295  0.6101  0.2856 -0.3643
  788SOL    HW2 2918   5.788   0.236   2.314  0.5112  0.7992 -0.7365
  788SOL    HW3 2919   5.891   0.309   2.229  1.5154  1.9283  1.3822
  788SOL    MW4 2920   5.871   0.249   2.289  0.0374 -0.5741 -0.3772
  789SOL     OW 2921   1.568   1.767   2.871 -0.1331 -0.1293 -0.0750
  789SOL    HW2 2922   1.653   1.809   2.865  0.0171 -0.5785 -1.6556
  789SOL    HW3 2923   1.511   1.819   2.814 -1.5130  1.4048  2.5290
  789SOL    MW4 2924   1.571   1.779   2.863 -0.4045 -0.2358 -0.3226
  790SOL     OW 2925   3.624   4.690   2.336  0.0081  0.3875 -0.1703
  790SOL    HW2 2926   3.628   4.653   2.424 -1.4380 -0.0296 -0.2453
  790SOL    HW3 2927   3.628   4.615   2.278 -0.2065  0.5664 -0.4196
  790SOL    MW4 2928   3.625   4.675   2.340 -0.5676  0.1432  0.2118
  791SOL     OW 2929   1.916   3.271   2.389 -0.0389 -0.3270  0.0643
  791SOL    HW2 2930   1.928   3.362   2.417  0.1441 -1.0635  2.5293
  791SOL    HW3 2931   1.827   3.269   2.354  0.4640  1.0978 -1.4595
  791SOL    MW4 2932   1.906   3.283   2.388  0.1860  0.5773 -0.1321
  792SOL     OW 2933   1.063   1.148   0.030 -0.2464 -0.1071 -0.4514
  792SOL    HW2 2934   1.094   1.200   0.104 -0.8693  0.6240 -0.6885
  792SOL    HW3 2935   0.979   1.187   0.007 -0.0535 -0.3145 -1.5506
  792SOL    MW4 2936   1.056   1.160   0.037  0.2104 -0.3461 -0.1409
  793SOL     OW 2937   0.781   2.878   5.828 -0.4263 -0.1832  0.0572
  793SOL    HW2 2938   0.795   2.968   5.858 -0.3585  0.0550 -0.6857
  793SOL    HW3 2939   0.711   2.885   5.763 -0.3701 -0.6630 -0.0577
  793SOL    MW4 2940   0.773   2.890   5.823 -0.6057  0.2175 -0.3178
  794SOL     OW 2941   0.306   1.811   3.336  0.5797  0.1893  0.0424
  794SOL    HW2 2942   0.317   1.755   3.413 -1.8158 -1.5663 -0.7649
  794SOL    HW3 2943   0.322   1.753   3.262 -2.3414  0.3500 -0.8414
  794SOL    MW4 2944   0.310   1.796   3.336  0.7250 -0.3031  0.6667
  795SOL     OW 2945   5.196   1.738   1.159  0.3594 -0.1179 -0.5934
  795SOL    HW2 2946   5.176   1.745   1.066 -1.9151  1.7774 -0.0438
  795SOL    HW3 2947   5.203   1.828   1.189  1.1668 -0.6880  1.0921
  795SOL    MW4 2948   5.194   1.751   1.150 -0.7638 -0.1019  0.3575
  796SOL     OW 2949   6.254   5.393   6.423  0.1426 -0.3436  0.3646
  796SOL    HW2 2950   6.300   5.342   6.490  0.7712 -0.8040 -0.3962
  796SOL    HW3 2951   6.324   5.443   6.380 -0.4502  1.1105  1.0402
  796SOL    MW4 2952   6.270   5.393   6.426 -0.3151 -0.5888 -0.4890
  797SOL     OW 2953   4.985   2.787   4.578 -0.3231  0.6214  0.4356
  797SOL    HW2 2954   5.009   2.700   4.546 -2.3528  0.5403 -1.0679
  797SOL    HW3 2955   4.980   2.777   4.673  1.9882 -0.1897  0.5292
  797SOL    MW4 2956   4.987   2.774   4.587 -0.6633 -0.7633 -0.3933
  798SOL     OW 2957   1.764   4.395   0.444 -0.1722  0.5729  0.2333
  798SOL    HW2 2958   1.804   4.480   0.466 -1.4829  1.0789  0.7116
  798SOL    HW3 2959   1.838   4.343   0.412  0.8337  1.5729  0.8240
  798SOL    MW4 2960   1.779   4.400   0.442 -0.0398 -0.2890  0.0240
  799SOL     OW 2961   3.364   1.292   3.461  0.1063 -0.3093 -0.0865
  799SOL    HW2 2962   3.325   1.273   3.375  0.4943  2.0111 -0.8294
  799SOL    HW3 2963   3.297   1.340   3.508  0.7527  0.5249 -0.0021
  799SOL    MW4 2964   3.350   1.296   3.456 -0.1132 -0.0293 -0.1838
  800SOL     OW 2965   1.476   6.051   3.613 -0.5612  0.3621 -0.1587
  800SOL    HW2 2966   1.390   6.054   3.655 -0.2791 -0.3751  0.5017
  800SOL    HW3 2967   1.479   6.131   3.560 -1.2235  0.9604  0.6543
  800SOL    MW4 2968   1.465   6.062   3.612  0.0276 -0.3622  0.0504
  801SOL     OW 2969   5.240   4.352   5.402 -0.3726  0.0681  0.6046
  801SOL    HW2 2970   5.232   4.435   5.450  1.3991  0.3256  0.5283
  801SOL    HW3 2971   5.242   4.378   5.310 -0.6011 -0.1309  0.5443
  801SOL    MW4 2972   5.239   4.366   5.397 -0.3931 -0.0021 -0.6757
  802SOL     OW 2973   5.010   1.651   5.083  0.6350 -0.4131  0.1571
  802SOL    HW2 2974   4.918   1.666   5.063  0.5097  1.3133  1.7121
  802SOL    HW3 2975   5.013   1.562   5.118 -0.2361 -0.8916 -0.9595
  802SOL    MW4 2976   4.999   1.641   5.085  0.5218  0.0512 -0.8095
  803SOL     OW 2977   6.004   2.414   2.038  0.5984  0.0544  0.2797
  803SOL    HW2 2978   6.026   2.342   2.097  1.7060  1.3760  1.5582
  803SOL    HW3 2979   6.082   2.469   2.038  1.2382 -0.5499 -3.5545
  803SOL    MW4 2980   6.017   2.411   2.045 -0.3030 -0.0890 -0.4756
  804SOL     OW 2981   3.291   5.714   4.593 -0.2882 -0.5027  0.0130
  804SOL    HW2 2982   3.207   5.679   4.621  0.6936 -1.4067  2.0280
  804SOL    HW3 2983   3.355   5.649   4.623  1.7238  3.0263  4.3798
  804SOL    MW4 2984   3.288   5.701   4.601  0.0153  0.3610  0.7498
  805SOL     OW 2985   2.877   5.338   3.290 -0.5654 -0.0288 -0.1048
  805SOL    HW2 2986   2.925   5.272   3.339 -1.2696 -0.8810 -0.5249
  805SOL    HW3 2987   2.926   5.419   3.304  0.4955 -0.6950  0.1737
  805SOL    MW4 2988   2.890   5.340   3.298  0.4174  0.2356 -0.1510
  806SOL     OW 2989   5.383   1.362   0.298  0.1272  0.4613 -0.7762
  806SOL    HW2 2990   5.438   1.302   0.348 -0.4263  0.7180  0.1595
  806SOL    HW3 2991   5.398   1.337   0.207  0.3829 -0.6859 -0.4394
  806SOL    MW4 2992   5.392   1.351   0.292  0.3619 -0.2209 -0.8267
  807SOL     OW 2993   0.474   5.978   0.730 -0.1708 -0.5739 -0.2974
  807SOL    HW2 2994   0.467   5.970   0.635  0.7433  1.4207 -0.5740
  807SOL    HW3 2995   0.544   5.917   0.755 -0.5802 -1.2826 -0.8487
  807SOL    MW4 2996   0.482   5.969   0.721  1.2156 -0.0955 -0.0727
  808SOL     OW 2997   5.746   3.696   3.232  0.1736 -0.2331  0.6182
  808SOL    HW2 2998   5.807   3.770   3.236  0.0433 -0.0836 -0.0812
  808SOL    HW3 2999   5.727   3.675   3.324  0.0432  0.7391  0.8162
  808SOL    MW4 3000   5.752   3.703   3.245  0.5010  0.2127  0.6257
  809SOL     OW 3001   3.248   2.126   0.998 -0.1421  0.0230  0.3029
  809SOL    HW2 3002   3.160   2.154   0.973 -0.4717  2.0620  3.2379
  809SOL    HW3 3003   3.302   2.204   0.987  1.1141 -0.9236 -0.4832
  809SOL    MW4 3004   3.243   2.140   0.993 -0.1432  0.0076 -0.1562
  810SOL     OW 3005   1.549   4.116   1.589  0.2419  0.1803 -0.2294
  810SOL    HW2 3006   1.625   4.164   1.558  0.2217  0.0174 -0.5335
  810SOL    HW3 3007   1.484   4.184   1.607  0.5249  0.3329  0.2211
  810SOL    MW4 3008   1.550   4.131   1.587 -0.0987 -0.6436 -0.2020
  811SOL     OW 3009   3.774   0.690   3.962  0.1567 -0.1219  0.1133
  811SOL    HW2 3010   3.691   0.653   3.992 -0.8723  3.2988  2.1067
  811SOL    HW3 3011   3.841   0.646   4.014 -0.4815 -2.1270 -0.6979
  811SOL    MW4 3012   3.772   0.679   3.973 -0.0866  0.3104  0.1311
  812SOL     OW 3013   2.181   4.861   2.609 -0.4104  0.2549 -0.0729
  812SOL    HW2 3014   2.178   4.771   2.575  0.1694  0.4794 -0.7378
  812SOL    HW3 3015   2.101   4.870   2.660  0.2024 -1.1120  1.1835
  812SOL    MW4 3016   2.170   4.850   2.611  0.8563  0.0197 -0.2596
  813SOL     OW 3017   1.030   4.087   1.919  0.5645 -0.2994  0.1087
  813SOL    HW2 3018   0.996   4.168   1.957 -0.3696 -2.2654  3.9968
  813SOL    HW3 3019   0.964   4.062   1.854 -0.9579  0.3949  1.2981
  813SOL    MW4 3020   1.017   4.095   1.915 -0.0421 -0.4044 -0.1055
  814SOL     OW 3021   1.039   1.282   3.749  0.3779 -0.3852  0.1627
  814SOL    HW2 3022   1.001   1.353   3.801  2.1651 -0.1147  1.1718
  814SOL    HW3 3023   1.107   1.245   3.805  0.5614 -1.8618 -0.9783
  814SOL    MW4 3024   1.043   1.286   3.763 -0.7476 -0.0884 -0.2273
  815SOL     OW 3025   1.578   1.674   1.649  0.1577 -0.0288  0.0286
  815SOL    HW2 3026   1.492   1.634   1.662  0.9644 -1.8404  0.1273
  815SOL    HW3 3027   1.569   1.723   1.567 -0.7341 -0.9710 -0.4731
  815SOL    MW4 3028   1.566   1.675   1.640 -0.3499 -0.1036  0.1186
  816SOL     OW 3029   1.420   0.041   5.385 -0.0901 -0.1564 -0.0464
  816SOL    HW2 3030   1.408  -0.052   5.400  1.4645 -0.2525  0.8992
  816SOL    HW3 3031   1.333   0.074   5.362 -0.6033 -1.8666 -0.6571
  816SOL    MW4 3032   1.407   0.033   5.384 -0.3922 -0.0701  0.0363
  817SOL     OW 3033   0.728   2.023   0.563 -0.2386 -0.1094 -0.4148
  817SOL    HW2 3034   0.757   2.082   0.494 -1.1027  0.0850 -0.6265
  817SOL    HW3 3035   0.741   1.935   0.527  0.1287 -0.0290 -0.4798
  817SOL    MW4 3036   0.734   2.019   0.549  0.2611 -0.6026 -0.0391
  818SOL     OW 3037   0.872   2.817   0.796 -0.2196  0.2171  0.5755
  818SOL    HW2 3038   0.798   2.822   0.856 -0.2248  0.3508  0.5587
  818SOL    HW3 3039   0.837   2.773   0.719 -0.0237 -0.6135  0.9494
  818SOL    MW4 3040   0.857   2.812   0.794 -0.1123  0.5697  0.4022
  819SOL     OW 3041   2.788   3.596   0.685  0.1595 -0.1971 -0.2455
  819SOL    HW2 3042   2.745   3.518   0.720 -1.2299  0.8497  0.5070
  819SOL    HW3 3043   2.835   3.632   0.760  0.3944 -0.0354 -0.4685
  819SOL    MW4 3044   2.789   3.590   0.700  0.2336  0.3874  0.5660
  820SOL     OW 3045   1.537   2.635   5.038 -0.2047 -0.4104 -0.7301
  820SOL    HW2 3046   1.590   2.711   5.062  1.9791 -2.1103  0.1507
  820SOL    HW3 3047   1.562   2.616   4.948 -0.3370 -0.4290 -0.7637
  820SOL    MW4 3048   1.547   2.642   5.029 -0.4000  0.1373 -0.4218
  821SOL     OW 3049   2.931   3.199   3.886  0.0077  0.3951  0.0918
  821SOL    HW2 3050   2.868   3.201   3.813 -0.9031  0.0714  0.8548
  821SOL    HW3 3051   2.879   3.176   3.962  0.7808  1.6138  1.0334
  821SOL    MW4 3052   2.916   3.196   3.886 -0.8785 -0.4683 -0.3478
  822SOL     OW 3053   0.119   1.720   5.623  0.3705 -0.9780 -0.0541
  822SOL    HW2 3054   0.089   1.706   5.533 -0.3024 -0.1820  0.0318
  822SOL    HW3 3055   0.146   1.812   5.625  0.9173 -1.1436  0.4138
  822SOL    MW4 3056   0.119   1.730   5.612 -1.0872 -0.1326 -0.4672
  823SOL     OW 3057   5.252   3.725   5.169  0.1935 -0.0666 -0.4638
  823SOL    HW2 3058   5.160   3.748   5.186  0.2073 -0.4097  0.0959
  823SOL    HW3 3059   5.249   3.632   5.145  0.3851 -0.0466 -0.5650
  823SOL    MW4 3060   5.239   3.716   5.168  0.1753 -0.3330 -0.9996
  824SOL     OW 3061   4.657   0.582   3.734 -0.2831 -0.0480  0.4993
  824SOL    HW2 3062   4.588   0.529   3.695  1.4243 -2.4476  0.4978
  824SOL    HW3 3063   4.632   0.592   3.825 -0.4537 -1.2792  0.6021
  824SOL    MW4 3064   4.645   0.576   3.741  0.5563  0.1292  0.0037
  825SOL     OW 3065   4.183   2.256   1.612  0.6935 -0.0675  0.4400
  825SOL    HW2 3066   4.214   2.346   1.616  0.0243  0.3783 -2.4433
  825SOL    HW3 3067   4.252   2.205   1.655  1.6852  1.6751  0.9916
  825SOL    MW4 3068   4.196   2.261   1.618  0.0581 -1.2579  0.1281
  826SOL     OW 3069   5.418   5.274   4.015 -0.2766  0.7475 -0.4697
  826SOL    HW2 3070   5.415   5.226   4.098  0.7764 -0.8678 -1.3076
  826SOL    HW3 3071   5.340   5.330   4.017 -1.2171 -0.5259  0.8649
  826SOL    MW4 3072   5.407   5.275   4.026 -0.0738  0.4102  0.2704
  827SOL     OW 3073   0.844   3.250   1.645  0.1352  0.4986  0.3367
  827SOL    HW2 3074   0.756   3.232   1.679  0.1251 -1.1756 -0.4471
  827SOL    HW3 3075   0.872   3.166   1.608  1.6769  1.2642 -0.2952
  827SOL    MW4 3076   0.836   3.237   1.644  0.1326  0.0384  0.1915
  828SOL     OW 3077   1.413   5.968   4.495  0.2986 -0.0150 -0.1126
  828SOL    HW2 3078   1.498   5.982   4.454 -0.8099  2.3453 -1.8412
  828SOL    HW3 3079   1.430   5.902   4.563  3.5071  0.5179 -0.2321
  828SOL    MW4 3080   1.426   5.961   4.498 -0.6064 -0.9392 -0.4730
  829SOL     OW 3081   3.922   0.390   5.188 -0.1245 -0.6249  0.1154
  829SOL    HW2 3082   3.966   0.473   5.204 -0.4964 -0.3908 -0.0600
  829SOL    HW3 3083   3.965   0.328   5.246 -1.4864  0.1915  2.1221
  829SOL    MW4 3084   3.933   0.393   5.197  0.7369  0.5549 -0.0825
  830SOL     OW 3085   3.077   4.301   5.968 -0.8560 -0.5234  0.2752
  830SOL    HW2 3086   3.028   4.348   5.900 -2.0525 -1.4644  0.4589
  830SOL    HW3 3087   3.138   4.246   5.920 -2.2550 -1.7990 -0.1157
  830SOL    MW4 3088   3.078   4.300   5.953  0.9628  0.0103  0.6726
  831SOL     OW 3089   1.492   1.018   3.827  0.1122  0.1006  0.0408
  831SOL    HW2 3090   1.539   1.057   3.901 -0.1600  1.7763 -0.6268
  831SOL    HW3 3091   1.412   0.983   3.866  1.0038 -1.0662  0.8752
  831SOL    MW4 3092   1.488   1.019   3.842  0.1228  0.1303 -0.7581
  832SOL     OW 3093   4.194   2.624   0.256  0.7867  0.0733 -0.4509
  832SOL    HW2 3094   4.206   2.573   0.176 -1.0364 -1.1886  0.0208
  832SOL    HW3 3095   4.195   2.559   0.326 -2.0549  0.5313  0.1391
  832SOL    MW4 3096   4.196   2.609   0.255  0.1186 -0.0203  0.0009
  833SOL     OW 3097   5.303   0.856   5.484 -0.0341  0.1498  0.1614
  833SOL    HW2 3098   5.383   0.805   5.498 -0.3136 -0.1457  0.7424
  833SOL    HW3 3099   5.237   0.811   5.538 -0.5105  0.5740 -0.0674
  833SOL    MW4 3100   5.305   0.843   5.493 -0.2297  0.0110 -0.0723
  834SOL     OW 3101   0.526   2.509   4.462 -0.1848 -0.5307  0.2125
  834SOL    HW2 3102   0.538   2.603   4.463 -1.1638 -0.3872  1.2559
  834SOL    HW3 3103   0.527   2.485   4.369 -1.8132  0.7914 -0.1875
  834SOL    MW4 3104   0.527   2.518   4.449 -0.0468 -0.5347 -0.1787
  835SOL     OW 3105   4.233   5.590   5.810 -0.4254  0.6925 -0.2439
  835SOL    HW2 3106   4.296   5.518   5.807 -1.0896  0.0465 -4.3181
  835SOL    HW3 3107   4.148   5.547   5.818 -0.6390  1.4146  2.2110
  835SOL    MW4 3108   4.230   5.575   5.810 -0.6710  0.4317 -0.2606
  836SOL     OW 3109   1.312   3.155   4.210 -0.1284  0.1519 -0.0653
  836SOL    HW2 3110   1.233   3.135   4.259 -0.3204  1.1439  0.0366
  836SOL    HW3 3111   1.281   3.171   4.121  0.0510 -0.2217 -0.1959
  836SOL    MW4 3112   1.298   3.154   4.205  0.5785 -0.3192 -1.0373
  837SOL     OW 3113   6.224   1.037   2.940 -0.2780  0.0244 -0.8805
  837SOL    HW2 3114   6.240   1.038   2.845 -0.0964  0.7827 -0.8544
  837SOL    HW3 3115   6.280   1.108   2.974  0.8754 -1.2578  0.0021
  837SOL    MW4 3116   6.234   1.047   2.932  0.3512  0.5267 -0.2455
  838SOL     OW 3117   1.644   3.971   3.686  0.0008  0.1102 -0.0698
  838SOL    HW2 3118   1.722   3.918   3.674  0.3030  1.0286 -2.8185
  838SOL    HW3 3119   1.582   3.913   3.730  1.3414 -1.4733 -0.1864
  838SOL    MW4 3120   1.646   3.956   3.690  0.1009  0.0389  0.2999
  839SOL     OW 3121   5.561   2.008   4.440  0.1684  0.1623  0.6209
  839SOL    HW2 3122   5.561   1.979   4.349  0.0188 -0.7230  0.8940
  839SOL    HW3 3123   5.558   2.103   4.435  0.1121  0.1186 -0.2992
  839SOL    MW4 3124   5.561   2.016   4.427 -0.9668 -0.0121 -0.2731
  840SOL     OW 3125   5.466   0.586   2.633  0.3526  0.1952 -0.1428
  840SOL    HW2 3126   5.377   0.566   2.605  0.6463  0.2369 -1.1518
  840SOL    HW3 3127   5.455   0.648   2.705 -0.4100  1.4312 -1.2742
  840SOL    MW4 3128   5.453   0.591   2.639 -0.6732 -0.6717 -0.2821
  841SOL     OW 3129   5.584   4.072   1.151  0.0103 -0.3003  0.3544
  841SOL    HW2 3130   5.555   4.053   1.061 -1.9367  1.6476  0.4950
  841SOL    HW3 3131   5.661   4.128   1.140  0.0716 -0.4654 -0.0937
  841SOL    MW4 3132   5.591   4.077   1.137 -0.3524  0.1315  0.1445
  842SOL     OW 3133   5.701   4.531   3.935  0.9292 -0.1849  0.3810
  842SOL    HW2 3134   5.666   4.611   3.975  2.0843  0.2575  0.5478
  842SOL    HW3 3135   5.776   4.561   3.884  1.5173 -1.1965  0.6296
  842SOL    MW4 3136   5.706   4.546   3.934  0.6428  0.3730 -0.4440
  843SOL     OW 3137   5.689   3.749   5.261 -0.1358 -0.1604  0.2263
  843SOL    HW2 3138   5.685   3.669   5.209  0.2778  0.5582 -0.9410
  843SOL    HW3 3139   5.776   3.746   5.302 -0.6934 -1.0245  1.4057
  843SOL    MW4 3140   5.700   3.738   5.260  0.4285 -0.2068  0.4950
  844SOL     OW 3141   2.709   2.033   4.605  0.2180  0.1851 -0.1970
  844SOL    HW2 3142   2.729   2.059   4.694 -1.3815 -0.2105  0.3097
  844SOL    HW3 3143   2.621   2.068   4.588 -0.1779 -1.1132 -1.0234
  844SOL    MW4 3144   2.700   2.041   4.614  0.7408 -0.2935 -0.0292
  845SOL     OW 3145   2.105   1.548   1.583 -0.3268  0.0010 -0.4971
  845SOL    HW2 3146   2.112   1.452   1.587 -0.0742 -0.0859 -2.1117
  845SOL    HW3 3147   2.181   1.575   1.532 -0.9875  0.9496 -1.0152
  845SOL    MW4 3148   2.116   1.539   1.577  0.0912 -0.1663 -0.2816
  846SOL     OW 3149   1.658   3.236   5.699  0.8233  0.1951  0.2591
  846SOL    HW2 3150   1.584   3.177   5.683  1.6079  0.0275 -3.6398
  846SOL    HW3 3151   1.633   3.318   5.655  1.4838  1.4485  2.0850
  846SOL    MW4 3152   1.645   3.239   5.691 -0.5402  0.2209 -0.2166
  847SOL     OW 3153   3.383   4.108   5.091  0.0814  0.0486  0.1234
  847SOL    HW2 3154   3.477   4.112   5.076  0.1846  1.8498  1.0461
  847SOL    HW3 3155   3.344   4.127   5.005  0.5104 -1.4806 -0.4431
  847SOL    MW4 3156   3.390   4.111   5.078  0.0870  0.3595 -0.3755
  848SOL     OW 3157   3.406   0.803   3.162  0.3385 -0.1461 -0.0841
  848SOL    HW2 3158   3.352   0.835   3.089 -0.1019 -1.2032 -0.2367
  848SOL    HW3 3159   3.346   0.802   3.237  1.0228  1.8095  0.5464
  848SOL    MW4 3160   3.391   0.807   3.162  0.8219 -0.3244  0.0588
  849SOL     OW 3161   5.233   2.636   3.791 -0.4289 -0.4899  0.3784
  849SOL    HW2 3162   5.294   2.695   3.836 -0.5274 -0.6968  0.7925
  849SOL    HW3 3163   5.275   2.550   3.797 -1.0420 -0.7466  1.2218
  849SOL    MW4 3164   5.247   2.632   3.798 -0.7628 -0.7010 -0.2153
  850SOL     OW 3165   5.204   3.935   1.290  0.2982  0.2251 -0.1945
  850SOL    HW2 3166   5.209   3.917   1.384  1.2462  0.5255 -0.1833
  850SOL    HW3 3167   5.249   3.862   1.249 -2.0966 -1.1304 -0.5815
  850SOL    MW4 3168   5.210   3.923   1.297 -0.0619  0.5604 -0.1456
  851SOL     OW 3169   0.228   5.635   1.221  0.3015 -1.1389  0.1055
  851SOL    HW2 3170   0.184   5.578   1.285 -0.8266  0.3077  0.6627
  851SOL    HW3 3171   0.302   5.671   1.268 -1.6096  1.4569  1.3627
  851SOL    MW4 3172   0.232   5.632   1.236  0.8225  0.3354 -0.2671
  852SOL     OW 3173   3.598   3.816   3.169 -0.3742 -0.0217  0.2656
  852SOL    HW2 3174   3.551   3.887   3.212 -0.4817 -0.2641  0.5503
  852SOL    HW3 3175   3.664   3.788   3.233  1.1987  1.3229 -0.6757
  852SOL    MW4 3176   3.601   3.822   3.183  0.0361  0.2188  0.4402
  853SOL     OW 3177   5.333   1.744   3.138  0.2416 -0.3088  0.5500
  853SOL    HW2 3178   5.263   1.694   3.095  0.5260  0.7461 -1.2527
  853SOL    HW3 3179   5.408   1.684   3.140 -0.2667 -0.9484  1.1665
  853SOL    MW4 3180   5.333   1.729   3.132 -0.2997 -0.7854  0.4403
  854SOL     OW 3181   3.325   2.170   1.720  0.1581  0.3267 -0.2108
  854SOL    HW2 3182   3.322   2.214   1.805 -0.0279 -0.4128  0.1761
  854SOL    HW3 3183   3.236   2.138   1.707  0.6788 -1.4359  0.3362
  854SOL    MW4 3184   3.313   2.172   1.729  0.3494  0.3873  0.5231
  855SOL     OW 3185   1.523   1.018   0.161  0.0316  0.1004 -0.1130
  855SOL    HW2 3186   1.488   1.046   0.246 -0.1720 -0.8457  0.1249
  855SOL    HW3 3187   1.549   1.099   0.118 -0.7703  0.6689  0.4568
  855SOL    MW4 3188   1.522   1.032   0.167 -0.4027  0.3930 -0.4794
  856SOL     OW 3189   0.269   5.625   1.712  0.5250 -0.0072  0.1731
  856SOL    HW2 3190   0.195   5.670   1.673  1.1730  0.7757 -0.1918
  856SOL    HW3 3191   0.248   5.619   1.805 -0.7079 -1.2483 -0.1626
  856SOL    MW4 3192   0.257   5.630   1.719  0.0342  0.5350  0.3146
  857SOL     OW 3193   5.933   4.254   1.408  0.4600  0.5341  0.0024
  857SOL    HW2 3194   5.950   4.173   1.456  0.3935  0.5927  0.1254
  857SOL    HW3 3195   5.844   4.277   1.433  0.1553  0.1740 -0.7119
  857SOL    MW4 3196   5.923   4.246   1.418 -0.1847  0.0155  0.1838
  858SOL     OW 3197   4.026   3.042   3.323 -0.0486  0.3309  0.3497
  858SOL    HW2 3198   3.971   3.116   3.348  1.3234  1.6951 -0.4999
  858SOL    HW3 3199   4.107   3.081   3.293  1.6800 -1.6267  2.1201
  858SOL    MW4 3200   4.029   3.057   3.322  0.3357 -0.1355  0.0591
  859SOL     OW 3201   2.696   0.404   5.059  0.2121 -0.6555  0.2824
  859SOL    HW2 3202   2.691   0.374   4.968  0.3321 -0.7007  0.2907
  859SOL    HW3 3203   2.615   0.372   5.099  0.6911 -1.6423  0.4924
  859SOL    MW4 3204   2.685   0.396   5.052  0.1275  0.3081  0.2288
  860SOL     OW 3205   4.393   0.415   3.153  0.1792  0.1894  0.6084
  860SOL    HW2 3206   4.324   0.476   3.128 -0.4593 -0.7391  0.1017
  860SOL    HW3 3207   4.474   0.461   3.131 -0.3196  0.3616 -0.9596
  860SOL    MW4 3208   4.395   0.429   3.147  0.5391 -0.8086  0.5987
  861SOL     OW 3209   2.069   0.624   0.702  0.3435  0.0292 -0.5236
  861SOL    HW2 3210   1.984   0.665   0.719 -0.3419 -1.1728 -0.9516
  861SOL    HW3 3211   2.132   0.685   0.738 -0.6509  1.3806 -0.9740
  861SOL    MW4 3212   2.066   0.638   0.709 -0.0340 -0.7595 -0.9874
  862SOL     OW 3213   3.156   0.945   5.568  0.0363  0.3624 -0.3338
  862SOL    HW2 3214   3.139   1.017   5.629  0.1081 -0.9951  1.3594
  862SOL    HW3 3215   3.251   0.932   5.572 -0.1236 -0.6514  0.3728
  862SOL    MW4 3216   3.166   0.953   5.576 -0.2472 -0.3444  0.1087
  863SOL     OW 3217   3.968   2.087   5.344  0.0370 -0.4300  0.3111
  863SOL    HW2 3218   3.880   2.124   5.353  0.5364  0.7221  0.7529
  863SOL    HW3 3219   3.961   1.999   5.380 -0.9334 -0.3470  0.3523
  863SOL    MW4 3220   3.955   2.081   5.350  0.0316  0.2819 -0.0733
  864SOL     OW 3221   4.762   4.460   1.628 -0.4114  0.2769 -0.4134
  864SOL    HW2 3222   4.719   4.453   1.714  0.5678  0.3907  0.0966
  864SOL    HW3 3223   4.852   4.433   1.644 -0.5140 -0.9151 -1.6767
  864SOL    MW4 3224   4.768   4.456   1.642  0.0688  0.1524  0.5237
  865SOL     OW 3225   0.639   2.630   5.170 -0.7222 -0.0174  0.5691
  865SOL    HW2 3226   0.619   2.653   5.260 -0.4358  0.9198  0.4041
  865SOL    HW3 3227   0.635   2.713   5.122  0.1488 -0.3399 -0.0862
  865SOL    MW4 3228   0.636   2.644   5.176 -0.0356  0.2035  0.5773
  866SOL     OW 3229   5.614   0.800   3.076  0.7561  0.5220 -0.1946
  866SOL    HW2 3230   5.641   0.708   3.076  0.5862  0.4676  0.3403
  866SOL    HW3 3231   5.676   0.843   3.017  1.4207  0.2230  0.2649
  866SOL    MW4 3232   5.626   0.794   3.068 -0.3598  0.1933  0.3109
  867SOL     OW 3233   1.375   2.050   1.874  0.3520  0.0677  0.0025
  867SOL    HW2 3234   1.313   1.977   1.884  2.2389 -1.4221  1.7196
  867SOL    HW3 3235   1.451   2.011   1.832  1.7533  0.7642  1.7506
  867SOL    MW4 3236   1.377   2.035   1.870 -0.1127  0.0183  0.5278
  868SOL     OW 3237   5.982   1.303   2.367 -0.2857 -0.0439  0.8791
  868SOL    HW2 3238   6.037   1.258   2.303 -1.7931 -0.2786 -0.3108
  868SOL    HW3 3239   5.911   1.242   2.385 -2.2533  1.6849 -0.5937
  868SOL    MW4 3240   5.980   1.289   2.361 -0.0818  0.2987  0.1084
  869SOL     OW 3241   3.100   6.430   2.000  0.1439 -0.1615  0.1632
  869SOL    HW2 3242   3.153   6.422   2.080 -1.2768  0.4690  1.2157
  869SOL    HW3 3243   3.025   6.483   2.026 -0.8315 -0.7152 -1.3694
  869SOL    MW4 3244   3.097   6.436   2.014  0.6600  0.5234 -0.2862
  870SOL     OW 3245   5.208   2.699   3.510  0.1521 -0.0716  0.0852
  870SOL    HW2 3246   5.229   2.653   3.592 -1.6723 -0.0247  0.6320
  870SOL    HW3 3247   5.176   2.785   3.537 -0.4590 -0.0449 -0.6585
  870SOL    MW4 3248   5.206   2.704   3.524 -0.2292 -0.1100 -0.1163
  871SOL     OW 3249   4.197   5.302   5.272  0.5308  0.1705  0.0997
  871SOL    HW2 3250   4.249   5.347   5.205 -0.5044  0.8402 -0.2678
  871SOL    HW3 3251   4.235   5.214   5.276  0.2651 -0.0521 -1.7502
  871SOL    MW4 3252   4.209   5.296   5.264 -0.2746 -0.4717  0.7095
  872SOL     OW 3253   1.896   0.295   3.109 -0.0858  0.4250  0.8351
  872SOL    HW2 3254   1.885   0.205   3.078 -0.8207  0.0609  2.0898
  872SOL    HW3 3255   1.934   0.341   3.034 -0.9172 -0.6204 -0.2777
  872SOL    MW4 3256   1.899   0.289   3.095 -0.0025  0.5056 -0.1200
  873SOL     OW 3257   0.681   0.972   5.908  0.2885 -0.1517  0.2880
  873SOL    HW2 3258   0.602   0.935   5.866  1.3277 -0.7712 -1.2225
  873SOL    HW3 3259   0.647   1.040   5.966 -1.4003 -0.7454  0.0719
  873SOL    MW4 3260   0.666   0.976   5.910  0.4504 -0.1041 -0.7774
  874SOL     OW 3261   3.657   1.717   5.966 -0.4107 -0.3132  0.1495
  874SOL    HW2 3262   3.580   1.764   5.999 -0.3113 -0.8296  1.1727
  874SOL    HW3 3263   3.718   1.717   6.040  0.3189 -0.4669 -0.4405
  874SOL    MW4 3264   3.654   1.723   5.980  0.2745  0.7975 -0.7160
  875SOL     OW 3265   4.460   0.875   3.344 -0.2194  0.0376 -0.0883
  875SOL    HW2 3266   4.399   0.809   3.377  0.1377  0.4990  1.6135
  875SOL    HW3 3267   4.407   0.930   3.285 -1.2637 -0.0395  0.7421
  875SOL    MW4 3268   4.445   0.874   3.341 -0.1958  0.5704 -0.2855
  876SOL     OW 3269   1.644   5.858   3.698 -0.6183  0.6025  0.4627
  876SOL    HW2 3270   1.725   5.860   3.647 -0.8921 -0.2183 -0.0135
  876SOL    HW3 3271   1.603   5.943   3.680  0.0910  0.9963  0.6555
  876SOL    MW4 3272   1.649   5.870   3.689  0.3081 -0.6771  0.7649
  877SOL     OW 3273   1.047   2.281   3.233  0.1137 -0.0938  0.2473
  877SOL    HW2 3274   1.040   2.239   3.147  0.4064  1.4988 -0.5738
  877SOL    HW3 3275   0.972   2.340   3.238 -0.5784 -1.0248  1.6065
  877SOL    MW4 3276   1.036   2.283   3.222 -0.1213 -0.0171  0.2011
  878SOL     OW 3277   4.895   3.375   2.756  0.3817  0.2293 -0.6177
  878SOL    HW2 3278   4.876   3.332   2.672  2.4806 -1.2922 -0.3847
  878SOL    HW3 3279   4.810   3.377   2.801 -0.0701 -2.9432 -1.0414
  878SOL    MW4 3280   4.881   3.369   2.751  0.3299 -0.0229  0.4957
  879SOL     OW 3281   4.049   3.889   3.331  0.0599 -0.0847 -0.2263
  879SOL    HW2 3282   3.960   3.852   3.323  0.6790 -1.6951 -0.1166
  879SOL    HW3 3283   4.048   3.936   3.414 -0.1925 -1.6510  0.7029
  879SOL    MW4 3284   4.037   3.890   3.341  0.2460  0.1800 -0.5380
  880SOL     OW 3285   3.420   3.196   3.049  0.6317 -0.5955  0.1789
  880SOL    HW2 3286   3.329   3.198   3.078  0.6984 -0.9794  0.4129
  880SOL    HW3 3287   3.436   3.284   3.016  0.4466 -0.2580  0.9678
  880SOL    MW4 3288   3.410   3.208   3.048  0.1139  0.1561 -0.9245
  881SOL     OW 3289   1.425   1.549   6.166 -0.2973 -0.2934  0.1110
  881SOL    HW2 3290   1.471   1.468   6.188  0.3875  0.3854  1.2695
  881SOL    HW3 3291   1.438   1.606   6.242  0.4950  1.4446 -1.2513
  881SOL    MW4 3292   1.433   1.546   6.179 -0.2258  1.4214 -0.0445
  882SOL     OW 3293   5.794   1.980   0.344 -0.5403 -0.5300 -0.5647
  882SOL    HW2 3294   5.860   1.968   0.412 -0.7313 -1.5432 -0.5380
  882SOL    HW3 3295   5.721   1.925   0.372 -0.9326 -0.3397 -1.1885
  882SOL    MW4 3296   5.793   1.971   0.357  0.0161  0.6078 -0.6008
  883SOL     OW 3297   3.848   4.966   1.152  0.0475  0.2854  0.4333
  883SOL    HW2 3298   3.811   4.995   1.069 -2.5318  0.1211  1.4408
  883SOL    HW3 3299   3.845   5.044   1.208 -0.0216 -0.0796  0.9433
  883SOL    MW4 3300   3.843   4.981   1.148  0.6426 -0.0697  0.6111
  884SOL     OW 3301   2.793   5.682   1.254  0.2324  0.6863 -0.7654
  884SOL    HW2 3302   2.881   5.692   1.217  0.5528 -3.2377 -1.5447
  884SOL    HW3 3303   2.735   5.722   1.189  1.3053  1.5634 -1.2167
  884SOL    MW4 3304   2.797   5.689   1.241 -0.0978  0.3306  0.1210
  885SOL     OW 3305   2.244   2.211   0.761  0.1031  0.1789 -0.2150
  885SOL    HW2 3306   2.301   2.139   0.732  0.6324  0.7121 -0.5078
  885SOL    HW3 3307   2.203   2.243   0.681 -0.3195  0.0446 -0.0515
  885SOL    MW4 3308   2.246   2.206   0.747 -0.3138 -0.0340 -0.3759
  886SOL     OW 3309   2.936   4.151   3.042 -0.2878 -0.0626 -1.1103
  886SOL    HW2 3310   2.992   4.073   3.031 -0.2106 -0.2160  0.2072
  886SOL    HW3 3311   2.980   4.219   2.993 -0.7082 -1.0001 -2.8707
  886SOL    MW4 3312   2.949   4.149   3.034  0.7505 -0.3309  0.2147
  887SOL     OW 3313   4.605   3.720   6.001 -0.2328 -0.1947 -0.2447
  887SOL    HW2 3314   4.654   3.671   6.068 -1.8835 -1.7094 -0.0584
  887SOL    HW3 3315   4.630   3.811   6.015  0.0024 -0.5435  2.0207
  887SOL    MW4 3316   4.615   3.726   6.012  0.0993 -0.3257 -0.4162
  888SOL     OW 3317   5.289   6.200   1.193  0.3576  0.1932  1.1098
  888SOL    HW2 3318   5.364   6.141   1.189 -0.1817 -0.4514 -0.8559
  888SOL    HW3 3319   5.227   6.164   1.129 -0.4967  2.2152  0.7204
  888SOL    MW4 3320   5.291   6.187   1.184 -0.0173  0.1104  0.4198
  889SOL     OW 3321   0.942   0.143   0.821 -0.3808  0.2586 -0.1150
  889SOL    HW2 3322   0.990   0.116   0.899  0.9804 -0.2957 -1.1077
  889SOL    HW3 3323   0.852   0.157   0.851  0.1239  0.0779  1.5374
  889SOL    MW4 3324   0.937   0.141   0.835 -0.2668  0.0985 -0.0172
  890SOL     OW 3325   4.704   0.693   1.487 -0.7772 -0.0723  0.1829
  890SOL    HW2 3326   4.675   0.618   1.436 -1.3479 -0.9828  1.7843
  890SOL    HW3 3327   4.790   0.667   1.521 -0.7878  0.1681  0.3950
  890SOL    MW4 3328   4.712   0.680   1.485  0.4056  0.5378  0.4828
  891SOL     OW 3329   2.190   3.516   5.082 -0.6466  0.8199  0.0289
  891SOL    HW2 3330   2.163   3.438   5.132  1.2620 -0.8601 -1.3895
  891SOL    HW3 3331   2.130   3.518   5.008  1.1953 -1.3052 -1.6605
  891SOL    MW4 3332   2.178   3.506   5.079  0.5205 -0.0938 -0.1314
  892SOL     OW 3333   2.147   0.571   6.153  0.2962  0.2119  0.1575
  892SOL    HW2 3334   2.211   0.520   6.203  0.1012  0.6244  0.8336
  892SOL    HW3 3335   2.079   0.593   6.217 -0.0550  0.5788 -0.3394
  892SOL    MW4 3336   2.147   0.567   6.168  0.7460 -0.1412 -0.8308
  893SOL     OW 3337   3.684   4.609   3.625  0.6788 -0.4118  0.0013
  893SOL    HW2 3338   3.610   4.551   3.607 -0.0486  0.5538 -0.2098
  893SOL    HW3 3339   3.668   4.641   3.714 -0.4853  1.6389 -0.8688
  893SOL    MW4 3340   3.672   4.605   3.635 -0.1587  0.4284  0.2185
  894SOL     OW 3341   3.946   2.136   4.128 -0.1515  0.1838 -0.0185
  894SOL    HW2 3342   4.023   2.094   4.166  0.3124 -1.1724 -2.2793
  894SOL    HW3 3343   3.877   2.069   4.131 -0.0525 -0.0353 -1.6207
  894SOL    MW4 3344   3.947   2.122   4.133  0.1182  0.1482  0.0066
  895SOL     OW 3345   1.898   2.151   3.261 -0.0423 -0.3815 -0.2874
  895SOL    HW2 3346   1.840   2.081   3.229 -0.5490  0.4787 -1.3203
  895SOL    HW3 3347   1.862   2.231   3.223  1.5154  0.2470 -0.4977
  895SOL    MW4 3348   1.886   2.152   3.252  0.4980 -0.1359  0.4899
  896SOL     OW 3349   5.486   2.772   6.177  0.1572 -0.1599  0.0209
  896SOL    HW2 3350   5.550   2.795   6.110  2.9447 -0.9266  2.2123
  896SOL    HW3 3351   5.451   2.856   6.207  1.3661  0.4228 -0.1389
  896SOL    MW4 3352   5.490   2.786   6.173 -0.2879  0.3623  0.4653
  897SOL     OW 3353   4.706   3.934   5.692  0.7381  1.0019 -0.0927
  897SOL    HW2 3354   4.641   3.929   5.622  1.3964 -0.0439 -0.6484
  897SOL    HW3 3355   4.654   3.947   5.772 -0.0594  1.4546 -0.6736
  897SOL    MW4 3356   4.690   3.935   5.694  0.2673 -0.4323  0.0166
  898SOL     OW 3357   0.114   1.733   2.452 -0.2177 -0.1808 -0.2513
  898SOL    HW2 3358   0.089   1.668   2.517 -0.6961 -0.5669 -0.8132
  898SOL    HW3 3359   0.135   1.811   2.504  1.6528 -1.1435  0.5194
  898SOL    MW4 3360   0.113   1.735   2.467  0.5585 -0.2260  0.4122
  899SOL     OW 3361   2.084   2.693   3.979  0.2873  0.0679 -0.2047
  899SOL    HW2 3362   2.166   2.741   3.978 -1.2107  2.8235 -0.7376
  899SOL    HW3 3363   2.030   2.738   4.044 -1.1508 -1.0716 -0.5338
  899SOL    MW4 3364   2.088   2.705   3.988  0.9258 -0.2157 -0.1664
  900SOL     OW 3365   6.403   4.280   1.332  0.1375  0.1366  0.1567
  900SOL    HW2 3366   6.453   4.229   1.267  0.7492  1.6379 -0.6025
  900SOL    HW3 3367   6.314   4.281   1.298 -0.0133 -0.8681  0.4736
  900SOL    MW4 3368   6.398   4.273   1.319  0.0251  0.2335  0.1373
  901SOL     OW 3369   3.025   2.072   1.358  0.4012 -0.0747 -0.1010
  901SOL    HW2 3370   2.950   2.083   1.300  2.0485  1.3571 -2.0786
  901SOL    HW3 3371   3.080   2.148   1.342  3.0302 -1.7878  0.1014
  901SOL    MW4 3372   3.022   2.083   1.348  0.1370 -0.4211 -0.2123
  902SOL     OW 3373   5.507   3.300   0.302  0.0061 -0.8992  0.8898
  902SOL    HW2 3374   5.577   3.275   0.363  0.5921  1.9946  1.5262
  902SOL    HW3 3375   5.440   3.232   0.314  2.1865 -3.2023  1.0104
  902SOL    MW4 3376   5.508   3.288   0.312 -0.2917  0.2286  0.2118
  903SOL     OW 3377   1.537   6.066   2.844 -0.2550 -0.0153  0.2731
  903SOL    HW2 3378   1.531   6.019   2.927 -1.4304 -0.1802  0.1042
  903SOL    HW3 3379   1.516   6.000   2.777 -0.0269  0.2886 -0.1032
  903SOL    MW4 3380   1.534   6.051   2.846  0.0312  0.2277 -0.0483
  904SOL     OW 3381   4.581   2.198   5.790 -0.3193 -0.3634  0.5323
  904SOL    HW2 3382   4.664   2.165   5.823 -0.3772 -1.2671 -0.2037
  904SOL    HW3 3383   4.603   2.247   5.712 -0.6102 -2.0372 -0.6558
  904SOL    MW4 3384   4.595   2.200   5.784 -0.1747 -0.2276  0.0712
  905SOL     OW 3385   3.179   5.825   2.824 -0.9861  0.2304 -0.2079
  905SOL    HW2 3386   3.085   5.836   2.816 -1.3620 -1.6995  0.7913
  905SOL    HW3 3387   3.190   5.763   2.896  1.0195  0.0042 -0.6327
  905SOL    MW4 3388   3.168   5.818   2.832  0.2303  0.6139 -0.1637
  906SOL     OW 3389   0.119   2.147   5.340 -0.0392 -0.1910 -0.1592
  906SOL    HW2 3390   0.137   2.074   5.400  2.3085 -0.3785 -0.9935
  906SOL    HW3 3391   0.162   2.122   5.259 -1.9725  0.7027 -1.5303
  906SOL    MW4 3392   0.127   2.134   5.338  0.1634  0.4079  0.5278
  907SOL     OW 3393   4.575   0.398   1.950  0.1857 -0.3026  0.1739
  907SOL    HW2 3394   4.647   0.434   2.001  0.4798  2.1958 -1.8363
  907SOL    HW3 3395   4.502   0.458   1.967 -0.5650 -1.1272 -0.0942
  907SOL    MW4 3396   4.575   0.411   1.959  0.3187 -0.5009  0.3658
  908SOL     OW 3397   1.939   5.740   0.013  0.0458  0.2349 -0.0321
  908SOL    HW2 3398   1.871   5.676   0.036 -0.5051  1.3765  1.7959
  908SOL    HW3 3399   1.895   5.801  -0.046 -0.8216  1.3954  1.7345
  908SOL    MW4 3400   1.924   5.740   0.008  0.6691  0.1007 -0.3150
  909SOL     OW 3401   3.083   0.767   0.169 -0.1792  0.3752  0.0478
  909SOL    HW2 3402   3.139   0.773   0.247  0.5405 -3.0768 -0.0316
  909SOL    HW3 3403   3.143   0.741   0.099 -1.5256 -1.4762 -0.4792
  909SOL    MW4 3404   3.098   0.765   0.170 -0.1413 -0.0808  0.1118
  910SOL     OW 3405   1.225   6.034   3.780 -0.1174  0.0472 -0.4958
  910SOL    HW2 3406   1.170   6.105   3.749 -0.1270  0.4776  0.4599
  910SOL    HW3 3407   1.270   6.070   3.857 -0.6764 -1.1854  0.4589
  910SOL    MW4 3408   1.224   6.048   3.786 -0.2763 -0.3067 -0.6004
  911SOL     OW 3409   4.984   0.659   3.969 -0.2284 -0.4559  0.6749
  911SOL    HW2 3410   4.959   0.600   4.039 -1.8172 -0.6754 -0.0322
  911SOL    HW3 3411   5.077   0.676   3.983  0.1367 -2.6603  1.2305
  911SOL    MW4 3412   4.993   0.653   3.980  0.4272 -0.4000  0.6982
  912SOL     OW 3413   1.866   4.624   3.513 -0.2841  0.4727 -0.2132
  912SOL    HW2 3414   1.790   4.682   3.518 -0.6012 -0.0191  0.9972
  912SOL    HW3 3415   1.927   4.659   3.577  0.0869  0.2740 -0.4566
  912SOL    MW4 3416   1.864   4.636   3.522 -0.0324 -0.3171 -0.5612
  913SOL     OW 3417   2.057   5.956   5.451  0.2794  0.5556  0.2859
  913SOL    HW2 3418   2.101   5.939   5.535  0.2729  1.3663  0.4546
  913SOL    HW3 3419   2.033   5.869   5.420  1.4323  0.1411  0.5006
  913SOL    MW4 3420   2.060   5.942   5.458  0.8504  0.1610  0.4375
  914SOL     OW 3421   4.972   4.851   4.159 -0.1381 -0.0065 -0.1137
  914SOL    HW2 3422   4.994   4.762   4.133 -0.8091  0.0900 -1.0509
  914SOL    HW3 3423   4.920   4.841   4.238 -1.7224 -0.5695 -1.1852
  914SOL    MW4 3424   4.968   4.838   4.166  0.6083  0.5954 -0.4959
  915SOL     OW 3425   4.940   6.355   6.066 -0.0502  0.0336  0.1579
  915SOL    HW2 3426   4.953   6.277   6.013  1.2711 -0.3723  1.0323
  915SOL    HW3 3427   4.851   6.384   6.045  0.6445  0.3402 -2.8009
  915SOL    MW4 3428   4.930   6.349   6.057  0.2771  0.2380 -0.4842
  916SOL     OW 3429   0.484   0.760   1.971 -0.2645 -0.3293  0.9303
  916SOL    HW2 3430   0.420   0.692   1.949 -0.2066  0.0742 -0.6149
  916SOL    HW3 3431   0.491   0.813   1.892  1.5312  0.0118  1.2636
  916SOL    MW4 3432   0.477   0.758   1.958 -0.0925 -0.2637  0.2670
  917SOL     OW 3433   2.164   0.842   4.760  0.0461 -0.0611 -0.2998
  917SOL    HW2 3434   2.093   0.906   4.767 -0.1789 -0.4734  1.9002
  917SOL    HW3 3435   2.200   0.836   4.848  3.1305  0.4043 -1.3825
  917SOL    MW4 3436   2.159   0.850   4.772 -0.0038 -0.2431 -0.8102
  918SOL     OW 3437   4.440   0.454   3.639 -0.4118  0.0866  0.1424
  918SOL    HW2 3438   4.382   0.419   3.707 -2.4735  1.5780 -0.7469
  918SOL    HW3 3439   4.429   0.394   3.565  0.3678 -0.4767  0.4778
  918SOL    MW4 3440   4.431   0.442   3.638 -0.2045  0.2632 -0.1933
  919SOL     OW 3441   6.252   3.335   1.590  0.2440  0.6319 -0.1506
  919SOL    HW2 3442   6.267   3.427   1.609  1.4011  0.1965  1.1986
  919SOL    HW3 3443   6.284   3.323   1.501 -0.7672  1.7009 -0.6873
  919SOL    MW4 3444   6.258   3.345   1.581 -0.3769  0.0370  0.2769
  920SOL     OW 3445   0.136   1.376   2.871 -0.1275 -0.3755 -0.2618
  920SOL    HW2 3446   0.175   1.295   2.838 -0.7089 -0.1996 -1.4175
  920SOL    HW3 3447   0.058   1.347   2.919  0.1268 -0.5530  0.0485
  920SOL    MW4 3448   0.131   1.361   2.873 -0.5900 -0.1316  0.2012
  921SOL     OW 3449   1.692   2.995   3.489 -0.7888 -0.1276  0.5128
  921SOL    HW2 3450   1.674   3.086   3.468 -0.4449 -0.4515 -1.3799
  921SOL    HW3 3451   1.677   2.988   3.584 -1.0133  1.8204  0.6514
  921SOL    MW4 3452   1.688   3.006   3.499  0.0141  0.6364 -0.8962
  922SOL     OW 3453   4.845   2.947   1.022 -0.3826  0.3689  0.0890
  922SOL    HW2 3454   4.841   2.919   0.931 -1.4534  1.5998 -0.2726
  922SOL    HW3 3455   4.778   3.015   1.029 -0.5842  0.0307  1.8961
  922SOL    MW4 3456   4.836   2.952   1.011 -0.0068 -0.6015 -0.3980
  923SOL     OW 3457   4.641   2.484   0.207 -0.2861  0.2150  0.8314
  923SOL    HW2 3458   4.712   2.433   0.246 -0.1481 -0.2229  0.0408
  923SOL    HW3 3459   4.672   2.503   0.118 -2.1201 -2.0511 -0.3953
  923SOL    MW4 3460   4.655   2.480   0.200  0.3280 -0.1610  0.5392
  924SOL     OW 3461   1.691   4.166   1.186 -0.7198 -0.2939 -0.3808
  924SOL    HW2 3462   1.645   4.115   1.254  0.6662  0.9141  1.5772
  924SOL    HW3 3463   1.745   4.102   1.141  0.8976 -0.7239  1.9526
  924SOL    MW4 3464   1.692   4.151   1.189  0.2381 -0.7470 -0.3423
  925SOL     OW 3465   4.546   0.088   4.092  0.1650 -0.1797 -0.7639
  925SOL    HW2 3466   4.450   0.092   4.093  0.0653 -1.0940 -2.4200
  925SOL    HW3 3467   4.573   0.159   4.035  0.4775 -0.0197 -0.4230
  925SOL    MW4 3468   4.537   0.098   4.085  0.6100  0.3794 -0.1835
  926SOL     OW 3469   6.333   4.222   5.722  0.1157 -0.0212  0.0247
  926SOL    HW2 3470   6.406   4.279   5.744  0.5990 -0.6084 -0.0316
  926SOL    HW3 3471   6.255   4.276   5.736  0.4350 -0.0394  2.1296
  926SOL    MW4 3472   6.332   4.236   5.727 -0.0455 -0.2292 -0.6380
  927SOL     OW 3473   4.742   2.657   3.680  0.4723  0.5564  0.2176
  927SOL    HW2 3474   4.715   2.591   3.744  1.1716  0.1078  0.0585
  927SOL    HW3 3475   4.802   2.714   3.728 -1.1424  1.9148  0.7420
  927SOL    MW4 3476   4.746   2.656   3.695 -0.3639 -0.4740  0.1560
  928SOL     OW 3477   1.929   4.808   2.137 -0.7449  0.3006  0.2196
  928SOL    HW2 3478   1.876   4.854   2.202  0.5677  1.1335  0.7405
  928SOL    HW3 3479   2.019   4.812   2.171 -0.4294 -1.7937 -0.2157
  928SOL    MW4 3480   1.934   4.815   2.150  0.3672  0.0991 -0.1270
  929SOL     OW 3481   2.892   3.190   3.496 -0.0383  0.8351 -0.3342
  929SOL    HW2 3482   2.820   3.179   3.559  0.6014 -2.8731 -0.0062
  929SOL    HW3 3483   2.859   3.153   3.415  1.0193  0.2540 -0.5263
  929SOL    MW4 3484   2.878   3.183   3.494 -0.7275  0.5022 -0.7156
  930SOL     OW 3485   6.369   3.403   4.261  0.5503 -0.5326 -0.1514
  930SOL    HW2 3486   6.412   3.376   4.342  0.0933  0.3417  0.3937
  930SOL    HW3 3487   6.354   3.497   4.272 -0.3035 -0.5700 -0.8809
  930SOL    MW4 3488   6.373   3.412   4.273  0.7037 -0.1914  0.3123
  931SOL     OW 3489   5.512   5.172   1.918  0.6691  0.9264 -0.4739
  931SOL    HW2 3490   5.468   5.151   1.836  2.3129  1.0507 -1.4328
  931SOL    HW3 3491   5.557   5.255   1.901 -0.2814  1.8092  1.1008
  931SOL    MW4 3492   5.512   5.180   1.905 -0.3100 -0.6371 -0.0270
  932SOL     OW 3493   5.007   1.306   6.268  0.1734  1.1637 -0.6256
  932SOL    HW2 3494   5.064   1.379   6.291  0.4356  0.4195  1.2250
  932SOL    HW3 3495   4.964   1.282   6.350 -0.6904 -0.1040 -1.4101
  932SOL    MW4 3496   5.009   1.313   6.282  0.7527  1.0305 -0.4249
  933SOL     OW 3497   4.345   3.714   2.378  0.8978 -0.2905 -0.6198
  933SOL    HW2 3498   4.312   3.792   2.423  2.1069  0.3779 -0.8366
  933SOL    HW3 3499   4.268   3.674   2.339  0.4009  1.6447 -1.7673
  933SOL    MW4 3500   4.331   3.719   2.378  0.3293  0.4750 -0.7696
  934SOL     OW 3501   0.448   3.797   3.059 -0.7559  0.1831 -0.2243
  934SOL    HW2 3502   0.355   3.778   3.053 -1.0424  1.7215 -1.0057
  934SOL    HW3 3503   0.462   3.819   3.151 -1.0046 -0.7045  0.0413
  934SOL    MW4 3504   0.438   3.797   3.071 -0.0204  0.0191  0.1726
  935SOL     OW 3505   4.837   0.006   0.393  0.0554  0.1921 -0.4800
  935SOL    HW2 3506   4.756   0.057   0.390 -0.7334 -1.0315 -0.7261
  935SOL    HW3 3507   4.904   0.069   0.418 -0.8027  1.4431 -1.1968
  935SOL    MW4 3508   4.835   0.021   0.396 -0.2207 -0.9732 -0.2470
  936SOL     OW 3509   3.125   0.443   0.417 -0.5298 -0.6955 -0.2242
  936SOL    HW2 3510   3.181   0.464   0.342  1.2487 -0.4755  1.1175
  936SOL    HW3 3511   3.044   0.411   0.377  0.0990  0.0536 -2.2412
  936SOL    MW4 3512   3.121   0.441   0.402  0.3659 -0.4163 -0.2758
  937SOL     OW 3513   2.506   2.229   2.732 -0.1880  0.3827  0.4941
  937SOL    HW2 3514   2.579   2.219   2.793  2.3953  0.1946 -2.3930
  937SOL    HW3 3515   2.471   2.316   2.750  1.2128  0.7622  1.5165
  937SOL    MW4 3516   2.511   2.239   2.742  0.4640 -0.1531  0.2431
  938SOL     OW 3517   3.360   2.210   2.157  0.0690  0.3693  0.1175
  938SOL    HW2 3518   3.413   2.255   2.223  1.1196 -1.5920  0.6751
  938SOL    HW3 3519   3.382   2.253   2.075  1.8604  0.1950  0.4762
  938SOL    MW4 3520   3.370   2.222   2.155 -0.1842  0.3499 -0.1895
  939SOL     OW 3521   0.888   5.143   1.057 -0.0530  0.5832  0.2707
  939SOL    HW2 3522   0.847   5.215   1.010  0.3209 -0.2509 -1.3904
  939SOL    HW3 3523   0.850   5.064   1.019  0.5450 -0.1260  1.1052
  939SOL    MW4 3524   0.878   5.143   1.046  0.2042 -0.1525  0.4792
  940SOL     OW 3525   5.383   4.211   3.885 -0.2139  0.2241 -0.0466
  940SOL    HW2 3526   5.316   4.278   3.880  0.0148  0.4258 -0.4156
  940SOL    HW3 3527   5.375   4.175   3.974  0.0108  1.1037  0.3366
  940SOL    MW4 3528   5.373   4.215   3.896 -0.5247 -0.3972 -0.6391
  941SOL     OW 3529   0.338   3.370   3.411  0.2118 -0.3236 -0.2708
  941SOL    HW2 3530   0.331   3.466   3.411 -2.3950 -0.4430  0.7493
  941SOL    HW3 3531   0.287   3.343   3.334 -0.1339 -0.9275  0.1692
  941SOL    MW4 3532   0.330   3.379   3.401 -0.1963 -0.0777 -0.2430
  942SOL     OW 3533   4.488   2.055   1.495 -0.2558  0.5489  0.0954
  942SOL    HW2 3534   4.404   2.080   1.455 -0.2215  1.1859  0.4109
  942SOL    HW3 3535   4.481   2.085   1.586  0.9694  2.1646 -0.3122
  942SOL    MW4 3536   4.476   2.062   1.502 -0.0455  0.6536 -0.0083
  943SOL     OW 3537   3.191   2.548   2.672 -0.1159 -0.5322  0.0486
  943SOL    HW2 3538   3.239   2.481   2.720 -1.2814 -0.4083  1.4512
  943SOL    HW3 3539   3.102   2.543   2.706 -0.3633  1.3686 -0.2085
  943SOL    MW4 3540   3.186   2.538   2.683 -0.1661 -0.2856 -0.4031
  944SOL     OW 3541   6.368   1.382   1.716  0.1236 -0.3741  0.4891
  944SOL    HW2 3542   6.456   1.365   1.682  0.3372  0.5279  0.5700
  944SOL    HW3 3543   6.359   1.322   1.790  0.0093 -1.6882 -0.5499
  944SOL    MW4 3544   6.378   1.372   1.721  0.1301  0.1278  0.0984
  945SOL     OW 3545   4.078   4.581   4.224 -0.2877  0.6224 -0.6503
  945SOL    HW2 3546   4.010   4.536   4.174 -0.3481  2.0454 -1.9176
  945SOL    HW3 3547   4.081   4.534   4.307 -3.9417  1.4344  0.1081
  945SOL    MW4 3548   4.069   4.569   4.228  0.6787 -0.5649 -0.0016
  946SOL     OW 3549   2.847   4.836   3.647 -0.6242 -0.9244 -0.1954
  946SOL    HW2 3550   2.843   4.930   3.664 -1.8839 -1.0672  0.3869
  946SOL    HW3 3551   2.765   4.816   3.602  0.1970 -1.5415 -1.4790
  946SOL    MW4 3552   2.836   4.846   3.643  0.0672  0.4776 -0.4002
  947SOL     OW 3553   3.299   0.563   0.822  0.2754  0.7722  0.1612
  947SOL    HW2 3554   3.269   0.479   0.858  0.6871  0.1534 -0.8930
  947SOL    HW3 3555   3.293   0.624   0.895 -1.8260  0.2665  0.4897
  947SOL    MW4 3556   3.294   0.560   0.836 -0.0228 -0.2345 -0.1290
  948SOL     OW 3557   2.961   0.904   5.121  0.2437 -0.6143 -0.0845
  948SOL    HW2 3558   2.988   0.900   5.213 -0.3976 -1.8283  0.0787
  948SOL    HW3 3559   2.968   0.996   5.098  0.1920 -0.2474  1.2573
  948SOL    MW4 3560   2.966   0.915   5.130  0.5481 -0.1166  0.2761
  949SOL     OW 3561   4.373   5.101   3.944 -0.4989  0.4188 -0.2537
  949SOL    HW2 3562   4.321   5.156   4.003 -4.0050  0.9509 -3.4394
  949SOL    HW3 3563   4.435   5.161   3.903  0.2160  0.5529  0.9760
  949SOL    MW4 3564   4.374   5.116   3.946 -1.1799 -0.5772 -0.0228
  950SOL     OW 3565   4.289   5.911   6.350 -0.2593 -0.3339 -0.1320
  950SOL    HW2 3566   4.283   5.971   6.275  3.3741  0.1663 -0.2029
  950SOL    HW3 3567   4.282   5.824   6.311 -2.2664 -0.0789 -0.4601
  950SOL    MW4 3568   4.287   5.907   6.335 -0.0861 -0.3934 -0.1689
  951SOL     OW 3569   3.328   3.039   0.989 -0.3097 -0.9208  0.5548
  951SOL    HW2 3570   3.330   2.966   0.927 -2.4631 -1.8321  1.4685
  951SOL    HW3 3571   3.365   3.112   0.940  1.5159 -2.4808 -0.5262
  951SOL    MW4 3572   3.333   3.039   0.974  0.6489  0.3350  0.0203
  952SOL     OW 3573   1.514   6.216   2.251  0.0328 -0.1733 -0.5646
  952SOL    HW2 3574   1.454   6.158   2.205 -0.2040 -0.4714  0.1116
  952SOL    HW3 3575   1.575   6.246   2.184 -1.3259  0.7536 -1.4300
  952SOL    MW4 3576   1.514   6.212   2.236  0.1562  0.0722 -0.1953
  953SOL     OW 3577   2.251   0.966   4.470 -0.0378  0.1847 -0.3715
  953SOL    HW2 3578   2.346   0.978   4.460 -0.2893  1.2550 -1.8382
  953SOL    HW3 3579   2.239   0.948   4.563  1.6500 -0.5008 -0.2541
  953SOL    MW4 3580   2.262   0.965   4.481  0.3917 -0.5251  0.1608
  954SOL     OW 3581   5.157   4.515   2.152  0.2286  0.1911  0.2891
  954SOL    HW2 3582   5.167   4.607   2.127  1.4768  0.1397  0.4971
  954SOL    HW3 3583   5.082   4.484   2.101  0.1082  1.1829 -0.1750
  954SOL    MW4 3584   5.149   4.523   2.142  0.3974  0.6100  0.1753
  955SOL     OW 3585   4.599   3.243   1.611 -0.0997 -0.3501 -0.1908
  955SOL    HW2 3586   4.640   3.169   1.566 -0.6624 -0.7701 -0.0233
  955SOL    HW3 3587   4.585   3.212   1.701  0.6946  0.3594  0.1863
  955SOL    MW4 3588   4.602   3.229   1.617  0.2894  0.2022  0.4745
  956SOL     OW 3589   3.348   6.030   1.642  0.3330  0.5535 -0.0754
  956SOL    HW2 3590   3.378   5.959   1.699  0.5497  0.6350 -0.0863
  956SOL    HW3 3591   3.321   6.099   1.702 -1.3535 -0.1117 -0.0203
  956SOL    MW4 3592   3.349   6.030   1.658  0.5722 -0.2365  0.1067
  957SOL     OW 3593   1.957   1.394   5.361 -0.2210 -0.1430 -0.2463
  957SOL    HW2 3594   1.980   1.486   5.344 -0.8934 -0.1394 -1.2770
  957SOL    HW3 3595   1.871   1.384   5.321 -1.2604 -0.6027  1.9487
  957SOL    MW4 3596   1.949   1.405   5.353  0.6530  0.1288 -0.5101
  958SOL     OW 3597   3.587   3.825   5.002  0.3776 -0.6615 -0.0546
  958SOL    HW2 3598   3.595   3.866   4.916 -0.3764 -1.2516 -0.4174
  958SOL    HW3 3599   3.497   3.794   5.005 -0.1702  0.9353  1.6652
  958SOL    MW4 3600   3.576   3.827   4.991  0.3806 -0.6321  0.4310
  959SOL     OW 3601   2.019   1.867   3.334 -0.1198 -0.0932  0.3986
  959SOL    HW2 3602   1.935   1.829   3.357 -0.4806 -1.4332 -2.5977
  959SOL    HW3 3603   2.083   1.801   3.361 -0.1412  0.2026  1.2019
  959SOL    MW4 3604   2.017   1.853   3.340  0.2809  1.0303 -0.1802
  960SOL     OW 3605   4.414   4.918   2.321 -0.8038  0.3776  0.2063
  960SOL    HW2 3606   4.407   4.912   2.226  0.3103 -1.7585  0.2049
  960SOL    HW3 3607   4.371   4.839   2.354 -0.9841  0.9750  1.4912
  960SOL    MW4 3608   4.407   4.907   2.313  0.5200  0.2037 -0.0623
  961SOL     OW 3609   1.163   6.170   5.495  0.0774  0.6450 -0.1138
  961SOL    HW2 3610   1.254   6.164   5.464  0.0887  1.4717 -0.2595
  961SOL    HW3 3611   1.171   6.186   5.589  0.0707  0.3119 -0.0537
  961SOL    MW4 3612   1.176   6.171   5.503 -0.0166  0.3896 -0.2268
  962SOL     OW 3613   3.216   0.185   0.581  0.7028  0.1718  0.0666
  962SOL    HW2 3614   3.158   0.249   0.539  0.7290 -0.0037 -0.2414
  962SOL    HW3 3615   3.173   0.163   0.664  0.1129 -0.2770 -0.3505
  962SOL    MW4 3616   3.203   0.191   0.586  0.3104 -0.0647 -0.2663
  963SOL     OW 3617   4.128   3.233   4.148  0.6837 -0.5379  0.4673
  963SOL    HW2 3618   4.191   3.281   4.201 -0.4568 -1.1787  2.5022
  963SOL    HW3 3619   4.043   3.257   4.184 -0.3091  0.2207 -2.1183
  963SOL    MW4 3620   4.125   3.243   4.159 -0.2151  0.1619  0.3657
  964SOL     OW 3621   3.806   2.832   1.558 -0.2985 -0.2659  0.4508
  964SOL    HW2 3622   3.838   2.847   1.647 -0.1970  2.1237  0.0765
  964SOL    HW3 3623   3.874   2.868   1.501 -2.0233  1.8435 -0.4359
  964SOL    MW4 3624   3.819   2.839   1.562 -0.4356  0.3518 -0.3430
  965SOL     OW 3625   6.390   2.688   0.358  0.1735  0.4810 -0.5888
  965SOL    HW2 3626   6.359   2.678   0.448 -1.2665  1.6253 -0.9242
  965SOL    HW3 3627   6.485   2.682   0.365  0.0373 -0.2804  0.8884
  965SOL    MW4 3628   6.399   2.686   0.371  0.5534  0.2672 -0.0664
  966SOL     OW 3629   0.027   2.451   1.484 -0.1484  0.0897  0.2533
  966SOL    HW2 3630   0.025   2.392   1.559 -1.9029  1.1291  1.1076
  966SOL    HW3 3631  -0.034   2.522   1.508 -0.4128  0.6963 -1.9616
  966SOL    MW4 3632   0.019   2.453   1.497  0.0844  0.3690  0.1220
  967SOL     OW 3633   3.135   1.588   3.751 -0.2162 -0.4656  0.7718
  967SOL    HW2 3634   3.220   1.630   3.766  0.0360 -1.0757  1.0789
  967SOL    HW3 3635   3.081   1.657   3.711  0.3487 -0.0064  0.7861
  967SOL    MW4 3636   3.139   1.603   3.748  0.0685  0.1843  0.3621
  968SOL     OW 3637   1.684   0.363   3.265 -0.0982 -0.4018  0.0161
  968SOL    HW2 3638   1.758   0.347   3.208 -0.0072 -1.0497  0.3139
  968SOL    HW3 3639   1.707   0.444   3.311  0.7793 -1.0041  0.6728
  968SOL    MW4 3640   1.697   0.372   3.264  0.0352  0.0546  0.5139
  969SOL     OW 3641   5.228   0.254   2.078  0.0651 -0.7013  0.8421
  969SOL    HW2 3642   5.147   0.305   2.073  0.4691  0.1587  2.3703
  969SOL    HW3 3643   5.220   0.189   2.008 -0.2698  1.7272 -1.5622
  969SOL    MW4 3644   5.217   0.252   2.068 -0.4603 -0.5107  0.4589
  970SOL     OW 3645   1.746   4.914   2.325  0.1679  0.2710 -0.0819
  970SOL    HW2 3646   1.798   4.930   2.403  0.6473  4.2211 -0.9932
  970SOL    HW3 3647   1.671   4.973   2.333 -2.6760 -2.9773 -0.3060
  970SOL    MW4 3648   1.743   4.923   2.336  0.6035  0.3107 -0.0553
  971SOL     OW 3649   6.244   0.192   4.709 -0.1010  1.1361  0.5371
  971SOL    HW2 3650   6.320   0.136   4.723 -0.8485  0.2392  1.1729
  971SOL    HW3 3651   6.235   0.243   4.789  0.4962  2.0922  0.0120
  971SOL    MW4 3652   6.253   0.191   4.721 -0.0126 -0.5261  0.8734
  972SOL     OW 3653   0.703   1.034   0.333  0.4879 -0.0106 -0.7104
  972SOL    HW2 3654   0.767   1.031   0.263  1.6395  1.3141  0.2474
  972SOL    HW3 3655   0.709   1.122   0.369 -0.4174 -0.4910  0.7328
  972SOL    MW4 3656   0.712   1.045   0.329  0.2700 -0.4803  0.4066
  973SOL     OW 3657   4.361   0.939   0.037  0.0813  0.1034  0.3271
  973SOL    HW2 3658   4.394   0.955  -0.052  1.8341 -1.4613  0.6415
  973SOL    HW3 3659   4.266   0.943   0.027  0.2381  0.5077 -1.5196
  973SOL    MW4 3660   4.353   0.941   0.024  0.3139  0.3492 -0.3433
  974SOL     OW 3661   1.929   6.199   1.844 -0.0214  0.5634 -0.2076
  974SOL    HW2 3662   1.959   6.165   1.759 -0.5357 -1.7450  0.4715
  974SOL    HW3 3663   1.996   6.172   1.906 -0.3417  1.0038  0.3397
  974SOL    MW4 3664   1.942   6.191   1.841 -0.0469 -0.1573 -0.0331
  975SOL     OW 3665   4.295   3.952   2.582  1.1154  0.0504 -0.1850
  975SOL    HW2 3666   4.310   3.905   2.663  1.2993 -0.5596 -0.5637
  975SOL    HW3 3667   4.220   4.009   2.599  2.4778  1.5593  1.0931
  975SOL    MW4 3668   4.287   3.954   2.595 -0.1096 -0.1446 -0.3671
  976SOL     OW 3669   2.259   1.359   4.027  0.8187 -0.3811 -0.0688
  976SOL    HW2 3670   2.203   1.292   3.987 -0.4247  0.5144  0.1142
  976SOL    HW3 3671   2.262   1.430   3.962  0.1441  0.3860  0.7216
  976SOL    MW4 3672   2.252   1.360   4.013 -0.3836 -0.5363 -0.3706
  977SOL     OW 3673   4.129   5.384   1.675 -0.4813 -0.0432  0.0602
  977SOL    HW2 3674   4.174   5.437   1.609  2.1222 -0.2064  1.5331
  977SOL    HW3 3675   4.075   5.446   1.724 -2.0614  0.1545 -1.8146
  977SOL    MW4 3676   4.128   5.399   1.673  0.0289  0.0242  0.1454
  978SOL     OW 3677   1.654   2.835   4.763  0.3814  0.0829  0.0045
  978SOL    HW2 3678   1.676   2.792   4.680  0.5149  1.4990 -0.7251
  978SOL    HW3 3679   1.599   2.909   4.737  0.7890  0.8009  1.1373
  978SOL    MW4 3680   1.649   2.839   4.748  0.1244  0.5203 -0.0710
  979SOL     OW 3681   0.353   0.534   1.507  0.1157 -0.5871 -0.5014
  979SOL    HW2 3682   0.291   0.571   1.444 -0.4176 -1.6437 -0.6164
  979SOL    HW3 3683   0.307   0.535   1.590  0.5676  0.1646 -0.2480
  979SOL    MW4 3684   0.339   0.539   1.510  0.3029 -0.0435 -0.2910
  980SOL     OW 3685   3.269   5.428   0.014  0.3379 -0.2136  0.2468
  980SOL    HW2 3686   3.313   5.494   0.068  0.2464  1.9841 -2.1981
  980SOL    HW3 3687   3.184   5.468  -0.007  1.1887  0.0492 -3.2125
  980SOL    MW4 3688   3.264   5.442   0.019 -0.5461 -0.2001  0.1239
  981SOL     OW 3689   4.407   0.640   1.929 -0.3895 -0.4473 -0.2286
  981SOL    HW2 3690   4.329   0.625   1.982 -0.2971 -1.8784 -0.4491
  981SOL    HW3 3691   4.374   0.653   1.841 -0.4343 -0.0620 -0.1549
  981SOL    MW4 3692   4.393   0.640   1.925 -0.0963  0.0043 -0.2169
  982SOL     OW 3693   2.376   0.804   3.157  0.3726 -0.0142  0.5204
  982SOL    HW2 3694   2.403   0.892   3.184 -1.0402  0.7631 -0.4345
  982SOL    HW3 3695   2.347   0.815   3.066 -0.7630 -1.2506  0.7076
  982SOL    MW4 3696   2.376   0.817   3.148 -0.0007  0.4067  0.0714
  983SOL     OW 3697   5.797   5.864   5.079  0.0504  0.1507  0.0950
  983SOL    HW2 3698   5.760   5.868   5.167 -2.2153 -1.2983 -0.6700
  983SOL    HW3 3699   5.789   5.953   5.045  0.5366  0.6256  1.1804
  983SOL    MW4 3700   5.791   5.876   5.086  0.0939  0.2497 -0.1798
  984SOL     OW 3701   1.119   4.073   4.856  0.9952 -0.1518 -0.1404
  984SOL    HW2 3702   1.182   4.008   4.823  0.4140 -1.1743  0.7157
  984SOL    HW3 3703   1.124   4.066   4.951  1.0958  1.2521 -0.0214
  984SOL    MW4 3704   1.128   4.063   4.864 -0.2513 -0.1740  0.5078
  985SOL     OW 3705   6.299   5.014   4.280 -0.3402 -0.4411  0.0758
  985SOL    HW2 3706   6.212   5.025   4.241  0.6922  3.2836 -1.6261
  985SOL    HW3 3707   6.356   4.993   4.206  0.7342  0.8181  0.5073
  985SOL    MW4 3708   6.295   5.013   4.265  0.1355  0.1285 -0.4146
  986SOL     OW 3709   4.595   4.041   0.220 -0.0974  0.1392  0.0199
  986SOL    HW2 3710   4.628   4.012   0.135 -0.6774  1.7712 -0.7980
  986SOL    HW3 3711   4.659   4.106   0.250 -1.9906  2.7531 -1.2235
  986SOL    MW4 3712   4.608   4.046   0.213  0.2482 -0.5623 -0.1065
  987SOL     OW 3713   1.306   0.071   3.983 -0.2474  0.0707  0.2991
  987SOL    HW2 3714   1.216   0.088   4.012 -0.1481 -0.2609  0.8125
  987SOL    HW3 3715   1.356   0.066   4.064  0.0535 -0.7790  0.0726
  987SOL    MW4 3716   1.300   0.073   3.998 -0.0796  0.3207  0.8112
  988SOL     OW 3717   3.215   4.953   1.072 -0.0548  0.2860  0.2719
  988SOL    HW2 3718   3.282   5.020   1.085  1.4307 -0.6477 -1.9617
  988SOL    HW3 3719   3.227   4.892   1.145  2.7525 -0.7260 -0.8902
  988SOL    MW4 3720   3.225   4.954   1.083  0.0766 -0.2546  0.2328
  989SOL     OW 3721   0.871   2.634   1.885 -0.4038  0.1630  0.3824
  989SOL    HW2 3722   0.912   2.548   1.880 -0.0040  0.3434  0.5042
  989SOL    HW3 3723   0.922   2.681   1.951 -1.2155  0.1698  1.0206
  989SOL    MW4 3724   0.883   2.629   1.893  0.3193  0.2277  0.0453
  990SOL     OW 3725   4.402   5.366   3.163 -0.5990  0.1728  0.0893
  990SOL    HW2 3726   4.317   5.366   3.207 -1.3507  1.6045 -1.2346
  990SOL    HW3 3727   4.384   5.403   3.076  1.6117  1.8777  0.2660
  990SOL    MW4 3728   4.388   5.371   3.157  0.0119  0.0871 -0.7900
  991SOL     OW 3729   2.689   4.038   5.444  0.8470  0.1983 -0.1844
  991SOL    HW2 3730   2.756   3.994   5.495  2.3366  0.8090 -1.5131
  991SOL    HW3 3731   2.733   4.116   5.409 -0.4883  0.4911 -1.3082
  991SOL    MW4 3732   2.704   4.043   5.446  0.3536  0.2447 -0.0758
  992SOL     OW 3733   6.064   2.415   0.949  0.0768  0.1640 -0.1715
  992SOL    HW2 3734   6.053   2.325   0.977  0.0405  0.1281 -0.2996
  992SOL    HW3 3735   6.036   2.415   0.857  2.0417 -0.1364 -0.8370
  992SOL    MW4 3736   6.059   2.403   0.940 -0.1251  0.3308 -0.7804
  993SOL     OW 3737   3.461   6.268   1.088  0.3037 -0.4528  0.5076
  993SOL    HW2 3738   3.495   6.342   1.038  0.9004 -2.1100 -1.6838
  993SOL    HW3 3739   3.371   6.293   1.109  0.4395  0.8137 -0.3209
  993SOL    MW4 3740   3.454   6.281   1.084  0.1761 -0.1364  0.0798
  994SOL     OW 3741   0.016   0.221   3.242  0.0002  0.5996  0.4905
  994SOL    HW2 3742   0.038   0.135   3.277 -0.7407 -0.0090 -0.4769
  994SOL    HW3 3743   0.010   0.208   3.147 -0.0881  1.7242  0.3218
  994SOL    MW4 3744   0.018   0.208   3.234 -0.2560 -0.4466 -0.1539
  995SOL     OW 3745   4.694   4.287   5.853  0.2888  0.5282 -0.2364
  995SOL    HW2 3746   4.750   4.288   5.930  0.5941  1.8913 -0.4481
  995SOL    HW3 3747   4.616   4.335   5.880 -0.1454 -0.0733 -0.4023
  995SOL    MW4 3748   4.691   4.293   5.866  0.1517  0.5390  0.3259
  996SOL     OW 3749   0.380   1.417   5.213 -0.1737  0.0688 -0.4654
  996SOL    HW2 3750   0.420   1.439   5.129  0.0125 -1.3928 -0.7862
  996SOL    HW3 3751   0.299   1.468   5.216  1.1080  2.2225 -0.3046
  996SOL    MW4 3752   0.375   1.427   5.203 -0.2471  0.6323 -0.6860
  997SOL     OW 3753   5.399   0.741   0.009  0.0793  0.7874  0.0610
  997SOL    HW2 3754   5.487   0.774   0.028  0.8564 -1.3633  0.4171
  997SOL    HW3 3755   5.393   0.744  -0.087  0.9730 -0.0550 -0.0342
  997SOL    MW4 3756   5.410   0.746  -0.001 -0.9057  0.5533 -0.0275
  998SOL     OW 3757   2.036   3.103   2.583 -0.1524  0.3695  0.1018
  998SOL    HW2 3758   2.102   3.159   2.625 -0.7418  1.1292  0.0425
  998SOL    HW3 3759   2.010   3.153   2.505 -0.0193 -0.4225 -0.4568
  998SOL    MW4 3760   2.041   3.117   2.578  0.4522  0.6142  0.0738
  999SOL     OW 3761   6.314   5.851   1.897  0.0678  0.0284  0.0534
  999SOL    HW2 3762   6.333   5.760   1.876 -1.2639 -0.3180  0.2617
  999SOL    HW3 3763   6.239   5.873   1.842 -1.9726 -0.1631  2.5548
  999SOL    MW4 3764   6.306   5.842   1.887  0.0703 -0.2710  0.1957
 1000SOL     OW 3765   1.407   0.135   0.846 -0.0059  0.5113 -0.0761
 1000SOL    HW2 3766   1.360   0.211   0.813  0.7420  1.1325  0.2528
 1000SOL    HW3 3767   1.426   0.156   0.937  0.2190 -0.0728  0.0187
 1000SOL    MW4 3768   1.403   0.148   0.853  0.0053 -0.1374 -0.3311
 1001SOL     OW 3769   4.198   2.257   4.427  0.4316 -0.3422 -0.4285
 1001SOL    HW2 3770   4.209   2.236   4.520  1.5843  0.2437 -0.4239
 1001SOL    HW3 3771   4.106   2.237   4.409  0.0087  0.1887  1.0101
 1001SOL    MW4 3772   4.187   2.251   4.437  0.4143 -0.8360 -0.1204
 1002SOL     OW 3773   4.116   5.784   1.373  0.1377  0.5133 -0.1323
 1002SOL    HW2 3774   4.077   5.706   1.333 -0.5125  1.5950 -1.7162
 1002SOL    HW3 3775   4.073   5.790   1.458 -0.3386 -0.4586 -0.2822
 1002SOL    MW4 3776   4.105   5.774   1.379 -0.4130 -0.4388 -0.2067
 1003SOL     OW 3777   0.290   4.066   3.259  0.4534 -0.1348 -0.8164
 1003SOL    HW2 3778   0.335   4.080   3.175  1.0953  1.3089 -0.2563
 1003SOL    HW3 3779   0.293   4.151   3.303  1.0924 -1.1154  1.1578
 1003SOL    MW4 3780   0.296   4.079   3.253 -0.0395  0.5399  0.1526
 1004SOL     OW 3781   0.721   5.706   1.393  0.1021 -0.3842 -0.3224
 1004SOL    HW2 3782   0.744   5.654   1.316  1.4731 -0.5753  0.1931
 1004SOL    HW3 3783   0.801   5.707   1.446 -0.9737 -0.6968  1.3625
 1004SOL    MW4 3784   0.735   5.700   1.390 -0.5032  0.7264  0.1944
 1005SOL     OW 3785   0.765   3.969   1.002 -0.0906  0.0592 -0.1391
 1005SOL    HW2 3786   0.857   3.950   0.986 -0.7560 -2.4000 -1.5880
 1005SOL    HW3 3787   0.728   3.886   1.033 -1.5176  1.4404  2.1775
 1005SOL    MW4 3788   0.772   3.956   1.004  0.6905  0.0659 -0.0894
 1006SOL     OW 3789   6.013   1.636   0.017 -0.4491  0.0686 -0.0641
 1006SOL    HW2 3790   5.985   1.586  -0.060 -0.1029  1.9155 -1.4459
 1006SOL    HW3 3791   6.073   1.576   0.063  0.7729 -0.4694 -2.2165
 1006SOL    MW4 3792   6.017   1.621   0.013  0.2611 -0.4943 -0.8694
 1007SOL     OW 3793   4.499   3.696   3.542 -0.4880  0.0797  0.2880
 1007SOL    HW2 3794   4.568   3.639   3.508  0.8288  1.5065  0.4497
 1007SOL    HW3 3795   4.441   3.710   3.467  0.8679  0.9642 -0.6576
 1007SOL    MW4 3796   4.500   3.691   3.528  0.3789 -0.7511  0.0431
 1008SOL     OW 3797   2.779   6.262   5.785 -0.8210  0.2119  0.1637
 1008SOL    HW2 3798   2.807   6.171   5.772  0.2576  0.5957 -0.3328
 1008SOL    HW3 3799   2.749   6.290   5.698 -1.1884  0.3221  0.3245
 1008SOL    MW4 3800   2.779   6.254   5.771 -0.3283  0.3365  0.2458
 1009SOL     OW 3801   3.857   4.043   3.518  0.1551 -0.0613  0.3332
 1009SOL    HW2 3802   3.811   4.051   3.601 -0.3207 -1.1126  0.1892
 1009SOL    HW3 3803   3.810   4.103   3.459  0.1141  0.2313  0.6586
 1009SOL    MW4 3804   3.845   4.052   3.521  0.0150 -0.4238  0.3399
 1010SOL     OW 3805   3.482   0.019   5.893 -0.2920  0.8452 -0.3477
 1010SOL    HW2 3806   3.473  -0.035   5.971 -1.7922  1.2061 -0.2396
 1010SOL    HW3 3807   3.524   0.100   5.925 -2.1870  1.5898  0.4217
 1010SOL    MW4 3808   3.486   0.023   5.908 -0.8218 -0.2285 -0.1198
 1011SOL     OW 3809   0.204   0.017   2.942 -0.3327 -0.0370 -0.7031
 1011SOL    HW2 3810   0.168  -0.034   3.015 -1.7507  1.0632 -0.5819
 1011SOL    HW3 3811   0.161   0.102   2.950 -0.1641  0.2527 -2.5544
 1011SOL    MW4 3812   0.193   0.021   2.953  0.2553  0.6576 -0.1331
 1012SOL     OW 3813   2.881   0.181   1.944 -0.1427  0.0547 -0.2912
 1012SOL    HW2 3814   2.862   0.270   1.974  1.0313  0.1315  0.2498
 1012SOL    HW3 3815   2.914   0.192   1.855 -0.0107  0.1500 -0.2292
 1012SOL    MW4 3816   2.883   0.194   1.936 -0.1911 -0.0135 -0.4066
 1013SOL     OW 3817   1.470   0.938   2.486  0.1883 -0.2796  0.1893
 1013SOL    HW2 3818   1.564   0.941   2.502  0.3354  1.6080 -0.7283
 1013SOL    HW3 3819   1.453   1.011   2.426 -1.8524 -0.6031  0.2790
 1013SOL    MW4 3820   1.480   0.948   2.480  0.0289 -0.0691 -0.7930
 1014SOL     OW 3821   1.557   1.902   3.505 -0.5556 -0.2705 -0.5077
 1014SOL    HW2 3822   1.522   1.986   3.475 -1.0304  0.0700  0.9241
 1014SOL    HW3 3823   1.526   1.894   3.596 -0.0848 -1.7525 -0.4531
 1014SOL    MW4 3824   1.548   1.912   3.513 -0.3219 -0.4017  0.7111
 1015SOL     OW 3825   3.734   0.121   0.227 -0.0357 -0.0381  0.0560
 1015SOL    HW2 3826   3.721   0.211   0.196  0.0945 -0.2964 -0.7723
 1015SOL    HW3 3827   3.712   0.125   0.320  2.0206  1.3389  0.5727
 1015SOL    MW4 3828   3.730   0.134   0.235  0.1314  0.2161 -0.1211
 1016SOL     OW 3829   3.664   4.181   4.597  0.0749  0.4193 -0.0513
 1016SOL    HW2 3830   3.760   4.185   4.590  0.2162  0.0005  1.3430
 1016SOL    HW3 3831   3.648   4.124   4.673 -1.2674  1.0755  0.1856
 1016SOL    MW4 3832   3.675   4.174   4.606  0.2822  0.1115  0.9334
 1017SOL     OW 3833   0.880   1.180   0.611  0.2038 -0.3435  0.2687
 1017SOL    HW2 3834   0.830   1.216   0.538 -1.5115  0.2711  1.6743
 1017SOL    HW3 3835   0.830   1.204   0.689  0.9039 -2.6377  1.5353
 1017SOL    MW4 3836   0.866   1.188   0.611 -0.2045  0.0394  0.2031
 1018SOL     OW 3837   5.698   0.308   6.361 -0.3546  0.1916 -0.0419
 1018SOL    HW2 3838   5.626   0.267   6.314 -0.4928 -0.2370  0.5423
 1018SOL    HW3 3839   5.657   0.355   6.433  0.0093 -0.8085  0.8418
 1018SOL    MW4 3840   5.683   0.309   6.364 -0.0547 -0.3439  0.3344
 1019SOL     OW 3841   6.134   0.599   6.318  0.0602 -0.5605  0.1259
 1019SOL    HW2 3842   6.161   0.594   6.410 -0.3977  1.7809  0.4574
 1019SOL    HW3 3843   6.041   0.620   6.322  0.1083 -0.1160 -0.8755
 1019SOL    MW4 3844   6.125   0.601   6.331  0.0062 -0.1924  0.1849
 1020SOL     OW 3845   3.442   5.567   5.869  0.5342  0.1390 -0.8249
 1020SOL    HW2 3846   3.364   5.522   5.901  0.5838  0.4054 -0.3196
 1020SOL    HW3 3847   3.491   5.499   5.823 -0.7830  0.3360 -2.6084
 1020SOL    MW4 3848   3.438   5.552   5.867  0.7120 -0.4973 -0.2984
 1021SOL     OW 3849   0.782   5.602   4.964  0.4354 -0.6833  0.7934
 1021SOL    HW2 3850   0.873   5.592   4.936  0.7074  0.0863  1.3502
 1021SOL    HW3 3851   0.733   5.543   4.907  1.0736  0.1041 -0.6340
 1021SOL    MW4 3852   0.788   5.593   4.953  0.5163 -0.3274  0.4044
 1022SOL     OW 3853   6.219   5.822   5.529 -0.1924 -0.6517  0.1974
 1022SOL    HW2 3854   6.308   5.797   5.503 -0.3945 -2.0764  0.7981
 1022SOL    HW3 3855   6.167   5.811   5.449  0.3530  1.3826 -0.4962
 1022SOL    MW4 3856   6.224   5.817   5.515 -0.5760  0.5086  0.6681
 1023SOL     OW 3857   5.618   0.364   5.445 -0.4546 -0.0995  0.3237
 1023SOL    HW2 3858   5.529   0.395   5.459 -0.8522 -1.0315 -0.0300
 1023SOL    HW3 3859   5.653   0.421   5.377 -0.5760  0.6344  0.8698
 1023SOL    MW4 3860   5.611   0.376   5.438 -0.4095 -0.4495 -0.2132
 1024SOL     OW 3861   3.073   5.640   4.726  0.0874  0.2032 -0.5207
 1024SOL    HW2 3862   3.027   5.687   4.795  1.0644  2.3546 -1.2341
 1024SOL    HW3 3863   3.010   5.634   4.654 -1.1450 -2.5947  0.6671
 1024SOL    MW4 3864   3.059   5.646   4.726 -0.2089  0.1439  0.2937
 1025SOL     OW 3865   4.219   3.343   1.866  0.1049  0.3355 -0.4645
 1025SOL    HW2 3866   4.153   3.407   1.839 -0.2595  0.1954  0.0853
 1025SOL    HW3 3867   4.202   3.267   1.811  0.4253  0.6420 -0.9956
 1025SOL    MW4 3868   4.208   3.342   1.855 -0.2696 -0.2071  0.0827
 1026SOL     OW 3869   4.805   5.001   0.520  0.6161  0.4491 -0.1283
 1026SOL    HW2 3870   4.851   4.917   0.530  0.0517 -0.0175 -1.2874
 1026SOL    HW3 3871   4.873   5.062   0.494  1.3837  0.8151  2.3964
 1026SOL    MW4 3872   4.820   4.998   0.518 -0.1120  0.5640  0.2815
 1027SOL     OW 3873   0.789   3.151   5.852 -0.0500 -0.1531 -0.2220
 1027SOL    HW2 3874   0.857   3.196   5.801  0.7870 -1.3142 -0.1739
 1027SOL    HW3 3875   0.808   3.174   5.943  0.2030 -0.3536 -0.2206
 1027SOL    MW4 3876   0.801   3.160   5.857 -0.2840 -0.3030  0.4913
 1028SOL     OW 3877   1.913   2.897   1.243 -0.0733 -0.0470  0.2177
 1028SOL    HW2 3878   1.873   2.961   1.185  0.6362 -0.3878 -0.6795
 1028SOL    HW3 3879   1.858   2.820   1.236 -2.4027  1.1420  3.2106
 1028SOL    MW4 3880   1.901   2.895   1.235 -0.0310  0.9534 -0.5764
 1029SOL     OW 3881   3.097   0.176   4.072 -0.3409 -0.5972  0.2628
 1029SOL    HW2 3882   3.021   0.187   4.128 -0.5137 -0.9791  0.1064
 1029SOL    HW3 3883   3.172   0.189   4.130 -0.5255  0.3284  0.3026
 1029SOL    MW4 3884   3.097   0.179   4.087  0.1936  0.2746 -0.1523
 1030SOL     OW 3885   0.808   3.343   3.626  0.0136  0.0238  0.1031
 1030SOL    HW2 3886   0.827   3.362   3.718 -1.6113 -2.0218  0.9434
 1030SOL    HW3 3887   0.715   3.360   3.617 -0.2608 -1.6228 -0.5984
 1030SOL    MW4 3888   0.798   3.348   3.637  0.2041  0.0227 -1.1558
 1031SOL     OW 3889   6.400   5.365   3.648 -0.4901  0.2228 -0.6590
 1031SOL    HW2 3890   6.345   5.424   3.596  0.2156 -0.1108 -1.8386
 1031SOL    HW3 3891   6.459   5.325   3.584  0.2276 -0.4335  0.3751
 1031SOL    MW4 3892   6.401   5.367   3.633 -0.4371  0.4391 -0.1320
 1032SOL     OW 3893   4.273   1.611   4.781 -0.7287 -0.6827 -0.1301
 1032SOL    HW2 3894   4.235   1.694   4.754  0.9972  0.2709  0.2373
 1032SOL    HW3 3895   4.222   1.545   4.734 -0.7084  0.6963 -2.1950
 1032SOL    MW4 3896   4.261   1.613   4.771 -0.1735  0.2482 -0.1155
 1033SOL     OW 3897   1.013   2.501   6.381  0.4908  0.1109  0.0185
 1033SOL    HW2 3898   1.053   2.567   6.325 -1.2369  0.0125 -1.4139
 1033SOL    HW3 3899   1.085   2.440   6.401  1.7293  1.5285  0.0591
 1033SOL    MW4 3900   1.028   2.501   6.377  0.2519  0.2831 -0.3715
 1034SOL     OW 3901   1.349   4.096   4.515 -0.8185  0.4787  0.1497
 1034SOL    HW2 3902   1.285   4.164   4.537 -0.0031  0.6135  2.3243
 1034SOL    HW3 3903   1.346   4.035   4.588  0.5370 -0.2866 -0.3990
 1034SOL    MW4 3904   1.340   4.097   4.527  0.2185  0.2932 -0.5292
 1035SOL     OW 3905   5.475   6.378   0.180 -0.0526  0.8991  0.5122
 1035SOL    HW2 3906   5.445   6.314   0.115  1.6280 -1.1671  1.6423
 1035SOL    HW3 3907   5.397   6.400   0.230 -0.6275 -0.5782  0.3201
 1035SOL    MW4 3908   5.460   6.372   0.178 -0.0054  0.5186 -0.3482
 1036SOL     OW 3909   3.251   4.442   1.861  0.3512 -0.3391  0.3799
 1036SOL    HW2 3910   3.278   4.384   1.789  1.4601 -2.4235  2.3362
 1036SOL    HW3 3911   3.166   4.409   1.888  0.6116 -0.5271  0.9761
 1036SOL    MW4 3912   3.243   4.430   1.855  0.4856  0.1509 -0.1081
 1037SOL     OW 3913   6.168   2.834   2.750 -0.2003  0.0492 -0.4964
 1037SOL    HW2 3914   6.183   2.750   2.794  1.9050  0.1861 -0.8211
 1037SOL    HW3 3915   6.097   2.875   2.799 -0.3537 -1.3367  0.5050
 1037SOL    MW4 3916   6.161   2.828   2.762 -0.4825 -0.3455 -0.0882
 1038SOL     OW 3917   5.210   4.984   4.110  0.1175 -0.2953  0.4018
 1038SOL    HW2 3918   5.257   4.928   4.047  0.7582  0.9085 -0.2380
 1038SOL    HW3 3919   5.125   4.942   4.121 -0.0539 -0.4913 -1.3719
 1038SOL    MW4 3920   5.205   4.971   4.103  0.3172 -0.0799 -0.5208
 1039SOL     OW 3921   5.677   1.682   5.414 -0.7824 -0.5811 -0.2009
 1039SOL    HW2 3922   5.705   1.644   5.497 -0.9585 -1.5210 -0.5584
 1039SOL    HW3 3923   5.588   1.650   5.401 -1.3556  0.8404  0.0019
 1039SOL    MW4 3924   5.669   1.673   5.423 -0.1701 -0.1663  0.0050
 1040SOL     OW 3925   3.975   0.341   2.536 -0.0332 -0.0781 -0.2554
 1040SOL    HW2 3926   4.012   0.425   2.562  1.1662 -0.3600 -0.9637
 1040SOL    HW3 3927   4.050   0.283   2.531 -0.6657 -0.8350 -1.1672
 1040SOL    MW4 3928   3.990   0.344   2.539  0.7450 -0.3726 -0.4449
 1041SOL     OW 3929   4.258   2.152   4.943 -0.0724  0.1421  0.1285
 1041SOL    HW2 3930   4.173   2.138   4.985 -0.2654 -0.6048 -0.4926
 1041SOL    HW3 3931   4.300   2.221   4.995 -0.8956  0.2393  0.6714
 1041SOL    MW4 3932   4.252   2.160   4.955  0.6502 -0.0940  0.1791
 1042SOL     OW 3933   5.882   0.316   5.286  0.4224 -0.0138  0.4706
 1042SOL    HW2 3934   5.848   0.315   5.197  1.6567  0.4612 -0.0373
 1042SOL    HW3 3935   5.966   0.361   5.278  0.4768  0.1737  1.9051
 1042SOL    MW4 3936   5.889   0.322   5.273  0.2639  0.3061 -0.7167
 1043SOL     OW 3937   2.208   3.601   6.042  0.3614  0.2233  0.3862
 1043SOL    HW2 3938   2.137   3.641   6.093 -0.2448  2.0349 -1.7264
 1043SOL    HW3 3939   2.276   3.583   6.107 -0.9784  0.9432  2.0821
 1043SOL    MW4 3940   2.208   3.604   6.057  0.5581 -0.6404  0.2653
 1044SOL     OW 3941   2.693   2.844   0.938 -0.6330  0.3828 -0.2254
 1044SOL    HW2 3942   2.772   2.886   0.904  0.7019 -0.2192  1.9606
 1044SOL    HW3 3943   2.717   2.753   0.951 -2.5627 -0.4727 -1.9816
 1044SOL    MW4 3944   2.707   2.838   0.935 -0.0779  0.4028 -0.5814
 1045SOL     OW 3945   3.950   4.083   6.199 -0.0228 -0.1859 -0.0657
 1045SOL    HW2 3946   3.956   3.991   6.172  0.7349 -0.3515  0.6189
 1045SOL    HW3 3947   3.860   4.094   6.229 -1.1056  0.1450 -3.0347
 1045SOL    MW4 3948   3.939   4.072   6.199  0.5105 -0.2257  0.0469
 1046SOL     OW 3949   0.214   2.230   0.376 -0.9386  0.3977  0.1284
 1046SOL    HW2 3950   0.277   2.297   0.401 -1.3668  0.6006  0.7013
 1046SOL    HW3 3951   0.164   2.269   0.304 -1.1781  0.6889  0.4513
 1046SOL    MW4 3952   0.216   2.244   0.370 -0.3218 -0.6401  0.2244
 1047SOL     OW 3953   2.799   0.008   2.954 -0.0110 -0.6514 -0.1580
 1047SOL    HW2 3954   2.790   0.100   2.979 -0.3680 -0.7214 -0.0217
 1047SOL    HW3 3955   2.829   0.010   2.863 -1.4063 -0.4013 -0.6284
 1047SOL    MW4 3956   2.802   0.020   2.945 -0.0384  0.6391 -0.2989
 1048SOL     OW 3957   0.924   5.800   0.328  0.4271 -0.0798  0.5311
 1048SOL    HW2 3958   0.842   5.849   0.339  1.0626  0.6783  2.4835
 1048SOL    HW3 3959   0.897   5.709   0.319 -0.6664  0.2944 -0.2894
 1048SOL    MW4 3960   0.910   5.795   0.328 -0.2373  0.4669  0.1623
 1049SOL     OW 3961   4.186   4.467   0.560 -0.9250  0.9866 -0.5096
 1049SOL    HW2 3962   4.110   4.494   0.509 -0.7556  1.2331 -0.6362
 1049SOL    HW3 3963   4.164   4.491   0.650 -2.1879 -1.5085 -0.0776
 1049SOL    MW4 3964   4.173   4.474   0.565  0.6293 -0.2294  0.1109
 1050SOL     OW 3965   0.147   1.311   5.474  0.1567  0.8403 -0.1788
 1050SOL    HW2 3966   0.137   1.224   5.512  3.0060  0.6922  0.4591
 1050SOL    HW3 3967   0.199   1.359   5.538 -0.0774  2.5488 -1.2111
 1050SOL    MW4 3968   0.153   1.306   5.487  0.0271  0.2325 -0.0282
 1051SOL     OW 3969   1.332   2.140   6.017  0.1552  0.0216 -0.0202
 1051SOL    HW2 3970   1.379   2.062   5.988  0.8502  0.6046 -0.5239
 1051SOL    HW3 3971   1.331   2.197   5.941  1.6637  1.4326  0.9436
 1051SOL    MW4 3972   1.338   2.137   6.003 -0.1452  0.2698 -0.3887
 1052SOL     OW 3973   4.838   5.186   3.956  0.1107 -0.5616 -0.2640
 1052SOL    HW2 3974   4.829   5.092   3.942 -1.1528 -0.2056 -2.2946
 1052SOL    HW3 3975   4.774   5.226   3.896  1.4756  1.6129 -0.4046
 1052SOL    MW4 3976   4.829   5.179   3.946  0.1325  0.9425 -0.5301
 1053SOL     OW 3977   1.955   3.015   0.542 -0.0237  0.1293  1.1038
 1053SOL    HW2 3978   1.917   3.097   0.573  0.2968  1.2206 -1.1830
 1053SOL    HW3 3979   2.048   3.036   0.529  0.0844 -0.6391  0.5895
 1053SOL    MW4 3980   1.963   3.029   0.544 -0.5408  0.1421 -0.8717
 1054SOL     OW 3981   3.666   2.050   1.233  0.0634  0.2216 -0.2218
 1054SOL    HW2 3982   3.646   1.976   1.290 -0.1551  0.3442 -0.1400
 1054SOL    HW3 3983   3.746   2.088   1.271 -0.4827  0.7371  0.4310
 1054SOL    MW4 3984   3.674   2.046   1.245 -0.1197  0.5636  0.5314
 1055SOL     OW 3985   5.615   5.701   1.715 -0.3526  1.2405 -0.0219
 1055SOL    HW2 3986   5.552   5.646   1.669 -0.3537  1.5497 -0.4050
 1055SOL    HW3 3987   5.562   5.771   1.754 -0.2870  1.2991 -0.0373
 1055SOL    MW4 3988   5.599   5.703   1.714 -0.0873 -0.6191  0.0367
 1056SOL     OW 3989   1.946   6.016   0.943  0.2075 -0.1330 -0.0955
 1056SOL    HW2 3990   1.900   5.977   0.868 -1.4282  2.6419 -0.6879
 1056SOL    HW3 3991   1.911   5.969   1.019 -0.8896 -0.5724 -0.8371
 1056SOL    MW4 3992   1.935   6.004   0.943 -0.3366  0.4219 -0.0435
 1057SOL     OW 3993   5.359   3.493   3.266  0.6219  0.4801 -0.2082
 1057SOL    HW2 3994   5.349   3.585   3.290 -0.5632  0.3728 -0.2355
 1057SOL    HW3 3995   5.380   3.495   3.173  1.3496  0.7413 -0.0472
 1057SOL    MW4 3996   5.361   3.505   3.257 -0.4352  0.3062 -0.1372
 1058SOL     OW 3997   0.457   1.193   5.754  0.3174  0.4846  0.1629
 1058SOL    HW2 3998   0.522   1.139   5.708 -0.9979 -1.4017  0.4155
 1058SOL    HW3 3999   0.463   1.278   5.711  0.6700 -0.5821 -2.0617
 1058SOL    MW4 4000   0.467   1.197   5.742  0.6161  0.0385  0.6001
 1059SOL     OW 4001   4.673   2.798   3.417 -0.1566  0.1110  0.1269
 1059SOL    HW2 4002   4.583   2.824   3.434  0.2238  1.6786 -0.1658
 1059SOL    HW3 4003   4.708   2.773   3.503  0.0890  2.6355  0.8195
 1059SOL    MW4 4004   4.666   2.798   3.430 -0.2605 -0.4957 -0.2839
 1060SOL     OW 4005   6.410   6.251   2.632  0.0642  0.4980 -0.3201
 1060SOL    HW2 4006   6.334   6.299   2.599  1.2723  0.9072 -2.7569
 1060SOL    HW3 4007   6.376   6.197   2.703 -2.5699  0.3812 -1.5535
 1060SOL    MW4 4008   6.396   6.251   2.637  0.1553  0.1177  0.2090
 1061SOL     OW 4009   5.436   5.082   4.557 -0.2458  0.6609  0.2570
 1061SOL    HW2 4010   5.441   5.001   4.608  0.9575 -0.4432 -1.4900
 1061SOL    HW3 4011   5.407   5.053   4.470  0.0460  2.1307 -0.3525
 1061SOL    MW4 4012   5.433   5.067   4.552  0.4485 -0.7343  0.5944
 1062SOL     OW 4013   5.923   5.736   0.322  0.4858 -0.0682  0.5880
 1062SOL    HW2 4014   5.899   5.646   0.299  0.6773 -0.0257  0.2068
 1062SOL    HW3 4015   5.990   5.760   0.258 -1.7631  1.4400 -1.3808
 1062SOL    MW4 4016   5.929   5.728   0.310  0.1484 -0.5493  0.2632
 1063SOL     OW 4017   1.970   2.117   4.683  0.2107 -0.1349  0.0009
 1063SOL    HW2 4018   1.982   2.138   4.776  1.5943 -0.5319 -0.0578
 1063SOL    HW3 4019   1.927   2.194   4.646 -0.5192 -0.0445  1.0000
 1063SOL    MW4 4020   1.966   2.130   4.690  0.0273 -0.2046  0.5885
 1064SOL     OW 4021   1.750   6.255   4.506 -0.1472 -0.2099 -0.0300
 1064SOL    HW2 4022   1.778   6.250   4.415  2.6639  2.3841  0.5354
 1064SOL    HW3 4023   1.804   6.324   4.545 -2.5038  0.0944  3.1748
 1064SOL    MW4 4024   1.760   6.263   4.499  0.5185 -0.3127  0.5499
 1065SOL     OW 4025   1.471   1.080   4.643 -0.3341 -0.5762 -0.1007
 1065SOL    HW2 4026   1.480   1.164   4.598 -0.8238 -0.0016  0.8506
 1065SOL    HW3 4027   1.518   1.092   4.726 -0.7777 -1.0977  0.2281
 1065SOL    MW4 4028   1.479   1.093   4.648 -0.7952 -0.4668  0.3277
 1066SOL     OW 4029   0.541   4.636   4.270  0.1771  0.1383 -0.0862
 1066SOL    HW2 4030   0.477   4.681   4.325 -0.0863  0.5893 -0.7536
 1066SOL    HW3 4031   0.580   4.571   4.328 -0.1028  0.5973  0.6328
 1066SOL    MW4 4032   0.538   4.634   4.285  0.1365  0.1385  0.2467
 1067SOL     OW 4033   4.847   0.202   1.551 -0.5576  0.0215  0.0202
 1067SOL    HW2 4034   4.915   0.213   1.617  1.0595 -1.6017 -1.2739
 1067SOL    HW3 4035   4.787   0.138   1.589  1.7622 -2.9594 -0.9509
 1067SOL    MW4 4036   4.848   0.195   1.565 -0.8419  0.2126  0.4900
 1068SOL     OW 4037   1.979   1.267   3.738 -0.6659  0.4926  0.5606
 1068SOL    HW2 4038   1.975   1.360   3.716 -2.5585  0.4732  0.7273
 1068SOL    HW3 4039   2.061   1.237   3.698  0.0745  2.2511  0.6612
 1068SOL    MW4 4040   1.989   1.275   3.730 -0.4096  0.1619 -0.6340
 1069SOL     OW 4041   0.206   5.815   2.757 -0.1337  0.4276 -0.1679
 1069SOL    HW2 4042   0.131   5.863   2.722 -0.5989 -0.0295  0.1885
 1069SOL    HW3 4043   0.277   5.880   2.760  0.0590  0.3904 -2.3336
 1069SOL    MW4 4044   0.205   5.830   2.752 -0.1861  0.0027  0.5960
 1070SOL     OW 4045   3.740   5.431   3.511  0.3781 -0.1279  0.0956
 1070SOL    HW2 4046   3.745   5.465   3.421 -1.0905 -2.0157 -0.7660
 1070SOL    HW3 4047   3.798   5.355   3.512 -0.8015 -1.0712  0.2283
 1070SOL    MW4 4048   3.748   5.425   3.499  0.0043  0.8894 -0.1333
 1071SOL     OW 4049   0.784   2.543   2.191 -0.6622 -0.0502 -0.2752
 1071SOL    HW2 4050   0.817   2.606   2.256  2.2454 -0.1712 -1.4771
 1071SOL    HW3 4051   0.862   2.495   2.163 -1.9599 -0.6696 -3.1503
 1071SOL    MW4 4052   0.799   2.545   2.196 -0.0474  0.2929  0.4517
 1072SOL     OW 4053   4.236   6.348   5.279 -0.0477  0.4234  0.1042
 1072SOL    HW2 4054   4.265   6.334   5.189 -0.2074  2.7672 -0.3902
 1072SOL    HW3 4055   4.295   6.416   5.312 -0.5167  0.1827  1.5013
 1072SOL    MW4 4056   4.248   6.355   5.271 -0.6039  0.7181  0.3063
 1073SOL     OW 4057   0.245   0.915   1.214 -0.1265 -0.0451 -0.1304
 1073SOL    HW2 4058   0.337   0.887   1.219  0.9411  2.5356 -2.5468
 1073SOL    HW3 4059   0.221   0.900   1.123 -2.4882 -1.4299  0.6370
 1073SOL    MW4 4060   0.254   0.909   1.203  0.4330  0.3532 -0.3309
 1074SOL     OW 4061   3.349   0.062   4.928  0.3213 -0.5029 -0.5331
 1074SOL    HW2 4062   3.415   0.070   4.858  0.1481 -1.3552 -0.8139
 1074SOL    HW3 4063   3.272   0.106   4.894  0.2216 -0.9582 -0.9137
 1074SOL    MW4 4064   3.348   0.069   4.914 -0.1132  0.3383  0.4059
 1075SOL     OW 4065   6.229   6.364   2.451 -0.5432  0.1448  0.3304
 1075SOL    HW2 4066   6.156   6.313   2.487  0.6109 -0.8147  1.4145
 1075SOL    HW3 4067   6.196   6.454   2.449 -1.0922  0.0862  2.8530
 1075SOL    MW4 4068   6.215   6.369   2.456  0.5991 -1.1244 -0.1895
 1076SOL     OW 4069   0.568   2.429   3.349  0.2009  0.2690 -0.1764
 1076SOL    HW2 4070   0.540   2.399   3.263  2.2057 -1.3984 -0.3099
 1076SOL    HW3 4071   0.628   2.362   3.381  2.4045  2.5563  0.9383
 1076SOL    MW4 4072   0.572   2.416   3.342  0.1525  0.5009  0.2160
 1077SOL     OW 4073   0.637   5.279   6.418  0.1824  0.7744 -0.5762
 1077SOL    HW2 4074   0.578   5.204   6.410 -2.0231  2.3741 -0.4040
 1077SOL    HW3 4075   0.700   5.268   6.347  0.1636 -1.3976 -0.3259
 1077SOL    MW4 4076   0.637   5.268   6.408  0.2946  0.1426 -0.0454
 1078SOL     OW 4077   5.805   6.155   5.071  0.5520  0.3231 -0.3388
 1078SOL    HW2 4078   5.847   6.210   5.137  1.4365 -2.3156  1.4702
 1078SOL    HW3 4079   5.724   6.200   5.051  0.9675  2.0093  1.4262
 1078SOL    MW4 4080   5.800   6.168   5.077  0.1134  0.8570 -0.4389
 1079SOL     OW 4081   3.635   6.317   0.601 -0.0569  0.2578  0.0490
 1079SOL    HW2 4082   3.608   6.310   0.692 -2.3681 -0.5498 -0.6376
 1079SOL    HW3 4083   3.569   6.269   0.552 -0.1766  2.5573 -2.2806
 1079SOL    MW4 4084   3.623   6.310   0.606 -0.2740 -0.2765  0.4723
 1080SOL     OW 4085   2.790   5.427   6.082  0.2290 -0.5486  0.2819
 1080SOL    HW2 4086   2.840   5.369   6.025  0.7240  1.0702 -0.9835
 1080SOL    HW3 4087   2.729   5.472   6.024 -0.7966 -0.4464  1.3831
 1080SOL    MW4 4088   2.788   5.425   6.067  0.5996  0.2611 -0.2793
 1081SOL     OW 4089   5.775   5.049   5.704 -0.7018 -0.5837 -0.4027
 1081SOL    HW2 4090   5.821   4.968   5.681  0.5845 -0.0517  0.1985
 1081SOL    HW3 4091   5.773   5.048   5.800 -1.3249 -0.2550 -0.4149
 1081SOL    MW4 4092   5.781   5.038   5.713  0.2716 -0.3005  0.1747
 1082SOL     OW 4093   5.237   3.190   5.945 -0.4057  0.5918 -0.3714
 1082SOL    HW2 4094   5.264   3.172   5.856  0.0608  0.6611 -0.2492
 1082SOL    HW3 4095   5.154   3.238   5.937 -1.5071 -1.3026 -0.6990
 1082SOL    MW4 4096   5.230   3.194   5.932  0.0338 -0.2855  0.3004
 1083SOL     OW 4097   5.826   2.478   5.861 -0.0511  1.1564 -0.3940
 1083SOL    HW2 4098   5.742   2.486   5.905  0.3660  2.3290  0.2268
 1083SOL    HW3 4099   5.888   2.524   5.918  0.7758  1.4597 -1.4921
 1083SOL    MW4 4100   5.823   2.485   5.875  0.1753  0.5157  0.4534
 1084SOL     OW 4101   1.667   2.373   2.364  0.3908 -0.2043  0.5285
 1084SOL    HW2 4102   1.634   2.287   2.390 -1.5733  0.4443  0.3677
 1084SOL    HW3 4103   1.602   2.405   2.301  0.1135  2.1212  1.8899
 1084SOL    MW4 4104   1.654   2.366   2.359  0.3211 -0.5014  0.3168
 1085SOL     OW 4105   2.908   0.770   4.570 -0.2568 -0.1980  0.2617
 1085SOL    HW2 4106   2.971   0.791   4.640  0.2472 -0.4771 -0.0991
 1085SOL    HW3 4107   2.848   0.707   4.610 -1.6214  1.6351  1.2722
 1085SOL    MW4 4108   2.908   0.765   4.585  0.4941  0.4102 -0.4282
 1086SOL     OW 4109   0.014   1.600   1.179 -0.4613 -0.0306  0.5021
 1086SOL    HW2 4110  -0.021   1.551   1.105 -0.3712  2.4033 -1.2807
 1086SOL    HW3 4111   0.102   1.626   1.151 -0.0131  0.0579  1.9152
 1086SOL    MW4 4112   0.021   1.597   1.165 -0.7079  0.1816 -0.6982
 1087SOL     OW 4113   2.060   4.181   5.575 -0.5274 -0.3221 -0.1365
 1087SOL    HW2 4114   2.085   4.177   5.483  0.8061  1.2858  0.0890
 1087SOL    HW3 4115   2.120   4.121   5.619 -0.0517  0.1355 -0.1449
 1087SOL    MW4 4116   2.072   4.173   5.569  0.0460 -0.0936  0.1779
 1088SOL     OW 4117   4.817   0.206   2.234 -0.2824 -0.2086 -0.4252
 1088SOL    HW2 4118   4.722   0.201   2.224 -0.3194  0.3059 -0.3219
 1088SOL    HW3 4119   4.836   0.153   2.311 -0.5729  0.4227  0.0778
 1088SOL    MW4 4120   4.807   0.198   2.243  0.3652 -0.0123  0.1939
 1089SOL     OW 4121   2.189   2.378   4.583 -0.5149  0.2339 -0.0109
 1089SOL    HW2 4122   2.148   2.443   4.640 -1.9849  0.5533 -1.3799
 1089SOL    HW3 4123   2.118   2.320   4.557  0.5991 -1.4372  0.4553
 1089SOL    MW4 4124   2.175   2.379   4.587  0.0420  0.3482 -0.6331
 1090SOL     OW 4125   0.472   0.466   2.590 -0.2560 -0.4903  0.4614
 1090SOL    HW2 4126   0.476   0.409   2.513 -1.2391 -0.2819  0.2455
 1090SOL    HW3 4127   0.478   0.406   2.664 -2.0900 -0.9940  0.2499
 1090SOL    MW4 4128   0.473   0.451   2.589  0.1135 -0.2996 -0.4162
 1091SOL     OW 4129   5.351   3.181   5.659  0.2251 -0.5872 -0.0261
 1091SOL    HW2 4130   5.300   3.169   5.579 -0.7310 -0.3154  0.5244
 1091SOL    HW3 4131   5.387   3.094   5.678  0.0255 -0.7661 -0.4578
 1091SOL    MW4 4132   5.349   3.168   5.651  0.1673 -0.1740  0.3062
 1092SOL     OW 4133   0.966   3.386   4.681  0.0984  0.0600  0.5829
 1092SOL    HW2 4134   0.903   3.394   4.610  1.7863  1.1942 -0.8774
 1092SOL    HW3 4135   1.001   3.297   4.672  1.7623  0.8508 -1.3681
 1092SOL    MW4 4136   0.962   3.375   4.670  0.1244 -0.0558  0.4594
 1093SOL     OW 4137   3.970   3.424   1.766 -0.5586 -0.2976 -0.7282
 1093SOL    HW2 4138   3.907   3.383   1.826 -1.9844  2.6915  0.0094
 1093SOL    HW3 4139   3.945   3.394   1.679 -0.8279 -1.7794 -0.1592
 1093SOL    MW4 4140   3.959   3.415   1.763  0.3879  0.0725  1.2893
 1094SOL     OW 4141   5.412   6.333   3.908  0.0953  0.4363  0.1460
 1094SOL    HW2 4142   5.385   6.281   3.983  1.0880  1.2960  1.1460
 1094SOL    HW3 4143   5.365   6.296   3.834 -1.1563 -0.2358  1.2426
 1094SOL    MW4 4144   5.402   6.322   3.908  0.0795  0.1989 -0.0756
 1095SOL     OW 4145   3.996   2.797   4.066 -0.0937  0.4789 -0.0106
 1095SOL    HW2 4146   4.011   2.811   4.159 -1.9558 -0.9525  0.5592
 1095SOL    HW3 4147   3.998   2.886   4.028  4.4239  0.8821  0.6186
 1095SOL    MW4 4148   3.998   2.811   4.073 -0.2351 -0.3333 -0.0257
 1096SOL     OW 4149   5.360   4.078   2.284 -0.0031  0.2088 -0.1517
 1096SOL    HW2 4150   5.326   4.066   2.373 -0.4698 -0.1801 -0.3774
 1096SOL    HW3 4151   5.446   4.036   2.285 -0.9889 -1.9409 -0.5178
 1096SOL    MW4 4152   5.367   4.071   2.296 -0.0970 -0.2756  0.3496
 1097SOL     OW 4153   5.262   0.938   1.273 -0.1642  0.2614 -0.5463
 1097SOL    HW2 4154   5.182   0.886   1.269  0.9602 -1.5128 -2.0068
 1097SOL    HW3 4155   5.242   1.017   1.223 -1.0879 -0.0086 -0.6204
 1097SOL    MW4 4156   5.249   0.942   1.266 -0.3589 -0.2547  0.6032
 1098SOL     OW 4157   2.746   0.652   0.360  0.2268 -0.6831 -0.8169
 1098SOL    HW2 4158   2.814   0.661   0.426  0.5665  0.8458 -1.3334
 1098SOL    HW3 4159   2.794   0.633   0.279  0.1528  1.0292 -1.3135
 1098SOL    MW4 4160   2.761   0.651   0.358  0.6392  0.3004  0.6277
 1099SOL     OW 4161   2.808   3.896   2.509  0.2149  0.2262  0.4400
 1099SOL    HW2 4162   2.805   3.950   2.431  2.8454  1.5743  1.1286
 1099SOL    HW3 4163   2.753   3.941   2.573  1.7948  1.8137  0.7701
 1099SOL    MW4 4164   2.801   3.909   2.507  0.2195  0.1890  0.3582
 1100SOL     OW 4165   6.250   3.541   3.129  0.1563  0.5135  0.0841
 1100SOL    HW2 4166   6.314   3.589   3.182  0.6300 -1.9840  2.0389
 1100SOL    HW3 4167   6.304   3.484   3.073 -0.3407  0.0706  0.0489
 1100SOL    MW4 4168   6.266   3.540   3.129 -0.4521 -0.1538 -0.2448
 1101SOL     OW 4169   5.680   1.419   5.552  0.4272  0.5117 -0.4707
 1101SOL    HW2 4170   5.633   1.347   5.510 -0.5045  0.8301  0.0065
 1101SOL    HW3 4171   5.759   1.379   5.589  0.2664 -0.1272 -0.8246
 1101SOL    MW4 4172   5.684   1.404   5.551 -0.3205 -0.4425 -0.0472
 1102SOL     OW 4173   4.139   1.465   6.383 -0.6925 -0.5164  0.0057
 1102SOL    HW2 4174   4.105   1.381   6.413 -2.3074 -0.4962 -1.6230
 1102SOL    HW3 4175   4.080   1.530   6.423 -0.2656 -0.2223  0.1721
 1102SOL    MW4 4176   4.127   1.463   6.392 -0.5813  1.1938 -0.0387
 1103SOL     OW 4177   5.931   1.466   5.893 -0.0672 -0.3744 -0.1324
 1103SOL    HW2 4178   5.853   1.520   5.902 -0.4413 -1.1500  1.6542
 1103SOL    HW3 4179   5.922   1.425   5.806 -0.6710  0.9826 -0.7298
 1103SOL    MW4 4180   5.920   1.467   5.883  0.0665 -0.1990 -1.2486
 1104SOL     OW 4181   5.679   2.600   6.281 -0.6409 -0.2100  0.5284
 1104SOL    HW2 4182   5.612   2.664   6.256 -1.8680  0.0419  3.9149
 1104SOL    HW3 4183   5.630   2.533   6.330  1.0957 -2.0859 -0.1704
 1104SOL    MW4 4184   5.663   2.599   6.284 -0.1749  0.3041 -0.1370
 1105SOL     OW 4185   5.117   5.562   6.220 -0.2313  0.3609 -0.1856
 1105SOL    HW2 4186   5.037   5.535   6.266 -0.5397 -0.1667 -1.0070
 1105SOL    HW3 4187   5.149   5.637   6.270  0.3771 -1.1922  1.8922
 1105SOL    MW4 4188   5.111   5.568   6.233 -0.1663 -0.0751 -0.1158
 1106SOL     OW 4189   0.516   3.359   2.978  0.0340 -0.9421 -0.4688
 1106SOL    HW2 4190   0.590   3.391   2.926 -0.7942  2.6460  0.2858
 1106SOL    HW3 4191   0.473   3.295   2.922  1.5508 -0.3021 -2.4834
 1106SOL    MW4 4192   0.520   3.355   2.964  0.1513 -0.4686  0.1886
 1107SOL     OW 4193   5.296   2.118   1.645 -0.2141  0.0967 -0.1923
 1107SOL    HW2 4194   5.380   2.164   1.651 -0.8864  1.3003  0.3327
 1107SOL    HW3 4195   5.279   2.088   1.734 -0.8730  0.8787 -0.0391
 1107SOL    MW4 4196   5.305   2.120   1.658 -0.3747 -0.1194 -0.4054
 1108SOL     OW 4197   0.388   2.452   0.440  0.4114 -0.2092 -0.1187
 1108SOL    HW2 4198   0.370   2.510   0.366  1.1727  0.9062  0.5534
 1108SOL    HW3 4199   0.466   2.403   0.413  0.5231 -0.0053 -0.1657
 1108SOL    MW4 4200   0.396   2.453   0.426 -0.2213 -0.1884 -0.4025
 1109SOL     OW 4201   4.829   6.287   0.624 -0.2107  0.3768 -0.7060
 1109SOL    HW2 4202   4.744   6.299   0.667 -0.0562  0.5149 -0.4343
 1109SOL    HW3 4203   4.822   6.336   0.543 -1.0235 -1.0959 -1.5601
 1109SOL    MW4 4204   4.817   6.295   0.619  1.0888 -0.4139  0.5910
 1110SOL     OW 4205   4.473   5.220   4.384  1.1283 -0.0463  0.2526
 1110SOL    HW2 4206   4.391   5.175   4.367  0.9321  0.4394 -0.1116
 1110SOL    HW3 4207   4.505   5.182   4.466 -0.0055  0.5293  0.9854
 1110SOL    MW4 4208   4.467   5.209   4.392  0.0818  0.4318  0.3283
 1111SOL     OW 4209   3.272   1.887   6.235  0.1119 -0.5738 -0.1253
 1111SOL    HW2 4210   3.239   1.976   6.237  0.2118 -0.5481  0.6036
 1111SOL    HW3 4211   3.332   1.881   6.309  0.6765 -1.0302 -0.6073
 1111SOL    MW4 4212   3.275   1.898   6.245  0.5423  0.6621 -0.2465
 1112SOL     OW 4213   4.303   2.769   4.913  0.4499 -0.0689 -0.5271
 1112SOL    HW2 4214   4.274   2.798   4.827  0.1580 -0.8217 -0.6916
 1112SOL    HW3 4215   4.339   2.682   4.898  0.4480 -0.1868  0.1021
 1112SOL    MW4 4216   4.304   2.761   4.900  0.0200 -0.2632  0.5396
 1113SOL     OW 4217   5.822   0.841   1.546 -0.3952  0.3291  0.2279
 1113SOL    HW2 4218   5.795   0.751   1.557 -0.1330  0.1461 -0.5202
 1113SOL    HW3 4219   5.908   0.836   1.503  0.5942  0.9011  2.0246
 1113SOL    MW4 4220   5.830   0.829   1.542  0.4378 -0.0384  0.2428
 1114SOL     OW 4221   6.302   2.616   0.614 -0.2925 -0.1808 -0.4416
 1114SOL    HW2 4222   6.335   2.528   0.629  0.4468  0.1837  0.1098
 1114SOL    HW3 4223   6.333   2.667   0.689 -1.0231  0.4673 -0.5648
 1114SOL    MW4 4224   6.310   2.611   0.626 -0.0862 -0.3373 -0.2406
 1115SOL     OW 4225   3.137   2.640   4.664  0.1998 -0.3342 -0.2537
 1115SOL    HW2 4226   3.217   2.684   4.694 -0.4253  0.4569  0.2995
 1115SOL    HW3 4227   3.066   2.688   4.707 -0.4896 -2.6586  1.4444
 1115SOL    MW4 4228   3.138   2.652   4.674  0.2119  0.2397  0.1723
 1116SOL     OW 4229   3.124   5.214   6.140 -0.0517  0.0457 -0.8688
 1116SOL    HW2 4230   3.174   5.135   6.162 -1.6619 -0.6705  0.5768
 1116SOL    HW3 4231   3.072   5.188   6.064 -0.3972 -0.2406 -0.5451
 1116SOL    MW4 4232   3.123   5.200   6.133  0.2949  0.0933  0.1147
 1117SOL     OW 4233   5.167   3.017   0.118  0.0234  0.1123 -0.2126
 1117SOL    HW2 4234   5.234   3.031   0.185  0.8230 -0.7516 -0.8050
 1117SOL    HW3 4235   5.086   3.010   0.168  0.2517  1.8169  0.4699
 1117SOL    MW4 4236   5.165   3.018   0.134  0.0855 -0.3313 -0.0831
 1118SOL     OW 4237   1.166   4.595   5.784  0.1841 -0.7524  0.1945
 1118SOL    HW2 4238   1.133   4.520   5.734 -0.0459 -0.2119 -0.4848
 1118SOL    HW3 4239   1.121   4.589   5.868  0.2164 -1.4114  0.1723
 1118SOL    MW4 4240   1.156   4.584   5.788 -0.0387  0.1304 -0.3095
 1119SOL     OW 4241   5.110   5.016   6.035  0.8329  0.5811 -0.4255
 1119SOL    HW2 4242   5.142   4.954   6.101 -0.9818 -0.7494 -0.7429
 1119SOL    HW3 4243   5.151   5.099   6.060 -0.5177  0.3929  3.0430
 1119SOL    MW4 4244   5.120   5.019   6.047  0.1945  0.0367 -0.0971
 1120SOL     OW 4245   5.884   6.160   1.818 -0.0856 -0.9465 -0.7531
 1120SOL    HW2 4246   5.932   6.236   1.785 -2.0299 -0.0280 -1.6549
 1120SOL    HW3 4247   5.888   6.168   1.913 -0.7797  0.6925 -0.8240
 1120SOL    MW4 4248   5.891   6.171   1.826 -0.0945 -0.0783  1.0699
 1121SOL     OW 4249   4.530   6.037   0.307  0.2355 -0.0574 -0.2475
 1121SOL    HW2 4250   4.495   6.105   0.364 -0.0332 -0.8321  0.5209
 1121SOL    HW3 4251   4.618   6.020   0.342  0.3551 -0.0174 -0.5249
 1121SOL    MW4 4252   4.537   6.044   0.319 -0.4817  0.4070 -0.1387
 1122SOL     OW 4253   3.215   2.443   4.204 -0.0653 -0.2143  0.4288
 1122SOL    HW2 4254   3.191   2.430   4.112  0.6217 -0.5007  0.2831
 1122SOL    HW3 4255   3.211   2.355   4.242  1.7805 -0.4833  0.1306
 1122SOL    MW4 4256   3.212   2.430   4.197  0.7360  0.1169 -0.4705
 1123SOL     OW 4257   0.565   4.416   5.568  0.0321 -0.7193 -0.6521
 1123SOL    HW2 4258   0.471   4.431   5.555 -0.0806 -0.9155 -0.1004
 1123SOL    HW3 4259   0.588   4.349   5.503 -0.5657 -1.8482  0.2590
 1123SOL    MW4 4260   0.555   4.409   5.558 -0.0558 -0.2757 -0.0696
 1124SOL     OW 4261   1.805   1.030   1.803 -0.6843 -0.1840  0.0211
 1124SOL    HW2 4262   1.812   1.090   1.878 -0.1839 -0.5053  0.2376
 1124SOL    HW3 4263   1.895   1.000   1.788 -0.6841  0.3212 -1.0878
 1124SOL    MW4 4264   1.818   1.034   1.811 -0.1492 -0.3452  0.2141
 1125SOL     OW 4265   1.431   0.545   0.874  0.2919  0.0506  0.5365
 1125SOL    HW2 4266   1.372   0.473   0.851 -0.4110  0.7583  0.0882
 1125SOL    HW3 4267   1.394   0.581   0.954 -0.2647  0.8935 -0.0828
 1125SOL    MW4 4268   1.418   0.540   0.882  0.2842  0.4660  0.1363
 1126SOL     OW 4269   2.475   3.498   5.035 -0.3543 -0.2711 -0.4437
 1126SOL    HW2 4270   2.381   3.503   5.052 -0.5239 -1.1722 -1.0273
 1126SOL    HW3 4271   2.515   3.545   5.107 -1.2094 -0.7971  0.3997
 1126SOL    MW4 4272   2.468   3.505   5.046 -0.4959  0.6577 -0.1017
 1127SOL     OW 4273   3.702   6.207   6.266 -0.2331  0.2629 -0.2099
 1127SOL    HW2 4274   3.796   6.209   6.248 -0.1861 -0.9594 -0.1592
 1127SOL    HW3 4275   3.693   6.147   6.340 -0.9672  1.1219  0.4233
 1127SOL    MW4 4276   3.714   6.199   6.274  0.0011  0.2464 -0.3542
 1128SOL     OW 4277   3.704   3.125   1.506  0.0609  0.1688 -0.6245
 1128SOL    HW2 4278   3.668   3.127   1.595 -0.7991 -0.4798 -0.9346
 1128SOL    HW3 4279   3.712   3.032   1.486 -0.0764  0.3062 -1.3493
 1128SOL    MW4 4280   3.700   3.113   1.515  0.2862  0.0770  0.1874
 1129SOL     OW 4281   2.098   1.424   5.787  0.4705 -0.5947 -0.3027
 1129SOL    HW2 4282   2.024   1.402   5.731  1.1353 -1.9703 -0.6927
 1129SOL    HW3 4283   2.143   1.494   5.740 -0.4631  0.1176 -0.1542
 1129SOL    MW4 4284   2.094   1.430   5.773  0.2697  0.1321 -0.2136
 1130SOL     OW 4285   0.189   4.852   5.790  0.2947  0.4946 -0.0740
 1130SOL    HW2 4286   0.133   4.846   5.713 -0.0503  0.4104  0.1792
 1130SOL    HW3 4287   0.163   4.934   5.832 -0.9343 -0.3976  1.0185
 1130SOL    MW4 4288   0.178   4.862   5.786  0.2016  0.1192  0.2516
 1131SOL     OW 4289   3.938   1.470   1.345 -0.0827 -0.0341 -0.0954
 1131SOL    HW2 4290   3.990   1.542   1.382 -0.4142  0.7692 -1.1499
 1131SOL    HW3 4291   3.981   1.450   1.262 -1.9379  1.2735 -1.4456
 1131SOL    MW4 4292   3.951   1.477   1.339  0.3014  0.3828 -0.5250
 1132SOL     OW 4293   0.399   3.396   1.762 -0.4986  0.3325 -0.2411
 1132SOL    HW2 4294   0.462   3.457   1.724  2.8704 -3.9442 -2.2383
 1132SOL    HW3 4295   0.414   3.402   1.856  0.8273  1.4604 -0.4930
 1132SOL    MW4 4296   0.409   3.405   1.769  0.1640  0.2241  0.7340
 1133SOL     OW 4297   1.972   6.284   2.936 -1.1260 -0.2361  0.4655
 1133SOL    HW2 4298   2.037   6.270   3.005  1.5348 -0.1776 -1.8638
 1133SOL    HW3 4299   1.957   6.197   2.899  1.0337  0.2371 -1.7732
 1133SOL    MW4 4300   1.978   6.270   2.940 -0.0043 -0.1728 -0.6533
 1134SOL     OW 4301   1.971   3.015   3.930  0.2433  0.1518 -0.0103
 1134SOL    HW2 4302   1.902   2.957   3.960 -0.1772  0.8793  0.4490
 1134SOL    HW3 4303   1.926   3.094   3.900  0.8987  0.9949  1.1139
 1134SOL    MW4 4304   1.956   3.018   3.930 -0.1141 -0.4963 -0.3706
 1135SOL     OW 4305   1.712   3.560   2.688 -0.4891  0.7020 -0.3375
 1135SOL    HW2 4306   1.669   3.489   2.736  0.3357  1.5592  1.8126
 1135SOL    HW3 4307   1.781   3.590   2.747 -0.9520  3.4310 -1.0544
 1135SOL    MW4 4308   1.716   3.555   2.702  0.3185  1.0601  0.3363
 1136SOL     OW 4309   5.667   2.232   2.018 -0.3178 -0.8295 -0.0544
 1136SOL    HW2 4310   5.598   2.165   2.019 -0.3607 -0.7923 -0.3965
 1136SOL    HW3 4311   5.737   2.194   1.965 -0.3411 -0.6021 -0.2468
 1136SOL    MW4 4312   5.667   2.218   2.011  0.1818 -0.1252  0.4285
 1137SOL     OW 4313   6.397   4.931   2.181 -0.1423 -0.4275 -0.3961
 1137SOL    HW2 4314   6.422   4.856   2.234  3.7962 -0.1434 -1.5206
 1137SOL    HW3 4315   6.405   5.006   2.240 -0.9673 -0.5641 -0.0962
 1137SOL    MW4 4316   6.401   4.931   2.196  0.3070  0.4398 -0.1718
 1138SOL     OW 4317   6.343   6.042   2.853  0.0792 -0.0660  0.2624
 1138SOL    HW2 4318   6.421   6.012   2.901  0.2959  1.5181  0.9516
 1138SOL    HW3 4319   6.333   5.978   2.782  1.3657 -0.9127  0.8014
 1138SOL    MW4 4320   6.352   6.029   2.850 -0.0301 -0.5016 -0.2674
 1139SOL     OW 4321   1.483   5.187   3.639 -0.0055  0.2531  0.2610
 1139SOL    HW2 4322   1.487   5.146   3.726  2.5589 -3.4528 -1.3183
 1139SOL    HW3 4323   1.403   5.153   3.600 -0.0086  0.0946  0.4037
 1139SOL    MW4 4324   1.473   5.177   3.645 -0.1947 -0.0995 -0.6095
 1140SOL     OW 4325   0.791   3.235   2.211 -0.2417 -0.1067  0.2151
 1140SOL    HW2 4326   0.870   3.280   2.180  0.8968 -1.7632  0.5522
 1140SOL    HW3 4327   0.782   3.262   2.302 -0.0611  0.0859  0.1752
 1140SOL    MW4 4328   0.800   3.244   2.219 -0.2236 -0.0518 -0.0198
 1141SOL     OW 4329   3.270   5.220   4.031 -0.0863  0.5836 -0.1585
 1141SOL    HW2 4330   3.327   5.146   4.052 -1.5091 -0.9394 -1.4002
 1141SOL    HW3 4331   3.319   5.270   3.966 -0.3049 -1.0008 -1.6226
 1141SOL    MW4 4332   3.284   5.217   4.025 -0.8185  1.1075  0.2215
 1142SOL     OW 4333   5.750   0.909   3.310  0.7116  0.0596  0.2332
 1142SOL    HW2 4334   5.811   0.836   3.324  1.0503  0.0551 -1.1756
 1142SOL    HW3 4335   5.689   0.878   3.243 -1.5490 -0.3163  2.3217
 1142SOL    MW4 4336   5.750   0.895   3.303  1.0150 -0.4272 -0.0218
 1143SOL     OW 4337   1.171   2.150   0.197  0.3076 -0.3863  0.1940
 1143SOL    HW2 4338   1.210   2.199   0.125  0.0407  0.3392  0.5354
 1143SOL    HW3 4339   1.111   2.088   0.155 -1.4757  1.4670 -0.1446
 1143SOL    MW4 4340   1.168   2.148   0.182  0.2521  0.1688  0.2173
 1144SOL     OW 4341   6.116   4.977   1.657 -0.3888  0.2870  0.4566
 1144SOL    HW2 4342   6.090   5.068   1.671  0.9158  0.7017  0.3496
 1144SOL    HW3 4343   6.088   4.931   1.736 -0.1677  0.9832  0.9490
 1144SOL    MW4 4344   6.109   4.983   1.669 -0.8827  0.5831 -0.2287
 1145SOL     OW 4345   3.940   3.935   4.976 -0.1560 -0.3087 -0.3539
 1145SOL    HW2 4346   3.934   3.958   4.883 -1.7949  0.8795  0.0012
 1145SOL    HW3 4347   3.854   3.957   5.012  1.2797  1.9509  2.0175
 1145SOL    MW4 4348   3.928   3.941   4.968  0.5880  0.6571 -0.0157
 1146SOL     OW 4349   4.237   2.682   4.320  0.2506 -0.1397 -0.0204
 1146SOL    HW2 4350   4.243   2.773   4.350 -1.0506  0.7170 -2.1434
 1146SOL    HW3 4351   4.319   2.668   4.271  0.1391  0.1478 -0.2956
 1146SOL    MW4 4352   4.249   2.692   4.317 -0.6630 -0.2053 -0.6374
 1147SOL     OW 4353   3.298   4.372   3.323 -0.2197  0.2217 -0.6722
 1147SOL    HW2 4354   3.249   4.290   3.325 -1.4073  0.8760 -1.3898
 1147SOL    HW3 4355   3.237   4.437   3.359  0.8981  0.7112  0.4185
 1147SOL    MW4 4356   3.283   4.370   3.328  0.4867 -0.2285 -0.2393
 1148SOL     OW 4357   2.430   3.973   6.183  0.6080  0.8797 -0.4251
 1148SOL    HW2 4358   2.463   3.975   6.273  1.4192 -0.3488 -0.6568
 1148SOL    HW3 4359   2.487   4.033   6.135 -0.3817  2.2097  0.0306
 1148SOL    MW4 4360   2.442   3.981   6.188 -0.6041 -0.1597  0.4186
 1149SOL     OW 4361   2.816   0.558   3.675  0.0015  0.5068 -0.4600
 1149SOL    HW2 4362   2.753   0.500   3.632 -1.5501  1.2633  0.6856
 1149SOL    HW3 4363   2.783   0.566   3.765 -0.1633  3.5209 -0.6923
 1149SOL    MW4 4364   2.803   0.551   3.682 -0.8139 -0.3009  0.4258
 1150SOL     OW 4365   0.872   1.334   4.301 -0.5613  0.3814  0.1447
 1150SOL    HW2 4366   0.884   1.429   4.311 -1.2543  0.6059 -0.9502
 1150SOL    HW3 4367   0.960   1.300   4.285 -0.2383  0.7666  1.0912
 1150SOL    MW4 4368   0.885   1.342   4.300 -0.2707  0.2267  0.0844
 1151SOL     OW 4369   0.132   3.130   1.996  1.1333  0.4941 -0.1605
 1151SOL    HW2 4370   0.155   3.040   2.020  2.3890  0.7404 -0.3854
 1151SOL    HW3 4371   0.117   3.126   1.902 -2.8437 -0.2708  0.3195
 1151SOL    MW4 4372   0.133   3.118   1.987 -0.3426 -0.3882  0.6623
 1152SOL     OW 4373   4.260   4.418   3.560  0.0192 -0.3678  0.5204
 1152SOL    HW2 4374   4.341   4.451   3.520 -0.0088 -0.5590  0.3073
 1152SOL    HW3 4375   4.192   4.476   3.525 -0.1090 -0.9998 -0.3071
 1152SOL    MW4 4376   4.262   4.430   3.550  0.0175  0.1143  0.2594
 1153SOL     OW 4377   1.487   3.491   5.263 -0.1133 -0.3095 -0.4693
 1153SOL    HW2 4378   1.481   3.430   5.337  1.8533  1.4842  1.2795
 1153SOL    HW3 4379   1.398   3.493   5.228 -1.3623 -0.6394  2.3451
 1153SOL    MW4 4380   1.475   3.483   5.268 -0.6843 -0.2294  0.1960
 1154SOL     OW 4381   1.943   5.837   1.460 -0.0319  0.4032  0.5289
 1154SOL    HW2 4382   2.020   5.873   1.415 -0.4948  1.6308  0.7015
 1154SOL    HW3 4383   1.869   5.886   1.424 -0.3851  1.7719  2.9534
 1154SOL    MW4 4384   1.944   5.848   1.449 -0.2581  0.2328 -0.1122
 1155SOL     OW 4385   2.316   1.204   1.410 -0.3151  0.0587  0.3763
 1155SOL    HW2 4386   2.246   1.213   1.475 -1.5172  1.0816 -0.9958
 1155SOL    HW3 4387   2.316   1.111   1.388 -1.2752  0.0455  0.3792
 1155SOL    MW4 4388   2.306   1.193   1.416 -0.6910 -0.4727 -0.5838
 1156SOL     OW 4389   2.586   0.625   1.487  0.0814  0.0465  0.2354
 1156SOL    HW2 4390   2.574   0.543   1.535  0.0114  0.8178  1.6125
 1156SOL    HW3 4391   2.520   0.684   1.524  0.2857  0.7894 -0.5606
 1156SOL    MW4 4392   2.576   0.622   1.499 -0.1870  0.0498  0.2087
 1157SOL     OW 4393   6.210   4.733   2.556 -0.5205 -0.1120  0.3372
 1157SOL    HW2 4394   6.185   4.790   2.629 -1.1414 -0.2510  0.2381
 1157SOL    HW3 4395   6.177   4.646   2.582 -0.2903 -0.2654  0.1219
 1157SOL    MW4 4396   6.202   4.729   2.569  0.3794 -0.1983  0.1810
 1158SOL     OW 4397   2.657   5.261   2.342 -0.0574  0.3116 -0.1489
 1158SOL    HW2 4398   2.602   5.335   2.368 -0.2946 -0.0580  0.4085
 1158SOL    HW3 4399   2.684   5.282   2.252 -0.7787  0.6873 -0.2856
 1158SOL    MW4 4400   2.653   5.274   2.334 -0.1583  0.0500  0.6155
 1159SOL     OW 4401   0.984   1.183   2.116 -0.1535  1.0726 -0.2515
 1159SOL    HW2 4402   1.075   1.161   2.134 -0.1953  0.1564 -1.0412
 1159SOL    HW3 4403   0.956   1.236   2.190  0.1706 -1.0279  1.4720
 1159SOL    MW4 4404   0.992   1.187   2.128  0.5216  0.1653  0.0965
 1160SOL     OW 4405   2.815   0.891   5.815  0.6239  0.0786  0.1772
 1160SOL    HW2 4406   2.764   0.829   5.762 -0.6525  1.1564  0.0877
 1160SOL    HW3 4407   2.860   0.837   5.879  1.5059 -1.1761 -1.4466
 1160SOL    MW4 4408   2.814   0.876   5.817  0.2475  0.0638  0.1551
 1161SOL     OW 4409   4.695   2.948   2.615 -0.0187 -0.2501 -0.0168
 1161SOL    HW2 4410   4.600   2.954   2.616 -0.1047 -0.8619 -1.4469
 1161SOL    HW3 4411   4.725   3.038   2.600 -0.4153 -0.1775 -0.3891
 1161SOL    MW4 4412   4.686   2.961   2.613  0.3453  0.3791 -0.2678
 1162SOL     OW 4413   2.971   5.183   5.506  0.3230  0.2408 -0.2581
 1162SOL    HW2 4414   3.029   5.155   5.436  0.8758 -0.1717  0.3511
 1162SOL    HW3 4415   3.029   5.206   5.578 -0.2673 -0.5708  0.5025
 1162SOL    MW4 4416   2.986   5.182   5.507 -0.1068  0.6767  0.0372
 1163SOL     OW 4417   2.870   1.739   3.648  0.3387 -0.0525 -0.2254
 1163SOL    HW2 4418   2.894   1.766   3.559 -0.1511  1.0962 -0.0311
 1163SOL    HW3 4419   2.810   1.665   3.635  1.0852 -0.5649 -0.8100
 1163SOL    MW4 4420   2.865   1.732   3.635  0.2538  0.0145 -0.4866
 1164SOL     OW 4421   0.572   6.230   0.436  0.1538 -0.0055  0.1030
 1164SOL    HW2 4422   0.651   6.267   0.476  1.6236 -2.6078 -0.1401
 1164SOL    HW3 4423   0.587   6.237   0.342  1.0088 -2.0808  0.0276
 1164SOL    MW4 4424   0.585   6.236   0.429 -0.2151 -0.1363 -0.4152
 1165SOL     OW 4425   0.662   0.069   5.635  0.4412 -0.1579  0.2785
 1165SOL    HW2 4426   0.742   0.028   5.668  1.6909  2.0589  0.2278
 1165SOL    HW3 4427   0.673   0.069   5.540 -0.7572 -1.9062  0.0894
 1165SOL    MW4 4428   0.674   0.064   5.627 -0.6375 -0.3098 -0.0698
 1166SOL     OW 4429   6.233   4.841   0.532 -0.1422  0.2451 -0.2725
 1166SOL    HW2 4430   6.317   4.816   0.571 -1.0562 -2.0026  0.4180
 1166SOL    HW3 4431   6.176   4.858   0.607 -0.3384  1.7839 -0.7347
 1166SOL    MW4 4432   6.237   4.840   0.547 -0.0993 -0.0485  0.0142
 1167SOL     OW 4433   2.536   1.882   3.266  0.0934 -0.1883  0.2902
 1167SOL    HW2 4434   2.505   1.815   3.327 -2.0403  0.8202  0.4203
 1167SOL    HW3 4435   2.532   1.839   3.181 -1.4417 -0.2163  0.3449
 1167SOL    MW4 4436   2.531   1.867   3.263 -0.3737 -0.2948 -0.0433
 1168SOL     OW 4437   5.621   3.397   3.384  0.6928 -0.1066  0.5407
 1168SOL    HW2 4438   5.641   3.402   3.478 -0.6193  0.5881  0.7987
 1168SOL    HW3 4439   5.528   3.416   3.378  0.2994 -2.1457 -0.7258
 1168SOL    MW4 4440   5.612   3.400   3.396 -0.1087 -0.1508  0.8336
 1169SOL     OW 4441   2.750   5.116   6.255 -0.3327 -0.4621 -0.0037
 1169SOL    HW2 4442   2.703   5.064   6.321 -0.9502 -0.9800 -0.8301
 1169SOL    HW3 4443   2.692   5.191   6.239  1.5224  1.7671  2.7831
 1169SOL    MW4 4444   2.736   5.119   6.262 -0.3946 -0.0206  0.2154
 1170SOL     OW 4445   2.048   1.355   4.672  0.2986  0.1785  0.3600
 1170SOL    HW2 4446   1.972   1.315   4.714  0.2962 -2.6079 -1.9387
 1170SOL    HW3 4447   2.114   1.359   4.741 -1.4475  1.4626  2.0710
 1170SOL    MW4 4448   2.047   1.350   4.686 -0.8732 -0.0216 -0.3786
 1171SOL     OW 4449   4.544   4.443   5.497 -0.0612 -0.4327 -0.0709
 1171SOL    HW2 4450   4.634   4.416   5.477  0.3736  1.1903 -0.4761
 1171SOL    HW3 4451   4.489   4.386   5.443  0.6164 -2.3445  1.1503
 1171SOL    MW4 4452   4.549   4.432   5.487  0.3181 -0.2310  0.0790
 1172SOL     OW 4453   3.381   0.808   4.044  0.1889  0.1165 -0.2175
 1172SOL    HW2 4454   3.456   0.867   4.056 -1.0742  1.9252 -0.7315
 1172SOL    HW3 4455   3.334   0.812   4.127  0.6137 -0.9874  0.0904
 1172SOL    MW4 4456   3.385   0.817   4.057  0.6350 -0.1274 -0.4591
 1173SOL     OW 4457   6.336   3.167   3.756 -0.0963  0.0748 -0.6140
 1173SOL    HW2 4458   6.405   3.193   3.695 -1.0558  2.2167 -0.8906
 1173SOL    HW3 4459   6.343   3.072   3.762  3.1451  0.2319 -0.2592
 1173SOL    MW4 4460   6.346   3.158   3.749 -0.0871  0.0472  0.3329
 1174SOL     OW 4461   4.204   2.246   2.909 -0.0975  0.1899 -0.0865
 1174SOL    HW2 4462   4.228   2.292   2.829  0.5224 -0.7288 -0.4531
 1174SOL    HW3 4463   4.108   2.249   2.911 -0.1407 -0.1376 -1.0957
 1174SOL    MW4 4464   4.194   2.252   2.899 -0.0905 -0.2140 -0.9772
 1175SOL     OW 4465   0.764   2.529   0.976  0.0372 -0.2750  0.6558
 1175SOL    HW2 4466   0.769   2.586   1.053  2.0269 -0.8991  1.0519
 1175SOL    HW3 4467   0.848   2.483   0.975  0.3733  0.2135 -2.2791
 1175SOL    MW4 4468   0.776   2.531   0.986 -0.0500  0.2345 -0.6602
 1176SOL     OW 4469   1.274   1.982   3.206  0.2309  0.1913 -0.5520
 1176SOL    HW2 4470   1.209   1.957   3.271 -0.0694 -1.4079 -1.4036
 1176SOL    HW3 4471   1.342   2.028   3.255 -0.1111 -0.7371  0.8240
 1176SOL    MW4 4472   1.275   1.985   3.221  0.2235 -0.5138 -0.5324
 1177SOL     OW 4473   4.170   5.256   1.916  0.0210 -0.2528  0.1392
 1177SOL    HW2 4474   4.204   5.318   1.981  2.6981 -0.2004 -1.1753
 1177SOL    HW3 4475   4.159   5.309   1.837 -1.0360 -0.7923 -0.0951
 1177SOL    MW4 4476   4.173   5.271   1.914 -0.0527 -0.2993  0.0882
 1178SOL     OW 4477   4.180   3.441   0.075  0.7796  0.7325  0.0174
 1178SOL    HW2 4478   4.182   3.370   0.139  0.8733 -0.5412 -1.3449
 1178SOL    HW3 4479   4.086   3.459   0.063  0.5827 -0.9724 -1.4927
 1178SOL    MW4 4480   4.168   3.434   0.082 -0.1707 -0.0769 -0.7980
 1179SOL     OW 4481   4.961   4.240   2.212  0.0226  0.2736 -0.3726
 1179SOL    HW2 4482   4.990   4.153   2.241 -1.0740 -0.0772 -0.3045
 1179SOL    HW3 4483   4.883   4.259   2.265 -2.0781 -0.4072 -3.0224
 1179SOL    MW4 4484   4.955   4.231   2.223  0.0404  0.4081  0.3445
 1180SOL     OW 4485   3.623   1.353   5.522 -0.0560  0.2871 -1.1120
 1180SOL    HW2 4486   3.707   1.374   5.562 -0.1333  0.5298 -1.0777
 1180SOL    HW3 4487   3.596   1.433   5.477  0.3355 -0.1683 -2.2034
 1180SOL    MW4 4488   3.630   1.366   5.521 -0.2114 -0.0630  0.6677
 1181SOL     OW 4489   6.026   2.110   1.022  0.4080  0.0356 -0.1535
 1181SOL    HW2 4490   5.974   2.072   1.093  1.2288  1.6059  1.3567
 1181SOL    HW3 4491   5.968   2.106   0.946 -1.3075  0.1908  1.0799
 1181SOL    MW4 4492   6.011   2.104   1.021  0.4954 -0.2395 -0.8509
 1182SOL     OW 4493   5.191   0.074   4.263 -0.0871 -0.5202  0.0919
 1182SOL    HW2 4494   5.155   0.105   4.346 -2.1554 -1.4533 -0.3921
 1182SOL    HW3 4495   5.120   0.086   4.200  1.4042  0.1101 -1.5690
 1182SOL    MW4 4496   5.177   0.080   4.266 -0.3319  0.0079  0.1799
 1183SOL     OW 4497   4.433   1.931   4.553  1.2916  0.2159  0.0242
 1183SOL    HW2 4498   4.400   2.008   4.598 -1.9631 -0.9255 -0.1922
 1183SOL    HW3 4499   4.434   1.956   4.460 -0.1497 -0.0719 -0.0896
 1183SOL    MW4 4500   4.429   1.944   4.546  0.5927  0.7640  0.6602
 1184SOL     OW 4501   0.020   3.366   3.024 -0.7545 -0.5521  0.1946
 1184SOL    HW2 4502   0.076   3.373   2.946 -0.8934 -0.0333  0.1374
 1184SOL    HW3 4503   0.065   3.302   3.080  0.6593  0.8873  0.7834
 1184SOL    MW4 4504   0.033   3.358   3.021  0.2976  0.3032 -0.0101
 1185SOL     OW 4505   2.428   4.905   5.720  0.4495  0.0985 -0.4795
 1185SOL    HW2 4506   2.505   4.914   5.776  1.5426 -0.0123 -1.9002
 1185SOL    HW3 4507   2.403   4.813   5.729 -1.0383  0.6389  1.8198
 1185SOL    MW4 4508   2.435   4.894   5.728 -0.6009  0.5821  0.2658
 1186SOL     OW 4509   5.494   1.032   4.248 -0.1136  0.2501  0.3144
 1186SOL    HW2 4510   5.427   1.094   4.219 -0.8847 -1.2085 -1.2221
 1186SOL    HW3 4511   5.451   0.946   4.243  1.2075 -0.5227  1.4258
 1186SOL    MW4 4512   5.479   1.029   4.244  0.6115  0.3240 -0.0298
 1187SOL     OW 4513   1.967   4.557   5.578 -0.1879 -0.3285 -0.1621
 1187SOL    HW2 4514   2.047   4.505   5.566  0.0329 -0.0470  0.0623
 1187SOL    HW3 4515   1.960   4.567   5.673  0.0775  0.5191 -0.2264
 1187SOL    MW4 4516   1.977   4.551   5.589 -0.5997 -0.0549  0.4208
 1188SOL     OW 4517   0.077   2.373   5.804  0.2521 -0.0408 -0.3585
 1188SOL    HW2 4518   0.025   2.418   5.738 -1.8737 -2.9474 -0.8438
 1188SOL    HW3 4519   0.048   2.409   5.888 -0.8992 -0.0105 -0.7625
 1188SOL    MW4 4520   0.066   2.383   5.807  0.4541 -0.2281 -0.6063
 1189SOL     OW 4521   3.987   2.091   4.677  0.0509 -0.5508  0.2476
 1189SOL    HW2 4522   3.917   2.038   4.638  1.2106 -2.2366  0.3459
 1189SOL    HW3 4523   4.044   2.027   4.721  0.6269  0.9565  1.8212
 1189SOL    MW4 4524   3.985   2.075   4.678  0.0619  0.0876  0.1717
 1190SOL     OW 4525   1.915   2.643   4.852  0.0114 -0.1239 -0.3782
 1190SOL    HW2 4526   1.970   2.570   4.881 -0.2844  0.2701  1.2874
 1190SOL    HW3 4527   1.825   2.613   4.866 -0.1388  0.1384 -0.7614
 1190SOL    MW4 4528   1.910   2.630   4.858 -0.5234 -0.3803  0.1702
 1191SOL     OW 4529   3.544   0.584   4.073 -0.0653  0.7735 -0.0665
 1191SOL    HW2 4530   3.520   0.496   4.042 -0.6590 -0.5447  3.6293
 1191SOL    HW3 4531   3.468   0.638   4.052 -0.6035 -0.1141 -0.4905
 1191SOL    MW4 4532   3.531   0.579   4.066 -0.8488  0.0773 -0.2289
 1192SOL     OW 4533   4.028   0.164   0.271 -0.4251  0.6886 -0.2866
 1192SOL    HW2 4534   3.935   0.145   0.267 -0.0199 -1.8081  0.3312
 1192SOL    HW3 4535   4.057   0.123   0.353  1.2506  1.1291 -0.6283
 1192SOL    MW4 4536   4.020   0.156   0.281  0.3512 -0.0859  0.1494
 1193SOL     OW 4537   2.759   4.446   2.297 -0.1070 -0.3368  0.3540
 1193SOL    HW2 4538   2.688   4.504   2.324 -0.0605 -0.2783  0.3497
 1193SOL    HW3 4539   2.715   4.375   2.249 -0.0608  0.2050 -0.4999
 1193SOL    MW4 4540   2.744   4.444   2.295  0.1718  0.0338 -0.7601
 1194SOL     OW 4541   3.939   0.211   1.898  0.3023  0.5879 -0.3015
 1194SOL    HW2 4542   3.933   0.132   1.844 -2.8591  0.9586 -0.6982
 1194SOL    HW3 4543   3.931   0.180   1.988 -0.5074  0.3919 -0.4331
 1194SOL    MW4 4544   3.937   0.197   1.903  0.0137  0.1823 -0.2809
 1195SOL     OW 4545   5.281   2.504   4.597  0.6200  0.2959 -0.2160
 1195SOL    HW2 4546   5.232   2.506   4.679  1.4624 -0.5005  0.3326
 1195SOL    HW3 4547   5.223   2.544   4.533  0.4246  2.1166  1.0191
 1195SOL    MW4 4548   5.267   2.509   4.599  0.5240 -1.0804  0.1609
 1196SOL     OW 4549   4.407   4.372   2.612  0.2593 -0.3246  0.0374
 1196SOL    HW2 4550   4.399   4.452   2.664  0.9560  1.2854 -2.1604
 1196SOL    HW3 4551   4.483   4.327   2.649  0.5609  0.6172  0.6037
 1196SOL    MW4 4552   4.416   4.377   2.624 -0.4219  0.5116  0.7430
 1197SOL     OW 4553   4.661   6.396   6.435  0.2218  0.0629  0.0821
 1197SOL    HW2 4554   4.615   6.394   6.518  1.2480  1.2355  0.7123
 1197SOL    HW3 4555   4.724   6.324   6.441  0.8310  0.6365  0.6546
 1197SOL    MW4 4556   4.663   6.386   6.447  0.2288  0.2970  0.4660
 1198SOL     OW 4557   3.357   1.903   0.885 -0.4070  0.0463  0.2882
 1198SOL    HW2 4558   3.333   1.982   0.933  0.5033  0.5816 -0.1200
 1198SOL    HW3 4559   3.435   1.927   0.835 -0.2739 -1.0270 -0.0565
 1198SOL    MW4 4560   3.364   1.916   0.885  0.0702  0.1115  0.4102
 1199SOL     OW 4561   2.639   4.631   0.577  0.5797 -0.1153  0.9522
 1199SOL    HW2 4562   2.623   4.548   0.622  0.9334 -0.8267 -0.1934
 1199SOL    HW3 4563   2.735   4.640   0.577  0.7000 -0.9286 -0.9969
 1199SOL    MW4 4564   2.650   4.621   0.583 -0.4930 -0.4894  0.6783
 1200SOL     OW 4565   1.228   1.859   0.517 -0.0069 -0.0059 -0.5572
 1200SOL    HW2 4566   1.268   1.798   0.579  0.9606  0.0781 -1.0881
 1200SOL    HW3 4567   1.299   1.920   0.493 -0.9477  1.3675 -0.0096
 1200SOL    MW4 4568   1.243   1.859   0.522  0.0464  0.0812 -0.6920
 1201SOL     OW 4569   0.304   5.295   4.955 -0.3663 -0.1336 -0.0259
 1201SOL    HW2 4570   0.243   5.235   4.998 -0.3527 -0.3813 -0.3433
 1201SOL    HW3 4571   0.354   5.334   5.026 -0.3646 -0.5151  0.1865
 1201SOL    MW4 4572   0.303   5.292   4.970 -0.1338  0.1453 -0.0147
 1202SOL     OW 4573   4.922   2.635   1.335  0.4075  0.1122 -0.0202
 1202SOL    HW2 4574   4.957   2.643   1.424 -0.8330 -0.3057  0.5251
 1202SOL    HW3 4575   4.956   2.551   1.304  1.0893  0.3972 -0.0616
 1202SOL    MW4 4576   4.931   2.625   1.343  0.1581 -0.5522  0.1739
 1203SOL     OW 4577   1.672   3.433   5.045 -0.0514 -0.0341 -0.3997
 1203SOL    HW2 4578   1.626   3.464   5.123 -1.4995  0.0500 -1.2522
 1203SOL    HW3 4579   1.635   3.347   5.028 -0.1182  0.1587 -1.2759
 1203SOL    MW4 4580   1.661   3.426   5.054  0.2688  0.3451 -0.8053
 1204SOL     OW 4581   2.852   3.079   0.186  0.5705  0.0889  0.0473
 1204SOL    HW2 4582   2.773   3.051   0.231 -0.5692 -0.3337 -2.0736
 1204SOL    HW3 4583   2.826   3.157   0.137  1.7869  0.6251  0.2043
 1204SOL    MW4 4584   2.838   3.086   0.185 -0.0546  0.3648 -0.0449
 1205SOL     OW 4585   5.916   4.811   3.158 -0.2089 -0.5983 -0.1249
 1205SOL    HW2 4586   5.829   4.803   3.198  0.4852 -1.0425  1.3735
 1205SOL    HW3 4587   5.963   4.871   3.216  0.0168  0.9141 -1.8109
 1205SOL    MW4 4588   5.911   4.818   3.171 -0.2918 -0.3136 -0.2089
 1206SOL     OW 4589   1.705   5.196   0.344  0.0077 -0.4072  0.2808
 1206SOL    HW2 4590   1.635   5.152   0.392  0.5734 -0.2334  1.2921
 1206SOL    HW3 4591   1.751   5.248   0.410  0.3274  0.4685 -0.6006
 1206SOL    MW4 4592   1.702   5.197   0.359 -0.1174  0.1917  0.2735
 1207SOL     OW 4593   1.656   2.543   4.817 -0.0338 -0.0610 -0.0898
 1207SOL    HW2 4594   1.580   2.572   4.767  0.3012 -0.7922 -1.0650
 1207SOL    HW3 4595   1.668   2.451   4.792  0.8503 -0.1042  0.4374
 1207SOL    MW4 4596   1.648   2.535   4.807 -0.6170  0.5407  0.1628
 1208SOL     OW 4597   2.454   1.316   4.327 -0.8014  0.2364  0.0167
 1208SOL    HW2 4598   2.449   1.405   4.291 -1.0282  0.4399  0.5495
 1208SOL    HW3 4599   2.369   1.301   4.366 -0.6636 -0.1080  0.1899
 1208SOL    MW4 4600   2.442   1.326   4.327 -0.4618 -0.2348  0.6123
 1209SOL     OW 4601   4.360   1.019   2.448 -0.0689 -0.1742  0.2890
 1209SOL    HW2 4602   4.408   1.095   2.416  0.3076  0.2762  1.8221
 1209SOL    HW3 4603   4.401   0.944   2.405  0.6243  0.3636 -0.0050
 1209SOL    MW4 4604   4.372   1.019   2.438  0.1427 -0.0435 -0.4729
 1210SOL     OW 4605   6.061   4.231   3.584 -0.4220  0.3991 -0.0728
 1210SOL    HW2 4606   6.006   4.243   3.661  0.8055 -1.4399  1.1974
 1210SOL    HW3 4607   6.142   4.277   3.605  0.1939 -0.7216  0.1099
 1210SOL    MW4 4608   6.065   4.238   3.597 -0.1475 -0.0288 -0.1621
 1211SOL     OW 4609   2.128   0.204   0.136  0.4081 -0.7822  0.1103
 1211SOL    HW2 4610   2.129   0.119   0.091 -1.6235 -1.8248  1.8338
 1211SOL    HW3 4611   2.219   0.220   0.159  0.9642 -2.0287 -1.0511
 1211SOL    MW4 4612   2.140   0.195   0.133 -0.1948 -0.3692 -0.2120
 1212SOL     OW 4613   4.741   5.438   4.407 -1.1228 -0.8734  0.2504
 1212SOL    HW2 4614   4.648   5.421   4.395 -0.8432 -1.8314 -0.7156
 1212SOL    HW3 4615   4.784   5.386   4.339  0.0288  0.7657 -0.3423
 1212SOL    MW4 4616   4.734   5.429   4.396  0.1888  0.0286  0.4112
 1213SOL     OW 4617   5.258   2.581   2.838 -0.4525  0.2094  0.5779
 1213SOL    HW2 4618   5.222   2.500   2.803 -0.6569  0.7548 -0.4995
 1213SOL    HW3 4619   5.352   2.574   2.824 -0.6130  0.8145 -0.9656
 1213SOL    MW4 4620   5.266   2.570   2.832 -0.1129  0.4192 -1.1268
 1214SOL     OW 4621   5.066   5.444   4.446  0.4180 -0.3495  0.5005
 1214SOL    HW2 4622   5.151   5.423   4.405 -0.3965  0.2708 -1.6444
 1214SOL    HW3 4623   5.040   5.362   4.488  0.5785 -1.6357 -1.7000
 1214SOL    MW4 4624   5.074   5.430   4.446 -0.5595  0.1003 -0.2284
 1215SOL     OW 4625   2.939   0.470   4.922 -0.0474  0.1749 -0.0645
 1215SOL    HW2 4626   2.875   0.454   4.992  0.7622  0.1954  0.6993
 1215SOL    HW3 4627   2.997   0.538   4.958  0.6885 -0.1812 -0.5547
 1215SOL    MW4 4628   2.938   0.477   4.936 -0.2386  0.2661  0.6011
 1216SOL     OW 4629   4.632   5.630   5.121 -0.3741  0.5667 -0.1641
 1216SOL    HW2 4630   4.615   5.609   5.030 -0.2123  2.9408 -0.8111
 1216SOL    HW3 4631   4.547   5.654   5.157  0.0068  3.0556 -0.7345
 1216SOL    MW4 4632   4.618   5.630   5.114 -0.1987 -0.3739 -0.1514
 1217SOL     OW 4633   4.202   1.194   0.291  0.2686 -0.3490  0.4745
 1217SOL    HW2 4634   4.222   1.278   0.332  0.9813 -0.3779  0.1977
 1217SOL    HW3 4635   4.253   1.130   0.340 -0.3675 -0.6474  0.7648
 1217SOL    MW4 4636   4.211   1.196   0.303  0.8017  0.4563  0.8084
 1218SOL     OW 4637   2.397   5.220   5.633  0.4616  0.0545  0.1774
 1218SOL    HW2 4638   2.438   5.156   5.691 -2.0463  0.7031  2.9191
 1218SOL    HW3 4639   2.304   5.209   5.648 -0.1707  2.2482 -1.6582
 1218SOL    MW4 4640   2.390   5.210   5.643 -0.6696  0.4265 -0.0634
 1219SOL     OW 4641   6.171   5.280   2.494  0.3039  0.2778 -0.1367
 1219SOL    HW2 4642   6.086   5.314   2.465 -0.9650 -0.1226  2.7418
 1219SOL    HW3 4643   6.231   5.354   2.486 -0.7052  1.0618 -0.7215
 1219SOL    MW4 4644   6.167   5.294   2.489  0.9990 -0.2026 -0.1832
 1220SOL     OW 4645   1.308   1.166   3.690  0.1027  0.1963 -0.0891
 1220SOL    HW2 4646   1.380   1.113   3.722 -0.8368 -1.6562 -0.9127
 1220SOL    HW3 4647   1.342   1.209   3.612 -0.0242 -1.6763 -1.2157
 1220SOL    MW4 4648   1.322   1.165   3.684 -0.3313  0.4871 -0.0378
 1221SOL     OW 4649   4.617   4.744   2.853 -0.1082  0.3291  0.1033
 1221SOL    HW2 4650   4.652   4.832   2.868 -1.0842  0.4460  1.8923
 1221SOL    HW3 4651   4.592   4.744   2.760  0.6020  1.6734 -0.1149
 1221SOL    MW4 4652   4.618   4.756   2.843 -0.0531  0.6412 -0.5289
 1222SOL     OW 4653   2.686   1.726   5.525 -0.2956  0.1812  0.0133
 1222SOL    HW2 4654   2.630   1.649   5.525 -1.2197  0.8244 -0.5323
 1222SOL    HW3 4655   2.683   1.757   5.435 -0.6384  1.3281  0.3973
 1222SOL    MW4 4656   2.678   1.720   5.513  0.6707  0.2725 -0.6840
 1223SOL     OW 4657   2.455   4.289   2.429 -0.1874  0.1747 -0.4175
 1223SOL    HW2 4658   2.473   4.288   2.523  0.6028  0.4239 -0.5554
 1223SOL    HW3 4659   2.430   4.199   2.409  1.0083 -0.2297 -0.2058
 1223SOL    MW4 4660   2.454   4.277   2.439 -0.5171 -0.3284  0.3603
 1224SOL     OW 4661   3.152   6.226   6.125  0.0066  0.1522 -0.8436
 1224SOL    HW2 4662   3.192   6.140   6.112 -1.4046 -0.3604 -2.1448
 1224SOL    HW3 4663   3.200   6.265   6.198  0.4097 -1.9083  0.0516
 1224SOL    MW4 4664   3.163   6.220   6.133  0.0322 -0.5541  0.0930
 1225SOL     OW 4665   0.904   4.686   3.246 -0.2124 -0.0230  0.1984
 1225SOL    HW2 4666   0.994   4.715   3.263 -0.3559  0.6857 -0.2143
 1225SOL    HW3 4667   0.914   4.598   3.210  0.4450  0.6708 -1.4093
 1225SOL    MW4 4668   0.917   4.678   3.243  0.5840 -0.1413 -0.3546
 1226SOL     OW 4669   3.262   3.656   6.303  0.3259  0.5183 -0.1182
 1226SOL    HW2 4670   3.315   3.734   6.321  2.8263 -1.2452  0.7139
 1226SOL    HW3 4671   3.261   3.608   6.386 -0.4342 -0.7720 -0.8326
 1226SOL    MW4 4672   3.269   3.660   6.317 -0.0970 -0.7502 -0.0458
 1227SOL     OW 4673   4.349   5.225   1.381 -0.1668  0.1519  0.0108
 1227SOL    HW2 4674   4.343   5.307   1.430  0.7487 -0.4290  1.1366
 1227SOL    HW3 4675   4.328   5.157   1.446  0.5836 -0.6049 -0.5140
 1227SOL    MW4 4676   4.345   5.227   1.396  0.2743  0.4345  0.3338
 1228SOL     OW 4677   1.785   4.998   4.416  0.3335 -0.1111 -1.0142
 1228SOL    HW2 4678   1.756   5.071   4.471  0.0075  0.3026 -1.7202
 1228SOL    HW3 4679   1.864   4.965   4.459 -0.0288  0.0712 -0.1909
 1228SOL    MW4 4680   1.791   5.003   4.429  0.1883  0.6535 -0.7069
 1229SOL     OW 4681   2.348   0.184   3.415 -0.0038 -0.1837  0.4864
 1229SOL    HW2 4682   2.370   0.163   3.325 -2.6688 -1.9324  0.1287
 1229SOL    HW3 4683   2.280   0.252   3.409  1.0456  0.9785  1.2783
 1229SOL    MW4 4684   2.342   0.190   3.402  0.6317  0.4898 -0.0187
 1230SOL     OW 4685   5.752   2.952   1.498  0.5345 -0.0613 -0.1154
 1230SOL    HW2 4686   5.678   2.947   1.438 -0.4092 -0.5180  1.0358
 1230SOL    HW3 4687   5.799   3.032   1.473 -1.3701  1.2258  0.2268
 1230SOL    MW4 4688   5.749   2.962   1.487  0.4872 -0.5453  0.0860
 1231SOL     OW 4689   5.613   4.401   2.376 -0.6183  0.5032  0.0158
 1231SOL    HW2 4690   5.604   4.433   2.466  0.3635 -0.1114  0.3537
 1231SOL    HW3 4691   5.524   4.392   2.344 -1.0215 -0.2614  1.2936
 1231SOL    MW4 4692   5.600   4.404   2.384 -0.4092 -0.1226 -0.2765
 1232SOL     OW 4693   1.266   2.476   3.341  0.0156 -0.4779 -0.1271
 1232SOL    HW2 4694   1.349   2.460   3.295  1.0334  0.7713  1.1861
 1232SOL    HW3 4695   1.203   2.420   3.296  1.0531  0.2592 -2.6510
 1232SOL    MW4 4696   1.269   2.466   3.329  0.4752  0.2766 -0.0634
 1233SOL     OW 4697   1.491   5.578   5.599  0.2651  0.0236 -0.2862
 1233SOL    HW2 4698   1.442   5.554   5.520 -0.5436 -0.5582  0.3769
 1233SOL    HW3 4699   1.471   5.671   5.613  0.7228  0.2358 -0.9668
 1233SOL    MW4 4700   1.482   5.587   5.590  0.4832 -0.5184  0.2668
 1234SOL     OW 4701   4.700   5.036   4.345 -0.5924  0.3303  0.1503
 1234SOL    HW2 4702   4.764   5.105   4.327 -0.2161  0.4664  1.8433
 1234SOL    HW3 4703   4.615   5.076   4.327 -0.2739  0.1194 -2.2264
 1234SOL    MW4 4704   4.698   5.050   4.340 -0.6343 -0.4951  0.4600
 1235SOL     OW 4705   4.474   4.542   3.403  0.8732  0.1799 -0.4436
 1235SOL    HW2 4706   4.508   4.630   3.388  1.9950 -0.4271 -1.6931
 1235SOL    HW3 4707   4.452   4.509   3.316  0.8122 -0.9124 -0.0363
 1235SOL    MW4 4708   4.475   4.549   3.389 -0.1131  0.8589  0.0147
 1236SOL     OW 4709   4.502   2.587   2.805  0.6784  0.2189 -0.5865
 1236SOL    HW2 4710   4.482   2.666   2.856  0.7765 -0.1711  0.0693
 1236SOL    HW3 4711   4.513   2.518   2.871  0.8896 -0.2797 -1.1342
 1236SOL    MW4 4712   4.501   2.588   2.820 -0.0118 -0.1208 -0.0338
 1237SOL     OW 4713   0.764   5.595   4.357  0.9589 -0.3469  0.3402
 1237SOL    HW2 4714   0.737   5.632   4.441  0.1300 -2.4473  1.0634
 1237SOL    HW3 4715   0.802   5.510   4.380  2.7130 -0.0552 -1.2437
 1237SOL    MW4 4716   0.765   5.589   4.371 -0.0180 -0.1931  0.0725
 1238SOL     OW 4717   5.250   3.960   2.054 -0.1978 -0.7486  0.4019
 1238SOL    HW2 4718   5.299   3.886   2.020  2.8726  1.7539 -1.1681
 1238SOL    HW3 4719   5.302   3.991   2.128  0.2255  1.4338 -0.7197
 1238SOL    MW4 4720   5.263   3.954   2.060  0.3796  0.0368  0.1246
 1239SOL     OW 4721   6.214   4.381   0.987 -0.0520  0.1229 -0.1497
 1239SOL    HW2 4722   6.185   4.369   1.077  1.0465  1.9039  0.5117
 1239SOL    HW3 4723   6.282   4.314   0.974  0.6118  0.5867  0.7828
 1239SOL    MW4 4724   6.219   4.371   0.997 -0.0788 -0.2995  0.5549
 1240SOL     OW 4725   6.339   3.580   1.749  0.4594  0.1472  0.2304
 1240SOL    HW2 4726   6.432   3.580   1.724  1.0324  1.6310  2.1260
 1240SOL    HW3 4727   6.302   3.654   1.700  0.2739 -0.4000 -0.4704
 1240SOL    MW4 4728   6.346   3.590   1.739 -0.7987  0.3183 -0.7089
 1241SOL     OW 4729   6.022   0.126   1.498  0.1612 -0.4094  0.1221
 1241SOL    HW2 4730   5.987   0.213   1.480 -1.0846 -1.0882 -0.9050
 1241SOL    HW3 4731   6.062   0.099   1.415  2.2834 -0.0761  0.9781
 1241SOL    MW4 4732   6.022   0.134   1.484  0.1304 -0.6897 -0.0911
 1242SOL     OW 4733   5.259   5.387   5.787  0.0526 -0.2263  0.1494
 1242SOL    HW2 4734   5.198   5.327   5.745  0.6280 -0.5441 -0.2549
 1242SOL    HW3 4735   5.219   5.473   5.779  0.1524 -0.2747 -1.0737
 1242SOL    MW4 4736   5.246   5.391   5.780 -0.3849 -0.0482  0.6403
 1243SOL     OW 4737   1.072   5.288   3.094  0.2161 -0.8472  0.4387
 1243SOL    HW2 4738   1.093   5.288   3.187 -0.0981 -1.1176  0.5106
 1243SOL    HW3 4739   1.149   5.328   3.052 -0.8130  2.0530  1.0641
 1243SOL    MW4 4740   1.085   5.293   3.101 -0.3851 -0.2250  0.0554
 1244SOL     OW 4741   4.240   0.090   3.318  0.2136 -0.1724  0.6174
 1244SOL    HW2 4742   4.245   0.029   3.244 -0.7281  1.2459 -0.6905
 1244SOL    HW3 4743   4.225   0.035   3.394  0.9005 -1.6678 -0.2940
 1244SOL    MW4 4744   4.238   0.075   3.318  0.1720 -0.8475 -0.3689
 1245SOL     OW 4745   4.600   0.289   3.845  0.1299  0.0394 -0.6226
 1245SOL    HW2 4746   4.600   0.240   3.762  0.8998 -0.7951 -0.1365
 1245SOL    HW3 4747   4.692   0.305   3.864 -0.0873  1.5157 -0.6493
 1245SOL    MW4 4748   4.612   0.285   3.836 -0.3759  0.2629 -0.5052
 1246SOL     OW 4749   0.503   1.644   5.358 -0.6235 -0.0160 -0.5102
 1246SOL    HW2 4750   0.483   1.566   5.306 -1.6951 -0.0152 -0.1226
 1246SOL    HW3 4751   0.458   1.715   5.313 -0.3915  0.2253 -0.3638
 1246SOL    MW4 4752   0.494   1.643   5.345  0.4725 -0.2107 -0.3093
 1247SOL     OW 4753   4.664   6.288   5.502 -0.3713 -0.2765 -0.2917
 1247SOL    HW2 4754   4.619   6.224   5.558  1.0753 -0.3910  0.8026
 1247SOL    HW3 4755   4.626   6.274   5.415 -3.1045  0.2724  0.6879
 1247SOL    MW4 4756   4.653   6.278   5.498 -0.2126  0.2077 -0.0229
 1248SOL     OW 4757   4.496   5.149   5.394  0.0792 -0.7646 -0.3018
 1248SOL    HW2 4758   4.435   5.213   5.431 -0.0610 -1.4174  0.6158
 1248SOL    HW3 4759   4.580   5.170   5.434  0.3471 -0.2402 -1.1166
 1248SOL    MW4 4760   4.499   5.160   5.404  0.1530 -0.2819 -0.1474
 1249SOL     OW 4761   4.303   3.711   5.256  0.2278  0.1953 -0.1425
 1249SOL    HW2 4762   4.227   3.731   5.311  0.1762  0.3605 -0.2734
 1249SOL    HW3 4763   4.358   3.656   5.311 -0.3938 -0.6414 -0.3395
 1249SOL    MW4 4764   4.300   3.706   5.270  0.6019  0.5278 -0.0943
 1250SOL     OW 4765   0.947   0.831   4.297 -0.3866  0.0682  0.0523
 1250SOL    HW2 4766   0.911   0.760   4.350 -0.1173  0.9035  1.3814
 1250SOL    HW3 4767   1.005   0.879   4.356  0.6582  0.4783 -1.2570
 1250SOL    MW4 4768   0.949   0.828   4.311  0.4610  0.0986  0.3128
 1251SOL     OW 4769   5.696   2.154   6.348  0.3327  0.1857 -0.2399
 1251SOL    HW2 4770   5.711   2.242   6.314 -2.8536  0.9919  0.1310
 1251SOL    HW3 4771   5.704   2.162   6.443 -0.5799  0.2473 -0.1604
 1251SOL    MW4 4772   5.699   2.167   6.356 -0.5164  0.1650  1.0212
 1252SOL     OW 4773   4.357   4.955   6.082 -0.1709  0.4909  0.1791
 1252SOL    HW2 4774   4.452   4.950   6.070 -0.2172 -0.8288  0.1539
 1252SOL    HW3 4775   4.323   4.892   6.019 -0.9911  0.1033  0.9950
 1252SOL    MW4 4776   4.365   4.946   6.072  0.3264  0.4582 -0.0396
 1253SOL     OW 4777   5.692   4.330   3.657  0.5213 -0.0755  0.0200
 1253SOL    HW2 4778   5.674   4.236   3.665 -2.5690  0.4148  0.0325
 1253SOL    HW3 4779   5.776   4.342   3.700  0.8497 -2.8011  0.2867
 1253SOL    MW4 4780   5.700   4.319   3.664 -0.2783  0.1877  0.1262
 1254SOL     OW 4781   0.098   2.829   5.055  0.5743 -0.2989 -0.1279
 1254SOL    HW2 4782   0.021   2.881   5.077  1.4248  0.6889  0.6240
 1254SOL    HW3 4783   0.142   2.879   4.986  0.5158 -0.8965 -0.6106
 1254SOL    MW4 4784   0.093   2.842   5.049 -0.4624 -0.3555  0.1446
 1255SOL     OW 4785   3.035   1.082   3.072 -0.4718  0.2976 -0.3656
 1255SOL    HW2 4786   2.976   1.138   3.123  0.1820  0.0224  0.7422
 1255SOL    HW3 4787   3.041   1.001   3.124  1.0854  0.4301 -0.3028
 1255SOL    MW4 4788   3.028   1.078   3.086 -0.0297 -0.3257  0.4994
 1256SOL     OW 4789   3.914   3.275   2.872 -0.5722  0.3108  0.0059
 1256SOL    HW2 4790   3.851   3.346   2.883  0.2732  1.3437 -1.4850
 1256SOL    HW3 4791   3.985   3.313   2.820  0.0893 -1.5160 -0.5194
 1256SOL    MW4 4792   3.915   3.289   2.866  0.1053  0.3064  1.1584
 1257SOL     OW 4793   4.058   3.336   1.327 -0.3182  0.7404 -0.2595
 1257SOL    HW2 4794   4.060   3.371   1.238 -0.6686 -0.8545 -0.9103
 1257SOL    HW3 4795   4.110   3.256   1.324 -1.0625  0.1856  0.7528
 1257SOL    MW4 4796   4.065   3.330   1.315  0.1127  0.2821  0.4636
 1258SOL     OW 4797   4.240   1.371   1.736 -0.4939  0.2967 -0.3585
 1258SOL    HW2 4798   4.326   1.340   1.766 -1.0527  0.1851  1.2471
 1258SOL    HW3 4799   4.259   1.448   1.683  0.6222  0.0475 -0.3428
 1258SOL    MW4 4800   4.254   1.377   1.733 -0.4281  0.1290 -0.3921
 1259SOL     OW 4801   5.045   3.644   1.443 -0.0129  0.3387  0.2265
 1259SOL    HW2 4802   5.011   3.681   1.362 -1.4569  0.0681  0.6724
 1259SOL    HW3 4803   4.972   3.651   1.505  0.1986 -1.7309  0.7880
 1259SOL    MW4 4804   5.031   3.650   1.440 -0.1625  0.1173  0.1208
 1260SOL     OW 4805   6.036   6.429   1.231 -0.1999  0.1670 -0.3223
 1260SOL    HW2 4806   6.120   6.428   1.185  0.4188  1.9807  0.7047
 1260SOL    HW3 4807   6.021   6.337   1.253  0.5229 -0.4691 -2.2236
 1260SOL    MW4 4808   6.045   6.417   1.228 -0.5879  0.5439 -0.9266
 1261SOL     OW 4809   4.310   3.117   5.606  0.5625  0.2057 -0.5048
 1261SOL    HW2 4810   4.308   3.197   5.659  0.2612  0.5691 -1.0643
 1261SOL    HW3 4811   4.368   3.138   5.533  0.7241 -0.1928 -0.4945
 1261SOL    MW4 4812   4.318   3.130   5.603  0.2435  0.0528  0.0143
 1262SOL     OW 4813   2.190   5.966   5.691 -0.1544  0.3701 -0.5155
 1262SOL    HW2 4814   2.139   5.925   5.760  0.9558 -1.5538 -0.7471
 1262SOL    HW3 4815   2.280   5.965   5.724 -0.2222  4.7085  0.3832
 1262SOL    MW4 4816   2.195   5.961   5.704  0.0344 -0.3406 -0.7278
 1263SOL     OW 4817   4.432   1.304   2.404  0.2276  0.5309 -0.1642
 1263SOL    HW2 4818   4.342   1.274   2.405  0.4549 -0.1658  1.1867
 1263SOL    HW3 4819   4.459   1.294   2.313 -0.9031  0.3038 -0.4899
 1263SOL    MW4 4820   4.424   1.299   2.392 -0.3012 -0.4191 -0.5635
 1264SOL     OW 4821   4.873   3.995   2.643 -0.8808 -0.3088 -0.7900
 1264SOL    HW2 4822   4.788   3.971   2.605 -1.1866  0.5289 -0.6515
 1264SOL    HW3 4823   4.880   4.090   2.629  0.2408 -0.4311 -1.2162
 1264SOL    MW4 4824   4.863   4.004   2.636 -0.2926 -0.6104 -0.2576
 1265SOL     OW 4825   1.061   2.911   4.051 -0.1483  0.9259 -0.5825
 1265SOL    HW2 4826   1.086   2.821   4.070  0.0843  1.1898  0.3946
 1265SOL    HW3 4827   0.972   2.919   4.085 -0.0090  1.1847 -0.2713
 1265SOL    MW4 4828   1.052   2.900   4.058 -0.0618  0.1371  0.4960
 1266SOL     OW 4829   1.934   0.380   4.695  0.9991 -1.3108  0.5086
 1266SOL    HW2 4830   2.009   0.402   4.750  0.0394 -0.1276  1.4000
 1266SOL    HW3 4831   1.964   0.398   4.606  2.0646 -1.7674  0.7503
 1266SOL    MW4 4832   1.948   0.385   4.690 -0.4073 -0.6883 -0.6120
 1267SOL     OW 4833   4.203   5.405   3.775  0.3088 -0.2584 -0.1827
 1267SOL    HW2 4834   4.195   5.498   3.755 -2.2520 -0.2242  0.6166
 1267SOL    HW3 4835   4.113   5.375   3.785  1.0672 -2.8740 -0.5364
 1267SOL    MW4 4836   4.190   5.413   3.774  0.1966  0.1685  0.4015
 1268SOL     OW 4837   1.316   5.366   1.252  0.2754  0.6479  0.5867
 1268SOL    HW2 4838   1.406   5.334   1.251  0.1833  0.3171 -1.3901
 1268SOL    HW3 4839   1.262   5.287   1.246 -0.1510  0.8576  1.5605
 1268SOL    MW4 4840   1.321   5.352   1.251  0.1508 -0.1172 -0.2222
 1269SOL     OW 4841   5.153   6.075   3.118 -0.4118 -0.0356 -0.0109
 1269SOL    HW2 4842   5.102   6.089   3.197 -0.0811 -0.4667  0.2827
 1269SOL    HW3 4843   5.230   6.027   3.147  0.4587  1.1051 -0.3483
 1269SOL    MW4 4844   5.157   6.071   3.132  0.5129 -0.3367 -0.5323
 1270SOL     OW 4845   6.370   1.380   5.259  0.2536  0.1876 -0.1203
 1270SOL    HW2 4846   6.292   1.395   5.312 -0.4238  0.1718 -1.0728
 1270SOL    HW3 4847   6.436   1.348   5.320 -0.4372  0.3667  0.7306
 1270SOL    MW4 4848   6.368   1.377   5.274  0.2172 -0.2303 -0.2545
 1271SOL     OW 4849   0.406   1.852   2.075  0.2483  0.0855 -0.3337
 1271SOL    HW2 4850   0.392   1.807   1.992 -0.3723 -0.2450 -0.0548
 1271SOL    HW3 4851   0.403   1.783   2.141 -1.3742  0.5843  0.1654
 1271SOL    MW4 4852   0.404   1.837   2.073  0.4132  0.2831  0.3732
 1272SOL     OW 4853   5.089   1.285   2.969 -0.8133  0.0242  0.1683
 1272SOL    HW2 4854   5.154   1.214   2.970 -1.6841 -0.9781 -3.0004
 1272SOL    HW3 4855   5.015   1.249   3.017  0.1402  0.3799  1.9991
 1272SOL    MW4 4856   5.088   1.271   2.976 -0.3144  0.0454  0.3127
 1273SOL     OW 4857   2.782   4.985   4.829 -0.2977  0.3498  0.0534
 1273SOL    HW2 4858   2.850   4.946   4.884  0.1619  0.7349 -0.2428
 1273SOL    HW3 4859   2.760   5.067   4.873  0.6626  1.0618 -0.7791
 1273SOL    MW4 4860   2.788   4.991   4.842 -0.5629  0.0751  0.4613
 1274SOL     OW 4861   4.027   5.573   2.929 -0.5071 -0.1675  0.2420
 1274SOL    HW2 4862   3.961   5.504   2.924 -0.9208  0.2975 -1.7804
 1274SOL    HW3 4863   3.976   5.654   2.922 -0.0338  0.3916  2.6220
 1274SOL    MW4 4864   4.011   5.575   2.927  0.8327 -0.2122 -0.5710
 1275SOL     OW 4865   1.094   2.464   5.186 -0.4492  0.2870  0.3938
 1275SOL    HW2 4866   1.031   2.532   5.210 -1.3958  0.4422 -2.1794
 1275SOL    HW3 4867   1.156   2.507   5.128 -0.9099 -0.9156 -1.0652
 1275SOL    MW4 4868   1.094   2.478   5.181 -0.3870  0.4663 -0.5275
 1276SOL     OW 4869   5.430   3.624   2.560  0.4654 -0.5384 -0.3947
 1276SOL    HW2 4870   5.489   3.678   2.508 -0.0401 -0.1979 -0.6267
 1276SOL    HW3 4871   5.435   3.537   2.521 -1.2827  0.0902 -2.2295
 1276SOL    MW4 4872   5.438   3.620   2.548  0.8024 -0.5566 -0.0571
 1277SOL     OW 4873   2.343   2.896   5.327  0.5718  0.0652  0.3108
 1277SOL    HW2 4874   2.254   2.900   5.363  0.0877  1.2807 -0.9366
 1277SOL    HW3 4875   2.341   2.954   5.251  1.8184 -1.6931 -1.1399
 1277SOL    MW4 4876   2.331   2.904   5.322  0.1325 -0.2022  0.4909
 1278SOL     OW 4877   5.906   0.309   4.631  0.2312 -0.2069  0.2397
 1278SOL    HW2 4878   5.914   0.237   4.693  0.2567  0.3279  0.8610
 1278SOL    HW3 4879   5.897   0.266   4.546 -1.2581 -0.9647  0.7573
 1278SOL    MW4 4880   5.906   0.294   4.628 -0.6337 -0.6372  0.1275
 1279SOL     OW 4881   3.557   0.745   0.853 -0.0496 -0.0425 -0.9448
 1279SOL    HW2 4882   3.485   0.735   0.916 -0.5699  0.5192 -1.4384
 1279SOL    HW3 4883   3.581   0.655   0.831  1.0457 -0.2870  1.0384
 1279SOL    MW4 4884   3.551   0.731   0.858  0.0065  0.5935 -0.1997
 1280SOL     OW 4885   1.198   1.954   4.368  0.2578 -0.1790  0.4047
 1280SOL    HW2 4886   1.165   1.869   4.396  1.3665 -0.7197  0.1474
 1280SOL    HW3 4887   1.138   1.983   4.300  0.5823 -1.3487 -0.3958
 1280SOL    MW4 4888   1.186   1.946   4.363 -0.1545  0.3446 -0.4693
 1281SOL     OW 4889   1.598   0.605   1.934 -0.0193 -0.0539  0.1596
 1281SOL    HW2 4890   1.507   0.615   1.904 -0.1261 -1.1105  0.0985
 1281SOL    HW3 4891   1.598   0.643   2.022 -0.0620  1.6646 -0.5397
 1281SOL    MW4 4892   1.586   0.612   1.942 -0.3424  0.1726 -0.2757
 1282SOL     OW 4893   2.227   1.336   1.144 -0.5949  0.6363 -0.3596
 1282SOL    HW2 4894   2.270   1.314   1.227  0.4639 -1.4471 -1.3936
 1282SOL    HW3 4895   2.246   1.429   1.132 -2.0426  1.4302  2.3997
 1282SOL    MW4 4896   2.235   1.345   1.154 -0.4616  0.2437  0.1363
 1283SOL     OW 4897   5.104   4.773   3.562  0.0839 -0.2646  0.1327
 1283SOL    HW2 4898   5.191   4.792   3.596 -0.0011  0.0849  0.1602
 1283SOL    HW3 4899   5.056   4.736   3.636 -0.2863  1.0510  0.5849
 1283SOL    MW4 4900   5.109   4.770   3.576  0.4497  0.3427  0.1695
 1284SOL     OW 4901   2.948   2.443   1.649  0.3066 -0.0470 -0.3791
 1284SOL    HW2 4902   2.896   2.368   1.619  0.9047 -0.3167 -0.7698
 1284SOL    HW3 4903   2.938   2.444   1.744 -0.6630  0.0982 -0.4748
 1284SOL    MW4 4904   2.940   2.433   1.657 -1.0031 -0.5579  0.5166
 1285SOL     OW 4905   5.720   0.040   0.038  0.9181 -0.3062 -0.1502
 1285SOL    HW2 4906   5.722   0.135   0.051  1.1865 -0.1846 -1.0063
 1285SOL    HW3 4907   5.662   0.007   0.106 -1.1190  0.7207 -1.3176
 1285SOL    MW4 4908   5.713   0.048   0.049 -0.3802 -0.4289 -0.5417
 1286SOL     OW 4909   0.576   0.408   4.315 -0.0604 -0.2964  0.3378
 1286SOL    HW2 4910   0.605   0.328   4.271 -0.5127 -1.1419  1.5216
 1286SOL    HW3 4911   0.654   0.439   4.362 -0.0311 -0.3637  0.3335
 1286SOL    MW4 4912   0.590   0.401   4.315 -0.3213 -0.1628  0.2184
 1287SOL     OW 4913   5.954   2.120   4.921 -0.1358  0.4473 -0.1670
 1287SOL    HW2 4914   5.913   2.207   4.912 -1.5917 -0.2100 -0.1846
 1287SOL    HW3 4915   6.028   2.135   4.979 -0.4779  1.6667 -0.0034
 1287SOL    MW4 4916   5.958   2.134   4.927 -0.0838 -0.2378 -0.4337
 1288SOL     OW 4917   2.416   1.047   0.656 -0.1791 -0.1630  0.3430
 1288SOL    HW2 4918   2.476   1.079   0.723  0.1305  1.7834 -0.7792
 1288SOL    HW3 4919   2.336   1.098   0.671 -0.6922 -0.9416  0.2757
 1288SOL    MW4 4920   2.413   1.058   0.667  0.3172  0.0717  0.2266
 1289SOL     OW 4921   2.087   1.097   5.070 -0.4398 -0.5273  0.2796
 1289SOL    HW2 4922   2.094   1.086   5.165 -0.5973 -1.4569  0.1941
 1289SOL    HW3 4923   2.078   1.008   5.036  0.2691 -0.2522 -0.6653
 1289SOL    MW4 4924   2.087   1.084   5.078  0.4650 -0.2678  0.4851
 1290SOL     OW 4925   1.855   4.545   4.324  0.3152  0.2261 -0.0762
 1290SOL    HW2 4926   1.771   4.590   4.327 -0.7222 -1.6243  2.1870
 1290SOL    HW3 4927   1.892   4.559   4.411  1.5083 -0.5082 -0.4451
 1290SOL    MW4 4928   1.849   4.553   4.336 -0.3346  0.2377 -0.1660
 1291SOL     OW 4929   2.669   4.554   4.260  0.5591  0.6006  0.4012
 1291SOL    HW2 4930   2.733   4.490   4.228  1.2559  1.4009  0.1775
 1291SOL    HW3 4931   2.591   4.539   4.206  0.5014 -0.4424  0.7372
 1291SOL    MW4 4932   2.667   4.544   4.249 -0.1821 -0.7096  0.3153
 1292SOL     OW 4933   2.532   3.631   0.209 -0.9233  0.0603 -0.5211
 1292SOL    HW2 4934   2.447   3.624   0.252 -0.6042  0.0992  0.1358
 1292SOL    HW3 4935   2.595   3.631   0.281 -0.1729 -2.6965 -1.0732
 1292SOL    MW4 4936   2.529   3.630   0.224  0.4215  0.2539  0.5342
 1293SOL     OW 4937   6.086   1.764   0.752  0.4955 -0.1749 -0.0130
 1293SOL    HW2 4938   6.047   1.791   0.835 -0.0830  0.5806 -0.5123
 1293SOL    HW3 4939   6.171   1.808   0.749  0.5775 -0.3154  0.2372
 1293SOL    MW4 4940   6.092   1.774   0.762  0.0123  0.1969 -0.2719
 1294SOL     OW 4941   3.569   5.020   5.360  0.4042  0.0024 -0.5466
 1294SOL    HW2 4942   3.475   5.014   5.346  0.2648  0.9032 -0.0554
 1294SOL    HW3 4943   3.601   5.077   5.289  0.8352 -1.5658 -1.6664
 1294SOL    MW4 4944   3.561   5.027   5.349 -0.3818  0.3691  0.6684
 1295SOL     OW 4945   1.710   3.167   4.722  0.5620  0.0792 -0.6825
 1295SOL    HW2 4946   1.780   3.119   4.678  1.4178  1.3217 -0.7384
 1295SOL    HW3 4947   1.630   3.137   4.680  1.0921 -1.0209 -0.9526
 1295SOL    MW4 4948   1.709   3.157   4.711 -0.2461  0.2941 -0.2760
 1296SOL     OW 4949   3.295   4.285   1.304  0.1148 -0.3062  0.1837
 1296SOL    HW2 4950   3.301   4.191   1.286  0.4897 -0.5893  1.6191
 1296SOL    HW3 4951   3.206   4.298   1.335  0.6434 -0.6211  1.9900
 1296SOL    MW4 4952   3.284   4.274   1.306 -0.4741  0.1436  0.1127
 1297SOL     OW 4953   4.352   4.540   2.117 -0.5931 -0.3429 -0.0335
 1297SOL    HW2 4954   4.339   4.555   2.211  1.7964  0.5845  0.2046
 1297SOL    HW3 4955   4.315   4.453   2.101 -0.8366 -0.6120  1.8049
 1297SOL    MW4 4956   4.345   4.530   2.127  0.1270  0.2489 -0.3237
 1298SOL     OW 4957   3.826   5.971   2.052  0.3468  0.1446  0.1341
 1298SOL    HW2 4958   3.738   6.010   2.048  0.3054  0.1124  0.6558
 1298SOL    HW3 4959   3.864   5.989   1.966  0.7123  2.2384  0.6839
 1298SOL    MW4 4960   3.819   5.979   2.040  0.1604 -0.2333  0.4610
 1299SOL     OW 4961   0.419   6.214   1.446  0.1039 -0.5326 -0.3502
 1299SOL    HW2 4962   0.396   6.170   1.527 -0.1309  0.6425  0.2473
 1299SOL    HW3 4963   0.458   6.297   1.474 -0.7861  0.2835 -1.4467
 1299SOL    MW4 4964   0.421   6.219   1.460  0.1117  0.0054  0.1527
 1300SOL     OW 4965   3.899   4.990   2.386  0.1695  0.0189 -0.3137
 1300SOL    HW2 4966   3.993   5.008   2.381  0.5612 -1.7835 -0.0487
 1300SOL    HW3 4967   3.872   4.979   2.295  1.0155 -2.9479 -0.3251
 1300SOL    MW4 4968   3.908   4.991   2.373 -0.4898 -0.1269 -0.8177
 1301SOL     OW 4969   1.630   5.453   3.412  0.3362  0.0870  0.3225
 1301SOL    HW2 4970   1.668   5.406   3.486 -1.1152 -0.9093  0.4775
 1301SOL    HW3 4971   1.580   5.525   3.453  1.7573  1.2151  0.1366
 1301SOL    MW4 4972   1.628   5.456   3.427 -0.0061 -0.1678  0.1874
 1302SOL     OW 4973   2.483   4.466   0.387 -0.4425  0.0491  0.1491
 1302SOL    HW2 4974   2.537   4.513   0.449  0.7267 -0.5428 -0.3920
 1302SOL    HW3 4975   2.418   4.420   0.440  0.3679 -0.2261  0.9139
 1302SOL    MW4 4976   2.481   4.466   0.402 -0.0746 -0.2214  0.2419
 1303SOL     OW 4977   4.341   3.807   5.993  0.3252  0.5043  0.3080
 1303SOL    HW2 4978   4.297   3.740   6.046  1.0204 -2.5408 -2.5780
 1303SOL    HW3 4979   4.433   3.781   5.993  0.8392  2.1997  0.0279
 1303SOL    MW4 4980   4.347   3.794   6.000 -0.6118 -0.3733 -0.3887
 1304SOL     OW 4981   3.608   1.394   4.133 -0.0914 -0.3397 -0.1028
 1304SOL    HW2 4982   3.548   1.451   4.182  1.6367  0.4727  1.2069
 1304SOL    HW3 4983   3.567   1.384   4.047 -0.8670  2.2939 -0.1443
 1304SOL    MW4 4984   3.595   1.400   4.128  0.6138  0.3225  0.2233
 1305SOL     OW 4985   3.612   1.030   2.350 -0.0026 -0.9173 -0.1556
 1305SOL    HW2 4986   3.692   1.082   2.341 -0.3215 -0.6673 -1.9603
 1305SOL    HW3 4987   3.610   0.976   2.271 -1.9532 -0.4006 -0.5285
 1305SOL    MW4 4988   3.622   1.030   2.338 -0.2583  0.1321 -0.1035
 1306SOL     OW 4989   4.860   5.909   5.498  0.3498 -0.0234 -0.3091
 1306SOL    HW2 4990   4.868   5.980   5.434 -0.2945  0.9587  0.6617
 1306SOL    HW3 4991   4.917   5.840   5.465 -0.4812  0.1785 -2.3059
 1306SOL    MW4 4992   4.868   5.909   5.485 -0.2178  0.1906 -0.1478
 1307SOL     OW 4993   3.385   4.126   0.260  0.1708 -0.8527  0.2680
 1307SOL    HW2 4994   3.457   4.168   0.307 -0.1142  0.4814 -0.4480
 1307SOL    HW3 4995   3.425   4.095   0.179 -0.1224  0.2024 -0.2887
 1307SOL    MW4 4996   3.400   4.127   0.256  0.2494 -0.0965  0.1227
 1308SOL     OW 4997   2.884   1.229   3.254 -0.4410  0.3540  0.5094
 1308SOL    HW2 4998   2.906   1.307   3.304 -0.8589 -0.0375  1.3342
 1308SOL    HW3 4999   2.880   1.159   3.320 -1.1883 -0.1391 -0.0358
 1308SOL    MW4 5000   2.886   1.230   3.270 -0.3892  0.1166 -0.0552
 1309SOL     OW 5001   1.895   3.881   0.153 -0.5920  0.8832  0.1179
 1309SOL    HW2 5002   1.827   3.833   0.199  0.0307  0.4238  0.5744
 1309SOL    HW3 5003   1.968   3.885   0.215  0.4141 -0.0995 -0.9339
 1309SOL    MW4 5004   1.896   3.875   0.167  0.3835 -0.3856 -0.6641
 1310SOL     OW 5005   3.993   0.685   0.452 -0.4613  0.0332 -0.0943
 1310SOL    HW2 5006   3.970   0.751   0.387 -1.4491  0.0690  0.2778
 1310SOL    HW3 5007   3.921   0.687   0.515  1.5365  1.6708  2.3295
 1310SOL    MW4 5008   3.980   0.694   0.452 -0.4916  0.1533  0.1535
 1311SOL     OW 5009   0.741   3.791   4.184 -0.0457  0.1280  0.2318
 1311SOL    HW2 5010   0.689   3.850   4.238  0.6369 -0.4604  1.5966
 1311SOL    HW3 5011   0.831   3.823   4.195  0.2217 -0.6328  0.3089
 1311SOL    MW4 5012   0.746   3.803   4.193  0.1668 -0.0033 -0.6043
 1312SOL     OW 5013   0.651   4.512   2.491 -0.3014  0.4884  0.4614
 1312SOL    HW2 5014   0.682   4.602   2.482 -1.2216  0.7242 -0.5732
 1312SOL    HW3 5015   0.694   4.480   2.571  0.9773  1.4401  0.2003
 1312SOL    MW4 5016   0.661   4.520   2.501  0.4075  0.3991  0.2203
 1313SOL     OW 5017   0.640   5.925   5.336  0.2030 -0.0143  0.2542
 1313SOL    HW2 5018   0.588   5.871   5.278  1.0922 -0.5163 -0.0915
 1313SOL    HW3 5019   0.725   5.880   5.342  0.6674  0.8824  0.6397
 1313SOL    MW4 5020   0.644   5.912   5.329  0.6554 -0.3166  0.4780
 1314SOL     OW 5021   0.301   5.615   3.783  0.0525 -0.2569 -0.0475
 1314SOL    HW2 5022   0.347   5.693   3.812 -1.5302  0.8703 -0.4597
 1314SOL    HW3 5023   0.352   5.584   3.708  1.2447 -0.2153  0.7248
 1314SOL    MW4 5024   0.314   5.621   3.777 -0.4849 -0.2068 -0.2854
 1315SOL     OW 5025   2.516   1.832   4.808  0.0503 -0.5138  0.6303
 1315SOL    HW2 5026   2.459   1.879   4.747  0.1261  1.1139  1.7664
 1315SOL    HW3 5027   2.585   1.796   4.752  0.5151  1.5341 -0.2373
 1315SOL    MW4 5028   2.518   1.834   4.792 -0.2370 -0.0055 -0.1671
 1316SOL     OW 5029   1.394   0.906   0.551 -0.2166  0.7386  0.3632
 1316SOL    HW2 5030   1.410   0.815   0.527  0.7620  0.5543  1.6092
 1316SOL    HW3 5031   1.299   0.912   0.561 -0.2340 -0.3156  0.9096
 1316SOL    MW4 5032   1.383   0.895   0.549  0.2709 -1.1204  0.1515
 1317SOL     OW 5033   3.077   2.703   1.720 -0.3648  0.3269 -0.0285
 1317SOL    HW2 5034   3.006   2.641   1.699  0.0284  0.0932 -0.6885
 1317SOL    HW3 5035   3.070   2.771   1.653  1.9510 -1.2852 -2.0807
 1317SOL    MW4 5036   3.067   2.704   1.708  0.2542 -0.3700 -0.9087
 1318SOL     OW 5037   2.634   1.698   2.244 -0.3592 -0.3670  0.0308
 1318SOL    HW2 5038   2.693   1.625   2.223  1.0543  0.8599 -0.4021
 1318SOL    HW3 5039   2.568   1.659   2.302  1.4805 -1.5606  1.4339
 1318SOL    MW4 5040   2.633   1.683   2.249 -0.6004 -0.1958  0.0391
 1319SOL     OW 5041   3.581   0.933   3.713  0.0650 -0.3367 -0.0401
 1319SOL    HW2 5042   3.639   0.938   3.789 -0.3325  3.5780  0.2229
 1319SOL    HW3 5043   3.494   0.953   3.748 -0.6313 -1.3702 -1.1269
 1319SOL    MW4 5044   3.578   0.937   3.728 -0.0830 -0.1439  0.3649
 1320SOL     OW 5045   1.880   3.846   3.624 -0.5010 -0.0637 -0.2481
 1320SOL    HW2 5046   1.894   3.915   3.560 -0.7090  0.3291  0.1310
 1320SOL    HW3 5047   1.917   3.880   3.706  3.5192 -2.0619 -0.9341
 1320SOL    MW4 5048   1.887   3.859   3.626 -0.1502 -0.1138  0.4682
 1321SOL     OW 5049   0.258   0.518   4.735  0.2743  0.7559 -0.6713
 1321SOL    HW2 5050   0.300   0.484   4.656 -0.3324  0.0734 -0.7102
 1321SOL    HW3 5051   0.299   0.469   4.806 -0.4475  0.0851 -0.7098
 1321SOL    MW4 5052   0.269   0.507   4.734  0.3925  0.0202  0.5708
 1322SOL     OW 5053   3.096   3.439   0.992 -0.6062 -0.1741  0.4482
 1322SOL    HW2 5054   3.160   3.410   1.057  0.0999 -1.7624 -0.8659
 1322SOL    HW3 5055   3.098   3.535   0.997  0.7496 -0.2244  1.4975
 1322SOL    MW4 5056   3.105   3.448   1.001  0.0757  0.2239  0.2101
 1323SOL     OW 5057   5.432   5.114   6.388  0.4534  0.0073  0.1489
 1323SOL    HW2 5058   5.355   5.169   6.374  1.1141  1.0605  0.4970
 1323SOL    HW3 5059   5.420   5.077   6.475  0.6428  0.7057  0.4802
 1323SOL    MW4 5060   5.421   5.117   6.398 -0.4202 -0.4072 -0.0454
 1324SOL     OW 5061   5.856   3.310   4.791  0.1671 -0.2904  0.0665
 1324SOL    HW2 5062   5.919   3.256   4.744 -0.8895  0.6195 -2.6384
 1324SOL    HW3 5063   5.784   3.322   4.728 -2.3173 -0.5373  2.6452
 1324SOL    MW4 5064   5.855   3.304   4.776 -0.3102 -0.3165 -0.0535
 1325SOL     OW 5065   3.310   5.468   1.784 -0.1436 -0.3767 -0.1506
 1325SOL    HW2 5066   3.390   5.472   1.836  0.4889 -2.0880 -0.8998
 1325SOL    HW3 5067   3.323   5.532   1.715 -0.8383  1.6606  1.5000
 1325SOL    MW4 5068   3.322   5.477   1.782 -0.2616 -0.4050  0.1517
 1326SOL     OW 5069   5.300   2.370   3.750 -0.1605  0.2262 -0.5641
 1326SOL    HW2 5070   5.352   2.290   3.743 -1.5978 -0.6444 -1.8465
 1326SOL    HW3 5071   5.222   2.353   3.698 -0.9255  2.1498 -0.1400
 1326SOL    MW4 5072   5.297   2.357   3.742 -0.1043 -0.6547  0.3567
 1327SOL     OW 5073   0.091   0.128   6.090  1.0101 -0.0157 -0.2696
 1327SOL    HW2 5074   0.094   0.176   6.172 -0.1543  1.2591 -0.9295
 1327SOL    HW3 5075   0.088   0.196   6.022 -0.1526 -1.0026 -1.2630
 1327SOL    MW4 5076   0.091   0.144   6.092  0.4060  0.6063 -0.7480
 1328SOL     OW 5077   1.013   3.212   5.687 -0.4041  0.0557 -0.2534
 1328SOL    HW2 5078   1.101   3.193   5.718 -0.1941  1.5056  0.1164
 1328SOL    HW3 5079   0.981   3.128   5.652  0.9117 -0.6096  0.0717
 1328SOL    MW4 5080   1.020   3.198   5.686 -0.4908  0.6320  0.2302
 1329SOL     OW 5081   4.981   0.020   5.541 -0.3675  0.0555  0.8683
 1329SOL    HW2 5082   4.897   0.048   5.578  0.5045  1.2248  2.0551
 1329SOL    HW3 5083   4.988  -0.072   5.566 -2.5620 -0.9369 -1.7246
 1329SOL    MW4 5084   4.971   0.012   5.549 -0.1027 -0.2824 -0.4129
 1330SOL     OW 5085   1.147   0.975   4.457 -0.0733 -0.0529  0.3325
 1330SOL    HW2 5086   1.146   1.028   4.536  1.9536  1.4760 -0.5808
 1330SOL    HW3 5087   1.215   0.909   4.472 -0.7518 -0.7520  0.4262
 1330SOL    MW4 5088   1.156   0.973   4.469 -0.4647  0.4335  1.2268
 1331SOL     OW 5089   1.098   1.712   4.421 -0.2456 -0.4593  0.4030
 1331SOL    HW2 5090   1.015   1.707   4.468 -0.2605 -2.2453  0.2519
 1331SOL    HW3 5091   1.144   1.631   4.445  2.1516  1.1521  1.7414
 1331SOL    MW4 5092   1.093   1.701   4.431  0.1506  0.0609 -0.4453
 1332SOL     OW 5093   0.418   1.882   5.217  0.0540 -0.1239  0.4163
 1332SOL    HW2 5094   0.489   1.926   5.171 -0.1518 -0.5329 -0.3086
 1332SOL    HW3 5095   0.394   1.943   5.288  0.2780  0.5775 -0.0994
 1332SOL    MW4 5096   0.424   1.896   5.221 -0.6795 -0.7639 -0.8931
 1333SOL     OW 5097   5.011   4.607   5.561 -0.5506  0.3046  0.0382
 1333SOL    HW2 5098   4.963   4.561   5.629 -0.5306 -2.0729 -1.4407
 1333SOL    HW3 5099   4.955   4.681   5.537 -2.1079 -0.7342  0.3532
 1333SOL    MW4 5100   4.997   4.611   5.567 -1.0508 -0.2209 -0.3937
 1334SOL     OW 5101   0.059   2.572   1.137 -0.5300  0.8072 -0.5590
 1334SOL    HW2 5102   0.040   2.662   1.112 -1.7459  0.5863 -0.4688
 1334SOL    HW3 5103   0.008   2.519   1.075 -2.4604  0.2320  1.4040
 1334SOL    MW4 5104   0.050   2.577   1.125 -0.6603  0.3381  0.2608
 1335SOL     OW 5105   0.110   3.331   6.363  0.1347  0.0993  0.3037
 1335SOL    HW2 5106   0.163   3.377   6.299  0.8740  0.2638  1.0173
 1335SOL    HW3 5107   0.020   3.357   6.344  0.3951  0.5538 -0.3196
 1335SOL    MW4 5108   0.105   3.340   6.352 -0.4393  0.3377  0.0780
 1336SOL     OW 5109   2.196   2.295   5.612 -0.0642 -0.4794  0.0565
 1336SOL    HW2 5110   2.273   2.261   5.568  0.7481  0.2715  0.8643
 1336SOL    HW3 5111   2.162   2.362   5.552 -1.2531 -2.1266 -1.1991
 1336SOL    MW4 5112   2.201   2.299   5.598 -0.0124  0.5313  0.8355
 1337SOL     OW 5113   2.599   3.357   3.004  0.2102  0.0447 -0.6233
 1337SOL    HW2 5114   2.572   3.447   3.018  1.9618  0.5172 -0.0748
 1337SOL    HW3 5115   2.518   3.307   3.007 -0.9558  1.7097 -2.1663
 1337SOL    MW4 5116   2.585   3.362   3.006 -0.0859 -0.2364  0.0726
 1338SOL     OW 5117   3.729   4.907   2.176 -0.3107 -0.2334 -0.8019
 1338SOL    HW2 5118   3.746   4.861   2.094  0.5461 -0.4811 -0.5011
 1338SOL    HW3 5119   3.698   4.838   2.235  2.5055 -0.8302  0.1339
 1338SOL    MW4 5120   3.727   4.892   2.173 -0.4193 -0.4941 -0.0441
 1339SOL     OW 5121   0.817   3.119   3.264 -0.0025 -0.0233  0.5715
 1339SOL    HW2 5122   0.881   3.117   3.335  0.2767 -0.4548  0.3118
 1339SOL    HW3 5123   0.758   3.191   3.286  0.4490  0.2391  0.9244
 1339SOL    MW4 5124   0.818   3.128   3.276 -0.6239 -0.0609 -0.4112
 1340SOL     OW 5125   0.239   6.128   0.700 -0.1543 -0.1114 -0.3695
 1340SOL    HW2 5126   0.247   6.205   0.756  1.0242 -0.8838  0.5754
 1340SOL    HW3 5127   0.308   6.069   0.730 -0.6050 -1.2716 -1.5078
 1340SOL    MW4 5128   0.249   6.130   0.711  0.2321  0.3396  1.0010
 1341SOL     OW 5129   3.487   1.876   3.112  0.4793 -0.1305  0.0485
 1341SOL    HW2 5130   3.424   1.884   3.041 -1.1017  0.7279  1.4733
 1341SOL    HW3 5131   3.518   1.966   3.127 -0.5567  0.0095  1.5675
 1341SOL    MW4 5132   3.483   1.889   3.105 -0.2734 -0.3194 -0.1538
 1342SOL     OW 5133   1.238   0.420   1.980 -0.0167 -0.1751 -0.4644
 1342SOL    HW2 5134   1.303   0.410   2.049 -0.5934 -2.5773 -0.1856
 1342SOL    HW3 5135   1.155   0.396   2.020 -0.6063 -0.0982 -1.5860
 1342SOL    MW4 5136   1.236   0.416   1.994 -0.0626 -0.1617 -0.2074
 1343SOL     OW 5137   2.586   4.830   2.041  0.2136  0.0796 -0.3532
 1343SOL    HW2 5138   2.541   4.750   2.069 -0.4705  1.3717  2.5084
 1343SOL    HW3 5139   2.518   4.883   2.000 -0.1861  0.6641  1.0213
 1343SOL    MW4 5140   2.571   4.826   2.039 -0.1544 -0.6125  0.2615
 1344SOL     OW 5141   0.552   2.524   3.766  0.1881 -0.5187  0.1582
 1344SOL    HW2 5142   0.474   2.485   3.805  0.6494 -0.5809  1.0403
 1344SOL    HW3 5143   0.524   2.551   3.678 -0.5412 -1.4817  0.0763
 1344SOL    MW4 5144   0.538   2.522   3.760 -0.8082 -0.3606  0.4626
 1345SOL     OW 5145   5.540   5.663   4.002  0.0926 -0.0722  0.7871
 1345SOL    HW2 5146   5.577   5.752   4.002  2.1105 -0.8582  0.3843
 1345SOL    HW3 5147   5.459   5.671   4.052 -0.2684  2.1799 -0.0336
 1345SOL    MW4 5148   5.534   5.676   4.008 -0.1307  0.0293  0.5362
 1346SOL     OW 5149   4.682   4.582   4.501 -0.1969  0.2285 -0.5982
 1346SOL    HW2 5150   4.589   4.562   4.514  0.5367 -3.6558  0.1911
 1346SOL    HW3 5151   4.719   4.581   4.589  0.8777 -0.5257 -1.0315
 1346SOL    MW4 5152   4.675   4.579   4.514  0.1927  0.3978  0.0758
 1347SOL     OW 5153   1.283   2.852   5.308  0.2001 -0.0740  0.5470
 1347SOL    HW2 5154   1.353   2.824   5.367  1.7078  1.2587 -0.5356
 1347SOL    HW3 5155   1.301   2.945   5.291  0.8117 -0.7327 -3.2309
 1347SOL    MW4 5156   1.295   2.861   5.314 -0.0235 -0.0939 -1.0263
 1348SOL     OW 5157   2.500   2.945   1.107  0.1258 -0.4802  0.1071
 1348SOL    HW2 5158   2.569   2.881   1.088  0.6041 -0.0812  0.4404
 1348SOL    HW3 5159   2.520   3.020   1.051 -1.0784 -1.0357 -1.1052
 1348SOL    MW4 5160   2.512   2.947   1.097 -0.2823 -0.5160  0.1852
 1349SOL     OW 5161   6.337   5.068   3.691  0.3273  0.3132 -0.7420
 1349SOL    HW2 5162   6.311   5.151   3.652 -0.7711  0.1772 -0.3297
 1349SOL    HW3 5163   6.346   5.087   3.785 -2.1790 -0.4966 -0.2592
 1349SOL    MW4 5164   6.335   5.081   3.699  0.2744  0.0024  0.0646
 1350SOL     OW 5165   0.456   2.302   4.236  0.5147  0.3098 -0.2091
 1350SOL    HW2 5166   0.381   2.242   4.243 -1.2118  2.4337  0.8487
 1350SOL    HW3 5167   0.511   2.282   4.311  1.3633 -1.6295 -1.2828
 1350SOL    MW4 5168   0.453   2.292   4.247 -0.3681 -0.0062  0.6343
 1351SOL     OW 5169   1.009   5.420   1.233 -0.2979 -0.8229 -0.3879
 1351SOL    HW2 5170   1.038   5.332   1.209 -1.1563 -1.2343  0.0141
 1351SOL    HW3 5171   1.060   5.441   1.311  1.1930 -0.2189 -1.4875
 1351SOL    MW4 5172   1.019   5.411   1.240  0.9371 -0.2066  0.3433
 1352SOL     OW 5173   4.265   6.248   0.170 -1.0523  0.5812  0.1750
 1352SOL    HW2 5174   4.223   6.179   0.119  1.1178  0.6346 -1.8409
 1352SOL    HW3 5175   4.257   6.327   0.116  0.6919  0.7959  0.1598
 1352SOL    MW4 5176   4.259   6.250   0.157  0.1560 -0.2390 -0.0502
 1353SOL     OW 5177   5.678   4.995   5.425  0.3441 -0.5891  0.1858
 1353SOL    HW2 5178   5.739   5.026   5.492 -0.3326 -0.2694  0.6544
 1353SOL    HW3 5179   5.599   5.048   5.437  0.8765  0.8664 -2.1133
 1353SOL    MW4 5180   5.676   5.006   5.435  0.2900 -0.8398 -0.2864
 1354SOL     OW 5181   1.772   0.683   2.641 -0.1989 -0.0843  0.1445
 1354SOL    HW2 5182   1.694   0.673   2.696 -0.3676 -0.1283 -0.1031
 1354SOL    HW3 5183   1.740   0.674   2.551 -0.3353  2.3725 -0.1124
 1354SOL    MW4 5184   1.757   0.680   2.636 -0.2446 -0.0221 -0.2674
 1355SOL     OW 5185   1.534   0.116   1.384 -0.4288 -0.4329  0.5503
 1355SOL    HW2 5186   1.548   0.025   1.360  0.2968 -0.4372  0.9464
 1355SOL    HW3 5187   1.616   0.143   1.426 -0.4891  0.5138  0.0922
 1355SOL    MW4 5188   1.547   0.108   1.387  0.3361 -0.6646  0.3212
 1356SOL     OW 5189   5.307   3.805   3.027 -0.2314 -0.0825  0.1054
 1356SOL    HW2 5190   5.277   3.890   2.996  0.5561 -0.5123 -2.0737
 1356SOL    HW3 5191   5.400   3.818   3.048 -0.7477  0.1997  2.4890
 1356SOL    MW4 5192   5.316   3.818   3.026 -0.1233  0.4368 -0.2512
 1357SOL     OW 5193   5.953   6.375   4.069 -0.1466 -0.0578  0.5062
 1357SOL    HW2 5194   5.967   6.295   4.019 -0.6436 -0.0256  0.2981
 1357SOL    HW3 5195   5.888   6.350   4.135 -0.4501  0.2123  0.3170
 1357SOL    MW4 5196   5.946   6.361   4.071 -0.5078 -0.2381  0.6500
 1358SOL     OW 5197   1.198   3.789   6.420 -0.0992 -0.5143  0.3519
 1358SOL    HW2 5198   1.105   3.799   6.441  0.3007  0.1242  1.9945
 1358SOL    HW3 5199   1.204   3.705   6.375 -1.1947 -1.6233  2.1772
 1358SOL    MW4 5200   1.187   3.779   6.417 -0.2929 -0.1251  0.1784
 1359SOL     OW 5201   5.452   1.621   1.294  0.1902  0.0685 -0.8315
 1359SOL    HW2 5202   5.364   1.610   1.258  0.5300 -2.2398 -1.1617
 1359SOL    HW3 5203   5.439   1.627   1.389 -0.4566  2.3465 -1.0275
 1359SOL    MW4 5204   5.439   1.620   1.302  0.1218  0.3721  0.1102
 1360SOL     OW 5205   5.271   1.814   4.746 -0.6788  0.5698  0.3223
 1360SOL    HW2 5206   5.188   1.765   4.745 -0.9898  1.0858  0.5487
 1360SOL    HW3 5207   5.250   1.897   4.702  0.1335  0.0514 -1.1341
 1360SOL    MW4 5208   5.257   1.819   4.740  0.7281 -0.8578 -0.0754
 1361SOL     OW 5209   3.571   0.819   2.859  0.9034 -0.1659  0.1817
 1361SOL    HW2 5210   3.617   0.786   2.782  0.4719 -0.7679  0.1684
 1361SOL    HW3 5211   3.480   0.828   2.831  1.2171  2.4881 -0.2492
 1361SOL    MW4 5212   3.565   0.816   2.845 -0.0338 -0.2540 -0.0913
 1362SOL     OW 5213   4.963   3.369   0.960  0.5802 -0.4494 -0.0564
 1362SOL    HW2 5214   4.924   3.283   0.946  1.9985 -0.9983 -0.8275
 1362SOL    HW3 5215   5.051   3.350   0.994  0.6866  0.7132  0.3501
 1362SOL    MW4 5216   4.970   3.355   0.963  0.1061 -0.0776 -0.2541
 1363SOL     OW 5217   5.049   3.035   2.727  0.0581  0.3237  0.2179
 1363SOL    HW2 5218   5.043   2.980   2.805  1.2905 -0.5963 -0.2959
 1363SOL    HW3 5219   4.959   3.062   2.710 -0.4304 -0.6527  1.1164
 1363SOL    MW4 5220   5.037   3.031   2.735 -0.1077  0.6770 -0.2864
 1364SOL     OW 5221   3.848   1.782   1.576  0.2157  0.2500  0.3632
 1364SOL    HW2 5222   3.852   1.690   1.603  1.3936  0.2318  0.2057
 1364SOL    HW3 5223   3.768   1.789   1.525  0.0378 -0.6604  0.5078
 1364SOL    MW4 5224   3.838   1.771   1.573  0.1698 -0.2953 -0.1398
 1365SOL     OW 5225   5.107   3.317   4.224 -0.1416  0.2569 -0.4352
 1365SOL    HW2 5226   5.048   3.324   4.299  0.1654  0.8989 -0.2499
 1365SOL    HW3 5227   5.052   3.283   4.153 -0.3991 -0.4981  0.1130
 1365SOL    MW4 5228   5.092   3.313   4.225  0.0187 -0.1692  0.1880
 1366SOL     OW 5229   2.763   4.044   0.158 -0.3753  0.6081 -0.0145
 1366SOL    HW2 5230   2.779   4.043   0.064 -0.4629 -1.1945 -0.0418
 1366SOL    HW3 5231   2.820   3.974   0.192 -0.1091  1.4422  1.3149
 1366SOL    MW4 5232   2.773   4.035   0.150  0.3937 -0.6213  0.3748
 1367SOL     OW 5233   6.226   5.874   2.419 -0.0947 -0.5172  0.0173
 1367SOL    HW2 5234   6.196   5.944   2.361 -0.7063 -1.1830 -0.4796
 1367SOL    HW3 5235   6.241   5.800   2.361  0.9637 -0.6872  0.4848
 1367SOL    MW4 5236   6.224   5.874   2.404  0.0374  0.3949  0.9120
 1368SOL     OW 5237   1.968   0.733   2.128 -0.1076 -0.5188  0.1620
 1368SOL    HW2 5238   2.019   0.732   2.048 -1.2153  1.4488 -0.6533
 1368SOL    HW3 5239   2.030   0.763   2.195  0.7723 -1.9891  0.0331
 1368SOL    MW4 5240   1.983   0.737   2.127 -0.2606 -0.6470 -0.2587
 1369SOL     OW 5241   2.648   0.897   0.090  0.1978  0.1792 -0.3446
 1369SOL    HW2 5242   2.592   0.882   0.166 -0.2011  0.9210 -0.4798
 1369SOL    HW3 5243   2.730   0.930   0.127 -0.4346  1.7605 -0.2813
 1369SOL    MW4 5244   2.652   0.899   0.105  0.7880  0.3992  0.0373
 1370SOL     OW 5245   1.822   3.669   0.685 -0.2324  0.1669  0.1543
 1370SOL    HW2 5246   1.747   3.725   0.665 -0.5808 -0.6475 -0.9261
 1370SOL    HW3 5247   1.805   3.636   0.774 -0.0884  1.6223  0.7507
 1370SOL    MW4 5248   1.810   3.672   0.694 -0.1852 -0.0481  0.1069
 1371SOL     OW 5249   4.864   3.385   0.617  0.4781 -0.4300  0.0227
 1371SOL    HW2 5250   4.913   3.450   0.567 -2.2758  0.1343 -2.1929
 1371SOL    HW3 5251   4.801   3.436   0.668 -0.1418 -1.2427  0.0945
 1371SOL    MW4 5252   4.862   3.400   0.617 -0.1396  0.4066 -0.6366
 1372SOL     OW 5253   5.535   0.076   2.925 -0.0218  0.1626 -0.1029
 1372SOL    HW2 5254   5.570   0.029   3.000 -0.3608 -1.1037 -0.7148
 1372SOL    HW3 5255   5.465   0.131   2.961 -1.5610 -1.9120  0.2787
 1372SOL    MW4 5256   5.530   0.077   2.939 -0.1447 -0.4809  0.5938
 1373SOL     OW 5257   6.131   3.652   4.137  0.2645  0.0345  0.1646
 1373SOL    HW2 5258   6.072   3.726   4.148 -0.4879 -0.6992  1.2429
 1373SOL    HW3 5259   6.075   3.575   4.145  1.2303 -0.6687  0.3373
 1373SOL    MW4 5260   6.116   3.651   4.139  0.8290 -0.0150  0.0130
 1374SOL     OW 5261   5.210   2.499   4.871 -0.2861  0.7844  0.1735
 1374SOL    HW2 5262   5.116   2.478   4.870 -0.0924 -0.0849 -0.0827
 1374SOL    HW3 5263   5.254   2.414   4.871  0.5173  1.1866 -0.7176
 1374SOL    MW4 5264   5.203   2.485   4.871  0.0935  0.2607  0.6293
 1375SOL     OW 5265   0.515   2.714   5.417  0.0957  0.0156  0.7421
 1375SOL    HW2 5266   0.427   2.698   5.382  0.2402 -0.9932  0.8149
 1375SOL    HW3 5267   0.530   2.642   5.478  0.9009  0.2918  0.8844
 1375SOL    MW4 5268   0.505   2.702   5.420 -0.0043  0.0910 -0.4439
 1376SOL     OW 5269   4.243   4.295   2.011 -0.5304  0.0045 -0.3444
 1376SOL    HW2 5270   4.225   4.279   2.104  1.7620  1.7694  0.5060
 1376SOL    HW3 5271   4.162   4.331   1.977 -1.4619 -0.7895  0.9404
 1376SOL    MW4 5272   4.230   4.298   2.019 -0.2724  0.4224  0.4961
 1377SOL     OW 5273   4.083   2.385   1.143  0.5970 -0.3667  0.0994
 1377SOL    HW2 5274   4.045   2.390   1.055  1.0705  0.6807 -0.0571
 1377SOL    HW3 5275   4.173   2.357   1.127  0.7972  0.2026  0.2141
 1377SOL    MW4 5276   4.090   2.382   1.129  0.1012 -0.3865  0.1157
 1378SOL     OW 5277   5.497   0.751   5.859  0.5999  0.5348  0.6634
 1378SOL    HW2 5278   5.540   0.666   5.863 -0.7165 -0.2364 -0.6394
 1378SOL    HW3 5279   5.460   0.763   5.946 -2.0862 -1.8741  0.0089
 1378SOL    MW4 5280   5.498   0.742   5.871 -0.6775 -0.5684  0.6214
 1379SOL     OW 5281   6.374   5.123   2.393  0.4143  0.1025  0.1288
 1379SOL    HW2 5282   6.300   5.172   2.429 -0.1199 -0.6595  0.1117
 1379SOL    HW3 5283   6.390   5.053   2.457  0.5077 -0.2950 -0.3196
 1379SOL    MW4 5284   6.366   5.120   2.406 -0.3530  0.4150 -0.3531
 1380SOL     OW 5285   1.148   6.259   3.392  0.1401  1.1547 -0.0394
 1380SOL    HW2 5286   1.134   6.187   3.330 -1.3440  0.8978  0.5596
 1380SOL    HW3 5287   1.092   6.330   3.360 -1.5567  0.6328  1.5803
 1380SOL    MW4 5288   1.139   6.259   3.380 -0.1801 -0.3795 -0.1668
 1381SOL     OW 5289   1.544   0.163   5.636 -0.6103 -0.4733 -0.0407
 1381SOL    HW2 5290   1.630   0.128   5.611 -1.0957 -0.9947 -0.9838
 1381SOL    HW3 5291   1.494   0.165   5.555 -1.6965 -0.7170  0.6139
 1381SOL    MW4 5292   1.549   0.159   5.622  0.1852 -0.0659  0.1382
 1382SOL     OW 5293   6.200   2.253   5.060  0.7350 -0.0923 -0.5720
 1382SOL    HW2 5294   6.191   2.347   5.046 -0.8738 -0.1397 -0.0909
 1382SOL    HW3 5295   6.294   2.237   5.055  0.9518  1.2904 -2.1467
 1382SOL    MW4 5296   6.211   2.263   5.057 -0.1715 -0.1264  0.3778
 1383SOL     OW 5297   0.359   2.966   0.501 -0.1972  0.2613  0.2752
 1383SOL    HW2 5298   0.326   3.051   0.470  0.2462  0.8501  1.3689
 1383SOL    HW3 5299   0.392   2.923   0.422 -1.0667  0.8068 -0.4063
 1383SOL    MW4 5300   0.359   2.972   0.486  0.3073  0.2445  0.3039
 1384SOL     OW 5301   3.268   0.830   0.374  0.6692  0.2898  0.4969
 1384SOL    HW2 5302   3.303   0.915   0.401 -0.6838  1.0351  0.0272
 1384SOL    HW3 5303   3.253   0.783   0.456 -2.0131  1.9698  1.1227
 1384SOL    MW4 5304   3.270   0.835   0.388 -0.0856 -0.1328 -0.1444
 1385SOL     OW 5305   0.780   0.124   5.363 -0.4606  0.1628 -0.2481
 1385SOL    HW2 5306   0.835   0.181   5.417 -0.1438 -0.8828  0.5405
 1385SOL    HW3 5307   0.715   0.184   5.325  0.9372  1.3589 -0.8678
 1385SOL    MW4 5308   0.779   0.140   5.365  0.0947  0.6504 -0.4263
 1386SOL     OW 5309   5.139   3.503   2.749  0.5534  0.1652  0.6511
 1386SOL    HW2 5310   5.053   3.461   2.757  0.6616 -0.3006 -0.4039
 1386SOL    HW3 5311   5.121   3.597   2.757  0.3048 -0.0402  2.9864
 1386SOL    MW4 5312   5.125   3.510   2.751 -0.1527 -0.2572 -0.5679
 1387SOL     OW 5313   2.288   4.148   0.946 -0.0973  0.1843  0.2934
 1387SOL    HW2 5314   2.332   4.222   0.989  0.3003  0.3868 -0.4248
 1387SOL    HW3 5315   2.263   4.090   1.017  1.7494 -0.1558  0.7201
 1387SOL    MW4 5316   2.291   4.150   0.961 -0.1295 -0.4662  0.9188
 1388SOL     OW 5317   0.610   0.481   4.937  0.0798 -0.6046 -0.3401
 1388SOL    HW2 5318   0.611   0.535   5.016  0.8468  0.3051 -0.9534
 1388SOL    HW3 5319   0.633   0.394   4.968  0.3566 -0.2688  0.4501
 1388SOL    MW4 5320   0.613   0.477   4.952  0.4260  0.0489 -0.8381
 1389SOL     OW 5321   4.731   0.875   5.337 -0.0908 -0.3043  0.4423
 1389SOL    HW2 5322   4.783   0.936   5.389  0.5849 -1.4791  1.1836
 1389SOL    HW3 5323   4.761   0.788   5.363 -1.2554 -0.9852 -0.3446
 1389SOL    MW4 5324   4.741   0.871   5.347  0.1878 -0.3479 -0.3864
 1390SOL     OW 5325   4.093   1.147   0.042 -0.1180  0.2456 -0.2592
 1390SOL    HW2 5326   4.003   1.151   0.074 -0.3368 -0.4217 -0.7632
 1390SOL    HW3 5327   4.147   1.146   0.121 -0.6731 -2.1336  0.1568
 1390SOL    MW4 5328   4.089   1.147   0.057  0.7489 -1.1413 -0.1981
 1391SOL     OW 5329   3.185   5.891   1.456 -0.4371  0.2166  0.4224
 1391SOL    HW2 5330   3.219   5.802   1.455 -0.4956  0.1831 -1.2003
 1391SOL    HW3 5331   3.240   5.937   1.520 -0.4874 -0.9864  1.3639
 1391SOL    MW4 5332   3.197   5.886   1.465 -0.2514  0.0581  0.1788
 1392SOL     OW 5333   0.222   2.388   5.447 -0.2771 -0.0257  0.4103
 1392SOL    HW2 5334   0.181   2.302   5.431  1.3603 -0.6842 -0.4674
 1392SOL    HW3 5335   0.228   2.427   5.360  0.4599  0.2834  0.5976
 1392SOL    MW4 5336   0.217   2.381   5.433 -0.1537 -0.2351 -0.2296
 1393SOL     OW 5337   3.927   0.773   1.448  0.3822  0.1844 -0.2936
 1393SOL    HW2 5338   3.841   0.733   1.461  0.8956 -1.1727 -0.8914
 1393SOL    HW3 5339   3.954   0.802   1.535  0.9406 -2.8024  0.6503
 1393SOL    MW4 5340   3.919   0.772   1.461 -0.0104  0.3008 -0.1954
 1394SOL     OW 5341   2.881   0.892   2.575  0.5690 -0.3449  0.1230
 1394SOL    HW2 5342   2.914   0.923   2.660 -0.7293  1.0303  0.1665
 1394SOL    HW3 5343   2.934   0.939   2.510 -1.4538  2.2583  0.1868
 1394SOL    MW4 5344   2.892   0.902   2.578 -0.2964 -0.5073 -0.3850
 1395SOL     OW 5345   5.725   1.729   3.726  0.1212 -0.2441 -0.5748
 1395SOL    HW2 5346   5.697   1.721   3.634  1.0720 -0.8842 -0.8198
 1395SOL    HW3 5347   5.677   1.659   3.771 -2.7276  1.9517  0.0465
 1395SOL    MW4 5348   5.715   1.718   3.720 -0.1344 -0.0784  0.0552
 1396SOL     OW 5349   5.728   0.439   3.743 -0.8643  0.2057  0.3483
 1396SOL    HW2 5350   5.778   0.508   3.786 -1.6300 -0.5799  2.6478
 1396SOL    HW3 5351   5.637   0.468   3.749 -0.9346  0.6554 -1.9553
 1396SOL    MW4 5352   5.723   0.452   3.750 -0.1814 -0.1297 -0.9693
 1397SOL     OW 5353   1.893   0.421   5.479 -0.4117 -0.0075  0.3179
 1397SOL    HW2 5354   1.973   0.401   5.430  0.3627  0.2218  1.4442
 1397SOL    HW3 5355   1.902   0.514   5.500  0.4087 -0.5674  2.8100
 1397SOL    MW4 5356   1.905   0.431   5.475 -0.2857 -0.6763  0.0044
 1398SOL     OW 5357   1.917   4.522   1.665 -0.2624  0.1530  0.2298
 1398SOL    HW2 5358   1.990   4.517   1.727  0.9098 -2.2132 -1.2236
 1398SOL    HW3 5359   1.914   4.614   1.640  0.2034  0.8872  2.5919
 1398SOL    MW4 5360   1.926   4.534   1.670 -0.3991 -0.1136 -0.2673
 1399SOL     OW 5361   0.422   1.497   0.946 -0.6651  0.1590  0.3135
 1399SOL    HW2 5362   0.413   1.532   0.858  3.2731  1.3466  0.1987
 1399SOL    HW3 5363   0.426   1.402   0.934 -0.5125  0.2896 -0.7581
 1399SOL    MW4 5364   0.422   1.489   0.933 -0.0317  0.2006  0.2529
 1400SOL     OW 5365   1.336   2.041   5.337 -0.2035 -0.4083 -0.4535
 1400SOL    HW2 5366   1.310   2.066   5.425  0.4300 -0.8954 -0.1252
 1400SOL    HW3 5367   1.369   1.951   5.346  0.9256 -0.0626 -0.9752
 1400SOL    MW4 5368   1.337   2.032   5.350 -0.4983 -0.3021  0.1456
 1401SOL     OW 5369   1.576   0.145   0.514 -0.0438 -0.5153  0.0014
 1401SOL    HW2 5370   1.612   0.155   0.603  1.4886  0.7816 -0.7142
 1401SOL    HW3 5371   1.519   0.068   0.520  0.7698 -1.0388  1.8744
 1401SOL    MW4 5372   1.574   0.136   0.527  0.2790  0.0470  0.7203
 1402SOL     OW 5373   6.093   6.128   2.691  0.4106  0.7481  0.1057
 1402SOL    HW2 5374   6.037   6.088   2.624 -0.1627  2.0478 -0.2221
 1402SOL    HW3 5375   6.115   6.056   2.750  0.8707 -0.4284 -1.4278
 1402SOL    MW4 5376   6.088   6.113   2.690 -0.3888  0.1388  0.3790
 1403SOL     OW 5377   1.124   1.230   0.508  0.1321  0.0248  0.0308
 1403SOL    HW2 5378   1.049   1.215   0.565  0.5960  0.4969  0.7766
 1403SOL    HW3 5379   1.114   1.321   0.478  0.9563  0.4387  0.9741
 1403SOL    MW4 5380   1.113   1.240   0.511 -0.1958  0.0366  0.5782
 1404SOL     OW 5381   3.356   0.760   1.048  0.2683 -0.7686 -0.3343
 1404SOL    HW2 5382   3.314   0.845   1.056  1.4304 -0.2241  0.1928
 1404SOL    HW3 5383   3.427   0.762   1.113  0.1030 -2.2665 -0.0711
 1404SOL    MW4 5384   3.360   0.771   1.058 -0.6451 -0.0787 -0.4386
 1405SOL     OW 5385   0.097   5.523   0.249  0.3862 -0.4447 -0.1967
 1405SOL    HW2 5386   0.026   5.550   0.190 -0.5718  0.0255  1.1161
 1405SOL    HW3 5387   0.134   5.605   0.280  0.2489 -0.6618  0.5688
 1405SOL    MW4 5388   0.092   5.537   0.245 -0.7110  0.2959  0.6818
 1406SOL     OW 5389   0.220   0.764   5.711  0.5037  0.0753  0.3165
 1406SOL    HW2 5390   0.138   0.753   5.759  0.1829 -0.3005 -0.3084
 1406SOL    HW3 5391   0.220   0.857   5.685 -0.5657 -0.2848 -1.1436
 1406SOL    MW4 5392   0.209   0.775   5.714 -0.0648  0.1809 -0.1538
 1407SOL     OW 5393   1.158   0.951   3.607  0.7153  0.7641 -0.1590
 1407SOL    HW2 5394   1.190   1.033   3.643  2.6234 -0.5161  1.3147
 1407SOL    HW3 5395   1.234   0.893   3.607 -0.7690 -1.3353 -0.0771
 1407SOL    MW4 5396   1.172   0.954   3.612  0.5662  0.1776  0.2535
 1408SOL     OW 5397   5.636   1.975   5.354  0.0134  0.5977 -0.1500
 1408SOL    HW2 5398   5.669   1.892   5.389  2.0061  1.3043 -0.1901
 1408SOL    HW3 5399   5.679   1.984   5.269  0.4889  2.0249  0.2008
 1408SOL    MW4 5400   5.646   1.965   5.347  0.1097 -0.1918 -0.4326
 1409SOL     OW 5401   5.119   6.165   4.669  0.3293  0.4757 -0.4310
 1409SOL    HW2 5402   5.174   6.243   4.673  2.5580 -1.0687  1.8435
 1409SOL    HW3 5403   5.170   6.101   4.619 -0.0693 -0.4747  0.3269
 1409SOL    MW4 5404   5.133   6.167   4.663 -0.0937  0.3923 -0.7056
 1410SOL     OW 5405   0.272   3.396   5.901 -0.1913  0.0412 -0.2263
 1410SOL    HW2 5406   0.215   3.459   5.857  0.5116  0.4320 -0.5989
 1410SOL    HW3 5407   0.288   3.434   5.987  1.6772  1.3088 -1.0713
 1410SOL    MW4 5408   0.266   3.409   5.907 -0.7497  0.0464 -0.5296
 1411SOL     OW 5409   5.576   3.119   4.172 -0.1912  0.0801  0.6704
 1411SOL    HW2 5410   5.593   3.025   4.170  2.0350  0.4209  0.9893
 1411SOL    HW3 5411   5.514   3.131   4.244 -3.0908 -1.4164 -1.3750
 1411SOL    MW4 5412   5.570   3.108   4.181  0.0258  0.0769  0.4278
 1412SOL     OW 5413   1.229   5.403   2.878  1.3695 -0.0216  0.6492
 1412SOL    HW2 5414   1.218   5.381   2.786  0.1785 -0.6603  0.9233
 1412SOL    HW3 5415   1.311   5.451   2.882  0.3340  2.0530 -1.1046
 1412SOL    MW4 5416   1.238   5.407   2.866  0.5132 -0.3513  0.1751
 1413SOL     OW 5417   6.272   2.579   4.066 -0.5675  0.5222  0.6298
 1413SOL    HW2 5418   6.224   2.659   4.045 -2.0837 -0.7867 -1.1529
 1413SOL    HW3 5419   6.363   2.608   4.074 -0.7421  2.1403 -2.0089
 1413SOL    MW4 5420   6.278   2.594   4.065 -0.4636  0.1985 -0.1183
 1414SOL     OW 5421   6.380   5.589   1.810  0.2179 -0.2143  0.4718
 1414SOL    HW2 5422   6.349   5.570   1.721 -1.0209 -0.4202  0.9237
 1414SOL    HW3 5423   6.397   5.503   1.848 -0.2778 -0.1824  0.7744
 1414SOL    MW4 5424   6.378   5.575   1.803 -0.1317 -0.2527  0.3256
 1415SOL     OW 5425   2.040   5.075   2.790  0.1645 -0.3890 -0.4227
 1415SOL    HW2 5426   2.083   5.154   2.757  0.9607 -1.0804 -1.0750
 1415SOL    HW3 5427   2.085   5.057   2.873 -0.2515  0.0237 -0.1001
 1415SOL    MW4 5428   2.052   5.083   2.797  0.3480 -0.0605  0.5793
 1416SOL     OW 5429   0.150   6.143   3.391 -0.6896  0.4003 -0.0795
 1416SOL    HW2 5430   0.184   6.121   3.478 -1.9566 -1.2808  0.0259
 1416SOL    HW3 5431   0.063   6.179   3.408 -0.8538  0.2790 -0.6505
 1416SOL    MW4 5432   0.143   6.145   3.405  0.2777 -0.0676  0.0782
 1417SOL     OW 5433   5.813   4.599   2.778 -0.3213  0.3858 -0.1776
 1417SOL    HW2 5434   5.884   4.628   2.835 -0.3363  1.0202 -0.4761
 1417SOL    HW3 5435   5.857   4.556   2.705 -0.2906 -0.1593  0.1537
 1417SOL    MW4 5436   5.828   4.597   2.776 -0.4784  0.7850  0.1166
 1418SOL     OW 5437   0.978   3.422   0.541  0.1724 -0.2717  0.1935
 1418SOL    HW2 5438   0.934   3.337   0.545  1.6632 -1.0565  0.7900
 1418SOL    HW3 5439   0.975   3.447   0.449  1.9816 -2.2713 -0.4898
 1418SOL    MW4 5440   0.972   3.414   0.530 -0.4649 -0.1342 -1.1211
 1419SOL     OW 5441   5.198   4.366   5.119 -0.2931  0.2491  0.3221
 1419SOL    HW2 5442   5.168   4.276   5.103 -0.7104  0.2362  1.1028
 1419SOL    HW3 5443   5.133   4.421   5.077  1.2579  0.2096 -2.3501
 1419SOL    MW4 5444   5.186   4.361   5.111  0.5432 -0.0879 -0.0957
 1420SOL     OW 5445   1.210   6.176   2.574  0.0096 -0.3736 -0.7852
 1420SOL    HW2 5446   1.162   6.143   2.651  2.3973  1.0902  1.4913
 1420SOL    HW3 5447   1.265   6.102   2.547  1.1002 -0.1536  0.6668
 1420SOL    MW4 5448   1.211   6.162   2.581 -0.3606  0.1958 -0.4307
 1421SOL     OW 5449   5.579   2.112   4.860  0.2923 -0.0588 -0.5023
 1421SOL    HW2 5450   5.588   2.193   4.809 -0.4757 -0.1764 -0.8405
 1421SOL    HW3 5451   5.626   2.046   4.809 -0.3549 -0.1460 -0.9998
 1421SOL    MW4 5452   5.586   2.114   4.846  0.2767 -0.4334 -0.7755
 1422SOL     OW 5453   5.833   2.358   6.200 -0.3088  0.7074  0.0507
 1422SOL    HW2 5454   5.783   2.439   6.194 -1.3821  0.2964  2.3669
 1422SOL    HW3 5455   5.917   2.384   6.237 -0.9053  0.7119  1.4500
 1422SOL    MW4 5456   5.837   2.372   6.204 -0.3013  0.2604 -0.0357
 1423SOL     OW 5457   2.208   1.273   4.455 -0.2604  0.5816 -0.0060
 1423SOL    HW2 5458   2.144   1.286   4.525 -0.1239 -0.0663  0.2482
 1423SOL    HW3 5459   2.171   1.203   4.401  0.3347  0.0410  0.2775
 1423SOL    MW4 5460   2.195   1.265   4.457 -0.5888 -0.6043  0.2118
 1424SOL     OW 5461   6.073   2.185   1.601 -0.0761  0.3748 -0.2030
 1424SOL    HW2 5462   6.153   2.146   1.635  0.2824  0.7710 -0.5881
 1424SOL    HW3 5463   6.062   2.266   1.650 -0.3890  0.1912  0.0359
 1424SOL    MW4 5464   6.082   2.191   1.612  0.2924 -0.4333  0.3434
 1425SOL     OW 5465   4.271   2.667   3.352  0.5150  0.1784 -0.5636
 1425SOL    HW2 5466   4.226   2.710   3.424  0.0917  0.7265 -1.1375
 1425SOL    HW3 5467   4.343   2.620   3.393 -0.7037 -0.9217  0.4149
 1425SOL    MW4 5468   4.274   2.667   3.367 -0.1210 -0.5981  0.8239
 1426SOL     OW 5469   4.906   5.421   1.201  0.0626  0.2657  0.4489
 1426SOL    HW2 5470   4.874   5.376   1.279  0.6204 -0.5049  0.2468
 1426SOL    HW3 5471   4.996   5.391   1.191 -0.3992 -0.7504 -1.2508
 1426SOL    MW4 5472   4.914   5.411   1.210  0.0433  0.0488 -0.6189
 1427SOL     OW 5473   5.091   2.868   5.740  0.0735  0.5474 -0.5375
 1427SOL    HW2 5474   5.020   2.932   5.733 -0.2943  0.0270 -2.0146
 1427SOL    HW3 5475   5.084   2.834   5.829  0.3903  2.6584  0.3531
 1427SOL    MW4 5476   5.081   2.872   5.751  0.1537  0.3212 -0.3177
 1428SOL     OW 5477   2.872   5.536   2.987  0.0272  0.3529  0.1794
 1428SOL    HW2 5478   2.807   5.576   3.045 -2.3522 -2.0990 -0.6138
 1428SOL    HW3 5479   2.861   5.442   3.001  2.2629 -0.1861 -1.2701
 1428SOL    MW4 5480   2.862   5.529   2.997  0.8665 -0.4448 -0.2562
 1429SOL     OW 5481   3.002   3.833   6.322  0.1996 -0.0343 -0.1640
 1429SOL    HW2 5482   3.077   3.780   6.295  0.4989  0.5498 -0.4861
 1429SOL    HW3 5483   3.018   3.919   6.283  0.0295  0.4741  0.8504
 1429SOL    MW4 5484   3.014   3.838   6.314  0.0336 -0.4422 -0.1453
 1430SOL     OW 5485   4.375   2.671   0.558  0.1769  0.2316  0.2240
 1430SOL    HW2 5486   4.332   2.660   0.473 -1.1254 -0.0044  0.8800
 1430SOL    HW3 5487   4.362   2.763   0.580  0.4736  0.2825  0.1915
 1430SOL    MW4 5488   4.368   2.682   0.550  0.0560  0.6947  0.0370
 1431SOL     OW 5489   2.693   1.247   3.514  0.5384 -0.5915 -0.7168
 1431SOL    HW2 5490   2.768   1.195   3.544  0.7007  0.0944  0.0886
 1431SOL    HW3 5491   2.636   1.183   3.471 -0.0998 -1.8253  1.7619
 1431SOL    MW4 5492   2.696   1.232   3.512  0.0348  0.4153  0.8756
 1432SOL     OW 5493   1.913   2.015   2.086  0.0373  0.0797 -0.2952
 1432SOL    HW2 5494   1.906   2.098   2.039  0.7468 -0.2364 -0.9809
 1432SOL    HW3 5495   1.993   1.975   2.052  0.1960 -0.4713  0.6886
 1432SOL    MW4 5496   1.923   2.021   2.076  0.2059  0.2076  0.1436
 1433SOL     OW 5497   5.546   6.203   4.144 -0.7282 -0.1296  1.4532
 1433SOL    HW2 5498   5.564   6.109   4.133  1.5015  0.2439  1.3916
 1433SOL    HW3 5499   5.632   6.241   4.164 -1.4461  2.0287  0.6292
 1433SOL    MW4 5500   5.560   6.195   4.145  0.3918  0.7753  0.7229
 1434SOL     OW 5501   4.973   3.446   5.317 -0.3908  0.5102  0.4125
 1434SOL    HW2 5502   4.981   3.530   5.271 -3.1988  0.6039 -0.0483
 1434SOL    HW3 5503   4.905   3.460   5.382 -0.5020 -1.2506  0.7285
 1434SOL    MW4 5504   4.965   3.459   5.319  0.1593 -0.5490 -0.4973
 1435SOL     OW 5505   3.205   5.181   1.334 -0.6386 -0.0227  0.2572
 1435SOL    HW2 5506   3.297   5.162   1.316 -0.5435  0.1630  0.5407
 1435SOL    HW3 5507   3.196   5.174   1.429 -0.6566  1.0541  0.3497
 1435SOL    MW4 5508   3.216   5.178   1.344  0.2378 -0.3011 -0.7107
 1436SOL     OW 5509   3.405   4.270   4.865  0.3194 -0.2702  0.1950
 1436SOL    HW2 5510   3.489   4.253   4.908 -0.0095 -0.9893  0.5553
 1436SOL    HW3 5511   3.406   4.212   4.788  0.6292  0.5418 -0.4269
 1436SOL    MW4 5512   3.416   4.260   4.860 -0.5063  0.2814 -0.2216
 1437SOL     OW 5513   0.945   4.068   5.655  0.6133 -0.0253 -0.3885
 1437SOL    HW2 5514   0.911   4.157   5.657 -0.0337 -0.2861  1.0584
 1437SOL    HW3 5515   0.877   4.014   5.696  1.5331 -0.9898 -0.0635
 1437SOL    MW4 5516   0.932   4.072   5.660  0.5595  0.2270  0.5381
 1438SOL     OW 5517   3.122   3.673   2.499 -0.1620  0.2044 -0.1676
 1438SOL    HW2 5518   3.115   3.751   2.555  0.8282  0.6492 -0.6378
 1438SOL    HW3 5519   3.214   3.672   2.471 -0.3601 -0.6833 -0.8205
 1438SOL    MW4 5520   3.134   3.683   2.503  0.1288 -0.3877 -0.1136
 1439SOL     OW 5521   0.933   5.719   4.184 -0.4318  0.2517 -0.0955
 1439SOL    HW2 5522   1.015   5.740   4.229 -0.7211  0.0893  0.5198
 1439SOL    HW3 5523   0.891   5.655   4.241 -0.6036 -0.2931 -0.8247
 1439SOL    MW4 5524   0.938   5.713   4.198 -0.8694 -0.6274 -0.0322
 1440SOL     OW 5525   6.341   6.028   0.351 -0.0066  0.4543 -0.1511
 1440SOL    HW2 5526   6.332   6.095   0.283  0.6504 -0.2281 -0.9290
 1440SOL    HW3 5527   6.264   6.039   0.406  0.0790  1.8378 -0.2716
 1440SOL    MW4 5528   6.330   6.038   0.350 -0.5192 -0.1558 -0.6755
 1441SOL     OW 5529   5.148   2.672   5.085 -0.7797 -0.1501  0.6081
 1441SOL    HW2 5530   5.189   2.606   5.029 -0.5374  0.8946 -0.5038
 1441SOL    HW3 5531   5.177   2.650   5.173 -0.6408 -1.4616  0.2595
 1441SOL    MW4 5532   5.157   2.660   5.089 -0.0150  0.0748 -0.2052
 1442SOL     OW 5533   0.020   4.939   6.345 -0.4897 -0.2781  0.0150
 1442SOL    HW2 5534   0.006   4.986   6.428  2.5882  1.5803 -0.3458
 1442SOL    HW3 5535  -0.039   4.982   6.283 -1.0890 -0.0520  0.7247
 1442SOL    MW4 5536   0.010   4.951   6.348 -0.2689  0.0567  0.5207
 1443SOL     OW 5537   0.045   5.041   3.218  0.6482  0.1901 -0.1189
 1443SOL    HW2 5538   0.024   5.096   3.294 -0.4760  1.3692 -1.2188
 1443SOL    HW3 5539   0.019   5.094   3.143 -0.1254 -1.7204 -1.2651
 1443SOL    MW4 5540   0.039   5.056   3.218 -0.0525 -0.1198  0.4962
 1444SOL     OW 5541   3.542   3.630   3.728  0.1671 -0.2658  0.4149
 1444SOL    HW2 5542   3.514   3.673   3.648  0.4774 -0.5427  0.1529
 1444SOL    HW3 5543   3.553   3.538   3.703  1.7765 -0.0890  0.3748
 1444SOL    MW4 5544   3.540   3.623   3.714 -0.3166  0.1398 -0.7098
 1445SOL     OW 5545   5.636   0.076   2.659  0.3343  0.5149 -0.3373
 1445SOL    HW2 5546   5.622   0.161   2.616  1.7781  0.8435 -0.2232
 1445SOL    HW3 5547   5.579   0.078   2.735 -0.1582  1.1002 -0.7131
 1445SOL    MW4 5548   5.627   0.088   2.663 -0.6092  0.0593  0.1678
 1446SOL     OW 5549   2.881   0.222   5.936  0.2806  0.3452  0.1666
 1446SOL    HW2 5550   2.944   0.150   5.942 -0.4568 -0.2298  1.1533
 1446SOL    HW3 5551   2.877   0.241   5.842  0.9781 -0.4588 -0.0433
 1446SOL    MW4 5552   2.889   0.215   5.924 -0.6077  0.1779 -0.0044
 1447SOL     OW 5553   2.148   4.274   2.543  0.3164 -0.3404 -0.1127
 1447SOL    HW2 5554   2.195   4.303   2.465 -3.1785  1.2982 -1.8181
 1447SOL    HW3 5555   2.132   4.181   2.527 -1.5881  0.2544 -2.1991
 1447SOL    MW4 5556   2.152   4.265   2.530  0.6114  0.1974 -0.5922
 1448SOL     OW 5557   5.120   2.229   2.146 -0.0073  0.5330 -0.2559
 1448SOL    HW2 5558   5.138   2.194   2.234  0.1756  0.5730 -0.2762
 1448SOL    HW3 5559   5.041   2.281   2.157  0.2264  0.8487 -0.0311
 1448SOL    MW4 5560   5.112   2.231   2.159  0.0547 -0.3099  0.7556
 1449SOL     OW 5561   2.520   1.000   1.881 -0.4447 -0.0738  0.1408
 1449SOL    HW2 5562   2.582   1.044   1.941 -0.8080 -0.9159  1.1641
 1449SOL    HW3 5563   2.573   0.934   1.836 -0.4371 -0.2920  0.4678
 1449SOL    MW4 5564   2.535   0.997   1.883  0.0075  0.2817  0.1427
 1450SOL     OW 5565   1.898   1.891   5.046  0.5160  0.3968 -0.0062
 1450SOL    HW2 5566   1.825   1.932   5.093 -0.2995 -0.5820 -0.3804
 1450SOL    HW3 5567   1.894   1.799   5.072  1.3123  0.2386 -0.4299
 1450SOL    MW4 5568   1.888   1.884   5.056  0.0799 -0.6273  0.1915
 1451SOL     OW 5569   5.124   1.196   0.303  0.4202  0.4340 -0.2451
 1451SOL    HW2 5570   5.211   1.237   0.304  0.7686 -0.1546  2.6950
 1451SOL    HW3 5571   5.142   1.103   0.289  0.3138  0.2759  0.6175
 1451SOL    MW4 5572   5.138   1.189   0.301  0.1941 -0.3819  0.3346
 1452SOL     OW 5573   3.771   0.037   1.150 -0.1443 -0.2472 -0.4225
 1452SOL    HW2 5574   3.790   0.116   1.200  0.3656 -0.1690 -0.7322
 1452SOL    HW3 5575   3.817   0.049   1.067  0.1778 -0.9952 -0.3597
 1452SOL    MW4 5576   3.779   0.049   1.146  0.4542  0.3138  0.2825
 1453SOL     OW 5577   3.840   4.907   6.422  0.6109  0.4488  0.2124
 1453SOL    HW2 5578   3.806   4.987   6.463  0.2977  0.9739 -1.0289
 1453SOL    HW3 5579   3.771   4.842   6.435  1.5170 -0.1114  2.6166
 1453SOL    MW4 5580   3.826   4.909   6.429  0.3410  0.0053  0.2236
 1454SOL     OW 5581   1.777   0.663   4.681  0.1698  0.2642  1.0123
 1454SOL    HW2 5582   1.858   0.626   4.716 -0.1282 -0.8399  0.5996
 1454SOL    HW3 5583   1.795   0.756   4.670  2.6929 -0.4355 -2.4705
 1454SOL    MW4 5584   1.790   0.670   4.684  0.4550 -0.1392 -0.2106
 1455SOL     OW 5585   2.051   4.628   3.712 -0.7522 -0.1207  0.1753
 1455SOL    HW2 5586   2.141   4.660   3.716 -0.1766 -1.7243  0.8975
 1455SOL    HW3 5587   2.006   4.672   3.784 -0.8251  1.3946 -0.7551
 1455SOL    MW4 5588   2.057   4.638   3.722 -0.6048 -0.6208 -0.1774
 1456SOL     OW 5589   2.316   2.705   1.093 -0.0842 -0.6110  0.2634
 1456SOL    HW2 5590   2.309   2.782   1.036  0.3583 -0.1365  0.8319
 1456SOL    HW3 5591   2.252   2.643   1.058  0.3113 -0.4030 -0.8593
 1456SOL    MW4 5592   2.307   2.707   1.081  0.4222  0.0690 -0.3809
 1457SOL     OW 5593   1.992   4.067   1.289 -0.0654 -0.5287 -0.3972
 1457SOL    HW2 5594   1.981   4.161   1.271 -0.4045 -0.3507  0.6535
 1457SOL    HW3 5595   1.939   4.052   1.367 -0.4109 -1.7115 -0.8395
 1457SOL    MW4 5596   1.983   4.077   1.297  0.2795  0.1313 -0.3796
 1458SOL     OW 5597   3.778   4.397   1.252  0.4255  0.4556 -0.3787
 1458SOL    HW2 5598   3.784   4.481   1.208 -1.1127  0.7136 -0.1600
 1458SOL    HW3 5599   3.699   4.404   1.306  1.3229 -0.4535  1.1090
 1458SOL    MW4 5600   3.768   4.409   1.253 -0.0309  0.1025 -0.1054
 1459SOL     OW 5601   1.070   5.504   4.895  0.2445  0.1419 -0.3095
 1459SOL    HW2 5602   1.039   5.523   4.807 -0.9095 -0.0805  0.0286
 1459SOL    HW3 5603   1.162   5.530   4.895  0.1766  0.4127 -1.4860
 1459SOL    MW4 5604   1.078   5.510   4.883 -0.0829  0.3087  0.2717
 1460SOL     OW 5605   3.819   3.521   6.133  0.0711  0.3192  0.0524
 1460SOL    HW2 5606   3.794   3.500   6.043 -0.5456 -2.2599  0.7379
 1460SOL    HW3 5607   3.738   3.553   6.173 -0.6085 -1.8361  0.5400
 1460SOL    MW4 5608   3.805   3.523   6.126 -0.5731 -0.1778  0.3100
 1461SOL     OW 5609   1.214   0.947   1.955 -0.3607 -0.0426 -0.3108
 1461SOL    HW2 5610   1.240   1.012   1.890 -0.7188 -0.2931 -0.7118
 1461SOL    HW3 5611   1.257   0.867   1.928  0.9651  0.2632  0.8043
 1461SOL    MW4 5612   1.223   0.945   1.943  0.2105 -0.3096 -0.3513
 1462SOL     OW 5613   1.860   4.835   3.015 -0.2082  0.1833 -0.1243
 1462SOL    HW2 5614   1.770   4.864   3.002 -0.5741 -0.7243  0.3157
 1462SOL    HW3 5615   1.858   4.788   3.099  0.9938  1.4918  0.6873
 1462SOL    MW4 5616   1.848   4.833   3.025  0.0892 -0.3179 -0.3781
 1463SOL     OW 5617   3.467   4.380   2.438 -0.2113 -0.3347  0.1650
 1463SOL    HW2 5618   3.382   4.420   2.424 -1.2025 -2.4521 -0.2461
 1463SOL    HW3 5619   3.505   4.428   2.511 -1.2845  1.3441 -0.3376
 1463SOL    MW4 5620   3.461   4.391   2.446 -0.2178 -0.0740  0.4369
 1464SOL     OW 5621   3.917   1.360   5.594 -0.3816  0.7422  0.3394
 1464SOL    HW2 5622   3.895   1.274   5.631 -1.2242  1.0542  0.5818
 1464SOL    HW3 5623   4.010   1.354   5.574  0.1734  0.6420  2.7132
 1464SOL    MW4 5624   3.926   1.348   5.596 -0.0753  0.0558  0.5737
 1465SOL     OW 5625   2.243   1.361   2.642 -0.1062  0.3554 -0.2114
 1465SOL    HW2 5626   2.283   1.422   2.705 -0.7062 -0.7446  1.3151
 1465SOL    HW3 5627   2.274   1.274   2.670 -1.4192 -0.2744 -0.6367
 1465SOL    MW4 5628   2.253   1.357   2.654  0.0969  0.0018 -0.0761
 1466SOL     OW 5629   4.953   1.622   3.967  0.2782  0.1596 -0.3915
 1466SOL    HW2 5630   5.047   1.605   3.972  0.1357 -0.7881 -0.6851
 1466SOL    HW3 5631   4.918   1.594   4.051  0.5284  2.5666  0.5887
 1466SOL    MW4 5632   4.961   1.616   3.979  0.3972 -0.8401  0.2566
 1467SOL     OW 5633   1.999   4.579   6.134  0.0925  0.2195 -0.0302
 1467SOL    HW2 5634   1.957   4.544   6.212 -0.1632  1.7406  0.5561
 1467SOL    HW3 5635   2.026   4.668   6.159 -0.3411  0.8891 -1.7695
 1467SOL    MW4 5636   1.997   4.586   6.147  0.2724 -0.5311 -0.1442
 1468SOL     OW 5637   2.119   5.292   1.734 -0.1606  0.4098 -0.3075
 1468SOL    HW2 5638   2.038   5.313   1.686 -1.0819 -0.0528  0.9995
 1468SOL    HW3 5639   2.099   5.311   1.825  1.1794  0.1657  0.0613
 1468SOL    MW4 5640   2.106   5.297   1.739  0.4055 -0.0598 -0.2340
 1469SOL     OW 5641   5.244   0.106   1.852 -0.2167 -0.5473 -0.0042
 1469SOL    HW2 5642   5.201   0.022   1.836  0.6733 -0.7653 -1.4022
 1469SOL    HW3 5643   5.337   0.083   1.865  0.1352  0.2500 -0.9992
 1469SOL    MW4 5644   5.251   0.092   1.852  0.2849 -0.4855 -0.1206
 1470SOL     OW 5645   5.587   5.176   3.278 -0.0025 -0.7385 -0.0534
 1470SOL    HW2 5646   5.598   5.166   3.183 -1.4719 -0.7618 -0.2410
 1470SOL    HW3 5647   5.509   5.230   3.288  0.4487 -0.2699  1.1515
 1470SOL    MW4 5648   5.578   5.181   3.267 -0.2675  0.1646 -0.7851
 1471SOL     OW 5649   2.914   6.095   6.071  0.0886 -0.3018  0.2471
 1471SOL    HW2 5650   2.997   6.136   6.094  0.3213 -0.7892  0.2967
 1471SOL    HW3 5651   2.847   6.151   6.110  0.4513 -0.7292  1.5316
 1471SOL    MW4 5652   2.916   6.108   6.079 -0.7013  0.1371 -0.1417
 1472SOL     OW 5653   2.905   1.205   1.718  0.1458 -0.1064  0.3015
 1472SOL    HW2 5654   2.912   1.146   1.793  1.6876  1.2060  1.2315
 1472SOL    HW3 5655   2.825   1.256   1.735 -1.0339 -1.6347 -0.3641
 1472SOL    MW4 5656   2.895   1.204   1.730  0.2212 -0.0714  0.2740
 1473SOL     OW 5657   2.636   4.964   0.019  0.2518  0.1614 -0.0290
 1473SOL    HW2 5658   2.689   4.886   0.029  0.8745  0.5333 -0.3995
 1473SOL    HW3 5659   2.562   4.950   0.078  0.9655 -0.1830  0.8101
 1473SOL    MW4 5660   2.633   4.952   0.028 -0.5504  0.0761  0.5374
 1474SOL     OW 5661   2.718   5.713   3.157  0.0237 -0.0663  0.0967
 1474SOL    HW2 5662   2.731   5.796   3.111  0.3131 -0.1346  0.0520
 1474SOL    HW3 5663   2.772   5.721   3.235 -0.0070 -0.1825  0.1294
 1474SOL    MW4 5664   2.727   5.725   3.161 -0.1330 -0.4279 -0.4130
 1475SOL     OW 5665   3.621   1.158   0.216  0.1603 -0.1891 -0.4229
 1475SOL    HW2 5666   3.585   1.228   0.161  0.7134 -0.5114 -1.2131
 1475SOL    HW3 5667   3.546   1.125   0.265 -0.4699 -0.2819 -1.4207
 1475SOL    MW4 5668   3.607   1.163   0.215  0.3063  0.3057  0.5448
 1476SOL     OW 5669   3.466   1.661   0.844 -0.0446  0.3356 -0.0296
 1476SOL    HW2 5670   3.413   1.731   0.882 -0.3089 -0.7546  1.7296
 1476SOL    HW3 5671   3.556   1.692   0.851 -0.1804  0.6325  0.4470
 1476SOL    MW4 5672   3.471   1.674   0.850 -0.3095 -0.1122 -0.5306
 1477SOL     OW 5673   1.284   1.400   4.736 -0.2825  0.1387  0.0164
 1477SOL    HW2 5674   1.254   1.486   4.766  1.0429  0.7397 -0.2950
 1477SOL    HW3 5675   1.380   1.406   4.739 -0.1620 -1.7512  1.1087
 1477SOL    MW4 5676   1.293   1.412   4.740  0.3308  0.3046  0.2685
 1478SOL     OW 5677   1.120   5.284   3.714  0.2624  0.6277 -0.1185
 1478SOL    HW2 5678   1.117   5.367   3.668 -1.9964  0.9607  0.5227
 1478SOL    HW3 5679   1.087   5.220   3.650  1.5903  0.2433 -0.4669
 1478SOL    MW4 5680   1.116   5.286   3.699  0.8802  0.3137  0.1565
 1479SOL     OW 5681   5.648   4.167   5.414  0.5175 -0.2743 -0.1818
 1479SOL    HW2 5682   5.636   4.259   5.436 -2.0775 -0.2191 -1.4825
 1479SOL    HW3 5683   5.560   4.130   5.416  1.5238 -2.8586  0.6684
 1479SOL    MW4 5684   5.635   4.174   5.417  0.0332  0.5299  0.0266
 1480SOL     OW 5685   2.580   0.205   0.857 -0.0778 -0.8250 -0.4628
 1480SOL    HW2 5686   2.660   0.243   0.820  0.3181 -0.3069  0.8595
 1480SOL    HW3 5687   2.537   0.277   0.902 -0.3158 -1.5012  0.4290
 1480SOL    MW4 5688   2.585   0.219   0.858 -0.1074 -1.2607 -0.2424
 1481SOL     OW 5689   1.838   4.177   3.751  0.2450  0.1742 -0.4433
 1481SOL    HW2 5690   1.791   4.094   3.748  1.3396 -0.5855  1.3115
 1481SOL    HW3 5691   1.927   4.156   3.723  0.9334  0.3608  1.4046
 1481SOL    MW4 5692   1.844   4.164   3.747 -0.3362 -0.2811 -0.6881
 1482SOL     OW 5693   4.913   4.150   0.979  0.0638 -0.2886  0.1728
 1482SOL    HW2 5694   4.937   4.058   0.967  0.2082  0.0080 -2.3709
 1482SOL    HW3 5695   4.995   4.197   0.969 -0.0692  0.1701  1.1196
 1482SOL    MW4 5696   4.927   4.144   0.976 -0.2009 -0.1546 -0.3055
 1483SOL     OW 5697   6.150   1.312   5.988  0.0211 -0.7466 -0.0366
 1483SOL    HW2 5698   6.082   1.379   5.977 -0.2278 -0.6721  1.6239
 1483SOL    HW3 5699   6.111   1.232   5.953  0.1533 -0.1365 -1.6418
 1483SOL    MW4 5700   6.136   1.310   5.982  0.2777 -1.2229  0.4565
 1484SOL     OW 5701   4.420   4.777   4.910 -0.1790  0.8444 -0.4761
 1484SOL    HW2 5702   4.335   4.762   4.868 -1.3161 -1.1133  2.1887
 1484SOL    HW3 5703   4.411   4.862   4.952 -1.7212 -0.1616  1.4435
 1484SOL    MW4 5704   4.407   4.786   4.910  0.1427 -0.3067  0.4452
 1485SOL     OW 5705   3.598   4.603   4.831  0.4614  0.1449  0.2809
 1485SOL    HW2 5706   3.582   4.537   4.763 -1.3342 -0.2317  1.0251
 1485SOL    HW3 5707   3.587   4.555   4.913 -2.1167  1.5818  0.8623
 1485SOL    MW4 5708   3.595   4.588   4.832  0.1833  0.4828 -0.2623
 1486SOL     OW 5709   3.914   3.761   0.166  0.1762  0.1255 -0.3425
 1486SOL    HW2 5710   3.877   3.679   0.135 -1.3014  1.4024 -2.2125
 1486SOL    HW3 5711   3.880   3.771   0.255  1.6840 -1.9888  0.5487
 1486SOL    MW4 5712   3.905   3.751   0.174 -0.1484 -0.2224  0.2483
 1487SOL     OW 5713   0.370   3.839   1.810  0.4728 -0.1020 -0.8631
 1487SOL    HW2 5714   0.459   3.821   1.841 -0.2753 -1.5743  0.5699
 1487SOL    HW3 5715   0.374   3.824   1.716  2.1132  1.4983 -1.1111
 1487SOL    MW4 5716   0.383   3.835   1.802 -0.2366 -0.0971  0.1566
 1488SOL     OW 5717   1.686   4.043   0.736 -0.5247  0.2893 -0.0010
 1488SOL    HW2 5718   1.672   3.963   0.686 -0.0959 -0.6225  1.2821
 1488SOL    HW3 5719   1.618   4.042   0.803 -0.9409  1.3668 -0.3877
 1488SOL    MW4 5720   1.675   4.032   0.738  0.2575  0.0642 -0.2401
 1489SOL     OW 5721   2.809   4.356   6.238 -0.0431  0.5253  0.1759
 1489SOL    HW2 5722   2.861   4.302   6.298 -0.9625 -0.5626  0.0214
 1489SOL    HW3 5723   2.864   4.433   6.221  1.1475 -0.1957  0.6746
 1489SOL    MW4 5724   2.823   4.359   6.244  0.3897  0.7543  0.2447
 1490SOL     OW 5725   3.276   4.384   5.216 -0.0724 -0.1251 -0.1098
 1490SOL    HW2 5726   3.226   4.348   5.142 -1.4289 -0.0033  0.7148
 1490SOL    HW3 5727   3.326   4.310   5.250 -0.3016 -0.4495 -0.4681
 1490SOL    MW4 5728   3.276   4.370   5.211  0.6630 -0.4619  0.1377
 1491SOL     OW 5729   1.922   2.346   4.507  0.1424  0.0954  0.7559
 1491SOL    HW2 5730   1.827   2.346   4.491  0.1073 -0.2094  0.9494
 1491SOL    HW3 5731   1.944   2.439   4.517  0.5528  0.5690 -3.1311
 1491SOL    MW4 5732   1.912   2.358   4.507  0.7677  0.2279  0.4653
 1492SOL     OW 5733   4.589   0.984   0.779 -0.0952  0.5331  0.1485
 1492SOL    HW2 5734   4.618   1.011   0.692  1.5157 -0.4853  0.3220
 1492SOL    HW3 5735   4.665   1.001   0.835  0.1058 -1.9059  0.7217
 1492SOL    MW4 5736   4.603   0.990   0.775 -0.2748 -0.0434 -0.7491
 1493SOL     OW 5737   0.754   5.904   4.984  0.3458  0.0443  0.1802
 1493SOL    HW2 5738   0.772   5.810   4.984 -0.7403 -0.1987  1.7913
 1493SOL    HW3 5739   0.670   5.912   4.940  0.8714  0.3968 -0.8005
 1493SOL    MW4 5740   0.745   5.893   4.978 -0.1035 -0.5432 -0.3924
 1494SOL     OW 5741   5.331   0.210   5.392 -0.8246 -0.0322  0.6214
 1494SOL    HW2 5742   5.401   0.152   5.421  0.0020  0.0553 -1.0404
 1494SOL    HW3 5743   5.264   0.152   5.357 -0.0287 -0.0565 -0.9742
 1494SOL    MW4 5744   5.332   0.195   5.391 -0.7119 -0.3673 -0.3302
 1495SOL     OW 5745   3.031   0.137   3.477  0.0932 -0.1083 -0.1521
 1495SOL    HW2 5746   3.022   0.079   3.553 -0.2734  1.3393  0.9369
 1495SOL    HW3 5747   3.073   0.216   3.511  0.2933  0.4184 -1.5451
 1495SOL    MW4 5748   3.035   0.140   3.491 -0.7236 -0.5712 -0.5561
 1496SOL     OW 5749   3.209   1.670   5.530 -0.4538  0.4101 -0.0560
 1496SOL    HW2 5750   3.249   1.706   5.608  1.3958 -1.0900 -0.2380
 1496SOL    HW3 5751   3.129   1.628   5.561  0.2838 -0.2140  1.0533
 1496SOL    MW4 5752   3.203   1.669   5.544 -0.5804 -0.4204  0.2255
 1497SOL     OW 5753   4.538   4.052   6.211  0.0116  0.0202 -0.4844
 1497SOL    HW2 5754   4.463   4.011   6.253  1.2262 -1.3653  0.4419
 1497SOL    HW3 5755   4.525   4.146   6.225 -1.1132 -0.2389  0.3931
 1497SOL    MW4 5756   4.526   4.059   6.218  0.2953 -0.5130 -0.0819
 1498SOL     OW 5757   2.657   2.673   6.073 -0.2337  0.0138 -0.1401
 1498SOL    HW2 5758   2.747   2.641   6.073 -0.1939  0.1057 -1.2479
 1498SOL    HW3 5759   2.660   2.752   6.128  0.3640  0.0374 -0.2037
 1498SOL    MW4 5760   2.669   2.679   6.080 -0.6155  0.4777  0.0256
 1499SOL     OW 5761   5.040   0.991   0.718 -0.6456 -0.1985  0.6375
 1499SOL    HW2 5762   4.983   0.946   0.780 -1.1868  0.9768  1.0172
 1499SOL    HW3 5763   4.984   1.005   0.641 -0.4672 -0.2190  0.5041
 1499SOL    MW4 5764   5.025   0.987   0.716  0.3019  0.5764 -0.1852
 1500SOL     OW 5765   3.621   0.095   1.869  0.1167 -0.2199  0.2315
 1500SOL    HW2 5766   3.666   0.102   1.953  0.3608  1.2732  0.0048
 1500SOL    HW3 5767   3.602   0.185   1.844 -1.7280 -0.7392 -0.3867
 1500SOL    MW4 5768   3.625   0.108   1.877  0.3736  0.0882 -0.5457
 1501SOL     OW 5769   0.963   4.843   4.992 -0.0530 -0.6916 -0.5074
 1501SOL    HW2 5770   0.936   4.898   4.918 -0.9666 -0.5613 -0.0866
 1501SOL    HW3 5771   0.983   4.905   5.062 -1.1825 -0.8707  0.0015
 1501SOL    MW4 5772   0.962   4.858   4.991  0.0973 -0.2687  0.1643
 1502SOL     OW 5773   0.460   1.595   4.599  0.3217 -0.0746  0.5047
 1502SOL    HW2 5774   0.459   1.502   4.576 -2.2194  0.1161 -0.4654
 1502SOL    HW3 5775   0.519   1.601   4.674  1.1533 -2.3181  0.0948
 1502SOL    MW4 5776   0.468   1.584   4.606  0.3886  0.5415  0.1502
 1503SOL     OW 5777   4.068   2.492   2.504  0.1137 -0.0811 -0.3064
 1503SOL    HW2 5778   4.018   2.568   2.473  0.0742 -0.6420 -1.7021
 1503SOL    HW3 5779   4.093   2.445   2.424 -1.0858 -2.3132  0.5101
 1503SOL    MW4 5780   4.065   2.495   2.489 -0.0664 -0.0586 -0.1977
 1504SOL     OW 5781   6.142   4.442   5.861  0.4849 -0.3171  0.0884
 1504SOL    HW2 5782   6.061   4.390   5.857  0.0340  0.1300  2.3518
 1504SOL    HW3 5783   6.197   4.396   5.924  0.9694  0.7795  0.4836
 1504SOL    MW4 5784   6.139   4.429   5.869  0.2206 -0.2994  0.6217
 1505SOL     OW 5785   4.157   4.039   0.381  0.6117  0.5501 -0.6770
 1505SOL    HW2 5786   4.130   4.084   0.460 -0.0566 -0.3907 -0.3547
 1505SOL    HW3 5787   4.226   4.094   0.344 -0.8128  2.3115 -0.8119
 1505SOL    MW4 5788   4.163   4.052   0.386 -0.3193  0.3723  0.7427
 1506SOL     OW 5789   4.098   3.568   5.485  0.5573 -0.2214  0.0017
 1506SOL    HW2 5790   4.074   3.554   5.393  0.7312  1.5876 -0.3527
 1506SOL    HW3 5791   4.101   3.663   5.494 -0.5356 -0.3486  2.1768
 1506SOL    MW4 5792   4.095   3.579   5.474 -0.1047  0.0799  0.0845
 1507SOL     OW 5793   0.735   1.617   4.261  0.0861  0.4622 -0.0829
 1507SOL    HW2 5794   0.678   1.566   4.203  1.6199 -4.0612  1.8588
 1507SOL    HW3 5795   0.675   1.669   4.315 -1.7810 -0.1040 -1.5262
 1507SOL    MW4 5796   0.720   1.617   4.261 -0.0138  0.3457  0.6820
 1508SOL     OW 5797   0.589   5.990   3.326  0.3393 -0.0321  0.1346
 1508SOL    HW2 5798   0.548   6.067   3.286  1.7443  0.2493 -0.8608
 1508SOL    HW3 5799   0.628   6.024   3.407 -0.1905  0.0036  0.3778
 1508SOL    MW4 5800   0.589   6.005   3.331 -0.7128 -0.2626 -0.2012
 1509SOL     OW 5801   1.558   1.885   3.772 -0.0408 -0.2417 -0.2788
 1509SOL    HW2 5802   1.508   1.960   3.805  0.3696 -0.3458  0.6173
 1509SOL    HW3 5803   1.524   1.810   3.820  0.7286 -0.3641  0.0989
 1509SOL    MW4 5804   1.547   1.885   3.783  0.1730 -0.0557  0.2608
 1510SOL     OW 5805   4.510   3.663   3.895  0.1688  0.1966 -0.5142
 1510SOL    HW2 5806   4.573   3.718   3.850  0.7205 -0.4670 -0.5683
 1510SOL    HW3 5807   4.427   3.680   3.850  0.7803 -0.7681 -2.0897
 1510SOL    MW4 5808   4.507   3.672   3.883  0.5963 -0.8353  0.3244
 1511SOL     OW 5809   2.179   1.466   0.651  0.1464 -0.2953  0.0659
 1511SOL    HW2 5810   2.252   1.463   0.590 -0.3145  1.0508 -0.5666
 1511SOL    HW3 5811   2.161   1.373   0.670  2.1439 -0.6680  0.4381
 1511SOL    MW4 5812   2.187   1.453   0.646 -0.0248  0.0977 -0.0807
 1512SOL     OW 5813   2.659   6.014   2.235 -0.1376 -0.1440  0.1668
 1512SOL    HW2 5814   2.639   5.920   2.237 -0.7136 -0.1001 -1.7398
 1512SOL    HW3 5815   2.706   6.026   2.152 -0.9336  1.4162 -0.0859
 1512SOL    MW4 5816   2.663   6.003   2.224 -0.4712 -0.4654  0.6867
 1513SOL     OW 5817   5.986   1.649   4.061  0.1036  0.4441 -0.1693
 1513SOL    HW2 5818   6.034   1.612   4.136 -0.9098  0.2279  0.3853
 1513SOL    HW3 5819   6.046   1.714   4.025  0.9971 -0.1251  0.2357
 1513SOL    MW4 5820   6.000   1.652   4.066 -0.1589  0.1369 -0.0534
 1514SOL     OW 5821   1.790   5.242   3.879 -0.2618  0.1920  0.2666
 1514SOL    HW2 5822   1.712   5.189   3.894 -1.2066  1.8684  1.5627
 1514SOL    HW3 5823   1.809   5.283   3.963  2.0538 -0.1426 -0.0053
 1514SOL    MW4 5824   1.783   5.240   3.892 -0.3059 -0.5338 -0.0444
 1515SOL     OW 5825   5.323   4.227   3.147 -0.3457  0.1230 -0.3301
 1515SOL    HW2 5826   5.250   4.222   3.208 -1.7304 -0.5845 -1.9546
 1515SOL    HW3 5827   5.368   4.309   3.169 -3.1350  1.9282 -0.8825
 1515SOL    MW4 5828   5.320   4.237   3.158 -0.2597 -0.3029 -0.1184
 1516SOL     OW 5829   4.772   2.960   1.627 -0.1686 -0.0001 -0.1635
 1516SOL    HW2 5830   4.835   2.892   1.603  0.6924  0.2511  1.2739
 1516SOL    HW3 5831   4.698   2.946   1.569  0.9570 -0.6909 -1.4890
 1516SOL    MW4 5832   4.771   2.949   1.616 -0.3417  0.0088  0.2233
 1517SOL     OW 5833   2.377   5.462   5.790  0.2286  0.7351 -0.0363
 1517SOL    HW2 5834   2.472   5.472   5.799  0.3288 -1.0880  1.6577
 1517SOL    HW3 5835   2.367   5.395   5.722  0.3161 -0.6302  1.2188
 1517SOL    MW4 5836   2.388   5.454   5.782 -0.8291 -0.1275  0.6199
 1518SOL     OW 5837   4.648   1.071   1.935  0.1161 -0.4919 -0.1986
 1518SOL    HW2 5838   4.742   1.085   1.949  0.1978 -1.0493 -0.1505
 1518SOL    HW3 5839   4.645   0.992   1.880 -0.3247 -0.4720 -0.1998
 1518SOL    MW4 5840   4.660   1.062   1.929 -0.3697 -0.2893 -0.0530
 1519SOL     OW 5841   5.622   1.120   6.127 -0.1924  0.0517  0.5278
 1519SOL    HW2 5842   5.543   1.101   6.176 -0.0787  1.1629  1.1805
 1519SOL    HW3 5843   5.602   1.202   6.081  0.3146 -0.0636  0.0893
 1519SOL    MW4 5844   5.609   1.129   6.127 -0.0658 -0.1236 -0.4598
 1520SOL     OW 5845   0.705   5.785   5.634 -0.3696 -0.0721  0.1849
 1520SOL    HW2 5846   0.626   5.839   5.644 -0.7507 -0.6949  0.5923
 1520SOL    HW3 5847   0.677   5.711   5.581 -0.1455 -0.4714  0.6188
 1520SOL    MW4 5848   0.691   5.782   5.628 -0.0975 -0.3491  0.3759
 1521SOL     OW 5849   1.917   3.335   0.277 -0.2133  0.7789 -0.0120
 1521SOL    HW2 5850   1.833   3.359   0.317 -0.2012 -1.8002  1.8249
 1521SOL    HW3 5851   1.910   3.240   0.262  2.5839  0.3402  0.8324
 1521SOL    MW4 5852   1.905   3.325   0.280  0.2945 -0.1671  0.0169
 1522SOL     OW 5853   4.737   3.506   5.462 -0.2652  0.5781  0.1374
 1522SOL    HW2 5854   4.794   3.528   5.536 -0.0182  1.3134 -0.2627
 1522SOL    HW3 5855   4.655   3.551   5.481 -0.0644  1.1098 -0.2322
 1522SOL    MW4 5856   4.734   3.515   5.474 -0.1088  0.3858  0.3743
 1523SOL     OW 5857   0.914   3.667   5.461 -0.8515 -0.7796 -1.3081
 1523SOL    HW2 5858   0.903   3.670   5.366 -2.1883  1.0572 -1.1479
 1523SOL    HW3 5859   0.980   3.735   5.480 -1.1882 -0.5705 -0.8660
 1523SOL    MW4 5860   0.922   3.676   5.451  0.1103 -0.4094  0.7906
 1524SOL     OW 5861   0.875   0.538   3.980  1.1771  0.2190  0.2895
 1524SOL    HW2 5862   0.789   0.580   3.980  0.8282 -0.4795  0.2985
 1524SOL    HW3 5863   0.929   0.594   3.924  0.6104  0.4552 -0.0311
 1524SOL    MW4 5864   0.870   0.551   3.973  0.1539 -1.0896  0.0756
 1525SOL     OW 5865   5.197   0.871   2.736  0.5296  0.3513 -0.4805
 1525SOL    HW2 5866   5.236   0.813   2.671 -0.9559 -0.5467 -0.6272
 1525SOL    HW3 5867   5.106   0.842   2.742  0.2553  1.3946  0.9108
 1525SOL    MW4 5868   5.190   0.860   2.728 -0.0334  0.1401  0.2554
 1526SOL     OW 5869   5.799   6.370   0.947  0.0967  0.5787 -0.0392
 1526SOL    HW2 5870   5.738   6.345   1.016  1.1903  0.5394  0.9497
 1526SOL    HW3 5871   5.780   6.310   0.875  0.1649 -0.6307  0.9181
 1526SOL    MW4 5872   5.789   6.359   0.946 -0.5201 -0.0283 -0.0967
 1527SOL     OW 5873   6.075   5.258   4.478 -0.5372 -0.6013 -0.0936
 1527SOL    HW2 5874   6.144   5.201   4.513  1.1637  0.8445 -0.9173
 1527SOL    HW3 5875   6.047   5.310   4.553 -1.4028 -1.7950  0.4438
 1527SOL    MW4 5876   6.080   5.257   4.492  0.0012  0.5205 -0.2699
 1528SOL     OW 5877   2.326   5.583   4.943 -0.3713  0.2282 -0.6380
 1528SOL    HW2 5878   2.270   5.532   5.003  0.1302 -0.4380 -0.7230
 1528SOL    HW3 5879   2.276   5.586   4.862 -0.4412 -0.0733 -0.6093
 1528SOL    MW4 5880   2.312   5.577   4.941 -0.1250  0.1323 -1.2257
 1529SOL     OW 5881   3.959   5.378   1.126 -0.4347 -0.2987  0.0700
 1529SOL    HW2 5882   4.040   5.327   1.115  0.0808  0.6986 -1.1136
 1529SOL    HW3 5883   3.947   5.421   1.041 -0.9553  1.3570  0.9431
 1529SOL    MW4 5884   3.968   5.377   1.113 -0.7511  0.0424  0.2824
 1530SOL     OW 5885   3.519   6.336   2.224  0.1248  0.3778  0.0681
 1530SOL    HW2 5886   3.426   6.359   2.219  0.0336  0.4630  1.7387
 1530SOL    HW3 5887   3.565   6.419   2.220  0.0547  0.4486  0.6995
 1530SOL    MW4 5888   3.513   6.350   2.223  0.2234  0.0266 -0.0841
 1531SOL     OW 5889   5.493   5.284   0.955  0.1860  0.5572 -0.4312
 1531SOL    HW2 5890   5.473   5.225   1.028  1.7236 -0.0290 -0.4297
 1531SOL    HW3 5891   5.425   5.268   0.890  0.1055 -0.6099 -0.0737
 1531SOL    MW4 5892   5.482   5.274   0.956  0.1612  0.3571  0.0753
 1532SOL     OW 5893   4.591   3.583   5.761  0.3858 -0.8335 -0.4786
 1532SOL    HW2 5894   4.654   3.511   5.760  1.5389  0.1162  0.0161
 1532SOL    HW3 5895   4.612   3.631   5.842 -0.2780  0.0998 -0.8456
 1532SOL    MW4 5896   4.602   3.580   5.772  0.0411 -0.1024 -0.0982
 1533SOL     OW 5897   0.436   6.276   1.042  0.0078 -0.9012  0.4995
 1533SOL    HW2 5898   0.501   6.220   1.082 -0.1723  0.3568  2.7126
 1533SOL    HW3 5899   0.473   6.299   0.956  1.2541 -2.2502  0.6509
 1533SOL    MW4 5900   0.449   6.272   1.036 -0.7521  0.4692 -0.5780
 1534SOL     OW 5901   2.615   4.277   1.868  0.2274  0.3368  0.9010
 1534SOL    HW2 5902   2.666   4.196   1.861 -0.2516 -0.1678  2.6184
 1534SOL    HW3 5903   2.679   4.347   1.858  0.7969 -0.2658  0.2244
 1534SOL    MW4 5904   2.630   4.275   1.866  0.3325 -0.2654 -0.3666
 1535SOL     OW 5905   1.419   1.958   0.038 -0.4016 -0.3195  0.1973
 1535SOL    HW2 5906   1.363   2.004  -0.024  0.3092  4.0431  2.3735
 1535SOL    HW3 5907   1.364   1.945   0.115  0.4822  0.6765  1.0332
 1535SOL    MW4 5908   1.405   1.963   0.040 -0.2211  0.8948  0.3644
 1536SOL     OW 5909   1.195   0.294   0.234  0.0130 -0.0433  0.1546
 1536SOL    HW2 5910   1.180   0.380   0.197 -1.9826 -0.4216 -0.0143
 1536SOL    HW3 5911   1.218   0.239   0.159 -2.7569 -0.5195 -0.4626
 1536SOL    MW4 5912   1.196   0.298   0.220  0.7535  0.1912  0.7104
 1537SOL     OW 5913   3.916   2.249   4.384 -0.2326  0.3890  1.1885
 1537SOL    HW2 5914   3.932   2.344   4.388 -2.2817  0.9248 -1.1818
 1537SOL    HW3 5915   3.941   2.224   4.295 -0.6606 -1.1186  1.4600
 1537SOL    MW4 5916   3.922   2.258   4.373 -0.4762 -0.2020 -0.2963
 1538SOL     OW 5917   2.360   3.379   0.192 -0.1169 -0.5246  0.3145
 1538SOL    HW2 5918   2.322   3.305   0.144 -3.3506  1.3986 -0.3698
 1538SOL    HW3 5919   2.346   3.455   0.134  2.1165  0.8640  1.4335
 1538SOL    MW4 5920   2.353   3.380   0.178 -0.6531 -0.1745  0.9216
 1539SOL     OW 5921   4.434   5.998   2.167 -0.2370  1.0905  0.0169
 1539SOL    HW2 5922   4.469   5.910   2.173 -1.6640  0.5032  0.3043
 1539SOL    HW3 5923   4.491   6.051   2.222  1.5986  0.6993 -1.4240
 1539SOL    MW4 5924   4.446   5.993   2.175 -0.1994 -0.1518  0.4704
 1540SOL     OW 5925   3.991   0.371   3.039  0.2366 -0.2132 -0.1568
 1540SOL    HW2 5926   3.937   0.445   3.067 -0.4099 -0.3220 -1.0784
 1540SOL    HW3 5927   4.007   0.321   3.120  1.0162  1.1281  0.5418
 1540SOL    MW4 5928   3.986   0.374   3.053  0.6785  0.4990 -0.2996
 1541SOL     OW 5929   0.247   2.474   2.250 -0.2012 -0.5997  0.0815
 1541SOL    HW2 5930   0.286   2.426   2.323  0.7735  0.0253 -0.0243
 1541SOL    HW3 5931   0.311   2.541   2.228 -0.9025 -0.1884 -0.7443
 1541SOL    MW4 5932   0.260   2.476   2.257 -0.7421  0.7543 -0.0457
 1542SOL     OW 5933   3.485   3.940   2.719  0.6616 -0.0133  0.2425
 1542SOL    HW2 5934   3.557   3.984   2.764  0.4758  1.3073 -0.6789
 1542SOL    HW3 5935   3.526   3.870   2.669  1.1468 -0.0551  0.6998
 1542SOL    MW4 5936   3.500   3.937   2.718  0.0723  0.1797 -0.7190
 1543SOL     OW 5937   5.394   2.217   4.064 -0.6454 -1.1664 -0.0905
 1543SOL    HW2 5938   5.382   2.191   3.973 -4.4137 -0.7504  0.1034
 1543SOL    HW3 5939   5.333   2.162   4.113 -0.1182 -0.0633  1.9213
 1543SOL    MW4 5940   5.384   2.206   4.058  0.0971  0.1107  0.2889
 1544SOL     OW 5941   6.107   2.266   0.661  0.1783  0.2398  0.4575
 1544SOL    HW2 5942   6.198   2.285   0.684  0.3379 -0.3857  0.3578
 1544SOL    HW3 5943   6.106   2.269   0.565  0.0458  0.4398  0.4637
 1544SOL    MW4 5944   6.119   2.269   0.651 -0.7945 -0.0759 -0.0624
 1545SOL     OW 5945   2.761   5.468   1.779 -0.0548  0.7667 -0.3206
 1545SOL    HW2 5946   2.795   5.429   1.698  0.8253  0.4104  0.2029
 1545SOL    HW3 5947   2.735   5.556   1.753 -2.9546 -0.3858 -1.7468
 1545SOL    MW4 5948   2.762   5.474   1.765  0.5308  0.0819 -0.2064
 1546SOL     OW 5949   1.797   1.560   0.133  0.4007  0.0802 -0.3631
 1546SOL    HW2 5950   1.861   1.598   0.193  1.6602 -1.8957 -0.3610
 1546SOL    HW3 5951   1.722   1.539   0.188 -0.0350  1.8095 -0.2423
 1546SOL    MW4 5952   1.796   1.562   0.148  0.6021  0.0959  0.1091
 1547SOL     OW 5953   3.713   4.165   2.799  0.3385  0.1213  0.1785
 1547SOL    HW2 5954   3.782   4.221   2.762  0.7173 -0.2262  0.3550
 1547SOL    HW3 5955   3.707   4.193   2.890 -1.4378  1.8222 -0.4044
 1547SOL    MW4 5956   3.722   4.176   2.806 -0.0721 -0.1167  0.2826
 1548SOL     OW 5957   6.197   0.538   0.831 -0.4157 -0.5937  0.1320
 1548SOL    HW2 5958   6.147   0.490   0.897  1.0239  1.1590  2.7099
 1548SOL    HW3 5959   6.281   0.493   0.827  0.1642  0.3557  0.9596
 1548SOL    MW4 5960   6.201   0.526   0.839  0.0556  0.0137  0.2257
 1549SOL     OW 5961   4.945   0.707   2.822  0.2252 -0.1957 -0.1491
 1549SOL    HW2 5962   5.011   0.646   2.855 -2.3841 -3.2907 -0.1664
 1549SOL    HW3 5963   4.896   0.734   2.900 -1.5687 -1.9979 -0.5639
 1549SOL    MW4 5964   4.947   0.702   2.837  0.0705  0.4559  0.0316
 1550SOL     OW 5965   2.444   3.904   3.584  0.0208  0.3990 -0.1899
 1550SOL    HW2 5966   2.441   3.924   3.678 -2.1863  2.6245 -0.6097
 1550SOL    HW3 5967   2.510   3.964   3.549  1.6446 -1.1997  0.0356
 1550SOL    MW4 5968   2.452   3.915   3.592 -0.2196  0.1044  0.4738
 1551SOL     OW 5969   0.778   2.436   1.311 -0.7661 -0.1112 -0.0933
 1551SOL    HW2 5970   0.851   2.400   1.261 -0.5495 -0.3673  0.4041
 1551SOL    HW3 5971   0.702   2.386   1.281 -0.3224 -1.6963  1.2961
 1551SOL    MW4 5972   0.777   2.425   1.300  0.5858  0.0518 -0.8254
 1552SOL     OW 5973   1.334   2.783   0.933  0.2689  0.2750  0.2436
 1552SOL    HW2 5974   1.277   2.856   0.956  0.8119  0.7866  0.0086
 1552SOL    HW3 5975   1.278   2.722   0.886 -0.5911 -0.2675  1.9113
 1552SOL    MW4 5976   1.319   2.785   0.930  0.0260 -0.2801 -0.8499
 1553SOL     OW 5977   6.298   0.438   5.669 -0.0414  0.0883 -0.2324
 1553SOL    HW2 5978   6.266   0.391   5.746 -1.1740 -0.4407 -0.9949
 1553SOL    HW3 5979   6.329   0.522   5.704  0.1784 -0.4374  0.8876
 1553SOL    MW4 5980   6.298   0.443   5.684 -0.0049 -0.4643  0.1362
 1554SOL     OW 5981   3.422   1.439   5.717  0.5223  0.7021  0.0681
 1554SOL    HW2 5982   3.457   1.368   5.770 -1.1264  0.3555  0.7534
 1554SOL    HW3 5983   3.461   1.426   5.631  0.0682 -1.2154  0.1051
 1554SOL    MW4 5984   3.432   1.428   5.713  0.1293  0.3970  0.0680
 1555SOL     OW 5985   6.363   3.961   4.077  0.0569  0.0979 -0.5682
 1555SOL    HW2 5986   6.424   4.029   4.106  0.9065  0.3446 -2.7336
 1555SOL    HW3 5987   6.314   4.003   4.006 -0.6574 -0.9983 -0.7358
 1555SOL    MW4 5988   6.365   3.976   4.071  0.2199  0.0494  0.1760
 1556SOL     OW 5989   3.847   3.800   4.311 -0.5107  0.6521  0.2919
 1556SOL    HW2 5990   3.783   3.864   4.282 -1.5585 -0.2653  0.4811
 1556SOL    HW3 5991   3.845   3.732   4.243  0.0087  0.4542  0.4704
 1556SOL    MW4 5992   3.838   3.799   4.298  0.4101  0.1296 -0.0434
 1557SOL     OW 5993   3.738   2.491   4.868  0.0822 -0.1012 -0.0126
 1557SOL    HW2 5994   3.745   2.482   4.963 -0.1706  0.0719  0.0218
 1557SOL    HW3 5995   3.760   2.405   4.834 -1.3828 -0.6050  0.2741
 1557SOL    MW4 5996   3.742   2.479   4.876 -0.2533  0.1676  0.2946
 1558SOL     OW 5997   6.326   2.070   6.415  0.1156 -0.4431  0.3006
 1558SOL    HW2 5998   6.259   2.056   6.482  0.2363 -0.7460  0.3631
 1558SOL    HW3 5999   6.279   2.106   6.340 -0.0127 -0.0618  0.5625
 1558SOL    MW4 6000   6.311   2.073   6.414  0.6086 -0.1498 -0.2607
 1559SOL     OW 6001   0.459   2.093   2.866  0.0365  0.3324  0.3837
 1559SOL    HW2 6002   0.523   2.047   2.920 -0.1201  0.6261  0.8285
 1559SOL    HW3 6003   0.383   2.103   2.922 -0.0702  0.7867  0.1641
 1559SOL    MW4 6004   0.458   2.089   2.880  0.1154 -0.3790  0.2607
 1560SOL     OW 6005   3.393   3.567   6.072  0.1121 -0.2058  0.2675
 1560SOL    HW2 6006   3.331   3.535   6.006 -1.0662  0.6803  0.9130
 1560SOL    HW3 6007   3.338   3.596   6.145  1.0919  2.9317 -0.1119
 1560SOL    MW4 6008   3.377   3.566   6.073  0.1639  0.5119 -0.4394
 1561SOL     OW 6009   0.121   5.015   2.880  0.3198  0.3310  0.0895
 1561SOL    HW2 6010   0.089   5.022   2.791 -0.4373 -1.7896  0.1335
 1561SOL    HW3 6011   0.212   4.986   2.871  1.6839  4.0425  0.0206
 1561SOL    MW4 6012   0.129   5.012   2.867  0.1216  0.2038  0.1720
 1562SOL     OW 6013   5.312   0.743   4.848 -0.4231  0.2757 -0.2496
 1562SOL    HW2 6014   5.229   0.767   4.888  0.7223  1.6897  1.4367
 1562SOL    HW3 6015   5.356   0.827   4.831  0.1224 -0.3704 -2.4076
 1562SOL    MW4 6016   5.307   0.757   4.851 -0.1324  0.0122 -0.0434
 1563SOL     OW 6017   6.066   3.527   0.010  0.2236 -0.5222 -0.3113
 1563SOL    HW2 6018   6.011   3.595  -0.031 -0.5027 -0.4881  0.6865
 1563SOL    HW3 6019   6.049   3.536   0.104  1.1265 -1.2353 -0.0686
 1563SOL    MW4 6020   6.056   3.537   0.017  0.3359 -0.4209  0.2083
 1564SOL     OW 6021   1.095   2.331   2.695  0.5105 -0.0390 -0.0083
 1564SOL    HW2 6022   1.156   2.359   2.626  0.9188  2.3699  1.2115
 1564SOL    HW3 6023   1.117   2.387   2.770 -1.3123 -1.1178  1.4144
 1564SOL    MW4 6024   1.106   2.342   2.696 -0.6746 -0.0990  0.4547
 1565SOL     OW 6025   4.835   4.852   0.819 -0.2124 -0.3729 -0.1992
 1565SOL    HW2 6026   4.740   4.859   0.821 -0.1940  4.1549 -2.1470
 1565SOL    HW3 6027   4.855   4.814   0.734 -0.3700  0.8114 -0.7926
 1565SOL    MW4 6028   4.825   4.848   0.808  0.5267 -0.4771  0.3120
 1566SOL     OW 6029   2.916   6.423   6.400 -0.0061  0.2209  0.3394
 1566SOL    HW2 6030   2.907   6.460   6.488  1.7766  1.0062  0.2401
 1566SOL    HW3 6031   3.009   6.435   6.379  0.5996 -3.8517  0.0306
 1566SOL    MW4 6032   2.927   6.430   6.409 -0.2351  0.3766 -0.4748
 1567SOL     OW 6033   4.247   3.775   1.860 -0.1563  0.7077  0.1880
 1567SOL    HW2 6034   4.257   3.769   1.765 -0.6636 -0.6277  0.2009
 1567SOL    HW3 6035   4.160   3.738   1.877 -0.1152  1.0445  1.1587
 1567SOL    MW4 6036   4.237   3.769   1.850 -0.0545 -0.2472 -0.1543
 1568SOL     OW 6037   5.306   4.709   0.962 -0.0500 -0.0301 -0.3200
 1568SOL    HW2 6038   5.326   4.616   0.951  2.3179  0.5010 -0.9898
 1568SOL    HW3 6039   5.210   4.712   0.970 -0.3743 -2.3401 -2.2085
 1568SOL    MW4 6040   5.296   4.697   0.962 -0.1771  0.2426  0.1038
 1569SOL     OW 6041   5.654   0.900   3.632 -0.2439 -0.7721  1.2929
 1569SOL    HW2 6042   5.618   0.985   3.657 -1.5545 -0.4000 -1.4638
 1569SOL    HW3 6043   5.720   0.920   3.566 -0.3016 -1.8577  0.8882
 1569SOL    MW4 6044   5.658   0.914   3.626 -0.1173  0.1286  0.1731
 1570SOL     OW 6045   1.482   0.235   1.137 -0.4085  0.3897 -0.0222
 1570SOL    HW2 6046   1.501   0.198   1.223  1.0894 -2.0775 -1.3202
 1570SOL    HW3 6047   1.515   0.325   1.142 -0.4700  0.3539  1.9661
 1570SOL    MW4 6048   1.489   0.242   1.149 -0.1768  0.3146  0.4323
 1571SOL     OW 6049   4.703   1.343   4.728 -0.1174 -0.2880  0.3757
 1571SOL    HW2 6050   4.684   1.338   4.821  0.2923 -0.1115  0.4694
 1571SOL    HW3 6051   4.642   1.409   4.695 -0.0198 -0.0925  0.5835
 1571SOL    MW4 6052   4.692   1.351   4.736  0.1364 -0.0150 -0.3872
 1572SOL     OW 6053   5.632   0.621   5.307 -0.1844 -0.1608 -0.1248
 1572SOL    HW2 6054   5.631   0.707   5.266 -1.2945  0.9929  2.0929
 1572SOL    HW3 6055   5.709   0.622   5.363 -1.0812  0.0872  1.1534
 1572SOL    MW4 6056   5.642   0.633   5.309  0.3805  0.3906  0.2501
 1573SOL     OW 6057   5.320   3.375   4.613  0.2879 -0.3110 -0.5502
 1573SOL    HW2 6058   5.244   3.338   4.569 -0.2222 -0.4089  0.3808
 1573SOL    HW3 6059   5.342   3.311   4.681  1.6524 -0.6264 -1.2589
 1573SOL    MW4 6060   5.313   3.362   4.616  0.2472  0.3644 -0.0160
 1574SOL     OW 6061   0.719   2.108   4.117 -0.8866 -0.4671  0.4724
 1574SOL    HW2 6062   0.769   2.029   4.096 -0.6199 -0.9039  2.4786
 1574SOL    HW3 6063   0.784   2.178   4.122 -1.2040  0.0552 -1.9185
 1574SOL    MW4 6064   0.734   2.107   4.115  0.4873 -0.1923 -0.2186
 1575SOL     OW 6065   1.259   1.206   2.803  0.3767  0.1810 -0.1364
 1575SOL    HW2 6066   1.294   1.282   2.850 -0.2069 -0.3057  1.1258
 1575SOL    HW3 6067   1.166   1.206   2.825  0.3113 -0.7183 -0.3949
 1575SOL    MW4 6068   1.251   1.216   2.812  0.0896  0.5661  0.3766
 1576SOL     OW 6069   3.469   3.731   1.970 -0.4132  0.7770  0.1990
 1576SOL    HW2 6070   3.464   3.757   1.878 -1.8060 -0.4153 -0.1010
 1576SOL    HW3 6071   3.560   3.745   1.994  0.6473 -1.4088 -2.1583
 1576SOL    MW4 6072   3.480   3.737   1.961  0.4326 -0.3581  0.8501
 1577SOL     OW 6073   0.638   1.676   3.907  0.7443 -0.0438 -0.1884
 1577SOL    HW2 6074   0.585   1.622   3.966  1.2793 -0.1761  0.1796
 1577SOL    HW3 6075   0.696   1.614   3.863 -0.2857 -0.0690 -1.5707
 1577SOL    MW4 6076   0.639   1.661   3.909  0.2421 -0.4583 -0.2802
 1578SOL     OW 6077   0.571   3.962   0.647  0.2443  0.2011  0.0623
 1578SOL    HW2 6078   0.587   4.046   0.691 -0.5548  0.4827 -0.1531
 1578SOL    HW3 6079   0.642   3.953   0.584  1.3046 -0.1172  1.2770
 1578SOL    MW4 6080   0.582   3.972   0.645  0.6030  0.7037  0.6414
 1579SOL     OW 6081   0.592   2.922   5.598 -0.7510  0.3577  0.2154
 1579SOL    HW2 6082   0.552   2.845   5.558  0.7885  0.2443 -1.1984
 1579SOL    HW3 6083   0.679   2.927   5.560  0.0875  1.4158  2.1161
 1579SOL    MW4 6084   0.598   2.913   5.588  0.4764 -0.4236 -0.7416
 1580SOL     OW 6085   2.697   3.935   0.493 -0.3963 -0.4930  0.1715
 1580SOL    HW2 6086   2.672   3.965   0.580 -3.6434  1.5686 -1.2721
 1580SOL    HW3 6087   2.786   3.967   0.480 -0.6820  1.1409  1.9164
 1580SOL    MW4 6088   2.705   3.943   0.502 -0.0615  0.5477 -0.6319
 1581SOL     OW 6089   2.474   3.130   1.466 -0.7774 -0.3963  0.1168
 1581SOL    HW2 6090   2.422   3.201   1.428  0.0666 -0.3414 -0.9782
 1581SOL    HW3 6091   2.534   3.105   1.396  1.3919  0.2481  1.6556
 1581SOL    MW4 6092   2.475   3.136   1.451 -0.0602 -0.4296 -0.1988
 1582SOL     OW 6093   3.901   2.604   2.009 -0.3149  0.5816 -1.2377
 1582SOL    HW2 6094   3.981   2.595   1.957 -0.3003 -0.2602 -1.0846
 1582SOL    HW3 6095   3.899   2.525   2.063 -0.3576  1.4081  0.0018
 1582SOL    MW4 6096   3.911   2.592   2.009  0.4123 -0.5055 -0.1666
 1583SOL     OW 6097   2.387   6.066   2.546 -0.1583 -0.3660  0.1566
 1583SOL    HW2 6098   2.439   5.986   2.536  1.6453  0.8581 -0.6941
 1583SOL    HW3 6099   2.304   6.046   2.503  0.3946 -1.6575 -0.3608
 1583SOL    MW4 6100   2.383   6.053   2.539  0.1144 -0.3782 -0.2659
 1584SOL     OW 6101   0.967   1.400   0.914  0.2213  0.5138 -0.8267
 1584SOL    HW2 6102   0.895   1.414   0.852  0.6558 -0.3844 -1.5623
 1584SOL    HW3 6103   0.940   1.323   0.965  0.6361  0.1988 -1.0779
 1584SOL    MW4 6104   0.954   1.392   0.913  0.4896 -0.2085 -0.6955
 1585SOL     OW 6105   4.655   1.811   1.836 -0.0022 -0.3438 -0.1680
 1585SOL    HW2 6106   4.718   1.825   1.907 -0.1282 -0.3968 -0.0462
 1585SOL    HW3 6107   4.570   1.816   1.878 -0.1413  1.2267 -0.5836
 1585SOL    MW4 6108   4.652   1.813   1.851 -0.6614 -1.2305 -0.1314
 1586SOL     OW 6109   3.948   1.786   3.786  1.0654 -0.2415 -0.0590
 1586SOL    HW2 6110   4.003   1.863   3.770 -0.6294  0.7325 -1.5266
 1586SOL    HW3 6111   3.993   1.715   3.740  0.3481  0.8866 -2.7052
 1586SOL    MW4 6112   3.961   1.787   3.778  0.6077 -0.1412 -0.3826
 1587SOL     OW 6113   1.234   5.559   2.265 -0.2477 -0.0180  0.0659
 1587SOL    HW2 6114   1.317   5.543   2.220 -0.3889 -1.8898  0.4144
 1587SOL    HW3 6115   1.201   5.639   2.225  1.7564  0.8363 -0.0195
 1587SOL    MW4 6116   1.241   5.568   2.254 -0.4244 -0.0655  0.3262
 1588SOL     OW 6117   4.811   0.475   5.634 -0.4272 -0.0088  0.0366
 1588SOL    HW2 6118   4.727   0.451   5.593 -1.4053  0.4657  1.6873
 1588SOL    HW3 6119   4.795   0.560   5.674  1.1578  0.5340 -0.4249
 1588SOL    MW4 6120   4.798   0.483   5.634  0.6985 -0.6016 -0.5678
 1589SOL     OW 6121   0.765   0.545   1.677  0.0721  0.2615  0.5669
 1589SOL    HW2 6122   0.813   0.620   1.713  0.0360  0.5424  0.0271
 1589SOL    HW3 6123   0.818   0.469   1.703  0.7585  0.5597  0.0702
 1589SOL    MW4 6124   0.779   0.545   1.685 -0.6832 -0.4774 -0.0772
 1590SOL     OW 6125   3.188   6.381   0.413 -0.7021  0.0571  0.4667
 1590SOL    HW2 6126   3.253   6.320   0.448 -0.9404 -0.0452  0.7281
 1590SOL    HW3 6127   3.200   6.460   0.465  1.6493  1.3477 -1.7376
 1590SOL    MW4 6128   3.198   6.384   0.424 -0.0081  0.2028  0.1235
 1591SOL     OW 6129   4.683   4.921   2.449 -0.0128  0.3607  0.1138
 1591SOL    HW2 6130   4.600   4.939   2.404 -0.5474 -2.5137 -0.2435
 1591SOL    HW3 6131   4.747   4.914   2.378  0.4073  1.7557  0.3294
 1591SOL    MW4 6132   4.680   4.923   2.433 -0.3840  0.6405 -0.0571
 1592SOL     OW 6133   2.191   4.786   4.392 -0.2503  0.0019 -0.3498
 1592SOL    HW2 6134   2.206   4.697   4.424  0.4810  0.8648  1.9198
 1592SOL    HW3 6135   2.276   4.816   4.362 -0.6053 -0.2241 -1.6246
 1592SOL    MW4 6136   2.204   4.778   4.392  0.3316  0.7866  0.0481
 1593SOL     OW 6137   3.104   3.558   1.765  0.1540  0.4595 -0.2530
 1593SOL    HW2 6138   3.136   3.580   1.853  1.6580 -0.5064 -0.5271
 1593SOL    HW3 6139   3.101   3.463   1.764 -1.6906  0.4985 -0.6502
 1593SOL    MW4 6140   3.108   3.548   1.777 -0.0303  0.1088  0.3364
 1594SOL     OW 6141   0.164   0.182   4.756 -0.1869 -0.1164 -0.6115
 1594SOL    HW2 6142   0.243   0.229   4.784 -0.5792 -0.5101  1.2418
 1594SOL    HW3 6143   0.105   0.251   4.726 -1.0094  0.7941  2.6824
 1594SOL    MW4 6144   0.167   0.197   4.756  0.2379 -0.0903 -0.4057
 1595SOL     OW 6145   3.191   3.477   5.853 -0.7438 -0.0654  0.4615
 1595SOL    HW2 6146   3.142   3.440   5.927  1.2229 -2.0332  0.8663
 1595SOL    HW3 6147   3.194   3.407   5.788  2.8554 -0.7215  1.1329
 1595SOL    MW4 6148   3.185   3.463   5.854 -0.3068 -0.2501  0.2386
 1596SOL     OW 6149   3.345   3.137   4.946  0.6718  0.0307  0.4665
 1596SOL    HW2 6150   3.318   3.173   4.862 -1.1308  0.9553  1.3806
 1596SOL    HW3 6151   3.349   3.212   5.005 -2.4782 -0.9785  2.2493
 1596SOL    MW4 6152   3.342   3.152   4.943 -0.5550 -0.3541  0.6195
 1597SOL     OW 6153   2.208   4.605   4.609 -0.0569 -0.4416 -0.2811
 1597SOL    HW2 6154   2.278   4.552   4.571 -0.2145 -0.8855  0.0363
 1597SOL    HW3 6155   2.253   4.677   4.654  0.1658 -0.4163 -0.5424
 1597SOL    MW4 6156   2.223   4.608   4.610 -0.2526  0.4847 -0.2421
 1598SOL     OW 6157   4.364   3.130   4.801  0.9310  0.1760 -0.2687
 1598SOL    HW2 6158   4.282   3.150   4.755  0.7633  0.6334  0.2069
 1598SOL    HW3 6159   4.427   3.193   4.767  0.3868  1.6401  1.2756
 1598SOL    MW4 6160   4.361   3.141   4.791 -0.1576  0.1105  0.4714
 1599SOL     OW 6161   2.221   0.599   5.218  0.2049 -0.1904 -0.1459
 1599SOL    HW2 6162   2.311   0.626   5.199 -0.0271  0.8935  0.2521
 1599SOL    HW3 6163   2.213   0.607   5.313 -0.2470 -0.5218 -0.1529
 1599SOL    MW4 6164   2.232   0.603   5.228 -0.2995  0.4323 -0.2348
 1600SOL     OW 6165   3.339   2.213   3.954  0.4836  0.5369  0.2589
 1600SOL    HW2 6166   3.371   2.295   3.917  1.6552 -0.9675 -2.4405
 1600SOL    HW3 6167   3.386   2.204   4.037  1.5409  1.8600 -0.1493
 1600SOL    MW4 6168   3.350   2.222   3.960 -0.3649 -0.3629 -0.4614
 1601SOL     OW 6169   2.816   6.221   1.421  0.4798  0.4348  0.6192
 1601SOL    HW2 6170   2.769   6.295   1.381 -0.7158  0.5857  2.1955
 1601SOL    HW3 6171   2.767   6.144   1.393  1.1241  0.3171 -0.2028
 1601SOL    MW4 6172   2.803   6.221   1.412 -0.3630  0.0305 -0.2594
 1602SOL     OW 6173   2.289   3.470   1.169  0.0037 -0.0233 -0.5283
 1602SOL    HW2 6174   2.281   3.421   1.251 -1.8138  0.7220 -0.2073
 1602SOL    HW3 6175   2.380   3.460   1.143  0.3275 -1.2457  0.9749
 1602SOL    MW4 6176   2.300   3.462   1.176 -0.5315 -0.1330  0.3376
 1603SOL     OW 6177   4.321   2.945   1.500 -0.9202 -0.0930  0.0214
 1603SOL    HW2 6178   4.284   2.965   1.414 -1.2989 -1.1535 -0.0792
 1603SOL    HW3 6179   4.415   2.941   1.485 -0.9203  0.4980 -0.1698
 1603SOL    MW4 6180   4.328   2.947   1.487 -0.0043  0.4961 -0.0058
 1604SOL     OW 6181   5.343   5.762   3.417  0.4822  0.1042 -0.3083
 1604SOL    HW2 6182   5.377   5.677   3.446  0.9743  0.0835 -0.9347
 1604SOL    HW3 6183   5.276   5.784   3.482  0.4016 -0.7269 -0.0990
 1604SOL    MW4 6184   5.338   5.754   3.429 -0.1103  0.1373 -0.1798
 1605SOL     OW 6185   3.764   1.012   3.258 -0.3891  0.4714  0.4523
 1605SOL    HW2 6186   3.774   0.950   3.186 -0.8332  0.7111  0.1806
 1605SOL    HW3 6187   3.685   0.983   3.303 -0.4139  0.6465  0.5201
 1605SOL    MW4 6188   3.755   1.000   3.254 -0.5751 -0.4142 -0.2747
 1606SOL     OW 6189   0.348   5.345   0.448 -0.6801  0.4943 -0.0669
 1606SOL    HW2 6190   0.431   5.338   0.402 -1.1071 -1.1924 -0.6506
 1606SOL    HW3 6191   0.355   5.426   0.498  1.4618  0.2037  0.1927
 1606SOL    MW4 6192   0.360   5.354   0.449 -0.2487  0.6219  0.0693
 1607SOL     OW 6193   0.309   1.088   3.484 -0.4117  0.2362 -0.3706
 1607SOL    HW2 6194   0.380   1.024   3.492 -0.9878 -0.3058  0.5637
 1607SOL    HW3 6195   0.290   1.116   3.573 -0.0951  1.8311 -0.7669
 1607SOL    MW4 6196   0.316   1.083   3.497 -0.6561  0.4003 -0.0813
 1608SOL     OW 6197   5.277   0.366   6.281 -0.6380  0.5667 -0.1332
 1608SOL    HW2 6198   5.346   0.411   6.234 -1.3729  3.5449  1.3304
 1608SOL    HW3 6199   5.321   0.296   6.329  0.8686  0.6594 -1.3303
 1608SOL    MW4 6200   5.292   0.363   6.281  0.2952  0.3416 -0.3211
 1609SOL     OW 6201   1.402   3.372   5.923 -0.6618  0.3678  0.5012
 1609SOL    HW2 6202   1.497   3.367   5.911 -0.7376  1.0890 -0.5385
 1609SOL    HW3 6203   1.391   3.441   5.989 -0.4057 -1.1385  2.2176
 1609SOL    MW4 6204   1.413   3.380   5.930  0.1420  0.1691 -0.0997
 1610SOL     OW 6205   0.739   3.421   1.943  0.1465  0.1229  0.0739
 1610SOL    HW2 6206   0.771   3.418   2.033  0.1868  0.8275  0.0859
 1610SOL    HW3 6207   0.816   3.438   1.890 -0.1389  1.5293  0.0772
 1610SOL    MW4 6208   0.753   3.423   1.948  0.3494 -0.4705  0.5086
 1611SOL     OW 6209   6.015   0.160   2.694  0.1023  0.1459  0.1249
 1611SOL    HW2 6210   6.105   0.192   2.698 -0.1600  0.8095  1.0477
 1611SOL    HW3 6211   5.970   0.223   2.638  0.6750 -1.4235 -2.2277
 1611SOL    MW4 6212   6.021   0.173   2.687  0.1370 -0.0674 -0.6259
 1612SOL     OW 6213   2.542   2.510   5.106 -0.7874 -0.0728  0.6904
 1612SOL    HW2 6214   2.618   2.566   5.089 -1.8051  1.0420 -0.3140
 1612SOL    HW3 6215   2.477   2.568   5.146 -1.0537 -1.0743  1.7773
 1612SOL    MW4 6216   2.544   2.525   5.109  0.3681 -0.0595 -0.6277
 1613SOL     OW 6217   0.040   3.917   4.393 -0.4285 -0.1402 -0.4276
 1613SOL    HW2 6218   0.001   3.830   4.380 -1.7625  0.4777 -0.7814
 1613SOL    HW3 6219   0.113   3.920   4.331 -0.8452 -0.7331 -0.9582
 1613SOL    MW4 6220   0.044   3.906   4.383 -0.3094 -0.8862 -0.2497
 1614SOL     OW 6221   5.528   4.327   4.710 -0.1075  0.2320 -0.0147
 1614SOL    HW2 6222   5.622   4.338   4.697 -0.1036  0.1230 -0.0822
 1614SOL    HW3 6223   5.508   4.381   4.786  0.2138 -0.6289  0.7052
 1614SOL    MW4 6224   5.538   4.335   4.718 -0.1999  0.0954  0.2859
 1615SOL     OW 6225   0.176   4.979   0.564  0.1424  0.0872 -0.3893
 1615SOL    HW2 6226   0.190   4.932   0.482 -1.1916 -0.9376 -0.0855
 1615SOL    HW3 6227   0.102   4.933   0.605  0.9065  0.4275  1.4859
 1615SOL    MW4 6228   0.168   4.967   0.559  0.1084 -0.1662 -0.3046
 1616SOL     OW 6229   1.984   3.255   2.108 -0.2234 -0.4609 -0.0381
 1616SOL    HW2 6230   2.060   3.201   2.128 -0.5255 -1.0130 -0.3388
 1616SOL    HW3 6231   1.952   3.284   2.193  1.4791  1.4677  0.0332
 1616SOL    MW4 6232   1.990   3.252   2.122  0.2950  0.6616 -0.2723
 1617SOL     OW 6233   5.649   0.511   5.853 -0.5453  0.3935  0.1209
 1617SOL    HW2 6234   5.735   0.480   5.881 -0.9709 -0.0079  0.9994
 1617SOL    HW3 6235   5.595   0.432   5.847 -0.5928  0.5033 -1.4573
 1617SOL    MW4 6236   5.653   0.497   5.856 -0.1388  0.4433  0.5642
 1618SOL     OW 6237   5.515   4.905   6.095  0.0883 -0.4783 -0.3690
 1618SOL    HW2 6238   5.504   4.929   6.002 -0.8119  0.5081 -0.0293
 1618SOL    HW3 6239   5.609   4.914   6.110  0.5100 -2.3441 -1.6103
 1618SOL    MW4 6240   5.526   4.910   6.084 -0.4519 -0.0250  0.1633
 1619SOL     OW 6241   1.499   3.354   4.283  0.3354  0.0376  0.4094
 1619SOL    HW2 6242   1.447   3.273   4.277  1.5046 -0.7785  0.8093
 1619SOL    HW3 6243   1.441   3.417   4.326 -0.0802 -1.0704  1.5366
 1619SOL    MW4 6244   1.484   3.351   4.288  0.0110  0.3947  0.1914
 1620SOL     OW 6245   3.834   2.094   5.821 -0.3082  0.2629 -0.2260
 1620SOL    HW2 6246   3.743   2.111   5.798 -0.9754 -0.4401  1.7432
 1620SOL    HW3 6247   3.866   2.038   5.750 -1.7505 -0.4223 -0.3747
 1620SOL    MW4 6248   3.826   2.088   5.808 -0.7324  0.5576  0.0676
 1621SOL     OW 6249   5.587   2.912   4.759 -0.1803 -0.3792 -0.4034
 1621SOL    HW2 6250   5.547   2.825   4.754  0.1993 -0.6592  0.9852
 1621SOL    HW3 6251   5.631   2.924   4.674 -1.1427 -1.0729 -1.0191
 1621SOL    MW4 6252   5.587   2.902   4.747  0.9924  0.3127 -0.1132
 1622SOL     OW 6253   5.216   3.014   3.517  0.1737 -0.1828  0.1295
 1622SOL    HW2 6254   5.298   3.008   3.468  0.0848 -0.6443  0.0392
 1622SOL    HW3 6255   5.163   3.077   3.467 -0.8264 -2.3432 -1.6902
 1622SOL    MW4 6256   5.220   3.022   3.504 -0.2305  0.5335 -0.1308
 1623SOL     OW 6257   1.627   1.237   0.013  0.1788  0.0630 -0.0578
 1623SOL    HW2 6258   1.611   1.273  -0.074  0.7362 -1.0422 -0.6306
 1623SOL    HW3 6259   1.721   1.222   0.016  0.3837  1.3527  1.2576
 1623SOL    MW4 6260   1.637   1.240   0.002  0.1569  0.3533  0.3634
 1624SOL     OW 6261   6.125   3.336   3.687 -0.4862  0.4767 -0.4963
 1624SOL    HW2 6262   6.204   3.288   3.710 -1.1977 -0.6519 -0.2859
 1624SOL    HW3 6263   6.079   3.278   3.625 -0.7891  1.4434 -1.2018
 1624SOL    MW4 6264   6.129   3.322   3.682 -0.4421 -0.2464 -0.2124
 1625SOL     OW 6265   3.868   3.831   1.148  0.0263 -0.0175 -0.0237
 1625SOL    HW2 6266   3.957   3.858   1.130 -0.4602  2.6576  1.1288
 1625SOL    HW3 6267   3.870   3.735   1.140  2.0212  0.1486 -3.9512
 1625SOL    MW4 6268   3.880   3.822   1.145 -0.0818  0.0538 -0.3195
 1626SOL     OW 6269   4.597   0.136   1.965  0.5583  0.6672 -0.2409
 1626SOL    HW2 6270   4.692   0.129   1.958  0.6348  1.6607 -0.3698
 1626SOL    HW3 6271   4.581   0.229   1.977 -0.1888  0.2235  3.1789
 1626SOL    MW4 6272   4.608   0.147   1.966 -0.9883  0.6150 -0.2762
 1627SOL     OW 6273   5.779   2.454   1.574  0.3690 -0.6842  0.4539
 1627SOL    HW2 6274   5.749   2.526   1.629  1.0790 -0.1171  0.1116
 1627SOL    HW3 6275   5.844   2.493   1.516  2.5384 -2.0690  1.8250
 1627SOL    MW4 6276   5.784   2.468   1.574  0.4012 -0.3867 -0.0303
 1628SOL     OW 6277   2.229   1.321   6.172  0.8337  0.0184  0.1137
 1628SOL    HW2 6278   2.160   1.385   6.155  0.8045 -0.0524 -0.0310
 1628SOL    HW3 6279   2.231   1.265   6.094  0.9655 -0.0606  0.1723
 1628SOL    MW4 6280   2.220   1.322   6.160  0.9593 -0.3113 -0.4750
 1629SOL     OW 6281   5.222   2.475   2.483  0.7583 -0.8735  0.3715
 1629SOL    HW2 6282   5.248   2.546   2.542  0.3892  0.7652 -1.3356
 1629SOL    HW3 6283   5.304   2.446   2.443  0.6474  0.6456 -1.0686
 1629SOL    MW4 6284   5.236   2.481   2.486  0.0001  0.3326  0.1939
 1630SOL     OW 6285   0.448   1.801   1.494 -0.4777 -0.3364 -0.0545
 1630SOL    HW2 6286   0.371   1.745   1.488 -0.6064 -0.0724 -1.1468
 1630SOL    HW3 6287   0.520   1.748   1.460 -0.0926 -0.7077  1.3012
 1630SOL    MW4 6288   0.448   1.787   1.489 -0.2155  0.0766 -0.2287
 1631SOL     OW 6289   0.434   2.612   1.692  0.3304 -0.2419  0.1138
 1631SOL    HW2 6290   0.394   2.574   1.613 -1.6548 -0.3085  1.0950
 1631SOL    HW3 6291   0.497   2.676   1.658 -0.1895 -0.5405 -1.5229
 1631SOL    MW4 6292   0.437   2.616   1.677  0.2387  0.8346  0.0857
 1632SOL     OW 6293   2.863   5.857   4.555  0.0337  0.0788 -0.2279
 1632SOL    HW2 6294   2.850   5.763   4.567  0.1003 -0.1005 -1.4817
 1632SOL    HW3 6295   2.827   5.896   4.635  2.1110 -1.1380  1.4230
 1632SOL    MW4 6296   2.857   5.850   4.567 -0.1035  0.0728  1.2765
 1633SOL     OW 6297   0.052   1.877   1.531 -0.3473  0.3305  0.4935
 1633SOL    HW2 6298   0.077   1.860   1.622 -1.4761  2.8258  1.3698
 1633SOL    HW3 6299  -0.043   1.864   1.530 -0.2346 -0.5799 -0.6067
 1633SOL    MW4 6300   0.043   1.873   1.543 -0.3944  0.3700 -0.2698
 1634SOL     OW 6301   4.145   2.204   3.937  0.2606  0.2825  0.5606
 1634SOL    HW2 6302   4.137   2.274   3.872 -1.6542 -0.4227 -0.0259
 1634SOL    HW3 6303   4.066   2.212   3.990  0.8093 -0.4471  1.5233
 1634SOL    MW4 6304   4.133   2.214   3.935  0.2283 -0.3012 -0.1067
 1635SOL     OW 6305   3.179   2.680   5.607  0.0887 -0.3820  0.4390
 1635SOL    HW2 6306   3.178   2.774   5.590  1.7161 -0.0675  1.8079
 1635SOL    HW3 6307   3.110   2.645   5.551 -1.5008  1.7748  0.8907
 1635SOL    MW4 6308   3.170   2.688   5.598  0.1235 -0.6722  0.0957
 1636SOL     OW 6309   5.737   4.822   5.216 -0.2102 -0.4555 -0.2441
 1636SOL    HW2 6310   5.724   4.895   5.276 -0.8138 -1.0603  0.3882
 1636SOL    HW3 6311   5.753   4.863   5.131  3.7392  0.5336  0.7704
 1636SOL    MW4 6312   5.737   4.837   5.213 -0.6285  0.2058  0.5284
 1637SOL     OW 6313   4.571   0.175   3.605 -0.5365 -0.1920 -0.2925
 1637SOL    HW2 6314   4.516   0.205   3.532  0.2781  0.4646 -0.6615
 1637SOL    HW3 6315   4.593   0.085   3.582 -2.5120 -0.9360  0.5220
 1637SOL    MW4 6316   4.567   0.167   3.592  0.1541  0.4320  0.1284
 1638SOL     OW 6317   5.233   6.416   4.703 -0.7551 -0.7116  0.2815
 1638SOL    HW2 6318   5.218   6.443   4.794 -0.8481 -0.5782  0.2271
 1638SOL    HW3 6319   5.307   6.468   4.674 -1.1130 -0.3040  0.0866
 1638SOL    MW4 6320   5.241   6.426   4.711 -0.2476 -0.4705  0.2358
 1639SOL     OW 6321   1.956   5.750   3.286  0.3353  0.1244  0.3913
 1639SOL    HW2 6322   1.900   5.676   3.265  0.8699 -0.5120  1.1442
 1639SOL    HW3 6323   1.945   5.811   3.213 -1.9815  0.3972  0.9096
 1639SOL    MW4 6324   1.947   5.749   3.274  0.0207  0.4195  0.3787
 1640SOL     OW 6325   6.231   4.178   0.526  0.2227 -1.0132  0.2647
 1640SOL    HW2 6326   6.302   4.186   0.590 -1.4833 -0.9717  2.2855
 1640SOL    HW3 6327   6.195   4.266   0.519  1.1118 -0.7746 -1.7017
 1640SOL    MW4 6328   6.235   4.190   0.534 -0.1427  0.4655 -0.0620
 1641SOL     OW 6329   5.092   5.179   5.654  0.0263  0.1143 -0.2755
 1641SOL    HW2 6330   5.058   5.168   5.565 -0.1812 -1.5965 -0.0284
 1641SOL    HW3 6331   5.134   5.095   5.674  1.4442  1.0043  0.6886
 1641SOL    MW4 6332   5.093   5.166   5.645  1.0048 -0.1429 -0.2693
 1642SOL     OW 6333   4.122   4.872   3.488  0.1266 -0.0945  0.0732
 1642SOL    HW2 6334   4.178   4.861   3.565  0.6386  1.4441 -0.0379
 1642SOL    HW3 6335   4.087   4.785   3.471  2.5217 -1.1406  0.1255
 1642SOL    MW4 6336   4.125   4.859   3.496 -0.1748 -0.2415 -0.4020
 1643SOL     OW 6337   3.766   0.371   2.888  0.4386 -0.0491 -0.3725
 1643SOL    HW2 6338   3.773   0.308   2.817  2.1351  1.0123 -1.2164
 1643SOL    HW3 6339   3.854   0.377   2.924  0.2020  1.4161  0.0494
 1643SOL    MW4 6340   3.778   0.364   2.883 -0.4866  0.1779 -0.2665
 1644SOL     OW 6341   5.517   0.391   1.304 -0.2835 -0.5994 -0.0458
 1644SOL    HW2 6342   5.446   0.382   1.368 -0.3141 -1.3060 -0.1662
 1644SOL    HW3 6343   5.520   0.306   1.260  0.2386 -0.3716 -0.4630
 1644SOL    MW4 6344   5.508   0.379   1.306 -0.1053  0.1403  0.1937
 1645SOL     OW 6345   2.713   0.946   1.015 -0.4869  0.2289 -0.1212
 1645SOL    HW2 6346   2.678   1.035   1.024  1.4074  1.0431 -0.4760
 1645SOL    HW3 6347   2.787   0.943   1.075 -0.3678 -1.0313 -0.3102
 1645SOL    MW4 6348   2.718   0.957   1.024  0.0691 -0.0529 -0.2487
 1646SOL     OW 6349   0.653   4.922   2.257 -0.8555 -0.1986 -0.0808
 1646SOL    HW2 6350   0.561   4.922   2.233 -0.8448 -0.7951 -0.1458
 1646SOL    HW3 6351   0.696   4.972   2.188 -1.3402  1.6259  0.8718
 1646SOL    MW4 6352   0.647   4.929   2.245 -0.1099  0.1217  0.4662
 1647SOL     OW 6353   5.154   5.639   4.656  0.1408 -0.0688  0.6062
 1647SOL    HW2 6354   5.098   5.586   4.599 -1.2947  0.9174  1.0365
 1647SOL    HW3 6355   5.098   5.711   4.684  1.7597  1.1822  0.7797
 1647SOL    MW4 6356   5.139   5.641   4.652  0.3324  0.1203  0.0094
 1648SOL     OW 6357   1.304   0.539   0.136  0.1341  0.5658  0.4983
 1648SOL    HW2 6358   1.386   0.571   0.100 -0.4648  1.3634 -0.1886
 1648SOL    HW3 6359   1.269   0.613   0.186 -0.3876  0.3877  0.4055
 1648SOL    MW4 6360   1.310   0.553   0.138 -0.0241 -0.1496  1.0632
 1649SOL     OW 6361   2.881   3.781   0.151 -0.1923  0.0135  0.2961
 1649SOL    HW2 6362   2.942   3.732   0.207  0.6066  0.5760 -0.0532
 1649SOL    HW3 6363   2.933   3.801   0.073 -0.9009  0.3365 -0.0941
 1649SOL    MW4 6364   2.896   3.777   0.148  0.3930 -0.2873 -0.2976
 1650SOL     OW 6365   5.100   4.351   4.125 -0.7294  0.2091  0.1639
 1650SOL    HW2 6366   5.061   4.342   4.038 -2.2256  1.3845  0.6830
 1650SOL    HW3 6367   5.069   4.435   4.157  0.8910  0.4212  1.3221
 1650SOL    MW4 6368   5.091   4.361   4.117 -0.0593  0.0239 -0.5291
 1651SOL     OW 6369   5.051   3.771   3.168  0.7531 -0.0586  0.2395
 1651SOL    HW2 6370   5.073   3.721   3.247 -1.8589  0.2225  1.2437
 1651SOL    HW3 6371   5.136   3.802   3.135  2.0341 -1.1879  2.2451
 1651SOL    MW4 6372   5.065   3.769   3.174 -0.6120 -0.0797 -0.1763
 1652SOL     OW 6373   5.443   5.403   2.094 -0.0653 -0.4892  0.1926
 1652SOL    HW2 6374   5.505   5.407   2.167  1.3874  1.8098 -1.0721
 1652SOL    HW3 6375   5.466   5.322   2.049 -0.8868 -1.8753  2.1146
 1652SOL    MW4 6376   5.454   5.393   2.098 -0.1518 -0.3001  0.5045
 1653SOL     OW 6377   5.715   0.603   2.168  0.7400  0.3986  0.3583
 1653SOL    HW2 6378   5.648   0.572   2.107  0.7694 -1.7093  1.2824
 1653SOL    HW3 6379   5.758   0.674   2.123  0.1530 -0.4681 -1.6925
 1653SOL    MW4 6380   5.712   0.608   2.154  0.0631 -0.1898 -0.4927
 1654SOL     OW 6381   4.407   2.151   2.013 -0.1195 -0.5069  0.8289
 1654SOL    HW2 6382   4.484   2.166   2.067  0.5150 -0.2887 -0.0985
 1654SOL    HW3 6383   4.336   2.133   2.075  0.4305  0.3843  1.7427
 1654SOL    MW4 6384   4.407   2.151   2.028  0.6243  0.0911  0.0642
 1655SOL     OW 6385   3.591   5.650   3.904  0.5375 -0.2836  0.2354
 1655SOL    HW2 6386   3.500   5.625   3.921  0.3819 -0.4007 -0.7164
 1655SOL    HW3 6387   3.639   5.567   3.904  0.8961 -0.1207  2.0460
 1655SOL    MW4 6388   3.585   5.635   3.906 -0.3262  0.7868  0.3231
 1656SOL     OW 6389   1.767   1.308   4.309  0.7646 -0.2166 -0.5675
 1656SOL    HW2 6390   1.776   1.401   4.325 -0.8678  0.0173 -0.8221
 1656SOL    HW3 6391   1.789   1.297   4.216  2.7182 -0.3967 -0.1251
 1656SOL    MW4 6392   1.771   1.318   4.299 -0.5161 -0.6326  0.3152
 1657SOL     OW 6393   2.433   0.391   5.205 -0.0127  0.6365  0.0440
 1657SOL    HW2 6394   2.457   0.469   5.155  0.9264 -1.0703 -2.3493
 1657SOL    HW3 6395   2.469   0.407   5.292  0.3666  2.7636 -0.4369
 1657SOL    MW4 6396   2.441   0.404   5.210  0.3451  0.5914  0.4545
 1658SOL     OW 6397   4.608   2.666   6.057  1.1790 -0.0880  1.1001
 1658SOL    HW2 6398   4.611   2.571   6.044  0.7966 -0.2470  2.1028
 1658SOL    HW3 6399   4.657   2.702   5.983 -1.3048 -0.9151 -1.1040
 1658SOL    MW4 6400   4.615   2.658   6.045 -0.3777  0.1850 -0.1508
 1659SOL     OW 6401   4.957   5.619   4.252 -0.0967  0.0313  0.4123
 1659SOL    HW2 6402   4.873   5.638   4.293 -1.0629 -0.6043 -1.1724
 1659SOL    HW3 6403   5.003   5.565   4.316 -0.8265  0.5014  1.3670
 1659SOL    MW4 6404   4.952   5.615   4.266 -0.0605 -0.7037  0.6626
 1660SOL     OW 6405   0.212   4.590   0.640  0.8923 -0.8535  0.2635
 1660SOL    HW2 6406   0.160   4.510   0.652  0.4717 -0.3622  1.9828
 1660SOL    HW3 6407   0.283   4.583   0.704 -0.3327  1.0489  1.9680
 1660SOL    MW4 6408   0.214   4.579   0.650 -0.3613  0.1989  0.1806
 1661SOL     OW 6409   0.446   1.001   3.165 -0.8727  0.4312 -0.7131
 1661SOL    HW2 6410   0.370   1.034   3.116 -1.5052 -1.7081 -1.2856
 1661SOL    HW3 6411   0.519   1.012   3.104 -1.4888 -1.3036 -1.8540
 1661SOL    MW4 6412   0.445   1.007   3.150 -0.1955  0.1788  0.6965
 1662SOL     OW 6413   5.617   5.160   2.982 -0.5764  0.2582  0.0753
 1662SOL    HW2 6414   5.674   5.088   2.955 -1.0401  0.0185 -0.2840
 1662SOL    HW3 6415   5.642   5.233   2.924 -1.0527 -0.0299 -0.4942
 1662SOL    MW4 6416   5.628   5.160   2.971 -0.2670  0.0284 -0.1958
 1663SOL     OW 6417   1.926   5.991   2.071  0.0425 -0.2706  0.3710
 1663SOL    HW2 6418   2.006   5.960   2.114 -0.4592  0.9553  2.3293
 1663SOL    HW3 6419   1.871   6.023   2.143 -0.4836  2.8101 -1.2314
 1663SOL    MW4 6420   1.929   5.991   2.086  0.3178  0.3850  0.4068
 1664SOL     OW 6421   4.022   5.489   1.383  0.3342 -0.3378  0.5589
 1664SOL    HW2 6422   3.941   5.534   1.407  0.2509 -0.0224 -0.2990
 1664SOL    HW3 6423   4.009   5.462   1.292  0.4792 -1.8844  0.9627
 1664SOL    MW4 6424   4.010   5.491   1.374 -0.3183 -0.3251  0.0968
 1665SOL     OW 6425   3.377   2.747   4.754  1.3924 -0.0630  0.1599
 1665SOL    HW2 6426   3.354   2.808   4.824 -1.2287  1.0671 -1.5207
 1665SOL    HW3 6427   3.421   2.800   4.689  1.0241 -0.4230 -0.3904
 1665SOL    MW4 6428   3.380   2.762   4.755 -0.1046 -0.1991 -0.1960
 1666SOL     OW 6429   1.517   3.598   1.304 -0.2537 -0.6194  0.2182
 1666SOL    HW2 6430   1.491   3.638   1.388 -0.9078  1.0839 -0.7334
 1666SOL    HW3 6431   1.443   3.616   1.246  1.9967  2.5270 -2.0329
 1666SOL    MW4 6432   1.503   3.606   1.308  0.3448  0.1745  0.5177
 1667SOL     OW 6433   2.991   2.062   2.681  0.3059  0.4258 -1.1007
 1667SOL    HW2 6434   3.086   2.064   2.691  0.2764  0.4372 -0.8311
 1667SOL    HW3 6435   2.976   1.990   2.620  0.2732 -1.8396  1.4054
 1667SOL    MW4 6436   3.002   2.053   2.674  0.1954  0.0846 -0.1108
 1668SOL     OW 6437   1.897   1.191   4.840  0.4996 -0.0069 -0.1258
 1668SOL    HW2 6438   1.957   1.183   4.914  0.2854 -0.2221  0.0259
 1668SOL    HW3 6439   1.810   1.190   4.880  0.3834 -0.1577 -0.3826
 1668SOL    MW4 6440   1.894   1.190   4.855 -0.0947 -0.0825 -0.3541
 1669SOL     OW 6441   1.969   0.674   3.295  0.6122 -0.3343  0.2781
 1669SOL    HW2 6442   1.893   0.668   3.353 -0.3035  0.6951 -0.7749
 1669SOL    HW3 6443   2.030   0.730   3.342  0.3355 -0.3947  0.7166
 1669SOL    MW4 6444   1.967   0.680   3.309 -0.2957  0.1878 -0.1465
 1670SOL     OW 6445   5.988   0.707   3.314  0.2216  0.0793  0.2499
 1670SOL    HW2 6446   5.970   0.643   3.245  0.1396  0.5623 -0.1801
 1670SOL    HW3 6447   6.050   0.662   3.371 -0.1100 -0.5199  0.1547
 1670SOL    MW4 6448   5.994   0.692   3.312 -0.0905  0.6616 -0.1570
 1671SOL     OW 6449   0.820   2.612   1.578  0.3986 -0.6182 -0.2678
 1671SOL    HW2 6450   0.828   2.551   1.652  0.6986 -0.3371 -0.0609
 1671SOL    HW3 6451   0.783   2.560   1.507  0.2038 -0.9183  0.0528
 1671SOL    MW4 6452   0.816   2.597   1.578  0.2214 -0.2884  0.0014
 1672SOL     OW 6453   3.429   2.910   5.834 -0.2899 -0.2672 -0.3767
 1672SOL    HW2 6454   3.497   2.965   5.874  0.2229 -1.3940  0.3566
 1672SOL    HW3 6455   3.458   2.898   5.744 -0.8658  1.3636 -0.8154
 1672SOL    MW4 6456   3.442   2.916   5.828 -0.2522 -0.7665 -0.0203
 1673SOL     OW 6457   3.056   3.813   2.274  0.0925 -0.3596 -0.0022
 1673SOL    HW2 6458   3.085   3.901   2.298 -2.0863  0.5269 -0.3937
 1673SOL    HW3 6459   3.062   3.763   2.356 -0.5585  0.7107  0.7262
 1673SOL    MW4 6460   3.061   3.818   2.288 -0.3279 -0.2242  1.0152
 1674SOL     OW 6461   5.790   2.496   2.686  0.0122 -0.3932  0.1076
 1674SOL    HW2 6462   5.770   2.561   2.753 -1.6048 -0.8016  0.0797
 1674SOL    HW3 6463   5.827   2.422   2.734  0.7447  0.0909  0.2906
 1674SOL    MW4 6464   5.792   2.495   2.701  0.1131 -0.2589 -0.4928
 1675SOL     OW 6465   0.368   5.893   0.066 -0.3987 -0.0464  0.0668
 1675SOL    HW2 6466   0.367   5.916  -0.027  0.1855 -0.0974  0.0435
 1675SOL    HW3 6467   0.355   5.977   0.111  2.2328  0.4861 -0.0049
 1675SOL    MW4 6468   0.366   5.907   0.059 -0.3538 -0.0369  0.6101
 1676SOL     OW 6469   3.929   5.120   4.308  0.3061  0.6122 -0.0518
 1676SOL    HW2 6470   3.846   5.099   4.265  0.6935  1.1209 -1.0796
 1676SOL    HW3 6471   3.904   5.161   4.390 -0.4543  0.2313 -0.0800
 1676SOL    MW4 6472   3.915   5.122   4.313 -0.2739  0.8392 -0.3344
 1677SOL     OW 6473   5.738   4.031   4.591  0.2528  0.0433  0.0931
 1677SOL    HW2 6474   5.778   4.112   4.560 -1.7516  1.0253 -0.0656
 1677SOL    HW3 6475   5.794   4.003   4.663  1.4393  1.1217 -0.3697
 1677SOL    MW4 6476   5.751   4.038   4.597  0.2764 -0.2745  0.1069
 1678SOL     OW 6477   0.066   1.552   2.679 -0.0986 -0.3779 -0.4700
 1678SOL    HW2 6478   0.080   1.478   2.738  1.2039  1.1845  1.3348
 1678SOL    HW3 6479  -0.023   1.540   2.646 -0.1710 -2.3553  0.3112
 1678SOL    MW4 6480   0.056   1.541   2.682  0.1644  0.1775  0.3412
 1679SOL     OW 6481   3.523   6.317   1.493  0.6360  0.0309  0.2131
 1679SOL    HW2 6482   3.550   6.260   1.421  1.8313  1.1185 -0.2512
 1679SOL    HW3 6483   3.511   6.259   1.568  2.4316 -0.7763 -0.0781
 1679SOL    MW4 6484   3.525   6.302   1.493  0.3494 -0.7243 -0.0633
 1680SOL     OW 6485   5.900   2.134   0.752  0.2275  0.1240  0.3306
 1680SOL    HW2 6486   5.968   2.192   0.720  0.1734 -0.1643 -0.3137
 1680SOL    HW3 6487   5.820   2.188   0.750 -0.0141 -0.2457 -1.2118
 1680SOL    MW4 6488   5.898   2.149   0.748  0.1912 -0.3350 -0.3732
 1681SOL     OW 6489   3.729   0.300   4.941 -0.0119 -0.3112 -0.3155
 1681SOL    HW2 6490   3.687   0.216   4.958  0.9396 -0.8180 -0.4032
 1681SOL    HW3 6491   3.797   0.306   5.009 -1.5630  1.4741  1.1928
 1681SOL    MW4 6492   3.732   0.290   4.952 -0.5977  0.5378 -0.3920
 1682SOL     OW 6493   2.502   6.266   5.825 -0.1474  0.5920  0.3587
 1682SOL    HW2 6494   2.478   6.279   5.916  1.0068  3.6354  0.3439
 1682SOL    HW3 6495   2.595   6.242   5.828  0.2375  1.9630 -0.0216
 1682SOL    MW4 6496   2.511   6.265   5.837 -0.3994 -0.4624  0.1616
 1683SOL     OW 6497   4.717   4.981   5.018 -0.1481 -0.2076 -0.3710
 1683SOL    HW2 6498   4.759   4.933   4.947  0.0436  1.6688 -1.5910
 1683SOL    HW3 6499   4.721   5.073   4.991 -0.4134  0.5436  1.8986
 1683SOL    MW4 6500   4.723   4.987   5.005 -0.3867 -0.1341 -0.1279
 1684SOL     OW 6501   3.167   2.763   1.980  0.5557  0.1140  0.3410
 1684SOL    HW2 6502   3.091   2.763   2.039  1.1449 -0.3021  1.1100
 1684SOL    HW3 6503   3.129   2.749   1.893 -0.6572  3.7782  0.1163
 1684SOL    MW4 6504   3.152   2.761   1.976 -0.9760 -0.2875 -0.0693
 1685SOL     OW 6505   0.354   5.110   0.213 -0.1274  0.8076  0.2600
 1685SOL    HW2 6506   0.435   5.132   0.259 -0.6820  1.9634  0.7116
 1685SOL    HW3 6507   0.315   5.194   0.191 -0.8676  0.2631 -0.5727
 1685SOL    MW4 6508   0.360   5.124   0.216  0.7089 -0.2086 -0.2451
 1686SOL     OW 6509   1.266   1.749   5.265 -0.5307 -0.5636 -0.5409
 1686SOL    HW2 6510   1.348   1.703   5.285  0.9025  2.3052  0.8304
 1686SOL    HW3 6511   1.208   1.727   5.337  0.2667 -0.0378  0.2908
 1686SOL    MW4 6512   1.269   1.740   5.277 -0.0559 -0.0061  0.2095
 1687SOL     OW 6513   1.106   2.572   4.342  0.1202 -0.2550  0.1264
 1687SOL    HW2 6514   1.056   2.494   4.366 -0.7772 -0.0348 -0.9594
 1687SOL    HW3 6515   1.070   2.641   4.397 -0.3242 -0.2396 -0.1766
 1687SOL    MW4 6516   1.095   2.571   4.352 -0.6512 -0.7177  0.2601
 1688SOL     OW 6517   2.902   5.113   3.679 -0.1759  0.1727 -0.0391
 1688SOL    HW2 6518   2.961   5.106   3.755 -0.2144 -1.6962 -0.1274
 1688SOL    HW3 6519   2.957   5.150   3.610  0.2718  0.5175  0.4843
 1688SOL    MW4 6520   2.917   5.117   3.680  0.3259  0.2210 -0.4807
 1689SOL     OW 6521   4.451   4.054   3.392 -0.0704 -0.2981  0.0249
 1689SOL    HW2 6522   4.429   3.962   3.377  0.6489 -0.2285 -1.6035
 1689SOL    HW3 6523   4.441   4.065   3.487 -3.5137 -1.1534 -0.0924
 1689SOL    MW4 6524   4.447   4.043   3.403  0.1165 -0.9585  0.9578
 1690SOL     OW 6525   6.040   2.679   0.565 -0.4471 -0.2963  0.4753
 1690SOL    HW2 6526   6.134   2.661   0.562 -0.6409 -1.4947  0.9037
 1690SOL    HW3 6527   6.007   2.622   0.635 -1.1630  1.6863  1.8329
 1690SOL    MW4 6528   6.048   2.669   0.574  0.8974  0.3430 -0.8906
 1691SOL     OW 6529   3.260   0.119   4.428 -0.0591  0.6324  0.0702
 1691SOL    HW2 6530   3.305   0.193   4.387 -2.9110  2.2093 -0.4173
 1691SOL    HW3 6531   3.181   0.156   4.467 -1.1367 -2.0181  0.6573
 1691SOL    MW4 6532   3.256   0.133   4.428  0.4179  0.2994  0.1125
 1692SOL     OW 6533   4.520   1.933   6.119 -0.4668  0.0051 -0.3231
 1692SOL    HW2 6534   4.444   1.949   6.063  1.2462  1.1541 -2.5039
 1692SOL    HW3 6535   4.494   1.965   6.205 -3.4917 -2.5163 -0.1414
 1692SOL    MW4 6536   4.506   1.939   6.123 -0.1017  0.3621 -0.0454
 1693SOL     OW 6537   3.928   0.054   3.725 -0.2366  0.3710 -0.7731
 1693SOL    HW2 6538   3.894   0.042   3.636  0.7230  0.1803 -1.1231
 1693SOL    HW3 6539   3.943  -0.035   3.756 -1.1380  0.4152 -0.1865
 1693SOL    MW4 6540   3.926   0.040   3.717 -0.1043 -0.1248  0.0296
 1694SOL     OW 6541   3.396   1.462   1.806 -0.4943 -0.2918 -0.6270
 1694SOL    HW2 6542   3.307   1.438   1.782 -0.9589 -0.9354  1.5224
 1694SOL    HW3 6543   3.420   1.400   1.875  0.6152  1.5315  0.7032
 1694SOL    MW4 6544   3.388   1.450   1.812  0.6758 -0.4722  0.3355
 1695SOL     OW 6545   5.701   4.921   1.754 -0.0320 -0.0397 -0.1253
 1695SOL    HW2 6546   5.742   5.003   1.783  0.9957 -0.1233 -1.2695
 1695SOL    HW3 6547   5.707   4.924   1.658 -2.4858 -0.1897 -0.3287
 1695SOL    MW4 6548   5.707   4.933   1.745  0.0726  0.8209 -1.2018
 1696SOL     OW 6549   3.951   0.282   4.430  0.4184  0.2329  0.1644
 1696SOL    HW2 6550   3.901   0.291   4.512  0.0157  2.8923 -0.2816
 1696SOL    HW3 6551   3.941   0.190   4.406 -2.0682  0.0620  1.5012
 1696SOL    MW4 6552   3.943   0.271   4.438 -0.7268 -0.1189  0.4013
 1697SOL     OW 6553   6.079   2.528   4.958  0.4266  0.1153  0.6112
 1697SOL    HW2 6554   6.036   2.574   5.031  0.1759 -0.4647  0.8373
 1697SOL    HW3 6555   6.109   2.598   4.900 -0.2465  0.5587  0.7804
 1697SOL    MW4 6556   6.077   2.543   4.960 -0.3077  0.2416  0.1554
 1698SOL     OW 6557   3.944   5.831   5.955 -0.0807  0.9152 -0.0092
 1698SOL    HW2 6558   3.932   5.770   6.028 -0.4970  0.2528 -0.6259
 1698SOL    HW3 6559   4.038   5.847   5.953  0.1159 -0.1774 -0.2071
 1698SOL    MW4 6560   3.955   5.825   5.965  0.2990 -0.4209 -0.8982
 1699SOL     OW 6561   6.396   5.388   6.017 -0.8717 -0.5591  0.3143
 1699SOL    HW2 6562   6.359   5.348   5.938  0.8326  0.3255 -0.9892
 1699SOL    HW3 6563   6.484   5.414   5.992 -0.4267  0.1449  2.4053
 1699SOL    MW4 6564   6.402   5.386   6.003 -0.1884 -0.6446 -0.3485
 1700SOL     OW 6565   5.302   3.328   5.268 -0.5271 -0.0276  0.2955
 1700SOL    HW2 6566   5.255   3.360   5.191 -0.6060  0.6730  0.6294
 1700SOL    HW3 6567   5.257   3.246   5.291 -1.9391  0.8746  0.9134
 1700SOL    MW4 6568   5.290   3.321   5.261 -0.3729  0.2379 -0.1235
 1701SOL     OW 6569   4.458   3.770   0.282  0.3233  0.0652 -0.7848
 1701SOL    HW2 6570   4.503   3.853   0.298 -0.7611  0.5705 -0.2155
 1701SOL    HW3 6571   4.480   3.747   0.192 -0.6694  1.8339 -1.5316
 1701SOL    MW4 6572   4.467   3.778   0.272 -0.0934  0.1311  0.1249
 1702SOL     OW 6573   1.303   5.942   1.826 -0.3141  0.2253  0.7086
 1702SOL    HW2 6574   1.356   5.943   1.906  0.0306 -0.5035  0.4937
 1702SOL    HW3 6575   1.364   5.963   1.756 -0.5274  0.4163  0.5763
 1702SOL    MW4 6576   1.318   5.945   1.827  0.5784  0.0777  0.4077
 1703SOL     OW 6577   2.416   1.546   6.125  0.3235 -0.6655  0.1685
 1703SOL    HW2 6578   2.358   1.471   6.136 -1.8935  0.6937 -1.4690
 1703SOL    HW3 6579   2.460   1.529   6.041  0.4192 -0.5170  0.1887
 1703SOL    MW4 6580   2.415   1.534   6.115  0.7741 -0.0917  0.1144
 1704SOL     OW 6581   3.487   4.120   5.740  0.3866 -0.6207 -0.3396
 1704SOL    HW2 6582   3.394   4.117   5.762  0.2975  0.8257 -0.4405
 1704SOL    HW3 6583   3.505   4.213   5.724  2.7637 -0.1291  3.7409
 1704SOL    MW4 6584   3.477   4.132   5.741 -0.3663  0.0806 -0.2474
 1705SOL     OW 6585   2.687   5.991   3.082 -0.4131 -0.2617 -0.6820
 1705SOL    HW2 6586   2.745   6.065   3.096  1.3558 -1.5898 -0.5883
 1705SOL    HW3 6587   2.645   6.008   2.998 -0.1681  0.9004 -0.5844
 1705SOL    MW4 6588   2.689   6.003   3.073  0.5336  0.2440 -0.0414
 1706SOL     OW 6589   2.083   0.877   2.637  0.4209 -0.0010 -0.7227
 1706SOL    HW2 6590   2.022   0.916   2.574  0.5365 -0.2428 -0.9862
 1706SOL    HW3 6591   2.163   0.928   2.626  1.5603 -2.0708 -3.1498
 1706SOL    MW4 6592   2.085   0.889   2.627  0.3103  0.6273 -0.7597
 1707SOL     OW 6593   5.945   4.625   3.812  0.1664  0.3109  0.2006
 1707SOL    HW2 6594   6.016   4.613   3.749 -0.4821 -1.4361 -0.2389
 1707SOL    HW3 6595   5.897   4.701   3.779  2.5983  2.5229  1.3134
 1707SOL    MW4 6596   5.948   4.634   3.799 -0.0563 -1.0742  0.4336
 1708SOL     OW 6597   4.660   3.643   5.184  0.0647 -0.1232  0.3849
 1708SOL    HW2 6598   4.631   3.560   5.147 -2.1588  0.5850  0.4022
 1708SOL    HW3 6599   4.631   3.641   5.275 -0.2573  0.7839  0.3095
 1708SOL    MW4 6600   4.653   3.632   5.191 -0.5226  0.2867  0.3753
 1709SOL     OW 6601   5.387   2.196   0.009 -0.0063  0.4529  0.0082
 1709SOL    HW2 6602   5.398   2.165   0.099 -0.4367 -1.3544 -0.5101
 1709SOL    HW3 6603   5.429   2.282   0.008  1.1066 -0.0133  1.6106
 1709SOL    MW4 6604   5.394   2.203   0.021 -0.3397 -0.2750  0.0714
 1710SOL     OW 6605   2.190   1.566   4.996 -0.0952 -0.1387 -0.3072
 1710SOL    HW2 6606   2.187   1.477   4.960 -0.6095  0.0063 -0.6363
 1710SOL    HW3 6607   2.193   1.622   4.918 -0.4038  0.1493 -0.1134
 1710SOL    MW4 6608   2.190   1.561   4.981 -0.1747 -0.4505 -0.6251
 1711SOL     OW 6609   2.214   0.972   0.026 -0.1680 -0.3509  0.5028
 1711SOL    HW2 6610   2.270   1.002  -0.045  0.5362  0.0768  1.2262
 1711SOL    HW3 6611   2.248   0.886   0.049 -0.2922 -0.4177  0.4403
 1711SOL    MW4 6612   2.226   0.965   0.020 -0.3342 -0.0383  0.7107
 1712SOL     OW 6613   2.961   3.720   5.325 -0.1524 -0.3601  0.2828
 1712SOL    HW2 6614   2.993   3.658   5.391  3.3453 -0.1606 -1.0370
 1712SOL    HW3 6615   2.933   3.665   5.252  0.5442 -0.4586  0.0881
 1712SOL    MW4 6616   2.961   3.705   5.324  0.2408 -0.2340  0.1018
 1713SOL     OW 6617   5.412   2.678   1.982  0.4097  0.1714 -0.0210
 1713SOL    HW2 6618   5.433   2.762   2.024 -0.5762 -0.7783  2.5860
 1713SOL    HW3 6619   5.472   2.616   2.023 -0.9440 -0.9011  0.3846
 1713SOL    MW4 6620   5.423   2.681   1.993  0.0605 -0.2493  0.2900
 1714SOL     OW 6621   5.995   4.436   5.559  0.2332 -0.3615  0.5442
 1714SOL    HW2 6622   6.006   4.341   5.567 -0.1867 -0.2799  2.3851
 1714SOL    HW3 6623   5.991   4.451   5.464  3.3574 -1.7981  0.0450
 1714SOL    MW4 6624   5.996   4.425   5.547  0.1508 -0.1311  0.5564
 1715SOL     OW 6625   0.010   6.318   0.484  0.3491  0.0143  0.4886
 1715SOL    HW2 6626  -0.017   6.323   0.576 -1.5063 -0.3961  0.0104
 1715SOL    HW3 6627   0.090   6.266   0.485  0.1371 -0.3211  1.8438
 1715SOL    MW4 6628   0.017   6.312   0.496  0.0847  0.5541 -0.3307
 1716SOL     OW 6629   2.469   4.116   5.618  0.2059  0.0119 -0.5102
 1716SOL    HW2 6630   2.531   4.121   5.546  2.3505  1.0032  1.2841
 1716SOL    HW3 6631   2.492   4.035   5.664 -0.1575  0.1273 -0.1122
 1716SOL    MW4 6632   2.480   4.106   5.615  0.5385  0.6075 -0.3801
 1717SOL     OW 6633   2.603   2.248   1.426  0.2868  0.4606 -0.5422
 1717SOL    HW2 6634   2.533   2.294   1.472  0.0252  1.0083 -1.4594
 1717SOL    HW3 6635   2.625   2.305   1.352  1.8055  0.3634 -0.1961
 1717SOL    MW4 6636   2.596   2.262   1.422 -0.3948 -0.0216 -0.1953
 1718SOL     OW 6637   3.660   4.339   1.748  0.2327  0.6333 -0.1799
 1718SOL    HW2 6638   3.646   4.307   1.837  1.0882  0.3644 -0.1292
 1718SOL    HW3 6639   3.646   4.433   1.753 -0.0386  0.5769  0.1684
 1718SOL    MW4 6640   3.656   4.347   1.760 -0.2079 -0.3517  0.4523
 1719SOL     OW 6641   5.964   1.963   3.493  0.0837  0.2436  0.9785
 1719SOL    HW2 6642   5.975   1.990   3.401 -1.6728  0.3647  0.7734
 1719SOL    HW3 6643   5.996   1.872   3.494  2.6011  1.0434  0.8785
 1719SOL    MW4 6644   5.970   1.954   3.481  0.4799  0.5258  0.0293
 1720SOL     OW 6645   5.324   3.530   2.993 -0.1894 -0.6290 -0.2099
 1720SOL    HW2 6646   5.251   3.493   2.944 -2.8702  1.1358  2.1303
 1720SOL    HW3 6647   5.307   3.624   2.995  2.0002 -0.1785  0.7360
 1720SOL    MW4 6648   5.312   3.538   2.987 -0.2808  0.1010 -0.2158
 1721SOL     OW 6649   6.106   2.848   5.852 -0.1539 -0.5861  0.0430
 1721SOL    HW2 6650   6.190   2.812   5.881  0.7968 -0.2051 -2.0568
 1721SOL    HW3 6651   6.125   2.938   5.828 -1.3467 -0.2773  0.1751
 1721SOL    MW4 6652   6.120   2.855   5.853  0.0954  0.8464  0.1378
 1722SOL     OW 6653   2.700   4.552   4.996  0.2161 -0.6436  0.0851
 1722SOL    HW2 6654   2.790   4.555   4.962 -0.2083 -0.1054 -1.0465
 1722SOL    HW3 6655   2.689   4.463   5.029  1.2186 -0.6615  0.4037
 1722SOL    MW4 6656   2.711   4.541   4.996  0.4157  0.2760 -0.2782
 1723SOL     OW 6657   3.720   4.774   3.395 -0.2627 -0.5295 -0.6674
 1723SOL    HW2 6658   3.762   4.722   3.327  2.2358  0.8033 -0.2762
 1723SOL    HW3 6659   3.698   4.711   3.464  0.4043 -1.4046 -1.2293
 1723SOL    MW4 6660   3.722   4.759   3.395  0.3084 -0.5126  0.4969
 1724SOL     OW 6661   4.412   4.277   0.562  0.2016  0.1685 -0.0281
 1724SOL    HW2 6662   4.324   4.313   0.554  1.0687  1.9484 -3.0421
 1724SOL    HW3 6663   4.413   4.201   0.504  0.6140  0.0699  0.1034
 1724SOL    MW4 6664   4.400   4.272   0.553 -0.4550 -0.1067  0.3059
 1725SOL     OW 6665   0.473   2.088   3.624  0.1551  0.1066 -0.4988
 1725SOL    HW2 6666   0.526   2.010   3.640 -0.2050 -0.0319  0.0573
 1725SOL    HW3 6667   0.400   2.081   3.686  0.6928  1.4364  0.3378
 1725SOL    MW4 6668   0.470   2.077   3.634  0.1215  1.1083  0.3763
 1726SOL     OW 6669   4.141   5.065   5.576 -0.0182 -0.5188 -0.0294
 1726SOL    HW2 6670   4.083   5.116   5.521  1.4835  0.6998 -0.5484
 1726SOL    HW3 6671   4.102   5.069   5.663  0.3438  2.0983  0.0965
 1726SOL    MW4 6672   4.128   5.072   5.580  0.0615  0.2069 -0.0623
 1727SOL     OW 6673   3.972   5.806   5.161 -0.1995 -0.8303  0.6381
 1727SOL    HW2 6674   4.042   5.847   5.111 -0.7511  0.1834  0.6565
 1727SOL    HW3 6675   3.932   5.744   5.100  0.6408 -1.3592  0.6042
 1727SOL    MW4 6676   3.976   5.803   5.146  0.0233 -0.5757 -0.2834
 1728SOL     OW 6677   4.046   0.817   3.151 -0.0159 -0.2234  0.1776
 1728SOL    HW2 6678   3.961   0.810   3.106  0.1912 -0.6708 -0.1574
 1728SOL    HW3 6679   4.024   0.823   3.244 -0.4194 -0.2607  0.0870
 1728SOL    MW4 6680   4.032   0.817   3.157  0.2078 -0.6979 -0.0764
 1729SOL     OW 6681   4.545   1.532   5.149 -0.4480 -0.1992 -0.2426
 1729SOL    HW2 6682   4.453   1.544   5.128 -0.6330 -0.7943  0.2104
 1729SOL    HW3 6683   4.548   1.522   5.244 -0.0926 -1.5865 -0.3702
 1729SOL    MW4 6684   4.533   1.532   5.159 -0.0217 -0.3871 -0.3432
 1730SOL     OW 6685   1.237   3.629   1.200  0.2634  0.2544  0.0319
 1730SOL    HW2 6686   1.187   3.616   1.281  1.6164 -1.2122  0.6950
 1730SOL    HW3 6687   1.218   3.551   1.147  1.7489 -0.3068  0.2789
 1730SOL    MW4 6688   1.228   3.617   1.204 -0.1792  0.0160  0.6136
 1731SOL     OW 6689   5.241   5.247   3.627  0.2359 -0.1824 -0.1980
 1731SOL    HW2 6690   5.233   5.212   3.539  0.0065 -1.4021  0.2820
 1731SOL    HW3 6691   5.296   5.183   3.674  2.6353  1.7887 -0.1362
 1731SOL    MW4 6692   5.247   5.234   3.622 -0.0714 -0.6343  0.0868
 1732SOL     OW 6693   3.628   6.237   0.259 -0.5317 -0.4859 -0.0853
 1732SOL    HW2 6694   3.562   6.171   0.278 -0.4076 -0.2582  1.2467
 1732SOL    HW3 6695   3.577   6.317   0.245 -0.5413  0.1632  2.9645
 1732SOL    MW4 6696   3.612   6.239   0.260 -0.0472  0.6055 -0.9091
 1733SOL     OW 6697   1.260   0.428   3.287  0.0200  0.5611 -0.0774
 1733SOL    HW2 6698   1.299   0.347   3.320  0.2596  0.3076 -0.9596
 1733SOL    HW3 6699   1.263   0.419   3.192 -0.7065  1.2523 -0.1733
 1733SOL    MW4 6700   1.266   0.416   3.279 -0.3374 -0.2604 -0.5565
 1734SOL     OW 6701   1.528   0.621   2.769 -0.6499  0.3202 -0.0925
 1734SOL    HW2 6702   1.503   0.622   2.861  0.5884 -1.0601  0.2899
 1734SOL    HW3 6703   1.448   0.648   2.722 -1.2451  1.1996  1.3603
 1734SOL    MW4 6704   1.514   0.625   2.775 -0.2604  0.8770  0.0508
 1735SOL     OW 6705   2.796   6.237   3.351 -0.0196  0.1051  0.0644
 1735SOL    HW2 6706   2.886   6.268   3.362  0.1069 -0.2204 -0.0548
 1735SOL    HW3 6707   2.801   6.143   3.366 -0.3338  0.0788  0.0095
 1735SOL    MW4 6708   2.809   6.229   3.355 -0.0469 -0.2143  0.2300
 1736SOL     OW 6709   1.797   1.830   3.989  0.2665 -0.0843 -0.6811
 1736SOL    HW2 6710   1.709   1.795   3.976  0.2809 -0.5956  0.4901
 1736SOL    HW3 6711   1.839   1.769   4.049  1.0049  0.8141 -0.2495
 1736SOL    MW4 6712   1.791   1.818   3.996  0.4125  0.4830 -0.6540
 1737SOL     OW 6713   6.151   5.745   5.793 -0.1839  0.3580 -0.3376
 1737SOL    HW2 6714   6.100   5.664   5.790  0.6222 -0.1325 -1.1079
 1737SOL    HW3 6715   6.153   5.776   5.702  0.8567  0.3884 -0.3181
 1737SOL    MW4 6716   6.144   5.739   5.780  0.2278 -0.1642 -0.8292
 1738SOL     OW 6717   4.596   2.532   5.744  0.2757 -0.2339 -0.4285
 1738SOL    HW2 6718   4.515   2.574   5.772 -1.1913 -0.6165 -3.6626
 1738SOL    HW3 6719   4.627   2.486   5.823 -1.1138  2.1257  1.6402
 1738SOL    MW4 6720   4.589   2.531   5.758 -0.0315  0.8439 -0.2006
 1739SOL     OW 6721   3.790   5.194   5.652 -0.2980  0.4354 -0.3702
 1739SOL    HW2 6722   3.851   5.180   5.725 -0.6537  0.9571  0.0255
 1739SOL    HW3 6723   3.847   5.204   5.575  0.1203  1.0165  0.0105
 1739SOL    MW4 6724   3.806   5.193   5.651  0.4415 -0.4482  0.2432
 1740SOL     OW 6725   1.348   2.433   0.974 -0.0715 -0.1549  0.3078
 1740SOL    HW2 6726   1.376   2.489   1.046 -0.9136  0.7539 -0.0537
 1740SOL    HW3 6727   1.289   2.488   0.923  0.1060 -0.9572 -0.7845
 1740SOL    MW4 6728   1.344   2.448   0.977  0.3097 -0.7039  0.1163
 1741SOL     OW 6729   2.460   4.880   3.899  0.4535  0.0210 -0.0092
 1741SOL    HW2 6730   2.393   4.917   3.957  2.3088  0.1811  2.1602
 1741SOL    HW3 6731   2.410   4.841   3.827 -1.9973 -0.3148  1.7384
 1741SOL    MW4 6732   2.444   4.880   3.897  0.1016  0.0707 -0.0660
 1742SOL     OW 6733   5.987   2.266   1.283 -0.0321  0.7693 -0.3277
 1742SOL    HW2 6734   5.909   2.271   1.228  0.6652 -0.2593 -1.4688
 1742SOL    HW3 6735   5.970   2.193   1.343 -0.3981  1.2748  0.1932
 1742SOL    MW4 6736   5.975   2.257   1.284  0.0430  0.2330 -0.2875
 1743SOL     OW 6737   6.114   4.472   2.685 -0.2204  0.5696 -0.0082
 1743SOL    HW2 6738   6.189   4.435   2.639 -0.2133 -1.0685  1.2072
 1743SOL    HW3 6739   6.152   4.515   2.762 -0.2703  2.8515 -1.1831
 1743SOL    MW4 6740   6.129   4.472   2.689  0.7079 -0.1832  0.1951
 1744SOL     OW 6741   1.563   0.416   5.758 -0.1221 -0.5503 -0.2588
 1744SOL    HW2 6742   1.584   0.332   5.718  1.2679 -1.2750  1.8092
 1744SOL    HW3 6743   1.604   0.481   5.700  0.0368 -1.3935 -1.1111
 1744SOL    MW4 6744   1.571   0.414   5.745 -0.1233  0.3592  0.3646
 1745SOL     OW 6745   3.970   1.030   0.442  0.1306 -0.5180 -0.6116
 1745SOL    HW2 6746   4.023   1.079   0.505 -1.8493 -0.2695  0.9637
 1745SOL    HW3 6747   3.944   1.095   0.377 -1.4915  0.3611  0.8196
 1745SOL    MW4 6748   3.973   1.045   0.442 -0.5183 -0.2178  0.0793
 1746SOL     OW 6749   1.744   3.318   0.035  0.1053 -0.1275 -0.2360
 1746SOL    HW2 6750   1.793   3.368   0.100  0.5431 -1.2045  0.2862
 1746SOL    HW3 6751   1.745   3.373  -0.044  1.2210  0.3449  0.0961
 1746SOL    MW4 6752   1.751   3.332   0.033  0.1230 -0.1896  0.0461
 1747SOL     OW 6753   0.387   4.928   2.185  0.0825 -0.0632  0.5376
 1747SOL    HW2 6754   0.340   4.872   2.247  0.0609  0.2188  0.7803
 1747SOL    HW3 6755   0.393   4.877   2.105  0.9454 -0.8176  1.0668
 1747SOL    MW4 6756   0.382   4.914   2.183 -0.5696  0.0250 -0.2280
 1748SOL     OW 6757   0.063   2.209   1.652  0.0521 -0.0342 -0.0525
 1748SOL    HW2 6758   0.131   2.209   1.719  0.9831  1.4236 -0.9409
 1748SOL    HW3 6759   0.003   2.139   1.678  1.3257 -0.6562  1.3225
 1748SOL    MW4 6760   0.064   2.200   1.664 -0.2422  0.2541  0.5239
 1749SOL     OW 6761   6.200   6.097   1.562  0.8492  0.0280 -0.3398
 1749SOL    HW2 6762   6.211   6.159   1.633  1.4473 -0.0974 -0.3220
 1749SOL    HW3 6763   6.221   6.012   1.600 -0.4268 -0.2704 -0.2310
 1749SOL    MW4 6764   6.204   6.094   1.576 -0.0306  0.3951  0.0426
 1750SOL     OW 6765   0.274   3.490   1.219  0.2016 -0.3405 -0.7191
 1750SOL    HW2 6766   0.348   3.439   1.253 -0.8275 -2.5924 -1.6501
 1750SOL    HW3 6767   0.199   3.459   1.269 -0.5702 -0.3061 -1.8276
 1750SOL    MW4 6768   0.274   3.479   1.230 -0.7956 -0.0266  0.2924
 1751SOL     OW 6769   6.177   1.191   2.171 -0.0939  0.6471  0.5134
 1751SOL    HW2 6770   6.209   1.103   2.187  0.5276  1.0055  1.3012
 1751SOL    HW3 6771   6.252   1.248   2.188 -0.1629  1.2716 -1.0549
 1751SOL    MW4 6772   6.191   1.187   2.175 -0.5274  0.5364 -0.7869
 1752SOL     OW 6773   4.169   4.741   4.790 -0.1664 -0.0747 -0.0442
 1752SOL    HW2 6774   4.129   4.699   4.713 -1.9576 -1.2730  1.4552
 1752SOL    HW3 6775   4.095   4.764   4.846  1.0923  0.7663  1.3365
 1752SOL    MW4 6776   4.154   4.738   4.787  0.4193 -0.0205 -0.2980
 1753SOL     OW 6777   1.376   4.373   3.220  0.2669  0.3771 -0.6289
 1753SOL    HW2 6778   1.285   4.357   3.243  0.1188  1.3495 -0.4821
 1753SOL    HW3 6779   1.424   4.366   3.303  0.2362  0.4437 -0.6053
 1753SOL    MW4 6780   1.371   4.370   3.234 -0.2005  0.1489 -0.2894
 1754SOL     OW 6781   3.163   4.532   0.560 -0.6449 -0.4239  0.1576
 1754SOL    HW2 6782   3.169   4.471   0.486  1.9634  0.9220 -0.8780
 1754SOL    HW3 6783   3.080   4.577   0.548  0.3148  0.8007 -2.9397
 1754SOL    MW4 6784   3.153   4.530   0.548  0.2382 -0.0953 -0.3385
 1755SOL     OW 6785   3.382   4.683   3.417 -0.1190  0.2851 -0.0164
 1755SOL    HW2 6786   3.293   4.653   3.400 -0.0787  0.1651 -0.0207
 1755SOL    HW3 6787   3.415   4.621   3.483 -0.3690  0.8995  0.7046
 1755SOL    MW4 6788   3.375   4.671   3.424 -0.3978  0.2168 -0.1197
 1756SOL     OW 6789   3.263   0.362   4.257  0.2696 -0.7801  0.2613
 1756SOL    HW2 6790   3.176   0.403   4.254  0.0964 -1.0654  1.0831
 1756SOL    HW3 6791   3.299   0.376   4.170 -0.3117 -0.0203  0.1338
 1756SOL    MW4 6792   3.256   0.369   4.246 -0.1602  0.0483  0.2081
 1757SOL     OW 6793   1.422   0.070   4.242 -0.3446  0.0737 -0.0405
 1757SOL    HW2 6794   1.443  -0.007   4.296 -1.5944 -0.0170  0.3520
 1757SOL    HW3 6795   1.337   0.099   4.275  0.9400  2.7978  1.1314
 1757SOL    MW4 6796   1.413   0.064   4.254 -1.1462  0.0901  0.4593
 1758SOL     OW 6797   3.350   4.840   5.992 -1.0280  0.2088 -0.3906
 1758SOL    HW2 6798   3.351   4.866   5.900 -0.1568 -0.7089 -0.6585
 1758SOL    HW3 6799   3.429   4.878   6.030 -0.3139 -1.0650 -0.5306
 1758SOL    MW4 6800   3.360   4.848   5.985 -0.2117  0.7439 -0.1020
 1759SOL     OW 6801   3.918   2.576   3.458  0.0725  0.1928  0.4005
 1759SOL    HW2 6802   3.972   2.497   3.467 -0.3711 -0.5736 -2.6418
 1759SOL    HW3 6803   3.829   2.545   3.474 -0.0712  0.1075 -0.5206
 1759SOL    MW4 6804   3.913   2.561   3.461 -0.0542 -0.3843 -0.0867
 1760SOL     OW 6805   3.629   5.075   4.909 -0.3393  0.5162 -0.1442
 1760SOL    HW2 6806   3.535   5.084   4.917 -0.5896 -1.1778 -0.7549
 1760SOL    HW3 6807   3.643   5.034   4.823  0.7392 -1.4803  0.9047
 1760SOL    MW4 6808   3.619   5.071   4.899 -0.3821  0.5683 -0.2915
 1761SOL     OW 6809   0.755   0.564   4.720 -0.0808  0.4251 -0.4493
 1761SOL    HW2 6810   0.700   0.541   4.795  0.7043  1.3061  0.4089
 1761SOL    HW3 6811   0.753   0.486   4.664 -0.4427 -0.3463  0.6178
 1761SOL    MW4 6812   0.747   0.551   4.723  0.5235 -0.4095  0.1411
 1762SOL     OW 6813   0.813   1.940   2.623  0.2035 -0.1494  0.0862
 1762SOL    HW2 6814   0.883   2.004   2.638 -0.5961  1.5215 -2.7010
 1762SOL    HW3 6815   0.857   1.864   2.586  0.6974  0.4428 -0.5630
 1762SOL    MW4 6816   0.828   1.938   2.620 -0.6146 -0.0887  0.1145
 1763SOL     OW 6817   0.691   3.393   5.467 -0.2190 -0.2879  0.2669
 1763SOL    HW2 6818   0.604   3.404   5.507 -1.6712 -3.4313 -1.6565
 1763SOL    HW3 6819   0.685   3.441   5.384 -0.1954 -0.6693  0.0445
 1763SOL    MW4 6820   0.679   3.401   5.461  0.1615  0.3120 -0.5647
 1764SOL     OW 6821   6.106   5.514   5.518  0.0540  0.0690  0.7078
 1764SOL    HW2 6822   6.194   5.492   5.548 -0.2487 -1.4935  0.5250
 1764SOL    HW3 6823   6.121   5.568   5.440  0.8555 -0.3173  0.5786
 1764SOL    MW4 6824   6.120   5.518   5.511  0.0361  0.1734  0.1293
 1765SOL     OW 6825   2.445   1.936   0.151  0.1014  0.1711  0.0246
 1765SOL    HW2 6826   2.498   1.938   0.231  0.0414 -1.3959  0.1397
 1765SOL    HW3 6827   2.503   1.969   0.083  1.0056 -0.7803  0.2965
 1765SOL    MW4 6828   2.460   1.940   0.152 -0.0610 -0.4376 -0.0624
 1766SOL     OW 6829   1.936   3.146   5.623  0.1361  0.1649 -0.3708
 1766SOL    HW2 6830   1.843   3.157   5.643  0.0970  0.5289 -0.7441
 1766SOL    HW3 6831   1.974   3.233   5.638  0.2565  0.2345 -1.0763
 1766SOL    MW4 6832   1.929   3.159   5.628 -0.0239 -0.1481 -0.4621
 1767SOL     OW 6833   2.874   0.414   1.730 -0.2850  0.0313  0.0005
 1767SOL    HW2 6834   2.909   0.433   1.643  1.2636  0.5576  0.6982
 1767SOL    HW3 6835   2.788   0.376   1.714  0.3297 -0.6840 -1.7869
 1767SOL    MW4 6836   2.867   0.412   1.717 -0.3808  0.0110  0.2997
 1768SOL     OW 6837   4.817   2.874   5.990  0.3487  0.3930 -0.1524
 1768SOL    HW2 6838   4.895   2.833   6.029  0.3724  1.0270  0.4937
 1768SOL    HW3 6839   4.752   2.871   6.060  0.5951  2.1397  0.1840
 1768SOL    MW4 6840   4.819   2.868   6.005  0.0445  0.2179 -0.0796
 1769SOL     OW 6841   4.629   2.467   3.857  0.2876 -0.2862 -0.2986
 1769SOL    HW2 6842   4.534   2.475   3.867  0.1931  1.4090 -2.1813
 1769SOL    HW3 6843   4.664   2.497   3.941 -0.8076  0.2305 -0.0092
 1769SOL    MW4 6844   4.621   2.472   3.870  0.0990  0.7375  0.0854
 1770SOL     OW 6845   2.725   3.356   1.312  0.4837  0.1073 -0.2287
 1770SOL    HW2 6846   2.760   3.389   1.229  1.3899  1.5847  0.6846
 1770SOL    HW3 6847   2.754   3.420   1.377 -0.3910 -0.8928  1.2071
 1770SOL    MW4 6848   2.733   3.369   1.310 -0.3007 -0.7107  0.6064
 1771SOL     OW 6849   5.700   0.703   6.180 -0.1820  0.0328 -0.6740
 1771SOL    HW2 6850   5.706   0.793   6.213  0.1361 -0.0269 -0.5675
 1771SOL    HW3 6851   5.760   0.654   6.235  0.6179 -0.0095 -1.5646
 1771SOL    MW4 6852   5.709   0.709   6.192  0.1268  0.2988 -0.9735
 1772SOL     OW 6853   5.768   4.045   3.636 -0.3737 -0.1759 -0.0861
 1772SOL    HW2 6854   5.836   3.979   3.649  0.0055 -0.3913 -2.6467
 1772SOL    HW3 6855   5.785   4.081   3.549 -3.1064  0.2374 -0.5636
 1772SOL    MW4 6856   5.779   4.041   3.626 -0.0390  0.0615 -0.3217
 1773SOL     OW 6857   0.942   0.220   3.815 -0.1887 -0.3450 -1.0872
 1773SOL    HW2 6858   0.927   0.304   3.773 -0.0762  0.1266 -0.2159
 1773SOL    HW3 6859   1.005   0.175   3.759  0.4272  0.5199 -1.0955
 1773SOL    MW4 6860   0.948   0.225   3.802  0.8741 -0.4114 -0.2067
 1774SOL     OW 6861   2.300   1.991   3.413  0.7470 -0.4841  0.2281
 1774SOL    HW2 6862   2.347   1.972   3.332  0.4904 -2.1913  0.4321
 1774SOL    HW3 6863   2.366   2.029   3.471  1.1470 -0.0821 -0.4785
 1774SOL    MW4 6864   2.315   1.993   3.410 -0.7656  0.3704 -0.1769
 1775SOL     OW 6865   0.689   5.174   5.952 -0.1209  0.5040  0.4851
 1775SOL    HW2 6866   0.710   5.200   6.042 -1.3882  0.1077  0.9096
 1775SOL    HW3 6867   0.731   5.242   5.898  1.5191  0.1920  1.2963
 1775SOL    MW4 6868   0.698   5.187   5.957 -0.0582 -0.5533 -0.3433
 1776SOL     OW 6869   4.421   2.917   3.510  0.2849 -0.6489 -0.7334
 1776SOL    HW2 6870   4.401   2.996   3.460  0.3960 -0.4915 -0.5288
 1776SOL    HW3 6871   4.337   2.873   3.520 -0.1553  0.5237  1.0048
 1776SOL    MW4 6872   4.408   2.921   3.505 -0.6151  0.4718  0.7507
 1777SOL     OW 6873   3.347   5.098   0.570  0.1036 -0.2866  0.1319
 1777SOL    HW2 6874   3.442   5.109   0.570 -0.0468  1.6016 -0.6653
 1777SOL    HW3 6875   3.331   5.021   0.623  2.0309 -0.1578  0.9878
 1777SOL    MW4 6876   3.357   5.090   0.577  0.0629  0.0194 -0.1563
 1778SOL     OW 6877   4.285   1.737   3.849 -0.4821  0.5822 -0.2854
 1778SOL    HW2 6878   4.250   1.759   3.936  1.1732  1.0522  0.3038
 1778SOL    HW3 6879   4.229   1.665   3.819 -1.8398  1.1876  0.6351
 1778SOL    MW4 6880   4.273   1.731   3.857 -0.0322 -0.3621 -0.3359
 1779SOL     OW 6881   4.044   1.843   4.444 -0.1712  0.2252 -0.1620
 1779SOL    HW2 6882   4.081   1.902   4.378 -0.2776 -1.4757 -1.8496
 1779SOL    HW3 6883   3.955   1.824   4.413  0.6712 -2.7498 -1.1857
 1779SOL    MW4 6884   4.037   1.848   4.431 -0.1230 -0.0921  0.1300
 1780SOL     OW 6885   3.806   4.113   5.213  0.1959 -0.1648 -0.2987
 1780SOL    HW2 6886   3.897   4.082   5.214  1.4861  3.1334 -1.2964
 1780SOL    HW3 6887   3.788   4.135   5.305  0.7919  0.1079 -0.2390
 1780SOL    MW4 6888   3.816   4.112   5.226 -0.5936 -0.3308  0.0623
 1781SOL     OW 6889   5.401   1.305   0.012  0.4874 -0.4190  0.1226
 1781SOL    HW2 6890   5.350   1.370  -0.037 -0.5158 -1.2385  0.0672
 1781SOL    HW3 6891   5.387   1.223  -0.035 -0.9819 -1.3636  2.0811
 1781SOL    MW4 6892   5.393   1.303  -0.001 -0.0896  0.4143 -0.4319
 1782SOL     OW 6893   3.002   3.067   1.451 -0.1385 -0.4212  0.4533
 1782SOL    HW2 6894   3.066   3.074   1.381  0.6060  0.9671  1.2168
 1782SOL    HW3 6895   2.917   3.068   1.407  0.3307 -0.9510 -0.4913
 1782SOL    MW4 6896   2.999   3.068   1.436  0.7342 -0.0664  0.0568
 1783SOL     OW 6897   1.347   0.165   4.915 -0.0627 -0.7637 -0.8554
 1783SOL    HW2 6898   1.332   0.109   4.839  0.8416 -2.2326 -0.0208
 1783SOL    HW3 6899   1.414   0.118   4.966  0.3595  0.8508  0.1520
 1783SOL    MW4 6900   1.354   0.151   4.912  0.3758  0.0461  0.3144
 1784SOL     OW 6901   2.236   5.698   1.169 -0.4944 -0.2626 -0.1189
 1784SOL    HW2 6902   2.219   5.791   1.151  1.1110  0.4646  1.7690
 1784SOL    HW3 6903   2.283   5.698   1.253  1.6927 -2.5964 -1.2252
 1784SOL    MW4 6904   2.240   5.710   1.178 -0.1115 -0.4042 -0.4975
 1785SOL     OW 6905   5.013   5.341   3.800  0.6086  0.8738 -0.3585
 1785SOL    HW2 6906   4.999   5.260   3.849 -1.2260 -0.0653 -2.3014
 1785SOL    HW3 6907   5.084   5.321   3.739 -0.9580  0.0800 -2.0138
 1785SOL    MW4 6908   5.020   5.328   3.799 -0.3349 -0.0265 -0.0848
 1786SOL     OW 6909   5.097   6.148   0.253  0.0941  0.0232 -0.5503
 1786SOL    HW2 6910   5.113   6.241   0.268  0.7468 -0.3908  1.5529
 1786SOL    HW3 6911   5.075   6.112   0.339  2.4132 -2.2437 -0.7827
 1786SOL    MW4 6912   5.096   6.155   0.266  0.8490 -0.2892 -0.6130
 1787SOL     OW 6913   4.752   1.888   1.214  0.2532 -0.3619 -0.0721
 1787SOL    HW2 6914   4.783   1.936   1.137  1.5071 -0.0466  0.5976
 1787SOL    HW3 6915   4.818   1.821   1.229 -0.1501 -0.6379  0.5292
 1787SOL    MW4 6916   4.765   1.886   1.206  0.6179  0.3499  0.0067
 1788SOL     OW 6917   5.131   0.892   0.329  0.2553  0.3485 -0.5738
 1788SOL    HW2 6918   5.071   0.843   0.385  3.7496 -2.0874  1.4949
 1788SOL    HW3 6919   5.150   0.832   0.257  1.6521  0.1752 -0.0992
 1788SOL    MW4 6920   5.126   0.877   0.327  0.7204  0.3568 -0.2403
 1789SOL     OW 6921   5.230   1.497   6.321 -0.5181  0.4694  0.5354
 1789SOL    HW2 6922   5.266   1.585   6.330 -0.3015  0.2671  1.8241
 1789SOL    HW3 6923   5.243   1.475   6.229 -1.1435  2.0145  0.0331
 1789SOL    MW4 6924   5.236   1.506   6.310 -0.5375  0.4227  0.0760
 1790SOL     OW 6925   4.065   0.460   3.467 -0.3980 -0.5568 -0.2348
 1790SOL    HW2 6926   4.060   0.394   3.398 -1.5137  0.0007 -0.7070
 1790SOL    HW3 6927   4.044   0.412   3.548  0.1369 -1.0490 -0.3810
 1790SOL    MW4 6928   4.062   0.445   3.469  0.5802  0.6237 -0.1910
 1791SOL     OW 6929   0.094   2.319   2.047  0.5305 -0.4131  0.1311
 1791SOL    HW2 6930   0.169   2.339   2.104  0.7564 -1.5623  0.2528
 1791SOL    HW3 6931   0.031   2.276   2.105  0.1065 -0.1812 -0.1536
 1791SOL    MW4 6932   0.096   2.316   2.062  0.4381  0.2400  0.2966
 1792SOL     OW 6933   0.767   5.378   5.785 -0.4021 -0.2532  0.3116
 1792SOL    HW2 6934   0.740   5.367   5.694  1.4651 -2.9961 -0.0359
 1792SOL    HW3 6935   0.838   5.442   5.781 -1.2373  0.6687  0.0505
 1792SOL    MW4 6936   0.773   5.385   5.772  0.8255  0.4080 -0.0235
 1793SOL     OW 6937   1.131   4.307   3.300 -0.4412 -0.0247  0.2456
 1793SOL    HW2 6938   1.146   4.386   3.352 -1.5624 -0.4978  1.3671
 1793SOL    HW3 6939   1.102   4.242   3.364 -1.0220 -0.8959 -0.8636
 1793SOL    MW4 6940   1.129   4.309   3.315 -0.8642  0.0238 -0.1762
 1794SOL     OW 6941   1.918   4.430   5.255  0.1076 -0.5485 -0.3503
 1794SOL    HW2 6942   1.976   4.506   5.250  1.1821 -1.3131  0.1714
 1794SOL    HW3 6943   1.844   4.453   5.199  0.1688  1.0797  0.1936
 1794SOL    MW4 6944   1.916   4.443   5.247 -0.0238 -0.7891  0.5636
 1795SOL     OW 6945   2.694   2.720   5.713 -0.0221  0.0067 -0.9685
 1795SOL    HW2 6946   2.724   2.629   5.704  1.3438  0.0248  1.9361
 1795SOL    HW3 6947   2.670   2.727   5.806  0.0976  2.6577 -1.0759
 1795SOL    MW4 6948   2.695   2.709   5.724  0.4169  0.2062  0.1591
 1796SOL     OW 6949   0.890   3.904   4.869 -0.1112 -1.4069  0.0471
 1796SOL    HW2 6950   0.968   3.958   4.864 -0.6107 -0.2867  2.4571
 1796SOL    HW3 6951   0.922   3.814   4.867  1.1061 -0.9798 -0.2534
 1796SOL    MW4 6952   0.904   3.899   4.868  0.3584 -0.7562  0.1308
 1797SOL     OW 6953   3.699   5.949   2.473 -0.3732  0.0197  0.3767
 1797SOL    HW2 6954   3.774   5.990   2.429  0.2431  0.1828  1.5449
 1797SOL    HW3 6955   3.625   6.005   2.452  0.2965  1.2673  1.2172
 1797SOL    MW4 6956   3.699   5.962   2.464  0.3974  0.3994  0.1878
 1798SOL     OW 6957   1.731   0.248   5.352 -0.4978 -0.0736 -0.1254
 1798SOL    HW2 6958   1.641   0.272   5.369 -0.2155  0.3577  0.8278
 1798SOL    HW3 6959   1.783   0.322   5.384  0.2328 -0.6441  0.0509
 1798SOL    MW4 6960   1.726   0.260   5.358  0.6905 -0.0687  0.5743
 1799SOL     OW 6961   1.733   4.405   3.648  0.4994  0.2393 -0.3230
 1799SOL    HW2 6962   1.785   4.325   3.659  0.8136  0.1530 -2.1165
 1799SOL    HW3 6963   1.795   4.469   3.614 -0.2298  0.5675 -1.0742
 1799SOL    MW4 6964   1.748   4.403   3.645  0.1430  0.7001 -0.7130
 1800SOL     OW 6965   1.881   3.938   5.641 -0.5986  0.1103  0.7329
 1800SOL    HW2 6966   1.940   3.899   5.577 -2.8284 -0.6904 -0.9915
 1800SOL    HW3 6967   1.938   3.987   5.700  1.7972 -1.1069 -0.4163
 1800SOL    MW4 6968   1.896   3.939   5.640  0.5278  0.9936 -0.9286
 1801SOL     OW 6969   3.434   3.945   6.252 -0.0228 -0.3618  0.1165
 1801SOL    HW2 6970   3.487   3.936   6.173 -0.0717  1.1959 -0.1090
 1801SOL    HW3 6971   3.379   4.021   6.236  0.0095  0.0202  1.6644
 1801SOL    MW4 6972   3.434   3.953   6.240 -0.0173  0.1614  0.2299
 1802SOL     OW 6973   4.170   2.295   5.277  0.0929  0.2184  0.0135
 1802SOL    HW2 6974   4.102   2.239   5.316 -0.3361  1.2046  0.7281
 1802SOL    HW3 6975   4.127   2.335   5.201  0.5260 -0.7099 -0.7403
 1802SOL    MW4 6976   4.155   2.293   5.272 -0.1118  0.3812  0.0340
 1803SOL     OW 6977   6.130   1.048   0.089 -0.1606 -0.3776 -0.2826
 1803SOL    HW2 6978   6.142   0.978   0.025 -0.7544  1.1856 -2.2042
 1803SOL    HW3 6979   6.035   1.057   0.097 -0.0864 -0.1029  0.3253
 1803SOL    MW4 6980   6.119   1.040   0.082  0.4826  0.6235  0.0038
 1804SOL     OW 6981   1.210   2.490   3.782  0.0537  0.1513  0.1131
 1804SOL    HW2 6982   1.240   2.422   3.842 -1.5249 -0.9525 -0.3038
 1804SOL    HW3 6983   1.288   2.513   3.731  0.4869 -1.8505 -0.2103
 1804SOL    MW4 6984   1.224   2.484   3.783 -0.4882 -0.0950  0.1590
 1805SOL     OW 6985   2.515   3.195   2.725 -0.3424 -0.0782 -0.8197
 1805SOL    HW2 6986   2.577   3.202   2.798 -2.0543  2.3733  0.5501
 1805SOL    HW3 6987   2.523   3.277   2.677 -3.0101  0.7391 -0.0744
 1805SOL    MW4 6988   2.524   3.207   2.729  0.2607  0.6361  0.1052
 1806SOL     OW 6989   6.136   3.544   0.348 -0.1667  0.4016 -0.3063
 1806SOL    HW2 6990   6.154   3.451   0.360 -0.3808  0.4026  0.0449
 1806SOL    HW3 6991   6.043   3.548   0.326  0.3789  0.3208 -3.0421
 1806SOL    MW4 6992   6.126   3.532   0.347  0.0772 -0.4728  0.1126
 1807SOL     OW 6993   3.784   5.686   2.405  0.4760  0.0142  0.0200
 1807SOL    HW2 6994   3.746   5.773   2.412 -1.2995 -0.6747 -0.4926
 1807SOL    HW3 6995   3.776   5.663   2.313  0.4415 -0.9060  0.2385
 1807SOL    MW4 6996   3.778   5.694   2.394 -0.0832 -1.0949 -0.9827
 1808SOL     OW 6997   0.598   3.775   6.194 -0.3086 -0.6846 -0.4614
 1808SOL    HW2 6998   0.556   3.789   6.109 -1.0813  1.0008  0.1421
 1808SOL    HW3 6999   0.576   3.854   6.244  0.7758 -1.2964  1.0407
 1808SOL    MW4 7000   0.589   3.787   6.189  0.4408 -0.0431  0.4696
 1809SOL     OW 7001   4.622   3.712   4.239 -0.1996 -0.7162 -0.0350
 1809SOL    HW2 7002   4.675   3.777   4.285 -0.6756  0.5691 -1.2293
 1809SOL    HW3 7003   4.546   3.698   4.297  0.0261 -0.3945  0.3429
 1809SOL    MW4 7004   4.619   3.719   4.253  0.4043 -0.2089  0.0786
 1810SOL     OW 7005   2.397   6.386   4.135 -0.2889  0.2137 -0.1995
 1810SOL    HW2 7006   2.410   6.480   4.122 -1.5368  0.4787  0.3326
 1810SOL    HW3 7007   2.485   6.352   4.155  0.6278  0.8378 -2.7595
 1810SOL    MW4 7008   2.411   6.394   4.136 -0.8068  0.0101  0.1443
 1811SOL     OW 7009   2.589   3.990   4.102 -0.2266 -0.0801 -0.1224
 1811SOL    HW2 7010   2.678   3.989   4.135 -0.4269  1.8503  0.5999
 1811SOL    HW3 7011   2.535   4.004   4.180 -1.1652 -0.9376 -0.5873
 1811SOL    MW4 7012   2.593   3.991   4.117  0.2177  0.0070  0.1939
 1812SOL     OW 7013   1.691   0.443   3.683  0.1293  0.1724 -0.3157
 1812SOL    HW2 7014   1.741   0.435   3.764  1.7979  2.9626 -0.9238
 1812SOL    HW3 7015   1.603   0.468   3.711  0.6101  0.8229  0.6633
 1812SOL    MW4 7016   1.686   0.445   3.697 -0.2804  0.7047 -0.4401
 1813SOL     OW 7017   0.725   0.881   3.120 -0.2196  0.1591 -0.0073
 1813SOL    HW2 7018   0.763   0.840   3.042 -0.2087  0.9428 -0.4224
 1813SOL    HW3 7019   0.773   0.842   3.193 -1.2749 -1.7348 -0.2687
 1813SOL    MW4 7020   0.737   0.870   3.119  0.2304  0.1786  0.1387
 1814SOL     OW 7021   0.733   0.906   2.461  0.0904 -0.3223 -0.1819
 1814SOL    HW2 7022   0.718   0.990   2.417  2.4333  0.8493  1.0765
 1814SOL    HW3 7023   0.772   0.850   2.393  1.4734  0.6887 -0.2644
 1814SOL    MW4 7024   0.736   0.910   2.446 -0.5486 -0.0751  0.4094
 1815SOL     OW 7025   1.658   5.954   3.967  0.0380 -0.3172  0.3223
 1815SOL    HW2 7026   1.636   5.922   3.879 -0.8244  0.8706  0.0859
 1815SOL    HW3 7027   1.586   5.925   4.022  0.2547 -0.4907  0.5189
 1815SOL    MW4 7028   1.646   5.946   3.962  0.7644  0.5355 -0.2254
 1816SOL     OW 7029   0.428   3.106   3.781 -0.1686 -0.2051  0.1423
 1816SOL    HW2 7030   0.464   3.152   3.856 -0.0975  0.9178 -0.5493
 1816SOL    HW3 7031   0.338   3.085   3.806  0.0548 -0.4342  0.7757
 1816SOL    MW4 7032   0.421   3.109   3.794  0.7896 -0.0696  0.0925
 1817SOL     OW 7033   1.955   1.280   0.822 -0.0716  0.6364  0.0218
 1817SOL    HW2 7034   2.011   1.269   0.745 -1.6787 -1.2209 -0.9803
 1817SOL    HW3 7035   1.984   1.212   0.883 -0.7183  0.1459 -0.2022
 1817SOL    MW4 7036   1.966   1.269   0.820  0.0934 -0.7937 -0.0195
 1818SOL     OW 7037   4.948   0.936   4.768  0.0892 -0.6100 -0.2538
 1818SOL    HW2 7038   4.871   0.982   4.733 -1.0159 -1.5693  0.8266
 1818SOL    HW3 7039   4.946   0.955   4.862  2.5569  1.2721 -0.4672
 1818SOL    MW4 7040   4.938   0.945   4.776  0.3166 -0.2541  0.1402
 1819SOL     OW 7041   0.307   4.171   5.157 -0.0520 -0.1326  0.0781
 1819SOL    HW2 7042   0.349   4.087   5.142  1.0669  0.4483 -0.1735
 1819SOL    HW3 7043   0.216   4.158   5.131  0.5277 -0.7437 -1.7607
 1819SOL    MW4 7044   0.301   4.158   5.152  0.8725 -0.7736  0.1112
 1820SOL     OW 7045   2.998   5.493   2.470 -0.2773 -0.1053 -0.3300
 1820SOL    HW2 7046   3.015   5.408   2.430  1.2541  0.3865 -0.8219
 1820SOL    HW3 7047   2.935   5.535   2.411 -2.1761 -1.3979  0.6797
 1820SOL    MW4 7048   2.992   5.487   2.457  0.0804  0.0745 -0.1813
 1821SOL     OW 7049   0.879   2.029   0.793  0.1084  0.1085  0.1732
 1821SOL    HW2 7050   0.824   2.042   0.715 -0.2431 -1.3041  0.1714
 1821SOL    HW3 7051   0.929   2.111   0.800 -1.0256  0.9020 -0.5854
 1821SOL    MW4 7052   0.878   2.042   0.783  0.5878 -0.0017 -0.6373
 1822SOL     OW 7053   4.726   6.047   1.808  0.0849  0.1887 -0.3425
 1822SOL    HW2 7054   4.796   5.983   1.793  0.6870  1.1271 -1.7562
 1822SOL    HW3 7055   4.743   6.080   1.897  0.6660 -0.5147 -0.1787
 1822SOL    MW4 7056   4.738   6.043   1.818  0.2154  0.1710 -0.2790
 1823SOL     OW 7057   4.419   5.010   2.845  0.1738  0.1082 -0.2730
 1823SOL    HW2 7058   4.508   4.989   2.875  0.5607 -0.1527 -1.5228
 1823SOL    HW3 7059   4.404   4.951   2.771 -0.7587  0.6440 -0.5299
 1823SOL    MW4 7060   4.429   5.000   2.839 -0.3209 -0.1131  0.0747
 1824SOL     OW 7061   0.251   4.772   6.397 -0.0535  0.3259 -0.3780
 1824SOL    HW2 7062   0.227   4.702   6.337 -0.4510 -1.0024  1.2680
 1824SOL    HW3 7063   0.188   4.842   6.379  0.4753  0.3861 -2.1795
 1824SOL    MW4 7064   0.239   4.772   6.386  0.3346 -0.3852 -0.7220
 1825SOL     OW 7065   5.758   6.005   3.519 -0.1510  0.3035  0.5325
 1825SOL    HW2 7066   5.663   6.001   3.507  0.0488 -1.2718 -0.8022
 1825SOL    HW3 7067   5.769   6.051   3.603 -2.2395 -2.4806  2.5488
 1825SOL    MW4 7068   5.747   6.010   3.529  0.1599 -0.6525 -0.0831
 1826SOL     OW 7069   3.946   5.384   0.650  0.5053 -0.3156 -0.0160
 1826SOL    HW2 7070   3.980   5.453   0.593  1.1361 -0.3770  0.2748
 1826SOL    HW3 7071   4.012   5.314   0.645 -0.7541 -1.4631 -1.3292
 1826SOL    MW4 7072   3.959   5.384   0.642  0.4345 -0.5702  0.3383
 1827SOL     OW 7073   0.451   1.134   0.250 -0.3328 -0.8648  0.5642
 1827SOL    HW2 7074   0.546   1.122   0.240 -0.2580 -1.0974  1.4212
 1827SOL    HW3 7075   0.413   1.083   0.179  0.1787 -1.1284  0.4738
 1827SOL    MW4 7076   0.458   1.126   0.239  0.5723 -0.1674  0.4999
 1828SOL     OW 7077   2.983   1.696   2.368 -0.2512 -0.3753  0.2750
 1828SOL    HW2 7078   3.073   1.728   2.362  0.2855 -1.9418 -0.3983
 1828SOL    HW3 7079   2.957   1.714   2.458  0.7110  0.1232  0.4632
 1828SOL    MW4 7080   2.991   1.703   2.379  0.1570  0.5674 -0.1964
 1829SOL     OW 7081   1.828   5.375   4.111  0.4041 -0.5453  0.3508
 1829SOL    HW2 7082   1.767   5.447   4.128  1.3370  0.1515  0.9019
 1829SOL    HW3 7083   1.780   5.296   4.133 -0.4453 -0.0433  0.3345
 1829SOL    MW4 7084   1.814   5.374   4.116 -0.2577 -0.7316 -0.2194
 1830SOL     OW 7085   1.117   4.754   2.225 -0.3973 -0.3919 -0.1959
 1830SOL    HW2 7086   1.133   4.774   2.132  1.0118  1.5727  0.4017
 1830SOL    HW3 7087   1.200   4.776   2.268 -0.0253 -3.9133  1.2281
 1830SOL    MW4 7088   1.130   4.759   2.218 -0.0660 -0.2197  0.1476
 1831SOL     OW 7089   5.018   3.339   5.919  0.0945  0.4929  0.4013
 1831SOL    HW2 7090   4.938   3.295   5.945  0.0843  0.4895  0.3639
 1831SOL    HW3 7091   5.032   3.314   5.828  0.5794 -0.1680  0.6477
 1831SOL    MW4 7092   5.010   3.330   5.910 -0.3344 -0.4169 -0.1592
 1832SOL     OW 7093   5.688   3.585   4.197  0.3994  0.1411 -0.6774
 1832SOL    HW2 7094   5.682   3.605   4.103  0.3554  0.3370 -0.6330
 1832SOL    HW3 7095   5.748   3.651   4.232  0.7946 -0.2266 -0.6531
 1832SOL    MW4 7096   5.695   3.597   4.189 -0.5956  0.1007 -0.1809
 1833SOL     OW 7097   4.530   0.635   4.395 -0.3057 -0.5985 -0.2631
 1833SOL    HW2 7098   4.509   0.562   4.453  0.7842  1.2422  2.6985
 1833SOL    HW3 7099   4.621   0.622   4.371 -0.8800 -1.5948 -2.0505
 1833SOL    MW4 7100   4.539   0.624   4.399  0.0810  0.1176  0.1154
 1834SOL     OW 7101   1.965   5.171   3.194 -0.3312  0.2170  0.0085
 1834SOL    HW2 7102   1.930   5.223   3.122 -3.1094  0.2937  1.2840
 1834SOL    HW3 7103   2.007   5.097   3.152 -1.1545  0.6828 -1.7144
 1834SOL    MW4 7104   1.966   5.168   3.179 -0.0015  0.3055 -0.2391
 1835SOL     OW 7105   0.137   0.763   2.977 -0.2583  0.3756 -0.7055
 1835SOL    HW2 7106   0.081   0.723   2.910  0.4259 -0.3926 -0.8361
 1835SOL    HW3 7107   0.209   0.701   2.988 -1.1842 -0.3779  1.9636
 1835SOL    MW4 7108   0.139   0.749   2.970 -0.2317 -0.3285 -0.0103
 1836SOL     OW 7109   0.056   2.321   4.013  1.0488  0.8697 -0.3122
 1836SOL    HW2 7110   0.113   2.270   4.072 -0.3418 -0.0032  0.3328
 1836SOL    HW3 7111   0.001   2.255   3.970  0.9296  1.6432 -1.3791
 1836SOL    MW4 7112   0.056   2.306   4.015 -0.1981 -0.0753  0.5800
 1837SOL     OW 7113   1.349   0.356   0.456  0.0615 -0.3698  0.2382
 1837SOL    HW2 7114   1.302   0.331   0.376 -0.6508  0.6257  0.3356
 1837SOL    HW3 7115   1.422   0.293   0.461 -0.3532 -0.9571 -0.7474
 1837SOL    MW4 7116   1.352   0.344   0.446 -0.5753 -0.3444 -0.4247
 1838SOL     OW 7117   1.007   0.291   6.390  0.0653 -0.0564 -0.1711
 1838SOL    HW2 7118   0.974   0.341   6.465  2.4990  0.7657  0.4377
 1838SOL    HW3 7119   1.074   0.346   6.352  0.3525 -1.3831 -1.6851
 1838SOL    MW4 7120   1.011   0.305   6.395 -0.0001 -0.1228 -0.1786
 1839SOL     OW 7121   3.641   5.907   0.428  0.6765  0.2885  0.1848
 1839SOL    HW2 7122   3.733   5.899   0.405  0.0348 -0.0142 -2.6167
 1839SOL    HW3 7123   3.603   5.962   0.358 -1.7295 -1.7376 -0.2421
 1839SOL    MW4 7124   3.648   5.913   0.416 -0.1943  0.3802 -0.2226
 1840SOL     OW 7125   2.615   3.684   1.796 -0.5103  0.3515 -0.1120
 1840SOL    HW2 7126   2.569   3.742   1.735 -1.7523 -0.5950 -0.1136
 1840SOL    HW3 7127   2.707   3.709   1.788 -0.7235  0.6931 -1.8839
 1840SOL    MW4 7128   2.621   3.695   1.787  0.0343 -0.9851 -0.2794
 1841SOL     OW 7129   2.245   1.187   5.926  0.2859 -0.0487 -0.6018
 1841SOL    HW2 7130   2.182   1.119   5.903  1.3551 -0.5962 -2.0609
 1841SOL    HW3 7131   2.236   1.252   5.856 -0.3708  1.0916  0.5081
 1841SOL    MW4 7132   2.235   1.187   5.914 -0.6548  0.1671 -0.5008
 1842SOL     OW 7133   0.078   1.634   0.228 -0.1156  0.1088 -0.0806
 1842SOL    HW2 7134   0.060   1.639   0.134  1.6854  0.6247 -0.4383
 1842SOL    HW3 7135   0.138   1.707   0.244 -0.5288  0.1212  1.5068
 1842SOL    MW4 7136   0.084   1.644   0.218 -0.5199 -0.1190  0.3174
 1843SOL     OW 7137   0.235   1.254   3.965 -0.2816  0.2463  0.3502
 1843SOL    HW2 7138   0.159   1.246   4.022 -0.3920  1.0441  0.3164
 1843SOL    HW3 7139   0.303   1.204   4.010 -0.9983 -1.0409  0.0475
 1843SOL    MW4 7140   0.234   1.246   3.979 -0.1226  0.0504  0.1148
 1844SOL     OW 7141   5.140   1.107   4.672 -0.4665 -0.1181  0.0135
 1844SOL    HW2 7142   5.131   1.180   4.733  0.3557 -0.2724  0.3372
 1844SOL    HW3 7143   5.068   1.048   4.696  0.1120 -0.3912  1.1633
 1844SOL    MW4 7144   5.129   1.109   4.683 -0.1023  0.1368 -0.1100
 1845SOL     OW 7145   6.334   0.419   5.387 -0.7915  0.3455  0.3117
 1845SOL    HW2 7146   6.347   0.442   5.479 -0.5964  1.3241  0.0464
 1845SOL    HW3 7147   6.403   0.466   5.340 -2.0181  1.3844 -0.5303
 1845SOL    MW4 7148   6.345   0.428   5.393  0.1690  0.1925  0.1900
 1846SOL     OW 7149   1.580   6.285   1.278 -0.1956  0.1631  0.3635
 1846SOL    HW2 7150   1.673   6.301   1.293 -0.5111  0.1587  2.7167
 1846SOL    HW3 7151   1.566   6.195   1.308 -0.7903 -0.2277 -1.0033
 1846SOL    MW4 7152   1.590   6.275   1.284  0.1074  0.8363 -0.5945
 1847SOL     OW 7153   3.943   6.242   0.882  0.4476  0.0656 -0.1560
 1847SOL    HW2 7154   3.984   6.229   0.967 -0.1151 -2.3007 -0.1811
 1847SOL    HW3 7155   3.952   6.157   0.838 -2.5323  0.0727 -0.9878
 1847SOL    MW4 7156   3.950   6.229   0.887  0.1922  0.1663 -0.0925
 1848SOL     OW 7157   6.372   2.518   4.766  0.2274  0.0573  0.1954
 1848SOL    HW2 7158   6.394   2.511   4.673  2.2794 -1.6686  0.7119
 1848SOL    HW3 7159   6.326   2.602   4.774 -0.0604  0.2217 -2.3546
 1848SOL    MW4 7160   6.369   2.528   4.755 -0.5823  0.3545 -0.4349
 1849SOL     OW 7161   1.931   6.185   5.092 -0.0010  0.0448  0.0243
 1849SOL    HW2 7162   1.876   6.256   5.059 -0.8182  0.1781  1.5733
 1849SOL    HW3 7163   1.913   6.182   5.186 -0.1989 -2.3685 -0.0180
 1849SOL    MW4 7164   1.921   6.194   5.100 -0.1174 -0.0572  0.5845
 1850SOL     OW 7165   2.971   3.083   0.503 -0.1466 -0.0174  0.0406
 1850SOL    HW2 7166   2.886   3.076   0.547 -0.4139  0.7404 -0.3389
 1850SOL    HW3 7167   2.997   2.992   0.488 -0.3320 -0.2849  1.2155
 1850SOL    MW4 7168   2.963   3.070   0.507 -0.2977  0.5048 -0.1902
 1851SOL     OW 7169   4.140   2.679   2.814  0.1253 -0.3008 -0.0546
 1851SOL    HW2 7170   4.126   2.619   2.887  0.7995  0.3739  0.6492
 1851SOL    HW3 7171   4.051   2.701   2.784 -0.2641  0.7058  1.6654
 1851SOL    MW4 7172   4.126   2.674   2.819 -0.7539  0.1677 -0.0198
 1852SOL     OW 7173   5.636   5.341   5.924 -0.1500 -0.1166  0.0097
 1852SOL    HW2 7174   5.570   5.373   5.986 -1.2447 -0.8732 -0.7241
 1852SOL    HW3 7175   5.586   5.321   5.845  0.9164 -1.0738 -0.4403
 1852SOL    MW4 7176   5.621   5.343   5.922  0.4201  0.0246 -0.1627
 1853SOL     OW 7177   1.123   6.401   2.403 -0.1390  0.5846 -0.8325
 1853SOL    HW2 7178   1.203   6.429   2.358 -0.3761  0.8069 -1.1260
 1853SOL    HW3 7179   1.151   6.333   2.463  0.2678  0.6452 -0.9525
 1853SOL    MW4 7180   1.137   6.396   2.405  0.7882 -0.1256 -0.0175
 1854SOL     OW 7181   1.596   5.003   5.864  0.3242  0.2989 -0.2738
 1854SOL    HW2 7182   1.682   4.968   5.843 -0.0669  0.3803 -2.1237
 1854SOL    HW3 7183   1.614   5.081   5.916  1.3612  0.2403 -0.5259
 1854SOL    MW4 7184   1.609   5.009   5.868  0.1817  0.0861  0.3283
 1855SOL     OW 7185   2.765   3.563   2.792  0.0770  0.3092 -0.8709
 1855SOL    HW2 7186   2.791   3.479   2.829  1.1441  1.2426  0.6516
 1855SOL    HW3 7187   2.688   3.544   2.739  0.9835 -1.7990 -1.5380
 1855SOL    MW4 7188   2.758   3.550   2.790  0.0370  0.1534 -0.2316
 1856SOL     OW 7189   0.178   3.602   5.744 -0.1959  0.6450 -0.0503
 1856SOL    HW2 7190   0.248   3.625   5.683  0.0130 -1.2811 -0.6196
 1856SOL    HW3 7191   0.124   3.680   5.749  1.0768  1.6295 -0.8832
 1856SOL    MW4 7192   0.180   3.615   5.737 -0.2219 -0.3156  0.0684
 1857SOL     OW 7193   6.003   3.627   2.987 -0.1740 -0.1563 -0.1383
 1857SOL    HW2 7194   6.070   3.598   3.049 -0.3242  0.4448  0.3069
 1857SOL    HW3 7195   6.022   3.577   2.907  0.5105 -0.3393  0.1293
 1857SOL    MW4 7196   6.014   3.616   2.984  0.2759  0.6496 -0.1238
 1858SOL     OW 7197   5.697   5.574   4.237  0.1178  0.4656  0.3300
 1858SOL    HW2 7198   5.789   5.554   4.224 -0.4597 -1.9205 -0.6204
 1858SOL    HW3 7199   5.651   5.523   4.171 -1.9455  0.9699  1.2753
 1858SOL    MW4 7200   5.703   5.564   4.227 -0.3384  0.1090  0.7151
 1859SOL     OW 7201   2.837   4.702   5.674  0.3984 -0.1415 -0.2811
 1859SOL    HW2 7202   2.844   4.773   5.611  0.1303  0.3651  0.2456
 1859SOL    HW3 7203   2.776   4.735   5.740 -0.7697 -1.3741 -0.7108
 1859SOL    MW4 7204   2.830   4.716   5.674 -0.2482 -0.1684 -0.1330
 1860SOL     OW 7205   2.615   1.322   2.795 -0.0693 -0.7496  0.6746
 1860SOL    HW2 7206   2.588   1.232   2.776  1.0354 -1.2636  1.4174
 1860SOL    HW3 7207   2.688   1.313   2.857  2.1550  0.4679 -1.5495
 1860SOL    MW4 7208   2.621   1.309   2.800 -0.3809  0.2521  0.3866
 1861SOL     OW 7209   2.928   1.477   3.390  0.9447  0.6606 -0.1915
 1861SOL    HW2 7210   2.993   1.447   3.453  1.0675  0.0803 -0.5867
 1861SOL    HW3 7211   2.853   1.506   3.443  0.9751  0.0069  0.2081
 1861SOL    MW4 7212   2.926   1.477   3.405  0.2707 -0.2905  0.0233
 1862SOL     OW 7213   4.818   4.344   5.123 -0.0837 -0.3568 -0.0412
 1862SOL    HW2 7214   4.753   4.402   5.083 -0.2427 -0.4316  0.1080
 1862SOL    HW3 7215   4.833   4.381   5.210  0.4575 -0.0422 -0.2649
 1862SOL    MW4 7216   4.811   4.357   5.130  0.1424  0.2783  0.1260
 1863SOL     OW 7217   6.107   1.001   2.650  0.1738 -0.5564 -0.3409
 1863SOL    HW2 7218   6.162   0.925   2.631 -0.5185 -1.1509 -0.0089
 1863SOL    HW3 7219   6.051   0.972   2.721 -1.6356 -0.4804 -1.6817
 1863SOL    MW4 7220   6.107   0.987   2.657 -0.0829  0.4635 -0.3965
 1864SOL     OW 7221   3.765   5.690   3.244 -0.3472 -0.0454  0.0161
 1864SOL    HW2 7222   3.721   5.774   3.226 -0.3579 -0.4030 -1.7976
 1864SOL    HW3 7223   3.858   5.712   3.245 -0.4115  0.2720  1.3570
 1864SOL    MW4 7224   3.771   5.704   3.242 -0.9685  0.5580 -0.3787
 1865SOL     OW 7225   6.067   5.873   1.774 -0.7034  0.3352 -0.0060
 1865SOL    HW2 7226   6.017   5.946   1.737 -0.3302  1.6156  1.9055
 1865SOL    HW3 7227   6.000   5.805   1.790 -1.3918  1.0280  0.1104
 1865SOL    MW4 7228   6.051   5.873   1.771  0.4184  0.1219  0.1124
 1866SOL     OW 7229   4.832   5.768   6.037 -0.2586 -0.6584 -0.1914
 1866SOL    HW2 7230   4.898   5.717   5.990  0.6219 -0.8797  1.2170
 1866SOL    HW3 7231   4.881   5.813   6.106 -1.1985  1.2038 -0.6696
 1866SOL    MW4 7232   4.847   5.767   6.040 -0.1758  0.4107 -0.0766
 1867SOL     OW 7233   1.514   1.110   6.023  0.7505 -0.4015 -0.7552
 1867SOL    HW2 7234   1.501   1.113   5.928 -1.7256 -3.3640 -0.6813
 1867SOL    HW3 7235   1.589   1.052   6.035  0.5956 -0.6422 -0.9259
 1867SOL    MW4 7236   1.522   1.102   6.012  0.4094 -0.3119 -0.2371
 1868SOL     OW 7237   1.407   4.216   2.432  0.1640  0.6622  0.5010
 1868SOL    HW2 7238   1.420   4.311   2.436  1.4445  0.5510 -0.4839
 1868SOL    HW3 7239   1.411   4.196   2.339  3.0638 -0.7421  0.8284
 1868SOL    MW4 7240   1.409   4.226   2.420  0.3269 -0.4004  0.8621
 1869SOL     OW 7241   0.637   3.170   0.348  0.0330  0.4677 -0.4986
 1869SOL    HW2 7242   0.664   3.079   0.334  1.7898  1.2577 -2.7612
 1869SOL    HW3 7243   0.615   3.174   0.441  1.0939 -1.9666 -0.0670
 1869SOL    MW4 7244   0.637   3.158   0.359 -0.9575  0.2112 -0.2009
 1870SOL     OW 7245   5.458   5.208   5.410 -0.1296 -0.1575 -0.0840
 1870SOL    HW2 7246   5.408   5.287   5.390  1.4813  0.7847 -0.5238
 1870SOL    HW3 7247   5.426   5.143   5.347 -0.2083  0.6628 -0.9013
 1870SOL    MW4 7248   5.447   5.210   5.399 -0.2633  0.5017  0.6752
 1871SOL     OW 7249   4.453   5.452   4.537  0.1275  0.6482 -0.0852
 1871SOL    HW2 7250   4.370   5.501   4.542  0.0029  0.5392 -0.9347
 1871SOL    HW3 7251   4.435   5.381   4.475  0.3370 -0.4401  1.0524
 1871SOL    MW4 7252   4.439   5.449   4.530 -0.5640 -0.0522  0.3839
 1872SOL     OW 7253   3.051   1.151   5.002 -0.2166  1.5424 -0.1623
 1872SOL    HW2 7254   3.031   1.113   4.916  0.4714  0.7864  0.0010
 1872SOL    HW3 7255   3.138   1.118   5.023 -1.2386 -0.0866  1.8238
 1872SOL    MW4 7256   3.060   1.142   4.993 -0.6258 -0.0811 -0.2229
 1873SOL     OW 7257   5.093   1.664   5.504 -0.1637  0.1099  0.1729
 1873SOL    HW2 7258   5.171   1.633   5.458 -0.0280 -0.5053  0.8208
 1873SOL    HW3 7259   5.124   1.688   5.591 -0.5638  0.5868  0.1926
 1873SOL    MW4 7260   5.107   1.663   5.509  0.9578 -0.0847 -0.4849
 1874SOL     OW 7261   1.510   4.260   0.472  0.7262 -0.3840  0.0201
 1874SOL    HW2 7262   1.590   4.311   0.457 -0.5141  1.0033 -2.3193
 1874SOL    HW3 7263   1.504   4.202   0.396 -0.5557 -0.3776  0.0989
 1874SOL    MW4 7264   1.520   4.259   0.460  0.8408  0.1219  0.2107
 1875SOL     OW 7265   4.389   3.889   2.171  0.1046  0.4638 -0.6162
 1875SOL    HW2 7266   4.356   3.826   2.235 -0.0103 -0.1613 -1.2776
 1875SOL    HW3 7267   4.463   3.931   2.215  1.8044 -1.8733 -0.9903
 1875SOL    MW4 7268   4.394   3.886   2.186  0.9360  0.2624 -0.3440
 1876SOL     OW 7269   2.393   1.107   3.161 -0.4441 -0.2946 -0.2284
 1876SOL    HW2 7270   2.450   1.158   3.103  0.1599  0.0725  0.6727
 1876SOL    HW3 7271   2.445   1.094   3.240 -1.9643  0.9203  1.0199
 1876SOL    MW4 7272   2.408   1.112   3.164  0.2074  1.0733 -0.3305
 1877SOL     OW 7273   0.458   1.999   4.197  0.3575  0.3291  0.2416
 1877SOL    HW2 7274   0.536   2.055   4.190  0.7165 -0.2949 -1.1785
 1877SOL    HW3 7275   0.493   1.911   4.209 -0.0327 -0.1405 -1.6726
 1877SOL    MW4 7276   0.473   1.995   4.197 -0.5996 -0.0480  0.1386
 1878SOL     OW 7277   5.308   1.195   1.159  0.4258 -0.2904 -0.4536
 1878SOL    HW2 7278   5.321   1.221   1.068 -0.6440  4.6791  0.5112
 1878SOL    HW3 7279   5.381   1.235   1.206 -1.1560  0.7492  1.2527
 1878SOL    MW4 7280   5.319   1.203   1.154 -0.1412  0.2332  0.0818
 1879SOL     OW 7281   1.002   2.102   3.019 -0.0721  0.2749  0.1534
 1879SOL    HW2 7282   0.991   2.012   3.050 -0.3884  0.5709  0.9132
 1879SOL    HW3 7283   1.005   2.093   2.923 -1.6720 -0.3958  0.1299
 1879SOL    MW4 7284   1.001   2.089   3.010 -0.2043 -0.3912 -0.4401
 1880SOL     OW 7285   2.194   0.829   3.386  0.0567 -0.3487 -0.0294
 1880SOL    HW2 7286   2.158   0.903   3.337 -0.6340 -1.6440 -1.6084
 1880SOL    HW3 7287   2.247   0.781   3.322 -0.5069 -1.8618  0.5788
 1880SOL    MW4 7288   2.196   0.832   3.371  0.1353 -0.0830  1.0913
 1881SOL     OW 7289   4.640   1.749   5.004  0.5135 -0.4087 -0.1255
 1881SOL    HW2 7290   4.594   1.687   5.061  2.4278 -1.3633  0.4606
 1881SOL    HW3 7291   4.570   1.799   4.962 -1.0900 -2.4199 -0.0126
 1881SOL    MW4 7292   4.625   1.747   5.006  0.0610 -0.4948  0.1489
 1882SOL     OW 7293   4.148   5.110   3.799  0.2154  0.5495  0.4890
 1882SOL    HW2 7294   4.165   5.049   3.728  1.0350  1.2770  0.0389
 1882SOL    HW3 7295   4.224   5.101   3.857  0.3855  1.1695  0.3792
 1882SOL    MW4 7296   4.161   5.101   3.798 -0.0017 -0.0314 -0.0882
 1883SOL     OW 7297   5.251   5.249   6.099  0.2251 -0.0567 -0.3662
 1883SOL    HW2 7298   5.227   5.301   6.175 -0.2343  0.0026 -0.5519
 1883SOL    HW3 7299   5.199   5.285   6.027 -0.5184 -1.1133 -0.3850
 1883SOL    MW4 7300   5.241   5.260   6.100  0.1634 -0.1775  0.1722
 1884SOL     OW 7301   4.144   6.024   0.324  0.0937 -0.1689 -0.1954
 1884SOL    HW2 7302   4.108   6.111   0.307  1.7518  0.6796  0.4280
 1884SOL    HW3 7303   4.233   6.040   0.354 -0.5683 -1.8710  3.1731
 1884SOL    MW4 7304   4.151   6.038   0.326  0.4456 -0.1428 -1.0348
 1885SOL     OW 7305   3.713   1.652   2.304 -0.0402  0.4354 -0.2968
 1885SOL    HW2 7306   3.744   1.715   2.368  0.4862  1.8385 -1.8477
 1885SOL    HW3 7307   3.627   1.685   2.277 -1.2478 -1.3234  1.1906
 1885SOL    MW4 7308   3.706   1.665   2.309 -0.1036 -0.0619  0.6523
 1886SOL     OW 7309   3.822   0.797   4.381  0.2318 -0.1175 -0.4312
 1886SOL    HW2 7310   3.784   0.740   4.448 -0.4673  1.7077  0.8091
 1886SOL    HW3 7311   3.913   0.810   4.409 -0.3174  1.4160  0.7742
 1886SOL    MW4 7312   3.829   0.791   4.394 -0.0207  0.4186 -0.1069
 1887SOL     OW 7313   4.358   4.829   2.646  0.3919  0.3345 -0.5839
 1887SOL    HW2 7314   4.431   4.801   2.591  0.7371 -1.5952  0.7400
 1887SOL    HW3 7315   4.345   4.756   2.707 -1.3147  1.5039  0.5396
 1887SOL    MW4 7316   4.366   4.816   2.647 -0.7113 -0.1106  0.6393
 1888SOL     OW 7317   2.754   4.223   3.722  0.0648  0.3695 -0.3405
 1888SOL    HW2 7318   2.709   4.288   3.775 -0.1134  1.0207 -1.2570
 1888SOL    HW3 7319   2.812   4.274   3.665 -2.5146  0.1183 -3.4890
 1888SOL    MW4 7320   2.756   4.238   3.721 -0.2441  0.7274 -0.0665
 1889SOL     OW 7321   4.694   5.675   3.913 -0.4608 -0.0184 -0.1469
 1889SOL    HW2 7322   4.747   5.743   3.954  0.2152 -1.0374  0.7163
 1889SOL    HW3 7323   4.723   5.593   3.953 -1.1381 -0.8514 -1.2703
 1889SOL    MW4 7324   4.705   5.673   3.923 -0.0167  0.3957 -0.1887
 1890SOL     OW 7325   5.844   1.103   0.252  0.4539  0.5636 -0.0602
 1890SOL    HW2 7326   5.870   1.194   0.264  1.9820  0.4058 -1.8219
 1890SOL    HW3 7327   5.787   1.104   0.175 -1.4495  0.2995  1.2683
 1890SOL    MW4 7328   5.840   1.115   0.244 -0.1724  0.3442  0.1915
 1891SOL     OW 7329   6.028   2.194   2.226 -0.1164 -0.0046 -0.1444
 1891SOL    HW2 7330   5.956   2.135   2.206 -0.5530 -0.1821  1.7206
 1891SOL    HW3 7331   6.107   2.141   2.215 -0.5430 -1.3123  2.4006
 1891SOL    MW4 7332   6.029   2.180   2.222 -0.5287  0.2719  0.4231
 1892SOL     OW 7333   5.458   2.201   5.463  0.0217  0.0514 -0.0999
 1892SOL    HW2 7334   5.518   2.142   5.418 -0.8444 -0.5370 -0.5096
 1892SOL    HW3 7335   5.510   2.240   5.533  0.5122 -1.5239  0.4549
 1892SOL    MW4 7336   5.472   2.199   5.466  0.1263 -0.2303 -0.8138
 1893SOL     OW 7337   2.950   0.138   1.457  0.4189 -0.2043 -0.2297
 1893SOL    HW2 7338   2.934   0.098   1.371  0.3961 -0.4198 -0.1261
 1893SOL    HW3 7339   2.909   0.224   1.451  1.6322  0.3467 -0.9208
 1893SOL    MW4 7340   2.942   0.144   1.445  0.2513  0.4693 -0.2613
 1894SOL     OW 7341   0.468   5.732   1.338  0.4308 -0.0232  0.4064
 1894SOL    HW2 7342   0.559   5.735   1.365  0.8380  2.8776 -0.8341
 1894SOL    HW3 7343   0.436   5.822   1.351 -1.9749 -0.7179 -0.0698
 1894SOL    MW4 7344   0.476   5.744   1.343 -0.0078  0.2412  0.1197
 1895SOL     OW 7345   1.156   3.868   1.596 -0.1877 -0.2460  0.0079
 1895SOL    HW2 7346   1.126   3.818   1.672  1.4764 -0.8785  0.2747
 1895SOL    HW3 7347   1.249   3.885   1.613  0.1188 -0.0517 -1.7085
 1895SOL    MW4 7348   1.164   3.864   1.608 -0.3448 -0.3498  0.5939
 1896SOL     OW 7349   5.305   1.201   3.205 -0.0242 -0.2328  0.1579
 1896SOL    HW2 7350   5.244   1.238   3.269 -0.0727 -0.9577  0.5443
 1896SOL    HW3 7351   5.263   1.119   3.176  0.3432 -0.2852 -0.2500
 1896SOL    MW4 7352   5.291   1.195   3.209  0.0934 -0.1352 -0.4447
 1897SOL     OW 7353   2.192   2.042   4.501 -0.4894 -0.1803 -0.0945
 1897SOL    HW2 7354   2.125   2.040   4.570 -0.5547 -1.2494 -0.1823
 1897SOL    HW3 7355   2.148   2.007   4.424  0.0700 -0.5551 -0.2456
 1897SOL    MW4 7356   2.177   2.037   4.500 -0.1238 -0.5993  0.8380
 1898SOL     OW 7357   2.811   0.933   0.751  0.6073  0.3190 -0.0480
 1898SOL    HW2 7358   2.777   1.016   0.719  1.0554  0.4293 -0.2396
 1898SOL    HW3 7359   2.755   0.911   0.826 -0.9888 -0.3375 -1.3616
 1898SOL    MW4 7360   2.799   0.941   0.757  0.1509 -0.2282  0.0926
 1899SOL     OW 7361   5.547   0.431   1.871  0.0505  0.0544 -0.0568
 1899SOL    HW2 7362   5.500   0.454   1.791 -0.7538  0.5369  0.5442
 1899SOL    HW3 7363   5.626   0.385   1.840 -0.7920 -0.7402 -1.0810
 1899SOL    MW4 7364   5.552   0.428   1.856 -0.0090 -0.4572  0.4715
 1900SOL     OW 7365   2.461   0.375   1.042 -0.2378  0.0701 -0.0137
 1900SOL    HW2 7366   2.409   0.454   1.028  0.3500  0.3201 -0.9055
 1900SOL    HW3 7367   2.424   0.335   1.120 -1.4036  0.5259 -0.3178
 1900SOL    MW4 7368   2.449   0.381   1.050 -0.1002  0.3770  0.0680
 1901SOL     OW 7369   6.281   4.717   4.353 -0.4650 -0.1490  0.3840
 1901SOL    HW2 7370   6.251   4.716   4.444  0.9254  0.5070  0.8777
 1901SOL    HW3 7371   6.301   4.809   4.336 -0.6595 -0.2758 -0.5789
 1901SOL    MW4 7372   6.280   4.729   4.363  0.8849 -0.7019  0.3845
 1902SOL     OW 7373   5.054   1.734   0.896  0.3819 -0.0094  0.8156
 1902SOL    HW2 7374   4.963   1.709   0.909  0.2926 -0.1277  0.0101
 1902SOL    HW3 7375   5.057   1.768   0.806  1.2020 -0.3448  0.7084
 1902SOL    MW4 7376   5.043   1.735   0.886  0.5467 -0.1043 -0.1890
 1903SOL     OW 7377   5.921   4.819   5.636  0.6695 -0.4762  0.1152
 1903SOL    HW2 7378   6.001   4.788   5.679  0.1410 -0.9221  0.7986
 1903SOL    HW3 7379   5.930   4.792   5.545  1.2528 -0.6037  0.2086
 1903SOL    MW4 7380   5.933   4.812   5.630  0.2587 -0.0272  0.2599
 1904SOL     OW 7381   5.480   4.018   0.872  0.1135 -0.1203 -0.2098
 1904SOL    HW2 7382   5.387   4.037   0.867  0.0544 -0.0119  0.9962
 1904SOL    HW3 7383   5.491   3.937   0.823 -0.3954  0.5161 -1.4266
 1904SOL    MW4 7384   5.469   4.010   0.865 -0.1578  0.0961 -0.5268
 1905SOL     OW 7385   5.507   1.308   5.963 -0.2728 -0.1090  0.4990
 1905SOL    HW2 7386   5.420   1.328   5.998 -1.6588 -1.9343 -1.7035
 1905SOL    HW3 7387   5.507   1.346   5.876 -0.5516 -3.6550 -1.2112
 1905SOL    MW4 7388   5.496   1.316   5.956  0.0722  0.0727  0.5186
 1906SOL     OW 7389   3.545   0.165   1.045  0.3768 -0.2337  0.1226
 1906SOL    HW2 7390   3.623   0.115   1.067  0.3288 -0.1377  0.5382
 1906SOL    HW3 7391   3.486   0.151   1.119  0.3068  0.3134  0.1808
 1906SOL    MW4 7392   3.547   0.157   1.058 -0.3843  0.4036  0.3157
 1907SOL     OW 7393   1.343   2.167   0.881 -0.6484  0.2099 -0.4811
 1907SOL    HW2 7394   1.295   2.185   0.800 -0.5793  0.9537 -0.3578
 1907SOL    HW3 7395   1.337   2.248   0.931 -0.4817 -0.1668  0.1573
 1907SOL    MW4 7396   1.336   2.180   0.877  0.1470 -0.4123  0.4744
 1908SOL     OW 7397   5.541   0.167   1.157 -0.1871 -0.0915  0.0729
 1908SOL    HW2 7398   5.530   0.164   1.061  0.1683  1.0488 -0.0092
 1908SOL    HW3 7399   5.588   0.086   1.178  0.1688 -0.1131 -0.7716
 1908SOL    MW4 7400   5.545   0.156   1.147  0.3640 -0.0216 -0.1361
 1909SOL     OW 7401   1.384   0.759   3.587 -0.1621 -0.3288 -0.5375
 1909SOL    HW2 7402   1.355   0.717   3.506 -1.6540 -1.4246  0.4910
 1909SOL    HW3 7403   1.437   0.693   3.631  0.6450  0.2603 -0.6083
 1909SOL    MW4 7404   1.387   0.745   3.582  0.3252 -0.1574 -0.3009
 1910SOL     OW 7405   1.878   5.857   4.103  0.3966 -0.5361 -0.6727
 1910SOL    HW2 7406   1.950   5.832   4.045 -0.2154 -0.1440 -1.6341
 1910SOL    HW3 7407   1.802   5.865   4.045  0.2496  2.1318 -0.2349
 1910SOL    MW4 7408   1.877   5.855   4.088 -0.1518  0.9304  0.2947
 1911SOL     OW 7409   4.953   3.992   5.353 -0.0546  0.1692 -0.2854
 1911SOL    HW2 7410   4.874   4.032   5.316 -0.7476  3.3606  3.9210
 1911SOL    HW3 7411   4.920   3.932   5.420  1.1537 -1.2846 -0.9429
 1911SOL    MW4 7412   4.938   3.989   5.357  0.3284  0.2832  0.0331
 1912SOL     OW 7413   0.714   3.710   3.087  0.9399 -0.4140  0.0433
 1912SOL    HW2 7414   0.754   3.797   3.087  0.0161  0.0742  2.3042
 1912SOL    HW3 7415   0.623   3.724   3.061  0.6827 -0.6292  0.7965
 1912SOL    MW4 7416   0.707   3.723   3.084 -0.5255  1.0840 -0.0579
 1913SOL     OW 7417   4.224   0.178   2.526  0.3410  0.5643 -0.4539
 1913SOL    HW2 7418   4.208   0.089   2.496 -1.8578  0.5936  0.4773
 1913SOL    HW3 7419   4.231   0.229   2.446  2.2129 -0.4643 -1.0211
 1913SOL    MW4 7420   4.223   0.173   2.512 -0.4531  0.3526 -0.2079
 1914SOL     OW 7421   4.769   5.869   2.439  0.4583  0.0015 -0.2074
 1914SOL    HW2 7422   4.749   5.943   2.382  1.0192  0.7470  0.5298
 1914SOL    HW3 7423   4.686   5.850   2.484  0.6082  1.0637  0.5699
 1914SOL    MW4 7424   4.755   5.876   2.437  0.2226 -0.5018  0.2004
 1915SOL     OW 7425   3.008   3.767   4.279 -0.0396 -0.3959  0.5128
 1915SOL    HW2 7426   3.089   3.764   4.227 -0.3179  2.5933 -0.2951
 1915SOL    HW3 7427   2.947   3.818   4.225 -1.5176 -0.1510  2.3140
 1915SOL    MW4 7428   3.011   3.773   4.265  0.3480 -0.1845  0.2105
 1916SOL     OW 7429   1.598   3.630   4.500 -0.0963  0.3326  0.2956
 1916SOL    HW2 7430   1.645   3.550   4.526  0.8295  0.6425 -0.3770
 1916SOL    HW3 7431   1.528   3.639   4.565 -0.6948 -1.4373 -0.0421
 1916SOL    MW4 7432   1.595   3.621   4.512  0.2165  0.5195 -0.4888
 1917SOL     OW 7433   5.170   1.504   1.472 -0.2579 -0.0582  0.2166
 1917SOL    HW2 7434   5.167   1.553   1.554  0.0932  0.0505  0.1657
 1917SOL    HW3 7435   5.210   1.420   1.495 -1.6959 -0.7110  0.4937
 1917SOL    MW4 7436   5.175   1.499   1.486  0.1075 -0.7619 -0.5209
 1918SOL     OW 7437   4.198   5.634   4.124  0.2493 -0.4665  0.0205
 1918SOL    HW2 7438   4.244   5.557   4.092  0.4419 -0.6450  0.7074
 1918SOL    HW3 7439   4.106   5.618   4.102  0.4199 -0.4011 -0.7827
 1918SOL    MW4 7440   4.192   5.622   4.117 -0.2758  0.0434  0.3901
 1919SOL     OW 7441   0.409   4.900   0.960  0.5325  0.0702  0.6227
 1919SOL    HW2 7442   0.391   4.984   1.002 -0.4160 -0.1617  0.7141
 1919SOL    HW3 7443   0.447   4.846   1.029  2.5432  0.8573  0.1973
 1919SOL    MW4 7444   0.412   4.904   0.974 -0.4071 -0.3172 -0.0937
 1920SOL     OW 7445   4.305   1.712   4.424  0.6137  0.6971  0.3632
 1920SOL    HW2 7446   4.321   1.783   4.487  1.7509  0.6772  0.1216
 1920SOL    HW3 7447   4.212   1.692   4.434  0.9339  0.0349  2.7704
 1920SOL    MW4 7448   4.295   1.719   4.434  0.1092 -0.3855 -0.4677
 1921SOL     OW 7449   4.535   0.147   1.249 -0.1075  0.3382 -0.1352
 1921SOL    HW2 7450   4.603   0.083   1.226 -2.0550 -1.4202 -1.3097
 1921SOL    HW3 7451   4.543   0.156   1.344  0.9172 -0.8315 -0.0787
 1921SOL    MW4 7452   4.545   0.140   1.259  0.4750 -0.0291  0.1053
 1922SOL     OW 7453   4.013   1.832   0.494 -0.2533  0.0492 -0.2685
 1922SOL    HW2 7454   4.035   1.784   0.414 -1.7475  1.4882 -1.6004
 1922SOL    HW3 7455   3.980   1.765   0.554 -1.0820 -0.7946 -1.6125
 1922SOL    MW4 7456   4.012   1.817   0.491 -0.2846  0.5709 -0.3931
 1923SOL     OW 7457   3.204   4.731   2.836 -0.1700 -0.2948 -0.4382
 1923SOL    HW2 7458   3.260   4.807   2.824  1.6740 -1.4606  0.3568
 1923SOL    HW3 7459   3.147   4.731   2.760  0.3842  1.3762 -0.8932
 1923SOL    MW4 7460   3.204   4.741   2.825  0.1300  0.4590 -0.0699
 1924SOL     OW 7461   3.537   5.248   3.320 -0.2458  0.7279  0.0643
 1924SOL    HW2 7462   3.618   5.296   3.302  0.0740  1.2344  2.5869
 1924SOL    HW3 7463   3.560   5.156   3.303  0.7937  0.8834  0.5381
 1924SOL    MW4 7464   3.551   5.242   3.315  0.1776 -0.1917 -0.1700
 1925SOL     OW 7465   2.239   0.846   5.744  0.0851 -0.4559  0.8299
 1925SOL    HW2 7466   2.146   0.825   5.741 -0.4472  1.7285  0.5423
 1925SOL    HW3 7467   2.267   0.821   5.832 -1.0426 -0.1051  1.2932
 1925SOL    MW4 7468   2.231   0.840   5.755  0.2817 -0.1597 -0.0609
 1926SOL     OW 7469   6.004   5.294   5.254  0.4092 -0.2411  0.2700
 1926SOL    HW2 7470   6.041   5.206   5.243  0.2391 -0.3138  0.2759
 1926SOL    HW3 7471   6.016   5.313   5.347 -0.3843 -0.6367  0.4628
 1926SOL    MW4 7472   6.010   5.285   5.265  0.3778  0.7330 -0.5972
 1927SOL     OW 7473   2.674   3.428   4.157  0.5525 -0.3860 -0.0915
 1927SOL    HW2 7474   2.597   3.394   4.203 -0.1635  0.6926 -0.4558
 1927SOL    HW3 7475   2.729   3.464   4.226  0.0471  0.1424  0.0409
 1927SOL    MW4 7476   2.671   3.428   4.172 -0.4945 -0.1561  0.5079
 1928SOL     OW 7477   4.849   5.228   4.573 -0.0721  0.1591  0.0878
 1928SOL    HW2 7478   4.807   5.298   4.524 -1.1096 -1.2958 -1.2146
 1928SOL    HW3 7479   4.866   5.265   4.660 -3.6263  1.0082  0.5585
 1928SOL    MW4 7480   4.846   5.242   4.578 -0.7529 -0.1729 -0.4749
 1929SOL     OW 7481   2.024   3.205   4.917 -0.5913 -0.4099  0.3379
 1929SOL    HW2 7482   2.046   3.240   4.831  0.6896  0.7808  1.1221
 1929SOL    HW3 7483   1.994   3.116   4.898 -1.8395  0.3229 -1.4809
 1929SOL    MW4 7484   2.023   3.198   4.903  0.0861  0.4599  0.2132
 1930SOL     OW 7485   0.089   1.317   0.970 -0.3849  0.4586 -0.4966
 1930SOL    HW2 7486   0.005   1.272   0.962  0.2552 -0.6647 -1.0893
 1930SOL    HW3 7487   0.127   1.284   1.051  0.0156  0.0346 -0.8513
 1930SOL    MW4 7488   0.083   1.307   0.979 -0.0364  0.0491  0.3996
 1931SOL     OW 7489   4.931   2.170   1.416  0.8837 -0.0979  0.2886
 1931SOL    HW2 7490   4.839   2.182   1.393  0.3254 -0.4084  2.2134
 1931SOL    HW3 7491   4.938   2.197   1.507  2.5374 -0.8429  0.4330
 1931SOL    MW4 7492   4.920   2.175   1.425 -0.0588 -0.1939  0.4944
 1932SOL     OW 7493   2.569   1.575   0.171 -0.2541 -0.1561 -0.5844
 1932SOL    HW2 7494   2.568   1.511   0.101  0.7454  0.9532 -1.6612
 1932SOL    HW3 7495   2.484   1.618   0.166 -1.2305 -1.8026  0.6121
 1932SOL    MW4 7496   2.558   1.572   0.161  0.0785 -0.7292 -0.3260
 1933SOL     OW 7497   3.030   4.334   1.056 -0.1543 -0.4077 -0.1192
 1933SOL    HW2 7498   2.980   4.296   0.984 -0.4178 -0.6891  0.2067
 1933SOL    HW3 7499   2.967   4.341   1.128 -0.6645  2.4947 -0.7334
 1933SOL    MW4 7500   3.015   4.330   1.056 -0.3890 -0.6316  0.2368
 1934SOL     OW 7501   0.359   3.322   2.047  0.0815 -0.0873 -0.5347
 1934SOL    HW2 7502   0.308   3.401   2.065  1.3247  0.5653  0.2154
 1934SOL    HW3 7503   0.293   3.258   2.021 -1.6081 -0.3074  3.5211
 1934SOL    MW4 7504   0.343   3.324   2.046  0.0949 -0.2487  0.4877
 1935SOL     OW 7505   2.697   3.141   5.207 -0.3473  1.2292  0.0156
 1935SOL    HW2 7506   2.651   3.059   5.224  0.8209  0.5423 -0.0157
 1935SOL    HW3 7507   2.647   3.207   5.255  0.3291  0.0463  2.5255
 1935SOL    MW4 7508   2.684   3.139   5.215 -0.4865  0.2666  0.0645
 1936SOL     OW 7509   3.389   1.326   4.964 -0.2081 -0.5667  0.7184
 1936SOL    HW2 7510   3.360   1.235   4.968  1.3836 -1.0707  1.9266
 1936SOL    HW3 7511   3.484   1.320   4.951 -0.1273  0.9336  0.4859
 1936SOL    MW4 7512   3.398   1.313   4.963  0.6946 -0.2373  0.2558
 1937SOL     OW 7513   4.103   1.382   1.150 -0.0442  0.6244 -0.1015
 1937SOL    HW2 7514   4.135   1.300   1.187 -0.3442  0.9745  0.9713
 1937SOL    HW3 7515   4.133   1.381   1.059  3.5748  1.2049  0.9163
 1937SOL    MW4 7516   4.111   1.371   1.143  0.8308 -0.1297 -0.0601
 1938SOL     OW 7517   4.605   0.331   5.523 -0.0204  0.5310 -0.0771
 1938SOL    HW2 7518   4.520   0.331   5.567 -0.9515  1.0639 -1.8019
 1938SOL    HW3 7519   4.648   0.251   5.555 -0.5646  0.9446  1.8622
 1938SOL    MW4 7520   4.600   0.320   5.533 -0.6510  0.6678  0.4438
 1939SOL     OW 7521   0.679   0.267   4.102  0.0294 -0.2151 -0.1457
 1939SOL    HW2 7522   0.634   0.184   4.086 -0.7591  0.3671 -0.9998
 1939SOL    HW3 7523   0.630   0.332   4.052  1.6318  0.5098 -0.8475
 1939SOL    MW4 7524   0.667   0.264   4.094  0.1005 -0.2117  0.2407
 1940SOL     OW 7525   2.831   2.539   2.736 -0.5743  0.5034 -0.4715
 1940SOL    HW2 7526   2.851   2.448   2.755 -2.4829  0.3117  0.8593
 1940SOL    HW3 7527   2.867   2.554   2.648  2.1480 -0.6925  0.3387
 1940SOL    MW4 7528   2.839   2.529   2.727  0.2334  0.1948 -0.4181
 1941SOL     OW 7529   5.377   4.053   0.534  0.2813 -0.3130 -0.1924
 1941SOL    HW2 7530   5.366   4.129   0.592 -2.2357 -0.3145 -0.5250
 1941SOL    HW3 7531   5.443   4.080   0.471  2.7684 -0.1261  2.2947
 1941SOL    MW4 7532   5.384   4.066   0.533 -0.0193  0.2381  0.5349
 1942SOL     OW 7533   3.282   4.844   1.828  0.1233  0.0185  0.0700
 1942SOL    HW2 7534   3.294   4.928   1.871 -1.8838  0.8737 -0.9307
 1942SOL    HW3 7535   3.208   4.803   1.873  0.5633 -0.8743  0.0197
 1942SOL    MW4 7536   3.274   4.849   1.839  0.0730 -0.2309  0.5035
 1943SOL     OW 7537   5.219   5.801   6.317 -0.3308  0.5989 -0.2002
 1943SOL    HW2 7538   5.184   5.846   6.394 -3.8097 -3.1111  0.7113
 1943SOL    HW3 7539   5.308   5.776   6.341 -0.9753  0.4299  2.2058
 1943SOL    MW4 7540   5.226   5.804   6.330 -0.0391 -0.2990 -0.1048
 1944SOL     OW 7541   1.693   2.278   4.749 -0.6728 -1.0066  0.0918
 1944SOL    HW2 7542   1.671   2.185   4.758 -0.2062 -1.3714 -1.9403
 1944SOL    HW3 7543   1.686   2.294   4.655 -0.0932  0.8640  0.3383
 1944SOL    MW4 7544   1.689   2.268   4.738 -0.1819  0.4053  0.1201
 1945SOL     OW 7545   5.094   4.436   3.003  0.4715 -0.0355  0.7018
 1945SOL    HW2 7546   5.138   4.399   2.927  0.1772  0.8158  0.1104
 1945SOL    HW3 7547   5.063   4.521   2.974 -0.4692 -0.0965  1.4922
 1945SOL    MW4 7548   5.096   4.442   2.990  0.0811  0.8842 -0.7255
 1946SOL     OW 7549   4.950   3.689   5.182  0.0766  0.2415  0.1577
 1946SOL    HW2 7550   4.857   3.678   5.200  0.3081 -0.0796  1.2721
 1946SOL    HW3 7551   4.953   3.737   5.100 -1.1087  2.2488  1.2102
 1946SOL    MW4 7552   4.938   3.694   5.173  0.4889 -0.1691  0.0233
 1947SOL     OW 7553   3.783   6.186   1.681  0.0454 -0.1760 -0.2688
 1947SOL    HW2 7554   3.810   6.216   1.594  0.5158 -2.0346 -0.8133
 1947SOL    HW3 7555   3.697   6.225   1.694  0.9409  2.0175 -0.5424
 1947SOL    MW4 7556   3.775   6.195   1.671  0.0806 -0.5129 -0.0846
 1948SOL     OW 7557   1.066   6.098   4.635  0.0858 -0.7454  0.0866
 1948SOL    HW2 7558   1.052   6.044   4.712  0.6174 -1.1641 -0.1136
 1948SOL    HW3 7559   1.113   6.042   4.573 -1.3408 -0.8059 -0.9989
 1948SOL    MW4 7560   1.070   6.084   4.637  0.2204  0.1252  0.0575
 1949SOL     OW 7561   4.066   0.428   4.826 -0.4758 -0.0814  0.2014
 1949SOL    HW2 7562   4.097   0.412   4.736 -0.1231 -0.6649  0.4250
 1949SOL    HW3 7563   4.035   0.343   4.857 -0.3437  0.0589  0.7289
 1949SOL    MW4 7564   4.066   0.415   4.818 -0.5575 -0.0471  0.4576
 1950SOL     OW 7565   1.543   0.801   5.824 -0.0916  0.5148 -0.1583
 1950SOL    HW2 7566   1.600   0.836   5.892  0.8055 -0.2108 -0.5270
 1950SOL    HW3 7567   1.495   0.877   5.792 -1.5203  0.7059  2.1581
 1950SOL    MW4 7568   1.544   0.816   5.829 -0.0723  0.6895  0.1936
 1951SOL     OW 7569   2.701   1.375   5.026 -0.4788 -0.5083 -0.0957
 1951SOL    HW2 7570   2.712   1.368   4.931  0.6788 -0.2814 -0.0018
 1951SOL    HW3 7571   2.663   1.461   5.040  0.0350 -0.2388 -0.3209
 1951SOL    MW4 7572   2.698   1.385   5.015 -0.1221 -0.7587 -0.1442
 1952SOL     OW 7573   3.763   0.809   3.066 -0.2613  0.3399  0.3040
 1952SOL    HW2 7574   3.707   0.819   2.989 -0.4910  1.5856  0.6247
 1952SOL    HW3 7575   3.768   0.714   3.078  0.6401  0.0505 -1.8501
 1952SOL    MW4 7576   3.756   0.797   3.057  0.1960 -0.0952  0.0195
 1953SOL     OW 7577   4.536   6.304   0.705  0.1451  0.5482 -0.0638
 1953SOL    HW2 7578   4.553   6.397   0.720 -0.3748  0.5749  0.3666
 1953SOL    HW3 7579   4.519   6.268   0.792 -0.2729  0.1699 -0.3002
 1953SOL    MW4 7580   4.536   6.311   0.719 -0.5116  0.5312  0.4256
 1954SOL     OW 7581   0.824   2.739   4.344 -0.1832  0.3143  0.6052
 1954SOL    HW2 7582   0.735   2.743   4.380 -0.7398 -1.0834 -0.4709
 1954SOL    HW3 7583   0.881   2.737   4.420 -1.2887 -2.2944  1.4958
 1954SOL    MW4 7584   0.820   2.739   4.359 -0.3186  0.0666  0.1405
 1955SOL     OW 7585   4.428   0.915   2.866 -0.5693  0.5088 -0.5453
 1955SOL    HW2 7586   4.390   1.000   2.890  0.1666  0.8002 -0.3875
 1955SOL    HW3 7587   4.497   0.937   2.804 -0.5361 -0.0007 -0.6853
 1955SOL    MW4 7588   4.432   0.929   2.861  0.1866 -0.1902  1.1699
 1956SOL     OW 7589   0.564   6.278   0.793 -0.5548  1.0875 -0.1954
 1956SOL    HW2 7590   0.550   6.190   0.757  1.0227 -0.2866  2.2442
 1956SOL    HW3 7591   0.658   6.292   0.785 -0.5044  1.6913  1.2351
 1956SOL    MW4 7592   0.574   6.268   0.787  0.0887 -0.2429 -0.3913
 1957SOL     OW 7593   3.794   0.645   1.870  0.3739 -0.3489  0.4779
 1957SOL    HW2 7594   3.786   0.709   1.940  1.2015 -0.1365  0.3885
 1957SOL    HW3 7595   3.709   0.602   1.867 -0.8495  1.9654 -0.6306
 1957SOL    MW4 7596   3.782   0.648   1.879 -0.3197 -0.2155 -0.7118
 1958SOL     OW 7597   1.509   4.604   5.789 -0.3812 -0.0989 -0.2430
 1958SOL    HW2 7598   1.576   4.657   5.746 -0.2539  1.4818  1.7654
 1958SOL    HW3 7599   1.427   4.646   5.765 -0.6247 -1.3113 -1.7039
 1958SOL    MW4 7600   1.507   4.616   5.780  0.4908  0.5291  0.1598
 1959SOL     OW 7601   2.408   6.110   2.158  0.1816  0.2422  0.2847
 1959SOL    HW2 7602   2.495   6.088   2.192  0.4555  2.9310  1.5450
 1959SOL    HW3 7603   2.371   6.169   2.223 -1.1863  1.9085 -1.8676
 1959SOL    MW4 7604   2.415   6.115   2.171  0.0886 -0.6269  0.4266
 1960SOL     OW 7605   1.287   2.085   5.633  0.3855 -0.4821  0.1482
 1960SOL    HW2 7606   1.257   2.013   5.687  0.4795 -1.3919 -0.9817
 1960SOL    HW3 7607   1.298   2.158   5.694 -1.4212 -0.9076  1.0306
 1960SOL    MW4 7608   1.285   2.085   5.648 -0.1012 -0.0784 -0.0522
 1961SOL     OW 7609   1.628   6.220   2.516 -0.1519 -0.5502  0.4067
 1961SOL    HW2 7610   1.559   6.245   2.577 -0.4310 -0.2440 -0.0250
 1961SOL    HW3 7611   1.586   6.222   2.430  0.6521  0.7884 -0.0031
 1961SOL    MW4 7612   1.614   6.224   2.512 -0.1719  0.1861 -0.3294
 1962SOL     OW 7613   0.980   3.279   0.895 -0.0687  0.1107  0.7316
 1962SOL    HW2 7614   0.972   3.365   0.856  1.1579  0.8415  1.9986
 1962SOL    HW3 7615   0.904   3.271   0.953 -0.5319  0.0489  0.1283
 1962SOL    MW4 7616   0.969   3.289   0.898  0.6121 -0.0815  0.9671
 1963SOL     OW 7617   5.115   1.917   2.927 -0.0256 -0.0171  0.3904
 1963SOL    HW2 7618   5.085   1.991   2.873  0.5413 -0.6917 -0.8949
 1963SOL    HW3 7619   5.104   1.840   2.871  1.9536 -0.5602  0.6707
 1963SOL    MW4 7620   5.110   1.917   2.912  0.5120  0.0782  0.2205
 1964SOL     OW 7621   5.691   1.768   0.680 -0.3538  0.4054 -0.1885
 1964SOL    HW2 7622   5.773   1.813   0.658 -0.3230 -0.2767 -1.5638
 1964SOL    HW3 7623   5.715   1.675   0.679 -0.7745  0.2658  1.0851
 1964SOL    MW4 7624   5.705   1.762   0.677  0.5945  0.0325 -0.3818
 1965SOL     OW 7625   5.460   4.530   4.912  0.1224  0.4624 -0.2486
 1965SOL    HW2 7626   5.374   4.571   4.901  0.2034  0.6240 -0.2799
 1965SOL    HW3 7627   5.522   4.597   4.883  0.3378  0.8402  1.0527
 1965SOL    MW4 7628   5.457   4.544   4.906 -0.2423  0.1795  0.1508
 1966SOL     OW 7629   2.758   6.067   5.455 -0.1315 -0.7761  0.5970
 1966SOL    HW2 7630   2.841   6.111   5.477 -0.6593  0.4163  0.2825
 1966SOL    HW3 7631   2.776   6.024   5.371  0.0882 -0.2604  0.3732
 1966SOL    MW4 7632   2.772   6.067   5.447 -0.4033  0.3223  0.4868
 1967SOL     OW 7633   3.934   5.191   1.980  0.6604  0.2883 -0.2674
 1967SOL    HW2 7634   4.020   5.215   1.947  0.4599  1.3620 -0.0345
 1967SOL    HW3 7635   3.948   5.108   2.025  1.5047  0.2892 -0.5167
 1967SOL    MW4 7636   3.947   5.183   1.982 -0.2248  0.8345  0.4961
 1968SOL     OW 7637   0.124   1.182   4.360 -0.3865 -0.0207 -0.1021
 1968SOL    HW2 7638   0.214   1.172   4.328 -0.1614  1.3016  0.0743
 1968SOL    HW3 7639   0.109   1.104   4.412 -0.6095 -2.0830 -3.0208
 1968SOL    MW4 7640   0.134   1.171   4.362  0.0370 -0.9586  0.0073
 1969SOL     OW 7641   1.053   3.548   3.341  0.0084 -0.2065  0.1045
 1969SOL    HW2 7642   1.026   3.602   3.415 -1.0366 -1.2224  0.4971
 1969SOL    HW3 7643   1.100   3.475   3.380 -1.8669 -1.5719 -0.0261
 1969SOL    MW4 7644   1.056   3.545   3.356  0.4181  0.3173 -0.8668
 1970SOL     OW 7645   5.521   3.415   4.359  0.5377  0.3262  0.4611
 1970SOL    HW2 7646   5.490   3.400   4.270  0.0721  1.4899  0.4090
 1970SOL    HW3 7647   5.601   3.465   4.349  0.2467  0.8539  0.6910
 1970SOL    MW4 7648   5.527   3.420   4.346  0.0764  0.2240 -0.3738
 1971SOL     OW 7649   4.810   2.685   2.677  0.3529 -0.4822  0.0592
 1971SOL    HW2 7650   4.761   2.762   2.648  0.3196 -0.4760  0.1311
 1971SOL    HW3 7651   4.871   2.719   2.742 -0.0468 -0.6010  0.5034
 1971SOL    MW4 7652   4.811   2.700   2.682  0.3786  0.2405  0.3944
 1972SOL     OW 7653   4.885   0.955   2.708  0.6013 -0.3309  0.5059
 1972SOL    HW2 7654   4.926   1.041   2.701 -0.6394  0.2045 -0.9574
 1972SOL    HW3 7655   4.880   0.938   2.802  1.6259  0.8104  0.7933
 1972SOL    MW4 7656   4.889   0.964   2.719  0.2802  0.1315  1.0811
 1973SOL     OW 7657   1.851   6.417   2.210 -0.0123 -0.0980 -0.2168
 1973SOL    HW2 7658   1.793   6.366   2.153  1.1372  0.6313 -2.1332
 1973SOL    HW3 7659   1.868   6.497   2.161 -0.7538  1.6230  2.1687
 1973SOL    MW4 7660   1.846   6.421   2.196  0.4971  0.9969  0.2016
 1974SOL     OW 7661   5.670   4.559   3.079 -0.3244 -0.2045  0.0708
 1974SOL    HW2 7662   5.732   4.498   3.041 -0.7009 -0.7536  0.3312
 1974SOL    HW3 7663   5.615   4.506   3.136 -1.3427  0.1913 -0.5172
 1974SOL    MW4 7664   5.671   4.544   3.082  0.2833 -0.5682  0.0192
 1975SOL     OW 7665   5.380   5.903   3.173  0.8999 -0.3050 -0.4263
 1975SOL    HW2 7666   5.440   5.973   3.198  0.2587 -0.0604  0.4862
 1975SOL    HW3 7667   5.357   5.861   3.256  1.1978 -1.5418 -0.9473
 1975SOL    MW4 7668   5.385   5.906   3.187 -0.0422 -0.5635  0.2056
 1976SOL     OW 7669   5.702   3.376   0.091  0.3525 -0.1064 -0.0092
 1976SOL    HW2 7670   5.712   3.307   0.025  0.1054 -0.1053 -0.0494
 1976SOL    HW3 7671   5.631   3.345   0.147 -0.2867  0.4589 -0.4825
 1976SOL    MW4 7672   5.694   3.363   0.089 -0.0018  0.0557 -0.3454
 1977SOL     OW 7673   2.267   4.996   5.255 -0.2147 -0.2705  0.1384
 1977SOL    HW2 7674   2.311   4.959   5.332  1.4537 -3.6373 -2.1806
 1977SOL    HW3 7675   2.180   4.957   5.257 -0.1756 -0.3533  0.3068
 1977SOL    MW4 7676   2.262   4.986   5.265 -0.0867 -0.5672  0.8436
 1978SOL     OW 7677   2.995   2.459   5.970 -0.1005  0.7950  0.5144
 1978SOL    HW2 7678   3.068   2.443   5.909 -2.7102 -0.2324 -2.6590
 1978SOL    HW3 7679   2.985   2.554   5.971  0.4246  0.8638 -0.1205
 1978SOL    MW4 7680   3.003   2.469   5.962  0.6368  0.0072  0.2837
 1979SOL     OW 7681   3.520   3.220   1.321  0.2946  0.2560  0.2864
 1979SOL    HW2 7682   3.585   3.201   1.389  0.2345  0.4753  0.4056
 1979SOL    HW3 7683   3.506   3.136   1.277  0.8697  0.2749  0.0720
 1979SOL    MW4 7684   3.526   3.206   1.324 -0.6472 -0.0390  0.5991
 1980SOL     OW 7685   4.619   0.067   2.689  0.2826  0.6730  0.3429
 1980SOL    HW2 7686   4.551   0.032   2.748 -0.5377  0.3125 -0.7895
 1980SOL    HW3 7687   4.598   0.160   2.680  0.2558  0.6731  0.4029
 1980SOL    MW4 7688   4.607   0.074   2.696 -0.3796  0.3888 -0.0028
 1981SOL     OW 7689   2.521   3.052   5.492  0.2465  0.5092 -0.0311
 1981SOL    HW2 7690   2.451   3.007   5.445  0.4396 -0.6560  0.7600
 1981SOL    HW3 7691   2.510   3.027   5.583  1.9045 -0.0311  0.0605
 1981SOL    MW4 7692   2.511   3.042   5.498 -0.0475 -0.2975  0.5177
 1982SOL     OW 7693   0.875   0.059   5.081  0.3503  0.4824 -0.0920
 1982SOL    HW2 7694   0.843   0.097   5.163 -0.6266  3.3863 -1.6722
 1982SOL    HW3 7695   0.951   0.112   5.058 -0.4477  0.9092 -1.9117
 1982SOL    MW4 7696   0.880   0.071   5.089 -0.4518 -0.0637 -0.3277
 1983SOL     OW 7697   4.176   1.913   5.679  0.9602  0.1957 -0.0480
 1983SOL    HW2 7698   4.169   1.849   5.750  0.2998  0.2740 -0.0393
 1983SOL    HW3 7699   4.262   1.954   5.692  0.1075  1.5136  1.8355
 1983SOL    MW4 7700   4.186   1.910   5.690 -0.1667  0.2622 -0.1434
 1984SOL     OW 7701   4.274   2.411   2.710  0.3254 -0.7148 -0.5651
 1984SOL    HW2 7702   4.222   2.458   2.644 -0.9274 -2.2854 -0.7520
 1984SOL    HW3 7703   4.302   2.479   2.771 -2.2258  0.1776 -0.2850
 1984SOL    MW4 7704   4.271   2.426   2.709  0.3957  0.3340  0.3309
 1985SOL     OW 7705   0.300   1.037   1.505  0.0470  0.0441  0.1351
 1985SOL    HW2 7706   0.308   0.958   1.558  0.4542  0.6182  0.9442
 1985SOL    HW3 7707   0.206   1.049   1.493  0.0049 -1.3086 -1.1479
 1985SOL    MW4 7708   0.289   1.028   1.510 -0.1703  0.2884 -0.3862
 1986SOL     OW 7709   4.812   3.167   6.034 -0.1789 -0.3245 -0.0255
 1986SOL    HW2 7710   4.845   3.192   6.121  0.5240 -1.5565  0.0777
 1986SOL    HW3 7711   4.791   3.074   6.042 -1.7740 -0.0609 -0.6990
 1986SOL    MW4 7712   4.814   3.158   6.046 -0.0334  0.3306 -0.1318
 1987SOL     OW 7713   6.336   3.295   5.196 -0.2068  0.2984 -0.1332
 1987SOL    HW2 7714   6.329   3.346   5.115 -0.4333  0.7980  0.1974
 1987SOL    HW3 7715   6.262   3.324   5.249 -1.5674 -1.8518 -0.7432
 1987SOL    MW4 7716   6.326   3.306   5.192 -0.6902 -0.4016  0.3259
 1988SOL     OW 7717   0.565   4.567   3.347 -0.2002  0.2484  0.5263
 1988SOL    HW2 7718   0.560   4.612   3.263 -1.3106  0.0767  0.4788
 1988SOL    HW3 7719   0.618   4.625   3.402  2.1025 -0.4943 -0.7727
 1988SOL    MW4 7720   0.571   4.581   3.343 -0.1281  0.3526 -0.2426
 1989SOL     OW 7721   5.751   1.686   2.867  0.6568 -0.4292  0.5882
 1989SOL    HW2 7722   5.807   1.666   2.942  1.4857  1.3527  0.4745
 1989SOL    HW3 7723   5.704   1.765   2.892  2.3080  1.3109 -1.4085
 1989SOL    MW4 7724   5.752   1.694   2.880 -0.1699  0.0203  0.2781
 1990SOL     OW 7725   0.529   6.042   2.524 -0.6208  0.4336 -0.1119
 1990SOL    HW2 7726   0.528   6.124   2.475 -4.3325  0.3668 -0.4524
 1990SOL    HW3 7727   0.470   5.984   2.476 -0.7484 -1.2643  1.9280
 1990SOL    MW4 7728   0.521   6.045   2.511  0.6428  0.4571 -0.4167
 1991SOL     OW 7729   6.063   4.032   5.243  0.3063 -0.4839 -0.6155
 1991SOL    HW2 7730   6.004   3.984   5.300  0.4601 -1.1701 -1.0235
 1991SOL    HW3 7731   6.097   3.966   5.182  0.4199  0.1636 -1.2683
 1991SOL    MW4 7732   6.060   4.017   5.242 -0.0205 -0.2654 -0.4356
 1992SOL     OW 7733   3.769   1.773   2.983 -0.1529 -0.2536 -0.5605
 1992SOL    HW2 7734   3.730   1.693   3.020  0.8964 -2.1787 -3.2610
 1992SOL    HW3 7735   3.704   1.804   2.920  0.0043  0.2349 -0.4833
 1992SOL    MW4 7736   3.755   1.767   2.979  0.4191 -0.9232 -0.3395
 1993SOL     OW 7737   1.213   3.126   3.940  0.4461  0.0566  0.3269
 1993SOL    HW2 7738   1.164   3.053   3.978 -0.4482  0.9683  0.9731
 1993SOL    HW3 7739   1.232   3.097   3.851 -2.1817  0.0467 -0.3298
 1993SOL    MW4 7740   1.209   3.112   3.934  0.0785 -0.1081  0.1607
 1994SOL     OW 7741   3.272   0.181   5.804 -0.0087 -0.8041  0.0780
 1994SOL    HW2 7742   3.334   0.114   5.832  0.8373 -0.4352 -0.8444
 1994SOL    HW3 7743   3.207   0.134   5.752  0.4367 -0.9417 -0.3503
 1994SOL    MW4 7744   3.271   0.166   5.801  0.5507 -0.1990 -0.2671
 1995SOL     OW 7745   5.029   0.551   3.060  0.1441  0.0283  0.0260
 1995SOL    HW2 7746   4.978   0.479   3.022 -0.3151  0.2139  0.2832
 1995SOL    HW3 7747   5.102   0.508   3.105 -1.1286 -0.4234  1.7759
 1995SOL    MW4 7748   5.032   0.535   3.061 -0.3446 -0.3729  0.3985
 1996SOL     OW 7749   0.645   5.135   4.065  0.1101  0.3490 -0.2484
 1996SOL    HW2 7750   0.562   5.172   4.093  0.5701  0.9956  0.3037
 1996SOL    HW3 7751   0.628   5.042   4.052 -0.8571  0.5925 -0.8033
 1996SOL    MW4 7752   0.632   5.127   4.067  0.3940  0.3455 -0.3785
 1997SOL     OW 7753   6.323   1.897   0.765  0.1408 -0.4165 -0.1981
 1997SOL    HW2 7754   6.357   1.972   0.715  3.1062 -1.6819 -0.2782
 1997SOL    HW3 7755   6.298   1.935   0.850  1.4622  0.7394 -0.2785
 1997SOL    MW4 7756   6.324   1.912   0.770 -0.5124  0.4060  0.2060
 1998SOL     OW 7757   5.731   4.619   6.307 -1.4668  0.0934  0.0856
 1998SOL    HW2 7758   5.748   4.708   6.278  1.5130  0.0903  1.4661
 1998SOL    HW3 7759   5.681   4.579   6.235 -1.8956  2.4944 -1.0483
 1998SOL    MW4 7760   5.727   4.626   6.294 -0.0222  0.5946  0.7250
 1999SOL     OW 7761   5.510   5.507   0.601 -0.2880 -0.0300  0.4505
 1999SOL    HW2 7762   5.506   5.499   0.697  1.4129  0.5283  0.5948
 1999SOL    HW3 7763   5.588   5.559   0.584 -1.0101  0.5828 -1.2309
 1999SOL    MW4 7764   5.520   5.513   0.612  0.1403 -0.0729 -1.1383
 2000SOL     OW 7765   5.455   2.101   1.380  0.1672 -0.0804  0.3584
 2000SOL    HW2 7766   5.370   2.082   1.420  0.1292 -0.7531 -0.0395
 2000SOL    HW3 7767   5.437   2.173   1.320  0.0944  0.4968  1.0589
 2000SOL    MW4 7768   5.441   2.108   1.377  0.3668  0.5423  0.4642
 2001SOL     OW 7769   5.813   5.543   3.226  0.4785  0.1090 -0.1348
 2001SOL    HW2 7770   5.809   5.475   3.158 -2.1848  0.5831 -0.5512
 2001SOL    HW3 7771   5.743   5.603   3.204  2.7520  3.1260  0.2082
 2001SOL    MW4 7772   5.803   5.542   3.214 -0.3792 -0.7020 -0.1740
 2002SOL     OW 7773   1.747   0.354   5.989 -0.2216  0.1832 -0.2101
 2002SOL    HW2 7774   1.681   0.417   6.017 -0.1141  0.4774 -0.6145
 2002SOL    HW3 7775   1.750   0.361   5.894  0.3852  0.1712 -0.2014
 2002SOL    MW4 7776   1.739   0.363   5.981 -0.6520 -0.1689 -0.1668
 2003SOL     OW 7777   2.276   3.835   4.149  0.4657 -0.2981 -0.7051
 2003SOL    HW2 7778   2.248   3.898   4.083  0.4575 -0.3598 -0.7610
 2003SOL    HW3 7779   2.198   3.818   4.202  0.4692 -0.2587 -0.6872
 2003SOL    MW4 7780   2.262   3.841   4.148 -0.0455  0.2110 -0.0686
 2004SOL     OW 7781   6.285   5.257   5.787 -0.3859  0.2930  0.7515
 2004SOL    HW2 7782   6.195   5.275   5.813 -0.6530  0.7260 -0.4232
 2004SOL    HW3 7783   6.284   5.164   5.764 -0.3962  0.1671  1.2401
 2004SOL    MW4 7784   6.273   5.247   5.788 -0.4078  0.0547 -0.2085
 2005SOL     OW 7785   0.460   5.393   5.857 -0.1596 -0.8021 -0.1310
 2005SOL    HW2 7786   0.490   5.347   5.778 -0.2335 -0.0092 -0.6383
 2005SOL    HW3 7787   0.531   5.454   5.877 -0.6464 -0.1831 -0.2734
 2005SOL    MW4 7788   0.474   5.395   5.849  0.3571 -0.2520  0.4260
 2006SOL     OW 7789   0.832   0.579   1.408  0.2594  0.7583 -0.0835
 2006SOL    HW2 7790   0.785   0.561   1.489 -2.1106  0.1254 -1.5076
 2006SOL    HW3 7791   0.817   0.502   1.354  1.3842  1.3685 -1.3355
 2006SOL    MW4 7792   0.824   0.566   1.412 -0.6410 -0.0902 -0.0186
 2007SOL     OW 7793   3.015   3.330   5.395  0.3253  0.1643 -0.0448
 2007SOL    HW2 7794   3.021   3.234   5.401  0.7624  0.1043 -1.1622
 2007SOL    HW3 7795   3.027   3.349   5.301  4.2177  1.5498  0.5515
 2007SOL    MW4 7796   3.018   3.320   5.383 -0.1838 -0.4376 -0.3958
 2008SOL     OW 7797   2.528   5.150   4.089  0.1782 -0.0175  0.4590
 2008SOL    HW2 7798   2.592   5.196   4.035 -2.1601  0.9074 -1.7392
 2008SOL    HW3 7799   2.572   5.069   4.116  3.1983  1.8462  1.5143
 2008SOL    MW4 7800   2.542   5.145   4.085 -0.3486 -0.1247  0.0030
 2009SOL     OW 7801   0.182   5.298   2.432  0.4500  0.2758 -0.3998
 2009SOL    HW2 7802   0.232   5.285   2.352 -0.1900  0.0494 -0.7625
 2009SOL    HW3 7803   0.104   5.244   2.422  1.1755 -1.1855  1.1202
 2009SOL    MW4 7804   0.179   5.289   2.420  0.6577 -0.2124 -0.0160
 2010SOL     OW 7805   3.019   3.732   3.370  0.4106 -0.5441 -0.3064
 2010SOL    HW2 7806   2.977   3.713   3.286  0.8977 -2.2844 -0.1934
 2010SOL    HW3 7807   2.986   3.665   3.429  1.1073 -0.1530  0.5462
 2010SOL    MW4 7808   3.009   3.721   3.367 -0.0848  0.6403 -0.3363
 2011SOL     OW 7809   2.156   3.364   3.844 -0.1967 -0.0285 -0.3500
 2011SOL    HW2 7810   2.118   3.451   3.855  0.3683  0.3104 -0.9354
 2011SOL    HW3 7811   2.158   3.326   3.932  0.8384  1.1059  0.1435
 2011SOL    MW4 7812   2.151   3.371   3.857  0.1808 -0.3117 -0.4664
 2012SOL     OW 7813   2.844   4.429   1.842  0.2455  0.3813 -0.1449
 2012SOL    HW2 7814   2.895   4.394   1.915  1.1235  0.5613 -0.6575
 2012SOL    HW3 7815   2.876   4.519   1.831 -0.7369  0.7613  0.0182
 2012SOL    MW4 7816   2.855   4.436   1.850 -0.7748 -0.5184  0.2884
 2013SOL     OW 7817   6.368   3.017   0.572  0.3966 -0.3071 -0.0267
 2013SOL    HW2 7818   6.273   3.027   0.577  0.5569  0.9595  0.9245
 2013SOL    HW3 7819   6.388   3.020   0.478 -0.3644  0.9354 -0.1659
 2013SOL    MW4 7820   6.358   3.019   0.560  0.5159 -0.0612 -0.6514
 2014SOL     OW 7821   3.698   2.499   2.408  0.0471 -0.2069 -0.3222
 2014SOL    HW2 7822   3.700   2.469   2.499 -0.4984 -1.0874 -0.5853
 2014SOL    HW3 7823   3.614   2.468   2.374  0.4533 -0.3183 -1.2666
 2014SOL    MW4 7824   3.687   2.491   2.416 -0.0471 -0.0591 -0.1579
 2015SOL     OW 7825   0.142   5.644   5.950  0.0307 -0.3991  0.0330
 2015SOL    HW2 7826   0.197   5.589   6.006  0.0436 -1.3001 -0.8356
 2015SOL    HW3 7827   0.174   5.733   5.965  1.2937 -0.8366  0.0318
 2015SOL    MW4 7828   0.153   5.649   5.960 -0.1061  1.0102 -0.4333
 2016SOL     OW 7829   2.785   5.793   0.587 -0.3282  0.3629 -0.0500
 2016SOL    HW2 7830   2.702   5.758   0.621 -1.1294  0.6313 -1.6208
 2016SOL    HW3 7831   2.823   5.721   0.538  0.7579  0.0159  1.2467
 2016SOL    MW4 7832   2.779   5.779   0.585 -0.1197 -0.3644 -0.5337
 2017SOL     OW 7833   2.813   5.661   3.601  0.4821  0.1845 -0.6437
 2017SOL    HW2 7834   2.748   5.608   3.554  1.3266  0.1525 -1.8259
 2017SOL    HW3 7835   2.766   5.741   3.626 -1.2573 -1.6299  2.5055
 2017SOL    MW4 7836   2.799   5.665   3.598  0.1275  0.6839  0.5579
 2018SOL     OW 7837   5.326   4.585   2.688 -0.5642 -0.4839  0.0928
 2018SOL    HW2 7838   5.285   4.610   2.606  1.0046  1.1011 -0.2839
 2018SOL    HW3 7839   5.322   4.665   2.742  0.0527 -0.9470  0.8465
 2018SOL    MW4 7840   5.320   4.599   2.684  0.9991 -0.1473 -0.0763
 2019SOL     OW 7841   6.197   3.754   5.816  0.2862 -0.3595 -0.1038
 2019SOL    HW2 7842   6.199   3.762   5.912 -0.3346  1.7314 -0.2043
 2019SOL    HW3 7843   6.277   3.799   5.787 -0.9627  1.6740 -0.6172
 2019SOL    MW4 7844   6.208   3.761   5.825  0.1298 -0.0734  0.5269
 2020SOL     OW 7845   6.085   5.061   0.405  1.0283  0.0002  0.1128
 2020SOL    HW2 7846   5.997   5.037   0.434  0.5454  0.4599 -0.9135
 2020SOL    HW3 7847   6.143   5.001   0.452  0.1297 -0.6278  0.4525
 2020SOL    MW4 7848   6.081   5.050   0.415 -0.1643  0.5410  0.6123
 2021SOL     OW 7849   5.388   0.525   3.369  0.4155 -0.1037  0.1843
 2021SOL    HW2 7850   5.403   0.620   3.369  0.7812 -0.1570  0.3629
 2021SOL    HW3 7851   5.381   0.501   3.461  3.2753 -0.6638  0.3715
 2021SOL    MW4 7852   5.389   0.534   3.381  0.5676  0.0558  0.7054
 2022SOL     OW 7853   2.365   2.646   5.260 -0.5928  0.6999 -0.1380
 2022SOL    HW2 7854   2.280   2.619   5.226 -1.0287  1.3279  0.4329
 2022SOL    HW3 7855   2.357   2.740   5.274  1.1018  1.3069 -2.6651
 2022SOL    MW4 7856   2.353   2.655   5.257  0.3618 -0.2268  0.6614
 2023SOL     OW 7857   1.563   3.027   3.992  0.2255 -0.2533 -0.0232
 2023SOL    HW2 7858   1.484   3.025   3.938 -0.5587  1.4498  0.9595
 2023SOL    HW3 7859   1.533   3.003   4.080  0.8700 -0.0389  0.2656
 2023SOL    MW4 7860   1.548   3.024   3.997  0.4730  0.4681  1.0596
 2024SOL     OW 7861   5.545   2.449   0.041 -0.3315 -0.0569  0.4782
 2024SOL    HW2 7862   5.454   2.481   0.041 -0.5651 -0.7190  0.0643
 2024SOL    HW3 7863   5.579   2.477   0.126  0.2595  3.4790 -0.7519
 2024SOL    MW4 7864   5.537   2.457   0.052  0.3201  0.1877  0.0411
 2025SOL     OW 7865   3.586   3.578   0.157  0.0670 -0.2100 -0.5856
 2025SOL    HW2 7866   3.614   3.523   0.230 -0.0308  2.0088  1.2326
 2025SOL    HW3 7867   3.610   3.529   0.079 -3.3948 -4.6674  0.7250
 2025SOL    MW4 7868   3.593   3.564   0.157 -0.1828 -0.4166 -0.4152
 2026SOL     OW 7869   3.593   1.224   0.977  0.4410  0.1132 -0.2835
 2026SOL    HW2 7870   3.649   1.149   0.958 -0.0410  0.0505 -1.5534
 2026SOL    HW3 7871   3.504   1.191   0.966  0.2353  1.0002 -1.4880
 2026SOL    MW4 7872   3.589   1.210   0.973  0.2512  0.3195  0.1617
 2027SOL     OW 7873   3.089   5.227   2.776  0.1291  0.2446  0.0480
 2027SOL    HW2 7874   3.063   5.139   2.803  1.0110 -0.2683 -0.7114
 2027SOL    HW3 7875   3.071   5.230   2.682  1.2607  0.4170 -0.1815
 2027SOL    MW4 7876   3.083   5.216   2.767 -0.2295  0.2892  0.1246
 2028SOL     OW 7877   1.081   1.276   5.613 -0.1961 -0.7041  0.2064
 2028SOL    HW2 7878   1.095   1.311   5.525  0.0953  0.2620  0.6126
 2028SOL    HW3 7879   1.023   1.202   5.601 -0.7306 -0.1526 -0.7293
 2028SOL    MW4 7880   1.075   1.271   5.600 -0.4187  0.2651 -0.0853
 2029SOL     OW 7881   5.924   0.908   1.152 -0.3846 -0.5611  0.0705
 2029SOL    HW2 7882   5.834   0.905   1.184 -1.0012 -0.0196 -1.5301
 2029SOL    HW3 7883   5.955   0.818   1.160 -0.2372 -0.3374  2.8001
 2029SOL    MW4 7884   5.916   0.896   1.157 -0.5574 -0.1161 -0.1241
 2030SOL     OW 7885   1.003   3.009   3.022  0.5398 -0.0729  0.0559
 2030SOL    HW2 7886   1.003   2.936   3.084 -1.2388  0.7208  1.0600
 2030SOL    HW3 7887   1.079   3.061   3.047  1.1632 -0.9561  0.0605
 2030SOL    MW4 7888   1.013   3.006   3.034 -0.1149  0.1121  0.0687
 2031SOL     OW 7889   4.822   0.955   6.368 -0.2835  0.1329 -0.3979
 2031SOL    HW2 7890   4.762   0.935   6.296 -1.7365  0.4878  0.6729
 2031SOL    HW3 7891   4.859   0.870   6.393 -1.1438 -0.2542 -0.4033
 2031SOL    MW4 7892   4.819   0.941   6.362  0.3567  0.0451 -0.0676
 2032SOL     OW 7893   0.927   4.362   2.878 -0.2060  0.3566  0.1713
 2032SOL    HW2 7894   0.966   4.398   2.799 -1.7450  0.5949 -0.5057
 2032SOL    HW3 7895   0.942   4.267   2.872 -0.7242  0.3216 -0.6437
 2032SOL    MW4 7896   0.934   4.354   2.867 -0.2481 -0.4079 -0.2241
 2033SOL     OW 7897   3.807   2.977   0.146 -0.5328 -0.8137  0.5359
 2033SOL    HW2 7898   3.846   2.890   0.155 -0.1986 -0.5348  2.1829
 2033SOL    HW3 7899   3.720   2.969   0.187 -0.8917 -0.6031 -0.1659
 2033SOL    MW4 7900   3.800   2.965   0.153  0.4461  0.5091 -0.1372
 2034SOL     OW 7901   5.851   0.796   5.854  0.4332 -0.1032 -0.1093
 2034SOL    HW2 7902   5.816   0.885   5.859 -0.6887 -0.4856 -0.7401
 2034SOL    HW3 7903   5.790   0.744   5.907  1.3794 -0.4225  0.6872
 2034SOL    MW4 7904   5.838   0.801   5.862 -0.0465 -0.2127 -0.5920
 2035SOL     OW 7905   5.657   1.386   0.038  0.4663  0.5857  1.0738
 2035SOL    HW2 7906   5.564   1.364   0.034 -0.0471  2.6113  0.7536
 2035SOL    HW3 7907   5.679   1.409  -0.053  0.7314  2.0713  1.4939
 2035SOL    MW4 7908   5.648   1.386   0.025  0.3163 -0.0516 -0.2342
 2036SOL     OW 7909   1.070   6.241   3.657 -0.0620 -0.2760 -0.4560
 2036SOL    HW2 7910   1.104   6.320   3.698  0.5749  0.0488 -1.5637
 2036SOL    HW3 7911   1.092   6.250   3.564 -1.2810 -1.0664 -0.8544
 2036SOL    MW4 7912   1.077   6.252   3.650 -0.3557 -0.3555 -0.0525
 2037SOL     OW 7913   2.595   2.468   3.295 -0.0205 -0.1777  0.3842
 2037SOL    HW2 7914   2.643   2.538   3.339  0.7689 -1.2285  1.2811
 2037SOL    HW3 7915   2.503   2.491   3.305  0.1829  0.1636  1.6706
 2037SOL    MW4 7916   2.590   2.480   3.302  0.4098  0.2457 -0.1583
 2038SOL     OW 7917   0.760   3.137   1.284 -0.3467 -0.5490 -0.0870
 2038SOL    HW2 7918   0.852   3.164   1.290 -0.5273 -0.0531  0.6884
 2038SOL    HW3 7919   0.733   3.164   1.197  0.3077 -0.9103 -0.4094
 2038SOL    MW4 7920   0.769   3.144   1.273 -0.3117  0.0181 -0.0774
 2039SOL     OW 7921   4.326   3.635   5.756 -0.5496 -0.5037  0.1038
 2039SOL    HW2 7922   4.320   3.705   5.821  0.1492 -1.1200  0.8590
 2039SOL    HW3 7923   4.419   3.612   5.755 -0.6708 -0.9809 -0.6078
 2039SOL    MW4 7924   4.338   3.641   5.764 -0.4522 -0.8354 -0.1192
 2040SOL     OW 7925   1.389   2.859   2.697  0.7344 -0.0169  0.0092
 2040SOL    HW2 7926   1.303   2.878   2.735 -0.5279 -0.5189 -2.3777
 2040SOL    HW3 7927   1.446   2.929   2.729 -0.2492 -0.2744  2.4955
 2040SOL    MW4 7928   1.385   2.871   2.706  0.6493  0.3171  0.2710
 2041SOL     OW 7929   1.964   1.318   2.706 -0.0107 -0.3908 -0.0050
 2041SOL    HW2 7930   1.917   1.279   2.632 -0.6523  0.1339  0.1098
 2041SOL    HW3 7931   2.056   1.312   2.682 -0.2349  0.2179 -1.0783
 2041SOL    MW4 7932   1.970   1.312   2.693  0.5473  0.4621 -0.1664
 2042SOL     OW 7933   5.005   0.749   4.325  0.4245 -0.0092 -0.0078
 2042SOL    HW2 7934   5.062   0.674   4.342  0.0165 -0.3320 -0.0515
 2042SOL    HW3 7935   4.957   0.762   4.407  1.1711  0.8076  0.3211
 2042SOL    MW4 7936   5.006   0.741   4.338 -0.6673 -0.3939  0.2007
 2043SOL     OW 7937   4.115   4.806   5.427  0.0129  0.1477  0.6817
 2043SOL    HW2 7938   4.036   4.850   5.395  1.0790  1.2441 -0.5729
 2043SOL    HW3 7939   4.157   4.871   5.484  1.0204  0.3640 -0.2737
 2043SOL    MW4 7940   4.110   4.820   5.430  0.2065 -0.4789 -0.0047
 2044SOL     OW 7941   5.978   5.280   0.113  0.0525  0.1818 -0.2739
 2044SOL    HW2 7942   5.985   5.185   0.125  2.2509  0.3623  0.3159
 2044SOL    HW3 7943   6.058   5.303   0.065  0.4309  1.9536  1.1400
 2044SOL    MW4 7944   5.989   5.270   0.108  0.7585 -0.0105 -0.1662
 2045SOL     OW 7945   4.454   1.063   4.173  0.2384 -0.3585  0.0602
 2045SOL    HW2 7946   4.473   1.118   4.250  0.6972 -1.3898  0.7085
 2045SOL    HW3 7947   4.423   0.981   4.210  1.3515 -1.2099 -0.8280
 2045SOL    MW4 7948   4.453   1.060   4.188  0.1696 -0.4232  0.1686
 2046SOL     OW 7949   4.376   3.844   0.687 -0.0235  0.2158  0.1832
 2046SOL    HW2 7950   4.299   3.886   0.726 -0.2115  1.0246 -1.0086
 2046SOL    HW3 7951   4.419   3.914   0.639  1.3169 -0.3005  0.5956
 2046SOL    MW4 7952   4.371   3.859   0.686  0.1322 -0.1666 -0.8052
 2047SOL     OW 7953   1.036   0.725   3.829  0.5736 -0.2678 -0.7245
 2047SOL    HW2 7954   1.087   0.717   3.748  2.3940  1.8041  0.1161
 2047SOL    HW3 7955   0.970   0.791   3.810  2.4782  2.0258  0.0135
 2047SOL    MW4 7956   1.034   0.733   3.816  0.4889 -0.1750 -0.0811
 2048SOL     OW 7957   0.775   0.827   0.050  0.0142 -0.2151 -0.1297
 2048SOL    HW2 7958   0.863   0.791   0.045  0.5757  1.1040 -0.2227
 2048SOL    HW3 7959   0.727   0.785  -0.022  1.0999  0.4285 -1.2539
 2048SOL    MW4 7960   0.780   0.817   0.040 -0.1135  0.2263  0.2791
 2049SOL     OW 7961   3.292   4.781   0.101 -0.1505  0.2235  0.3773
 2049SOL    HW2 7962   3.217   4.835   0.079 -0.6650 -0.3911  0.5846
 2049SOL    HW3 7963   3.308   4.798   0.194 -1.0961 -0.8971  0.7635
 2049SOL    MW4 7964   3.285   4.790   0.111 -0.2361  0.6948  0.4974
 2050SOL     OW 7965   3.154   0.393   6.186  0.4188  0.1028  0.2135
 2050SOL    HW2 7966   3.231   0.447   6.168 -0.5612  0.5538 -3.3762
 2050SOL    HW3 7967   3.185   0.303   6.183  0.9550  0.3043 -0.4469
 2050SOL    MW4 7968   3.168   0.389   6.183 -0.1179  0.5056  0.4727
 2051SOL     OW 7969   4.663   4.455   4.259  0.6552 -0.3348 -0.2198
 2051SOL    HW2 7970   4.679   4.495   4.344 -0.6767 -1.9022  0.8460
 2051SOL    HW3 7971   4.687   4.363   4.271  1.8028 -0.3146 -1.9859
 2051SOL    MW4 7972   4.668   4.448   4.272  0.3731  0.2914 -0.3661
 2052SOL     OW 7973   2.005   0.084   5.231  0.3395 -0.1712 -0.1480
 2052SOL    HW2 7974   2.090   0.041   5.237  1.4370  1.3917 -2.6631
 2052SOL    HW3 7975   2.025   0.178   5.237 -1.1861  0.2318 -0.8288
 2052SOL    MW4 7976   2.018   0.091   5.232 -1.0657  0.1779 -0.3523
 2053SOL     OW 7977   0.381   0.595   2.988 -0.2251  0.3876  0.3475
 2053SOL    HW2 7978   0.406   0.641   2.908 -1.7723  1.5001  0.4737
 2053SOL    HW3 7979   0.419   0.647   3.059  0.9396 -0.4649  0.3821
 2053SOL    MW4 7980   0.389   0.608   2.987  0.2694 -0.0701 -0.0729
 2054SOL     OW 7981   2.202   3.383   0.453  0.2353  0.5137  0.2643
 2054SOL    HW2 7982   2.214   3.394   0.359  0.3045  1.5356  0.3850
 2054SOL    HW3 7983   2.113   3.414   0.469  0.1076  0.0404  0.4988
 2054SOL    MW4 7984   2.192   3.388   0.443 -0.3942 -0.0234 -0.4373
 2055SOL     OW 7985   3.109   2.369   0.152 -0.0067  0.5403 -0.3482
 2055SOL    HW2 7986   3.050   2.410   0.089  0.4518  0.5571 -0.7658
 2055SOL    HW3 7987   3.183   2.430   0.159  0.6887 -0.2247 -0.9901
 2055SOL    MW4 7988   3.111   2.383   0.145 -0.0108  0.0923  0.5830
 2056SOL     OW 7989   3.474   3.294   3.914 -0.4643  0.4948 -0.2579
 2056SOL    HW2 7990   3.403   3.348   3.880 -1.4065 -0.0998  0.7183
 2056SOL    HW3 7991   3.455   3.206   3.883 -0.0622  0.3556 -0.1188
 2056SOL    MW4 7992   3.462   3.290   3.905  0.3089 -0.7235 -0.6179
 2057SOL     OW 7993   2.709   0.782   5.185  0.1061 -0.1905 -0.2317
 2057SOL    HW2 7994   2.777   0.839   5.148 -2.3291  2.0106 -1.5867
 2057SOL    HW3 7995   2.692   0.819   5.272 -0.4339  0.2414 -0.5179
 2057SOL    MW4 7996   2.716   0.794   5.192  0.4329 -0.0526 -0.0323
 2058SOL     OW 7997   2.402   6.121   1.165  0.7616  0.7691  0.1917
 2058SOL    HW2 7998   2.453   6.152   1.090  0.9665  0.7762  0.3337
 2058SOL    HW3 7999   2.344   6.054   1.128  0.9576  0.6746  0.0538
 2058SOL    MW4 8000   2.401   6.116   1.150 -0.5115  0.5240 -0.7685
 2059SOL     OW 8001   6.135   3.085   1.937  0.0509  0.0897  0.4335
 2059SOL    HW2 8002   6.097   3.151   1.880  0.3792 -0.2755 -0.2232
 2059SOL    HW3 8003   6.165   3.016   1.877  1.4184  0.2109  0.9540
 2059SOL    MW4 8004   6.134   3.084   1.921  0.0469  0.2730  0.1112
 2060SOL     OW 8005   3.967   5.094   5.825 -0.2181  0.3255 -0.6048
 2060SOL    HW2 8006   4.031   5.138   5.882  0.4083 -0.9400 -0.3024
 2060SOL    HW3 8007   3.916   5.039   5.884 -0.8110  0.4276 -1.0175
 2060SOL    MW4 8008   3.969   5.093   5.840 -0.4070  0.0653 -1.0793
 2061SOL     OW 8009   5.778   3.099   2.499 -0.1060  0.0493  0.2912
 2061SOL    HW2 8010   5.859   3.066   2.460  0.3471  1.1127  0.3014
 2061SOL    HW3 8011   5.708   3.055   2.449  0.4591 -1.0535  0.4430
 2061SOL    MW4 8012   5.779   3.089   2.487 -0.2725 -0.4744  0.2103
 2062SOL     OW 8013   5.137   3.303   0.347 -0.1380 -0.5954  0.6639
 2062SOL    HW2 8014   5.069   3.247   0.385 -0.1219 -0.1362  1.3832
 2062SOL    HW3 8015   5.128   3.290   0.252  1.6388 -3.9603  0.7766
 2062SOL    MW4 8016   5.127   3.294   0.339  0.1843  0.3740  0.3550
 2063SOL     OW 8017   2.272   5.593   6.124  0.0101  0.5862  0.0492
 2063SOL    HW2 8018   2.245   5.516   6.074 -0.3319  0.2585  0.7284
 2063SOL    HW3 8019   2.364   5.606   6.102  0.1901 -0.2805  0.2680
 2063SOL    MW4 8020   2.280   5.585   6.115  0.0556 -0.1329  0.0806
 2064SOL     OW 8021   0.041   5.557   2.146 -0.4031 -0.4653 -0.0638
 2064SOL    HW2 8022  -0.049   5.590   2.157 -0.6453 -1.5121  1.3119
 2064SOL    HW3 8023   0.032   5.484   2.085 -0.5003 -0.6673  0.1951
 2064SOL    MW4 8024   0.028   5.552   2.139 -0.5475 -0.4703  0.0202
 2065SOL     OW 8025   2.007   1.670   2.869 -0.5644  0.2934 -0.0859
 2065SOL    HW2 8026   2.024   1.725   2.946 -1.9947  0.6186  0.0216
 2065SOL    HW3 8027   1.965   1.592   2.903  0.7121 -0.5358 -0.3373
 2065SOL    MW4 8028   2.004   1.667   2.884 -0.5387  0.2564  0.6193
 2066SOL     OW 8029   1.189   3.166   1.456 -0.9045  0.0348 -0.1191
 2066SOL    HW2 8030   1.264   3.222   1.476  1.1675 -2.5032 -0.2810
 2066SOL    HW3 8031   1.163   3.129   1.541  0.1732 -1.5654 -0.4514
 2066SOL    MW4 8032   1.195   3.169   1.470 -0.0431  0.3071  0.2645
 2067SOL     OW 8033   1.154   5.781   5.002  0.6608  0.0167 -0.8537
 2067SOL    HW2 8034   1.087   5.761   4.937  0.0474  2.7432 -1.1943
 2067SOL    HW3 8035   1.182   5.870   4.981 -1.0299  1.9635  3.6767
 2067SOL    MW4 8036   1.149   5.790   4.991  0.3046 -0.8615  0.0301
 2068SOL     OW 8037   4.183   0.184   0.657 -0.1379  0.2960 -0.5691
 2068SOL    HW2 8038   4.190   0.122   0.584 -0.5286 -1.3040  0.7215
 2068SOL    HW3 8039   4.089   0.193   0.673 -0.0788  1.0634 -0.5820
 2068SOL    MW4 8040   4.171   0.177   0.649  0.0368 -0.2718  0.3345
 2069SOL     OW 8041   6.065   0.972   0.394  0.0191  0.1995  0.2913
 2069SOL    HW2 8042   5.998   1.001   0.332 -1.0080 -0.9106  0.8449
 2069SOL    HW3 8043   6.096   1.052   0.435 -1.6913  0.6629  0.7472
 2069SOL    MW4 8044   6.061   0.986   0.391  0.4047  0.9067  0.0400
 2070SOL     OW 8045   6.047   4.143   5.630 -0.3897 -0.0761 -0.2369
 2070SOL    HW2 8046   6.106   4.072   5.606  0.0930  0.2723 -0.1098
 2070SOL    HW3 8047   5.959   4.107   5.618 -0.1579 -0.4028 -1.0554
 2070SOL    MW4 8048   6.043   4.129   5.625  0.3487  0.1136 -0.6621
 2071SOL     OW 8049   4.283   1.374   3.144  0.4201 -0.9248  0.2180
 2071SOL    HW2 8050   4.292   1.306   3.077  0.8468  0.4645 -1.1963
 2071SOL    HW3 8051   4.369   1.416   3.146 -0.3016  0.6621 -0.1912
 2071SOL    MW4 8052   4.296   1.371   3.135 -0.0617 -0.2149 -0.3080
 2072SOL     OW 8053   4.406   2.089   4.302  0.1375  0.1654 -0.6053
 2072SOL    HW2 8054   4.412   2.114   4.210 -0.1361 -0.9373 -0.9407
 2072SOL    HW3 8055   4.358   2.161   4.343 -1.2610 -0.1092 -1.6752
 2072SOL    MW4 8056   4.400   2.102   4.295 -0.0733 -0.4429  0.0497
 2073SOL     OW 8057   3.388   6.200   4.269  0.1313 -0.6531  0.5671
 2073SOL    HW2 8058   3.401   6.106   4.262  0.4959 -0.7044  1.7291
 2073SOL    HW3 8059   3.409   6.221   4.360 -2.4574  0.1519  1.0761
 2073SOL    MW4 8060   3.392   6.191   4.280 -0.3331  0.2186 -0.7127
 2074SOL     OW 8061   0.635   4.896   2.896 -0.1832  0.0195 -0.4293
 2074SOL    HW2 8062   0.704   4.889   2.961  0.7299 -0.3950 -1.4134
 2074SOL    HW3 8063   0.579   4.820   2.912 -0.8188  0.7077  0.7906
 2074SOL    MW4 8064   0.637   4.885   2.907  0.6344 -0.2361 -0.2941
 2075SOL     OW 8065   1.834   3.465   5.362  0.3393  0.2002 -0.5105
 2075SOL    HW2 8066   1.899   3.452   5.293 -0.0155 -1.3888 -0.5883
 2075SOL    HW3 8067   1.755   3.422   5.330 -0.3590  0.9568  0.1475
 2075SOL    MW4 8068   1.832   3.458   5.349  0.2403  0.5169 -0.2602
 2076SOL     OW 8069   2.338   1.979   0.643 -0.5329 -0.3706  0.2027
 2076SOL    HW2 8070   2.338   1.923   0.720  2.5625 -1.5458 -0.5012
 2076SOL    HW3 8071   2.288   1.931   0.577  1.3478 -2.0505 -0.1134
 2076SOL    MW4 8072   2.332   1.965   0.644 -0.3495  0.1866 -0.3511
 2077SOL     OW 8073   5.382   1.871   2.265 -0.5584  0.2913  0.7828
 2077SOL    HW2 8074   5.417   1.793   2.224 -1.2701  0.1237  0.4761
 2077SOL    HW3 8075   5.441   1.889   2.339  1.3483  1.1750 -0.8525
 2077SOL    MW4 8076   5.394   1.863   2.269 -0.0729  0.0387  0.0451
 2078SOL     OW 8077   5.037   4.857   3.248  0.0106  0.1816 -0.0650
 2078SOL    HW2 8078   5.025   4.772   3.291  1.3588 -0.6145 -1.1595
 2078SOL    HW3 8079   5.120   4.890   3.283 -0.0645  0.6309 -0.3065
 2078SOL    MW4 8080   5.047   4.850   3.258  0.2924  0.0678 -0.3125
 2079SOL     OW 8081   3.076   1.677   4.349 -0.4435 -0.0852  0.6330
 2079SOL    HW2 8082   3.108   1.590   4.372  0.1134 -0.6585 -1.9895
 2079SOL    HW3 8083   2.991   1.661   4.309 -1.1826  0.8040  1.7851
 2079SOL    MW4 8084   3.069   1.663   4.347 -0.2473 -0.4125 -0.4432
 2080SOL     OW 8085   4.465   5.811   4.243  0.0939  0.2428 -0.1265
 2080SOL    HW2 8086   4.418   5.863   4.178 -1.7657 -0.9499  0.1846
 2080SOL    HW3 8087   4.468   5.723   4.205  2.3779  0.3034 -0.2403
 2080SOL    MW4 8088   4.460   5.806   4.229  0.5976  0.7590 -0.4176
 2081SOL     OW 8089   5.316   1.975   0.400 -0.2046  0.4792 -0.1551
 2081SOL    HW2 8090   5.315   2.018   0.486  0.7253 -1.1286  0.7207
 2081SOL    HW3 8091   5.226   1.983   0.368 -0.2474  2.3505  0.2802
 2081SOL    MW4 8092   5.304   1.982   0.407 -0.2938 -1.3233 -0.0564
 2082SOL     OW 8093   4.243   0.354   0.013  0.4370 -0.3107 -0.4921
 2082SOL    HW2 8094   4.308   0.350  -0.057  1.7369  0.8130  0.5781
 2082SOL    HW3 8095   4.270   0.430   0.065  0.4066 -1.9504  2.0618
 2082SOL    MW4 8096   4.255   0.364   0.010  0.9407  0.1504  0.1437
 2083SOL     OW 8097   4.597   5.474   2.920 -0.0580  0.5610  0.1529
 2083SOL    HW2 8098   4.630   5.396   2.966 -0.1458 -0.0169 -0.7342
 2083SOL    HW3 8099   4.631   5.548   2.970 -0.7706 -0.0328  1.5995
 2083SOL    MW4 8100   4.606   5.473   2.933 -0.2277  0.1878  0.4596
 2084SOL     OW 8101   4.115   4.834   0.398  0.1732  0.1588 -0.0008
 2084SOL    HW2 8102   4.191   4.803   0.349 -0.8043 -0.5063 -1.1572
 2084SOL    HW3 8103   4.122   4.929   0.396  1.0806  0.0998  0.0842
 2084SOL    MW4 8104   4.126   4.842   0.391 -0.4826  0.3620 -0.5604
 2085SOL     OW 8105   0.932   5.104   1.644 -0.2847  0.2814  0.6997
 2085SOL    HW2 8106   0.855   5.093   1.589  0.5562  0.0141 -0.4798
 2085SOL    HW3 8107   0.935   5.024   1.697  0.7590 -1.1462 -1.3516
 2085SOL    MW4 8108   0.923   5.092   1.643  0.5971  0.0711  1.1257
 2086SOL     OW 8109   2.482   4.004   2.381 -0.1489 -0.2912  0.5218
 2086SOL    HW2 8110   2.469   3.970   2.469  1.7470  0.2517  1.0533
 2086SOL    HW3 8111   2.576   3.998   2.366 -0.4392 -0.4992 -1.5383
 2086SOL    MW4 8112   2.493   3.999   2.390 -0.0380 -0.1268 -0.0635
 2087SOL     OW 8113   1.860   6.163   5.381 -0.0076  0.0435  0.2892
 2087SOL    HW2 8114   1.861   6.231   5.448 -0.9262 -0.8634  1.2558
 2087SOL    HW3 8115   1.926   6.100   5.409  0.1267  0.0250 -0.0593
 2087SOL    MW4 8116   1.869   6.164   5.393  0.2326  0.1434  0.1955
 2088SOL     OW 8117   6.340   4.612   6.123 -0.8326  0.2863  0.2887
 2088SOL    HW2 8118   6.311   4.611   6.214 -0.2580 -0.3240  0.4692
 2088SOL    HW3 8119   6.312   4.528   6.087  0.2301 -0.0953  0.3239
 2088SOL    MW4 8120   6.332   4.601   6.130 -0.0265  0.4466  0.1168
 2089SOL     OW 8121   2.147   5.455   5.102 -0.3988 -0.2853  0.3651
 2089SOL    HW2 8122   2.058   5.490   5.111 -0.3128  0.5510 -1.5565
 2089SOL    HW3 8123   2.164   5.411   5.185 -2.2157  0.4234  1.1612
 2089SOL    MW4 8124   2.137   5.454   5.114  0.5279  0.0008 -0.2930
 2090SOL     OW 8125   4.572   5.113   4.636  0.0363  0.0213  0.4694
 2090SOL    HW2 8126   4.657   5.157   4.628 -0.3862  0.8177  0.2000
 2090SOL    HW3 8127   4.593   5.020   4.640  0.8848  0.1645 -0.2637
 2090SOL    MW4 8128   4.586   5.107   4.635 -0.4631 -0.5191 -0.0007
 2091SOL     OW 8129   3.466   4.313   2.861  0.0204 -0.2866  0.0547
 2091SOL    HW2 8130   3.541   4.296   2.803  1.4642  1.7056  1.2381
 2091SOL    HW3 8131   3.403   4.359   2.805  0.7304  0.2278 -0.3360
 2091SOL    MW4 8132   3.467   4.317   2.846 -0.2101 -0.0702  0.2994
 2092SOL     OW 8133   2.034   4.946   0.487  0.4453 -0.2107 -0.3157
 2092SOL    HW2 8134   1.942   4.938   0.460  0.1407  0.4849  0.5099
 2092SOL    HW3 8135   2.065   5.024   0.442  0.3497  0.1179  0.1856
 2092SOL    MW4 8136   2.026   4.955   0.477  0.0573  0.1961 -0.4740
 2093SOL     OW 8137   2.629   6.284   5.166  0.5009  0.1005 -0.4226
 2093SOL    HW2 8138   2.676   6.338   5.102 -0.4492 -1.7694 -2.9156
 2093SOL    HW3 8139   2.585   6.218   5.112 -0.0292 -1.8978  2.2623
 2093SOL    MW4 8140   2.629   6.282   5.150 -0.1488  0.3107 -0.3487
 2094SOL     OW 8141   3.105   1.279   2.033 -0.3689  0.3641 -0.0779
 2094SOL    HW2 8142   3.093   1.338   1.958  1.1096 -1.4123 -1.8299
 2094SOL    HW3 8143   3.178   1.317   2.082 -1.0972  1.3306  0.2879
 2094SOL    MW4 8144   3.113   1.292   2.030  0.4554 -0.3946  0.2864
 2095SOL     OW 8145   2.593   0.194   2.601  0.1011  0.2731 -0.3247
 2095SOL    HW2 8146   2.539   0.116   2.605 -0.0838  0.2138 -2.7670
 2095SOL    HW3 8147   2.538   0.264   2.637  0.6892 -0.8211  3.0290
 2095SOL    MW4 8148   2.579   0.193   2.606 -0.1352  0.2851  0.4750
 2096SOL     OW 8149   2.245   1.975   6.379  0.8866  0.5386 -0.2518
 2096SOL    HW2 8150   2.287   1.934   6.303 -0.2568 -1.4943  0.1569
 2096SOL    HW3 8151   2.311   1.971   6.448  1.2180  0.5288 -0.5679
 2096SOL    MW4 8152   2.259   1.969   6.378  0.6487 -0.9131 -0.2237
 2097SOL     OW 8153   1.183   3.372   1.074  0.2737  0.2584  0.7664
 2097SOL    HW2 8154   1.165   3.293   1.124 -0.1316 -0.5151 -0.5556
 2097SOL    HW3 8155   1.113   3.376   1.008  0.0221  1.9689  1.0834
 2097SOL    MW4 8156   1.171   3.362   1.072 -0.1667 -0.3048  0.0883
 2098SOL     OW 8157   3.058   0.769   3.155 -0.3461  0.0023 -0.2885
 2098SOL    HW2 8158   3.080   0.677   3.139 -0.2154  0.1021 -0.7018
 2098SOL    HW3 8159   3.086   0.785   3.245  2.0457  0.3297 -1.0095
 2098SOL    MW4 8160   3.065   0.759   3.165 -0.4621  0.3503  0.2595
 2099SOL     OW 8161   5.877   0.384   5.947  0.1607 -0.6248  0.7456
 2099SOL    HW2 8162   5.921   0.395   6.031 -2.6904  1.3560  2.1758
 2099SOL    HW3 8163   5.881   0.290   5.929  1.7705 -0.9485  2.5280
 2099SOL    MW4 8164   5.883   0.373   5.956  0.3874  0.1638  0.2960
 2100SOL     OW 8165   2.681   4.462   3.842 -0.4169  0.2187  0.0432
 2100SOL    HW2 8166   2.619   4.520   3.886 -0.8232  0.6995 -1.1045
 2100SOL    HW3 8167   2.767   4.493   3.870 -0.6525  0.8752  0.0627
 2100SOL    MW4 8168   2.684   4.474   3.851 -0.3594 -0.1012 -0.6258
 2101SOL     OW 8169   2.387   1.712   2.079 -0.4764 -0.0967 -0.0650
 2101SOL    HW2 8170   2.379   1.687   1.987  0.6750  1.5944 -0.6463
 2101SOL    HW3 8171   2.475   1.685   2.104 -1.4895 -2.5530  1.2444
 2101SOL    MW4 8172   2.397   1.705   2.070  0.2275 -0.2548 -0.1831
 2102SOL     OW 8173   0.532   5.004   4.424  0.0094 -0.2161 -0.3590
 2102SOL    HW2 8174   0.438   5.018   4.414 -0.1387 -1.2696 -0.5431
 2102SOL    HW3 8175   0.561   4.969   4.340  0.9341  1.8249 -0.9477
 2102SOL    MW4 8176   0.523   5.001   4.412  0.5794  0.0859  0.3551
 2103SOL     OW 8177   5.980   5.133   0.763  0.8210 -0.2719 -0.1447
 2103SOL    HW2 8178   5.907   5.149   0.824  0.4482  2.2789 -1.1195
 2103SOL    HW3 8179   6.017   5.220   0.749  0.7733 -0.7094 -3.6706
 2103SOL    MW4 8180   5.975   5.147   0.769 -0.1574  0.7400 -0.2605
 2104SOL     OW 8181   4.716   5.191   5.561 -0.7838  0.6736 -0.5485
 2104SOL    HW2 8182   4.786   5.240   5.518 -0.7399 -0.6036 -2.0150
 2104SOL    HW3 8183   4.761   5.117   5.602 -1.1804  0.2612 -0.8535
 2104SOL    MW4 8184   4.731   5.187   5.561  0.0747  0.1213  0.1495
 2105SOL     OW 8185   0.561   5.953   2.145 -0.2487 -0.3882 -0.1276
 2105SOL    HW2 8186   0.609   5.883   2.100  0.4888 -0.4547  0.7407
 2105SOL    HW3 8187   0.619   5.980   2.215 -0.9735  0.3960  0.1804
 2105SOL    MW4 8188   0.575   5.947   2.148  0.5851  0.0298 -0.9079
 2106SOL     OW 8189   3.711   3.073   5.452 -0.1542  0.3036  0.2073
 2106SOL    HW2 8190   3.665   3.093   5.370 -0.1685 -2.6545 -0.6478
 2106SOL    HW3 8191   3.791   3.029   5.424  1.3199  1.8381  1.7828
 2106SOL    MW4 8192   3.715   3.070   5.437 -0.0951  0.6621  0.0529
 2107SOL     OW 8193   2.275   3.601   0.028  0.7103  0.4775 -0.1648
 2107SOL    HW2 8194   2.327   3.590  -0.052  1.8955  2.6482  0.2400
 2107SOL    HW3 8195   2.250   3.693   0.028 -2.3774 -0.2588  0.1864
 2107SOL    MW4 8196   2.279   3.612   0.018 -0.7480  0.0503  0.6005
 2108SOL     OW 8197   0.365   4.769   1.938 -0.1991  0.6112 -0.2306
 2108SOL    HW2 8198   0.276   4.741   1.958  0.0966  0.1731  0.5136
 2108SOL    HW3 8199   0.385   4.725   1.855 -0.5768  0.4997 -0.2671
 2108SOL    MW4 8200   0.356   4.760   1.930 -0.8813  0.0227 -0.1388
 2109SOL     OW 8201   6.359   4.327   5.229  0.3992  1.2520  0.0762
 2109SOL    HW2 8202   6.350   4.277   5.311  0.7090  3.1440  1.3166
 2109SOL    HW3 8203   6.399   4.265   5.168 -0.0191 -0.2741  1.2756
 2109SOL    MW4 8204   6.363   4.312   5.232 -0.0011  0.0787 -0.0383
 2110SOL     OW 8205   3.209   3.543   0.121  0.7149 -0.4027 -0.2057
 2110SOL    HW2 8206   3.148   3.485   0.075 -0.2600  0.3540  0.0789
 2110SOL    HW3 8207   3.280   3.486   0.150 -0.2608 -1.4729  0.1566
 2110SOL    MW4 8208   3.210   3.528   0.119 -0.6737 -0.6809 -0.6158
 2111SOL     OW 8209   5.497   6.146   3.200 -0.3210  0.0717 -0.3114
 2111SOL    HW2 8210   5.432   6.212   3.226 -0.1503 -0.0638  0.4725
 2111SOL    HW3 8211   5.510   6.162   3.107 -1.0961  0.4394 -0.3678
 2111SOL    MW4 8212   5.490   6.157   3.191 -0.2876 -0.0174  0.2159
 2112SOL     OW 8213   0.654   0.237   5.057 -0.5424 -0.0239  0.3210
 2112SOL    HW2 8214   0.728   0.195   5.012  1.5027  0.5043  2.9011
 2112SOL    HW3 8215   0.585   0.171   5.058  1.2972 -2.0411  1.1603
 2112SOL    MW4 8216   0.655   0.223   5.051 -0.3812 -0.2724 -0.1188
 2113SOL     OW 8217   1.889   4.558   5.849  0.1867  0.0979 -0.0558
 2113SOL    HW2 8218   1.895   4.561   5.945 -1.6497 -0.3395  0.1123
 2113SOL    HW3 8219   1.890   4.465   5.828 -1.0132  0.1223 -0.3024
 2113SOL    MW4 8220   1.889   4.546   5.859 -0.2377 -0.5284 -0.4519
 2114SOL     OW 8221   0.846   5.663   3.581 -0.1750 -0.7803 -0.2411
 2114SOL    HW2 8222   0.932   5.622   3.586  0.7998  0.7684 -2.5166
 2114SOL    HW3 8223   0.854   5.743   3.632 -0.3381 -0.7313 -0.2919
 2114SOL    MW4 8224   0.858   5.668   3.588 -0.1940 -0.1497  0.5415
 2115SOL     OW 8225   6.027   0.499   0.620  0.7931 -0.1727  0.2530
 2115SOL    HW2 8226   5.956   0.547   0.664  0.9515 -0.4583  0.8270
 2115SOL    HW3 8227   6.100   0.501   0.683  1.4183  0.4194 -0.4747
 2115SOL    MW4 8228   6.027   0.506   0.634  0.3136 -0.6377  0.3813
 2116SOL     OW 8229   4.707   1.703   0.307 -0.1652  0.2293  0.3266
 2116SOL    HW2 8230   4.757   1.623   0.289 -1.4787  0.0469 -3.2608
 2116SOL    HW3 8231   4.622   1.672   0.338 -1.0681  0.0430 -2.1051
 2116SOL    MW4 8232   4.702   1.688   0.309  0.7375  0.3385 -0.1280
 2117SOL     OW 8233   1.284   2.979   6.134  0.0953  0.1609  0.5819
 2117SOL    HW2 8234   1.337   2.982   6.054  0.2336  0.9378  0.6914
 2117SOL    HW3 8235   1.209   3.036   6.115  0.6196  1.1429  1.3327
 2117SOL    MW4 8236   1.281   2.987   6.121 -0.2045  0.6910 -0.4330
 2118SOL     OW 8237   5.193   2.934   2.146  0.2656  0.0934  0.7460
 2118SOL    HW2 8238   5.246   2.973   2.216 -1.1101 -0.6358  2.2841
 2118SOL    HW3 8239   5.179   2.844   2.175 -0.5528 -0.1581 -0.3559
 2118SOL    MW4 8240   5.198   2.927   2.159 -0.4907 -0.0883 -0.0586
 2119SOL     OW 8241   2.842   5.142   1.874  0.2488 -0.6011  0.0194
 2119SOL    HW2 8242   2.892   5.107   1.948  2.1012 -2.7647 -2.0752
 2119SOL    HW3 8243   2.907   5.155   1.805 -1.5082  0.6103 -1.5159
 2119SOL    MW4 8244   2.857   5.139   1.875  0.1016 -0.0083 -0.2564
 2120SOL     OW 8245   6.346   6.422   1.542  0.1173  0.2385 -0.0032
 2120SOL    HW2 8246   6.365   6.503   1.494  1.3682  0.6151  1.0662
 2120SOL    HW3 8247   6.368   6.352   1.481 -1.2838  0.6697 -1.0560
 2120SOL    MW4 8248   6.351   6.423   1.528 -0.1454  0.2082  0.7316
 2121SOL     OW 8249   2.950   1.569   5.917 -0.0443 -0.1342 -0.4882
 2121SOL    HW2 8250   2.930   1.651   5.962  0.6227 -0.0630 -0.3219
 2121SOL    HW3 8251   2.890   1.505   5.956  0.7711 -0.1582  0.7707
 2121SOL    MW4 8252   2.939   1.571   5.928 -0.8510  0.8656 -0.3839
 2122SOL     OW 8253   6.410   0.243   2.945  0.4250  0.3242 -0.2832
 2122SOL    HW2 8254   6.334   0.185   2.955  0.6508  0.2774  1.5081
 2122SOL    HW3 8255   6.379   0.328   2.977  1.0079  0.3939  0.1128
 2122SOL    MW4 8256   6.396   0.247   2.951  0.3285 -0.7237  0.0536
 2123SOL     OW 8257   0.895   4.216   0.299 -0.0810  0.2949  0.0191
 2123SOL    HW2 8258   0.876   4.166   0.220  1.2355 -0.8556  0.3899
 2123SOL    HW3 8259   0.809   4.247   0.328 -0.5817  0.8518 -1.8968
 2123SOL    MW4 8260   0.881   4.213   0.292 -0.1629 -0.4838  0.4591
 2124SOL     OW 8261   6.020   6.190   4.850  0.0085  0.3399 -0.6190
 2124SOL    HW2 8262   6.114   6.200   4.869 -0.1007  1.0194 -0.4151
 2124SOL    HW3 8263   5.978   6.194   4.937 -0.1675 -0.5148 -0.6557
 2124SOL    MW4 8264   6.027   6.192   4.864 -0.3467 -0.4550  0.3499
 2125SOL     OW 8265   6.263   3.175   6.084 -0.3523  0.2339 -0.3589
 2125SOL    HW2 8266   6.182   3.136   6.118 -0.1326 -0.7491 -0.9078
 2125SOL    HW3 8267   6.331   3.111   6.106  0.0423  0.3657 -1.1655
 2125SOL    MW4 8268   6.261   3.161   6.091  0.2478 -0.2047 -0.1235
 2126SOL     OW 8269   0.524   3.766   5.330  0.1573 -0.4871  0.1372
 2126SOL    HW2 8270   0.573   3.695   5.289 -1.3825 -0.1219 -2.5797
 2126SOL    HW3 8271   0.499   3.822   5.256 -0.1531  1.9573  1.9918
 2126SOL    MW4 8272   0.527   3.764   5.314 -1.1054  0.6741 -0.0889
 2127SOL     OW 8273   3.248   0.319   0.979  0.0742 -0.0527  0.0835
 2127SOL    HW2 8274   3.177   0.320   1.044 -1.1410 -1.0920 -1.1457
 2127SOL    HW3 8275   3.328   0.310   1.030 -0.7576  0.1592  1.4764
 2127SOL    MW4 8276   3.249   0.318   0.995 -0.1502  0.7069 -0.0580
 2128SOL     OW 8277   4.259   2.502   4.648  0.2413 -0.2525 -0.0147
 2128SOL    HW2 8278   4.234   2.437   4.582  2.7086  0.2735 -1.6054
 2128SOL    HW3 8279   4.177   2.546   4.671 -0.9844 -1.7517 -1.3054
 2128SOL    MW4 8280   4.245   2.499   4.642 -0.1605  0.0310 -0.0660
 2129SOL     OW 8281   0.164   6.340   1.347 -0.4094 -0.0274  0.4195
 2129SOL    HW2 8282   0.237   6.287   1.378 -2.0718 -1.0403  2.9066
 2129SOL    HW3 8283   0.094   6.277   1.330 -1.4807  1.0899  0.5289
 2129SOL    MW4 8284   0.164   6.325   1.349 -0.5415  0.3968 -0.9723
 2130SOL     OW 8285   2.516   4.574   1.794 -0.0419  0.2835  0.2655
 2130SOL    HW2 8286   2.462   4.650   1.817 -0.6673 -0.4393  1.2703
 2130SOL    HW3 8287   2.463   4.526   1.729  0.6072  0.9841 -0.8153
 2130SOL    MW4 8288   2.502   4.578   1.788  0.2472 -0.0070  0.2139
 2131SOL     OW 8289   1.041   0.110   4.060  0.0051 -0.6506  0.0685
 2131SOL    HW2 8290   0.991   0.147   3.987 -0.0243  1.4151  1.0861
 2131SOL    HW3 8291   1.019   0.165   4.135  1.7903 -1.3232  1.1422
 2131SOL    MW4 8292   1.032   0.122   4.060  0.2222  0.3261 -0.6060
 2132SOL     OW 8293   6.327   0.755   5.372 -0.3300  0.1602  0.0227
 2132SOL    HW2 8294   6.243   0.750   5.326 -0.8735  1.2912  0.8521
 2132SOL    HW3 8295   6.392   0.757   5.301 -1.2066  3.1288 -0.8538
 2132SOL    MW4 8296   6.325   0.755   5.356  0.1686 -0.0825  0.1756
 2133SOL     OW 8297   2.710   1.982   4.208  0.3225 -0.3591 -0.5996
 2133SOL    HW2 8298   2.797   2.017   4.187  0.8833 -1.5138 -0.2899
 2133SOL    HW3 8299   2.691   1.922   4.135 -0.1916 -0.1476 -0.6387
 2133SOL    MW4 8300   2.719   1.979   4.195  0.3358 -0.2661 -0.4052
 2134SOL     OW 8301   2.721   3.365   0.150 -0.4398 -0.4018 -0.1201
 2134SOL    HW2 8302   2.782   3.355   0.223  0.7716 -0.9249 -1.1850
 2134SOL    HW3 8303   2.641   3.398   0.191  0.2646 -0.5224  1.4198
 2134SOL    MW4 8304   2.718   3.368   0.165  0.4809 -0.4506 -0.1708
 2135SOL     OW 8305   2.629   0.117   5.904  0.0556  0.1381  0.5037
 2135SOL    HW2 8306   2.715   0.151   5.929  0.6393 -0.6508 -0.3630
 2135SOL    HW3 8307   2.647   0.030   5.867 -1.1244 -0.0757  0.3897
 2135SOL    MW4 8308   2.643   0.110   5.902  0.0568  0.0085 -0.2809
 2136SOL     OW 8309   2.790   1.670   6.376  0.2525 -0.0531  0.0856
 2136SOL    HW2 8310   2.736   1.748   6.359  0.1196 -0.0842  0.3596
 2136SOL    HW3 8311   2.878   1.706   6.391  0.2158  0.0351  0.0941
 2136SOL    MW4 8312   2.794   1.685   6.376 -0.1980 -0.4757 -0.0267
 2137SOL     OW 8313   5.654   2.320   3.086 -0.0922  0.3018  0.5847
 2137SOL    HW2 8314   5.617   2.269   3.158 -0.8941 -0.6625 -0.4716
 2137SOL    HW3 8315   5.703   2.390   3.129 -3.0180  1.6165  2.0748
 2137SOL    MW4 8316   5.656   2.322   3.101 -0.5343  0.4954  0.4748
 2138SOL     OW 8317   2.910   2.495   0.014  0.0086 -0.0124 -0.1422
 2138SOL    HW2 8318   2.840   2.430   0.029 -0.4703  0.2087 -1.3390
 2138SOL    HW3 8319   2.897   2.560   0.083  0.2752 -0.9828  0.8609
 2138SOL    MW4 8320   2.899   2.495   0.025  0.7959 -0.3893 -0.1360
 2139SOL     OW 8321  -0.003   6.030   5.211 -0.1318 -0.4032  0.3112
 2139SOL    HW2 8322   0.065   5.990   5.156 -0.0789  3.3484 -2.8399
 2139SOL    HW3 8323  -0.085   6.009   5.166 -0.2010  1.6944 -0.6545
 2139SOL    MW4 8324  -0.005   6.022   5.198 -0.5855  0.2303 -0.7817
 2140SOL     OW 8325   1.344   0.632   0.475 -0.4456 -0.6303  0.6148
 2140SOL    HW2 8326   1.292   0.655   0.552 -0.1700 -0.2525  0.6933
 2140SOL    HW3 8327   1.352   0.537   0.479  1.0624 -0.4867  2.0490
 2140SOL    MW4 8328   1.338   0.622   0.485 -0.3024  0.3599  0.4464
 2141SOL     OW 8329   1.113   1.748   1.061 -0.2961 -0.0671 -0.7150
 2141SOL    HW2 8330   1.168   1.718   1.133 -1.1529 -0.8787 -0.3750
 2141SOL    HW3 8331   1.131   1.686   0.990 -0.4972 -0.1128 -0.7268
 2141SOL    MW4 8332   1.123   1.736   1.061 -0.0045 -0.6017 -0.3637
 2142SOL     OW 8333   1.856   2.500   0.657  0.0710  0.2152 -0.1218
 2142SOL    HW2 8334   1.784   2.467   0.710 -0.9607  0.4068 -1.3589
 2142SOL    HW3 8335   1.915   2.543   0.719 -0.0214 -1.3934  1.1250
 2142SOL    MW4 8336   1.855   2.501   0.672  0.0839 -0.1840 -0.5880
 2143SOL     OW 8337   4.193   5.257   1.120  0.1154  0.0179  0.1419
 2143SOL    HW2 8338   4.264   5.307   1.081  1.0133 -1.6229 -0.4130
 2143SOL    HW3 8339   4.225   5.233   1.207 -0.8606  1.4978  0.9606
 2143SOL    MW4 8340   4.207   5.261   1.126  1.0390  0.0281  0.1027
 2144SOL     OW 8341   0.706   5.752   2.013  0.0014  0.2294 -0.1636
 2144SOL    HW2 8342   0.698   5.772   1.920  0.3439  1.8926  0.1349
 2144SOL    HW3 8343   0.798   5.772   2.034 -0.2628  0.5882  0.6798
 2144SOL    MW4 8344   0.717   5.757   2.004  0.1403 -0.1907 -0.9337
 2145SOL     OW 8345   4.727   4.117   5.248  0.2961  0.2912 -0.3262
 2145SOL    HW2 8346   4.675   4.067   5.185  0.1816 -0.2042  0.1548
 2145SOL    HW3 8347   4.744   4.201   5.205  0.4129 -0.1303 -1.1013
 2145SOL    MW4 8348   4.722   4.122   5.234  0.0109 -0.2773  0.4107
 2146SOL     OW 8349   2.072   4.283   0.839 -0.0282  0.3011  0.1625
 2146SOL    HW2 8350   2.101   4.374   0.839  1.5436 -0.1625 -0.0081
 2146SOL    HW3 8351   2.152   4.233   0.853 -0.8579 -1.0651  0.1818
 2146SOL    MW4 8352   2.086   4.289   0.841 -0.1008  0.5411  0.3653
 2147SOL     OW 8353   5.794   0.281   3.531  0.0477  0.1353 -0.4319
 2147SOL    HW2 8354   5.774   0.337   3.606  2.1565  2.1766 -1.2325
 2147SOL    HW3 8355   5.746   0.200   3.547 -0.9173  1.1240  2.2368
 2147SOL    MW4 8356   5.785   0.278   3.543  0.4289  0.2848 -0.1109
 2148SOL     OW 8357   2.317   4.852   6.119 -0.0433  0.1804  0.0123
 2148SOL    HW2 8358   2.259   4.810   6.183 -0.0633 -0.1270 -0.2047
 2148SOL    HW3 8359   2.364   4.779   6.077 -0.4206  0.3354 -0.7002
 2148SOL    MW4 8360   2.316   4.837   6.122 -0.0627  0.0425 -0.3593
 2149SOL     OW 8361   2.791   4.001   0.887 -0.3219 -0.6476  0.7185
 2149SOL    HW2 8362   2.699   3.989   0.864  0.1363 -2.0524 -0.5434
 2149SOL    HW3 8363   2.802   3.951   0.968 -0.7795 -0.0001  1.1902
 2149SOL    MW4 8364   2.780   3.992   0.895  0.3279 -0.4225 -0.0305
 2150SOL     OW 8365   4.107   2.696   1.033  0.3269  0.1456  0.0012
 2150SOL    HW2 8366   4.149   2.615   1.062  0.5318  0.5011  0.7367
 2150SOL    HW3 8367   4.044   2.668   0.967 -1.4615 -0.9621  2.0511
 2150SOL    MW4 8368   4.104   2.682   1.029  0.3387 -0.0632 -0.8963
 2151SOL     OW 8369   2.910   6.409   3.680  0.2572  0.1321  0.0342
 2151SOL    HW2 8370   2.816   6.424   3.670  0.6858  2.0750 -1.8350
 2151SOL    HW3 8371   2.921   6.315   3.666 -1.3406 -0.0353 -0.2740
 2151SOL    MW4 8372   2.900   6.398   3.677  0.7064  0.1972  0.0936
 2152SOL     OW 8373   3.318   2.767   3.733  0.1962 -0.2116 -0.5814
 2152SOL    HW2 8374   3.254   2.824   3.776 -0.6281 -1.6408  0.1408
 2152SOL    HW3 8375   3.267   2.719   3.667  1.3236  1.5366 -2.8865
 2152SOL    MW4 8376   3.302   2.768   3.730 -0.1903 -0.2762 -0.4017
 2153SOL     OW 8377   2.289   1.707   3.152 -0.2380 -0.0776  0.2416
 2153SOL    HW2 8378   2.265   1.615   3.145  2.7548 -0.8237 -2.4360
 2153SOL    HW3 8379   2.211   1.754   3.122 -0.8406 -1.9032 -1.2581
 2153SOL    MW4 8380   2.275   1.701   3.148  0.7201  0.0600 -0.0687
 2154SOL     OW 8381   5.976   5.672   2.411  0.4654 -0.8407  0.5901
 2154SOL    HW2 8382   5.899   5.728   2.402  0.8185 -0.0381  2.2273
 2154SOL    HW3 8383   6.018   5.676   2.325 -1.2518 -1.2364 -0.3143
 2154SOL    MW4 8384   5.971   5.680   2.399  0.5100  0.1216  0.1770
 2155SOL     OW 8385   5.077   1.317   4.845  0.1792 -0.3632 -0.2398
 2155SOL    HW2 8386   5.027   1.369   4.781 -0.2651 -1.8716 -1.1673
 2155SOL    HW3 8387   5.016   1.303   4.917 -0.0788 -0.5437 -0.4909
 2155SOL    MW4 8388   5.063   1.322   4.846  0.2723 -0.1829  0.0832
 2156SOL     OW 8389   3.888   2.247   4.886  0.3458 -0.3515  0.5090
 2156SOL    HW2 8390   3.934   2.192   4.822 -0.0709 -0.5148  0.3497
 2156SOL    HW3 8391   3.957   2.302   4.923  0.1823  1.7097 -2.0067
 2156SOL    MW4 8392   3.903   2.247   4.883  0.0067  0.4162  0.0780
 2157SOL     OW 8393   4.161   6.079   4.357  0.1100  0.0972 -0.3887
 2157SOL    HW2 8394   4.138   6.084   4.264  0.5457  0.7848 -0.4619
 2157SOL    HW3 8395   4.255   6.063   4.357 -0.1098 -1.3984 -0.0735
 2157SOL    MW4 8396   4.170   6.077   4.345  0.0286  0.5141  0.5795
 2158SOL     OW 8397   4.373   4.945   2.037  0.3096  0.1424  0.3792
 2158SOL    HW2 8398   4.418   4.862   2.019  2.4489  1.1037  1.0254
 2158SOL    HW3 8399   4.389   4.998   1.960  1.0980  0.8147  0.9900
 2158SOL    MW4 8400   4.381   4.941   2.025  0.2531  0.5952 -0.3522
 2159SOL     OW 8401   6.230   1.691   3.060  0.0720  0.0409  0.0512
 2159SOL    HW2 8402   6.213   1.694   3.155  0.2859  0.4742  0.0826
 2159SOL    HW3 8403   6.206   1.603   3.034 -3.0991  0.8395 -0.0966
 2159SOL    MW4 8404   6.225   1.680   3.069 -0.0134 -0.1062 -0.4024
 2160SOL     OW 8405   3.454   3.835   1.710  0.2467 -0.0197  0.6903
 2160SOL    HW2 8406   3.533   3.819   1.658  0.3428 -3.3120  1.6404
 2160SOL    HW3 8407   3.384   3.790   1.662 -0.6029  0.8192  1.0968
 2160SOL    MW4 8408   3.455   3.827   1.697  0.1121  0.5156 -0.3545
 2161SOL     OW 8409   3.224   0.601   5.360 -0.1477 -0.2517 -0.2106
 2161SOL    HW2 8410   3.298   0.641   5.315 -0.7412 -0.2929 -1.2403
 2161SOL    HW3 8411   3.237   0.507   5.349 -0.1204 -0.2722 -0.0086
 2161SOL    MW4 8412   3.236   0.594   5.353  0.5135 -0.3081 -0.2258
 2162SOL     OW 8413   4.373   4.194   0.292 -0.0529  0.0456 -0.3284
 2162SOL    HW2 8414   4.402   4.285   0.297 -0.5678  0.1867  0.0911
 2162SOL    HW3 8415   4.449   4.148   0.256  1.3662  0.1212  2.2915
 2162SOL    MW4 8416   4.387   4.200   0.288  0.0197 -0.3599  0.4931
 2163SOL     OW 8417   5.671   2.310   0.728  0.4647 -0.5233  0.1053
 2163SOL    HW2 8418   5.638   2.315   0.638 -0.5517 -0.3579  0.4682
 2163SOL    HW3 8419   5.621   2.239   0.768  0.5130 -0.2379  0.6874
 2163SOL    MW4 8420   5.660   2.301   0.722  0.2671 -0.3470 -0.3379
 2164SOL     OW 8421   1.668   4.892   6.130  0.4356  0.1811  0.6240
 2164SOL    HW2 8422   1.582   4.911   6.167 -0.3700 -0.7527 -0.6725
 2164SOL    HW3 8423   1.662   4.921   6.039  1.2767 -0.4632  0.3478
 2164SOL    MW4 8424   1.656   4.898   6.122 -0.4179 -0.0615 -0.7123
 2165SOL     OW 8425   3.404   2.691   1.221 -0.2119 -0.3624  0.1129
 2165SOL    HW2 8426   3.361   2.677   1.305 -0.4312  0.7609  0.1906
 2165SOL    HW3 8427   3.472   2.623   1.218 -0.6200 -0.8205  0.9004
 2165SOL    MW4 8428   3.408   2.680   1.231 -0.1577 -0.0292 -0.1494
 2166SOL     OW 8429   1.705   1.548   1.346  0.3191 -0.8411 -0.3427
 2166SOL    HW2 8430   1.703   1.481   1.414 -0.8032 -1.1427 -0.6430
 2166SOL    HW3 8431   1.644   1.615   1.376  2.0888  0.5039  0.3745
 2166SOL    MW4 8432   1.696   1.548   1.359 -0.2597 -0.3602  0.8183
 2167SOL     OW 8433   3.897   3.565   1.152 -0.4810  0.5895 -0.5051
 2167SOL    HW2 8434   3.951   3.592   1.226 -0.1732  0.1010 -0.5463
 2167SOL    HW3 8435   3.861   3.480   1.178  0.5685 -0.1578 -1.3639
 2167SOL    MW4 8436   3.900   3.557   1.165 -0.6971  0.4886 -0.2097
 2168SOL     OW 8437   3.194   4.278   3.668 -0.3225 -0.7504  0.0922
 2168SOL    HW2 8438   3.272   4.264   3.615  0.5693  1.0100  0.8617
 2168SOL    HW3 8439   3.211   4.359   3.716 -2.6801 -0.2249  0.1815
 2168SOL    MW4 8440   3.206   4.287   3.668  0.1195  0.2211 -0.7956
 2169SOL     OW 8441   1.753   4.388   5.498  0.0365  0.3329 -0.0305
 2169SOL    HW2 8442   1.799   4.471   5.509 -1.2108  1.4229 -2.3292
 2169SOL    HW3 8443   1.790   4.350   5.419 -0.8911 -0.2462 -0.1980
 2169SOL    MW4 8444   1.764   4.394   5.489 -0.0412 -0.1114 -0.9088
 2170SOL     OW 8445   1.245   3.887   1.088 -0.0570  0.1394  0.6443
 2170SOL    HW2 8446   1.337   3.873   1.063 -0.6230 -0.2768 -1.3596
 2170SOL    HW3 8447   1.221   3.808   1.137  0.8646  0.6193  1.9210
 2170SOL    MW4 8448   1.254   3.875   1.092  0.5305  0.0623 -0.2998
 2171SOL     OW 8449   5.309   5.969   2.526  0.2109 -0.5427 -0.4000
 2171SOL    HW2 8450   5.405   5.965   2.534  0.2960 -0.8573 -1.4627
 2171SOL    HW3 8451   5.283   5.880   2.501 -0.5518 -0.9234  1.5746
 2171SOL    MW4 8452   5.318   5.957   2.524  0.1121 -0.1931 -0.0896
 2172SOL     OW 8453   5.502   2.702   5.268 -0.2212  0.6926  0.4030
 2172SOL    HW2 8454   5.433   2.645   5.303 -1.3856  0.8930 -1.4210
 2172SOL    HW3 8455   5.472   2.790   5.289 -1.6567  0.9018 -2.1197
 2172SOL    MW4 8456   5.489   2.706   5.276 -0.0246  0.1048  0.6335
 2173SOL     OW 8457   1.653   3.440   0.841 -0.3751 -0.7702  0.4563
 2173SOL    HW2 8458   1.571   3.404   0.877 -1.4007  0.6473 -0.3445
 2173SOL    HW3 8459   1.627   3.478   0.757  1.3616 -1.3204 -0.3679
 2173SOL    MW4 8460   1.638   3.440   0.835  0.3213  0.0428  0.0000
 2174SOL     OW 8461   4.727   0.922   6.056 -0.3681 -0.1363 -0.4402
 2174SOL    HW2 8462   4.768   0.846   6.016  0.5314 -0.7784  1.5760
 2174SOL    HW3 8463   4.762   0.997   6.008 -1.4776 -0.9311 -2.6368
 2174SOL    MW4 8464   4.737   0.922   6.044 -1.0950  0.6619  0.4630
 2175SOL     OW 8465   1.446   5.863   4.131 -0.0999 -0.7555 -0.0388
 2175SOL    HW2 8466   1.424   5.956   4.132  0.6802 -0.5636  1.5747
 2175SOL    HW3 8467   1.446   5.837   4.223 -1.3150 -2.6142 -0.5118
 2175SOL    MW4 8468   1.443   5.872   4.143  0.1636  0.2397  0.1403
 2176SOL     OW 8469   5.958   6.364   5.245  0.3504  0.5489  0.5306
 2176SOL    HW2 8470   5.910   6.441   5.276  0.3856  1.1104 -0.7153
 2176SOL    HW3 8471   6.027   6.400   5.190 -0.3431 -0.3874 -1.0402
 2176SOL    MW4 8472   5.960   6.379   5.242  1.2545 -0.0215 -0.1468
 2177SOL     OW 8473   5.442   1.753   2.644  0.3957 -0.0419 -0.2990
 2177SOL    HW2 8474   5.370   1.816   2.629 -0.7879 -1.3802 -0.4250
 2177SOL    HW3 8475   5.409   1.695   2.713  1.5572 -0.4218 -0.0431
 2177SOL    MW4 8476   5.428   1.754   2.651  0.1475  0.2370  0.0638
 2178SOL     OW 8477   1.735   2.989   0.882  0.3212 -0.2962  0.1793
 2178SOL    HW2 8478   1.765   3.079   0.898  1.8003 -0.7173 -0.0299
 2178SOL    HW3 8479   1.666   2.998   0.816 -1.2070  0.8684  1.8290
 2178SOL    MW4 8480   1.730   3.002   0.876 -0.4063  0.4275  0.2006
 2179SOL     OW 8481   1.582   1.321   6.186 -0.1330  0.3389  0.0329
 2179SOL    HW2 8482   1.560   1.245   6.132  0.7522 -1.5892  2.2448
 2179SOL    HW3 8483   1.674   1.338   6.168 -0.6043  1.6789 -1.3044
 2179SOL    MW4 8484   1.591   1.313   6.176 -0.3547  0.7904  0.9010
 2180SOL     OW 8485   0.260   3.206   0.395 -0.0964 -0.3186 -0.1562
 2180SOL    HW2 8486   0.181   3.231   0.443 -0.0156 -0.3792  0.0096
 2180SOL    HW3 8487   0.251   3.248   0.310  1.2643  2.5605  0.9896
 2180SOL    MW4 8488   0.249   3.215   0.390 -0.2489 -0.6234  0.3219
 2181SOL     OW 8489   6.195   2.893   5.474  0.2431 -0.2292 -0.5988
 2181SOL    HW2 8490   6.281   2.935   5.483  0.5107 -0.7470 -0.7156
 2181SOL    HW3 8491   6.214   2.809   5.433 -0.4661  0.2528 -1.9785
 2181SOL    MW4 8492   6.209   2.888   5.469 -0.4730  0.5281 -0.0002
 2182SOL     OW 8493   0.650   0.456   2.887 -0.0463 -0.4063  0.1596
 2182SOL    HW2 8494   0.706   0.382   2.909 -0.3090 -0.8945 -0.7567
 2182SOL    HW3 8495   0.563   0.431   2.917 -0.1982 -0.6121 -0.4502
 2182SOL    MW4 8496   0.646   0.443   2.894  0.5680  0.0081  0.1822
 2183SOL     OW 8497   5.962   5.980   2.493 -0.0889  0.3443 -0.1768
 2183SOL    HW2 8498   5.910   5.921   2.548 -0.8395  2.8264  1.9938
 2183SOL    HW3 8499   6.031   5.924   2.456 -1.6791 -2.1640  0.3887
 2183SOL    MW4 8500   5.964   5.965   2.495  0.0357 -0.2431  0.0763
 2184SOL     OW 8501   3.757   2.951   3.634 -0.6576  0.1530 -0.0960
 2184SOL    HW2 8502   3.702   3.030   3.633 -1.4518 -0.4024 -1.3020
 2184SOL    HW3 8503   3.696   2.879   3.643 -0.0371 -0.4257 -0.4912
 2184SOL    MW4 8504   3.742   2.952   3.635 -0.0325  0.0622  0.0765
 2185SOL     OW 8505   1.708   1.277   0.655  0.1408 -0.0773 -0.1779
 2185SOL    HW2 8506   1.787   1.295   0.706 -0.8007  0.6817  1.0563
 2185SOL    HW3 8507   1.700   1.181   0.656  0.9501 -0.1483 -0.1921
 2185SOL    MW4 8508   1.717   1.267   0.662 -0.2563  0.1879 -0.1480
 2186SOL     OW 8509   3.264   6.065   3.889  0.6835 -0.1203 -0.4913
 2186SOL    HW2 8510   3.353   6.031   3.876  0.9798 -0.0378  1.1140
 2186SOL    HW3 8511   3.246   6.049   3.982 -0.8843  0.1072 -0.7351
 2186SOL    MW4 8512   3.273   6.058   3.900  0.2785 -0.0171  0.3171
 2187SOL     OW 8513   1.700   1.264   5.269 -0.0114 -0.5412  0.1542
 2187SOL    HW2 8514   1.720   1.197   5.335  0.7370 -0.0538  0.4367
 2187SOL    HW3 8515   1.631   1.225   5.215 -0.2475 -1.1642  0.8899
 2187SOL    MW4 8516   1.693   1.250   5.270 -0.3024  0.1882  0.0472
 2188SOL     OW 8517   0.081   3.517   3.980  0.1147  0.2436  0.1491
 2188SOL    HW2 8518   0.121   3.448   4.033 -1.4031 -1.7755 -1.1640
 2188SOL    HW3 8519   0.034   3.572   4.043  0.8507 -0.2683  1.1770
 2188SOL    MW4 8520   0.080   3.515   3.995 -0.0123  0.1219  1.0705
 2189SOL     OW 8521   1.828   2.343   4.019 -0.1306 -0.2079  0.2095
 2189SOL    HW2 8522   1.768   2.356   3.945 -2.2653 -0.6331  1.7521
 2189SOL    HW3 8523   1.860   2.253   4.008 -1.6187 -0.8189  0.5196
 2189SOL    MW4 8524   1.824   2.333   4.008  0.1051 -0.4526  0.2626
 2190SOL     OW 8525   3.258   0.360   1.344 -0.7305 -0.0721 -0.0117
 2190SOL    HW2 8526   3.310   0.426   1.298  0.1192 -1.5293 -1.2435
 2190SOL    HW3 8527   3.293   0.358   1.432 -1.3921  1.7401  0.3371
 2190SOL    MW4 8528   3.269   0.369   1.349 -0.4514  0.4724 -0.1182
 2191SOL     OW 8529   1.993   5.463   4.340  0.3569 -0.3577  0.0058
 2191SOL    HW2 8530   2.088   5.449   4.348  0.2784 -0.4037  0.9809
 2191SOL    HW3 8531   1.962   5.388   4.290  0.8222 -0.3946 -0.2320
 2191SOL    MW4 8532   2.002   5.451   4.334  0.0402  0.1788  0.0690
 2192SOL     OW 8533   1.457   3.050   5.904  0.0062 -0.0975  0.4974
 2192SOL    HW2 8534   1.504   2.967   5.913 -1.4231 -0.9197  0.6977
 2192SOL    HW3 8535   1.418   3.047   5.817 -0.8142 -0.0806  0.8449
 2192SOL    MW4 8536   1.458   3.038   5.894 -0.0313 -0.4902 -0.0277
 2193SOL     OW 8537   2.566   1.089   5.450  0.4934  0.7136  0.8255
 2193SOL    HW2 8538   2.577   1.061   5.541 -0.5570  0.7698  0.9783
 2193SOL    HW3 8539   2.639   1.149   5.435  0.2529  1.2984  1.8721
 2193SOL    MW4 8540   2.578   1.093   5.460  0.0737  0.5333  0.0799
 2194SOL     OW 8541   5.071   3.479   3.248  0.4872 -0.1828  0.1893
 2194SOL    HW2 8542   5.149   3.508   3.200  0.2873 -0.4197 -0.2865
 2194SOL    HW3 8543   5.105   3.421   3.316  0.7959  0.3378  0.4826
 2194SOL    MW4 8544   5.086   3.475   3.250 -0.6318  0.2067 -0.2339
 2195SOL     OW 8545   4.385   0.626   1.632 -0.6126 -0.0159  0.4523
 2195SOL    HW2 8546   4.474   0.620   1.597 -0.4240 -2.0152  1.0988
 2195SOL    HW3 8547   4.366   0.719   1.635  1.4448  0.4591  0.2348
 2195SOL    MW4 8548   4.394   0.637   1.628 -0.5880  0.1898 -1.0117
 2196SOL     OW 8549   2.182   0.324   5.621 -0.0613  0.0529  0.5064
 2196SOL    HW2 8550   2.260   0.293   5.668 -0.2012  0.2354  0.8612
 2196SOL    HW3 8551   2.128   0.246   5.610  0.1882 -0.0819  0.2238
 2196SOL    MW4 8552   2.185   0.310   5.626 -0.0550 -0.3512 -0.1068
 2197SOL     OW 8553   5.780   3.081   3.319  0.3540 -0.4907 -0.3400
 2197SOL    HW2 8554   5.771   2.987   3.332 -0.5362 -0.4312 -0.4096
 2197SOL    HW3 8555   5.692   3.116   3.338  0.6231  0.3010 -0.5001
 2197SOL    MW4 8556   5.767   3.073   3.324 -1.2498 -0.0234 -0.3457
 2198SOL     OW 8557   2.328   6.087   0.515 -0.0327 -0.5140 -0.0150
 2198SOL    HW2 8558   2.287   6.053   0.595 -2.3808 -0.9836 -1.3342
 2198SOL    HW3 8559   2.353   6.177   0.538  0.3733 -0.9832  1.5464
 2198SOL    MW4 8560   2.326   6.095   0.529  0.1392 -0.5306  0.3318
 2199SOL     OW 8561   5.023   0.705   1.856 -0.3402 -0.0714 -0.1864
 2199SOL    HW2 8562   5.037   0.668   1.943  1.7350  0.1971 -0.3598
 2199SOL    HW3 8563   5.058   0.794   1.863 -1.6500  0.5157 -0.8603
 2199SOL    MW4 8564   5.030   0.712   1.868 -0.1417 -0.9683  0.9067
 2200SOL     OW 8565   6.299   4.653   0.953  0.8883 -0.1311  0.4607
 2200SOL    HW2 8566   6.284   4.561   0.973 -0.3693 -0.3392 -1.3005
 2200SOL    HW3 8567   6.289   4.698   1.038 -4.5813 -0.8970  0.5703
 2200SOL    MW4 8568   6.296   4.647   0.967  0.3520  0.3248  0.4409
 2201SOL     OW 8569   2.637   5.970   1.382 -0.3060  0.2268  0.0894
 2201SOL    HW2 8570   2.683   5.928   1.309 -1.4556 -0.5549 -0.2163
 2201SOL    HW3 8571   2.552   5.995   1.345 -0.1564  1.6347  0.6385
 2201SOL    MW4 8572   2.632   5.968   1.368  0.1027 -0.7051 -0.2613
 2202SOL     OW 8573   3.055   1.165   1.001  0.6523 -0.4818 -0.0620
 2202SOL    HW2 8574   2.989   1.201   1.060  0.6443 -1.5344  0.6095
 2202SOL    HW3 8575   3.014   1.170   0.914 -0.6312 -1.7579  0.4222
 2202SOL    MW4 8576   3.041   1.170   0.997  0.2148 -0.0316 -0.1973
 2203SOL     OW 8577   0.829   2.679   3.542  0.0801  0.6226  0.5144
 2203SOL    HW2 8578   0.825   2.658   3.636 -1.9819  1.2777  0.6171
 2203SOL    HW3 8579   0.915   2.647   3.514 -0.1265 -1.6044  2.1505
 2203SOL    MW4 8580   0.840   2.672   3.551 -0.0662  0.1394  0.1442
 2204SOL     OW 8581   1.964   4.097   0.663 -0.0927 -0.8608  0.4987
 2204SOL    HW2 8582   1.875   4.091   0.697 -0.0851 -2.5716  0.2992
 2204SOL    HW3 8583   2.004   4.169   0.712 -2.0999  1.2094 -0.6802
 2204SOL    MW4 8584   1.958   4.106   0.674  0.6061  0.1870 -0.0819
 2205SOL     OW 8585   3.043   3.847   4.542  0.2462  0.3712 -0.1645
 2205SOL    HW2 8586   3.052   3.795   4.462 -0.0731 -0.8483  0.5638
 2205SOL    HW3 8587   2.984   3.796   4.598  1.2600  0.6745  1.2540
 2205SOL    MW4 8588   3.036   3.833   4.539  0.1881 -0.3599  0.4177
 2206SOL     OW 8589   5.823   5.150   1.379  0.1779  0.1829 -0.0998
 2206SOL    HW2 8590   5.914   5.166   1.405 -0.2368  1.2097  0.7868
 2206SOL    HW3 8591   5.829   5.108   1.293  1.5175 -0.7554  0.4183
 2206SOL    MW4 8592   5.836   5.147   1.371  0.5971  0.1493 -0.5246
 2207SOL     OW 8593   3.133   5.327   1.947  0.0588 -0.2301  0.0851
 2207SOL    HW2 8594   3.163   5.237   1.938  1.3322  0.2012 -0.1802
 2207SOL    HW3 8595   3.190   5.378   1.890 -0.6948  0.7453  0.1630
 2207SOL    MW4 8596   3.144   5.322   1.938 -0.0515 -0.8613 -0.4695
 2208SOL     OW 8597   4.715   1.070   0.167 -0.1596 -0.1451  0.0501
 2208SOL    HW2 8598   4.725   1.036   0.078 -1.0770  0.6735 -0.3825
 2208SOL    HW3 8599   4.630   1.114   0.166  1.2798  2.9179  0.3103
 2208SOL    MW4 8600   4.705   1.071   0.155 -0.0989  0.0732  0.0378
 2209SOL     OW 8601   0.377   6.033   6.235  0.2296  0.0095  0.4822
 2209SOL    HW2 8602   0.425   5.968   6.183  0.9437  0.6933  0.2558
 2209SOL    HW3 8603   0.437   6.108   6.240  0.0740  0.0690  2.0739
 2209SOL    MW4 8604   0.391   6.034   6.229 -0.1256 -0.4754  0.1659
 2210SOL     OW 8605   4.754   6.398   3.279 -0.3661  0.4382 -0.1706
 2210SOL    HW2 8606   4.721   6.471   3.227  0.7475  2.1189  1.3621
 2210SOL    HW3 8607   4.698   6.395   3.356 -0.9462 -0.9304 -0.6149
 2210SOL    MW4 8608   4.743   6.407   3.282 -0.2615 -0.1497 -0.5979
 2211SOL     OW 8609   3.821   1.134   5.733 -0.4271  0.2484 -0.3624
 2211SOL    HW2 8610   3.821   1.042   5.706 -2.3824  0.5536 -1.6265
 2211SOL    HW3 8611   3.729   1.153   5.753 -0.1825  2.1044 -0.8043
 2211SOL    MW4 8612   3.809   1.124   5.732  0.2645  0.4623 -0.0116
 2212SOL     OW 8613   6.093   2.310   3.459  0.1740 -0.0065  0.4898
 2212SOL    HW2 8614   6.137   2.237   3.503 -0.0631 -0.9525 -0.7801
 2212SOL    HW3 8615   6.119   2.302   3.367 -1.4540  0.2877 -0.0371
 2212SOL    MW4 8616   6.102   2.299   3.452 -0.2517 -0.3668  0.7103
 2213SOL     OW 8617   5.795   1.273   5.235  0.5918  0.0392  0.5259
 2213SOL    HW2 8618   5.801   1.322   5.154  1.1363 -2.4242 -1.0338
 2213SOL    HW3 8619   5.704   1.284   5.263  0.0373 -0.0915 -1.1283
 2213SOL    MW4 8620   5.784   1.281   5.228 -0.1571 -0.4563 -0.4453
 2214SOL     OW 8621   2.055   0.376   1.743 -0.2406 -0.3226 -0.3338
 2214SOL    HW2 8622   2.076   0.336   1.828 -0.3763 -1.0603 -0.6422
 2214SOL    HW3 8623   1.974   0.424   1.759 -0.3899 -0.6448 -0.0904
 2214SOL    MW4 8624   2.047   0.377   1.756 -0.2651  0.3817 -0.6546
 2215SOL     OW 8625   1.988   0.716   6.349  0.2347  0.0001  0.3983
 2215SOL    HW2 8626   1.995   0.682   6.439  0.8416  0.1740  0.4204
 2215SOL    HW3 8627   1.970   0.809   6.359  0.6144  0.0801  0.3395
 2215SOL    MW4 8628   1.986   0.724   6.362  0.6224 -0.2174  0.0902
 2216SOL     OW 8629   6.160   3.025   4.879 -0.7596  0.5372 -0.6184
 2216SOL    HW2 8630   6.121   3.090   4.937  0.0153 -0.0279  0.5724
 2216SOL    HW3 8631   6.141   3.057   4.791 -0.3005  2.4461 -0.0731
 2216SOL    MW4 8632   6.152   3.038   4.875 -0.1991 -0.1893 -0.5111
 2217SOL     OW 8633   2.111   6.231   0.706 -0.2119  0.4590  0.7696
 2217SOL    HW2 8634   2.150   6.319   0.705  1.8218 -0.3391  2.6377
 2217SOL    HW3 8635   2.016   6.247   0.701  0.1575  2.6061 -1.5174
 2217SOL    MW4 8636   2.103   6.245   0.705  0.4708  0.1984 -0.3039
 2218SOL     OW 8637   3.372   1.610   0.172 -0.3852 -0.3308 -0.0723
 2218SOL    HW2 8638   3.436   1.595   0.242 -0.1284 -0.4568 -0.3328
 2218SOL    HW3 8639   3.291   1.570   0.204 -0.7376  1.0797  0.8927
 2218SOL    MW4 8640   3.370   1.603   0.186 -0.1635  0.6492 -0.1223
 2219SOL     OW 8641   0.417   0.022   5.789 -0.4198 -0.5686  0.0433
 2219SOL    HW2 8642   0.429  -0.008   5.879  0.2215 -2.7491 -0.7006
 2219SOL    HW3 8643   0.503   0.052   5.762  0.2651 -3.1819 -0.8931
 2219SOL    MW4 8644   0.430   0.022   5.797 -0.0900 -0.3019  0.0403
 2220SOL     OW 8645   4.287   0.370   1.604 -0.3482  0.0938 -0.4502
 2220SOL    HW2 8646   4.196   0.375   1.575  0.2176  0.3497 -2.2402
 2220SOL    HW3 8647   4.311   0.460   1.626 -1.1864 -0.2497  2.3532
 2220SOL    MW4 8648   4.278   0.382   1.603 -0.0047 -0.0183  0.4142
 2221SOL     OW 8649   4.103   1.539   4.330 -0.5132 -0.0293 -0.4555
 2221SOL    HW2 8650   4.178   1.483   4.311 -0.1397  0.1891  0.3431
 2221SOL    HW3 8651   4.091   1.592   4.250 -0.1888 -0.4700 -0.7999
 2221SOL    MW4 8652   4.111   1.539   4.317 -0.5499  0.0489 -0.0106
 2222SOL     OW 8653   2.589   1.772   4.365  0.5274  0.5974  0.0050
 2222SOL    HW2 8654   2.655   1.839   4.349 -0.0861  1.0984 -0.4836
 2222SOL    HW3 8655   2.599   1.750   4.458  1.5813  0.4431 -0.1432
 2222SOL    MW4 8656   2.599   1.778   4.375 -0.1767 -0.0300  0.4463
 2223SOL     OW 8657   1.451   1.238   5.134 -0.1753 -0.2300  0.1797
 2223SOL    HW2 8658   1.360   1.217   5.153  0.0390 -1.9199 -0.4383
 2223SOL    HW3 8659   1.454   1.333   5.132 -1.6420 -0.1053  1.4807
 2223SOL    MW4 8660   1.440   1.248   5.136 -0.0213  0.1099  0.0081
 2224SOL     OW 8661   5.161   0.489   4.304  0.4590 -0.6469  0.0417
 2224SOL    HW2 8662   5.083   0.478   4.249  1.4232 -0.3886 -1.4511
 2224SOL    HW3 8663   5.233   0.457   4.249  1.6939  1.1768  0.5034
 2224SOL    MW4 8664   5.161   0.483   4.289  0.3634 -0.0352  0.1360
 2225SOL     OW 8665   4.632   3.352   2.846 -0.0220  0.1308  0.7167
 2225SOL    HW2 8666   4.631   3.264   2.884  1.7810 -1.3398 -2.3324
 2225SOL    HW3 8667   4.568   3.349   2.774  0.1572  1.3021  0.4791
 2225SOL    MW4 8668   4.623   3.340   2.842 -0.1566 -1.0292 -0.6186
 2226SOL     OW 8669   6.275   2.440   3.825  0.2896  0.4975  0.3352
 2226SOL    HW2 8670   6.265   2.481   3.911 -1.8769 -0.0515  0.3989
 2226SOL    HW3 8671   6.228   2.357   3.832  2.3422 -0.8228 -0.5993
 2226SOL    MW4 8672   6.267   2.434   3.837  0.2607  0.1212  0.1913
 2227SOL     OW 8673   5.730   1.015   4.060  0.0783  0.5539 -0.1460
 2227SOL    HW2 8674   5.653   1.042   4.110  1.6443  2.9403  1.2057
 2227SOL    HW3 8675   5.792   0.984   4.125  0.5526 -0.7083 -1.1437
 2227SOL    MW4 8676   5.728   1.015   4.075  0.1728 -0.1920 -0.3761
 2228SOL     OW 8677   0.879   0.301   1.744  0.1107  0.4383  0.3397
 2228SOL    HW2 8678   0.973   0.286   1.744  0.2960  1.4486  1.5467
 2228SOL    HW3 8679   0.847   0.256   1.823 -0.7774 -1.6558 -1.0915
 2228SOL    MW4 8680   0.887   0.293   1.754  0.1374  0.1606 -0.1788
 2229SOL     OW 8681   2.204   5.051   2.361 -0.4753  0.0034 -0.3675
 2229SOL    HW2 8682   2.227   5.014   2.446 -1.1640 -1.0597 -0.6172
 2229SOL    HW3 8683   2.288   5.076   2.322 -0.1693  0.6117  0.6595
 2229SOL    MW4 8684   2.218   5.049   2.367 -0.1212  0.2982  0.1817
 2230SOL     OW 8685   1.554   6.292   6.394 -0.0639 -0.0525 -0.1418
 2230SOL    HW2 8686   1.525   6.272   6.305  0.0009 -0.1132 -0.1495
 2230SOL    HW3 8687   1.641   6.329   6.383 -1.3035  3.0536 -0.3857
 2230SOL    MW4 8688   1.561   6.294   6.381  0.5700 -0.6442 -0.2841
 2231SOL     OW 8689   5.321   1.299   0.891 -0.2320  0.4281  0.7836
 2231SOL    HW2 8690   5.238   1.345   0.904 -1.7727 -1.1368 -2.4353
 2231SOL    HW3 8691   5.360   1.340   0.815 -0.4594 -1.8188 -0.6549
 2231SOL    MW4 8692   5.315   1.310   0.883 -0.2982  0.0631  0.0364
 2232SOL     OW 8693   6.299   4.868   2.971 -0.3906  0.3372 -0.5849
 2232SOL    HW2 8694   6.248   4.935   3.018  0.1985  0.2936  0.1357
 2232SOL    HW3 8695   6.387   4.904   2.966 -0.2940  0.0350 -1.0628
 2232SOL    MW4 8696   6.304   4.882   2.977  0.2745 -0.3439 -0.1128
 2233SOL     OW 8697   1.392   4.519   2.369  1.1583  0.0246  0.4296
 2233SOL    HW2 8698   1.486   4.535   2.357  1.1666  0.5634  1.1904
 2233SOL    HW3 8699   1.355   4.528   2.281  1.5175  1.9472  0.4250
 2233SOL    MW4 8700   1.400   4.522   2.355  0.2558 -0.7345  0.7516
 2234SOL     OW 8701   1.857   1.151   6.149 -0.8430 -0.5715 -0.2227
 2234SOL    HW2 8702   1.878   1.097   6.225 -0.7516  1.5404  1.3229
 2234SOL    HW3 8703   1.891   1.238   6.170  0.8270 -0.2574 -3.4471
 2234SOL    MW4 8704   1.864   1.155   6.162  0.2233  0.0569  0.6646
 2235SOL     OW 8705   2.444   1.591   2.407  0.4473 -0.3291  0.3928
 2235SOL    HW2 8706   2.449   1.503   2.445 -1.0825 -0.5910  0.0441
 2235SOL    HW3 8707   2.455   1.650   2.481  2.6643 -0.7719  0.4704
 2235SOL    MW4 8708   2.446   1.587   2.422 -0.9455  0.1440  0.4080
 2236SOL     OW 8709   5.853   0.629   3.568 -0.4846 -0.3323 -0.2101
 2236SOL    HW2 8710   5.867   0.618   3.474  3.6349 -1.9848  0.3828
 2236SOL    HW3 8711   5.819   0.544   3.597  0.0922 -0.4880  0.0217
 2236SOL    MW4 8712   5.851   0.616   3.560  0.0344  0.3208  0.5237
 2237SOL     OW 8713   2.916   3.756   2.909 -0.0346  0.4347 -0.1567
 2237SOL    HW2 8714   2.849   3.825   2.909 -0.6616 -0.1533 -0.0589
 2237SOL    HW3 8715   2.872   3.681   2.867  0.2124 -0.2868  0.8411
 2237SOL    MW4 8716   2.901   3.755   2.903 -0.5936 -0.2737  0.3134
 2238SOL     OW 8717   6.008   5.720   3.938  0.3325 -0.2179  0.0576
 2238SOL    HW2 8718   5.946   5.791   3.952  0.0394 -0.6833  1.3446
 2238SOL    HW3 8719   6.094   5.762   3.940  0.1165  0.2629 -0.4941
 2238SOL    MW4 8720   6.011   5.735   3.940 -0.1462  0.4151 -0.6784
 2239SOL     OW 8721   2.743   2.631   0.410 -0.1974  0.2330 -0.0378
 2239SOL    HW2 8722   2.769   2.540   0.396  1.5122  0.9605 -2.3301
 2239SOL    HW3 8723   2.676   2.627   0.478  1.2905 -2.5061  1.4437
 2239SOL    MW4 8724   2.737   2.619   0.417 -0.2024  0.7072  0.1678
 2240SOL     OW 8725   4.472   1.079   1.508  0.9176 -0.3446  0.0402
 2240SOL    HW2 8726   4.564   1.102   1.517  0.4368  1.7235  0.0937
 2240SOL    HW3 8727   4.463   1.051   1.417  1.5741 -0.4702  0.0087
 2240SOL    MW4 8728   4.483   1.078   1.497 -0.2793  0.3490  0.4764
 2241SOL     OW 8729   0.273   1.182   5.097 -1.1634  0.0066 -0.7340
 2241SOL    HW2 8730   0.347   1.143   5.051 -1.3151 -0.7100 -0.3922
 2241SOL    HW3 8731   0.312   1.253   5.148 -0.3995 -1.3841  0.7313
 2241SOL    MW4 8732   0.288   1.186   5.098  0.6450 -0.0566 -0.0195
 2242SOL     OW 8733   5.753   0.283   1.713 -0.1413 -0.4421  0.1265
 2242SOL    HW2 8734   5.801   0.227   1.774  0.1280 -0.3523 -0.0054
 2242SOL    HW3 8735   5.809   0.360   1.701 -0.4795 -0.1691  0.2557
 2242SOL    MW4 8736   5.766   0.286   1.720 -0.1454 -0.2445 -0.1325
 2243SOL     OW 8737   1.470   2.020   0.456 -0.9962 -0.2991  0.4689
 2243SOL    HW2 8738   1.530   2.011   0.529  0.1967  2.0990 -0.1100
 2243SOL    HW3 8739   1.469   2.114   0.437 -3.2987 -0.5213 -0.9196
 2243SOL    MW4 8740   1.477   2.031   0.463 -0.7864  0.0649 -0.1435
 2244SOL     OW 8741   5.144   5.211   4.261 -0.7065  0.0936  0.3531
 2244SOL    HW2 8742   5.173   5.190   4.350 -0.3873 -1.2660 -0.0475
 2244SOL    HW3 8743   5.168   5.134   4.209  0.4677  1.4275 -1.2292
 2244SOL    MW4 8744   5.151   5.198   4.266 -0.5293 -0.6035  0.1171
 2245SOL     OW 8745   5.760   4.890   0.143  0.1170  0.0390 -0.9018
 2245SOL    HW2 8746   5.752   4.879   0.048  0.3813 -2.2458 -0.7023
 2245SOL    HW3 8747   5.847   4.927   0.155 -0.2392  1.1527 -1.5744
 2245SOL    MW4 8748   5.770   4.894   0.132 -0.0799 -0.5803 -0.2569
 2246SOL     OW 8749   5.239   5.129   2.063  0.0223 -0.1504  0.5643
 2246SOL    HW2 8750   5.331   5.127   2.038  0.2077  1.5208  1.0405
 2246SOL    HW3 8751   5.240   5.140   2.158 -0.6735 -0.3761  0.6040
 2246SOL    MW4 8752   5.251   5.130   2.072 -0.3995 -0.3809 -0.2858
 2247SOL     OW 8753   3.719   5.472   5.974 -0.3768 -0.3996 -0.0720
 2247SOL    HW2 8754   3.724   5.477   6.069  1.4939  0.1303 -0.1644
 2247SOL    HW3 8755   3.721   5.564   5.945 -0.0169 -0.5796 -0.6397
 2247SOL    MW4 8756   3.720   5.485   5.982 -0.3536  0.0225  0.5028
 2248SOL     OW 8757   5.928   3.780   2.157  0.4015  0.4228  0.1774
 2248SOL    HW2 8758   5.896   3.851   2.213 -0.7063 -0.6766  0.9746
 2248SOL    HW3 8759   6.004   3.818   2.112  0.0925  1.9728  0.8960
 2248SOL    MW4 8760   5.934   3.795   2.159 -0.0894  0.1146 -0.0233
 2249SOL     OW 8761   4.643   2.559   5.118  0.6241 -0.3949 -0.4897
 2249SOL    HW2 8762   4.596   2.634   5.154  0.2253 -0.8392 -0.0583
 2249SOL    HW3 8763   4.598   2.483   5.156  2.4058 -0.8372  0.8366
 2249SOL    MW4 8764   4.631   2.559   5.128  0.5672 -0.0809  0.4484
 2250SOL     OW 8765   4.969   4.632   3.777 -0.1351 -0.0714 -0.4417
 2250SOL    HW2 8766   4.952   4.552   3.729 -0.5107  1.2458 -2.6431
 2250SOL    HW3 8767   4.888   4.682   3.772  0.7872  1.4620 -1.2975
 2250SOL    MW4 8768   4.956   4.628   3.770  0.0134  0.4558 -0.0375
 2251SOL     OW 8769   4.866   4.090   1.920  0.4202  0.0039 -0.1371
 2251SOL    HW2 8770   4.814   4.022   1.877 -0.5526 -1.8077  3.4402
 2251SOL    HW3 8771   4.956   4.071   1.894 -0.0236 -1.5091 -0.7110
 2251SOL    MW4 8772   4.871   4.078   1.911  0.2766 -0.4620 -0.0885
 2252SOL     OW 8773   0.684   0.142   5.980 -0.0589  0.3877 -0.2308
 2252SOL    HW2 8774   0.693   0.049   6.000 -0.7550  0.5367  0.9318
 2252SOL    HW3 8775   0.721   0.152   5.893 -1.0904 -1.1943 -0.8999
 2252SOL    MW4 8776   0.690   0.131   5.971 -0.0746  0.1125  0.3803
 2253SOL     OW 8777   3.711   1.735   0.949 -0.1629 -0.0609  0.0799
 2253SOL    HW2 8778   3.721   1.821   0.990  0.5043  0.3986 -1.0078
 2253SOL    HW3 8779   3.731   1.673   1.019 -1.1017  0.6348  1.0039
 2253SOL    MW4 8780   3.715   1.738   0.964  0.7578 -0.4690  0.5462
 2254SOL     OW 8781   3.191   3.339   3.608  0.2841 -0.1050  0.7470
 2254SOL    HW2 8782   3.109   3.380   3.578 -0.2488 -2.1733 -0.8906
 2254SOL    HW3 8783   3.170   3.246   3.618  1.9492 -0.3775  2.3018
 2254SOL    MW4 8784   3.178   3.332   3.605 -0.2243  0.2209  0.3643
 2255SOL     OW 8785   1.814   1.030   4.405 -0.1720 -0.6202  0.0047
 2255SOL    HW2 8786   1.727   0.989   4.408  0.0823 -1.1111  1.1773
 2255SOL    HW3 8787   1.800   1.113   4.358 -0.5912 -2.2529 -3.0252
 2255SOL    MW4 8788   1.801   1.036   4.399  0.1120  0.4898  0.1523
 2256SOL     OW 8789   3.605   4.227   5.990 -0.3346  0.2612 -0.2846
 2256SOL    HW2 8790   3.581   4.205   5.900  1.2980 -0.8655 -0.4932
 2256SOL    HW3 8791   3.629   4.320   5.986  0.5193  0.0259 -1.2215
 2256SOL    MW4 8792   3.605   4.237   5.977  0.8452  0.3196 -0.4007
 2257SOL     OW 8793   2.168   2.635   2.934 -0.2876 -0.3855 -0.3050
 2257SOL    HW2 8794   2.125   2.583   3.002  0.5409 -1.6037 -0.6604
 2257SOL    HW3 8795   2.210   2.706   2.982 -1.2869 -0.1225  0.2252
 2257SOL    MW4 8796   2.168   2.637   2.950  0.3890  0.2150  0.2536
 2258SOL     OW 8797   3.715   3.554   4.924  0.5272  0.0291 -0.0617
 2258SOL    HW2 8798   3.675   3.532   4.839  0.1532 -0.7842  0.3135
 2258SOL    HW3 8799   3.694   3.647   4.937 -0.1211 -0.0497 -0.4822
 2258SOL    MW4 8800   3.707   3.563   4.914  0.0690  0.3330 -0.0897
 2259SOL     OW 8801   2.111   5.169   5.635 -0.8756 -0.1559  0.0638
 2259SOL    HW2 8802   2.043   5.209   5.689  0.7316  2.2120  0.4539
 2259SOL    HW3 8803   2.143   5.096   5.687 -2.9933 -1.3146 -0.1127
 2259SOL    MW4 8804   2.106   5.164   5.649  0.8577  0.3259 -0.3616
 2260SOL     OW 8805   1.061   6.301   1.962 -0.1220  0.3721 -0.1045
 2260SOL    HW2 8806   1.098   6.260   1.884 -0.2110 -1.3564  0.7353
 2260SOL    HW3 8807   1.123   6.372   1.983  1.6462 -1.1322  0.0425
 2260SOL    MW4 8808   1.074   6.305   1.955 -0.5295 -0.4007  0.3233
 2261SOL     OW 8809   5.734   0.145   0.669 -0.2284  0.2968 -0.5131
 2261SOL    HW2 8810   5.826   0.166   0.651  0.4194 -0.3971  1.6130
 2261SOL    HW3 8811   5.707   0.088   0.598  1.7728 -1.4827  0.0666
 2261SOL    MW4 8812   5.743   0.140   0.657  0.2226  0.1598 -0.0924
 2262SOL     OW 8813   6.231   6.350   4.100 -0.2500 -0.0888 -0.2538
 2262SOL    HW2 8814   6.267   6.276   4.050  0.1380  1.1224 -1.8439
 2262SOL    HW3 8815   6.138   6.353   4.075 -0.2446  0.0155 -0.2618
 2262SOL    MW4 8816   6.223   6.341   4.090 -0.9670  0.6936 -0.1289
 2263SOL     OW 8817   4.769   4.642   1.942 -0.0930 -0.4343  0.0670
 2263SOL    HW2 8818   4.796   4.678   2.027  0.0178 -0.6743  0.1349
 2263SOL    HW3 8819   4.687   4.597   1.961  0.3328 -1.1572  0.2080
 2263SOL    MW4 8820   4.762   4.641   1.956  0.6392 -0.4243 -0.2865
 2264SOL     OW 8821   1.888   5.371   1.624 -0.3916  0.7375 -0.3076
 2264SOL    HW2 8822   1.890   5.467   1.627  1.4650  0.7509 -0.7459
 2264SOL    HW3 8823   1.856   5.351   1.536 -2.1535  0.9108  0.2635
 2264SOL    MW4 8824   1.884   5.381   1.613 -0.4091  0.0958  0.3855
 2265SOL     OW 8825   1.561   6.234   4.837 -0.0176 -0.3084  0.0327
 2265SOL    HW2 8826   1.625   6.176   4.879 -0.7437 -0.8581  0.3935
 2265SOL    HW3 8827   1.609   6.316   4.823  0.4268 -0.3209  1.3730
 2265SOL    MW4 8828   1.576   6.237   4.841  0.0810  0.1991  0.1381
 2266SOL     OW 8829   3.682   2.466   3.566 -0.3922 -0.0029  0.3168
 2266SOL    HW2 8830   3.646   2.548   3.600  0.8295  1.0853 -0.9063
 2266SOL    HW3 8831   3.644   2.458   3.479  0.2025 -0.2628  0.0803
 2266SOL    MW4 8832   3.672   2.476   3.559  0.3566 -0.4866 -0.2783
 2267SOL     OW 8833   0.084   0.720   4.243 -0.0538  0.1208 -1.1818
 2267SOL    HW2 8834  -0.004   0.687   4.228  0.4092 -0.9322 -1.6427
 2267SOL    HW3 8835   0.125   0.721   4.157  0.9218 -1.0018 -0.7542
 2267SOL    MW4 8836   0.078   0.716   4.230 -0.1567  0.4783  0.2690
 2268SOL     OW 8837   0.864   4.910   1.398 -0.0515 -0.1456 -0.2855
 2268SOL    HW2 8838   0.785   4.874   1.437  0.0812 -1.8718 -1.4881
 2268SOL    HW3 8839   0.849   4.904   1.304  1.5319 -0.6143 -0.5417
 2268SOL    MW4 8840   0.851   4.904   1.391  0.2672  0.1298  0.0060
 2269SOL     OW 8841   1.514   5.415   2.212 -0.0024 -0.2795 -0.3791
 2269SOL    HW2 8842   1.581   5.346   2.220 -0.7670 -0.8274  3.0310
 2269SOL    HW3 8843   1.551   5.489   2.260 -1.7974 -0.6844  1.8134
 2269SOL    MW4 8844   1.528   5.415   2.219 -0.2410  0.0185 -0.1081
 2270SOL     OW 8845   3.975   5.479   5.826 -0.3271 -0.5528  0.4685
 2270SOL    HW2 8846   3.898   5.457   5.878  0.0753 -1.7267  0.5835
 2270SOL    HW3 8847   3.940   5.500   5.739 -0.7600 -1.3875  0.4324
 2270SOL    MW4 8848   3.960   5.479   5.821  0.2153 -0.3679  0.6243
 2271SOL     OW 8849   2.048   0.722   1.853 -0.4971 -0.3028  0.5698
 2271SOL    HW2 8850   2.042   0.808   1.811  2.4456 -2.0358 -4.2136
 2271SOL    HW3 8851   1.981   0.669   1.809 -0.6940 -1.0842  1.7619
 2271SOL    MW4 8852   2.038   0.727   1.841  0.7316 -0.3301  0.3227
 2272SOL     OW 8853   6.233   6.038   4.645 -0.3057 -0.5335  0.2429
 2272SOL    HW2 8854   6.275   6.015   4.728 -0.3303 -1.9883 -0.1243
 2272SOL    HW3 8855   6.139   6.023   4.660 -0.5066  0.6977  0.4051
 2272SOL    MW4 8856   6.226   6.033   4.658 -0.2370 -0.4852 -0.2059
 2273SOL     OW 8857   3.692   0.256   5.300  0.8192 -0.2356  0.1373
 2273SOL    HW2 8858   3.619   0.270   5.240 -0.2031 -1.5387  1.0183
 2273SOL    HW3 8859   3.766   0.299   5.258  0.3736 -1.7948 -2.4984
 2273SOL    MW4 8860   3.692   0.263   5.286 -0.6308  0.8935  0.7374
 2274SOL     OW 8861   4.680   2.455   3.178 -0.5473  0.1308  0.0586
 2274SOL    HW2 8862   4.760   2.457   3.125 -0.4825  1.1379  0.1710
 2274SOL    HW3 8863   4.651   2.546   3.180 -0.0799  0.2671  2.5016
 2274SOL    MW4 8864   4.687   2.467   3.171  0.3357 -0.1836  0.0330
 2275SOL     OW 8865   6.395   2.866   4.673 -0.1837 -0.4336 -0.0947
 2275SOL    HW2 8866   6.321   2.850   4.732 -0.5369 -0.0328 -0.4267
 2275SOL    HW3 8867   6.472   2.865   4.730 -0.4016 -1.2446  0.1999
 2275SOL    MW4 8868   6.395   2.863   4.689 -0.1159  0.1977  0.2257
 2276SOL     OW 8869   4.449   1.152   4.712  0.0231  0.3871 -0.4251
 2276SOL    HW2 8870   4.402   1.131   4.792 -0.0975 -0.2363 -0.6532
 2276SOL    HW3 8871   4.506   1.225   4.736  0.1813  0.0325  0.2939
 2276SOL    MW4 8872   4.450   1.159   4.726 -0.1202 -0.3595 -0.2846
 2277SOL     OW 8873   6.379   2.634   2.502 -0.1273 -0.0920  0.5781
 2277SOL    HW2 8874   6.360   2.728   2.507 -1.1723 -0.3488  1.9521
 2277SOL    HW3 8875   6.385   2.616   2.409 -0.0044  1.3182  0.2870
 2277SOL    MW4 8876   6.377   2.644   2.491 -0.6805  0.0585  0.6492
 2278SOL     OW 8877   5.760   0.309   2.947  0.1931  0.4395  0.4046
 2278SOL    HW2 8878   5.698   0.306   2.874  1.2546  0.7241 -0.5265
 2278SOL    HW3 8879   5.794   0.219   2.953  0.5035  0.5398  0.1859
 2278SOL    MW4 8880   5.756   0.296   2.938  0.1599  0.5149  0.2460
 2279SOL     OW 8881   0.097   5.977   2.048  0.3107  0.1455  0.0011
 2279SOL    HW2 8882   0.025   5.927   2.009  2.0009 -1.1149 -1.7659
 2279SOL    HW3 8883   0.105   5.943   2.137 -1.3025  0.3681  0.2463
 2279SOL    MW4 8884   0.089   5.966   2.055 -0.4258  0.0194  0.2974
 2280SOL     OW 8885   5.296   2.574   6.061  0.1511 -0.4150 -0.2967
 2280SOL    HW2 8886   5.365   2.612   6.116  0.2373 -1.1871  0.1457
 2280SOL    HW3 8887   5.251   2.512   6.119 -0.3623 -0.5476 -0.8315
 2280SOL    MW4 8888   5.299   2.571   6.076 -0.0896  0.2647 -0.0873
 2281SOL     OW 8889   0.929   3.547   2.501  0.6777 -0.3702 -0.1651
 2281SOL    HW2 8890   0.924   3.557   2.405  0.7965 -3.3861 -0.5976
 2281SOL    HW3 8891   1.023   3.554   2.520  0.8962 -1.7112 -0.6102
 2281SOL    MW4 8892   0.941   3.549   2.491  0.1901  0.2508 -0.2138
 2282SOL     OW 8893   1.806   2.401   3.136  0.0283  0.4805  0.4225
 2282SOL    HW2 8894   1.896   2.411   3.165 -1.0913  0.3121  4.7796
 2282SOL    HW3 8895   1.762   2.481   3.165 -1.5474 -0.2248  0.1164
 2282SOL    MW4 8896   1.812   2.413   3.144 -0.4830 -0.3097  0.3198
 2283SOL     OW 8897   1.990   2.231   1.368 -0.5930 -0.0997  0.3363
 2283SOL    HW2 8898   1.915   2.173   1.376 -1.2030  0.6688  0.2845
 2283SOL    HW3 8899   1.988   2.284   1.448  0.3372 -0.5709  0.6953
 2283SOL    MW4 8900   1.980   2.230   1.380 -0.3501 -0.1809 -0.1119
 2284SOL     OW 8901   4.421   5.265   2.277 -0.9421  0.4649 -0.1840
 2284SOL    HW2 8902   4.435   5.339   2.336  3.2270  0.6079 -1.0752
 2284SOL    HW3 8903   4.424   5.188   2.334 -1.1539  0.7668  0.2441
 2284SOL    MW4 8904   4.423   5.265   2.292 -0.1459  0.4072 -0.5740
 2285SOL     OW 8905   3.038   2.953   3.832 -0.0513  0.0158  0.1704
 2285SOL    HW2 8906   3.056   2.963   3.739  2.2588  1.6234  0.7213
 2285SOL    HW3 8907   2.997   3.036   3.858 -0.5009 -0.3459  0.6530
 2285SOL    MW4 8908   3.035   2.965   3.823 -0.2642 -0.3640  1.0051
 2286SOL     OW 8909   6.380   3.468   3.382  0.1934  0.4807 -0.2154
 2286SOL    HW2 8910   6.419   3.398   3.435  0.3117  0.2091 -0.6549
 2286SOL    HW3 8911   6.312   3.505   3.438  0.2950  0.1798  0.1151
 2286SOL    MW4 8912   6.376   3.464   3.397  0.1171  0.2017 -0.3033
 2287SOL     OW 8913   0.225   1.885   0.255  0.4341  0.6584 -0.8869
 2287SOL    HW2 8914   0.214   1.921   0.167  1.0503  2.3691 -0.3033
 2287SOL    HW3 8915   0.310   1.917   0.284 -0.2048  0.9971  0.7304
 2287SOL    MW4 8916   0.235   1.894   0.247 -0.2101 -0.0740 -0.3759
 2288SOL     OW 8917   4.322   4.757   0.264  0.9513 -0.1030 -0.6533
 2288SOL    HW2 8918   4.394   4.792   0.316  0.1968  0.4262  0.0640
 2288SOL    HW3 8919   4.338   4.662   0.262  2.0982  0.0922 -1.1961
 2288SOL    MW4 8920   4.333   4.749   0.271  0.5883  0.7830 -0.4375
 2289SOL     OW 8921   4.157   1.478   3.912 -0.0533 -0.0989  0.2815
 2289SOL    HW2 8922   4.127   1.530   3.986  1.8792  0.4694  0.7207
 2289SOL    HW3 8923   4.080   1.472   3.854 -1.1008  0.8943  1.5039
 2289SOL    MW4 8924   4.143   1.484   3.914 -0.0189 -0.3338  0.1704
 2290SOL     OW 8925   1.407   5.602   5.975 -0.1263  0.1748  0.2176
 2290SOL    HW2 8926   1.368   5.633   6.057  2.0190  0.7847  1.0714
 2290SOL    HW3 8927   1.501   5.594   5.994  0.3432 -0.3075 -1.9962
 2290SOL    MW4 8928   1.414   5.605   5.989  0.7394  0.3131 -0.5607
 2291SOL     OW 8929   1.802   3.218   3.878  0.2841  0.2522  0.0177
 2291SOL    HW2 8930   1.739   3.167   3.929  1.0284  1.7290  2.5801
 2291SOL    HW3 8931   1.785   3.309   3.901  1.2802  0.9387 -1.7280
 2291SOL    MW4 8932   1.791   3.223   3.888  0.7697 -0.0378  0.0293
 2292SOL     OW 8933   6.270   1.814   6.271 -1.3389  0.0251  0.1534
 2292SOL    HW2 8934   6.309   1.886   6.222 -0.3642 -1.3165 -1.0996
 2292SOL    HW3 8935   6.198   1.855   6.319 -2.2001  1.4522 -2.1875
 2292SOL    MW4 8936   6.266   1.829   6.271  0.0143 -0.0372 -0.4408
 2293SOL     OW 8937   6.139   3.539   1.992  0.4515 -0.5255 -0.3007
 2293SOL    HW2 8938   6.188   3.521   1.912 -0.3375  1.5471 -1.3198
 2293SOL    HW3 8939   6.206   3.562   2.057  0.9581  0.9556 -1.3014
 2293SOL    MW4 8940   6.154   3.540   1.990 -0.1655 -0.3076  0.5656
 2294SOL     OW 8941   1.408   2.589   1.210  0.4370  0.0201 -0.4403
 2294SOL    HW2 8942   1.351   2.663   1.227 -0.8901 -1.3191  1.4897
 2294SOL    HW3 8943   1.497   2.623   1.224 -0.1725  1.1081  1.0913
 2294SOL    MW4 8944   1.412   2.603   1.214  0.4861  0.1987  0.0451
 2295SOL     OW 8945   3.369   1.764   1.364 -0.0548 -0.0564  0.0860
 2295SOL    HW2 8946   3.319   1.839   1.332 -0.7935 -0.5658  0.0166
 2295SOL    HW3 8947   3.350   1.694   1.301 -0.5893 -0.7363  0.9827
 2295SOL    MW4 8948   3.360   1.765   1.351  0.4190  0.0860 -0.3735
 2296SOL     OW 8949   0.311   1.676   2.256  0.1664 -0.1870 -0.2785
 2296SOL    HW2 8950   0.333   1.584   2.272  1.0086 -0.0109 -0.3763
 2296SOL    HW3 8951   0.256   1.700   2.331  3.0979  0.2856  1.9287
 2296SOL    MW4 8952   0.307   1.667   2.268 -0.2517  0.0434  0.0890
 2297SOL     OW 8953   5.141   5.704   2.534 -0.1911  0.1889  0.5963
 2297SOL    HW2 8954   5.193   5.654   2.596  0.3927  0.1339  0.0686
 2297SOL    HW3 8955   5.102   5.774   2.586  3.7550  2.8609  0.3718
 2297SOL    MW4 8956   5.143   5.707   2.549  0.5181 -0.4568 -0.0647
 2298SOL     OW 8957   2.231   3.962   5.692  0.0092 -0.4771  0.6938
 2298SOL    HW2 8958   2.293   3.904   5.736 -0.4350 -1.2082  0.3635
 2298SOL    HW3 8959   2.163   3.904   5.659 -0.6359  0.2715  0.6786
 2298SOL    MW4 8960   2.230   3.947   5.694  0.0090 -0.4047 -0.3464
 2299SOL     OW 8961   0.355   0.364   0.067  0.1392 -0.3360  0.1989
 2299SOL    HW2 8962   0.388   0.382   0.155 -0.3390  0.8249  0.1538
 2299SOL    HW3 8963   0.358   0.448   0.022 -0.2475 -0.7815 -0.6831
 2299SOL    MW4 8964   0.359   0.377   0.073  0.2582  0.3560  0.4217
 2300SOL     OW 8965   1.618   4.027   5.567  0.1570 -0.5098 -0.2913
 2300SOL    HW2 8966   1.573   4.044   5.649  0.7453 -0.8056  0.1040
 2300SOL    HW3 8967   1.708   4.007   5.593  0.8198  1.1884 -1.1187
 2300SOL    MW4 8968   1.624   4.027   5.581 -0.2143 -0.7133  0.3761
 2301SOL     OW 8969   3.533   2.880   4.569 -0.0900  0.0249 -0.2907
 2301SOL    HW2 8970   3.586   2.958   4.588  0.6861 -0.4661 -0.3973
 2301SOL    HW3 8971   3.559   2.854   4.481  0.0784 -0.6785 -0.0418
 2301SOL    MW4 8972   3.544   2.887   4.560  0.1790 -0.0653  0.3799
 2302SOL     OW 8973   1.818   0.319   2.683 -0.1262 -0.2534 -0.0225
 2302SOL    HW2 8974   1.725   0.330   2.660 -1.1246 -0.7360  3.2430
 2302SOL    HW3 8975   1.829   0.224   2.688  0.9557 -0.2444 -1.6170
 2302SOL    MW4 8976   1.807   0.308   2.680  0.2362  0.1262  0.1535
 2303SOL     OW 8977   4.797   6.417   2.890  0.8786  0.2597 -0.2162
 2303SOL    HW2 8978   4.764   6.445   2.805  0.3771  0.9379  0.1952
 2303SOL    HW3 8979   4.751   6.335   2.907  0.8386  0.2185 -0.5110
 2303SOL    MW4 8980   4.786   6.410   2.881 -0.1314  0.9444 -0.3816
 2304SOL     OW 8981   2.270   5.110   6.404  0.7355 -0.1646  0.0452
 2304SOL    HW2 8982   2.262   5.204   6.420  2.4508  0.0772 -0.3822
 2304SOL    HW3 8983   2.342   5.102   6.342  1.5778 -1.8514  1.1626
 2304SOL    MW4 8984   2.278   5.122   6.398  0.0953  0.2592 -0.0036
 2305SOL     OW 8985   4.865   5.221   4.231  0.1338 -0.2434 -0.3208
 2305SOL    HW2 8986   4.955   5.199   4.254 -0.3075 -0.8985  0.8946
 2305SOL    HW3 8987   4.856   5.194   4.140  1.3612  0.4837 -0.6788
 2305SOL    MW4 8988   4.876   5.215   4.222  0.7079  0.6210 -0.0407
 2306SOL     OW 8989   1.652   5.022   3.487 -0.5064  0.0869  0.0017
 2306SOL    HW2 8990   1.596   5.078   3.542 -0.0620  0.1643  0.3842
 2306SOL    HW3 8991   1.735   5.069   3.482  0.8725 -1.7941  2.6874
 2306SOL    MW4 8992   1.655   5.036   3.494 -0.1159  0.3591 -0.0146
 2307SOL     OW 8993   5.899   4.000   6.146  0.4684 -1.1988  0.0207
 2307SOL    HW2 8994   5.951   4.017   6.068 -0.3979 -1.0537 -0.5363
 2307SOL    HW3 8995   5.959   4.014   6.219  0.7354  0.7715 -0.5386
 2307SOL    MW4 8996   5.914   4.004   6.145  0.6818 -0.6445  0.0066
 2308SOL     OW 8997   1.443   0.865   6.219 -0.5724  0.1325 -0.3242
 2308SOL    HW2 8998   1.368   0.890   6.273 -0.2524 -1.8547  1.1704
 2308SOL    HW3 8999   1.518   0.874   6.278 -0.4125 -4.0317  0.4301
 2308SOL    MW4 9000   1.443   0.869   6.234  0.0778 -0.4755 -0.4960
 2309SOL     OW 9001   5.185   3.416   1.502 -0.6897  0.1647 -0.1768
 2309SOL    HW2 9002   5.122   3.481   1.471  1.8983  2.7653 -0.4156
 2309SOL    HW3 9003   5.216   3.451   1.585  0.5283 -0.9550 -0.1341
 2309SOL    MW4 9004   5.181   3.429   1.509 -0.0083  0.4246  0.9530
 2310SOL     OW 9005   1.200   5.409   0.390  0.3543  0.1099  0.0369
 2310SOL    HW2 9006   1.252   5.388   0.468 -0.4185  1.7392  1.0447
 2310SOL    HW3 9007   1.265   5.425   0.321  1.2743  2.1233  1.2706
 2310SOL    MW4 9008   1.215   5.409   0.391 -0.1494 -0.0766 -0.2890
 2311SOL     OW 9009   4.179   1.096   1.226  0.3736  0.3054 -0.0859
 2311SOL    HW2 9010   4.111   1.039   1.192 -0.8926 -0.1594  2.9640
 2311SOL    HW3 9011   4.261   1.048   1.212 -0.4528 -1.3359  0.5083
 2311SOL    MW4 9012   4.181   1.082   1.220 -0.4119  0.0679  0.0252
 2312SOL     OW 9013   3.182   1.416   4.400 -0.0121  0.4605 -0.5592
 2312SOL    HW2 9014   3.246   1.415   4.470 -0.6208 -0.3104  0.0045
 2312SOL    HW3 9015   3.136   1.332   4.408  0.2333  0.1447 -2.1857
 2312SOL    MW4 9016   3.184   1.405   4.410 -0.2753  0.0863 -0.4786
 2313SOL     OW 9017   0.673   4.682   5.528 -0.2599  0.1519  0.2114
 2313SOL    HW2 9018   0.613   4.607   5.532 -0.3626  0.1730 -0.7071
 2313SOL    HW3 9019   0.726   4.675   5.607 -0.5496 -0.6558  0.3417
 2313SOL    MW4 9020   0.672   4.671   5.539 -0.0158  0.5959  0.4608
 2314SOL     OW 9021   4.320   3.802   4.060 -0.5557 -0.4472  0.8829
 2314SOL    HW2 9022   4.385   3.736   4.037 -1.3416 -1.0295  0.2667
 2314SOL    HW3 9023   4.364   3.858   4.124  0.5816 -0.7542  0.3945
 2314SOL    MW4 9024   4.335   3.801   4.066 -0.0213 -0.3634 -0.0084
 2315SOL     OW 9025   4.777   2.254   4.087  0.1919 -0.1123  0.1377
 2315SOL    HW2 9026   4.708   2.307   4.130 -0.0969  0.7569 -1.3301
 2315SOL    HW3 9027   4.783   2.176   4.141 -2.2776 -0.4254  0.1110
 2315SOL    MW4 9028   4.769   2.251   4.100  0.3350 -0.0860  0.2057
 2316SOL     OW 9029   2.580   3.363   4.560 -0.6819  0.1298  0.4326
 2316SOL    HW2 9030   2.545   3.371   4.471  1.5543  0.1292 -0.5008
 2316SOL    HW3 9031   2.584   3.269   4.575 -0.0524  0.1009  0.1020
 2316SOL    MW4 9032   2.576   3.351   4.550  0.4839  0.3377 -0.7065
 2317SOL     OW 9033   3.684   1.729   5.692  0.4751  0.0606 -0.1028
 2317SOL    HW2 9034   3.646   1.800   5.641 -1.9632 -0.4802  0.8301
 2317SOL    HW3 9035   3.664   1.750   5.783  1.2547 -0.9684  0.3361
 2317SOL    MW4 9036   3.677   1.741   5.697  0.2923 -0.0096 -0.4056
 2318SOL     OW 9037   0.366   1.427   6.053  0.4469  0.1693 -0.4649
 2318SOL    HW2 9038   0.436   1.361   6.057 -0.2866 -0.5768  1.5628
 2318SOL    HW3 9039   0.366   1.456   5.962  0.7673 -2.6879 -1.4962
 2318SOL    MW4 9040   0.375   1.422   6.042 -0.3304 -0.4563  0.6186
 2319SOL     OW 9041   0.971   1.115   2.804  0.1599  0.2427 -0.0483
 2319SOL    HW2 9042   0.961   1.151   2.892 -0.9731  0.2999 -0.1752
 2319SOL    HW3 9043   0.902   1.049   2.797 -0.3344  0.8434 -1.1732
 2319SOL    MW4 9044   0.960   1.111   2.814  0.0182 -0.6612  0.0825
 2320SOL     OW 9045   1.911   5.701   5.871 -0.3682  0.6624  0.1777
 2320SOL    HW2 9046   1.874   5.747   5.795  1.5791  1.2167 -0.4920
 2320SOL    HW3 9047   1.981   5.647   5.835 -0.1048  0.1029  1.4626
 2320SOL    MW4 9048   1.916   5.700   5.856 -0.4230  0.0133 -0.1746
 2321SOL     OW 9049   2.975   4.268   0.391  0.0266 -0.2445 -0.3287
 2321SOL    HW2 9050   2.897   4.312   0.357 -0.0299 -1.9282 -2.5552
 2321SOL    HW3 9051   3.049   4.319   0.358 -0.0750  0.7112  0.8600
 2321SOL    MW4 9052   2.974   4.281   0.382 -0.5206 -0.2807 -0.3663
 2322SOL     OW 9053   0.763   5.945   4.632 -0.4144  0.4712  0.3382
 2322SOL    HW2 9054   0.791   5.981   4.548 -0.7220  0.7394  0.3486
 2322SOL    HW3 9055   0.763   6.020   4.691  1.6355 -0.0439  1.0619
 2322SOL    MW4 9056   0.766   5.960   4.629  0.0011  0.0177 -0.1151
 2323SOL     OW 9057   5.920   2.941   4.288  0.1597  0.0156  0.1014
 2323SOL    HW2 9058   5.912   2.972   4.198 -1.1089 -1.7407 -0.4481
 2323SOL    HW3 9059   5.992   2.878   4.286 -1.4140 -1.8820 -0.3184
 2323SOL    MW4 9060   5.929   2.937   4.276  0.2774 -0.6910 -0.2397
 2324SOL     OW 9061   4.018   0.650   5.202 -0.1897  0.4973 -0.3062
 2324SOL    HW2 9062   3.980   0.637   5.115 -1.2958 -1.9462  0.4488
 2324SOL    HW3 9063   3.943   0.646   5.261  0.9099 -1.9155  1.0413
 2324SOL    MW4 9064   4.003   0.648   5.198  0.3089  0.2590 -0.2075
 2325SOL     OW 9065   2.925   2.821   2.762  0.2363 -0.0347 -0.3497
 2325SOL    HW2 9066   2.913   2.839   2.855 -1.2263  0.5770 -0.6383
 2325SOL    HW3 9067   2.918   2.725   2.756  1.5635 -0.2038  0.3025
 2325SOL    MW4 9068   2.923   2.810   2.774  0.0494 -0.2533 -0.2155
 2326SOL     OW 9069   4.224   2.903   6.213  0.1491 -0.3297 -0.3351
 2326SOL    HW2 9070   4.287   2.946   6.155 -0.9599  1.6834 -0.1303
 2326SOL    HW3 9071   4.250   2.932   6.301 -0.9119  0.3561 -0.2344
 2326SOL    MW4 9072   4.236   2.913   6.217 -0.1281  0.2295 -0.3140
 2327SOL     OW 9073   5.759   6.313   2.846  0.5451 -0.2025  0.1143
 2327SOL    HW2 9074   5.853   6.323   2.860  0.7718  0.7107 -1.7375
 2327SOL    HW3 9075   5.738   6.373   2.775 -0.8723 -2.5712 -1.6509
 2327SOL    MW4 9076   5.768   6.322   2.839 -0.0500  0.6506 -1.0230
 2328SOL     OW 9077   4.245   6.095   6.136  0.4268  0.2683 -0.6501
 2328SOL    HW2 9078   4.269   6.187   6.131  1.8135  0.0168  0.7465
 2328SOL    HW3 9079   4.250   6.064   6.045  0.7475  1.3562 -1.0197
 2328SOL    MW4 9080   4.249   6.103   6.123  0.0716  0.0555 -0.3690
 2329SOL     OW 9081   0.916   5.871   5.313 -0.4765  0.1824  0.5532
 2329SOL    HW2 9082   0.892   5.791   5.265  0.4759 -0.0730  0.4802
 2329SOL    HW3 9083   1.007   5.886   5.289 -0.5973  1.2063  0.7034
 2329SOL    MW4 9084   0.924   5.862   5.303 -0.8149 -0.6022 -0.2500
 2330SOL     OW 9085   0.215   4.987   3.640 -0.3843  0.2774  0.9493
 2330SOL    HW2 9086   0.151   4.938   3.692  1.3693 -0.0886  2.8983
 2330SOL    HW3 9087   0.244   4.925   3.574 -1.2229  0.0997  0.7294
 2330SOL    MW4 9088   0.210   4.972   3.638  0.4771  0.1998 -0.1283
 2331SOL     OW 9089   3.624   0.173   2.187  0.2472  0.0083  0.5938
 2331SOL    HW2 9090   3.680   0.215   2.253  0.5906 -1.4885  1.2809
 2331SOL    HW3 9091   3.547   0.230   2.182  1.2261  1.3785  0.6010
 2331SOL    MW4 9092   3.621   0.186   2.195 -0.0934  0.0354  0.2600
 2332SOL     OW 9093   2.204   3.277   5.280 -0.2198 -0.3471  0.4569
 2332SOL    HW2 9094   2.130   3.223   5.307 -0.9450 -0.7943 -2.1574
 2332SOL    HW3 9095   2.256   3.220   5.224  0.2712  0.9648 -0.4699
 2332SOL    MW4 9096   2.201   3.262   5.276  0.8228  0.0288 -0.4201
 2333SOL     OW 9097   0.170   2.712   1.810 -0.3280  0.1030  0.5599
 2333SOL    HW2 9098   0.131   2.720   1.723  1.5785 -0.6154 -0.4376
 2333SOL    HW3 9099   0.262   2.692   1.793  0.0269 -0.4514  2.7583
 2333SOL    MW4 9100   0.177   2.710   1.796  0.7406  0.1144  0.3336
 2334SOL     OW 9101   0.475   1.918   0.731  0.4466 -0.1003  0.0922
 2334SOL    HW2 9102   0.398   1.969   0.754  0.4288 -0.3839  0.6814
 2334SOL    HW3 9103   0.442   1.829   0.717  0.5896 -0.1131 -0.1840
 2334SOL    MW4 9104   0.460   1.913   0.732  0.1516  0.3707  0.3366
 2335SOL     OW 9105   0.514   4.656   6.369  0.0413  0.0743  0.1929
 2335SOL    HW2 9106   0.586   4.714   6.393  0.6011 -0.4312 -0.2350
 2335SOL    HW3 9107   0.435   4.705   6.392  0.5161  0.6664  0.5987
 2335SOL    MW4 9108   0.513   4.670   6.375  0.4840 -0.4743 -0.7764
 2336SOL     OW 9109   1.282   2.862   2.149  0.0596  0.4955 -0.3554
 2336SOL    HW2 9110   1.351   2.858   2.216 -1.5874  0.3661  1.3987
 2336SOL    HW3 9111   1.273   2.955   2.130  0.2445  0.5678 -0.0946
 2336SOL    MW4 9112   1.290   2.874   2.155 -0.0033 -0.1616  0.2576
 2337SOL     OW 9113   5.294   0.185   2.966  0.6270  0.1590  0.0366
 2337SOL    HW2 9114   5.271   0.252   2.902  0.4389 -1.4851 -1.6773
 2337SOL    HW3 9115   5.220   0.125   2.966  1.5011 -0.9480  0.2908
 2337SOL    MW4 9116   5.281   0.186   2.958  0.2835  0.3763 -0.3412
 2338SOL     OW 9117   5.252   5.287   0.802  0.0700  0.4252 -0.1505
 2338SOL    HW2 9118   5.164   5.275   0.837  0.2519  1.2017  0.6096
 2338SOL    HW3 9119   5.241   5.351   0.731 -0.2490 -0.9121 -1.3585
 2338SOL    MW4 9120   5.239   5.294   0.797 -0.6731  0.5104 -0.7161
 2339SOL     OW 9121   4.442   5.597   2.695  0.2204  0.0647 -0.3228
 2339SOL    HW2 9122   4.352   5.599   2.663  0.1325  1.9076 -0.0746
 2339SOL    HW3 9123   4.434   5.580   2.788  0.1952 -0.6816 -0.4567
 2339SOL    MW4 9124   4.429   5.595   2.703 -0.3789 -0.5161 -0.0691
 2340SOL     OW 9125   4.103   0.440   0.316 -0.0797  0.0336 -0.0217
 2340SOL    HW2 9126   4.078   0.351   0.341 -0.4741  0.1522  0.0015
 2340SOL    HW3 9127   4.067   0.496   0.384 -0.2267  0.2558 -0.2822
 2340SOL    MW4 9128   4.095   0.436   0.328 -0.2718  0.3882  0.1281
 2341SOL     OW 9129   0.039   4.099   3.507 -0.5173  0.1599  0.5664
 2341SOL    HW2 9130  -0.006   4.030   3.459 -0.6802 -1.5700  3.0650
 2341SOL    HW3 9131   0.123   4.061   3.531  0.1159  1.4711  0.5453
 2341SOL    MW4 9132   0.044   4.085   3.504  0.4211  0.1664 -0.2612
 2342SOL     OW 9133   0.825   0.603   5.245  0.1147  0.0409 -0.1606
 2342SOL    HW2 9134   0.856   0.690   5.221  1.2254 -0.3378 -0.1755
 2342SOL    HW3 9135   0.730   0.612   5.254  0.0404  0.8895 -1.6385
 2342SOL    MW4 9136   0.817   0.616   5.243  0.2358 -0.2963 -0.1727
 2343SOL     OW 9137   1.254   1.785   4.115  0.1202  0.0474 -0.1776
 2343SOL    HW2 9138   1.269   1.775   4.209 -0.5661 -0.1536 -0.0786
 2343SOL    HW3 9139   1.209   1.869   4.107  2.5801  1.4198 -0.6257
 2343SOL    MW4 9140   1.250   1.794   4.127 -0.2984  0.3117  0.0394
 2344SOL     OW 9141   2.394   4.681   1.417 -0.2462 -0.0325 -0.5538
 2344SOL    HW2 9142   2.347   4.724   1.489 -0.6080 -1.0039 -0.1920
 2344SOL    HW3 9143   2.401   4.748   1.349 -2.8199 -0.0449 -0.9250
 2344SOL    MW4 9144   2.389   4.696   1.418 -0.2842 -0.9152  0.0490
 2345SOL     OW 9145   1.093   3.096   0.298  0.0275  0.2567 -0.4006
 2345SOL    HW2 9146   1.171   3.149   0.281 -0.4345  1.2738  0.5003
 2345SOL    HW3 9147   1.020   3.157   0.288 -0.4523  0.1606  1.8439
 2345SOL    MW4 9148   1.093   3.111   0.295 -0.3347  0.3567  0.0399
 2346SOL     OW 9149   3.536   5.258   6.010  0.4058 -0.2140  0.4108
 2346SOL    HW2 9150   3.493   5.290   6.089 -2.2810  0.4866 -1.2042
 2346SOL    HW3 9151   3.604   5.322   5.991 -0.5376  0.9418  0.8505
 2346SOL    MW4 9152   3.539   5.270   6.018  0.2282 -0.5917  0.1669
 2347SOL     OW 9153   0.171   5.797   0.303  0.0697  0.1220  0.2157
 2347SOL    HW2 9154   0.139   5.882   0.273 -1.0130 -0.7688 -1.2311
 2347SOL    HW3 9155   0.267   5.805   0.299  0.1436  2.2193  2.9219
 2347SOL    MW4 9156   0.180   5.809   0.299  0.3719 -0.1009 -0.0303
 2348SOL     OW 9157   5.298   4.156   2.571  0.0673  0.0766 -0.1203
 2348SOL    HW2 9158   5.231   4.088   2.576 -2.2040  2.1527 -0.5119
 2348SOL    HW3 9159   5.379   4.112   2.598 -0.9426 -3.1438 -1.8100
 2348SOL    MW4 9160   5.300   4.142   2.575 -0.1976 -0.1617 -0.2167
 2349SOL     OW 9161   6.241   1.453   2.638 -0.1798  0.5387 -0.0129
 2349SOL    HW2 9162   6.151   1.445   2.607  0.2326  0.6895 -1.3502
 2349SOL    HW3 9163   6.279   1.366   2.625  0.2440  0.8259 -0.7943
 2349SOL    MW4 9164   6.234   1.440   2.632  0.1877  0.0850  0.1035
 2350SOL     OW 9165   1.473   2.886   0.202  0.0041  0.2275 -0.0293
 2350SOL    HW2 9166   1.464   2.919   0.112 -2.7066  0.2761  0.1764
 2350SOL    HW3 9167   1.459   2.962   0.258 -4.1498 -0.5783  0.4044
 2350SOL    MW4 9168   1.470   2.900   0.197 -0.3068 -0.6945 -0.3340
 2351SOL     OW 9169   1.431   5.151   3.171  0.0108 -0.2148  1.2832
 2351SOL    HW2 9170   1.506   5.164   3.113 -0.7287  2.0496  0.7297
 2351SOL    HW3 9171   1.361   5.121   3.114  0.1504 -1.1645  1.5960
 2351SOL    MW4 9172   1.432   5.149   3.156 -0.0867 -0.4490 -0.0528
 2352SOL     OW 9173   1.869   3.920   1.563 -1.0183 -0.8242  0.5924
 2352SOL    HW2 9174   1.960   3.891   1.570 -1.3491 -2.2153 -0.5565
 2352SOL    HW3 9175   1.858   3.981   1.636  1.5723  1.4047 -0.6817
 2352SOL    MW4 9176   1.880   3.925   1.574 -0.4315 -0.0834  0.2591
 2353SOL     OW 9177   2.906   2.281   2.795 -0.4464  0.0053 -0.2332
 2353SOL    HW2 9178   2.949   2.206   2.755 -2.3911 -0.6871 -1.1634
 2353SOL    HW3 9179   2.842   2.243   2.855 -2.4710  0.7643 -1.7605
 2353SOL    MW4 9180   2.903   2.266   2.797 -0.3382  0.7447  0.1421
 2354SOL     OW 9181   5.355   6.311   2.807 -0.1834  0.0609  0.1029
 2354SOL    HW2 9182   5.397   6.386   2.849 -0.3036 -0.4098  1.0847
 2354SOL    HW3 9183   5.281   6.290   2.865  0.8008 -1.8404  0.7395
 2354SOL    MW4 9184   5.351   6.318   2.820 -0.4469  0.7160 -0.4823
 2355SOL     OW 9185   3.623   3.929   4.746 -0.9667 -0.0478 -0.3481
 2355SOL    HW2 9186   3.681   3.881   4.687  0.2937  0.5347  0.3860
 2355SOL    HW3 9187   3.546   3.948   4.692  0.6761  1.6445 -2.3029
 2355SOL    MW4 9188   3.620   3.925   4.731 -0.3209 -0.4792 -0.2432
 2356SOL     OW 9189   6.045   4.964   4.098  0.4385  0.1080  0.4493
 2356SOL    HW2 9190   6.069   5.054   4.078 -1.0206  1.1492  2.9884
 2356SOL    HW3 9191   6.077   4.914   4.023  1.7593  2.6290 -0.7967
 2356SOL    MW4 9192   6.052   4.969   4.085 -0.2446  0.0414 -0.0807
 2357SOL     OW 9193   5.301   5.679   5.535  0.6535 -0.4390 -0.0834
 2357SOL    HW2 9194   5.344   5.764   5.543  1.0443 -0.5778 -0.6540
 2357SOL    HW3 9195   5.280   5.654   5.625  1.4333 -0.2022  0.1715
 2357SOL    MW4 9196   5.304   5.687   5.548 -0.0322  0.7446 -0.7771
 2358SOL     OW 9197   4.750   0.745   5.714  0.4055  0.3041 -0.2011
 2358SOL    HW2 9198   4.784   0.745   5.803  1.9167 -0.5598 -0.7429
 2358SOL    HW3 9199   4.795   0.819   5.672  0.7532 -0.1407 -0.6171
 2358SOL    MW4 9200   4.760   0.755   5.720 -0.0033  0.0877  0.0841
 2359SOL     OW 9201   6.102   5.318   6.218 -0.3787  0.6598 -0.4720
 2359SOL    HW2 9202   6.079   5.410   6.223  0.5350  0.8444  1.5937
 2359SOL    HW3 9203   6.182   5.310   6.271 -1.1829 -1.5161  0.5652
 2359SOL    MW4 9204   6.110   5.329   6.226 -0.0590  0.1117  0.8492
 2360SOL     OW 9205   4.207   1.034   1.902 -0.8548  0.1398 -0.2533
 2360SOL    HW2 9206   4.265   1.024   1.977 -2.9483 -0.8397  1.3391
 2360SOL    HW3 9207   4.212   1.127   1.880  0.6068  0.2352  0.4051
 2360SOL    MW4 9208   4.215   1.045   1.909  0.3085 -0.3843 -0.1544
 2361SOL     OW 9209   1.938   4.553   4.587  0.1914 -0.1153  0.0856
 2361SOL    HW2 9210   2.022   4.598   4.596  0.7555 -0.8229 -1.3308
 2361SOL    HW3 9211   1.960   4.460   4.588 -0.6949 -0.3360  0.5852
 2361SOL    MW4 9212   1.952   4.547   4.589  0.1538 -0.0392  0.0551
 2362SOL     OW 9213   0.270   5.154   4.562 -0.2635  0.3726 -0.2106
 2362SOL    HW2 9214   0.271   5.249   4.568  0.3776  0.3195  0.7399
 2362SOL    HW3 9215   0.252   5.125   4.652 -1.3839 -0.3926 -0.6632
 2362SOL    MW4 9216   0.268   5.163   4.575 -0.4626 -0.2076  0.0750
 2363SOL     OW 9217   4.213   1.855   1.769  0.6342  0.1039 -0.5021
 2363SOL    HW2 9218   4.210   1.789   1.700  0.4590 -0.1562 -0.2486
 2363SOL    HW3 9219   4.130   1.902   1.761  0.6712  0.1600 -0.5549
 2363SOL    MW4 9220   4.202   1.852   1.759  0.1743  0.1942 -0.4001
 2364SOL     OW 9221   4.249   4.229   4.259  0.2235 -0.4213 -0.0406
 2364SOL    HW2 9222   4.280   4.316   4.236  0.2466 -0.0260  1.3764
 2364SOL    HW3 9223   4.157   4.228   4.233  0.7347 -0.7347 -1.9906
 2364SOL    MW4 9224   4.241   4.240   4.253 -0.8031 -0.5989 -0.2049
 2365SOL     OW 9225   4.680   5.036   1.476  0.1528  0.4767 -0.0666
 2365SOL    HW2 9226   4.631   5.014   1.556 -0.1008  1.7344  0.1489
 2365SOL    HW3 9227   4.630   4.995   1.406 -0.1512  0.1555  0.3279
 2365SOL    MW4 9228   4.667   5.028   1.478  0.7923  0.5544 -0.1322
 2366SOL     OW 9229   5.429   3.425   5.766 -0.5895 -0.1293 -0.8605
 2366SOL    HW2 9230   5.498   3.447   5.703  1.4048 -1.9370  0.5811
 2366SOL    HW3 9231   5.380   3.355   5.723 -2.5295  2.0549 -2.4674
 2366SOL    MW4 9232   5.432   3.419   5.752 -0.5558 -1.1527  0.4410
 2367SOL     OW 9233   5.131   0.236   1.065  0.4181  0.0712 -0.4264
 2367SOL    HW2 9234   5.123   0.214   0.972  0.6093 -1.2320 -0.1515
 2367SOL    HW3 9235   5.208   0.187   1.094  0.6050  0.8005  0.3282
 2367SOL    MW4 9236   5.140   0.227   1.056 -0.0043 -0.1045  0.0343
 2368SOL     OW 9237   1.148   3.078   6.376  0.5668  0.0572  0.0097
 2368SOL    HW2 9238   1.188   2.991   6.375 -1.6643 -1.0388  0.4422
 2368SOL    HW3 9239   1.055   3.062   6.393  0.4079  2.6553  2.3170
 2368SOL    MW4 9240   1.141   3.064   6.378  0.9732 -0.1535 -0.6404
 2369SOL     OW 9241   5.833   5.737   2.734 -0.7896  0.2382 -0.3410
 2369SOL    HW2 9242   5.739   5.749   2.739 -1.0466 -1.1916 -1.2406
 2369SOL    HW3 9243   5.848   5.648   2.766  0.0760 -0.1276 -1.6717
 2369SOL    MW4 9244   5.823   5.727   2.739  0.2864  0.4966 -0.0226
 2370SOL     OW 9245   3.248   5.777   0.035  0.2199  0.2707 -0.3290
 2370SOL    HW2 9246   3.178   5.831   0.071  0.2280  1.5182 -2.0734
 2370SOL    HW3 9247   3.213   5.745  -0.049  0.4166 -2.0506  0.3973
 2370SOL    MW4 9248   3.234   5.780   0.028  0.3380  0.3950 -0.2965
 2371SOL     OW 9249   4.171   1.987   4.243  0.0006 -0.5789  0.1037
 2371SOL    HW2 9250   4.255   2.020   4.275 -0.0474 -0.0212 -0.3137
 2371SOL    HW3 9251   4.193   1.907   4.196  0.2499 -0.6440  0.3291
 2371SOL    MW4 9252   4.185   1.981   4.241 -0.1422 -1.0299  0.5091
 2372SOL     OW 9253   6.115   3.949   2.044  0.2501 -0.2464 -0.4080
 2372SOL    HW2 9254   6.105   3.927   1.951 -1.3670  0.4942 -0.4489
 2372SOL    HW3 9255   6.163   4.031   2.044  0.4759 -0.3770 -0.5751
 2372SOL    MW4 9256   6.120   3.957   2.032  0.0031 -0.0363 -0.1252
 2373SOL     OW 9257   2.961   2.703   5.380  0.2007 -0.1079 -0.8423
 2373SOL    HW2 9258   3.004   2.763   5.319  0.3151 -0.8526 -1.5095
 2373SOL    HW3 9259   2.893   2.756   5.422  0.3138  0.4884 -1.3964
 2373SOL    MW4 9260   2.958   2.718   5.378 -0.1299  0.2757  0.0217
 2374SOL     OW 9261   5.036   1.065   1.007 -0.0427 -0.0313  0.7275
 2374SOL    HW2 9262   5.003   1.144   0.965 -1.6596 -1.3369 -0.5575
 2374SOL    HW3 9263   5.103   1.032   0.947  0.6828  0.3432  1.2979
 2374SOL    MW4 9264   5.041   1.071   0.994  0.2994  0.7749  0.0103
 2375SOL     OW 9265   5.056   0.507   0.779 -0.3414 -0.4717  0.0386
 2375SOL    HW2 9266   5.106   0.524   0.859 -1.1271 -1.1535  0.6912
 2375SOL    HW3 9267   5.042   0.594   0.741 -0.9059 -0.0201  1.2259
 2375SOL    MW4 9268   5.061   0.521   0.785 -0.4567  0.0287 -0.0721
 2376SOL     OW 9269   4.598   6.154   6.202 -0.1528 -0.6191  0.5525
 2376SOL    HW2 9270   4.683   6.156   6.246  0.4291  1.2514 -0.5717
 2376SOL    HW3 9271   4.537   6.124   6.270  0.8778  1.1769  2.3608
 2376SOL    MW4 9272   4.601   6.150   6.217 -0.0110 -0.1030 -0.1837
 2377SOL     OW 9273   6.007   2.123   4.420  0.1822  0.2417 -0.1978
 2377SOL    HW2 9274   6.102   2.113   4.414  0.4060  1.3542  0.9786
 2377SOL    HW3 9275   5.985   2.186   4.351  0.3715  0.3436 -0.1667
 2377SOL    MW4 9276   6.016   2.130   4.410 -0.8590  0.4407  0.2208
 2378SOL     OW 9277   0.534   5.544   0.948  0.0973 -0.4760 -0.4930
 2378SOL    HW2 9278   0.521   5.635   0.976 -0.2568 -1.1548  1.7370
 2378SOL    HW3 9279   0.453   5.499   0.974 -0.0349 -1.3288 -2.2143
 2378SOL    MW4 9280   0.521   5.550   0.955 -0.0079  0.0327 -0.2860
 2379SOL     OW 9281   3.438   0.275   5.123 -0.3391  0.3530 -0.7501
 2379SOL    HW2 9282   3.365   0.270   5.185 -0.1269 -1.5956 -0.6066
 2379SOL    HW3 9283   3.421   0.204   5.060  0.9823  0.4178 -1.2056
 2379SOL    MW4 9284   3.426   0.265   5.123 -0.2780  0.3793  0.6224
 2380SOL     OW 9285   5.847   1.644   4.545 -0.5832 -0.7453 -0.2581
 2380SOL    HW2 9286   5.797   1.654   4.627 -1.6933 -0.4058 -0.9563
 2380SOL    HW3 9287   5.806   1.706   4.485  1.5937  0.5840 -0.4582
 2380SOL    MW4 9288   5.835   1.653   4.548 -0.4370 -0.1169 -0.0369
 2381SOL     OW 9289   5.714   5.823   1.197  0.4000  0.0170 -0.2434
 2381SOL    HW2 9290   5.712   5.731   1.171  1.4735 -0.5239  1.3797
 2381SOL    HW3 9291   5.665   5.825   1.280  1.0994  0.7319  0.1705
 2381SOL    MW4 9292   5.707   5.811   1.205  0.2289  0.3304 -0.3169
 2382SOL     OW 9293   2.984   3.188   4.775 -0.3210 -0.0857 -0.0435
 2382SOL    HW2 9294   2.938   3.107   4.801 -0.1547 -0.2864 -0.3710
 2382SOL    HW3 9295   2.921   3.258   4.794  0.0524 -0.1448  1.5931
 2382SOL    MW4 9296   2.969   3.186   4.781 -0.2704 -0.2911 -0.2328
 2383SOL     OW 9297   3.818   5.423   5.095  0.6261 -0.0139  0.2789
 2383SOL    HW2 9298   3.858   5.364   5.031  2.7317 -0.9253  2.2660
 2383SOL    HW3 9299   3.892   5.453   5.149 -0.7491  2.3920  0.9771
 2383SOL    MW4 9300   3.833   5.419   5.094 -0.4016  0.7080 -0.3966
 2384SOL     OW 9301   0.332   2.427   3.887  0.0076  0.0676 -0.4038
 2384SOL    HW2 9302   0.320   2.466   3.974  3.1899 -1.1441  0.7127
 2384SOL    HW3 9303   0.358   2.337   3.904  0.0988 -0.4014 -2.6758
 2384SOL    MW4 9304   0.334   2.420   3.901  0.1262  0.0472  0.7109
 2385SOL     OW 9305   2.394   0.089   4.762  0.2289 -0.3514  0.1303
 2385SOL    HW2 9306   2.419  -0.003   4.753 -1.8711 -0.9162 -0.4255
 2385SOL    HW3 9307   2.384   0.101   4.856 -3.8731 -2.0825  0.1291
 2385SOL    MW4 9308   2.396   0.078   4.773 -0.1984 -0.0554  0.1282
 2386SOL     OW 9309   3.123   1.562   0.683  0.0418  0.0203  0.2979
 2386SOL    HW2 9310   3.111   1.639   0.738  0.0385  0.1861  0.0678
 2386SOL    HW3 9311   3.051   1.566   0.621  1.7140  1.5299 -1.6949
 2386SOL    MW4 9312   3.112   1.573   0.682 -0.6169 -0.2474  0.2422
 2387SOL     OW 9313   3.180   0.517   3.208  0.4332 -0.1323 -0.2789
 2387SOL    HW2 9314   3.188   0.491   3.299  0.8715 -1.9595 -0.7874
 2387SOL    HW3 9315   3.270   0.531   3.178  0.3166  0.1488 -0.5006
 2387SOL    MW4 9316   3.193   0.515   3.216 -0.4463 -0.0028 -0.6527
 2388SOL     OW 9317   6.390   2.206   3.491  0.0653 -0.8915  0.5361
 2388SOL    HW2 9318   6.454   2.168   3.430  0.4412  0.7664 -0.1684
 2388SOL    HW3 9319   6.368   2.291   3.453 -0.5160 -0.2665  2.1666
 2388SOL    MW4 9320   6.396   2.212   3.478 -0.2634 -0.7096 -0.3341
 2389SOL     OW 9321   2.088   1.071   4.298 -0.1297 -0.1022  0.1912
 2389SOL    HW2 9322   2.008   1.051   4.347 -0.3182 -0.2970 -0.1918
 2389SOL    HW3 9323   2.158   1.027   4.346 -0.0932  0.9149  1.1188
 2389SOL    MW4 9324   2.086   1.062   4.311  0.2026  0.4718  0.1834
 2390SOL     OW 9325   0.792   6.223   4.691 -0.6403  0.2390  0.2299
 2390SOL    HW2 9326   0.881   6.201   4.721 -1.3306  0.0186  2.2474
 2390SOL    HW3 9327   0.801   6.309   4.651  0.6844 -0.2741 -0.6411
 2390SOL    MW4 9328   0.805   6.231   4.690  0.0154  0.0997 -0.7084
 2391SOL     OW 9329   0.504   0.559   5.872 -0.5041  0.1782  0.3273
 2391SOL    HW2 9330   0.515   0.525   5.783 -0.4917 -1.1304  0.7996
 2391SOL    HW3 9331   0.506   0.654   5.862  0.8337  0.0560 -0.8987
 2391SOL    MW4 9332   0.505   0.567   5.859  0.1596 -0.3299 -0.3146
 2392SOL     OW 9333   2.263   3.160   0.011 -0.0799 -0.0186 -0.0782
 2392SOL    HW2 9334   2.215   3.089   0.053  0.2088 -0.8792 -1.1528
 2392SOL    HW3 9335   2.200   3.199  -0.050 -0.0624  0.2798  0.0906
 2392SOL    MW4 9336   2.249   3.156   0.008 -0.4885  0.0265  0.7738
 2393SOL     OW 9337   2.238   1.663   5.678 -0.2886  0.1348  0.6409
 2393SOL    HW2 9338   2.193   1.709   5.606  2.5760  3.0889  0.4881
 2393SOL    HW3 9339   2.268   1.734   5.735  1.2592 -1.8848  2.4652
 2393SOL    MW4 9340   2.236   1.679   5.676  0.8164  0.2490 -0.1422
 2394SOL     OW 9341   1.780   0.699   1.503 -0.4340  0.2780  0.2795
 2394SOL    HW2 9342   1.700   0.747   1.523 -0.1542  0.2572  1.5419
 2394SOL    HW3 9343   1.756   0.641   1.430 -1.1821  1.2328 -0.2472
 2394SOL    MW4 9344   1.766   0.697   1.496  0.0599 -0.3540 -0.1682
 2395SOL     OW 9345   1.675   6.050   3.373  0.5843 -0.5879 -0.4606
 2395SOL    HW2 9346   1.663   6.070   3.280  0.5535 -0.9584 -0.5366
 2395SOL    HW3 9347   1.710   5.962   3.375 -0.6374 -1.0941 -0.0800
 2395SOL    MW4 9348   1.678   6.041   3.361 -0.0088  0.2561 -0.6162
 2396SOL     OW 9349   5.759   2.040   1.106 -0.5515  0.4977  0.2509
 2396SOL    HW2 9350   5.683   1.983   1.096 -0.6635  0.7547 -0.4666
 2396SOL    HW3 9351   5.731   2.124   1.070 -0.3086  0.9400  1.0666
 2396SOL    MW4 9352   5.746   2.044   1.100  0.3616  0.5271  0.8261
 2397SOL     OW 9353   3.351   3.249   1.590 -0.2753 -0.4813  0.5294
 2397SOL    HW2 9354   3.343   3.157   1.615  0.1257 -0.7704 -0.3456
 2397SOL    HW3 9355   3.383   3.246   1.500  0.1722  0.5233  0.6429
 2397SOL    MW4 9356   3.354   3.236   1.581  0.2109 -0.5688  0.1701
 2398SOL     OW 9357   1.499   0.056   5.124 -0.8019 -0.1690  0.6332
 2398SOL    HW2 9358   1.458   0.045   5.210 -0.5190  1.0576  0.9539
 2398SOL    HW3 9359   1.524   0.149   5.122  1.8448 -0.8079  0.4070
 2398SOL    MW4 9360   1.497   0.067   5.135 -0.1762  0.6893 -0.4141
 2399SOL     OW 9361   4.353   2.106   1.751 -0.8312  0.4863  0.6644
 2399SOL    HW2 9362   4.420   2.120   1.817 -1.1838  0.7534  0.9635
 2399SOL    HW3 9363   4.324   2.016   1.765  0.3808 -0.0922 -0.3089
 2399SOL    MW4 9364   4.358   2.096   1.761 -0.2901 -0.0667  0.1836
 2400SOL     OW 9365   5.703   2.277   2.495  0.3334  0.0430 -0.1829
 2400SOL    HW2 9366   5.701   2.190   2.455  1.5075  0.0129 -0.2181
 2400SOL    HW3 9367   5.792   2.309   2.478  1.0977 -0.1888  2.8508
 2400SOL    MW4 9368   5.714   2.270   2.487 -0.0528  0.1450  0.0018
 2401SOL     OW 9369   3.334   2.611   0.483  0.0932 -0.3900  0.7083
 2401SOL    HW2 9370   3.400   2.616   0.552 -0.3078  0.9678  1.0323
 2401SOL    HW3 9371   3.318   2.702   0.458 -0.0853 -0.8290 -0.8916
 2401SOL    MW4 9372   3.341   2.624   0.489 -0.1855 -0.3322  0.0340
 2402SOL     OW 9373   2.129   6.063   2.459  0.3188 -0.0122 -0.7483
 2402SOL    HW2 9374   2.100   5.972   2.459 -0.9764  0.3638 -1.6770
 2402SOL    HW3 9375   2.051   6.113   2.483  1.2578  0.8086  0.7380
 2402SOL    MW4 9376   2.115   6.058   2.462 -0.2455  0.5573 -0.1969
 2403SOL     OW 9377   6.105   5.020   5.441 -0.1604 -0.0997  0.2130
 2403SOL    HW2 9378   6.068   4.934   5.417  0.5951  0.0009 -1.4157
 2403SOL    HW3 9379   6.196   5.015   5.414 -0.8724  2.4378 -3.5043
 2403SOL    MW4 9380   6.112   5.008   5.434  0.3360 -0.2454  0.2001
 2404SOL     OW 9381   1.034   3.118   4.651 -0.3796 -0.4832 -0.2395
 2404SOL    HW2 9382   0.983   3.063   4.710 -1.1533 -0.7447 -1.1425
 2404SOL    HW3 9383   1.119   3.127   4.695 -1.5322  0.9759  1.8936
 2404SOL    MW4 9384   1.039   3.112   4.665 -0.6163  0.2267  0.3332
 2405SOL     OW 9385   4.795   2.468   2.436  0.4186  0.3173  0.6167
 2405SOL    HW2 9386   4.798   2.455   2.531 -0.4520  3.6080  1.2297
 2405SOL    HW3 9387   4.729   2.536   2.423  1.5752  1.0684 -2.2117
 2405SOL    MW4 9388   4.787   2.475   2.447  0.0482 -0.2629  0.0342
 2406SOL     OW 9389   2.810   3.878   1.124  0.4873  0.3132  0.0117
 2406SOL    HW2 9390   2.779   3.794   1.157  0.5015 -0.3962 -1.6535
 2406SOL    HW3 9391   2.884   3.900   1.179  0.7654 -1.0027  0.1977
 2406SOL    MW4 9392   2.815   3.870   1.135  0.0311 -0.6407 -0.2161
 2407SOL     OW 9393   0.934   3.278   5.409  0.1293  0.0566  0.2203
 2407SOL    HW2 9394   0.987   3.343   5.456  0.1620  0.8347 -0.8520
 2407SOL    HW3 9395   0.846   3.315   5.408  0.0311 -0.1790  0.0844
 2407SOL    MW4 9396   0.930   3.291   5.415 -0.6562  0.6021  0.5031
 2408SOL     OW 9397   5.385   2.702   2.588  0.0908  0.0756  0.0510
 2408SOL    HW2 9398   5.303   2.750   2.577  0.0867 -0.1113 -0.7962
 2408SOL    HW3 9399   5.432   2.750   2.657 -0.9211 -0.0965  0.8759
 2408SOL    MW4 9400   5.381   2.715   2.596  0.4366  0.4051 -0.0336
 2409SOL     OW 9401   4.429   5.786   3.835 -0.3040  0.2615 -0.1689
 2409SOL    HW2 9402   4.353   5.733   3.813 -0.2179  0.5312 -1.1731
 2409SOL    HW3 9403   4.488   5.727   3.882 -0.8885 -0.0941  0.1209
 2409SOL    MW4 9404   4.427   5.771   3.839 -0.0320  0.1049  0.0812
 2410SOL     OW 9405   4.537   6.322   0.251  0.0804  0.5105 -0.5177
 2410SOL    HW2 9406   4.605   6.255   0.255  0.3117  0.7899  1.1959
 2410SOL    HW3 9407   4.461   6.277   0.213  0.2936 -0.6769  0.3949
 2410SOL    MW4 9408   4.536   6.307   0.247  0.0032 -0.0767 -0.2614
 2411SOL     OW 9409   2.886   2.610   0.986 -0.2353  0.1836  0.1769
 2411SOL    HW2 9410   2.972   2.582   1.019  0.1391  2.2441  1.0696
 2411SOL    HW3 9411   2.894   2.603   0.891  1.0284  0.5975  0.2329
 2411SOL    MW4 9412   2.898   2.605   0.978  0.0512 -0.0577 -0.4194
 2412SOL     OW 9413   0.096   1.979   3.385  0.1153 -0.0265  0.3702
 2412SOL    HW2 9414   0.162   1.916   3.412  0.0890 -0.3626 -0.3272
 2412SOL    HW3 9415   0.088   1.967   3.290 -0.3434  0.5859  0.3217
 2412SOL    MW4 9416   0.103   1.969   3.376  0.2899  0.7821 -0.4270
 2413SOL     OW 9417   4.001   3.321   3.195  0.3075 -0.8508  0.4316
 2413SOL    HW2 9418   3.974   3.289   3.110 -0.6792 -0.2647  0.5184
 2413SOL    HW3 9419   4.037   3.408   3.178 -1.8759  0.1914  0.8580
 2413SOL    MW4 9420   4.002   3.328   3.182  0.4209  0.2776  0.0430
 2414SOL     OW 9421   0.841   6.297   0.780 -0.1415  0.6184 -0.4371
 2414SOL    HW2 9422   0.905   6.278   0.712  1.4947 -0.6883  1.3495
 2414SOL    HW3 9423   0.860   6.388   0.806  1.1384  0.2168  0.1446
 2414SOL    MW4 9424   0.852   6.307   0.775 -0.0081 -0.0778  0.8485
 2415SOL     OW 9425   1.503   6.205   3.156 -0.1381  0.1919  0.5428
 2415SOL    HW2 9426   1.527   6.259   3.081 -1.0196  1.0177  0.8381
 2415SOL    HW3 9427   1.415   6.173   3.135 -0.9279  1.4437  1.7303
 2415SOL    MW4 9428   1.494   6.208   3.143 -0.6927  0.1576  0.6212
 2416SOL     OW 9429  -0.002   6.394   4.709  0.3916 -0.0030 -0.3175
 2416SOL    HW2 9430   0.045   6.335   4.649 -1.2774 -0.5396 -1.1642
 2416SOL    HW3 9431   0.066   6.449   4.746  2.0070 -2.2512  0.2925
 2416SOL    MW4 9432   0.013   6.393   4.706  0.7848 -0.8613  0.5575
 2417SOL     OW 9433   3.728   1.912   4.623 -0.2705  0.1742  0.0772
 2417SOL    HW2 9434   3.710   1.828   4.665 -0.4024  0.4706  0.6173
 2417SOL    HW3 9435   3.644   1.938   4.586 -0.3339  0.2752  0.2890
 2417SOL    MW4 9436   3.714   1.904   4.624 -0.1851  0.1701 -0.1477
 2418SOL     OW 9437   1.267   5.508   4.171 -0.5830  0.3013  0.1024
 2418SOL    HW2 9438   1.304   5.548   4.249  0.4532  0.4936 -0.4649
 2418SOL    HW3 9439   1.318   5.545   4.099 -1.5572  0.1708 -0.6663
 2418SOL    MW4 9440   1.279   5.518   4.172  0.0116 -0.2798  0.0114
 2419SOL     OW 9441   5.930   0.169   5.513 -0.4250 -0.2111 -0.0824
 2419SOL    HW2 9442   5.858   0.167   5.576 -0.6808  0.0950 -0.3640
 2419SOL    HW3 9443   5.900   0.228   5.444 -1.1839 -2.3375 -1.7043
 2419SOL    MW4 9444   5.916   0.176   5.512 -0.0131  0.0251  0.0335
 2420SOL     OW 9445   6.064   2.298   0.350 -0.6927 -0.0518 -0.3768
 2420SOL    HW2 9446   6.144   2.350   0.349 -0.5506 -0.2662 -0.3116
 2420SOL    HW3 9447   6.093   2.210   0.327 -0.7843 -0.3031  0.4420
 2420SOL    MW4 9448   6.079   2.293   0.347  0.4171  0.5610 -0.8699
 2421SOL     OW 9449   6.029   5.288   5.938  0.5010  0.2215  0.5950
 2421SOL    HW2 9450   6.068   5.320   6.019 -2.0180  2.6384  1.0053
 2421SOL    HW3 9451   5.958   5.230   5.966 -1.0036  1.8077  0.2716
 2421SOL    MW4 9452   6.024   5.285   5.952  0.4463 -0.0451  0.6637
 2422SOL     OW 9453   2.974   5.747   3.321 -0.2785 -0.2455  1.2705
 2422SOL    HW2 9454   3.029   5.809   3.272 -1.3081 -0.4231 -0.1828
 2422SOL    HW3 9455   3.029   5.718   3.394  0.3381  2.1494  1.8410
 2422SOL    MW4 9456   2.989   5.751   3.324 -0.0876  0.2201  0.0037
 2423SOL     OW 9457   0.222   3.598   2.430  0.7062 -0.0073  0.5702
 2423SOL    HW2 9458   0.241   3.506   2.412  0.3725 -0.4079  2.1816
 2423SOL    HW3 9459   0.226   3.640   2.344  2.1220 -1.2828 -0.0300
 2423SOL    MW4 9460   0.225   3.591   2.416 -0.3409  0.4800 -0.1831
 2424SOL     OW 9461   3.391   0.845   4.687  0.4261  0.1274 -0.1129
 2424SOL    HW2 9462   3.416   0.806   4.603 -0.7020  3.1884 -2.0528
 2424SOL    HW3 9463   3.311   0.800   4.712  0.8319 -0.8919 -0.5986
 2424SOL    MW4 9464   3.384   0.834   4.679 -0.0743  0.2492 -0.1812
 2425SOL     OW 9465   1.813   1.253   2.473  0.0466 -0.1499 -0.4477
 2425SOL    HW2 9466   1.724   1.249   2.507 -0.6705 -1.3003 -2.3330
 2425SOL    HW3 9467   1.803   1.287   2.384  1.5418  0.0525 -0.5605
 2425SOL    MW4 9468   1.800   1.257   2.465 -0.0753 -0.0482  0.4553
 2426SOL     OW 9469   0.799   5.747   2.992  0.0496 -0.3622  0.0542
 2426SOL    HW2 9470   0.705   5.730   2.984 -0.5165  1.9135  0.9765
 2426SOL    HW3 9471   0.837   5.709   2.913 -2.0424  0.9798 -1.7268
 2426SOL    MW4 9472   0.791   5.740   2.981  0.3631  0.1571  0.3753
 2427SOL     OW 9473   5.253   0.369   2.777  0.7039 -0.5698 -0.4832
 2427SOL    HW2 9474   5.179   0.402   2.726  1.5145  1.6650 -0.3368
 2427SOL    HW3 9475   5.301   0.447   2.802  2.3293 -1.8673  0.6680
 2427SOL    MW4 9476   5.249   0.384   2.774  0.2347 -0.0054  0.4127
 2428SOL     OW 9477   0.557   0.007   4.058 -0.2017  0.6331  0.3797
 2428SOL    HW2 9478   0.506  -0.054   4.005 -0.0302  0.7595  0.0649
 2428SOL    HW3 9479   0.644  -0.033   4.063  0.5577  1.8560 -1.6485
 2428SOL    MW4 9480   0.562  -0.007   4.052  0.3049 -0.1307 -0.0257
 2429SOL     OW 9481   3.161   6.028   4.892  0.0613 -0.1720 -0.2671
 2429SOL    HW2 9482   3.242   6.077   4.907 -0.8292  1.9458 -1.7630
 2429SOL    HW3 9483   3.170   5.993   4.804  0.0188 -1.4095  0.2006
 2429SOL    MW4 9484   3.173   6.030   4.883 -0.2760  0.5346 -0.8663
 2430SOL     OW 9485   0.840   1.461   5.831 -0.0968  0.2662 -0.5317
 2430SOL    HW2 9486   0.918   1.509   5.860  0.8952 -1.8320  0.4544
 2430SOL    HW3 9487   0.767   1.514   5.863  0.9537  0.9110  0.9369
 2430SOL    MW4 9488   0.841   1.475   5.839  0.2730 -0.5631 -0.1148
 2431SOL     OW 9489   0.610   5.622   3.261 -0.1369  0.1471 -0.1820
 2431SOL    HW2 9490   0.657   5.704   3.251 -1.2326  0.8518  0.2865
 2431SOL    HW3 9491   0.670   5.556   3.226  0.4294  1.2212 -1.3193
 2431SOL    MW4 9492   0.624   5.624   3.255 -0.0146  0.5588 -0.2356
 2432SOL     OW 9493   5.414   1.778   3.986 -0.0299  0.0871 -0.4539
 2432SOL    HW2 9494   5.493   1.724   3.981  0.0286  0.0544  0.6351
 2432SOL    HW3 9495   5.422   1.838   3.911  2.2091  1.6477  0.9189
 2432SOL    MW4 9496   5.425   1.779   3.975 -0.2430  0.0498  0.2603
 2433SOL     OW 9497   4.132   5.485   6.172  0.1797 -0.4863  0.2308
 2433SOL    HW2 9498   4.198   5.441   6.225  0.7191 -0.1881 -0.1863
 2433SOL    HW3 9499   4.078   5.413   6.138  0.9402 -0.8319 -0.2968
 2433SOL    MW4 9500   4.134   5.469   6.174  0.4686 -0.3008 -0.3796
 2434SOL     OW 9501   5.514   4.201   0.326 -0.2815 -0.2520  0.0090
 2434SOL    HW2 9502   5.521   4.131   0.261  1.3661 -0.6761  0.5967
 2434SOL    HW3 9503   5.597   4.250   0.318 -0.9988  1.0528  0.2703
 2434SOL    MW4 9504   5.526   4.199   0.316  0.0468 -0.2878  0.0118
 2435SOL     OW 9505   0.747   1.316   0.403  0.1608  0.4924 -1.0807
 2435SOL    HW2 9506   0.813   1.366   0.355  0.2127  0.9526 -0.5414
 2435SOL    HW3 9507   0.700   1.382   0.455 -0.6602  0.1636 -1.3793
 2435SOL    MW4 9508   0.749   1.332   0.404  0.5955  0.1536  0.1396
 2436SOL     OW 9509   4.881   4.179   6.350  0.2869 -0.3456  0.3257
 2436SOL    HW2 9510   4.833   4.258   6.375  1.6276 -0.0580  2.2343
 2436SOL    HW3 9511   4.902   4.192   6.257 -0.5789  0.9538  0.2898
 2436SOL    MW4 9512   4.878   4.191   6.341  0.2762  0.0277 -0.5138
 2437SOL     OW 9513   1.154   5.137   0.853 -0.1141 -1.0888  0.0878
 2437SOL    HW2 9514   1.167   5.229   0.875  2.1227 -0.5661 -2.7828
 2437SOL    HW3 9515   1.067   5.134   0.813  0.0350 -0.0950 -0.3375
 2437SOL    MW4 9516   1.144   5.149   0.851 -1.0774 -0.2765 -0.4664
 2438SOL     OW 9517   5.360   5.342   3.343 -0.0922 -0.0571 -0.3851
 2438SOL    HW2 9518   5.394   5.420   3.387 -1.5489 -0.4098  1.4816
 2438SOL    HW3 9519   5.314   5.376   3.266  2.1907  0.5960 -1.5766
 2438SOL    MW4 9520   5.359   5.357   3.338 -0.2716 -0.0932  0.4554
 2439SOL     OW 9521   1.423   3.901   1.731  0.3704  0.3472  0.1128
 2439SOL    HW2 9522   1.469   3.890   1.815  1.4075  0.7617 -0.3950
 2439SOL    HW3 9523   1.479   3.958   1.679 -0.6107  0.6852 -0.6192
 2439SOL    MW4 9524   1.436   3.907   1.736  0.0062  0.2753 -0.7732
 2440SOL     OW 9525   4.818   2.957   1.907  0.8488 -0.6169 -0.7261
 2440SOL    HW2 9526   4.859   2.872   1.928  3.3490  0.5529 -0.4465
 2440SOL    HW3 9527   4.797   2.951   1.814 -0.1170 -1.9422 -0.4529
 2440SOL    MW4 9528   4.821   2.945   1.898 -0.7796 -0.1594  0.4100
 2441SOL     OW 9529   2.582   5.999   1.653  0.2453  0.6092  0.3712
 2441SOL    HW2 9530   2.512   5.935   1.664 -1.1558  1.7950 -1.0951
 2441SOL    HW3 9531   2.617   5.982   1.565  1.5758  0.2933  0.9253
 2441SOL    MW4 9532   2.578   5.988   1.643  0.5548  0.1148 -0.3511
 2442SOL     OW 9533   5.054   5.733   5.375 -0.4056 -0.0872  0.6499
 2442SOL    HW2 9534   5.059   5.804   5.311 -0.9603 -1.8124 -1.4361
 2442SOL    HW3 9535   5.141   5.728   5.414  0.6319 -0.3378 -1.5778
 2442SOL    MW4 9536   5.066   5.742   5.372  0.3333  0.3612 -0.1860
 2443SOL     OW 9537   5.918   3.779   2.677  0.3215  0.5909 -0.2242
 2443SOL    HW2 9538   5.872   3.702   2.643  0.8845 -0.4214  1.2137
 2443SOL    HW3 9539   5.877   3.795   2.763 -0.7659  2.7999 -1.0535
 2443SOL    MW4 9540   5.906   3.771   2.684  0.2115  0.0444 -0.7391
 2444SOL     OW 9541   0.598   4.158   0.862  0.6581  0.0200  0.1151
 2444SOL    HW2 9542   0.656   4.097   0.907  0.8387  1.3710  1.8318
 2444SOL    HW3 9543   0.656   4.228   0.832  0.3657 -0.3049 -1.2702
 2444SOL    MW4 9544   0.613   4.159   0.864  0.1760  0.2630  0.0810
 2445SOL     OW 9545   3.192   3.188   3.197  0.0680  0.0145  0.2457
 2445SOL    HW2 9546   3.228   3.135   3.268  1.4833  2.1954  1.2528
 2445SOL    HW3 9547   3.133   3.250   3.240 -1.1756 -0.3392 -0.8527
 2445SOL    MW4 9548   3.189   3.189   3.212 -0.1847  0.1875  0.9077
 2446SOL     OW 9549   1.614   4.809   4.649 -0.1011  0.7343  0.5675
 2446SOL    HW2 9550   1.540   4.847   4.602  1.5006  0.7053 -2.2001
 2446SOL    HW3 9551   1.686   4.871   4.636  1.3136 -0.9328 -0.0352
 2446SOL    MW4 9552   1.614   4.822   4.641  0.1736 -0.4687  0.5161
 2447SOL     OW 9553   0.706   0.537   2.243  0.1445  0.2462  0.2904
 2447SOL    HW2 9554   0.632   0.597   2.230 -1.7193 -1.7478  1.1221
 2447SOL    HW3 9555   0.709   0.485   2.163  0.7216  0.3749  0.2254
 2447SOL    MW4 9556   0.697   0.538   2.230 -0.1637  0.1057  0.3215
 2448SOL     OW 9557   5.107   0.229   0.788  0.1822  0.1469  0.1945
 2448SOL    HW2 9558   5.198   0.234   0.758  0.4712  1.7104  1.2171
 2448SOL    HW3 9559   5.080   0.320   0.798 -2.7627 -0.0442 -3.5897
 2448SOL    MW4 9560   5.116   0.242   0.785 -0.0332 -0.2600  0.6776
 2449SOL     OW 9561   2.869   4.988   1.431 -0.4562  0.3390 -0.4011
 2449SOL    HW2 9562   2.901   5.016   1.517 -0.1560 -0.1457 -0.3502
 2449SOL    HW3 9563   2.830   4.902   1.446  0.5841 -0.2478 -0.9374
 2449SOL    MW4 9564   2.868   4.980   1.444  0.2270 -0.5713  0.2456
 2450SOL     OW 9565   0.686   0.709   3.571 -0.4762 -0.0999  0.3073
 2450SOL    HW2 9566   0.665   0.619   3.593 -0.8413 -0.3696 -1.0590
 2450SOL    HW3 9567   0.726   0.705   3.484 -1.5482  1.1371 -0.2889
 2450SOL    MW4 9568   0.688   0.697   3.563  0.2713  0.1472  0.3828
 2451SOL     OW 9569   3.343   2.511   6.364  0.1450  0.8022 -0.6204
 2451SOL    HW2 9570   3.268   2.483   6.312 -0.5689 -0.1182  0.8059
 2451SOL    HW3 9571   3.404   2.437   6.361 -1.2431 -0.6397  2.2234
 2451SOL    MW4 9572   3.341   2.498   6.357  0.0646  0.1779 -0.1201
 2452SOL     OW 9573   1.433   4.494   3.587 -0.2706  0.1822 -0.1636
 2452SOL    HW2 9574   1.440   4.485   3.682 -0.0842  0.5980 -0.1352
 2452SOL    HW3 9575   1.473   4.415   3.552 -1.3695 -0.5237  0.1177
 2452SOL    MW4 9576   1.439   4.483   3.595  0.7917 -0.4113  0.2937
 2453SOL     OW 9577   1.720   4.456   3.299  0.2482 -0.1203  0.5585
 2453SOL    HW2 9578   1.792   4.393   3.306  0.9528  0.4495 -1.0341
 2453SOL    HW3 9579   1.752   4.535   3.343  0.5780  0.1140 -0.0988
 2453SOL    MW4 9580   1.734   4.458   3.306  0.5298  0.5655  0.1917
 2454SOL     OW 9581   3.993   0.337   3.709  0.2660  0.1245  0.4323
 2454SOL    HW2 9582   3.903   0.367   3.720 -0.1602 -1.3753  1.2943
 2454SOL    HW3 9583   3.987   0.242   3.701  1.7733 -0.0142  0.5272
 2454SOL    MW4 9584   3.981   0.328   3.710  0.0682 -0.0000  0.0894
 2455SOL     OW 9585   3.284   3.478   3.833  0.6224  0.5998  0.2978
 2455SOL    HW2 9586   3.255   3.429   3.756 -1.1266 -0.2226  1.4025
 2455SOL    HW3 9587   3.280   3.570   3.807  2.3903  0.2756 -1.3068
 2455SOL    MW4 9588   3.280   3.484   3.819  0.4087 -0.0875 -0.3342
 2456SOL     OW 9589   0.221   2.945   3.911 -0.3051  0.2425 -0.1368
 2456SOL    HW2 9590   0.136   2.928   3.871 -0.4021 -0.0282  0.1841
 2456SOL    HW3 9591   0.201   2.984   3.996 -0.1043  0.4133 -0.1672
 2456SOL    MW4 9592   0.207   2.948   3.917  0.0217 -0.1015 -0.6166
 2457SOL     OW 9593   2.426   4.510   4.431  0.5710  0.1622  0.4744
 2457SOL    HW2 9594   2.388   4.468   4.353 -1.7786  0.3077  1.4446
 2457SOL    HW3 9595   2.495   4.567   4.397 -0.3260  0.1466 -1.5087
 2457SOL    MW4 9596   2.430   4.512   4.416  0.2095  0.0021 -0.1566
 2458SOL     OW 9597   4.115   1.462   4.612 -0.0469  0.0607 -0.3305
 2458SOL    HW2 9598   4.075   1.498   4.532 -0.2382 -0.6324 -0.5553
 2458SOL    HW3 9599   4.144   1.375   4.587  1.1002  0.3342  0.0031
 2458SOL    MW4 9600   4.113   1.455   4.598  0.5241  0.8535 -0.9191
 2459SOL     OW 9601   1.123   6.233   5.831 -0.3080  0.5580  0.4833
 2459SOL    HW2 9602   1.159   6.193   5.910  2.5197 -0.0544 -0.9680
 2459SOL    HW3 9603   1.142   6.327   5.840 -2.1764  0.8690  1.5440
 2459SOL    MW4 9604   1.131   6.240   5.843  0.1683 -0.0936  0.3292
 2460SOL     OW 9605   2.524   5.355   3.631  0.2071  0.1801 -0.1262
 2460SOL    HW2 9606   2.522   5.383   3.539 -0.9266  4.1443  0.9040
 2460SOL    HW3 9607   2.431   5.348   3.656  0.4627  0.7192  1.0614
 2460SOL    MW4 9608   2.511   5.358   3.622 -0.3564 -0.5043 -0.0533
 2461SOL     OW 9609   2.153   0.127   0.660 -0.4245  0.3439  0.2922
 2461SOL    HW2 9610   2.104   0.137   0.579 -0.8452  0.6494  0.5804
 2461SOL    HW3 9611   2.103   0.176   0.725 -1.9674 -2.6335  1.5427
 2461SOL    MW4 9612   2.140   0.135   0.658 -0.2904  0.5650 -0.2382
 2462SOL     OW 9613   4.369   2.518   3.834 -0.3695  0.6129  0.4956
 2462SOL    HW2 9614   4.332   2.504   3.921  1.4494  1.7917  1.5128
 2462SOL    HW3 9615   4.364   2.612   3.821 -1.2333  0.3878 -0.9930
 2462SOL    MW4 9616   4.363   2.528   3.844  0.2383 -0.0565 -0.8493
 2463SOL     OW 9617   2.007   5.361   6.333 -0.6934 -0.1513  0.1547
 2463SOL    HW2 9618   2.028   5.395   6.420 -0.6813 -0.7201  0.3805
 2463SOL    HW3 9619   2.092   5.343   6.293 -0.6994 -1.3932  0.6419
 2463SOL    MW4 9620   2.021   5.363   6.340  0.2614  0.3208 -0.6911
 2464SOL     OW 9621   3.205   5.169   3.045  0.5227 -0.9860  0.4876
 2464SOL    HW2 9622   3.150   5.199   2.973 -0.2627 -0.1069  1.4125
 2464SOL    HW3 9623   3.259   5.245   3.067  1.4471 -1.5446  0.2218
 2464SOL    MW4 9624   3.205   5.183   3.038 -0.4721  0.3923 -0.0472
 2465SOL     OW 9625   3.491   1.371   3.873 -0.5788  0.4762 -0.1528
 2465SOL    HW2 9626   3.545   1.321   3.813 -0.0844  1.1970 -0.3222
 2465SOL    HW3 9627   3.464   1.448   3.823 -0.9604  0.6036  0.2406
 2465SOL    MW4 9628   3.495   1.375   3.859  0.2173 -0.3162  0.0305
 2466SOL     OW 9629   5.364   5.908   4.744 -0.4253 -0.1392  0.6043
 2466SOL    HW2 9630   5.279   5.914   4.789 -1.3240 -0.1071 -1.0136
 2466SOL    HW3 9631   5.429   5.918   4.814 -1.7465  0.1424  1.8465
 2466SOL    MW4 9632   5.361   5.910   4.759  0.4374 -0.1372  0.6661
 2467SOL     OW 9633   3.976   0.216   6.353  0.7428  0.2409  0.0085
 2467SOL    HW2 9634   4.027   0.269   6.414  0.7562 -0.3039  0.4782
 2467SOL    HW3 9635   3.914   0.277   6.314 -0.0927  0.3703  1.4722
 2467SOL    MW4 9636   3.975   0.231   6.356  0.4055 -0.2774 -0.0554
 2468SOL     OW 9637   6.044   3.142   1.182  0.3728 -0.0110 -0.2430
 2468SOL    HW2 9638   6.073   3.215   1.128  1.4476 -0.5675 -0.4354
 2468SOL    HW3 9639   6.121   3.088   1.193 -0.0273 -0.3288  1.1972
 2468SOL    MW4 9640   6.058   3.145   1.176  0.3472  0.2680 -0.2195
 2469SOL     OW 9641   4.699   1.406   0.281 -0.7789 -0.3183  0.3306
 2469SOL    HW2 9642   4.632   1.339   0.293 -2.2922  0.6081 -2.1356
 2469SOL    HW3 9643   4.758   1.369   0.215 -0.2895 -0.1361  0.6624
 2469SOL    MW4 9644   4.698   1.392   0.274  0.4529  0.3721  0.3356
 2470SOL     OW 9645   2.104   0.888   3.905 -0.0435 -0.2545  0.2403
 2470SOL    HW2 9646   2.178   0.858   3.958 -0.5216  0.2199  1.1916
 2470SOL    HW3 9647   2.084   0.815   3.847 -0.2005 -1.1944  1.4600
 2470SOL    MW4 9648   2.111   0.875   3.904 -0.1532 -0.0962  0.2082
 2471SOL     OW 9649   4.301   5.377   0.716  0.4627 -0.0381 -0.6335
 2471SOL    HW2 9650   4.352   5.386   0.797  1.5959 -1.9135 -1.0651
 2471SOL    HW3 9651   4.245   5.300   0.732  0.8431 -0.5491 -1.6874
 2471SOL    MW4 9652   4.300   5.368   0.729  0.2614  0.1946 -0.2913
 2472SOL     OW 9653   0.097   5.860   1.673  0.1213  0.2070  0.3239
 2472SOL    HW2 9654   0.022   5.850   1.615 -0.5112  0.7200  1.0451
 2472SOL    HW3 9655   0.061   5.855   1.761  0.9438  0.3918  0.6836
 2472SOL    MW4 9656   0.083   5.858   1.677 -0.0806  0.1003  0.3106
 2473SOL     OW 9657   1.774   3.077   2.680 -0.2083 -0.1110 -0.1691
 2473SOL    HW2 9658   1.866   3.093   2.659 -0.2771 -1.0804 -1.3183
 2473SOL    HW3 9659   1.730   3.078   2.595 -0.5611 -3.9418 -0.2033
 2473SOL    MW4 9660   1.780   3.080   2.666 -0.0456 -0.2494  0.0271
 2474SOL     OW 9661   2.801   0.059   4.525 -0.7576  0.6169 -0.1890
 2474SOL    HW2 9662   2.847  -0.024   4.541 -0.7452  0.2313 -2.0354
 2474SOL    HW3 9663   2.709   0.034   4.518 -0.6067  0.4984 -2.1927
 2474SOL    MW4 9664   2.795   0.045   4.526 -0.0913  0.2226  0.4969
 2475SOL     OW 9665   1.089   4.250   2.296  0.6059 -0.6510 -0.2607
 2475SOL    HW2 9666   1.047   4.323   2.251 -1.0261 -0.8207  0.8614
 2475SOL    HW3 9667   1.036   4.174   2.272  1.2040 -1.1488 -0.0208
 2475SOL    MW4 9668   1.076   4.249   2.287  0.6665  0.0555 -0.0583
 2476SOL     OW 9669   0.570   2.021   3.121 -0.1961  0.1852 -0.0946
 2476SOL    HW2 9670   0.506   2.046   3.188 -0.9279  1.8001 -1.3210
 2476SOL    HW3 9671   0.622   2.100   3.107  2.0925 -1.0635  0.7958
 2476SOL    MW4 9672   0.568   2.035   3.128 -0.2945  0.2558  0.2786
 2477SOL     OW 9673   0.251   3.405   0.200  0.6886 -0.0449  0.3946
 2477SOL    HW2 9674   0.242   3.493   0.235  2.9556  0.3279  0.1632
 2477SOL    HW3 9675   0.190   3.403   0.125  0.9978  1.5183  0.0589
 2477SOL    MW4 9676   0.242   3.416   0.194  0.0328  0.1242  0.7872
 2478SOL     OW 9677   3.592   3.010   4.912 -0.1045  0.1617 -0.3673
 2478SOL    HW2 9678   3.598   2.921   4.944 -1.9040  0.1508  0.0396
 2478SOL    HW3 9679   3.499   3.033   4.922  0.0738  1.6123 -1.6752
 2478SOL    MW4 9680   3.580   3.002   4.918  0.1180 -0.4139  0.1549
 2479SOL     OW 9681   1.006   1.234   1.430  0.4776  0.3697 -0.7222
 2479SOL    HW2 9682   1.043   1.173   1.494  0.1378  0.0579 -0.8250
 2479SOL    HW3 9683   1.076   1.246   1.365  0.5408  0.0939 -0.7042
 2479SOL    MW4 9684   1.020   1.228   1.430 -0.4421  0.0046  0.6140
 2480SOL     OW 9685   0.811   0.276   2.699  0.8058 -0.2513 -0.0298
 2480SOL    HW2 9686   0.768   0.359   2.679  0.2334 -0.0536  1.8779
 2480SOL    HW3 9687   0.848   0.248   2.615 -1.2004  0.6384 -1.3068
 2480SOL    MW4 9688   0.810   0.283   2.685 -0.3079 -0.2361  0.3775
 2481SOL     OW 9689   1.580   5.711   1.567  0.1882  0.4887  0.0945
 2481SOL    HW2 9690   1.586   5.698   1.662  0.0343  0.3057  0.0809
 2481SOL    HW3 9691   1.653   5.660   1.532 -0.4352 -0.3954  0.0397
 2481SOL    MW4 9692   1.590   5.702   1.575 -0.4626 -0.0825  0.4920
 2482SOL     OW 9693   5.388   5.076   3.789  0.0313 -0.0347 -0.1150
 2482SOL    HW2 9694   5.477   5.110   3.794 -0.3476  1.2343 -1.3477
 2482SOL    HW3 9695   5.342   5.116   3.863 -0.3993  2.2547 -1.5215
 2482SOL    MW4 9696   5.393   5.086   3.800  0.3636 -0.6165 -0.1670
 2483SOL     OW 9697   3.000   3.848   5.963 -0.3183  0.1667 -0.4660
 2483SOL    HW2 9698   3.067   3.812   5.905  0.4317 -2.8900  2.0253
 2483SOL    HW3 9699   3.049   3.894   6.031 -0.8380 -0.3630  0.2880
 2483SOL    MW4 9700   3.015   3.850   5.964  0.2878  0.3635  0.7038
 2484SOL     OW 9701   0.180   1.033   3.056  0.0989 -0.7792  0.1971
 2484SOL    HW2 9702   0.140   1.039   3.144 -1.1497 -0.2520 -0.3773
 2484SOL    HW3 9703   0.158   0.945   3.026 -0.8635 -0.4097 -0.2108
 2484SOL    MW4 9704   0.172   1.023   3.064 -0.1644  0.0937  0.5473
 2485SOL     OW 9705   0.626   6.356   2.413  0.1101 -0.7649 -0.0218
 2485SOL    HW2 9706   0.537   6.376   2.441 -0.0464 -1.7255  0.2323
 2485SOL    HW3 9707   0.663   6.439   2.385 -0.4451 -0.1376  1.0609
 2485SOL    MW4 9708   0.619   6.369   2.413  0.3106 -0.2599 -0.3205
 2486SOL     OW 9709   1.009   3.543   0.305  0.4159 -0.1737 -0.1315
 2486SOL    HW2 9710   1.067   3.530   0.231 -0.5233  0.0394 -0.9189
 2486SOL    HW3 9711   0.926   3.571   0.267 -0.0371  0.1089  1.0059
 2486SOL    MW4 9712   1.006   3.545   0.290 -0.2451 -0.1692  0.1091
 2487SOL     OW 9713   6.175   3.277   0.434 -0.5034  0.0322  0.2341
 2487SOL    HW2 9714   6.108   3.217   0.402 -1.4586  0.6093  1.0675
 2487SOL    HW3 9715   6.241   3.279   0.365 -0.6695 -1.6013 -0.0117
 2487SOL    MW4 9716   6.175   3.270   0.421  0.4377 -0.0852 -0.0778
 2488SOL     OW 9717   0.166   5.069   5.507 -0.1260  0.3467 -0.0057
 2488SOL    HW2 9718   0.252   5.062   5.466  0.0096  1.2262  0.1124
 2488SOL    HW3 9719   0.182   5.112   5.591 -0.5664 -0.3110  0.4345
 2488SOL    MW4 9720   0.179   5.074   5.513  0.1304 -0.1501  0.1677
 2489SOL     OW 9721   5.943   3.232   4.399  0.3987  0.6318 -0.1920
 2489SOL    HW2 9722   5.864   3.247   4.451  0.2416 -0.1992 -0.1618
 2489SOL    HW3 9723   5.935   3.141   4.371  1.7340  0.2777  0.4808
 2489SOL    MW4 9724   5.932   3.222   4.403  0.2765 -0.3002  0.0217
 2490SOL     OW 9725   2.351   2.597   3.335  0.3890  0.0127  0.1360
 2490SOL    HW2 9726   2.258   2.600   3.356  0.3375 -1.6692  0.2664
 2490SOL    HW3 9727   2.387   2.676   3.376 -0.6790 -0.2131  1.5965
 2490SOL    MW4 9728   2.344   2.608   3.343  0.1560 -0.1743  0.3090
 2491SOL     OW 9729   4.699   5.539   1.589  0.0537 -0.3851 -0.1135
 2491SOL    HW2 9730   4.746   5.458   1.568  1.1576  0.2867 -0.3198
 2491SOL    HW3 9731   4.752   5.581   1.657  0.4550  0.9887 -1.2228
 2491SOL    MW4 9732   4.712   5.534   1.595  0.0488  0.2549 -0.0170
 2492SOL     OW 9733   6.253   3.983   0.933  0.5399  0.3861 -1.0105
 2492SOL    HW2 9734   6.256   4.018   1.022  2.0419 -1.1806 -0.3872
 2492SOL    HW3 9735   6.331   4.018   0.891  1.2022 -0.8535 -0.8757
 2492SOL    MW4 9736   6.263   3.992   0.939  0.0341  0.1428 -0.6272
 2493SOL     OW 9737   4.739   2.256   3.599  0.0155  0.0945 -0.2253
 2493SOL    HW2 9738   4.646   2.273   3.615 -0.4261 -0.2114 -2.2493
 2493SOL    HW3 9739   4.773   2.339   3.566  0.6400  0.3765  1.0390
 2493SOL    MW4 9740   4.731   2.270   3.597  0.1086 -0.3160 -0.1584
 2494SOL     OW 9741   3.371   0.223   0.099 -0.4839  0.2348  0.3964
 2494SOL    HW2 9742   3.405   0.227   0.009  0.9620 -0.4303  0.8733
 2494SOL    HW3 9743   3.372   0.130   0.121 -1.3595  0.3339  0.9290
 2494SOL    MW4 9744   3.376   0.211   0.090 -0.4725 -0.0191 -0.3569
 2495SOL     OW 9745   2.351   3.514   0.821 -0.1462 -1.0113  0.0772
 2495SOL    HW2 9746   2.363   3.520   0.727  3.3412  2.0697  0.5016
 2495SOL    HW3 9747   2.281   3.576   0.841 -1.4986 -2.2966 -0.4358
 2495SOL    MW4 9748   2.343   3.523   0.811  0.7002 -0.0985 -0.0364
 2496SOL     OW 9749   3.135   5.278   5.748  0.5713  0.3298  0.4797
 2496SOL    HW2 9750   3.228   5.258   5.756  0.7119  0.4410 -0.6994
 2496SOL    HW3 9751   3.133   5.366   5.709 -0.0319  0.4612  0.7931
 2496SOL    MW4 9752   3.147   5.287   5.744  0.3087 -0.2699  0.6399
 2497SOL     OW 9753   0.686   5.772   3.887 -0.6833 -0.2165  0.0391
 2497SOL    HW2 9754   0.772   5.814   3.874 -0.5909 -0.0502  1.1083
 2497SOL    HW3 9755   0.697   5.684   3.851  0.5504 -0.8427  1.7929
 2497SOL    MW4 9756   0.699   5.766   3.881 -0.2100 -0.0286 -0.4044
 2498SOL     OW 9757   1.674   0.338   1.868  0.2667  0.0892 -0.4707
 2498SOL    HW2 9758   1.703   0.358   1.779 -0.2458  0.1901 -0.6149
 2498SOL    HW3 9759   1.636   0.420   1.900 -0.2392 -0.1582 -0.4292
 2498SOL    MW4 9760   1.673   0.352   1.861 -0.7622  0.2065  0.3510
 2499SOL     OW 9761   4.117   2.702   5.106 -0.4875  0.2174  0.3930
 2499SOL    HW2 9762   4.165   2.727   5.185  1.3900  1.0819 -0.9403
 2499SOL    HW3 9763   4.176   2.725   5.034 -2.2962 -0.1601 -1.2926
 2499SOL    MW4 9764   4.131   2.709   5.106  0.5897  0.0860  0.0702
 2500SOL     OW 9765   0.318   1.512   3.903 -0.0116 -0.2700 -0.1143
 2500SOL    HW2 9766   0.254   1.441   3.913 -0.2417  0.0754  1.0160
 2500SOL    HW3 9767   0.379   1.480   3.837 -0.4430 -1.2771 -0.0466
 2500SOL    MW4 9768   0.318   1.498   3.895  0.5157 -0.5486  0.0688
 2501SOL     OW 9769   3.529   5.431   2.926 -0.4160 -0.1405  0.0490
 2501SOL    HW2 9770   3.587   5.359   2.903 -0.1247  0.2171 -0.3569
 2501SOL    HW3 9771   3.453   5.420   2.870 -0.3796 -0.1516  0.0012
 2501SOL    MW4 9772   3.527   5.420   2.915 -0.7271  0.4996 -0.0361
 2502SOL     OW 9773   4.045   4.059   2.650 -0.8540 -0.2188 -0.7597
 2502SOL    HW2 9774   3.993   4.025   2.577 -0.5587 -0.2954 -0.9353
 2502SOL    HW3 9775   3.994   4.037   2.728 -1.0248 -0.4034 -0.9225
 2502SOL    MW4 9776   4.031   4.051   2.650  0.2389  0.2299 -1.2157
 2503SOL     OW 9777   2.626   2.084   6.421 -0.7390 -0.2741  0.0977
 2503SOL    HW2 9778   2.675   2.156   6.461  1.1927 -1.0641 -0.6979
 2503SOL    HW3 9779   2.616   2.109   6.330 -0.2295 -0.8971 -0.1374
 2503SOL    MW4 9780   2.631   2.097   6.415  0.2088  0.1069  0.2235
 2504SOL     OW 9781   4.312   5.227   2.716  0.6777 -0.2932 -0.3597
 2504SOL    HW2 9782   4.400   5.246   2.686  0.6735 -2.6374 -2.2044
 2504SOL    HW3 9783   4.317   5.138   2.751 -0.9370 -0.5089 -0.5790
 2504SOL    MW4 9784   4.324   5.217   2.717 -0.3738  0.2607 -0.3568
 2505SOL     OW 9785   3.539   0.028   5.576 -0.5311 -0.2471  0.3160
 2505SOL    HW2 9786   3.594  -0.013   5.509 -1.6172 -1.3187  0.0618
 2505SOL    HW3 9787   3.590   0.018   5.657  0.7268  0.9387 -0.3001
 2505SOL    MW4 9788   3.553   0.021   5.578 -0.5872  0.3907 -0.3685
 2506SOL     OW 9789   3.216   2.295   3.271  0.3994  0.1034  0.1199
 2506SOL    HW2 9790   3.131   2.270   3.235  1.2352 -1.6045 -0.7843
 2506SOL    HW3 9791   3.213   2.265   3.362 -0.0060  0.1634  0.1280
 2506SOL    MW4 9792   3.204   2.288   3.279 -0.3404  0.4460  0.4430
 2507SOL     OW 9793   3.497   3.709   4.530 -0.0883 -0.4261  0.2205
 2507SOL    HW2 9794   3.586   3.678   4.546  0.0939  0.9836  2.3642
 2507SOL    HW3 9795   3.453   3.700   4.615 -1.6367  0.0246 -0.5004
 2507SOL    MW4 9796   3.503   3.703   4.544  0.0101  0.1613  0.4853
 2508SOL     OW 9797   4.945   5.608   4.999  0.4817  0.0464 -0.2478
 2508SOL    HW2 9798   4.985   5.558   5.070  0.9035  0.0786 -0.4585
 2508SOL    HW3 9799   4.873   5.654   5.040  0.3640 -0.3863  0.0412
 2508SOL    MW4 9800   4.941   5.607   5.014 -0.2498  0.4285 -0.1926
 2509SOL     OW 9801   0.865   1.300   1.671 -0.6311  0.1927 -0.0247
 2509SOL    HW2 9802   0.830   1.217   1.702  0.0134  0.2305  0.8286
 2509SOL    HW3 9803   0.920   1.276   1.596 -0.1647 -0.1896  0.4383
 2509SOL    MW4 9804   0.868   1.286   1.665  0.2651 -0.0805 -0.4802
 2510SOL     OW 9805   0.295   4.760   2.859  0.6682  0.2116  0.2386
 2510SOL    HW2 9806   0.349   4.709   2.799  0.5776  1.1692 -0.7058
 2510SOL    HW3 9807   0.306   4.851   2.829 -0.6741  0.5291  0.6321
 2510SOL    MW4 9808   0.303   4.766   2.847  0.0013  0.5298 -0.1342
 2511SOL     OW 9809   5.980   4.692   4.992 -0.2031 -0.1979  1.0852
 2511SOL    HW2 9810   5.960   4.657   4.905  0.2417  1.0976  0.4259
 2511SOL    HW3 9811   6.076   4.702   4.992 -0.3360  1.2353  1.1356
 2511SOL    MW4 9812   5.990   4.689   4.980 -0.1947  0.1380  0.0268
 2512SOL     OW 9813   1.114   2.836   0.201 -0.7027  0.4693  0.0919
 2512SOL    HW2 9814   1.026   2.804   0.219 -0.8296  1.2653  0.9981
 2512SOL    HW3 9815   1.109   2.931   0.216  0.3618  0.4970  0.3992
 2512SOL    MW4 9816   1.102   2.844   0.205  0.0612 -0.4165 -0.1743
 2513SOL     OW 9817   0.491   4.910   5.046 -0.3395  0.1230  0.2956
 2513SOL    HW2 9818   0.532   4.829   5.015  0.5479  0.1438  1.3641
 2513SOL    HW3 9819   0.400   4.885   5.063  0.3633 -1.2260  2.5061
 2513SOL    MW4 9820   0.484   4.896   5.044  0.5514 -0.6700  0.6078
 2514SOL     OW 9821   5.111   5.999   4.893 -0.0993 -0.6009  0.7446
 2514SOL    HW2 9822   5.107   6.088   4.858  1.8532 -1.1882 -1.1924
 2514SOL    HW3 9823   5.043   5.952   4.845 -0.4973 -0.3752  1.0828
 2514SOL    MW4 9824   5.101   6.005   4.882  0.2102 -0.2144 -0.1582
 2515SOL     OW 9825   0.297   4.088   1.883  0.2124 -0.1390 -0.0394
 2515SOL    HW2 9826   0.319   3.999   1.857  1.3781  0.0682  0.1672
 2515SOL    HW3 9827   0.277   4.082   1.976 -2.2175 -0.5787 -0.5073
 2515SOL    MW4 9828   0.297   4.076   1.892  0.3536 -0.1124  0.4446
 2516SOL     OW 9829   6.222   1.123   1.259 -0.4038  0.4344  0.2577
 2516SOL    HW2 9830   6.276   1.199   1.283  1.1918 -0.1440 -1.2807
 2516SOL    HW3 9831   6.280   1.048   1.272 -0.7359 -0.1992 -1.6490
 2516SOL    MW4 9832   6.237   1.123   1.264 -0.2584  0.5471  0.0006
 2517SOL     OW 9833   3.705   4.990   0.282  0.3011 -0.3000  0.2796
 2517SOL    HW2 9834   3.680   5.083   0.286 -0.6744 -0.5467  0.2402
 2517SOL    HW3 9835   3.644   4.946   0.341  0.9657 -0.8822  0.5475
 2517SOL    MW4 9836   3.693   4.997   0.291 -0.1205 -0.1432  0.3195
 2518SOL     OW 9837   3.542   0.507   4.980  0.4735 -0.1178  0.0237
 2518SOL    HW2 9838   3.474   0.477   5.041 -0.2677 -0.6385 -1.0359
 2518SOL    HW3 9839   3.601   0.432   4.972 -1.0723 -1.2010 -2.1858
 2518SOL    MW4 9840   3.541   0.493   4.987  0.7457  0.4263  0.3531
 2519SOL     OW 9841   2.573   0.653   2.462  0.5998  0.1553 -0.0962
 2519SOL    HW2 9842   2.666   0.635   2.469  0.6935  0.4687 -0.5027
 2519SOL    HW3 9843   2.539   0.582   2.408  0.4840 -0.3248  0.5978
 2519SOL    MW4 9844   2.580   0.641   2.456 -0.3357  0.5206  0.7609
 2520SOL     OW 9845   2.711   0.360   4.149  0.1870  0.0930  0.1663
 2520SOL    HW2 9846   2.701   0.454   4.164  0.7484 -0.0186  1.2912
 2520SOL    HW3 9847   2.784   0.334   4.205 -0.4292 -1.1540  0.4126
 2520SOL    MW4 9848   2.720   0.369   4.158  0.1092  0.2198 -0.1480
 2521SOL     OW 9849   5.607   6.125   1.530 -0.8792 -0.4141  0.4198
 2521SOL    HW2 9850   5.600   6.156   1.621  1.0509 -0.0933  0.4966
 2521SOL    HW3 9851   5.596   6.203   1.477  0.1273 -0.2228  0.4748
 2521SOL    MW4 9852   5.604   6.139   1.535 -0.0827  0.0531 -0.3483
 2522SOL     OW 9853   4.797   3.368   0.220 -0.4414  0.4883 -0.6851
 2522SOL    HW2 9854   4.846   3.426   0.278  2.4915 -0.5153 -1.9785
 2522SOL    HW3 9855   4.808   3.406   0.133 -2.5040  0.5106 -0.9770
 2522SOL    MW4 9856   4.805   3.380   0.216 -0.3900 -0.2972 -0.3148
 2523SOL     OW 9857   4.369   5.834   1.269  0.0447 -0.5925 -1.1554
 2523SOL    HW2 9858   4.411   5.764   1.319  1.1316  1.8309  1.6453
 2523SOL    HW3 9859   4.278   5.834   1.299  0.3638 -0.0179 -0.1439
 2523SOL    MW4 9860   4.363   5.825   1.280  0.3491 -0.4062  0.1011
 2524SOL     OW 9861   0.607   5.037   1.197 -0.4310 -0.2002 -0.6069
 2524SOL    HW2 9862   0.566   5.057   1.113 -1.8207  2.2502  0.5501
 2524SOL    HW3 9863   0.696   5.071   1.189 -0.2621 -0.8202 -1.3921
 2524SOL    MW4 9864   0.613   5.044   1.185 -0.1138  0.0484 -0.3626
 2525SOL     OW 9865   1.939   1.318   1.193 -0.8109  0.3501 -0.4467
 2525SOL    HW2 9866   1.922   1.410   1.171 -1.4191 -0.0087 -1.5573
 2525SOL    HW3 9867   2.030   1.304   1.167 -1.0786  0.3318 -1.4208
 2525SOL    MW4 9868   1.949   1.328   1.186  0.0092 -0.5078  0.3028
 2526SOL     OW 9869   0.289   5.423   4.518  0.0337  0.1619 -0.1232
 2526SOL    HW2 9870   0.226   5.485   4.479  0.5323 -0.1600 -1.4716
 2526SOL    HW3 9871   0.362   5.422   4.457  0.6961 -0.6251  0.6717
 2526SOL    MW4 9872   0.290   5.431   4.505  0.0642  0.4186 -0.4769
 2527SOL     OW 9873   3.266   3.674   1.590  0.4896  0.5549  0.6610
 2527SOL    HW2 9874   3.201   3.715   1.532  0.9881 -0.8978 -1.0051
 2527SOL    HW3 9875   3.214   3.636   1.661 -0.5254 -0.4940 -0.5859
 2527SOL    MW4 9876   3.250   3.675   1.591  0.7327 -0.1416 -0.2453
 2528SOL     OW 9877   5.345   1.738   6.317  0.0045 -0.1264  0.4420
 2528SOL    HW2 9878   5.337   1.808   6.251 -0.8396  0.1068  0.7740
 2528SOL    HW3 9879   5.311   1.778   6.397  1.8907 -0.0918  1.2758
 2528SOL    MW4 9880   5.340   1.753   6.319  0.1654 -0.3893 -0.5070
 2529SOL     OW 9881   4.715   3.330   5.788  0.1768 -0.1857  0.8329
 2529SOL    HW2 9882   4.741   3.276   5.713 -1.8041  0.6379 -0.5490
 2529SOL    HW3 9883   4.750   3.284   5.864  3.1557 -0.5522 -0.5992
 2529SOL    MW4 9884   4.723   3.317   5.788  0.3058  0.9757 -0.0700
 2530SOL     OW 9885   0.746   4.659   2.117 -0.1652 -0.4111 -0.3352
 2530SOL    HW2 9886   0.814   4.610   2.163  0.9230  0.5002 -0.9095
 2530SOL    HW3 9887   0.741   4.743   2.165  1.9985  1.1398 -2.5728
 2530SOL    MW4 9888   0.755   4.664   2.130  0.2801  0.2289  0.2726
 2531SOL     OW 9889   6.109   3.164   2.876  0.1241  0.5558 -0.1224
 2531SOL    HW2 9890   6.020   3.149   2.844  1.1719 -2.5310 -2.0038
 2531SOL    HW3 9891   6.165   3.144   2.801  2.4985  0.0719  1.6661
 2531SOL    MW4 9892   6.104   3.159   2.862  0.5316 -0.8754  0.2025
 2532SOL     OW 9893   2.016   4.869   5.272 -0.0941  0.1721  0.5286
 2532SOL    HW2 9894   2.037   4.793   5.218 -0.2378  1.0105 -0.7322
 2532SOL    HW3 9895   1.976   4.932   5.212 -2.4218  0.2637  2.0496
 2532SOL    MW4 9896   2.014   4.867   5.257  0.2010 -0.2193 -0.0693
 2533SOL     OW 9897   4.597   1.416   3.166 -0.4428 -0.3544  0.5214
 2533SOL    HW2 9898   4.668   1.413   3.231 -0.8742 -0.9676  0.9763
 2533SOL    HW3 9899   4.584   1.509   3.150  1.8379 -0.2279 -1.0984
 2533SOL    MW4 9900   4.605   1.428   3.173 -0.2780 -0.3333  0.2758
 2534SOL     OW 9901   1.265   2.678   1.952  0.2755 -0.1864 -0.1448
 2534SOL    HW2 9902   1.265   2.728   2.034  0.1333 -0.1075 -0.1925
 2534SOL    HW3 9903   1.281   2.588   1.979  0.3487 -0.1422 -0.0406
 2534SOL    MW4 9904   1.267   2.673   1.966 -0.5393 -0.3959  0.0527
 2535SOL     OW 9905   1.484   5.350   0.977  0.2170  0.0485  0.4899
 2535SOL    HW2 9906   1.391   5.365   0.992  0.0096 -1.4479  0.8933
 2535SOL    HW3 9907   1.496   5.256   0.993  1.5073 -0.0873 -1.0589
 2535SOL    MW4 9908   1.473   5.339   0.981 -0.1913  0.9984 -0.1880
 2536SOL     OW 9909   1.613   2.494   0.840  0.2793  0.3444  0.3966
 2536SOL    HW2 9910   1.526   2.469   0.872 -0.1317  0.6032 -0.5117
 2536SOL    HW3 9911   1.622   2.586   0.865 -0.5721  0.9332 -1.2982
 2536SOL    MW4 9912   1.602   2.503   0.848 -0.5172 -0.9075 -0.1475
 2537SOL     OW 9913   2.584   4.537   6.292 -0.2071 -0.4247  0.8668
 2537SOL    HW2 9914   2.543   4.525   6.206  0.6280  0.4452  0.3373
 2537SOL    HW3 9915   2.615   4.449   6.316 -0.2783 -0.6362  0.1949
 2537SOL    MW4 9916   2.583   4.524   6.284  0.5760 -0.4899 -0.4204
 2538SOL     OW 9917   6.064   4.061   0.719 -0.5981 -0.0880  0.2473
 2538SOL    HW2 9918   6.121   4.092   0.649 -0.4843 -1.2598 -0.2106
 2538SOL    HW3 9919   6.122   4.042   0.792 -0.7444  1.3724  0.7762
 2538SOL    MW4 9920   6.079   4.062   0.719  0.3630  0.0452  0.6330
 2539SOL     OW 9921   5.191   4.281   1.051  0.5284 -0.2188  0.5802
 2539SOL    HW2 9922   5.134   4.353   1.079  0.8858 -0.1073  1.0304
 2539SOL    HW3 9923   5.235   4.254   1.131  2.8865  1.2380 -0.1275
 2539SOL    MW4 9924   5.189   4.287   1.065  0.3060 -0.0702  0.1374
 2540SOL     OW 9925   1.985   5.098   2.173 -0.1894 -0.2794 -0.1289
 2540SOL    HW2 9926   2.023   5.035   2.111  1.9572 -0.1614  0.9736
 2540SOL    HW3 9927   2.042   5.093   2.250 -0.2957  2.5685  0.2382
 2540SOL    MW4 9928   1.998   5.089   2.175  1.2169 -0.2772  0.3260
 2541SOL     OW 9929   0.526   2.243   1.539 -0.0196  0.2884 -0.4647
 2541SOL    HW2 9930   0.505   2.150   1.533 -0.7817  0.4895 -0.9984
 2541SOL    HW3 9931   0.444   2.288   1.520  0.6969  1.0851 -1.7947
 2541SOL    MW4 9932   0.513   2.237   1.536 -0.3378  0.7812 -0.2575
 2542SOL     OW 9933   3.813   0.379   2.281 -0.5565  0.3192 -0.4663
 2542SOL    HW2 9934   3.858   0.334   2.353 -1.7680  0.6030  0.5071
 2542SOL    HW3 9935   3.861   0.461   2.271 -0.6390  0.4771  0.3290
 2542SOL    MW4 9936   3.825   0.384   2.289 -0.0600 -0.5331 -0.6174
 2543SOL     OW 9937   3.889   4.701   3.193  0.3529  0.0030  0.1301
 2543SOL    HW2 9938   3.980   4.687   3.168  0.2927 -0.6672  0.2769
 2543SOL    HW3 9939   3.841   4.630   3.150 -0.3916  1.4346 -1.5855
 2543SOL    MW4 9940   3.894   4.690   3.184 -0.0719 -0.2197 -0.7801
 2544SOL     OW 9941   0.238   6.260   4.307  0.2200 -0.3826  0.0105
 2544SOL    HW2 9942   0.193   6.195   4.252  2.4764 -2.1013  0.0348
 2544SOL    HW3 9943   0.206   6.243   4.395 -0.0705 -0.6889 -0.1496
 2544SOL    MW4 9944   0.228   6.249   4.311 -0.0447  0.1655 -0.3765
 2545SOL     OW 9945   2.564   3.900   0.039 -0.6310  0.1515  0.5672
 2545SOL    HW2 9946   2.610   3.962   0.096  1.2411 -1.3363  0.7862
 2545SOL    HW3 9947   2.594   3.814   0.068 -0.3261 -0.7139 -2.0290
 2545SOL    MW4 9948   2.574   3.897   0.050 -0.0552  0.3285  0.3334
 2546SOL     OW 9949   1.353   4.287   1.267 -0.5965  0.2101  0.5629
 2546SOL    HW2 9950   1.385   4.196   1.265  1.0285  0.6990 -2.3763
 2546SOL    HW3 9951   1.258   4.278   1.260 -0.6367 -1.2398  2.1865
 2546SOL    MW4 9952   1.345   4.274   1.266  0.1762  0.3472 -0.0407
 2547SOL     OW 9953   0.633   1.241   3.977 -0.3290  1.0819  0.4728
 2547SOL    HW2 9954   0.602   1.199   3.897  0.8527  0.8648  0.1087
 2547SOL    HW3 9955   0.681   1.171   4.023  1.3305  1.9007  0.0473
 2547SOL    MW4 9956   0.635   1.226   3.973 -0.4033  0.0954  0.2563
 2548SOL     OW 9957   3.201   3.006   4.048  0.2873 -0.2914  0.1109
 2548SOL    HW2 9958   3.153   3.071   4.099  0.2746 -0.6949  0.6264
 2548SOL    HW3 9959   3.138   2.976   3.982 -0.2833 -1.0121  0.9494
 2548SOL    MW4 9960   3.186   3.010   4.046  0.3190 -0.5877  0.0148
 2549SOL     OW 9961   2.525   2.359   4.550  0.0268 -0.2125  0.0938
 2549SOL    HW2 9962   2.511   2.352   4.456 -0.5263  0.8605  0.0876
 2549SOL    HW3 9963   2.480   2.283   4.587 -1.5990  0.5154 -0.3380
 2549SOL    MW4 9964   2.517   2.348   4.543 -0.1931  0.0968 -0.1463
 2550SOL     OW 9965   0.866   2.776   2.403 -0.1449  0.1993  0.3827
 2550SOL    HW2 9966   0.906   2.861   2.386 -0.8368  0.4909  0.1720
 2550SOL    HW3 9967   0.772   2.793   2.404 -0.2720 -0.4825  0.8147
 2550SOL    MW4 9968   0.859   2.790   2.401 -0.5951  0.0184  0.7743
 2551SOL     OW 9969   6.338   3.206   1.095  0.2287 -0.0590 -0.1980
 2551SOL    HW2 9970   6.309   3.148   1.025 -1.1469 -0.7328  0.8770
 2551SOL    HW3 9971   6.408   3.157   1.138  2.1277  0.9772 -1.9340
 2551SOL    MW4 9972   6.344   3.192   1.092 -0.6878 -0.2847  0.2506
 2552SOL     OW 9973   0.890   3.281   0.292 -0.6732 -0.6218 -0.0334
 2552SOL    HW2 9974   0.804   3.243   0.309 -1.4941  1.1450 -0.0022
 2552SOL    HW3 9975   0.878   3.335   0.215  0.3100 -0.0323  0.2048
 2552SOL    MW4 9976   0.877   3.283   0.284  0.2570 -0.4529 -0.0946
 2553SOL     OW 9977   2.416   5.112   6.164 -0.0662 -0.1213  0.1460
 2553SOL    HW2 9978   2.386   5.026   6.134 -1.6981  0.7519 -0.8385
 2553SOL    HW3 9979   2.454   5.153   6.087 -2.0293  1.1691 -0.2101
 2553SOL    MW4 9980   2.417   5.106   6.150 -0.0776  0.3348 -0.0291
 2554SOL     OW 9981   0.470   5.921   5.564 -0.1809  1.0758 -0.6594
 2554SOL    HW2 9982   0.498   6.003   5.605  1.4926  0.0345  0.4300
 2554SOL    HW3 9983   0.537   5.904   5.497  0.3650 -0.1005  0.1328
 2554SOL    MW4 9984   0.483   5.929   5.560 -0.0005  0.2582 -0.5744
 2555SOL     OW 9985   1.866   2.555   2.868  0.2008  0.2473  0.0598
 2555SOL    HW2 9986   1.950   2.511   2.855 -0.3659 -1.6106  2.0192
 2555SOL    HW3 9987   1.832   2.568   2.780  1.4090 -1.2898 -0.6975
 2555SOL    MW4 9988   1.873   2.550   2.855 -0.2002  0.2663  0.1317
 2556SOL     OW 9989   3.811   4.358   4.174  0.2117 -0.4494 -0.4122
 2556SOL    HW2 9990   3.800   4.388   4.265 -1.0384 -1.7176 -0.1206
 2556SOL    HW3 9991   3.826   4.439   4.124 -0.7773  0.4455  0.6771
 2556SOL    MW4 9992   3.812   4.373   4.180 -0.0592  0.3392  0.5298
 2557SOL     OW 9993   0.797   5.479   2.661  0.0959 -0.1299  0.0088
 2557SOL    HW2 9994   0.745   5.486   2.582  0.5144  0.7238 -0.2056
 2557SOL    HW3 9995   0.766   5.400   2.704  0.0585 -0.7600 -1.1469
 2557SOL    MW4 9996   0.786   5.470   2.657 -0.2206  0.3103 -0.0586
 2558SOL     OW 9997   5.422   1.130   2.208 -0.0777 -0.3184  0.2123
 2558SOL    HW2 9998   5.387   1.217   2.228 -0.4535 -0.2734 -0.6206
 2558SOL    HW3 9999   5.517   1.142   2.212 -0.1166 -0.2471  1.6346
 2558SOL    MW410000   5.430   1.143   2.211  0.0655  0.5562  0.1065
 2559SOL     OW10001   3.929   1.359   4.810 -0.3044  0.2765  0.5037
 2559SOL    HW210002   3.975   1.296   4.865  0.6757  0.3353 -0.2200
 2559SOL    HW310003   3.973   1.354   4.725 -1.6562  0.3288 -0.2332
 2559SOL    MW410004   3.941   1.350   4.806  0.2446  0.5614  0.3262
 2560SOL     OW10005   2.569   4.314   2.710  0.6095 -0.6066 -0.2218
 2560SOL    HW210006   2.613   4.268   2.781  0.3076 -2.2755 -1.0672
 2560SOL    HW310007   2.476   4.307   2.730  0.5874  1.4954  0.7061
 2560SOL    MW410008   2.562   4.307   2.722  0.0700 -0.8591  0.0720
 2561SOL     OW10009   3.817   5.535   5.597 -0.2807  0.5225  0.3389
 2561SOL    HW210010   3.754   5.469   5.568 -0.5008  1.0460 -0.4009
 2561SOL    HW310011   3.870   5.554   5.520  0.9654 -0.0820  1.0114
 2561SOL    MW410012   3.815   5.529   5.583 -0.3185 -0.1252  0.5371
 2562SOL     OW10013   1.061   4.179   0.751  0.6314 -0.4911 -0.6104
 2562SOL    HW210014   1.122   4.140   0.689  2.7390  1.8041 -0.1774
 2562SOL    HW310015   1.035   4.262   0.711 -1.0633 -0.7393 -0.1014
 2562SOL    MW410016   1.066   4.185   0.738  0.6516 -0.2515 -0.0828
 2563SOL     OW10017   2.722   0.455   5.776 -0.4057  0.1163  0.9171
 2563SOL    HW210018   2.650   0.514   5.799 -1.1283 -0.2855 -0.2169
 2563SOL    HW310019   2.776   0.506   5.715 -2.7378 -1.2801 -2.6404
 2563SOL    MW410020   2.720   0.470   5.771  0.8815 -0.2352  0.1758
 2564SOL     OW10021   6.354   4.387   2.555 -0.5165  0.1781  0.1004
 2564SOL    HW210022   6.448   4.384   2.533 -0.4879 -0.0901  0.2552
 2564SOL    HW310023   6.313   4.326   2.494 -0.8767  1.7675 -1.3286
 2564SOL    MW410024   6.361   4.378   2.544  0.4942  0.3864 -0.4664
 2565SOL     OW10025   3.433   5.909   2.087  0.2378 -0.6658 -0.0424
 2565SOL    HW210026   3.473   5.995   2.074 -0.6626 -0.3617 -0.9372
 2565SOL    HW310027   3.412   5.907   2.180 -0.3009  0.3557 -0.1254
 2565SOL    MW410028   3.436   5.920   2.098 -0.3822 -0.2918  0.4022
 2566SOL     OW10029   3.944   5.251   3.498 -0.1829 -0.1550  0.2913
 2566SOL    HW210030   3.909   5.164   3.480 -0.9811 -0.0281  1.1785
 2566SOL    HW310031   4.038   5.237   3.512 -0.6339 -1.2199  2.6075
 2566SOL    MW410032   3.952   5.238   3.497 -0.0566 -0.2661  0.2788
 2567SOL     OW10033   5.249   1.098   5.629 -0.4730  0.3202  0.0972
 2567SOL    HW210034   5.308   1.103   5.704 -1.8625  0.6335  1.2045
 2567SOL    HW310035   5.273   1.016   5.585  2.4419  1.6121 -0.9714
 2567SOL    MW410036   5.260   1.088   5.633  0.0593  0.6124  0.0577
 2568SOL     OW10037   0.805   6.322   4.073  0.0307  0.3620  0.3348
 2568SOL    HW210038   0.882   6.362   4.032 -2.3687  1.9222 -3.2144
 2568SOL    HW310039   0.806   6.231   4.043  0.2783  0.5100 -0.1189
 2568SOL    MW410040   0.815   6.316   4.063  0.2339  0.1906  0.1839
 2569SOL     OW10041   3.120   2.924   4.376  0.0034 -0.3298 -0.4865
 2569SOL    HW210042   3.048   2.988   4.376  0.4149  0.2291  1.6360
 2569SOL    HW310043   3.076   2.839   4.367 -0.9455  0.0093  0.6290
 2569SOL    MW410044   3.105   2.921   4.375 -0.7371  0.2746 -0.6511
 2570SOL     OW10045   3.088   1.411   0.133 -0.1604 -0.4472  0.0993
 2570SOL    HW210046   3.125   1.399   0.045 -0.8024  0.1199 -0.2631
 2570SOL    HW310047   3.007   1.361   0.132 -0.4511  0.0139  0.1719
 2570SOL    MW410048   3.082   1.403   0.121  0.0737  1.0886  0.5925
 2571SOL     OW10049   2.143   1.987   4.912 -0.2263  0.2419  0.0373
 2571SOL    HW210050   2.058   1.946   4.931  0.0579  0.6283  2.4540
 2571SOL    HW310051   2.195   1.971   4.990  1.3954  1.4260 -0.7533
 2571SOL    MW410052   2.138   1.980   4.925  0.3424  0.6734  0.1397
 2572SOL     OW10053   4.295   1.586   1.988 -0.2213  0.2436 -0.3287
 2572SOL    HW210054   4.361   1.642   1.946  1.6926 -1.4367  0.2815
 2572SOL    HW310055   4.264   1.529   1.917 -0.1870  0.2920 -0.3836
 2572SOL    MW410056   4.300   1.586   1.973  0.7129  0.2016  0.4541
 2573SOL     OW10057   6.272   0.775   2.568  0.1230  0.3378  0.1477
 2573SOL    HW210058   6.329   0.729   2.629 -1.2240 -1.4986  0.1015
 2573SOL    HW310059   6.308   0.754   2.481 -0.2123 -0.2878  0.1512
 2573SOL    MW410060   6.284   0.766   2.564  0.6181 -0.8899 -0.2156
 2574SOL     OW10061   5.884   3.716   1.111 -0.1470 -0.1767 -0.2870
 2574SOL    HW210062   5.897   3.787   1.174 -1.7530  0.1944 -0.3350
 2574SOL    HW310063   5.843   3.758   1.036 -2.4998 -1.3557  0.2604
 2574SOL    MW410064   5.880   3.731   1.109 -0.3418  0.3078  0.1497
 2575SOL     OW10065   2.896   5.474   3.796 -0.3519  0.5729  0.1952
 2575SOL    HW210066   2.858   5.521   3.722 -0.2195 -0.5875 -0.6239
 2575SOL    HW310067   2.832   5.407   3.818 -0.0081  0.3691  0.5990
 2575SOL    MW410068   2.882   5.472   3.789  0.2426  0.3224  0.2681
 2576SOL     OW10069   5.557   1.566   4.347 -0.1669 -0.6426 -0.2958
 2576SOL    HW210070   5.527   1.633   4.409 -2.1703 -0.6873 -1.1152
 2576SOL    HW310071   5.635   1.604   4.307 -0.9151  0.9779 -0.3170
 2576SOL    MW410072   5.563   1.580   4.350  0.0858  0.2183 -0.2356
 2577SOL     OW10073   3.635   4.554   2.591 -0.0282 -0.0649 -0.1005
 2577SOL    HW210074   3.633   4.581   2.683 -0.1441  1.4454 -0.5250
 2577SOL    HW310075   3.728   4.541   2.572 -0.0486 -1.0799  0.3971
 2577SOL    MW410076   3.647   4.556   2.601  0.4012 -0.2835  0.6686
 2578SOL     OW10077   2.413   0.130   2.251  0.0319  0.1359 -0.3983
 2578SOL    HW210078   2.324   0.162   2.267  0.3065  0.6263  0.2246
 2578SOL    HW310079   2.421   0.052   2.306  0.2199  0.5182  0.1352
 2578SOL    MW410080   2.402   0.124   2.261  0.1802  0.6555  0.2070
 2579SOL     OW10081   4.887   5.780   3.372  0.5788 -0.5269 -0.4659
 2579SOL    HW210082   4.795   5.775   3.346  0.5142  0.4985 -0.4785
 2579SOL    HW310083   4.932   5.716   3.316 -0.0414 -0.6451 -0.8357
 2579SOL    MW410084   4.881   5.771   3.361 -0.4736  0.9191 -0.0854
 2580SOL     OW10085   2.559   0.017   4.407 -0.4990 -0.5739 -0.2389
 2580SOL    HW210086   2.568  -0.077   4.388  0.2724 -0.2866 -1.3709
 2580SOL    HW310087   2.464   0.031   4.410 -0.6251 -1.5003  0.5364
 2580SOL    MW410088   2.548   0.006   4.405  1.0521 -0.3786 -0.1332
 2581SOL     OW10089   5.467   5.988   3.541  0.0235 -0.1949 -0.1701
 2581SOL    HW210090   5.431   5.913   3.495 -0.6879 -0.7039  1.1544
 2581SOL    HW310091   5.463   5.964   3.634 -0.1866  1.4550  0.2860
 2581SOL    MW410092   5.462   5.975   3.547 -0.1545 -0.2371 -0.2561
 2582SOL     OW10093   1.473   6.220   6.130 -0.3701  0.4439  0.9474
 2582SOL    HW210094   1.520   6.138   6.142  1.7994  1.5340  0.4408
 2582SOL    HW310095   1.384   6.194   6.108  0.7000 -1.8260 -1.1034
 2582SOL    MW410096   1.467   6.206   6.129 -0.0176  0.5405  0.5621
 2583SOL     OW10097   5.639   4.749   0.664  0.1258 -0.2995  0.5741
 2583SOL    HW210098   5.592   4.684   0.612 -0.6599  1.4069 -1.0101
 2583SOL    HW310099   5.731   4.740   0.637 -0.2694  0.5849 -1.2673
 2583SOL    MW410100   5.645   4.740   0.653 -0.2530 -0.6205 -0.3698
 2584SOL     OW10101   3.150   2.100   4.937  0.1657  0.1174 -0.6312
 2584SOL    HW210102   3.244   2.111   4.952 -0.0695  1.7696 -0.1959
 2584SOL    HW310103   3.136   2.132   4.848 -0.0749  0.3958 -0.4922
 2584SOL    MW410104   3.161   2.106   4.927  0.5836 -0.0947 -1.1374
 2585SOL     OW10105   3.545   2.425   1.733 -0.3250  0.1310  0.3897
 2585SOL    HW210106   3.546   2.365   1.659 -0.6766  2.6440 -1.7685
 2585SOL    HW310107   3.490   2.498   1.705  0.2370  1.5932  2.7918
 2585SOL    MW410108   3.538   2.427   1.720 -0.5195 -0.5270 -0.1902
 2586SOL     OW10109   3.495   1.966   4.442 -0.1125 -0.2098  1.0084
 2586SOL    HW210110   3.547   1.988   4.364 -0.7894 -0.0676  0.5835
 2586SOL    HW310111   3.415   1.927   4.407 -1.3650  1.7320  1.5064
 2586SOL    MW410112   3.491   1.964   4.427 -0.3585  0.3061  0.8242
 2587SOL     OW10113   3.473   2.214   0.188 -0.4815  0.1829 -0.2704
 2587SOL    HW210114   3.432   2.297   0.212  0.5944  0.4826  0.5918
 2587SOL    HW310115   3.433   2.150   0.248  0.6375  0.5619  0.9183
 2587SOL    MW410116   3.462   2.216   0.199  0.3853 -0.4174 -0.2920
 2588SOL     OW10117   0.257   2.698   5.234 -0.0269 -0.7554 -0.3403
 2588SOL    HW210118   0.193   2.739   5.176 -0.2241 -0.7220 -0.1009
 2588SOL    HW310119   0.210   2.685   5.316 -0.9497 -4.0945 -1.2163
 2588SOL    MW410120   0.242   2.702   5.237  0.0556 -0.2806 -0.1672
 2589SOL     OW10121   4.733   3.519   4.806  0.1084 -0.5816 -0.4384
 2589SOL    HW210122   4.704   3.584   4.742  1.1406 -2.7704 -3.3357
 2589SOL    HW310123   4.655   3.503   4.860 -0.5148  2.0882 -0.3897
 2589SOL    MW410124   4.719   3.525   4.805 -1.2699 -0.4249  0.3736
 2590SOL     OW10125   2.639   1.267   3.100  0.1406  0.4564 -0.1575
 2590SOL    HW210126   2.579   1.309   3.161 -0.1591 -0.9932  0.5771
 2590SOL    HW310127   2.702   1.222   3.155 -0.6355 -1.6020 -0.8572
 2590SOL    MW410128   2.639   1.266   3.115 -0.4832 -0.6403  0.2453
 2591SOL     OW10129   4.963   3.180   6.290 -0.1609  0.0267 -0.1655
 2591SOL    HW210130   5.038   3.144   6.243 -0.7571  0.8144 -1.7716
 2591SOL    HW310131   5.003   3.240   6.353  0.7325 -2.1113  1.4454
 2591SOL    MW410132   4.978   3.183   6.292 -0.5053 -0.4604  0.0354
 2592SOL     OW10133   0.724   1.465   5.570 -0.2789 -0.1558  0.2842
 2592SOL    HW210134   0.697   1.554   5.548  0.6210 -0.0982 -0.7204
 2592SOL    HW310135   0.791   1.476   5.637  0.3874 -0.0099 -0.3907
 2592SOL    MW410136   0.729   1.478   5.576 -0.0412 -0.5596 -0.0973
 2593SOL     OW10137   0.757   0.150   2.331  1.1426  0.5375 -0.6797
 2593SOL    HW210138   0.796   0.136   2.245  2.5193 -0.8014  0.1093
 2593SOL    HW310139   0.830   0.174   2.387  0.0637  2.7966 -0.1275
 2593SOL    MW410140   0.772   0.151   2.327 -0.4317  0.1888  0.4505
 2594SOL     OW10141   2.012   0.937   0.699 -0.3336 -0.1453 -0.5625
 2594SOL    HW210142   2.049   0.879   0.632 -1.1186  1.4133 -2.4345
 2594SOL    HW310143   1.921   0.950   0.673 -0.7001  0.4390  0.8935
 2594SOL    MW410144   2.005   0.931   0.687  0.2398 -0.3409  0.0971
 2595SOL     OW10145   3.095   0.682   5.029 -0.1682  0.4267 -1.0123
 2595SOL    HW210146   3.046   0.758   5.061  1.6462  1.7551 -1.1601
 2595SOL    HW310147   3.125   0.638   5.109  0.2736  0.9418 -0.8787
 2595SOL    MW410148   3.093   0.687   5.044  0.6929  0.3608 -0.3494
 2596SOL     OW10149   5.372   6.198   5.680  0.1107 -0.2120  0.1913
 2596SOL    HW210150   5.294   6.221   5.630 -0.0557  1.8239  1.2910
 2596SOL    HW310151   5.396   6.111   5.648 -1.3077  0.0423 -1.7467
 2596SOL    MW410152   5.365   6.190   5.669  0.5045 -0.1781  0.0237
 2597SOL     OW10153   4.671   3.184   4.057 -0.2541 -0.1601  0.2396
 2597SOL    HW210154   4.651   3.245   3.986 -0.3587 -1.8684 -1.2592
 2597SOL    HW310155   4.766   3.185   4.063 -0.1807 -0.7402 -0.6348
 2597SOL    MW410156   4.681   3.192   4.049 -0.2231  0.2348 -0.6145
 2598SOL     OW10157   0.466   0.165   0.437 -0.4151  0.4966  0.7712
 2598SOL    HW210158   0.558   0.191   0.438 -0.3402  2.0684 -5.2337
 2598SOL    HW310159   0.419   0.242   0.470  0.3205  0.4538  1.9705
 2598SOL    MW410160   0.472   0.179   0.441  0.1694 -0.5107  0.1709
 2599SOL     OW10161   3.606   1.296   3.616 -0.5969 -0.0078 -0.5444
 2599SOL    HW210162   3.671   1.353   3.576 -0.9406  2.5958  2.1910
 2599SOL    HW310163   3.527   1.308   3.563 -0.3161  1.1724 -0.7283
 2599SOL    MW410164   3.604   1.306   3.604  0.0148 -0.4366 -0.1080
 2600SOL     OW10165   0.725   3.176   1.018  0.3032  0.0899 -0.2140
 2600SOL    HW210166   0.729   3.081   1.016  2.7010  0.1213 -0.4674
 2600SOL    HW310167   0.632   3.197   1.021 -0.2640 -2.2488  0.0150
 2600SOL    MW410168   0.714   3.166   1.018  0.0541  0.6679 -0.2058
 2601SOL     OW10169   0.386   3.053   3.051  0.0341 -0.1494  0.1430
 2601SOL    HW210170   0.325   3.052   2.977 -0.7990  1.0331  0.7910
 2601SOL    HW310171   0.381   2.965   3.088 -2.8290  0.4534  1.3966
 2601SOL    MW410172   0.377   3.042   3.046 -0.0801  0.1609 -0.1390
 2602SOL     OW10173   5.261   2.315   5.301 -0.3840 -0.5624 -0.0427
 2602SOL    HW210174   5.323   2.282   5.366 -0.7708  2.7571  2.2927
 2602SOL    HW310175   5.316   2.338   5.226  0.8923 -0.0949  0.9781
 2602SOL    MW410176   5.277   2.314   5.300  0.2831 -0.1198  0.4531
 2603SOL     OW10177   6.417   1.112   4.726  0.3577 -0.4531 -0.9686
 2603SOL    HW210178   6.487   1.061   4.686  0.2811 -0.1469 -1.5073
 2603SOL    HW310179   6.405   1.186   4.667 -2.4328 -1.9897 -2.5426
 2603SOL    MW410180   6.425   1.115   4.713  0.0100  0.5245 -0.1297
 2604SOL     OW10181   2.444   0.562   0.613 -0.4069  0.4770  0.2007
 2604SOL    HW210182   2.375   0.496   0.607 -0.9264  0.9657  0.7210
 2604SOL    HW310183   2.515   0.527   0.560 -0.7329 -0.4314  0.3478
 2604SOL    MW410184   2.444   0.549   0.605 -0.2972 -0.0190 -0.5139
 2605SOL     OW10185   0.560   2.942   1.817 -0.0327 -0.9962  0.5750
 2605SOL    HW210186   0.516   2.940   1.902  1.9157  0.4342  1.7024
 2605SOL    HW310187   0.579   3.034   1.802 -0.9676 -1.1092 -1.8397
 2605SOL    MW410188   0.556   2.954   1.826 -0.0346  0.4591  0.3162
 2606SOL     OW10189   3.988   0.695   0.918  0.3948 -0.1985 -0.0070
 2606SOL    HW210190   3.967   0.782   0.884 -1.0613  0.5217  2.4442
 2606SOL    HW310191   4.076   0.705   0.956 -0.0099  0.4244  0.8078
 2606SOL    MW410192   3.997   0.708   0.918  0.1349  0.0642 -0.7102
 2607SOL     OW10193   2.036   0.917   2.988 -0.0984  0.5223 -0.3577
 2607SOL    HW210194   2.008   0.983   2.925  0.0339 -0.3156 -1.3190
 2607SOL    HW310195   2.034   0.961   3.072 -0.2636  1.6732 -0.9547
 2607SOL    MW410196   2.032   0.931   2.991 -0.3270 -0.2448 -0.7740
 2608SOL     OW10197   4.923   0.714   4.604 -0.3517  0.0342 -0.2511
 2608SOL    HW210198   4.976   0.650   4.652  0.6238  0.2556 -1.0162
 2608SOL    HW310199   4.947   0.798   4.642 -0.4352  0.0992 -0.3424
 2608SOL    MW410200   4.933   0.716   4.615  0.4622 -0.4462 -0.3112
 2609SOL     OW10201   5.512   0.982   0.961 -0.4949  0.0543  0.1374
 2609SOL    HW210202   5.569   0.963   0.886 -0.7652 -0.6401  0.0969
 2609SOL    HW310203   5.529   1.074   0.981  1.4237 -0.3977  0.8080
 2609SOL    MW410204   5.522   0.992   0.953 -0.3265 -0.0527  0.0853
 2610SOL     OW10205   3.117   5.070   2.495 -0.3607 -0.8087 -0.5070
 2610SOL    HW210206   3.109   5.135   2.426  0.8347 -1.5712 -1.3987
 2610SOL    HW310207   3.206   5.081   2.528 -0.1460 -1.9566 -0.6599
 2610SOL    MW410208   3.128   5.080   2.490 -0.1159  0.3515 -0.2640
 2611SOL     OW10209   4.382   0.633   6.231  0.8603  0.2316 -0.4657
 2611SOL    HW210210   4.337   0.715   6.212 -0.7064 -0.2194  1.0451
 2611SOL    HW310211   4.445   0.655   6.300  1.5841  0.4662 -1.1903
 2611SOL    MW410212   4.385   0.647   6.238 -0.3116  0.4552 -0.6920
 2612SOL     OW10213   1.593   2.246   1.544 -0.1428 -0.8568  0.0850
 2612SOL    HW210214   1.681   2.281   1.529 -0.0265 -1.7783 -1.6472
 2612SOL    HW310215   1.607   2.164   1.591  0.1605 -2.1541 -2.1255
 2612SOL    MW410216   1.606   2.240   1.548 -0.0185 -0.1482 -0.5184
 2613SOL     OW10217   3.518   2.379   5.295  0.0844 -0.3368  0.3459
 2613SOL    HW210218   3.471   2.444   5.347 -0.5390 -0.1313 -0.4661
 2613SOL    HW310219   3.451   2.316   5.268  0.7378 -1.5628  1.4499
 2613SOL    MW410220   3.503   2.379   5.299  0.4698  0.0970  0.2007
 2614SOL     OW10221   4.830   6.294   5.055  0.4964  0.3085 -0.2386
 2614SOL    HW210222   4.790   6.219   5.011 -1.2087  0.8707  0.2512
 2614SOL    HW310223   4.924   6.277   5.051  0.5113  0.2743 -4.0182
 2614SOL    MW410224   4.837   6.282   5.048  0.6933  0.4381  0.4558
 2615SOL     OW10225   5.778   3.281   6.048 -0.5274 -0.2256 -0.1224
 2615SOL    HW210226   5.784   3.376   6.060  0.6671 -0.1689 -0.9546
 2615SOL    HW310227   5.833   3.263   5.972 -1.4466 -1.4928 -0.5275
 2615SOL    MW410228   5.786   3.291   6.040 -0.1999 -0.2868 -0.4989
 2616SOL     OW10229   5.827   5.693   0.859  0.1825 -0.0249 -0.3816
 2616SOL    HW210230   5.841   5.617   0.916 -0.2524  1.3292  1.6180
 2616SOL    HW310231   5.907   5.745   0.868 -0.5268  0.9876  0.3073
 2616SOL    MW410232   5.840   5.690   0.868 -0.6141  0.1793  0.0835
 2617SOL     OW10233   0.642   0.918   5.298  0.2925  0.7700 -0.2135
 2617SOL    HW210234   0.619   1.008   5.321  0.8626  1.1473 -1.0645
 2617SOL    HW310235   0.567   0.886   5.248  0.6033  1.2059 -0.9798
 2617SOL    MW410236   0.629   0.926   5.294  0.1276 -0.1144  0.1694
 2618SOL     OW10237   3.295   4.991   5.355  0.1975 -0.2471 -0.2133
 2618SOL    HW210238   3.238   4.950   5.290  0.4892  0.5407 -1.0005
 2618SOL    HW310239   3.271   5.084   5.352  0.1739 -0.2111  0.8624
 2618SOL    MW410240   3.284   4.998   5.346 -0.0740  0.0429  0.0366
 2619SOL     OW10241   5.910   4.473   4.474 -0.0862  0.5552  0.4234
 2619SOL    HW210242   5.953   4.519   4.403  0.9346 -0.3833  0.4084
 2619SOL    HW310243   5.823   4.514   4.480  0.5778  2.0865  0.0717
 2619SOL    MW410244   5.904   4.485   4.466 -0.3512 -0.8621  0.0594
 2620SOL     OW10245   2.968   2.726   6.015  0.0433  0.1741 -0.0929
 2620SOL    HW210246   2.998   2.803   5.968  0.9460 -0.7804 -1.1506
 2620SOL    HW310247   3.000   2.738   6.104  1.4085  0.3734 -0.5914
 2620SOL    MW410248   2.976   2.738   6.021 -0.3029 -0.0637 -0.4589
 2621SOL     OW10249   5.466   4.549   0.524 -0.3896  0.2585  0.1864
 2621SOL    HW210250   5.465   4.467   0.574  1.9249 -0.6488 -1.1155
 2621SOL    HW310251   5.427   4.526   0.440 -0.7770  0.7983  0.2149
 2621SOL    MW410252   5.461   4.535   0.519 -0.2358 -0.3139  0.1842
 2622SOL     OW10253   1.480   5.680   1.298  0.0886 -0.3969  0.2320
 2622SOL    HW210254   1.506   5.692   1.390  1.8592 -1.9119 -0.0239
 2622SOL    HW310255   1.515   5.595   1.274  0.1053  0.1852 -2.0230
 2622SOL    MW410256   1.488   5.671   1.307  0.3104  0.1031 -0.5378
 2623SOL     OW10257   2.936   0.761   0.546  0.5992  0.1876  0.2188
 2623SOL    HW210258   2.902   0.797   0.628  0.2715  0.1559  0.0979
 2623SOL    HW310259   3.024   0.730   0.568  0.0702 -0.9088  0.8514
 2623SOL    MW410260   2.943   0.762   0.560  0.4637  0.7191 -0.6070
 2624SOL     OW10261   6.258   5.525   3.451  0.0435 -0.1965 -0.1347
 2624SOL    HW210262   6.180   5.544   3.399 -0.7474 -1.7135  0.4262
 2624SOL    HW310263   6.324   5.498   3.386 -0.9222 -2.0484 -0.4145
 2624SOL    MW410264   6.256   5.524   3.435 -0.2538  0.0446  1.3822
 2625SOL     OW10265   1.408   3.511   3.107 -0.0193  0.2563  0.5891
 2625SOL    HW210266   1.404   3.560   3.190  2.3616 -0.0034  0.9298
 2625SOL    HW310267   1.321   3.520   3.070 -0.7583  1.5492  2.4707
 2625SOL    MW410268   1.396   3.518   3.113  0.2348 -0.0816 -0.5896
 2626SOL     OW10269   2.262   3.195   1.868  0.1968  0.2999 -0.0495
 2626SOL    HW210270   2.302   3.110   1.852 -0.0047 -0.0204  1.0403
 2626SOL    HW310271   2.329   3.259   1.845  0.8422 -0.1985  0.4223
 2626SOL    MW410272   2.276   3.192   1.863  0.1710 -0.4723 -0.2351
 2627SOL     OW10273   2.403   6.225   4.824 -0.5453  0.3516  0.5095
 2627SOL    HW210274   2.364   6.170   4.756  1.4906 -0.3892 -0.1274
 2627SOL    HW310275   2.425   6.164   4.894  1.6513  0.2998 -0.1654
 2627SOL    MW410276   2.400   6.209   4.824 -0.4073 -0.5106 -0.5920
 2628SOL     OW10277   5.745   4.673   5.794  0.1566  0.5769 -0.5326
 2628SOL    HW210278   5.805   4.703   5.726  0.8574 -1.6621 -0.9797
 2628SOL    HW310279   5.789   4.694   5.876  0.8350  0.3647 -0.8371
 2628SOL    MW410280   5.759   4.680   5.796  0.2773  0.1916 -0.1585
 2629SOL     OW10281   0.594   2.700   6.320  0.5188  0.5333  0.1614
 2629SOL    HW210282   0.649   2.642   6.267  0.0348  0.5296 -0.3434
 2629SOL    HW310283   0.656   2.746   6.376  0.8129 -1.7492  1.8829
 2629SOL    MW410284   0.609   2.698   6.320  0.5517  0.0535 -0.7541
 2630SOL     OW10285   3.848   1.336   6.339 -0.5557 -0.0547 -0.2579
 2630SOL    HW210286   3.766   1.385   6.335 -1.0694 -0.8304  0.2637
 2630SOL    HW310287   3.891   1.353   6.256 -1.4676  0.0081 -0.7324
 2630SOL    MW410288   3.843   1.344   6.328 -0.1675 -0.2348  0.0566
 2631SOL     OW10289   4.828   6.234   0.174  0.7179  0.7045 -0.2738
 2631SOL    HW210290   4.829   6.320   0.215  0.9977  1.1030 -1.0852
 2631SOL    HW310291   4.897   6.184   0.218  0.5811  0.9085  0.1709
 2631SOL    MW410292   4.837   6.238   0.185 -0.4760  0.3678  0.2930
 2632SOL     OW10293   2.538   3.810   3.221  0.4854  0.3862  0.1381
 2632SOL    HW210294   2.492   3.885   3.258 -2.0510 -0.2105 -1.5325
 2632SOL    HW310295   2.521   3.739   3.283 -0.3559  0.3103 -0.1766
 2632SOL    MW410296   2.530   3.810   3.234 -0.5105  0.5549 -0.3644
 2633SOL     OW10297   1.017   4.499   4.927 -0.1151  0.1040  0.2190
 2633SOL    HW210298   1.087   4.564   4.918  0.5837 -0.6459  0.1646
 2633SOL    HW310299   0.938   4.552   4.939  0.2849  0.9868 -0.8555
 2633SOL    MW410300   1.016   4.515   4.928 -0.1532 -0.0072 -0.0448
 2634SOL     OW10301   6.209   0.605   0.179  0.0619  0.1771 -0.4376
 2634SOL    HW210302   6.143   0.587   0.246 -0.7644  0.4218 -1.1609
 2634SOL    HW310303   6.233   0.696   0.193 -0.3521  0.3258 -0.6631
 2634SOL    MW410304   6.203   0.615   0.189 -0.7480  0.7898  0.3371
 2635SOL     OW10305   3.570   0.502   2.186  0.7060  0.2496  0.0944
 2635SOL    HW210306   3.650   0.453   2.206  0.2011  0.2057  2.2224
 2635SOL    HW310307   3.504   0.434   2.174  0.9339  0.2880 -1.6324
 2635SOL    MW410308   3.572   0.486   2.187  0.1705 -0.4119 -0.4296
 2636SOL     OW10309   1.107   0.606   1.317 -0.1686  1.0386  0.2007
 2636SOL    HW210310   1.013   0.615   1.330 -0.6005 -1.0391 -1.1350
 2636SOL    HW310311   1.128   0.519   1.350  0.8819  0.6303 -1.4203
 2636SOL    MW410312   1.098   0.596   1.323 -0.6049  0.8122  0.0438
 2637SOL     OW10313   4.930   3.387   4.450  0.6647  0.1954  0.5315
 2637SOL    HW210314   4.840   3.358   4.435  0.8191  0.4992 -1.1654
 2637SOL    HW310315   4.969   3.318   4.504 -0.2301 -0.5895  0.1974
 2637SOL    MW410316   4.924   3.374   4.455 -0.0896  1.0154  0.1313
 2638SOL     OW10317   0.612   1.341   6.271 -0.7219  0.2598  0.0800
 2638SOL    HW210318   0.640   1.277   6.205 -1.7688 -1.1017  0.8896
 2638SOL    HW310319   0.635   1.426   6.234  1.2457 -0.5969 -0.7941
 2638SOL    MW410320   0.619   1.343   6.257  0.2237  0.4102  0.7751
 2639SOL     OW10321   0.686   2.833   3.314 -0.3285  0.1692  0.2066
 2639SOL    HW210322   0.728   2.917   3.332 -1.9169  0.9009  0.7169
 2639SOL    HW310323   0.720   2.774   3.382  0.9931  0.3072 -0.3113
 2639SOL    MW410324   0.696   2.836   3.325 -0.7271  0.3122  0.2119
 2640SOL     OW10325   2.345   1.946   1.159  0.3579 -0.4113  0.2297
 2640SOL    HW210326   2.276   1.880   1.162 -0.0695  0.0475  0.6438
 2640SOL    HW310327   2.310   2.017   1.105 -0.4822  0.8830  2.3529
 2640SOL    MW410328   2.331   1.947   1.153 -0.2728 -0.0679 -0.3631
 2641SOL     OW10329   0.180   0.776   3.980 -0.0136 -0.1172 -0.0886
 2641SOL    HW210330   0.116   0.845   3.963  0.5230  0.8350  1.5637
 2641SOL    HW310331   0.248   0.791   3.915 -1.4565 -1.2102 -1.9449
 2641SOL    MW410332   0.180   0.787   3.969  0.2985 -0.5982  0.0357
 2642SOL     OW10333   2.360   4.224   5.852  0.1994 -0.4484 -0.1382
 2642SOL    HW210334   2.435   4.238   5.908  0.4834  1.0045 -0.8380
 2642SOL    HW310335   2.397   4.191   5.770  0.2818  1.6711 -1.0123
 2642SOL    MW410336   2.375   4.221   5.848  0.0278 -1.0620 -0.4065
 2643SOL     OW10337   3.287   5.417   2.793 -0.0777 -0.0915 -0.0679
 2643SOL    HW210338   3.221   5.349   2.805  0.8298 -1.0159 -0.1598
 2643SOL    HW310339   3.237   5.497   2.777 -1.3055 -0.0058  3.2764
 2643SOL    MW410340   3.271   5.419   2.793 -0.3502 -0.5085  0.2595
 2644SOL     OW10341   3.848   4.763   0.310 -0.4991 -0.6896 -0.1273
 2644SOL    HW210342   3.788   4.834   0.285  0.2300 -0.0404 -0.0738
 2644SOL    HW310343   3.935   4.802   0.304  0.1440 -2.2449 -2.4839
 2644SOL    MW410344   3.852   4.778   0.306  0.1958 -0.0565 -0.2312
 2645SOL     OW10345   4.434   0.589   5.383 -0.1790  0.1427 -0.5083
 2645SOL    HW210346   4.516   0.540   5.375  0.1183  0.6051 -0.3415
 2645SOL    HW310347   4.444   0.641   5.463 -0.2377  0.9353 -0.9985
 2645SOL    MW410348   4.446   0.590   5.393 -0.0108  0.1127 -0.0073
 2646SOL     OW10349   3.510   4.146   1.011  0.0929  0.2147  0.3326
 2646SOL    HW210350   3.518   4.108   0.924 -1.1888  2.0665 -0.6652
 2646SOL    HW310351   3.599   4.147   1.046  0.3620 -2.2568 -0.1578
 2646SOL    MW410352   3.522   4.141   1.004  0.1233  0.3676 -0.5354
 2647SOL     OW10353   2.057   1.562   3.678 -0.2610  0.4941 -0.5664
 2647SOL    HW210354   2.073   1.575   3.585  0.6889  0.7599 -0.3730
 2647SOL    HW310355   1.984   1.621   3.698  0.7017  1.7896 -0.7705
 2647SOL    MW410356   2.049   1.572   3.669  0.8603 -0.0911 -0.3094
 2648SOL     OW10357   0.625   0.681   4.008  0.2238 -0.2832  0.1773
 2648SOL    HW210358   0.584   0.596   3.989  2.0850 -1.1391 -0.1830
 2648SOL    HW310359   0.603   0.697   4.100 -0.1402 -1.1703  0.2622
 2648SOL    MW410360   0.617   0.672   4.018 -0.8180  0.1299  0.4014
 2649SOL     OW10361   5.934   2.847   6.061  0.3911  0.2179  0.7813
 2649SOL    HW210362   5.981   2.859   5.978  2.0773  0.0410  1.6663
 2649SOL    HW310363   5.842   2.858   6.038  0.8486  0.6256 -1.0310
 2649SOL    MW410364   5.928   2.850   6.047 -0.2680  0.3899  0.3048
 2650SOL     OW10365   0.258   5.247   2.693 -0.2605  0.4000  0.1225
 2650SOL    HW210366   0.248   5.243   2.598 -0.2026 -0.7291  0.1509
 2650SOL    HW310367   0.183   5.299   2.723  0.1751  1.4738 -0.5932
 2650SOL    MW410368   0.247   5.253   2.685 -0.0103 -0.1226  0.1581
 2651SOL     OW10369   5.300   0.144   0.022 -0.2551 -0.3434 -0.1396
 2651SOL    HW210370   5.242   0.071   0.001 -0.1347 -0.3332 -0.5141
 2651SOL    HW310371   5.315   0.136   0.117 -1.6439  0.2271  0.1522
 2651SOL    MW410372   5.294   0.133   0.032 -0.6191  0.4041  0.4826
 2652SOL     OW10373   0.374   0.081   4.260 -0.3754 -0.2294 -0.4784
 2652SOL    HW210374   0.445   0.055   4.202  0.6636 -0.1403  0.7212
 2652SOL    HW310375   0.332  -0.001   4.286 -0.1919 -0.3418 -0.5395
 2652SOL    MW410376   0.378   0.067   4.256  0.4072 -0.0505  0.6201
 2653SOL     OW10377   0.277   0.381   3.861 -0.3275  0.0697  0.3091
 2653SOL    HW210378   0.230   0.374   3.944 -0.9482 -0.5197 -0.0835
 2653SOL    HW310379   0.248   0.306   3.810  0.0218  0.4417 -0.4621
 2653SOL    MW410380   0.267   0.370   3.865  0.1842 -0.4345  0.1014
 2654SOL     OW10381   1.107   5.993   4.132  0.2442 -0.9384 -0.0872
 2654SOL    HW210382   1.083   5.963   4.044 -0.0506 -1.1774  0.0742
 2654SOL    HW310383   1.100   6.088   4.127  0.5958 -0.9250 -0.4289
 2654SOL    MW410384   1.103   6.001   4.119 -0.1261 -0.5689 -0.3101
 2655SOL     OW10385   6.170   0.799   3.104 -0.3014  0.4103 -0.3560
 2655SOL    HW210386   6.104   0.806   3.173  1.4154  0.2156  1.3928
 2655SOL    HW310387   6.176   0.887   3.067 -0.8771  0.6488  0.1058
 2655SOL    MW410388   6.162   0.812   3.108 -0.3746  0.1841 -0.4500
 2656SOL     OW10389   1.272   0.948   6.428  0.2329 -0.5585 -0.2291
 2656SOL    HW210390   1.210   1.019   6.411 -0.4275 -1.2707 -0.8957
 2656SOL    HW310391   1.325   0.979   6.501 -1.9652 -0.5546  1.4907
 2656SOL    MW410392   1.271   0.962   6.435 -0.4421 -0.2773  0.0998
 2657SOL     OW10393   6.363   4.783   3.815 -0.2798 -0.0796  0.7526
 2657SOL    HW210394   6.361   4.761   3.908 -0.2866 -0.9101  0.5704
 2657SOL    HW310395   6.429   4.723   3.779  0.4851  0.9495  0.3962
 2657SOL    MW410396   6.372   4.772   3.822  0.3626 -0.1142  0.4425
 2658SOL     OW10397   0.680   2.268   3.775  0.1663  0.2310 -0.5079
 2658SOL    HW210398   0.614   2.221   3.724 -0.8137  0.1869  0.7394
 2658SOL    HW310399   0.651   2.359   3.773 -0.4184  0.0915  0.7167
 2658SOL    MW410400   0.667   2.274   3.768  0.0780 -1.1264 -0.1097
 2659SOL     OW10401   2.835   3.588   5.105 -0.3333 -0.0802  0.1290
 2659SOL    HW210402   2.744   3.582   5.131 -0.5246  0.4912 -0.3719
 2659SOL    HW310403   2.835   3.648   5.030  0.4214 -0.2415 -0.0153
 2659SOL    MW410404   2.823   3.595   5.099  0.3086  0.2561 -0.1780
 2660SOL     OW10405   4.758   5.239   4.886  0.1103 -0.2412  0.0162
 2660SOL    HW210406   4.848   5.236   4.920  0.1588  2.1598  0.3118
 2660SOL    HW310407   4.719   5.314   4.931 -1.3862  0.0133 -1.6240
 2660SOL    MW410408   4.765   5.248   4.897  0.0748  0.1653  0.3171
 2661SOL     OW10409   5.455   5.916   3.805  0.3689 -0.0401 -0.4231
 2661SOL    HW210410   5.395   5.845   3.828  1.2968 -1.0648 -1.1015
 2661SOL    HW310411   5.538   5.873   3.787  0.7561  1.1438 -1.6004
 2661SOL    MW410412   5.458   5.901   3.806  0.0034  0.4195 -0.5841
 2662SOL     OW10413   4.602   2.934   4.724 -0.2569 -0.4039 -0.1368
 2662SOL    HW210414   4.521   2.980   4.745 -1.2057 -2.6323  1.6045
 2662SOL    HW310415   4.592   2.908   4.633 -0.5677  1.0984 -0.5473
 2662SOL    MW410416   4.590   2.937   4.715  0.2969  0.3855 -0.3348
 2663SOL     OW10417   3.139   1.024   4.348 -0.3080  0.2235  0.1284
 2663SOL    HW210418   3.164   0.932   4.335  0.1575  0.2761  0.6036
 2663SOL    HW310419   3.156   1.065   4.263 -0.1116 -0.0413  0.0372
 2663SOL    MW410420   3.145   1.017   4.335  0.3254 -0.7150  0.5304
 2664SOL     OW10421   5.298   1.097   0.703 -0.1154 -0.1514 -0.5273
 2664SOL    HW210422   5.217   1.046   0.711 -0.9599  0.9648 -1.6262
 2664SOL    HW310423   5.290   1.164   0.771 -0.2019  0.0846 -0.7727
 2664SOL    MW410424   5.286   1.099   0.713 -0.2188  0.1023 -0.1901
 2665SOL     OW10425   0.567   2.982   6.122  0.3730 -0.1857 -0.2059
 2665SOL    HW210426   0.572   2.888   6.105 -0.0952 -0.3109  0.3371
 2665SOL    HW310427   0.574   3.022   6.035  0.0146 -0.7381 -0.4957
 2665SOL    MW410428   0.569   2.975   6.108 -0.0395  0.3242 -0.5224
 2666SOL     OW10429   2.520   1.437   0.756 -0.0886  0.2512  0.7994
 2666SOL    HW210430   2.589   1.482   0.805  0.9275 -1.5014  1.0632
 2666SOL    HW310431   2.502   1.494   0.682  1.6678  0.7669  0.7214
 2666SOL    MW410432   2.527   1.450   0.753 -0.7671 -0.0894 -0.5102
 2667SOL     OW10433   4.220   4.825   3.747  0.0218  0.5416 -0.3789
 2667SOL    HW210434   4.164   4.808   3.823  0.4153 -0.2097 -0.2474
 2667SOL    HW310435   4.309   4.806   3.778  0.3104  1.2860 -0.7177
 2667SOL    MW410436   4.224   4.820   3.761  0.2422 -0.0970  0.4570
 2668SOL     OW10437   1.480   2.121   3.362 -0.0800  0.1131  0.1464
 2668SOL    HW210438   1.473   2.184   3.290  0.0950 -0.7614 -0.6550
 2668SOL    HW310439   1.403   2.137   3.417 -0.0270  1.0262 -0.0383
 2668SOL    MW410440   1.469   2.131   3.360  0.2733 -0.2720  0.3173
 2669SOL     OW10441   5.225   2.608   0.723  0.3895  0.0921 -0.0317
 2669SOL    HW210442   5.211   2.513   0.725 -0.7312  0.2521  0.5204
 2669SOL    HW310443   5.194   2.639   0.808  0.4922  0.9923 -0.3089
 2669SOL    MW410444   5.219   2.599   0.734  0.2701  0.4139 -0.2671
 2670SOL     OW10445   3.158   3.009   0.179  0.2090 -0.4752 -0.1825
 2670SOL    HW210446   3.198   2.952   0.244 -0.1292  1.4448  1.8291
 2670SOL    HW310447   3.082   3.047   0.223 -1.6598 -1.1420 -2.6396
 2670SOL    MW410448   3.153   3.007   0.193  0.3109 -1.0392  0.0795
 2671SOL     OW10449   1.686   2.136   5.775 -0.0524 -0.0894 -0.7862
 2671SOL    HW210450   1.648   2.222   5.753  0.7911  0.4142 -0.3344
 2671SOL    HW310451   1.745   2.155   5.849 -0.3164 -1.1666 -0.2844
 2671SOL    MW410452   1.689   2.150   5.782 -0.2834 -0.8856  0.0495
 2672SOL     OW10453   6.020   2.363   5.554  0.2856 -0.7528 -0.7613
 2672SOL    HW210454   5.953   2.312   5.509 -1.0885 -0.1575  0.5354
 2672SOL    HW310455   5.982   2.450   5.564  1.1894 -0.4406  0.1429
 2672SOL    MW410456   6.006   2.368   5.550 -0.1660 -0.0169 -0.3206
 2673SOL     OW10457   3.739   5.054   1.740  0.0612  0.1344 -0.1501
 2673SOL    HW210458   3.750   4.981   1.800  1.2015  0.0987 -0.3799
 2673SOL    HW310459   3.822   5.101   1.744 -0.9907  2.0213  0.7603
 2673SOL    MW410460   3.751   5.051   1.748  0.1089  0.1939 -0.2581
 2674SOL     OW10461   3.098   4.600   1.094  0.0091 -0.1234  0.1215
 2674SOL    HW210462   3.085   4.505   1.101  0.9289 -0.2075  0.9213
 2674SOL    HW310463   3.118   4.614   1.001  2.7791 -1.1492  0.4731
 2674SOL    MW410464   3.099   4.589   1.082  0.0446  0.3597  0.0389
 2675SOL     OW10465   0.921   0.335   5.533  0.0080 -0.1633  0.1386
 2675SOL    HW210466   0.928   0.429   5.519 -0.5744  0.0647  1.2401
 2675SOL    HW310467   1.002   0.312   5.578  0.7347 -0.4379 -1.2708
 2675SOL    MW410468   0.932   0.344   5.537 -0.0176  0.0608 -0.6327
 2676SOL     OW10469   5.014   0.079   4.525 -0.1092  0.2393 -0.0274
 2676SOL    HW210470   5.095   0.065   4.573 -0.2274 -0.0508  0.0955
 2676SOL    HW310471   5.008   0.004   4.466  1.0470  1.5924 -1.9701
 2676SOL    MW410472   5.024   0.067   4.524 -0.2063 -0.4042  0.2169
 2677SOL     OW10473   5.415   3.190   3.947 -0.2074  0.0443 -0.3240
 2677SOL    HW210474   5.455   3.148   4.023 -1.4514 -1.2748 -0.3717
 2677SOL    HW310475   5.490   3.221   3.896  0.6671  0.5085  1.1552
 2677SOL    MW410476   5.430   3.189   3.950 -0.4447  0.5605 -0.4091
 2678SOL     OW10477   5.813   2.430   0.432  0.6172 -0.6781  0.1310
 2678SOL    HW210478   5.852   2.468   0.511  0.8818 -0.4228 -0.1243
 2678SOL    HW310479   5.884   2.381   0.391  0.9305  0.5555 -0.8346
 2678SOL    MW410480   5.827   2.428   0.437  0.2931  0.0532  0.0210
 2679SOL     OW10481   3.860   0.517   4.186 -0.4096 -0.2845  0.0292
 2679SOL    HW210482   3.804   0.583   4.226  3.3115  1.9105  2.1970
 2679SOL    HW310483   3.872   0.451   4.255  1.6879  0.6937  0.6858
 2679SOL    MW410484   3.854   0.517   4.200 -0.5629 -0.0321 -0.4762
 2680SOL     OW10485   4.339   0.070   4.451  0.1340 -0.3086 -0.3571
 2680SOL    HW210486   4.414   0.092   4.506  2.2178 -3.0985 -1.8362
 2680SOL    HW310487   4.329   0.146   4.393  2.8714 -0.4933 -1.1599
 2680SOL    MW410488   4.347   0.083   4.451  0.2447  0.0416  0.7094
 2681SOL     OW10489   6.163   2.543   3.581  0.1808  0.2030 -0.1965
 2681SOL    HW210490   6.198   2.519   3.667  0.9210  1.3639 -0.1508
 2681SOL    HW310491   6.164   2.461   3.531  2.2859  0.0287  0.0505
 2681SOL    MW410492   6.167   2.529   3.586 -0.4776  0.0889 -0.2451
 2682SOL     OW10493   0.304   2.327   4.737  0.0658  0.1687 -0.4732
 2682SOL    HW210494   0.356   2.300   4.812 -0.3135 -1.0767 -0.6338
 2682SOL    HW310495   0.275   2.416   4.759  0.1770 -0.0709  0.7355
 2682SOL    MW410496   0.307   2.335   4.750  0.5908  0.1924  0.2706
 2683SOL     OW10497   4.641   1.099   2.216 -0.0982 -0.1809  0.3592
 2683SOL    HW210498   4.676   1.010   2.209  0.0681 -0.0041 -1.4762
 2683SOL    HW310499   4.649   1.136   2.128  0.5813  1.9576  1.2468
 2683SOL    MW410500   4.647   1.092   2.204 -0.0028 -0.8407  0.0425
 2684SOL     OW10501   3.653   6.062   4.116 -0.5286 -0.1577 -0.1690
 2684SOL    HW210502   3.628   6.155   4.107 -1.1964 -0.2981  0.1562
 2684SOL    HW310503   3.621   6.037   4.202  0.1854 -0.5349 -0.0139
 2684SOL    MW410504   3.645   6.071   4.126  0.4522 -0.4111  0.6732
 2685SOL     OW10505   3.910   0.866   0.236 -0.4049  0.0273  0.1912
 2685SOL    HW210506   3.832   0.845   0.287 -0.0443 -1.2652  0.2482
 2685SOL    HW310507   3.957   0.932   0.288 -0.0306 -1.2798  1.5660
 2685SOL    MW410508   3.906   0.872   0.250  0.6441  0.5122  0.4250
 2686SOL     OW10509   0.614   3.556   3.317 -0.4243 -0.1356  0.0156
 2686SOL    HW210510   0.608   3.460   3.313  1.4162 -0.3853  1.7721
 2686SOL    HW310511   0.646   3.582   3.231 -0.6860 -1.1221 -0.3897
 2686SOL    MW410512   0.617   3.547   3.305 -0.4442 -0.2957 -0.1240
 2687SOL     OW10513   0.570   5.616   0.159 -0.0634  0.9396  0.1218
 2687SOL    HW210514   0.643   5.573   0.204  0.0426  0.3785 -0.5708
 2687SOL    HW310515   0.613   5.676   0.097 -0.1815  0.4020 -0.4857
 2687SOL    MW410516   0.585   5.618   0.156  0.4730  0.3443 -0.5145
 2688SOL     OW10517   2.810   0.434   4.446 -0.0453 -0.3118  0.1260
 2688SOL    HW210518   2.807   0.478   4.532  3.2810  2.2102 -0.8364
 2688SOL    HW310519   2.882   0.372   4.453  0.6135  0.3009 -0.9437
 2688SOL    MW410520   2.819   0.432   4.459 -0.2435 -0.2699  0.5629
 2689SOL     OW10521   4.462   3.680   1.608 -0.0924 -0.0335 -0.2203
 2689SOL    HW210522   4.468   3.766   1.649 -1.3885 -0.2855  0.5659
 2689SOL    HW310523   4.541   3.634   1.638 -0.1349  0.3840  0.5735
 2689SOL    MW410524   4.473   3.685   1.618 -0.3723 -0.1523 -0.0104
 2690SOL     OW10525   3.898   5.276   4.885  0.1065  0.2936  0.2925
 2690SOL    HW210526   3.907   5.180   4.889  1.2339  0.4003  0.5396
 2690SOL    HW310527   3.984   5.307   4.861 -0.5752  1.1944 -1.1040
 2690SOL    MW410528   3.910   5.267   4.883 -0.3660 -0.6724  0.1230
 2691SOL     OW10529   5.031   6.148   3.580 -0.0291 -0.1517  0.0728
 2691SOL    HW210530   5.015   6.090   3.655 -1.7534  0.5483  0.2847
 2691SOL    HW310531   5.114   6.191   3.601 -0.7221  0.4119  1.8429
 2691SOL    MW410532   5.040   6.146   3.593  0.3240 -0.3057  0.2281
 2692SOL     OW10533   4.471   4.904   5.725 -0.4623 -0.5408 -0.0160
 2692SOL    HW210534   4.505   4.817   5.705 -0.2649 -0.0446 -2.0351
 2692SOL    HW310535   4.376   4.892   5.732 -0.3234 -1.1319  1.1449
 2692SOL    MW410536   4.463   4.891   5.724 -0.0700 -0.4806  0.0841
 2693SOL     OW10537   3.674   0.885   5.172  0.0524 -0.2883 -0.0255
 2693SOL    HW210538   3.680   0.971   5.214 -0.9453  0.0340 -0.5110
 2693SOL    HW310539   3.760   0.872   5.132  0.2470  0.4404  0.1329
 2693SOL    MW410540   3.686   0.895   5.172 -0.6321  0.0334 -0.1924
 2694SOL     OW10541   1.240   1.856   4.904  0.2337  0.2123 -0.2189
 2694SOL    HW210542   1.334   1.851   4.884  0.7004  0.4535  1.7513
 2694SOL    HW310543   1.207   1.768   4.888  1.1742 -0.3369  0.7777
 2694SOL    MW410544   1.248   1.844   4.899 -0.3265  0.0172  0.1048
 2695SOL     OW10545   2.173   2.321   0.508  0.1831 -0.4926 -0.0169
 2695SOL    HW210546   2.151   2.242   0.457 -0.0018  1.8145 -3.9203
 2695SOL    HW310547   2.266   2.336   0.489  0.4049 -0.1078  1.2815
 2695SOL    MW410548   2.182   2.312   0.499 -0.7749 -0.1477  0.2485
 2696SOL     OW10549   0.575   4.146   1.690  0.2967 -0.2700 -0.2044
 2696SOL    HW210550   0.585   4.081   1.620 -2.0499 -2.8964  1.6635
 2696SOL    HW310551   0.516   4.211   1.653  2.2454  0.6395 -1.9277
 2696SOL    MW410552   0.568   4.146   1.676 -0.3493  0.5324  0.6178
 2697SOL     OW10553   5.042   1.320   3.794 -0.3754 -0.0415 -0.0625
 2697SOL    HW210554   5.054   1.227   3.776 -1.2413 -0.0035 -0.9341
 2697SOL    HW310555   5.034   1.326   3.889  0.4700 -0.7549  0.0578
 2697SOL    MW410556   5.042   1.309   3.804  0.1985 -0.2280  0.3673
 2698SOL     OW10557   5.385   4.438   0.928  0.3269 -0.1980  0.2210
 2698SOL    HW210558   5.317   4.404   0.986  0.5700  0.5775  0.9889
 2698SOL    HW310559   5.466   4.427   0.978  0.5106  0.7234  0.1465
 2698SOL    MW410560   5.387   4.432   0.943  0.1152 -0.0983  0.5764
 2699SOL     OW10561   3.712   2.397   5.935 -0.0905 -0.3256  0.6041
 2699SOL    HW210562   3.685   2.487   5.921 -0.2821 -0.2712  1.2655
 2699SOL    HW310563   3.785   2.383   5.875 -1.3095 -0.3480 -0.9244
 2699SOL    MW410564   3.718   2.407   5.925  0.1022  0.1386  0.2372
 2700SOL     OW10565   5.142   3.314   0.725  0.4616 -0.7301  0.1024
 2700SOL    HW210566   5.161   3.251   0.794  1.8740 -1.6829 -1.0730
 2700SOL    HW310567   5.054   3.345   0.744  0.7659 -1.0320  2.2431
 2700SOL    MW410568   5.133   3.310   0.737 -0.6975 -0.0307 -0.0300
 2701SOL     OW10569   2.655   5.456   4.619  0.0939 -0.1675  0.2020
 2701SOL    HW210570   2.595   5.526   4.593 -0.6224 -0.4150  1.1237
 2701SOL    HW310571   2.626   5.381   4.566  1.9866  0.6060 -2.1237
 2701SOL    MW410572   2.643   5.455   4.608 -0.2229 -0.7881 -0.1262
 2702SOL     OW10573   4.582   1.878   4.119 -0.1841 -0.0034 -0.2077
 2702SOL    HW210574   4.603   1.788   4.142  1.6865  0.3213 -0.5302
 2702SOL    HW310575   4.552   1.873   4.028  0.6740 -0.2284 -0.4905
 2702SOL    MW410576   4.581   1.865   4.110 -0.5111 -0.2806 -0.5061
 2703SOL     OW10577   6.225   0.257   6.407 -0.6849 -0.7197 -0.5966
 2703SOL    HW210578   6.162   0.293   6.344 -1.4896 -0.8457  0.1195
 2703SOL    HW310579   6.311   0.276   6.368 -1.1470 -0.1499 -1.3781
 2703SOL    MW410580   6.228   0.265   6.393 -0.2067  0.3996 -0.2084
 2704SOL     OW10581   6.376   2.795   6.353  0.0473  0.0666  0.1764
 2704SOL    HW210582   6.369   2.701   6.340  0.7896 -0.3285  2.2336
 2704SOL    HW310583   6.286   2.826   6.355 -0.1848 -0.0962 -3.2802
 2704SOL    MW410584   6.363   2.787   6.352 -0.3335 -0.0410  0.0481
 2705SOL     OW10585   5.659   0.688   4.202  1.0099  0.5586  0.3076
 2705SOL    HW210586   5.743   0.730   4.220  1.5741 -0.3895 -0.0453
 2705SOL    HW310587   5.660   0.609   4.255  0.5700  0.2722 -0.1052
 2705SOL    MW410588   5.670   0.683   4.211  0.0561 -0.0576  0.0407
 2706SOL     OW10589   1.502   1.706   6.387 -0.1150  0.0030  0.8297
 2706SOL    HW210590   1.467   1.795   6.390 -2.4483 -0.5671 -2.9135
 2706SOL    HW310591   1.592   1.716   6.357 -0.5842  1.0862 -0.2635
 2706SOL    MW410592   1.510   1.719   6.384 -0.0380  0.0146 -0.0695
 2707SOL     OW10593   4.845   1.180   3.042  0.2861 -0.7302  0.3833
 2707SOL    HW210594   4.787   1.173   3.118 -0.2524 -0.5129 -0.0060
 2707SOL    HW310595   4.845   1.092   3.003  1.9073 -1.3171  1.5939
 2707SOL    MW410596   4.837   1.168   3.047 -0.4790 -0.4477  0.4796
 2708SOL     OW10597   5.115   4.922   0.066 -0.4627  0.3872 -0.0534
 2708SOL    HW210598   5.071   5.004   0.090 -0.1353  0.9567 -1.3181
 2708SOL    HW310599   5.087   4.859   0.133 -2.0407  1.1060  0.0104
 2708SOL    MW410600   5.105   4.924   0.078  0.3120 -0.7435  0.4884
 2709SOL     OW10601   2.508   5.213   5.935 -0.0404  0.0068 -0.2575
 2709SOL    HW210602   2.468   5.280   5.879 -2.8856 -2.4239 -1.3555
 2709SOL    HW310603   2.574   5.173   5.879 -0.0625  0.2352 -0.4514
 2709SOL    MW410604   2.512   5.217   5.920  0.5369  0.3476  0.0563
 2710SOL     OW10605   5.826   5.491   0.251 -0.3009  0.0012 -0.2305
 2710SOL    HW210606   5.875   5.497   0.168 -0.3590 -1.6708 -0.4230
 2710SOL    HW310607   5.748   5.543   0.236 -0.6137 -0.7769 -1.4858
 2710SOL    MW410608   5.823   5.499   0.238 -0.1705  0.1724  0.1493
 2711SOL     OW10609   1.375   3.684   3.310  0.1224 -0.5514  0.6114
 2711SOL    HW210610   1.323   3.660   3.387  0.5219  0.2899  1.1639
 2711SOL    HW310611   1.355   3.777   3.296  3.0007  0.4349  2.1466
 2711SOL    MW410612   1.366   3.693   3.319  0.2048 -0.5772 -0.6238
 2712SOL     OW10613   3.849   4.689   4.911 -0.9621 -0.3001  0.3549
 2712SOL    HW210614   3.764   4.672   4.872 -0.7981 -3.4045  1.0932
 2712SOL    HW310615   3.868   4.611   4.963  1.9128  0.6855  0.9926
 2712SOL    MW410616   3.840   4.677   4.912 -0.1132  0.0380  0.0628
 2713SOL     OW10617   0.877   6.035   2.491  0.2714 -0.3480  0.6003
 2713SOL    HW210618   0.839   6.069   2.572 -1.2289 -1.9140  0.6074
 2713SOL    HW310619   0.827   6.077   2.422 -0.2643 -1.0418  0.5620
 2713SOL    MW410620   0.866   6.045   2.493 -0.1249 -0.2422  0.0304
 2714SOL     OW10621   0.501   1.514   3.324 -0.0755 -0.2711 -0.7003
 2714SOL    HW210622   0.473   1.555   3.406  1.3507 -0.1787 -0.2184
 2714SOL    HW310623   0.584   1.557   3.304  1.1191 -2.3774 -0.5809
 2714SOL    MW410624   0.509   1.525   3.332 -0.1977 -0.2556  0.3927
 2715SOL     OW10625   1.251   2.068   6.265 -0.4662 -0.4882 -0.1535
 2715SOL    HW210626   1.169   2.023   6.246 -0.3845 -1.5737  1.7641
 2715SOL    HW310627   1.271   2.117   6.185 -2.8843 -0.3019 -0.7169
 2715SOL    MW410628   1.243   2.069   6.252  0.2433 -1.0650 -0.2381
 2716SOL     OW10629   3.952   5.232   6.158 -0.6324 -0.1781  0.5230
 2716SOL    HW210630   3.880   5.277   6.203 -1.0211  0.8623 -1.0380
 2716SOL    HW310631   3.986   5.170   6.222 -2.8020 -0.5659  1.3880
 2716SOL    MW410632   3.947   5.230   6.172  0.2065 -0.2896 -0.5478
 2717SOL     OW10633   1.684   6.279   0.281 -0.0035 -0.4729  0.3074
 2717SOL    HW210634   1.765   6.280   0.332  0.3850 -2.6547 -0.1445
 2717SOL    HW310635   1.659   6.371   0.274  2.4182  0.2819  0.4694
 2717SOL    MW410636   1.692   6.291   0.287  0.3292 -0.0783 -0.2073
 2718SOL     OW10637   1.956   1.290   3.181  0.5154 -0.4510 -0.1154
 2718SOL    HW210638   1.899   1.328   3.114 -0.2809 -1.9211 -0.3152
 2718SOL    HW310639   1.955   1.354   3.252 -1.0956 -0.2594 -0.2697
 2718SOL    MW410640   1.948   1.304   3.181 -0.3543  0.4706  1.0395
 2719SOL     OW10641   3.105   1.427   2.394 -0.4313 -0.1269 -0.1009
 2719SOL    HW210642   3.059   1.509   2.411 -5.2649 -2.0081 -2.2731
 2719SOL    HW310643   3.142   1.402   2.479 -0.6643  3.1383  1.0991
 2719SOL    MW410644   3.104   1.434   2.408  0.0999 -0.0352  0.2118
 2720SOL     OW10645   4.566   2.826   4.973 -0.1223 -0.5958 -0.4703
 2720SOL    HW210646   4.474   2.801   4.966 -0.7675  0.6875  2.0668
 2720SOL    HW310647   4.592   2.849   4.884 -2.0594 -1.5676 -1.3410
 2720SOL    MW410648   4.557   2.826   4.961 -0.2794 -0.1175  0.5942
 2721SOL     OW10649   4.644   5.582   0.159 -0.2389  0.0749  0.3960
 2721SOL    HW210650   4.641   5.647   0.089  1.8123 -0.4395 -0.2362
 2721SOL    HW310651   4.586   5.617   0.226 -2.2718  0.6058 -1.5035
 2721SOL    MW410652   4.636   5.595   0.158 -0.5458 -0.3910 -0.0283
 2722SOL     OW10653   4.188   5.951   5.064  0.4483 -0.2729  0.0762
 2722SOL    HW210654   4.124   6.022   5.054  0.8334  0.1150  0.2977
 2722SOL    HW310655   4.198   5.915   4.975 -0.9813 -1.1530  0.2561
 2722SOL    MW410656   4.181   5.956   5.051 -0.6855  0.4162  0.3613
 2723SOL     OW10657   1.650   3.397   3.670 -0.2046 -0.2817  0.7283
 2723SOL    HW210658   1.675   3.466   3.609  2.6045 -2.6919 -1.1279
 2723SOL    HW310659   1.618   3.326   3.614 -0.6590 -1.4270  2.3599
 2723SOL    MW410660   1.649   3.397   3.655  1.0783 -0.4084 -0.1840
 2724SOL     OW10661   5.756   6.188   2.582  0.3650 -0.1903 -0.2700
 2724SOL    HW210662   5.793   6.208   2.668 -0.1246  1.0133 -0.3160
 2724SOL    HW310663   5.828   6.147   2.534  0.6078 -0.9724  0.7347
 2724SOL    MW410664   5.771   6.185   2.587  0.0984 -0.0918 -0.3041
 2725SOL     OW10665   2.322   3.830   5.928 -0.5890  0.2784 -0.1398
 2725SOL    HW210666   2.298   3.738   5.939  3.6176 -1.1848 -0.9942
 2725SOL    HW310667   2.320   3.866   6.016 -1.1377 -1.0064  0.4007
 2725SOL    MW410668   2.319   3.823   5.941  0.4165 -0.3169  0.5786
 2726SOL     OW10669   4.521   4.954   1.689  0.4343 -0.8251  0.7272
 2726SOL    HW210670   4.561   4.890   1.747  0.1431 -0.8837  0.8681
 2726SOL    HW310671   4.494   5.025   1.747  1.5512 -0.1620  0.4629
 2726SOL    MW410672   4.523   4.955   1.705 -0.6320 -0.0471  0.3351
 2727SOL     OW10673   1.105   2.363   1.355  0.2762  0.3869  0.1102
 2727SOL    HW210674   1.058   2.293   1.401  0.8600 -0.5912 -0.7335
 2727SOL    HW310675   1.197   2.340   1.366  0.4374  0.4721 -1.0309
 2727SOL    MW410676   1.111   2.351   1.363  0.1922  0.4883  0.0932
 2728SOL     OW10677   3.889   4.476   2.498  0.2179 -0.3101 -0.0492
 2728SOL    HW210678   3.899   4.419   2.421  2.8198  0.0033 -0.0338
 2728SOL    HW310679   3.945   4.436   2.565  1.8173  1.9781  0.0785
 2728SOL    MW410680   3.897   4.463   2.496  0.3425 -0.5046  0.1927
 2729SOL     OW10681   3.572   4.006   0.767  0.0426 -0.2463  0.1486
 2729SOL    HW210682   3.653   3.955   0.772  0.6758  0.5067 -1.4609
 2729SOL    HW310683   3.584   4.061   0.689 -1.5520  0.7066  0.5346
 2729SOL    MW410684   3.584   4.007   0.757 -0.7376  0.0146  0.1296
 2730SOL     OW10685   3.326   5.073   4.401  0.7032  0.0685 -0.3342
 2730SOL    HW210686   3.315   5.161   4.366 -0.5380 -0.3781 -1.0983
 2730SOL    HW310687   3.310   5.083   4.495  0.0054  0.5618 -0.4959
 2730SOL    MW410688   3.323   5.086   4.409 -0.4068 -0.2155  0.4681
 2731SOL     OW10689   6.191   5.742   1.152  0.2875  0.1133 -0.2988
 2731SOL    HW210690   6.211   5.772   1.064  2.2927  4.3986  1.3481
 2731SOL    HW310691   6.120   5.799   1.182  0.8544 -0.0205  1.4212
 2731SOL    MW410692   6.185   5.753   1.144  0.1978  0.6436 -0.0926
 2732SOL     OW10693   4.580   1.155   0.520 -0.7425 -0.4340  0.6130
 2732SOL    HW210694   4.529   1.196   0.590 -2.8521 -0.0788 -1.0117
 2732SOL    HW310695   4.520   1.089   0.483 -0.0401  0.0064 -1.4093
 2732SOL    MW410696   4.565   1.151   0.524  0.0797  0.0615 -1.1140
 2733SOL     OW10697   0.015   5.964   0.630 -0.6908  0.3385 -0.3582
 2733SOL    HW210698   0.003   5.938   0.538  1.3710 -2.0519 -0.0815
 2733SOL    HW310699   0.090   6.023   0.629  0.8897 -1.5481 -0.0839
 2733SOL    MW410700   0.023   5.968   0.618 -0.5935 -0.0715 -0.0905
 2734SOL     OW10701   0.046   4.950   0.966 -0.1325  0.0417 -0.1207
 2734SOL    HW210702   0.044   4.898   0.886 -1.6925 -0.1597  0.0142
 2734SOL    HW310703   0.070   5.038   0.938  2.2522 -0.6206 -0.3926
 2734SOL    MW410704   0.049   4.954   0.952  0.4498 -0.5934  0.2454
 2735SOL     OW10705   2.957   2.697   1.302  0.1823 -0.5356 -0.0633
 2735SOL    HW210706   2.949   2.651   1.218  3.4042  0.4916 -1.0879
 2735SOL    HW310707   2.967   2.789   1.277  2.2403 -0.3210  1.3335
 2735SOL    MW410708   2.957   2.703   1.287 -0.3829 -0.4650  0.7854
 2736SOL     OW10709   1.681   2.559   3.505 -0.1929 -0.0430  0.5347
 2736SOL    HW210710   1.730   2.639   3.522  0.0774 -0.6147  2.8340
 2736SOL    HW310711   1.602   2.567   3.558 -1.2316 -0.4064 -0.8780
 2736SOL    MW410712   1.677   2.570   3.514  0.0119  0.4652 -0.1827
 2737SOL     OW10713   3.043   0.398   6.425  0.2037 -0.2345 -0.7418
 2737SOL    HW210714   3.080   0.415   6.338 -0.4508  1.2424 -0.7656
 2737SOL    HW310715   3.118   0.393   6.483  0.7076 -1.9541 -1.4598
 2737SOL    MW410716   3.058   0.400   6.421  0.6051 -0.0286 -0.3102
 2738SOL     OW10717   1.364   6.360   0.494  0.4064  0.1578  0.4158
 2738SOL    HW210718   1.313   6.416   0.436  3.2657  0.6296 -1.8683
 2738SOL    HW310719   1.387   6.284   0.441  1.1961 -0.5374  1.6963
 2738SOL    MW410720   1.360   6.358   0.480 -0.3314  1.2110  0.7746
 2739SOL     OW10721   0.539   3.369   3.641  0.1534 -0.4185  0.0627
 2739SOL    HW210722   0.465   3.384   3.582 -0.4382  0.8060  1.0641
 2739SOL    HW310723   0.521   3.283   3.679 -1.0691  0.0868  0.6810
 2739SOL    MW410724   0.527   3.359   3.639  0.0362  0.0715  0.2693
 2740SOL     OW10725   2.715   2.238   3.377 -0.5033  0.2756 -0.4386
 2740SOL    HW210726   2.653   2.196   3.437  0.2465 -0.7356 -0.3434
 2740SOL    HW310727   2.671   2.317   3.348 -1.8239 -0.4101 -0.3539
 2740SOL    MW410728   2.701   2.243   3.381 -0.6172  0.1236 -0.1844
 2741SOL     OW10729   0.332   4.245   0.870 -0.0678 -0.3879 -0.0577
 2741SOL    HW210730   0.319   4.249   0.775  0.2721  1.6331 -0.0659
 2741SOL    HW310731   0.424   4.218   0.880  0.6378  1.6866 -0.4108
 2741SOL    MW410732   0.343   4.242   0.859 -0.1396 -0.0320  0.4182
 2742SOL     OW10733   2.097   2.411   2.527 -0.4060  0.4398  0.0168
 2742SOL    HW210734   2.106   2.436   2.435 -1.1966  1.1194  0.1144
 2742SOL    HW310735   2.076   2.318   2.525 -1.8617  0.7643 -0.5609
 2742SOL    MW410736   2.096   2.402   2.515 -0.6621 -0.3137 -0.0704
 2743SOL     OW10737   6.116   1.442   1.569  0.4908  0.0594  0.3701
 2743SOL    HW210738   6.203   1.411   1.596  0.1646  1.1646  2.9583
 2743SOL    HW310739   6.130   1.479   1.482  1.9376 -2.5079 -0.5944
 2743SOL    MW410740   6.129   1.443   1.561  0.5867 -0.5021  0.2289
 2744SOL     OW10741   3.033   5.629   5.914  0.0312 -0.4801  0.3180
 2744SOL    HW210742   3.051   5.618   5.821  1.4996  0.7233  0.4085
 2744SOL    HW310743   3.095   5.570   5.958 -2.5417 -3.2000  0.5577
 2744SOL    MW410744   3.044   5.620   5.908  0.3042  0.0272 -0.0003
 2745SOL     OW10745   0.466   1.422   5.545  0.5724 -0.1796 -0.3133
 2745SOL    HW210746   0.464   1.494   5.481  1.8592  0.2248  0.0738
 2745SOL    HW310747   0.558   1.416   5.571  0.4324 -1.7799 -0.1157
 2745SOL    MW410748   0.478   1.431   5.540 -0.0453 -0.5506 -0.1521
 2746SOL     OW10749   3.499   1.942   6.036 -0.5247  0.6989 -0.0564
 2746SOL    HW210750   3.461   1.978   5.956 -1.1439 -0.1977 -0.1754
 2746SOL    HW310751   3.428   1.947   6.100 -1.5169 -2.5801 -0.7342
 2746SOL    MW410752   3.485   1.948   6.034  0.6262 -0.2059  0.2359
 2747SOL     OW10753   1.567   3.156   0.280  0.1704 -0.0629 -0.2939
 2747SOL    HW210754   1.596   3.103   0.354 -0.7823 -0.4773 -0.1977
 2747SOL    HW310755   1.601   3.244   0.299 -0.3256 -0.0891  0.8029
 2747SOL    MW410756   1.575   3.161   0.292 -0.0141 -0.5407 -0.1769
 2748SOL     OW10757   4.196   1.166   4.568 -0.2967 -0.6125  0.0587
 2748SOL    HW210758   4.280   1.155   4.612 -0.8777 -0.2745  1.3131
 2748SOL    HW310759   4.179   1.081   4.527 -1.0237 -2.0053  2.9340
 2748SOL    MW410760   4.205   1.153   4.568  0.5971 -0.2374  0.2580
 2749SOL     OW10761   5.062   0.399   0.087  0.6075 -0.2899 -0.1475
 2749SOL    HW210762   5.131   0.361   0.032  2.2950 -1.9726  2.8684
 2749SOL    HW310763   5.107   0.466   0.137 -0.6145  0.4133  0.0399
 2749SOL    MW410764   5.077   0.403   0.086 -0.3321 -0.0462  0.2074
 2750SOL     OW10765   1.552   2.398   1.783 -0.1157  0.3195  0.0758
 2750SOL    HW210766   1.554   2.492   1.767  0.9706  0.1287 -1.0741
 2750SOL    HW310767   1.540   2.359   1.696 -0.8959 -0.6040  0.5731
 2750SOL    MW410768   1.551   2.405   1.770  0.3747 -0.0973  0.1342
 2751SOL     OW10769   1.332   0.507   4.351 -0.2579 -0.2404  0.2545
 2751SOL    HW210770   1.292   0.576   4.299 -0.5215 -1.3557 -1.0891
 2751SOL    HW310771   1.423   0.504   4.321  0.5304  1.3369  2.2908
 2751SOL    MW410772   1.339   0.516   4.340  0.7076  0.0127 -0.1354
 2752SOL     OW10773   2.586   5.172   0.471  0.1267  0.1334 -0.0655
 2752SOL    HW210774   2.646   5.147   0.400 -1.7752  0.1025 -1.7545
 2752SOL    HW310775   2.536   5.093   0.488  0.0174  0.3785  0.7634
 2752SOL    MW410776   2.588   5.159   0.464 -0.7075 -0.0714 -0.0327
 2753SOL     OW10777   3.352   4.035   1.220  0.4833 -0.2449 -0.7877
 2753SOL    HW210778   3.413   4.054   1.149  1.6516 -1.4224 -0.1380
 2753SOL    HW310779   3.342   3.940   1.219  1.0906 -0.3694  1.0673
 2753SOL    MW410780   3.358   4.025   1.210 -0.0049 -0.7539 -0.0304
 2754SOL     OW10781   2.523   5.740   3.466  0.0310 -0.0276 -0.3816
 2754SOL    HW210782   2.525   5.793   3.386  1.0517  1.2284  0.4364
 2754SOL    HW310783   2.558   5.797   3.533  3.2802 -2.3877  0.1743
 2754SOL    MW410784   2.528   5.754   3.464  0.5557  0.1348  0.1901
 2755SOL     OW10785   3.109   4.089   0.178  0.0585  0.3236  0.1656
 2755SOL    HW210786   3.199   4.107   0.202  0.0432 -1.1329  1.5308
 2755SOL    HW310787   3.058   4.119   0.253 -0.3191 -1.2434  0.5829
 2755SOL    MW410788   3.114   4.095   0.191  0.2266  0.3266  0.4115
 2756SOL     OW10789   2.398   4.635   0.056  0.2229  0.1247  0.6210
 2756SOL    HW210790   2.451   4.617  -0.021 -0.3068  0.7033  0.1062
 2756SOL    HW310791   2.394   4.552   0.103 -0.8199 -0.6975 -0.8402
 2756SOL    MW410792   2.404   4.622   0.052 -0.6075 -0.5430  0.3661
 2757SOL     OW10793   3.178   2.513   5.190 -0.3221  0.3055  0.1076
 2757SOL    HW210794   3.214   2.530   5.277 -0.1823 -2.5355  0.7052
 2757SOL    HW310795   3.152   2.420   5.193 -0.5303  0.2021 -2.8085
 2757SOL    MW410796   3.179   2.503   5.202  0.0727 -0.5732 -0.5299
 2758SOL     OW10797   2.151   0.239   2.301 -0.1678 -0.5386 -0.4404
 2758SOL    HW210798   2.099   0.259   2.379 -2.7179 -2.0162 -1.6455
 2758SOL    HW310799   2.095   0.182   2.248  1.2107  0.7873 -3.6204
 2758SOL    MW410800   2.136   0.234   2.304  0.3712 -0.1746  0.5318
 2759SOL     OW10801   1.919   1.744   0.319  0.1266 -0.6040 -0.6858
 2759SOL    HW210802   1.852   1.811   0.304  2.0522  2.2653  2.2156
 2759SOL    HW310803   1.982   1.758   0.248  0.2040  0.2723 -0.4577
 2759SOL    MW410804   1.919   1.755   0.308 -0.2873 -0.4025  0.0465
 2760SOL     OW10805   6.023   1.133   3.117  0.3078 -0.0322  0.4215
 2760SOL    HW210806   5.992   1.202   3.059  0.8182 -1.6461 -1.9315
 2760SOL    HW310807   6.105   1.103   3.077  0.5195 -1.4480  1.8023
 2760SOL    MW410808   6.030   1.138   3.104  0.3330  0.4946 -0.1238
 2761SOL     OW10809   5.796   4.668   0.931 -0.2623 -0.6669 -0.0186
 2761SOL    HW210810   5.849   4.700   1.003 -1.8464  1.6195  0.2341
 2761SOL    HW310811   5.706   4.691   0.954 -1.0984 -2.0092 -1.6470
 2761SOL    MW410812   5.791   4.675   0.943 -0.3657  0.3895  0.1889
 2762SOL     OW10813   4.012   4.270   3.791  0.4517 -0.3314  0.6230
 2762SOL    HW210814   4.061   4.332   3.845 -0.3327 -0.4226  1.4707
 2762SOL    HW310815   4.035   4.184   3.827  0.1915 -0.4134  0.5966
 2762SOL    MW410816   4.022   4.267   3.803  0.2205  0.2721  0.0240
 2763SOL     OW10817   2.026   0.881   1.258  0.3962 -0.6608 -0.2358
 2763SOL    HW210818   1.958   0.947   1.267  2.1377  1.0583  1.3640
 2763SOL    HW310819   1.988   0.815   1.201 -3.7896 -1.4455  2.9840
 2763SOL    MW410820   2.012   0.881   1.252  0.2963  0.4515  0.2650
 2764SOL     OW10821   4.193   4.748   2.936  0.0038 -0.0875 -0.2803
 2764SOL    HW210822   4.186   4.737   3.031 -0.4982 -1.4933 -0.4448
 2764SOL    HW310823   4.114   4.705   2.902  0.6041 -0.3501 -1.3698
 2764SOL    MW410824   4.182   4.741   2.944  0.3120 -0.0851  0.8831
 2765SOL     OW10825   3.902   3.262   0.228  0.6685  0.3198  0.3302
 2765SOL    HW210826   3.887   3.192   0.165 -0.6831 -0.8977  1.9105
 2765SOL    HW310827   3.997   3.258   0.245  0.4043 -2.4668  1.7667
 2765SOL    MW410828   3.913   3.252   0.222  0.5394  0.6436  0.7593
 2766SOL     OW10829   2.660   2.410   4.800  0.2928  0.1358 -0.4123
 2766SOL    HW210830   2.745   2.453   4.791  0.0911  0.5213 -0.4499
 2766SOL    HW310831   2.624   2.408   4.711 -0.1184  0.7465 -0.2628
 2766SOL    MW410832   2.667   2.415   4.787  0.2424  0.2208  0.2660
 2767SOL     OW10833   3.421   1.555   4.228  0.6961  0.3546 -0.2343
 2767SOL    HW210834   3.455   1.548   4.317  1.7951  0.8040 -0.6079
 2767SOL    HW310835   3.475   1.622   4.186  0.7306 -0.4350 -1.4920
 2767SOL    MW410836   3.432   1.563   4.234 -0.0995 -0.1151 -0.2897
 2768SOL     OW10837   3.959   5.455   0.161 -0.7731 -0.2398  0.0640
 2768SOL    HW210838   3.868   5.446   0.134 -1.0244 -1.0902  1.1337
 2768SOL    HW310839   3.998   5.370   0.143 -0.2800  0.0060 -0.0436
 2768SOL    MW410840   3.952   5.443   0.155  0.6582  0.0606 -0.6065
 2769SOL     OW10841   3.655   2.708   1.957  0.1788  0.6546 -0.9435
 2769SOL    HW210842   3.738   2.661   1.954 -0.5706 -0.7029 -0.9399
 2769SOL    HW310843   3.588   2.640   1.952 -0.9527  1.6183  0.3537
 2769SOL    MW410844   3.657   2.693   1.956 -0.0228 -0.2072 -0.1763
 2770SOL     OW10845   0.273   3.925   4.228 -0.0621  0.2048  0.0317
 2770SOL    HW210846   0.350   3.959   4.274  0.2780  0.8426 -0.9781
 2770SOL    HW310847   0.231   4.003   4.192 -1.7137 -0.0381  1.3504
 2770SOL    MW410848   0.278   3.940   4.229  0.7111 -0.7046 -0.3506
 2771SOL     OW10849   1.469   2.757   5.469  0.4090 -0.0822  0.2991
 2771SOL    HW210850   1.467   2.676   5.519  3.2895 -0.3846  0.0934
 2771SOL    HW310851   1.550   2.801   5.497  0.2073  1.5182 -1.4110
 2771SOL    MW410852   1.479   2.752   5.479 -0.0596  0.7112 -0.0275
 2772SOL     OW10853   3.576   4.281   2.001 -0.4152 -0.1588 -0.7240
 2772SOL    HW210854   3.571   4.187   2.017 -1.3675  0.0675  0.4404
 2772SOL    HW310855   3.491   4.304   1.964  0.1188  0.1242 -1.8313
 2772SOL    MW410856   3.564   4.271   1.998 -0.0378 -0.3468 -0.0767
 2773SOL     OW10857   2.084   2.682   5.578  0.4179  0.1924 -0.0706
 2773SOL    HW210858   2.116   2.622   5.511  1.0665  1.5487 -1.0376
 2773SOL    HW310859   2.071   2.765   5.532 -1.8518  0.4563  0.8955
 2773SOL    MW410860   2.087   2.685   5.563  0.0669  0.4683 -0.2861
 2774SOL     OW10861   5.202   0.613   0.180 -0.7501  0.0522  0.0359
 2774SOL    HW210862   5.247   0.655   0.107 -1.6579  0.8006 -0.1042
 2774SOL    HW310863   5.273   0.576   0.234 -0.0665 -0.3090 -1.0888
 2774SOL    MW410864   5.217   0.613   0.178 -0.1723  0.2750 -0.2771
 2775SOL     OW10865   0.885   5.936   3.646 -0.1548  0.2995 -0.1276
 2775SOL    HW210866   0.947   5.995   3.604 -2.2523  0.8792 -2.6214
 2775SOL    HW310867   0.799   5.979   3.635 -1.3220 -1.5888  1.0417
 2775SOL    MW410868   0.882   5.950   3.639 -0.0911  0.1707 -0.2843
 2776SOL     OW10869   3.448   4.802   4.722 -0.0330 -0.4325 -0.0780
 2776SOL    HW210870   3.389   4.751   4.667  1.9826 -2.9084 -0.1203
 2776SOL    HW310871   3.493   4.737   4.776  0.4690  1.6197  2.1597
 2776SOL    MW410872   3.446   4.787   4.722  0.2398  0.6794 -0.1986
 2777SOL     OW10873   6.395   6.372   0.741  0.3382 -0.1512  0.3877
 2777SOL    HW210874   6.428   6.308   0.805 -0.8918 -2.0841 -0.8003
 2777SOL    HW310875   6.304   6.385   0.765  0.7557  1.8033  1.0554
 2777SOL    MW410876   6.388   6.365   0.753  0.3030 -0.1105 -0.0170
 2778SOL     OW10877   1.780   4.925   0.406 -0.5595 -0.0253  0.0736
 2778SOL    HW210878   1.770   5.016   0.379 -3.0470 -0.2089  0.1538
 2778SOL    HW310879   1.693   4.887   0.393  0.3137 -2.2735  0.4732
 2778SOL    MW410880   1.767   4.932   0.400 -0.2647 -0.3308  0.1998
 2779SOL     OW10881   6.045   5.654   4.470  0.1360  0.0615  0.0863
 2779SOL    HW210882   6.025   5.660   4.377  0.3117  1.8285  0.1276
 2779SOL    HW310883   5.977   5.596   4.506 -0.2829 -0.1537 -1.0234
 2779SOL    MW410884   6.033   5.647   4.463 -0.5380 -0.2576 -0.4241
 2780SOL     OW10885   1.095   3.852   5.571 -0.3824  1.0017  0.7641
 2780SOL    HW210886   1.171   3.866   5.628 -0.6329  0.0588  1.3525
 2780SOL    HW310887   1.041   3.930   5.585 -0.4469  0.7864  1.8669
 2780SOL    MW410888   1.098   3.864   5.581 -0.3384  0.0445 -0.2964
 2781SOL     OW10889   5.201   1.315   4.481 -0.8109  0.5449  0.4457
 2781SOL    HW210890   5.267   1.334   4.548  4.0098 -0.3869 -3.4678
 2781SOL    HW310891   5.173   1.226   4.499  0.8081  0.1126  0.9624
 2781SOL    MW410892   5.206   1.306   4.492 -0.2413 -0.1149 -0.6475
 2782SOL     OW10893   1.327   0.686   3.316  0.2036  0.0470  0.2436
 2782SOL    HW210894   1.299   0.595   3.309  0.8928 -0.2903  1.5412
 2782SOL    HW310895   1.397   0.694   3.251  1.2881 -0.8355  1.2623
 2782SOL    MW410896   1.333   0.675   3.306  0.4836 -0.0139  0.0623
 2783SOL     OW10897   1.031   0.727   6.390 -0.2014  0.6100 -0.1391
 2783SOL    HW210898   1.105   0.780   6.420 -0.9191  2.0653 -0.8011
 2783SOL    HW310899   1.019   0.752   6.298 -0.3069 -1.0566 -0.6043
 2783SOL    MW410900   1.039   0.738   6.382  0.4206  0.8907 -0.6706
 2784SOL     OW10901   1.287   3.541   6.135 -0.7669  0.5166 -0.7689
 2784SOL    HW210902   1.256   3.622   6.094 -2.1718  0.2471 -0.2807
 2784SOL    HW310903   1.208   3.490   6.149  0.1677 -1.3109 -1.8214
 2784SOL    MW410904   1.273   3.545   6.131 -0.1830  0.9743  0.1698
 2785SOL     OW10905   5.546   5.800   4.314  0.6970  0.2040  0.1495
 2785SOL    HW210906   5.598   5.723   4.290  1.3395  0.4429  0.7431
 2785SOL    HW310907   5.460   5.765   4.337  1.1124 -0.3940  0.8357
 2785SOL    MW410908   5.542   5.785   4.314  0.2569  0.0706  0.1223
 2786SOL     OW10909   5.417   6.115   0.812 -0.6937 -0.0673  0.0048
 2786SOL    HW210910   5.484   6.151   0.755 -1.6605 -0.4817 -1.4703
 2786SOL    HW310911   5.366   6.190   0.841 -1.6127 -0.0141 -1.6132
 2786SOL    MW410912   5.419   6.130   0.809  0.3863  0.5744 -0.6042
 2787SOL     OW10913   1.171   0.646   2.354  0.4325  0.2987 -0.4284
 2787SOL    HW210914   1.088   0.692   2.342 -0.0598 -0.3880  0.2978
 2787SOL    HW310915   1.197   0.665   2.444  1.9103  1.8365 -1.1098
 2787SOL    MW410916   1.164   0.655   2.364 -0.6364 -0.0763  0.5822
 2788SOL     OW10917   2.427   2.092   3.911  0.0374  0.6425  0.3144
 2788SOL    HW210918   2.498   2.138   3.956  0.1465  0.4936  0.2959
 2788SOL    HW310919   2.350   2.106   3.966  0.0470  0.9301  0.2576
 2788SOL    MW410920   2.426   2.100   3.924  0.1073  0.1353  0.0025
 2789SOL     OW10921   3.683   1.394   4.629  0.2372 -0.6545  0.2643
 2789SOL    HW210922   3.746   1.327   4.605  1.0573 -0.0500  0.6799
 2789SOL    HW310923   3.600   1.347   4.639  1.0165 -1.8115  1.6687
 2789SOL    MW410924   3.680   1.379   4.627  0.0991 -0.3878 -0.1376
 2790SOL     OW10925   0.498   4.495   5.905 -0.3354  0.0398  0.1936
 2790SOL    HW210926   0.429   4.547   5.865  1.2585  1.4780 -0.8520
 2790SOL    HW310927   0.563   4.484   5.836  0.5033 -1.2544  1.1308
 2790SOL    MW410928   0.498   4.501   5.891  0.5653  0.3384 -0.0024
 2791SOL     OW10929   0.595   4.824   2.517  0.8481  0.6077  0.4519
 2791SOL    HW210930   0.598   4.857   2.427 -0.7521  0.4189  0.3112
 2791SOL    HW310931   0.643   4.890   2.568 -0.8417  2.3412 -0.0734
 2791SOL    MW410932   0.602   4.837   2.512 -0.0040  0.0273 -0.1398
 2792SOL     OW10933   4.960   0.956   1.590 -0.2140 -0.1861 -0.0136
 2792SOL    HW210934   4.967   0.880   1.532  0.8426 -1.9383  2.2627
 2792SOL    HW310935   5.034   1.011   1.565 -0.9242  0.0907 -1.6247
 2792SOL    MW410936   4.971   0.953   1.579  0.7572 -0.4048 -0.2738
 2793SOL     OW10937   3.722   4.504   4.392 -0.3665 -0.2569  0.0393
 2793SOL    HW210938   3.639   4.500   4.441  0.0102  0.0159  0.7206
 2793SOL    HW310939   3.721   4.590   4.351  0.9163  1.0663  2.5489
 2793SOL    MW410940   3.711   4.515   4.393 -0.0814  0.0517  0.1341
 2794SOL     OW10941   3.476   4.332   0.419 -0.0934  0.3133  0.0774
 2794SOL    HW210942   3.522   4.381   0.352 -1.3172 -0.7591 -1.6104
 2794SOL    HW310943   3.489   4.383   0.499 -0.2211  2.6643 -1.3195
 2794SOL    MW410944   3.484   4.345   0.421  0.1238  0.0188 -0.2390
 2795SOL     OW10945   1.681   3.687   6.284 -0.2636 -0.0926  0.3451
 2795SOL    HW210946   1.766   3.664   6.323 -0.0904 -1.3469 -0.7060
 2795SOL    HW310947   1.623   3.615   6.309 -0.9587  0.6109  0.8078
 2795SOL    MW410948   1.685   3.675   6.293  0.4646  0.4168 -0.7213
 2796SOL     OW10949   3.255   4.060   2.608  0.3896 -0.3210  0.6616
 2796SOL    HW210950   3.198   4.000   2.656 -0.0389 -2.2905 -2.0523
 2796SOL    HW310951   3.342   4.019   2.613  0.0547 -1.4237 -1.3861
 2796SOL    MW410952   3.259   4.047   2.615  0.1249  0.3315 -0.4960
 2797SOL     OW10953   1.279   4.496   4.277 -0.0168 -0.7044 -0.0689
 2797SOL    HW210954   1.299   4.435   4.206 -1.9830 -2.0392  0.4624
 2797SOL    HW310955   1.258   4.440   4.352 -0.5446  0.6541  0.8362
 2797SOL    MW410956   1.279   4.480   4.278 -0.2011 -0.2293 -0.3148
 2798SOL     OW10957   3.556   0.191   3.512 -0.2172 -0.2916 -0.2748
 2798SOL    HW210958   3.584   0.195   3.603 -2.0383  0.3745  0.2997
 2798SOL    HW310959   3.512   0.106   3.504 -1.7749  0.4475  0.0411
 2798SOL    MW410960   3.554   0.180   3.523  0.3689 -0.4418  0.1312
 2799SOL     OW10961   1.412   3.529   0.274  0.2957 -0.6419  0.2349
 2799SOL    HW210962   1.375   3.617   0.278  0.9181 -0.3091 -0.7860
 2799SOL    HW310963   1.351   3.475   0.325  0.0121  0.4017  1.0410
 2799SOL    MW410964   1.399   3.533   0.281 -0.4085 -0.0041 -0.6003
 2800SOL     OW10965   3.538   3.915   1.383  0.2793 -0.0709  0.1175
 2800SOL    HW210966   3.543   3.985   1.448  0.6698 -1.2845  1.4509
 2800SOL    HW310967   3.468   3.942   1.323  0.6518  1.5977  0.4008
 2800SOL    MW410968   3.529   3.928   1.383  0.2045  0.2310  0.1235
 2801SOL     OW10969   4.805   5.379   5.299  0.3373  0.1865  0.0456
 2801SOL    HW210970   4.729   5.341   5.254 -0.7941 -1.3609  2.9590
 2801SOL    HW310971   4.768   5.449   5.353  0.3313 -2.1786  3.4218
 2801SOL    MW410972   4.790   5.383   5.301  0.0943 -0.3556  0.2411
 2802SOL     OW10973   1.453   3.327   1.388  0.1753 -0.0144  0.2338
 2802SOL    HW210974   1.500   3.309   1.469 -1.1803  2.7675  1.7802
 2802SOL    HW310975   1.477   3.416   1.364 -0.2467 -0.4064 -1.9048
 2802SOL    MW410976   1.462   3.336   1.395  0.5802 -0.1522 -0.1262
 2803SOL     OW10977   5.194   4.643   4.907  0.2806 -0.0595 -0.2754
 2803SOL    HW210978   5.119   4.585   4.921  0.9249 -0.7603  0.3046
 2803SOL    HW310979   5.184   4.712   4.973  1.2143 -1.2501  1.1686
 2803SOL    MW410980   5.182   4.645   4.917 -0.2340  1.2807  0.4193
 2804SOL     OW10981   2.927   2.861   2.486  0.3560 -0.4300 -0.0118
 2804SOL    HW210982   2.917   2.872   2.580 -0.3583 -0.0391 -0.1231
 2804SOL    HW310983   3.019   2.879   2.469  0.2020  0.8882  0.4300
 2804SOL    MW410984   2.938   2.864   2.496  0.6985 -0.2269  0.4188
 2805SOL     OW10985   4.430   1.842   1.988  0.0210  0.0540  0.0551
 2805SOL    HW210986   4.355   1.890   1.952 -0.2491  0.1973  0.7975
 2805SOL    HW310987   4.440   1.875   2.077  0.5209 -0.4820  0.2077
 2805SOL    MW410988   4.421   1.852   1.995  0.1461  0.0115  0.2776
 2806SOL     OW10989   3.984   2.513   4.378 -0.3488 -0.6236 -0.6220
 2806SOL    HW210990   3.922   2.578   4.345 -1.3546 -2.2313 -2.0822
 2806SOL    HW310991   4.069   2.555   4.372 -1.0119  0.6977 -1.1300
 2806SOL    MW410992   3.987   2.527   4.373 -0.1303  0.0134  0.3811
 2807SOL     OW10993   6.321   4.281   3.689 -0.5279 -0.6828  0.2172
 2807SOL    HW210994   6.392   4.230   3.651  0.6293  2.4719 -2.2277
 2807SOL    HW310995   6.321   4.257   3.782  0.6372 -4.1362 -0.5481
 2807SOL    MW410996   6.330   4.271   3.696 -0.0378  0.2292 -0.5268
 2808SOL     OW10997   0.102   1.102   3.307 -0.0451  0.2525  0.3067
 2808SOL    HW210998   0.174   1.115   3.369  0.1157  1.1387 -0.0628
 2808SOL    HW310999   0.090   1.187   3.265 -0.4899 -0.2059 -0.5197
 2808SOL    MW411000   0.110   1.115   3.310  0.4383  0.7078  0.4706
 2809SOL     OW11001   4.220   0.784   3.860  0.1814  0.5867 -0.2630
 2809SOL    HW211002   4.305   0.825   3.876  1.4366 -2.9128  4.2155
 2809SOL    HW311003   4.160   0.830   3.918  0.4139 -0.4405  0.8364
 2809SOL    MW411004   4.223   0.796   3.870 -0.0458  0.5813 -0.0394
 2810SOL     OW11005   5.178   2.015   4.026 -0.3271  0.3064 -0.8101
 2810SOL    HW211006   5.200   1.932   4.068 -0.3039  0.7556  0.0959
 2810SOL    HW311007   5.087   2.004   3.996 -0.7115  0.3370  0.3138
 2810SOL    MW411008   5.169   2.003   4.027  0.6258  0.6410 -0.4545
 2811SOL     OW11009   5.652   6.013   4.798  0.3629 -0.5313  0.0901
 2811SOL    HW211010   5.699   6.094   4.779 -0.1131 -0.4222 -0.6728
 2811SOL    HW311011   5.638   5.973   4.712 -2.0291  0.0627  0.1334
 2811SOL    MW411012   5.656   6.018   4.784  0.7480 -0.0333 -0.0060
 2812SOL     OW11013   1.804   2.214   6.037 -0.1306  0.2293 -0.1282
 2812SOL    HW211014   1.870   2.269   6.080 -0.9428  0.5452  0.7498
 2812SOL    HW311015   1.825   2.125   6.063 -0.9319  0.4507  1.4567
 2812SOL    MW411016   1.815   2.210   6.046 -0.7109 -0.0749  0.6872
 2813SOL     OW11017   6.418   4.716   2.361  0.2338  0.0176  0.4843
 2813SOL    HW211018   6.363   4.759   2.427  0.0775 -0.2601  0.5363
 2813SOL    HW311019   6.507   4.724   2.396  0.0575 -0.9310  1.1856
 2813SOL    MW411020   6.422   4.723   2.375  0.1208 -0.2662  0.5054
 2814SOL     OW11021   1.324   5.192   6.221  1.1193  0.4562 -0.0422
 2814SOL    HW211022   1.326   5.237   6.136  2.3026  1.2888  0.4029
 2814SOL    HW311023   1.384   5.242   6.276  0.6773 -0.3117  1.1765
 2814SOL    MW411024   1.332   5.205   6.217 -0.7518  0.9003 -0.2561
 2815SOL     OW11025   2.453   5.387   3.211 -0.1994 -0.2324  0.0453
 2815SOL    HW211026   2.375   5.347   3.248 -1.3651  1.3996 -0.5563
 2815SOL    HW311027   2.426   5.475   3.185  1.4116 -0.1562 -1.6269
 2815SOL    MW411028   2.439   5.393   3.212  0.3289 -0.3228 -0.4094
 2816SOL     OW11029   2.410   5.181   4.405  0.2381 -0.3314  0.4404
 2816SOL    HW211030   2.403   5.139   4.491  1.8737 -1.0253  0.2626
 2816SOL    HW311031   2.420   5.108   4.344  3.4252  0.2025  0.1506
 2816SOL    MW411032   2.410   5.166   4.408  0.3635 -0.0940 -0.2091
 2817SOL     OW11033   1.750   1.065   5.438  0.3987  0.0782 -0.0883
 2817SOL    HW211034   1.796   1.068   5.522 -1.4687  0.0673  0.9801
 2817SOL    HW311035   1.788   0.990   5.392  0.7903 -0.4816  1.1299
 2817SOL    MW411036   1.761   1.056   5.443  0.4120  0.1149  0.2450
 2818SOL     OW11037   4.435   1.622   3.065  0.0802  0.1653  0.9305
 2818SOL    HW211038   4.451   1.609   2.972  3.0748  0.6774  1.2642
 2818SOL    HW311039   4.353   1.672   3.069  0.6465  1.4322 -1.5163
 2818SOL    MW411040   4.426   1.627   3.054 -0.0105  0.0640 -0.0398
 2819SOL     OW11041   2.169   5.484   3.502 -0.2701 -0.4739 -0.2749
 2819SOL    HW211042   2.179   5.562   3.447 -1.0649 -0.7182 -0.7782
 2819SOL    HW311043   2.182   5.411   3.442  4.2225 -0.8784  0.7871
 2819SOL    MW411044   2.172   5.485   3.487  0.0286  0.1370 -0.8272
 2820SOL     OW11045   0.224   1.690   1.027  0.3552  0.0129  0.5564
 2820SOL    HW211046   0.191   1.737   0.951  0.8992  1.3914  1.1409
 2820SOL    HW311047   0.279   1.621   0.991  2.2605  1.8762 -0.3322
 2820SOL    MW411048   0.227   1.687   1.012 -0.0424 -0.3117 -0.2171
 2821SOL     OW11049   3.867   5.579   3.704 -0.1237  0.2423  0.2191
 2821SOL    HW211050   3.820   5.660   3.686  0.4225  0.7041  0.7927
 2821SOL    HW311051   3.835   5.517   3.639 -0.0474  1.1149 -0.6732
 2821SOL    MW411052   3.857   5.582   3.693  0.0244  0.3994  0.3165
 2822SOL     OW11053   4.665   3.946   2.235 -0.4783 -0.1327 -0.0978
 2822SOL    HW211054   4.728   3.892   2.187 -0.7389 -0.2867 -0.2709
 2822SOL    HW311055   4.677   4.034   2.199 -0.6306 -0.2361 -0.4005
 2822SOL    MW411056   4.675   3.950   2.224 -0.1519  0.0815 -0.2676
 2823SOL     OW11057   0.089   4.057   0.027 -0.1929  0.7556  0.3358
 2823SOL    HW211058   0.155   3.989   0.015 -0.7136  0.3731 -0.4249
 2823SOL    HW311059   0.126   4.135  -0.015  0.1560  0.7919  0.7059
 2823SOL    MW411060   0.103   4.058   0.020  0.3568  0.4494 -0.4717
 2824SOL     OW11061   4.144   5.402   3.270  0.3357  0.1875  0.0871
 2824SOL    HW211062   4.102   5.341   3.209 -1.1392  0.9066  0.3522
 2824SOL    HW311063   4.162   5.348   3.347  0.0427 -0.1651 -0.0854
 2824SOL    MW411064   4.141   5.387   3.272 -0.3950  0.0154  0.0856
 2825SOL     OW11065   0.022   2.956   5.514 -0.3248 -0.2089 -0.3192
 2825SOL    HW211066   0.102   2.953   5.461 -0.4804 -0.2406 -0.5537
 2825SOL    HW311067   0.053   2.965   5.604 -0.0584 -0.1364 -0.4178
 2825SOL    MW411068   0.037   2.957   5.518 -0.0394 -0.0471  0.0929
 2826SOL     OW11069   2.486   4.626   2.710  0.1351 -0.1757  0.0728
 2826SOL    HW211070   2.524   4.620   2.623 -0.5497  2.3211 -0.4712
 2826SOL    HW311071   2.527   4.555   2.759  2.3681 -0.1322 -1.5914
 2826SOL    MW411072   2.496   4.616   2.705  0.1098 -0.2182 -0.1298
 2827SOL     OW11073   5.825   4.820   3.681  0.5431  0.0710  0.2077
 2827SOL    HW211074   5.837   4.767   3.602 -0.8980 -0.7130  0.4787
 2827SOL    HW311075   5.755   4.882   3.658 -0.2518 -0.5057  1.0076
 2827SOL    MW411076   5.817   4.821   3.668  0.8319 -0.1547  0.0076
 2828SOL     OW11077   4.714   0.850   1.718 -0.4239 -0.6087 -0.2222
 2828SOL    HW211078   4.795   0.892   1.690  0.4948 -1.2552  1.3230
 2828SOL    HW311079   4.676   0.814   1.638  1.3240 -1.1426 -0.8578
 2828SOL    MW411080   4.720   0.851   1.704 -0.0271  0.2467  0.2295
 2829SOL     OW11081   4.660   0.761   1.971  0.2158 -0.0092  0.0659
 2829SOL    HW211082   4.684   0.772   1.880 -0.8639  0.5457 -0.1770
 2829SOL    HW311083   4.565   0.746   1.969 -0.3397  2.7198  1.2106
 2829SOL    MW411084   4.650   0.761   1.959 -0.0536  0.3023 -0.1221
 2830SOL     OW11085   4.648   2.096   2.165 -0.6180 -0.1671 -0.0883
 2830SOL    HW211086   4.732   2.057   2.142 -1.5402 -2.3407  0.0170
 2830SOL    HW311087   4.660   2.127   2.255  0.3003  0.3329 -0.3659
 2830SOL    MW411088   4.661   2.095   2.174 -0.7286 -0.0589 -0.0573
 2831SOL     OW11089   4.253   1.946   5.992  0.4812 -0.3753 -0.4611
 2831SOL    HW211090   4.261   2.031   5.948  0.3258 -0.5176 -0.7604
 2831SOL    HW311091   4.175   1.955   6.047 -1.0677 -1.1849 -2.4250
 2831SOL    MW411092   4.244   1.959   5.994 -0.2881 -0.3405 -0.6643
 2832SOL     OW11093   0.713   1.578   6.153 -0.1732 -0.4707  0.0419
 2832SOL    HW211094   0.796   1.624   6.144 -1.4965  1.6566 -3.7525
 2832SOL    HW311095   0.662   1.632   6.213  0.7083 -1.1927  1.5072
 2832SOL    MW411096   0.717   1.591   6.160  0.2772 -0.2016  0.2256
 2833SOL     OW11097   1.383   4.560   0.164  0.5628  0.1812  0.0835
 2833SOL    HW211098   1.398   4.640   0.113  0.4730  0.8072  1.0189
 2833SOL    HW311099   1.470   4.524   0.179  0.5026 -0.9868 -1.9973
 2833SOL    MW411100   1.397   4.565   0.159 -0.4377 -0.1194 -0.3746
 2834SOL     OW11101   6.028   4.465   4.069  0.3080 -0.2975 -0.4868
 2834SOL    HW211102   6.070   4.415   4.139 -1.9442 -2.5543 -0.6167
 2834SOL    HW311103   6.099   4.518   4.032  2.3225 -1.6367  1.2116
 2834SOL    MW411104   6.043   4.466   4.073  0.4313  0.3431  0.0932
 2835SOL     OW11105   2.222   1.113   5.615 -0.3585  0.1330 -0.1908
 2835SOL    HW211106   2.249   1.023   5.634 -1.3120  0.0043  0.6702
 2835SOL    HW311107   2.294   1.167   5.647  0.3507 -0.3187 -0.9716
 2835SOL    MW411108   2.235   1.108   5.621 -0.3299  0.1783  0.2715
 2836SOL     OW11109   2.222   2.958   1.526  0.7384 -0.0289 -0.3898
 2836SOL    HW211110   2.219   2.890   1.458  0.2948 -1.3372  0.9007
 2836SOL    HW311111   2.285   3.022   1.492  1.4449 -1.2536 -1.4984
 2836SOL    MW411112   2.230   2.958   1.512 -0.1924 -0.2770 -0.5315
 2837SOL     OW11113   0.490   1.130   5.398 -0.5367  0.0231 -0.3704
 2837SOL    HW211114   0.405   1.090   5.383 -1.0421  0.7974  0.3493
 2837SOL    HW311115   0.470   1.217   5.433  0.5309  0.9248 -1.8839
 2837SOL    MW411116   0.476   1.136   5.401 -0.0378 -0.1304 -0.3337
 2838SOL     OW11117   6.388   5.225   0.158  0.1633  0.1281  0.2757
 2838SOL    HW211118   6.430   5.254   0.239  3.8362  0.7302 -1.6033
 2838SOL    HW311119   6.358   5.136   0.177 -0.4725  0.7957  2.6667
 2838SOL    MW411120   6.390   5.217   0.171 -0.8229 -0.1329 -0.1622
 2839SOL     OW11121   3.083   5.728   3.638 -0.1620  0.6513  0.6723
 2839SOL    HW211122   2.991   5.700   3.638  0.2810 -1.0832 -1.3960
 2839SOL    HW311123   3.132   5.650   3.662  1.0574 -0.4446 -4.2101
 2839SOL    MW411124   3.077   5.714   3.641 -0.4560  0.0237 -0.6902
 2840SOL     OW11125   4.220   3.723   0.072  0.1337  0.2259 -0.0191
 2840SOL    HW211126   4.189   3.633   0.059 -1.0040  0.6929 -0.7325
 2840SOL    HW311127   4.174   3.753   0.150  0.5128  0.1864  0.2189
 2840SOL    MW411128   4.210   3.715   0.080  0.4277 -0.0204 -0.6451
 2841SOL     OW11129   4.882   1.975   2.119  0.2935  0.3658  0.3774
 2841SOL    HW211130   4.955   1.962   2.178  0.9281  0.6444 -0.3337
 2841SOL    HW311131   4.836   1.891   2.118  0.8455  0.0620  0.4967
 2841SOL    MW411132   4.885   1.963   2.127  0.2430 -0.3573 -1.0787
 2842SOL     OW11133   5.333   0.262   2.520  0.4989 -0.0013 -0.5603
 2842SOL    HW211134   5.329   0.291   2.612  0.4297  0.5712 -0.7415
 2842SOL    HW311135   5.426   0.256   2.501  0.5148 -0.5613 -0.3166
 2842SOL    MW411136   5.345   0.265   2.530  0.2216  0.8653 -0.4146
 2843SOL     OW11137   1.660   0.819   3.699 -0.1925 -0.3262 -0.3443
 2843SOL    HW211138   1.603   0.833   3.624 -2.1500 -1.4344  0.8320
 2843SOL    HW311139   1.621   0.871   3.769  2.0268  1.2992 -0.2165
 2843SOL    MW411140   1.648   0.828   3.698 -0.1701  0.2502 -0.4853
 2844SOL     OW11141   1.740   0.284   0.017  0.1175  0.4438  0.3697
 2844SOL    HW211142   1.681   0.355  -0.008  0.0787  0.8496  1.5165
 2844SOL    HW311143   1.826   0.310  -0.016 -0.2433  0.0757 -0.8998
 2844SOL    MW411144   1.743   0.297   0.010 -0.2600 -0.1095  0.0248
 2845SOL     OW11145   1.544   2.971   0.710 -0.9429 -0.2979  0.6413
 2845SOL    HW211146   1.520   2.883   0.738  1.0686 -0.3654  2.4332
 2845SOL    HW311147   1.590   2.959   0.627 -0.5895 -0.9823  0.9270
 2845SOL    MW411148   1.547   2.958   0.703 -0.2184  0.1940  0.5774
 2846SOL     OW11149   2.365   6.309   2.378  0.2368 -0.7099  0.0296
 2846SOL    HW211150   2.378   6.229   2.429  2.2503 -0.0016  0.7315
 2846SOL    HW311151   2.307   6.363   2.432  0.5555 -0.8647  0.5270
 2846SOL    MW411152   2.359   6.306   2.392  0.1637  0.0027  0.0634
 2847SOL     OW11153   4.332   1.929   0.264 -1.1195 -0.4801 -0.5304
 2847SOL    HW211154   4.371   1.960   0.182 -1.5219 -0.5370 -0.7435
 2847SOL    HW311155   4.361   1.992   0.330 -0.5747 -0.5831 -0.6648
 2847SOL    MW411156   4.341   1.941   0.262 -0.0485  0.3855  0.3121
 2848SOL     OW11157   1.429   2.989   1.392  0.3850  0.0642  0.6260
 2848SOL    HW211158   1.348   3.040   1.399  0.1969 -0.1931  0.3516
 2848SOL    HW311159   1.465   3.011   1.306 -1.0143 -2.1519 -0.6034
 2848SOL    MW411160   1.423   2.999   1.382 -0.1609  0.0420  0.0543
 2849SOL     OW11161   2.272   2.808   3.134 -0.6695 -0.3155 -0.5789
 2849SOL    HW211162   2.340   2.867   3.104 -1.0126  0.2458 -0.2766
 2849SOL    HW311163   2.305   2.775   3.218 -1.6180  1.5185  0.5873
 2849SOL    MW411164   2.285   2.811   3.141  0.4745  0.4681 -0.6767
 2850SOL     OW11165   3.281   1.119   3.222 -0.2942  0.6004 -0.3686
 2850SOL    HW211166   3.200   1.121   3.171 -0.9081  0.8164  0.5703
 2850SOL    HW311167   3.350   1.106   3.158 -0.7479  3.4412 -1.6189
 2850SOL    MW411168   3.279   1.118   3.207 -0.1621 -0.5893  0.6023
 2851SOL     OW11169   5.214   0.185   3.601  0.0650  0.3787 -0.3877
 2851SOL    HW211170   5.292   0.132   3.586  0.3067 -0.0283  1.9542
 2851SOL    HW311171   5.144   0.121   3.611  0.3062  0.4366  2.1569
 2851SOL    MW411172   5.215   0.169   3.600 -0.2801  0.4712 -0.1437
 2852SOL     OW11173   4.136   1.393   0.491  0.0201 -0.2219 -0.6755
 2852SOL    HW211174   4.209   1.428   0.542 -0.9544  1.3422 -0.2780
 2852SOL    HW311175   4.091   1.332   0.550  1.4540 -1.8621 -1.2088
 2852SOL    MW411176   4.139   1.390   0.506  0.3987 -0.2179 -0.4359
 2853SOL     OW11177   2.436   3.777   5.375  0.4164  0.7237 -0.6614
 2853SOL    HW211178   2.373   3.849   5.378 -0.2400  0.3621 -3.3781
 2853SOL    HW311179   2.393   3.704   5.419 -0.3631  0.9824 -0.9884
 2853SOL    MW411180   2.422   3.777   5.381  0.2736 -0.0041 -0.0042
 2854SOL     OW11181   0.368   3.092   1.364  0.0826 -0.0656 -0.4260
 2854SOL    HW211182   0.453   3.050   1.347  0.8720  0.9191  0.9175
 2854SOL    HW311183   0.360   3.092   1.459 -0.0207  2.4749 -0.3636
 2854SOL    MW411184   0.378   3.087   1.374  0.0888  0.3576  0.8676
 2855SOL     OW11185   4.948   1.360   2.010 -0.4645 -0.3144 -0.7510
 2855SOL    HW211186   5.020   1.346   1.948  0.8744  1.2291  0.3911
 2855SOL    HW311187   4.879   1.400   1.958 -0.2260 -1.0907 -1.6978
 2855SOL    MW411188   4.949   1.363   1.995  0.9911  0.3751  0.0781
 2856SOL     OW11189   1.960   4.487   2.124 -0.4385 -0.9116 -0.2993
 2856SOL    HW211190   1.878   4.451   2.158 -0.5974 -0.0905  0.2123
 2856SOL    HW311191   1.946   4.582   2.124 -0.2506 -0.8384 -2.1721
 2856SOL    MW411192   1.947   4.495   2.128 -0.3797  0.3858 -0.4924
 2857SOL     OW11193   0.612   3.003   6.413 -0.1314 -0.2478  0.6907
 2857SOL    HW211194   0.524   2.969   6.433 -0.4647 -0.1914 -0.5830
 2857SOL    HW311195   0.620   2.994   6.318  1.2395 -0.2104  0.7833
 2857SOL    MW411196   0.601   2.997   6.403 -0.2234 -0.6968  0.4721
 2858SOL     OW11197   0.289   4.365   5.488 -0.5534 -0.1535  0.0740
 2858SOL    HW211198   0.255   4.412   5.412 -4.0809 -1.5100  0.6413
 2858SOL    HW311199   0.314   4.279   5.453  0.3644  0.1062  0.0519
 2858SOL    MW411200   0.288   4.360   5.473  0.3345  0.5271 -0.1569
 2859SOL     OW11201   4.080   3.697   4.979  0.6685  0.0166 -0.5717
 2859SOL    HW211202   4.022   3.770   4.959  1.3020  0.2227 -1.7648
 2859SOL    HW311203   4.168   3.734   4.975  0.9879 -0.7528 -0.9114
 2859SOL    MW411204   4.084   3.711   4.976 -0.1312  0.1368  0.5028
 2860SOL     OW11205   4.146   6.309   4.532  0.3599 -0.0905 -0.2343
 2860SOL    HW211206   4.224   6.364   4.522  0.9518 -0.8560  0.0746
 2860SOL    HW311207   4.163   6.234   4.475  0.5499 -1.0008  0.9892
 2860SOL    MW411208   4.159   6.307   4.523 -0.2251  0.2200  0.7394
 2861SOL     OW11209   3.824   6.381   3.204 -0.0091  0.1727  0.3102
 2861SOL    HW211210   3.742   6.414   3.169 -0.3496 -0.9731 -0.0283
 2861SOL    HW311211   3.811   6.286   3.211  2.1125 -0.4352 -2.1242
 2861SOL    MW411212   3.812   6.373   3.200  0.4488 -0.1797 -0.2657
 2862SOL     OW11213   2.366   5.805   0.048 -0.4694  0.5272 -0.0913
 2862SOL    HW211214   2.309   5.730   0.031  3.7516 -2.6904 -1.8935
 2862SOL    HW311215   2.371   5.810   0.144 -1.3860 -1.0417  0.0633
 2862SOL    MW411216   2.359   5.796   0.059  0.1463  0.4490  0.4180
 2863SOL     OW11217   1.723   0.190   4.476 -0.2573  0.1121 -0.0222
 2863SOL    HW211218   1.656   0.244   4.517 -0.5180 -0.8103  0.7981
 2863SOL    HW311219   1.684   0.162   4.393 -1.0736 -0.7572  0.6361
 2863SOL    MW411220   1.709   0.194   4.470 -0.0922 -0.1432  0.3202
 2864SOL     OW11221   1.062   2.798   3.199 -0.5998  0.4534 -0.1199
 2864SOL    HW211222   1.156   2.810   3.196 -0.6540  0.8388 -0.2676
 2864SOL    HW311223   1.045   2.723   3.142 -0.2270 -0.5836  1.0963
 2864SOL    MW411224   1.072   2.790   3.191  0.1529 -0.1354  0.4153
 2865SOL     OW11225   2.167   0.243   4.306  0.3018 -0.3186 -0.2214
 2865SOL    HW211226   2.213   0.197   4.376  1.9755  0.5942 -0.6762
 2865SOL    HW311227   2.232   0.303   4.270 -1.5639  1.8381 -0.1773
 2865SOL    MW411228   2.181   0.245   4.310  0.4539 -0.5834 -0.0823
 2866SOL     OW11229   1.342   1.334   6.431  0.4488 -0.2847 -0.0940
 2866SOL    HW211230   1.303   1.265   6.378 -0.1198 -1.6262  1.9407
 2866SOL    HW311231   1.434   1.308   6.439  0.4102 -0.3825  0.0319
 2866SOL    MW411232   1.349   1.321   6.425 -0.1433  0.0025 -0.2937
 2867SOL     OW11233   1.164   2.289   3.993  0.0574 -0.2814 -0.0593
 2867SOL    HW211234   1.095   2.321   4.052 -0.6470 -0.5054 -0.7500
 2867SOL    HW311235   1.117   2.252   3.919  0.9349 -0.0625 -0.7435
 2867SOL    MW411236   1.149   2.289   3.991  0.0846  0.5561  0.2336
 2868SOL     OW11237   1.141   4.291   0.411 -0.1293  0.0893 -0.1053
 2868SOL    HW211238   1.052   4.262   0.394  0.6117 -0.8194 -2.9210
 2868SOL    HW311239   1.136   4.386   0.415 -1.1535  0.0588 -0.6184
 2868SOL    MW411240   1.129   4.300   0.410 -0.0738 -0.0292  0.3018
 2869SOL     OW11241   1.879   4.651   0.831 -0.5459  0.4840  0.5953
 2869SOL    HW211242   1.799   4.703   0.817 -1.3150 -0.6864  0.4807
 2869SOL    HW311243   1.851   4.580   0.889  0.4627  0.1579  0.6951
 2869SOL    MW411244   1.864   4.648   0.837 -0.0193  0.1295  0.1552
 2870SOL     OW11245   4.576   5.987   3.699 -0.3292 -0.1166  0.2514
 2870SOL    HW211246   4.533   5.916   3.746 -1.5098 -0.0663 -0.7069
 2870SOL    HW311247   4.527   5.996   3.618  1.1798  0.3281 -0.6467
 2870SOL    MW411248   4.564   5.979   3.695 -0.0366  0.3651 -0.0377
 2871SOL     OW11249   3.360   0.845   1.886  0.2792  0.4885 -0.2306
 2871SOL    HW211250   3.407   0.922   1.854  0.2957  1.0431  1.0564
 2871SOL    HW311251   3.283   0.880   1.930  1.3911 -0.0070  2.3162
 2871SOL    MW411252   3.356   0.860   1.888  0.3150  0.1322 -0.7839
 2872SOL     OW11253   2.836   4.870   3.985 -0.0275  0.9016  0.2084
 2872SOL    HW211254   2.793   4.870   3.899  0.3018  0.6975  0.0422
 2872SOL    HW311255   2.909   4.931   3.975 -0.8418  2.0036  0.7832
 2872SOL    MW411256   2.840   4.878   3.972 -0.2077  0.0494 -0.0855
 2873SOL     OW11257   2.160   5.382   2.396  0.3536 -0.6064 -0.5774
 2873SOL    HW211258   2.191   5.313   2.337 -0.9866 -2.8401  1.1910
 2873SOL    HW311259   2.161   5.342   2.483 -0.9675  1.4507  0.4607
 2873SOL    MW411260   2.164   5.368   2.399 -0.1609  0.0558 -0.2157
 2874SOL     OW11261   4.918   0.070   6.382 -0.2289 -0.3237  0.6575
 2874SOL    HW211262   4.949   0.106   6.299 -0.6045  0.2751  0.7721
 2874SOL    HW311263   4.822   0.066   6.372 -0.2159 -0.9928  0.7669
 2874SOL    MW411264   4.909   0.074   6.369 -0.3505 -0.2716 -0.5591
 2875SOL     OW11265   2.419   1.272   5.656  0.1823  0.2803 -0.0893
 2875SOL    HW211266   2.506   1.232   5.651  0.2939  0.6393 -1.4690
 2875SOL    HW311267   2.430   1.359   5.618 -0.8837  0.1522 -0.7255
 2875SOL    MW411268   2.432   1.278   5.651 -0.8791  0.5067  0.2425
 2876SOL     OW11269   4.381   4.597   2.798  0.6827 -0.6545  0.2763
 2876SOL    HW211270   4.453   4.644   2.841  0.4615 -1.1354  1.1882
 2876SOL    HW311271   4.304   4.616   2.851 -0.4137  1.7869 -2.0015
 2876SOL    MW411272   4.381   4.605   2.811  0.2342  0.3256 -0.1899
 2877SOL     OW11273   4.282   6.094   2.531  0.8143  0.5830  0.1520
 2877SOL    HW211274   4.232   6.052   2.461  0.4418  1.3271 -0.0285
 2877SOL    HW311275   4.354   6.033   2.547 -0.1158 -0.4797  0.3949
 2877SOL    MW411276   4.285   6.080   2.524  0.6604  0.6764  0.3918
 2878SOL     OW11277   6.328   2.978   3.480 -0.3709  0.4373  0.3245
 2878SOL    HW211278   6.252   2.960   3.536 -1.1700 -1.8282 -1.3708
 2878SOL    HW311279   6.297   3.043   3.418 -0.7098  0.0584  0.0933
 2878SOL    MW411280   6.314   2.984   3.479 -0.7248  0.4006  0.7061
 2879SOL     OW11281   1.157   2.569   0.817 -0.0334  0.5306  0.5568
 2879SOL    HW211282   1.074   2.534   0.850  0.4794 -1.2596  0.0472
 2879SOL    HW311283   1.135   2.604   0.731 -0.3850  0.6613  0.6967
 2879SOL    MW411284   1.143   2.569   0.810 -0.5364 -0.1941  0.3249
 2880SOL     OW11285   0.486   3.606   0.505  0.3189 -0.0332 -0.2348
 2880SOL    HW211286   0.457   3.529   0.552  0.8863 -1.6701 -2.3929
 2880SOL    HW311287   0.580   3.613   0.523  0.3600 -0.1395 -0.4006
 2880SOL    MW411288   0.495   3.597   0.513  0.0862  0.0651  0.6136
 2881SOL     OW11289   6.364   2.518   6.277 -0.4991 -0.3441 -0.6273
 2881SOL    HW211290   6.376   2.508   6.183  0.1353 -0.4084 -0.5427
 2881SOL    HW311291   6.276   2.484   6.294  0.0256 -1.9819 -0.9518
 2881SOL    MW411292   6.354   2.512   6.267 -0.4723 -0.3000  0.0503
 2882SOL     OW11293   5.306   4.347   4.540 -0.2720 -0.2097  0.6071
 2882SOL    HW211294   5.296   4.256   4.510  2.0594 -0.0713 -0.8713
 2882SOL    HW311295   5.388   4.347   4.589 -0.0905  1.1448  0.3344
 2882SOL    MW411296   5.316   4.335   4.542 -0.1337 -0.0640 -0.8685
 2883SOL     OW11297   1.089   1.830   3.348  0.1148 -0.0936  0.1301
 2883SOL    HW211298   1.153   1.811   3.417  0.2880 -0.5571 -0.1589
 2883SOL    HW311299   1.023   1.883   3.392 -0.7030 -1.8564  1.1195
 2883SOL    MW411300   1.089   1.835   3.363  0.3301 -0.0711 -0.4598
 2884SOL     OW11301   1.416   1.559   4.323  0.1613 -0.8642  0.6762
 2884SOL    HW211302   1.404   1.519   4.237  0.2648  1.3363 -0.4511
 2884SOL    HW311303   1.344   1.524   4.376  0.4794 -2.7556 -0.0736
 2884SOL    MW411304   1.405   1.549   4.319 -0.0215  0.5497 -0.8763
 2885SOL     OW11305   4.669   5.989   1.448 -0.6095  0.0081 -0.2077
 2885SOL    HW211306   4.639   6.004   1.537 -0.6104 -1.7832  0.1356
 2885SOL    HW311307   4.753   6.034   1.442 -0.3865 -0.2493  0.8647
 2885SOL    MW411308   4.676   5.997   1.459 -0.0932 -0.1726 -0.7212
 2886SOL     OW11309   3.162   0.939   1.139 -0.2751 -0.7555  0.0673
 2886SOL    HW211310   3.134   1.016   1.088  1.8415 -0.3327 -0.5619
 2886SOL    HW311311   3.238   0.970   1.188 -0.8538 -1.8246  1.7344
 2886SOL    MW411312   3.168   0.953   1.139 -0.2733  0.0552 -0.3089
 2887SOL     OW11313   6.049   1.915   6.415  0.0124 -0.3071  0.5791
 2887SOL    HW211314   6.008   1.951   6.336 -0.1597  1.8439  1.5839
 2887SOL    HW311315   6.011   1.827   6.422 -1.1388  0.0124 -0.8865
 2887SOL    MW411316   6.038   1.908   6.405 -0.3449  0.5458 -0.0974
 2888SOL     OW11317   3.318   1.103   0.050  0.0014  0.1520 -0.1899
 2888SOL    HW211318   3.381   1.041   0.088 -0.5243  0.6156  1.5281
 2888SOL    HW311319   3.236   1.054   0.046  0.0284  0.1420 -0.6449
 2888SOL    MW411320   3.315   1.088   0.054 -0.0413  0.2822  0.2726
 2889SOL     OW11321   4.736   0.933   4.214 -0.1692  0.4469  0.2414
 2889SOL    HW211322   4.802   0.930   4.145 -1.3105  1.3689 -0.9545
 2889SOL    HW311323   4.668   0.992   4.180 -2.0157 -1.0811  1.0470
 2889SOL    MW411324   4.736   0.940   4.200  0.0491 -0.6259 -0.4018
 2890SOL     OW11325   1.979   3.463   4.246 -0.1489  0.0484 -0.2180
 2890SOL    HW211326   1.897   3.427   4.279 -0.4370  0.7568 -0.1475
 2890SOL    HW311327   1.969   3.558   4.254  0.2859  0.1823 -1.1379
 2890SOL    MW411328   1.967   3.471   4.252 -0.0228  0.5485 -0.4564
 2891SOL     OW11329   1.781   5.243   2.600  0.1050  0.3722 -0.9901
 2891SOL    HW211330   1.688   5.236   2.577 -0.1131 -0.7892  0.1268
 2891SOL    HW311331   1.784   5.225   2.694  1.4009  1.0024 -0.8932
 2891SOL    MW411332   1.769   5.239   2.609  0.6278 -0.1239  0.7364
 2892SOL     OW11333   4.429   2.273   6.385  0.1515  0.0322  0.5197
 2892SOL    HW211334   4.401   2.187   6.356 -1.4560  0.9499 -0.7758
 2892SOL    HW311335   4.519   2.281   6.354 -0.4304 -0.3184 -1.3324
 2892SOL    MW411336   4.437   2.263   6.377  0.0201 -0.4525 -0.2053
 2893SOL     OW11337   0.587   1.533   0.514  0.0915  0.2505 -0.1006
 2893SOL    HW211338   0.542   1.535   0.429 -0.6664 -2.0113  0.1857
 2893SOL    HW311339   0.656   1.599   0.506 -0.1389  0.2868 -2.3719
 2893SOL    MW411340   0.590   1.542   0.502 -0.2369 -0.0901  0.0503
 2894SOL     OW11341   3.679   4.727   4.021  0.2715  0.5446 -0.7530
 2894SOL    HW211342   3.675   4.752   4.113  1.5883  0.7557 -0.7253
 2894SOL    HW311343   3.683   4.810   3.974 -1.7429  0.4772 -1.1234
 2894SOL    MW411344   3.679   4.742   4.027  0.3851 -0.4100 -0.0825
 2895SOL     OW11345   4.311   3.342   5.325 -0.3200  0.1762  0.8682
 2895SOL    HW211346   4.235   3.295   5.360  0.2489 -0.3460  1.4195
 2895SOL    HW311347   4.287   3.362   5.235 -0.7178 -0.8401  0.7383
 2895SOL    MW411348   4.298   3.339   5.318  0.4871  0.1208 -0.3371
 2896SOL     OW11349   2.615   5.483   3.415  0.0455 -0.3567 -0.0236
 2896SOL    HW211350   2.574   5.569   3.421 -1.0681 -0.8753  0.0880
 2896SOL    HW311351   2.573   5.442   3.339  0.7644 -0.7099 -0.2441
 2896SOL    MW411352   2.604   5.489   3.406  0.1283  0.0418  0.4036
 2897SOL     OW11353   2.391   3.322   4.756  0.2163  0.1808  0.9029
 2897SOL    HW211354   2.445   3.349   4.682  0.7537 -1.1688  0.7748
 2897SOL    HW311355   2.452   3.314   4.829 -0.1041  0.2838  1.1853
 2897SOL    MW411356   2.406   3.325   4.756  0.4610  0.3806  0.2808
 2898SOL     OW11357   3.180   5.594   0.737 -0.3516  0.3290  0.1283
 2898SOL    HW211358   3.158   5.505   0.707  1.0236 -0.5358  1.5021
 2898SOL    HW311359   3.101   5.624   0.783 -0.7005 -0.3507 -0.0101
 2898SOL    MW411360   3.167   5.586   0.739  0.4279  0.2893 -0.0847
 2899SOL     OW11361   4.087   5.902   2.392  0.2773  0.2271 -0.1823
 2899SOL    HW211362   4.081   5.871   2.483  0.5945  1.1499  0.1601
 2899SOL    HW311363   4.095   5.821   2.341  0.7374 -0.2856  0.6622
 2899SOL    MW411364   4.087   5.887   2.398 -0.1421  0.4563 -0.3568
 2900SOL     OW11365   4.012   0.724   6.177 -0.2020  0.6632 -0.8737
 2900SOL    HW211366   4.042   0.636   6.157  0.4887  0.8981 -0.8883
 2900SOL    HW311367   4.022   0.732   6.272  0.7424  1.0880 -1.0032
 2900SOL    MW411368   4.017   0.714   6.187  0.0132  0.1855  0.0344
 2901SOL     OW11369   1.848   3.993   1.052  0.0176  0.5109 -0.2161
 2901SOL    HW211370   1.929   4.015   1.097  0.4763  2.0052 -1.6644
 2901SOL    HW311371   1.876   3.935   0.980  0.0827  2.2173 -1.6318
 2901SOL    MW411372   1.863   3.988   1.048 -0.2041  0.1789 -0.7457
 2902SOL     OW11373   1.097   1.020   1.587 -0.1676  0.3650  0.9955
 2902SOL    HW211374   1.157   0.956   1.550 -2.3890 -1.9440  1.1507
 2902SOL    HW311375   1.145   1.057   1.662  1.4333 -0.6163  0.4954
 2902SOL    MW411376   1.112   1.017   1.592  1.1394  0.2439 -0.2623
 2903SOL     OW11377   2.515   6.004   6.072  0.3562 -0.0272 -0.2761
 2903SOL    HW211378   2.438   6.026   6.125  0.1124 -1.2584 -0.0707
 2903SOL    HW311379   2.578   6.073   6.090  0.7625 -1.0266  2.6549
 2903SOL    MW411380   2.513   6.016   6.081  0.1367 -0.1794  0.5434
 2904SOL     OW11381   1.448   3.669   2.882  0.2902  0.0961 -0.3796
 2904SOL    HW211382   1.359   3.703   2.868  0.2425  0.5835  1.0105
 2904SOL    HW311383   1.442   3.619   2.963  1.3058  0.1938 -0.2389
 2904SOL    MW411384   1.435   3.667   2.891  0.5680  0.8390 -0.4915
 2905SOL     OW11385   3.710   4.931   4.685 -0.0370 -0.2055  0.3687
 2905SOL    HW211386   3.628   4.882   4.695  1.8214 -3.9079 -0.6996
 2905SOL    HW311387   3.715   4.949   4.591  0.1590  0.4548  0.5014
 2905SOL    MW411388   3.700   4.927   4.674  0.2816 -0.2358 -0.2514
 2906SOL     OW11389   5.783   2.200   0.186 -0.2358  0.3102 -0.6349
 2906SOL    HW211390   5.803   2.116   0.228  1.2393  1.0531  0.2392
 2906SOL    HW311391   5.693   2.220   0.214  0.0533 -0.1139  0.6772
 2906SOL    MW411392   5.774   2.192   0.195 -0.0012  0.1391  0.6081
 2907SOL     OW11393   0.709   1.898   0.202  0.0213  0.3420 -0.4098
 2907SOL    HW211394   0.712   1.920   0.108 -3.7388  0.6430 -0.6045
 2907SOL    HW311395   0.710   1.803   0.204  0.3132  0.3344 -0.7605
 2907SOL    MW411396   0.709   1.889   0.190  0.3469  0.2535  0.4554
 2908SOL     OW11397   2.177   5.246   6.111  0.3184 -0.2567 -0.2334
 2908SOL    HW211398   2.206   5.247   6.020 -1.7270 -1.4389 -0.9527
 2908SOL    HW311399   2.258   5.235   6.162  2.0035  3.8690 -1.5760
 2908SOL    MW411400   2.192   5.245   6.106  0.6373  0.1765  0.6486
 2909SOL     OW11401   5.681   0.840   5.125  0.3070 -0.4988  0.6117
 2909SOL    HW211402   5.720   0.913   5.174  1.3214 -0.0370 -0.8333
 2909SOL    HW311403   5.756   0.796   5.084 -0.3977 -1.7250  0.5997
 2909SOL    MW411404   5.696   0.844   5.126 -0.0887  0.1480  0.2308
 2910SOL     OW11405   5.690   5.191   4.590 -0.1735 -0.2726  0.2057
 2910SOL    HW211406   5.760   5.128   4.606  0.1843 -0.0405 -0.4046
 2910SOL    HW311407   5.610   5.139   4.590  0.0338 -0.5965  0.5421
 2910SOL    MW411408   5.689   5.176   4.592 -0.1054  0.0751 -0.3930
 2911SOL     OW11409   2.873   0.426   2.792 -0.1469  0.3083  0.1775
 2911SOL    HW211410   2.943   0.375   2.832  0.3818  1.1886  0.4023
 2911SOL    HW311411   2.835   0.476   2.865 -0.5642  0.3495 -0.0614
 2911SOL    MW411412   2.877   0.426   2.807  0.0545 -0.8387  0.5221
 2912SOL     OW11413   2.583   6.360   1.279 -0.0272 -0.2160 -0.1997
 2912SOL    HW211414   2.522   6.365   1.352 -0.6222 -1.1938 -0.6003
 2912SOL    HW311415   2.541   6.300   1.217  1.1238 -0.5407 -0.6978
 2912SOL    MW411416   2.569   6.353   1.280  0.3508  0.0062  0.4042
 2913SOL     OW11417   2.447   4.099   4.336 -0.5012 -0.0337  0.3409
 2913SOL    HW211418   2.407   4.175   4.293 -0.7366  0.2172  0.9943
 2913SOL    HW311419   2.484   4.134   4.417 -1.0794 -0.7060  0.9113
 2913SOL    MW411420   2.446   4.114   4.341  0.7671  0.2186 -0.6158
 2914SOL     OW11421   6.328   2.103   4.659 -0.2689 -0.1301  0.4345
 2914SOL    HW211422   6.324   2.104   4.563 -1.0239 -0.2901  0.4599
 2914SOL    HW311423   6.273   2.177   4.685  1.8289  1.4274  0.7068
 2914SOL    MW411424   6.321   2.113   4.649 -0.4451  0.2965 -0.4792
 2915SOL     OW11425   5.462   4.015   4.632  0.4358  0.2372  0.5291
 2915SOL    HW211426   5.553   4.044   4.637  0.2009  0.9974  0.5595
 2915SOL    HW311427   5.418   4.060   4.704 -0.1509  0.5988 -0.0458
 2915SOL    MW411428   5.468   4.025   4.642  0.3470  0.1446 -0.3312
 2916SOL     OW11429   4.139   2.911   2.995  0.2955 -0.1648 -0.3717
 2916SOL    HW211430   4.046   2.929   2.982  0.2225 -0.6571 -0.5199
 2916SOL    HW311431   4.158   2.837   2.939  0.6673 -0.3748  0.0255
 2916SOL    MW411432   4.130   2.904   2.986 -0.5428  0.3051 -0.1215
 2917SOL     OW11433   1.090   2.683   5.693 -0.0428 -0.2611 -0.2353
 2917SOL    HW211434   1.068   2.734   5.771 -0.1632 -1.7379  0.7345
 2917SOL    HW311435   1.112   2.749   5.627 -1.4021  1.0749  0.5756
 2917SOL    MW411436   1.090   2.699   5.694 -0.1940 -0.1295  0.1800
 2918SOL     OW11437   2.192   4.798   2.239  0.0213  0.2724 -0.7246
 2918SOL    HW211438   2.207   4.888   2.267  2.0932 -0.3526  0.3983
 2918SOL    HW311439   2.161   4.753   2.318  1.0158 -0.4217 -0.7131
 2918SOL    MW411440   2.190   4.804   2.253  0.1974  0.0852  0.6011
 2919SOL     OW11441   3.163   3.074   1.244 -0.2525  0.5125 -0.4033
 2919SOL    HW211442   3.237   3.031   1.201  0.2333  1.0303 -0.0845
 2919SOL    HW311443   3.174   3.167   1.225 -0.7712  0.6083 -0.2733
 2919SOL    MW411444   3.174   3.081   1.236  0.3248 -0.9345  0.2605
 2920SOL     OW11445   0.153   1.311   2.047 -0.0786 -0.0717  0.0882
 2920SOL    HW211446   0.105   1.251   1.990 -1.7440 -0.4451  1.7814
 2920SOL    HW311447   0.085   1.351   2.101  1.2232  1.8263  0.4109
 2920SOL    MW411448   0.138   1.309   2.046  0.0936  0.3452  0.2889
 2921SOL     OW11449   2.622   0.854   3.027 -0.4427 -0.1352 -0.1679
 2921SOL    HW211450   2.537   0.836   3.066 -0.1696  2.5210  2.0085
 2921SOL    HW311451   2.603   0.910   2.951 -0.6908 -0.4919 -0.3689
 2921SOL    MW411452   2.608   0.859   3.022 -0.0080 -0.2483 -0.2641
 2922SOL     OW11453   5.219   4.705   1.739 -0.0619 -0.2254 -0.6247
 2922SOL    HW211454   5.231   4.747   1.653 -0.1159 -0.1684 -0.6042
 2922SOL    HW311455   5.168   4.767   1.789  2.2010  0.9435  0.3564
 2922SOL    MW411456   5.214   4.718   1.734  0.2337  0.0950  0.4455
 2923SOL     OW11457   5.861   0.942   5.554 -0.0092  0.8365 -0.0405
 2923SOL    HW211458   5.946   0.939   5.599  0.6882  0.9702 -1.3062
 2923SOL    HW311459   5.806   0.880   5.602  0.9745  0.3207  0.4455
 2923SOL    MW411460   5.865   0.934   5.566 -0.1743  0.1403  0.3719
 2924SOL     OW11461   4.989   1.310   5.996 -0.0367 -0.2123  0.3134
 2924SOL    HW211462   4.948   1.395   5.978  1.9784  1.0738  1.4262
 2924SOL    HW311463   4.964   1.290   6.086  0.1827 -0.3692  0.3404
 2924SOL    MW411464   4.980   1.319   6.005 -0.2821 -0.7227  0.0180
 2925SOL     OW11465   4.431   5.050   5.027  0.0186  0.0460 -0.3852
 2925SOL    HW211466   4.520   5.029   5.054  0.4575  1.0235 -0.9889
 2925SOL    HW311467   4.379   5.042   5.107  0.9183  0.8819  0.3182
 2925SOL    MW411468   4.436   5.046   5.041 -0.3740 -0.4156 -0.0566
 2926SOL     OW11469   2.483   3.755   0.552  0.1670 -0.1201  0.1487
 2926SOL    HW211470   2.564   3.790   0.514 -0.6667  0.1245 -1.5127
 2926SOL    HW311471   2.493   3.660   0.544  0.8755 -0.1507  1.2608
 2926SOL    MW411472   2.495   3.747   0.546  0.4395 -0.0258  0.2637
 2927SOL     OW11473   1.068   2.379   5.867  0.4220 -0.2884 -0.2079
 2927SOL    HW211474   1.098   2.451   5.923  0.0179 -0.0078 -0.3398
 2927SOL    HW311475   1.028   2.317   5.927 -2.4075  1.2168 -0.3676
 2927SOL    MW411476   1.067   2.381   5.882 -0.0268 -0.5124 -0.5190
 2928SOL     OW11477   3.425   3.103   5.311 -0.3574  0.4610  0.2510
 2928SOL    HW211478   3.412   3.153   5.392 -2.0643  0.0363  0.2913
 2928SOL    HW311479   3.501   3.144   5.269  0.9732  0.2919  2.3445
 2928SOL    MW411480   3.433   3.115   5.316  0.7320  0.6868 -0.2991
 2929SOL     OW11481   5.181   5.344   1.182  0.2362 -0.6405 -0.4416
 2929SOL    HW211482   5.180   5.253   1.151  1.3508 -0.2951 -1.5610
 2929SOL    HW311483   5.180   5.337   1.277  2.1172 -1.9031 -0.4674
 2929SOL    MW411484   5.181   5.331   1.190  0.2262  0.4128  0.0277
 2930SOL     OW11485   3.816   3.785   0.420 -0.7248  0.1327  0.0869
 2930SOL    HW211486   3.762   3.861   0.399 -1.9959 -0.9519 -0.6868
 2930SOL    HW311487   3.754   3.718   0.448  0.3996 -0.5376  1.0662
 2930SOL    MW411488   3.801   3.787   0.421 -0.3736  0.3509 -0.6689
 2931SOL     OW11489   2.436   0.758   2.026  0.5023  0.2551 -0.0802
 2931SOL    HW211490   2.367   0.740   2.090 -2.6097 -0.9543 -3.4686
 2931SOL    HW311491   2.419   0.846   1.995  1.8304  0.7321  0.4502
 2931SOL    MW411492   2.425   0.767   2.030 -0.2794  0.1396 -0.2399
 2932SOL     OW11493   0.292   2.135   0.791 -0.0245  0.1131  0.2208
 2932SOL    HW211494   0.382   2.166   0.782  0.1554 -0.6681 -0.8646
 2932SOL    HW311495   0.279   2.127   0.886  1.0661  0.1777  0.3863
 2932SOL    MW411496   0.302   2.138   0.802 -0.6681 -0.5731 -0.1953
 2933SOL     OW11497   3.233   5.783   5.662  0.1784  0.0195 -0.4252
 2933SOL    HW211498   3.328   5.790   5.671 -0.1377  2.5516  2.3267
 2933SOL    HW311499   3.203   5.873   5.650 -1.9772 -0.5365  0.3782
 2933SOL    MW411500   3.242   5.796   5.662 -0.3433 -0.5398 -0.1383
 2934SOL     OW11501   3.477   1.014   5.974 -0.2775  0.3173 -0.2179
 2934SOL    HW211502   3.494   0.920   5.961  1.2329  0.6071 -0.5035
 2934SOL    HW311503   3.504   1.030   6.065 -2.5436  0.0833  0.5630
 2934SOL    MW411504   3.482   1.004   5.985  0.5596  0.5342  0.2205
 2935SOL     OW11505   2.201   5.916   2.103 -0.1162 -0.0594 -0.4589
 2935SOL    HW211506   2.253   5.994   2.123  1.0955 -0.9252 -0.1453
 2935SOL    HW311507   2.206   5.863   2.182 -0.6046 -0.6371 -0.8111
 2935SOL    MW411508   2.208   5.919   2.116 -0.7206  0.1580 -0.1370
 2936SOL     OW11509   0.616   5.168   5.256 -0.1953  0.9023 -0.1447
 2936SOL    HW211510   0.647   5.116   5.183 -0.7543  1.5022 -0.8318
 2936SOL    HW311511   0.543   5.119   5.292 -0.4444  0.9952 -0.5170
 2936SOL    MW411512   0.611   5.155   5.251 -0.7313 -0.5754  0.8097
 2937SOL     OW11513   4.512   4.017   3.123 -0.0058 -0.4655 -0.6377
 2937SOL    HW211514   4.484   4.043   3.210 -0.2051  1.2905 -1.1882
 2937SOL    HW311515   4.603   3.989   3.134 -0.7355 -2.6252  0.5068
 2937SOL    MW411516   4.521   4.017   3.136  0.2307  0.2884  0.4257
 2938SOL     OW11517   5.589   2.322   5.683 -0.1757 -0.2900  0.2010
 2938SOL    HW211518   5.541   2.370   5.750  0.6343  0.3907  0.3208
 2938SOL    HW311519   5.681   2.326   5.712  0.0743 -0.7605 -0.4869
 2938SOL    MW411520   5.595   2.329   5.696 -0.4077  0.2532  0.5338
 2939SOL     OW11521   0.439   0.214   1.776 -0.2145  0.0495  0.0069
 2939SOL    HW211522   0.485   0.297   1.764 -0.6812  0.3226  0.0817
 2939SOL    HW311523   0.362   0.236   1.829 -0.6777 -0.3181 -0.5001
 2939SOL    MW411524   0.435   0.228   1.781  0.3569 -0.3925  0.1805
 2940SOL     OW11525   0.465   5.957   4.966 -0.2159 -0.1260 -0.4925
 2940SOL    HW211526   0.478   6.024   5.033  0.1250 -0.6066 -0.0759
 2940SOL    HW311527   0.411   6.000   4.899 -3.1551 -0.5137  1.4551
 2940SOL    MW411528   0.460   5.972   4.966 -0.2545  0.3299 -0.3285
 2941SOL     OW11529   0.492   1.427   4.961  0.0476 -0.7583 -0.0179
 2941SOL    HW211530   0.572   1.433   4.909  0.6153 -0.0334  0.9150
 2941SOL    HW311531   0.422   1.433   4.897  0.7293  0.1378 -0.7168
 2941SOL    MW411532   0.494   1.429   4.946  0.2358  0.3721  0.6758
 2942SOL     OW11533   1.110   1.504   6.434 -0.2293  0.1978 -0.1724
 2942SOL    HW211534   1.072   1.508   6.346 -0.6782 -0.0958  0.0026
 2942SOL    HW311535   1.193   1.458   6.423 -0.3694  0.0043 -0.4156
 2942SOL    MW411536   1.116   1.499   6.421  0.4227  0.2164  0.5823
 2943SOL     OW11537   3.001   2.234   0.945 -0.1451 -0.1307 -0.1182
 2943SOL    HW211538   2.945   2.190   1.009  0.2858  2.2033  1.9832
 2943SOL    HW311539   2.989   2.327   0.962  2.2148  0.5122 -1.5023
 2943SOL    MW411540   2.992   2.240   0.955 -0.3054 -0.7785  0.1589
 2944SOL     OW11541   2.674   6.270   1.647 -0.5916 -0.4296 -0.1886
 2944SOL    HW211542   2.716   6.254   1.562  0.5623 -0.1749  0.3169
 2944SOL    HW311543   2.641   6.185   1.674  1.4900 -1.0967  0.3814
 2944SOL    MW411544   2.675   6.257   1.639 -0.2418 -0.1853 -0.5540
 2945SOL     OW11545   5.946   3.629   5.161  0.4580 -0.5538  0.2322
 2945SOL    HW211546   5.971   3.698   5.099 -1.7532  0.2753  0.1784
 2945SOL    HW311547   5.880   3.578   5.114  0.0296 -0.9871  1.2731
 2945SOL    MW411548   5.941   3.631   5.146  0.0965  0.6752 -0.4029
 2946SOL     OW11549   5.899   2.883   2.860  0.6977 -0.1495 -0.1760
 2946SOL    HW211550   5.880   2.839   2.942 -2.4261  1.5385  0.1556
 2946SOL    HW311551   5.858   2.969   2.869 -0.4337 -0.1694 -3.7653
 2946SOL    MW411552   5.891   2.889   2.872  0.6088 -0.0046  0.1468
 2947SOL     OW11553   0.844   3.293   6.088 -0.2760 -0.0121  0.0793
 2947SOL    HW211554   0.821   3.378   6.050 -1.3653 -1.2926 -2.3283
 2947SOL    HW311555   0.781   3.281   6.159 -1.6486  0.1974 -1.0751
 2947SOL    MW411556   0.833   3.302   6.093 -0.5528 -0.0226 -0.0197
 2948SOL     OW11557   3.390   2.220   4.990  0.4513  0.3806  0.6990
 2948SOL    HW211558   3.385   2.315   4.981  0.3651  0.3948  0.8988
 2948SOL    HW311559   3.467   2.195   4.937 -0.3297  0.4019 -0.4890
 2948SOL    MW411560   3.400   2.229   4.982 -0.1122 -0.2719 -0.2017
 2949SOL     OW11561   3.266   4.774   4.077  0.9110 -0.4292  0.2150
 2949SOL    HW211562   3.174   4.758   4.095  1.0479 -1.4055  0.1033
 2949SOL    HW311563   3.272   4.783   3.982  0.8969 -0.1240  0.2424
 2949SOL    MW411564   3.255   4.773   4.067  0.0012 -0.4257  0.3373
 2950SOL     OW11565   1.370   0.898   4.199 -0.6498  0.1812 -0.1623
 2950SOL    HW211566   1.315   0.821   4.213  1.9377 -1.6588  0.8625
 2950SOL    HW311567   1.431   0.897   4.273  0.1211  2.6716 -0.6789
 2950SOL    MW411568   1.371   0.887   4.211  0.4055  0.3130 -0.0772
 2951SOL     OW11569   5.351   0.745   6.148  0.6872  0.1099  0.3183
 2951SOL    HW211570   5.368   0.657   6.115  0.4658  0.0963  0.2328
 2951SOL    HW311571   5.258   0.759   6.129  1.0408  0.8942 -0.9355
 2951SOL    MW411572   5.341   0.735   6.141 -0.7031  0.3854 -0.7241
 2952SOL     OW11573   3.565   1.267   0.551  0.2964 -0.4273 -0.2089
 2952SOL    HW211574   3.556   1.306   0.638 -3.2833 -0.6812 -0.2924
 2952SOL    HW311575   3.527   1.332   0.492 -1.7178 -2.1007 -0.8900
 2952SOL    MW411576   3.559   1.280   0.555 -0.3719 -0.2207  0.2084
 2953SOL     OW11577   3.377   2.775   0.892 -0.0808  0.4280 -0.2287
 2953SOL    HW211578   3.369   2.730   0.977 -1.4774  1.9100  0.4934
 2953SOL    HW311579   3.439   2.722   0.843  1.9782  0.3197  2.2646
 2953SOL    MW411580   3.384   2.762   0.897 -0.1924 -0.4084 -0.4973
 2954SOL     OW11581   0.790   4.031   2.481 -0.1442  0.0136  0.0230
 2954SOL    HW211582   0.742   4.114   2.478  1.8198  1.3692  2.4414
 2954SOL    HW311583   0.845   4.032   2.402  0.7147  1.6491  0.5907
 2954SOL    MW411584   0.791   4.042   2.470  0.2807 -0.5722 -0.3191
 2955SOL     OW11585   6.079   0.015   2.137 -0.6527  0.4998 -0.2571
 2955SOL    HW211586   6.007   0.052   2.085 -0.4127 -0.6694 -1.4669
 2955SOL    HW311587   6.158   0.053   2.099 -0.5752  1.5106  0.8466
 2955SOL    MW411588   6.080   0.025   2.125  0.1586 -0.0508 -0.1324
 2956SOL     OW11589   5.232   1.909   1.469 -0.1715  0.2515 -0.0661
 2956SOL    HW211590   5.296   1.846   1.504  0.1428  0.4892 -0.2112
 2956SOL    HW311591   5.225   1.976   1.538 -0.9841 -0.2621  0.3706
 2956SOL    MW411592   5.240   1.910   1.483  0.5186 -0.4127 -0.2817
 2957SOL     OW11593   1.766   5.119   4.691 -0.3061  0.3864 -0.1739
 2957SOL    HW211594   1.749   5.207   4.724 -0.6262 -0.1206  1.0555
 2957SOL    HW311595   1.858   5.122   4.663  0.1805  0.6744  1.3578
 2957SOL    MW411596   1.776   5.131   4.691  0.6999  0.1365 -0.2077
 2958SOL     OW11597   0.351   2.786   3.123  0.4078  0.2681 -0.7855
 2958SOL    HW211598   0.306   2.770   3.040  0.0583 -0.2169 -0.5124
 2958SOL    HW311599   0.438   2.748   3.110  0.1113 -0.4715 -0.6908
 2958SOL    MW411600   0.357   2.779   3.110 -0.2932  0.2356  0.0353
 2959SOL     OW11601   0.127   4.654   1.036  0.3350  0.3456 -0.2147
 2959SOL    HW211602   0.037   4.667   1.009  0.1321 -0.9141 -0.2001
 2959SOL    HW311603   0.161   4.742   1.049 -0.7731  0.8454 -0.5908
 2959SOL    MW411604   0.120   4.667   1.034 -0.3863 -0.1335 -0.6606
 2960SOL     OW11605   5.512   4.971   3.425 -0.1141 -0.1627 -0.0573
 2960SOL    HW211606   5.536   5.054   3.385  1.9199 -1.1532 -1.0521
 2960SOL    HW311607   5.546   4.904   3.365 -2.3631 -1.7565  0.3090
 2960SOL    MW411608   5.520   4.973   3.412  0.3104  0.0881  0.2701
 2961SOL     OW11609   6.042   0.755   4.679 -0.3789 -0.3384 -0.0810
 2961SOL    HW211610   5.948   0.762   4.662 -0.2382  1.4434 -0.3544
 2961SOL    HW311611   6.067   0.842   4.711  1.0929 -0.9282  0.4698
 2961SOL    MW411612   6.033   0.768   4.681 -0.0192  0.1589  0.4312
 2962SOL     OW11613   3.708   2.060   0.235 -0.0982  0.4466 -0.4474
 2962SOL    HW211614   3.697   1.968   0.214 -0.0119  0.5863 -1.1383
 2962SOL    HW311615   3.632   2.103   0.197 -0.5316  0.5696  0.5330
 2962SOL    MW411616   3.697   2.054   0.227  0.6366  0.3409  0.3720
 2963SOL     OW11617   0.172   5.146   6.192  0.1892  0.0615 -0.3351
 2963SOL    HW211618   0.174   5.190   6.277 -1.1697  0.3582 -0.4461
 2963SOL    HW311619   0.242   5.081   6.198 -1.4603 -1.6300  1.9249
 2963SOL    MW411620   0.182   5.144   6.204  0.6811 -0.1305  0.2315
 2964SOL     OW11621   5.546   1.171   4.645 -0.4746  0.2761  0.5977
 2964SOL    HW211622   5.468   1.128   4.609 -1.3186  1.9749  0.2910
 2964SOL    HW311623   5.582   1.221   4.572  1.3988 -1.0696  0.5208
 2964SOL    MW411624   5.541   1.172   4.631 -0.4073 -0.0380 -0.4777
 2965SOL     OW11625   4.875   6.162   2.679 -0.6207  0.1865  0.3111
 2965SOL    HW211626   4.937   6.180   2.750 -0.3308 -4.0394  1.4345
 2965SOL    HW311627   4.798   6.126   2.723 -2.0076  0.9651 -1.3509
 2965SOL    MW411628   4.873   6.159   2.694 -0.0382 -0.0929  0.2604
 2966SOL     OW11629   5.149   2.671   2.195  0.4829  0.0353  0.4438
 2966SOL    HW211630   5.112   2.653   2.282 -2.2553  0.6070 -0.5158
 2966SOL    HW311631   5.221   2.608   2.187 -1.1670 -2.2028  1.9243
 2966SOL    MW411632   5.154   2.660   2.206 -0.2769  0.1022  0.4781
 2967SOL     OW11633   3.095   6.165   3.393 -0.3154 -0.5713 -0.4770
 2967SOL    HW211634   3.151   6.112   3.449 -0.7471 -0.5436 -0.0207
 2967SOL    HW311635   3.154   6.231   3.356  0.3051 -1.5989 -1.3575
 2967SOL    MW411636   3.110   6.167   3.395  0.0123 -0.4661 -0.0674
 2968SOL     OW11637   5.108   5.366   1.916  0.6186  0.4784  0.2271
 2968SOL    HW211638   5.023   5.383   1.958  0.2566 -0.0415 -0.2725
 2968SOL    HW311639   5.143   5.289   1.960  0.6744  0.4956  0.2133
 2968SOL    MW411640   5.101   5.358   1.927  0.2784  0.8389  0.3141
 2969SOL     OW11641   5.511   4.765   0.239 -0.9458 -0.2258 -0.7716
 2969SOL    HW211642   5.478   4.706   0.171  1.1112 -1.1164 -1.0798
 2969SOL    HW311643   5.590   4.803   0.200  0.8241 -1.4669  1.4126
 2969SOL    MW411644   5.517   4.762   0.225  0.1227  0.6403  0.8463
 2970SOL     OW11645   0.194   3.923   0.427  0.2162  0.2403 -0.2807
 2970SOL    HW211646   0.272   3.963   0.391  1.6135 -0.2544  1.9677
 2970SOL    HW311647   0.217   3.903   0.518 -2.5228  0.0657  0.4693
 2970SOL    MW411648   0.207   3.925   0.435  0.0659 -0.0479 -0.8948
 2971SOL     OW11649   1.071   0.741   3.162 -0.2180  0.0741 -0.5220
 2971SOL    HW211650   1.086   0.827   3.122  0.2519 -0.6321 -1.9501
 2971SOL    HW311651   1.155   0.718   3.201  0.2670 -0.5684 -1.8754
 2971SOL    MW411652   1.084   0.750   3.162 -0.2388  0.1412 -0.7567
 2972SOL     OW11653   4.568   1.819   5.469  0.4568 -0.1356 -0.0684
 2972SOL    HW211654   4.570   1.723   5.478  1.6517 -0.2511 -1.1196
 2972SOL    HW311655   4.548   1.833   5.377  3.3856  0.4983 -0.7151
 2972SOL    MW411656   4.566   1.808   5.458  0.2093  1.0153 -0.1444
 2973SOL     OW11657   2.827   0.066   0.227  0.0988  0.2238 -0.0679
 2973SOL    HW211658   2.767  -0.008   0.226 -0.3992  0.5131  2.1571
 2973SOL    HW311659   2.777   0.138   0.186 -0.0106 -0.2454 -0.7697
 2973SOL    MW411660   2.812   0.066   0.222 -0.1502 -0.1887  0.0785
 2974SOL     OW11661   0.646   5.570   0.563  0.7027 -0.3040 -0.4005
 2974SOL    HW211662   0.572   5.526   0.604 -0.7830  2.6704  0.3989
 2974SOL    HW311663   0.723   5.532   0.605 -0.6323  0.3216  2.9496
 2974SOL    MW411664   0.647   5.560   0.574  0.5347  0.2832  0.3874
 2975SOL     OW11665   5.288   5.785   2.880  0.0221  0.9206 -0.0244
 2975SOL    HW211666   5.317   5.813   2.967  2.2429 -0.6258 -0.1914
 2975SOL    HW311667   5.205   5.738   2.897  0.2507  0.9247  1.2157
 2975SOL    MW411668   5.281   5.782   2.894  0.1798 -0.0746 -0.6246
 2976SOL     OW11669   6.131   4.291   6.282 -0.1506  0.3040 -0.1837
 2976SOL    HW211670   6.071   4.351   6.238  1.0182  1.2737 -0.4972
 2976SOL    HW311671   6.172   4.343   6.351 -0.7660 -0.7626  1.0236
 2976SOL    MW411672   6.128   4.305   6.285 -0.2061  0.4108  0.8102
 2977SOL     OW11673   0.723   4.867   6.005 -0.3216 -0.0954 -0.4314
 2977SOL    HW211674   0.692   4.957   5.995  0.6556  0.2872 -0.1001
 2977SOL    HW311675   0.644   4.818   6.028 -0.6129  0.9609  0.9838
 2977SOL    MW411676   0.708   4.872   6.007  0.3825 -0.2900 -0.2263
 2978SOL     OW11677   0.367   5.166   1.096 -0.1132 -0.3635 -0.4779
 2978SOL    HW211678   0.424   5.225   1.146 -0.2795  0.0825 -0.8098
 2978SOL    HW311679   0.324   5.222   1.033 -0.0696 -0.8866 -0.9836
 2978SOL    MW411680   0.369   5.181   1.095  0.2384 -0.1023 -0.1809
 2979SOL     OW11681   0.038   1.660   2.005 -0.3385  0.2166  0.0847
 2979SOL    HW211682  -0.028   1.597   1.974 -0.2524  0.2661 -0.2053
 2979SOL    HW311683   0.070   1.702   1.925  0.8431 -0.5927  0.1010
 2979SOL    MW411684   0.034   1.657   1.990  0.1545 -0.0801 -0.3478
 2980SOL     OW11685   2.870   5.127   4.585  0.1020  0.3113 -0.2836
 2980SOL    HW211686   2.810   5.180   4.533  0.3071  2.2141  1.2883
 2980SOL    HW311687   2.813   5.080   4.646  0.1267  1.9575  1.0699
 2980SOL    MW411688   2.855   5.127   4.586 -0.2958 -0.2505 -0.3864
 2981SOL     OW11689   2.723   2.680   3.420  0.3403  0.2655  0.2282
 2981SOL    HW211690   2.680   2.695   3.504  0.5754  0.6739  0.2816
 2981SOL    HW311691   2.691   2.750   3.364 -0.6433 -0.6337 -0.3560
 2981SOL    MW411692   2.713   2.691   3.424  0.1986 -0.0878  0.2992
 2982SOL     OW11693   3.946   0.813   5.925 -0.2919  0.1425 -0.2045
 2982SOL    HW211694   3.947   0.909   5.922 -1.0152  0.1419 -0.5669
 2982SOL    HW311695   3.986   0.792   6.009 -3.2359  0.8871  1.5561
 2982SOL    MW411696   3.951   0.823   5.936  0.4211 -0.1305 -0.4693
 2983SOL     OW11697   3.333   6.098   2.793  0.3330 -0.1786 -0.4487
 2983SOL    HW211698   3.309   6.017   2.749  1.2565 -0.4304 -0.5062
 2983SOL    HW311699   3.309   6.167   2.731 -1.1523 -0.3424 -0.0935
 2983SOL    MW411700   3.327   6.097   2.779  0.5945 -0.3333  0.0967
 2984SOL     OW11701   2.252   3.077   0.569  0.1991 -0.5298 -0.4536
 2984SOL    HW211702   2.250   3.156   0.515 -0.9620 -0.2738 -0.0612
 2984SOL    HW311703   2.286   3.105   0.653 -0.2687 -0.4269 -0.2955
 2984SOL    MW411704   2.256   3.091   0.573 -0.0193 -0.2089 -0.3737
 2985SOL     OW11705   4.839   0.373   6.118  0.0259 -0.0726 -0.2034
 2985SOL    HW211706   4.912   0.311   6.127  0.0263 -0.0051  0.2842
 2985SOL    HW311707   4.880   0.457   6.100 -0.0257 -0.5305 -2.9004
 2985SOL    MW411708   4.854   0.376   6.116 -0.2515  0.4026 -0.3781
 2986SOL     OW11709   0.661   5.549   5.970 -0.1685 -0.0450  0.5994
 2986SOL    HW211710   0.704   5.478   5.923 -1.5026 -0.1759 -0.5143
 2986SOL    HW311711   0.625   5.508   6.049 -1.7007 -0.8778 -0.4686
 2986SOL    MW411712   0.662   5.534   5.974  0.2806  0.0422  0.6603
 2987SOL     OW11713   3.215   1.922   1.189 -0.6593  0.2358 -0.4886
 2987SOL    HW211714   3.230   1.979   1.114 -1.4740 -1.0948 -1.6987
 2987SOL    HW311715   3.150   1.968   1.242  0.9479  1.8452  0.1922
 2987SOL    MW411716   3.209   1.935   1.186  0.1980  0.0912  0.0197
 2988SOL     OW11717   5.415   4.867   4.726 -0.1153  0.5258 -0.6890
 2988SOL    HW211718   5.350   4.820   4.673 -1.8773  1.7259  0.2882
 2988SOL    HW311719   5.363   4.913   4.792  1.5726  2.8660 -0.8649
 2988SOL    MW411720   5.400   4.867   4.727  0.2487 -0.6837 -0.1357
 2989SOL     OW11721   6.401   4.782   5.229 -0.0891 -0.0630  0.8555
 2989SOL    HW211722   6.439   4.698   5.255 -1.2943 -0.8021  0.2700
 2989SOL    HW311723   6.363   4.767   5.143  1.3298  1.6062 -0.1350
 2989SOL    MW411724   6.401   4.769   5.221  0.2341 -0.3060  0.0085
 2990SOL     OW11725   1.502   6.278   4.417  0.6366 -0.5089 -0.4624
 2990SOL    HW211726   1.453   6.247   4.494  0.1894  2.8735  0.7692
 2990SOL    HW311727   1.593   6.281   4.447  0.6760 -0.5914 -0.5744
 2990SOL    MW411728   1.508   6.274   4.431  0.3596 -0.4701  0.3184
 2991SOL     OW11729   4.709   5.707   3.059 -0.1323 -0.2629  0.2481
 2991SOL    HW211730   4.641   5.735   3.120 -1.3316 -0.2687 -1.0352
 2991SOL    HW311731   4.763   5.785   3.045  0.3042 -0.3346  1.4919
 2991SOL    MW411732   4.707   5.721   3.065 -0.1719  0.1077 -0.0173
 2992SOL     OW11733   1.772   5.787   2.686  0.0173  0.1309 -0.2518
 2992SOL    HW211734   1.829   5.741   2.624  0.4585 -0.0365  0.2665
 2992SOL    HW311735   1.735   5.718   2.741 -0.5735  0.2547 -0.4864
 2992SOL    MW411736   1.775   5.772   2.686 -0.5646  0.1038 -0.4345
 2993SOL     OW11737   1.033   4.329   4.715  0.1241  0.1337  0.0246
 2993SOL    HW211738   1.025   4.390   4.788  1.8791  1.1966 -0.6141
 2993SOL    HW311739   1.038   4.243   4.756 -4.2412  0.0328  0.8868
 2993SOL    MW411740   1.033   4.325   4.730  0.3594 -0.2319 -0.1580
 2994SOL     OW11741   0.694   4.388   1.816  0.5346 -0.2964 -0.6946
 2994SOL    HW211742   0.778   4.366   1.856  0.3026 -1.1971 -0.6958
 2994SOL    HW311743   0.665   4.308   1.773 -1.6675 -0.8938  1.6515
 2994SOL    MW411744   0.701   4.375   1.815  0.2472 -0.5780 -0.3975
 2995SOL     OW11745   1.631   2.407   5.704 -0.3004 -0.2365 -0.7978
 2995SOL    HW211746   1.553   2.436   5.657 -1.4725 -0.6102  0.8102
 2995SOL    HW311747   1.622   2.448   5.791  0.1351 -2.0413  0.1380
 2995SOL    MW411748   1.619   2.417   5.709  0.2432 -0.5406 -0.0272
 2996SOL     OW11749   3.343   6.358   0.173 -0.2361 -0.5457 -0.2438
 2996SOL    HW211750   3.275   6.360   0.239 -1.5776  2.7806 -1.5385
 2996SOL    HW311751   3.307   6.303   0.103 -0.4307 -0.9144  0.1383
 2996SOL    MW411752   3.329   6.351   0.172 -0.2828  0.4399 -0.8418
 2997SOL     OW11753   0.553   0.423   3.916  0.3744  0.3300 -0.3720
 2997SOL    HW211754   0.459   0.414   3.898 -0.1067 -3.5034  2.6159
 2997SOL    HW311755   0.594   0.417   3.830 -2.0615 -1.2990 -1.5632
 2997SOL    MW411756   0.546   0.421   3.902  0.5195 -0.2302  0.3487
 2998SOL     OW11757   3.173   5.038   0.293  0.5926  0.1939 -0.1400
 2998SOL    HW211758   3.121   5.003   0.221 -1.6214  2.1064  0.4107
 2998SOL    HW311759   3.200   4.961   0.343 -1.4176 -0.9274 -0.6888
 2998SOL    MW411760   3.170   5.023   0.290  0.0685  0.4042  0.2394
 2999SOL     OW11761   1.164   0.256   1.732  0.4290 -0.8146 -0.2288
 2999SOL    HW211762   1.203   0.295   1.810  0.6964 -0.2151 -0.6458
 2999SOL    HW311763   1.223   0.185   1.708  0.9201 -0.3312 -0.4799
 2999SOL    MW411764   1.177   0.252   1.739  0.0972 -0.5448 -0.1822
 3000SOL     OW11765   0.556   4.924   3.299  0.1860 -0.2219  0.0403
 3000SOL    HW211766   0.462   4.940   3.293  0.2054  0.4814  1.2423
 3000SOL    HW311767   0.571   4.905   3.392  0.8493 -3.0325 -0.5319
 3000SOL    MW411768   0.546   4.923   3.310 -0.1480 -0.4773  0.5373
 3001SOL     OW11769   5.666   3.233   1.603  0.1054  0.0037  0.5397
 3001SOL    HW211770   5.607   3.264   1.671  0.9673  0.3268  1.1600
 3001SOL    HW311771   5.701   3.151   1.637 -0.1300 -0.2810  0.0961
 3001SOL    MW411772   5.663   3.226   1.616 -0.4834  0.2336  0.1040
 3002SOL     OW11773   1.461   1.972   4.486  0.1022  0.1470  0.1870
 3002SOL    HW211774   1.384   1.963   4.429 -1.2623 -0.5147  2.0147
 3002SOL    HW311775   1.530   2.005   4.429 -1.3064 -0.0498 -1.7196
 3002SOL    MW411776   1.460   1.975   4.471 -0.0248  1.0410  0.0095
 3003SOL     OW11777   1.820   2.705   5.788  0.1536  0.3804 -0.0181
 3003SOL    HW211778   1.873   2.642   5.739  1.4268  0.2071  1.4794
 3003SOL    HW311779   1.874   2.783   5.793 -0.0189  0.4565  0.9167
 3003SOL    MW411780   1.834   2.707   5.782  0.0864 -0.1014 -0.3981
 3004SOL     OW11781   4.049   1.731   3.324  0.2994  0.1125  0.2531
 3004SOL    HW211782   4.115   1.799   3.340 -0.0108  0.7636 -1.1014
 3004SOL    HW311783   3.966   1.773   3.345  0.1239  0.0830 -0.3715
 3004SOL    MW411784   4.047   1.746   3.329 -0.3627 -0.0469 -0.2145
 3005SOL     OW11785   4.979   0.354   2.711  0.2492 -0.0125 -0.3338
 3005SOL    HW211786   4.978   0.258   2.711 -1.3749 -0.0869 -2.6950
 3005SOL    HW311787   4.958   0.378   2.621  1.8212  2.6040 -0.1062
 3005SOL    MW411788   4.976   0.344   2.699  0.0817 -0.7479 -0.0026
 3006SOL     OW11789   0.888   2.634   5.290 -0.0590  0.5264  0.1130
 3006SOL    HW211790   0.817   2.601   5.235  0.2207  0.4177 -0.1845
 3006SOL    HW311791   0.861   2.613   5.380 -0.4824  0.6432  0.0150
 3006SOL    MW411792   0.875   2.627   5.295 -0.3720  0.5564 -0.4551
 3007SOL     OW11793   5.136   1.491   4.250  0.3464  0.4477  0.6019
 3007SOL    HW211794   5.148   1.467   4.341 -2.1522  1.4133  1.2685
 3007SOL    HW311795   5.223   1.517   4.220  0.8283  2.6030  3.4673
 3007SOL    MW411796   5.149   1.491   4.258  0.8825 -0.3605  0.0305
 3008SOL     OW11797   5.141   1.575   3.013 -0.0916 -0.0651  0.1630
 3008SOL    HW211798   5.149   1.480   3.020  0.4669 -0.0773 -0.5343
 3008SOL    HW311799   5.061   1.596   3.061 -0.1649 -0.8751  0.4096
 3008SOL    MW411800   5.132   1.565   3.020 -0.1102  0.1177 -0.1252
 3009SOL     OW11801   4.472   1.315   5.583  0.1993  0.1581  0.5031
 3009SOL    HW211802   4.468   1.223   5.558 -1.6203  0.1814  0.5871
 3009SOL    HW311803   4.502   1.313   5.674  1.2947 -0.2682  0.1415
 3009SOL    MW411804   4.475   1.303   5.592 -0.1510 -0.4533  0.4294
 3010SOL     OW11805   4.128   4.908   1.207 -0.3906 -0.3358  0.4576
 3010SOL    HW211806   4.118   4.886   1.299 -0.3214  1.5700  0.9726
 3010SOL    HW311807   4.049   4.958   1.185 -0.1434 -0.2748 -0.3473
 3010SOL    MW411808   4.117   4.912   1.216 -0.4996 -0.3339 -0.4071
 3011SOL     OW11809   3.067   2.029   4.032 -0.0493 -0.0900  0.1487
 3011SOL    HW211810   3.030   2.075   4.108  0.6373 -0.1692  0.5491
 3011SOL    HW311811   2.992   2.001   3.981 -0.5393 -0.2786  0.9539
 3011SOL    MW411812   3.053   2.031   4.036  0.4465  0.3769  0.1727
 3012SOL     OW11813   2.884   0.697   1.486  0.5156 -0.8439 -0.4662
 3012SOL    HW211814   2.927   0.768   1.533  1.1425 -0.4020 -1.6469
 3012SOL    HW311815   2.794   0.696   1.519  0.4925  0.5025 -0.4377
 3012SOL    MW411816   2.878   0.706   1.496 -0.4611  0.3401  0.3922
 3013SOL     OW11817   6.003   5.761   5.349 -0.0933  0.2296  0.0267
 3013SOL    HW211818   6.009   5.693   5.282  0.4364  1.0549 -0.7962
 3013SOL    HW311819   5.938   5.728   5.410 -2.5623  0.5692 -2.2271
 3013SOL    MW411820   5.995   5.747   5.348 -0.1399 -0.3578  0.0813
 3014SOL     OW11821   3.880   3.712   2.637  0.3774  0.1983  0.2744
 3014SOL    HW211822   3.934   3.706   2.716 -0.6488 -2.6902  0.8903
 3014SOL    HW311823   3.883   3.623   2.600 -1.8379  0.6345 -1.0967
 3014SOL    MW411824   3.888   3.699   2.643  0.2114 -0.3046  0.1354
 3015SOL     OW11825   2.531   3.889   5.758  0.1613  0.2978  0.3037
 3015SOL    HW211826   2.481   3.863   5.835  0.2942 -1.9642 -0.3229
 3015SOL    HW311827   2.565   3.807   5.722  2.1269  1.5205 -0.7973
 3015SOL    MW411828   2.529   3.875   5.764 -1.2888  0.3615  0.3485
 3016SOL     OW11829   5.082   1.042   6.324  0.1076 -0.6452  0.2688
 3016SOL    HW211830   5.056   1.132   6.308  1.1270  0.1331  2.5594
 3016SOL    HW311831   5.003   0.999   6.356 -0.1195 -0.2564  0.2241
 3016SOL    MW411832   5.068   1.048   6.326 -0.0896  0.4997 -0.2788
 3017SOL     OW11833   4.033   1.957   6.156 -0.7423  0.1190 -0.2230
 3017SOL    HW211834   3.947   1.989   6.128 -0.6697  0.2674 -0.2802
 3017SOL    HW311835   4.060   2.019   6.224 -0.5429  0.2561 -0.4247
 3017SOL    MW411836   4.025   1.970   6.161  0.1381  0.0412 -0.3557
 3018SOL     OW11837   5.820   2.638   4.587 -0.0683  0.3217  0.2150
 3018SOL    HW211838   5.860   2.550   4.585  0.1196  0.4133 -0.6551
 3018SOL    HW311839   5.783   2.645   4.675  3.6068  1.0158  1.9150
 3018SOL    MW411840   5.821   2.627   4.598  0.0161  0.5737 -0.4323
 3019SOL     OW11841   2.560   1.514   1.573 -0.4699  0.1755 -0.2956
 3019SOL    HW211842   2.601   1.495   1.658  0.5307 -0.0347 -0.8039
 3019SOL    HW311843   2.582   1.439   1.518  1.0481  1.3838 -1.4652
 3019SOL    MW411844   2.568   1.502   1.577 -0.2513  0.6809 -0.2215
 3020SOL     OW11845   3.509   4.650   5.891 -0.8167 -0.0818 -0.9868
 3020SOL    HW211846   3.443   4.595   5.848 -3.0787  0.6115  1.3116
 3020SOL    HW311847   3.458   4.721   5.931  1.6430  1.8484 -1.0646
 3020SOL    MW411848   3.493   4.652   5.891  0.4183  0.0401 -0.3255
 3021SOL     OW11849   1.900   1.619   4.143  0.0264  0.1745 -0.8724
 3021SOL    HW211850   1.844   1.621   4.221 -0.1715 -2.3223 -0.8636
 3021SOL    HW311851   1.984   1.588   4.176  0.2799  0.2296 -1.4685
 3021SOL    MW411852   1.903   1.615   4.158 -0.1572  0.8707 -0.0727
 3022SOL     OW11853   3.342   4.457   6.301  0.2002  0.0641  0.2144
 3022SOL    HW211854   3.303   4.488   6.219  2.3003  1.9250 -0.1639
 3022SOL    HW311855   3.273   4.468   6.366 -0.2244  2.5201 -0.5655
 3022SOL    MW411856   3.328   4.462   6.299 -0.1475 -0.3875  0.2089
 3023SOL     OW11857   4.562   4.275   4.557  0.0191  0.2447 -0.0613
 3023SOL    HW211858   4.493   4.209   4.552  0.2552 -0.0425  0.3737
 3023SOL    HW311859   4.519   4.357   4.531 -0.7519  0.2636  1.1940
 3023SOL    MW411860   4.547   4.277   4.553 -0.3172 -1.0406 -0.4275
 3024SOL     OW11861   3.417   0.871   5.536 -0.5673 -0.2845  0.0629
 3024SOL    HW211862   3.446   0.961   5.521  1.2419 -0.9182 -0.5971
 3024SOL    HW311863   3.425   0.829   5.450 -0.7931 -1.2289  0.4859
 3024SOL    MW411864   3.422   0.877   5.522 -0.4953 -0.4171 -0.3003
 3025SOL     OW11865   1.406   1.785   5.656 -0.2532 -0.2950  0.2713
 3025SOL    HW211866   1.414   1.846   5.730  1.2040 -0.4919  0.3200
 3025SOL    HW311867   1.477   1.811   5.597  0.9830 -2.4800  0.7140
 3025SOL    MW411868   1.417   1.797   5.658 -0.0957  0.1200 -0.2452
 3026SOL     OW11869   3.318   1.639   2.031 -0.4940 -0.1372  0.2124
 3026SOL    HW211870   3.260   1.698   1.983 -0.2103  0.5526  0.7006
 3026SOL    HW311871   3.347   1.575   1.966 -0.4895  0.5053 -0.4269
 3026SOL    MW411872   3.314   1.639   2.016 -0.0129 -0.1995  0.2755
 3027SOL     OW11873   0.733   5.764   6.247 -0.2377 -0.5335  0.0721
 3027SOL    HW211874   0.764   5.837   6.194 -2.2675 -0.5235 -1.2049
 3027SOL    HW311875   0.702   5.805   6.328 -2.5342  0.3099 -1.1238
 3027SOL    MW411876   0.733   5.779   6.251 -0.8570  0.4542 -0.0442
 3028SOL     OW11877   2.205   4.465   3.999  0.2991  0.0372 -0.0845
 3028SOL    HW211878   2.186   4.379   3.962 -1.2420  0.2542  0.1321
 3028SOL    HW311879   2.119   4.505   4.013  0.9783  1.7655 -0.5295
 3028SOL    MW411880   2.191   4.459   3.996  0.3166 -0.6847 -0.0232
 3029SOL     OW11881   5.142   3.948   0.334 -0.3448 -0.1159  0.7465
 3029SOL    HW211882   5.085   3.875   0.309 -1.1556  0.0590  2.0195
 3029SOL    HW311883   5.230   3.911   0.332 -0.8422 -1.6328  2.8801
 3029SOL    MW411884   5.146   3.933   0.330  0.5117  0.3980 -0.0535
 3030SOL     OW11885   0.885   5.130   2.988  0.2471  0.4967 -0.1022
 3030SOL    HW211886   0.947   5.186   3.034  0.2757 -0.0573  0.5524
 3030SOL    HW311887   0.853   5.069   3.055 -0.6999  0.5119 -0.5225
 3030SOL    MW411888   0.889   5.129   3.003 -0.6531  0.3891 -0.6446
 3031SOL     OW11889   3.555   4.430   5.075 -0.3278  0.0013 -0.5040
 3031SOL    HW211890   3.472   4.391   5.100  0.4968 -0.1004  2.3887
 3031SOL    HW311891   3.562   4.510   5.126  1.4053 -0.0851 -0.5157
 3031SOL    MW411892   3.545   4.435   5.085 -0.7426  0.4685 -0.4924
 3032SOL     OW11893   4.123   3.309   1.015 -0.6641 -0.3020 -0.4448
 3032SOL    HW211894   4.070   3.384   0.987 -1.0347 -0.6063 -0.5575
 3032SOL    HW311895   4.075   3.232   0.984  0.2225 -0.5615 -1.2166
 3032SOL    MW411896   4.110   3.309   1.007 -1.0292  0.1628  0.4641
 3033SOL     OW11897   3.719   6.074   3.749  0.1676  0.2980  0.2299
 3033SOL    HW211898   3.768   5.995   3.724  1.4405  0.9265  0.6519
 3033SOL    HW311899   3.649   6.042   3.806  1.3027 -0.4224  1.2465
 3033SOL    MW411900   3.716   6.059   3.753  0.0396 -0.6216  0.1524
 3034SOL     OW11901   4.057   0.607   1.785 -0.0090  0.3161 -0.2337
 3034SOL    HW211902   3.973   0.593   1.827  0.5733  0.2471  0.9474
 3034SOL    HW311903   4.057   0.700   1.761 -0.4903  0.2694 -0.4221
 3034SOL    MW411904   4.046   0.618   1.787 -0.5344 -0.0534 -0.2557
 3035SOL     OW11905   6.253   2.690   3.360 -0.6038  0.0789 -0.5842
 3035SOL    HW211906   6.193   2.762   3.343 -1.5802 -0.9851 -1.9302
 3035SOL    HW311907   6.208   2.636   3.425 -0.1597  0.3541 -0.0451
 3035SOL    MW411908   6.239   2.692   3.366  0.0513  0.4086  0.0558
 3036SOL     OW11909   3.463   5.941   0.665  0.1785 -0.0095 -0.1245
 3036SOL    HW211910   3.524   5.910   0.597 -0.7471 -0.6333 -0.7005
 3036SOL    HW311911   3.437   6.028   0.635  2.1802  1.0716  1.0884
 3036SOL    MW411912   3.467   5.948   0.652  0.1503 -0.3014  0.8695
 3037SOL     OW11913   0.924   0.508   0.133  0.3442 -0.5088 -0.1983
 3037SOL    HW211914   0.909   0.534   0.224  1.1834 -2.2776  0.4963
 3037SOL    HW311915   0.974   0.580   0.095  0.1884  0.1484  0.8128
 3037SOL    MW411916   0.929   0.521   0.140  0.0168 -0.7812  0.3150
 3038SOL     OW11917   1.450   5.959   0.576 -0.0272 -0.3371  0.2396
 3038SOL    HW211918   1.408   6.025   0.630 -0.0163 -1.1165  1.2168
 3038SOL    HW311919   1.543   5.982   0.578 -0.1039 -0.0091  0.0456
 3038SOL    MW411920   1.457   5.971   0.583  0.8964 -0.4855 -0.0939
 3039SOL     OW11921   0.630   4.404   2.768  0.0647 -1.1799 -0.0948
 3039SOL    HW211922   0.702   4.451   2.810 -1.0002 -0.3914  0.9392
 3039SOL    HW311923   0.660   4.314   2.762  2.0284 -0.4892 -1.7973
 3039SOL    MW411924   0.643   4.398   2.773  0.0391  0.3647 -0.2011
 3040SOL     OW11925   5.664   5.407   2.842  0.2626 -0.1129 -0.6631
 3040SOL    HW211926   5.595   5.465   2.875 -1.2327 -1.5114 -1.1748
 3040SOL    HW311927   5.652   5.409   2.747 -0.7755 -2.2916 -0.6354
 3040SOL    MW411928   5.653   5.415   2.834 -0.0340 -0.3533  0.5817
 3041SOL     OW11929   3.451   2.796   3.323  0.0717 -0.9144 -0.0916
 3041SOL    HW211930   3.535   2.840   3.337 -0.0929 -0.2275 -1.1469
 3041SOL    HW311931   3.437   2.802   3.228 -1.0495 -1.2421  0.0440
 3041SOL    MW411932   3.461   2.802   3.312 -0.0268  0.0642  0.0608
 3042SOL     OW11933   4.553   3.248   0.667  0.6855  0.2008 -0.6673
 3042SOL    HW211934   4.509   3.213   0.590 -0.9183 -0.6752  0.5620
 3042SOL    HW311935   4.580   3.336   0.642  0.4509 -0.1651 -2.3032
 3042SOL    MW411936   4.551   3.255   0.654  0.4033 -0.0807  0.1585
 3043SOL     OW11937   5.795   4.127   3.382 -0.3953 -0.3265  0.1312
 3043SOL    HW211938   5.832   4.215   3.375 -1.0843 -0.0227  0.2725
 3043SOL    HW311939   5.709   4.133   3.341 -0.8063 -0.7139  0.9129
 3043SOL    MW411940   5.789   4.139   3.376  0.2393  0.4193 -0.2281
 3044SOL     OW11941   1.798   4.954   1.168  0.6926  0.2343  0.3299
 3044SOL    HW211942   1.778   4.883   1.229 -0.4179  0.3921  0.1656
 3044SOL    HW311943   1.868   5.003   1.211 -0.8133  1.0075  2.0352
 3044SOL    MW411944   1.805   4.951   1.182 -0.5209  0.2686 -0.0922
 3045SOL     OW11945   4.668   2.367   6.281 -0.5382 -0.2428 -0.2663
 3045SOL    HW211946   4.703   2.450   6.314 -1.5464  0.4700 -0.9174
 3045SOL    HW311947   4.667   2.377   6.186  0.2938 -1.4188 -0.4063
 3045SOL    MW411948   4.672   2.380   6.273 -0.0935 -0.0170 -0.4218
 3046SOL     OW11949   0.588   0.044   1.143 -0.3832 -0.1481  0.0536
 3046SOL    HW211950   0.666   0.043   1.199 -0.7058  2.6817  0.7534
 3046SOL    HW311951   0.546  -0.040   1.158  1.9887 -1.3519  0.4259
 3046SOL    MW411952   0.593   0.033   1.152  0.1218  0.1571 -0.3826
 3047SOL     OW11953   1.116   2.103   4.825  0.2067  0.0889  0.5253
 3047SOL    HW211954   1.026   2.072   4.820  0.0596  0.6399 -2.9019
 3047SOL    HW311955   1.166   2.027   4.855 -1.2667 -0.4767  1.6309
 3047SOL    MW411956   1.111   2.089   4.828 -0.0609  0.4651 -0.3393
 3048SOL     OW11957   0.995   2.211   3.767 -0.4238  0.3013  0.5193
 3048SOL    HW211958   1.008   2.263   3.687  1.0374  1.0607  1.2125
 3048SOL    HW311959   0.903   2.224   3.788 -0.2020  2.3869  0.4600
 3048SOL    MW411960   0.985   2.220   3.759 -0.0585  0.1785 -0.0396
 3049SOL     OW11961   4.462   0.634   5.962 -0.2023  0.0867  0.2578
 3049SOL    HW211962   4.474   0.627   6.056 -1.5035  0.5931  0.4912
 3049SOL    HW311963   4.451   0.728   5.946  2.1761  0.2578 -0.7172
 3049SOL    MW411964   4.462   0.646   5.972 -0.2409  0.0036  0.1146
 3050SOL     OW11965   2.756   4.097   5.759  0.0336 -0.5132  0.0288
 3050SOL    HW211966   2.673   4.050   5.755  0.0649 -0.5975  0.3708
 3050SOL    HW311967   2.813   4.050   5.698  0.0003 -0.7913  0.2138
 3050SOL    MW411968   2.753   4.085   5.750 -0.2917  0.0474 -0.0494
 3051SOL     OW11969   4.013   1.789   2.844  0.0415 -0.3527 -0.4573
 3051SOL    HW211970   3.928   1.788   2.888 -0.3867  2.5579 -0.9917
 3051SOL    HW311971   4.048   1.701   2.858 -3.4452 -2.0257 -1.0774
 3051SOL    MW411972   4.006   1.777   2.852 -0.3064  0.5017  0.1508
 3052SOL     OW11973   1.598   4.016   2.704  0.4099 -0.7969  0.1234
 3052SOL    HW211974   1.531   4.084   2.710  1.8938  0.7302  0.1558
 3052SOL    HW311975   1.604   3.980   2.793  2.5940  2.1028  1.2965
 3052SOL    MW411976   1.590   4.020   2.717 -0.3562  0.4518  0.5720
 3053SOL     OW11977   2.601   0.125   1.766  0.1535 -0.7145  0.2626
 3053SOL    HW211978   2.558   0.100   1.847  0.4814 -1.1010  0.3200
 3053SOL    HW311979   2.694   0.109   1.782  0.5610  1.7065  0.7503
 3053SOL    MW411980   2.608   0.120   1.779  0.6284 -0.4880 -0.0685
 3054SOL     OW11981   0.634   3.613   0.921 -0.3105 -0.3461 -0.2971
 3054SOL    HW211982   0.540   3.632   0.928 -0.2621  0.4068 -1.3937
 3054SOL    HW311983   0.638   3.522   0.892 -0.7840  0.1633 -2.1138
 3054SOL    MW411984   0.622   3.604   0.918  0.6198  0.0426 -0.2990
 3055SOL     OW11985   5.353   1.403   4.709 -0.3049 -0.2641 -0.0817
 3055SOL    HW211986   5.296   1.390   4.785 -0.6673 -1.5378 -0.5450
 3055SOL    HW311987   5.428   1.345   4.725  1.3587  1.9979  0.9314
 3055SOL    MW411988   5.356   1.394   4.721 -0.1000 -0.4318  0.4983
 3056SOL     OW11989   2.098   4.647   2.442  0.4518  0.1947  0.1055
 3056SOL    HW211990   2.006   4.641   2.466  0.3472  0.1417 -0.3034
 3056SOL    HW311991   2.126   4.557   2.429  0.2069  0.2721 -1.0716
 3056SOL    MW411992   2.090   4.635   2.443  0.2053 -0.1794 -0.1469
 3057SOL     OW11993   2.275   4.029   1.226  0.4184 -0.0626 -0.6495
 3057SOL    HW211994   2.184   4.032   1.253  0.7310  0.1848  0.4342
 3057SOL    HW311995   2.322   4.076   1.295  1.2126  0.9570 -1.8500
 3057SOL    MW411996   2.269   4.035   1.239 -0.0829 -0.1637 -0.0111
 3058SOL     OW11997   2.606   1.018   3.795  0.9375 -0.4353  0.1708
 3058SOL    HW211998   2.622   1.008   3.701  2.0845 -0.7431  0.3810
 3058SOL    HW311999   2.539   1.086   3.801  1.2022 -0.0724 -0.8506
 3058SOL    MW412000   2.599   1.026   3.783 -0.3859 -0.0308  0.0668
 3059SOL     OW12001   1.446   1.935   5.873  0.5949 -0.4965 -0.1597
 3059SOL    HW212002   1.525   1.984   5.849  0.1706 -0.3229 -1.2909
 3059SOL    HW312003   1.478   1.860   5.922  1.4652 -0.3776 -0.5257
 3059SOL    MW412004   1.460   1.932   5.876 -0.0979 -0.1347  0.0664
 3060SOL     OW12005   5.532   6.121   2.057 -0.3392  0.5856 -0.6140
 3060SOL    HW212006   5.623   6.135   2.082 -1.0160  1.4563  1.5196
 3060SOL    HW312007   5.482   6.180   2.112 -2.3863 -1.5018 -0.0542
 3060SOL    MW412008   5.538   6.130   2.067  0.1537  0.3951 -0.3239
 3061SOL     OW12009   5.395   3.369   6.089 -0.0057  0.4532 -0.1294
 3061SOL    HW212010   5.470   3.394   6.036  0.1165  0.5368  0.0834
 3061SOL    HW312011   5.336   3.325   6.027 -0.0226  0.8571 -0.4057
 3061SOL    MW412012   5.397   3.366   6.074  0.2662 -0.3545 -0.1486
 3062SOL     OW12013   4.558   4.045   5.487  0.2886  0.0221 -0.2910
 3062SOL    HW212014   4.630   4.087   5.441  0.4720 -2.3798 -2.3681
 3062SOL    HW312015   4.493   4.026   5.420 -1.4242  0.2983  1.1929
 3062SOL    MW412016   4.559   4.048   5.472 -0.5067  0.3528  0.4342
 3063SOL     OW12017   3.549   4.057   0.035 -0.3483  0.1670 -0.1987
 3063SOL    HW212018   3.644   4.051   0.029 -0.1103  1.2330  1.6023
 3063SOL    HW312019   3.517   4.019  -0.047  1.5841 -0.8988 -0.5230
 3063SOL    MW412020   3.557   4.051   0.024 -0.4124  0.0496 -0.0857
 3064SOL     OW12021   1.010   2.576   3.023 -0.4854 -0.0168  0.3465
 3064SOL    HW212022   0.938   2.535   3.071 -1.5318  0.0363 -1.1330
 3064SOL    HW312023   0.972   2.603   2.940  1.3292 -0.2719 -0.6133
 3064SOL    MW412024   0.996   2.574   3.018 -0.7874  0.7515  0.3361
 3065SOL     OW12025   4.150   1.007   5.717  0.6131 -0.0377 -0.3727
 3065SOL    HW212026   4.128   1.049   5.634  2.1703 -0.1402 -0.8814
 3065SOL    HW312027   4.163   1.079   5.778  0.0563  0.0685 -0.3801
 3065SOL    MW412028   4.149   1.022   5.714  0.4673  0.4503  0.1813
 3066SOL     OW12029   3.135   4.104   4.001  0.3747 -0.4795 -0.0670
 3066SOL    HW212030   3.113   4.156   4.078  1.7766  0.5051 -0.2835
 3066SOL    HW312031   3.051   4.087   3.959 -0.4175 -1.0279  1.6475
 3066SOL    MW412032   3.121   4.109   4.006 -0.6411 -0.4081  0.5676
 3067SOL     OW12033   4.644   5.754   0.621  0.1614 -0.3668  0.3463
 3067SOL    HW212034   4.689   5.804   0.553  1.1787 -0.8636  0.6364
 3067SOL    HW312035   4.552   5.782   0.615  0.2899 -0.1762 -1.0101
 3067SOL    MW412036   4.637   5.764   0.611 -0.5071  0.1071 -0.7123
 3068SOL     OW12037   5.933   1.389   3.488  0.0166 -0.5813  0.0892
 3068SOL    HW212038   5.913   1.306   3.445 -0.0737 -0.4076 -0.2011
 3068SOL    HW312039   6.026   1.403   3.470 -0.2975  0.0803 -1.0507
 3068SOL    MW412040   5.943   1.380   3.480 -0.1601  0.6568  0.0925
 3069SOL     OW12041   2.354   5.318   0.431 -0.2669 -0.5941  0.0575
 3069SOL    HW212042   2.336   5.340   0.523 -3.7375 -0.8892 -0.4059
 3069SOL    HW312043   2.435   5.267   0.434 -0.6014 -1.1566  3.0487
 3069SOL    MW412044   2.362   5.314   0.444 -0.1938  0.8356 -0.1639
 3070SOL     OW12045   2.657   2.390   5.351 -0.2618 -0.2363 -0.2728
 3070SOL    HW212046   2.638   2.419   5.261 -0.3559  1.2879  0.2098
 3070SOL    HW312047   2.743   2.428   5.371 -0.6177  0.1536  0.5650
 3070SOL    MW412048   2.666   2.399   5.342  0.1626 -0.4510  0.0739
 3071SOL     OW12049   5.712   3.655   3.533  0.3805 -0.5675  0.2912
 3071SOL    HW212050   5.792   3.692   3.569  0.2752 -0.6259  0.5865
 3071SOL    HW312051   5.692   3.581   3.590 -0.5312  0.1500  0.9339
 3071SOL    MW412052   5.720   3.650   3.545 -0.1909 -0.4379 -0.2674
 3072SOL     OW12053   3.722   2.403   0.073 -0.3686 -0.4926  0.0556
 3072SOL    HW212054   3.718   2.494   0.044  0.4872  0.2163  2.0279
 3072SOL    HW312055   3.796   2.366   0.025 -0.5289 -0.0949 -0.5214
 3072SOL    MW412056   3.731   2.410   0.063  0.3380  0.2903 -0.2653
 3073SOL     OW12057   4.885   1.231   1.710  0.2243  0.2725  0.0262
 3073SOL    HW212058   4.852   1.162   1.651 -1.7867  0.7619  0.4947
 3073SOL    HW312059   4.862   1.313   1.666  0.3411  0.6417  0.6407
 3073SOL    MW412060   4.877   1.233   1.696 -0.4571 -0.4543  0.1783
 3074SOL     OW12061   4.361   0.778   4.945  0.2533 -0.0448 -0.0991
 3074SOL    HW212062   4.318   0.693   4.954 -0.0924  0.1336 -0.0508
 3074SOL    HW312063   4.401   0.776   4.859 -0.5880  0.1198 -0.5044
 3074SOL    MW412064   4.361   0.766   4.935  0.4035  0.0451  0.0420
 3075SOL     OW12065   0.711   2.265   5.890  0.3994  0.2690  0.3020
 3075SOL    HW212066   0.737   2.255   5.799  0.1314 -0.8627  0.3369
 3075SOL    HW312067   0.793   2.276   5.938  0.6954 -1.0681  0.1466
 3075SOL    MW412068   0.725   2.265   5.884  0.7808  0.7353  0.1586
 3076SOL     OW12069   6.126   2.747   1.703 -0.3631 -0.3269  0.6124
 3076SOL    HW212070   6.190   2.803   1.748  0.1303  1.2113 -1.7805
 3076SOL    HW312071   6.176   2.670   1.677  0.0375 -0.0075  0.4201
 3076SOL    MW412072   6.141   2.744   1.705 -0.0435 -0.2148 -0.4049
 3077SOL     OW12073   4.235   3.479   1.584  0.2319  0.1606 -0.4588
 3077SOL    HW212074   4.294   3.553   1.599 -0.2703  0.8257 -1.6341
 3077SOL    HW312075   4.232   3.433   1.668  0.3134  1.6670  0.4036
 3077SOL    MW412076   4.242   3.483   1.597  0.1462 -0.1714  0.1826
 3078SOL     OW12077   0.902   3.472   3.858  0.3417 -0.0094  0.1270
 3078SOL    HW212078   0.845   3.546   3.883  0.9356  0.0886  1.2754
 3078SOL    HW312079   0.903   3.416   3.936 -0.5282 -1.5305 -0.9214
 3078SOL    MW412080   0.894   3.475   3.872  0.3689  0.0345 -0.4858
 3079SOL     OW12081   2.662   5.864   1.081 -0.3519  0.1397 -0.3665
 3079SOL    HW212082   2.598   5.888   1.013 -0.0155 -2.4492 -1.7313
 3079SOL    HW312083   2.744   5.902   1.050 -0.3455 -0.4103 -1.0498
 3079SOL    MW412084   2.664   5.872   1.068 -0.2036 -0.5281  0.4237
 3080SOL     OW12085   3.517   2.900   1.815 -0.8439  0.5027  0.7744
 3080SOL    HW212086   3.596   2.952   1.800 -2.2849  3.5366  2.7415
 3080SOL    HW312087   3.550   2.816   1.845  1.6438  1.2925  0.5305
 3080SOL    MW412088   3.532   2.896   1.817 -0.1759 -0.4304 -0.0397
 3081SOL     OW12089   5.668   2.871   4.167  0.3885  0.3929 -0.1902
 3081SOL    HW212090   5.616   2.792   4.158  0.3423  0.1162  1.8863
 3081SOL    HW312091   5.731   2.850   4.237 -0.4801  2.5561  1.3592
 3081SOL    MW412092   5.670   2.858   4.175 -0.3200 -0.1789 -0.2589
 3082SOL     OW12093   6.275   1.364   6.366 -0.1617  0.3396 -0.5149
 3082SOL    HW212094   6.328   1.418   6.309 -0.3141  0.2636 -0.7299
 3082SOL    HW312095   6.254   1.420   6.441 -0.5094  0.6537 -0.8459
 3082SOL    MW412096   6.279   1.378   6.369 -0.4896  0.2969  0.4346
 3083SOL     OW12097   4.656   1.293   5.015  0.4767 -0.4106 -0.3032
 3083SOL    HW212098   4.606   1.216   5.042 -1.0990 -0.4824 -3.1418
 3083SOL    HW312099   4.613   1.366   5.060  0.2421 -0.8816  0.2504
 3083SOL    MW412100   4.644   1.293   5.025  0.0328 -0.0188  0.1330
 3084SOL     OW12101   2.333   4.690   3.699  0.0746  0.0493 -0.0963
 3084SOL    HW212102   2.334   4.722   3.609 -1.4849  0.8682  0.1448
 3084SOL    HW312103   2.363   4.599   3.692  0.5769  0.2904 -1.3430
 3084SOL    MW412104   2.337   4.682   3.686 -0.2346  0.1369  0.1806
 3085SOL     OW12105   0.013   0.442   0.769 -0.6435  0.4121  0.5710
 3085SOL    HW212106   0.019   0.452   0.674 -0.6468  0.7421  0.6053
 3085SOL    HW312107   0.088   0.492   0.803 -0.0967 -0.4729  0.6975
 3085SOL    MW412108   0.024   0.450   0.761  0.3288  0.1444  0.0991
 3086SOL     OW12109   3.821   5.712   1.355  0.0324 -0.0504  0.0124
 3086SOL    HW212110   3.764   5.679   1.286 -0.9380  0.4004  0.5831
 3086SOL    HW312111   3.762   5.734   1.427  0.9638  0.0598  0.7664
 3086SOL    MW412112   3.806   5.710   1.355 -0.4057 -0.6824  0.1284
 3087SOL     OW12113   6.052   5.588   0.089  0.3272  0.1222  0.4699
 3087SOL    HW212114   6.131   5.537   0.071  0.8621  0.9124  0.5541
 3087SOL    HW312115   6.083   5.676   0.109 -0.5625  0.3992  0.7032
 3087SOL    MW412116   6.066   5.593   0.089 -0.4270  0.7533 -0.6998
 3088SOL     OW12117   0.470   3.651   2.582  0.1977  0.8583  0.3586
 3088SOL    HW212118   0.398   3.655   2.520 -0.2624 -0.9859  0.7189
 3088SOL    HW312119   0.432   3.613   2.661  1.4116  0.4839  0.7879
 3088SOL    MW412120   0.456   3.647   2.584 -0.3971 -0.1832  0.2950
 3089SOL     OW12121   2.550   2.213   0.956  0.4103 -0.5594  0.4932
 3089SOL    HW212122   2.542   2.307   0.939 -0.6857 -1.0824 -2.4778
 3089SOL    HW312123   2.465   2.187   0.991  1.1917 -0.2739  2.7692
 3089SOL    MW412124   2.538   2.222   0.958  0.1892 -0.2953 -0.5589
 3090SOL     OW12125   1.941   1.529   0.978 -0.7212  0.3850 -0.0572
 3090SOL    HW212126   1.962   1.446   0.937 -1.4847 -0.4238  1.1230
 3090SOL    HW312127   2.023   1.578   0.978 -0.0818 -0.6711 -0.0878
 3090SOL    MW412128   1.955   1.525   0.973 -0.0295 -0.0357 -0.0853
 3091SOL     OW12129   6.185   1.461   2.903 -0.0755 -0.1172  0.2461
 3091SOL    HW212130   6.216   1.461   2.812  2.9687 -2.0992  1.1271
 3091SOL    HW312131   6.100   1.419   2.899  0.1062 -0.4033 -1.6546
 3091SOL    MW412132   6.178   1.456   2.891  0.0049 -0.2578 -0.3477
 3092SOL     OW12133   3.477   5.515   5.375 -0.3240 -0.1162  0.0416
 3092SOL    HW212134   3.455   5.447   5.311  2.3031 -1.2511  0.2090
 3092SOL    HW312135   3.532   5.470   5.440 -2.1568  1.1839  2.6791
 3092SOL    MW412136   3.482   5.500   5.375  0.4555  0.6744 -0.1371
 3093SOL     OW12137   2.352   1.377   3.526  0.4234  0.2118 -0.1898
 3093SOL    HW212138   2.382   1.361   3.437 -0.6454  0.0987 -0.5498
 3093SOL    HW312139   2.318   1.293   3.556  1.1376  0.1488  0.4848
 3093SOL    MW412140   2.351   1.364   3.518  0.7848  0.6355 -0.3098
 3094SOL     OW12141   5.695   5.488   6.382  0.0649  0.1434  0.0148
 3094SOL    HW212142   5.653   5.519   6.462  0.1452  0.6627 -0.1403
 3094SOL    HW312143   5.725   5.400   6.403  0.0108  0.2452  0.5318
 3094SOL    MW412144   5.694   5.481   6.395 -0.1701  0.1844  0.7058
 3095SOL     OW12145   0.616   1.035   0.735  0.4129  0.2727  0.4780
 3095SOL    HW212146   0.699   0.987   0.728  0.8584  0.9812  0.7133
 3095SOL    HW312147   0.577   1.028   0.648  0.5947 -0.2881  0.4372
 3095SOL    MW412148   0.622   1.028   0.723  0.8015 -0.2302 -1.1279
 3096SOL     OW12149   1.590   4.065   0.276 -0.2500 -0.2961  0.2437
 3096SOL    HW212150   1.656   4.028   0.333 -1.2167 -0.7035  1.1360
 3096SOL    HW312151   1.541   3.989   0.244 -4.0989  0.0658  4.3134
 3096SOL    MW412152   1.592   4.050   0.279 -0.0030 -0.3028  0.1711
 3097SOL     OW12153   5.646   1.096   5.533  0.1525 -0.5050  0.0884
 3097SOL    HW212154   5.599   1.062   5.610 -0.2075  2.2753  1.2457
 3097SOL    HW312155   5.728   1.047   5.531  0.0186 -0.8938  2.0613
 3097SOL    MW412156   5.651   1.085   5.543 -0.1846  0.2204 -0.0251
 3098SOL     OW12157   3.593   3.643   6.234 -0.1511 -0.5575 -0.4669
 3098SOL    HW212158   3.621   3.729   6.202 -1.0911 -0.7914 -2.0329
 3098SOL    HW312159   3.524   3.616   6.172 -0.6253 -1.9590  0.6285
 3098SOL    MW412160   3.587   3.651   6.221 -0.5001  0.1407 -0.3459
 3099SOL     OW12161   6.105   3.726   3.847  0.1974  0.0217 -0.2016
 3099SOL    HW212162   6.145   3.702   3.930 -2.1462  0.7354  1.2280
 3099SOL    HW312163   6.078   3.817   3.859 -0.2514  0.1200 -1.7316
 3099SOL    MW412164   6.107   3.735   3.859  0.6361 -0.1321 -0.5098
 3100SOL     OW12165   2.838   1.123   4.191  0.0274  0.5227  0.1625
 3100SOL    HW212166   2.887   1.205   4.187 -0.3236  0.7149 -0.1583
 3100SOL    HW312167   2.765   1.141   4.250 -2.4853  1.7595 -3.0104
 3100SOL    MW412168   2.835   1.136   4.198  0.5927 -0.5424  0.4005
 3101SOL     OW12169   0.396   0.821   5.122  0.2023 -0.1301  0.1888
 3101SOL    HW212170   0.407   0.786   5.034  1.3488 -2.6196  1.2474
 3101SOL    HW312171   0.301   0.836   5.130 -0.1245 -1.3953 -0.9537
 3101SOL    MW412172   0.385   0.818   5.112  0.0449  0.3739 -0.3128
 3102SOL     OW12173   4.078   4.895   2.681  0.1957  0.1329  0.4750
 3102SOL    HW212174   4.050   4.832   2.614 -0.1735 -0.2781  1.0090
 3102SOL    HW312175   4.171   4.878   2.694 -0.3825 -1.9841  2.3611
 3102SOL    MW412176   4.086   4.885   2.674  0.0077 -0.0748 -0.1533
 3103SOL     OW12177   2.956   1.365   4.195 -0.1767 -0.0492 -0.3820
 3103SOL    HW212178   2.903   1.440   4.223  0.4534  0.2884 -0.0750
 3103SOL    HW312179   3.045   1.386   4.224 -0.3892 -2.1437  2.1652
 3103SOL    MW412180   2.961   1.378   4.202 -0.5025 -0.5518  0.6612
 3104SOL     OW12181   2.368   0.424   4.574  0.6849  0.0654  0.0067
 3104SOL    HW212182   2.420   0.373   4.512 -0.9204 -1.5428 -0.0920
 3104SOL    HW312183   2.394   0.392   4.660  1.2392  0.6548  0.0678
 3104SOL    MW412184   2.378   0.413   4.578 -0.0544  0.3931 -0.1247
 3105SOL     OW12185   0.096   0.360   5.914 -0.1598 -0.2424 -0.4348
 3105SOL    HW212186   0.173   0.391   5.961 -1.4405  1.3772  0.7004
 3105SOL    HW312187   0.036   0.434   5.914 -1.4962 -1.2563 -1.8286
 3105SOL    MW412188   0.098   0.374   5.920  0.1862 -0.1905  0.1337
 3106SOL     OW12189   0.277   0.346   0.610 -0.4176  0.4570  0.4055
 3106SOL    HW212190   0.214   0.289   0.565 -1.1393  1.7244 -0.2356
 3106SOL    HW312191   0.266   0.326   0.703  0.5758 -1.6789  0.1301
 3106SOL    MW412192   0.267   0.336   0.616 -1.1767 -0.0491 -0.8369
 3107SOL     OW12193   3.917   5.256   4.557 -0.0628  0.3199 -0.3279
 3107SOL    HW212194   3.911   5.348   4.530  0.7035  0.6950  0.7112
 3107SOL    HW312195   3.834   5.239   4.600  0.0657  0.7479  0.1012
 3107SOL    MW412196   3.905   5.266   4.559 -0.3794  0.3078  0.0876
 3108SOL     OW12197   1.781   0.235   3.498 -0.4831 -0.0683  0.0559
 3108SOL    HW212198   1.740   0.280   3.424  0.3309 -0.3973 -0.6166
 3108SOL    HW312199   1.745   0.278   3.575 -0.6351  0.9305 -0.5509
 3108SOL    MW412200   1.771   0.247   3.498 -0.0193  0.8438  0.4635
 3109SOL     OW12201   1.680   5.139   4.179  0.1988 -0.1972  0.6366
 3109SOL    HW212202   1.703   5.129   4.272  1.2691  0.8064  0.4942
 3109SOL    HW312203   1.725   5.067   4.136  0.4434 -0.1224  0.7678
 3109SOL    MW412204   1.689   5.128   4.186  0.1643 -0.0286 -0.0580
 3110SOL     OW12205   1.475   0.118   3.510 -0.7188 -0.7229  0.4331
 3110SOL    HW212206   1.471   0.022   3.518  2.5265 -1.0127 -0.2100
 3110SOL    HW312207   1.540   0.145   3.575 -0.7267  0.9202 -0.1988
 3110SOL    MW412208   1.483   0.109   3.519 -0.1354  0.4503  0.0775
 3111SOL     OW12209   3.784   0.312   4.654 -0.8086 -0.2688  0.4305
 3111SOL    HW212210   3.770   0.217   4.658  1.1322 -0.5903  0.8907
 3111SOL    HW312211   3.799   0.338   4.745  2.3386 -0.2263  0.0091
 3111SOL    MW412212   3.784   0.303   4.667 -1.1121 -0.4132  0.1032
 3112SOL     OW12213   3.109   5.554   5.636  0.2340  0.5534 -0.5104
 3112SOL    HW212214   3.080   5.549   5.545 -0.7695 -2.0285 -0.1257
 3112SOL    HW312215   3.159   5.636   5.641  2.7508 -0.5480 -4.0391
 3112SOL    MW412216   3.112   5.564   5.625 -0.1427 -0.2138 -0.2602
 3113SOL     OW12217   5.703   1.567   0.374  0.1825  0.5026  0.8672
 3113SOL    HW212218   5.630   1.622   0.346 -0.8757 -0.8260  0.8942
 3113SOL    HW312219   5.782   1.616   0.348 -0.7153  0.9659 -1.1936
 3113SOL    MW412220   5.704   1.581   0.367  0.3136  0.3423  0.4096
 3114SOL     OW12221   4.312   2.786   3.874 -0.1534 -0.0372  0.5502
 3114SOL    HW212222   4.359   2.869   3.881  0.4556 -0.4098  0.8769
 3114SOL    HW312223   4.235   2.807   3.821  0.5161  0.5111 -0.2245
 3114SOL    MW412224   4.308   2.800   3.868 -0.4115  1.0382 -0.4003
 3115SOL     OW12225   1.324   5.288   2.397 -0.6519 -0.0955 -0.8275
 3115SOL    HW212226   1.271   5.234   2.340 -1.2835 -0.5039  0.1295
 3115SOL    HW312227   1.360   5.356   2.339  0.3521 -1.6297 -2.1003
 3115SOL    MW412228   1.322   5.290   2.382 -0.2066 -0.1424  0.0945
 3116SOL     OW12229   4.922   5.393   3.557  0.2985  0.1797 -0.3599
 3116SOL    HW212230   4.917   5.387   3.652  0.5574  0.0815 -0.3512
 3116SOL    HW312231   4.986   5.326   3.532  0.2179  0.1918 -0.6036
 3116SOL    MW412232   4.930   5.383   3.566 -0.0315  0.4553  0.1653
 3117SOL     OW12233   0.421   0.878   6.139  0.0332 -0.0830  0.5467
 3117SOL    HW212234   0.408   0.953   6.196 -0.0448 -0.1474  0.6134
 3117SOL    HW312235   0.504   0.840   6.167  0.2338  0.1666  0.3008
 3117SOL    MW412236   0.430   0.883   6.150 -0.1910 -0.3559 -0.5599
 3118SOL     OW12237   2.761   2.335   0.369  0.0675 -0.2910 -0.1450
 3118SOL    HW212238   2.763   2.242   0.391  0.2482 -0.2031  0.2263
 3118SOL    HW312239   2.851   2.365   0.381 -0.2593  0.2434  1.1939
 3118SOL    MW412240   2.773   2.327   0.374 -0.4596 -0.1406  0.0123
 3119SOL     OW12241   4.812   2.464   0.484 -0.1274  0.3724 -0.4812
 3119SOL    HW212242   4.798   2.374   0.511  1.0450 -0.5256 -2.6386
 3119SOL    HW312243   4.887   2.461   0.425  0.8320  2.9867  0.4475
 3119SOL    MW412244   4.820   2.452   0.479  0.4420 -0.0385 -0.0621
 3120SOL     OW12245   5.221   0.340   4.832  0.0483 -0.4843 -0.7596
 3120SOL    HW212246   5.221   0.256   4.879  0.0748  0.3896  0.8729
 3120SOL    HW312247   5.292   0.390   4.872 -1.2056  1.0303 -0.3094
 3120SOL    MW412248   5.230   0.335   4.843 -0.3024 -0.1102 -0.3568
 3121SOL     OW12249   5.176   4.259   0.355  0.1474  0.0694  0.2786
 3121SOL    HW212250   5.220   4.182   0.392  0.7920  0.3814  0.1673
 3121SOL    HW312251   5.172   4.241   0.261 -0.3578 -0.1524  0.3384
 3121SOL    MW412252   5.181   4.246   0.348 -0.1762  0.2821 -0.5926
 3122SOL     OW12253   2.927   1.449   3.045 -0.3641 -0.2252  0.4084
 3122SOL    HW212254   3.017   1.425   3.023 -0.2292  0.0161  0.6916
 3122SOL    HW312255   2.907   1.399   3.124 -1.2174 -1.9194 -0.8210
 3122SOL    MW412256   2.936   1.440   3.052  0.1024 -0.2965 -0.0129
 3123SOL     OW12257   2.431   3.945   3.854 -0.0118  0.1519 -0.1790
 3123SOL    HW212258   2.340   3.963   3.875  0.3895  2.3315 -0.0184
 3123SOL    HW312259   2.476   3.945   3.938  0.2483 -0.2251 -0.3150
 3123SOL    MW412260   2.425   3.948   3.868  0.5408  0.3153 -0.3693
 3124SOL     OW12261   1.594   0.674   5.406  0.0022 -0.4905  0.3948
 3124SOL    HW212262   1.543   0.753   5.422  1.9440  0.3338  3.5069
 3124SOL    HW312263   1.670   0.704   5.356 -0.1239 -0.7615  0.0338
 3124SOL    MW412264   1.598   0.689   5.402 -0.4678  0.1094  0.6780
 3125SOL     OW12265   3.951   0.648   4.931 -0.0953  0.2229  1.0428
 3125SOL    HW212266   3.970   0.563   4.892  1.1441 -0.2547  2.5814
 3125SOL    HW312267   3.860   0.666   4.908 -0.0101 -0.9627 -0.2895
 3125SOL    MW412268   3.942   0.640   4.923  0.4581 -0.0321 -0.3602
 3126SOL     OW12269   3.592   2.541   3.333  0.1018  0.0263 -0.0994
 3126SOL    HW212270   3.651   2.578   3.267  1.3192 -1.0239  0.3604
 3126SOL    HW312271   3.542   2.616   3.365 -0.9675  0.5019 -2.6020
 3126SOL    MW412272   3.593   2.556   3.328  0.1211  0.2788 -0.6183
 3127SOL     OW12273   5.839   4.671   3.450 -1.0553  0.0402  0.8451
 3127SOL    HW212274   5.803   4.583   3.440 -0.6097 -0.1230  0.6192
 3127SOL    HW312275   5.916   4.672   3.393 -0.9430  0.5119  0.9978
 3127SOL    MW412276   5.845   4.659   3.442  0.0166  0.4269  0.1532
 3128SOL     OW12277   6.277   3.015   4.188  0.4040 -0.2169  0.0860
 3128SOL    HW212278   6.299   3.023   4.280  0.8019 -1.3965  0.1122
 3128SOL    HW312279   6.258   3.105   4.159  1.2148  0.2837  1.0690
 3128SOL    MW412280   6.277   3.028   4.196  0.2401  0.4097 -0.0538
 3129SOL     OW12281   1.758   0.093   4.206  0.3296 -0.0013 -0.3550
 3129SOL    HW212282   1.700   0.159   4.170  1.3570  1.1671  0.0511
 3129SOL    HW312283   1.837   0.099   4.152 -0.0935 -1.9298 -1.2481
 3129SOL    MW412284   1.761   0.102   4.194 -0.7176 -0.7178 -0.3486
 3130SOL     OW12285   0.348   0.018   6.345 -0.4465  0.2253  0.0428
 3130SOL    HW212286   0.263  -0.017   6.369 -0.3213  0.7317  1.3655
 3130SOL    HW312287   0.390   0.038   6.429  0.9623  0.0247 -0.5730
 3130SOL    MW412288   0.343   0.016   6.359  0.6671 -0.3998 -0.5221
 3131SOL     OW12289   1.152   1.382   5.364  0.0907  0.0821 -0.4064
 3131SOL    HW212290   1.174   1.299   5.322  0.5681 -0.8878  1.6430
 3131SOL    HW312291   1.057   1.387   5.361 -0.1104 -1.6165  1.2563
 3131SOL    MW412292   1.142   1.372   5.358 -0.1100 -0.1481  0.2927
 3132SOL     OW12293   3.918   4.952   3.126  0.4095 -0.4346  0.1380
 3132SOL    HW212294   3.923   4.864   3.164 -1.5312 -0.7034 -0.1249
 3132SOL    HW312295   3.838   4.990   3.163  0.7518  0.8915 -0.4214
 3132SOL    MW412296   3.908   4.946   3.136  0.4191  0.1393 -0.0118
 3133SOL     OW12297   1.663   1.163   2.990 -0.1958 -0.6592  0.3727
 3133SOL    HW212298   1.593   1.120   2.941  0.1059 -1.2940  0.4818
 3133SOL    HW312299   1.623   1.242   3.026 -0.6501 -0.6354 -0.1782
 3133SOL    MW412300   1.648   1.167   2.988 -0.1893  0.5147  0.2545
 3134SOL     OW12301   4.777   4.296   3.975  0.4856 -0.0617  0.5226
 3134SOL    HW212302   4.711   4.258   4.032  0.7440 -1.3506  0.0018
 3134SOL    HW312303   4.731   4.368   3.930 -0.3519 -0.4678  0.7040
 3134SOL    MW412304   4.762   4.300   3.976  0.2761 -0.3445  0.2072
 3135SOL     OW12305   1.513   4.759   6.391  0.4093 -0.3188  0.9334
 3135SOL    HW212306   1.607   4.746   6.382  0.4823  1.2910 -2.0847
 3135SOL    HW312307   1.474   4.687   6.340  0.1253  0.1761  0.4317
 3135SOL    MW412308   1.520   4.748   6.383  0.4345 -0.3449  0.0644
 3136SOL     OW12309   4.217   0.311   1.879  0.2669 -0.2651 -0.0044
 3136SOL    HW212310   4.129   0.274   1.869  0.2686 -0.0787 -0.7744
 3136SOL    HW312311   4.230   0.363   1.800  0.6189  0.6573  0.6328
 3136SOL    MW412312   4.207   0.313   1.868  0.0947  0.0669 -0.2255
 3137SOL     OW12313   0.139   1.163   3.722  0.0853 -0.2255 -0.5477
 3137SOL    HW212314   0.066   1.102   3.729 -0.5179  0.4452 -0.8868
 3137SOL    HW312315   0.155   1.192   3.812  0.0395 -0.4982 -0.4525
 3137SOL    MW412316   0.132   1.159   3.735 -0.0500  0.6286 -0.1344
 3138SOL     OW12317   5.788   1.290   4.811 -0.0736  0.1215  0.1327
 3138SOL    HW212318   5.734   1.365   4.788  0.6524  0.9475  1.0329
 3138SOL    HW312319   5.844   1.321   4.882  2.6370 -0.2021 -1.6921
 3138SOL    MW412320   5.788   1.304   4.818 -0.0033  0.3024 -0.2050
 3139SOL     OW12321   2.871   3.672   2.084 -0.0492 -0.3559 -0.0678
 3139SOL    HW212322   2.886   3.699   1.994  1.6440 -0.4313  0.1628
 3139SOL    HW312323   2.934   3.723   2.135 -0.9672 -0.3254  1.0847
 3139SOL    MW412324   2.881   3.683   2.079 -0.0186 -0.6471  0.3318
 3140SOL     OW12325   6.360   2.435   3.336  0.0301  0.2933 -0.1987
 3140SOL    HW212326   6.454   2.422   3.333 -0.1054 -0.5943 -0.9982
 3140SOL    HW312327   6.349   2.530   3.347  1.0075  0.3215  0.5987
 3140SOL    MW412328   6.371   2.446   3.337  0.2504  0.1330 -0.3600
 3141SOL     OW12329   0.295   5.870   5.234  0.1553  0.3020  0.2780
 3141SOL    HW212330   0.267   5.895   5.146  2.1156  0.2781 -0.4108
 3141SOL    HW312331   0.292   5.951   5.285 -1.0504  0.3021  0.2263
 3141SOL    MW412332   0.291   5.884   5.229  0.0928  0.0392 -0.4094
 3142SOL     OW12333   5.668   3.438   1.991  0.1195  0.8662  0.1239
 3142SOL    HW212334   5.748   3.439   1.939  0.2251  1.8746  0.2744
 3142SOL    HW312335   5.685   3.373   2.059  1.0960  1.5186  0.5480
 3142SOL    MW412336   5.681   3.430   1.993  0.2266 -0.7727  0.9500
 3143SOL     OW12337   4.387   6.046   1.530  0.0910  0.1092 -0.2819
 3143SOL    HW212338   4.298   6.072   1.508  0.5062  0.6566 -1.3744
 3143SOL    HW312339   4.388   6.039   1.625 -1.4548 -1.1455 -0.3246
 3143SOL    MW412340   4.376   6.048   1.540 -0.0905  0.0904  0.1919
 3144SOL     OW12341   4.538   5.990   0.012 -0.2949 -0.2746  0.1778
 3144SOL    HW212342   4.458   5.942  -0.008 -0.0832 -1.0226  1.0288
 3144SOL    HW312343   4.531   6.011   0.105 -0.4081  1.4469 -0.1985
 3144SOL    MW412344   4.527   5.986   0.021  0.2811 -0.3498  0.3594
 3145SOL     OW12345   3.076   4.630   1.674  0.0010  0.0804  0.2132
 3145SOL    HW212346   3.034   4.677   1.746 -0.3937 -0.1447  0.1328
 3145SOL    HW312347   3.139   4.571   1.717 -1.0759 -0.9316  0.4726
 3145SOL    MW412348   3.079   4.628   1.689  0.5077  0.2561 -0.0778
 3146SOL     OW12349   2.786   4.985   3.299  0.1487  0.1309  0.2309
 3146SOL    HW212350   2.881   4.990   3.289  0.1569 -0.1883  0.1195
 3146SOL    HW312351   2.764   5.059   3.355  0.6220 -0.5199  1.3211
 3146SOL    MW412352   2.796   4.995   3.305 -0.5856 -0.4870  0.3440
 3147SOL     OW12353   4.240   5.675   1.749  0.4595  0.6080  0.0510
 3147SOL    HW212354   4.156   5.698   1.710 -1.5323 -1.8235  2.5475
 3147SOL    HW312355   4.240   5.720   1.834  1.2584 -0.2094  0.5010
 3147SOL    MW412356   4.229   5.684   1.755 -0.4458  0.3948  0.8608
 3148SOL     OW12357   1.522   5.759   1.021 -0.3996  0.0388 -0.1149
 3148SOL    HW212358   1.467   5.823   0.977 -0.9942 -1.0356 -0.9943
 3148SOL    HW312359   1.492   5.759   1.112 -2.2360 -0.8627 -0.6740
 3148SOL    MW412360   1.511   5.767   1.028  0.4569  0.0725  0.0577
 3149SOL     OW12361   3.922   1.204   1.511  0.3309  0.2631  0.3598
 3149SOL    HW212362   3.930   1.288   1.466 -1.6567 -0.6270 -1.9509
 3149SOL    HW312363   4.000   1.156   1.486  1.0161  1.0593  0.9144
 3149SOL    MW412364   3.933   1.209   1.502 -0.3210  0.4909  0.0063
 3150SOL     OW12365   3.573   1.229   5.836  0.0821  0.3842  0.1709
 3150SOL    HW212366   3.597   1.285   5.910 -0.3345  0.2212  0.4300
 3150SOL    HW312367   3.547   1.146   5.876 -2.0478  0.9222 -0.0031
 3150SOL    MW412368   3.573   1.225   5.851  0.5461  0.0998 -0.5660
 3151SOL     OW12369   5.329   4.861   3.003 -0.3277  0.5981 -0.0501
 3151SOL    HW212370   5.301   4.792   3.064  1.1646 -0.5302 -0.5853
 3151SOL    HW312371   5.312   4.943   3.050  0.1725 -0.2192  1.6350
 3151SOL    MW412372   5.323   4.863   3.018 -0.1267  0.2375 -0.0290
 3152SOL     OW12373   0.645   5.253   2.332 -0.6893  0.0913 -0.1628
 3152SOL    HW212374   0.618   5.205   2.254  1.7534 -0.4683 -0.7235
 3152SOL    HW312375   0.647   5.188   2.402  1.1274 -0.3510 -0.5859
 3152SOL    MW412376   0.641   5.238   2.331  0.2441 -0.1054  0.0543
 3153SOL     OW12377   5.008   2.251   4.643  0.1011  0.6522  0.0204
 3153SOL    HW212378   5.020   2.285   4.731  0.9420  0.9992 -0.2167
 3153SOL    HW312379   5.080   2.188   4.632 -0.5078 -0.0336 -0.1079
 3153SOL    MW412380   5.019   2.247   4.653 -0.1655 -0.4430  0.7066
 3154SOL     OW12381   4.280   4.327   5.424  0.2745 -0.1742 -0.5183
 3154SOL    HW212382   4.215   4.393   5.445  0.3055 -0.0610 -0.7682
 3154SOL    HW312383   4.308   4.292   5.508 -2.7357 -2.8121 -0.4588
 3154SOL    MW412384   4.275   4.331   5.438 -0.1080  0.2227 -0.3511
 3155SOL     OW12385   1.201   1.752   6.412 -0.4319  0.3034 -0.0782
 3155SOL    HW212386   1.182   1.660   6.433 -0.4887 -0.9705 -4.5169
 3155SOL    HW312387   1.296   1.755   6.404 -0.0511  1.6916  3.3680
 3155SOL    MW412388   1.211   1.740   6.413  0.2119 -0.1348  0.1675
 3156SOL     OW12389   1.322   2.002   1.454  0.3593  0.1535 -0.5068
 3156SOL    HW212390   1.379   2.043   1.390  0.0041 -0.6244 -1.3389
 3156SOL    HW312391   1.314   2.067   1.524  1.4777  0.6539 -0.8170
 3156SOL    MW412392   1.329   2.016   1.455  0.7499 -0.2886  0.5798
 3157SOL     OW12393   6.396   3.025   1.456  0.5521  0.1416  0.0215
 3157SOL    HW212394   6.414   3.063   1.541  0.2368  1.1694 -0.3575
 3157SOL    HW312395   6.463   3.062   1.398  0.9545 -0.7832 -0.1247
 3157SOL    MW412396   6.407   3.035   1.459 -0.4779 -0.0281 -0.2144
 3158SOL     OW12397   5.387   0.534   2.331 -0.0544 -0.0141 -0.4502
 3158SOL    HW212398   5.366   0.623   2.359  0.7779 -0.7064  2.7321
 3158SOL    HW312399   5.305   0.486   2.341  0.3694 -0.3860  1.5793
 3158SOL    MW412400   5.374   0.540   2.336 -0.4562 -0.6441 -0.0992
 3159SOL     OW12401   5.466   2.859   4.489  0.4987 -0.5050  0.7242
 3159SOL    HW212402   5.375   2.858   4.518  0.5243  0.8985  0.9170
 3159SOL    HW312403   5.467   2.802   4.412 -0.3879 -1.0991  1.1422
 3159SOL    MW412404   5.454   2.852   4.483  0.2466  0.0137  0.2915
 3160SOL     OW12405   2.014   6.119   1.601 -0.0119  0.5601  0.2837
 3160SOL    HW212406   2.080   6.173   1.557  0.8164 -0.3695  0.3323
 3160SOL    HW312407   1.973   6.069   1.530  1.5289 -1.1589  0.5147
 3160SOL    MW412408   2.017   6.119   1.586  0.3703 -0.5936  0.0255
 3161SOL     OW12409   0.243   5.034   4.323 -0.2488  0.6108 -0.3110
 3161SOL    HW212410   0.288   5.106   4.278  1.3808  0.6320  1.2253
 3161SOL    HW312411   0.212   5.073   4.405  1.3006 -0.5447  0.8792
 3161SOL    MW412412   0.245   5.049   4.328 -0.3991  1.2909  0.4141
 3162SOL     OW12413   6.173   3.561   3.538  0.2168  0.2497 -0.3938
 3162SOL    HW212414   6.099   3.556   3.478 -0.3694 -0.2141  0.3454
 3162SOL    HW312415   6.156   3.492   3.602  1.7464 -0.4596 -0.7104
 3162SOL    MW412416   6.161   3.551   3.538  0.0927  0.3460  0.2895
 3163SOL     OW12417   2.438   3.311   1.680 -0.0209 -1.0329  0.7614
 3163SOL    HW212418   2.437   3.239   1.617 -2.2960  1.4778 -2.3903
 3163SOL    HW312419   2.521   3.356   1.662 -0.7774 -0.1663 -0.8027
 3163SOL    MW412420   2.449   3.307   1.669 -0.2990  0.5840  0.0682
 3164SOL     OW12421   1.133   5.361   2.619 -0.5896  0.4464  0.4680
 3164SOL    HW212422   1.100   5.444   2.584  1.0286  1.2882  0.8109
 3164SOL    HW312423   1.193   5.329   2.552 -0.1744  0.2619  0.9183
 3164SOL    MW412424   1.137   5.368   2.605 -0.9420 -0.2506  0.2725
 3165SOL     OW12425   2.409   2.201   5.943 -0.3005 -0.4686  0.1608
 3165SOL    HW212426   2.439   2.291   5.931 -2.4859  0.2735 -0.0452
 3165SOL    HW312427   2.455   2.171   6.021  0.1582  0.9615  0.4682
 3165SOL    MW412428   2.419   2.209   5.952  0.7308 -0.3845 -0.9660
 3166SOL     OW12429   4.248   2.391   1.953 -0.1045 -0.4162 -0.7099
 3166SOL    HW212430   4.298   2.322   1.997 -0.7607 -0.0807  0.6246
 3166SOL    HW312431   4.163   2.352   1.934  0.1234 -0.5108 -1.5701
 3166SOL    MW412432   4.243   2.377   1.956  0.1840  0.2543 -0.0977
 3167SOL     OW12433   0.009   2.844   1.062 -0.3072 -0.3630 -0.1666
 3167SOL    HW212434   0.001   2.836   0.967 -0.3950  0.9243 -0.2899
 3167SOL    HW312435  -0.070   2.891   1.088  0.5094  0.7950  0.3040
 3167SOL    MW412436  -0.003   2.849   1.053  0.3153 -0.3839 -0.0946
 3168SOL     OW12437   0.084   5.161   3.477  0.2118 -0.2812  0.0073
 3168SOL    HW212438   0.169   5.199   3.456  0.1462  0.5828  1.2207
 3168SOL    HW312439   0.103   5.089   3.537  0.3437 -2.3509 -2.3490
 3168SOL    MW412440   0.098   5.156   3.482 -0.0459  0.8153 -0.5773
 3169SOL     OW12441   3.121   3.724   0.979  0.1402  0.1267  0.3571
 3169SOL    HW212442   3.191   3.784   0.953  0.8054 -1.6310 -2.3279
 3169SOL    HW312443   3.047   3.747   0.922 -0.4324 -0.0192  1.0283
 3169SOL    MW412444   3.120   3.735   0.968  0.0955 -0.8391 -0.0131
 3170SOL     OW12445   2.810   4.006   1.567  0.2070  0.1780  0.6354
 3170SOL    HW212446   2.823   4.093   1.531 -0.9594  0.2567  0.3391
 3170SOL    HW312447   2.890   3.958   1.546  0.3432  0.8060 -0.3315
 3170SOL    MW412448   2.822   4.011   1.559  0.1616  0.0805 -0.0603
 3171SOL     OW12449   0.068   5.070   5.953  0.1713 -0.2164 -0.6496
 3171SOL    HW212450   0.091   5.101   6.041 -2.1652  1.2417 -0.4567
 3171SOL    HW312451   0.103   5.138   5.895 -1.7240  0.9572 -0.4962
 3171SOL    MW412452   0.076   5.083   5.957  0.3393  0.1649 -0.4064
 3172SOL     OW12453   3.480   2.250   6.323 -0.0438 -0.0284 -0.1374
 3172SOL    HW212454   3.567   2.257   6.285 -0.0036 -1.2499 -0.3223
 3172SOL    HW312455   3.495   2.215   6.411 -0.1865  2.1402  0.8206
 3172SOL    MW412456   3.493   2.246   6.330  0.2697 -0.5991 -0.3896
 3173SOL     OW12457   5.714   1.609   1.533 -0.3228 -0.0207  0.1151
 3173SOL    HW212458   5.761   1.598   1.451  2.9927 -0.2619  1.8889
 3173SOL    HW312459   5.644   1.672   1.513 -0.4627 -1.0324 -3.1075
 3173SOL    MW412460   5.711   1.616   1.520  0.7491 -0.5004  0.2419
 3174SOL     OW12461   5.869   4.441   2.564  0.2450  0.0386 -0.3556
 3174SOL    HW212462   5.952   4.453   2.609  0.4744 -0.7817 -0.5400
 3174SOL    HW312463   5.893   4.434   2.472  0.2443 -2.4267 -0.2329
 3174SOL    MW412464   5.883   4.442   2.558  0.5512 -0.5308  0.6631
 3175SOL     OW12465   0.724   1.952   1.478  0.4354 -0.3971  0.5239
 3175SOL    HW212466   0.631   1.959   1.455  0.7465  1.2942 -0.3227
 3175SOL    HW312467   0.723   1.943   1.574 -0.5676  0.5968  0.6276
 3175SOL    MW412468   0.712   1.952   1.488  0.1487 -0.2974  0.6230
 3176SOL     OW12469   3.923   2.172   1.234  0.1018  0.1207 -0.3752
 3176SOL    HW212470   3.976   2.250   1.222 -0.2032  0.2185 -1.1953
 3176SOL    HW312471   3.906   2.167   1.328 -0.4528  1.4131 -0.3982
 3176SOL    MW412472   3.928   2.181   1.245 -0.3586 -0.9159 -0.8255
 3177SOL     OW12473   3.928   0.005   1.704 -0.1824 -0.4091  0.2464
 3177SOL    HW212474   3.874  -0.074   1.716 -0.3227 -0.3077  0.2809
 3177SOL    HW312475   3.868   0.069   1.667 -0.2638 -0.0626  0.9743
 3177SOL    MW412476   3.913   0.003   1.700 -0.0696 -0.3006  0.2939
 3178SOL     OW12477   0.242   1.459   1.718  0.1249  0.4763  0.1597
 3178SOL    HW212478   0.264   1.482   1.808 -0.7764  1.2348  0.1936
 3178SOL    HW312479   0.256   1.540   1.668  0.3992  0.1224 -0.3496
 3178SOL    MW412480   0.247   1.473   1.723  0.3519 -0.2488 -0.3676
 3179SOL     OW12481   4.643   5.329   2.071  0.0530  0.3150  0.3140
 3179SOL    HW212482   4.579   5.392   2.038 -0.9424 -0.7899  0.0646
 3179SOL    HW312483   4.590   5.263   2.117  0.7814 -1.6574 -1.5036
 3179SOL    MW412484   4.627   5.328   2.073  0.3250 -0.6215 -0.4971
 3180SOL     OW12485   1.193   2.187   2.137  0.6948  0.4350 -0.0518
 3180SOL    HW212486   1.127   2.138   2.089  2.1486 -0.2691 -1.3993
 3180SOL    HW312487   1.242   2.234   2.070  2.8830 -0.6938  0.6475
 3180SOL    MW412488   1.191   2.187   2.122 -0.1016 -0.0328 -0.1103
 3181SOL     OW12489   4.886   3.797   2.136  0.2540  0.1258  0.1739
 3181SOL    HW212490   4.937   3.798   2.055 -0.4902  2.5266 -0.3390
 3181SOL    HW312491   4.924   3.726   2.188  1.7483 -0.4575 -1.6419
 3181SOL    MW412492   4.898   3.788   2.133  0.0846  0.1609  0.4075
 3182SOL     OW12493   4.276   2.439   0.755  0.1494 -0.3046  0.0871
 3182SOL    HW212494   4.292   2.361   0.703 -0.5309  0.4017 -1.2190
 3182SOL    HW312495   4.282   2.511   0.693  0.7286  0.6943  1.2578
 3182SOL    MW412496   4.279   2.438   0.740 -0.1407  0.4005  0.4465
 3183SOL     OW12497   1.425   2.015   4.744 -0.0800 -0.1011  0.0205
 3183SOL    HW212498   1.438   2.006   4.649 -1.6770 -0.0949 -0.2248
 3183SOL    HW312499   1.404   2.108   4.756 -1.8078 -0.4605  0.0864
 3183SOL    MW412500   1.424   2.026   4.733  0.4576 -0.3391 -0.3764
 3184SOL     OW12501   2.402   5.712   5.356 -0.0116  0.3101  0.2198
 3184SOL    HW212502   2.439   5.788   5.399  2.7258  0.4629 -2.1087
 3184SOL    HW312503   2.383   5.741   5.267  2.2115 -1.8875 -1.1013
 3184SOL    MW412504   2.404   5.726   5.350  0.3599  0.0534 -0.2593
 3185SOL     OW12505   3.696   3.922   5.769 -0.2117  0.5200 -0.4062
 3185SOL    HW212506   3.629   3.978   5.729 -0.1881  0.5392 -0.4189
 3185SOL    HW312507   3.767   3.981   5.792  1.2047  0.1414 -3.2841
 3185SOL    MW412508   3.696   3.937   5.767 -0.0598 -0.2058  0.1622
 3186SOL     OW12509   0.793   0.874   3.769  0.2737 -0.4058 -0.1336
 3186SOL    HW212510   0.759   0.800   3.718  1.2228 -1.1125  0.2441
 3186SOL    HW312511   0.795   0.947   3.706 -0.6286 -0.6887 -0.5184
 3186SOL    MW412512   0.789   0.874   3.754  0.0950 -0.0207  0.5618
 3187SOL     OW12513   1.415   2.035   2.725  0.3704  0.2926 -0.2615
 3187SOL    HW212514   1.363   2.084   2.788  0.5818  1.6212 -1.0989
 3187SOL    HW312515   1.391   2.071   2.640  1.0656 -0.5609 -0.8394
 3187SOL    MW412516   1.405   2.046   2.722 -0.5283 -1.0423 -0.0774
 3188SOL     OW12517   3.642   2.264   4.408 -0.4058 -0.0200  0.0359
 3188SOL    HW212518   3.627   2.328   4.477  0.0441 -1.0512  1.1136
 3188SOL    HW312519   3.737   2.254   4.404 -0.4975 -1.3367  0.5738
 3188SOL    MW412520   3.653   2.271   4.416 -0.1905  0.4288 -0.3761
 3189SOL     OW12521   2.965   2.375   1.939 -0.3126  0.6686 -0.2525
 3189SOL    HW212522   2.907   2.308   1.903 -0.3060  0.2697  0.4538
 3189SOL    HW312523   2.986   2.344   2.027  3.7159 -0.9675 -1.5507
 3189SOL    MW412524   2.960   2.362   1.946  0.6108  0.0373  0.3706
 3190SOL     OW12525   3.063   5.905   5.321  0.4736  0.5679  1.0580
 3190SOL    HW212526   3.105   5.872   5.241 -0.9985  1.0153  0.0565
 3190SOL    HW312527   3.107   5.988   5.340 -0.3120  1.3333 -0.3242
 3190SOL    MW412528   3.075   5.911   5.313  0.4503 -0.5178  0.3048
 3191SOL     OW12529   1.970   4.591   4.067 -0.0210 -0.6518 -0.0315
 3191SOL    HW212530   1.931   4.560   4.149 -1.0743 -0.1945 -0.3408
 3191SOL    HW312531   1.901   4.578   4.002  1.2730 -2.3303 -1.1488
 3191SOL    MW412532   1.956   4.585   4.069 -0.0122 -0.6109  0.5643
 3192SOL     OW12533   1.244   0.825   1.456  0.6667 -0.2974 -0.2989
 3192SOL    HW212534   1.232   0.752   1.517 -3.6413  1.1630  0.9765
 3192SOL    HW312535   1.189   0.803   1.381 -0.6537  1.5029  0.0812
 3192SOL    MW412536   1.235   0.812   1.454  0.3919 -0.0851 -0.0430
 3193SOL     OW12537   6.299   4.067   4.538  0.1886 -0.1355 -0.5021
 3193SOL    HW212538   6.368   4.013   4.501  1.0939 -1.2306  2.4680
 3193SOL    HW312539   6.225   4.007   4.553  0.5989 -0.2619  1.2663
 3193SOL    MW412540   6.298   4.052   4.535 -0.0559 -0.2713  0.1695
 3194SOL     OW12541   0.440   5.862   3.781 -0.0213 -0.0263 -0.1269
 3194SOL    HW212542   0.446   5.862   3.686  0.0107  1.0842 -0.1338
 3194SOL    HW312543   0.528   5.838   3.810 -0.3030 -1.4497 -0.3631
 3194SOL    MW412544   0.453   5.859   3.773  0.0221 -0.4652 -0.1330
 3195SOL     OW12545   1.536   3.455   5.569 -0.5725 -0.1730  0.2130
 3195SOL    HW212546   1.488   3.535   5.546  1.0642  0.0443 -3.1264
 3195SOL    HW312547   1.476   3.384   5.544 -0.6334  0.0559 -0.3078
 3195SOL    MW412548   1.522   3.456   5.562  0.2263 -0.0578 -0.3036
 3196SOL     OW12549   1.055   3.555   4.205  0.0575 -0.4193  0.1550
 3196SOL    HW212550   1.019   3.636   4.241 -0.5721 -0.2008 -0.9322
 3196SOL    HW312551   1.093   3.580   4.121 -0.1677 -1.2497 -0.2073
 3196SOL    MW412552   1.055   3.569   4.199 -1.1066  0.4343  0.0848
 3197SOL     OW12553   4.542   1.222   2.938 -0.0413 -0.3109  0.0920
 3197SOL    HW212554   4.599   1.148   2.921  0.4585  0.4357 -1.7147
 3197SOL    HW312555   4.589   1.275   3.002  0.3851 -0.6944  0.1010
 3197SOL    MW412556   4.555   1.219   2.944 -0.0078 -1.2089 -0.0767
 3198SOL     OW12557   2.929   6.121   3.654  0.0632 -0.4307  0.2878
 3198SOL    HW212558   2.861   6.069   3.611  0.7569 -1.4552  0.4073
 3198SOL    HW312559   3.011   6.089   3.618  0.4994  0.9215  0.0081
 3198SOL    MW412560   2.931   6.110   3.644  0.4422 -0.2225  0.1224
 3199SOL     OW12561   3.155   3.229   5.673 -0.3674 -0.1423  0.0541
 3199SOL    HW212562   3.089   3.190   5.616 -1.5468 -0.2305  1.4413
 3199SOL    HW312563   3.167   3.165   5.743 -0.2772  0.7583  0.8811
 3199SOL    MW412564   3.148   3.215   5.675 -0.2143 -0.1660 -0.1332
 3200SOL     OW12565   0.398   5.664   4.986 -0.3070  0.5292 -0.0015
 3200SOL    HW212566   0.412   5.756   4.962 -4.5876  1.7169  1.2864
 3200SOL    HW312567   0.407   5.617   4.903  1.6903  2.0726 -0.7543
 3200SOL    MW412568   0.401   5.670   4.972 -0.2389  0.5641  0.1137
 3201SOL     OW12569   4.143   5.118   0.401  0.0929  0.0490 -0.4136
 3201SOL    HW212570   4.227   5.152   0.369 -1.0147  2.9334 -0.5115
 3201SOL    HW312571   4.148   5.129   0.496  0.2898 -1.0447 -0.2789
 3201SOL    MW412572   4.155   5.124   0.410  0.2129 -0.2736 -0.4734
 3202SOL     OW12573   0.931   4.371   5.176  0.2613  0.1548  0.0206
 3202SOL    HW212574   0.906   4.281   5.154  0.3913 -0.5144  2.3351
 3202SOL    HW312575   0.996   4.395   5.110  0.4661 -1.5677 -0.4552
 3202SOL    MW412576   0.936   4.362   5.165  0.4362  0.4991 -0.3752
 3203SOL     OW12577   2.358   5.360   2.860  0.0810  0.3692 -0.2189
 3203SOL    HW212578   2.420   5.294   2.893 -0.6838 -0.6758 -0.8035
 3203SOL    HW312579   2.374   5.437   2.914  1.0531 -0.2679  0.4431
 3203SOL    MW412580   2.369   5.361   2.871  0.3273  0.0647  0.4610
 3204SOL     OW12581   4.664   4.734   6.300 -0.7188  1.0117 -0.4999
 3204SOL    HW212582   4.625   4.742   6.387 -0.4828 -1.9699 -0.0126
 3204SOL    HW312583   4.756   4.756   6.312 -1.1891  3.2407 -0.6237
 3204SOL    MW412584   4.671   4.738   6.313 -0.3614 -0.2997 -0.1551
 3205SOL     OW12585   6.008   4.597   2.993 -0.0740 -0.3000  0.0921
 3205SOL    HW212586   6.096   4.624   2.969 -0.2919  0.3642  0.0342
 3205SOL    HW312587   5.978   4.663   3.055 -0.5565 -0.4878  0.0651
 3205SOL    MW412588   6.015   4.609   2.998 -0.1314 -0.4854  0.3649
 3206SOL     OW12589   3.782   5.287   2.211  0.2114 -0.2109  0.4224
 3206SOL    HW212590   3.852   5.310   2.271  0.2609 -0.2271  0.3700
 3206SOL    HW312591   3.825   5.268   2.128 -0.0738  3.2330 -0.6566
 3206SOL    MW412592   3.797   5.288   2.208  0.3285  0.7828 -0.7157
 3207SOL     OW12593   4.175   3.754   0.339 -0.0880 -0.5506 -0.3993
 3207SOL    HW212594   4.267   3.744   0.315 -0.6784 -2.4765 -2.0312
 3207SOL    HW312595   4.167   3.847   0.361  2.4548 -0.5314  0.9068
 3207SOL    MW412596   4.186   3.765   0.339 -0.8094 -0.1770 -1.1824
 3208SOL     OW12597   4.228   1.706   2.507  0.0040 -0.2528 -0.3038
 3208SOL    HW212598   4.291   1.662   2.450 -0.1068 -0.4144 -0.3013
 3208SOL    HW312599   4.147   1.656   2.497  0.2895 -1.0115  0.8796
 3208SOL    MW412600   4.225   1.694   2.499  0.6648 -0.9542  0.1858
 3209SOL     OW12601   1.285   5.805   5.776 -0.0915  0.3558 -0.0266
 3209SOL    HW212602   1.300   5.779   5.685  1.2228  0.3501  0.1678
 3209SOL    HW312603   1.308   5.727   5.827 -0.1845  0.5729  0.3471
 3209SOL    MW412604   1.290   5.791   5.771 -0.0020 -0.5806  0.7810
 3210SOL     OW12605   6.111   2.880   6.359  0.2800  0.3501  0.2054
 3210SOL    HW212606   6.076   2.951   6.305  2.2496 -0.2153 -1.9903
 3210SOL    HW312607   6.045   2.811   6.354 -0.0882  0.7468 -0.6149
 3210SOL    MW412608   6.098   2.880   6.351 -0.0524  0.5958  0.2792
 3211SOL     OW12609   3.390   3.706   3.484  0.2571  0.0530 -0.3213
 3211SOL    HW212610   3.381   3.622   3.438  0.9432  0.6252 -1.5438
 3211SOL    HW312611   3.317   3.707   3.545 -0.4359 -0.9311 -1.0960
 3211SOL    MW412612   3.379   3.695   3.486 -0.4247  0.4481 -0.0173
 3212SOL     OW12613   5.708   6.292   5.788  0.1957 -0.4518  0.2312
 3212SOL    HW212614   5.670   6.240   5.859 -0.2599 -0.2989  0.1027
 3212SOL    HW312615   5.727   6.377   5.829 -1.8410  0.2943 -0.2714
 3212SOL    MW412616   5.706   6.297   5.803  0.2635  0.1804  0.3026
 3213SOL     OW12617   0.466   2.498   2.863  0.2728 -0.6048 -0.1021
 3213SOL    HW212618   0.514   2.566   2.910  1.1422 -1.2946  0.0244
 3213SOL    HW312619   0.534   2.443   2.824 -0.3858 -1.9057  0.5079
 3213SOL    MW412620   0.481   2.500   2.864  0.7650 -0.0674 -0.2745
 3214SOL     OW12621   2.503   1.792   2.957 -0.3887  0.0074  0.6493
 3214SOL    HW212622   2.439   1.746   3.011 -0.9640 -0.4354 -0.3904
 3214SOL    HW312623   2.456   1.868   2.923  0.0629  0.4541  1.0078
 3214SOL    MW412624   2.489   1.796   2.960  0.0519  1.0361  0.2518
 3215SOL     OW12625   4.033   2.646   3.831 -0.0940  0.5235  0.0353
 3215SOL    HW212626   4.059   2.691   3.911  0.0062  1.8319 -0.7109
 3215SOL    HW312627   3.937   2.647   3.832 -0.1875 -2.0224  1.5161
 3215SOL    MW412628   4.024   2.652   3.841  0.0617 -0.0868 -0.5587
 3216SOL     OW12629   5.698   2.047   3.511  0.2334  0.5833  0.1263
 3216SOL    HW212630   5.635   1.976   3.495  0.6852 -0.1899  1.5749
 3216SOL    HW312631   5.782   2.002   3.517  0.6587  1.3723  0.0779
 3216SOL    MW412632   5.701   2.031   3.510  0.0955 -0.5975 -0.5179
 3217SOL     OW12633   5.495   0.042   5.571 -0.0301  0.1565 -0.0895
 3217SOL    HW212634   5.457  -0.030   5.622 -0.6359  0.7422  0.2981
 3217SOL    HW312635   5.577   0.063   5.616  0.7146 -1.0228 -0.8493
 3217SOL    MW412636   5.501   0.035   5.584  0.1644  0.1026  0.6797
 3218SOL     OW12637   3.544   2.005   1.701 -0.6117  0.3097 -0.3027
 3218SOL    HW212638   3.459   2.048   1.717 -0.7255  0.4558 -1.2648
 3218SOL    HW312639   3.522   1.913   1.687 -0.9416  0.7572 -3.1787
 3218SOL    MW412640   3.530   1.999   1.702  0.3876 -0.4942 -0.2438
 3219SOL     OW12641   3.541   0.936   1.529  0.0689 -0.0161  0.1192
 3219SOL    HW212642   3.603   0.868   1.555  1.1685 -0.7215 -3.6615
 3219SOL    HW312643   3.594   1.015   1.520 -0.4371  0.4120  0.8466
 3219SOL    MW412644   3.556   0.937   1.531  0.9665  0.0978 -0.0997
 3220SOL     OW12645   3.096   4.913   5.178  0.5520 -0.0961  0.2446
 3220SOL    HW212646   3.164   4.901   5.111  1.1200  0.5880  0.6824
 3220SOL    HW312647   3.060   4.825   5.191  0.1604 -0.1938 -1.2190
 3220SOL    MW412648   3.100   4.900   5.171 -0.2372  0.1619 -0.2794
 3221SOL     OW12649   5.515   2.483   2.768 -0.0719 -0.3134  0.1355
 3221SOL    HW212650   5.573   2.514   2.837  1.2667  1.5558 -1.6908
 3221SOL    HW312651   5.560   2.506   2.687 -1.7998 -1.9468 -1.3892
 3221SOL    MW412652   5.529   2.490   2.766  0.4436  0.1400 -0.0676
 3222SOL     OW12653   3.309   2.385   0.882  0.2494  0.2609  0.2434
 3222SOL    HW212654   3.397   2.369   0.847 -0.4534  0.3219 -1.6189
 3222SOL    HW312655   3.259   2.418   0.808 -0.9703  1.7011  1.6284
 3222SOL    MW412656   3.314   2.387   0.868 -0.2460 -0.5137 -0.0626
 3223SOL     OW12657   0.447   5.106   4.837 -0.8275  0.4743 -0.4579
 3223SOL    HW212658   0.394   5.170   4.885  0.7204 -0.3112  2.5616
 3223SOL    HW312659   0.467   5.038   4.902  0.1051 -1.5633 -2.7143
 3223SOL    MW412660   0.442   5.105   4.852  0.3656  0.1453 -0.0582
 3224SOL     OW12661   1.219   5.999   1.157 -0.1665  0.3115 -0.1000
 3224SOL    HW212662   1.124   6.014   1.162  0.3368  5.0633 -0.3712
 3224SOL    HW312663   1.235   5.978   1.065 -0.9366 -0.6549 -0.0268
 3224SOL    MW412664   1.208   5.998   1.146 -0.0244  0.0355 -0.1923
 3225SOL     OW12665   1.811   5.911   3.098  0.0116 -0.4632 -0.1040
 3225SOL    HW212666   1.720   5.899   3.072  0.1885  0.7834 -1.4257
 3225SOL    HW312667   1.861   5.900   3.017  1.0643 -1.2234  0.6195
 3225SOL    MW412668   1.805   5.908   3.084  0.3480 -0.5675 -0.5643
 3226SOL     OW12669   0.888   1.816   5.099 -0.5084  0.2228 -0.0800
 3226SOL    HW212670   0.872   1.850   5.012 -0.9857  0.3185  0.0403
 3226SOL    HW312671   0.967   1.861   5.129  0.5177 -0.8938 -1.0251
 3226SOL    MW412672   0.896   1.826   5.092 -0.1983 -0.0118 -0.0700
 3227SOL     OW12673   0.734   2.680   1.206 -0.4176 -0.3021 -0.2352
 3227SOL    HW212674   0.794   2.741   1.248  0.1857  0.5596 -2.2324
 3227SOL    HW312675   0.749   2.597   1.251  1.6075  0.1074 -0.0401
 3227SOL    MW412676   0.744   2.677   1.217 -0.0598  0.0696  0.0531
 3228SOL     OW12677   4.203   6.172   3.679 -0.0580 -0.0049 -0.3259
 3228SOL    HW212678   4.118   6.179   3.721  1.1034 -1.5060  2.5784
 3228SOL    HW312679   4.230   6.262   3.664 -1.5003  0.5382  0.1713
 3228SOL    MW412680   4.196   6.185   3.683 -0.4661  0.2365  0.1296
 3229SOL     OW12681   3.187   1.384   2.959 -0.5392  0.7328  0.1120
 3229SOL    HW212682   3.253   1.419   3.018 -0.6009  0.0383  0.6090
 3229SOL    HW312683   3.222   1.300   2.930 -0.9825  0.5856 -0.0156
 3229SOL    MW412684   3.200   1.377   2.963 -0.5828  0.5937 -0.1821
 3230SOL     OW12685   0.135   5.142   5.108  0.0955  0.3304 -0.1464
 3230SOL    HW212686   0.144   5.193   5.188  1.7236  1.0221 -0.7181
 3230SOL    HW312687   0.042   5.145   5.087 -0.1992  0.9413  1.1873
 3230SOL    MW412688   0.124   5.149   5.116  0.3611  0.2129  0.2751
 3231SOL     OW12689   6.011   0.477   0.323 -0.2086 -0.3823 -0.2851
 3231SOL    HW212690   6.008   0.382   0.313 -2.1481 -0.5645  1.2868
 3231SOL    HW312691   5.986   0.492   0.414 -2.0506  1.7084 -1.0445
 3231SOL    MW412692   6.008   0.466   0.334  0.3052 -0.3315  0.6089
 3232SOL     OW12693   5.201   6.033   1.536 -0.0219 -0.5763 -0.1784
 3232SOL    HW212694   5.239   6.009   1.451 -0.3476 -1.3645 -0.1137
 3232SOL    HW312695   5.221   5.958   1.593 -0.9127 -0.6198  0.0871
 3232SOL    MW412696   5.209   6.020   1.532 -0.2317 -0.4110 -0.3211
 3233SOL     OW12697   1.041   0.189   2.874 -0.5652 -0.4969 -0.6753
 3233SOL    HW212698   1.061   0.277   2.842  2.0043 -1.3517 -1.6661
 3233SOL    HW312699   0.990   0.149   2.804 -0.0780 -0.3973 -1.0946
 3233SOL    MW412700   1.037   0.195   2.861  0.9588  0.0509 -0.0445
 3234SOL     OW12701   5.379   1.099   3.928  0.3762 -0.2722  0.2584
 3234SOL    HW212702   5.295   1.093   3.974  0.2033 -1.0697 -0.1297
 3234SOL    HW312703   5.420   1.013   3.941  0.6384 -0.2634 -0.4641
 3234SOL    MW412704   5.373   1.087   3.936 -0.5066 -0.0166  0.1537
 3235SOL     OW12705   4.680   3.203   4.444 -0.1722  0.3112  0.3419
 3235SOL    HW212706   4.750   3.138   4.439  1.3711  1.8574  0.8634
 3235SOL    HW312707   4.681   3.247   4.359 -0.4152  0.4488  0.4086
 3235SOL    MW412708   4.689   3.200   4.432  0.7686 -0.1705 -0.2143
 3236SOL     OW12709   3.253   4.916   0.775 -0.1823 -0.6024  0.3775
 3236SOL    HW212710   3.241   4.929   0.870 -0.9102 -1.2962  0.3920
 3236SOL    HW312711   3.310   4.839   0.768  0.3869 -0.1793  0.2467
 3236SOL    MW412712   3.259   4.907   0.787 -0.2800 -0.8151  0.4017
 3237SOL     OW12713   1.126   5.659   0.534 -0.4142 -0.1620  0.0471
 3237SOL    HW212714   1.165   5.594   0.475  0.1704 -0.4547  0.7401
 3237SOL    HW312715   1.142   5.743   0.492  2.8495 -0.0459  1.2304
 3237SOL    MW412716   1.134   5.661   0.521 -0.0823 -0.4549 -0.0213
 3238SOL     OW12717   4.037   3.205   5.903 -0.0473 -0.0362 -0.4021
 3238SOL    HW212718   3.972   3.158   5.852 -0.4798  0.0510  0.0552
 3238SOL    HW312719   4.122   3.169   5.875 -0.4235 -2.2905  1.1012
 3238SOL    MW412720   4.040   3.194   5.893 -0.5358  0.4919  0.1666
 3239SOL     OW12721   4.689   0.334   4.298  0.6587 -0.0017 -0.0612
 3239SOL    HW212722   4.725   0.377   4.376 -0.4602  0.2335  0.3447
 3239SOL    HW312723   4.679   0.242   4.324  0.8530 -0.0457 -0.1383
 3239SOL    MW412724   4.692   0.327   4.312  0.2364 -0.1843 -0.4370
 3240SOL     OW12725   3.493   6.287   6.108  0.1443 -0.1203  0.0689
 3240SOL    HW212726   3.568   6.249   6.154  0.0641 -0.4074 -0.0332
 3240SOL    HW312727   3.444   6.211   6.076  0.5248  0.0764 -1.0119
 3240SOL    MW412728   3.497   6.272   6.110 -0.5605 -1.2095 -0.2448
 3241SOL     OW12729   0.544   6.424   1.547 -0.0807  0.6840  0.6527
 3241SOL    HW212730   0.631   6.462   1.532  0.8845 -1.7221 -0.5090
 3241SOL    HW312731   0.505   6.479   1.614  1.6843  2.8263  0.0495
 3241SOL    MW412732   0.550   6.436   1.554 -0.1094  0.3552 -0.2002
 3242SOL     OW12733   5.576   2.924   5.036 -0.7577 -0.5274  0.0737
 3242SOL    HW212734   5.552   3.011   5.069  0.7662 -0.5649  1.3711
 3242SOL    HW312735   5.555   2.928   4.943 -0.6990  1.2434  0.0988
 3242SOL    MW412736   5.570   2.936   5.028  0.5050  0.3405 -0.0741
 3243SOL     OW12737   1.371   5.058   1.949  0.4057  0.0795  0.1808
 3243SOL    HW212738   1.360   5.070   1.854  0.4483  0.1755  0.1879
 3243SOL    HW312739   1.289   5.018   1.977  0.1787  0.5370  0.1886
 3243SOL    MW412740   1.359   5.054   1.940 -0.3703 -0.7428 -0.3736
 3244SOL     OW12741   3.737   3.797   2.041 -0.4991 -0.4538 -0.2162
 3244SOL    HW212742   3.723   3.826   2.131 -0.7419 -1.7486  0.1855
 3244SOL    HW312743   3.721   3.875   1.988  2.5753  1.1429  0.9958
 3244SOL    MW412744   3.733   3.811   2.045 -0.3700  0.3392 -0.3932
 3245SOL     OW12745   5.937   1.710   2.653 -0.3165 -0.2073 -0.4727
 3245SOL    HW212746   5.977   1.627   2.629  0.0417 -0.7618  1.8206
 3245SOL    HW312747   5.890   1.692   2.735 -0.6290  1.7221 -0.1762
 3245SOL    MW412748   5.936   1.697   2.661  0.0783 -0.2102 -1.0866
 3246SOL     OW12749   2.796   2.387   3.869  0.0107  0.0170 -0.2610
 3246SOL    HW212750   2.707   2.422   3.879 -1.1267 -2.4628 -0.9368
 3246SOL    HW312751   2.830   2.433   3.792 -0.5511  1.2356  0.1910
 3246SOL    MW412752   2.789   2.398   3.860 -0.1361 -0.3930 -0.2402
 3247SOL     OW12753   5.540   4.733   4.110 -0.5002 -0.3166  0.3076
 3247SOL    HW212754   5.630   4.762   4.123 -1.1266  1.5715  0.7462
 3247SOL    HW312755   5.532   4.654   4.164  0.5802  0.1227  1.1335
 3247SOL    MW412756   5.551   4.726   4.119  1.1140 -0.6820  0.4370
 3248SOL     OW12757   0.925   1.469   3.418  0.0937 -0.1448 -0.5747
 3248SOL    HW212758   0.978   1.390   3.411  0.0997 -0.1765 -0.1872
 3248SOL    HW312759   0.882   1.477   3.332  0.2604 -0.4468 -0.6871
 3248SOL    MW412760   0.926   1.460   3.405  0.2935 -0.5109  0.7856
 3249SOL     OW12761   5.598   4.240   4.246 -0.4005  0.3858 -0.3695
 3249SOL    HW212762   5.508   4.242   4.212  0.0170 -0.5540 -1.5902
 3249SOL    HW312763   5.653   4.252   4.169  0.5493  0.8545  0.3521
 3249SOL    MW412764   5.593   4.242   4.231 -0.4059  0.2018  0.0532
 3250SOL     OW12765   4.582   5.227   3.816 -0.5266  0.1720  0.0733
 3250SOL    HW212766   4.567   5.319   3.792 -1.8137  0.5422  1.9925
 3250SOL    HW312767   4.544   5.177   3.745 -0.3335  1.1299 -0.7246
 3250SOL    MW412768   4.575   5.233   3.804  0.0520  0.4958 -0.1109
 3251SOL     OW12769   2.795   6.401   2.299  0.3405 -0.0635 -0.3344
 3251SOL    HW212770   2.763   6.392   2.210  1.1017  0.6887 -0.6917
 3251SOL    HW312771   2.725   6.365   2.353 -0.1352 -0.5039 -1.2246
 3251SOL    MW412772   2.782   6.395   2.295 -0.7518 -0.1368 -0.1429
 3252SOL     OW12773   0.773   3.782   1.673 -0.0574 -0.9188  0.4684
 3252SOL    HW212774   0.854   3.760   1.719  0.4256 -0.4971 -0.1639
 3252SOL    HW312775   0.802   3.808   1.585 -0.8985 -0.9977  0.1609
 3252SOL    MW412776   0.788   3.782   1.667  0.1357 -0.4430 -0.1098
 3253SOL     OW12777   2.499   3.225   2.071 -0.0183 -0.0135  0.4146
 3253SOL    HW212778   2.541   3.238   1.987 -1.1726 -0.3793 -0.2482
 3253SOL    HW312779   2.512   3.132   2.092  0.3873  0.1080  0.7119
 3253SOL    MW412780   2.506   3.214   2.063 -0.0970  0.0606  0.3510
 3254SOL     OW12781   1.830   0.860   4.016  0.0217 -0.1817 -0.2991
 3254SOL    HW212782   1.911   0.873   3.966  0.7745 -0.6189  0.7844
 3254SOL    HW312783   1.859   0.831   4.102 -1.2815  0.0117  0.2262
 3254SOL    MW412784   1.845   0.858   4.021  0.3888  0.3996 -0.4222
 3255SOL     OW12785   5.727   1.136   3.801  0.4451 -0.0830  0.6258
 3255SOL    HW212786   5.734   1.100   3.889  1.7870  0.2880  0.6941
 3255SOL    HW312787   5.796   1.093   3.751  1.2490  1.3930  0.3860
 3255SOL    MW412788   5.737   1.126   3.806  0.0957  0.1265 -0.5909
 3256SOL     OW12789   0.402   2.346   1.914 -0.2798  0.5467 -0.7022
 3256SOL    HW212790   0.486   2.363   1.955 -0.3031  0.8868 -0.7892
 3256SOL    HW312791   0.396   2.410   1.842 -0.6192  0.5440 -0.6815
 3256SOL    MW412792   0.412   2.357   1.910  0.3292 -0.0609 -0.1257
 3257SOL     OW12793   5.854   5.989   1.612 -0.2048 -0.6136  0.2798
 3257SOL    HW212794   5.843   6.038   1.694  2.8731  1.4791 -0.4037
 3257SOL    HW312795   5.783   6.021   1.557 -1.1054 -0.5429  1.4297
 3257SOL    MW412796   5.843   6.000   1.616 -0.6789 -0.7705 -0.6563
 3258SOL     OW12797   0.538   5.403   4.378 -0.2136 -0.9298  0.0565
 3258SOL    HW212798   0.578   5.334   4.431  0.4673 -0.3952  0.2734
 3258SOL    HW312799   0.609   5.467   4.367 -1.2415  0.4514  1.1377
 3258SOL    MW412800   0.553   5.403   4.384  0.7071 -0.4325 -0.4565
 3259SOL     OW12801   0.039   0.542   6.291  0.0578 -0.5290 -0.1525
 3259SOL    HW212802  -0.031   0.562   6.229 -0.9941 -1.4801  0.6856
 3259SOL    HW312803   0.107   0.606   6.271 -1.2474  0.7713 -0.6579
 3259SOL    MW412804   0.039   0.553   6.280 -0.4024 -0.0552 -0.0454
 3260SOL     OW12805   4.270   4.603   5.956  0.2488  0.2655 -0.3715
 3260SOL    HW212806   4.271   4.627   6.049 -1.0550  0.6586 -0.4368
 3260SOL    HW312807   4.359   4.573   5.938  0.0121 -1.9079  1.5565
 3260SOL    MW412808   4.282   4.602   5.966  0.1229 -0.0932  0.2170
 3261SOL     OW12809   4.880   2.189   3.232 -0.1501  0.5548  0.0560
 3261SOL    HW212810   4.901   2.096   3.226  1.2582  0.8663 -0.3591
 3261SOL    HW312811   4.793   2.192   3.271 -0.5220 -0.9551 -0.5935
 3261SOL    MW412812   4.871   2.177   3.236  0.0504  0.1339  0.1695
 3262SOL     OW12813   1.210   2.115   3.455 -0.0180 -0.0008  0.1570
 3262SOL    HW212814   1.147   2.166   3.404 -0.3157  1.0069  1.4722
 3262SOL    HW312815   1.156   2.069   3.520  0.3149 -1.5223 -0.6004
 3262SOL    MW412816   1.194   2.116   3.457  0.2517  0.2278 -0.2478
 3263SOL     OW12817   3.875   6.097   2.655  0.4762 -0.3725  0.6131
 3263SOL    HW212818   3.878   6.081   2.749 -0.9126 -1.2530  0.5477
 3263SOL    HW312819   3.800   6.045   2.625 -0.1376  1.1916 -0.7127
 3263SOL    MW412820   3.865   6.088   2.664 -0.5055 -0.6127 -0.4473
 3264SOL     OW12821   3.978   6.228   6.188 -0.5643  0.4223  0.1080
 3264SOL    HW212822   4.046   6.161   6.183 -2.2165 -1.4198  0.7159
 3264SOL    HW312823   3.972   6.263   6.099  0.4002 -0.1890 -0.2102
 3264SOL    MW412824   3.986   6.224   6.175 -0.0103 -0.4211  0.0188
 3265SOL     OW12825   1.081   3.110   4.370  0.1066  0.3223 -0.6161
 3265SOL    HW212826   1.051   3.103   4.461  1.9536  1.0557  0.1061
 3265SOL    HW312827   1.007   3.150   4.324 -0.6383  0.5545  0.7140
 3265SOL    MW412828   1.067   3.115   4.376 -0.3369  0.3703 -0.5586
 3266SOL     OW12829   1.016   1.313   4.792  0.0877 -0.5504  0.3085
 3266SOL    HW212830   1.062   1.396   4.784 -0.2301 -0.4658 -1.0371
 3266SOL    HW312831   0.998   1.287   4.701  0.3557 -2.1863  0.6852
 3266SOL    MW412832   1.019   1.321   4.779 -0.4151 -0.0094  0.6734
 3267SOL     OW12833   0.730   3.430   1.444 -0.5607 -0.8236 -0.2286
 3267SOL    HW212834   0.666   3.387   1.387 -0.8762 -1.5952  0.6962
 3267SOL    HW312835   0.762   3.360   1.502 -0.1392 -0.0811  0.4500
 3267SOL    MW412836   0.726   3.415   1.444  0.4635 -0.2299 -0.1032
 3268SOL     OW12837   1.356   3.757   2.045  0.0330 -0.6501 -0.0070
 3268SOL    HW212838   1.335   3.671   2.081  0.5449 -1.1863 -0.9286
 3268SOL    HW312839   1.379   3.810   2.121 -4.2272 -0.0579  1.1086
 3268SOL    MW412840   1.356   3.752   2.060 -0.2475  0.2413 -0.2598
 3269SOL     OW12841   0.335   0.996   6.389  0.1381  0.3009 -0.3449
 3269SOL    HW212842   0.354   1.089   6.377  0.1315  0.2051 -1.1516
 3269SOL    HW312843   0.241   0.993   6.403  0.2835  0.5090  0.8097
 3269SOL    MW412844   0.325   1.008   6.390  0.3503 -0.6205 -0.0490
 3270SOL     OW12845   0.392   1.861   1.763 -0.1532 -0.1375 -0.1378
 3270SOL    HW212846   0.408   1.823   1.676  0.6907 -1.3617  0.5202
 3270SOL    HW312847   0.475   1.900   1.788 -0.5440  0.6871 -0.0804
 3270SOL    MW412848   0.405   1.861   1.755 -0.0765 -0.0574 -0.1985
 3271SOL     OW12849   4.810   1.809   2.676 -0.4781  0.5330 -0.1352
 3271SOL    HW212850   4.822   1.877   2.609  2.9966  0.1377 -0.0954
 3271SOL    HW312851   4.798   1.857   2.757 -2.1881  1.0275 -0.6488
 3271SOL    MW412852   4.810   1.824   2.678  0.0883  0.4151 -0.1064
 3272SOL     OW12853   0.439   0.693   0.787  0.1653  0.1079  0.3907
 3272SOL    HW212854   0.375   0.643   0.838  1.1325  0.0769  1.6235
 3272SOL    HW312855   0.417   0.674   0.696 -0.6734 -1.0382  0.8033
 3272SOL    MW412856   0.427   0.684   0.782  0.6903 -0.4564 -0.4072
 3273SOL     OW12857   0.355   1.154   2.213 -0.0674  0.1407 -0.4381
 3273SOL    HW212858   0.341   1.246   2.234 -0.8024 -0.0989  0.1618
 3273SOL    HW312859   0.291   1.135   2.144 -1.5672 -0.4937  1.0519
 3273SOL    MW412860   0.344   1.164   2.206 -0.1744  0.4845  0.0773
 3274SOL     OW12861   0.929   3.624   3.595 -0.2215 -0.0173 -0.0377
 3274SOL    HW212862   0.870   3.666   3.532  0.1537 -0.9696 -1.0688
 3274SOL    HW312863   0.890   3.538   3.609 -0.1075  0.0594  0.7800
 3274SOL    MW412864   0.916   3.618   3.588 -0.1214  0.1136  0.2710
 3275SOL     OW12865   3.122   5.424   1.239 -0.5193  0.1440 -0.3145
 3275SOL    HW212866   3.132   5.338   1.279 -0.6330 -0.5837 -1.7746
 3275SOL    HW312867   3.027   5.439   1.236 -0.4902  0.5278  0.3017
 3275SOL    MW412868   3.111   5.415   1.244 -0.7955  0.0048 -0.2627
 3276SOL     OW12869   2.746   6.373   2.021  0.0189  1.2814  0.1842
 3276SOL    HW212870   2.653   6.375   1.997  0.1161 -1.7098 -0.8245
 3276SOL    HW312871   2.783   6.451   1.980 -1.5016  0.9438 -2.0183
 3276SOL    MW412872   2.739   6.384   2.012  0.4015  0.8171  0.9832
 3277SOL     OW12873   0.073   6.390   5.809 -0.9671 -0.0469  0.0394
 3277SOL    HW212874   0.118   6.448   5.747  0.2384 -0.8142  0.1597
 3277SOL    HW312875   0.074   6.304   5.768  2.1505 -1.1695  2.0719
 3277SOL    MW412876   0.079   6.386   5.795  0.0937  0.2972 -0.4482
 3278SOL     OW12877   4.851   6.152   5.328 -0.1859 -0.1830 -0.2327
 3278SOL    HW212878   4.836   6.207   5.251  2.7634  1.6034  0.3086
 3278SOL    HW312879   4.831   6.208   5.403 -1.5688 -1.4149  0.3816
 3278SOL    MW412880   4.846   6.167   5.328 -0.6217 -0.9148  0.0010
 3279SOL     OW12881   0.755   2.756   0.555 -0.4053  0.4219 -0.2482
 3279SOL    HW212882   0.797   2.675   0.526 -1.3239  0.5273 -2.0189
 3279SOL    HW312883   0.663   2.734   0.563 -0.4317  0.8912  0.9006
 3279SOL    MW412884   0.749   2.743   0.552 -0.2585 -0.3529  0.6677
 3280SOL     OW12885   4.148   4.378   5.001 -0.0496  0.5209  0.1518
 3280SOL    HW212886   4.139   4.471   5.020 -0.6459  0.4652  0.1841
 3280SOL    HW312887   4.154   4.336   5.087 -0.1552  0.5003  0.1502
 3280SOL    MW412888   4.148   4.385   5.015 -0.0917  0.2767 -0.4469
 3281SOL     OW12889   6.110   0.033   5.043  0.2057  0.4034 -0.8502
 3281SOL    HW212890   6.170  -0.040   5.028  0.1925  0.3576 -0.6713
 3281SOL    HW312891   6.167   0.110   5.043  0.4154  0.2626  0.4283
 3281SOL    MW412892   6.125   0.033   5.041 -0.8563  0.2607  0.4862
 3282SOL     OW12893   1.782   5.892   1.836 -0.5644  0.1129  0.1646
 3282SOL    HW212894   1.764   5.958   1.769 -1.5875 -0.8098 -0.5008
 3282SOL    HW312895   1.853   5.930   1.888 -1.6525  2.0840  0.3149
 3282SOL    MW412896   1.789   5.906   1.834 -0.2758 -0.5995  0.2319
 3283SOL     OW12897   4.441   2.380   5.366  0.0757 -0.1591 -0.9791
 3283SOL    HW212898   4.494   2.357   5.442  0.4686 -1.7215 -1.6861
 3283SOL    HW312899   4.366   2.320   5.371 -1.2817  1.4985 -0.4160
 3283SOL    MW412900   4.438   2.369   5.377  0.3527  0.1028  0.2279
 3284SOL     OW12901   3.173   0.359   3.536 -0.0650 -0.0451 -0.2658
 3284SOL    HW212902   3.174   0.381   3.629 -1.1157  2.5301 -0.7595
 3284SOL    HW312903   3.262   0.375   3.507  0.4344 -1.4923  0.3757
 3284SOL    MW412904   3.185   0.364   3.544  0.3145 -0.0118 -0.1332
 3285SOL     OW12905   4.228   1.431   5.546  0.6737 -0.0546  0.0715
 3285SOL    HW212906   4.241   1.519   5.511  0.7000 -0.8657 -2.1525
 3285SOL    HW312907   4.312   1.407   5.585  0.0718  1.6193  2.6190
 3285SOL    MW412908   4.240   1.439   5.547 -0.1352  0.2325 -0.3398
 3286SOL     OW12909   4.728   0.822   3.400 -0.5174  0.3089 -0.8251
 3286SOL    HW212910   4.743   0.734   3.366  0.5556 -0.0200  0.4021
 3286SOL    HW312911   4.648   0.852   3.356 -0.7172 -1.1416 -1.5025
 3286SOL    MW412912   4.719   0.815   3.390  0.3257  0.0550 -0.0389
 3287SOL     OW12913   2.423   2.492   5.487  0.0189  0.1853 -0.2843
 3287SOL    HW212914   2.403   2.542   5.408  1.4156 -0.5098 -1.1187
 3287SOL    HW312915   2.494   2.433   5.461  0.4895 -0.0896  1.4894
 3287SOL    MW412916   2.430   2.491   5.473  0.3767 -0.1985  0.8587
 3288SOL     OW12917   1.029   2.111   5.499  0.0714  0.8177  0.5562
 3288SOL    HW212918   1.121   2.097   5.521 -0.0028  0.6399  0.7502
 3288SOL    HW312919   1.003   2.188   5.549  0.0071  0.6371  0.8011
 3288SOL    MW412920   1.038   2.119   5.508  0.4538  0.0912  1.0463
 3289SOL     OW12921   5.490   0.147   3.302  0.5211  0.2379 -0.0165
 3289SOL    HW212922   5.436   0.202   3.245  0.2264  0.2077  0.2290
 3289SOL    HW312923   5.572   0.135   3.253  0.3879  0.4595 -0.2998
 3289SOL    MW412924   5.494   0.153   3.288  0.2083 -0.1351 -0.1172
 3290SOL     OW12925   3.702   4.111   3.089  0.0430  0.0085 -0.1362
 3290SOL    HW212926   3.626   4.107   3.147 -1.0743  1.1813 -1.4693
 3290SOL    HW312927   3.773   4.144   3.145 -1.4966  3.1280  0.1644
 3290SOL    MW412928   3.702   4.115   3.104  0.0198 -0.3774 -0.0683
 3291SOL     OW12929   0.958   1.276   3.027  0.1417  0.6053  0.4168
 3291SOL    HW212930   0.887   1.255   3.086 -1.9368  0.2508 -2.0276
 3291SOL    HW312931   0.926   1.352   2.977  1.1723  0.0432 -1.1801
 3291SOL    MW412932   0.945   1.284   3.028  0.3284 -0.2704  0.4435
 3292SOL     OW12933   0.916   5.486   4.646 -0.4149  0.4183 -0.0830
 3292SOL    HW212934   0.849   5.477   4.714  0.8102  1.2752  1.2964
 3292SOL    HW312935   0.923   5.580   4.631  0.8320  0.3801  0.1720
 3292SOL    MW412936   0.908   5.497   4.653  0.1193 -0.2178  0.3373
 3293SOL     OW12937   4.955   5.915   1.752  0.3991 -0.1775 -0.4182
 3293SOL    HW212938   5.050   5.918   1.762  0.5724 -1.6927 -1.3896
 3293SOL    HW312939   4.937   5.972   1.678  0.4317  0.7697  0.2741
 3293SOL    MW412940   4.965   5.923   1.744 -0.1535 -0.5377  0.1613
 3294SOL     OW12941   0.992   0.210   2.486  0.2007 -0.2103 -0.0834
 3294SOL    HW212942   1.040   0.130   2.464  0.0685 -1.1772  2.7419
 3294SOL    HW312943   1.044   0.280   2.447 -0.0212 -1.5863 -3.2281
 3294SOL    MW412944   1.005   0.208   2.478  0.2934  0.0502 -0.6498
 3295SOL     OW12945   1.741   5.549   0.080  0.1247  0.0449 -0.1942
 3295SOL    HW212946   1.805   5.494   0.125  0.5566  0.4243 -0.3399
 3295SOL    HW312947   1.671   5.561   0.144 -0.0512 -0.7991 -0.2130
 3295SOL    MW412948   1.740   5.543   0.094 -0.0864  0.0445  0.6482
 3296SOL     OW12949   0.812   0.269   3.052 -0.1985  0.3551  0.6603
 3296SOL    HW212950   0.847   0.292   3.139  0.4483 -4.6017  2.0174
 3296SOL    HW312951   0.889   0.264   2.996 -0.1106 -0.0074  0.8076
 3296SOL    MW412952   0.827   0.271   3.056  0.0521  0.6648 -0.4884
 3297SOL     OW12953   0.664   0.316   4.592 -0.2551  0.1047  0.3645
 3297SOL    HW212954   0.717   0.239   4.571 -0.0242  0.1500  0.7592
 3297SOL    HW312955   0.577   0.281   4.612 -0.0749 -0.0929  0.8380
 3297SOL    MW412956   0.660   0.301   4.592  0.0692  0.0993  0.2377
 3298SOL     OW12957   5.341   1.419   5.106  0.1117 -0.6438  0.3779
 3298SOL    HW212958   5.359   1.325   5.107 -0.1847 -0.7071  0.1279
 3298SOL    HW312959   5.409   1.457   5.050 -0.5782 -0.8938 -0.6652
 3298SOL    MW412960   5.352   1.412   5.099  0.1546  0.4655 -0.0464
 3299SOL     OW12961   2.231   0.555   5.490  0.3919 -0.0811 -0.5141
 3299SOL    HW212962   2.163   0.595   5.544 -1.3443  0.1361 -2.7029
 3299SOL    HW312963   2.236   0.464   5.522  1.0610  0.5837  1.4300
 3299SOL    MW412964   2.223   0.548   5.502  0.0485  0.1201 -0.0601
 3300SOL     OW12965   5.734   5.435   1.448  0.0731  0.0261  0.4832
 3300SOL    HW212966   5.740   5.344   1.418 -0.0249 -0.0894  0.8115
 3300SOL    HW312967   5.717   5.486   1.369 -1.0957 -0.3771  0.4551
 3300SOL    MW412968   5.733   5.430   1.434 -0.3582  0.5257  0.2989
 3301SOL     OW12969   5.627   4.845   4.410 -0.6570  0.0679  0.9007
 3301SOL    HW212970   5.672   4.893   4.341  1.8710 -0.6363  1.9172
 3301SOL    HW312971   5.535   4.846   4.385 -0.0503  1.2778 -1.5556
 3301SOL    MW412972   5.621   4.851   4.398  0.0849 -0.4926  0.3781
 3302SOL     OW12973   3.489   4.378   0.722 -0.4144  0.5887 -0.0069
 3302SOL    HW212974   3.459   4.291   0.696  0.4883  0.6839 -1.4382
 3302SOL    HW312975   3.485   4.377   0.818  1.4752 -1.7691  0.1434
 3302SOL    MW412976   3.485   4.367   0.732 -0.2865  0.6373  0.3694
 3303SOL     OW12977   5.836   3.541   0.247  0.0154 -0.7474  0.2807
 3303SOL    HW212978   5.759   3.596   0.262  0.8826  0.4837  0.3793
 3303SOL    HW312979   5.806   3.474   0.186 -0.9968  0.0509 -0.1321
 3303SOL    MW412980   5.822   3.540   0.241 -0.5522 -0.5407  0.3220
 3304SOL     OW12981   5.367   3.394   2.139 -0.7639  0.0536 -0.2910
 3304SOL    HW212982   5.345   3.359   2.225  0.4367 -3.0761 -1.1340
 3304SOL    HW312983   5.286   3.388   2.089 -1.0257  0.2419  0.1042
 3304SOL    MW412984   5.353   3.389   2.144  0.2761 -0.0888 -0.1652
 3305SOL     OW12985   0.528   3.805   5.931  0.1268 -0.0258 -0.0914
 3305SOL    HW212986   0.506   3.723   5.888 -1.5050  0.3219  0.0073
 3305SOL    HW312987   0.609   3.834   5.889  1.5141 -2.3354  0.8427
 3305SOL    MW412988   0.536   3.798   5.920  0.2244  0.3157 -0.1275
 3306SOL     OW12989   5.170   4.420   0.592  0.0919 -0.0360  0.2568
 3306SOL    HW212990   5.137   4.378   0.512  0.8463  0.0770 -0.1324
 3306SOL    HW312991   5.258   4.384   0.602  0.5381  1.0237  0.2313
 3306SOL    MW412992   5.177   4.409   0.583  0.1274 -0.3917 -0.2336
 3307SOL     OW12993   5.158   4.347   2.427  0.3534  0.9180  0.1882
 3307SOL    HW212994   5.221   4.280   2.453  0.5649  0.6224 -0.9980
 3307SOL    HW312995   5.115   4.309   2.350 -0.1933  1.7574  0.0721
 3307SOL    MW412996   5.160   4.333   2.420 -0.2669 -0.3685 -0.4612
 3308SOL     OW12997   1.966   4.735   2.766 -0.5809  0.3801  0.3155
 3308SOL    HW212998   1.905   4.768   2.831  0.0824 -0.6008  1.4710
 3308SOL    HW312999   1.913   4.682   2.706 -1.0266  0.4142  0.6835
 3308SOL    MW413000   1.951   4.732   2.766 -0.0076 -0.6558 -0.4828
 3309SOL     OW13001   3.179   3.061   2.092 -0.1080 -0.0974 -0.1926
 3309SOL    HW213002   3.199   3.063   2.186 -0.2023 -0.4800 -0.1583
 3309SOL    HW313003   3.173   2.967   2.072 -1.0132 -0.0101 -0.3775
 3309SOL    MW413004   3.181   3.049   2.102 -0.2020 -0.2811  0.5215
 3310SOL     OW13005   1.940   0.978   3.459 -0.4247 -0.4491 -0.2096
 3310SOL    HW213006   1.861   1.007   3.504  0.3542  1.9192 -0.2507
 3310SOL    HW313007   1.911   0.959   3.369 -1.4040 -2.3157  0.4339
 3310SOL    MW413008   1.926   0.979   3.453  0.1960 -0.4047 -0.0782
 3311SOL     OW13009   2.481   4.914   1.282  0.3176  0.3446 -0.5724
 3311SOL    HW213010   2.547   4.862   1.236 -0.6139 -2.2709  0.8570
 3311SOL    HW313011   2.407   4.918   1.221  0.6197  0.5395 -0.9298
 3311SOL    MW413012   2.480   4.908   1.268 -0.0873 -0.0180 -0.0042
 3312SOL     OW13013   4.070   1.948   0.211 -0.1528  0.3031 -0.1173
 3312SOL    HW213014   4.045   2.040   0.198 -0.4798  0.2702  0.2521
 3312SOL    HW313015   4.162   1.952   0.236  0.7371  0.3259 -3.0355
 3312SOL    MW413016   4.079   1.961   0.213  0.5424 -0.4965 -0.2065
 3313SOL     OW13017   0.430   5.015   6.082  0.0977 -0.0493  0.5910
 3313SOL    HW213018   0.453   5.009   5.989  0.5082  0.3511  0.6621
 3313SOL    HW313019   0.396   4.929   6.104  2.4882 -1.0296  0.7423
 3313SOL    MW413020   0.429   5.003   6.073  0.2146 -0.1546  0.1701
 3314SOL     OW13021   0.222   2.637   3.336  0.1750  0.4156 -0.3553
 3314SOL    HW213022   0.271   2.631   3.417  1.4727  3.9600 -0.6806
 3314SOL    HW313023   0.253   2.718   3.295 -3.6466  1.1977 -2.1984
 3314SOL    MW413024   0.233   2.647   3.341  0.0430  0.3154 -0.0476
 3315SOL     OW13025   4.766   1.886   3.636  0.8325 -0.3596  0.2362
 3315SOL    HW213026   4.725   1.822   3.694 -0.4226  0.7463  0.6020
 3315SOL    HW313027   4.747   1.971   3.676  2.2766  0.2734 -0.3580
 3315SOL    MW413028   4.758   1.889   3.649 -0.0560  0.2551  0.7065
 3316SOL     OW13029   4.444   1.946   0.676  0.2121 -0.3318 -0.0442
 3316SOL    HW213030   4.363   1.898   0.693 -1.0018  1.3334 -0.7512
 3316SOL    HW313031   4.463   1.930   0.584  0.1278  0.0321 -0.1294
 3316SOL    MW413032   4.436   1.938   0.666  0.1571 -0.1710  0.3790
 3317SOL     OW13033   4.973   1.786   4.693  0.1696  0.1261 -0.6276
 3317SOL    HW213034   4.937   1.698   4.706 -0.9120  0.5483 -0.6362
 3317SOL    HW313035   4.970   1.799   4.598  1.2050 -0.1732 -0.7103
 3317SOL    MW413036   4.968   1.776   4.682 -0.7488  0.0169 -0.1072
 3318SOL     OW13037   2.517   5.187   1.128 -0.2617  0.2340  0.6261
 3318SOL    HW213038   2.552   5.274   1.109  1.4054 -0.1520  1.7107
 3318SOL    HW313039   2.573   5.127   1.080 -1.8885 -0.2629 -0.7639
 3318SOL    MW413040   2.529   5.190   1.119 -0.3802 -0.7245 -0.0099
 3319SOL     OW13041   0.813   3.180   0.629  0.2749  0.6709  0.0304
 3319SOL    HW213042   0.884   3.119   0.652 -1.1530 -1.4537 -0.8823
 3319SOL    HW313043   0.734   3.126   0.632 -1.2357  2.7910  0.2769
 3319SOL    MW413044   0.812   3.165   0.633 -0.1539 -0.9340  0.0594
 3320SOL     OW13045   3.960   0.821   2.810 -0.4908  0.6979 -0.3082
 3320SOL    HW213046   4.055   0.817   2.800 -0.7301 -1.1556 -2.9396
 3320SOL    HW313047   3.946   0.892   2.873  2.6081  0.8405  0.4052
 3320SOL    MW413048   3.971   0.830   2.817  0.1701 -0.3695  0.0225
 3321SOL     OW13049   2.670   2.484   2.337 -0.2788 -0.3914 -0.5646
 3321SOL    HW213050   2.583   2.507   2.370 -0.2005 -1.5787  0.5246
 3321SOL    HW313051   2.660   2.396   2.300  0.5234 -0.6593 -0.1593
 3321SOL    MW413052   2.657   2.476   2.336 -0.0830 -0.1355  0.2276
 3322SOL     OW13053   1.154   3.731   4.547  0.1026 -0.2210 -0.4291
 3322SOL    HW213054   1.106   3.687   4.617  1.3362 -2.3855 -0.8502
 3322SOL    HW313055   1.187   3.660   4.492  0.8583  1.3313 -2.0889
 3322SOL    MW413056   1.152   3.716   4.549  0.0382  0.4386 -0.3896
 3323SOL     OW13057   6.418   4.802   5.582 -0.2633  0.5080  0.0032
 3323SOL    HW213058   6.397   4.852   5.503 -1.3551  1.1019  0.6369
 3323SOL    HW313059   6.352   4.733   5.585 -1.0278  1.2435  1.0279
 3323SOL    MW413060   6.406   4.799   5.572 -0.0841  0.4361 -0.0277
 3324SOL     OW13061   4.301   6.366   6.073  0.4112 -0.2669  0.2500
 3324SOL    HW213062   4.226   6.424   6.062  1.0183  0.4343 -0.3532
 3324SOL    HW313063   4.331   6.384   6.162 -0.5009 -1.0128  0.7179
 3324SOL    MW413064   4.295   6.376   6.083 -0.6351 -0.3540 -0.9569
 3325SOL     OW13065   5.889   5.393   2.439 -0.2750 -0.0906 -0.2140
 3325SOL    HW213066   5.917   5.484   2.436 -0.2404 -0.0902  0.0938
 3325SOL    HW313067   5.809   5.394   2.491  0.0605 -0.3190  0.3149
 3325SOL    MW413068   5.882   5.405   2.445  0.1298  0.0905  0.2836
 3326SOL     OW13069   2.964   4.507   3.930 -0.2102  0.0362 -0.4912
 3326SOL    HW213070   2.988   4.591   3.969  0.3794 -0.4102  0.1410
 3326SOL    HW313071   3.031   4.491   3.864 -0.2749  0.0261 -0.5541
 3326SOL    MW413072   2.976   4.516   3.926 -0.1470 -0.2221 -0.4170
 3327SOL     OW13073   1.525   0.845   1.528 -0.0150  0.1107  0.3856
 3327SOL    HW213074   1.554   0.931   1.499 -1.3749  1.3369  2.4320
 3327SOL    HW313075   1.441   0.832   1.483  0.1160 -0.0874  0.1951
 3327SOL    MW413076   1.517   0.854   1.518  0.0946 -0.1117  0.7250
 3328SOL     OW13077   0.368   0.322   4.909  0.3427 -0.0326 -0.3207
 3328SOL    HW213078   0.448   0.369   4.932  1.5245 -1.8577 -0.4391
 3328SOL    HW313079   0.376   0.239   4.956 -0.9053 -0.7246 -1.2932
 3328SOL    MW413080   0.380   0.317   4.918  0.2957  0.6351 -0.0813
 3329SOL     OW13081   4.927   3.548   1.780  0.2475  0.2596  0.3461
 3329SOL    HW213082   4.862   3.503   1.726 -0.2563 -0.8128  1.7685
 3329SOL    HW313083   4.904   3.524   1.870  0.3915  2.8459  1.1572
 3329SOL    MW413084   4.915   3.539   1.785 -0.7085  0.2456  0.4564
 3330SOL     OW13085   2.603   5.741   2.263 -0.2340  0.0161  0.1977
 3330SOL    HW213086   2.561   5.743   2.349 -0.9962 -0.9681 -0.1322
 3330SOL    HW313087   2.549   5.681   2.211  0.3839  0.3639 -0.8799
 3330SOL    MW413088   2.591   5.733   2.268 -0.2854  0.2305 -0.4536
 3331SOL     OW13089   1.112   6.141   2.282  0.5876  0.2620  0.3116
 3331SOL    HW213090   1.078   6.103   2.363 -0.0504  1.4878  0.6487
 3331SOL    HW313091   1.112   6.235   2.298 -0.0353  0.5672 -1.3025
 3331SOL    MW413092   1.108   6.149   2.295  0.3000  0.0975  0.6662
 3332SOL     OW13093   4.721   1.629   4.170  0.3172  0.4483 -0.5871
 3332SOL    HW213094   4.709   1.611   4.263  2.3929  1.8018  0.0029
 3332SOL    HW313095   4.652   1.579   4.127 -0.6584 -0.2594  1.6589
 3332SOL    MW413096   4.710   1.620   4.176 -0.7123 -0.3083  0.1479
 3333SOL     OW13097   4.931   5.747   0.278 -0.3472  0.2309  0.1662
 3333SOL    HW213098   4.886   5.664   0.298 -2.7994  1.0212 -1.5366
 3333SOL    HW313099   4.880   5.784   0.206  1.6996  2.4462 -0.2487
 3333SOL    MW413100   4.918   5.741   0.271  0.7310  0.2009  0.0739
 3334SOL     OW13101   0.203   0.691   4.487 -0.0682  0.0512 -0.2241
 3334SOL    HW213102   0.161   0.699   4.402  0.3424 -0.9161 -0.5233
 3334SOL    HW313103   0.138   0.648   4.543  0.1799 -0.6083 -0.4383
 3334SOL    MW413104   0.189   0.687   4.483 -0.5006 -0.1719 -0.0497
 3335SOL     OW13105   3.546   0.750   1.265 -0.2453  0.2094 -0.5180
 3335SOL    HW213106   3.484   0.719   1.331 -0.3821  0.3743 -0.5662
 3335SOL    HW313107   3.606   0.677   1.252 -2.0052 -1.0345 -2.4171
 3335SOL    MW413108   3.545   0.736   1.272  0.2672  0.4510  0.3100
 3336SOL     OW13109   3.417   5.695   0.833  0.3059  0.0449  0.2854
 3336SOL    HW213110   3.437   5.774   0.784 -0.9721  0.4443  0.3725
 3336SOL    HW313111   3.337   5.661   0.792 -0.3158 -0.0624  1.5546
 3336SOL    MW413112   3.409   5.701   0.821 -0.0527  0.2240  0.5890
 3337SOL     OW13113   0.799   4.015   1.790 -0.0724  0.1195 -0.2602
 3337SOL    HW213114   0.725   4.063   1.752  0.4212 -0.0950 -1.5454
 3337SOL    HW313115   0.790   3.926   1.754 -0.8351 -0.7468  1.8816
 3337SOL    MW413116   0.788   4.009   1.780 -0.1430  0.1280 -0.2868
 3338SOL     OW13117   3.847   5.750   6.429  0.4316 -0.4424 -0.0207
 3338SOL    HW213118   3.931   5.794   6.434  1.7494 -2.3743 -2.6318
 3338SOL    HW313119   3.791   5.809   6.379  1.0023 -0.1510 -0.3168
 3338SOL    MW413120   3.851   5.763   6.423  0.0128  0.1035 -0.2624
 3339SOL     OW13121   1.681   4.341   0.764  0.0863  0.0640 -0.6484
 3339SOL    HW213122   1.670   4.249   0.740 -1.8052  0.1864 -0.3980
 3339SOL    HW313123   1.724   4.381   0.689 -0.3501 -0.7517 -1.3433
 3339SOL    MW413124   1.685   4.335   0.751 -0.1759 -0.4765  0.3377
 3340SOL     OW13125   6.146   2.051   0.223 -0.3056 -0.5343  0.1262
 3340SOL    HW213126   6.165   2.011   0.307  0.3822  1.6134  1.0740
 3340SOL    HW313127   6.124   1.978   0.165  0.9906 -2.2343  1.6762
 3340SOL    MW413128   6.146   2.036   0.226  0.8521 -0.2130 -0.1851
 3341SOL     OW13129   5.749   4.415   5.669  0.3995  0.5144  0.4200
 3341SOL    HW213130   5.825   4.458   5.629  0.6600  1.5505  1.9383
 3341SOL    HW313131   5.715   4.479   5.731 -1.4190 -0.1390  0.1653
 3341SOL    MW413132   5.754   4.429   5.672 -0.4115  0.2105 -0.3132
 3342SOL     OW13133   1.635   1.463   0.340 -0.7414  0.7985  0.0486
 3342SOL    HW213134   1.567   1.517   0.299  0.2293  1.4209 -0.8110
 3342SOL    HW313135   1.609   1.456   0.432 -2.8219 -0.3676 -0.5642
 3342SOL    MW413136   1.623   1.469   0.347  0.6914 -0.4613  0.0457
 3343SOL     OW13137   3.065   5.269   4.200 -0.8964 -0.5884  1.1120
 3343SOL    HW213138   3.134   5.254   4.136 -1.2393  0.6261  0.4364
 3343SOL    HW313139   3.063   5.189   4.253  0.9084 -0.7044  1.0438
 3343SOL    MW413140   3.074   5.256   4.199 -0.3944 -0.3522 -0.0303
 3344SOL     OW13141   0.913   3.330   4.130 -0.9173  0.5666 -0.3353
 3344SOL    HW213142   0.846   3.388   4.164  0.6114  2.0363  0.3189
 3344SOL    HW313143   0.996   3.374   4.150  0.3154 -1.6934 -0.0842
 3344SOL    MW413144   0.915   3.344   4.137  0.2070 -0.4039 -0.0143
 3345SOL     OW13145   3.249   1.022   1.613  0.4538  0.5206  0.4938
 3345SOL    HW213146   3.329   0.975   1.586  0.3234 -1.3354  2.9203
 3345SOL    HW313147   3.232   1.083   1.542  2.0585 -1.4561 -1.7776
 3345SOL    MW413148   3.257   1.024   1.600 -0.3741 -0.0304  0.2225
 3346SOL     OW13149   3.494   4.740   1.031  0.3110  0.5454 -0.5386
 3346SOL    HW213150   3.569   4.681   1.028  1.0884  1.5531 -2.4416
 3346SOL    HW313151   3.441   4.708   1.104  1.7306 -1.2228 -0.2256
 3346SOL    MW413152   3.497   4.728   1.040  0.1285  0.2363  0.0008
 3347SOL     OW13153   2.641   1.072   5.078  0.4766 -0.2103 -0.0223
 3347SOL    HW213154   2.696   1.150   5.090  0.7323 -0.5652  1.3074
 3347SOL    HW313155   2.650   1.024   5.160 -1.1768 -0.6880 -0.0850
 3347SOL    MW413156   2.649   1.076   5.091 -0.3502 -0.2204 -0.4129
 3348SOL     OW13157   5.929   2.347   3.691 -0.0395 -0.4593 -0.1084
 3348SOL    HW213158   5.982   2.291   3.748 -1.6309 -2.0620 -0.0973
 3348SOL    HW313159   5.974   2.344   3.606  0.6825 -0.5588  0.2719
 3348SOL    MW413160   5.942   2.339   3.687  0.1957 -1.0069 -0.2694
 3349SOL     OW13161   4.833   5.888   2.136  0.2983 -0.5372 -0.5170
 3349SOL    HW213162   4.828   5.964   2.078  0.1151 -0.6226 -0.6170
 3349SOL    HW313163   4.926   5.870   2.144  0.5314  1.1954  1.4810
 3349SOL    MW413164   4.845   5.896   2.129  0.2443  0.0895 -0.0791
 3350SOL     OW13165   5.819   4.836   6.189 -0.7021  0.3704 -0.0211
 3350SOL    HW213166   5.853   4.924   6.206 -2.4337  1.2537 -0.8275
 3350SOL    HW313167   5.857   4.811   6.105 -0.5660  0.5522 -0.0149
 3350SOL    MW413168   5.828   4.844   6.180  0.1198  0.3317 -0.3528
 3351SOL     OW13169   4.190   0.813   5.383  0.6740 -0.4847  0.0671
 3351SOL    HW213170   4.166   0.739   5.326  0.8333 -0.0841 -0.5276
 3351SOL    HW313171   4.260   0.857   5.336  0.4425  0.1629  0.3217
 3351SOL    MW413172   4.196   0.809   5.369  0.1294  0.3108 -0.2019
 3352SOL     OW13173   2.846   1.848   5.970 -0.0973 -0.4982 -0.5288
 3352SOL    HW213174   2.753   1.828   5.985 -0.5442 -1.0318 -3.3807
 3352SOL    HW313175   2.847   1.897   5.888  2.2121 -1.1452 -0.9520
 3352SOL    MW413176   2.834   1.852   5.961 -0.0947 -0.8414 -0.3929
 3353SOL     OW13177   1.647   2.769   1.463  0.0982 -0.0762  0.5941
 3353SOL    HW213178   1.592   2.846   1.451  3.0599  2.0336 -0.9598
 3353SOL    HW313179   1.664   2.737   1.374  1.0796 -0.8575  1.0411
 3353SOL    MW413180   1.642   2.775   1.450 -0.1692  0.7759  0.5014
 3354SOL     OW13181   4.375   1.066   2.138 -0.2213 -0.4234  0.4628
 3354SOL    HW213182   4.469   1.077   2.152 -0.2202  1.6655 -0.8034
 3354SOL    HW313183   4.354   0.983   2.181  1.7219  0.2267  2.8977
 3354SOL    MW413184   4.385   1.056   2.146 -0.3544  0.2802 -0.1781
 3355SOL     OW13185   4.179   0.591   3.060  0.0038 -0.0807  0.3697
 3355SOL    HW213186   4.124   0.668   3.077 -0.5335 -0.4255  0.2074
 3355SOL    HW313187   4.119   0.517   3.066  0.3873 -0.4372 -0.1274
 3355SOL    MW413188   4.164   0.592   3.063 -0.1181 -0.0898  0.4047
 3356SOL     OW13189   3.272   0.489   0.194  0.1753 -0.0736  0.2294
 3356SOL    HW213190   3.293   0.401   0.165 -1.4684 -0.5174  0.2611
 3356SOL    HW313191   3.278   0.543   0.115 -0.7937 -0.6216 -0.2431
 3356SOL    MW413192   3.275   0.485   0.180 -0.1410 -0.2767  0.1781
 3357SOL     OW13193   1.689   2.927   3.771  0.8902  0.1198  0.1920
 3357SOL    HW213194   1.649   2.960   3.851  1.4862  1.8340 -0.1662
 3357SOL    HW313195   1.742   2.853   3.798  1.3856  0.9121  1.4600
 3357SOL    MW413196   1.691   2.922   3.785 -0.0697 -0.6179  0.0571
 3358SOL     OW13197   3.629   3.473   3.207  0.1331  0.8210 -0.8419
 3358SOL    HW213198   3.549   3.491   3.256 -0.2335  0.1888 -1.2087
 3358SOL    HW313199   3.692   3.538   3.240 -0.6694  1.6624 -0.9189
 3358SOL    MW413200   3.627   3.484   3.218 -0.1730 -0.5280  0.4636
 3359SOL     OW13201   5.925   2.574   3.868  0.2792 -0.6232  0.4290
 3359SOL    HW213202   5.851   2.627   3.840  0.6243  0.0595  0.7873
 3359SOL    HW313203   5.927   2.501   3.806 -0.7420 -0.7036  0.4737
 3359SOL    MW413204   5.916   2.571   3.856 -0.3244 -0.3881 -0.6057
 3360SOL     OW13205   4.323   1.779   4.151 -0.3379  0.2824 -0.0945
 3360SOL    HW213206   4.318   1.753   4.243  0.2977  0.4329 -0.0142
 3360SOL    HW313207   4.410   1.817   4.141  0.6076 -2.0360 -1.3604
 3360SOL    MW413208   4.334   1.781   4.162 -0.1772 -0.0360  0.0192
 3361SOL     OW13209   2.493   2.961   3.025 -0.2165  0.1964 -0.2504
 3361SOL    HW213210   2.536   2.940   2.942 -1.5821  3.7100 -2.0541
 3361SOL    HW313211   2.550   2.923   3.092  1.4901 -1.9340 -2.7169
 3361SOL    MW413212   2.506   2.953   3.023 -0.2244  0.1460 -0.7133
 3362SOL     OW13213   1.075   1.124   4.051 -0.5840  0.4319 -0.2812
 3362SOL    HW213214   1.082   1.113   4.145 -3.0056  0.1218 -0.0601
 3362SOL    HW313215   1.091   1.217   4.036  0.4517  0.3633  0.3390
 3362SOL    MW413216   1.078   1.134   4.061 -0.3517  0.1478 -0.6354
 3363SOL     OW13217   2.615   2.507   0.940 -0.1224  0.0643  0.6697
 3363SOL    HW213218   2.599   2.486   1.032 -1.3605  1.3027  0.7730
 3363SOL    HW313219   2.703   2.544   0.938  0.0216 -0.2443  1.3178
 3363SOL    MW413220   2.624   2.509   0.951 -0.4509  0.1279  0.7122
 3364SOL     OW13221   3.086   6.243   1.369  0.1739  0.3030 -0.1151
 3364SOL    HW213222   3.111   6.288   1.450 -1.0044  1.8394 -0.5812
 3364SOL    HW313223   2.991   6.245   1.368  0.1086 -1.2505 -0.7168
 3364SOL    MW413224   3.077   6.249   1.380 -0.4755 -0.2900 -0.5255
 3365SOL     OW13225   3.217   1.874   0.218  0.0365  0.2991  0.0790
 3365SOL    HW213226   3.214   1.943   0.152  0.2876  0.8187  0.6064
 3365SOL    HW313227   3.305   1.878   0.254  0.7962 -1.7096 -1.3512
 3365SOL    MW413228   3.228   1.884   0.214  0.1327  0.0269 -0.3059
 3366SOL     OW13229   3.695   2.122   5.316  0.3132  0.0338 -0.0450
 3366SOL    HW213230   3.652   2.207   5.310  1.0879  0.5342  1.2653
 3366SOL    HW313231   3.685   2.084   5.228  0.5465  1.7551 -0.8538
 3366SOL    MW413232   3.688   2.128   5.303  0.3859  0.4116  0.2310
 3367SOL     OW13233   5.217   4.825   1.471 -0.4159 -0.3763 -0.5594
 3367SOL    HW213234   5.187   4.895   1.413 -3.1511 -0.9332  0.0378
 3367SOL    HW313235   5.252   4.758   1.412 -1.7744 -0.3013 -1.4936
 3367SOL    MW413236   5.217   4.825   1.455 -0.0930  0.5827  0.1369
 3368SOL     OW13237   4.561   0.806   3.077 -0.0572  0.3209 -0.5281
 3368SOL    HW213238   4.503   0.798   3.152  0.1361 -1.1604 -0.5105
 3368SOL    HW313239   4.504   0.834   3.005 -0.2643  1.5917  0.1166
 3368SOL    MW413240   4.546   0.808   3.077  0.0926 -0.2673 -0.3767
 3369SOL     OW13241   1.881   0.227   2.046  0.3530  0.7533 -0.0472
 3369SOL    HW213242   1.931   0.169   1.988  0.0604 -1.1002  1.4402
 3369SOL    HW313243   1.799   0.243   1.999  0.1221 -0.7104 -0.1996
 3369SOL    MW413244   1.877   0.221   2.032 -0.5454  0.2558  0.1910
 3370SOL     OW13245   2.366   1.578   4.618  0.0765 -0.5565  0.6725
 3370SOL    HW213246   2.356   1.610   4.528 -2.3293 -2.9563 -0.0494
 3370SOL    HW313247   2.355   1.656   4.672  0.1792  0.7317 -1.0675
 3370SOL    MW413248   2.363   1.593   4.613 -0.1385 -0.0816 -0.3846
 3371SOL     OW13249   3.415   2.052   4.682  0.0713  0.4861 -0.2658
 3371SOL    HW213250   3.338   2.108   4.672 -1.4369 -1.6461 -1.1370
 3371SOL    HW313251   3.433   2.018   4.594  0.2497 -1.2585  0.4044
 3371SOL    MW413252   3.408   2.055   4.669  0.2605  0.2980 -0.1615
 3372SOL     OW13253   4.399   4.158   5.709 -0.2168 -0.2196 -0.2039
 3372SOL    HW213254   4.468   4.134   5.648 -1.8516  0.8016 -2.6048
 3372SOL    HW313255   4.411   4.099   5.784  0.6831 -2.9562 -2.3620
 3372SOL    MW413256   4.410   4.147   5.711  0.4202  0.7920 -0.3187
 3373SOL     OW13257   2.737   3.631   0.414  0.0310  0.1111 -0.7007
 3373SOL    HW213258   2.775   3.715   0.387 -1.0674  0.4887 -1.1565
 3373SOL    HW313259   2.736   3.634   0.509 -0.1057  0.6698 -0.7177
 3373SOL    MW413260   2.742   3.642   0.423  0.4487 -0.1651  0.3712
 3374SOL     OW13261   2.331   3.980   0.504 -0.4982  0.5840 -0.0488
 3374SOL    HW213262   2.357   3.888   0.505 -2.4565 -0.0531  2.1620
 3374SOL    HW313263   2.384   4.020   0.572 -3.4342 -0.2718  3.0018
 3374SOL    MW413264   2.341   3.973   0.513  0.2202 -0.5466 -0.0715
 3375SOL     OW13265   4.868   3.107   3.480  0.0307 -0.5489 -0.1057
 3375SOL    HW213266   4.856   3.053   3.402  0.1800 -0.7633  0.0188
 3375SOL    HW313267   4.791   3.163   3.483  0.4313  0.0672 -0.8935
 3375SOL    MW413268   4.857   3.107   3.470 -0.1218 -0.1069 -0.5875
 3376SOL     OW13269   4.575   0.118   5.869 -0.1327 -0.4029  0.2313
 3376SOL    HW213270   4.515   0.051   5.834 -1.0789  0.4177  0.2298
 3376SOL    HW313271   4.523   0.198   5.869  1.2830  0.5392 -0.6467
 3376SOL    MW413272   4.560   0.120   5.865  0.2147  0.5514 -0.2083
 3377SOL     OW13273   5.315   1.241   4.200 -0.1350 -0.0832  0.2222
 3377SOL    HW213274   5.296   1.280   4.285  0.2438 -0.5213  0.5127
 3377SOL    HW313275   5.344   1.314   4.146  1.0751 -0.0309  0.9123
 3377SOL    MW413276   5.316   1.256   4.204  0.0122  0.3004 -0.1411
 3378SOL     OW13277   0.990   3.463   2.143  0.0284 -0.5878 -0.3503
 3378SOL    HW213278   0.950   3.544   2.173 -0.4034 -1.7033  2.3827
 3378SOL    HW313279   1.084   3.480   2.143 -0.1030  0.1939 -0.8676
 3378SOL    MW413280   0.997   3.476   2.147 -0.0577  0.4890  0.3053
 3379SOL     OW13281   3.929   5.603   2.635 -0.1927  0.1805 -0.2508
 3379SOL    HW213282   3.874   5.588   2.712  1.5537 -2.8241  0.5312
 3379SOL    HW313283   3.866   5.616   2.563 -1.9044 -1.2115  0.9186
 3379SOL    MW413284   3.913   5.603   2.636 -0.3691 -0.0368 -0.7693
 3380SOL     OW13285   5.660   3.135   5.699  0.3349  0.4765  0.0374
 3380SOL    HW213286   5.688   3.052   5.660  1.7076  0.4293  1.0258
 3380SOL    HW313287   5.740   3.187   5.704  0.3104  0.3981  2.8797
 3380SOL    MW413288   5.674   3.131   5.695  0.5432 -0.1873 -0.2156
 3381SOL     OW13289   2.113   5.743   4.432  0.1170 -0.5745  0.5457
 3381SOL    HW213290   2.156   5.788   4.360  1.4143  1.5356  2.4899
 3381SOL    HW313291   2.023   5.730   4.403  0.1029  1.9398 -0.7426
 3381SOL    MW413292   2.107   5.747   4.419  0.0543  0.5595 -0.3325
 3382SOL     OW13293   6.148   4.367   1.266 -0.3038 -0.3434  0.3237
 3382SOL    HW213294   6.121   4.453   1.299 -0.2676 -0.7115  1.3534
 3382SOL    HW313295   6.085   4.306   1.305  1.6787 -1.1782  2.4309
 3382SOL    MW413296   6.136   4.370   1.275 -0.0330  0.0481 -0.0921
 3383SOL     OW13297   3.238   2.192   6.251 -0.2417  0.0173  0.1743
 3383SOL    HW213298   3.190   2.275   6.242 -1.7636 -0.9633 -1.1940
 3383SOL    HW313299   3.327   2.219   6.275 -1.1483  1.9470  1.6958
 3383SOL    MW413300   3.244   2.207   6.253 -0.6377 -0.3908 -0.4798
 3384SOL     OW13301   0.307   1.537   5.754  0.2751 -0.1300 -0.6931
 3384SOL    HW213302   0.362   1.511   5.680 -0.2657  0.4391 -1.3124
 3384SOL    HW313303   0.237   1.589   5.714  0.0148  0.2460  0.2312
 3384SOL    MW413304   0.305   1.540   5.739  0.0854 -0.2545 -0.0172
 3385SOL     OW13305   6.376   2.138   5.743  0.2905  0.0792 -0.3679
 3385SOL    HW213306   6.333   2.166   5.662 -3.8345 -3.1491  0.4228
 3385SOL    HW313307   6.411   2.219   5.780 -0.6694  2.1991 -3.6322
 3385SOL    MW413308   6.375   2.152   5.737  0.1413  0.9046 -0.4170
 3386SOL     OW13309   0.092   2.136   0.604 -0.8087  0.2525 -0.3923
 3386SOL    HW213310   0.165   2.146   0.665 -1.8708 -0.3230  1.0151
 3386SOL    HW313311   0.130   2.155   0.518  1.3310 -1.3467  0.1275
 3386SOL    MW413312   0.107   2.140   0.600 -0.2009  0.3147 -0.3266
 3387SOL     OW13313   0.693   1.969   5.594  0.5203 -0.0295 -0.0144
 3387SOL    HW213314   0.709   1.907   5.665  0.1789  0.4079  0.4498
 3387SOL    HW313315   0.723   1.923   5.515 -1.3077 -1.4689  0.0809
 3387SOL    MW413316   0.699   1.954   5.593 -0.5178  0.1604 -0.0413
 3388SOL     OW13317   2.738   0.589   3.020 -0.0602 -0.0989  0.1990
 3388SOL    HW213318   2.750   0.553   3.109  1.6378 -0.3158 -0.0914
 3388SOL    HW313319   2.719   0.681   3.034 -0.4890 -0.2698  0.8087
 3388SOL    MW413320   2.737   0.596   3.034 -0.1362  0.4626  0.3398
 3389SOL     OW13321   0.841   4.084   4.323 -0.1143 -0.0749  0.1086
 3389SOL    HW213322   0.829   4.070   4.417 -0.4058 -0.6232 -0.0041
 3389SOL    HW313323   0.891   4.165   4.317  1.8289 -1.1562  0.8198
 3389SOL    MW413324   0.846   4.093   4.334  0.5547 -0.3147  0.0272
 3390SOL     OW13325   0.855   3.682   6.249 -0.0661 -0.2761  0.2880
 3390SOL    HW213326   0.764   3.706   6.232 -0.0763 -0.5724 -0.0804
 3390SOL    HW313327   0.902   3.705   6.169 -0.4909 -3.7019 -1.1320
 3390SOL    MW413328   0.849   3.688   6.236 -1.0885  0.6789 -0.2414
 3391SOL     OW13329   5.724   0.925   2.350 -0.6705  0.2725 -0.3759
 3391SOL    HW213330   5.801   0.891   2.306  1.5978  3.1743  0.9961
 3391SOL    HW313331   5.698   1.001   2.296 -1.0536  0.7481  0.4582
 3391SOL    MW413332   5.731   0.931   2.337 -0.2628  0.0805 -0.0332
 3392SOL     OW13333   4.400   0.296   0.300 -0.2020  0.6573  0.0225
 3392SOL    HW213334   4.474   0.315   0.242 -0.1428 -0.4375 -0.2728
 3392SOL    HW313335   4.347   0.233   0.252 -0.7417  0.5817  0.6994
 3392SOL    MW413336   4.403   0.290   0.286 -0.3791 -0.3311 -0.5056
 3393SOL     OW13337   1.991   3.614   0.434  0.1670 -0.0854  0.3192
 3393SOL    HW213338   1.946   3.630   0.516  1.3959  1.4105  0.7360
 3393SOL    HW313339   2.032   3.697   0.412  0.7715 -0.7598 -1.2474
 3393SOL    MW413340   1.991   3.627   0.442  0.1963 -0.1911  0.3891
 3394SOL     OW13341   0.381   2.733   5.790  0.1207 -0.2940 -0.0291
 3394SOL    HW213342   0.400   2.660   5.731  0.4765 -0.1857 -0.0501
 3394SOL    HW313343   0.371   2.692   5.876 -1.3724 -0.5804 -0.3031
 3394SOL    MW413344   0.382   2.718   5.793 -0.2225  0.2069 -0.0199
 3395SOL     OW13345   1.622   4.983   5.568 -0.2139 -0.1723 -0.4800
 3395SOL    HW213346   1.629   5.001   5.475 -0.2352 -0.1466 -0.4766
 3395SOL    HW313347   1.634   5.068   5.611 -1.6116  0.0677 -0.5190
 3395SOL    MW413348   1.624   4.996   5.561  0.7573 -0.1374  0.1056
 3396SOL     OW13349   5.564   0.776   5.585  0.9369  0.5485  0.3303
 3396SOL    HW213350   5.576   0.689   5.546 -1.6031  0.5899 -0.7552
 3396SOL    HW313351   5.520   0.758   5.669  1.0157  0.7616  0.4171
 3396SOL    MW413352   5.560   0.762   5.591 -0.0125 -0.6416 -0.3451
 3397SOL     OW13353   3.605   0.984   4.783 -0.1972 -0.4712 -0.2946
 3397SOL    HW213354   3.529   0.930   4.761  0.3378 -1.1271 -0.5785
 3397SOL    HW313355   3.648   1.000   4.699  0.3612 -0.6978 -0.0577
 3397SOL    MW413356   3.600   0.979   4.769  0.3934 -0.2928  0.1000
 3398SOL     OW13357   1.206   5.567   6.195  0.2195  0.8400 -0.1964
 3398SOL    HW213358   1.148   5.515   6.139  1.7598  0.3680 -1.4362
 3398SOL    HW313359   1.165   5.564   6.281  0.0458 -2.2095 -0.2655
 3398SOL    MW413360   1.193   5.560   6.199  0.3028 -0.2229 -0.1076
 3399SOL     OW13361   2.096   4.490   0.172  0.0656  0.6296  0.2675
 3399SOL    HW213362   2.087   4.585   0.180 -1.6304  0.6136 -0.8262
 3399SOL    HW313363   2.032   4.466   0.104  0.2986 -1.3172  0.6820
 3399SOL    MW413364   2.086   4.499   0.164 -0.2184  0.2008  0.0231
 3400SOL     OW13365   6.173   2.091   3.648  0.1342  0.0536  0.0350
 3400SOL    HW213366   6.116   2.041   3.590  0.1994  1.1186 -0.9706
 3400SOL    HW313367   6.260   2.055   3.633  0.1592  0.3593 -0.5799
 3400SOL    MW413368   6.177   2.079   3.638  0.3416  0.0363  0.7558
 3401SOL     OW13369   5.234   2.517   0.284 -0.0229 -0.0419 -0.7954
 3401SOL    HW213370   5.325   2.489   0.294 -0.6488 -2.4926 -1.2768
 3401SOL    HW313371   5.221   2.524   0.189 -0.3615  0.2240 -0.7327
 3401SOL    MW413372   5.244   2.514   0.273  0.0831 -0.0459 -0.5131
 3402SOL     OW13373   5.780   5.194   0.949  0.3833 -0.1698 -0.1513
 3402SOL    HW213374   5.795   5.146   1.031  0.1496 -0.6922 -0.4129
 3402SOL    HW313375   5.686   5.207   0.945  0.3916 -0.1695 -0.3555
 3402SOL    MW413376   5.770   5.190   0.959 -0.4220 -0.2155 -0.3394
 3403SOL     OW13377   1.428   6.274   3.432 -0.4037 -0.0779 -0.1922
 3403SOL    HW213378   1.453   6.253   3.342 -1.9735  0.5509 -0.8122
 3403SOL    HW313379   1.333   6.279   3.430 -0.3766  2.2385  0.9909
 3403SOL    MW413380   1.419   6.272   3.420  0.0651 -0.0489 -0.3060
 3404SOL     OW13381   2.715   1.517   3.562  0.1030  0.1245 -0.9352
 3404SOL    HW213382   2.702   1.422   3.557  1.7751 -0.0648 -2.9825
 3404SOL    HW313383   2.630   1.553   3.538 -0.0157 -0.9003 -2.1816
 3404SOL    MW413384   2.702   1.509   3.558  0.2501 -0.4477  0.4393
 3405SOL     OW13385   0.163   1.173   6.107 -0.7476  0.5665 -0.2850
 3405SOL    HW213386   0.244   1.211   6.072 -0.4400  0.1023 -0.0902
 3405SOL    HW313387   0.167   1.188   6.201 -0.5666 -0.0389 -0.1901
 3405SOL    MW413388   0.174   1.180   6.115 -0.5235 -0.2962 -0.0977
 3406SOL     OW13389   5.708   4.190   6.294 -0.2854 -0.0949 -0.1061
 3406SOL    HW213390   5.773   4.140   6.244  1.4799 -0.4175  2.2921
 3406SOL    HW313391   5.626   4.142   6.282  0.8792 -2.3327  0.3143
 3406SOL    MW413392   5.706   4.177   6.286  0.4665  0.5061 -0.5870
 3407SOL     OW13393   2.482   3.618   3.029 -0.7819  0.3794  0.7702
 3407SOL    HW213394   2.501   3.682   3.098  0.2820  0.2918  0.5657
 3407SOL    HW313395   2.395   3.584   3.052 -0.3671  0.2049  2.1944
 3407SOL    MW413396   2.473   3.622   3.041 -0.2269 -0.1944  0.4021
 3408SOL     OW13397   2.490   1.161   2.174  0.1561 -0.4264  0.6643
 3408SOL    HW213398   2.565   1.107   2.150  1.4172  0.4182  2.4772
 3408SOL    HW313399   2.433   1.102   2.223 -0.0371 -0.8760 -0.0707
 3408SOL    MW413400   2.492   1.146   2.177  0.0546 -0.0527  0.0986
 3409SOL     OW13401   5.453   2.182   0.277 -0.6951  0.0372 -0.2807
 3409SOL    HW213402   5.450   2.247   0.347  2.0023 -1.0047  0.9306
 3409SOL    HW313403   5.405   2.107   0.312 -0.3603 -0.0530 -0.0050
 3409SOL    MW413404   5.446   2.181   0.291  0.2359 -0.3837 -0.0961
 3410SOL     OW13405   2.379   2.826   3.484 -0.1020  0.0024 -0.5516
 3410SOL    HW213406   2.397   2.920   3.479 -0.1249  0.1185  1.0802
 3410SOL    HW313407   2.435   2.795   3.556  0.0019 -1.2643 -1.1570
 3410SOL    MW413408   2.389   2.835   3.493  0.6025 -0.2803 -0.0440
 3411SOL     OW13409   3.205   1.517   5.131 -0.1930  0.1012 -1.0473
 3411SOL    HW213410   3.265   1.448   5.104 -2.0980 -1.9017 -0.4270
 3411SOL    HW313411   3.118   1.476   5.130 -1.0840  1.5272  2.4444
 3411SOL    MW413412   3.201   1.502   5.127  0.3154  0.0873  0.0214
 3412SOL     OW13413   3.929   0.257   1.207 -0.6248 -0.0035 -0.1641
 3412SOL    HW213414   4.000   0.261   1.143 -1.7234  0.6464 -1.4033
 3412SOL    HW313415   3.966   0.209   1.281  0.7676 -0.6064 -1.1964
 3412SOL    MW413416   3.943   0.251   1.208 -0.2447 -0.0206 -0.8045
 3413SOL     OW13417   4.288   1.890   3.373 -1.3649  0.4149 -0.3923
 3413SOL    HW213418   4.336   1.812   3.402 -1.0248  1.6909  2.8878
 3413SOL    HW313419   4.351   1.938   3.319 -0.8502 -0.5202 -0.6526
 3413SOL    MW413420   4.303   1.886   3.370 -0.7529  0.1869 -0.6963
 3414SOL     OW13421   6.164   4.651   4.581  0.0016  0.4447 -0.3899
 3414SOL    HW213422   6.209   4.684   4.659 -1.6515  1.0567  0.3615
 3414SOL    HW313423   6.182   4.557   4.580  1.4230  0.6993 -0.2370
 3414SOL    MW413424   6.172   4.643   4.591  0.1004  0.5488  0.4534
 3415SOL     OW13425   6.136   1.820   3.916 -0.2483 -0.1433 -0.3451
 3415SOL    HW213426   6.099   1.907   3.930  1.3930  0.7765 -1.3460
 3415SOL    HW313427   6.097   1.790   3.834 -0.7018 -0.2861 -0.0771
 3415SOL    MW413428   6.126   1.827   3.907  0.1551  0.3017 -0.7338
 3416SOL     OW13429   5.757   1.587   1.034 -0.2766 -0.1908  0.8000
 3416SOL    HW213430   5.781   1.649   0.966  0.4242 -1.6736 -0.3719
 3416SOL    HW313431   5.662   1.587   1.035 -0.3291 -0.9916 -1.0316
 3416SOL    MW413432   5.748   1.595   1.025 -0.0321  0.7496 -0.2687
 3417SOL     OW13433   5.043   3.882   3.946 -0.5354 -0.4789  0.6935
 3417SOL    HW213434   4.949   3.864   3.952 -0.7468  0.8415  2.2863
 3417SOL    HW313435   5.048   3.971   3.912  0.1571 -0.6814  0.2517
 3417SOL    MW413436   5.031   3.891   3.943 -0.2251  0.3624  0.1505
 3418SOL     OW13437   0.849   0.579   4.401  0.2453 -0.1181  0.1521
 3418SOL    HW213438   0.790   0.614   4.468 -0.9255  1.3202 -1.5054
 3418SOL    HW313439   0.937   0.591   4.436 -0.3223  0.8132  1.3160
 3418SOL    MW413440   0.852   0.585   4.414  0.0718 -0.7313 -0.3596
 3419SOL     OW13441   2.971   2.138   4.245 -0.3683 -0.1097 -0.0052
 3419SOL    HW213442   2.937   2.224   4.222 -0.0432 -0.1289 -0.5791
 3419SOL    HW313443   3.063   2.154   4.266 -0.1592 -0.4024 -0.6794
 3419SOL    MW413444   2.979   2.152   4.245 -0.0685 -0.5684 -0.2014
 3420SOL     OW13445   0.992   3.820   4.315 -0.5525 -0.0973  0.1118
 3420SOL    HW213446   1.048   3.811   4.393  2.0977  0.4076 -1.5928
 3420SOL    HW313447   0.971   3.914   4.312  3.0192  0.8534 -1.9189
 3420SOL    MW413448   0.997   3.831   4.325  0.3845  0.1344  0.0808
 3421SOL     OW13449   2.166   6.372   3.451 -0.1130 -0.6200 -0.1998
 3421SOL    HW213450   2.220   6.443   3.416  1.5429 -1.3631  0.6983
 3421SOL    HW313451   2.083   6.378   3.403  0.7737  0.5699 -1.6636
 3421SOL    MW413452   2.162   6.382   3.440 -0.2372 -0.1186 -0.3204
 3422SOL     OW13453   2.842   3.456   1.069  0.0267 -0.2388  0.0187
 3422SOL    HW213454   2.827   3.526   1.006  1.1435 -0.3722 -0.4200
 3422SOL    HW313455   2.932   3.428   1.053  0.2212 -0.5163  1.4409
 3422SOL    MW413456   2.851   3.461   1.058 -0.5146  0.2417 -0.0460
 3423SOL     OW13457   3.802   0.705   5.391  0.3349 -0.2223 -0.4150
 3423SOL    HW213458   3.809   0.753   5.473  1.5826 -2.4076  0.8736
 3423SOL    HW313459   3.758   0.765   5.331 -0.0350  1.6923  1.6451
 3423SOL    MW413460   3.797   0.719   5.394  0.0900 -0.3001  0.1692
 3424SOL     OW13461   1.470   1.784   2.202  0.0096  0.0851  0.2674
 3424SOL    HW213462   1.402   1.831   2.250 -0.9251 -0.3114 -0.6444
 3424SOL    HW313463   1.537   1.850   2.185 -0.6205  0.7304  0.2641
 3424SOL    MW413464   1.470   1.799   2.206 -0.6800  0.1409  0.1017
 3425SOL     OW13465   2.476   5.061   1.509 -0.0248 -0.2980  0.4295
 3425SOL    HW213466   2.543   5.047   1.576 -1.0196  0.1633  1.5756
 3425SOL    HW313467   2.506   5.011   1.434  2.5516  1.3872  0.2053
 3425SOL    MW413468   2.489   5.052   1.508 -0.1648 -0.5366 -0.1995
 3426SOL     OW13469   5.696   2.632   2.924 -0.2076  0.5808 -0.0858
 3426SOL    HW213470   5.712   2.580   3.003  0.5860  2.0092  0.7415
 3426SOL    HW313471   5.688   2.722   2.956  0.4029  1.2382 -1.6768
 3426SOL    MW413472   5.697   2.637   2.939  0.0126  0.0307 -0.0682
 3427SOL     OW13473   2.716   2.660   2.119 -0.4357 -0.3152 -0.5668
 3427SOL    HW213474   2.643   2.702   2.075  0.0060  1.5298  0.3850
 3427SOL    HW313475   2.676   2.593   2.175 -1.3112  0.0717 -0.7297
 3427SOL    MW413476   2.701   2.656   2.121  0.3110  0.3471 -0.2636
 3428SOL     OW13477   5.463   0.961   1.757 -0.1656  0.1245 -0.6267
 3428SOL    HW213478   5.450   0.988   1.848 -0.6809  0.8395 -0.9012
 3428SOL    HW313479   5.496   0.872   1.763 -0.5481  0.0290  0.2540
 3428SOL    MW413480   5.465   0.953   1.769 -0.7935 -0.2852  0.0395
 3429SOL     OW13481   5.952   1.182   2.029 -0.1181 -0.5668 -0.5071
 3429SOL    HW213482   6.036   1.185   2.075 -0.3596 -1.8627  0.0613
 3429SOL    HW313483   5.955   1.257   1.969  0.8019  0.3142  0.5890
 3429SOL    MW413484   5.964   1.192   2.027 -0.1529 -0.4754 -0.2451
 3430SOL     OW13485   5.324   3.492   3.739  0.3213 -0.4650  0.1225
 3430SOL    HW213486   5.336   3.573   3.788 -0.8262  0.0880 -0.4798
 3430SOL    HW313487   5.408   3.478   3.696  0.2762  0.8895 -0.4673
 3430SOL    MW413488   5.337   3.501   3.740  0.5664 -0.0017  0.4940
 3431SOL     OW13489   0.936   5.314   0.435 -0.2018 -0.7914  0.5152
 3431SOL    HW213490   1.028   5.339   0.420 -0.8848  1.2801 -0.6059
 3431SOL    HW313491   0.906   5.285   0.349 -1.1689  0.6795  0.3236
 3431SOL    MW413492   0.944   5.313   0.422  0.5095 -0.4722  0.4898
 3432SOL     OW13493   2.658   3.689   6.151  0.6644  0.7166 -0.2917
 3432SOL    HW213494   2.670   3.783   6.138 -0.9521  1.4426  2.5316
 3432SOL    HW313495   2.706   3.669   6.231  0.4810 -0.7553 -0.5114
 3432SOL    MW413496   2.666   3.698   6.160  0.5074 -0.0060  0.1710
 3433SOL     OW13497   5.043   2.747   5.491  0.0904  0.2299 -0.2771
 3433SOL    HW213498   5.005   2.813   5.433 -2.3075 -0.9373 -0.1827
 3433SOL    HW313499   5.101   2.795   5.549 -1.7319  2.3151 -0.0557
 3433SOL    MW413500   5.046   2.762   5.491 -0.4458  0.4917  0.1951
 3434SOL     OW13501   3.405   5.837   2.380  0.0234 -0.1508  0.3579
 3434SOL    HW213502   3.485   5.830   2.431 -0.5560 -0.4564  1.2491
 3434SOL    HW313503   3.346   5.772   2.419 -0.5803 -0.0809 -0.4209
 3434SOL    MW413504   3.408   5.828   2.392 -0.6508 -0.1998 -0.9040
 3435SOL     OW13505   1.525   5.651   0.291  0.3267  0.3720  0.4068
 3435SOL    HW213506   1.500   5.621   0.379  0.5404  1.3356  0.8058
 3435SOL    HW313507   1.451   5.703   0.261  1.1745  1.9743  0.9805
 3435SOL    MW413508   1.512   5.654   0.299 -0.4491  0.3012 -0.0506
 3436SOL     OW13509   2.821   2.770   3.932 -0.0091 -0.7684 -0.1019
 3436SOL    HW213510   2.872   2.694   3.962  0.5771 -0.2751  0.1622
 3436SOL    HW313511   2.886   2.828   3.892 -0.7930 -1.5654 -2.7401
 3436SOL    MW413512   2.837   2.767   3.930  0.3016  0.2106  0.6960
 3437SOL     OW13513   2.999   6.312   0.777 -0.4065 -0.3476  0.3596
 3437SOL    HW213514   2.968   6.325   0.687  1.1257 -1.2302 -0.3237
 3437SOL    HW313515   3.062   6.241   0.771  0.2697  0.0621  2.0298
 3437SOL    MW413516   3.003   6.304   0.764  0.6436 -0.1180 -0.4596
 3438SOL     OW13517   6.183   5.455   2.971 -0.2769  0.3308  0.1459
 3438SOL    HW213518   6.190   5.396   3.045 -0.0963 -0.9876 -0.8744
 3438SOL    HW313519   6.266   5.445   2.924 -0.4515  1.0068 -0.3380
 3438SOL    MW413520   6.195   5.446   2.974  0.9789 -0.5084 -0.3000
 3439SOL     OW13521   2.652   6.273   0.207  0.0171  0.2685 -0.1266
 3439SOL    HW213522   2.572   6.326   0.209  0.4799  1.2634 -2.9043
 3439SOL    HW313523   2.670   6.254   0.299 -2.8222  0.8674  0.6618
 3439SOL    MW413524   2.644   6.278   0.220 -0.4036 -0.4875 -0.7733
 3440SOL     OW13525   3.560   4.439   4.628 -0.0282 -0.1332  0.2839
 3440SOL    HW213526   3.597   4.356   4.599 -2.2666 -0.6353 -1.4699
 3440SOL    HW313527   3.465   4.423   4.632 -0.4341  2.0152  1.0181
 3440SOL    MW413528   3.552   4.426   4.625  0.5807 -0.5013  0.6268
 3441SOL     OW13529   4.647   5.757   4.683 -0.4897  0.0104  0.1601
 3441SOL    HW213530   4.559   5.795   4.681 -0.6976 -0.4741 -0.2115
 3441SOL    HW313531   4.666   5.737   4.591 -0.7774 -1.6389  0.4303
 3441SOL    MW413532   4.638   5.759   4.670 -0.1068 -0.1736 -0.6274
 3442SOL     OW13533   2.570   5.662   6.344 -0.0055  0.2426 -0.3949
 3442SOL    HW213534   2.487   5.693   6.379 -0.3118 -0.3786 -0.5602
 3442SOL    HW313535   2.635   5.722   6.380 -0.1013 -1.1908  2.4945
 3442SOL    MW413536   2.568   5.674   6.354 -0.1604 -0.3041  0.4878
 3443SOL     OW13537   0.706   5.916   4.148 -0.1507 -0.0720  0.3929
 3443SOL    HW213538   0.764   5.840   4.158 -0.1573 -0.1631 -0.2298
 3443SOL    HW313539   0.734   5.956   4.066 -1.6695 -0.7256 -0.4780
 3443SOL    MW413540   0.718   5.911   4.139  0.1936 -0.4752 -0.3181
 3444SOL     OW13541   2.098   0.683   0.193  0.0040 -0.0700  0.4509
 3444SOL    HW213542   2.076   0.598   0.230 -1.5264  0.1828  0.2093
 3444SOL    HW313543   2.071   0.746   0.260 -2.6445  0.3807 -0.9072
 3444SOL    MW413544   2.091   0.680   0.207 -0.0286 -0.4926  0.1374
 3445SOL     OW13545   3.159   4.060   1.474  0.1682 -0.1443  0.2156
 3445SOL    HW213546   3.219   4.127   1.507  0.3363  0.4727 -1.2871
 3445SOL    HW313547   3.127   4.017   1.553 -0.3630  2.0451  1.2915
 3445SOL    MW413548   3.163   4.063   1.489  0.0356  0.1766 -0.0876
 3446SOL     OW13549   0.104   3.042   0.024  0.2131 -0.0098  0.7237
 3446SOL    HW213550   0.106   3.120  -0.032 -0.3004 -0.8190 -0.4578
 3446SOL    HW313551   0.068   2.973  -0.031  0.0537 -0.9477  1.9462
 3446SOL    MW413552   0.100   3.043   0.009  0.4758  0.2184 -0.0420
 3447SOL     OW13553   3.362   5.170   3.534 -0.5219 -0.0481  0.2623
 3447SOL    HW213554   3.269   5.185   3.514 -0.9275 -1.7747  0.7145
 3447SOL    HW313555   3.407   5.200   3.455 -1.3692  1.4854  0.3042
 3447SOL    MW413556   3.355   5.176   3.521  0.8674  0.4938 -0.6465
 3448SOL     OW13557   4.334   3.340   3.162 -0.5946 -0.1007 -0.3354
 3448SOL    HW213558   4.427   3.338   3.188 -0.1427  2.0605 -1.5807
 3448SOL    HW313559   4.290   3.385   3.234 -0.8613 -1.7466  0.5910
 3448SOL    MW413560   4.341   3.346   3.175  0.4866 -0.7966 -0.0881
 3449SOL     OW13561   0.706   3.744   1.171  0.0074  0.0538  0.3636
 3449SOL    HW213562   0.692   3.680   1.102 -0.8775  0.8142 -0.1907
 3449SOL    HW313563   0.620   3.757   1.210  0.0333  1.3222  0.0590
 3449SOL    MW413564   0.693   3.737   1.167 -0.3281 -0.8015 -0.2615
 3450SOL     OW13565   5.797   5.070   0.554 -0.2754  0.1270  0.3196
 3450SOL    HW213566   5.865   5.103   0.612  0.2174  0.5737 -0.4898
 3450SOL    HW313567   5.773   5.145   0.500 -0.3274 -0.4136 -0.4248
 3450SOL    MW413568   5.802   5.084   0.554 -0.3033 -0.2286 -0.2645
 3451SOL     OW13569   3.215   1.888   4.790 -0.1966  0.5305  0.3187
 3451SOL    HW213570   3.182   1.937   4.865 -0.0740  1.2196 -0.0779
 3451SOL    HW313571   3.280   1.945   4.750  0.3665 -0.1897  0.1921
 3451SOL    MW413572   3.219   1.902   4.794 -0.4716 -0.6429  0.4671
 3452SOL     OW13573   1.302   2.171   2.926  0.1988  0.1265 -0.1982
 3452SOL    HW213574   1.292   2.266   2.928  0.9203  0.2162  1.5924
 3452SOL    HW313575   1.241   2.140   2.993 -0.2351 -0.7172 -0.9631
 3452SOL    MW413576   1.293   2.179   2.935  0.0005  0.0986  0.0612
 3453SOL     OW13577   5.234   4.462   1.619  0.0906 -0.1135  0.1841
 3453SOL    HW213578   5.173   4.391   1.641 -0.5271  0.8395  1.7847
 3453SOL    HW313579   5.197   4.538   1.663  2.0537  0.6595  0.5714
 3453SOL    MW413580   5.221   4.462   1.628 -0.3371 -0.1728 -1.0409
 3454SOL     OW13581   5.596   0.313   0.307 -0.3837  0.3247  0.1488
 3454SOL    HW213582   5.677   0.265   0.293 -0.2273  1.0096 -1.5723
 3454SOL    HW313583   5.599   0.340   0.399  0.6088 -0.9340  0.5030
 3454SOL    MW413584   5.607   0.310   0.318  0.0289 -0.3616 -0.8757
 3455SOL     OW13585   3.748   5.174   0.019 -0.4330 -0.0947 -0.4869
 3455SOL    HW213586   3.696   5.210   0.090  0.5605  0.8568 -0.2125
 3455SOL    HW313587   3.752   5.245  -0.046  1.2352  0.2060 -0.1035
 3455SOL    MW413588   3.742   5.188   0.020  0.1113  0.0181 -0.3645
 3456SOL     OW13589   4.004   0.580   2.280 -0.2793  0.0400  0.0063
 3456SOL    HW213590   4.054   0.586   2.362 -1.0773 -1.0839  0.5969
 3456SOL    HW313591   3.945   0.655   2.283 -1.1563 -0.6605  1.0710
 3456SOL    MW413592   4.003   0.590   2.291 -0.4090 -0.0876  0.4754
 3457SOL     OW13593   6.208   5.368   1.360  0.2485 -0.1496 -0.1610
 3457SOL    HW213594   6.174   5.279   1.361 -1.1879  0.3703  1.4397
 3457SOL    HW313595   6.260   5.373   1.279  0.4755 -2.4482 -0.2200
 3457SOL    MW413596   6.211   5.357   1.349 -0.1947  0.1582  0.1072
 3458SOL     OW13597   3.553   4.877   3.019 -0.5812 -0.3962  0.4467
 3458SOL    HW213598   3.518   4.800   3.064 -0.8495 -0.9538 -0.6928
 3458SOL    HW313599   3.479   4.912   2.970  0.3054 -1.4250 -1.7722
 3458SOL    MW413600   3.539   4.871   3.019  0.3677 -0.0420 -0.3407
 3459SOL     OW13601   5.130   6.423   0.264  0.4684 -0.6552 -0.0757
 3459SOL    HW213602   5.046   6.462   0.241 -0.2695 -1.4330  1.1739
 3459SOL    HW313603   5.188   6.498   0.277 -0.8956  0.1005  2.2493
 3459SOL    MW413604   5.126   6.438   0.262 -0.3346  0.2620  0.0678
 3460SOL     OW13605   2.349   3.485   5.437  0.3929  0.0754  0.2830
 3460SOL    HW213606   2.294   3.425   5.387 -0.9338 -0.1461  1.9078
 3460SOL    HW313607   2.404   3.428   5.490 -0.1744  0.2552  1.0944
 3460SOL    MW413608   2.349   3.470   5.438 -0.0759  0.8499 -0.3017
 3461SOL     OW13609   1.608   5.147   1.488 -0.4761  0.3351 -0.2823
 3461SOL    HW213610   1.608   5.069   1.543 -1.2364 -1.0012 -2.0684
 3461SOL    HW313611   1.542   5.204   1.528 -1.4809 -0.8752 -0.1379
 3461SOL    MW413612   1.599   5.145   1.500  0.0138 -0.3257 -0.8238
 3462SOL     OW13613   6.040   3.714   4.909  0.3649  0.1654 -0.1552
 3462SOL    HW213614   6.057   3.643   4.847 -0.6015 -0.8554  0.7030
 3462SOL    HW313615   5.991   3.779   4.858  0.1662 -0.3523 -0.6334
 3462SOL    MW413616   6.035   3.713   4.894  0.2075 -0.3097 -0.9217
 3463SOL     OW13617   2.231   5.874   4.214  0.9338 -0.0238  0.1217
 3463SOL    HW213618   2.266   5.834   4.134  1.4298  0.3018  0.1662
 3463SOL    HW313619   2.246   5.968   4.202 -0.4295  0.1759 -0.0829
 3463SOL    MW413620   2.238   5.881   4.202 -0.3392  0.0863 -0.7978
 3464SOL     OW13621   2.710   1.331   4.750  0.0343  0.1986  0.2873
 3464SOL    HW213622   2.791   1.361   4.709  1.7738 -0.9884  2.6509
 3464SOL    HW313623   2.642   1.354   4.687  2.1341  1.5608 -1.6450
 3464SOL    MW413624   2.712   1.338   4.736 -0.2646 -0.4580  0.3258
 3465SOL     OW13625   2.430   0.399   1.877  0.1278 -0.4267 -0.0528
 3465SOL    HW213626   2.521   0.404   1.847  0.3271  2.1129  0.6994
 3465SOL    HW313627   2.390   0.481   1.846 -2.1123 -1.7248 -0.8577
 3465SOL    MW413628   2.437   0.411   1.869  0.0742  0.1764  0.3883
 3466SOL     OW13629   4.357   1.473   3.576  0.2154  0.3322 -0.0989
 3466SOL    HW213630   4.425   1.482   3.644 -0.7771 -0.6661  1.0713
 3466SOL    HW313631   4.388   1.401   3.521  0.0979 -0.1512  0.4570
 3466SOL    MW413632   4.370   1.465   3.578  0.0440  0.0082  0.0186
 3467SOL     OW13633   6.415   4.643   1.491 -0.4087  0.4124  0.2907
 3467SOL    HW213634   6.372   4.569   1.534  1.2776 -0.7818  0.0442
 3467SOL    HW313635   6.418   4.711   1.557  2.6711 -1.5699  2.5001
 3467SOL    MW413636   6.410   4.642   1.505 -0.6803  0.2567 -0.3118
 3468SOL     OW13637   4.106   0.154   6.093  0.6457 -0.6993 -0.2278
 3468SOL    HW213638   4.027   0.168   6.040  0.0456 -3.5934 -0.2956
 3468SOL    HW313639   4.077   0.170   6.183  0.4132 -0.2085 -0.3865
 3468SOL    MW413640   4.092   0.158   6.098 -0.3998  0.5825  0.3434
 3469SOL     OW13641   2.819   1.749   1.944  0.6655 -0.3539 -0.1386
 3469SOL    HW213642   2.772   1.765   1.862 -0.7642  0.0827  0.7211
 3469SOL    HW313643   2.789   1.819   2.002  1.2921 -0.9345  0.9056
 3469SOL    MW413644   2.809   1.761   1.941 -0.1592 -0.3717  0.1008
 3470SOL     OW13645   1.618   4.725   0.318 -0.2998  0.5523  0.2227
 3470SOL    HW213646   1.630   4.638   0.278 -0.6705  0.4608  0.3124
 3470SOL    HW313647   1.564   4.709   0.395 -1.9264  1.1032 -0.7589
 3470SOL    MW413648   1.613   4.711   0.323 -0.6398  0.3003 -0.1896
 3471SOL     OW13649   1.691   0.639   5.672  0.2704  0.0730  0.1221
 3471SOL    HW213650   1.631   0.693   5.723 -2.1183 -0.7260 -1.6625
 3471SOL    HW313651   1.658   0.645   5.582  0.9750 -2.9126 -0.4325
 3471SOL    MW413652   1.679   0.647   5.667  0.1443 -0.1776  0.3853
 3472SOL     OW13653   2.870   0.029   1.709 -0.5904 -0.1147 -0.2065
 3472SOL    HW213654   2.809  -0.043   1.695  1.7669 -2.1864 -0.6240
 3472SOL    HW313655   2.883   0.066   1.621 -1.1754  0.2896 -0.1261
 3472SOL    MW413656   2.864   0.024   1.695 -0.1028 -0.4055  0.2436
 3473SOL     OW13657   5.380   5.867   5.085  0.1562 -0.5501  0.1894
 3473SOL    HW213658   5.316   5.801   5.059  0.5922 -1.6229  1.7247
 3473SOL    HW313659   5.463   5.837   5.046  0.2873 -0.7400  0.6070
 3473SOL    MW413660   5.383   5.854   5.076 -0.4544  0.2277 -0.0654
 3474SOL     OW13661   2.534   2.936   4.905 -0.4230  0.7887 -0.1333
 3474SOL    HW213662   2.447   2.953   4.867  0.0673 -0.0880 -1.7200
 3474SOL    HW313663   2.516   2.920   4.998 -1.9039  1.0565 -0.3387
 3474SOL    MW413664   2.520   2.936   4.912 -0.3647 -0.0352 -0.8288
 3475SOL     OW13665   5.265   1.452   3.644 -0.8815 -0.0480  0.1565
 3475SOL    HW213666   5.239   1.536   3.682 -1.4945 -0.5805  0.9356
 3475SOL    HW313667   5.202   1.389   3.679 -1.0469 -0.6787 -1.2041
 3475SOL    MW413668   5.253   1.455   3.654  0.1259 -0.3514 -0.0782
 3476SOL     OW13669   1.638   3.265   2.290 -0.4207 -0.6287  0.0969
 3476SOL    HW213670   1.600   3.336   2.342  1.3113  0.6459 -0.2981
 3476SOL    HW313671   1.596   3.275   2.204  0.7229  0.7655 -0.3349
 3476SOL    MW413672   1.627   3.276   2.285  0.7255  0.0090  0.4266
 3477SOL     OW13673   0.102   1.304   4.896 -0.8062 -0.3695 -0.1155
 3477SOL    HW213674   0.159   1.271   4.965 -0.6182 -0.5235 -0.3428
 3477SOL    HW313675   0.092   1.231   4.835 -2.6450 -0.9431  0.7814
 3477SOL    MW413676   0.108   1.290   4.897  0.2719 -0.0693  0.5433
 3478SOL     OW13677   1.112   5.865   2.484 -0.4209  0.1050  0.0466
 3478SOL    HW213678   1.035   5.921   2.491 -0.8490 -0.4684 -0.0135
 3478SOL    HW313679   1.078   5.776   2.493  0.2811 -0.1370  0.3784
 3478SOL    MW413680   1.097   5.861   2.486 -0.5009 -0.2126  0.2307
 3479SOL     OW13681   0.756   6.277   4.325 -0.4853 -0.1990 -0.4203
 3479SOL    HW213682   0.666   6.244   4.321 -0.5474 -0.2619  0.8791
 3479SOL    HW313683   0.779   6.295   4.234 -1.2110 -1.7663 -0.9602
 3479SOL    MW413684   0.747   6.275   4.313  0.1346 -0.3977 -0.1647
 3480SOL     OW13685   4.935   2.429   4.897  0.3667 -0.1861 -0.4589
 3480SOL    HW213686   4.855   2.439   4.847 -0.0436 -0.8551  0.0430
 3480SOL    HW313687   4.912   2.453   4.987  1.5974  3.0271 -0.8698
 3480SOL    MW413688   4.922   2.433   4.903  0.2144 -0.2212 -0.0663
 3481SOL     OW13689   5.450   5.930   5.606  0.4133  0.4166 -0.8447
 3481SOL    HW213690   5.459   5.963   5.517 -0.9299  0.5403 -0.9552
 3481SOL    HW313691   5.538   5.935   5.643  1.2505 -0.7563 -2.5353
 3481SOL    MW413692   5.462   5.935   5.599  0.4638 -0.0937  0.0952
 3482SOL     OW13693   6.192   0.070   3.011  0.0217  0.1541 -0.2005
 3482SOL    HW213694   6.171   0.060   3.104  0.1072  0.8007 -0.1028
 3482SOL    HW313695   6.121   0.026   2.965  0.4149 -0.9041  0.1780
 3482SOL    MW413696   6.180   0.063   3.017 -0.4073  0.7440  0.8673
 3483SOL     OW13697   5.187   0.763   0.699  0.0305 -0.1565  0.1140
 3483SOL    HW213698   5.115   0.823   0.681 -2.3322 -3.3137 -2.2576
 3483SOL    HW313699   5.258   0.790   0.641 -0.0610  1.5731  0.7467
 3483SOL    MW413700   5.187   0.774   0.689 -0.0936 -0.7342  0.3730
 3484SOL     OW13701   0.769   2.489   6.146 -0.0717  0.1142 -0.4939
 3484SOL    HW213702   0.688   2.482   6.096  0.7150  1.1891 -1.9678
 3484SOL    HW313703   0.808   2.572   6.119  2.3336 -1.1015 -1.0871
 3484SOL    MW413704   0.764   2.499   6.136 -0.5314 -0.2418 -0.0645
 3485SOL     OW13705   5.725   2.827   3.878  0.5731  0.1455 -0.5039
 3485SOL    HW213706   5.776   2.896   3.838  1.3770 -0.3626 -0.3757
 3485SOL    HW313707   5.747   2.832   3.971 -0.3122  0.5057 -0.3035
 3485SOL    MW413708   5.734   2.837   3.885  0.0531 -0.0602  0.3348
 3486SOL     OW13709   4.870   0.319   3.901  0.4365 -0.1939  0.0591
 3486SOL    HW213710   4.952   0.273   3.921  1.5353  1.9991  0.9168
 3486SOL    HW313711   4.897   0.396   3.851 -0.7149  1.8975  2.4022
 3486SOL    MW413712   4.884   0.323   3.897  0.3365 -0.1850  0.0206
 3487SOL     OW13713   6.217   6.308   3.758 -0.1556  0.4023  0.4553
 3487SOL    HW213714   6.288   6.248   3.732 -1.2118 -0.7840  0.2144
 3487SOL    HW313715   6.258   6.367   3.821  1.2284  0.2080 -0.2122
 3487SOL    MW413716   6.232   6.308   3.763  0.2842  0.3259  0.2015
 3488SOL     OW13717   3.078   2.239   2.166 -0.3655 -0.0886 -0.1429
 3488SOL    HW213718   3.173   2.226   2.165 -0.5082 -1.1834 -0.5834
 3488SOL    HW313719   3.057   2.256   2.258  0.0853 -1.2563  0.1944
 3488SOL    MW413720   3.088   2.240   2.178  0.2927  0.3852 -0.2402
 3489SOL     OW13721   1.449   2.360   2.606  0.2491  0.0826  0.5101
 3489SOL    HW213722   1.527   2.357   2.550  0.4383  0.1597  0.7713
 3489SOL    HW313723   1.451   2.446   2.647 -0.2397  0.2758  0.1405
 3489SOL    MW413724   1.459   2.371   2.604 -0.0047 -0.1197  0.7529
 3490SOL     OW13725   5.427   3.753   3.812 -0.5947  0.2891 -0.2232
 3490SOL    HW213726   5.491   3.818   3.785 -0.6129  0.4441  0.0958
 3490SOL    HW313727   5.410   3.774   3.904  1.3528 -1.7300  0.7048
 3490SOL    MW413728   5.434   3.764   3.821 -0.0283 -0.3034  0.0366
 3491SOL     OW13729   4.079   0.920   4.471 -0.1236  0.7971 -0.1472
 3491SOL    HW213730   4.108   0.854   4.407 -0.4552  1.8169 -1.3935
 3491SOL    HW313731   4.084   0.875   4.555 -0.1037 -0.7484 -0.9260
 3491SOL    MW413732   4.083   0.905   4.473 -0.0467 -0.1053  0.4990
 3492SOL     OW13733   5.731   1.707   4.174 -0.2296 -0.0848  0.1819
 3492SOL    HW213734   5.820   1.676   4.157  0.0903 -1.6283  3.7816
 3492SOL    HW313735   5.743   1.795   4.210 -0.1949 -0.0436  0.0683
 3492SOL    MW413736   5.744   1.715   4.177 -0.1961  0.3190  0.2994
 3493SOL     OW13737   6.360   2.205   2.466 -0.4936  0.6057 -0.0482
 3493SOL    HW213738   6.325   2.230   2.552  2.5386  2.3156  0.8218
 3493SOL    HW313739   6.455   2.209   2.476  0.0962 -2.2564 -2.6519
 3493SOL    MW413740   6.367   2.209   2.479 -0.2102  0.7192  0.3547
 3494SOL     OW13741   3.044   0.171   0.809  0.0186  0.2817  0.5641
 3494SOL    HW213742   3.034   0.080   0.838 -1.9470  1.0094  2.5260
 3494SOL    HW313743   3.100   0.211   0.875  0.5127  0.6077 -0.0460
 3494SOL    MW413744   3.050   0.164   0.822 -0.7276  0.2637 -0.9149
 3495SOL     OW13745   2.697   1.389   1.795  0.5661  0.2322  0.2754
 3495SOL    HW213746   2.614   1.352   1.828  1.6594 -2.0087  0.6830
 3495SOL    HW313747   2.741   1.421   1.874 -0.0249  1.7861  0.0134
 3495SOL    MW413748   2.692   1.389   1.810  0.2246  0.0680 -0.3571
 3496SOL     OW13749   4.785   6.164   2.048  0.3758  0.1696 -0.0246
 3496SOL    HW213750   4.720   6.183   2.115  0.6512 -2.1511  0.9990
 3496SOL    HW313751   4.867   6.201   2.082  0.6084 -1.3738  1.1931
 3496SOL    MW413752   4.787   6.171   2.061  0.1924  0.1477 -0.5313
 3497SOL     OW13753   6.178   2.314   4.751 -0.2737  0.4164 -0.1781
 3497SOL    HW213754   6.247   2.379   4.766 -0.0619  0.4407 -1.2040
 3497SOL    HW313755   6.104   2.345   4.803  0.1391  0.9633  0.0975
 3497SOL    MW413756   6.177   2.327   4.760 -0.3081  0.4011 -0.5901
 3498SOL     OW13757   2.467   4.200   1.387  0.1215 -0.1059  0.0139
 3498SOL    HW213758   2.527   4.224   1.458 -0.1859  1.3321 -0.1887
 3498SOL    HW313759   2.518   4.141   1.332  0.3331 -1.3732  1.4694
 3498SOL    MW413760   2.482   4.196   1.389 -0.1432 -0.9443  0.4996
 3499SOL     OW13761   6.076   5.737   0.551  0.3624 -0.3160  0.2314
 3499SOL    HW213762   6.008   5.738   0.484 -0.7759  2.5839  1.2470
 3499SOL    HW313763   6.129   5.660   0.531 -3.3506 -2.9736 -0.4369
 3499SOL    MW413764   6.074   5.727   0.540  0.1268 -0.3426 -0.2657
 3500SOL     OW13765   0.561   2.254   5.345 -0.0263  0.4223 -0.1190
 3500SOL    HW213766   0.525   2.309   5.276 -1.0234 -0.0556  0.0070
 3500SOL    HW313767   0.648   2.230   5.313 -0.2002  0.7806 -0.8858
 3500SOL    MW413768   0.568   2.258   5.332 -0.3525  0.4240 -0.1201
 3501SOL     OW13769   2.880   5.997   0.971  0.0396  0.1047  0.4455
 3501SOL    HW213770   2.828   6.077   0.980  0.9966  0.8362 -0.2653
 3501SOL    HW313771   2.949   6.005   1.037 -2.2061 -2.1554  3.3397
 3501SOL    MW413772   2.882   6.009   0.981  0.0057 -0.6123 -0.1461
 3502SOL     OW13773   5.732   1.504   0.724 -0.6016  0.2427 -0.2534
 3502SOL    HW213774   5.715   1.447   0.799 -0.3241  1.7559  1.0233
 3502SOL    HW313775   5.821   1.481   0.697 -1.1588 -1.1936 -0.9631
 3502SOL    MW413776   5.741   1.493   0.731 -0.3010 -0.2726 -0.1979
 3503SOL     OW13777   1.711   5.754   4.810 -0.2839 -0.4304  0.7160
 3503SOL    HW213778   1.712   5.845   4.781 -1.5845 -0.6147 -0.0025
 3503SOL    HW313779   1.722   5.703   4.731  0.0880 -0.9027  1.0696
 3503SOL    MW413780   1.712   5.759   4.796 -0.2600 -0.3661 -0.2648
 3504SOL     OW13781   4.915   5.440   6.375  0.2715  0.2033  0.6347
 3504SOL    HW213782   4.893   5.352   6.343  0.2017 -0.4505  2.3794
 3504SOL    HW313783   4.834   5.490   6.363  0.1078 -0.1464  0.2457
 3504SOL    MW413784   4.901   5.435   6.369  0.3086  0.3939  0.5043
 3505SOL     OW13785   2.169   2.791   2.265  0.0070 -0.1917  0.0436
 3505SOL    HW213786   2.162   2.875   2.220  1.5693 -0.7593 -1.3542
 3505SOL    HW313787   2.227   2.809   2.339  0.4451 -0.0388 -0.3268
 3505SOL    MW413788   2.176   2.804   2.269  0.6910  0.1508  1.2824
 3506SOL     OW13789   6.321   5.319   5.324  0.5611 -0.0443  0.0222
 3506SOL    HW213790   6.316   5.330   5.419 -0.0449  0.1172 -0.0268
 3506SOL    HW313791   6.325   5.224   5.312  3.4206 -0.0284  0.3245
 3506SOL    MW413792   6.321   5.308   5.335 -0.6059  0.2806  0.3069
 3507SOL     OW13793   1.728   1.751   3.361  0.2873  0.0721 -0.0447
 3507SOL    HW213794   1.672   1.702   3.302 -0.8524 -0.3172  1.3100
 3507SOL    HW313795   1.667   1.797   3.419  1.3549 -0.1665  1.3128
 3507SOL    MW413796   1.712   1.751   3.361 -0.3012  0.5656  0.2273
 3508SOL     OW13797   3.463   2.532   4.929 -0.5162 -0.5331  0.6848
 3508SOL    HW213798   3.445   2.591   4.856 -0.2302  0.5792  1.4882
 3508SOL    HW313799   3.548   2.494   4.908 -0.6832 -0.6440  0.1770
 3508SOL    MW413800   3.472   2.535   4.916  0.5260  0.0594  0.4096
 3509SOL     OW13801   0.584   3.276   3.262 -0.5234  0.7389  0.5228
 3509SOL    HW213802   0.505   3.276   3.315  0.0802  1.8752  1.4777
 3509SOL    HW313803   0.553   3.286   3.172 -1.5539 -1.0843  0.6222
 3509SOL    MW413804   0.570   3.277   3.257 -0.0086  0.9376  0.3631
 3510SOL     OW13805   6.117   5.850   0.156 -0.5196 -0.4458 -0.2632
 3510SOL    HW213806   6.207   5.821   0.142 -0.2330  0.2826  0.0388
 3510SOL    HW313807   6.125   5.940   0.189 -1.2273 -1.1241  1.9862
 3510SOL    MW413808   6.130   5.858   0.159  0.0468  0.0363  0.3700
 3511SOL     OW13809   2.876   0.595   2.557 -0.2695  0.2288 -0.6108
 3511SOL    HW213810   2.870   0.689   2.579 -0.3830  0.1126 -0.1191
 3511SOL    HW313811   2.884   0.552   2.642 -0.3204 -0.2178 -0.8315
 3511SOL    MW413812   2.876   0.602   2.571 -0.7005  0.2764  0.1450
 3512SOL     OW13813   1.203   4.866   6.013  0.4543 -0.5797 -0.5325
 3512SOL    HW213814   1.226   4.885   5.921  1.2325 -1.3857 -0.5137
 3512SOL    HW313815   1.286   4.871   6.059  0.7179 -3.7810 -0.4852
 3512SOL    MW413816   1.217   4.869   6.007 -0.5582 -0.4842  0.0136
 3513SOL     OW13817   2.056   1.975   5.258 -0.8830 -0.4736  0.9440
 3513SOL    HW213818   1.986   2.009   5.314 -1.2739  2.5580 -1.1429
 3513SOL    HW313819   2.011   1.944   5.179 -0.0336  0.4260  0.0690
 3513SOL    MW413820   2.041   1.976   5.255  0.3209  0.1417 -0.6270
 3514SOL     OW13821   1.784   6.225   4.221  0.3147 -0.6643 -0.3034
 3514SOL    HW213822   1.784   6.320   4.224  1.8059 -0.6457 -0.6071
 3514SOL    HW313823   1.769   6.204   4.129 -1.4066 -0.7800 -0.0470
 3514SOL    MW413824   1.782   6.235   4.209  0.1273  0.2098 -0.2628
 3515SOL     OW13825   2.443   4.205   0.665  0.4856 -0.0054 -0.1744
 3515SOL    HW213826   2.363   4.233   0.621  0.5877 -0.1001 -0.4228
 3515SOL    HW313827   2.421   4.204   0.758  0.0474 -0.5180 -0.2818
 3515SOL    MW413828   2.430   4.209   0.672  0.0942 -0.4989  0.1610
 3516SOL     OW13829   1.995   3.444   5.645 -0.3039 -0.2048  0.6932
 3516SOL    HW213830   1.934   3.446   5.571 -1.0368 -1.4598  1.2353
 3516SOL    HW313831   1.947   3.487   5.716 -0.2802 -0.5691  0.9282
 3516SOL    MW413832   1.980   3.450   5.645  0.0419 -0.2377 -0.1523
 3517SOL     OW13833   0.818   2.253   6.311  0.1799 -0.4116 -0.2146
 3517SOL    HW213834   0.734   2.293   6.287 -1.1836 -0.6788  3.3910
 3517SOL    HW313835   0.875   2.327   6.329 -0.3448 -0.1477  0.4161
 3517SOL    MW413836   0.814   2.268   6.310 -0.4125  0.2368  0.5241
 3518SOL     OW13837   1.554   3.221   6.207  0.4822  0.2679 -0.1662
 3518SOL    HW213838   1.523   3.235   6.117 -2.2689 -1.6056  0.3620
 3518SOL    HW313839   1.508   3.286   6.259 -0.2077 -0.5057  0.2186
 3518SOL    MW413840   1.544   3.231   6.202 -0.0654 -0.1314 -0.1587
 3519SOL     OW13841   3.984   5.878   3.354 -0.4879 -0.1165 -0.1727
 3519SOL    HW213842   3.985   5.949   3.290 -0.4781  1.3340  1.3865
 3519SOL    HW313843   4.054   5.819   3.325 -0.1365  0.7699 -1.1995
 3519SOL    MW413844   3.994   5.879   3.342  0.2079  0.5667 -0.2346
 3520SOL     OW13845   1.904   5.020   2.524 -0.0288  0.4443  0.1701
 3520SOL    HW213846   1.984   5.041   2.573  0.6388 -0.6727 -0.4009
 3520SOL    HW313847   1.846   5.095   2.540  1.0440  1.1778  0.7732
 3520SOL    MW413848   1.907   5.033   2.533 -0.2323 -0.2884 -0.0473
 3521SOL     OW13849   0.559   4.954   1.843 -0.3807  0.7643 -0.0381
 3521SOL    HW213850   0.490   5.010   1.808 -2.2511 -1.1840  0.3029
 3521SOL    HW313851   0.514   4.873   1.868  1.7077  0.1224  2.0562
 3521SOL    MW413852   0.544   4.950   1.842 -0.0073 -0.2369  0.5507
 3522SOL     OW13853   6.262   2.247   5.512 -0.0441 -0.5577 -0.6310
 3522SOL    HW213854   6.180   2.296   5.519  1.0726  1.4431 -0.6642
 3522SOL    HW313855   6.285   2.252   5.419 -0.1002 -1.5120 -0.7046
 3522SOL    MW413856   6.255   2.254   5.501  0.0097 -0.0813 -0.3156
 3523SOL     OW13857   3.533   4.369   1.397 -0.5071 -0.1243  0.0610
 3523SOL    HW213858   3.450   4.343   1.356  0.9064 -1.1942 -2.3255
 3523SOL    HW313859   3.561   4.292   1.447 -0.3392 -0.2031 -0.1560
 3523SOL    MW413860   3.526   4.356   1.398 -0.0238 -0.6629 -0.5722
 3524SOL     OW13861   2.627   0.671   0.810  0.1307 -0.0187  0.1995
 3524SOL    HW213862   2.557   0.629   0.761  0.3878 -1.6236  1.1019
 3524SOL    HW313863   2.583   0.716   0.882 -0.0803  0.4489 -0.2164
 3524SOL    MW413864   2.612   0.671   0.813 -0.0081 -0.1045  0.4246
 3525SOL     OW13865   0.739   3.478   2.853  0.2233  0.1094 -0.0164
 3525SOL    HW213866   0.786   3.504   2.932 -0.6749 -1.6303  1.1724
 3525SOL    HW313867   0.761   3.544   2.788  1.4066  1.3091  1.5432
 3525SOL    MW413868   0.748   3.490   2.855 -0.1927 -0.3908 -0.2147
 3526SOL     OW13869   5.243   2.037   3.474 -0.0220 -0.0723 -0.0415
 3526SOL    HW213870   5.225   2.120   3.431  0.2503  1.3583  2.4332
 3526SOL    HW313871   5.191   2.039   3.554  0.3854 -2.0967  0.3431
 3526SOL    MW413872   5.233   2.048   3.479 -0.2202 -0.3604 -0.0697
 3527SOL     OW13873   3.351   4.136   0.595  0.1614  0.0886 -0.1593
 3527SOL    HW213874   3.367   4.211   0.537  1.6860 -0.2890 -0.2793
 3527SOL    HW313875   3.320   4.067   0.537 -0.9119  0.5068 -0.1012
 3527SOL    MW413876   3.349   4.137   0.580 -0.0909  0.0556 -0.2566
 3528SOL     OW13877   0.198   4.409   3.029  0.0148 -0.2543  0.2742
 3528SOL    HW213878   0.284   4.368   3.030 -0.4206 -1.1543  1.2425
 3528SOL    HW313879   0.212   4.494   3.071  0.5656 -0.0796 -0.2366
 3528SOL    MW413880   0.211   4.415   3.034 -0.0255 -0.2669  0.2109
 3529SOL     OW13881   5.701   3.833   0.079 -0.7883 -0.4827 -0.3181
 3529SOL    HW213882   5.782   3.849   0.127 -0.5767  2.7758 -1.5306
 3529SOL    HW313883   5.717   3.751   0.033  1.3096 -0.5802  0.4581
 3529SOL    MW413884   5.714   3.824   0.079 -0.4359 -0.6396 -0.3781
 3530SOL     OW13885   0.561   4.024   4.230 -0.2655  0.7648  0.2352
 3530SOL    HW213886   0.558   4.018   4.135  0.3446  0.3797  0.2326
 3530SOL    HW313887   0.645   4.066   4.249 -0.0183  0.1189  0.6208
 3530SOL    MW413888   0.572   4.028   4.220 -0.0566 -0.1013  0.2760
 3531SOL     OW13889   4.859   1.500   3.720  0.1584  0.3497  0.3088
 3531SOL    HW213890   4.920   1.431   3.745 -1.1903 -0.9320  0.1643
 3531SOL    HW313891   4.843   1.549   3.802  0.1227 -0.3199  0.7088
 3531SOL    MW413892   4.865   1.498   3.734 -0.2305 -0.2690  0.1943
 3532SOL     OW13893   0.369   0.211   1.204  0.3919 -0.0421  0.2416
 3532SOL    HW213894   0.450   0.168   1.174  0.2549  0.5478 -1.0232
 3532SOL    HW313895   0.299   0.166   1.157  0.2513  1.5547 -1.1697
 3532SOL    MW413896   0.371   0.199   1.194  0.2417 -0.8675  0.5297
 3533SOL     OW13897   1.208   4.730   2.706  0.1414  0.4973  0.0789
 3533SOL    HW213898   1.256   4.774   2.776 -0.6088 -0.3597  1.1617
 3533SOL    HW313899   1.118   4.722   2.739  0.1322 -1.3703 -0.2706
 3533SOL    MW413900   1.202   4.734   2.720  0.1079 -0.2022  0.7861
 3534SOL     OW13901   0.862   1.335   5.349  0.2885  0.2916 -0.2752
 3534SOL    HW213902   0.803   1.386   5.404 -0.0327 -0.0549 -0.2875
 3534SOL    HW313903   0.810   1.314   5.271  0.8900  1.1684 -0.9252
 3534SOL    MW413904   0.848   1.339   5.346 -0.6729 -0.5325 -0.5628
 3535SOL     OW13905   5.962   2.330   4.193  0.1115  0.1403  0.2099
 3535SOL    HW213906   5.919   2.415   4.194 -1.0245 -0.3780  3.1327
 3535SOL    HW313907   6.055   2.350   4.209 -0.1046  0.8328  0.6109
 3535SOL    MW413908   5.969   2.344   4.195  0.0889  0.3456  0.1573
 3536SOL     OW13909   4.932   3.835   5.574 -0.2271 -0.0755  0.0074
 3536SOL    HW213910   4.848   3.867   5.607 -0.3013  0.9279 -1.0872
 3536SOL    HW313911   4.933   3.742   5.597 -1.2882  0.0684  0.7125
 3536SOL    MW413912   4.921   3.826   5.582 -0.0636  0.2467 -0.1026
 3537SOL     OW13913   1.734   3.681   0.984 -0.0216 -0.1548  0.3848
 3537SOL    HW213914   1.685   3.603   0.958  0.7597  0.0828 -2.0992
 3537SOL    HW313915   1.805   3.647   1.038  0.5251 -1.2769 -0.9583
 3537SOL    MW413916   1.737   3.666   0.987  0.5312 -0.0874  0.5102
 3538SOL     OW13917   4.272   2.726   1.684 -0.6919  0.2435  0.1556
 3538SOL    HW213918   4.354   2.726   1.734 -0.6109 -1.2147  0.0769
 3538SOL    HW313919   4.293   2.774   1.604 -0.4186  1.3618  0.8678
 3538SOL    MW413920   4.286   2.732   1.680 -0.3126 -0.2171  0.6232
 3539SOL     OW13921   2.893   1.078   2.800 -0.5431  0.3080 -0.2584
 3539SOL    HW213922   2.912   1.167   2.771  1.1980  0.2559  0.5944
 3539SOL    HW313923   2.934   1.072   2.887 -0.4211 -1.3889 -0.4030
 3539SOL    MW413924   2.901   1.089   2.808 -0.0785  0.5291 -0.3210
 3540SOL     OW13925   4.848   3.901   4.393  0.3044  0.3463  0.6880
 3540SOL    HW213926   4.876   3.813   4.418 -0.6641 -0.1639  0.0340
 3540SOL    HW313927   4.903   3.923   4.318 -0.2051 -0.1736  0.1457
 3540SOL    MW413928   4.859   3.892   4.387 -0.6726  0.0253  0.1388
 3541SOL     OW13929   3.092   0.379   2.233  0.1980  0.1387  0.1178
 3541SOL    HW213930   3.071   0.326   2.310 -0.9620 -2.1339 -1.6191
 3541SOL    HW313931   3.009   0.384   2.185  0.9343  1.3325 -1.0746
 3541SOL    MW413932   3.078   0.372   2.237 -0.3160 -0.4571 -0.1178
 3542SOL     OW13933   5.191   5.422   4.057 -0.3192  0.2125 -0.1471
 3542SOL    HW213934   5.194   5.369   4.137  1.0415  0.2334 -0.1646
 3542SOL    HW313935   5.143   5.368   3.994 -0.2444 -0.3581  0.2780
 3542SOL    MW413936   5.185   5.408   4.060 -0.4505 -0.3724 -0.4354
 3543SOL     OW13937   5.699   1.289   0.925  0.3180  0.3981 -0.3343
 3543SOL    HW213938   5.728   1.229   0.857  1.8312  0.6051  0.0924
 3543SOL    HW313939   5.734   1.252   1.006  1.2641  1.8157 -0.0624
 3543SOL    MW413940   5.707   1.276   0.927 -0.0929  0.0070 -0.7467
 3544SOL     OW13941   1.698   6.103   1.651  0.3034 -1.3430 -0.3009
 3544SOL    HW213942   1.710   6.118   1.558  1.3424 -1.8481 -0.2678
 3544SOL    HW313943   1.751   6.170   1.694 -0.7648 -0.6428 -0.0535
 3544SOL    MW413944   1.707   6.114   1.644 -0.3945 -0.0732 -0.7803
 3545SOL     OW13945   4.691   4.439   3.537  0.1144  0.2530 -0.2067
 3545SOL    HW213946   4.660   4.433   3.627 -1.2178 -1.4088 -0.7140
 3545SOL    HW313947   4.615   4.470   3.488  0.2687 -0.5801 -1.0022
 3545SOL    MW413948   4.677   4.443   3.542  0.2829  0.1225 -0.3631
 3546SOL     OW13949   0.168   0.668   1.328 -0.2330  0.1634  0.7174
 3546SOL    HW213950   0.203   0.749   1.292  2.1490 -0.7221  0.8100
 3546SOL    HW313951   0.186   0.602   1.261 -1.4947 -0.4198  0.9257
 3546SOL    MW413952   0.175   0.670   1.314 -0.4003  0.4569  0.6719
 3547SOL     OW13953   5.790   2.547   3.193  0.0059 -0.8517  0.7602
 3547SOL    HW213954   5.871   2.532   3.145  0.3948 -1.3635  1.5462
 3547SOL    HW313955   5.800   2.633   3.232 -0.6520 -0.0826 -0.7081
 3547SOL    MW413956   5.802   2.556   3.192 -0.6879 -0.1791  0.3847
 3548SOL     OW13957   4.766   1.086   4.628 -0.0091  0.0785 -0.0955
 3548SOL    HW213958   4.693   1.036   4.591 -2.0850  3.4971 -1.1011
 3548SOL    HW313959   4.724   1.161   4.670  2.7627 -0.0274  3.2808
 3548SOL    MW413960   4.750   1.089   4.628  0.1967  0.1127 -0.9715
 3549SOL     OW13961   1.018   3.091   2.595  0.4777 -0.0604 -0.3908
 3549SOL    HW213962   1.053   3.022   2.650  3.3340 -0.6272 -2.6415
 3549SOL    HW313963   0.985   3.157   2.656  1.7178 -1.4585  1.9068
 3549SOL    MW413964   1.018   3.091   2.610  0.5555  0.2717  1.0764
 3550SOL     OW13965   1.832   2.791   3.008 -0.3038 -0.2229  0.0859
 3550SOL    HW213966   1.781   2.751   3.079 -0.5450  0.3170  0.2188
 3550SOL    HW313967   1.878   2.717   2.968  0.5507 -0.4424  1.3811
 3550SOL    MW413968   1.832   2.776   3.012  0.3635  0.2768 -0.2281
 3551SOL     OW13969   1.732   3.299   3.136 -0.2082 -0.7105  0.0708
 3551SOL    HW213970   1.765   3.388   3.143  0.2545 -0.6864 -1.7506
 3551SOL    HW313971   1.770   3.253   3.210  1.4367  0.0747 -0.2424
 3551SOL    MW413972   1.741   3.304   3.147  0.2084  0.6276 -0.1700
 3552SOL     OW13973   2.118   3.627   4.673 -0.1109  0.0808  0.4665
 3552SOL    HW213974   2.205   3.635   4.634 -0.1585  1.5550  0.6050
 3552SOL    HW313975   2.059   3.665   4.608 -0.7282 -1.3140  0.1756
 3552SOL    MW413976   2.122   3.633   4.659 -0.1314 -0.0760 -0.4713
 3553SOL     OW13977   0.254   4.690   3.125  0.3685  0.5651  0.3717
 3553SOL    HW213978   0.256   4.722   3.035  0.7741 -0.0384  0.1612
 3553SOL    HW313979   0.262   4.768   3.179 -0.8976  1.0438 -0.0951
 3553SOL    MW413980   0.255   4.704   3.120 -0.4629  0.6985  0.7316
 3554SOL     OW13981   5.970   4.791   1.508 -0.1927  0.1442  0.1067
 3554SOL    HW213982   6.002   4.869   1.553 -1.3647  0.3379  0.6442
 3554SOL    HW313983   5.884   4.817   1.474 -1.8089 -1.6283  2.4991
 3554SOL    MW413984   5.963   4.805   1.509  0.1764 -0.0234 -0.0406
 3555SOL     OW13985   3.730   2.308   1.002  0.1246 -0.1377 -0.2202
 3555SOL    HW213986   3.711   2.215   0.994 -0.4831 -0.0957  0.5664
 3555SOL    HW313987   3.748   2.321   1.095 -0.3781  0.6215 -0.2149
 3555SOL    MW413988   3.730   2.298   1.013 -0.0490  0.0271 -0.8104
 3556SOL     OW13989   5.497   5.016   5.832 -0.0571  0.0067  0.1369
 3556SOL    HW213990   5.527   4.964   5.757 -0.9718  1.1304 -1.0603
 3556SOL    HW313991   5.477   5.102   5.795 -1.7024  0.2330  1.4322
 3556SOL    MW413992   5.498   5.020   5.817 -0.5999 -0.1884  0.1887
 3557SOL     OW13993   0.241   5.683   6.251  0.2758 -0.4791  0.2911
 3557SOL    HW213994   0.259   5.643   6.337  0.3897 -0.1332  0.4307
 3557SOL    HW313995   0.328   5.700   6.215  0.3497  2.2662  1.4593
 3557SOL    MW413996   0.255   5.680   6.258  0.3085  0.0560  0.3636
 3558SOL     OW13997   1.734   2.731   4.510  0.2557  0.0704 -0.5029
 3558SOL    HW213998   1.693   2.657   4.465 -1.3126 -0.0261  0.9923
 3558SOL    HW313999   1.694   2.808   4.469  0.0357  0.0233 -0.3790
 3558SOL    MW414000   1.723   2.731   4.498 -0.1352  0.0068  0.1008
 3559SOL     OW14001   4.495   1.602   1.014  0.1921  0.3035 -0.3141
 3559SOL    HW214002   4.530   1.522   1.053  0.5420  0.4773 -0.2660
 3559SOL    HW314003   4.418   1.573   0.965 -0.5369  0.1390  0.8699
 3559SOL    MW414004   4.489   1.588   1.013 -0.9516 -0.0674 -0.0080
 3560SOL     OW14005   1.505   3.844   0.975  0.9510  0.4745  0.1287
 3560SOL    HW214006   1.579   3.787   0.995  0.0882 -0.1482  1.6930
 3560SOL    HW314007   1.450   3.792   0.918 -0.0557 -0.5019  1.9088
 3560SOL    MW414008   1.508   3.830   0.970 -0.8761  0.4257 -0.3709
 3561SOL     OW14009   6.114   5.635   2.655 -0.1835  0.4256 -0.3126
 3561SOL    HW214010   6.056   5.574   2.701 -0.2383  1.9147  1.7286
 3561SOL    HW314011   6.060   5.672   2.586 -1.2727  0.7599  0.6852
 3561SOL    MW414012   6.099   5.632   2.652  0.1643 -0.7495  0.2323
 3562SOL     OW14013   4.760   6.406   1.221  0.3188 -0.0081 -0.0408
 3562SOL    HW214014   4.838   6.455   1.249 -1.4148  2.3055  1.1093
 3562SOL    HW314015   4.784   6.314   1.231  1.9124  0.6109  3.3537
 3562SOL    MW414016   4.774   6.401   1.226 -0.0655  0.1701  0.3760
 3563SOL     OW14017   2.699   5.242   4.413 -0.3226 -0.0883 -0.1808
 3563SOL    HW214018   2.607   5.230   4.390 -0.2060  1.4091 -1.5644
 3563SOL    HW314019   2.748   5.216   4.335  0.4152 -0.1564  0.2859
 3563SOL    MW414020   2.693   5.237   4.400 -0.1845  0.2800 -0.1844
 3564SOL     OW14021   5.584   4.582   5.227 -0.2330 -0.1046  0.4186
 3564SOL    HW214022   5.615   4.672   5.222 -0.2459 -0.1017  0.3856
 3564SOL    HW314023   5.630   4.537   5.156 -1.5065  0.2584 -0.6629
 3564SOL    MW414024   5.594   4.588   5.217 -0.6069  0.1581  0.1042
 3565SOL     OW14025   0.356   4.991   2.685 -0.7667  0.2176 -0.2053
 3565SOL    HW214026   0.442   5.019   2.657 -0.5565 -0.4429 -0.2496
 3565SOL    HW314027   0.311   5.071   2.710  0.3310  0.4474  1.1435
 3565SOL    MW414028   0.361   5.005   2.684  0.1411 -0.7592  0.3020
 3566SOL     OW14029   3.544   1.708   4.033  0.3147  0.1496 -0.2382
 3566SOL    HW214030   3.622   1.660   4.005  0.1151  0.2852 -1.0351
 3566SOL    HW314031   3.485   1.707   3.958 -2.1226 -3.2115  1.4601
 3566SOL    MW414032   3.547   1.702   4.020  0.4672  0.5736 -0.3763
 3567SOL     OW14033   3.258   3.893   0.464  0.6202  0.3639 -0.4911
 3567SOL    HW214034   3.288   3.835   0.534 -1.1960 -1.3393 -0.9986
 3567SOL    HW314035   3.308   3.866   0.387  1.5568  1.2206 -0.1992
 3567SOL    MW414036   3.268   3.882   0.463 -0.6754 -0.1105 -0.8244
 3568SOL     OW14037   1.885   2.817   4.144 -0.4092 -0.1412  0.4111
 3568SOL    HW214038   1.832   2.740   4.165 -0.7643  0.1228  0.5050
 3568SOL    HW314039   1.870   2.877   4.217 -0.1403  0.0161  0.3372
 3568SOL    MW414040   1.876   2.815   4.156 -0.0552  0.3623  0.2140
 3569SOL     OW14041   4.973   4.437   0.780 -0.6018 -0.5316 -0.0113
 3569SOL    HW214042   4.905   4.477   0.726 -0.4846 -1.3826 -0.8251
 3569SOL    HW314043   5.050   4.434   0.723  0.1453  0.4661  0.9134
 3569SOL    MW414044   4.974   4.442   0.765  0.3866 -0.2932 -0.8376
 3570SOL     OW14045   4.601   2.984   1.399 -0.7338 -0.5893  0.3611
 3570SOL    HW214046   4.646   2.913   1.354 -1.1319 -0.8611  0.3838
 3570SOL    HW314047   4.591   3.052   1.331 -0.0870 -0.4280  0.4217
 3570SOL    MW414048   4.605   2.984   1.384  0.0833  0.2654 -0.0015
 3571SOL     OW14049   0.014   1.797   4.524  0.1455 -0.3360  0.0462
 3571SOL    HW214050   0.086   1.762   4.577  0.3083 -1.3394 -0.8024
 3571SOL    HW314051   0.029   1.760   4.437 -1.1089 -0.1207 -0.2742
 3571SOL    MW414052   0.026   1.788   4.519 -0.0423  0.2261 -0.0367
 3572SOL     OW14053   5.310   1.569   1.773  0.4073 -0.0556  0.0155
 3572SOL    HW214054   5.401   1.541   1.774  0.8265  1.1949 -0.6895
 3572SOL    HW314055   5.260   1.488   1.779  1.5589 -0.7465  0.6000
 3572SOL    MW414056   5.315   1.555   1.774  0.1063  0.1176  0.9104
 3573SOL     OW14057   2.822   0.416   2.119  0.0623  0.3718  0.2453
 3573SOL    HW214058   2.779   0.376   2.194  1.1200 -0.3635  0.4826
 3573SOL    HW314059   2.811   0.510   2.132 -0.5625  0.2212  0.8387
 3573SOL    MW414060   2.815   0.423   2.130  0.1979  0.4888  0.1982
 3574SOL     OW14061   0.133   4.277   0.376  0.2739  0.1151 -0.2172
 3574SOL    HW214062   0.048   4.262   0.336  1.1251 -0.3136 -2.0083
 3574SOL    HW314063   0.138   4.372   0.386 -0.2365  0.1838 -0.5638
 3574SOL    MW414064   0.123   4.288   0.372  0.0304  0.0117 -0.0659
 3575SOL     OW14065   1.571   2.613   3.865  0.2101 -0.4523  0.3172
 3575SOL    HW214066   1.559   2.615   3.960  0.1328  2.8095  0.3562
 3575SOL    HW314067   1.661   2.641   3.852 -0.4284  1.3532 -0.5568
 3575SOL    MW414068   1.581   2.617   3.876 -0.2713 -0.4592  0.1992
 3576SOL     OW14069   3.994   4.729   2.467  0.6732 -0.6395 -0.4551
 3576SOL    HW214070   3.922   4.789   2.446  1.7264  1.2318  0.9552
 3576SOL    HW314071   3.952   4.643   2.474 -1.3534  0.3229 -0.0669
 3576SOL    MW414072   3.979   4.725   2.465 -0.0690 -0.2112  0.0498
 3577SOL     OW14073   1.013   0.308   6.021 -0.0347  0.5579  0.1329
 3577SOL    HW214074   0.955   0.368   5.975  0.3145  2.3787  1.9190
 3577SOL    HW314075   1.096   0.355   6.028  0.0063  0.2684  2.2860
 3577SOL    MW414076   1.016   0.322   6.016 -0.3235  0.0828 -0.3021
 3578SOL     OW14077   2.861   4.359   4.155 -0.0105 -0.6451 -0.1756
 3578SOL    HW214078   2.779   4.322   4.124 -0.8459  1.1301 -0.2234
 3578SOL    HW314079   2.895   4.410   4.081  0.0028  0.3942  0.5203
 3578SOL    MW414080   2.855   4.361   4.141 -0.4110  0.3736  0.6128
 3579SOL     OW14081   4.860   4.585   4.725 -0.0555  0.3792  0.3521
 3579SOL    HW214082   4.886   4.533   4.801  1.1946  0.9935  0.3689
 3579SOL    HW314083   4.915   4.553   4.654 -2.5913 -1.6238 -0.9007
 3579SOL    MW414084   4.870   4.574   4.726 -0.2913 -0.0121 -0.1215
 3580SOL     OW14085   3.284   0.694   6.421  0.2607  0.0742 -0.0844
 3580SOL    HW214086   3.315   0.669   6.334 -0.2092 -0.5129 -0.0888
 3580SOL    HW314087   3.357   0.744   6.459  0.1246  1.1400 -1.1531
 3580SOL    MW414088   3.298   0.698   6.414 -0.1301  0.0154 -0.8599
 3581SOL     OW14089   1.446   2.862   3.490 -0.1244  0.7385 -0.1281
 3581SOL    HW214090   1.398   2.915   3.553 -1.4176  0.8424 -1.1514
 3581SOL    HW314091   1.525   2.912   3.471 -0.7452  1.7218 -0.1606
 3581SOL    MW414092   1.450   2.875   3.496  0.1042 -0.6408 -0.3460
 3582SOL     OW14093   5.250   1.680   3.430  0.3193  0.2158 -0.2179
 3582SOL    HW214094   5.236   1.693   3.337 -0.5899 -1.7793 -0.4083
 3582SOL    HW314095   5.163   1.662   3.466  0.7750  0.0211  0.8334
 3582SOL    MW414096   5.237   1.679   3.423 -0.0741  0.0869 -0.4680
 3583SOL     OW14097   2.898   4.036   3.904 -0.1479 -0.2442  0.2565
 3583SOL    HW214098   2.876   3.953   3.861  0.1851 -0.1296 -0.1460
 3583SOL    HW314099   2.868   4.103   3.843  1.3382 -0.0835 -0.3436
 3583SOL    MW414100   2.891   4.034   3.890 -0.0786  0.4474 -0.7749
 3584SOL     OW14101   4.646   3.873   2.511  0.4585  0.3937  0.1893
 3584SOL    HW214102   4.664   3.779   2.517 -3.8852 -0.6915 -0.7040
 3584SOL    HW314103   4.666   3.895   2.420 -1.7094 -0.6021 -0.5903
 3584SOL    MW414104   4.651   3.864   2.500 -0.1182  0.5054  0.2582
 3585SOL     OW14105   4.354   2.454   1.683  0.3098 -0.2840 -0.4864
 3585SOL    HW214106   4.337   2.548   1.689  1.6389  0.0853 -1.8315
 3585SOL    HW314107   4.339   2.421   1.771 -2.4437  0.7557 -0.4534
 3585SOL    MW414108   4.350   2.462   1.695 -0.0967 -0.0762 -0.0993
 3586SOL     OW14109   0.003   2.029   1.954  0.5821 -0.5619  0.1442
 3586SOL    HW214110  -0.054   2.011   2.028 -0.4901 -0.5047 -0.6516
 3586SOL    HW314111   0.062   2.098   1.985  0.5380 -0.9626  1.1251
 3586SOL    MW414112   0.003   2.036   1.968 -0.0141 -0.6935  0.4074
 3587SOL     OW14113   4.816   5.463   3.316 -0.0452 -0.0558 -0.0825
 3587SOL    HW214114   4.772   5.381   3.294 -0.0349 -0.1773  0.3473
 3587SOL    HW314115   4.857   5.446   3.401  1.1088 -0.0512 -0.6163
 3587SOL    MW414116   4.816   5.450   3.324  0.6547 -0.2569  0.9002
 3588SOL     OW14117   0.620   4.213   0.358 -0.4209  0.0124  0.0381
 3588SOL    HW214118   0.597   4.283   0.297 -3.6870 -1.1316 -0.2488
 3588SOL    HW314119   0.613   4.253   0.444 -2.1144  0.1731 -0.1321
 3588SOL    MW414120   0.616   4.227   0.361  0.9866 -0.2235 -0.1871
 3589SOL     OW14121   0.796   0.293   0.229  0.6907  0.0484 -0.2249
 3589SOL    HW214122   0.862   0.352   0.193 -0.2648  1.6962  0.6469
 3589SOL    HW314123   0.733   0.281   0.158 -1.4073  3.6098  0.8512
 3589SOL    MW414124   0.797   0.299   0.215  0.3010 -0.2347  0.0528
 3590SOL     OW14125   2.143   5.310   2.654  0.3339 -0.4524  0.1328
 3590SOL    HW214126   2.204   5.323   2.726  0.2754 -0.4361  0.1801
 3590SOL    HW314127   2.080   5.382   2.664  0.0571 -0.7175  0.3410
 3590SOL    MW414128   2.143   5.321   2.665 -0.0645 -0.3826 -0.0513
 3591SOL     OW14129   4.576   0.710   0.769  0.3160  0.0532  0.4993
 3591SOL    HW214130   4.555   0.802   0.783 -1.9809 -0.4644  0.9675
 3591SOL    HW314131   4.553   0.667   0.851  0.2720 -1.0860 -0.0850
 3591SOL    MW414132   4.570   0.716   0.782 -0.5610  0.0419 -0.2346
 3592SOL     OW14133   5.163   5.353   4.735 -0.0882  0.9095 -0.1929
 3592SOL    HW214134   5.072   5.381   4.725 -0.5794 -0.3506  0.5002
 3592SOL    HW314135   5.171   5.277   4.678  0.0402  0.0266  0.9459
 3592SOL    MW414136   5.152   5.347   4.726 -0.6892 -0.2490  0.2556
 3593SOL     OW14137   2.116   1.334   2.368  0.0480  0.4515  0.4378
 3593SOL    HW214138   2.166   1.359   2.447 -1.1426 -0.9838  1.7040
 3593SOL    HW314139   2.148   1.393   2.300  1.5476  1.3519  1.8492
 3593SOL    MW414140   2.127   1.345   2.370  0.2935  0.6498 -0.7264
 3594SOL     OW14141   0.143   5.427   1.373  0.4495  0.4846  0.5136
 3594SOL    HW214142   0.200   5.361   1.411  1.3208  1.0244  0.1914
 3594SOL    HW314143   0.085   5.378   1.314  3.5393  0.2651 -2.7043
 3594SOL    MW414144   0.143   5.412   1.370 -0.1217 -0.4253  0.3180
 3595SOL     OW14145   1.878   3.270   3.371  0.4900  0.3692  0.0667
 3595SOL    HW214146   1.918   3.334   3.430  0.9263  0.6894 -0.5560
 3595SOL    HW314147   1.948   3.207   3.353  0.0959 -0.2287  0.5868
 3595SOL    MW414148   1.893   3.270   3.377  0.4713 -0.0043 -0.4527
 3596SOL     OW14149   0.601   2.927   1.347 -0.4758  0.6543 -0.2530
 3596SOL    HW214150   0.681   2.979   1.340 -1.3790  2.0404 -0.6984
 3596SOL    HW314151   0.606   2.886   1.433  0.5531  0.9816 -0.1425
 3596SOL    MW414152   0.612   2.929   1.357 -0.1952 -0.4530  0.0946
 3597SOL     OW14153   3.990   1.503   2.496 -0.5636  0.5832  0.0303
 3597SOL    HW214154   3.977   1.531   2.406  0.3829  1.2013  0.0776
 3597SOL    HW314155   4.043   1.423   2.488 -2.2878 -0.5919 -0.0481
 3597SOL    MW414156   3.996   1.496   2.483  0.1654 -0.4820  0.0830
 3598SOL     OW14157   1.832   1.731   2.638  0.3102 -0.2937  0.1028
 3598SOL    HW214158   1.862   1.715   2.728 -4.7966 -1.6715  1.8968
 3598SOL    HW314159   1.850   1.824   2.623  0.3561  0.2713  3.0552
 3598SOL    MW414160   1.838   1.741   2.648  0.6391  0.4761  0.1189
 3599SOL     OW14161   4.236   1.704   5.454  0.2707  0.0605  0.3059
 3599SOL    HW214162   4.291   1.734   5.381  0.5806  0.8176  0.8361
 3599SOL    HW314163   4.224   1.782   5.508 -1.0664 -0.1698  0.3685
 3599SOL    MW414164   4.242   1.719   5.451 -0.5765 -0.8077  0.0195
 3600SOL     OW14165   0.380   6.036   3.995 -0.5975 -0.3318  0.1498
 3600SOL    HW214166   0.411   5.977   3.926 -2.5829 -1.4241  0.1379
 3600SOL    HW314167   0.392   5.986   4.076  0.3368  0.3740  0.4655
 3600SOL    MW414168   0.386   6.022   3.996 -0.0525 -0.3747 -0.4559
 3601SOL     OW14169   1.947   0.682   2.863 -0.3334 -0.0473  0.0616
 3601SOL    HW214170   1.982   0.771   2.863  3.8935 -1.4539 -1.2515
 3601SOL    HW314171   1.908   0.673   2.776 -1.6613  0.7689  0.5527
 3601SOL    MW414172   1.947   0.693   2.851 -0.1866 -0.2551 -0.1113
 3602SOL     OW14173   2.465   3.069   3.737  0.4569 -0.0967  0.1820
 3602SOL    HW214174   2.481   3.062   3.643 -2.3504 -0.8894 -0.3151
 3602SOL    HW314175   2.431   3.158   3.749 -0.6207 -0.4889  0.1604
 3602SOL    MW414176   2.463   3.080   3.726 -0.2422  0.0709  0.3038
 3603SOL     OW14177   0.546   3.392   0.205  0.3796 -0.0068  0.0714
 3603SOL    HW214178   0.577   3.313   0.249  0.1773  0.2386  0.6759
 3603SOL    HW314179   0.454   3.398   0.232 -0.1307 -0.5710 -1.4556
 3603SOL    MW414180   0.538   3.382   0.214  0.2420 -0.2289  0.0561
 3604SOL     OW14181   5.179   5.168   4.530  0.0013 -0.7018  0.4600
 3604SOL    HW214182   5.105   5.107   4.542  0.0761 -0.8255  0.3111
 3604SOL    HW314183   5.256   5.116   4.553 -0.0650 -0.1366  2.0262
 3604SOL    MW414184   5.179   5.153   4.534 -0.5820  0.0568 -0.5021
 3605SOL     OW14185   0.657   0.436   3.653  0.1547  0.2545  0.1218
 3605SOL    HW214186   0.628   0.426   3.562  1.2095 -1.2258 -0.0848
 3605SOL    HW314187   0.753   0.434   3.648  0.2166 -0.2814  1.2963
 3605SOL    MW414188   0.666   0.434   3.640 -0.3181  0.2148 -0.1979
 3606SOL     OW14189   0.453   2.671   2.221 -0.5556 -0.4477  0.3873
 3606SOL    HW214190   0.512   2.634   2.156 -1.8998 -1.7879 -0.1450
 3606SOL    HW314191   0.508   2.684   2.299  1.5371  2.9744 -1.4471
 3606SOL    MW414192   0.468   2.668   2.223 -0.1012 -0.7138  0.0938
 3607SOL     OW14193   2.876   2.017   6.188  0.0963 -0.1032 -0.1119
 3607SOL    HW214194   2.860   1.963   6.111 -0.5201 -0.1923  0.0676
 3607SOL    HW314195   2.942   2.080   6.161  0.2716 -0.4724 -0.5507
 3607SOL    MW414196   2.882   2.018   6.175 -0.2367  0.3204 -0.5262
 3608SOL     OW14197   2.432   1.326   1.941  0.1946  0.2701  0.3557
 3608SOL    HW214198   2.447   1.253   2.002  1.5025 -0.3951 -0.6983
 3608SOL    HW314199   2.366   1.380   1.984 -1.7039 -2.1463  0.6708
 3608SOL    MW414200   2.425   1.323   1.955 -0.3107  0.3444  0.3392
 3609SOL     OW14201   3.840   3.066   3.099 -0.5658 -0.2852 -0.1347
 3609SOL    HW214202   3.876   3.037   3.183 -0.8595  1.3120  0.5806
 3609SOL    HW314203   3.765   3.121   3.123 -0.0403  1.0374 -1.3887
 3609SOL    MW414204   3.835   3.069   3.113  0.2277  1.2096  0.1798
 3610SOL     OW14205   1.349   3.461   3.673  0.0365 -0.4849 -0.2525
 3610SOL    HW214206   1.444   3.454   3.686  0.3093 -0.9440 -2.1622
 3610SOL    HW314207   1.335   3.551   3.644  0.3368 -1.1914 -2.8086
 3610SOL    MW414208   1.360   3.472   3.671  0.0645 -0.1642 -0.8350
 3611SOL     OW14209   4.659   2.960   6.225  0.6154 -0.0035 -0.4687
 3611SOL    HW214210   4.635   3.043   6.265  0.4091 -0.0078 -0.5825
 3611SOL    HW314211   4.744   2.939   6.263  1.1994  0.8162 -1.2837
 3611SOL    MW414212   4.667   2.968   6.235  0.0171 -0.3775  1.1127
 3612SOL     OW14213   6.310   0.914   3.363 -0.3850 -0.0416  0.2400
 3612SOL    HW214214   6.328   0.863   3.442  0.3001 -3.5377 -1.9513
 3612SOL    HW314215   6.392   0.961   3.346 -0.0221 -0.4710  0.7617
 3612SOL    MW414216   6.324   0.914   3.371 -0.0805 -0.3155  0.0566
 3613SOL     OW14217   0.897   0.957   1.984  0.3109  0.2978  0.4648
 3613SOL    HW214218   0.893   1.026   2.050 -1.2227  0.3501  0.3602
 3613SOL    HW314219   0.990   0.947   1.966  0.7380  0.6079  2.2787
 3613SOL    MW414220   0.909   0.965   1.990 -0.3921 -0.0623  0.0278
 3614SOL     OW14221   5.964   4.960   4.425  0.4582  0.0694 -0.7711
 3614SOL    HW214222   5.901   5.022   4.387  0.6849  0.5463 -0.3955
 3614SOL    HW314223   5.989   4.903   4.353  2.2746  2.0842 -1.8558
 3614SOL    MW414224   5.959   4.961   4.411  0.2788 -0.1643  0.5181
 3615SOL     OW14225   1.312   4.128   2.157  0.1854  0.0110  0.0009
 3615SOL    HW214226   1.232   4.173   2.185 -0.0487 -0.2835 -0.1847
 3615SOL    HW314227   1.301   4.116   2.063  0.8835  0.8231 -0.1894
 3615SOL    MW414228   1.300   4.132   2.148  0.4346  0.4734  0.1320
 3616SOL     OW14229   6.420   0.134   1.300 -0.4347  0.0238 -0.2402
 3616SOL    HW214230   6.483   0.071   1.336 -0.5241  0.7890  1.3786
 3616SOL    HW314231   6.392   0.096   1.217  2.1388 -0.3563 -1.0104
 3616SOL    MW414232   6.425   0.120   1.294 -0.4091  0.3468 -0.6120
 3617SOL     OW14233   4.849   2.044   0.989  0.4042 -0.4921 -0.4448
 3617SOL    HW214234   4.821   2.124   1.034 -0.6186 -2.1156  1.9860
 3617SOL    HW314235   4.789   2.037   0.914  0.5100  0.9844 -0.6987
 3617SOL    MW414236   4.837   2.054   0.985  0.2316 -0.5349  0.9885
 3618SOL     OW14237   6.373   0.977   3.815 -0.0901  0.5654 -0.1615
 3618SOL    HW214238   6.371   0.917   3.740 -0.1995  1.4134 -0.8526
 3618SOL    HW314239   6.291   1.027   3.808 -0.4367  0.1778  0.9345
 3618SOL    MW414240   6.362   0.976   3.804  0.3612  0.0578  0.3540
 3619SOL     OW14241   5.352   6.149   5.103  0.1102  0.2273  0.0289
 3619SOL    HW214242   5.385   6.157   5.193 -2.2857  0.2507  0.9792
 3619SOL    HW314243   5.351   6.055   5.086  1.3584  0.2619 -0.3225
 3619SOL    MW414244   5.356   6.138   5.113 -0.3462 -0.3475  0.2066
 3620SOL     OW14245   0.809   1.773   0.476 -0.0023  0.0331 -0.6129
 3620SOL    HW214246   0.858   1.757   0.557 -1.5557  1.0285  0.5717
 3620SOL    HW314247   0.875   1.800   0.413  1.2985 -1.1197  0.1935
 3620SOL    MW414248   0.824   1.774   0.478 -0.2717  0.0547 -0.5675
 3621SOL     OW14249   1.033   3.650   4.777 -0.1189 -0.0467 -0.0439
 3621SOL    HW214250   1.118   3.629   4.815 -0.8441 -0.1698  1.5856
 3621SOL    HW314251   1.009   3.572   4.728  0.6457 -0.0536 -0.4261
 3621SOL    MW414252   1.041   3.637   4.775  0.4684  0.0148  0.0929
 3622SOL     OW14253   1.571   0.538   4.197  0.2967 -0.0772  0.1862
 3622SOL    HW214254   1.557   0.592   4.120  1.8622  0.7147  0.4309
 3622SOL    HW314255   1.662   0.553   4.222  0.2216 -1.3719  1.3856
 3622SOL    MW414256   1.581   0.547   4.190  0.0643 -0.5717 -0.1907
 3623SOL     OW14257   3.532   2.025   2.562  0.5566  0.4105  0.3950
 3623SOL    HW214258   3.567   1.986   2.642  1.0082 -1.3394 -0.6103
 3623SOL    HW314259   3.454   1.974   2.542  0.9029  0.2847 -0.7083
 3623SOL    MW414260   3.527   2.013   2.570 -0.2126 -0.6320  0.2226
 3624SOL     OW14261   4.437   5.972   2.943 -0.2336 -0.0927  0.0275
 3624SOL    HW214262   4.450   5.910   3.015  0.1025 -0.3461 -0.2519
 3624SOL    HW314263   4.355   5.944   2.902  0.5370 -1.1231 -0.8665
 3624SOL    MW414264   4.427   5.960   2.947  0.1619  0.2616 -0.2436
 3625SOL     OW14265   1.936   5.839   2.413 -0.1751  0.3916  0.0305
 3625SOL    HW214266   1.932   5.744   2.411  0.5806  0.2816  1.7419
 3625SOL    HW314267   1.886   5.867   2.336  0.4690 -1.3816 -1.0930
 3625SOL    MW414268   1.928   5.831   2.403  0.2435  0.3546 -0.2951
 3626SOL     OW14269   3.367   0.431   4.754 -0.1127  0.3420  0.4316
 3626SOL    HW214270   3.432   0.439   4.684 -1.0408  2.4004 -0.2927
 3626SOL    HW314271   3.414   0.456   4.833  0.4930 -0.2380  0.2603
 3626SOL    MW414272   3.382   0.436   4.755  0.3067  0.3861 -0.1686
 3627SOL     OW14273   6.137   1.113   3.803  0.2559 -0.5473 -0.4500
 3627SOL    HW214274   6.082   1.064   3.742  1.1358 -2.0081 -0.1003
 3627SOL    HW314275   6.113   1.205   3.788 -1.7271 -1.0789 -0.8187
 3627SOL    MW414276   6.126   1.119   3.793  0.1597  0.6258 -0.3153
 3628SOL     OW14277   5.552   1.863   1.064 -0.3896 -0.2651  0.0607
 3628SOL    HW214278   5.496   1.813   1.005  0.5434 -0.9083 -0.2944
 3628SOL    HW314279   5.540   1.822   1.149 -0.2203 -0.5932 -0.0745
 3628SOL    MW414280   5.543   1.851   1.067  0.0585 -0.1583  0.3765
 3629SOL     OW14281   4.124   3.582   2.278  0.6198 -0.5388 -0.4049
 3629SOL    HW214282   4.168   3.502   2.252 -0.8082 -1.9502  1.2613
 3629SOL    HW314283   4.032   3.569   2.252  0.6909  1.4492 -1.9289
 3629SOL    MW414284   4.117   3.570   2.271  0.4874 -0.1524  0.4800
 3630SOL     OW14285   0.483   3.899   3.315  0.8123  0.0034  0.6454
 3630SOL    HW214286   0.413   3.962   3.304  1.3031  0.3995 -0.3149
 3630SOL    HW314287   0.528   3.927   3.395  0.9511  0.8191  0.2964
 3630SOL    MW414288   0.480   3.911   3.324  0.2506 -0.3418 -0.2215
 3631SOL     OW14289   0.065   1.933   2.679  0.8497 -0.0625 -0.1732
 3631SOL    HW214290   0.054   1.887   2.763 -1.3580 -0.4530 -0.6115
 3631SOL    HW314291   0.061   2.026   2.702 -1.9684 -0.1391  0.0219
 3631SOL    MW414292   0.063   1.939   2.693 -0.2731 -0.0330 -0.3716
 3632SOL     OW14293   1.945   3.061   0.263 -0.7203  0.3469 -0.2180
 3632SOL    HW214294   1.871   3.009   0.232 -1.2870  0.1444  1.3886
 3632SOL    HW314295   1.953   3.040   0.356  1.6745 -0.0103 -0.4229
 3632SOL    MW414296   1.936   3.052   0.271 -0.1566  0.3200  0.6689
 3633SOL     OW14297   6.062   2.912   5.206 -0.1011 -0.1611 -0.1796
 3633SOL    HW214298   6.088   2.928   5.297 -0.1837  0.0643 -0.1940
 3633SOL    HW314299   6.047   2.818   5.201 -0.8419 -0.0733  0.2370
 3633SOL    MW414300   6.064   2.902   5.218  0.2280  1.0525  0.3594
 3634SOL     OW14301   1.084   4.553   1.349 -0.2709  0.3537  0.0743
 3634SOL    HW214302   1.013   4.561   1.285  1.1979  0.3644 -1.6256
 3634SOL    HW314303   1.162   4.582   1.302  1.0800 -0.7968  1.5055
 3634SOL    MW414304   1.085   4.558   1.334 -0.7573  0.1120  0.4141
 3635SOL     OW14305   1.047   5.127   2.749  0.1123  0.4165  0.1315
 3635SOL    HW214306   0.984   5.147   2.818 -1.3230 -0.0291 -0.9707
 3635SOL    HW314307   1.059   5.210   2.703 -0.7215  0.2450 -0.4360
 3635SOL    MW414308   1.040   5.141   2.752 -0.0099 -0.1327  0.0261
 3636SOL     OW14309   3.352   5.979   3.067 -0.0620 -0.0539 -0.0412
 3636SOL    HW214310   3.266   5.995   3.106 -0.3111 -0.3950 -0.4399
 3636SOL    HW314311   3.341   6.004   2.975  0.4247  0.4341  0.0300
 3636SOL    MW414312   3.339   5.984   3.060 -0.1812 -0.3368  0.7940
 3637SOL     OW14313   5.758   1.424   2.225  0.2750  0.0821  0.4490
 3637SOL    HW214314   5.842   1.391   2.256 -0.2144 -0.4131  1.2753
 3637SOL    HW314315   5.712   1.452   2.304 -0.1326  0.8442 -0.0455
 3637SOL    MW414316   5.763   1.423   2.239  0.1827  0.1956  0.2177
 3638SOL     OW14317   6.271   4.601   1.972  0.3095 -0.3923  0.0315
 3638SOL    HW214318   6.268   4.584   2.066  2.1229  1.6974  0.5669
 3638SOL    HW314319   6.231   4.525   1.932  1.7495 -2.5318  2.3807
 3638SOL    MW414320   6.266   4.589   1.979  0.2620  0.5900  0.1473
 3639SOL     OW14321   4.590   4.496   2.230  0.1895  0.1823 -0.3685
 3639SOL    HW214322   4.597   4.401   2.227  0.9698  0.1895  0.5412
 3639SOL    HW314323   4.501   4.515   2.200 -0.7138 -0.9659  1.4344
 3639SOL    MW414324   4.579   4.486   2.226  0.3438  0.2649 -0.5004
 3640SOL     OW14325   1.814   0.819   5.285  0.0352  0.3023  0.4734
 3640SOL    HW214326   1.909   0.829   5.283  0.0081  0.5169  0.1534
 3640SOL    HW314327   1.783   0.869   5.209 -0.2113 -1.1116 -0.3772
 3640SOL    MW414328   1.822   0.827   5.275 -0.0517  0.2078 -0.2783
 3641SOL     OW14329   4.913   5.322   1.708 -0.1870  0.2486 -0.7866
 3641SOL    HW214330   4.967   5.350   1.782  0.9058 -0.9155 -1.1062
 3641SOL    HW314331   4.831   5.294   1.748  0.1494  0.2399 -0.0786
 3641SOL    MW414332   4.909   5.322   1.723  0.5762 -0.2958 -0.1777
 3642SOL     OW14333   3.730   3.483   2.951  0.1844 -0.3235  0.5520
 3642SOL    HW214334   3.649   3.494   2.902  1.2143  0.7443 -1.0029
 3642SOL    HW314335   3.702   3.475   3.042 -2.1354 -6.3506 -0.2585
 3642SOL    MW414336   3.716   3.484   2.957  0.8068 -0.0039  0.0538
 3643SOL     OW14337   2.949   6.235   4.512  0.5028 -0.8176 -0.4638
 3643SOL    HW214338   3.006   6.259   4.438 -1.0532  0.9786 -1.1496
 3643SOL    HW314339   2.870   6.199   4.472  0.1942 -1.1260  0.3884
 3643SOL    MW414340   2.946   6.234   4.497  0.4508  0.1877 -0.1445
 3644SOL     OW14341   3.223   3.737   3.723  0.1739  0.4608  0.6585
 3644SOL    HW214342   3.145   3.693   3.755 -0.5334  1.3771  0.2292
 3644SOL    HW314343   3.197   3.828   3.714  0.3621  0.2960 -2.3869
 3644SOL    MW414344   3.210   3.743   3.726 -0.2059 -0.0316  0.1451
 3645SOL     OW14345   1.289   0.344   0.741  0.0244  0.2007  0.3586
 3645SOL    HW214346   1.199   0.376   0.742  0.1966  0.7237 -0.4752
 3645SOL    HW314347   1.321   0.364   0.653  1.3410  1.1363  1.0129
 3645SOL    MW414348   1.281   0.351   0.730 -0.0940  0.1370 -0.5023
 3646SOL     OW14349   2.664   5.478   5.777  0.0333 -0.3648  0.1915
 3646SOL    HW214350   2.693   5.458   5.688  1.7794  0.1474  0.6078
 3646SOL    HW314351   2.706   5.561   5.798  0.4385 -0.9352  1.8155
 3646SOL    MW414352   2.673   5.486   5.768 -0.4256  0.5155 -0.0586
 3647SOL     OW14353   5.533   2.447   5.937 -0.0475  0.4591 -0.1385
 3647SOL    HW214354   5.524   2.366   5.986  1.1753 -0.3351 -1.1701
 3647SOL    HW314355   5.448   2.490   5.946  0.1645  0.4241  2.7391
 3647SOL    MW414356   5.520   2.442   5.945  0.1202  0.1477 -0.0033
 3648SOL     OW14357   1.582   4.916   1.672 -0.0013 -0.8993  0.4688
 3648SOL    HW214358   1.517   4.881   1.611 -2.5508  2.0505  1.2248
 3648SOL    HW314359   1.536   4.921   1.756  0.9247  1.7793  0.9344
 3648SOL    MW414360   1.567   4.912   1.675 -0.2583 -0.2420 -0.0480
 3649SOL     OW14361   0.181   0.989   4.576  0.0123 -0.5299 -0.6733
 3649SOL    HW214362   0.169   0.895   4.561  1.8283 -0.8218 -0.4574
 3649SOL    HW314363   0.259   0.995   4.630 -1.6294  0.9862  1.7282
 3649SOL    MW414364   0.190   0.977   4.581 -0.0511 -0.1930 -0.4052
 3650SOL     OW14365   4.650   2.915   0.583 -0.2720 -0.0502  0.3018
 3650SOL    HW214366   4.719   2.981   0.573 -1.4020  0.9656 -1.3713
 3650SOL    HW314367   4.648   2.869   0.499 -1.4223 -0.2417  0.4131
 3650SOL    MW414368   4.658   2.918   0.571  0.3337  0.4924 -0.4013
 3651SOL     OW14369   5.739   2.792   1.184  0.6661  0.3423  0.3308
 3651SOL    HW214370   5.731   2.887   1.174 -0.6274  0.5501  2.6717
 3651SOL    HW314371   5.822   2.780   1.231  1.0133  0.2779 -0.2951
 3651SOL    MW414372   5.749   2.803   1.189  0.3203  0.6756 -0.2273
 3652SOL     OW14373   5.758   2.629   4.877 -0.6818 -0.0971 -0.8767
 3652SOL    HW214374   5.787   2.709   4.921  1.5654 -1.6415  0.6896
 3652SOL    HW314375   5.688   2.595   4.934 -1.4873  0.6093 -1.4273
 3652SOL    MW414376   5.753   2.635   4.891 -0.5449  0.6224  0.7203
 3653SOL     OW14377   1.412   4.955   0.161  0.8501  0.0050  0.8347
 3653SOL    HW214378   1.471   4.882   0.144  0.9459 -0.2783  2.2257
 3653SOL    HW314379   1.462   5.033   0.137  0.7292 -0.3575 -0.7060
 3653SOL    MW414380   1.426   4.955   0.156 -0.0717 -0.4441  0.3694
 3654SOL     OW14381   0.237   3.289   2.409 -0.5124 -0.5048 -0.1632
 3654SOL    HW214382   0.331   3.291   2.428 -0.4235  0.3799 -0.6522
 3654SOL    HW314383   0.203   3.218   2.464  0.3784 -0.5992  0.2850
 3654SOL    MW414384   0.245   3.280   2.419 -0.1980  0.0665 -0.1681
 3655SOL     OW14385   4.470   6.208   3.844 -0.0828 -0.1484 -0.0729
 3655SOL    HW214386   4.389   6.212   3.794  1.9380  1.4730 -3.6400
 3655SOL    HW314387   4.520   6.137   3.805  0.4054 -0.9551  1.8825
 3655SOL    MW414388   4.466   6.199   3.832 -0.0372 -0.0938  0.8560
 3656SOL     OW14389   5.663   3.622   3.905  0.1653  0.1819 -0.0884
 3656SOL    HW214390   5.698   3.711   3.912 -0.0762  0.3545 -1.0097
 3656SOL    HW314391   5.572   3.634   3.876  0.6624 -0.4106 -2.0011
 3656SOL    MW414392   5.655   3.635   3.902  0.3568  1.1550  0.3099
 3657SOL     OW14393   5.509   2.191   6.145  0.3203 -0.0085 -0.2967
 3657SOL    HW214394   5.551   2.162   6.226  1.3075  2.2222  0.0477
 3657SOL    HW314395   5.569   2.166   6.075  0.1869 -0.5862 -0.2067
 3657SOL    MW414396   5.522   2.184   6.146 -0.0294 -0.5336  0.8441
 3658SOL     OW14397   1.243   4.027   2.599  0.4737 -0.3834 -0.4495
 3658SOL    HW214398   1.266   4.060   2.686 -1.5428  0.2148 -0.0808
 3658SOL    HW314399   1.302   4.074   2.540  0.9847  0.2033  0.4914
 3658SOL    MW414400   1.254   4.038   2.603 -0.0674  0.4713  0.1663
 3659SOL     OW14401   5.106   1.947   2.301  0.3154 -0.0502 -0.2188
 3659SOL    HW214402   5.077   1.858   2.323  0.0298  0.2318  0.5689
 3659SOL    HW314403   5.201   1.942   2.303  0.3308  0.1937  2.1623
 3659SOL    MW414404   5.114   1.935   2.304  0.7457 -0.1203 -0.0152
 3660SOL     OW14405   0.441   0.209   3.249  0.1767  0.5851 -0.3853
 3660SOL    HW214406   0.508   0.195   3.316 -0.0104 -0.6050 -0.4246
 3660SOL    HW314407   0.449   0.134   3.190 -0.6476  0.8456 -0.8570
 3660SOL    MW414408   0.451   0.197   3.250  0.3262 -0.0507 -0.7056
 3661SOL     OW14409   2.672   1.620   1.185  0.0548 -0.0582 -0.0613
 3661SOL    HW214410   2.724   1.574   1.251  0.9809  1.0733  0.0297
 3661SOL    HW314411   2.586   1.630   1.224  0.8322  1.3740  1.3578
 3661SOL    MW414412   2.667   1.615   1.199 -0.4990  0.3495 -0.3280
 3662SOL     OW14413   3.747   3.752   2.912 -0.1550  0.4525 -0.2282
 3662SOL    HW214414   3.677   3.772   2.974 -0.0255  0.8799 -0.2210
 3662SOL    HW314415   3.751   3.656   2.911  0.8434  0.4221  1.5752
 3662SOL    MW414416   3.739   3.742   2.920  0.1647 -0.5570 -0.5443
 3663SOL     OW14417   0.658   4.277   5.334  0.0675  0.4231  0.9213
 3663SOL    HW214418   0.734   4.219   5.332  1.6011  2.3549  0.0849
 3663SOL    HW314419   0.667   4.332   5.257 -2.0370  0.9578  0.9745
 3663SOL    MW414420   0.669   4.277   5.324  0.0725  0.8105  0.0376
 3664SOL     OW14421   6.144   4.625   3.633  0.2635  0.3983  0.1635
 3664SOL    HW214422   6.153   4.719   3.617  2.6014 -0.2668 -3.5790
 3664SOL    HW314423   6.234   4.593   3.637 -0.4799 -1.9150 -0.4798
 3664SOL    MW414424   6.157   4.634   3.631  1.1997  0.2913  0.0339
 3665SOL     OW14425   1.533   0.737   4.013  0.1158 -0.0526 -0.7722
 3665SOL    HW214426   1.610   0.787   4.040 -0.0366 -0.0962 -0.2384
 3665SOL    HW314427   1.459   0.783   4.053 -0.0554 -0.5135 -0.5502
 3665SOL    MW414428   1.533   0.750   4.022  0.0631 -0.0241 -0.3232
 3666SOL     OW14429   2.064   5.740   0.496  0.1797 -0.2012  0.2441
 3666SOL    HW214430   2.063   5.774   0.407  0.8431  0.5184  0.5063
 3666SOL    HW314431   2.063   5.645   0.485 -2.5411 -0.1894 -0.4896
 3666SOL    MW414432   2.063   5.732   0.483 -0.7116 -0.4365 -0.0693
 3667SOL     OW14433   4.438   4.541   3.125  0.4123 -0.1955  0.1569
 3667SOL    HW214434   4.528   4.566   3.145  0.6621 -0.6647 -0.3705
 3667SOL    HW314435   4.445   4.454   3.086 -0.2248 -0.0254 -0.3509
 3667SOL    MW414436   4.450   4.533   3.123 -0.1220  0.1760 -0.4888
 3668SOL     OW14437   3.602   2.918   6.128 -0.1705  0.0508 -0.0633
 3668SOL    HW214438   3.605   2.982   6.198  2.1584 -0.4095  0.3162
 3668SOL    HW314439   3.560   2.842   6.167 -0.8729  0.5423  0.1586
 3668SOL    MW414440   3.597   2.916   6.142 -0.1094  0.0577 -0.2148
 3669SOL     OW14441   0.983   5.824   3.930  0.4565  0.1175 -0.2600
 3669SOL    HW214442   0.973   5.781   4.015 -0.8030  1.5512  0.3817
 3669SOL    HW314443   1.051   5.775   3.885  1.1781 -0.6610  1.6009
 3669SOL    MW414444   0.991   5.812   3.935  0.6672 -0.0576 -0.2811
 3670SOL     OW14445   4.547   5.554   4.169  0.0691  0.3651 -0.4187
 3670SOL    HW214446   4.622   5.515   4.123  0.0797  1.4797 -1.3881
 3670SOL    HW314447   4.470   5.513   4.128  0.1131 -0.3297  0.1642
 3670SOL    MW414448   4.546   5.543   4.158 -0.1163  0.0812  0.3784
 3671SOL     OW14449   3.611   1.676   5.037 -0.0313 -0.8184 -0.1635
 3671SOL    HW214450   3.674   1.611   5.006  1.0465  0.3902 -0.5798
 3671SOL    HW314451   3.541   1.674   4.972 -0.1225 -1.6990 -0.0558
 3671SOL    MW414452   3.610   1.667   5.024 -0.5572  0.3545 -0.0374
 3672SOL     OW14453   0.957   4.043   1.468  0.3814 -0.4273 -0.2943
 3672SOL    HW214454   1.016   4.016   1.538 -1.1971 -1.1237  0.8296
 3672SOL    HW314455   0.958   4.139   1.470 -0.6956 -0.4003  1.6801
 3672SOL    MW414456   0.965   4.052   1.477 -0.3320 -0.6530 -0.3708
 3673SOL     OW14457   2.651   2.896   6.272  0.2897 -0.1626 -0.0415
 3673SOL    HW214458   2.622   2.847   6.349 -0.7936 -1.1506 -1.0295
 3673SOL    HW314459   2.584   2.963   6.259 -0.5818 -1.2185 -1.2078
 3673SOL    MW414460   2.638   2.898   6.280  0.0815  0.8495  0.4512
 3674SOL     OW14461   0.876   1.299   2.597  0.1348 -0.5362 -0.3949
 3674SOL    HW214462   0.870   1.229   2.663  0.6563  1.4954  1.9514
 3674SOL    HW314463   0.960   1.283   2.554  0.6552 -0.8893  0.7073
 3674SOL    MW414464   0.886   1.288   2.600  0.0223 -0.8595  0.2222
 3675SOL     OW14465   5.843   3.851   2.926  0.0555 -0.1280  0.1830
 3675SOL    HW214466   5.906   3.921   2.944  0.1028 -0.1244  0.0073
 3675SOL    HW314467   5.872   3.778   2.980 -0.7137  0.3847  1.3289
 3675SOL    MW414468   5.855   3.851   2.935 -0.0890  0.2915  0.0541
 3676SOL     OW14469   1.825   3.214   1.900  0.3789  0.1314  0.0125
 3676SOL    HW214470   1.831   3.288   1.839  1.6042  0.0522  0.0245
 3676SOL    HW314471   1.883   3.238   1.972  1.8745 -1.4134 -0.6104
 3676SOL    MW414472   1.833   3.227   1.901 -0.5259  0.1735  0.3811
 3677SOL     OW14473   2.268   1.803   4.040 -0.1227 -0.3697 -0.7169
 3677SOL    HW214474   2.224   1.880   4.077  0.6839 -0.0851 -0.3321
 3677SOL    HW314475   2.359   1.830   4.031  0.3924 -1.6420  0.4220
 3677SOL    MW414476   2.274   1.817   4.043 -0.8519 -0.3728  0.0205
 3678SOL     OW14477   4.933   1.072   2.020  0.4620  0.2607  0.0218
 3678SOL    HW214478   4.994   1.032   1.958  0.3830 -1.6475  1.0752
 3678SOL    HW314479   4.926   1.163   1.993 -0.7671 -0.7673 -3.7319
 3678SOL    MW414480   4.940   1.079   2.009 -0.3325 -0.4954 -0.0161
 3679SOL     OW14481   4.155   0.158   1.338  0.7007 -0.2810 -0.1800
 3679SOL    HW214482   4.176   0.120   1.424  0.8096 -0.9930 -0.5107
 3679SOL    HW314483   4.199   0.243   1.338  0.1670  0.0059  0.7156
 3679SOL    MW414484   4.164   0.164   1.349  0.1063 -0.0474 -0.0155
 3680SOL     OW14485   4.657   3.415   3.908 -0.0647 -0.4931 -0.1549
 3680SOL    HW214486   4.620   3.496   3.873  0.4953  0.2372  0.8605
 3680SOL    HW314487   4.738   3.443   3.952  0.3958 -1.6798 -0.2089
 3680SOL    MW414488   4.663   3.430   3.909  0.2523  0.0291  0.5908
 3681SOL     OW14489   1.591   6.365   3.737  0.0019  0.0984  0.2092
 3681SOL    HW214490   1.550   6.311   3.805 -0.0421 -0.6702 -0.4147
 3681SOL    HW314491   1.630   6.302   3.676  0.1686  0.7749 -0.4023
 3681SOL    MW414492   1.591   6.349   3.738  0.1832 -0.0892  0.2634
 3682SOL     OW14493   1.169   3.474   0.061 -0.5336  0.3279 -0.0716
 3682SOL    HW214494   1.146   3.433  -0.023 -1.0129  0.6699 -0.1136
 3682SOL    HW314495   1.221   3.408   0.106 -0.1467  0.1907 -0.6977
 3682SOL    MW414496   1.173   3.460   0.056  0.0551  0.3845  0.6214
 3683SOL     OW14497   4.282   2.254   5.629  0.0812 -0.2665 -0.1973
 3683SOL    HW214498   4.284   2.236   5.723 -3.3325  1.3900  0.3273
 3683SOL    HW314499   4.230   2.184   5.591 -0.8890  0.5430 -0.3943
 3683SOL    MW414500   4.276   2.242   5.636 -0.7448 -0.0244 -0.1599
 3684SOL     OW14501   5.252   4.070   6.027  0.3424 -1.0425 -0.9841
 3684SOL    HW214502   5.298   3.989   6.007 -0.4472 -1.7893  0.1202
 3684SOL    HW314503   5.271   4.086   6.120  1.0111  0.3943 -1.3390
 3684SOL    MW414504   5.261   4.062   6.037 -0.7183  0.0713  0.5357
 3685SOL     OW14505   4.878   0.104   1.950  0.8117  0.1770 -0.0098
 3685SOL    HW214506   4.941   0.033   1.941  0.6932 -0.2310  2.0071
 3685SOL    HW314507   4.884   0.131   2.042 -0.6480  1.3636 -0.2155
 3685SOL    MW414508   4.887   0.098   1.961  0.1016 -0.1080  0.6730
 3686SOL     OW14509   1.692   3.724   5.688  0.0372  0.3273 -0.2206
 3686SOL    HW214510   1.728   3.649   5.736  1.8429  0.3484 -1.4324
 3686SOL    HW314511   1.761   3.790   5.692  0.1533  0.4139 -2.5824
 3686SOL    MW414512   1.706   3.722   5.695 -0.1682  0.0700 -0.5065
 3687SOL     OW14513   5.902   2.439   0.106  0.0008 -0.0982  0.1601
 3687SOL    HW214514   5.854   2.363   0.137  0.5444 -0.2513  0.6428
 3687SOL    HW314515   5.941   2.477   0.185  1.1190 -0.2888 -0.2820
 3687SOL    MW414516   5.901   2.434   0.120 -0.4491  0.1404  0.0285
 3688SOL     OW14517   3.592   2.520   4.095  0.7356  1.0823 -0.0928
 3688SOL    HW214518   3.522   2.526   4.030 -0.5984  1.9706  1.3328
 3688SOL    HW314519   3.620   2.429   4.092 -1.2737  0.3960  0.0155
 3688SOL    MW414520   3.586   2.509   4.086 -0.2747 -0.3228 -0.1113
 3689SOL     OW14521   1.514   1.785   1.406  0.4587  0.5982 -0.4437
 3689SOL    HW214522   1.537   1.796   1.314 -1.7194 -0.7804 -1.2194
 3689SOL    HW314523   1.427   1.824   1.415  0.4508  0.3252  0.9459
 3689SOL    MW414524   1.506   1.792   1.395 -0.1172 -0.4614  0.0192
 3690SOL     OW14525   2.199   5.116   1.533 -0.2074  0.0786 -0.0892
 3690SOL    HW214526   2.292   5.119   1.510 -0.2805 -1.7730 -0.7537
 3690SOL    HW314527   2.193   5.166   1.614  1.3170  0.4747 -0.1857
 3690SOL    MW414528   2.211   5.123   1.541 -0.1411  0.4156 -0.0460
 3691SOL     OW14529   4.054   2.454   5.025  0.4409  0.0195  0.0804
 3691SOL    HW214530   4.089   2.531   5.070  2.7826 -1.2914  0.6127
 3691SOL    HW314531   3.959   2.458   5.041  0.1946  3.6562 -1.3498
 3691SOL    MW414532   4.046   2.465   5.033  0.2862  0.1496  0.1686
 3692SOL     OW14533   2.413   6.334   3.828 -0.4458  0.1712 -0.9403
 3692SOL    HW214534   2.434   6.408   3.772 -1.4405  1.7392  0.6495
 3692SOL    HW314535   2.411   6.371   3.916  0.3221 -2.0464  0.0721
 3692SOL    MW414536   2.415   6.349   3.832  0.3780  0.1572  0.2294
 3693SOL     OW14537   0.220   6.153   5.324 -0.4294  0.1763 -0.1915
 3693SOL    HW214538   0.143   6.120   5.278  0.4151 -2.0757 -0.1142
 3693SOL    HW314539   0.189   6.173   5.413 -1.1410  0.4478 -0.4893
 3693SOL    MW414540   0.206   6.152   5.330  0.2181  0.1662  0.4165
 3694SOL     OW14541   2.413   6.098   1.857 -0.4129  0.5340  0.1672
 3694SOL    HW214542   2.489   6.077   1.803 -0.3325  2.1984 -0.4267
 3694SOL    HW314543   2.450   6.112   1.944 -0.1739  0.4321  0.0854
 3694SOL    MW414544   2.428   6.097   1.861  0.3257  0.6812  0.2608
 3695SOL     OW14545   0.534   3.311   4.482 -0.2292 -0.1184 -0.4532
 3695SOL    HW214546   0.478   3.367   4.428 -0.9320  0.2643  0.6403
 3695SOL    HW314547   0.514   3.336   4.572  0.4572 -1.1824  0.0199
 3695SOL    MW414548   0.524   3.322   4.487  0.4416 -0.0167  0.0160
 3696SOL     OW14549   1.813   1.887   2.937 -0.8313  0.5788  0.0235
 3696SOL    HW214550   1.772   1.881   3.024 -2.3276 -0.5439 -0.7047
 3696SOL    HW314551   1.780   1.969   2.901 -1.1313  0.4961  0.0987
 3696SOL    MW414552   1.803   1.897   2.944  0.1012 -0.7771 -0.2228
 3697SOL     OW14553   2.089   2.697   3.368  0.4734  0.0783 -0.0627
 3697SOL    HW214554   2.021   2.715   3.432 -2.0327 -1.8335 -1.9627
 3697SOL    HW314555   2.093   2.776   3.314 -1.1082 -0.1353 -0.5647
 3697SOL    MW414556   2.081   2.710   3.369  0.2423 -0.2767  0.3437
 3698SOL     OW14557   5.691   5.544   4.527 -0.2501  0.0074 -0.1959
 3698SOL    HW214558   5.681   5.549   4.432  0.7376  0.6780 -0.2750
 3698SOL    HW314559   5.627   5.606   4.562  0.1459  0.5679 -0.4677
 3698SOL    MW414560   5.681   5.553   4.519  0.5523 -0.2708 -0.0309
 3699SOL     OW14561   5.557   3.519   5.538  0.3981  0.3024  0.0065
 3699SOL    HW214562   5.648   3.548   5.534  1.1643 -1.9926 -2.9221
 3699SOL    HW314563   5.506   3.593   5.505  1.4467  0.8682 -0.3848
 3699SOL    MW414564   5.562   3.533   5.533  0.2418 -0.5487 -0.3967
 3700SOL     OW14565   1.028   2.409   2.170  0.7465 -0.1193 -0.0781
 3700SOL    HW214566   1.051   2.419   2.077 -1.2148 -0.9986 -0.7143
 3700SOL    HW314567   1.058   2.322   2.193 -0.6296 -0.7553 -0.5446
 3700SOL    MW414568   1.035   2.399   2.161  0.1962 -0.1517  0.0075
 3701SOL     OW14569   5.507   4.265   1.845  0.0358 -1.0345 -0.4213
 3701SOL    HW214570   5.421   4.273   1.887  0.1899 -0.2787 -0.2205
 3701SOL    HW314571   5.518   4.347   1.797  1.5585 -0.1080  1.3338
 3701SOL    MW414572   5.497   4.277   1.844 -0.0080  0.1015 -0.8315
 3702SOL     OW14573   3.008   2.595   3.999  0.1010 -0.0226 -0.3670
 3702SOL    HW214574   3.050   2.519   3.958  0.4747  0.3186 -0.6322
 3702SOL    HW314575   2.977   2.562   4.083 -1.1498 -0.8781 -1.1257
 3702SOL    MW414576   3.010   2.580   4.004  0.0561 -0.4366 -0.4862
 3703SOL     OW14577   4.269   5.692   4.389 -0.3203  0.3177  0.4206
 3703SOL    HW214578   4.335   5.755   4.361 -0.4201  0.4444  0.4653
 3703SOL    HW314579   4.201   5.698   4.323 -0.3025  0.2130  0.3936
 3703SOL    MW414580   4.269   5.701   4.377  0.2801 -0.0830 -0.0714
 3704SOL     OW14581   3.938   2.735   0.213 -0.5517 -0.0011 -0.3704
 3704SOL    HW214582   3.891   2.655   0.239 -1.1845  0.9586  1.6626
 3704SOL    HW314583   4.030   2.711   0.217 -0.6865 -0.3918  1.2652
 3704SOL    MW414584   3.944   2.721   0.217 -0.0598 -0.1586 -0.2469
 3705SOL     OW14585   5.411   3.664   4.532  0.2956 -0.1043  0.8346
 3705SOL    HW214586   5.503   3.644   4.519  0.1933 -0.9323  1.3421
 3705SOL    HW314587   5.366   3.580   4.522 -0.5806  0.5247 -0.9055
 3705SOL    MW414588   5.417   3.651   4.529  0.0068  0.0097 -0.3428
 3706SOL     OW14589   2.675   6.227   4.773 -0.0652  0.2189  0.0336
 3706SOL    HW214590   2.581   6.243   4.781 -0.2982 -0.1372 -1.6326
 3706SOL    HW314591   2.716   6.299   4.823 -1.2050  0.4079  0.7268
 3706SOL    MW414592   2.668   6.239   4.781 -0.1203  0.2546 -0.0724
 3707SOL     OW14593   1.839   4.924   1.873  0.0125 -0.0673 -0.4484
 3707SOL    HW214594   1.784   5.000   1.891 -0.9146 -0.9441  0.5135
 3707SOL    HW314595   1.860   4.888   1.959 -0.3798 -1.4630 -0.9102
 3707SOL    MW414596   1.834   4.929   1.887  0.4337  0.6273 -0.6749
 3708SOL     OW14597   3.314   5.607   3.247 -0.5392 -0.5810 -0.0565
 3708SOL    HW214598   3.387   5.666   3.232 -1.0598 -0.1283 -0.8394
 3708SOL    HW314599   3.345   5.522   3.217 -0.6511 -0.2018 -1.2930
 3708SOL    MW414600   3.328   5.603   3.241  0.0454 -0.0189 -0.2710
 3709SOL     OW14601   2.810   3.624   2.446  0.1837  0.3920 -0.0463
 3709SOL    HW214602   2.723   3.629   2.406 -0.2932  0.0796  0.9133
 3709SOL    HW314603   2.826   3.712   2.479 -0.4400  0.1086  1.0897
 3709SOL    MW414604   2.800   3.636   2.445  0.3651  0.0330  0.0949
 3710SOL     OW14605   6.207   5.788   4.244 -0.1938  0.0037  0.2201
 3710SOL    HW214606   6.262   5.810   4.319  0.1623 -0.4099  0.0844
 3710SOL    HW314607   6.267   5.787   4.170  0.0875 -2.5627  0.3710
 3710SOL    MW414608   6.222   5.790   4.244 -0.5046 -0.2240  0.4485
 3711SOL     OW14609   2.465   1.117   0.128 -0.1796 -0.0494  0.0772
 3711SOL    HW214610   2.531   1.065   0.083  1.6738  0.3098  2.1900
 3711SOL    HW314611   2.390   1.059   0.136 -0.8585  0.0431 -3.7606
 3711SOL    MW414612   2.464   1.103   0.123  1.3634  0.2517  0.0903
 3712SOL     OW14613   6.320   0.894   1.978  0.5269 -0.0113  0.3851
 3712SOL    HW214614   6.401   0.848   1.953  1.9031  2.1650  0.5599
 3712SOL    HW314615   6.261   0.880   1.904  1.7562 -0.0856 -0.6252
 3712SOL    MW414616   6.323   0.886   1.965  0.2981 -0.3170  0.0874
 3713SOL     OW14617   5.416   4.535   1.971 -0.1273 -0.1654 -0.3349
 3713SOL    HW214618   5.436   4.469   2.038  1.3096  1.1758  0.6357
 3713SOL    HW314619   5.322   4.547   1.976 -0.3975 -1.9481 -0.3740
 3713SOL    MW414620   5.406   4.528   1.980 -0.2374  0.6827  0.0540
 3714SOL     OW14621   4.987   1.230   5.597  0.0271 -0.1368  0.1696
 3714SOL    HW214622   4.951   1.189   5.518 -2.6725  0.7914  0.7817
 3714SOL    HW314623   5.081   1.224   5.587 -0.2423 -2.1719 -1.9874
 3714SOL    MW414624   4.994   1.224   5.585  0.2640 -0.3298 -0.0760
 3715SOL     OW14625   2.419   4.959   5.040  0.6476 -0.2243  0.7581
 3715SOL    HW214626   2.367   4.974   5.118 -1.2540 -0.9050 -0.3137
 3715SOL    HW314627   2.410   5.040   4.989 -0.4782 -0.7958 -0.0017
 3715SOL    MW414628   2.411   4.972   5.043 -0.7442 -0.1427 -0.2364
 3716SOL     OW14629   2.884   4.260   0.809  0.3739  0.1338  0.1673
 3716SOL    HW214630   2.858   4.169   0.824 -2.2096  0.9236  0.8723
 3716SOL    HW314631   2.963   4.253   0.756 -0.7849 -2.5005 -1.4011
 3716SOL    MW414632   2.891   4.247   0.804 -0.2814 -0.2715  0.3319
 3717SOL     OW14633   1.670   2.937   0.459  0.7531  0.2794 -0.1483
 3717SOL    HW214634   1.649   2.846   0.438  1.9696 -0.0273 -0.0966
 3717SOL    HW314635   1.762   2.935   0.483  0.3212  1.2049  1.7761
 3717SOL    MW414636   1.679   2.925   0.460  0.1911 -0.1104  0.2150
 3718SOL     OW14637   4.381   5.828   0.553  0.6345  0.3201  0.3137
 3718SOL    HW214638   4.362   5.921   0.555 -0.1208  0.2347 -1.1840
 3718SOL    HW314639   4.306   5.787   0.596  2.4289  0.4876  4.0043
 3718SOL    MW414640   4.369   5.835   0.559 -0.8413 -0.5342  0.1830
 3719SOL     OW14641   3.022   3.235   0.800 -0.7067 -0.2342  0.3741
 3719SOL    HW214642   3.061   3.295   0.863 -0.5096  1.5938 -1.3691
 3719SOL    HW314643   3.048   3.271   0.715  0.7634 -3.6988 -0.8052
 3719SOL    MW414644   3.031   3.248   0.797  0.4082 -0.2421 -0.0461
 3720SOL     OW14645   4.166   1.168   4.101 -0.0724  0.7423 -0.2305
 3720SOL    HW214646   4.188   1.195   4.012  1.5494  2.1598  0.5536
 3720SOL    HW314647   4.239   1.113   4.128 -1.8356 -2.0248 -0.6651
 3720SOL    MW414648   4.178   1.164   4.093  0.0186  0.6122 -0.0013
 3721SOL     OW14649   5.190   4.752   4.613 -0.0404  0.0991 -0.1929
 3721SOL    HW214650   5.154   4.693   4.679 -1.7918  0.3750 -0.8238
 3721SOL    HW314651   5.200   4.697   4.535 -1.2754  0.4845 -0.6585
 3721SOL    MW414652   5.186   4.737   4.611  0.4043 -0.3460  0.1009
 3722SOL     OW14653   2.686   2.077   0.766  0.1044 -0.1223 -0.0215
 3722SOL    HW214654   2.666   2.118   0.851 -0.5198  1.8212 -1.0404
 3722SOL    HW314655   2.722   1.992   0.789 -0.0332  0.3424  2.2048
 3722SOL    MW414656   2.688   2.072   0.780  0.0187  0.1093 -0.2635
 3723SOL     OW14657   6.086   4.440   1.566 -0.3353  0.0604 -0.3170
 3723SOL    HW214658   6.031   4.371   1.530 -0.6911  0.3943 -0.4078
 3723SOL    HW314659   6.170   4.397   1.582 -1.0434 -0.8304  1.2181
 3723SOL    MW414660   6.090   4.425   1.563 -0.4301 -0.4177 -0.3095
 3724SOL     OW14661   2.271   6.068   4.651  0.0716 -0.1977 -0.0092
 3724SOL    HW214662   2.228   6.149   4.623  0.0808  0.1534  0.9441
 3724SOL    HW314663   2.313   6.035   4.572 -1.2874 -0.1407 -0.7920
 3724SOL    MW414664   2.271   6.074   4.637 -0.2507  0.5812 -0.1401
 3725SOL     OW14665   0.574   0.737   1.516 -0.0983  0.3513 -0.1147
 3725SOL    HW214666   0.524   0.658   1.537  0.5493 -0.2312 -0.7367
 3725SOL    HW314667   0.540   0.765   1.431 -0.0599  0.5170 -0.0754
 3725SOL    MW414668   0.563   0.730   1.508 -0.1933 -0.4545 -0.1982
 3726SOL     OW14669   5.456   4.635   6.152  0.7225  0.4662 -0.2417
 3726SOL    HW214670   5.411   4.649   6.236  0.5657  0.8581 -0.3885
 3726SOL    HW314671   5.473   4.723   6.119  1.0504  0.3130 -0.4825
 3726SOL    MW414672   5.452   4.649   6.159 -0.0027 -0.5600 -0.6638
 3727SOL     OW14673   2.349   0.556   1.337  0.6762  0.3798 -0.1015
 3727SOL    HW214674   2.287   0.553   1.409  0.5843 -0.0671 -0.1936
 3727SOL    HW314675   2.433   0.579   1.378  0.5261  0.5987  0.0786
 3727SOL    MW414676   2.352   0.558   1.352  0.6522  0.0652 -0.1109
 3728SOL     OW14677   5.967   1.462   1.957 -0.2193  0.6162 -0.1295
 3728SOL    HW214678   5.945   1.530   2.021  0.1345  0.0300  0.6371
 3728SOL    HW314679   5.953   1.503   1.872 -1.3609  1.1982  0.3191
 3728SOL    MW414680   5.962   1.476   1.954  0.0172  0.0484  0.2538
 3729SOL     OW14681   4.371   4.901   3.344 -0.8653  0.1370 -0.4788
 3729SOL    HW214682   4.282   4.889   3.376 -1.6426 -0.0693 -2.5466
 3729SOL    HW314683   4.361   4.946   3.260  0.8840 -0.7263 -1.2209
 3729SOL    MW414684   4.358   4.905   3.337 -0.9398  0.8855 -0.1985
 3730SOL     OW14685   2.012   4.963   6.413 -0.0257 -0.2241  0.0713
 3730SOL    HW214686   1.928   5.008   6.405  0.7292  1.3341  0.5196
 3730SOL    HW314687   2.076   5.033   6.424  1.0797 -1.4304  1.9639
 3730SOL    MW414688   2.009   4.978   6.413 -0.5247 -0.1315 -0.0444
 3731SOL     OW14689   0.871   3.941   3.082 -0.0826  0.0814 -0.4406
 3731SOL    HW214690   0.941   3.989   3.037 -0.0988  0.3592 -0.1754
 3731SOL    HW314691   0.899   3.937   3.173  0.2054 -0.9478 -0.5642
 3731SOL    MW414692   0.884   3.947   3.088 -0.3834  0.2123 -0.3533
 3732SOL     OW14693   1.418   5.967   5.149  0.6427  0.5165 -0.2266
 3732SOL    HW214694   1.442   5.877   5.170  0.1450  0.7508  1.5403
 3732SOL    HW314695   1.497   6.005   5.111  0.9011 -0.6113 -0.8367
 3732SOL    MW414696   1.432   5.960   5.147  0.3184  0.1234  0.0416
 3733SOL     OW14697   0.292   3.856   0.009  0.0647  0.0320 -0.2838
 3733SOL    HW214698   0.322   3.821   0.093  0.3504 -2.6848 -1.4210
 3733SOL    HW314699   0.368   3.902  -0.026  0.7035 -0.8628 -0.0966
 3733SOL    MW414700   0.306   3.857   0.016  0.0273  0.5419 -0.5524
 3734SOL     OW14701   6.100   1.095   3.378 -0.4449 -0.4736  0.4333
 3734SOL    HW214702   6.160   1.021   3.369  0.5622  0.2420  1.1009
 3734SOL    HW314703   6.073   1.115   3.288  0.2215 -0.8799  0.1358
 3734SOL    MW414704   6.104   1.088   3.365 -0.2789  0.3321  0.0535
 3735SOL     OW14705   6.149   3.871   0.149  0.1830 -0.5113  0.2991
 3735SOL    HW214706   6.204   3.798   0.121  0.7647 -0.5423  1.4718
 3735SOL    HW314707   6.203   3.921   0.211  1.7620  3.8617 -3.9875
 3735SOL    MW414708   6.163   3.868   0.154 -1.0740  0.1622  0.7744
 3736SOL     OW14709   3.744   4.879   5.087 -0.0920 -0.1334 -0.5082
 3736SOL    HW214710   3.705   4.934   5.020  0.0142 -1.2554 -1.5138
 3736SOL    HW314711   3.771   4.800   5.041  1.7247 -0.1535  0.4906
 3736SOL    MW414712   3.743   4.876   5.072 -0.3545 -0.3532  0.1025
 3737SOL     OW14713   4.939   5.262   0.529 -0.1099 -0.2768 -0.8190
 3737SOL    HW214714   4.950   5.274   0.624  0.2614  1.4768 -1.0570
 3737SOL    HW314715   5.027   5.274   0.493  0.0635 -2.4635 -1.3024
 3737SOL    MW414716   4.952   5.265   0.537  0.5483  0.0461  0.9995
 3738SOL     OW14717   0.193   0.102   5.597 -0.2257 -0.0912 -0.5383
 3738SOL    HW214718   0.213   0.192   5.624 -0.8056  0.0937 -0.7148
 3738SOL    HW314719   0.270   0.052   5.624 -0.0612  0.3892 -0.0874
 3738SOL    MW414720   0.206   0.107   5.604  0.2066 -0.3386  0.0087
 3739SOL     OW14721   2.673   0.619   4.216  0.5838 -0.2456  0.3046
 3739SOL    HW214722   2.585   0.656   4.207  0.3350 -0.4404  1.6601
 3739SOL    HW314723   2.727   0.693   4.244  1.1795  0.1917 -1.8300
 3739SOL    MW414724   2.668   0.633   4.218 -0.1086  0.4071  0.0280
 3740SOL     OW14725   4.551   3.345   0.376 -0.1620  0.4591  0.3736
 3740SOL    HW214726   4.516   3.428   0.408 -0.8982  0.8851 -1.4217
 3740SOL    HW314727   4.627   3.370   0.324 -1.2174  0.1876 -1.3688
 3740SOL    MW414728   4.557   3.359   0.374  0.2280  0.2937 -0.0372
 3741SOL     OW14729   3.669   1.742   3.742  0.3083 -0.2883 -0.0493
 3741SOL    HW214730   3.624   1.818   3.778  0.3791 -1.0659  1.7998
 3741SOL    HW314731   3.759   1.771   3.731 -0.0523  0.4499 -1.1627
 3741SOL    MW414732   3.675   1.756   3.745  0.3250 -0.2797  0.3205
 3742SOL     OW14733   4.851   4.409   3.171 -0.0995  0.9689  0.0836
 3742SOL    HW214734   4.931   4.409   3.119 -0.4048 -1.4526 -0.5140
 3742SOL    HW314735   4.880   4.387   3.260 -0.1067 -0.5270 -0.2549
 3742SOL    MW414736   4.865   4.406   3.176 -0.1967  0.1543  0.0380
 3743SOL     OW14737   5.920   0.225   3.279 -0.1336  0.6639  0.4076
 3743SOL    HW214738   5.993   0.279   3.248 -0.9124  1.0697 -0.7747
 3743SOL    HW314739   5.906   0.254   3.369  2.8260 -1.2248  1.6463
 3743SOL    MW414740   5.928   0.236   3.287 -0.3761  0.0583 -0.1288
 3744SOL     OW14741   4.968   0.039   3.634  0.2560 -0.2929 -0.6369
 3744SOL    HW214742   4.980  -0.051   3.605  0.3229  0.2713 -2.4961
 3744SOL    HW314743   4.908   0.033   3.707 -0.7535 -1.7497 -1.5398
 3744SOL    MW414744   4.962   0.026   3.640 -0.3216 -0.4431 -0.7046
 3745SOL     OW14745   0.240   4.827   2.431 -0.5189  1.2006  0.1803
 3745SOL    HW214746   0.244   4.895   2.499 -0.1193  0.4537  0.9272
 3745SOL    HW314747   0.296   4.757   2.464 -1.0016  0.4602 -0.5283
 3745SOL    MW414748   0.248   4.827   2.444  0.4007 -0.0844 -0.1609
 3746SOL     OW14749   0.204   3.633   0.371  0.4626 -0.0847  0.2502
 3746SOL    HW214750   0.237   3.611   0.458  2.1454  1.3585  0.0269
 3746SOL    HW314751   0.206   3.728   0.368  1.2958 -0.1255 -1.6868
 3746SOL    MW414752   0.209   3.642   0.382 -0.2867 -0.4686 -1.0174
 3747SOL     OW14753   0.192   0.016   3.276  0.1088  0.1327 -0.0118
 3747SOL    HW214754   0.247   0.093   3.286  2.0851 -1.0086 -1.2780
 3747SOL    HW314755   0.203  -0.033   3.357 -0.3674  0.6682  0.3885
 3747SOL    MW414756   0.200   0.020   3.288 -0.1373  0.4412 -0.0569
 3748SOL     OW14757   0.655   6.179   1.880  0.1566  0.2753  0.5361
 3748SOL    HW214758   0.729   6.154   1.935  0.3122 -0.3049  0.0678
 3748SOL    HW314759   0.684   6.163   1.791  0.1523  1.8579  0.2257
 3748SOL    MW414760   0.668   6.174   1.876 -0.1067 -0.5031 -0.3072
 3749SOL     OW14761   3.555   0.486   5.448 -0.5833  0.0096 -0.1571
 3749SOL    HW214762   3.521   0.436   5.522 -0.4911  0.8395  0.4517
 3749SOL    HW314763   3.607   0.423   5.398 -0.2810 -0.4423  0.7189
 3749SOL    MW414764   3.557   0.471   5.451 -0.1752 -0.2230  0.5354
 3750SOL     OW14765   3.528   0.535   0.313  0.2225  0.4008 -0.2158
 3750SOL    HW214766   3.527   0.541   0.408  0.2679  1.3121 -0.2593
 3750SOL    HW314767   3.435   0.525   0.289  0.2863 -0.7797 -0.0456
 3750SOL    MW414768   3.515   0.534   0.322 -0.4393 -0.5096  0.2598
 3751SOL     OW14769   0.871   3.680   2.262  0.2831 -0.4192 -0.1215
 3751SOL    HW214770   0.893   3.768   2.233 -0.1752 -0.4047 -0.4414
 3751SOL    HW314771   0.800   3.692   2.324  0.9818 -0.4840  0.7119
 3751SOL    MW414772   0.865   3.693   2.266 -0.1467 -0.0211 -0.3718
 3752SOL     OW14773   2.043   0.494   0.444 -0.0095 -0.1793 -0.1687
 3752SOL    HW214774   1.949   0.502   0.428  0.3113  3.7034 -1.1841
 3752SOL    HW314775   2.059   0.545   0.523  1.2825 -0.6472 -0.1013
 3752SOL    MW414776   2.033   0.502   0.452  0.7925  0.1355  0.1229
 3753SOL     OW14777   3.595   2.159   3.193 -0.2421 -0.4033 -0.0618
 3753SOL    HW214778   3.534   2.232   3.182  0.7668  0.5151  0.2127
 3753SOL    HW314779   3.675   2.200   3.227 -0.7230 -2.0279  3.5012
 3753SOL    MW414780   3.597   2.174   3.196  0.1636  0.1989  0.2572
 3754SOL     OW14781   3.532   5.962   4.356 -0.1128 -0.2813 -0.3121
 3754SOL    HW214782   3.588   5.939   4.430 -0.8192 -0.5409  0.1579
 3754SOL    HW314783   3.470   5.888   4.350 -1.0233  0.4572 -0.1894
 3754SOL    MW414784   3.531   5.949   4.365 -0.7025 -0.1243  0.1771
 3755SOL     OW14785   3.453   0.716   4.450  0.5266  0.2518 -0.1859
 3755SOL    HW214786   3.452   0.621   4.457 -0.5431  0.2956  0.5047
 3755SOL    HW314787   3.516   0.735   4.380  0.2394 -0.9874 -0.7988
 3755SOL    MW414788   3.461   0.706   4.442  0.1651  0.1346 -0.2031
 3756SOL     OW14789   1.290   0.689   5.637  0.2757  0.4565 -0.0504
 3756SOL    HW214790   1.259   0.615   5.690  0.7318  0.7112  0.5852
 3756SOL    HW314791   1.239   0.764   5.668  1.7546  0.9681  1.3038
 3756SOL    MW414792   1.279   0.689   5.648 -0.0169 -0.3236  0.6196
 3757SOL     OW14793   0.653   2.831   2.827  0.3047 -0.1872 -0.3248
 3757SOL    HW214794   0.679   2.917   2.861 -0.8821 -0.2854  0.9196
 3757SOL    HW314795   0.588   2.850   2.760 -0.1073 -0.1063  0.0907
 3757SOL    MW414796   0.648   2.845   2.823 -0.3631  0.3286 -0.1621
 3758SOL     OW14797   5.091   2.116   3.751 -0.2427 -0.4499 -0.1521
 3758SOL    HW214798   5.116   2.148   3.838  0.5523 -2.4357  0.4032
 3758SOL    HW314799   5.039   2.037   3.768 -0.8428 -0.3704 -1.4722
 3758SOL    MW414800   5.087   2.110   3.765  0.1870 -0.0728  0.0782
 3759SOL     OW14801   0.897   0.789   4.642 -0.1485 -0.1965 -0.3603
 3759SOL    HW214802   0.838   0.723   4.679 -1.1417  1.3420  0.9016
 3759SOL    HW314803   0.944   0.824   4.718  1.0541 -0.0817 -1.1245
 3759SOL    MW414804   0.896   0.785   4.657  0.1060 -0.2396 -0.1218
 3760SOL     OW14805   2.243   3.708   3.706  0.2327  0.9023  0.5001
 3760SOL    HW214806   2.281   3.749   3.628  0.4083 -0.5194 -0.1785
 3760SOL    HW314807   2.149   3.702   3.686  0.3275  0.2333  0.2642
 3760SOL    MW414808   2.235   3.713   3.693 -0.2949 -0.4081 -0.0562
 3761SOL     OW14809   5.296   3.790   0.155 -0.1720 -0.6737  0.1608
 3761SOL    HW214810   5.305   3.773   0.061  1.1196  0.1234  0.1147
 3761SOL    HW314811   5.320   3.708   0.197 -1.1068 -1.1476 -0.1973
 3761SOL    MW414812   5.300   3.777   0.148 -0.8592 -0.0973  0.1420
 3762SOL     OW14813   3.384   1.683   4.843 -0.4219  0.3094  0.3017
 3762SOL    HW214814   3.343   1.598   4.831 -0.1435  0.1056  0.7643
 3762SOL    HW314815   3.316   1.746   4.819 -0.3181 -0.0481 -1.0007
 3762SOL    MW414816   3.370   1.680   4.839 -0.0880 -0.3990 -0.2537
 3763SOL     OW14817   0.558   4.592   0.595 -0.1866  0.5504 -0.9191
 3763SOL    HW214818   0.646   4.629   0.584  0.2863  0.0341  0.7533
 3763SOL    HW314819   0.511   4.656   0.648 -0.2152  0.0117 -0.2715
 3763SOL    MW414820   0.564   4.605   0.601  0.3539  0.5695  0.3286
 3764SOL     OW14821   1.246   1.927   2.313 -0.4464 -0.3098 -0.2136
 3764SOL    HW214822   1.165   1.917   2.263 -1.5158  0.9042  1.2048
 3764SOL    HW314823   1.252   2.020   2.331  0.8666 -0.4898  0.3876
 3764SOL    MW414824   1.236   1.938   2.309  0.3900 -0.8249  0.2673
 3765SOL     OW14825   6.322   3.977   0.336 -0.0282 -0.7873  0.4084
 3765SOL    HW214826   6.415   3.960   0.350  0.3631  1.4131  0.9182
 3765SOL    HW314827   6.299   4.040   0.405 -1.3539  0.2942 -0.9599
 3765SOL    MW414828   6.331   3.983   0.347  0.0316 -0.6099  0.5796
 3766SOL     OW14829   4.379   0.197   0.839 -0.6156 -0.0517 -0.0206
 3766SOL    HW214830   4.312   0.187   0.772  0.0847 -1.1593 -0.5900
 3766SOL    HW314831   4.462   0.193   0.791 -0.1144 -0.0112  0.8191
 3766SOL    MW414832   4.381   0.195   0.824 -0.5246  0.2566 -0.4423
 3767SOL     OW14833   2.158   1.139   3.564 -0.2265 -0.0985 -0.0307
 3767SOL    HW214834   2.098   1.092   3.506 -1.3314 -0.9488  1.7103
 3767SOL    HW314835   2.215   1.070   3.599  2.2366  0.7388 -2.0200
 3767SOL    MW414836   2.158   1.123   3.561 -0.5276 -0.6253  0.6198
 3768SOL     OW14837   3.723   0.972   0.963 -0.2074 -0.5280  0.4742
 3768SOL    HW214838   3.658   0.911   0.926  1.2273 -2.0854  0.3906
 3768SOL    HW314839   3.703   0.973   1.056  0.0323 -1.5252  0.5514
 3768SOL    MW414840   3.712   0.964   0.970  0.7968  0.2884  1.0575
 3769SOL     OW14841   2.165   2.955   4.177  0.1731  0.0189 -0.7421
 3769SOL    HW214842   2.072   2.969   4.188  0.1884  0.0727 -0.6870
 3769SOL    HW314843   2.181   2.973   4.084 -0.0534 -0.9776 -0.9937
 3769SOL    MW414844   2.155   2.959   4.166 -0.2741 -0.3566  0.1696
 3770SOL     OW14845   0.052   1.970   3.093 -0.3649 -0.0910 -0.3540
 3770SOL    HW214846   0.051   1.892   3.038 -1.0912 -0.9057  0.7657
 3770SOL    HW314847  -0.040   1.998   3.095 -0.6597 -1.0360  1.7030
 3770SOL    MW414848   0.039   1.963   3.086  0.2757 -0.7311 -0.3803
 3771SOL     OW14849   4.621   3.520   0.683  0.0367 -0.3937  0.4664
 3771SOL    HW214850   4.593   3.552   0.769  1.4079  4.1251 -0.4983
 3771SOL    HW314851   4.564   3.565   0.621  1.0189 -1.1799 -1.0712
 3771SOL    MW414852   4.610   3.530   0.686 -0.3205 -0.2145  0.6314
 3772SOL     OW14853   6.246   1.282   0.912  0.4895  0.3871  0.5515
 3772SOL    HW214854   6.283   1.240   0.834 -0.0609  0.2381  0.3668
 3772SOL    HW314855   6.186   1.216   0.948 -0.3141  0.9752  0.3156
 3772SOL    MW414856   6.243   1.267   0.907 -0.2697  0.6229  0.5473
 3773SOL     OW14857   4.994   4.129   5.902 -0.4168 -0.4602 -0.0812
 3773SOL    HW214858   5.083   4.120   5.936  0.0585 -1.5959 -1.5014
 3773SOL    HW314859   4.943   4.063   5.950 -0.1612 -0.7970 -0.2666
 3773SOL    MW414860   4.999   4.119   5.913 -0.1387 -0.0789 -0.0274
 3774SOL     OW14861   1.921   0.357   4.388  0.3968  0.1550 -0.1919
 3774SOL    HW214862   1.994   0.301   4.362  0.8611 -0.1569  1.6347
 3774SOL    HW314863   1.852   0.295   4.413  0.0722  0.4378 -0.3815
 3774SOL    MW414864   1.921   0.341   4.388  0.0193  0.2159 -0.1173
 3775SOL     OW14865   5.644   6.259   0.716 -0.0593  0.1264 -0.2779
 3775SOL    HW214866   5.677   6.184   0.668 -0.3528  0.9525 -1.8411
 3775SOL    HW314867   5.614   6.320   0.648  0.4520  1.7911  0.9087
 3775SOL    MW414868   5.644   6.257   0.701  0.2037 -0.4813 -0.0204
 3776SOL     OW14869   3.410   1.533   5.411 -0.1491 -0.1137 -0.5680
 3776SOL    HW214870   3.326   1.568   5.442 -0.5075 -1.2803 -0.1871
 3776SOL    HW314871   3.387   1.456   5.360  0.7566 -1.5492  1.0893
 3776SOL    MW414872   3.396   1.528   5.408  0.3450  0.3151 -0.5416
 3777SOL     OW14873   0.693   0.962   4.324  0.2349  0.6387  0.0542
 3777SOL    HW214874   0.621   0.904   4.300 -0.5290  0.2941  2.8848
 3777SOL    HW314875   0.770   0.922   4.283 -0.6429 -1.0461 -0.0439
 3777SOL    MW414876   0.694   0.949   4.315  0.3383  0.2731  0.5771
 3778SOL     OW14877   3.128   3.233   4.213  0.2728  0.3294  0.0657
 3778SOL    HW214878   3.099   3.294   4.145 -0.8727  1.1003  1.2052
 3778SOL    HW314879   3.108   3.277   4.295 -1.2919 -1.8471  0.9600
 3778SOL    MW414880   3.122   3.247   4.215 -0.2910  0.5008 -0.3575
 3779SOL     OW14881   2.218   5.506   5.462 -0.1002 -0.0481  0.2612
 3779SOL    HW214882   2.280   5.564   5.418 -0.5670  0.4949  0.3090
 3779SOL    HW314883   2.230   5.421   5.419  0.2498  0.1979 -0.1358
 3779SOL    MW414884   2.228   5.502   5.450  0.1804 -0.1317 -0.4148
 3780SOL     OW14885   3.902   5.575   0.429 -0.4780 -0.2728  0.2134
 3780SOL    HW214886   3.927   5.540   0.344 -0.0338 -0.8367  0.5661
 3780SOL    HW314887   3.825   5.523   0.454 -1.2995  0.6524 -0.3369
 3780SOL    MW414888   3.895   5.563   0.421  0.1457  0.0468  0.7565
 3781SOL     OW14889   3.159   3.958   5.576 -0.1136 -0.0277 -0.6505
 3781SOL    HW214890   3.157   3.978   5.482 -0.1360 -1.1731 -0.8988
 3781SOL    HW314891   3.241   3.911   5.589  0.5811  1.3477  0.1778
 3781SOL    MW414892   3.170   3.955   5.565  0.3392  0.1298 -0.1329
 3782SOL     OW14893   0.164   1.576   5.183  0.0967  0.5219 -0.4906
 3782SOL    HW214894   0.085   1.540   5.223  0.8530 -1.7413 -0.9212
 3782SOL    HW314895   0.154   1.561   5.089  1.4587 -0.7692 -0.4685
 3782SOL    MW414896   0.153   1.569   5.176  0.2475 -0.5652  0.3705
 3783SOL     OW14897   1.481   1.649   0.223 -0.2517 -0.1798  0.0796
 3783SOL    HW214898   1.537   1.714   0.267 -0.8053  0.3814 -0.0250
 3783SOL    HW314899   1.492   1.668   0.130  0.2009 -0.7637  0.0113
 3783SOL    MW414900   1.490   1.660   0.217 -0.2234  0.5641 -0.4963
 3784SOL     OW14901   1.367   1.423   4.080  1.0196  0.1092 -0.2233
 3784SOL    HW214902   1.380   1.332   4.107 -0.7162  0.1649  0.9359
 3784SOL    HW314903   1.375   1.421   3.984 -0.2130 -1.4897 -0.3259
 3784SOL    MW414904   1.370   1.411   4.071 -0.3135  0.4724  0.2886
 3785SOL     OW14905   2.745   3.782   3.783 -0.4371  0.2601 -0.4766
 3785SOL    HW214906   2.684   3.825   3.722 -1.6147  0.8353  1.0271
 3785SOL    HW314907   2.688   3.735   3.844  0.4985  1.6297  1.5833
 3785SOL    MW414908   2.729   3.782   3.783  0.5356 -0.5127 -0.1752
 3786SOL     OW14909   1.525   5.848   1.988 -0.0469  0.5352 -0.5153
 3786SOL    HW214910   1.535   5.855   2.083 -0.7994 -1.6431 -0.2242
 3786SOL    HW314911   1.615   5.853   1.954  0.4281 -0.5987  0.5030
 3786SOL    MW414912   1.538   5.849   1.996 -0.1412 -0.4884 -0.0427
 3787SOL     OW14913   4.856   2.474   1.816  0.4485  0.2977 -0.0707
 3787SOL    HW214914   4.924   2.535   1.846  1.1466  0.0814 -1.1533
 3787SOL    HW314915   4.821   2.515   1.737 -0.9691  0.5936  0.6829
 3787SOL    MW414916   4.860   2.488   1.809 -0.5739 -0.7203 -0.2078
 3788SOL     OW14917   4.524   0.381   4.904  0.3060  0.0483 -0.2402
 3788SOL    HW214918   4.470   0.450   4.942  0.4134  0.6728 -1.1839
 3788SOL    HW314919   4.471   0.301   4.912  0.7534 -0.0843  2.1702
 3788SOL    MW414920   4.510   0.380   4.910  0.0639 -0.6045  0.1791
 3789SOL     OW14921   3.624   1.810   1.362 -0.0039 -0.2281 -0.3752
 3789SOL    HW214922   3.661   1.738   1.312 -1.3346  0.2435 -2.1497
 3789SOL    HW314923   3.531   1.789   1.370 -0.3348  1.0527 -0.5556
 3789SOL    MW414924   3.616   1.798   1.357  0.2362  1.0691 -0.2329
 3790SOL     OW14925   3.752   4.107   1.149 -0.4019 -0.4342  0.1609
 3790SOL    HW214926   3.773   4.145   1.234  0.6180 -0.1584 -0.1988
 3790SOL    HW314927   3.762   4.013   1.161  1.1260 -0.3170  0.0075
 3790SOL    MW414928   3.756   4.100   1.162  0.6012 -0.0799 -0.1896
 3791SOL     OW14929   1.895   0.427   1.389 -0.4348 -0.4918 -0.0621
 3791SOL    HW214930   1.904   0.483   1.312 -0.5779  0.0795  0.3343
 3791SOL    HW314931   1.981   0.430   1.430  0.1945 -2.2030 -1.1311
 3791SOL    MW414932   1.908   0.435   1.384 -0.2338  0.0228  0.6243
 3792SOL     OW14933   5.110   0.879   6.100 -0.0336 -0.2907 -0.0576
 3792SOL    HW214934   5.171   0.919   6.038  2.2980 -1.7190  1.1518
 3792SOL    HW314935   5.105   0.942   6.172  1.9706 -1.1309  0.8952
 3792SOL    MW414936   5.118   0.892   6.101  0.3095 -0.3381 -0.0404
 3793SOL     OW14937   4.237   5.020   5.252 -0.4601 -0.4059 -0.2113
 3793SOL    HW214938   4.267   4.962   5.323 -0.2858 -2.1682 -1.6597
 3793SOL    HW314939   4.163   4.975   5.213  0.3019 -0.1922 -2.0306
 3793SOL    MW414940   4.231   5.007   5.256  0.2336 -0.6943 -0.8077
 3794SOL     OW14941   5.209   3.099   5.411 -0.3054 -0.2599 -0.4487
 3794SOL    HW214942   5.152   3.063   5.344  0.2787 -1.2350 -0.4485
 3794SOL    HW314943   5.291   3.049   5.402  0.9116  1.7303 -1.0882
 3794SOL    MW414944   5.213   3.088   5.401 -0.4865  0.2172 -0.1977
 3795SOL     OW14945   5.930   5.979   3.069  0.3517 -0.3827 -0.0875
 3795SOL    HW214946   5.991   5.967   2.997  0.9866  2.4940 -0.1528
 3795SOL    HW314947   5.982   5.964   3.148  1.1573  1.6899 -0.1544
 3795SOL    MW414948   5.945   5.976   3.070 -0.4065 -0.2684 -0.0088
 3796SOL     OW14949   0.294   3.939   0.696  0.1824 -0.5592 -0.6058
 3796SOL    HW214950   0.270   3.846   0.696 -0.0817 -0.5080 -2.3323
 3796SOL    HW314951   0.389   3.939   0.689  0.0630 -0.7113 -2.6074
 3796SOL    MW414952   0.303   3.927   0.695  0.1209  0.3627  0.2897
 3797SOL     OW14953   4.571   3.423   5.036  0.0810  0.0983 -0.2366
 3797SOL    HW214954   4.476   3.414   5.040  0.1539 -0.7675 -0.3739
 3797SOL    HW314955   4.605   3.334   5.048  0.9646  0.6984  2.8776
 3797SOL    MW414956   4.563   3.410   5.038 -0.4000 -0.2813  0.2901
 3798SOL     OW14957  -0.003   5.063   1.304  0.8277 -0.0297 -0.6268
 3798SOL    HW214958   0.087   5.033   1.292 -0.2723 -3.9722 -0.3677
 3798SOL    HW314959  -0.004   5.101   1.392  1.5919 -3.4164  1.0232
 3798SOL    MW414960   0.009   5.064   1.314 -0.7544  0.2558 -0.1835
 3799SOL     OW14961   2.511   5.544   2.674 -0.4014  0.0198 -0.0035
 3799SOL    HW214962   2.606   5.538   2.686 -0.4390 -1.2925 -0.2501
 3799SOL    HW314963   2.478   5.459   2.704 -1.1892 -0.7494 -2.8058
 3799SOL    MW414964   2.519   5.532   2.680 -0.0365  0.1658 -0.3813
 3800SOL     OW14965   5.508   4.812   5.620  0.0161 -0.0975  0.4162
 3800SOL    HW214966   5.590   4.822   5.572 -0.5551 -0.1794 -0.6044
 3800SOL    HW314967   5.534   4.781   5.707  1.0559 -0.1030  0.1116
 3800SOL    MW414968   5.522   4.809   5.625 -0.3785 -0.0416  0.1817
 3801SOL     OW14969   5.666   0.964   1.337 -0.1173 -0.3475 -0.2472
 3801SOL    HW214970   5.593   0.912   1.303  0.2515 -0.9138 -0.1857
 3801SOL    HW314971   5.709   0.907   1.400  0.7626 -0.2564 -0.7470
 3801SOL    MW414972   5.662   0.950   1.340  0.0944  0.1631  0.1084
 3802SOL     OW14973   3.945   4.224   4.887  0.5363 -0.0823 -0.2892
 3802SOL    HW214974   3.972   4.144   4.931 -1.3776 -1.6591 -1.7714
 3802SOL    HW314975   4.018   4.285   4.899  1.1790 -1.2745  2.6975
 3802SOL    MW414976   3.958   4.222   4.894 -1.1794 -0.0748  0.7353
 3803SOL     OW14977   2.859   3.064   6.191 -0.4923  0.6346  0.5429
 3803SOL    HW214978   2.775   3.035   6.228 -2.0574  0.3482 -2.8036
 3803SOL    HW314979   2.848   3.158   6.177  0.2254  0.8175  1.2001
 3803SOL    MW414980   2.846   3.072   6.194  0.0853 -0.4590  0.4266
 3804SOL     OW14981   1.568   5.190   2.932  0.0234  0.0108  1.3378
 3804SOL    HW214982   1.633   5.125   2.906 -1.8643 -2.4119  2.3402
 3804SOL    HW314983   1.494   5.176   2.873 -1.1642 -0.1095  2.7983
 3804SOL    MW414984   1.567   5.180   2.921  0.2535 -0.1857  0.1521
 3805SOL     OW14985   5.459   5.364   4.614 -0.1474 -0.5648  0.3663
 3805SOL    HW214986   5.443   5.273   4.588 -1.1656 -0.2907 -0.0033
 3805SOL    HW314987   5.553   5.375   4.605  0.0953 -1.8008  1.1394
 3805SOL    MW414988   5.469   5.354   4.609  0.3627  0.2681  0.1738
 3806SOL     OW14989   0.839   3.733   2.715 -0.0818 -0.1098  0.6796
 3806SOL    HW214990   0.853   3.686   2.633  2.1971 -1.1656  1.5704
 3806SOL    HW314991   0.866   3.823   2.697 -2.0286  0.3290 -0.3487
 3806SOL    MW414992   0.845   3.738   2.702  0.0398 -0.3246 -0.2203
 3807SOL     OW14993   4.355   0.597   2.371 -0.8596 -0.2640 -0.0996
 3807SOL    HW214994   4.322   0.670   2.319 -0.7330 -0.7437 -0.8629
 3807SOL    HW314995   4.418   0.637   2.431 -1.9079  0.4777  0.5424
 3807SOL    MW414996   4.359   0.612   2.372  0.0852  0.0219 -0.2329
 3808SOL     OW14997   4.988   0.964   5.732 -0.4918  0.2839 -0.1953
 3808SOL    HW214998   5.075   0.926   5.740 -0.2150  0.7117 -1.0838
 3808SOL    HW314999   5.003   1.051   5.696 -1.3024  0.2474 -0.6482
 3808SOL    MW415000   5.001   0.970   5.729 -0.1594  0.6265 -0.0091
 3809SOL     OW15001   2.741   3.074   1.337 -0.0311 -0.2914  0.4788
 3809SOL    HW215002   2.757   3.031   1.252  1.0381 -0.5013  0.7736
 3809SOL    HW315003   2.763   3.166   1.321  1.7769 -0.5982  0.9154
 3809SOL    MW415004   2.746   3.080   1.324 -0.2861 -0.2582 -0.0432
 3810SOL     OW15005   3.410   1.388   2.669 -0.2317 -0.9869 -0.0180
 3810SOL    HW215006   3.484   1.384   2.730  0.1421  1.3250 -0.2165
 3810SOL    HW315007   3.449   1.370   2.584 -0.1866 -1.2370  0.0543
 3810SOL    MW415008   3.425   1.385   2.666 -0.0257  0.0774 -0.4015
 3811SOL     OW15009   5.619   2.909   3.013 -0.4540  0.0899 -0.3664
 3811SOL    HW215010   5.569   2.879   3.090  0.3288 -0.6433 -0.1248
 3811SOL    HW315011   5.592   3.000   3.001 -0.2897  0.3485  1.0351
 3811SOL    MW415012   5.609   2.917   3.022  0.0218  0.1065  0.0503
 3812SOL     OW15013   1.544   5.107   3.907  0.2789  0.7105  0.2863
 3812SOL    HW215014   1.517   5.018   3.886 -2.9672  1.7870 -0.7146
 3812SOL    HW315015   1.558   5.107   4.002  2.6971 -1.3015  0.0454
 3812SOL    MW415016   1.543   5.095   3.917 -0.0220 -0.1316 -0.3399
 3813SOL     OW15017   2.066   0.862   0.405 -0.1324  0.1633 -0.5574
 3813SOL    HW215018   2.153   0.835   0.434 -1.3828 -0.2571  3.4913
 3813SOL    HW315019   2.074   0.956   0.388  0.7586  0.6652  2.0718
 3813SOL    MW415020   2.079   0.871   0.407  0.2344 -0.1175  0.4461
 3814SOL     OW15021   5.641   6.405   4.744 -0.4755 -0.1552  0.1134
 3814SOL    HW215022   5.605   6.385   4.830 -0.8012  0.5685  0.1596
 3814SOL    HW315023   5.617   6.497   4.729  0.4230  0.0196 -0.3294
 3814SOL    MW415024   5.633   6.415   4.753 -0.1000  0.5109 -0.6587
 3815SOL     OW15025   0.509   3.519   6.352 -0.0084 -0.1517  0.2135
 3815SOL    HW215026   0.513   3.612   6.329  0.4581 -0.5645 -1.5138
 3815SOL    HW315027   0.492   3.518   6.446  1.1105  1.6864  0.4778
 3815SOL    MW415028   0.507   3.531   6.362  0.4312  0.2564 -0.3209
 3816SOL     OW15029   2.399   5.803   1.639  0.5795 -0.4433  0.0134
 3816SOL    HW215030   2.324   5.837   1.688  0.0028 -1.4082 -0.1600
 3816SOL    HW315031   2.365   5.724   1.596  1.2959 -0.0607 -1.2937
 3816SOL    MW415032   2.385   5.797   1.640 -0.1926 -0.2808  0.1623
 3817SOL     OW15033   4.309   0.313   5.548 -0.9614 -0.4827 -0.4722
 3817SOL    HW215034   4.239   0.349   5.493 -2.1128  0.2765  1.4172
 3817SOL    HW315035   4.266   0.286   5.629  0.9322  0.1528  0.8355
 3817SOL    MW415036   4.294   0.315   5.551  0.3122  0.5079 -0.5908
 3818SOL     OW15037   1.062   1.341   1.881 -0.2324  0.8383  0.3206
 3818SOL    HW215038   1.023   1.272   1.935 -0.3507  1.0062  0.4501
 3818SOL    HW315039   1.003   1.349   1.807 -0.2282  0.8133  0.3144
 3818SOL    MW415040   1.049   1.333   1.879 -0.3292 -0.2743 -0.5501
 3819SOL     OW15041   1.889   0.482   2.222  0.5042 -0.2768  0.0435
 3819SOL    HW215042   1.892   0.410   2.158  1.5740 -0.4152  0.2260
 3819SOL    HW315043   1.902   0.561   2.169 -0.5650 -0.2148 -0.1442
 3819SOL    MW415044   1.892   0.483   2.206 -0.0276  0.0159  0.3064
 3820SOL     OW15045   5.620   2.657   2.439 -0.0268  0.1823 -0.4855
 3820SOL    HW215046   5.542   2.664   2.495  1.4121 -1.1042  1.8447
 3820SOL    HW315047   5.596   2.591   2.374 -0.7725 -0.5276  0.4657
 3820SOL    MW415048   5.607   2.649   2.438  0.6634  0.1260 -0.3544
 3821SOL     OW15049   1.187   5.846   5.292 -0.4010 -0.1686  0.2930
 3821SOL    HW215050   1.232   5.925   5.264 -1.7509  0.4895 -0.0800
 3821SOL    HW315051   1.155   5.806   5.211 -3.1759  1.0562  0.6422
 3821SOL    MW415052   1.189   5.851   5.278  0.1610 -0.0898  0.1018
 3822SOL     OW15053   1.550   0.500   1.214  0.1080  0.7736  0.2906
 3822SOL    HW215054   1.600   0.581   1.202 -0.0000  0.7206 -0.5560
 3822SOL    HW315055   1.459   0.525   1.199  0.1552  0.3373 -0.8043
 3822SOL    MW415056   1.545   0.514   1.210  0.0385 -0.1109  0.2271
 3823SOL     OW15057   2.283   2.529   6.167  0.3254  0.1628 -0.0449
 3823SOL    HW215058   2.222   2.460   6.139  0.8143 -0.2882 -0.0175
 3823SOL    HW315059   2.348   2.533   6.098  0.4989  0.3444  0.1290
 3823SOL    MW415060   2.283   2.520   6.154  0.7048 -0.1689 -0.2876
 3824SOL     OW15061   3.550   1.473   6.056 -0.0364 -0.0373 -0.3725
 3824SOL    HW215062   3.469   1.524   6.062  0.8775  1.2764  1.4718
 3824SOL    HW315063   3.611   1.532   6.012  0.5288 -0.2137  0.1791
 3824SOL    MW415064   3.547   1.487   6.051 -0.1483  0.6112  0.2617
 3825SOL     OW15065   2.686   0.838   1.705  0.8561  0.1464  0.2359
 3825SOL    HW215066   2.714   0.920   1.664  0.3444  1.8520  3.0297
 3825SOL    HW315067   2.608   0.812   1.657  2.1805  0.0899 -2.0309
 3825SOL    MW415068   2.679   0.845   1.693 -0.1793  0.0091  0.9342
 3826SOL     OW15069   1.859   2.055   5.441  0.3986  0.1023 -0.5188
 3826SOL    HW215070   1.775   2.016   5.462  0.0703  0.0382 -1.8428
 3826SOL    HW315071   1.848   2.149   5.458  0.1343  0.0591 -0.4582
 3826SOL    MW415072   1.847   2.062   5.446  0.2541  0.1017  0.5182
 3827SOL     OW15073   4.615   4.492   4.997 -0.9350 -0.5893  0.7019
 3827SOL    HW215074   4.614   4.587   4.986 -0.0030 -0.1717  3.4098
 3827SOL    HW315075   4.564   4.477   5.077  0.8457 -2.1042  1.6311
 3827SOL    MW415076   4.608   4.502   5.006 -0.0232  0.4160  0.2411
 3828SOL     OW15077   5.974   4.018   1.528  0.4159 -0.3374 -0.3546
 3828SOL    HW215078   5.885   3.984   1.533 -0.1912  1.0665 -1.1344
 3828SOL    HW315079   6.019   3.976   1.602 -1.0752 -0.5228  0.4944
 3828SOL    MW415080   5.968   4.008   1.539 -0.4130  0.0379  0.0588
 3829SOL     OW15081   2.887   0.035   0.525 -0.7563 -0.0571  1.3972
 3829SOL    HW215082   2.965   0.041   0.471 -1.7701  0.1620 -0.1063
 3829SOL    HW315083   2.854   0.125   0.531 -1.7645 -0.3581  0.6479
 3829SOL    MW415084   2.893   0.048   0.519  0.8311  0.7371  0.7282
 3830SOL     OW15085   0.045   0.358   1.618  0.0798  0.3723 -0.4765
 3830SOL    HW215086   0.103   0.420   1.662 -0.3823  1.4194 -1.3157
 3830SOL    HW315087   0.102   0.286   1.592  0.8015  0.8949 -0.3585
 3830SOL    MW415088   0.060   0.357   1.621  0.3217  0.6617 -0.0468
 3831SOL     OW15089   3.676   0.722   1.612 -0.2945 -0.2988  0.4990
 3831SOL    HW215090   3.719   0.740   1.696 -0.9766  0.4595  0.7098
 3831SOL    HW315091   3.647   0.631   1.618  0.5138 -0.5486  0.6901
 3831SOL    MW415092   3.678   0.713   1.624  0.3806 -0.1524  0.1882
 3832SOL     OW15093   3.060   4.840   4.816 -0.3966 -0.2528  0.4929
 3832SOL    HW215094   3.071   4.929   4.784 -1.5866 -0.0306  0.6716
 3832SOL    HW315095   3.013   4.795   4.746 -0.8743 -0.4137  0.9154
 3832SOL    MW415096   3.056   4.846   4.803  0.1581  0.1926  0.8439
 3833SOL     OW15097   4.826   4.324   2.885  0.2640 -0.1695  0.2130
 3833SOL    HW215098   4.820   4.357   2.974 -0.6904 -2.8411  1.2426
 3833SOL    HW315099   4.920   4.309   2.871  0.3801 -0.1331  0.9279
 3833SOL    MW415100   4.838   4.326   2.895  0.1184 -0.3604 -0.1372
 3834SOL     OW15101   5.454   3.169   2.709 -0.3040  0.1040  0.4750
 3834SOL    HW215102   5.462   3.167   2.804  1.5729  1.9143  0.4239
 3834SOL    HW315103   5.363   3.193   2.693 -0.8428 -0.9075  1.7540
 3834SOL    MW415104   5.443   3.172   2.719 -0.0599 -0.3549 -1.0216
 3835SOL     OW15105   0.380   6.167   3.653 -0.2032 -0.0496 -0.1096
 3835SOL    HW215106   0.389   6.187   3.746  2.4094  1.7299 -0.6055
 3835SOL    HW315107   0.344   6.248   3.615 -2.3118 -1.1403 -0.5726
 3835SOL    MW415108   0.377   6.181   3.660 -0.1776  0.6925 -0.1403
 3836SOL     OW15109   6.172   5.040   3.122  0.0854  0.4984 -0.5961
 3836SOL    HW215110   6.198   5.131   3.138 -1.2201  0.9037 -0.6919
 3836SOL    HW315111   6.154   5.004   3.208  1.9308 -0.1270 -0.4168
 3836SOL    MW415112   6.173   5.047   3.135  0.6304  0.4033 -0.4108
 3837SOL     OW15113   3.847   3.579   2.236  0.1465  0.2725  0.0229
 3837SOL    HW215114   3.812   3.602   2.150 -0.2316 -1.1990 -0.2465
 3837SOL    HW315115   3.770   3.557   2.288  0.4749 -0.2396  0.2981
 3837SOL    MW415116   3.832   3.579   2.232 -0.1528 -0.7002 -0.4204
 3838SOL     OW15117   6.010   0.464   5.624  0.4947  0.0739  0.1252
 3838SOL    HW215118   6.104   0.452   5.616  0.3406 -1.5840  0.4242
 3838SOL    HW315119   5.976   0.376   5.641 -0.8299  0.9794  2.6317
 3838SOL    MW415120   6.018   0.451   5.625  0.3599 -0.1376 -0.1684
 3839SOL     OW15121   2.122   3.310   4.661 -0.0408 -0.1321  0.2015
 3839SOL    HW215122   2.206   3.331   4.702 -0.1388  0.6934 -0.0153
 3839SOL    HW315123   2.084   3.395   4.640 -1.1194 -0.4904  0.6775
 3839SOL    MW415124   2.128   3.324   4.664 -0.4532  0.3168  0.0113
 3840SOL     OW15125   6.104   4.645   1.307  0.6172  0.0110 -0.8454
 3840SOL    HW215126   6.190   4.687   1.298  2.1110 -1.8304  2.8294
 3840SOL    HW315127   6.064   4.686   1.383 -1.0972 -0.3130 -1.5223
 3840SOL    MW415128   6.110   4.656   1.316 -0.0224  0.5320 -0.1086
 3841SOL     OW15129   2.830   2.170   1.819 -0.4322 -0.2131 -0.1396
 3841SOL    HW215130   2.817   2.168   1.724 -1.0989  1.1445 -0.0969
 3841SOL    HW315131   2.755   2.123   1.854 -0.9000  0.4398 -0.2439
 3841SOL    MW415132   2.819   2.163   1.811 -0.2714 -0.5719 -0.2025
 3842SOL     OW15133   5.575   0.265   2.366  0.0676  0.2538  0.0049
 3842SOL    HW215134   5.595   0.353   2.397  1.2929 -0.2883  0.8143
 3842SOL    HW315135   5.538   0.278   2.278 -1.0146  1.6380  0.6362
 3842SOL    MW415136   5.573   0.278   2.358 -0.7868  1.0367  0.3429
 3843SOL     OW15137   1.642   2.015   1.797  0.2750  0.2305  0.1973
 3843SOL    HW215138   1.701   1.943   1.777 -0.2731  0.2084 -1.5028
 3843SOL    HW315139   1.698   2.081   1.839  1.5854  0.2827 -1.5289
 3843SOL    MW415140   1.657   2.014   1.800  0.4960 -0.0613 -0.6112
 3844SOL     OW15141   1.978   0.357   6.348  0.2730 -0.4789 -0.1767
 3844SOL    HW215142   2.042   0.346   6.419 -0.1598  0.0862  0.3061
 3844SOL    HW315143   2.025   0.327   6.270  0.7098 -1.2442  0.3595
 3844SOL    MW415144   1.993   0.351   6.347 -0.2939  0.4057 -0.0034
 3845SOL     OW15145   0.489   2.813   0.285  0.3076  0.3197  0.0278
 3845SOL    HW215146   0.475   2.837   0.194  1.0863 -1.5335 -0.6156
 3845SOL    HW315147   0.583   2.828   0.300  0.4091 -0.4407  0.1875
 3845SOL    MW415148   0.500   2.818   0.275  0.7100 -0.2750 -0.3539
 3846SOL     OW15149   0.958   4.468   0.033  0.1242  0.1460  0.0517
 3846SOL    HW215150   1.039   4.423   0.057 -0.1923  0.3545  1.6253
 3846SOL    HW315151   0.939   4.525   0.108 -0.8081  1.0539 -0.8349
 3846SOL    MW415152   0.966   4.470   0.046 -0.3195  0.3769  0.0320
 3847SOL     OW15153   1.584   1.725   5.978  0.0349 -0.1765 -0.8515
 3847SOL    HW215154   1.597   1.667   5.904  0.0599  0.2733 -1.2009
 3847SOL    HW315155   1.531   1.674   6.040  0.3904 -0.7085 -0.9825
 3847SOL    MW415156   1.579   1.710   5.977  0.5234  0.0492  0.2878
 3848SOL     OW15157   5.070   0.146   3.989  0.1851  0.4655  0.4976
 3848SOL    HW215158   5.055   0.061   3.948  0.0063  0.6835  0.1091
 3848SOL    HW315159   5.154   0.175   3.954  0.2402  0.4540  0.6208
 3848SOL    MW415160   5.079   0.138   3.979  0.7124 -0.1965  0.4232
 3849SOL     OW15161   3.904   0.083   0.913  0.2832 -0.1650 -0.1256
 3849SOL    HW215162   3.984   0.115   0.953 -0.0430 -0.8067  1.0777
 3849SOL    HW315163   3.927  -0.004   0.880  1.6598  1.6457 -4.8733
 3849SOL    MW415164   3.918   0.076   0.914  0.6097  0.4262 -0.3434
 3850SOL     OW15165   4.935   4.209   4.349  0.1333  0.1332 -0.1383
 3850SOL    HW215166   4.977   4.125   4.369 -0.4572 -0.1031  0.1368
 3850SOL    HW315167   4.978   4.239   4.268 -0.4575 -0.9960 -0.8947
 3850SOL    MW415168   4.946   4.202   4.341 -0.1556  0.7436  0.1441
 3851SOL     OW15169   5.218   2.199   5.640  0.5066  0.1033  0.0926
 3851SOL    HW215170   5.287   2.175   5.578  0.7840 -0.7064  0.7088
 3851SOL    HW315171   5.198   2.290   5.619  0.3845 -0.2417 -1.3957
 3851SOL    MW415172   5.224   2.208   5.629  0.1118 -0.2170  0.6437
 3852SOL     OW15173   2.461   3.112   3.451  0.3544  0.3784 -0.6894
 3852SOL    HW215174   2.534   3.131   3.392  1.3559  0.9732  0.6864
 3852SOL    HW315175   2.398   3.181   3.435 -0.2013 -0.4488 -2.2914
 3852SOL    MW415176   2.462   3.123   3.441  0.8605  0.2515 -0.0718
 3853SOL     OW15177   6.270   4.249   3.969  0.2451 -0.8385  0.4886
 3853SOL    HW215178   6.196   4.310   3.966 -0.0973 -1.2903 -0.4672
 3853SOL    HW315179   6.333   4.292   4.028 -0.7223 -0.4088  1.2461
 3853SOL    MW415180   6.269   4.263   3.977  0.1584  0.5925 -0.0764
 3854SOL     OW15181   2.289   4.058   1.673  0.0237  0.1637  0.1726
 3854SOL    HW215182   2.323   4.064   1.584 -2.0031 -0.6140 -0.7343
 3854SOL    HW315183   2.232   4.135   1.681 -0.7626 -0.4274  0.3278
 3854SOL    MW415184   2.286   4.069   1.662  0.2137  0.0632 -0.5939
 3855SOL     OW15185   5.690   5.202   0.009  0.1169 -0.0435  0.1225
 3855SOL    HW215186   5.710   5.179   0.100 -0.1573 -1.3495 -0.1270
 3855SOL    HW315187   5.599   5.176  -0.003  0.1162  0.2127 -0.5092
 3855SOL    MW415188   5.681   5.196   0.019  0.3296 -0.2318  0.1093
 3856SOL     OW15189   0.166   5.592   5.159  0.3328 -0.0644  0.1088
 3856SOL    HW215190   0.242   5.601   5.102  1.1080 -0.6621  1.0329
 3856SOL    HW315191   0.093   5.575   5.099  1.2258 -1.2787 -0.6712
 3856SOL    MW415192   0.166   5.591   5.144 -0.1682 -0.3013 -0.1833
 3857SOL     OW15193   2.798   2.727   1.588 -0.0384  0.0776 -0.1347
 3857SOL    HW215194   2.829   2.643   1.622 -0.7541  0.4547  1.5541
 3857SOL    HW315195   2.817   2.723   1.495  1.5557 -1.2480  0.1861
 3857SOL    MW415196   2.805   2.715   1.581 -0.1627 -0.3462 -0.4897
 3858SOL     OW15197   5.005   5.623   3.155 -0.8328  0.5014 -0.2835
 3858SOL    HW215198   5.000   5.648   3.063 -1.0520 -2.4899 -1.1867
 3858SOL    HW315199   4.949   5.546   3.162 -0.2672  0.2208  2.2231
 3858SOL    MW415200   4.997   5.616   3.144  0.0356 -0.2573  0.1794
 3859SOL     OW15201   2.566   1.901   6.038  0.4777  0.5403  0.4572
 3859SOL    HW215202   2.590   1.988   6.069 -1.0607  1.0359  0.3371
 3859SOL    HW315203   2.491   1.876   6.092  0.8484 -0.6755  0.4308
 3859SOL    MW415204   2.559   1.909   6.049  0.4504 -0.2075  0.2813
 3860SOL     OW15205   2.187   1.810   0.474 -0.5407  0.1435 -0.0287
 3860SOL    HW215206   2.115   1.758   0.510 -2.5864  1.1915 -2.2857
 3860SOL    HW315207   2.225   1.755   0.406  0.8104 -0.3717  1.0966
 3860SOL    MW415208   2.182   1.796   0.470  0.0767 -0.3912  0.4195
 3861SOL     OW15209   3.518   2.626   0.689  0.1752 -0.5853  0.5014
 3861SOL    HW215210   3.525   2.534   0.713 -1.9582 -1.5794 -2.1095
 3861SOL    HW315211   3.591   2.640   0.628  0.2825 -0.6375  0.6169
 3861SOL    MW415212   3.529   2.616   0.684  0.3803 -0.2623  0.2537
 3862SOL     OW15213   3.521   6.298   1.779 -0.0674  0.1575 -0.5001
 3862SOL    HW215214   3.428   6.289   1.798  0.2197 -0.3154  0.8279
 3862SOL    HW315215   3.543   6.386   1.809  0.2423 -0.3439  0.8421
 3862SOL    MW415216   3.512   6.308   1.786 -0.1613  0.7395  0.4250
 3863SOL     OW15217   1.514   6.045   0.122  0.5491  0.0419 -0.2505
 3863SOL    HW215218   1.450   6.024   0.054  1.8241 -1.8927 -0.9384
 3863SOL    HW315219   1.556   6.125   0.090 -0.8447  0.8091 -0.2450
 3863SOL    MW415220   1.511   6.053   0.108 -0.3314 -0.4315  0.2479
 3864SOL     OW15221   2.230   0.714   2.247 -0.0865  0.2385  0.5448
 3864SOL    HW215222   2.252   0.696   2.338  0.1648  0.2429  0.4887
 3864SOL    HW315223   2.231   0.628   2.205  0.8167  0.3329  0.3383
 3864SOL    MW415224   2.233   0.700   2.253 -0.0072 -0.2855 -0.1377
 3865SOL     OW15225   3.695   1.029   0.525 -0.3614 -0.1229 -0.0048
 3865SOL    HW215226   3.665   1.119   0.518  1.1407  0.4297  0.2043
 3865SOL    HW315227   3.788   1.033   0.505 -0.1929 -1.5762  0.3450
 3865SOL    MW415228   3.703   1.041   0.522 -0.3289  0.4435  0.1496
 3866SOL     OW15229   5.315   5.904   1.316  0.1659 -0.7093 -0.8042
 3866SOL    HW215230   5.409   5.895   1.332  0.2770 -0.2156 -1.1415
 3866SOL    HW315231   5.302   5.867   1.229  0.0613 -0.6995 -0.7927
 3866SOL    MW415232   5.326   5.898   1.306  0.6505 -0.1128 -0.1593
 3867SOL     OW15233   3.858   4.899   5.380  0.0914  0.3655 -0.5955
 3867SOL    HW215234   3.832   4.836   5.447 -0.1463  1.2395  0.1554
 3867SOL    HW315235   3.776   4.941   5.354  0.4417  1.6574  0.2637
 3867SOL    MW415236   3.843   4.896   5.386  0.2429 -0.1016  0.5873
 3868SOL     OW15237   2.967   3.395   2.335 -0.6345 -1.4129  0.4725
 3868SOL    HW215238   2.952   3.404   2.241 -1.3193 -1.5053  0.5716
 3868SOL    HW315239   2.922   3.470   2.374  1.5833 -0.0241  0.5773
 3868SOL    MW415240   2.959   3.406   2.328  0.3257  0.0517  0.1223
 3869SOL     OW15241   1.135   4.887   0.966  0.0599  0.5993 -0.1088
 3869SOL    HW215242   1.147   4.978   0.939 -0.5194  0.7422  0.0973
 3869SOL    HW315243   1.066   4.891   1.032  1.8422  0.3484  1.8759
 3869SOL    MW415244   1.127   4.899   0.971  0.2985 -0.2057  0.6885
 3870SOL     OW15245   5.126   1.393   0.627 -0.0193 -0.0623 -0.3534
 3870SOL    HW215246   5.055   1.384   0.563  0.8677 -1.0377 -1.2356
 3870SOL    HW315247   5.183   1.318   0.610  1.1906  0.6648  0.3895
 3870SOL    MW415248   5.124   1.381   0.616 -0.2350 -0.2465  0.7701
 3871SOL     OW15249   4.773   6.300   1.686  0.3492  0.2431  0.3286
 3871SOL    HW215250   4.747   6.219   1.729  0.9884  0.8661  1.9554
 3871SOL    HW315251   4.694   6.329   1.640 -0.6297 -0.0171  1.7845
 3871SOL    MW415252   4.759   6.293   1.685 -0.3440  0.3094 -0.2238
 3872SOL     OW15253   4.799   5.209   6.286  0.5852 -0.0326 -0.0792
 3872SOL    HW215254   4.725   5.252   6.245  0.4626 -0.1027  0.0670
 3872SOL    HW315255   4.760   5.154   6.355  0.9211  1.8955  1.7520
 3872SOL    MW415256   4.784   5.207   6.290  0.4680  0.1016  0.6975
 3873SOL     OW15257   6.050   1.206   0.609  0.5040 -0.0669 -0.1593
 3873SOL    HW215258   6.002   1.181   0.688  1.0608 -0.9096 -0.0662
 3873SOL    HW315259   6.043   1.301   0.605 -0.7831 -0.1368  0.0824
 3873SOL    MW415260   6.043   1.215   0.619 -0.3972 -0.4259 -0.5005
 3874SOL     OW15261   0.440   0.237   2.759 -0.6509 -0.3165  0.0454
 3874SOL    HW215262   0.491   0.158   2.779 -0.7739 -0.5354 -0.4848
 3874SOL    HW315263   0.391   0.255   2.839 -0.5265 -0.7109  0.2120
 3874SOL    MW415264   0.440   0.229   2.772 -0.2789 -0.1539  0.6557
 3875SOL     OW15265   2.006   2.350   0.173 -0.0125  0.0573  0.0146
 3875SOL    HW215266   1.957   2.328   0.252  0.0572 -0.1660 -0.0056
 3875SOL    HW315267   2.023   2.444   0.181  0.0450  0.0237  0.2928
 3875SOL    MW415268   2.002   2.360   0.185  0.0942  0.1567 -0.0629
 3876SOL     OW15269   0.434   2.950   0.881  0.2090 -0.8389  0.3047
 3876SOL    HW215270   0.436   2.895   0.959 -4.2643 -1.8683 -0.0021
 3876SOL    HW315271   0.369   2.907   0.824  0.3864  1.9889 -2.2477
 3876SOL    MW415272   0.426   2.937   0.883 -0.4244 -0.1322  0.6119
 3877SOL     OW15273   5.959   0.601   3.909  0.6316  0.1424  0.3159
 3877SOL    HW215274   6.033   0.543   3.891 -1.0625 -1.7569 -0.9316
 3877SOL    HW315275   5.929   0.576   3.996  1.0963  0.5629  0.6070
 3877SOL    MW415276   5.965   0.590   3.918  1.0875  0.2419  0.1348
 3878SOL     OW15277   3.610   2.223   4.792 -0.2610  0.1393  0.0707
 3878SOL    HW215278   3.682   2.190   4.846 -0.7849 -0.0063  0.6895
 3878SOL    HW315279   3.561   2.145   4.765 -0.6833  0.2980  0.3672
 3878SOL    MW415280   3.613   2.209   4.796  0.4625 -0.2307  0.0860
 3879SOL     OW15281   6.357   3.650   2.827 -0.0421 -0.0940 -0.3465
 3879SOL    HW215282   6.304   3.722   2.793 -0.2503  0.1767  0.5262
 3879SOL    HW315283   6.297   3.575   2.829 -0.5690  0.3344  1.1194
 3879SOL    MW415284   6.342   3.649   2.823  0.3990  0.4364 -0.1390
 3880SOL     OW15285   0.751   0.972   2.744  0.4288  0.2067 -0.3504
 3880SOL    HW215286   0.753   0.971   2.648 -1.9471  1.4083 -0.4831
 3880SOL    HW315287   0.745   0.879   2.769  1.5569 -0.1483 -1.2890
 3880SOL    MW415288   0.751   0.959   2.735 -0.0672  0.1657 -0.0618
 3881SOL     OW15289   1.894   5.141   3.464  0.3067 -0.1246  0.0030
 3881SOL    HW215290   1.910   5.157   3.371  1.0844  2.1786  0.4692
 3881SOL    HW315291   1.870   5.226   3.500 -3.1685 -1.5054  1.3944
 3881SOL    MW415292   1.893   5.154   3.456  0.5160  0.2828  0.0456
 3882SOL     OW15293   3.380   3.058   3.847  0.6602  0.7242 -0.6086
 3882SOL    HW215294   3.316   3.062   3.918  1.9520  3.6406  0.5954
 3882SOL    HW315295   3.442   2.990   3.874  0.0660  0.4445  0.0722
 3882SOL    MW415296   3.380   3.050   3.860 -0.1588 -0.2385 -0.0977
 3883SOL     OW15297   3.414   1.943   5.150 -0.1051  0.1530  0.0129
 3883SOL    HW215298   3.438   1.873   5.211  0.6707  1.2495  1.0117
 3883SOL    HW315299   3.494   1.964   5.103 -0.3074  0.4268 -0.2203
 3883SOL    MW415300   3.427   1.937   5.152 -0.2009  0.0246 -0.1900
 3884SOL     OW15301   4.347   4.358   1.737  0.1880 -0.7161 -0.5130
 3884SOL    HW215302   4.268   4.376   1.789  0.4560  0.9233 -0.6242
 3884SOL    HW315303   4.321   4.286   1.679 -0.6348 -1.4508  0.7133
 3884SOL    MW415304   4.333   4.351   1.736  0.1136  0.1820 -0.7286
 3885SOL     OW15305   6.283   2.019   0.994 -0.3889  0.0317  0.2119
 3885SOL    HW215306   6.331   2.032   1.076 -0.9350  0.9936  0.3943
 3885SOL    HW315307   6.196   2.055   1.011 -1.0980 -1.4136 -0.2111
 3885SOL    MW415308   6.278   2.026   1.007  0.0257  0.3613 -0.3545
 3886SOL     OW15309   2.653   4.297   1.574  0.7523  0.0062  0.4884
 3886SOL    HW215310   2.635   4.390   1.562  0.4514 -0.0803  0.2747
 3886SOL    HW315311   2.632   4.280   1.666 -1.3929 -0.3469 -0.0182
 3886SOL    MW415312   2.648   4.307   1.585 -0.0237 -0.2193 -0.6733
 3887SOL     OW15313   1.807   0.029   3.063  0.1205  0.7748 -0.3385
 3887SOL    HW215314   1.867  -0.026   3.013 -1.1171 -0.2544 -0.7409
 3887SOL    HW315315   1.802  -0.013   3.149 -1.7052 -0.4574 -1.0016
 3887SOL    MW415316   1.815   0.016   3.068  0.3585 -0.1866  0.2764
 3888SOL     OW15317   5.352   0.742   3.104 -0.1654  0.2200 -0.2855
 3888SOL    HW215318   5.317   0.771   3.189  0.0119  0.9141 -0.4515
 3888SOL    HW315319   5.441   0.776   3.101  0.7263 -1.8893  0.3129
 3888SOL    MW415320   5.359   0.750   3.115  0.1740 -0.3661  0.3952
 3889SOL     OW15321   2.425   0.863   4.924  0.1713 -0.9259  0.1197
 3889SOL    HW215322   2.443   0.953   4.898  1.7688 -1.2722 -0.0881
 3889SOL    HW315323   2.469   0.809   4.858 -0.2454 -1.8607  0.5712
 3889SOL    MW415324   2.433   0.867   4.912  0.2484 -0.0970 -0.3919
 3890SOL     OW15325   1.944   3.673   2.253  0.2451 -1.0169  0.4020
 3890SOL    HW215326   1.909   3.642   2.336 -0.4560  0.4706  0.6831
 3890SOL    HW315327   1.887   3.746   2.228  2.8106  1.2886  0.7129
 3890SOL    MW415328   1.932   3.679   2.261  0.0067 -0.8186 -0.3296
 3891SOL     OW15329   0.301   6.188   4.840 -0.2051 -0.0956  0.2800
 3891SOL    HW215330   0.361   6.255   4.808  1.4054 -1.7324 -0.3507
 3891SOL    HW315331   0.241   6.234   4.898  1.5534  1.6724  0.7981
 3891SOL    MW415332   0.301   6.203   4.843  0.1293 -0.0564  0.0230
 3892SOL     OW15333   0.011   2.523   6.013  0.4768 -0.4040  0.0606
 3892SOL    HW215334  -0.063   2.573   5.977 -0.5657 -1.3193  0.8603
 3892SOL    HW315335   0.088   2.576   5.991 -0.4043  0.6020 -0.7601
 3892SOL    MW415336   0.011   2.536   6.005  0.0439  0.6838 -0.4749
 3893SOL     OW15337   4.290   0.519   3.920  0.4097 -0.3448 -0.0745
 3893SOL    HW215338   4.367   0.536   3.973  0.2256 -0.7650  0.3294
 3893SOL    HW315339   4.255   0.606   3.899  1.2293 -0.1399 -0.6182
 3893SOL    MW415340   4.295   0.532   3.924  0.0563  0.3918 -0.2419
 3894SOL     OW15341   0.784   1.452   3.837  0.5799  0.4162 -0.8279
 3894SOL    HW215342   0.756   1.426   3.749  3.8489 -1.7669 -1.4334
 3894SOL    HW315343   0.785   1.370   3.887  0.7483  1.2678  0.6178
 3894SOL    MW415344   0.781   1.438   3.832  0.1487  0.4496 -0.0993
 3895SOL     OW15345   3.793   5.832   3.587  0.1213  0.1976 -0.0583
 3895SOL    HW215346   3.873   5.829   3.535  1.3955 -1.0445  1.8341
 3895SOL    HW315347   3.723   5.846   3.523  1.9558  3.6549 -1.6003
 3895SOL    MW415348   3.794   5.833   3.572  0.0815  0.2415  0.2362
 3896SOL     OW15349   4.177   6.232   2.762  0.0438 -0.0455 -0.0052
 3896SOL    HW215350   4.191   6.198   2.674 -1.0074 -1.3517  0.2996
 3896SOL    HW315351   4.091   6.275   2.758  0.0907  0.0817  0.3181
 3896SOL    MW415352   4.167   6.233   2.750  0.2798  0.3779  0.0568
 3897SOL     OW15353   4.038   5.334   2.381  0.3656  0.4979  0.5031
 3897SOL    HW215354   4.110   5.271   2.376 -0.0351  0.1404 -2.3071
 3897SOL    HW315355   3.989   5.309   2.459  0.7280 -2.1405 -0.0390
 3897SOL    MW415356   4.041   5.323   2.390 -0.3585 -0.5669 -0.3673
 3898SOL     OW15357   0.317   0.907   5.411  1.1625  0.1687  0.4460
 3898SOL    HW215358   0.294   0.945   5.496 -0.3830 -1.4352  0.8027
 3898SOL    HW315359   0.240   0.923   5.356  0.3869 -2.4199  0.6505
 3898SOL    MW415360   0.304   0.914   5.415 -0.7934 -0.2980  0.6868
 3899SOL     OW15361   5.321   0.633   2.064  0.3629  0.3430 -0.6618
 3899SOL    HW215362   5.346   0.582   2.141 -0.0318  1.4069  0.1850
 3899SOL    HW315363   5.240   0.591   2.033  0.0104  0.4818  0.0577
 3899SOL    MW415364   5.314   0.621   2.070  0.6916 -0.5232 -0.3924
 3900SOL     OW15365   3.108   4.330   5.007 -0.8605 -0.4910  0.1127
 3900SOL    HW215366   3.074   4.273   4.937 -0.6170  0.6038 -0.9396
 3900SOL    HW315367   3.098   4.419   4.972 -0.4847  0.0695  1.3807
 3900SOL    MW415368   3.102   4.334   4.993  0.2659 -0.3384  0.2283
 3901SOL     OW15369   6.401   5.570   6.261  0.4344 -0.0896 -0.0304
 3901SOL    HW215370   6.493   5.586   6.241 -0.0612  0.9575 -1.6647
 3901SOL    HW315371   6.364   5.533   6.181 -0.3572 -1.5439  0.9512
 3901SOL    MW415372   6.408   5.567   6.248 -0.3449 -0.2512 -0.2508
 3902SOL     OW15373   4.668   2.898   5.542 -0.0213  0.5004 -0.8477
 3902SOL    HW215374   4.621   2.818   5.518  0.4594  0.1403 -0.5852
 3902SOL    HW315375   4.649   2.910   5.635  1.6841 -0.5238 -0.3398
 3902SOL    MW415376   4.659   2.889   5.551 -0.0159 -0.2111  0.8273
 3903SOL     OW15377   2.581   6.128   3.682  0.3397  0.2404  0.0341
 3903SOL    HW215378   2.489   6.128   3.657  0.3718  0.7305 -0.0969
 3903SOL    HW315379   2.580   6.121   3.778  0.1351  1.1025  0.1063
 3903SOL    MW415380   2.569   6.127   3.692  0.3935 -0.0684 -0.0420
 3904SOL     OW15381   5.566   5.607   0.200 -0.3981 -0.1479 -0.2695
 3904SOL    HW215382   5.529   5.681   0.152 -1.1034  0.7184  1.4941
 3904SOL    HW315383   5.505   5.535   0.185 -0.4451  0.0146 -0.8894
 3904SOL    MW415384   5.553   5.607   0.192  0.1113  0.0379  0.2157
 3905SOL     OW15385   6.166   2.317   3.180 -0.0065  0.7977 -0.1272
 3905SOL    HW215386   6.234   2.371   3.219 -0.3356  0.4528  0.9627
 3905SOL    HW315387   6.105   2.379   3.140 -0.2563  1.2316  0.8988
 3905SOL    MW415388   6.167   2.332   3.180 -0.3526  0.0047 -0.4968
 3906SOL     OW15389   5.018   3.157   1.858 -0.5308  0.1312  0.4264
 3906SOL    HW215390   4.950   3.091   1.869 -1.1950  0.6212 -0.5542
 3906SOL    HW315391   5.010   3.185   1.767 -0.1765  1.4598  0.7709
 3906SOL    MW415392   5.008   3.152   1.847 -0.2431  0.2421  0.1230
 3907SOL     OW15393   1.710   1.960   3.189 -0.4558  0.4019 -0.2017
 3907SOL    HW215394   1.625   2.004   3.187  0.3785  2.2717  1.9064
 3907SOL    HW315395   1.713   1.917   3.274  0.3909 -0.3669 -0.6055
 3907SOL    MW415396   1.699   1.960   3.200  0.1694  0.0574  0.0434
 3908SOL     OW15397   3.958   2.899   1.312  0.1340 -0.5478  0.0778
 3908SOL    HW215398   4.018   2.825   1.296 -0.3969 -1.2860  1.3299
 3908SOL    HW315399   3.883   2.881   1.256  0.1887 -0.7337  0.0621
 3908SOL    MW415400   3.956   2.887   1.303 -0.0671  0.4479 -0.2095
 3909SOL     OW15401   1.894   2.782   3.531  0.2260 -0.1382 -0.1311
 3909SOL    HW215402   1.836   2.854   3.505  0.3379 -0.7877 -2.3636
 3909SOL    HW315403   1.966   2.826   3.577 -1.5790  0.7463  2.0224
 3909SOL    MW415404   1.896   2.798   3.534  0.3453  0.3512 -0.0516
 3910SOL     OW15405   5.505   1.326   1.291 -0.5388  0.0390 -0.2497
 3910SOL    HW215406   5.517   1.411   1.249  1.4470 -0.2471 -0.4047
 3910SOL    HW315407   5.591   1.283   1.281 -1.0012 -1.3241  1.2538
 3910SOL    MW415408   5.518   1.331   1.284 -0.0298  0.2235 -0.5532
 3911SOL     OW15409   1.708   1.988   4.795 -0.2440 -0.2641  0.2321
 3911SOL    HW215410   1.718   2.032   4.880 -2.0261  1.1180 -0.1905
 3911SOL    HW315411   1.614   1.977   4.785  0.0485 -2.5579 -0.5682
 3911SOL    MW415412   1.697   1.993   4.805 -0.4274  0.3952 -0.2005
 3912SOL     OW15413   2.298   3.219   0.807 -0.5947 -0.0305 -0.4984
 3912SOL    HW215414   2.245   3.222   0.887 -0.7061 -0.6487 -0.5479
 3912SOL    HW315415   2.322   3.311   0.792 -0.5153  0.0914  0.2847
 3912SOL    MW415416   2.294   3.232   0.816 -0.4782 -0.1441 -0.3323
 3913SOL     OW15417   4.905   4.883   1.595  0.0104 -0.6868 -0.0406
 3913SOL    HW215418   4.851   4.926   1.529 -0.5760 -0.0524  0.8316
 3913SOL    HW315419   4.986   4.934   1.598 -0.0262 -0.6223 -0.1653
 3913SOL    MW415420   4.908   4.895   1.587 -0.3148 -0.2157  0.0096
 3914SOL     OW15421   3.737   3.540   5.407 -0.3159 -0.0454 -0.0538
 3914SOL    HW215422   3.792   3.461   5.416  0.4292  0.4569 -0.0785
 3914SOL    HW315423   3.719   3.566   5.497 -0.0095  0.1273 -0.0407
 3914SOL    MW415424   3.742   3.533   5.420 -0.1154 -0.5648 -0.1254
 3915SOL     OW15425   3.385   2.592   2.028 -0.2009 -0.0187 -0.2833
 3915SOL    HW215426   3.339   2.545   2.097  0.1865 -0.0458 -0.0451
 3915SOL    HW315427   3.329   2.667   2.009 -1.1631 -0.9091 -1.1207
 3915SOL    MW415428   3.372   2.596   2.034 -0.1381  0.0317 -0.0233
 3916SOL     OW15429   2.894   0.510   1.180  0.6153 -0.1540 -0.6367
 3916SOL    HW215430   2.970   0.567   1.192  1.1803 -1.1544  0.8195
 3916SOL    HW315431   2.819   0.570   1.173  1.0738  0.8172  1.7195
 3916SOL    MW415432   2.894   0.525   1.181  0.2131 -0.0120  0.1386
 3917SOL     OW15433   6.009   3.077   6.198 -0.1961  0.2956  0.0559
 3917SOL    HW215434   5.937   3.121   6.243 -0.6287  1.1023 -1.3734
 3917SOL    HW315435   5.969   3.000   6.157 -0.3281  0.9269 -1.0189
 3917SOL    MW415436   5.994   3.072   6.199 -0.2269 -0.6404  0.5735
 3918SOL     OW15437   2.911   6.173   3.018  0.4663  0.2956  0.1965
 3918SOL    HW215438   2.925   6.266   3.001  0.0167  0.1237 -1.2694
 3918SOL    HW315439   2.927   6.131   2.933 -0.7436 -0.7873  0.4707
 3918SOL    MW415440   2.915   6.180   3.004 -0.1950  0.1633 -0.1908
 3919SOL     OW15441   2.275   5.433   4.350 -0.0077 -0.1954 -0.4972
 3919SOL    HW215442   2.352   5.484   4.326  0.6685 -0.9162  0.1005
 3919SOL    HW315443   2.310   5.353   4.388 -1.0567 -0.4955 -0.1276
 3919SOL    MW415444   2.289   5.429   4.352  0.3546 -0.3367 -0.6687
 3920SOL     OW15445   3.327   4.088   3.003  0.1139  0.1062  0.1918
 3920SOL    HW215446   3.354   4.123   2.918  0.3208  0.6029  0.4514
 3920SOL    HW315447   3.265   4.019   2.983 -0.9258  1.1543 -0.3332
 3920SOL    MW415448   3.322   4.084   2.989 -0.0055  0.8610 -0.5219
 3921SOL     OW15449   4.646   4.890   6.079  0.0642  0.2462 -0.9264
 3921SOL    HW215450   4.715   4.955   6.071  0.3337  0.0673 -0.1095
 3921SOL    HW315451   4.657   4.853   6.166 -0.2859 -0.6657 -1.2531
 3921SOL    MW415452   4.656   4.893   6.089  0.1052  0.5070 -0.5205
 3922SOL     OW15453   1.562   3.072   2.489  0.1504  0.7199 -0.1193
 3922SOL    HW215454   1.501   3.100   2.558 -0.2974  1.4224 -0.7757
 3922SOL    HW315455   1.565   3.147   2.429  2.1525  0.9489  0.2008
 3922SOL    MW415456   1.554   3.086   2.491  0.1511 -0.1454  0.4120
 3923SOL     OW15457   4.405   2.635   1.314 -0.1960 -0.3137  0.4588
 3923SOL    HW215458   4.417   2.721   1.272  0.3441  0.0353  1.3001
 3923SOL    HW315459   4.453   2.574   1.258  0.8726  0.2140  0.7724
 3923SOL    MW415460   4.413   2.639   1.301  0.3306 -0.6407 -0.5185
 3924SOL     OW15461   0.734   4.566   5.232 -0.3260 -0.3539 -0.4222
 3924SOL    HW215462   0.765   4.650   5.266 -1.8527  0.6253 -1.3476
 3924SOL    HW315463   0.814   4.513   5.226  0.5165  0.6112  1.2293
 3924SOL    MW415464   0.749   4.570   5.236 -0.2819 -0.1704  0.1525
 3925SOL     OW15465   4.142   4.474   4.476  0.1663 -0.3486  0.4608
 3925SOL    HW215466   4.132   4.379   4.472 -0.9411 -0.2165 -0.6850
 3925SOL    HW315467   4.068   4.504   4.529 -0.4269 -0.0228 -0.5264
 3925SOL    MW415468   4.131   4.465   4.482 -0.0880 -0.2614  0.4985
 3926SOL     OW15469   2.985   2.721   2.184 -0.4155  0.0871 -0.4252
 3926SOL    HW215470   2.893   2.715   2.157 -0.2807 -1.0370 -0.6754
 3926SOL    HW315471   3.004   2.637   2.226 -0.3701  1.4511  2.5415
 3926SOL    MW415472   2.975   2.709   2.186  0.0324 -0.6100 -0.2033
 3927SOL     OW15473   1.485   5.055   0.429 -0.2327 -0.6614 -0.5784
 3927SOL    HW215474   1.450   5.051   0.518 -0.2277  1.5161 -0.4479
 3927SOL    HW315475   1.409   5.042   0.372 -0.5417 -0.2381 -0.2645
 3927SOL    MW415476   1.471   5.052   0.433  0.0538 -0.7325 -0.2261
 3928SOL     OW15477   2.859   2.061   0.358 -0.6347 -0.7287  0.1088
 3928SOL    HW215478   2.845   2.015   0.275 -0.2837 -1.3360  0.3793
 3928SOL    HW315479   2.910   2.000   0.411 -0.6030 -0.2275  0.6668
 3928SOL    MW415480   2.864   2.047   0.354 -0.1137 -0.1460  0.2203
 3929SOL     OW15481   2.145   3.261   4.102 -0.5131 -0.3963 -0.0345
 3929SOL    HW215482   2.117   3.346   4.135  0.2866 -0.4940  0.9590
 3929SOL    HW315483   2.070   3.203   4.115 -0.1390 -0.4976  1.9381
 3929SOL    MW415484   2.132   3.264   4.108 -0.8070  0.6452  0.3184
 3930SOL     OW15485   0.633   0.287   0.019 -0.0227  0.2130 -0.3456
 3930SOL    HW215486   0.682   0.295  -0.063  0.3815  2.4673  0.0271
 3930SOL    HW315487   0.545   0.318  -0.002  0.0065  0.5318 -0.0247
 3930SOL    MW415488   0.628   0.292   0.006  0.3065  0.6437 -0.2350
 3931SOL     OW15489   2.245   0.210   2.905 -0.3670  0.4496  0.1538
 3931SOL    HW215490   2.311   0.257   2.855  0.1205  0.1276  0.4817
 3931SOL    HW315491   2.167   0.265   2.901 -0.1653  0.6863 -0.4866
 3931SOL    MW415492   2.243   0.223   2.898 -0.0494 -0.0865 -0.0848
 3932SOL     OW15493   2.736   5.028   0.798 -0.2624  0.3699  0.8283
 3932SOL    HW215494   2.666   4.963   0.795 -0.9352  1.1156 -0.2662
 3932SOL    HW315495   2.802   4.994   0.737 -1.2528  1.3695 -0.8911
 3932SOL    MW415496   2.735   5.015   0.789 -0.0448  0.2892  0.1182
 3933SOL     OW15497   3.064   5.264   2.313 -0.0212 -0.1976 -0.0079
 3933SOL    HW215498   3.018   5.213   2.246  0.1037  0.2824 -0.4623
 3933SOL    HW315499   3.149   5.283   2.275 -0.1325  0.5044  0.0814
 3933SOL    MW415500   3.069   5.260   2.300 -0.1149  0.4129 -0.1119
 3934SOL     OW15501   5.146   1.039   4.058 -0.2732  0.2962  0.0751
 3934SOL    HW215502   5.080   0.984   4.016 -0.1925  1.7898 -2.1635
 3934SOL    HW315503   5.129   1.030   4.152 -3.4155  0.2897 -0.4009
 3934SOL    MW415504   5.135   1.031   4.065  0.0338 -0.0177  0.3441
 3935SOL     OW15505   0.673   1.600   0.169 -0.9240 -0.0802  0.0859
 3935SOL    HW215506   0.629   1.638   0.093 -1.2927  2.3750  1.4235
 3935SOL    HW315507   0.615   1.528   0.196 -0.6387 -1.1975 -2.0490
 3935SOL    MW415508   0.659   1.595   0.162 -0.2077 -0.7954 -0.1614
 3936SOL     OW15509   0.098   5.609   2.411  0.1556 -0.0110  0.0444
 3936SOL    HW215510   0.089   5.609   2.316  2.6072 -0.2959 -0.2465
 3936SOL    HW315511   0.078   5.699   2.437 -0.7718  0.0096 -0.6812
 3936SOL    MW415512   0.094   5.621   2.402  0.2268  0.3419  0.1940
 3937SOL     OW15513   3.693   0.724   4.842 -0.3570 -0.1181 -0.2856
 3937SOL    HW215514   3.626   0.675   4.890 -0.3378 -0.4701 -0.6179
 3937SOL    HW315515   3.662   0.815   4.843  0.0839  0.0454  1.1755
 3937SOL    MW415516   3.680   0.730   4.849  0.5765 -0.3757 -0.3784
 3938SOL     OW15517   1.292   5.470   4.503  0.3570  0.2452 -0.0139
 3938SOL    HW215518   1.283   5.407   4.431  1.4226  0.0437  0.0217
 3938SOL    HW315519   1.358   5.432   4.560 -0.3043  0.5242  0.9661
 3938SOL    MW415520   1.299   5.456   4.501  0.6543  0.3011 -0.1009
 3939SOL     OW15521   2.146   4.599   0.526  0.3715  0.1661  0.0137
 3939SOL    HW215522   2.161   4.642   0.441  0.0400  1.2057  0.4612
 3939SOL    HW315523   2.056   4.623   0.548  0.5654  0.1806  0.8082
 3939SOL    MW415524   2.136   4.608   0.518  0.1869  0.5698  0.0834
 3940SOL     OW15525   4.568   1.608   4.404 -0.4922  0.2065  0.5081
 3940SOL    HW215526   4.615   1.677   4.451 -1.2877  1.2263 -0.1467
 3940SOL    HW315527   4.478   1.639   4.402 -0.8752 -0.9045  0.2582
 3940SOL    MW415528   4.563   1.621   4.410  0.3487 -0.0689  0.0080
 3941SOL     OW15529   2.904   0.590   4.030 -0.3638 -0.6450 -0.5009
 3941SOL    HW215530   2.939   0.672   3.996 -1.0179  0.0025  0.3436
 3941SOL    HW315531   2.809   0.600   4.023 -0.5619 -0.1845  2.1313
 3941SOL    MW415532   2.896   0.602   4.024 -0.0264  0.0502  0.2049
 3942SOL     OW15533   4.599   5.300   2.689  0.1621  0.8489 -0.6426
 3942SOL    HW215534   4.616   5.325   2.598  1.2582  0.7967 -0.4628
 3942SOL    HW315535   4.617   5.380   2.739  0.2152  0.6873 -0.4040
 3942SOL    MW415536   4.604   5.314   2.683  0.0817 -0.0851  0.0540
 3943SOL     OW15537   6.256   5.219   2.778 -0.1723 -0.5460 -0.4058
 3943SOL    HW215538   6.339   5.264   2.794 -0.3990  0.3196 -1.4994
 3943SOL    HW315539   6.240   5.233   2.684 -2.1821  0.3955  0.0335
 3943SOL    MW415540   6.265   5.227   2.768  0.0851 -0.0673  0.2003
 3944SOL     OW15541   3.054   0.818   5.363 -0.2644 -0.1419  0.0513
 3944SOL    HW215542   3.108   0.864   5.427 -0.1785 -0.2534  0.0599
 3944SOL    HW315543   3.090   0.730   5.360 -0.8010 -0.3794  0.4700
 3944SOL    MW415544   3.066   0.813   5.371  0.7304  0.2866 -0.1280
 3945SOL     OW15545   6.050   5.904   2.845  0.5711  0.1685  0.5612
 3945SOL    HW215546   5.971   5.863   2.809  2.3379 -0.3954 -3.1637
 3945SOL    HW315547   6.097   5.832   2.887  0.8704 -0.3584 -0.6448
 3945SOL    MW415548   6.046   5.889   2.846  0.1750 -0.4202 -0.2761
 3946SOL     OW15549   4.593   4.419   1.841 -0.0937  0.3607  0.3589
 3946SOL    HW215550   4.506   4.391   1.813 -0.8665  2.6731  0.2228
 3946SOL    HW315551   4.614   4.362   1.915 -2.0966  0.2700  0.9175
 3946SOL    MW415552   4.584   4.408   1.847 -0.2352  0.3107 -1.2104
 3947SOL     OW15553   2.967   6.006   4.149 -0.1075 -0.4753 -0.1215
 3947SOL    HW215554   3.043   5.967   4.104 -0.3703 -2.4411  1.0357
 3947SOL    HW315555   2.914   6.043   4.078  1.5802  0.3736 -1.0156
 3947SOL    MW415556   2.970   6.006   4.134 -0.4123  0.1359 -0.0265
 3948SOL     OW15557   3.904   1.646   4.859  0.2251 -0.3380 -0.6564
 3948SOL    HW215558   3.816   1.640   4.823 -0.7433 -2.4999  1.7631
 3948SOL    HW315559   3.941   1.559   4.845  0.9354 -0.2922  0.7634
 3948SOL    MW415560   3.897   1.634   4.853 -0.3686 -0.2983  0.0806
 3949SOL     OW15561   1.736   4.368   3.952  0.0329 -0.1134  0.2000
 3949SOL    HW215562   1.699   4.315   4.023 -0.2176  0.8365  0.7916
 3949SOL    HW315563   1.769   4.304   3.889 -0.9049 -0.9788  0.5611
 3949SOL    MW415564   1.735   4.352   3.953  0.6068  0.7781  0.4894
 3950SOL     OW15565   2.039   0.212   4.940  0.7982 -0.1273  0.3923
 3950SOL    HW215566   1.978   0.190   5.010 -1.2949 -0.5520 -1.4786
 3950SOL    HW315567   2.080   0.129   4.917  0.7405 -0.1617  0.4147
 3950SOL    MW415568   2.037   0.198   4.946 -0.5375 -0.1358 -0.0153
 3951SOL     OW15569   0.786   2.951   4.166 -0.8509 -0.0416  0.6956
 3951SOL    HW215570   0.717   2.923   4.106  0.4605 -2.3916  0.1817
 3951SOL    HW315571   0.802   2.875   4.222  2.1813 -0.0851 -0.0581
 3951SOL    MW415572   0.779   2.938   4.165 -0.4122 -0.1104  0.7982
 3952SOL     OW15573   2.091   6.142   0.340 -0.1688  0.4398  0.3802
 3952SOL    HW215574   2.054   6.061   0.305  0.4300  0.4971 -0.4271
 3952SOL    HW315575   2.172   6.114   0.384 -0.9866  0.3456  1.9116
 3952SOL    MW415576   2.097   6.128   0.341 -0.4107 -0.0416 -0.2656
 3953SOL     OW15577   5.040   6.404   3.248  0.1833  0.2591 -0.3454
 3953SOL    HW215578   4.947   6.383   3.249  0.2109  0.1341 -0.4532
 3953SOL    HW315579   5.047   6.484   3.300  0.5457 -1.9678  3.3811
 3953SOL    MW415580   5.029   6.412   3.255 -0.0397 -0.4492 -0.0549
 3954SOL     OW15581   3.201   3.314   2.502  0.2117 -0.2372  0.0545
 3954SOL    HW215582   3.120   3.364   2.494  1.9830  2.9605  0.0084
 3954SOL    HW315583   3.187   3.257   2.577 -1.7101  1.0549  0.7715
 3954SOL    MW415584   3.189   3.313   2.511  0.1482  0.0493  0.1106
 3955SOL     OW15585   3.403   3.943   2.213  0.1627  0.1756 -0.6777
 3955SOL    HW215586   3.395   3.903   2.126 -1.2226 -1.7692  0.2699
 3955SOL    HW315587   3.318   3.982   2.229  0.6345  1.1421 -0.4330
 3955SOL    MW415588   3.391   3.942   2.204  0.1197  0.0778  0.4103
 3956SOL     OW15589   1.260   5.223   4.358 -0.2669 -0.3204 -0.1594
 3956SOL    HW215590   1.185   5.167   4.377 -0.1568 -0.2330  0.5612
 3956SOL    HW315591   1.240   5.262   4.273 -0.3789 -1.3870 -0.6280
 3956SOL    MW415592   1.247   5.221   4.349  0.1991  0.5576 -0.1734
 3957SOL     OW15593   3.777   1.583   3.942  0.0631  0.2364 -0.0493
 3957SOL    HW215594   3.750   1.624   3.860 -0.6490 -0.0277  0.0483
 3957SOL    HW315595   3.767   1.489   3.927  2.1211  0.0495 -0.4249
 3957SOL    MW415596   3.772   1.576   3.929 -0.4852 -0.3001 -0.8724
 3958SOL     OW15597   0.559   3.246   3.981 -0.4189  0.6520  0.1169
 3958SOL    HW215598   0.577   3.228   4.073 -1.4960  0.5089  0.3161
 3958SOL    HW315599   0.536   3.339   3.979  0.5971  0.9028 -0.1739
 3958SOL    MW415600   0.558   3.256   3.993 -0.4275 -0.5802 -0.3633
 3959SOL     OW15601   5.773   4.016   5.592  0.1260  0.0962 -0.7310
 3959SOL    HW215602   5.698   4.002   5.649  0.0261  0.8668 -0.6608
 3959SOL    HW315603   5.741   4.075   5.524  1.0465  1.6882  0.1524
 3959SOL    MW415604   5.759   4.022   5.591 -0.3771 -0.1986  0.2490
 3960SOL     OW15605   3.725   0.039   4.621 -0.3236 -0.5110  0.2372
 3960SOL    HW215606   3.632   0.060   4.616 -0.0697  0.3792 -3.0994
 3960SOL    HW315607   3.728  -0.057   4.621 -1.2073 -0.5893  2.3406
 3960SOL    MW415608   3.714   0.029   4.621 -0.0569  0.4443  0.1102
 3961SOL     OW15609   2.224   4.692   5.731  0.3787  0.0496 -0.0846
 3961SOL    HW215610   2.139   4.725   5.704  0.6124  0.3534 -0.4750
 3961SOL    HW315611   2.243   4.622   5.668  1.1902  1.1524 -1.1244
 3961SOL    MW415612   2.216   4.687   5.719 -0.0937  0.2298  0.4354
 3962SOL     OW15613   1.308   3.222   0.129 -0.3094  0.3385 -0.1196
 3962SOL    HW215614   1.278   3.164   0.059  0.5257  1.1935 -1.2369
 3962SOL    HW315615   1.394   3.186   0.154 -0.9976 -0.4974  1.1347
 3962SOL    MW415616   1.316   3.209   0.123 -0.2846 -0.5312  0.7227
 3963SOL     OW15617   5.553   5.786   0.871  0.0495 -0.0026  0.2295
 3963SOL    HW215618   5.642   5.753   0.890 -0.4825 -0.6738  1.7423
 3963SOL    HW315619   5.551   5.794   0.776  0.9006 -2.4822 -0.0873
 3963SOL    MW415620   5.565   5.782   0.861  0.3556  0.1651  0.5221
 3964SOL     OW15621   3.161   6.128   5.420  0.2694  0.3922 -0.3342
 3964SOL    HW215622   3.100   6.202   5.412  2.1779  1.9473 -1.1935
 3964SOL    HW315623   3.163   6.109   5.514  1.7520  3.2746  0.3048
 3964SOL    MW415624   3.153   6.135   5.432  0.0790 -0.5546  0.0743
 3965SOL     OW15625   5.893   5.914   6.361  0.0795 -0.5228 -0.2567
 3965SOL    HW215626   5.981   5.891   6.332 -0.8148 -1.9603 -2.0442
 3965SOL    HW315627   5.835   5.857   6.310 -1.9693  1.4480 -0.3033
 3965SOL    MW415628   5.897   5.904   6.350 -0.8638 -0.0008 -0.0459
 3966SOL     OW15629   4.828   2.843   5.094  0.0027  0.1990 -0.0026
 3966SOL    HW215630   4.837   2.866   5.187 -1.9105 -0.4110  0.3826
 3966SOL    HW315631   4.755   2.896   5.063 -1.0009 -1.4144 -0.4899
 3966SOL    MW415632   4.820   2.853   5.102 -0.3352  0.3832 -0.0834
 3967SOL     OW15633   2.694   0.238   3.909  0.0041 -0.0948  0.2167
 3967SOL    HW215634   2.780   0.266   3.879 -0.2588  4.1652  2.5674
 3967SOL    HW315635   2.692   0.261   4.002 -3.9679  1.1685  0.0275
 3967SOL    MW415636   2.705   0.245   3.917  0.3459  0.1171 -0.8308
 3968SOL     OW15637   4.792   3.636   2.560 -0.0674  0.0895  0.2231
 3968SOL    HW215638   4.807   3.562   2.618 -0.6008 -1.1405 -1.1488
 3968SOL    HW315639   4.833   3.610   2.477 -2.5754  0.1080 -1.1156
 3968SOL    MW415640   4.799   3.623   2.557 -0.3015  0.0546  0.4375
 3969SOL     OW15641   3.343   0.190   6.145 -0.1467 -0.1411 -0.3525
 3969SOL    HW215642   3.354   0.123   6.077  1.2570  0.3573 -0.6553
 3969SOL    HW315643   3.432   0.204   6.178 -0.4001  1.6134 -0.3423
 3969SOL    MW415644   3.356   0.183   6.140 -0.4067 -0.2775 -0.3706
 3970SOL     OW15645   3.183   5.362   0.576  0.2189 -0.2499 -0.0818
 3970SOL    HW215646   3.187   5.427   0.506 -0.6137 -1.4693 -1.2989
 3970SOL    HW315647   3.248   5.297   0.551 -2.0579 -2.1928 -1.3557
 3970SOL    MW415648   3.192   5.362   0.563  0.6860  0.3963  0.3131
 3971SOL     OW15649   0.044   4.223   1.032 -0.4228  0.2339 -0.0244
 3971SOL    HW215650   0.089   4.139   1.018 -0.2390  0.2390  0.5235
 3971SOL    HW315651   0.114   4.283   1.058 -0.5949  0.4950 -0.1709
 3971SOL    MW415652   0.060   4.220   1.034 -0.4469 -0.1867 -0.0102
 3972SOL     OW15653   1.886   2.357   2.171 -0.0915 -0.4570 -0.1850
 3972SOL    HW215654   1.909   2.274   2.213 -0.2496 -1.1221 -1.3710
 3972SOL    HW315655   1.829   2.401   2.234 -0.0871 -1.2960  0.4202
 3972SOL    MW415656   1.882   2.351   2.185  0.4473 -0.0759  0.2331
 3973SOL     OW15657   3.912   5.730   4.646  0.5302  0.5408 -0.0868
 3973SOL    HW215658   3.844   5.780   4.599  1.2529  1.4171 -0.2318
 3973SOL    HW315659   3.879   5.723   4.735 -1.3541 -2.0212 -0.8525
 3973SOL    MW415660   3.898   5.736   4.651  0.6451  0.0988  0.0221
 3974SOL     OW15661   4.711   5.171   1.835 -0.0269 -0.2577  0.2328
 3974SOL    HW215662   4.700   5.208   1.923  2.7238  0.7627  0.2324
 3974SOL    HW315663   4.713   5.077   1.848 -0.6643 -0.1602  1.1063
 3974SOL    MW415664   4.709   5.164   1.848 -0.1998  0.3441  0.3824
 3975SOL     OW15665   4.174   2.805   3.593  0.3015 -0.5292 -0.1500
 3975SOL    HW215666   4.147   2.733   3.651 -0.1844 -0.2228  0.0108
 3975SOL    HW315667   4.117   2.878   3.617  0.8623 -0.0531 -0.2440
 3975SOL    MW415668   4.163   2.805   3.604 -0.0129  0.2087 -0.2312
 3976SOL     OW15669   5.417   4.986   5.234  0.1064 -0.1257 -0.1059
 3976SOL    HW215670   5.329   5.004   5.202  0.1321  1.4260  0.6080
 3976SOL    HW315671   5.413   4.894   5.262 -0.5202 -0.8565 -2.4147
 3976SOL    MW415672   5.405   4.976   5.234  0.3044 -0.1430 -0.7534
 3977SOL     OW15673   3.951   4.209   5.675 -0.0223 -0.2969 -0.2064
 3977SOL    HW215674   3.924   4.202   5.766  0.0941 -1.2983 -0.2332
 3977SOL    HW315675   3.991   4.295   5.668  1.5977 -0.8817  1.1403
 3977SOL    MW415676   3.953   4.219   5.686  0.4846 -0.2224  0.3476
 3978SOL     OW15677   3.914   1.243   4.509  0.1108 -0.3988 -0.3341
 3978SOL    HW215678   3.860   1.167   4.530  0.0422 -0.1845  0.2641
 3978SOL    HW315679   4.003   1.217   4.532  0.0457 -0.1895  0.1497
 3978SOL    MW415680   3.919   1.229   4.515 -0.1498  0.3242 -0.0746
 3979SOL     OW15681   3.411   2.836   5.248 -0.4264  0.4622 -0.0179
 3979SOL    HW215682   3.490   2.807   5.202 -1.1798 -1.5350 -0.1323
 3979SOL    HW315683   3.430   2.927   5.272  0.5555  1.1989 -3.0561
 3979SOL    MW415684   3.424   2.845   5.245  0.1041  0.3877 -0.0591
 3980SOL     OW15685   5.987   6.215   0.577 -0.1478  0.0754  0.2853
 3980SOL    HW215686   6.032   6.131   0.587  2.0609  1.2689  0.9929
 3980SOL    HW315687   6.027   6.254   0.499 -1.5592  0.2486 -0.3735
 3980SOL    MW415688   5.998   6.209   0.568  0.9720  0.1900  0.1787
 3981SOL     OW15689   2.385   1.244   5.263  0.1562 -0.5099  0.0487
 3981SOL    HW215690   2.294   1.223   5.283  0.2163 -0.1607  0.7252
 3981SOL    HW315691   2.436   1.197   5.329  0.3949  0.1927  0.3824
 3981SOL    MW415692   2.380   1.235   5.275 -0.5128 -0.1137  0.1157
 3982SOL     OW15693   2.077   2.615   0.211  0.0221  0.4387 -0.4007
 3982SOL    HW215694   2.169   2.612   0.184  0.2177  2.2370 -0.0450
 3982SOL    HW315695   2.080   2.612   0.306 -0.4232 -1.2821 -0.4042
 3982SOL    MW415696   2.089   2.614   0.220 -0.2815 -0.3672 -0.0074
 3983SOL     OW15697   1.187   5.459   3.320  0.4862 -0.4363  0.0889
 3983SOL    HW215698   1.276   5.446   3.288  0.7646  0.0250  0.6555
 3983SOL    HW315699   1.150   5.526   3.262  0.9251  0.2622  0.6016
 3983SOL    MW415700   1.194   5.466   3.308  0.5108 -0.0711  0.1369
 3984SOL     OW15701   0.826   4.635   0.544 -0.0893  0.3488  0.1725
 3984SOL    HW215702   0.874   4.702   0.592  0.5920 -0.1338  0.1768
 3984SOL    HW315703   0.859   4.640   0.454 -0.8078  0.7326 -0.0837
 3984SOL    MW415704   0.836   4.644   0.538  0.3730  0.3077  0.8110
 3985SOL     OW15705   2.375   1.467   0.445  0.4190  0.5837  0.2336
 3985SOL    HW215706   2.414   1.380   0.453  0.0720  0.2670 -1.1384
 3985SOL    HW315707   2.448   1.527   0.453  0.6469  0.1794  1.3355
 3985SOL    MW415708   2.389   1.463   0.447  0.0792 -0.8371 -0.1058
 3986SOL     OW15709   1.352   4.843   2.904  0.0623  0.5609  0.6407
 3986SOL    HW215710   1.424   4.825   2.965  0.5155 -0.6434 -0.2002
 3986SOL    HW315711   1.286   4.888   2.957  0.3915 -0.5450  2.0579
 3986SOL    MW415712   1.353   4.846   2.919  0.6313 -0.3319  0.0182
 3987SOL     OW15713   5.944   6.037   5.997 -0.6728  0.0513 -0.1989
 3987SOL    HW215714   5.913   6.089   6.072 -1.4583 -0.1197 -0.3891
 3987SOL    HW315715   5.940   5.947   6.028 -0.5297  0.0174 -0.2821
 3987SOL    MW415716   5.939   6.032   6.011 -0.1932  0.4991 -0.1571
 3988SOL     OW15717   5.915   5.213   5.514  0.4251  0.0937  0.1468
 3988SOL    HW215718   5.995   5.160   5.504  0.7292  0.4905  0.4507
 3988SOL    HW315719   5.881   5.189   5.600  0.0827 -0.2455 -0.0783
 3988SOL    MW415720   5.921   5.203   5.524  0.5823 -0.7941 -0.1793
 3989SOL     OW15721   2.190   2.680   3.667 -0.0148  0.5713  0.2285
 3989SOL    HW215722   2.199   2.747   3.734 -2.4780  2.5489 -1.2484
 3989SOL    HW315723   2.214   2.724   3.585 -0.5696 -0.6913 -0.6521
 3989SOL    MW415724   2.195   2.694   3.665 -0.8810  0.1910 -0.1257
 3990SOL     OW15725   1.680   0.162   0.788  0.6128  0.3482  0.3113
 3990SOL    HW215726   1.588   0.155   0.813  0.6556 -0.0742  0.3676
 3990SOL    HW315727   1.708   0.071   0.777  0.8326  0.4999 -0.4170
 3990SOL    MW415728   1.672   0.149   0.790 -0.8924 -0.0508  0.1786
 3991SOL     OW15729   4.678   5.224   3.297 -0.0924  0.2644  0.2469
 3991SOL    HW215730   4.671   5.215   3.202 -2.2531 -1.5837  0.4919
 3991SOL    HW315731   4.728   5.146   3.324  1.9844  1.6191  0.5676
 3991SOL    MW415732   4.684   5.213   3.288 -0.3054  0.0951 -0.5854
 3992SOL     OW15733   6.001   5.592   6.246 -0.6867  0.0219  0.4454
 3992SOL    HW215734   6.007   5.579   6.341  0.0755  2.5905  0.8228
 3992SOL    HW315735   5.907   5.603   6.229 -0.7855  0.0382  0.9832
 3992SOL    MW415736   5.989   5.592   6.256  0.3466  0.2687 -0.4376
 3993SOL     OW15737   2.879   1.587   0.534 -0.1293 -0.1710  0.0485
 3993SOL    HW215738   2.853   1.530   0.462  0.4061  1.5291 -1.5731
 3993SOL    HW315739   2.918   1.663   0.492  0.9613  0.5486  2.1805
 3993SOL    MW415740   2.881   1.589   0.519 -0.0331  0.3670  0.2627
 3994SOL     OW15741   3.361   0.580   6.158 -0.0341 -0.2848  0.3737
 3994SOL    HW215742   3.447   0.548   6.186 -0.7915 -1.0965  1.8880
 3994SOL    HW315743   3.379   0.633   6.080  2.1325  1.5573  1.9918
 3994SOL    MW415744   3.375   0.583   6.152 -0.4023 -0.4567 -0.1591
 3995SOL     OW15745   5.312   2.053   0.707  0.1604  0.4556 -0.1199
 3995SOL    HW215746   5.266   2.017   0.783  0.2973 -0.3331 -0.4069
 3995SOL    HW315747   5.295   2.147   0.712 -0.1019  0.3757  0.7056
 3995SOL    MW415748   5.304   2.061   0.718 -0.1271  0.1263 -0.5711
 3996SOL     OW15749   6.171   5.017   4.816 -0.8523  0.1350 -0.0797
 3996SOL    HW215750   6.204   4.928   4.807 -2.3227 -0.4869  0.2788
 3996SOL    HW315751   6.216   5.067   4.748  1.5322 -0.3933  1.0158
 3996SOL    MW415752   6.181   5.012   4.806  0.5118 -0.3804 -0.8803
 3997SOL     OW15753   3.745   2.017   0.957 -0.1471 -0.0131 -0.0948
 3997SOL    HW215754   3.835   2.049   0.950  0.0476 -0.4241  0.5600
 3997SOL    HW315755   3.721   2.030   1.048  0.0758 -2.0864  0.3089
 3997SOL    MW415756   3.754   2.023   0.968 -0.1599  0.0565  0.0700
 3998SOL     OW15757   6.190   4.734   0.290 -0.0825 -0.2994 -0.0459
 3998SOL    HW215758   6.183   4.759   0.382  0.8096 -0.0994 -0.0191
 3998SOL    HW315759   6.266   4.676   0.287  1.7102  1.9802 -1.0860
 3998SOL    MW415760   6.199   4.729   0.302  0.2068  0.3918 -0.1060
 3999SOL     OW15761   3.144   0.964   2.019 -0.0469  0.0562  0.6932
 3999SOL    HW215762   3.142   1.058   2.040 -0.9588  0.1036  0.4525
 3999SOL    HW315763   3.176   0.922   2.099  0.6746  0.5976  0.6936
 3999SOL    MW415764   3.148   0.971   2.033 -0.2821 -0.2169  0.0835
 4000SOL     OW15765   2.147   6.143   3.836 -0.1119 -0.0408  0.7604
 4000SOL    HW215766   2.140   6.237   3.849  0.8871  0.1819 -0.1360
 4000SOL    HW315767   2.200   6.112   3.910  1.1714  0.4194  0.0779
 4000SOL    MW415768   2.153   6.151   3.848 -0.4247 -0.2238 -0.4078
 4001SOL     OW15769   2.171   2.254   5.231  0.0458  0.3891  0.2209
 4001SOL    HW215770   2.263   2.238   5.253  0.2775  2.1740  0.7154
 4001SOL    HW315771   2.138   2.169   5.201  1.6194 -0.4852  0.8542
 4001SOL    MW415772   2.179   2.241   5.230  0.6910  0.0356 -0.6425
 4002SOL     OW15773   3.337   3.753   1.203  0.9138 -0.8790 -0.0858
 4002SOL    HW215774   3.278   3.716   1.137  1.5182 -1.4680 -0.3087
 4002SOL    HW315775   3.350   3.683   1.267 -1.2890  0.3316  1.8256
 4002SOL    MW415776   3.331   3.739   1.203  0.0901 -0.2848  0.4569
 4003SOL     OW15777   1.616   4.800   2.680  0.2170 -0.0759 -0.1509
 4003SOL    HW215778   1.621   4.732   2.748  2.2427 -0.0568 -0.2211
 4003SOL    HW315779   1.642   4.755   2.600 -0.3068  0.3514 -0.5667
 4003SOL    MW415780   1.620   4.785   2.679  0.1540 -0.1970  0.4079
 4004SOL     OW15781   5.387   4.376   5.738  0.0404 -0.6608 -0.3785
 4004SOL    HW215782   5.393   4.434   5.662 -0.2690 -2.0175 -1.4625
 4004SOL    HW315783   5.333   4.425   5.801  2.0468  1.4058 -0.1118
 4004SOL    MW415784   5.381   4.390   5.736  0.4488 -0.3640  0.5257
 4005SOL     OW15785   0.632   4.621   0.931  0.0991 -0.2841  0.3059
 4005SOL    HW215786   0.663   4.711   0.943  1.6209 -0.9944  2.3879
 4005SOL    HW315787   0.537   4.629   0.926  0.2534  1.5153 -0.8056
 4005SOL    MW415788   0.623   4.634   0.932  0.7256  0.0541 -0.0261
 4006SOL     OW15789   0.912   5.134   0.667  0.3437  0.4446  0.2244
 4006SOL    HW215790   0.942   5.165   0.581 -1.2403  1.8444  0.1368
 4006SOL    HW315791   0.827   5.094   0.650 -0.0363  0.8460  1.1741
 4006SOL    MW415792   0.905   5.133   0.653  0.1237  0.0966  0.1453
 4007SOL     OW15793   0.094   3.642   6.399  0.3079 -0.4806  0.5873
 4007SOL    HW215794   0.152   3.717   6.412  1.6893 -1.5145  0.5568
 4007SOL    HW315795   0.040   3.639   6.478  0.6576  0.1739  0.8583
 4007SOL    MW415796   0.094   3.652   6.411 -0.0675  0.0846  0.6852
 4008SOL     OW15797   0.489   2.603   0.928 -0.0228 -0.1241 -0.4193
 4008SOL    HW215798   0.580   2.573   0.934 -1.1518 -3.9252  3.4792
 4008SOL    HW315799   0.449   2.546   0.863 -0.0556  0.2183 -0.7038
 4008SOL    MW415800   0.496   2.591   0.920  0.4334 -0.5537 -0.2971
 4009SOL     OW15801   1.729   5.423   1.854 -0.3506 -0.5244  0.0401
 4009SOL    HW215802   1.664   5.493   1.846 -1.6451 -1.6991  0.0524
 4009SOL    HW315803   1.740   5.389   1.765  1.8400  0.9929 -0.3675
 4009SOL    MW415804   1.722   5.428   1.841 -0.3289 -0.5324  0.5406
 4010SOL     OW15805   0.094   4.474   3.972 -0.3955  0.0053  0.3105
 4010SOL    HW215806   0.073   4.414   4.043 -1.7397 -0.8611 -0.7560
 4010SOL    HW315807   0.163   4.530   4.007 -0.7686 -0.6161  2.1563
 4010SOL    MW415808   0.100   4.473   3.986 -0.4136 -0.1449 -0.6740
 4011SOL     OW15809   0.174   6.091   0.243  0.3837  0.1914  0.1970
 4011SOL    HW215810   0.089   6.089   0.287  0.4710  1.1584  0.4332
 4011SOL    HW315811   0.228   6.149   0.297  0.6858  0.9050 -0.8275
 4011SOL    MW415812   0.170   6.099   0.256  0.0092 -0.0446 -0.0726
 4012SOL     OW15813   0.007   4.098   5.975  0.1496  0.0657  0.1405
 4012SOL    HW215814  -0.024   4.120   5.887  2.7848 -2.1360 -1.5030
 4012SOL    HW315815  -0.068   4.054   6.016 -0.9288  0.5161 -1.2512
 4012SOL    MW415816  -0.007   4.095   5.969 -0.3628 -0.0040  0.1161
 4013SOL     OW15817   6.096   2.647   1.092 -0.2070 -0.2179  0.2471
 4013SOL    HW215818   6.112   2.624   1.183 -1.4308  2.9643  1.3922
 4013SOL    HW315819   6.091   2.563   1.046  2.4054 -1.8550  2.6875
 4013SOL    MW415820   6.098   2.633   1.098  0.5383  0.7100 -0.0355
 4014SOL     OW15821   2.443   6.413   1.521  0.0165 -0.5439  0.1032
 4014SOL    HW215822   2.411   6.492   1.564 -0.0157 -0.8179  0.5943
 4014SOL    HW315823   2.505   6.376   1.584 -0.0821 -0.9858 -0.0596
 4014SOL    MW415824   2.447   6.419   1.535  0.2218  0.0181 -0.0319
 4015SOL     OW15825   3.839   0.073   3.443  0.2087 -0.8415  0.7042
 4015SOL    HW215826   3.832   0.014   3.367  0.4021 -1.2497  0.9965
 4015SOL    HW315827   3.756   0.121   3.444  0.2368 -0.7782  0.1893
 4015SOL    MW415828   3.827   0.071   3.433 -0.0346 -0.1169 -0.1038
 4016SOL     OW15829   1.917   3.345   5.119  0.1326  0.3458 -0.2442
 4016SOL    HW215830   1.837   3.386   5.087 -0.1233 -1.1158 -1.5944
 4016SOL    HW315831   1.960   3.311   5.041 -1.9198 -5.9463  0.7680
 4016SOL    MW415832   1.912   3.346   5.105  0.5577  0.5090 -0.0038
 4017SOL     OW15833   4.623   3.926   4.587  0.2795 -0.7019 -0.1031
 4017SOL    HW215834   4.688   3.945   4.519 -0.3077 -0.6187 -0.6569
 4017SOL    HW315835   4.550   3.984   4.566 -0.4700 -1.6693 -0.2216
 4017SOL    MW415836   4.622   3.936   4.575  0.1986  0.0699  0.4502
 4018SOL     OW15837   4.042   1.895   1.187 -0.5564 -0.7277  0.0826
 4018SOL    HW215838   4.110   1.920   1.124  0.1168 -0.9829  0.6862
 4018SOL    HW315839   4.004   1.979   1.215 -0.0112 -0.5362  0.2564
 4018SOL    MW415840   4.046   1.909   1.182 -0.8476  0.5806  0.4428
 4019SOL     OW15841   3.782   3.439   1.477 -0.2071 -0.0213  0.1698
 4019SOL    HW215842   3.798   3.496   1.552 -1.9012 -0.1224  0.6699
 4019SOL    HW315843   3.741   3.495   1.412 -0.2700 -0.2913 -0.0268
 4019SOL    MW415844   3.779   3.454   1.478 -0.1242  0.0416  0.9464
 4020SOL     OW15845   2.845   1.933   5.372 -0.2772 -0.1314  0.0392
 4020SOL    HW215846   2.826   2.007   5.314 -1.6520  1.2146  2.1095
 4020SOL    HW315847   2.940   1.921   5.363 -0.1448  1.2960 -1.0065
 4020SOL    MW415848   2.855   1.941   5.363  0.3143 -0.3672  0.1752
 4021SOL     OW15849   5.103   1.457   0.964 -0.5547  0.1200  0.3534
 4021SOL    HW215850   5.090   1.458   1.059  1.4780  1.5861  0.6878
 4021SOL    HW315851   5.088   1.547   0.936  0.1140 -0.0196 -0.5115
 4021SOL    MW415852   5.100   1.469   0.973 -0.3939  0.4944 -0.0599
 4022SOL     OW15853   4.332   3.369   4.289 -0.5872  0.1168 -0.0891
 4022SOL    HW215854   4.381   3.292   4.260 -0.4856  0.3247 -0.4839
 4022SOL    HW315855   4.321   3.357   4.383 -0.0760 -0.1009 -0.0530
 4022SOL    MW415856   4.337   3.357   4.297 -0.8390 -0.1883  0.0239
 4023SOL     OW15857   5.035   3.993   2.252 -0.3832  0.5235 -0.0051
 4023SOL    HW215858   4.973   3.921   2.240  0.7332 -0.3293 -0.8350
 4023SOL    HW315859   5.107   3.973   2.192  1.6995  0.3589  2.3648
 4023SOL    MW415860   5.036   3.981   2.242 -0.0944 -0.5028 -0.4127
 4024SOL     OW15861   2.218   2.137   3.038  0.7603 -0.5652 -0.2588
 4024SOL    HW215862   2.270   2.092   2.973  0.5814  1.1621 -1.6673
 4024SOL    HW315863   2.148   2.075   3.060  0.1209 -0.7459 -2.6216
 4024SOL    MW415864   2.215   2.123   3.033  0.5135 -0.2355  0.5068
 4025SOL     OW15865   1.497   4.302   2.759  0.9498 -0.1577  0.1050
 4025SOL    HW215866   1.485   4.366   2.689 -0.2123  0.0282  0.4570
 4025SOL    HW315867   1.582   4.324   2.798  1.3173  0.1282 -0.8190
 4025SOL    MW415868   1.507   4.313   2.755 -0.2680 -0.0556 -0.5866
 4026SOL     OW15869   5.982   4.786   1.089  0.0362 -0.1106 -0.1261
 4026SOL    HW215870   6.006   4.731   1.164  1.2810  0.9623  0.2927
 4026SOL    HW315871   6.062   4.835   1.068 -0.7067  0.6817 -1.2347
 4026SOL    MW415872   5.996   4.785   1.096  0.1863  0.2014 -0.1091
 4027SOL     OW15873   1.302   4.905   5.210 -0.3343  0.4132  0.1518
 4027SOL    HW215874   1.307   4.906   5.305  2.1465  2.4807  0.1083
 4027SOL    HW315875   1.220   4.951   5.190  0.5967  2.7295  1.3396
 4027SOL    MW415876   1.292   4.911   5.220  0.2987 -0.2426  0.1768
 4028SOL     OW15877   2.682   4.452   5.577  0.2127 -0.3576  0.0603
 4028SOL    HW215878   2.719   4.401   5.649 -1.1927 -1.3626  0.1087
 4028SOL    HW315879   2.734   4.533   5.576 -0.2021  0.0517  2.6968
 4028SOL    MW415880   2.694   4.456   5.587 -0.2092 -0.8928 -0.4785
 4029SOL     OW15881   1.488   5.416   2.660  0.0771 -0.8142 -0.2002
 4029SOL    HW215882   1.416   5.447   2.606  0.3649 -0.6783 -0.5059
 4029SOL    HW315883   1.507   5.328   2.628  0.5131 -0.5826 -0.5950
 4029SOL    MW415884   1.481   5.408   2.649 -0.3579  0.2258  0.3151
 4030SOL     OW15885   2.773   4.723   6.405 -0.1679  0.1133  0.0587
 4030SOL    HW215886   2.701   4.684   6.355 -0.4605  0.9462 -0.1949
 4030SOL    HW315887   2.823   4.649   6.439  0.7498 -0.5437 -2.4725
 4030SOL    MW415888   2.770   4.708   6.403 -0.2289  0.2607 -0.1695
 4031SOL     OW15889   4.042   4.928   5.111 -0.0091  0.6517  0.3346
 4031SOL    HW215890   3.948   4.919   5.127  0.1152  1.1295  1.4736
 4031SOL    HW315891   4.049   4.963   5.022 -0.9934  2.0458  0.7750
 4031SOL    MW415892   4.031   4.931   5.102 -0.2016 -0.0757 -0.0141
 4032SOL     OW15893   1.312   5.062   3.436 -0.4609  0.1602  1.4605
 4032SOL    HW215894   1.359   5.098   3.360  0.0599 -1.1440  1.1306
 4032SOL    HW315895   1.220   5.067   3.411 -0.3087  0.0018  0.8458
 4032SOL    MW415896   1.306   5.067   3.422  0.2172  0.2708  0.2142
 4033SOL     OW15897   2.604   1.636   0.537  0.0461 -0.2778  0.3769
 4033SOL    HW215898   2.607   1.713   0.481 -0.1184 -1.2579 -1.0239
 4033SOL    HW315899   2.689   1.593   0.524 -0.1180 -0.6877  0.6292
 4033SOL    MW415900   2.616   1.641   0.528 -0.6471  0.7282  0.1830
 4034SOL     OW15901   0.225   4.513   1.841 -0.0793 -0.3463 -0.2072
 4034SOL    HW215902   0.216   4.550   1.930  0.9128 -1.0222  0.1972
 4034SOL    HW315903   0.296   4.449   1.850  0.1254 -0.3149 -1.5300
 4034SOL    MW415904   0.233   4.510   1.854  0.3427  0.0119  0.2839
 4035SOL     OW15905   4.311   6.236   2.095 -0.1583 -0.0487 -0.2145
 4035SOL    HW215906   4.365   6.270   2.023  3.4609 -2.0211  1.3014
 4035SOL    HW315907   4.349   6.150   2.114 -2.5730 -0.6588  2.4676
 4035SOL    MW415908   4.323   6.229   2.088  0.5711  0.4908  0.1261
 4036SOL     OW15909   1.545   0.684   4.899 -0.0119 -0.4569 -0.9416
 4036SOL    HW215910   1.595   0.648   4.825 -0.1396 -1.5192 -0.5289
 4036SOL    HW315911   1.460   0.641   4.894  0.3455 -1.3776  0.4511
 4036SOL    MW415912   1.541   0.674   4.888 -0.0531  0.3053 -0.2498
 4037SOL     OW15913   1.999   4.870   0.982  0.3112 -0.5238 -0.0545
 4037SOL    HW215914   1.967   4.802   0.923 -0.2560  0.8056 -1.3217
 4037SOL    HW315915   1.938   4.866   1.057  0.8463 -1.9988  0.3470
 4037SOL    MW415916   1.987   4.860   0.984  0.6545  0.3619  0.0390
 4038SOL     OW15917   1.097   1.254   3.472  0.4574 -0.1432  0.2288
 4038SOL    HW215918   1.088   1.168   3.430 -3.5633  0.6482 -0.9407
 4038SOL    HW315919   1.069   1.238   3.563  1.1268 -0.2960  0.4162
 4038SOL    MW415920   1.092   1.240   3.479 -0.4890 -0.0252 -0.1084
 4039SOL     OW15921   1.895   3.223   2.917  0.6364 -0.1852  0.6244
 4039SOL    HW215922   1.938   3.143   2.946  1.3325 -0.1605 -0.3120
 4039SOL    HW315923   1.839   3.247   2.991  0.9048 -1.1725  1.1746
 4039SOL    MW415924   1.894   3.216   2.931  0.5313  0.2895  0.5011
 4040SOL     OW15925   6.305   1.869   3.507 -0.0990 -0.3745  0.0125
 4040SOL    HW215926   6.353   1.801   3.555 -2.1686 -0.9158  1.4500
 4040SOL    HW315927   6.373   1.924   3.469  1.6637 -0.8570  2.2661
 4040SOL    MW415928   6.320   1.867   3.509 -0.4996 -0.0443 -0.0983
 4041SOL     OW15929   4.994   1.214   2.712  0.0810 -0.6990  0.6072
 4041SOL    HW215930   5.034   1.245   2.792  0.3382  1.6545 -0.3611
 4041SOL    HW315931   5.026   1.273   2.644 -1.1118 -1.8253 -1.0234
 4041SOL    MW415932   5.003   1.226   2.713 -0.0505 -0.0397 -0.7774
 4042SOL     OW15933   2.816   2.138   4.870 -0.0871  0.2941  0.1748
 4042SOL    HW215934   2.854   2.123   4.956  2.5680  1.0581 -0.7774
 4042SOL    HW315935   2.820   2.233   4.857  0.6709  0.1088 -1.2119
 4042SOL    MW415936   2.821   2.148   4.880 -0.4587 -0.0400 -1.0442
 4043SOL     OW15937   2.788   5.720   5.825 -0.3734  0.1968 -0.1041
 4043SOL    HW215938   2.732   5.725   5.903 -1.9207 -2.0944 -0.9473
 4043SOL    HW315939   2.873   5.691   5.859 -0.8835 -0.2822  0.8246
 4043SOL    MW415940   2.792   5.717   5.840  0.4656 -0.3563  0.3219
 4044SOL     OW15941   0.431   1.756   4.950 -0.1017 -0.1706 -0.4084
 4044SOL    HW215942   0.404   1.815   5.020  0.3528 -0.8513  0.3527
 4044SOL    HW315943   0.362   1.690   4.946  0.4283 -0.7664  0.1661
 4044SOL    MW415944   0.418   1.755   4.959 -0.0748 -0.5061  0.3719
 4045SOL     OW15945   5.124   0.550   5.909 -0.2932 -0.1897  0.3905
 4045SOL    HW215946   5.126   0.521   6.000  0.6947  0.0210  0.4502
 4045SOL    HW315947   5.114   0.469   5.858 -0.0584 -0.3873  0.6565
 4045SOL    MW415948   5.123   0.535   5.914  0.2179  0.0869 -0.1351
 4046SOL     OW15949   4.130   5.133   0.692  0.4462  0.4713 -0.1544
 4046SOL    HW215950   4.219   5.099   0.700  0.0819 -0.7023 -0.7966
 4046SOL    HW315951   4.075   5.059   0.718 -0.3265  1.6881  1.8546
 4046SOL    MW415952   4.135   5.119   0.696 -0.1905  0.0016  0.3919
 4047SOL     OW15953   3.779   6.297   4.334  0.0635  0.0653  0.3978
 4047SOL    HW215954   3.849   6.360   4.319  0.3334 -0.4869 -0.8002
 4047SOL    HW315955   3.717   6.313   4.263 -0.8084  0.2402  1.1795
 4047SOL    MW415956   3.780   6.307   4.323 -0.4409 -0.0200  0.7381
 4048SOL     OW15957   1.567   5.940   6.194 -0.6704 -0.0113  0.0444
 4048SOL    HW215958   1.555   5.943   6.099  2.1100 -1.8032 -0.4738
 4048SOL    HW315959   1.562   5.847   6.216  0.1387  0.2368  1.4069
 4048SOL    MW415960   1.565   5.928   6.185 -0.1455  0.0971  0.5663
 4049SOL     OW15961   4.575   2.992   3.740  0.2370  0.0181  0.0980
 4049SOL    HW215962   4.531   2.958   3.663  0.2033  0.4254 -0.0669
 4049SOL    HW315963   4.549   3.084   3.743 -1.7918 -0.5305  1.9815
 4049SOL    MW415964   4.565   3.000   3.730 -0.3805  0.2268 -0.0292
 4050SOL     OW15965   4.734   1.160   1.455  0.0635  0.2638  0.3380
 4050SOL    HW215966   4.747   1.255   1.451  0.2837  0.1820 -1.3635
 4050SOL    HW315967   4.815   1.123   1.420 -0.3103 -0.5401  0.2981
 4050SOL    MW415968   4.747   1.167   1.450 -0.2047  0.7411 -0.3078
 4051SOL     OW15969   3.765   2.040   6.078  0.0841  0.5650 -0.1156
 4051SOL    HW215970   3.673   2.016   6.060 -1.1854  4.3310  0.5300
 4051SOL    HW315971   3.801   2.061   5.992 -0.2590  0.8374 -0.1984
 4051SOL    MW415972   3.757   2.040   6.064 -0.6108  0.0165 -0.2995
 4052SOL     OW15973   0.235   4.076   6.164  0.0389 -0.2230  0.0042
 4052SOL    HW215974   0.238   4.158   6.213 -1.2552 -1.2239  1.8764
 4052SOL    HW315975   0.158   4.084   6.108 -0.1541 -0.1931  0.2714
 4052SOL    MW415976   0.226   4.088   6.163  0.0438 -0.4749  0.3045
 4053SOL     OW15977   3.253   6.203   6.417 -0.0962  0.5961  0.3851
 4053SOL    HW215978   3.307   6.124   6.411  0.4034  0.8625  1.1231
 4053SOL    HW315979   3.169   6.172   6.450 -0.8531 -0.0050 -1.9779
 4053SOL    MW415980   3.249   6.188   6.421 -0.2625  0.1140  0.2658
 4054SOL     OW15981   4.742   5.605   2.323 -0.2594 -0.0089 -0.1929
 4054SOL    HW215982   4.795   5.540   2.371 -1.8272 -0.2695  1.3038
 4054SOL    HW315983   4.768   5.689   2.361 -1.6150 -0.2291  1.3268
 4054SOL    MW415984   4.753   5.608   2.335  0.8631  0.3022  0.8348
 4055SOL     OW15985   0.964   1.225   5.056 -0.0148  0.1840  0.7895
 4055SOL    HW215986   0.898   1.158   5.035 -0.5677  0.4321  1.6728
 4055SOL    HW315987   0.978   1.271   4.973 -2.9152  1.8176  1.0467
 4055SOL    MW415988   0.957   1.222   5.042 -0.6118  0.7103  0.3574
 4056SOL     OW15989   2.877   0.144   4.263  0.5340 -0.5606  0.3294
 4056SOL    HW215990   2.877   0.129   4.358  2.6515 -1.3550  0.2536
 4056SOL    HW315991   2.880   0.056   4.226  0.8150 -0.2251 -0.4496
 4056SOL    MW415992   2.877   0.130   4.271  0.4168  0.0616 -0.5356
 4057SOL     OW15993   1.876   1.437   2.948  0.3695 -0.5837  0.0320
 4057SOL    HW215994   1.905   1.381   2.876  0.5360 -0.4169 -0.0323
 4057SOL    HW315995   1.787   1.462   2.924 -0.5432 -2.5575  1.0997
 4057SOL    MW415996   1.868   1.433   2.936 -0.5420  0.6697  0.3768
 4058SOL     OW15997   2.574   3.028   3.996 -0.3529 -0.2479  0.1761
 4058SOL    HW215998   2.579   2.936   4.023 -0.7308 -0.6310 -0.9722
 4058SOL    HW315999   2.509   3.028   3.925 -0.2882  0.8939  0.1030
 4058SOL    MW416000   2.566   3.016   3.990  0.2678  0.0546  0.5385
 4059SOL     OW16001   4.542   2.285   0.845 -0.6710 -0.3375 -0.3723
 4059SOL    HW216002   4.540   2.338   0.764  0.1115  1.1603  0.5427
 4059SOL    HW316003   4.635   2.273   0.863 -0.6526  2.2835  2.0685
 4059SOL    MW416004   4.554   2.291   0.836  0.0634  0.2810 -0.5036
 4060SOL     OW16005   6.102   0.011   3.271  0.0848 -0.6969  0.4631
 4060SOL    HW216006   6.051  -0.065   3.243 -0.1303  0.2864 -1.9726
 4060SOL    HW316007   6.036   0.074   3.299  0.0636 -0.2063 -0.6689
 4060SOL    MW416008   6.086   0.009   3.271  0.1493  0.2447 -0.1258
 4061SOL     OW16009   6.094   1.778   4.433 -0.1760  0.3615 -0.3064
 4061SOL    HW216010   6.141   1.800   4.513 -1.4305  0.2304  0.4935
 4061SOL    HW316011   6.009   1.745   4.463 -0.2740 -0.7108 -1.6556
 4061SOL    MW416012   6.089   1.777   4.447  0.2188 -0.3072  0.0778
 4062SOL     OW16013   2.201   2.313   3.390  0.7155  0.0137  0.1837
 4062SOL    HW216014   2.276   2.291   3.335  0.3303 -1.0601  0.0713
 4062SOL    HW316015   2.239   2.360   3.464  1.4264 -0.0121 -0.1546
 4062SOL    MW416016   2.216   2.317   3.392  0.0725 -0.2223 -0.0285
 4063SOL     OW16017   2.761   2.318   5.993 -0.2094 -0.6857  0.3553
 4063SOL    HW216018   2.846   2.363   5.992 -0.6781  0.2417  0.2385
 4063SOL    HW316019   2.727   2.330   5.904 -0.3195 -1.3379  0.3086
 4063SOL    MW416020   2.768   2.326   5.981 -1.0558  0.1417 -0.0939
 4064SOL     OW16021   1.096   5.749   1.840  0.0686  0.0054 -0.6668
 4064SOL    HW216022   1.152   5.824   1.818 -1.7109  1.0602 -1.8972
 4064SOL    HW316023   1.042   5.736   1.762 -1.7542 -0.6012  0.6267
 4064SOL    MW416024   1.096   5.758   1.827  0.8536  0.0664 -0.0451
 4065SOL     OW16025   5.519   2.569   5.004  0.4417  0.4607 -0.1813
 4065SOL    HW216026   5.505   2.625   5.080  1.1893 -0.8000  0.9191
 4065SOL    HW316027   5.490   2.482   5.032 -0.1102  0.1433 -1.6434
 4065SOL    MW416028   5.513   2.565   5.018 -0.7784 -0.8696  0.3163
 4066SOL     OW16029   0.476   1.416   0.267  0.6550  0.1722 -0.0687
 4066SOL    HW216030   0.407   1.450   0.210 -0.0344 -1.5231 -0.3112
 4066SOL    HW316031   0.467   1.320   0.261  2.1517 -0.0675  0.9716
 4066SOL    MW416032   0.465   1.408   0.259 -0.3182  0.2045  0.2002
 4067SOL     OW16033   3.922   4.160   2.028  0.1080 -0.1488 -0.3235
 4067SOL    HW216034   3.960   4.081   2.066 -1.4030 -0.8837 -0.2791
 4067SOL    HW316035   3.876   4.202   2.101  0.2048  0.3462 -0.5418
 4067SOL    MW416036   3.921   4.155   2.043  0.4957 -0.1582  0.3382
 4068SOL     OW16037   1.105   4.105   1.246  0.4493 -0.6983  0.3246
 4068SOL    HW216038   1.131   4.029   1.193 -0.3459 -1.2981  0.7773
 4068SOL    HW316039   1.071   4.068   1.327  0.0146  0.1461  0.5413
 4068SOL    MW416040   1.104   4.090   1.250 -0.2694  0.3056  0.2073
 4069SOL     OW16041   1.491   3.991   3.451  0.4164 -0.4495 -0.0167
 4069SOL    HW216042   1.534   3.989   3.537 -0.1882 -1.0728  0.2801
 4069SOL    HW316043   1.398   3.983   3.471  0.4022 -3.1530 -0.8423
 4069SOL    MW416044   1.485   3.990   3.465  0.3243  0.5063  0.0833
 4070SOL     OW16045   4.036   6.308   1.964 -0.2339 -0.0386 -0.6405
 4070SOL    HW216046   3.967   6.333   2.026  0.6216 -0.5974  0.5738
 4070SOL    HW316047   4.114   6.296   2.018  0.8878  0.7750 -2.0074
 4070SOL    MW416048   4.037   6.309   1.979 -0.5966 -0.5363 -0.9873
 4071SOL     OW16049   5.426   6.311   2.235  0.6751  0.7383 -0.2070
 4071SOL    HW216050   5.473   6.346   2.311  1.0135  0.6942 -0.3935
 4071SOL    HW316051   5.348   6.366   2.227  0.7567  0.8880  0.0327
 4071SOL    MW416052   5.422   6.323   2.244  0.1597 -0.2300 -0.2205
 4072SOL     OW16053   6.295   4.617   4.047 -0.6570  0.3498  0.2221
 4072SOL    HW216054   6.302   4.631   4.142  2.2380  2.5193 -0.1823
 4072SOL    HW316055   6.362   4.551   4.027 -0.7739  0.4190 -0.4239
 4072SOL    MW416056   6.305   4.610   4.057 -0.3933 -0.8097  0.2368
 4073SOL     OW16057   2.903   5.358   1.548 -0.3472 -0.2488 -0.0620
 4073SOL    HW216058   2.963   5.431   1.532 -0.4519 -0.2903 -0.6690
 4073SOL    HW316059   2.827   5.377   1.494 -0.9856 -0.0948  0.8544
 4073SOL    MW416060   2.901   5.370   1.539  0.3182  0.1288  0.0778
 4074SOL     OW16061   0.783   1.949   6.361  0.1511 -0.5908 -0.6914
 4074SOL    HW216062   0.753   2.034   6.329 -2.1936 -0.7564  0.8425
 4074SOL    HW316063   0.858   1.970   6.417  1.3379  0.1225 -2.4387
 4074SOL    MW416064   0.789   1.963   6.364 -0.3448  0.4666 -0.0062
 4075SOL     OW16065   6.264   6.284   5.236 -0.1675  0.2322  0.4626
 4075SOL    HW216066   6.319   6.205   5.235 -0.9844 -0.3746  1.1037
 4075SOL    HW316067   6.324   6.356   5.216  0.5047 -0.5988 -0.6511
 4075SOL    MW416068   6.279   6.283   5.233 -0.6806 -0.1952  0.3357
 4076SOL     OW16069   3.428   1.939   3.819 -0.4852 -0.7898  0.2034
 4076SOL    HW216070   3.432   2.034   3.828  0.5127 -0.8041 -0.0195
 4076SOL    HW316071   3.378   1.910   3.895  0.4170 -0.2020  1.0373
 4076SOL    MW416072   3.422   1.948   3.830 -0.4005  0.1620 -0.6707
 4077SOL     OW16073   4.075   4.179   0.604  0.2107 -0.3580  0.3212
 4077SOL    HW216074   4.095   4.160   0.695  1.3814 -0.9428 -0.0398
 4077SOL    HW316075   4.086   4.274   0.595 -0.3077 -0.2448  0.8766
 4077SOL    MW416076   4.079   4.189   0.615  0.1267 -0.1692  0.0464
 4078SOL     OW16077   1.504   1.358   5.451 -0.1997  0.4044  0.2826
 4078SOL    HW216078   1.548   1.311   5.521 -0.3409  0.5117  0.4424
 4078SOL    HW316079   1.538   1.318   5.370  1.3260  1.4920  0.3655
 4078SOL    MW416080   1.514   1.346   5.449  0.3412 -0.1972  0.3940
 4079SOL     OW16081   1.867   5.637   1.641  0.1687 -0.6532  0.3347
 4079SOL    HW216082   1.902   5.688   1.567 -1.0499  0.2923  0.3926
 4079SOL    HW316083   1.867   5.698   1.714 -0.8647 -0.8708  0.5253
 4079SOL    MW416084   1.872   5.652   1.641 -0.0522  0.4301  0.2475
 4080SOL     OW16085   1.203   1.819   1.803 -0.3539  0.0525 -0.2568
 4080SOL    HW216086   1.162   1.797   1.719  0.7651 -0.8813 -0.5845
 4080SOL    HW316087   1.181   1.746   1.860 -1.3604  0.8244  0.3914
 4080SOL    MW416088   1.194   1.807   1.799 -0.2673 -0.4795 -0.5500
 4081SOL     OW16089   2.214   3.578   1.534  0.0533 -0.1026  0.6502
 4081SOL    HW216090   2.220   3.640   1.607 -1.6657 -0.3679  1.0725
 4081SOL    HW316091   2.225   3.492   1.574  1.9384 -0.1362  0.1389
 4081SOL    MW416092   2.216   3.575   1.549  0.3958 -0.2401  0.0932
 4082SOL     OW16093   4.275   5.893   4.051  0.2022  0.7766 -0.8909
 4082SOL    HW216094   4.332   5.875   3.976  0.7445 -1.2342 -0.0774
 4082SOL    HW316095   4.248   5.806   4.082 -0.7056  1.5808  0.7095
 4082SOL    MW416096   4.279   5.879   4.045 -0.0995  0.1234 -0.2852
 4083SOL     OW16097   3.002   5.374   5.135  0.1398 -0.3120 -0.5523
 4083SOL    HW216098   2.915   5.345   5.108 -0.0472 -0.0425 -0.2410
 4083SOL    HW316099   2.989   5.463   5.168  0.3624 -0.6239  0.4255
 4083SOL    MW416100   2.989   5.382   5.136  0.4564 -0.4630  0.5552
 4084SOL     OW16101   4.637   3.662   4.588  0.2646 -0.0752 -0.0113
 4084SOL    HW216102   4.577   3.614   4.531 -0.2349 -1.0050  1.2546
 4084SOL    HW316103   4.613   3.753   4.577 -1.2666 -0.4156  0.3067
 4084SOL    MW416104   4.626   3.667   4.579 -0.4284  0.0232 -0.5313
 4085SOL     OW16105   2.688   5.306   2.071  0.3229  0.1100 -0.1950
 4085SOL    HW216106   2.739   5.387   2.073  0.6497 -0.0859 -0.5263
 4085SOL    HW316107   2.736   5.249   2.011  0.1863 -0.3950  0.1745
 4085SOL    MW416108   2.701   5.310   2.063  0.1772 -0.2418 -0.0285
 4086SOL     OW16109   0.480   4.025   5.698  0.4087 -0.0031 -0.3972
 4086SOL    HW216110   0.475   4.072   5.615  0.4381  0.2189 -0.2753
 4086SOL    HW316111   0.444   4.086   5.762  0.6371 -0.0665 -0.2038
 4086SOL    MW416112   0.475   4.039   5.696  0.0869  0.4820 -0.6881
 4087SOL     OW16113   4.496   1.296   1.847  0.3329 -0.3327  0.3092
 4087SOL    HW216114   4.577   1.347   1.852 -0.6034  1.2776 -0.2893
 4087SOL    HW316115   4.525   1.205   1.855  1.8736  0.2912  3.8002
 4087SOL    MW416116   4.511   1.291   1.849  0.0240  0.2561 -0.3073
 4088SOL     OW16117   4.668   5.695   1.345 -0.2511  0.2273  0.5628
 4088SOL    HW216118   4.667   5.654   1.432 -0.2936  0.5003  0.6949
 4088SOL    HW316119   4.663   5.789   1.364 -1.5725  0.2505  0.2365
 4088SOL    MW416120   4.667   5.702   1.359 -0.7767  0.2109 -0.1493
 4089SOL     OW16121   3.021   5.880   3.866 -0.4277  0.4100  0.1429
 4089SOL    HW216122   3.090   5.946   3.871  1.0946 -1.1433  0.4552
 4089SOL    HW316123   3.052   5.817   3.801 -0.5034 -1.4119  1.7727
 4089SOL    MW416124   3.034   5.880   3.858  0.0987 -0.6825 -0.2819
 4090SOL     OW16125   5.667   2.872   5.988  0.9465 -0.5984 -0.3845
 4090SOL    HW216126   5.653   2.832   5.903  1.2485  0.4421 -0.9417
 4090SOL    HW316127   5.637   2.963   5.978 -2.1455 -1.2549  1.5630
 4090SOL    MW416128   5.661   2.879   5.976  0.2114  0.1269  0.4612
 4091SOL     OW16129   1.326   3.777   2.490  0.4940  0.0179 -0.7226
 4091SOL    HW216130   1.286   3.854   2.530  1.7673  0.5834 -0.4747
 4091SOL    HW316131   1.403   3.760   2.544 -0.9037 -2.7923  0.5970
 4091SOL    MW416132   1.331   3.785   2.503  0.0330 -0.8720 -0.3489
 4092SOL     OW16133   5.059   3.954   4.210  0.4225 -0.0223 -0.3016
 4092SOL    HW216134   5.130   3.911   4.257  2.9863  3.6431 -0.3581
 4092SOL    HW316135   5.060   3.915   4.122  0.0075 -2.3277  0.6546
 4092SOL    MW416136   5.068   3.943   4.204  0.2964  0.0934 -0.4259
 4093SOL     OW16137   0.817   4.234   3.546 -0.1170  0.3086 -0.4339
 4093SOL    HW216138   0.790   4.277   3.465  1.9744 -1.4602 -2.1905
 4093SOL    HW316139   0.893   4.182   3.522  0.0683 -1.0013  2.5064
 4093SOL    MW416140   0.824   4.233   3.532  0.3181  0.3401  0.0068
 4094SOL     OW16141   6.249   0.275   5.005  0.0956  0.4378  0.2303
 4094SOL    HW216142   6.202   0.338   5.059  0.1903  1.2467 -0.6193
 4094SOL    HW316143   6.338   0.309   5.000  0.4917 -0.4667  0.8530
 4094SOL    MW416144   6.254   0.287   5.012 -0.2315  0.6197 -0.2898
 4095SOL     OW16145   2.293   1.697   0.219 -0.4279 -0.4982  0.2233
 4095SOL    HW216146   2.224   1.702   0.152  1.7737 -0.4644 -2.1977
 4095SOL    HW316147   2.347   1.775   0.203 -0.1399 -0.1605  2.5017
 4095SOL    MW416148   2.291   1.708   0.208  0.0287  0.1102 -0.0795
 4096SOL     OW16149   0.672   1.909   1.740  0.4763 -0.0440 -0.6586
 4096SOL    HW216150   0.740   1.851   1.775  1.3487  0.1519 -1.9703
 4096SOL    HW316151   0.665   1.979   1.805  1.6133 -0.0005 -0.5634
 4096SOL    MW416152   0.680   1.910   1.753  0.1973  0.3070 -0.3086
 4097SOL     OW16153   1.341   1.428   2.095 -0.5632  0.4620 -0.1548
 4097SOL    HW216154   1.406   1.478   2.046  0.9038 -0.7357  0.4625
 4097SOL    HW316155   1.346   1.340   2.057 -0.1510 -0.2172  1.3918
 4097SOL    MW416156   1.350   1.423   2.084 -0.0870 -0.4189  0.6158
 4098SOL     OW16157   5.713   1.098   6.409  0.0681 -1.0015 -0.4157
 4098SOL    HW216158   5.679   1.187   6.406 -0.2053 -0.9333  2.3644
 4098SOL    HW316159   5.757   1.086   6.325 -0.0608  1.6813 -0.9376
 4098SOL    MW416160   5.715   1.108   6.398  0.5839  0.3423  0.2793
 4099SOL     OW16161   3.591   0.702   5.676  0.1468 -0.0569 -0.2304
 4099SOL    HW216162   3.529   0.764   5.636 -0.4282 -0.0408  0.6695
 4099SOL    HW316163   3.569   0.617   5.638 -0.7176 -0.1221  0.3976
 4099SOL    MW416164   3.580   0.699   5.665  0.7048 -0.1583  1.0126
 4100SOL     OW16165   3.159   5.500   0.328  0.6537  0.3079 -0.3448
 4100SOL    HW216166   3.240   5.529   0.287  0.3895  1.9085  0.1609
 4100SOL    HW316167   3.107   5.464   0.257  0.8393  1.5615 -1.1456
 4100SOL    MW416168   3.163   5.499   0.313  0.1524 -0.6576  0.6549
 4101SOL     OW16169   4.475   0.890   3.944 -0.1712 -0.1197  0.3643
 4101SOL    HW216170   4.492   0.923   3.856  0.6866 -1.4904 -0.0001
 4101SOL    HW316171   4.476   0.969   3.999 -0.9344  0.7741 -0.8643
 4101SOL    MW416172   4.478   0.905   3.940  0.2681  0.4331  0.4134
 4102SOL     OW16173   4.360   3.775   4.990  0.8637  0.2501  0.3501
 4102SOL    HW216174   4.429   3.840   5.001  0.4713  0.6692  0.3815
 4102SOL    HW316175   4.337   3.749   5.079  4.2169 -3.4539  0.4246
 4102SOL    MW416176   4.366   3.780   5.003 -0.1172  0.2883 -0.1519
 4103SOL     OW16177   2.762   2.891   5.500  0.0172 -0.3471 -0.5504
 4103SOL    HW216178   2.733   2.835   5.572 -0.2499 -0.0790 -0.4484
 4103SOL    HW316179   2.692   2.955   5.489  0.2216 -0.1632 -0.8106
 4103SOL    MW416180   2.749   2.892   5.508 -0.1422  0.1013  0.4400
 4104SOL     OW16181   1.328   1.238   0.764  0.0422  0.6043  0.1113
 4104SOL    HW216182   1.236   1.221   0.743 -0.0340  2.1134 -0.8692
 4104SOL    HW316183   1.326   1.280   0.850 -0.0784 -0.3313  0.5827
 4104SOL    MW416184   1.316   1.241   0.773 -0.1287  0.1495 -0.4358
 4105SOL     OW16185   1.073   2.853   5.891  0.1106 -0.1830 -0.4669
 4105SOL    HW216186   1.149   2.909   5.908 -0.0970  0.6319 -2.0630
 4105SOL    HW316187   1.003   2.914   5.867 -0.1216 -1.0804 -2.2260
 4105SOL    MW416188   1.074   2.868   5.890  0.1790  0.7596  0.0403
 4106SOL     OW16189   5.552   4.096   3.226  0.4123  0.7018 -0.4708
 4106SOL    HW216190   5.471   4.147   3.220  0.2915  0.5824  0.0768
 4106SOL    HW316191   5.593   4.105   3.139 -1.1940 -0.9343 -1.4492
 4106SOL    MW416192   5.547   4.104   3.213 -0.0579  0.4327  0.2701
 4107SOL     OW16193   1.930   5.542   2.809  0.0356 -0.1674  0.7101
 4107SOL    HW216194   2.001   5.606   2.810  1.5504 -1.7425 -0.6798
 4107SOL    HW316195   1.895   5.547   2.720  1.2310 -2.3256  0.0671
 4107SOL    MW416196   1.934   5.551   2.798  0.2558 -0.0895  0.1558
 4108SOL     OW16197   3.474   5.693   0.464 -0.6093  0.0302  0.1346
 4108SOL    HW216198   3.406   5.745   0.507  1.2067  2.7045  0.0431
 4108SOL    HW316199   3.545   5.756   0.448  1.9420 -2.5881  0.3262
 4108SOL    MW416200   3.474   5.708   0.468 -0.3252  0.3978 -0.1629
 4109SOL     OW16201   5.946   5.092   3.785  0.3578  0.2715 -0.1436
 4109SOL    HW216202   5.984   5.122   3.868 -1.0112  1.0511  0.2382
 4109SOL    HW316203   5.949   4.997   3.790  1.1754  0.3147  0.3817
 4109SOL    MW416204   5.951   5.084   3.797 -0.2887  0.4674  0.3811
 4110SOL     OW16205   3.367   4.727   2.242 -0.1635 -0.0511  0.4238
 4110SOL    HW216206   3.372   4.697   2.152 -1.9509  2.0028 -0.4529
 4110SOL    HW316207   3.459   4.736   2.269  0.4283  0.1645 -1.4952
 4110SOL    MW416208   3.380   4.724   2.234 -0.1546 -0.0434 -0.2918
 4111SOL     OW16209   2.113   4.019   1.948 -0.4204 -0.2378  0.1971
 4111SOL    HW216210   2.143   3.932   1.975 -1.2794 -0.9181 -0.9617
 4111SOL    HW316211   2.102   4.067   2.030  2.4925 -0.3664  0.7696
 4111SOL    MW416212   2.116   4.014   1.962  0.3941  0.0246  0.1849
 4112SOL     OW16213   5.116   0.148   5.862  0.3129 -0.4323  0.6754
 4112SOL    HW216214   5.032   0.187   5.839  1.9961  2.3083 -1.4088
 4112SOL    HW316215   5.100   0.053   5.857 -2.6818 -0.0505  0.7552
 4112SOL    MW416216   5.103   0.140   5.858 -0.4028  1.2579  0.4378
 4113SOL     OW16217   1.070   5.816   1.359 -0.3410  0.0810 -0.0635
 4113SOL    HW216218   1.141   5.763   1.325  0.8447  2.4171 -1.4639
 4113SOL    HW316219   1.022   5.846   1.282 -1.6516  0.1890  0.7472
 4113SOL    MW416220   1.073   5.813   1.345  0.1207 -0.1997  0.0087
 4114SOL     OW16221   1.587   2.335   3.844  0.5027 -0.2448 -0.3925
 4114SOL    HW216222   1.599   2.321   3.750  0.9890  1.4884 -0.6274
 4114SOL    HW316223   1.557   2.426   3.851 -3.2971 -1.4376  0.9002
 4114SOL    MW416224   1.585   2.346   3.833 -0.0332 -0.3631  0.0376
 4115SOL     OW16225   2.352   0.934   5.194 -0.0931  0.3640  0.4186
 4115SOL    HW216226   2.396   1.018   5.196  1.3858 -0.3893  1.4769
 4115SOL    HW316227   2.388   0.889   5.118  0.3387  0.0824  0.7828
 4115SOL    MW416228   2.362   0.939   5.184 -0.3408  0.4681 -0.3963
 4116SOL     OW16229   3.162   2.334   5.500 -0.0889  0.7108  0.0778
 4116SOL    HW216230   3.215   2.357   5.576 -1.3344 -0.0635  1.2169
 4116SOL    HW316231   3.225   2.296   5.438  0.8632  0.8457  0.9247
 4116SOL    MW416232   3.178   2.332   5.502  0.3458 -0.2015  0.3130
 4117SOL     OW16233   2.826   0.836   4.299 -0.3156  0.0059  0.3947
 4117SOL    HW216234   2.860   0.913   4.254  0.4837 -1.8877 -2.5310
 4117SOL    HW316235   2.879   0.829   4.378  0.3734  1.7769  0.1327
 4117SOL    MW416236   2.838   0.845   4.304  0.6051 -0.0101  0.2580
 4118SOL     OW16237   3.880   2.880   0.487  0.8630 -0.7537 -0.1067
 4118SOL    HW216238   3.954   2.876   0.426  1.6396  1.3643  0.5915
 4118SOL    HW316239   3.837   2.963   0.467 -1.0972 -1.7405 -0.1830
 4118SOL    MW416240   3.884   2.890   0.476  0.1236 -0.2796 -0.3231
 4119SOL     OW16241   5.315   0.172   3.899 -0.4042 -0.1176 -0.0962
 4119SOL    HW216242   5.357   0.088   3.913 -0.6954 -0.3735 -0.7149
 4119SOL    HW316243   5.305   0.179   3.804 -0.2816  0.6642 -0.0617
 4119SOL    MW416244   5.319   0.162   3.888 -0.0716 -0.5573 -0.4255
 4120SOL     OW16245   4.926   2.475   5.953 -0.2788  0.2837  0.1692
 4120SOL    HW216246   4.999   2.416   5.932 -0.1775  0.8272 -1.0680
 4120SOL    HW316247   4.919   2.533   5.877 -1.6185  0.6297  0.5263
 4120SOL    MW416248   4.935   2.475   5.940  1.1435 -0.5881 -0.1697
 4121SOL     OW16249   5.601   3.211   1.330 -0.0050  0.2965 -0.2568
 4121SOL    HW216250   5.543   3.135   1.327  0.5795 -0.1270 -2.5267
 4121SOL    HW316251   5.615   3.227   1.424 -2.5490 -0.4935  0.3384
 4121SOL    MW416252   5.595   3.203   1.342 -0.3597 -0.4544  0.0401
 4122SOL     OW16253   5.893   0.919   1.818 -0.5285  0.0742 -0.1104
 4122SOL    HW216254   5.879   0.901   1.725 -0.1700  0.8180 -0.3142
 4122SOL    HW316255   5.856   1.007   1.831  1.2117  0.8246 -0.0014
 4122SOL    MW416256   5.886   0.929   1.808  0.1838 -0.1170 -0.1803
 4123SOL     OW16257   0.469   3.285   1.026  0.1531  0.5101 -0.4693
 4123SOL    HW216258   0.491   3.327   0.943 -0.7826  1.8484 -0.0770
 4123SOL    HW316259   0.386   3.241   1.010  0.6869 -0.4772 -0.6232
 4123SOL    MW416260   0.461   3.285   1.013  0.2741  0.3789  0.7215
 4124SOL     OW16261   0.244   0.359   5.667 -0.1557  0.3003  0.1183
 4124SOL    HW216262   0.214   0.444   5.635  1.2338  1.8041  2.4783
 4124SOL    HW316263   0.198   0.348   5.751  0.1975 -0.9795  0.1639
 4124SOL    MW416264   0.234   0.369   5.674 -0.2747 -0.0982  0.0258
 4125SOL     OW16265   5.080   5.684   2.059  0.0538  0.3683 -0.8339
 4125SOL    HW216266   5.097   5.778   2.058 -0.1898  0.4088 -1.7199
 4125SOL    HW316267   5.127   5.650   1.982  1.2337 -0.4428  0.1943
 4125SOL    MW416268   5.089   5.692   2.049  0.4452 -0.7631 -0.4325
 4126SOL     OW16269   1.682   5.373   5.249  0.0554 -0.2354  0.7204
 4126SOL    HW216270   1.748   5.427   5.207  0.1123 -2.8967 -3.1366
 4126SOL    HW316271   1.731   5.301   5.288 -0.3028  0.2371  2.0977
 4126SOL    MW416272   1.697   5.370   5.249  0.0159 -0.8454  0.0082
 4127SOL     OW16273   3.707   5.401   6.265  0.1780 -0.1049  0.0277
 4127SOL    HW216274   3.620   5.361   6.263  0.8841 -1.6699 -2.0724
 4127SOL    HW316275   3.704   5.460   6.341 -2.6613 -0.1573  0.0600
 4127SOL    MW416276   3.695   5.404   6.275 -0.1764  0.2227  0.3125
 4128SOL     OW16277   2.718   3.000   0.629  0.7977  0.2326 -0.2875
 4128SOL    HW216278   2.777   2.972   0.699  1.1895 -0.5942 -0.9229
 4128SOL    HW316279   2.630   2.989   0.666  0.9106 -2.2608 -0.5912
 4128SOL    MW416280   2.714   2.995   0.644  0.1960  0.4267 -0.5295
 4129SOL     OW16281   1.791   5.890   5.674  0.7844 -0.1527 -0.0498
 4129SOL    HW216282   1.702   5.878   5.706  0.4475  0.0414 -0.8801
 4129SOL    HW316283   1.781   5.904   5.580  1.6993 -0.2001 -0.1660
 4129SOL    MW416284   1.778   5.890   5.666 -0.2721  0.1378  0.0913
 4130SOL     OW16285   5.069   0.246   3.385  0.2928  0.0501 -0.0114
 4130SOL    HW216286   5.141   0.226   3.444  1.5440 -1.1725 -1.8440
 4130SOL    HW316287   5.110   0.290   3.310 -1.0171  0.2906 -0.6304
 4130SOL    MW416288   5.084   0.249   3.383  0.1338 -0.4776  0.2787
 4131SOL     OW16289   4.578   5.813   3.297  0.0086  0.2218  0.4420
 4131SOL    HW216290   4.568   5.888   3.354  0.0063 -0.0346  0.7831
 4131SOL    HW316291   4.577   5.737   3.356 -0.7725 -0.0967  0.0404
 4131SOL    MW416292   4.577   5.813   3.312 -0.2781  0.1107 -0.0004
 4132SOL     OW16293   3.528   1.590   2.903 -0.2331  0.0088 -0.3120
 4132SOL    HW216294   3.576   1.517   2.863 -0.6451  0.2135 -1.1960
 4132SOL    HW316295   3.480   1.550   2.976  1.7296 -0.0950  0.9890
 4132SOL    MW416296   3.528   1.575   2.907  0.4129  0.1314 -0.4939
 4133SOL     OW16297   2.912   2.440   5.473 -0.0552  0.1843 -0.0215
 4133SOL    HW216298   2.929   2.518   5.419 -0.0097 -0.3714 -0.8356
 4133SOL    HW316299   2.998   2.399   5.483 -0.2385 -0.3421 -0.5328
 4133SOL    MW416300   2.926   2.445   5.467  0.0821  1.0809  0.1661
 4134SOL     OW16301   0.861   5.766   3.320  0.4712  0.0773  0.1696
 4134SOL    HW216302   0.851   5.747   3.413  0.3719 -0.2207  0.0989
 4134SOL    HW316303   0.884   5.859   3.317  0.6652  0.0429  0.5026
 4134SOL    MW416304   0.863   5.776   3.332 -0.1982  0.6479 -0.0021
 4135SOL     OW16305   0.920   0.421   3.612 -0.1716  0.4380  0.6199
 4135SOL    HW216306   0.931   0.395   3.520  1.7985 -0.9457  1.1810
 4135SOL    HW316307   0.992   0.482   3.628 -0.5408  0.7220  1.2506
 4135SOL    MW416308   0.931   0.425   3.602  1.0591 -0.2367  0.3041
 4136SOL     OW16309   3.838   0.901   2.545 -1.0420  0.2444  0.5855
 4136SOL    HW216310   3.815   0.993   2.557 -2.9073 -0.2810  1.4989
 4136SOL    HW316311   3.905   0.884   2.611  1.5839  1.5906 -1.5132
 4136SOL    MW416312   3.844   0.911   2.555 -0.3008 -0.1317 -0.1288
 4137SOL     OW16313   2.538   0.825   0.324 -0.2008  0.0915 -0.1992
 4137SOL    HW216314   2.470   0.821   0.391  0.8672  0.8859  0.9895
 4137SOL    HW316315   2.608   0.769   0.357 -0.3758 -0.9492 -1.5458
 4137SOL    MW416316   2.539   0.817   0.338 -0.0565 -0.2416  0.2602
 4138SOL     OW16317   5.938   5.436   4.635  0.1310 -0.3061  0.2325
 4138SOL    HW216318   5.855   5.460   4.594 -0.5789 -3.0978 -0.2053
 4138SOL    HW316319   5.925   5.455   4.728 -0.5640  0.3950  0.0003
 4138SOL    MW416320   5.925   5.441   4.642  0.3300 -0.7145  0.3544
 4139SOL     OW16321   6.410   5.327   1.178  0.2359 -0.0382  0.3903
 4139SOL    HW216322   6.425   5.244   1.223  0.5195 -1.0980 -1.5106
 4139SOL    HW316323   6.356   5.303   1.102 -0.1464  1.6171  0.0981
 4139SOL    MW416324   6.405   5.312   1.174  0.3287 -0.3427  0.3004
 4140SOL     OW16325   3.012   0.525   4.270 -0.3710 -0.0616  0.3593
 4140SOL    HW216326   2.986   0.539   4.179  0.6035 -1.0901 -0.0941
 4140SOL    HW316327   2.929   0.511   4.317 -0.8914  0.6645 -0.3190
 4140SOL    MW416328   2.998   0.525   4.264  0.5412 -0.0626 -0.1849
 4141SOL     OW16329   1.020   0.905   4.844 -0.2208 -0.4864  0.7132
 4141SOL    HW216330   1.088   0.962   4.808 -0.9516  0.2158  0.4091
 4141SOL    HW316331   1.068   0.839   4.894  0.7280 -0.5595 -0.2669
 4141SOL    MW416332   1.035   0.904   4.846  0.7008  0.4455  0.1575
 4142SOL     OW16333   3.572   4.779   0.019  0.6303  0.8621 -0.4301
 4142SOL    HW216334   3.626   4.700   0.010 -0.4064 -0.0261  0.7516
 4142SOL    HW316335   3.482   4.747   0.024  0.1942  2.1093  0.2032
 4142SOL    MW416336   3.567   4.764   0.019 -0.2104 -0.1206 -0.2706
 4143SOL     OW16337   2.774   1.783   1.467 -0.0236  0.5715 -0.0317
 4143SOL    HW216338   2.803   1.704   1.421 -0.7401  0.8630 -1.0168
 4143SOL    HW316339   2.766   1.849   1.398  2.0319  1.9706  0.9502
 4143SOL    MW416340   2.777   1.781   1.451  0.1630  0.0853  0.0711
 4144SOL     OW16341   0.489   0.794   1.256 -0.3181 -0.0821  0.2413
 4144SOL    HW216342   0.567   0.841   1.228  0.2765 -0.7209  0.7896
 4144SOL    HW316343   0.505   0.703   1.230 -1.2827 -0.0793 -0.4605
 4144SOL    MW416344   0.501   0.788   1.249  0.3772  0.2156 -0.0950
 4145SOL     OW16345   6.052   1.976   2.872 -1.1630  0.4848 -0.3140
 4145SOL    HW216346   6.008   1.939   2.795  1.8438 -0.1809 -1.9173
 4145SOL    HW316347   6.082   1.900   2.921  0.9406  0.7541 -1.0654
 4145SOL    MW416348   6.050   1.961   2.868 -0.0556 -0.0565 -0.0616
 4146SOL     OW16349   0.600   1.829   3.691  0.8504 -0.0092  0.8433
 4146SOL    HW216350   0.689   1.820   3.658  0.4706 -1.6707  0.1688
 4146SOL    HW316351   0.595   1.766   3.763 -0.1800 -1.0431 -0.0849
 4146SOL    MW416352   0.611   1.820   3.696  0.4081  0.1503 -0.4065
 4147SOL     OW16353   4.254   1.624   1.591  0.5660  0.4614  0.1346
 4147SOL    HW216354   4.186   1.627   1.523  1.9814  0.3095 -1.3377
 4147SOL    HW316355   4.330   1.665   1.551  1.7611 -0.5878  1.2476
 4147SOL    MW416356   4.255   1.630   1.576  0.1705 -0.0763  0.4130
 4148SOL     OW16357   3.032   3.368   4.457  1.2532  0.1701 -0.6562
 4148SOL    HW216358   2.968   3.431   4.423  0.0594 -0.3867  0.4601
 4148SOL    HW316359   3.092   3.421   4.509  0.6339  0.4938 -0.2483
 4148SOL    MW416360   3.031   3.383   4.459  0.3352 -0.2759 -0.3452
 4149SOL     OW16361   3.610   0.243   5.979  0.0110  0.2183 -0.1366
 4149SOL    HW216362   3.557   0.304   5.928 -0.0522  1.0759  0.9090
 4149SOL    HW316363   3.661   0.299   6.038 -0.9073 -0.7528  1.6766
 4149SOL    MW416364   3.610   0.259   5.980 -0.4671  0.1136 -0.5393
 4150SOL     OW16365   4.812   4.496   5.728 -0.3964  0.3285 -0.1280
 4150SOL    HW216366   4.774   4.409   5.738  0.4200 -0.4160 -2.7469
 4150SOL    HW316367   4.816   4.531   5.818 -1.2992 -2.0557  0.9229
 4150SOL    MW416368   4.808   4.489   5.742 -0.6516 -0.0475  0.1048
 4151SOL     OW16369   5.532   0.128   0.874 -0.1154  0.1952 -0.0839
 4151SOL    HW216370   5.611   0.135   0.821 -0.0295  0.9941  0.1363
 4151SOL    HW316371   5.509   0.035   0.872  0.4613  0.0645 -0.6791
 4151SOL    MW416372   5.539   0.117   0.867 -0.4237  0.2703  0.6100
 4152SOL     OW16373   5.318   4.170   4.150 -0.3938 -0.1152 -0.1185
 4152SOL    HW216374   5.288   4.119   4.225 -1.1183 -1.1586 -1.0836
 4152SOL    HW316375   5.253   4.240   4.141 -0.5087 -0.2067 -0.0004
 4152SOL    MW416376   5.306   4.173   4.158 -0.0405  0.1378  0.4783
 4153SOL     OW16377   0.929   2.157   1.048  0.0433 -0.5019  0.3624
 4153SOL    HW216378   0.915   2.078   1.102 -2.6622  0.5304  1.3516
 4153SOL    HW316379   0.851   2.162   0.993  1.1269  0.4391 -1.1467
 4153SOL    MW416380   0.917   2.147   1.048 -0.0348  0.6643 -0.5558
 4154SOL     OW16381   2.743   5.271   3.058  0.0641 -0.2420  0.1866
 4154SOL    HW216382   2.784   5.295   3.141 -1.1447  2.1938  0.1581
 4154SOL    HW316383   2.654   5.305   3.064 -0.3510 -0.8556 -1.7370
 4154SOL    MW416384   2.737   5.279   3.070  0.3796 -0.2148 -0.1779
 4155SOL     OW16385   2.696   3.439   1.712 -0.0277 -0.3657  0.5019
 4155SOL    HW216386   2.641   3.500   1.761 -0.8504 -1.1668  0.6010
 4155SOL    HW316387   2.701   3.361   1.767 -0.9755 -1.2860 -0.6645
 4155SOL    MW416388   2.690   3.437   1.726 -0.3103 -0.2502  0.1205
 4156SOL     OW16389   3.655   3.146   5.162  0.2390 -0.2741  0.3464
 4156SOL    HW216390   3.670   3.100   5.079  0.1511 -0.9544  0.7003
 4156SOL    HW316391   3.716   3.220   5.160 -0.0543 -0.0375 -0.5077
 4156SOL    MW416392   3.665   3.150   5.151 -0.0706 -0.2328 -0.1937
 4157SOL     OW16393   1.442   0.653   2.237 -0.3911 -0.5854 -0.0857
 4157SOL    HW216394   1.451   0.737   2.191 -0.5466  0.7472  2.1712
 4157SOL    HW316395   1.355   0.656   2.275  0.4098 -0.7639  1.8611
 4157SOL    MW416396   1.432   0.665   2.236  0.9102  0.0768 -1.1539
 4158SOL     OW16397   3.649   5.898   6.217  0.3104  0.4418  0.1036
 4158SOL    HW216398   3.693   5.971   6.173 -1.3462  1.1906 -0.3848
 4158SOL    HW316399   3.605   5.851   6.146 -0.0009 -0.0659  0.6266
 4158SOL    MW416400   3.649   5.901   6.202  0.2109  0.1223 -0.5238
 4159SOL     OW16401   5.272   5.024   4.910 -0.2705  1.0158  0.0561
 4159SOL    HW216402   5.259   4.970   4.988  0.8642 -0.5351 -0.7759
 4159SOL    HW316403   5.337   5.089   4.936  1.8242 -0.8828 -0.1498
 4159SOL    MW416404   5.279   5.025   4.923 -0.8250 -0.3974 -0.7036
 4160SOL     OW16405   1.461   4.044   1.323  0.4044  0.4042  0.3253
 4160SOL    HW216406   1.480   4.068   1.414  2.4763  0.7471 -0.1478
 4160SOL    HW316407   1.518   3.970   1.305  1.3388  1.4335 -1.1905
 4160SOL    MW416408   1.471   4.038   1.332  0.2369 -0.1529  0.2364
 4161SOL     OW16409   3.545   0.186   2.701 -0.0895  0.3677  0.2009
 4161SOL    HW216410   3.454   0.160   2.686  0.3104 -1.2401  0.4403
 4161SOL    HW316411   3.595   0.107   2.686  1.2027  1.0099  0.9994
 4161SOL    MW416412   3.539   0.172   2.697  0.5714  0.3414  0.1297
 4162SOL     OW16413   5.671   4.246   3.967  0.3919 -0.4162  0.3482
 4162SOL    HW216414   5.584   4.233   3.929  1.4359  1.3244 -3.0614
 4162SOL    HW316415   5.688   4.339   3.957  2.5110 -0.6380  1.3424
 4162SOL    MW416416   5.662   4.256   3.961 -0.0934  0.5322 -0.2982
 4163SOL     OW16417   0.431   3.921   5.086 -0.2704  0.1930  0.4771
 4163SOL    HW216418   0.511   3.953   5.043 -1.1103  1.3243 -0.2826
 4163SOL    HW316419   0.388   3.868   5.020 -1.2493  1.4223  0.0900
 4163SOL    MW416420   0.436   3.918   5.072  0.5946 -0.1714  0.7013
 4164SOL     OW16421   5.804   0.545   3.097  0.2406 -0.6527  0.0300
 4164SOL    HW216422   5.775   0.510   3.181  1.3591 -0.8848  0.3354
 4164SOL    HW316423   5.792   0.473   3.035 -1.1258 -0.3002 -0.1496
 4164SOL    MW416424   5.798   0.531   3.100 -0.0438  0.2194  0.2086
 4165SOL     OW16425   1.460   2.903   1.812  0.0010  0.2467  0.0296
 4165SOL    HW216426   1.544   2.936   1.779  0.7721 -1.4939  0.1672
 4165SOL    HW316427   1.478   2.879   1.903 -0.5361 -0.4913 -0.0496
 4165SOL    MW416428   1.473   2.904   1.820  0.2706 -0.2643 -0.7488
 4166SOL     OW16429   1.066   5.530   5.933  0.2304  0.4977 -0.5254
 4166SOL    HW216430   1.051   5.585   5.856  0.0222 -0.7589 -1.4247
 4166SOL    HW316431   1.089   5.445   5.897  0.3544 -0.0655  0.8228
 4166SOL    MW416432   1.067   5.526   5.918 -0.2741  0.4336  0.1004
 4167SOL     OW16433   2.074   1.904   3.060  0.2119  0.2519  0.7074
 4167SOL    HW216434   2.002   1.932   3.004  1.0131  0.4827 -0.2369
 4167SOL    HW316435   2.038   1.908   3.149 -0.7412  0.9657  0.3098
 4167SOL    MW416436   2.060   1.908   3.065 -0.1739 -0.1072  0.0716
 4168SOL     OW16437   2.311   0.096   4.479  0.0124  0.3121 -0.3063
 4168SOL    HW216438   2.269   0.011   4.466  1.0914  0.0680 -2.6500
 4168SOL    HW316439   2.333   0.098   4.573 -0.4494 -1.7676 -0.1055
 4168SOL    MW416440   2.308   0.085   4.490 -0.2553  0.4165 -0.5081
 4169SOL     OW16441   6.031   6.354   2.844  0.4169  0.2250  0.5153
 4169SOL    HW216442   6.037   6.434   2.792 -0.5633  0.5151  0.8343
 4169SOL    HW316443   6.064   6.285   2.786  2.9920  1.0755  0.8330
 4169SOL    MW416444   6.036   6.355   2.830  0.1296  0.0704 -0.6160
 4170SOL     OW16445   4.420   0.270   2.711  0.1014 -0.3703 -0.2746
 4170SOL    HW216446   4.378   0.245   2.793  0.2604 -0.2875 -0.1661
 4170SOL    HW316447   4.354   0.255   2.644  0.2868 -1.3429 -0.2463
 4170SOL    MW416448   4.406   0.265   2.713  0.3321 -0.0083  0.2778
 4171SOL     OW16449   6.305   1.681   5.763 -0.1853 -0.2142  0.2314
 4171SOL    HW216450   6.377   1.713   5.709 -0.8874 -1.3696 -1.4794
 4171SOL    HW316451   6.290   1.591   5.733 -1.9190 -0.2203  0.9808
 4171SOL    MW416452   6.312   1.673   5.752 -0.1355 -0.3790 -0.3816
 4172SOL     OW16453   3.801   2.408   1.848  0.2816 -0.2102  0.2554
 4172SOL    HW216454   3.722   2.424   1.797 -0.0396  0.9700  1.0637
 4172SOL    HW316455   3.812   2.488   1.899  1.4871 -0.7262  0.8326
 4172SOL    MW416456   3.792   2.421   1.848 -0.2063 -1.2264  0.0792
 4173SOL     OW16457   0.210   3.242   3.181 -0.2453 -0.2506  0.5868
 4173SOL    HW216458   0.188   3.174   3.245 -2.7499 -0.3986 -0.3057
 4173SOL    HW316459   0.279   3.203   3.127 -1.5760 -2.1480  0.1419
 4173SOL    MW416460   0.216   3.228   3.182 -0.5508 -0.1437  0.4566
 4174SOL     OW16461   4.246   4.118   1.634  0.4358  0.3585 -0.0819
 4174SOL    HW216462   4.205   4.067   1.704  3.0534  1.0752  2.1537
 4174SOL    HW316463   4.327   4.071   1.614  0.8486  1.4014 -0.9696
 4174SOL    MW416464   4.251   4.105   1.641 -0.1936 -0.1977 -0.1024
 4175SOL     OW16465   4.799   4.763   5.424 -0.0812  0.4276  0.3844
 4175SOL    HW216466   4.718   4.744   5.377 -0.3556  0.3025  0.9018
 4175SOL    HW316467   4.773   4.822   5.494  0.3152  0.5638  0.4184
 4175SOL    MW416468   4.785   4.768   5.427  0.0461 -0.7695 -0.0532
 4176SOL     OW16469   6.298   0.855   0.302 -0.9650  0.2808 -0.0296
 4176SOL    HW216470   6.342   0.926   0.255  0.5183  0.0322  0.9212
 4176SOL    HW316471   6.216   0.894   0.332 -1.3341  0.8283 -1.6529
 4176SOL    MW416472   6.293   0.870   0.300  0.7429  0.3475 -0.4476
 4177SOL     OW16473   5.823   3.617   5.573 -0.0671 -0.4060  0.2591
 4177SOL    HW216474   5.869   3.679   5.517  0.2573 -1.1310 -0.2948
 4177SOL    HW316475   5.879   3.540   5.575  0.1800 -0.2026  2.0313
 4177SOL    MW416476   5.836   3.615   5.566  0.3529  0.1112 -0.4908
 4178SOL     OW16477   6.403   2.814   0.791 -0.3185 -0.7588 -0.1475
 4178SOL    HW216478   6.497   2.806   0.774 -0.2692  0.5342 -0.5972
 4178SOL    HW316479   6.378   2.895   0.746 -1.5567 -0.8472  0.3641
 4178SOL    MW416480   6.412   2.824   0.783  0.3301 -0.0486  0.3583
 4179SOL     OW16481   1.132   0.105   3.124  0.1740 -0.2341 -0.6298
 4179SOL    HW216482   1.117   0.126   3.032  1.3641 -1.2764 -1.0861
 4179SOL    HW316483   1.223   0.129   3.140  0.5750 -1.8400 -0.2830
 4179SOL    MW416484   1.142   0.111   3.114  0.4646 -0.2459 -0.4423
 4180SOL     OW16485   1.519   3.166   1.163 -0.1868 -0.1173 -0.9137
 4180SOL    HW216486   1.484   3.190   1.076 -1.0019  0.7563 -0.3662
 4180SOL    HW316487   1.496   3.239   1.219  1.1679 -0.2514 -0.1434
 4180SOL    MW416488   1.511   3.179   1.159  0.7419  0.4528  0.3500
 4181SOL     OW16489   3.527   3.393   1.110  0.1574 -0.0088 -0.3983
 4181SOL    HW216490   3.495   3.337   1.182  1.4078 -0.8973 -0.5034
 4181SOL    HW316491   3.496   3.349   1.031 -0.3087  0.3902 -0.4412
 4181SOL    MW416492   3.519   3.380   1.109 -0.3417 -0.5079  0.2740
 4182SOL     OW16493   3.215   3.545   4.562  0.0059 -0.6322 -0.3340
 4182SOL    HW216494   3.231   3.555   4.468  0.5790 -0.9254 -0.2756
 4182SOL    HW316495   3.254   3.460   4.583  1.1323  0.0537  0.4384
 4182SOL    MW416496   3.222   3.535   4.552  0.5167 -0.1835  0.4086
 4183SOL     OW16497   5.592   1.823   0.411  0.3073 -0.0874 -0.2061
 4183SOL    HW216498   5.603   1.805   0.504  1.4417  1.5870  0.0246
 4183SOL    HW316499   5.502   1.852   0.402 -0.6867 -2.8721 -0.1401
 4183SOL    MW416500   5.582   1.824   0.422 -0.9377 -0.6815  0.0325
 4184SOL     OW16501   0.955   3.011   2.304 -0.3669 -0.3345  0.1437
 4184SOL    HW216502   0.936   3.080   2.241  1.5811 -1.1675 -1.4587
 4184SOL    HW316503   0.992   3.057   2.380  1.3554  0.3999 -1.0889
 4184SOL    MW416504   0.958   3.026   2.306 -0.1246  0.3207  0.1255
 4185SOL     OW16505   3.423   1.627   3.747  0.2774  0.3111  0.1493
 4185SOL    HW216506   3.515   1.652   3.746  0.4047 -0.0854  0.8236
 4185SOL    HW316507   3.398   1.619   3.655  1.4354 -1.4435 -0.0495
 4185SOL    MW416508   3.432   1.629   3.735  0.2794 -0.0900  0.5209
 4186SOL     OW16509   3.904   5.490   0.889 -0.0212 -0.6469 -0.6592
 4186SOL    HW216510   3.916   5.445   0.805 -2.3715  0.1516 -1.5091
 4186SOL    HW316511   3.939   5.578   0.874  0.3149 -0.7544 -0.5168
 4186SOL    MW416512   3.910   5.495   0.876 -0.1128  0.5308 -0.2201
 4187SOL     OW16513   4.413   0.887   5.881  0.2280  0.5519 -0.0029
 4187SOL    HW216514   4.328   0.930   5.878 -0.2587 -0.0294  2.7731
 4187SOL    HW316515   4.477   0.957   5.868 -0.6190  1.0853 -1.4826
 4187SOL    MW416516   4.410   0.902   5.879 -0.1518  0.8538  0.9983
 4188SOL     OW16517   5.849   4.452   1.920 -0.2272 -0.3089 -0.7940
 4188SOL    HW216518   5.803   4.476   2.000  1.6019 -0.4876  0.3762
 4188SOL    HW316519   5.830   4.523   1.859  0.7947  1.4603  0.8287
 4188SOL    MW416520   5.841   4.464   1.923  0.5028  0.4743 -0.2186
 4189SOL     OW16521   3.635   1.199   1.486  0.5180  0.2958 -0.3843
 4189SOL    HW216522   3.728   1.177   1.486  0.5439  0.3913  0.2276
 4189SOL    HW316523   3.628   1.270   1.549 -0.0022  0.1683 -0.3001
 4189SOL    MW416524   3.647   1.206   1.494  0.0990  0.6619  0.6865
 4190SOL     OW16525   2.248   3.541   4.277 -0.0819 -0.1594  0.7389
 4190SOL    HW216526   2.261   3.594   4.197 -0.3404  0.1388  0.8904
 4190SOL    HW316527   2.154   3.522   4.277 -0.0322 -0.3969  0.8238
 4190SOL    MW416528   2.237   3.546   4.266 -0.2412  0.1185  0.2078
 4191SOL     OW16529   0.586   3.577   1.646 -0.6332 -0.0498 -0.6193
 4191SOL    HW216530   0.658   3.639   1.657 -1.6719  1.2616 -0.9511
 4191SOL    HW316531   0.611   3.525   1.569 -0.9817  1.8408 -2.0918
 4191SOL    MW416532   0.599   3.578   1.637 -0.1578 -0.5717 -0.2256
 4192SOL     OW16533   4.033   3.007   5.185  0.0204 -0.0848 -0.0452
 4192SOL    HW216534   4.122   2.989   5.154 -0.2444 -0.9870 -0.3222
 4192SOL    HW316535   3.977   2.951   5.131 -0.6017 -0.4732  0.9722
 4192SOL    MW416536   4.037   2.997   5.173 -0.2851 -0.7134 -0.1451
 4193SOL     OW16537   1.877   3.108   6.327 -0.2018  0.2701 -0.1489
 4193SOL    HW216538   1.839   3.176   6.383 -0.9689  0.1690 -0.5356
 4193SOL    HW316539   1.961   3.144   6.299  0.3596  0.1841  1.3274
 4193SOL    MW416540   1.883   3.122   6.331  0.8742 -0.3123 -0.1393
 4194SOL     OW16541   2.917   4.634   2.149 -0.3383 -0.1903  0.3043
 4194SOL    HW216542   2.924   4.695   2.222 -0.1519 -1.2947  1.2536
 4194SOL    HW316543   2.858   4.565   2.181 -0.0184 -0.8471 -0.4721
 4194SOL    MW416544   2.910   4.633   2.163  0.6808  0.1381  0.0442
 4195SOL     OW16545   1.203   6.071   0.700  0.0480 -0.2299 -0.1452
 4195SOL    HW216546   1.128   6.023   0.736  0.2117 -1.0489 -0.8587
 4195SOL    HW316547   1.232   6.128   0.771  0.4124 -1.8339  1.0318
 4195SOL    MW416548   1.197   6.072   0.714  0.5136 -0.0973 -0.4899
 4196SOL     OW16549   1.951   6.287   1.060  0.1874 -0.6809 -0.1106
 4196SOL    HW216550   2.023   6.314   1.116 -0.9902 -1.3543  1.8289
 4196SOL    HW316551   1.991   6.227   0.996  1.8420  1.3707 -1.1048
 4196SOL    MW416552   1.966   6.282   1.059 -0.7273 -0.6311 -0.4430
 4197SOL     OW16553   3.957   6.095   5.011  0.1799 -0.3698 -0.2625
 4197SOL    HW216554   3.874   6.067   5.050  0.0880  1.4312  0.9774
 4197SOL    HW316555   3.943   6.088   4.917 -0.3806 -2.7374 -0.0646
 4197SOL    MW416556   3.945   6.090   5.004  0.0564  0.3531 -0.2994
 4198SOL     OW16557   2.205   1.901   2.175 -0.4955  0.5594 -0.1927
 4198SOL    HW216558   2.282   1.848   2.156  0.3843  1.5632  0.5043
 4198SOL    HW316559   2.171   1.864   2.256  0.6434  1.5809  0.7906
 4198SOL    MW416560   2.210   1.889   2.183  0.2967 -0.5237  0.0674
 4199SOL     OW16561   0.664   3.286   6.334 -0.0572 -0.3790 -0.1699
 4199SOL    HW216562   0.603   3.359   6.346 -1.0678 -0.9105 -1.6470
 4199SOL    HW316563   0.623   3.213   6.380  0.6489 -0.1772  0.7959
 4199SOL    MW416564   0.650   3.286   6.341 -0.0844 -0.0713 -0.0424
 4200SOL     OW16565   3.770   0.599   5.991 -0.1581  0.4867  0.4489
 4200SOL    HW216566   3.799   0.556   5.911  0.2442  0.3004  0.6876
 4200SOL    HW316567   3.815   0.683   5.992  1.3304 -0.2705  1.3868
 4200SOL    MW416568   3.780   0.604   5.981  0.2028  0.4066 -0.2005
 4201SOL     OW16569   4.743   2.648   1.638 -0.2653  0.1545  0.1927
 4201SOL    HW216570   4.678   2.695   1.689 -0.2039  0.2504  0.1836
 4201SOL    HW316571   4.694   2.609   1.565 -0.3965 -0.2026  0.4709
 4201SOL    MW416572   4.728   2.649   1.635  0.3325  0.1612 -0.3376
 4202SOL     OW16573   3.502   2.949   1.192 -0.5082  0.0237 -1.0965
 4202SOL    HW216574   3.459   2.963   1.108 -1.7493 -0.4221 -0.5577
 4202SOL    HW316575   3.477   2.860   1.217 -0.8244  0.4334  0.1171
 4202SOL    MW416576   3.493   2.939   1.185  0.3574 -0.3997  0.2361
 4203SOL     OW16577   6.297   1.329   4.516  0.2232  0.8600 -0.2920
 4203SOL    HW216578   6.213   1.375   4.523 -0.4948 -0.0146 -2.2707
 4203SOL    HW316579   6.359   1.398   4.491 -0.2568  1.2317 -0.4765
 4203SOL    MW416580   6.294   1.344   4.513 -0.4650  0.4843 -0.2087
 4204SOL     OW16581   1.098   4.029   5.142 -0.1087 -1.0994  0.2006
 4204SOL    HW216582   1.153   4.090   5.190  0.0812  0.8598 -2.2922
 4204SOL    HW316583   1.010   4.042   5.177  0.0098  0.3282  0.0254
 4204SOL    MW416584   1.094   4.039   5.153 -0.1848 -0.3884 -0.2261
 4205SOL     OW16585   0.708   0.759   0.799  0.3208 -0.7015 -0.0813
 4205SOL    HW216586   0.751   0.696   0.741  0.1469 -0.2946 -0.6629
 4205SOL    HW316587   0.616   0.732   0.798  0.2140 -0.3259 -0.4813
 4205SOL    MW416588   0.701   0.747   0.791  0.3716  0.1312 -0.2412
 4206SOL     OW16589   5.277   5.594   1.892 -0.2347 -0.1505 -0.8616
 4206SOL    HW216590   5.233   5.511   1.874 -0.1403 -0.2465 -0.6480
 4206SOL    HW316591   5.365   5.569   1.919  0.0368  0.0498 -1.5284
 4206SOL    MW416592   5.283   5.580   1.893 -0.1532  0.3271  0.4657
 4207SOL     OW16593   3.329   4.271   1.635  0.0875  0.0908  0.2683
 4207SOL    HW216594   3.399   4.310   1.583 -0.8674  2.4043  0.5914
 4207SOL    HW316595   3.372   4.204   1.688  1.8974  0.8943 -0.1249
 4207SOL    MW416596   3.344   4.267   1.635 -0.5936 -0.2201  0.1682
 4208SOL     OW16597   4.161   4.221   0.890  0.4315 -0.1183 -0.0206
 4208SOL    HW216598   4.158   4.272   0.971  0.0580  0.4206 -0.3599
 4208SOL    HW316599   4.251   4.189   0.885  0.5458  0.1219  0.4432
 4208SOL    MW416600   4.172   4.224   0.900  0.1502 -0.4383 -0.1880
 4209SOL     OW16601   1.087   5.038   4.460  0.3100 -0.1916 -0.1431
 4209SOL    HW216602   0.998   5.020   4.429  0.6225  0.0440 -1.2212
 4209SOL    HW316603   1.102   4.973   4.529 -0.5370 -0.5176 -0.2506
 4209SOL    MW416604   1.077   5.027   4.465  0.5781 -0.1487 -0.3640
 4210SOL     OW16605   3.567   2.934   0.697 -0.2652  0.3090 -0.1681
 4210SOL    HW216606   3.524   2.856   0.661 -0.3052  0.8333 -1.3070
 4210SOL    HW316607   3.623   2.900   0.767  0.3967 -0.8682 -1.2280
 4210SOL    MW416608   3.569   2.919   0.701  0.7047 -0.4868 -0.4289
 4211SOL     OW16609   1.060   5.663   3.159  0.3465  0.3130  0.1743
 4211SOL    HW216610   1.018   5.655   3.073 -0.0343 -2.8131  0.5476
 4211SOL    HW316611   0.989   5.692   3.216  0.3484  1.3993 -0.3468
 4211SOL    MW416612   1.045   5.666   3.155  0.5450 -0.1373  0.4340
 4212SOL     OW16613   3.051   4.918   0.065 -0.3554 -0.6479 -0.6189
 4212SOL    HW216614   2.973   4.864   0.080 -1.2659  1.2477  2.0639
 4212SOL    HW316615   3.018   4.995   0.019 -0.0413  0.0233  0.2603
 4212SOL    MW416616   3.036   4.921   0.061  0.6798  0.4479 -0.3320
 4213SOL     OW16617   2.858   5.359   1.221 -0.1436  0.6808  1.1124
 4213SOL    HW216618   2.897   5.295   1.162 -1.1801  1.0893 -0.0624
 4213SOL    HW316619   2.804   5.307   1.280 -0.7719  0.4264  0.3352
 4213SOL    MW416620   2.856   5.344   1.221  0.1025  0.9894  0.0136
 4214SOL     OW16621   0.425   2.097   3.350  0.0312  0.1112  0.6355
 4214SOL    HW216622   0.367   2.022   3.340  1.4702 -1.0383  0.5279
 4214SOL    HW316623   0.437   2.106   3.444 -1.2356  1.1008  0.7153
 4214SOL    MW416624   0.419   2.088   3.361 -0.3311  0.1793 -0.2209
 4215SOL     OW16625   6.240   6.084   6.324 -0.3345 -0.1515 -0.1027
 4215SOL    HW216626   6.334   6.073   6.309 -0.4727 -0.1929 -0.9578
 4215SOL    HW316627   6.202   5.998   6.307 -0.6560  0.1248 -0.8378
 4215SOL    MW416628   6.247   6.071   6.320 -0.0502  0.4021  0.2868
 4216SOL     OW16629   0.868   1.684   4.602  0.4042 -0.5482 -0.5754
 4216SOL    HW216630   0.790   1.683   4.658  1.5863 -0.7582  1.1460
 4216SOL    HW316631   0.863   1.766   4.554  0.2473  0.5135  1.1949
 4216SOL    MW416632   0.857   1.695   4.603  0.4208 -0.1286 -0.1276
 4217SOL     OW16633   6.258   2.477   0.244 -0.2092  0.3056 -0.7101
 4217SOL    HW216634   6.186   2.521   0.200 -1.5236 -0.1020  0.9185
 4217SOL    HW316635   6.302   2.547   0.293 -1.8764  0.0255  1.3252
 4217SOL    MW416636   6.254   2.492   0.245 -0.2608  0.2800  0.5151
 4218SOL     OW16637   4.470   5.513   1.993  0.0155 -0.0118 -0.5321
 4218SOL    HW216638   4.459   5.606   2.015  2.8288  0.7841 -2.0626
 4218SOL    HW316639   4.464   5.510   1.898 -0.9357 -1.5939 -0.4518
 4218SOL    MW416640   4.467   5.525   1.984 -0.4556  0.0365  0.7388
 4219SOL     OW16641   1.476   4.710   0.550  0.1106  0.0205  0.1139
 4219SOL    HW216642   1.517   4.751   0.626 -0.1141 -0.2360  0.3787
 4219SOL    HW316643   1.459   4.620   0.579 -1.2463  0.2989  0.2459
 4219SOL    MW416644   1.479   4.703   0.564 -0.0988 -0.2167 -0.6548
 4220SOL     OW16645   3.381   5.105   2.621 -0.1976 -0.6343  0.4966
 4220SOL    HW216646   3.449   5.045   2.590  0.4494  0.4817 -0.3347
 4220SOL    HW316647   3.419   5.192   2.608 -0.4875 -0.0494  3.0896
 4220SOL    MW416648   3.395   5.109   2.615 -0.1030  0.4766  0.1904
 4221SOL     OW16649   2.675   5.400   6.347  0.6333 -0.0754  0.2469
 4221SOL    HW216650   2.627   5.482   6.339 -1.7168 -1.4519 -0.9946
 4221SOL    HW316651   2.702   5.379   6.257 -0.9807 -1.8031  0.1008
 4221SOL    MW416652   2.672   5.408   6.334 -0.1329  0.1801 -0.2638
 4222SOL     OW16653   2.540   5.937   0.514  0.5091 -0.1387  0.4489
 4222SOL    HW216654   2.598   5.961   0.586 -0.0925 -1.0772  1.2762
 4222SOL    HW316655   2.469   6.000   0.517  1.0172  0.4682 -0.0053
 4222SOL    MW416656   2.538   5.948   0.524 -0.0228 -0.3470  0.3143
 4223SOL     OW16657   0.406   4.043   0.309  0.0931  0.0626  0.5903
 4223SOL    HW216658   0.444   3.967   0.265 -1.3283 -0.9875  1.0965
 4223SOL    HW316659   0.480   4.099   0.329  0.8982  0.2499 -2.4404
 4223SOL    MW416660   0.421   4.040   0.306  0.0546  0.5884 -0.7437
 4224SOL     OW16661   0.662   1.832   1.147 -0.2660 -0.1498  0.1829
 4224SOL    HW216662   0.699   1.833   1.059 -0.9162  1.8333 -0.1107
 4224SOL    HW316663   0.568   1.835   1.134 -0.4225 -1.0967  0.9560
 4224SOL    MW416664   0.655   1.833   1.134 -0.3743 -0.7451  0.3969
 4225SOL     OW16665   4.919   2.834   0.176 -0.0545 -0.2284  0.1519
 4225SOL    HW216666   4.912   2.922   0.213 -4.5216 -1.1156  2.0602
 4225SOL    HW316667   4.980   2.789   0.235 -0.8661  0.5620  1.6659
 4225SOL    MW416668   4.926   2.840   0.189 -0.0451  0.1578 -0.0209
 4226SOL     OW16669   6.293   0.643   6.089 -0.2035  0.2573 -1.1012
 4226SOL    HW216670   6.244   0.623   6.010 -1.3004  1.1777 -0.6799
 4226SOL    HW316671   6.227   0.646   6.159  0.8567 -1.4963  0.0530
 4226SOL    MW416672   6.278   0.641   6.088 -0.1220  0.3716  0.1278
 4227SOL     OW16673   2.969   2.098   0.677 -0.4619  0.3527 -0.2532
 4227SOL    HW216674   2.873   2.101   0.684 -0.4633  1.2766 -0.5894
 4227SOL    HW316675   3.000   2.147   0.753 -0.1759 -1.8436  1.1535
 4227SOL    MW416676   2.960   2.105   0.688  0.2093  0.3173  0.3672
 4228SOL     OW16677   3.096   3.509   3.101  0.3689  0.3800 -0.4903
 4228SOL    HW216678   3.167   3.572   3.098  0.1459  0.6250 -0.6952
 4228SOL    HW316679   3.098   3.466   3.015  0.2566  0.4023 -0.5042
 4228SOL    MW416680   3.106   3.512   3.089  0.3477  0.3984 -0.6868
 4229SOL     OW16681   2.191   3.060   2.157 -0.2068 -0.0713 -0.2088
 4229SOL    HW216682   2.252   3.096   2.222 -1.6294  2.5262 -0.1594
 4229SOL    HW316683   2.242   3.057   2.076  0.8884 -1.0414  0.4924
 4229SOL    MW416684   2.206   3.065   2.155 -0.2201  0.5135 -0.6297
 4230SOL     OW16685   1.053   2.127   4.557  0.3269 -0.8555 -0.2774
 4230SOL    HW216686   1.121   2.102   4.494  1.1766  1.8672 -0.5674
 4230SOL    HW316687   1.098   2.129   4.641  0.0656 -1.0246 -0.1307
 4230SOL    MW416688   1.068   2.124   4.560  0.1590 -0.5175  0.8215
 4231SOL     OW16689   2.960   1.103   1.361  0.7478 -0.0648 -0.0975
 4231SOL    HW216690   2.937   1.013   1.337  1.2976 -0.0102 -0.8698
 4231SOL    HW316691   2.901   1.158   1.309 -1.7253  0.0560  2.5730
 4231SOL    MW416692   2.949   1.098   1.351 -0.0229 -0.3176  0.1720
 4232SOL     OW16693   1.554   0.091   0.183 -0.2845  0.0430 -0.5311
 4232SOL    HW216694   1.549   0.012   0.129 -0.2802 -0.9131  0.8253
 4232SOL    HW316695   1.604   0.153   0.130 -1.0720 -0.5313 -2.0031
 4232SOL    MW416696   1.560   0.089   0.169 -0.0595  0.0070 -0.3905
 4233SOL     OW16697   5.319   5.724   0.556 -0.7436  0.7616 -0.1553
 4233SOL    HW216698   5.398   5.669   0.558  0.1048  1.9427 -0.0683
 4233SOL    HW316699   5.311   5.752   0.465 -2.4126 -1.1804 -0.6736
 4233SOL    MW416700   5.328   5.720   0.544 -0.1597  0.4673 -0.3319
 4234SOL     OW16701   4.563   3.318   4.675 -0.2483 -0.3981 -0.2627
 4234SOL    HW216702   4.635   3.368   4.713  0.7807 -1.0774 -1.2506
 4234SOL    HW316703   4.605   3.257   4.614 -1.6227 -1.1275 -0.5357
 4234SOL    MW416704   4.578   3.317   4.672 -0.0883  0.7109 -0.3504
 4235SOL     OW16705   1.618   3.861   2.949  0.1187 -0.2311 -0.0822
 4235SOL    HW216706   1.559   3.787   2.941 -1.2651  0.7112  0.9983
 4235SOL    HW316707   1.612   3.888   3.041 -0.6887  2.2108 -0.7549
 4235SOL    MW416708   1.610   3.855   2.960  0.1529 -0.2097  0.1695
 4236SOL     OW16709   2.694   0.799   5.501  0.3510  0.4752  0.2950
 4236SOL    HW216710   2.694   0.894   5.494  0.6034  0.4262 -0.4758
 4236SOL    HW316711   2.602   0.775   5.498  0.3235  0.6364 -0.6265
 4236SOL    MW416712   2.682   0.808   5.500 -0.2031 -0.1604 -0.2160
 4237SOL     OW16713   2.349   5.039   3.472  0.3255 -0.0856  0.3996
 4237SOL    HW216714   2.364   4.946   3.453  0.6616 -0.4865  2.3724
 4237SOL    HW316715   2.268   5.039   3.524 -2.0655  1.2031 -2.9630
 4237SOL    MW416716   2.340   5.026   3.476  0.3932 -0.0347 -0.5050
 4238SOL     OW16717   0.781   1.080   3.567  0.6207  0.1770 -0.2733
 4238SOL    HW216718   0.807   1.163   3.608  0.7099  0.2120 -0.3996
 4238SOL    HW316719   0.836   1.074   3.489  2.0508 -0.9661  0.7711
 4238SOL    MW416720   0.792   1.090   3.562  0.5227 -0.3641  1.1245
 4239SOL     OW16721   5.237   1.792   5.155  0.1414 -0.3253  0.0222
 4239SOL    HW216722   5.160   1.746   5.121 -0.2293  0.7985 -0.6840
 4239SOL    HW316723   5.290   1.810   5.078 -1.3277  3.4378 -0.3021
 4239SOL    MW416724   5.234   1.788   5.141 -0.3362 -0.0541  0.0234
 4240SOL     OW16725   1.980   2.618   4.589  0.4452  0.3826  0.0505
 4240SOL    HW216726   1.909   2.660   4.541 -1.6057 -2.1487  0.6292
 4240SOL    HW316727   1.957   2.631   4.681  2.2521  1.8194  0.3671
 4240SOL    MW416728   1.968   2.625   4.595 -0.1476  0.4363 -0.3876
 4241SOL     OW16729   5.204   1.676   3.781 -0.1387 -0.0632 -0.2772
 4241SOL    HW216730   5.140   1.700   3.714 -0.1416  0.0567 -0.2323
 4241SOL    HW316731   5.272   1.744   3.775  0.4238 -0.6726 -0.9093
 4241SOL    MW416732   5.204   1.688   3.772  0.0328 -0.0092  0.0080
 4242SOL     OW16733   0.348   4.538   2.443  0.5759  0.6021 -0.3841
 4242SOL    HW216734   0.408   4.553   2.515  1.3695 -0.7847 -0.7140
 4242SOL    HW316735   0.404   4.535   2.365  0.2095 -1.4406 -0.6169
 4242SOL    MW416736   0.363   4.540   2.442 -0.2912 -0.1784  0.1066
 4243SOL     OW16737   1.339   4.343   0.885  0.7545  0.5230  0.1741
 4243SOL    HW216738   1.267   4.322   0.945  0.7884  0.9173  0.3576
 4243SOL    HW316739   1.407   4.280   0.907 -0.1652 -1.0227 -1.1941
 4243SOL    MW416740   1.338   4.332   0.896 -0.3973  0.0443 -0.5493
 4244SOL     OW16741   5.581   3.804   4.796 -0.2500  0.6558  0.5163
 4244SOL    HW216742   5.603   3.864   4.867  2.1633  0.3859  0.0725
 4244SOL    HW316743   5.520   3.853   4.741  0.1238  1.9482  1.2161
 4244SOL    MW416744   5.576   3.818   4.798  0.2129  0.2356  0.1749
 4245SOL     OW16745   3.464   0.715   5.302  0.5168  0.5520 -0.3652
 4245SOL    HW216746   3.506   0.644   5.349  1.3367  1.1049 -0.2504
 4245SOL    HW316747   3.531   0.749   5.243 -0.2598  0.3719 -1.3828
 4245SOL    MW416748   3.478   0.710   5.300  0.2356  0.0542 -0.2713
 4246SOL     OW16749   6.248   1.805   4.722 -0.0121 -0.3591  0.1767
 4246SOL    HW216750   6.247   1.900   4.713  0.5354 -0.2212  1.3636
 4246SOL    HW316751   6.302   1.774   4.650 -0.4961  0.1946 -0.4355
 4246SOL    MW416752   6.255   1.813   4.712 -0.1846  0.3315 -0.1231
 4247SOL     OW16753   4.842   2.940   3.711 -0.3686 -0.2433  0.5308
 4247SOL    HW216754   4.871   3.009   3.651 -1.6324 -0.0223  0.1456
 4247SOL    HW316755   4.749   2.957   3.723 -0.1897 -0.4237  2.3829
 4247SOL    MW416756   4.834   2.952   3.705  0.3535 -0.6659  0.0180
 4248SOL     OW16757   3.239   2.167   2.566 -0.4220  0.7199  0.2001
 4248SOL    HW216758   3.280   2.093   2.611 -2.0228  0.7886  1.8844
 4248SOL    HW316759   3.311   2.228   2.551  1.1028 -1.3663 -1.8613
 4248SOL    MW416760   3.254   2.165   2.570 -0.6192 -0.0820  0.2875
 4249SOL     OW16761   5.224   4.899   2.329  0.7757  0.2301  0.2322
 4249SOL    HW216762   5.243   4.810   2.361 -1.7246 -0.5910 -0.2939
 4249SOL    HW316763   5.225   4.890   2.233  0.0075  0.6183  0.1819
 4249SOL    MW416764   5.226   4.886   2.320 -0.2768  0.3143  0.2232
 4250SOL     OW16765   3.299   4.559   4.844 -0.4165  0.0139 -0.5374
 4250SOL    HW216766   3.271   4.584   4.756  1.4526 -0.3829 -1.2759
 4250SOL    HW316767   3.335   4.471   4.834 -0.0019  0.0373  0.5891
 4250SOL    MW416768   3.300   4.551   4.831  0.4683  0.0871  0.4329
 4251SOL     OW16769   2.142   2.005   3.693 -1.0118 -0.2917 -0.1846
 4251SOL    HW216770   2.231   1.970   3.695 -0.3860  1.2425  1.1569
 4251SOL    HW316771   2.094   1.953   3.757 -0.2116  0.8705  1.4423
 4251SOL    MW416772   2.147   1.994   3.702  0.9180  0.5072 -0.1219
 4252SOL     OW16773   0.937   2.229   6.064  0.1981 -0.1520 -0.4344
 4252SOL    HW216774   0.895   2.266   6.142 -0.2450  0.0306 -0.7589
 4252SOL    HW316775   0.959   2.139   6.089 -2.6182 -1.1103 -1.0372
 4252SOL    MW416776   0.935   2.222   6.078 -0.3306  0.4002  0.3468
 4253SOL     OW16777   5.717   2.584   0.997 -0.4339 -0.1178  0.0073
 4253SOL    HW216778   5.749   2.646   1.062  1.0279 -1.3952  0.5684
 4253SOL    HW316779   5.778   2.593   0.923 -1.1499  0.1999 -0.5638
 4253SOL    MW416780   5.729   2.594   0.996  0.3943  0.5132 -0.3961
 4254SOL     OW16781   0.006   3.282   2.221  0.4159  0.1072 -0.0298
 4254SOL    HW216782   0.055   3.278   2.303  2.0418  1.3600 -0.8807
 4254SOL    HW316783   0.062   3.238   2.157 -1.4131 -2.0444 -0.2806
 4254SOL    MW416784   0.020   3.276   2.224  0.8713 -0.1257  0.3783
 4255SOL     OW16785   4.323   3.909   6.313 -0.1874  0.3373 -0.1132
 4255SOL    HW216786   4.283   3.839   6.365  0.9945 -0.4481 -0.2355
 4255SOL    HW316787   4.262   3.983   6.322 -0.5589 -0.1328  1.4706
 4255SOL    MW416788   4.309   3.910   6.321  0.1409 -0.2197  0.5787
 4256SOL     OW16789   4.752   2.899   3.029 -0.1981 -0.0021  0.2872
 4256SOL    HW216790   4.713   2.834   3.087 -0.5625  1.2630  1.5317
 4256SOL    HW316791   4.812   2.948   3.085 -1.1557  1.7897 -0.1450
 4256SOL    MW416792   4.755   2.897   3.044  0.0565 -0.2720  0.3355
 4257SOL     OW16793   1.842   1.908   5.772 -0.4835 -0.1395 -0.1168
 4257SOL    HW216794   1.774   1.976   5.775 -1.9866 -1.6112  0.9869
 4257SOL    HW316795   1.924   1.957   5.773 -1.4910  1.6907  1.7338
 4257SOL    MW416796   1.844   1.924   5.772  0.1614  0.8208 -0.0507
 4258SOL     OW16797   1.789   0.012   2.481 -0.2989  0.1378 -0.2064
 4258SOL    HW216798   1.729  -0.061   2.498 -0.7898  0.9645  1.8003
 4258SOL    HW316799   1.818  -0.003   2.390 -1.5954 -1.6556 -0.3940
 4258SOL    MW416800   1.785   0.000   2.471 -0.8076  0.4986 -0.4350
 4259SOL     OW16801   4.173   3.263   0.293 -0.2062  0.6848  0.2178
 4259SOL    HW216802   4.164   3.334   0.357 -0.3501  0.7210  0.1579
 4259SOL    HW316803   4.238   3.204   0.332 -0.5303  0.5443  0.5451
 4259SOL    MW416804   4.181   3.264   0.307  0.3802  0.5548  0.3223
 4260SOL     OW16805   0.571   4.390   0.148  0.0248 -0.0253  0.1483
 4260SOL    HW216806   0.603   4.372   0.060  0.5476  3.6832 -0.5737
 4260SOL    HW316807   0.476   4.385   0.141  0.1137 -2.0859  0.0279
 4260SOL    MW416808   0.563   4.387   0.136  0.2578  0.5115 -0.3652
 4261SOL     OW16809   1.197   1.089   1.015 -0.5219 -0.1086  0.0812
 4261SOL    HW216810   1.263   1.021   1.027 -1.4672 -1.3065 -1.1587
 4261SOL    HW316811   1.247   1.169   1.000  0.6448 -0.8681 -0.2240
 4261SOL    MW416812   1.212   1.090   1.015  0.1631 -0.7336  0.4087
 4262SOL     OW16813   6.064   0.023   4.595 -0.9706 -0.0024  0.5804
 4262SOL    HW216814   5.985   0.056   4.554 -2.1988  1.3699  3.7755
 4262SOL    HW316815   6.103   0.099   4.638  1.8072 -0.7706 -0.3005
 4262SOL    MW416816   6.059   0.037   4.595 -0.2841  0.4859  0.4422
 4263SOL     OW16817   4.095   3.641   1.342 -0.2123 -0.0123 -0.1095
 4263SOL    HW216818   4.107   3.561   1.394  0.2247  0.5609  0.6867
 4263SOL    HW316819   4.182   3.679   1.335 -0.5334  0.7810  0.1426
 4263SOL    MW416820   4.108   3.635   1.348 -0.2731  0.0276  0.3725
 4264SOL     OW16821   4.592   0.467   2.318  0.4576 -0.0178 -0.2873
 4264SOL    HW216822   4.554   0.382   2.300 -0.3466  0.7373 -2.5229
 4264SOL    HW316823   4.518   0.526   2.327  0.9164  1.2055 -3.2635
 4264SOL    MW416824   4.577   0.464   2.317  0.2804 -0.2060  0.1092
 4265SOL     OW16825   1.909   0.977   2.431 -0.2014 -0.2891  0.1499
 4265SOL    HW216826   1.865   1.058   2.457 -0.8687 -0.8734  0.9058
 4265SOL    HW316827   1.989   1.006   2.388 -1.2688  0.8010 -1.2119
 4265SOL    MW416828   1.914   0.992   2.429  0.1597  0.0124  0.1981
 4266SOL     OW16829   0.367   5.894   3.070  0.1417 -0.4139  0.2874
 4266SOL    HW216830   0.294   5.939   3.029  0.1796 -1.6042 -1.1461
 4266SOL    HW316831   0.332   5.863   3.154 -1.3572 -1.8723 -0.8145
 4266SOL    MW416832   0.353   5.896   3.076 -0.0126 -0.0853  0.0302
 4267SOL     OW16833   6.280   3.431   4.955 -0.6249 -1.0380 -0.1716
 4267SOL    HW216834   6.318   3.470   4.876 -0.3068  0.5934  0.7530
 4267SOL    HW316835   6.194   3.399   4.927 -1.0752  0.6961 -0.8939
 4267SOL    MW416836   6.274   3.432   4.941  0.0850 -0.2732 -0.4657
 4268SOL     OW16837   0.594   0.911   2.182  0.3406  0.3072 -0.2236
 4268SOL    HW216838   0.561   0.835   2.134 -1.3678 -0.5023  2.0293
 4268SOL    HW316839   0.519   0.971   2.184  0.4425  0.4126  1.1569
 4268SOL    MW416840   0.580   0.909   2.176 -0.0234 -0.3285 -0.1888
 4269SOL     OW16841   1.588   6.347   2.935  0.0561  0.6134 -0.2988
 4269SOL    HW216842   1.602   6.256   2.906  0.9622  1.1624 -1.6881
 4269SOL    HW316843   1.673   6.372   2.973  0.0179  1.0925 -0.5316
 4269SOL    MW416844   1.601   6.338   2.936 -0.2605 -0.2806  0.2028
 4270SOL     OW16845   6.410   5.351   4.396 -0.1212  0.1842 -0.6510
 4270SOL    HW216846   6.423   5.257   4.405 -1.2984 -0.0048 -0.7409
 4270SOL    HW316847   6.320   5.360   4.363  0.6735  1.2477 -2.7258
 4270SOL    MW416848   6.400   5.340   4.392  0.0623  0.4387 -0.2327
 4271SOL     OW16849   0.605   0.740   6.281  0.4628 -0.2825 -0.4743
 4271SOL    HW216850   0.532   0.693   6.322  0.0480 -0.1949 -1.1066
 4271SOL    HW316851   0.647   0.675   6.225  0.8191 -0.3043 -0.1910
 4271SOL    MW416852   0.601   0.725   6.279 -0.2050 -0.4591  0.6348
 4272SOL     OW16853   4.269   3.054   5.072 -0.3968 -0.6690 -0.1754
 4272SOL    HW216854   4.291   3.057   4.979  0.6506  1.9439  0.0732
 4272SOL    HW316855   4.351   3.029   5.115 -0.0598  0.9726  0.1982
 4272SOL    MW416856   4.283   3.051   5.065 -0.4784  0.7505 -0.0477
 4273SOL     OW16857   4.380   2.825   0.245 -0.2283  0.0676  0.0123
 4273SOL    HW216858   4.319   2.752   0.235  0.2529 -0.3798  0.2909
 4273SOL    HW316859   4.460   2.785   0.280 -0.2074  0.8407  0.8761
 4273SOL    MW416860   4.383   2.810   0.248  0.5403  0.8185  0.2406
 4274SOL     OW16861   5.033   2.372   4.076  0.0332  0.2350  0.3899
 4274SOL    HW216862   4.952   2.322   4.062  1.1646 -2.6120  2.8284
 4274SOL    HW316863   5.028   2.399   4.168  2.3274 -1.1193  0.9837
 4274SOL    MW416864   5.022   2.369   4.087  0.2501  0.2400  0.1557
 4275SOL     OW16865   5.878   3.070   3.734 -0.0272 -0.0263 -0.5390
 4275SOL    HW216866   5.930   3.049   3.656 -0.1906 -0.0003 -0.6554
 4275SOL    HW316867   5.874   3.165   3.735 -0.1285 -0.0300 -0.5682
 4275SOL    MW416868   5.884   3.080   3.724  0.1746 -0.4014  0.2573
 4276SOL     OW16869   2.605   3.611   5.691 -0.4837  0.1340 -0.4949
 4276SOL    HW216870   2.685   3.631   5.738 -0.9763  0.4614  0.2149
 4276SOL    HW316871   2.633   3.553   5.620  0.4023  0.3950 -0.3671
 4276SOL    MW416872   2.619   3.606   5.688 -0.4056  0.7133 -0.1760
 4277SOL     OW16873   6.225   2.624   5.359  0.3851  0.4613  0.0477
 4277SOL    HW216874   6.283   2.614   5.434  0.1270  0.4577  0.2514
 4277SOL    HW316875   6.275   2.593   5.284  0.3567 -0.3151  0.3409
 4277SOL    MW416876   6.239   2.619   5.359  0.4105 -0.3148 -0.3181
 4278SOL     OW16877   4.467   2.569   4.475  0.1113  0.6239  0.0682
 4278SOL    HW216878   4.525   2.601   4.544  0.0459  1.4934 -0.2788
 4278SOL    HW316879   4.382   2.562   4.517  0.1893  0.6155  0.2254
 4278SOL    MW416880   4.464   2.572   4.490  0.1539 -0.1534 -0.8762
 4279SOL     OW16881   4.078   0.187   4.984 -0.2008  0.1503  0.3236
 4279SOL    HW216882   4.089   0.220   5.073 -2.8790  0.0269  0.7793
 4279SOL    HW316883   4.028   0.106   4.995  0.4176 -0.4757 -1.2415
 4279SOL    MW416884   4.073   0.181   4.997 -0.0216 -0.5046 -0.3077
 4280SOL     OW16885   2.338   3.032   4.709 -0.2086  1.0452  0.0519
 4280SOL    HW216886   2.397   3.002   4.639 -0.5336  0.9216 -0.1709
 4280SOL    HW316887   2.365   3.122   4.727  0.4208  0.8035  0.3471
 4280SOL    MW416888   2.349   3.040   4.702 -0.4346 -0.4533  0.2900
 4281SOL     OW16889   0.178   5.634   4.397 -0.0955  0.3950 -0.1494
 4281SOL    HW216890   0.088   5.610   4.417  0.0563  0.1027  0.1963
 4281SOL    HW316891   0.215   5.660   4.481  0.7281 -1.4320  0.1029
 4281SOL    MW416892   0.171   5.634   4.411 -0.5744  0.5143  0.5516
 4282SOL     OW16893   1.186   0.630   1.662  0.1903 -0.2651  0.3382
 4282SOL    HW216894   1.099   0.669   1.670  0.5493  0.5090  0.5950
 4282SOL    HW316895   1.169   0.537   1.647 -0.6915 -0.0078 -0.3694
 4282SOL    MW416896   1.172   0.623   1.661  0.5016 -0.3518  0.4812
 4283SOL     OW16897   6.269   2.296   1.255  0.3311 -0.1817  0.1774
 4283SOL    HW216898   6.178   2.294   1.286  0.6739 -1.2195  1.2024
 4283SOL    HW316899   6.315   2.351   1.319  0.7114 -0.8907  0.5166
 4283SOL    MW416900   6.263   2.303   1.267 -0.4078 -1.0267 -0.0473
 4284SOL     OW16901   0.176   1.980   6.424 -0.2379 -0.1713 -0.1839
 4284SOL    HW216902   0.211   1.950   6.339  0.6049  1.2341 -0.3624
 4284SOL    HW316903   0.081   1.976   6.413 -0.1607  0.7685 -1.5166
 4284SOL    MW416904   0.168   1.976   6.411 -0.4208 -0.8958  0.4033
 4285SOL     OW16905   4.062   2.540   3.067  0.3863  0.4978 -0.3429
 4285SOL    HW216906   4.060   2.609   3.134 -0.8031 -0.0937  0.2764
 4285SOL    HW316907   4.137   2.486   3.091 -1.2911 -1.0038  1.9500
 4285SOL    MW416908   4.072   2.542   3.079  0.1541 -0.0589  0.2202
 4286SOL     OW16909   0.452   5.235   1.789  0.5010  0.2417  0.1563
 4286SOL    HW216910   0.477   5.274   1.873  0.6213  0.2161  0.1315
 4286SOL    HW316911   0.516   5.268   1.727 -0.3437  1.2956 -0.1842
 4286SOL    MW416912   0.463   5.244   1.792 -0.3582  0.1010  0.8031
 4287SOL     OW16913   5.362   1.562   2.853 -0.7871 -0.9067  0.2881
 4287SOL    HW216914   5.424   1.525   2.916 -0.1153  0.0390  0.2072
 4287SOL    HW316915   5.283   1.580   2.904  0.0263  0.6327  1.0952
 4287SOL    MW416916   5.360   1.560   2.868 -0.3142  0.4844 -0.0231
 4288SOL     OW16917   5.735   4.711   2.439  0.9199  0.4065 -0.2648
 4288SOL    HW216918   5.756   4.634   2.493  1.3937  0.8215  0.1482
 4288SOL    HW316919   5.820   4.745   2.411  0.6865  0.3044 -1.1342
 4288SOL    MW416920   5.749   4.705   2.442 -0.6472  0.2554 -0.7248
 4289SOL     OW16921   5.142   0.871   3.768 -0.3758 -0.2522 -0.0787
 4289SOL    HW216922   5.055   0.888   3.803 -0.7670 -2.1941  0.0021
 4289SOL    HW316923   5.172   0.956   3.735 -2.5578  0.3316 -0.7136
 4289SOL    MW416924   5.135   0.885   3.768 -0.6647  0.4306 -0.3541
 4290SOL     OW16925   4.148   4.729   0.037 -0.1324  0.4317  0.5025
 4290SOL    HW216926   4.122   4.646   0.077  0.3177  0.6974  1.3805
 4290SOL    HW316927   4.210   4.767   0.099  0.5808  0.8790 -0.4548
 4290SOL    MW416928   4.153   4.723   0.051 -0.4232 -0.1863  0.1461
 4291SOL     OW16929   6.160   5.954   5.140 -0.4417 -0.3564 -0.2099
 4291SOL    HW216930   6.091   5.992   5.194 -1.3807 -1.2740 -0.7292
 4291SOL    HW316931   6.148   5.860   5.148  0.2556 -0.5245 -0.9466
 4291SOL    MW416932   6.149   5.947   5.148 -0.4166 -0.1972 -0.1195
 4292SOL     OW16933   6.193   3.780   2.619 -0.2357  0.2682  0.3850
 4292SOL    HW216934   6.211   3.694   2.582 -1.1076 -0.3037  1.2563
 4292SOL    HW316935   6.100   3.778   2.641 -0.1163  1.1922  1.0537
 4292SOL    MW416936   6.183   3.769   2.617 -0.1360  0.0736 -0.0993
 4293SOL     OW16937   4.552   2.088   5.157  0.1646 -0.0961  0.5528
 4293SOL    HW216938   4.642   2.091   5.192  0.8657  0.4134 -1.1976
 4293SOL    HW316939   4.563   2.070   5.064 -1.7436 -3.5560  0.8500
 4293SOL    MW416940   4.565   2.086   5.150 -0.5018  0.3812  0.1000
 4294SOL     OW16941   2.299   3.406   2.372  0.2881  0.2537  0.4645
 4294SOL    HW216942   2.336   3.318   2.383  1.5764  0.8208  0.9236
 4294SOL    HW316943   2.249   3.401   2.291  0.5949 -0.8298  0.3296
 4294SOL    MW416944   2.298   3.394   2.363 -0.0828 -0.6971 -0.5114
 4295SOL     OW16945   4.374   0.361   6.211 -0.2281  0.0428 -0.5945
 4295SOL    HW216946   4.458   0.331   6.245 -0.7546  0.2354  0.9586
 4295SOL    HW316947   4.367   0.451   6.241 -1.1144 -0.0666 -0.4504
 4295SOL    MW416948   4.384   0.369   6.219  0.0077 -0.4219  0.4170
 4296SOL     OW16949   4.689   0.507   5.267  0.3694 -0.2532 -0.1385
 4296SOL    HW216950   4.660   0.584   5.217  0.8962  0.3183  0.4238
 4296SOL    HW316951   4.750   0.542   5.332  0.8356 -1.1851 -0.0551
 4296SOL    MW416952   4.693   0.522   5.269  0.6703 -0.5023 -0.2442
 4297SOL     OW16953   5.001   5.948   3.782  0.5650  0.2115 -0.0157
 4297SOL    HW216954   5.027   5.885   3.715  1.7672  0.4859  0.1599
 4297SOL    HW316955   5.084   5.983   3.815 -0.0534  1.3433  0.4056
 4297SOL    MW416956   5.016   5.944   3.777  0.1373  0.0287  0.0016
 4298SOL     OW16957   4.895   2.895   6.329 -0.1287  0.0827  0.1346
 4298SOL    HW216958   4.902   2.868   6.421  1.5264  0.2763  0.0845
 4298SOL    HW316959   4.945   2.976   6.324 -0.0131 -0.0492 -0.9984
 4298SOL    MW416960   4.902   2.902   6.341 -0.1937 -0.5925 -0.5902
 4299SOL     OW16961   2.138   3.761   5.215 -0.2388 -0.1677  0.2302
 4299SOL    HW216962   2.125   3.829   5.149 -1.8434  0.5327  1.2136
 4299SOL    HW316963   2.169   3.685   5.165 -0.7453  0.5363 -1.2204
 4299SOL    MW416964   2.141   3.760   5.199 -0.3370  0.5387 -0.3402
 4300SOL     OW16965   1.017   4.833   5.634  0.4166 -0.3169  0.2989
 4300SOL    HW216966   1.090   4.810   5.691  0.8904 -0.9124 -0.5387
 4300SOL    HW316967   0.941   4.835   5.693  1.1951  1.0411  1.3207
 4300SOL    MW416968   1.016   4.830   5.650  0.0599  0.5036  0.1710
 4301SOL     OW16969   4.220   3.119   1.699  0.2802 -0.1124  0.2313
 4301SOL    HW216970   4.268   3.068   1.633 -0.8661 -1.7925  0.6069
 4301SOL    HW316971   4.150   3.161   1.649 -0.9495 -1.8556  0.3644
 4301SOL    MW416972   4.217   3.118   1.683  0.8008 -0.1074 -0.4540
 4302SOL     OW16973   2.918   6.285   2.590  0.2816 -0.2258 -0.4838
 4302SOL    HW216974   2.906   6.373   2.626  0.1990 -0.4131 -0.0398
 4302SOL    HW316975   2.970   6.239   2.657  0.8544 -0.3323 -0.9915
 4302SOL    MW416976   2.924   6.290   2.604  0.2653 -0.2590  0.0660
 4303SOL     OW16977   2.110   1.147   0.410 -0.1074 -0.0597  0.0733
 4303SOL    HW216978   2.018   1.170   0.419  0.1547  1.3525 -0.5751
 4303SOL    HW316979   2.145   1.212   0.349  1.0736 -1.2430 -0.5598
 4303SOL    MW416980   2.102   1.159   0.403  0.5520 -0.7088  0.6186
 4304SOL     OW16981   0.297   6.050   1.647  0.1522  0.1997  0.1409
 4304SOL    HW216982   0.227   5.986   1.632  0.2449  0.4010 -1.3105
 4304SOL    HW316983   0.265   6.105   1.719 -1.3501  0.4920 -0.7081
 4304SOL    MW416984   0.284   6.049   1.654  0.0630  0.7021 -0.1517
 4305SOL     OW16985   2.679   6.226   6.166 -0.1247  0.3877  0.0931
 4305SOL    HW216986   2.600   6.273   6.138 -0.8576 -0.4787  0.6240
 4305SOL    HW316987   2.660   6.199   6.256  0.0809 -1.2656 -0.3281
 4305SOL    MW416988   2.666   6.228   6.174 -0.0356  0.1648 -0.1039
 4306SOL     OW16989   2.504   1.982   1.376 -0.0616  0.4693 -0.6952
 4306SOL    HW216990   2.443   1.991   1.303 -1.9139 -1.9973  0.4016
 4306SOL    HW316991   2.526   2.072   1.401 -1.8137  1.4114 -2.3227
 4306SOL    MW416992   2.499   1.995   1.370  0.3518 -0.1146 -0.4121
 4307SOL     OW16993   5.554   5.799   2.771 -0.2728 -0.4841  0.0071
 4307SOL    HW216994   5.460   5.785   2.783 -0.7844  2.8604  0.9099
 4307SOL    HW316995   5.584   5.835   2.854  1.4478  0.0827 -0.8017
 4307SOL    MW416996   5.546   5.802   2.783  0.4753 -0.1993  0.2726
 4308SOL     OW16997   1.204   1.554   0.299  0.1113  0.0101 -0.2320
 4308SOL    HW216998   1.292   1.586   0.283  0.5282 -0.9392  0.0842
 4308SOL    HW316999   1.204   1.465   0.264 -0.5481 -0.2022  0.2783
 4308SOL    MW417000   1.215   1.546   0.292 -0.5177  0.2399 -0.4700
 4309SOL     OW17001   5.999   0.832   2.281  0.5005 -0.3241  0.0641
 4309SOL    HW217002   6.012   0.768   2.211  0.7607  0.1853 -0.3693
 4309SOL    HW317003   5.986   0.780   2.360 -0.7389 -0.9302 -0.5191
 4309SOL    MW417004   5.999   0.817   2.282  0.2761 -0.9314 -0.5404
 4310SOL     OW17005   4.521   5.492   3.700  0.0725 -0.3821  0.3973
 4310SOL    HW217006   4.537   5.586   3.710 -0.8757 -0.1186 -0.4521
 4310SOL    HW317007   4.526   5.477   3.605 -2.9576 -0.5629  0.1663
 4310SOL    MW417008   4.524   5.503   3.688  0.5596 -0.0673  0.3365
 4311SOL     OW17009   4.731   4.019   3.414  0.2890  0.6653 -0.4657
 4311SOL    HW217010   4.643   4.056   3.402  0.5650  0.8475 -2.1943
 4311SOL    HW317011   4.752   3.980   3.329  2.2701  1.4348 -0.3684
 4311SOL    MW417012   4.722   4.019   3.401  0.3430  0.1746 -0.1100
 4312SOL     OW17013   4.457   4.711   1.903  0.3534  0.5575 -0.4237
 4312SOL    HW217014   4.411   4.657   1.967  3.5867 -1.1872  0.7034
 4312SOL    HW317015   4.426   4.681   1.818  0.2199 -1.3014  0.2473
 4312SOL    MW417016   4.447   4.700   1.900  0.7671 -0.2655 -0.2291
 4313SOL     OW17017   3.431   5.170   1.019 -0.2981 -0.6781 -0.1335
 4313SOL    HW217018   3.445   5.172   1.113 -2.4822 -1.1347  0.2613
 4313SOL    HW317019   3.395   5.256   0.997  2.1492  0.2024 -0.9610
 4313SOL    MW417020   3.428   5.182   1.028  0.2361 -0.2429  0.2815
 4314SOL     OW17021   4.358   4.730   4.181  0.4749 -0.3720 -0.0754
 4314SOL    HW217022   4.281   4.771   4.141  0.4902 -1.4796 -1.3007
 4314SOL    HW317023   4.365   4.771   4.267  0.2283  1.8612 -1.0572
 4314SOL    MW417024   4.349   4.741   4.187 -0.1495 -0.3229 -0.4123
 4315SOL     OW17025   2.838   2.097   3.831  0.2176 -0.6488 -0.5559
 4315SOL    HW217026   2.872   2.094   3.741  4.6324 -0.0194  0.8518
 4315SOL    HW317027   2.805   2.186   3.842 -0.2946 -0.7106 -1.5073
 4315SOL    MW417028   2.839   2.108   3.820  0.2105  0.2169 -0.7456
 4316SOL     OW17029   3.656   4.765   4.294  0.2886 -0.3270 -0.3803
 4316SOL    HW217030   3.565   4.736   4.291  0.5162 -1.2984  0.8701
 4316SOL    HW317031   3.656   4.836   4.358  0.5120 -0.8407  0.2051
 4316SOL    MW417032   3.644   4.770   4.302  0.3037  0.2194  0.2982
 4317SOL     OW17033   4.918   2.509   5.159  0.3557 -0.3069  0.0859
 4317SOL    HW217034   4.846   2.569   5.140 -0.0344 -0.5670  0.7022
 4317SOL    HW317035   4.997   2.560   5.144  0.0295  0.3500  0.5524
 4317SOL    MW417036   4.919   2.523   5.155 -0.0027 -0.1396  0.0516
 4318SOL     OW17037   3.339   4.046   4.640 -0.0137 -0.2574  0.4036
 4318SOL    HW217038   3.328   4.034   4.545 -1.3593  0.4736  0.4540
 4318SOL    HW317039   3.270   3.993   4.679 -1.5381  1.9383  0.8445
 4318SOL    MW417040   3.329   4.037   4.632  0.7984 -0.2356 -0.6898
 4319SOL     OW17041   2.764   1.320   5.414 -0.0656 -0.1341 -0.1451
 4319SOL    HW217042   2.816   1.346   5.338  1.2626 -1.6698  0.1807
 4319SOL    HW317043   2.817   1.344   5.490  0.3196 -1.9020  0.1893
 4319SOL    MW417044   2.778   1.326   5.414  0.0025  0.0919  0.3462
 4320SOL     OW17045   5.426   3.746   4.113 -0.2127 -0.1120  0.0438
 4320SOL    HW217046   5.487   3.672   4.118  0.9287  0.4464 -3.2479
 4320SOL    HW317047   5.475   3.820   4.150  0.9036  0.1699 -1.8978
 4320SOL    MW417048   5.441   3.746   4.119  0.1137 -0.5011 -0.1924
 4321SOL     OW17049   1.259   2.174   1.667  0.2802  0.5354  0.4397
 4321SOL    HW217050   1.300   2.146   1.749  2.5327  1.4663 -0.2948
 4321SOL    HW317051   1.265   2.269   1.669 -1.3858  0.6708  0.0135
 4321SOL    MW417052   1.265   2.183   1.678  0.4793 -0.1629  0.0383
 4322SOL     OW17053   0.816   0.570   0.644 -0.3870 -0.2611  0.4949
 4322SOL    HW217054   0.735   0.528   0.615 -0.2698 -0.5398  0.5683
 4322SOL    HW317055   0.855   0.603   0.564 -0.7120  0.1176  0.4935
 4322SOL    MW417056   0.810   0.568   0.630  0.1329 -0.3241  0.2875
 4323SOL     OW17057   3.482   2.817   3.067  0.1338 -0.0818  0.2863
 4323SOL    HW217058   3.425   2.747   3.034 -0.6239 -0.9635  3.1621
 4323SOL    HW317059   3.568   2.777   3.073 -0.1656 -0.6006  1.3097
 4323SOL    MW417060   3.486   2.803   3.063  0.6751  0.2296 -0.3591
 4324SOL     OW17061   3.156   5.023   3.265  0.1475  0.2508 -0.2697
 4324SOL    HW217062   3.151   4.931   3.240  1.1442  0.1791 -0.2432
 4324SOL    HW317063   3.206   5.065   3.195 -1.4542  1.0636 -0.9922
 4324SOL    MW417064   3.162   5.016   3.252  0.2289  0.8699  0.2241
 4325SOL     OW17065   6.322   4.237   0.230 -0.0454 -0.1763 -0.3937
 4325SOL    HW217066   6.328   4.142   0.232 -0.9047 -0.3794 -3.3855
 4325SOL    HW317067   6.234   4.257   0.260 -0.2925 -0.4285 -0.9426
 4325SOL    MW417068   6.311   4.227   0.234 -0.2438 -0.2643 -0.1030
 4326SOL     OW17069   0.312   3.981   1.197  0.6204 -0.0987 -0.0929
 4326SOL    HW217070   0.263   3.994   1.116  0.7127  2.2352  0.1753
 4326SOL    HW317071   0.342   3.890   1.192  1.6295  0.3020 -3.2251
 4326SOL    MW417072   0.309   3.970   1.186 -0.6199  0.0528  0.1574
 4327SOL     OW17073   2.103   4.003   2.560 -0.2328  0.3303 -0.2564
 4327SOL    HW217074   2.009   4.019   2.545  0.0549  1.9138 -0.4922
 4327SOL    HW317075   2.124   3.932   2.500 -1.1966  0.2304 -0.5019
 4327SOL    MW417076   2.093   3.996   2.550  0.3626 -0.6916  0.2144
 4328SOL     OW17077   3.185   5.791   0.541  0.2685  0.2700 -1.0441
 4328SOL    HW217078   3.157   5.862   0.598 -0.5304  0.2629 -1.4205
 4328SOL    HW317079   3.193   5.715   0.600 -1.4779  0.0223 -1.0598
 4328SOL    MW417080   3.182   5.790   0.557  0.4371 -0.0087 -0.3892
 4329SOL     OW17081   0.939   5.194   4.648  0.0640  0.0569 -0.3069
 4329SOL    HW217082   0.941   5.287   4.626  0.8833 -0.6050 -3.4868
 4329SOL    HW317083   1.006   5.154   4.592 -0.2956 -2.4764  0.9135
 4329SOL    MW417084   0.948   5.201   4.638 -0.3896  0.1667 -0.5008
 4330SOL     OW17085   2.154   2.105   5.901  0.2992 -0.5388 -0.3969
 4330SOL    HW217086   2.235   2.149   5.927  0.4925 -1.3927  0.5247
 4330SOL    HW317087   2.138   2.134   5.812  1.7945 -0.5935 -0.7037
 4330SOL    MW417088   2.162   2.115   5.893  0.6454 -0.2402 -0.1554
 4331SOL     OW17089   2.973   5.402   0.114 -0.6226 -0.1841 -0.3851
 4331SOL    HW217090   2.911   5.389   0.185  0.2148  1.5111  0.7153
 4331SOL    HW317091   2.977   5.317   0.070 -2.7407 -0.6721  0.2825
 4331SOL    MW417092   2.966   5.389   0.118 -0.0734 -0.4491  0.4364
 4332SOL     OW17093   4.246   2.215   3.331 -0.0725  0.4133  0.5222
 4332SOL    HW217094   4.296   2.153   3.384  2.2884  1.2406 -0.6069
 4332SOL    HW317095   4.207   2.162   3.262  0.8461 -0.0053  0.3160
 4332SOL    MW417096   4.247   2.200   3.329  0.3242  0.5424 -0.3704
 4333SOL     OW17097   3.517   2.880   5.569 -0.2217 -0.1155  0.5608
 4333SOL    HW217098   3.576   2.807   5.591 -0.1508  0.4715  2.5869
 4333SOL    HW317099   3.573   2.943   5.524 -0.0438 -0.8406 -0.2705
 4333SOL    MW417100   3.532   2.878   5.566  0.1018 -0.4599  0.2783
 4334SOL     OW17101   3.729   4.930   3.824  0.4786  0.3451  0.3224
 4334SOL    HW217102   3.757   4.889   3.742  0.3935 -2.0040  1.3706
 4334SOL    HW317103   3.691   5.014   3.798 -1.9896 -1.4239 -2.4102
 4334SOL    MW417104   3.728   4.936   3.810  0.1865  0.4007  0.4752
 4335SOL     OW17105   4.181   1.089   1.501 -0.1545  0.8548  0.0938
 4335SOL    HW217106   4.266   1.119   1.534 -0.4061  1.0783  0.5449
 4335SOL    HW317107   4.191   1.091   1.406  0.0775  1.6875  0.1255
 4335SOL    MW417108   4.193   1.093   1.493  0.4056  0.6088  0.1602
 4336SOL     OW17109   4.266   5.930   5.337 -0.3430 -0.1767  0.3514
 4336SOL    HW217110   4.229   5.938   5.249  0.1854 -2.8093 -0.1930
 4336SOL    HW317111   4.355   5.963   5.329 -0.7322  0.9032  0.2817
 4336SOL    MW417112   4.273   5.935   5.324  0.7513 -0.2520  0.2072
 4337SOL     OW17113   4.734   4.799   1.154 -0.2024  0.6079 -0.3488
 4337SOL    HW217114   4.644   4.767   1.157  0.3467 -1.3264 -2.1364
 4337SOL    HW317115   4.784   4.737   1.207  0.3521  0.5928 -0.8784
 4337SOL    MW417116   4.729   4.787   1.161 -0.1207  0.2197 -0.4212
 4338SOL     OW17117   4.349   5.059   3.120 -0.2279  0.0194  0.0458
 4338SOL    HW217118   4.396   5.142   3.113  0.6753 -0.5402 -0.8949
 4338SOL    HW317119   4.360   5.018   3.035 -0.9999 -0.9018  0.3670
 4338SOL    MW417120   4.357   5.064   3.108 -0.0420  0.6773  0.6323
 4339SOL     OW17121   5.560   2.658   1.354  0.2664 -0.5347 -0.2947
 4339SOL    HW217122   5.486   2.663   1.294  0.5093  0.5768 -0.5133
 4339SOL    HW317123   5.634   2.696   1.306  0.4552  0.4406  0.7022
 4339SOL    MW417124   5.560   2.664   1.340 -0.2671  0.1698  0.1434
 4340SOL     OW17125   6.050   3.347   0.697 -0.0490 -0.2814 -0.3356
 4340SOL    HW217126   6.088   3.320   0.614  0.8156 -0.5670  0.1477
 4340SOL    HW317127   6.047   3.443   0.691  0.8677 -0.2417 -0.3377
 4340SOL    MW417128   6.055   3.356   0.685 -0.7790  0.2240 -0.0210
 4341SOL     OW17129   2.965   6.149   0.035  0.4511 -0.3387  0.1195
 4341SOL    HW217130   2.938   6.233  -0.003  0.8939 -0.2277  0.0453
 4341SOL    HW317131   2.928   6.083  -0.024 -0.9117 -0.2435  0.8236
 4341SOL    MW417132   2.957   6.152   0.022 -0.1584 -0.3398 -0.4622
 4342SOL     OW17133   1.445   4.117   3.138  0.1949  0.1298  0.4816
 4342SOL    HW217134   1.415   4.199   3.176 -0.0539 -0.4407  1.5645
 4342SOL    HW317135   1.378   4.053   3.163  1.0379 -0.6625  0.7804
 4342SOL    MW417136   1.432   4.119   3.146  0.4822 -0.6404 -0.2720
 4343SOL     OW17137   0.791   6.385   0.455 -0.4675 -0.4618  0.4694
 4343SOL    HW217138   0.782   6.480   0.458  0.3235 -0.3496 -0.4317
 4343SOL    HW317139   0.877   6.367   0.493 -0.5222 -0.7947  0.4428
 4343SOL    MW417140   0.801   6.395   0.460 -0.4248 -0.2924  0.5195
 4344SOL     OW17141   0.941   5.850   2.151  0.2437 -0.4268  0.0409
 4344SOL    HW217142   1.037   5.848   2.149  0.2513 -0.4234  0.5165
 4344SOL    HW317143   0.917   5.802   2.230 -0.0602  1.9356  1.4767
 4344SOL    MW417144   0.951   5.844   2.161 -0.1390 -0.3783 -0.2843
 4345SOL     OW17145   0.054   2.759   3.529 -0.3575  0.1542 -0.1620
 4345SOL    HW217146  -0.002   2.831   3.501  3.2431  2.6525 -1.6771
 4345SOL    HW317147   0.056   2.700   3.454  0.6715  1.1845 -0.9734
 4345SOL    MW417148   0.047   2.760   3.516  0.5875 -0.2513 -0.4898
 4346SOL     OW17149   4.647   3.155   1.093  0.2678  0.1748  0.2844
 4346SOL    HW217150   4.655   3.165   0.998 -0.0651  1.3643  0.3629
 4346SOL    HW317151   4.566   3.201   1.115 -0.2722 -1.0948  1.0078
 4346SOL    MW417152   4.637   3.163   1.083  0.0260  0.1884 -0.3668
 4347SOL     OW17153   6.247   1.487   1.955 -0.3543  0.3744 -0.5222
 4347SOL    HW217154   6.162   1.463   1.992 -0.2752 -1.3503 -1.3976
 4347SOL    HW317155   6.234   1.485   1.860  0.9535 -1.2191 -0.7174
 4347SOL    MW417156   6.234   1.484   1.947 -0.3265 -0.2699 -0.0421
 4348SOL     OW17157   0.564   1.102   2.902 -0.1621  0.1108 -0.6089
 4348SOL    HW217158   0.617   1.071   2.829  0.2404  1.9196 -1.1417
 4348SOL    HW317159   0.623   1.156   2.954 -0.5689 -0.7594  0.8194
 4348SOL    MW417160   0.579   1.105   2.899  0.7743 -0.0148 -0.0813
 4349SOL     OW17161   4.400   4.372   1.045  0.4470  0.2324  0.1158
 4349SOL    HW217162   4.427   4.434   1.113  0.4690  0.0097  0.3085
 4349SOL    HW317163   4.400   4.424   0.964  0.2141  0.5498  0.3193
 4349SOL    MW417164   4.404   4.387   1.043  0.0122 -0.8075  0.5230
 4350SOL     OW17165   3.169   5.224   5.304 -0.3826  0.1030 -0.3699
 4350SOL    HW217166   3.253   5.265   5.281 -0.7555  0.9735 -0.2257
 4350SOL    HW317167   3.106   5.265   5.244 -0.7511 -0.3189 -0.2709
 4350SOL    MW417168   3.172   5.235   5.293  0.0678  0.3821  0.1045
 4351SOL     OW17169   1.739   0.945   5.966  0.2000  0.1738  0.0782
 4351SOL    HW217170   1.784   0.867   5.932  1.0893  0.4378  0.6390
 4351SOL    HW317171   1.809   1.000   6.001 -0.5109  0.8419  0.4646
 4351SOL    MW417172   1.754   0.942   5.966 -0.1955 -0.1316 -0.3940
 4352SOL     OW17173   1.451   5.379   0.009  0.4938  0.1834 -0.0922
 4352SOL    HW217174   1.505   5.436  -0.046  1.4800 -1.7982 -1.2976
 4352SOL    HW317175   1.381   5.436   0.041  2.0921  2.3409 -0.1969
 4352SOL    MW417176   1.449   5.394   0.006 -0.1864 -0.5516 -0.1226
 4353SOL     OW17177   1.624   5.182   6.093  0.2088  0.4863 -0.3320
 4353SOL    HW217178   1.529   5.189   6.108 -0.1003 -1.8934 -0.8229
 4353SOL    HW317179   1.653   5.116   6.155  1.2902  0.1232 -1.1971
 4353SOL    MW417180   1.615   5.174   6.103  0.2547 -0.3849  0.1731
 4354SOL     OW17181   2.537   3.226   4.989  0.1165  0.3691  0.4910
 4354SOL    HW217182   2.538   3.321   4.998  1.3764  0.5798 -1.4745
 4354SOL    HW317183   2.615   3.197   5.036  1.1187  0.5757 -0.9706
 4354SOL    MW417184   2.547   3.235   4.997 -0.6669 -0.6435  0.2241
 4355SOL     OW17185   3.973   5.358   4.156  0.1154  0.4038 -0.0523
 4355SOL    HW217186   3.932   5.293   4.213  0.5781 -0.8017 -1.0376
 4355SOL    HW317187   3.910   5.372   4.086  0.9800 -0.8319 -1.1271
 4355SOL    MW417188   3.959   5.351   4.154 -0.0962 -0.1671 -0.6062
 4356SOL     OW17189   3.398   3.340   2.194  0.2344 -0.1795  0.3830
 4356SOL    HW217190   3.449   3.382   2.125 -2.1935  0.1045 -1.3341
 4356SOL    HW317191   3.331   3.403   2.217 -2.0341 -2.1041 -0.5629
 4356SOL    MW417192   3.396   3.354   2.188  0.0920 -0.0769  0.3125
 4357SOL     OW17193   0.185   5.381   3.969 -0.6343  0.1384 -0.9562
 4357SOL    HW217194   0.115   5.426   4.017  0.1628  0.7830 -0.3759
 4357SOL    HW317195   0.184   5.423   3.882  0.1045  1.3130 -0.4190
 4357SOL    MW417196   0.176   5.393   3.964  0.0846  0.5163  0.1587
 4358SOL     OW17197   5.659   4.593   4.531  0.2629  0.5638  0.1188
 4358SOL    HW217198   5.655   4.605   4.626  2.1963  0.3293  0.2805
 4358SOL    HW317199   5.680   4.680   4.497  1.8636  0.2336  0.1595
 4358SOL    MW417200   5.661   4.606   4.539 -0.7630  0.2032 -0.4805
 4359SOL     OW17201   1.170   6.247   6.366 -0.1458 -0.0126 -0.2776
 4359SOL    HW217202   1.207   6.317   6.312  0.3794 -0.6753 -0.7901
 4359SOL    HW317203   1.077   6.246   6.342  0.1500 -0.5378 -1.4566
 4359SOL    MW417204   1.162   6.256   6.355  0.2666 -0.0163  0.2690
 4360SOL     OW17205   2.117   1.281   1.622  0.2723  0.0206  0.1586
 4360SOL    HW217206   2.040   1.224   1.627 -0.5538  1.1904  1.8039
 4360SOL    HW317207   2.185   1.234   1.671  1.0550 -1.5328 -2.2153
 4360SOL    MW417208   2.116   1.267   1.629  1.2674 -0.3372  0.0442
 4361SOL     OW17209   2.512   0.452   2.247 -0.6640 -0.3810 -0.1641
 4361SOL    HW217210   2.542   0.365   2.277 -1.1117 -0.6444 -0.4764
 4361SOL    HW317211   2.548   0.460   2.159  0.5562  0.3477  0.3733
 4361SOL    MW417212   2.521   0.441   2.240 -0.3862  0.5273  0.0941
 4362SOL     OW17213   0.785   6.269   3.717  0.3637 -0.3769  0.2655
 4362SOL    HW217214   0.877   6.296   3.715  0.2247  0.1514  0.8523
 4362SOL    HW317215   0.737   6.349   3.737 -0.2588 -0.5769 -0.4059
 4362SOL    MW417216   0.791   6.283   3.719 -0.2544 -0.2949  0.4908
 4363SOL     OW17217   4.235   1.840   3.007  0.1088 -0.1722 -0.4582
 4363SOL    HW217218   4.160   1.826   2.949  0.3882  2.6710 -1.6632
 4363SOL    HW317219   4.284   1.910   2.966  2.5712 -0.8036  1.1803
 4363SOL    MW417220   4.231   1.847   2.994  0.1723 -0.1582  0.3506
 4364SOL     OW17221   5.735   2.114   2.730 -0.5229 -0.6281  0.3000
 4364SOL    HW217222   5.800   2.074   2.672  2.5940  3.1864  0.7379
 4364SOL    HW317223   5.688   2.177   2.675 -0.6315 -0.1183  0.9543
 4364SOL    MW417224   5.737   2.117   2.715 -0.5566  0.1518  0.0451
 4365SOL     OW17225   1.091   1.745   3.807  0.6684  0.4093  0.1058
 4365SOL    HW217226   1.115   1.726   3.897  1.9244 -0.3096 -0.3522
 4365SOL    HW317227   1.116   1.837   3.795  1.5522  0.1915  0.1795
 4365SOL    MW417228   1.097   1.755   3.817 -0.4464  0.0160 -0.0226
 4366SOL     OW17229   4.275   2.185   0.663  0.0810 -0.5316 -0.1739
 4366SOL    HW217230   4.238   2.099   0.683 -0.1363 -0.1760  0.9834
 4366SOL    HW317231   4.368   2.168   0.648  0.0001 -0.9994 -0.1593
 4366SOL    MW417232   4.282   2.172   0.663 -0.2946 -0.3999  0.5991
 4367SOL     OW17233   4.284   1.172   2.954 -0.2343  0.1457  0.2849
 4367SOL    HW217234   4.225   1.217   2.893 -0.9162 -0.5726  0.3884
 4367SOL    HW317235   4.372   1.193   2.923 -0.5641 -0.0674 -0.8580
 4367SOL    MW417236   4.288   1.181   2.942  0.6702  0.8567  0.0586
 4368SOL     OW17237   4.591   0.132   0.410  0.0337  0.6729  0.1160
 4368SOL    HW217238   4.528   0.188   0.366 -0.8305  0.1690  0.6917
 4368SOL    HW317239   4.566   0.043   0.386 -0.6492  0.3615  1.8218
 4368SOL    MW417240   4.580   0.127   0.401 -0.1664 -0.1639 -0.0394
 4369SOL     OW17241   1.193   3.038   1.780 -0.4952 -0.6874 -0.0465
 4369SOL    HW217242   1.167   2.948   1.764 -0.3646 -0.7543  0.1237
 4369SOL    HW317243   1.284   3.033   1.810 -0.5611 -0.5191  0.1894
 4369SOL    MW417244   1.201   3.026   1.782 -0.4110  0.1548 -0.8887
 4370SOL     OW17245   2.745   1.060   2.084  0.0298 -0.0832 -0.2879
 4370SOL    HW217246   2.808   1.101   2.144  0.2405  0.8632 -1.1362
 4370SOL    HW317247   2.799   1.010   2.024 -0.1833 -1.0380  0.3034
 4370SOL    MW417248   2.761   1.059   2.084 -0.0835 -0.3002  0.0605
 4371SOL     OW17249   0.485   3.188   2.755 -0.0940  0.2121 -0.4957
 4371SOL    HW217250   0.454   3.256   2.695 -0.3242  1.3394  0.8454
 4371SOL    HW317251   0.580   3.202   2.759 -0.1065  0.2847 -0.4387
 4371SOL    MW417252   0.494   3.199   2.747  0.0701  0.0915  0.3665
 4372SOL     OW17253   1.888   1.417   5.624  0.7680 -0.2548 -0.6205
 4372SOL    HW217254   1.889   1.513   5.619  1.1942 -0.3005 -1.6862
 4372SOL    HW317255   1.896   1.389   5.533  1.1399 -1.3101 -0.2690
 4372SOL    MW417256   1.889   1.426   5.611  0.0254 -0.0715 -0.4355
 4373SOL     OW17257   0.832   0.736   3.341 -0.2012  0.4946 -0.1255
 4373SOL    HW217258   0.892   0.671   3.304  0.4076 -0.8565  2.9667
 4373SOL    HW317259   0.888   0.812   3.359 -0.4231  1.0062 -1.4394
 4373SOL    MW417260   0.847   0.738   3.339  0.0882 -0.2082  0.2433
 4374SOL     OW17261   2.072   3.936   3.225 -0.3189  0.6521 -0.7944
 4374SOL    HW217262   2.168   3.936   3.225 -0.2744  2.6740 -1.8232
 4374SOL    HW317263   2.048   3.966   3.313 -0.0162  0.5053 -0.6587
 4374SOL    MW417264   2.082   3.940   3.237  0.5395 -0.3880 -0.6033
 4375SOL     OW17265   0.618   4.240   2.421  0.6664  0.3575 -0.0116
 4375SOL    HW217266   0.620   4.335   2.428 -2.0106  0.3498  2.5888
 4375SOL    HW317267   0.526   4.218   2.411  0.9906 -2.0141  1.4033
 4375SOL    MW417268   0.606   4.250   2.420  0.3289  0.1808 -0.5440
 4376SOL     OW17269   1.231   1.632   3.590 -0.2266  0.3288  0.0064
 4376SOL    HW217270   1.224   1.541   3.620  1.5767  0.2424  0.2832
 4376SOL    HW317271   1.199   1.684   3.664  0.0535 -0.0395  0.3885
 4376SOL    MW417272   1.226   1.627   3.604  0.2806 -0.2883 -0.5142
 4377SOL     OW17273   1.861   0.497   4.155  0.1522 -0.6621  0.7661
 4377SOL    HW217274   1.901   0.581   4.173  0.6864 -0.9448  0.8998
 4377SOL    HW317275   1.868   0.448   4.237  1.8937 -1.6675  0.0758
 4377SOL    MW417276   1.867   0.501   4.168 -0.1839  0.5168  0.2224
 4378SOL     OW17277   1.107   5.278   5.871  0.4022  0.4706  0.0750
 4378SOL    HW217278   1.090   5.232   5.789  3.9413 -2.3930  0.6942
 4378SOL    HW317279   1.070   5.222   5.938 -1.0347  1.9856  0.6101
 4378SOL    MW417280   1.100   5.265   5.869  0.0154 -0.0436  0.3143
 4379SOL     OW17281   3.089   2.981   3.545 -0.3302  0.1205  0.1294
 4379SOL    HW217282   3.029   3.050   3.515  0.3618  0.6729 -0.0088
 4379SOL    HW317283   3.059   2.902   3.501 -0.2239  0.6358 -0.8862
 4379SOL    MW417284   3.077   2.980   3.535 -0.1717 -0.1808 -0.1103
 4380SOL     OW17285   5.222   1.797   4.204 -0.5881  0.4606  0.3045
 4380SOL    HW217286   5.164   1.725   4.226 -0.3005  0.2675  0.4286
 4380SOL    HW317287   5.277   1.764   4.133 -0.1227  0.3876  0.6931
 4380SOL    MW417288   5.222   1.783   4.197  0.5352 -0.5667 -0.1532
 4381SOL     OW17289   5.517   2.890   2.744  0.2147  0.0079 -0.2747
 4381SOL    HW217290   5.548   2.902   2.834 -0.5385  0.9149 -0.1207
 4381SOL    HW317291   5.517   2.979   2.708 -1.9076  0.0092 -0.3604
 4381SOL    MW417292   5.521   2.903   2.751  0.7149 -0.3320 -0.2334
 4382SOL     OW17293   0.343   2.158   0.144 -0.1881 -0.1908  0.3215
 4382SOL    HW217294   0.293   2.092   0.096  0.8913 -1.1459  0.4658
 4382SOL    HW317295   0.294   2.172   0.224 -0.6127 -0.5593  0.1312
 4382SOL    MW417296   0.330   2.151   0.148  0.6544  0.5048 -0.0966
 4383SOL     OW17297   4.406   2.058   2.926 -0.0340  0.1436  0.2550
 4383SOL    HW217298   4.333   2.118   2.912 -0.2695  0.0596  1.0921
 4383SOL    HW317299   4.452   2.094   3.002  0.6484  0.0459 -0.0991
 4383SOL    MW417300   4.402   2.071   2.934 -0.1222 -0.5750 -0.5245
 4384SOL     OW17301   5.663   0.468   4.925 -0.3416 -0.1845 -0.3708
 4384SOL    HW217302   5.570   0.474   4.944 -0.6234  0.0934 -1.7457
 4384SOL    HW317303   5.699   0.552   4.953 -0.8531  0.4549 -1.5508
 4384SOL    MW417304   5.656   0.480   4.931 -0.3752 -0.3595  0.5299
 4385SOL     OW17305   2.669   0.161   1.127 -0.4507 -0.1734 -0.0581
 4385SOL    HW217306   2.640   0.166   1.036 -1.8243 -0.3315  0.3575
 4385SOL    HW317307   2.623   0.085   1.162 -0.7250  0.4884  1.0433
 4385SOL    MW417308   2.659   0.152   1.119  0.7730  0.3043 -0.2959
 4386SOL     OW17309   4.971   2.804   2.898 -0.1475  0.2945  0.2182
 4386SOL    HW217310   5.002   2.740   2.963  0.5808  1.1599  0.7469
 4386SOL    HW317311   4.884   2.829   2.927  0.7804  1.8704  1.8145
 4386SOL    MW417312   4.964   2.799   2.910  0.3833 -0.0498  0.3656
 4387SOL     OW17313   5.495   3.175   5.137 -0.0966  0.4593 -0.1302
 4387SOL    HW217314   5.433   3.241   5.168 -2.3641  0.7206 -4.4292
 4387SOL    HW317315   5.563   3.225   5.093 -0.4096  0.0217 -1.1282
 4387SOL    MW417316   5.496   3.190   5.136  0.2832 -0.1499  0.1280
 4388SOL     OW17317   0.304   2.437   0.758  0.2848  0.4084  0.5359
 4388SOL    HW217318   0.296   2.342   0.768 -2.6512  0.4328 -0.5196
 4388SOL    HW317319   0.318   2.450   0.665  0.8050  1.0340  0.6947
 4388SOL    MW417320   0.305   2.426   0.747 -0.1198  0.5020 -0.2765
 4389SOL     OW17321   3.631   0.583   6.243 -0.2649  0.8919 -0.1433
 4389SOL    HW217322   3.676   0.647   6.298 -0.2819  0.5085  0.3230
 4389SOL    HW317323   3.671   0.594   6.156  2.0681 -0.6762  0.6367
 4389SOL    MW417324   3.642   0.593   6.239  0.6897 -0.0094  0.2661
 4390SOL     OW17325   4.440   2.893   4.494  0.1072  0.1832  0.2161
 4390SOL    HW217326   4.360   2.869   4.541 -0.9839 -0.6378 -1.9284
 4390SOL    HW317327   4.475   2.811   4.460 -0.0523  0.8514 -1.7135
 4390SOL    MW417328   4.434   2.879   4.495 -0.1463  0.1703  0.1826
 4391SOL     OW17329   5.933   4.000   2.318  0.2829 -0.1916  0.4926
 4391SOL    HW217330   5.881   4.074   2.286 -1.3277 -1.3488  0.3586
 4391SOL    HW317331   5.953   4.023   2.409  1.6184  1.3463 -0.1362
 4391SOL    MW417332   5.929   4.013   2.325  0.2015 -0.6218  0.0029
 4392SOL     OW17333   4.921   4.751   6.312  0.0986  0.1277  0.1540
 4392SOL    HW217334   4.959   4.684   6.256 -1.1446 -1.3088  0.9359
 4392SOL    HW317335   4.980   4.756   6.387  0.0515 -0.3100  0.2230
 4392SOL    MW417336   4.934   4.743   6.315  0.0501  0.0815  0.8814
 4393SOL     OW17337   0.469   0.082   0.160  0.1913 -0.0004  0.0962
 4393SOL    HW217338   0.546   0.134   0.141 -0.7084  1.8068  1.1691
 4393SOL    HW317339   0.439   0.113   0.245 -0.3943 -2.3179  0.8274
 4393SOL    MW417340   0.475   0.093   0.169 -0.7883  0.2547 -0.0634
 4394SOL     OW17341   4.433   5.872   5.651 -0.3569  0.0769  0.7999
 4394SOL    HW217342   4.455   5.963   5.673 -1.8045  0.8780 -0.8081
 4394SOL    HW317343   4.508   5.842   5.599  0.0362  0.4214  1.1607
 4394SOL    MW417344   4.446   5.880   5.647  0.0514  0.0329 -0.8127
 4395SOL     OW17345   3.739   3.075   1.788  0.4441  0.0703  0.2618
 4395SOL    HW217346   3.827   3.039   1.778  0.6857  0.7261 -0.0662
 4395SOL    HW317347   3.750   3.150   1.846  0.2669  0.7372 -0.5483
 4395SOL    MW417348   3.752   3.080   1.795  0.1151  0.1568  0.1134
 4396SOL     OW17349   2.556   1.302   2.395  0.1284  0.0559  0.4694
 4396SOL    HW217350   2.543   1.247   2.318  1.2690  0.5307 -0.0959
 4396SOL    HW317351   2.585   1.241   2.463  1.4475 -0.0817 -0.1681
 4396SOL    MW417352   2.558   1.287   2.394  0.2790  0.2060  0.1206
 4397SOL     OW17353   5.783   0.680   4.588 -0.1963 -0.3623 -0.0910
 4397SOL    HW217354   5.742   0.754   4.542  1.5690 -0.6187 -2.2667
 4397SOL    HW317355   5.709   0.631   4.625 -1.6071  0.8989 -1.1050
 4397SOL    MW417356   5.768   0.683   4.587  0.1143 -0.4245 -0.4146
 4398SOL     OW17357   4.063   5.848   2.664  0.1708 -0.1083  0.2974
 4398SOL    HW217358   4.000   5.919   2.681 -0.8635 -0.8735 -0.2075
 4398SOL    HW317359   4.010   5.768   2.664  0.6164 -0.5331 -2.8208
 4398SOL    MW417360   4.047   5.847   2.666 -0.1233 -0.5341 -0.1437
 4399SOL     OW17361   3.163   1.343   0.396  0.1632  0.6124 -0.2433
 4399SOL    HW217362   3.153   1.372   0.306  1.1830 -0.8059 -0.8524
 4399SOL    HW317363   3.096   1.275   0.406  0.4724  0.3226 -0.1379
 4399SOL    MW417364   3.153   1.338   0.386 -0.1925 -0.7755  0.3161
 4400SOL     OW17365   1.353   4.611   6.219  0.6202 -0.0741  0.2929
 4400SOL    HW217366   1.407   4.649   6.150 -0.3849 -0.3406 -0.6783
 4400SOL    HW317367   1.349   4.518   6.198 -1.0375  0.0901 -0.2749
 4400SOL    MW417368   1.359   4.604   6.207  0.0255  0.2348 -0.3649
 4401SOL     OW17369   0.656   2.090   1.945 -0.4571  0.2142  0.3039
 4401SOL    HW217370   0.717   2.061   2.013  0.9453  1.2444 -0.4566
 4401SOL    HW317371   0.660   2.186   1.949 -0.0075  0.3007 -1.4796
 4401SOL    MW417372   0.664   2.099   1.954 -0.8228 -0.3347  0.4064
 4402SOL     OW17373   2.566   2.098   0.527 -0.4310 -0.2097 -0.0928
 4402SOL    HW217374   2.618   2.117   0.605  1.3252  1.9196 -1.6334
 4402SOL    HW317375   2.489   2.052   0.559  0.0916  0.8059  2.8875
 4402SOL    MW417376   2.563   2.094   0.541 -0.4538 -0.2050 -0.5241
 4403SOL     OW17377   2.184   5.262   5.363 -0.6474  0.4076  0.6424
 4403SOL    HW217378   2.129   5.223   5.431 -0.8787  0.5811  0.5583
 4403SOL    HW317379   2.202   5.190   5.303  0.4722 -0.0160  1.4492
 4403SOL    MW417380   2.179   5.248   5.364  0.4746  0.3556 -0.0184
 4404SOL     OW17381   5.654   2.548   3.657  0.1189  0.8488  0.1819
 4404SOL    HW217382   5.632   2.489   3.729  1.9965  1.2720  1.1636
 4404SOL    HW317383   5.616   2.506   3.580 -1.1100 -0.1131  1.2624
 4404SOL    MW417384   5.646   2.535   3.656  0.5151  0.0814  0.3151
 4405SOL     OW17385   5.602   3.846   1.755 -0.1215 -0.4458 -0.3961
 4405SOL    HW217386   5.655   3.863   1.677  1.1929  2.3617  0.9848
 4405SOL    HW317387   5.665   3.815   1.820 -0.7811 -0.4003  0.2730
 4405SOL    MW417388   5.618   3.844   1.753  0.0894 -0.3568  0.3349
 4406SOL     OW17389   0.895   0.318   4.279 -0.5213  0.5217 -0.8636
 4406SOL    HW217390   0.824   0.313   4.215 -0.3889  1.4377 -1.0926
 4406SOL    HW317391   0.885   0.404   4.320 -0.1313  0.2590 -0.2069
 4406SOL    MW417392   0.885   0.329   4.276  0.2598  0.1300  0.1751
 4407SOL     OW17393   4.264   5.038   4.350  0.8448 -0.1064  0.2794
 4407SOL    HW217394   4.184   5.042   4.402 -0.9454 -0.4572 -2.2688
 4407SOL    HW317395   4.315   4.967   4.389 -1.0870 -1.3431  0.6670
 4407SOL    MW417396   4.260   5.029   4.362 -0.0070 -0.5045 -0.1758
 4408SOL     OW17397   0.180   4.591   6.194 -0.1819 -0.5553 -0.2641
 4408SOL    HW217398   0.086   4.583   6.175 -0.0518 -1.9981 -0.4274
 4408SOL    HW317399   0.203   4.508   6.236  0.6393  0.5114  1.5310
 4408SOL    MW417400   0.170   4.579   6.197 -0.2684 -0.1920  0.2174
 4409SOL     OW17401   3.125   2.789   0.773  0.0323  0.2107 -0.7923
 4409SOL    HW217402   3.101   2.701   0.744  0.7290 -0.1747 -0.2348
 4409SOL    HW317403   3.208   2.777   0.820 -0.6975  0.9126  0.7214
 4409SOL    MW417404   3.133   2.776   0.775  0.0267 -0.4908  0.2714
 4410SOL     OW17405   4.693   6.011   5.941 -0.8538 -0.0310  0.1082
 4410SOL    HW217406   4.733   5.925   5.950  2.8701  1.3991 -0.6692
 4410SOL    HW317407   4.637   6.020   6.018 -1.1327 -2.9665  0.3523
 4410SOL    MW417408   4.691   6.001   5.952 -0.6021 -0.1838 -0.1978
 4411SOL     OW17409   4.260   4.210   6.102  0.1184  0.5936  0.2511
 4411SOL    HW217410   4.221   4.130   6.066  1.6076 -0.8397  1.6719
 4411SOL    HW317411   4.190   4.249   6.154 -0.2042 -0.6055  0.7497
 4411SOL    MW417412   4.246   4.205   6.104  0.2609  0.2935 -0.3305
 4412SOL     OW17413   2.167   3.969   6.272 -0.0148 -0.3557  0.0655
 4412SOL    HW217414   2.252   3.978   6.229 -0.0629  0.2399  0.0855
 4412SOL    HW317415   2.120   3.905   6.220 -0.0990  0.4116 -0.8233
 4412SOL    MW417416   2.172   3.962   6.260 -0.1306 -0.2795  0.1825
 4413SOL     OW17417   5.596   3.950   6.161 -0.0358  0.5855  0.5668
 4413SOL    HW217418   5.656   3.986   6.096  0.2337  1.8970  1.5057
 4413SOL    HW317419   5.601   3.855   6.148 -0.2167  0.8104 -1.5025
 4413SOL    MW417420   5.605   3.942   6.151 -0.5260 -0.1760  0.3694
 4414SOL     OW17421   0.338   5.173   0.688 -0.0602 -0.0471  0.5528
 4414SOL    HW217422   0.361   5.247   0.632 -1.5468  0.1235  0.1449
 4414SOL    HW317423   0.310   5.104   0.628  0.5223 -0.6749  0.9765
 4414SOL    MW417424   0.338   5.173   0.673  0.0369  0.4048  0.4444
 4415SOL     OW17425   5.526   1.911   1.784  0.0805 -0.0357 -0.7406
 4415SOL    HW217426   5.556   1.982   1.728 -1.1807 -0.6211 -2.2529
 4415SOL    HW317427   5.606   1.875   1.822  0.8587  1.2684 -1.0702
 4415SOL    MW417428   5.540   1.915   1.781  0.3479 -0.5966  0.4773
 4416SOL     OW17429   5.603   6.213   6.058 -0.4412  0.0841 -0.3672
 4416SOL    HW217430   5.560   6.132   6.032  1.2775 -0.8277 -0.4548
 4416SOL    HW317431   5.670   6.186   6.120  0.3478  1.4039 -0.6158
 4416SOL    MW417432   5.606   6.199   6.063  0.5476 -0.2915  0.2167
 4417SOL     OW17433   5.177   0.460   0.448 -0.4130  0.4736 -0.6896
 4417SOL    HW217434   5.269   0.480   0.432  0.0970 -0.1240  1.2982
 4417SOL    HW317435   5.141   0.541   0.484 -0.3909  0.3912 -0.4776
 4417SOL    MW417436   5.184   0.473   0.451  0.5541  0.8213 -0.1976
 4418SOL     OW17437   2.552   0.958   4.512 -0.4391  0.0933 -0.3540
 4418SOL    HW217438   2.592   0.874   4.492 -4.1242 -2.0597  0.3479
 4418SOL    HW317439   2.579   0.978   4.601  0.4417 -0.3343 -0.5215
 4418SOL    MW417440   2.561   0.950   4.521 -0.2214 -0.0418  0.1988
 4419SOL     OW17441   1.829   2.945   1.983  0.0668 -0.2717  0.2824
 4419SOL    HW217442   1.886   3.020   1.964 -0.8548  1.2024  2.8544
 4419SOL    HW317443   1.755   2.983   2.030 -1.0929 -2.6637  0.5219
 4419SOL    MW417444   1.827   2.960   1.986 -0.3009 -0.3834 -0.3459
 4420SOL     OW17445   1.866   5.354   6.086  0.3338 -0.3371  0.1689
 4420SOL    HW217446   1.909   5.364   6.170  0.0236  0.1635  0.2741
 4420SOL    HW317447   1.801   5.285   6.100 -0.0011  0.0321  0.4598
 4420SOL    MW417448   1.863   5.346   6.099 -0.1522  0.1248 -0.2675
 4421SOL     OW17449   0.541   4.136   1.250 -0.0682 -0.2618  0.5215
 4421SOL    HW217450   0.618   4.137   1.193 -0.3481 -0.8831  0.1188
 4421SOL    HW317451   0.481   4.075   1.207 -1.8726  2.1022 -0.5851
 4421SOL    MW417452   0.543   4.128   1.236 -0.2528  0.1853 -0.6007
 4422SOL     OW17453   3.858   4.951   3.567  0.3018 -0.6193  0.3629
 4422SOL    HW217454   3.953   4.942   3.555  0.5637  2.4870 -1.0028
 4422SOL    HW317455   3.821   4.881   3.513  1.8038 -1.2069  0.0172
 4422SOL    MW417456   3.866   4.941   3.558  0.1946  0.2556 -0.2481
 4423SOL     OW17457   5.293   1.702   5.708  0.4504 -0.0912  0.3421
 4423SOL    HW217458   5.345   1.623   5.690  0.5621  0.1983 -0.6735
 4423SOL    HW317459   5.349   1.774   5.681 -0.3525  0.2436 -0.4966
 4423SOL    MW417460   5.307   1.701   5.702 -0.0058  0.3544 -0.2564
 4424SOL     OW17461   1.630   2.404   2.919 -0.0454 -0.3096  0.1894
 4424SOL    HW217462   1.725   2.417   2.922  0.0237  0.1781 -2.2497
 4424SOL    HW317463   1.596   2.484   2.880 -1.4022 -0.7823  0.3553
 4424SOL    MW417464   1.638   2.416   2.914  0.0435 -0.4639 -0.1599
 4425SOL     OW17465   0.987   1.966   6.170  0.2263  0.5501  0.4397
 4425SOL    HW217466   0.970   1.883   6.126  0.2669 -0.0401  1.5028
 4425SOL    HW317467   0.916   1.974   6.235  2.2885 -0.5877  3.0279
 4425SOL    MW417468   0.975   1.956   6.173  0.1893  0.1321  0.2998
 4426SOL     OW17469   3.762   3.733   4.594  0.4535 -0.3803 -0.8715
 4426SOL    HW217470   3.796   3.644   4.596  1.6377  0.0497 -0.7568
 4426SOL    HW317471   3.791   3.768   4.509  0.9942  0.2561 -0.4327
 4426SOL    MW417472   3.770   3.726   4.583 -0.8373  0.6227  0.1687
 4427SOL     OW17473   4.614   4.052   4.073 -0.6432  0.8626 -0.5157
 4427SOL    HW217474   4.648   4.065   4.162 -2.8299  0.5812  0.4258
 4427SOL    HW317475   4.673   3.987   4.035 -0.2631  0.1804  1.1270
 4427SOL    MW417476   4.626   4.045   4.080 -0.3108  0.2743 -0.1229
 4428SOL     OW17477   0.827   5.247   6.225  0.3520 -0.2798 -0.1349
 4428SOL    HW217478   0.861   5.332   6.253 -0.8840 -0.1894  1.1931
 4428SOL    HW317479   0.872   5.184   6.280 -0.5640 -0.2659  0.6546
 4428SOL    MW417480   0.838   5.250   6.236  0.1884  0.2458 -0.3990
 4429SOL     OW17481   6.074   2.880   3.576 -0.3535 -0.1198 -0.2650
 4429SOL    HW217482   6.102   2.880   3.668 -0.5676  0.3566 -0.1974
 4429SOL    HW317483   6.019   2.802   3.568  1.2546 -1.2746 -0.4910
 4429SOL    MW417484   6.070   2.870   3.587 -0.1961 -0.0368  0.3421
 4430SOL     OW17485   4.683   6.210   4.695  0.5505  0.7518 -0.1150
 4430SOL    HW217486   4.748   6.187   4.629  1.3734 -0.7457  1.1330
 4430SOL    HW317487   4.683   6.306   4.697  0.4527  0.8429 -2.2788
 4430SOL    MW417488   4.692   6.220   4.687  0.0995 -0.5680 -0.5212
 4431SOL     OW17489   4.043   4.875   6.197  0.0303 -0.1211 -0.0813
 4431SOL    HW217490   3.990   4.864   6.276  0.9442 -2.2114  0.3099
 4431SOL    HW317491   4.109   4.806   6.203  0.7400  0.3166 -2.1773
 4431SOL    MW417492   4.044   4.864   6.208 -0.5228 -0.1015  0.2103
 4432SOL     OW17493   5.233   3.521   1.777 -0.5391  0.0292  0.1130
 4432SOL    HW217494   5.174   3.476   1.837 -1.2664  0.1350 -0.5041
 4432SOL    HW317495   5.256   3.602   1.823 -0.3202 -0.3329  0.6502
 4432SOL    MW417496   5.228   3.526   1.791  0.2168 -0.1257 -0.9704
 4433SOL     OW17497   6.358   2.749   3.079 -0.0571 -0.8028 -0.1690
 4433SOL    HW217498   6.340   2.839   3.055 -0.5641 -0.7388  0.4139
 4433SOL    HW317499   6.347   2.747   3.174 -0.0792 -1.4792 -0.1782
 4433SOL    MW417500   6.354   2.760   3.088 -0.2672  0.2415  0.8179
 4434SOL     OW17501   3.242   1.167   5.985  0.4038 -0.4120 -0.6674
 4434SOL    HW217502   3.254   1.217   6.066  0.7356  0.2712 -1.1313
 4434SOL    HW317503   3.318   1.107   5.983  0.1115 -0.8087 -0.2135
 4434SOL    MW417504   3.254   1.165   5.996 -0.3829 -0.1254  0.0482
 4435SOL     OW17505   3.131   5.657   3.030 -0.0659 -0.3792  0.0160
 4435SOL    HW217506   3.182   5.620   3.102 -0.4446 -2.2301 -0.6178
 4435SOL    HW317507   3.043   5.621   3.043 -0.8191  1.3607  0.0856
 4435SOL    MW417508   3.126   5.648   3.041 -0.4295  0.5117  0.1041
 4436SOL     OW17509   5.251   5.818   1.725 -0.3581  0.2940  0.5965
 4436SOL    HW217510   5.258   5.726   1.751  0.3880  0.4267  0.9063
 4436SOL    HW317511   5.302   5.865   1.792 -1.5982  1.0421  1.0353
 4436SOL    MW417512   5.259   5.812   1.738  0.3765  0.0136 -0.1417
 4437SOL     OW17513   2.839   3.573   1.514  0.4371  0.0805 -0.4479
 4437SOL    HW217514   2.889   3.494   1.492  2.4076  0.4403  2.2283
 4437SOL    HW317515   2.784   3.547   1.588  1.9493  1.4086  1.2161
 4437SOL    MW417516   2.838   3.559   1.521 -0.3613 -0.2297 -0.1851
 4438SOL     OW17517   4.859   4.295   6.084 -0.3362  1.0344  0.1488
 4438SOL    HW217518   4.898   4.375   6.119  0.5791  0.3694  0.6829
 4438SOL    HW317519   4.920   4.267   6.016 -0.3420  0.4645  0.3737
 4438SOL    MW417520   4.872   4.301   6.079  0.1297  0.3862 -0.6323
 4439SOL     OW17521   2.737   2.169   2.973 -0.1366 -0.1410  0.3845
 4439SOL    HW217522   2.727   2.074   2.983 -0.7659 -0.0579  0.5886
 4439SOL    HW317523   2.781   2.197   3.053 -0.5335 -0.1762  0.6185
 4439SOL    MW417524   2.741   2.160   2.984 -0.4145  0.6303  0.5441
 4440SOL     OW17525   1.757   4.574   5.072 -0.4140  0.0715  0.7540
 4440SOL    HW217526   1.748   4.665   5.100  0.6993  0.3377  0.2876
 4440SOL    HW317527   1.744   4.577   4.977  3.1389  0.3563  0.1464
 4440SOL    MW417528   1.754   4.587   5.063  0.7364  0.0971  0.0522
 4441SOL     OW17529   5.052   2.055   0.465  0.6191  0.1872 -0.1932
 4441SOL    HW217530   4.962   2.037   0.437  0.5406 -0.4227  0.4231
 4441SOL    HW317531   5.053   2.149   0.481  0.0116  0.1599  0.0456
 4441SOL    MW417532   5.040   2.065   0.463  0.0763  0.8243  0.0643
 4442SOL     OW17533   4.615   0.964   2.671 -0.3477 -0.6929  0.2373
 4442SOL    HW217534   4.604   0.917   2.588 -0.0893 -0.1594 -0.1003
 4442SOL    HW317535   4.707   0.950   2.694 -0.1547  0.0234 -0.0932
 4442SOL    MW417536   4.625   0.956   2.663 -0.2320  0.5345  0.1976
 4443SOL     OW17537   0.960   0.665   2.675  0.2475 -0.0705 -0.5547
 4443SOL    HW217538   0.899   0.624   2.614  0.0981  0.3750 -0.7105
 4443SOL    HW317539   1.011   0.593   2.711 -0.0310 -0.3912 -0.8036
 4443SOL    MW417540   0.959   0.650   2.672 -0.3721 -0.4862 -0.4168
 4444SOL     OW17541   3.198   4.560   3.044  0.2552  0.1629 -0.0040
 4444SOL    HW217542   3.215   4.633   2.985  0.3203 -0.8717 -1.3048
 4444SOL    HW317543   3.271   4.562   3.106  1.0892  0.2912 -0.9618
 4444SOL    MW417544   3.210   4.570   3.044 -0.5472  0.5648 -0.0153
 4445SOL     OW17545   2.494   5.120   2.943  0.1022 -0.3393  0.6741
 4445SOL    HW217546   2.445   5.057   2.890  2.0339 -1.0787 -0.3212
 4445SOL    HW317547   2.584   5.087   2.942  1.5426  3.1147 -1.0916
 4445SOL    MW417548   2.500   5.107   2.936  0.3631  0.4639  0.2817
 4446SOL     OW17549   2.884   2.908   3.034 -0.4993 -0.4489 -0.5474
 4446SOL    HW217550   2.942   2.840   3.068 -0.1530 -0.3955 -1.0235
 4446SOL    HW317551   2.943   2.973   2.997 -0.8061 -1.8788 -4.0128
 4446SOL    MW417552   2.900   2.907   3.033  0.1439  0.1606  0.0807
 4447SOL     OW17553   1.826   4.059   6.362  0.0051  1.1079 -0.1244
 4447SOL    HW217554   1.836   3.996   6.433  0.9340  0.0449 -1.1590
 4447SOL    HW317555   1.916   4.082   6.338 -0.2826  1.1963 -1.1648
 4447SOL    MW417556   1.839   4.054   6.368  0.1620  0.1525 -0.6949
 4448SOL     OW17557   0.593   1.986   5.965  0.2400  0.0738  0.5053
 4448SOL    HW217558   0.624   2.077   5.961 -0.8471  0.4254 -0.4017
 4448SOL    HW317559   0.541   1.982   6.045 -0.6082  0.5694 -0.0018
 4448SOL    MW417560   0.590   1.998   5.975 -0.2241  0.2790  0.0800
 4449SOL     OW17561   6.016   5.767   4.890  0.8941  0.3862 -0.0567
 4449SOL    HW217562   5.969   5.820   4.955 -2.6269 -0.1072 -1.9223
 4449SOL    HW317563   6.011   5.817   4.809  2.2050 -0.4866 -0.7188
 4449SOL    MW417564   6.009   5.780   4.888 -0.1764  0.0443  0.0901
 4450SOL     OW17565   4.203   3.202   3.542  0.0970  0.7807  0.0352
 4450SOL    HW217566   4.124   3.166   3.580 -0.4123  1.7772 -0.0393
 4450SOL    HW317567   4.200   3.175   3.450  1.1701 -1.3577  0.5667
 4450SOL    MW417568   4.192   3.194   3.535 -0.3380 -0.3942 -0.0037
 4451SOL     OW17569   3.181   3.887   4.808  0.5755 -0.8886  0.2678
 4451SOL    HW217570   3.225   3.840   4.878  1.7422 -1.0342 -0.5299
 4451SOL    HW317571   3.154   3.819   4.745 -1.6183 -0.9038  1.1285
 4451SOL    MW417572   3.183   3.872   4.809  0.3190 -0.0408 -0.3631
 4452SOL     OW17573   4.268   0.084   4.123 -0.2713 -0.4224  0.2212
 4452SOL    HW217574   4.268  -0.010   4.106 -1.6773 -0.6536  1.3842
 4452SOL    HW317575   4.223   0.122   4.048 -0.9818 -0.8305  0.4326
 4452SOL    MW417576   4.262   0.076   4.111  0.8150  0.2838  0.4508
 4453SOL     OW17577   6.316   5.880   4.875  0.4786 -0.3239  0.1771
 4453SOL    HW217578   6.342   5.789   4.859 -0.0910 -0.5566  0.5491
 4453SOL    HW317579   6.227   5.874   4.907  1.3345  0.1530  2.8997
 4453SOL    MW417580   6.308   5.867   4.877 -0.3355 -0.0228 -0.1123
 4454SOL     OW17581   4.922   2.714   1.993  0.3316 -0.0165 -1.2522
 4454SOL    HW217582   4.879   2.641   2.037 -1.3537  1.6298 -0.0330
 4454SOL    HW317583   5.003   2.727   2.042 -0.2376  0.0805 -0.3184
 4454SOL    MW417584   4.927   2.706   2.005  0.0854  0.0837  0.5291
 4455SOL     OW17585   2.240   5.262   3.327 -0.2474  0.2953 -0.0218
 4455SOL    HW217586   2.273   5.181   3.365  0.3110  0.5003 -0.0678
 4455SOL    HW317587   2.167   5.234   3.271  0.4162 -0.2654 -0.6301
 4455SOL    MW417588   2.234   5.248   3.325 -0.1897 -0.0561 -0.1759
 4456SOL     OW17589   1.226   0.899   3.935  0.5817 -0.0869  0.2856
 4456SOL    HW217590   1.160   0.845   3.890  0.8837 -0.5551  0.4062
 4456SOL    HW317591   1.174   0.966   3.981  0.2665  0.4707 -0.8244
 4456SOL    MW417592   1.210   0.901   3.935  0.0365  0.2931 -0.0800
 4457SOL     OW17593   3.923   2.941   4.799 -0.4129 -0.1769  0.3419
 4457SOL    HW217594   3.993   2.919   4.737  3.2575 -0.6408  4.2095
 4457SOL    HW317595   3.940   3.032   4.823 -1.7393 -0.0187  0.7453
 4457SOL    MW417596   3.935   2.950   4.794  0.0349  0.1320  0.0906
 4458SOL     OW17597   2.991   5.155   6.376  0.5068 -0.5416 -0.6053
 4458SOL    HW217598   3.040   5.185   6.299 -1.1955  6.2660  0.3246
 4458SOL    HW317599   2.904   5.133   6.342  1.0287 -2.1843 -0.9909
 4458SOL    MW417600   2.986   5.156   6.361 -0.1449  0.3430  0.3903
 4459SOL     OW17601   2.157   5.628   0.785  0.1434  1.0273  0.1946
 4459SOL    HW217602   2.241   5.619   0.830 -0.5710 -1.6824  1.1836
 4459SOL    HW317603   2.177   5.680   0.707  2.7076  0.6108  0.4793
 4459SOL    MW417604   2.171   5.634   0.780 -0.3710 -0.1897  0.2178
 4460SOL     OW17605   5.981   4.279   0.871  0.2522 -0.8710  0.0734
 4460SOL    HW217606   6.014   4.205   0.820  0.8607  1.5426 -3.3127
 4460SOL    HW317607   6.058   4.319   0.910  0.2249 -0.6079 -0.1389
 4460SOL    MW417608   5.995   4.274   0.870  0.1469  0.5295  0.0814
 4461SOL     OW17609   6.237   6.295   1.765 -0.0343  0.2162  0.2384
 4461SOL    HW217610   6.296   6.339   1.704  0.1533  1.2773  1.1426
 4461SOL    HW317611   6.153   6.339   1.753 -0.9350 -1.8645 -1.6639
 4461SOL    MW417612   6.234   6.307   1.756  0.0396  0.0238 -0.3115
 4462SOL     OW17613   0.125   0.012   4.066 -0.0155 -0.3919 -0.0614
 4462SOL    HW217614   0.102  -0.054   4.131 -1.0784  0.1416  0.1171
 4462SOL    HW317615   0.170   0.080   4.116  1.3061 -1.0657 -0.2843
 4462SOL    MW417616   0.128   0.012   4.081 -0.3928  0.0288  0.3827
 4463SOL     OW17617   2.096   2.373   2.872  0.1423  0.3114  0.1303
 4463SOL    HW217618   2.171   2.408   2.825  1.8243 -1.7827  1.0810
 4463SOL    HW317619   2.131   2.345   2.957 -1.5464 -1.3096  0.3839
 4463SOL    MW417620   2.110   2.374   2.877 -0.2919 -0.0557 -0.2951
 4464SOL     OW17621   2.079   4.142   2.233  0.1994 -0.1032  0.1647
 4464SOL    HW217622   2.153   4.081   2.225  0.7929  0.4107  1.3967
 4464SOL    HW317623   2.120   4.226   2.252 -0.6989  0.2024  0.7973
 4464SOL    MW417624   2.094   4.145   2.234  0.2740 -0.0895  0.1916
 4465SOL     OW17625   2.730   5.208   5.001  0.2869  0.2005  0.4456
 4465SOL    HW217626   2.694   5.150   5.069  0.3252  0.2988  0.5486
 4465SOL    HW317627   2.664   5.276   4.991 -0.0995 -0.2541 -0.1901
 4465SOL    MW417628   2.717   5.209   5.009  0.2281  0.5039 -0.1265
 4466SOL     OW17629   0.575   5.155   3.543  0.2876  0.6785  0.8312
 4466SOL    HW217630   0.549   5.063   3.553 -1.6342  1.2696  1.8431
 4466SOL    HW317631   0.570   5.171   3.449 -0.7762  0.1021  0.7743
 4466SOL    MW417632   0.571   5.145   3.532 -0.2616  0.4468 -0.0049
 4467SOL     OW17633   2.445   6.328   0.569  0.8241 -0.3755  0.7785
 4467SOL    HW217634   2.446   6.413   0.525  1.4764 -0.8117 -0.0852
 4467SOL    HW317635   2.431   6.349   0.661 -0.1097  0.5958  0.4406
 4467SOL    MW417636   2.443   6.342   0.575 -0.2560  0.4444 -0.0522
 4468SOL     OW17637   5.596   3.489   0.955  0.2058  0.6687  0.6729
 4468SOL    HW217638   5.676   3.455   0.996  0.3198  1.5733  1.2146
 4468SOL    HW317639   5.525   3.450   1.006  0.2853 -0.3110  0.0541
 4468SOL    MW417640   5.597   3.479   0.967  0.3490  0.1531  1.1995
 4469SOL     OW17641   6.237   0.195   0.443 -0.7336 -0.2115  0.4199
 4469SOL    HW217642   6.254   0.248   0.365 -2.3954  0.5178  0.5150
 4469SOL    HW317643   6.232   0.105   0.411  0.9514 -0.2197  0.0806
 4469SOL    MW417644   6.239   0.190   0.429  0.4743 -0.6155 -0.3287
 4470SOL     OW17645   2.814   3.375   6.190 -0.0245 -0.4921  0.5776
 4470SOL    HW217646   2.725   3.393   6.219 -0.3155 -1.7218  0.5110
 4470SOL    HW317647   2.842   3.456   6.148 -1.3389 -0.2879  0.0351
 4470SOL    MW417648   2.806   3.388   6.188  0.0976 -0.3299  0.3187
 4471SOL     OW17649   3.897   2.159   1.507 -0.0575 -0.0031 -0.1913
 4471SOL    HW217650   3.960   2.231   1.515  0.7018 -0.4532 -1.6565
 4471SOL    HW317651   3.927   2.094   1.570  1.5461 -0.5917 -1.4935
 4471SOL    MW417652   3.909   2.160   1.516 -0.1318 -0.1283  0.5581
 4472SOL     OW17653   5.623   3.958   4.209 -0.3808 -0.0334 -0.5098
 4472SOL    HW217654   5.621   4.052   4.227 -0.3442 -0.1960  0.3700
 4472SOL    HW317655   5.689   3.923   4.268 -0.8480 -0.7051 -0.3718
 4472SOL    MW417656   5.631   3.966   4.219 -0.0866 -0.0505 -0.0399
 4473SOL     OW17657   3.877   2.816   5.038 -0.2186 -0.0496  0.2981
 4473SOL    HW217658   3.909   2.847   4.954  0.0818 -1.6510 -0.2006
 4473SOL    HW317659   3.948   2.763   5.073 -0.2360  0.7947  1.7011
 4473SOL    MW417660   3.891   2.813   5.032 -0.3043  0.4067 -0.0526
 4474SOL     OW17661   3.655   2.648   1.011  0.3890  0.2079 -0.7189
 4474SOL    HW217662   3.654   2.591   1.087 -0.5846  1.0063 -0.1130
 4474SOL    HW317663   3.691   2.731   1.044  1.1862  0.1693 -1.4398
 4474SOL    MW417664   3.660   2.652   1.025  0.4244 -0.6798 -0.8313
 4475SOL     OW17665   1.872   6.409   3.402 -0.3012  0.1690 -0.4310
 4475SOL    HW217666   1.829   6.493   3.421 -0.5322 -0.0358 -0.0403
 4475SOL    HW317667   1.845   6.352   3.474  0.3148 -0.0753 -0.3929
 4475SOL    MW417668   1.862   6.413   3.414 -0.1098  0.2837 -0.9625
 4476SOL     OW17669   4.051   0.903   2.354  0.1788 -0.2737  0.8924
 4476SOL    HW217670   4.010   0.931   2.273  1.5398 -1.1089 -0.1355
 4476SOL    HW317671   3.978   0.881   2.412 -0.8503  1.8402  0.4872
 4476SOL    MW417672   4.036   0.904   2.351 -0.1412  0.0407 -0.0574
 4477SOL     OW17673   3.671   1.519   4.377 -0.2376 -0.1118  0.1105
 4477SOL    HW217674   3.702   1.452   4.316  0.9252 -0.5570  1.1442
 4477SOL    HW317675   3.658   1.472   4.459 -0.5902  0.7131  0.5383
 4477SOL    MW417676   3.673   1.504   4.379 -0.2086  0.0614  0.4120
 4478SOL     OW17677   0.841   0.035   1.285 -0.3072 -0.5762 -0.0629
 4478SOL    HW217678   0.876   0.100   1.225 -1.8322  0.2086 -0.1659
 4478SOL    HW317679   0.834   0.081   1.369 -2.3810 -0.2235 -0.3790
 4478SOL    MW417680   0.844   0.050   1.288 -0.1563  0.2338 -0.0065
 4479SOL     OW17681   1.205   6.163   3.102 -0.2791  0.0970  0.0811
 4479SOL    HW217682   1.128   6.220   3.103 -0.5158 -0.2250  0.5792
 4479SOL    HW317683   1.175   6.082   3.144  0.0276 -0.4265 -0.6990
 4479SOL    MW417684   1.191   6.160   3.108 -0.9978 -0.3394 -0.5816
 4480SOL     OW17685   0.385   0.420   2.107 -0.3604 -0.4054 -0.2452
 4480SOL    HW217686   0.306   0.368   2.094 -0.8779  0.2085  0.3800
 4480SOL    HW317687   0.355   0.501   2.148  0.4889  0.2005 -0.7728
 4480SOL    MW417688   0.371   0.424   2.111  0.1941  0.1931  0.0008
 4481SOL     OW17689   1.503   1.636   1.974 -0.1282  0.1351 -0.2242
 4481SOL    HW217690   1.494   1.699   2.046  0.0689  0.7838 -0.7587
 4481SOL    HW317691   1.459   1.678   1.900 -1.6158 -1.1342 -0.1330
 4481SOL    MW417692   1.496   1.650   1.973 -0.2960  0.7469 -0.4549
 4482SOL     OW17693   2.020   5.740   3.856 -0.4466  0.1429  0.1053
 4482SOL    HW217694   1.978   5.663   3.816 -2.0570  1.2658 -0.4786
 4482SOL    HW317695   1.987   5.814   3.804  1.4029  1.1981  0.3755
 4482SOL    MW417696   2.010   5.739   3.844  0.5077  0.1194  0.5554
 4483SOL     OW17697   1.702   1.115   4.015  0.0727  0.3763 -0.2075
 4483SOL    HW217698   1.759   1.192   4.011 -0.7660  1.1156  1.1995
 4483SOL    HW317699   1.762   1.041   4.022  1.0850  1.3306  5.0042
 4483SOL    MW417700   1.718   1.116   4.015 -0.4119  0.0069 -0.0811
 4484SOL     OW17701   1.660   2.041   0.699 -0.5392 -0.2186 -0.2710
 4484SOL    HW217702   1.674   2.073   0.788 -1.1694  1.6248 -0.7840
 4484SOL    HW317703   1.743   1.998   0.676 -0.4510 -0.9335  1.2638
 4484SOL    MW417704   1.673   2.039   0.708  0.0244  0.4172 -0.2870
 4485SOL     OW17705   4.763   2.298   1.089  0.4555  0.1021  0.3241
 4485SOL    HW217706   4.730   2.265   1.172 -2.4815 -0.1323 -0.8285
 4485SOL    HW317707   4.835   2.356   1.113 -0.5971  0.4244  3.0593
 4485SOL    MW417708   4.768   2.301   1.103 -0.1242 -0.1880  0.4203
 4486SOL     OW17709   2.050   1.518   6.042  0.2786 -0.0978 -0.3042
 4486SOL    HW217710   2.071   1.504   5.950  4.2168  0.8641  0.2296
 4486SOL    HW317711   2.016   1.608   6.046  2.8286  0.9856 -0.6625
 4486SOL    MW417712   2.049   1.528   6.031 -0.5321  0.3584  0.4005
 4487SOL     OW17713   5.696   3.610   4.600  0.1604  0.4229  0.2568
 4487SOL    HW217714   5.679   3.659   4.681  0.5897  0.5925  0.2461
 4487SOL    HW317715   5.791   3.595   4.600  0.1200  0.1541 -0.0630
 4487SOL    MW417716   5.706   3.615   4.611 -0.5521  0.2114  0.6947
 4488SOL     OW17717   2.199   2.977   5.659  0.5278 -0.1154 -0.4300
 4488SOL    HW217718   2.228   2.911   5.721 -0.7023  1.3244  1.7939
 4488SOL    HW317719   2.165   3.048   5.713 -1.0515  1.0446 -2.7694
 4488SOL    MW417720   2.199   2.978   5.674 -0.1307 -0.0729 -0.5750
 4489SOL     OW17721   6.387   4.119   5.454  0.9429  0.2486 -0.1799
 4489SOL    HW217722   6.407   4.174   5.529  0.8439 -1.0757  0.8659
 4489SOL    HW317723   6.436   4.038   5.469  1.3080  0.1251 -1.8034
 4489SOL    MW417724   6.396   4.115   5.466 -0.2954  0.3421 -0.1058
 4490SOL     OW17725   0.713   2.376   1.726 -0.4547 -0.0154  0.2795
 4490SOL    HW217726   0.773   2.302   1.733  1.6220  1.4757 -0.7334
 4490SOL    HW317727   0.641   2.343   1.672  0.1609 -1.4468  0.2835
 4490SOL    MW417728   0.711   2.362   1.719 -0.2415 -0.0276 -0.2836
 4491SOL     OW17729   5.914   5.016   4.692  0.2009 -0.7135 -0.5621
 4491SOL    HW217730   5.996   5.018   4.742 -0.2112  0.2498  0.1020
 4491SOL    HW317731   5.936   4.967   4.612  1.0655 -1.6605  0.2192
 4491SOL    MW417732   5.928   5.010   4.688  0.1482  0.2791 -0.0497
 4492SOL     OW17733   5.579   4.504   2.648  0.4394 -0.0175 -0.5540
 4492SOL    HW217734   5.499   4.545   2.682 -0.5946 -1.1733 -1.4469
 4492SOL    HW317735   5.647   4.527   2.711 -1.3093 -1.9580  2.2731
 4492SOL    MW417736   5.577   4.512   2.660  0.4750 -0.7248 -0.0124
 4493SOL     OW17737   0.038   0.341   4.561  0.6515 -0.0098 -0.2944
 4493SOL    HW217738   0.070   0.298   4.483  1.0913 -0.0985 -0.0652
 4493SOL    HW317739  -0.052   0.308   4.572  0.6046 -0.0296 -0.7312
 4493SOL    MW417740   0.030   0.331   4.552  0.4302 -0.6909 -0.0017
 4494SOL     OW17741   4.718   5.278   2.367  0.1604  0.3179  0.2001
 4494SOL    HW217742   4.797   5.250   2.320  0.8652  0.6711  1.1429
 4494SOL    HW317743   4.670   5.331   2.303  0.7399  0.2017 -0.3458
 4494SOL    MW417744   4.722   5.281   2.352  0.3121 -0.0375 -0.8667
 4495SOL     OW17745   5.191   5.957   0.658 -0.0988  0.5320 -0.1089
 4495SOL    HW217746   5.238   5.877   0.633  1.6222  1.3560  0.3768
 4495SOL    HW317747   5.258   6.013   0.696 -1.2613  2.2663 -0.5310
 4495SOL    MW417748   5.206   5.954   0.660 -0.1598  0.1998 -0.3832
 4496SOL     OW17749   3.353   2.716   6.022 -0.1002  0.5591 -0.0043
 4496SOL    HW217750   3.352   2.756   6.109  1.2465  0.0663  0.2752
 4496SOL    HW317751   3.393   2.782   5.965 -0.4475  0.6617 -0.1313
 4496SOL    MW417752   3.358   2.730   6.026  0.3074 -0.2075 -0.5563
 4497SOL     OW17753   6.294   5.126   5.068  0.2343  0.0384  0.1307
 4497SOL    HW217754   6.262   5.053   5.014  0.1724 -0.1546  0.4303
 4497SOL    HW317755   6.295   5.201   5.008  2.0567 -0.5962 -0.6920
 4497SOL    MW417756   6.290   5.126   5.053  0.7406 -0.4564  0.3638
 4498SOL     OW17757   4.473   6.127   5.005  0.0351 -0.2253  0.1171
 4498SOL    HW217758   4.447   6.219   4.998  1.4586  0.2495  0.6960
 4498SOL    HW317759   4.400   6.085   5.049  0.0354  0.9662  1.3165
 4498SOL    MW417760   4.460   6.134   5.010 -0.7699 -0.0104  0.1281
 4499SOL     OW17761   2.543   0.960   4.162 -0.0775  0.6763  0.0917
 4499SOL    HW217762   2.568   1.043   4.123  3.2514  0.9651  2.4700
 4499SOL    HW317763   2.504   0.984   4.246 -3.0630 -0.1298 -0.9131
 4499SOL    MW417764   2.541   0.974   4.168  0.1323  0.3618 -0.1559
 4500SOL     OW17765   5.988   4.410   2.324  0.2727  0.0782 -0.0975
 4500SOL    HW217766   5.917   4.362   2.282 -0.3541 -0.1310  1.1666
 4500SOL    HW317767   6.042   4.342   2.365 -0.3502  0.4030  1.2936
 4500SOL    MW417768   5.986   4.394   2.323  1.1379 -0.4918  0.2311
 4501SOL     OW17769   5.008   5.569   5.955 -0.4902  0.0657 -0.0319
 4501SOL    HW217770   4.986   5.489   5.906  2.0759 -0.3141 -0.7138
 4501SOL    HW317771   5.044   5.537   6.038 -1.1030  0.6014  0.4515
 4501SOL    MW417772   5.010   5.554   5.959  0.8049 -0.0228  0.3940
 4502SOL     OW17773   2.614   4.825   3.480  0.3182  0.3555 -0.4600
 4502SOL    HW217774   2.666   4.868   3.412  1.9625 -0.2322  0.3580
 4502SOL    HW317775   2.585   4.897   3.537  1.1620  0.6211 -0.3423
 4502SOL    MW417776   2.617   4.840   3.479 -0.8798 -0.2765  0.0398
 4503SOL     OW17777   6.352   0.060   4.307 -0.1888  0.0680  0.0034
 4503SOL    HW217778   6.343  -0.017   4.364 -3.8104  0.6025  0.3726
 4503SOL    HW317779   6.313   0.033   4.224 -1.0489  1.3160 -0.0239
 4503SOL    MW417780   6.346   0.046   4.303 -0.9310  0.0453  0.3692
 4504SOL     OW17781   1.488   4.438   5.565 -0.0888 -0.0430 -0.1299
 4504SOL    HW217782   1.568   4.390   5.544  0.3130  0.3275  0.5216
 4504SOL    HW317783   1.508   4.486   5.645 -1.5891 -1.4134  1.1284
 4504SOL    MW417784   1.501   4.438   5.573  0.3310 -0.0432  0.3460
 4505SOL     OW17785   0.418   0.092   5.064 -0.1151  0.1666 -0.4824
 4505SOL    HW217786   0.378   0.010   5.035  0.1191  0.1975 -0.8993
 4505SOL    HW317787   0.374   0.113   5.147 -1.5581  0.6434 -1.3395
 4505SOL    MW417788   0.407   0.084   5.071 -0.6678  0.3984 -0.5614
 4506SOL     OW17789   6.285   1.722   4.993 -0.3639 -0.0544  0.4997
 4506SOL    HW217790   6.283   1.753   4.903 -0.0143 -1.2821  0.0535
 4506SOL    HW317791   6.216   1.771   5.037 -1.7381 -0.7265 -0.8506
 4506SOL    MW417792   6.276   1.733   4.987  0.3226 -0.4528  0.3545
 4507SOL     OW17793   3.006   0.271   2.466  0.4448  0.5842  0.6762
 4507SOL    HW217794   3.056   0.341   2.506 -1.2695  1.2778  1.7336
 4507SOL    HW317795   2.917   0.307   2.457 -0.0273 -0.7895 -0.5230
 4507SOL    MW417796   3.001   0.285   2.470  0.0426  0.0738  0.6308
 4508SOL     OW17797   6.149   3.447   2.818  0.1587 -0.6895  0.1851
 4508SOL    HW217798   6.160   3.359   2.853  0.4446 -0.3004  1.1187
 4508SOL    HW317799   6.118   3.434   2.729 -2.4706 -1.7313  1.1607
 4508SOL    MW417800   6.147   3.434   2.811 -0.2659 -0.3043 -0.8711
 4509SOL     OW17801   1.624   3.820   0.560 -0.0165 -0.2095 -0.3485
 4509SOL    HW217802   1.657   3.793   0.474  0.8045 -0.6279  0.0878
 4509SOL    HW317803   1.532   3.842   0.544 -0.0775 -0.9989 -1.1870
 4509SOL    MW417804   1.616   3.820   0.546  0.5620  0.1816  0.4625
 4510SOL     OW17805   1.139   0.652   0.656 -0.0859  0.2642  0.3499
 4510SOL    HW217806   1.093   0.574   0.687 -0.8605  0.9519  1.0044
 4510SOL    HW317807   1.165   0.698   0.735  0.0979  0.8170 -0.0207
 4510SOL    MW417808   1.136   0.648   0.670  0.6329 -0.3550 -0.2323
 4511SOL     OW17809   1.186   4.867   1.975  0.2097 -0.2245  0.0213
 4511SOL    HW217810   1.230   4.812   1.910  0.3083  0.1179 -0.2026
 4511SOL    HW317811   1.104   4.893   1.933  0.2065 -0.1204  0.0908
 4511SOL    MW417812   1.181   4.863   1.961 -0.6297  0.1192 -0.1705
 4512SOL     OW17813   5.202   3.214   1.024  0.4013  0.2678 -0.3355
 4512SOL    HW217814   5.151   3.167   1.090 -0.1229  1.1728 -0.0869
 4512SOL    HW317815   5.285   3.234   1.067  0.8000 -0.7872 -0.5842
 4512SOL    MW417816   5.206   3.210   1.038 -0.2496  0.0260  0.6493
 4513SOL     OW17817   4.230   4.620   6.223 -0.2658  0.2918 -0.2083
 4513SOL    HW217818   4.171   4.545   6.224 -1.3323  1.1118 -0.0821
 4513SOL    HW317819   4.241   4.645   6.315 -1.3042  1.3288 -0.3430
 4513SOL    MW417820   4.224   4.613   6.235  0.2263  0.1810 -0.0205
 4514SOL     OW17821   0.172   3.676   2.986 -0.2903 -0.1548  0.2482
 4514SOL    HW217822   0.142   3.650   3.073  0.1083  1.9937  1.0975
 4514SOL    HW317823   0.093   3.674   2.932 -0.8669 -0.0068  1.0620
 4514SOL    MW417824   0.157   3.672   2.990  0.1912 -0.0823  0.0315
 4515SOL     OW17825   5.563   3.853   2.931 -0.4133  0.9075  0.1302
 4515SOL    HW217826   5.658   3.862   2.939 -0.4907  0.9453  1.1443
 4515SOL    HW317827   5.551   3.761   2.906 -0.0953  0.9960 -0.3622
 4515SOL    MW417828   5.574   3.842   2.929  0.2225 -0.0869  0.3307
 4516SOL     OW17829   1.112   4.241   1.714 -0.1618 -0.6063 -0.0924
 4516SOL    HW217830   1.108   4.326   1.757  0.6289 -0.6087 -0.0048
 4516SOL    HW317831   1.095   4.177   1.784  0.5290 -0.5801  0.1074
 4516SOL    MW417832   1.109   4.243   1.729 -0.1875 -0.3716  0.0031
 4517SOL     OW17833   3.846   1.928   3.206  0.2048 -0.5239  0.1206
 4517SOL    HW217834   3.936   1.952   3.185 -0.2547  0.6760 -0.5907
 4517SOL    HW317835   3.808   1.905   3.121 -0.6837  0.8676  0.1081
 4517SOL    MW417836   3.853   1.928   3.192 -0.1669  0.3313 -0.5052
 4518SOL     OW17837   1.796   0.021   6.346 -0.3673  0.0609  0.2408
 4518SOL    HW217838   1.806   0.022   6.251 -0.1457  0.5491  0.2683
 4518SOL    HW317839   1.811   0.112   6.373 -4.2114  0.8253  0.3457
 4518SOL    MW417840   1.799   0.033   6.337  0.4715 -0.1824 -0.1126
 4519SOL     OW17841   3.541   1.372   1.249  0.2649  0.2334 -0.1291
 4519SOL    HW217842   3.547   1.310   1.321 -0.7871 -0.9330 -1.0166
 4519SOL    HW317843   3.575   1.324   1.173  1.3421  1.4346 -0.4451
 4519SOL    MW417844   3.547   1.358   1.248 -0.3851 -0.5081 -0.9609
 4520SOL     OW17845   4.698   1.126   3.276 -0.1630 -0.3732 -0.0698
 4520SOL    HW217846   4.666   1.038   3.295  0.6124 -0.5625  0.3590
 4520SOL    HW317847   4.623   1.183   3.296 -0.5595 -0.8953 -0.0393
 4520SOL    MW417848   4.684   1.122   3.281  0.2964  0.1958  0.8431
 4521SOL     OW17849   5.380   1.516   4.142 -0.5973  0.1714  0.2837
 4521SOL    HW217850   5.444   1.541   4.208  0.0784  0.1304 -0.3441
 4521SOL    HW317851   5.417   1.547   4.059 -0.9219 -0.7056 -0.2081
 4521SOL    MW417852   5.393   1.524   4.140 -0.2755  0.5856  0.3500
 4522SOL     OW17853   6.124   4.715   5.762  0.6017  0.2352 -0.2080
 4522SOL    HW217854   6.172   4.764   5.829 -0.3113 -0.4544  0.9716
 4522SOL    HW317855   6.138   4.623   5.784  0.7490 -0.0303 -1.3108
 4522SOL    MW417856   6.132   4.709   5.773 -0.2840 -0.2513 -0.1174
 4523SOL     OW17857   3.035   6.272   4.787 -0.3649  0.0760 -0.4989
 4523SOL    HW217858   3.062   6.185   4.818  1.5497  0.9911  0.5765
 4523SOL    HW317859   3.035   6.265   4.692 -0.0225 -1.0295 -0.4275
 4523SOL    MW417860   3.038   6.259   4.778  0.6500 -0.4696  0.5737
 4524SOL     OW17861   1.151   5.724   0.890 -0.2677 -0.2276 -0.1586
 4524SOL    HW217862   1.170   5.721   0.983 -0.8159  0.2866 -0.0228
 4524SOL    HW317863   1.092   5.798   0.880  2.0060  1.5737 -1.3152
 4524SOL    MW417864   1.146   5.733   0.901  0.4901 -0.2573  0.0972
 4525SOL     OW17865   0.739   0.566   2.525  0.0437 -0.1755 -0.1061
 4525SOL    HW217866   0.732   0.545   2.432 -1.6902 -0.0637 -0.0415
 4525SOL    HW317867   0.652   0.546   2.560  0.7205 -0.3825  1.5292
 4525SOL    MW417868   0.727   0.560   2.518  0.3461  0.2722  0.0986
 4526SOL     OW17869   2.002   5.126   1.250 -0.2123 -0.0001  0.4196
 4526SOL    HW217870   2.074   5.153   1.307  1.2196 -0.3808 -1.1484
 4526SOL    HW317871   2.006   5.186   1.175 -0.7274 -0.8316 -0.2972
 4526SOL    MW417872   2.012   5.137   1.248  0.4596  0.4554 -0.0268
 4527SOL     OW17873   3.170   3.292   0.537 -0.8326  0.0725  0.0137
 4527SOL    HW217874   3.201   3.325   0.452 -1.9800  2.5867  0.4666
 4527SOL    HW317875   3.103   3.228   0.515 -1.9195  1.5229 -1.0318
 4527SOL    MW417876   3.166   3.288   0.523 -0.4160 -0.1070  0.2202
 4528SOL     OW17877   1.075   1.429   3.989 -0.4093  0.3651 -0.1275
 4528SOL    HW217878   1.024   1.492   4.039 -0.2615 -0.0875  0.5977
 4528SOL    HW317879   1.154   1.476   3.964 -0.5623  0.6438 -0.0987
 4528SOL    MW417880   1.078   1.443   3.992 -0.0541  0.0592 -0.5015
 4529SOL     OW17881   6.403   6.038   5.964 -0.0710 -0.5303  0.2338
 4529SOL    HW217882   6.377   5.947   5.980 -1.0554 -0.3169 -0.0788
 4529SOL    HW317883   6.433   6.069   6.049 -2.3570 -0.3245  1.0405
 4529SOL    MW417884   6.403   6.030   5.978 -0.4413 -0.2977 -0.0985
 4530SOL     OW17885   5.435   2.382   1.581  0.2582 -1.2553  0.2163
 4530SOL    HW217886   5.499   2.346   1.520  0.9428 -0.5237  0.4912
 4530SOL    HW317887   5.365   2.416   1.525  0.9376 -0.4763 -0.1787
 4530SOL    MW417888   5.434   2.382   1.565 -0.0013 -0.0586 -0.3123
 4531SOL     OW17889   1.689   0.371   4.836  0.1009 -0.0154  0.1416
 4531SOL    HW217890   1.658   0.280   4.841  0.7609 -0.2905 -0.6094
 4531SOL    HW317891   1.782   0.363   4.813  0.4508  0.8205  1.1874
 4531SOL    MW417892   1.698   0.358   4.834 -0.7558  0.5435 -0.3593
 4532SOL     OW17893   3.288   0.980   3.833  0.4584  0.2794  0.4762
 4532SOL    HW217894   3.281   1.068   3.870  1.7861  0.3718  0.5521
 4532SOL    HW317895   3.315   0.925   3.906  0.7440  0.0142  0.1732
 4532SOL    MW417896   3.290   0.984   3.848 -0.3279 -0.3435 -0.5479
 4533SOL     OW17897   0.749   4.167   5.947 -0.1073  0.3362 -0.0123
 4533SOL    HW217898   0.661   4.180   5.984  0.5186  2.0882  0.9839
 4533SOL    HW317899   0.761   4.241   5.888 -0.2800 -1.3258 -2.2414
 4533SOL    MW417900   0.739   4.179   5.944  0.0485 -0.5353  0.6218
 4534SOL     OW17901   0.665   1.559   2.221  0.0256 -0.0282  0.1157
 4534SOL    HW217902   0.651   1.551   2.127  1.2873 -1.4686  0.0193
 4534SOL    HW317903   0.669   1.653   2.237 -0.9498  0.2561 -1.1304
 4534SOL    MW417904   0.663   1.570   2.211 -0.6324 -0.5335  0.0672
 4535SOL     OW17905   3.055   4.748   4.419 -0.0318 -0.1884  0.7903
 4535SOL    HW217906   3.027   4.837   4.398 -0.9169 -1.0586 -2.3371
 4535SOL    HW317907   2.983   4.711   4.468 -1.6709 -0.4015 -1.6031
 4535SOL    MW417908   3.042   4.755   4.423 -0.1445 -0.7594  0.0589
 4536SOL     OW17909   1.757   1.759   0.976 -0.4404  0.7024 -0.2480
 4536SOL    HW217910   1.691   1.750   0.908 -0.5269 -2.2501  0.1180
 4536SOL    HW317911   1.819   1.687   0.959 -0.2933  0.0814  2.5663
 4536SOL    MW417912   1.757   1.749   0.964 -0.5352 -0.2533 -0.1216
 4537SOL     OW17913   4.342   4.617   1.631 -0.6248  1.0826 -0.1666
 4537SOL    HW217914   4.253   4.630   1.664 -1.5308 -0.8880 -1.6169
 4537SOL    HW317915   4.356   4.523   1.636  1.1912  1.3086 -0.4818
 4537SOL    MW417916   4.332   4.606   1.636  0.3647 -0.3087 -0.1782
 4538SOL     OW17917   5.471   2.046   2.051  0.7207  0.9648 -0.0474
 4538SOL    HW217918   5.477   1.987   1.975  0.5817  0.6480  0.1870
 4538SOL    HW317919   5.427   1.995   2.118 -2.9178  2.5063 -1.0355
 4538SOL    MW417920   5.466   2.031   2.050  0.0401  0.2113 -0.5742
 4539SOL     OW17921   5.323   5.441   5.337 -0.1135  0.0945  0.2715
 4539SOL    HW217922   5.319   5.498   5.414  0.1528  1.6348 -0.8066
 4539SOL    HW317923   5.233   5.433   5.307  0.0590  1.8872 -0.8854
 4539SOL    MW417924   5.311   5.448   5.343 -0.3571 -0.5155  0.5004
 4540SOL     OW17925   3.356   5.342   4.457  0.5068  0.1208 -0.0753
 4540SOL    HW217926   3.375   5.392   4.536  1.2789  0.3541 -0.3980
 4540SOL    HW317927   3.437   5.347   4.406  0.0780 -0.1849 -0.7942
 4540SOL    MW417928   3.369   5.349   4.461 -0.3423 -0.2119 -0.6118
 4541SOL     OW17929   4.836   6.149   1.253 -0.1405  0.0400  0.0719
 4541SOL    HW217930   4.873   6.169   1.338  0.2465  0.8438 -0.2757
 4541SOL    HW317931   4.883   6.071   1.223 -0.1658 -0.1476  0.5090
 4541SOL    MW417932   4.847   6.141   1.260  0.1095  0.4634 -0.0322
 4542SOL     OW17933   2.798   4.787   0.293  0.6058  0.3243 -0.5216
 4542SOL    HW217934   2.711   4.748   0.304  1.0713 -0.6605 -0.2834
 4542SOL    HW317935   2.782   4.881   0.298 -0.2251  0.1280  1.2591
 4542SOL    MW417936   2.784   4.794   0.295  0.2821 -0.1011 -0.0920
 4543SOL     OW17937   4.705   1.489   1.872 -0.5320  0.0288  0.2582
 4543SOL    HW217938   4.684   1.497   1.779  1.8140  0.1903 -0.3393
 4543SOL    HW317939   4.725   1.579   1.900  0.6323 -0.2418  0.3730
 4543SOL    MW417940   4.705   1.502   1.863  0.1251 -0.7694  0.0588
 4544SOL     OW17941   3.490   4.612   1.579 -0.1947 -0.2805  0.3720
 4544SOL    HW217942   3.493   4.538   1.519  1.3772  0.0478  0.0036
 4544SOL    HW317943   3.424   4.670   1.542  1.5036  0.4418 -1.7300
 4544SOL    MW417944   3.482   4.610   1.566 -0.5911 -0.2607 -0.0377
 4545SOL     OW17945   1.402   2.558   2.296 -0.5168  0.0481  0.5029
 4545SOL    HW217946   1.451   2.554   2.214  0.5496 -1.7393  1.1645
 4545SOL    HW317947   1.430   2.640   2.337 -0.3412  0.4842 -0.4683
 4545SOL    MW417948   1.412   2.568   2.291  0.1790 -0.1904  0.3342
 4546SOL     OW17949   1.897   5.532   5.135  0.5459 -0.4326  0.0192
 4546SOL    HW217950   1.821   5.565   5.089  1.7451  0.9360 -1.0729
 4546SOL    HW317951   1.913   5.596   5.205  0.6687 -0.7359  0.2725
 4546SOL    MW417952   1.889   5.545   5.139 -0.0738  0.0747  0.4106
 4547SOL     OW17953   2.128   3.636   0.907  0.5602 -0.4008  0.1288
 4547SOL    HW217954   2.096   3.715   0.864  0.7709 -0.9785 -1.1087
 4547SOL    HW317955   2.148   3.665   0.997  0.9909  1.0349 -0.4000
 4547SOL    MW417956   2.126   3.650   0.913  0.0653 -0.0787 -0.4086
 4548SOL     OW17957   2.374   0.262   1.346  0.0041  0.1161 -0.3089
 4548SOL    HW217958   2.320   0.340   1.336  1.5138  1.3779  0.9155
 4548SOL    HW317959   2.390   0.254   1.440  1.4909 -0.4981 -0.5731
 4548SOL    MW417960   2.369   0.271   1.357  0.0132  0.0173  0.3323
 4549SOL     OW17961   3.948   5.194   5.411 -0.0236 -0.0554  0.7971
 4549SOL    HW217962   3.929   5.101   5.400 -1.8814  0.1521  1.6930
 4549SOL    HW317963   3.990   5.220   5.330 -1.0541 -1.3289 -0.1995
 4549SOL    MW417964   3.951   5.185   5.399  0.1780  0.2696 -0.6417
 4550SOL     OW17965   6.036   3.199   1.706 -0.1159  0.5148 -0.1052
 4550SOL    HW217966   6.117   3.236   1.673  1.6616 -1.6135  1.6157
 4550SOL    HW317967   5.987   3.173   1.628  0.8688  1.7384 -1.1594
 4550SOL    MW417968   6.040   3.201   1.691 -0.2896 -0.2728 -0.1805
 4551SOL     OW17969   4.198   5.524   2.558 -0.7009 -0.3244  0.2785
 4551SOL    HW217970   4.171   5.459   2.493 -0.5179  1.6073 -1.8603
 4551SOL    HW317971   4.116   5.565   2.587 -0.7730 -1.1076  1.2343
 4551SOL    MW417972   4.184   5.521   2.553 -0.1020 -0.1218 -0.2765
 4552SOL     OW17973   4.421   0.345   5.918  0.2330  0.5093 -0.3212
 4552SOL    HW217974   4.406   0.336   6.013  0.8985  0.6107 -0.2012
 4552SOL    HW317975   4.435   0.439   5.905  2.4723  0.2460 -0.1459
 4552SOL    MW417976   4.421   0.356   5.929  0.5034  0.0369  0.2723
 4553SOL     OW17977   2.513   0.046   6.370 -0.2002  0.1018  0.2605
 4553SOL    HW217978   2.606   0.049   6.346 -0.0830 -0.4405  0.6415
 4553SOL    HW317979   2.468   0.083   6.294  0.3244  0.3516  0.0651
 4553SOL    MW417980   2.520   0.052   6.356  0.6210 -0.0746  0.2165
 4554SOL     OW17981   1.984   3.846   0.807 -0.4395  0.2406 -0.7819
 4554SOL    HW217982   1.992   3.927   0.757 -1.0173  0.1958 -0.9550
 4554SOL    HW317983   1.918   3.795   0.760  0.2449 -0.5272 -0.9321
 4554SOL    MW417984   1.976   3.850   0.795  0.1189  0.0348  0.3239
 4555SOL     OW17985   1.528   1.796   0.783  0.1587 -0.1623 -0.2161
 4555SOL    HW217986   1.555   1.885   0.760 -0.6683  0.1978  0.1483
 4555SOL    HW317987   1.468   1.808   0.857  0.7299 -1.0952  0.4206
 4555SOL    MW417988   1.524   1.810   0.790  0.0797  0.0123 -0.6671
 4556SOL     OW17989   0.945   5.879   1.118  0.6346  0.0196 -0.4991
 4556SOL    HW217990   0.913   5.967   1.100 -1.6549 -0.3816  1.1759
 4556SOL    HW317991   0.894   5.822   1.060 -0.9507 -0.5258  1.3520
 4556SOL    MW417992   0.934   5.883   1.108  0.3158  0.3652 -0.3602
 4557SOL     OW17993   2.269   1.457   2.154  0.2495  0.3006 -0.0575
 4557SOL    HW217994   2.339   1.442   2.217 -1.5572 -0.2208  1.9437
 4557SOL    HW317995   2.294   1.537   2.109  1.0207  1.4241  2.2304
 4557SOL    MW417996   2.281   1.465   2.156  0.2243 -0.0958 -0.3989
 4558SOL     OW17997   0.094   5.886   2.306 -0.4506 -0.1442 -0.2554
 4558SOL    HW217998   0.070   5.975   2.330  0.6337  0.4469 -1.2447
 4558SOL    HW317999   0.189   5.881   2.321 -0.4942 -1.1294 -0.2039
 4558SOL    MW418000   0.103   5.897   2.311 -0.2556 -0.2605 -0.3426
 4559SOL     OW18001   3.303   3.006   1.661 -0.4530 -0.0617 -0.0413
 4559SOL    HW218002   3.225   2.974   1.706  0.2070  0.0662  1.2209
 4559SOL    HW318003   3.376   2.973   1.712  0.2944  1.5406 -0.0078
 4559SOL    MW418004   3.302   2.998   1.673 -0.2215 -0.0320 -0.9079
 4560SOL     OW18005   1.948   0.998   6.368 -0.2327  0.3716 -0.0180
 4560SOL    HW218006   2.039   0.989   6.395  0.2515  0.9068 -1.4004
 4560SOL    HW318007   1.897   0.980   6.447  1.0441 -0.7164  0.5842
 4560SOL    MW418008   1.953   0.994   6.382  0.2059  0.6496 -0.3457
 4561SOL     OW18009   2.653   1.107   5.724 -0.2548  0.1944 -0.0895
 4561SOL    HW218010   2.698   1.028   5.754 -0.9553  0.3393  1.4694
 4561SOL    HW318011   2.723   1.165   5.695  0.2581 -1.0390 -1.4228
 4561SOL    MW418012   2.668   1.104   5.725  0.6414  0.1298  0.0237
 4562SOL     OW18013   4.311   3.001   0.033 -0.4049  0.0025  0.3393
 4562SOL    HW218014   4.357   2.947   0.097 -0.0616 -1.8169 -1.3173
 4562SOL    HW318015   4.352   3.087   0.039  2.4182 -1.1871 -0.1508
 4562SOL    MW418016   4.322   3.005   0.042  0.2989  0.0214 -0.5484
 4563SOL     OW18017   2.859   0.108   2.688  0.2265  0.1354  0.3079
 4563SOL    HW218018   2.773   0.149   2.695  0.7060  0.9753  1.5090
 4563SOL    HW318019   2.920   0.181   2.680  0.8736 -0.4416 -0.1585
 4563SOL    MW418020   2.856   0.123   2.687  0.4828  0.4756 -0.2296
 4564SOL     OW18021   3.372   1.639   0.575  0.2284  0.2921 -0.5020
 4564SOL    HW218022   3.286   1.616   0.610 -0.3962  2.7685 -0.1771
 4564SOL    HW318023   3.423   1.667   0.651 -0.1975  3.0229 -1.1258
 4564SOL    MW418024   3.368   1.640   0.590 -0.2531  0.1355  0.4450
 4565SOL     OW18025   1.151   2.925   0.502  0.1059 -0.6579 -0.0726
 4565SOL    HW218026   1.116   2.974   0.577  1.2211  0.4796 -0.2689
 4565SOL    HW318027   1.134   2.981   0.427 -0.1300 -1.3525 -0.5374
 4565SOL    MW418028   1.144   2.939   0.502 -0.3328  0.0632 -0.0240
 4566SOL     OW18029   6.270   2.024   1.721 -0.2569  0.0886  0.3371
 4566SOL    HW218030   6.311   2.024   1.808  0.2235 -0.3571  0.1191
 4566SOL    HW318031   6.214   1.946   1.721  0.0537 -0.1399  0.1133
 4566SOL    MW418032   6.268   2.013   1.732  0.6578 -0.6353 -0.0030
 4567SOL     OW18033   4.895   0.936   3.967  0.3720 -0.3144 -0.2644
 4567SOL    HW218034   4.839   0.958   3.893  2.0239  0.5872 -1.2925
 4567SOL    HW318035   4.891   0.840   3.972  0.5382 -0.4243 -1.7884
 4567SOL    MW418036   4.887   0.926   3.958 -0.1332 -0.0566  0.1219
 4568SOL     OW18037   2.570   6.231   2.884  0.8902 -0.2215 -0.5751
 4568SOL    HW218038   2.483   6.269   2.894  0.7401 -0.6965  0.0433
 4568SOL    HW318039   2.628   6.294   2.926  0.6689 -0.5403  0.2466
 4568SOL    MW418040   2.566   6.244   2.891 -0.3917 -0.2882  0.6763
 4569SOL     OW18041   4.740   6.196   3.628 -0.1481  0.2114  0.8074
 4569SOL    HW218042   4.830   6.166   3.642 -0.5012 -0.4981  1.6822
 4569SOL    HW318043   4.687   6.118   3.645 -1.0099  0.9898  1.7697
 4569SOL    MW418044   4.745   6.182   3.632 -0.1747  0.1477  0.6397
 4570SOL     OW18045   6.260   4.597   2.882 -0.1425  0.5601  0.8483
 4570SOL    HW218046   6.337   4.646   2.851  0.2066  1.0451  2.4123
 4570SOL    HW318047   6.296   4.517   2.919 -0.3859  0.7697  1.5522
 4570SOL    MW418048   6.275   4.593   2.883 -0.4096 -0.3418 -0.0129
 4571SOL     OW18049   2.426   1.654   2.671 -0.3727  0.1113  0.1707
 4571SOL    HW218050   2.356   1.713   2.698  0.1545  0.5600  0.5985
 4571SOL    HW318051   2.506   1.693   2.708  0.0259 -0.7020  0.1986
 4571SOL    MW418052   2.427   1.667   2.680  0.9591 -0.0263  0.2046
 4572SOL     OW18053   2.254   2.923   3.868  0.3935 -0.0817 -0.0968
 4572SOL    HW218054   2.318   2.973   3.818  1.2676 -0.5166  0.5630
 4572SOL    HW318055   2.170   2.945   3.828  0.9882  0.2042 -1.2162
 4572SOL    MW418056   2.251   2.933   3.856 -1.0289  0.3095 -0.2694
 4573SOL     OW18057   4.425   0.287   3.411  0.6692 -0.5987 -0.8050
 4573SOL    HW218058   4.361   0.221   3.383  0.0310  0.5630 -2.2162
 4573SOL    HW318059   4.450   0.332   3.330  1.6380  0.4189  0.0303
 4573SOL    MW418060   4.420   0.284   3.397  0.3274  0.3130 -0.1066
 4574SOL     OW18061   3.786   1.480   3.500 -0.2673  0.4582  0.1625
 4574SOL    HW218062   3.827   1.424   3.434 -0.0563 -0.3021  0.9172
 4574SOL    HW318063   3.821   1.567   3.482  1.6499 -0.1432  0.7142
 4574SOL    MW418064   3.796   1.484   3.489  0.5750 -0.3218  0.2148
 4575SOL     OW18065   2.853   1.335   5.695  0.3953 -0.0493  0.2049
 4575SOL    HW218066   2.818   1.336   5.784  0.7657 -1.1665  0.3889
 4575SOL    HW318067   2.946   1.311   5.706 -0.0257 -2.3094 -0.5680
 4575SOL    MW418068   2.861   1.332   5.708 -0.5241  0.0675  0.1495
 4576SOL     OW18069   5.475   2.313   5.109  0.1922 -0.7945  0.1183
 4576SOL    HW218070   5.446   2.259   5.036  1.5966 -0.9269 -0.3757
 4576SOL    HW318071   5.556   2.272   5.139  1.2727  0.9710 -0.2310
 4576SOL    MW418072   5.482   2.301   5.103  0.8017 -0.6262  0.3572
 4577SOL     OW18073  -0.002   2.966   6.150 -0.0513 -0.4267  0.1440
 4577SOL    HW218074  -0.002   2.886   6.203  0.9342  0.7295  2.0061
 4577SOL    HW318075   0.087   2.971   6.114  0.2533  0.3842  0.9712
 4577SOL    MW418076   0.010   2.956   6.152 -0.2658 -0.0895  0.3017
 4578SOL     OW18077   0.542   5.714   2.923  0.1959  0.3373 -0.4711
 4578SOL    HW218078   0.570   5.754   2.841 -1.2238  1.0047 -0.6694
 4578SOL    HW318079   0.495   5.784   2.969 -1.0995 -0.6747 -0.1763
 4578SOL    MW418080   0.539   5.729   2.918 -0.2756 -0.6137 -0.2245
 4579SOL     OW18081   1.697   5.193   2.221  0.7409  0.3815  0.6180
 4579SOL    HW218082   1.668   5.189   2.130  0.3866  2.1218  0.6204
 4579SOL    HW318083   1.785   5.156   2.219  0.9255  0.8303 -0.5142
 4579SOL    MW418084   1.705   5.187   2.209  0.1392 -0.0608 -0.4473
 4580SOL     OW18085   0.414   2.562   3.524  0.2502  0.0548  0.4185
 4580SOL    HW218086   0.425   2.653   3.495 -1.1821  0.0955 -0.0457
 4580SOL    HW318087   0.462   2.511   3.459 -1.8616  0.2451 -1.4188
 4580SOL    MW418088   0.422   2.568   3.512 -0.1145  0.2390 -0.3043
 4581SOL     OW18089   3.577   6.079   5.754  0.5670  0.2795  0.0046
 4581SOL    HW218090   3.561   5.988   5.729 -2.2794  0.1937  1.7003
 4581SOL    HW318091   3.651   6.075   5.815 -0.1818 -1.0633  0.8701
 4581SOL    MW418092   3.585   6.067   5.759 -0.1151  0.1368 -0.2293
 4582SOL     OW18093   0.030   4.792   0.733 -0.1591  0.2172 -0.3215
 4582SOL    HW218094  -0.027   4.749   0.796  1.6641 -0.6427  0.8398
 4582SOL    HW318095   0.092   4.724   0.707  0.7248  1.2607 -1.0377
 4582SOL    MW418096   0.031   4.777   0.738 -0.2719 -0.2286  0.3186
 4583SOL     OW18097   6.069   2.888   3.273  0.2501  0.5697 -0.1151
 4583SOL    HW218098   6.044   2.968   3.227 -2.5990 -0.6003 -0.7963
 4583SOL    HW318099   6.056   2.908   3.366  1.8849  1.5887 -0.0693
 4583SOL    MW418100   6.064   2.901   3.279  0.0619 -0.1963  0.3487
 4584SOL     OW18101   1.843   6.168   5.732 -0.0296  0.2201  0.4585
 4584SOL    HW218102   1.928   6.185   5.771 -0.6980  0.1503  2.0061
 4584SOL    HW318103   1.844   6.075   5.712  1.1248  0.6377 -1.8154
 4584SOL    MW418104   1.854   6.158   5.734 -0.2115 -0.5133 -0.3173
 4585SOL     OW18105   3.264   0.301   5.327 -0.1118 -0.4017 -0.3728
 4585SOL    HW218106   3.170   0.296   5.342  0.1695  0.1570  1.8378
 4585SOL    HW318107   3.303   0.283   5.413  1.7915 -0.1761 -1.1478
 4585SOL    MW418108   3.257   0.298   5.340  0.4664 -0.2508  0.0629
 4586SOL     OW18109   0.800   2.843   3.801 -0.1210 -0.3407  0.3402
 4586SOL    HW218110   0.820   2.917   3.858  0.9930  0.9152 -1.5726
 4586SOL    HW318111   0.837   2.767   3.846 -0.7614  0.3160  2.0656
 4586SOL    MW418112   0.807   2.843   3.814 -0.3531 -0.1957 -0.3057
 4587SOL     OW18113   1.629   3.268   1.636 -0.6065  0.5385 -0.3979
 4587SOL    HW218114   1.664   3.188   1.674 -0.8902  1.0985  1.1117
 4587SOL    HW318115   1.702   3.305   1.587 -0.0554  0.0524  0.0389
 4587SOL    MW418116   1.643   3.262   1.635 -0.2948 -0.0883 -0.7613
 4588SOL     OW18117   1.766   1.521   4.979  0.1812 -0.2845  0.0021
 4588SOL    HW218118   1.739   1.441   4.935 -1.3802 -0.0692  0.4935
 4588SOL    HW318119   1.788   1.582   4.908 -4.5675  0.8725 -0.7981
 4588SOL    MW418120   1.765   1.519   4.964  0.5779  0.7555 -0.3221
 4589SOL     OW18121   2.806   5.950   3.426 -0.0830 -0.3467 -0.1907
 4589SOL    HW218122   2.740   5.927   3.361 -0.6460 -0.5448  0.4382
 4589SOL    HW318123   2.877   5.887   3.412 -0.5923 -0.9629 -0.0219
 4589SOL    MW418124   2.807   5.938   3.416 -0.0289  0.4450 -0.0847
 4590SOL     OW18125   1.352   1.423   3.792  0.4717 -0.6227  0.0608
 4590SOL    HW218126   1.428   1.463   3.751 -1.9415  1.2820 -2.9812
 4590SOL    HW318127   1.338   1.341   3.744  0.0356 -0.4861 -0.0469
 4590SOL    MW418128   1.360   1.417   3.780 -0.0444  0.0733  0.0122
 4591SOL     OW18129   4.591   5.262   5.147 -0.4027  0.9939  0.2767
 4591SOL    HW218130   4.536   5.222   5.215 -0.7653 -0.6867 -0.9526
 4591SOL    HW318131   4.531   5.320   5.100 -0.7798  0.2545 -0.1655
 4591SOL    MW418132   4.575   5.264   5.150  0.0612 -0.2810 -0.2779
 4592SOL     OW18133   6.138   2.332   2.650 -0.1873  0.0047 -0.0853
 4592SOL    HW218134   6.140   2.426   2.669  2.7943 -0.0594  0.4262
 4592SOL    HW318135   6.163   2.290   2.732  1.1856 -1.0392 -0.9888
 4592SOL    MW418136   6.142   2.339   2.663  0.4246 -0.0831 -0.3128
 4593SOL     OW18137   2.711   6.248   0.485  0.3009 -0.4660  0.2567
 4593SOL    HW218138   2.767   6.324   0.500  0.0376 -0.1736 -0.2265
 4593SOL    HW318139   2.630   6.268   0.531  0.1602 -0.3655 -0.0316
 4593SOL    MW418140   2.708   6.260   0.493 -0.3200  0.0345  0.1953
 4594SOL     OW18141   2.318   4.754   3.441  0.1573  0.0407 -0.4723
 4594SOL    HW218142   2.236   4.755   3.391  0.5244 -0.5391 -1.1064
 4594SOL    HW318143   2.368   4.682   3.403  0.7595  0.0708  0.2464
 4594SOL    MW418144   2.314   4.745   3.429  0.2026  0.5813  0.3194
 4595SOL     OW18145   5.723   5.490   5.643  0.1833  0.5432 -0.3529
 4595SOL    HW218146   5.705   5.446   5.560  1.4053  1.0551 -0.9234
 4595SOL    HW318147   5.715   5.421   5.709 -3.1836  0.6078 -0.5334
 4595SOL    MW418148   5.720   5.475   5.641  0.7842 -0.0147 -0.2236
 4596SOL     OW18149   5.896   4.153   1.913 -0.1746  0.2529  0.4213
 4596SOL    HW218150   5.868   4.243   1.896 -1.9843 -0.1764  0.9313
 4596SOL    HW318151   5.951   4.159   1.991 -2.0586  0.6975  1.7840
 4596SOL    MW418152   5.900   4.166   1.921  0.5098  0.2054  0.4620
 4597SOL     OW18153   2.857   1.256   0.205 -0.1006  0.0658  0.2106
 4597SOL    HW218154   2.873   1.169   0.242 -0.4239  0.5034  1.4246
 4597SOL    HW318155   2.797   1.298   0.266  1.4440  1.8085  0.6379
 4597SOL    MW418156   2.851   1.250   0.218 -0.3401 -0.0520 -0.1209
 4598SOL     OW18157   5.670   2.307   3.801  0.1002  0.3653 -0.6635
 4598SOL    HW218158   5.752   2.310   3.751 -0.2404 -0.1692 -1.2758
 4598SOL    HW318159   5.695   2.271   3.886  0.6060  0.7984 -0.6239
 4598SOL    MW418160   5.684   2.303   3.805 -0.0152 -0.0373 -0.0112
 4599SOL     OW18161   1.489   5.104   4.472 -0.3105 -0.3671 -0.4888
 4599SOL    HW218162   1.473   5.159   4.549 -2.4550 -1.5597 -0.0148
 4599SOL    HW318163   1.420   5.129   4.410  0.0624 -0.9595 -1.1545
 4599SOL    MW418164   1.478   5.115   4.474 -0.0713 -0.4280  0.2239
 4600SOL     OW18165   0.479   3.549   5.819  0.2020 -0.0984 -0.1069
 4600SOL    HW218166   0.418   3.490   5.862 -1.2501  1.3513 -0.0714
 4600SOL    HW318167   0.563   3.533   5.862 -0.4884 -1.0369  0.9466
 4600SOL    MW418168   0.482   3.539   5.830  0.1890 -0.1047  0.0777
 4601SOL     OW18169   2.575   2.227   2.230  0.5155 -0.2909 -0.7376
 4601SOL    HW218170   2.536   2.197   2.312 -0.3724 -0.0260 -1.0500
 4601SOL    HW318171   2.500   2.248   2.174  1.1105 -0.1231 -1.4887
 4601SOL    MW418172   2.560   2.226   2.233 -0.5772 -0.0453  0.2807
 4602SOL     OW18173   2.042   1.942   4.295 -0.3620  0.0206 -0.0125
 4602SOL    HW218174   1.997   2.023   4.270  0.1311  0.0775 -0.7549
 4602SOL    HW318175   1.986   1.903   4.363 -0.3798  1.1939  0.6690
 4602SOL    MW418176   2.028   1.948   4.301 -0.4865 -0.5522  0.0600
 4603SOL     OW18177   1.554   5.694   5.231 -0.5247 -0.4883  0.1849
 4603SOL    HW218178   1.623   5.670   5.292 -1.1933 -1.6739  0.5097
 4603SOL    HW318179   1.473   5.663   5.272 -0.9856 -1.3787 -1.3057
 4603SOL    MW418180   1.552   5.687   5.244 -0.3444  0.3923  0.0296
 4604SOL     OW18181   4.801   4.919   3.958 -0.2308 -0.0211 -0.1308
 4604SOL    HW218182   4.853   4.888   4.032 -0.0284 -0.3926 -0.4217
 4604SOL    HW318183   4.711   4.898   3.982 -0.0744 -1.1611 -0.4551
 4604SOL    MW418184   4.796   4.912   3.971 -0.0638 -0.3658  0.6078
 4605SOL     OW18185   1.611   1.593   5.743  0.0019  0.6231 -0.1760
 4605SOL    HW218186   1.691   1.623   5.698 -0.4844  0.3755 -1.2387
 4605SOL    HW318187   1.543   1.654   5.713 -0.8519 -1.0209 -1.7934
 4605SOL    MW418188   1.613   1.605   5.733 -0.1964  0.0878 -0.1244
 4606SOL     OW18189   4.532   3.289   6.196 -0.0436  0.4287  0.4356
 4606SOL    HW218190   4.449   3.305   6.243  0.8391  2.6264  1.3688
 4606SOL    HW318191   4.512   3.309   6.105 -1.0368 -1.0571  0.2963
 4606SOL    MW418192   4.518   3.294   6.190 -0.3010  0.3069 -0.0881
 4607SOL     OW18193   3.077   1.081   0.473  0.3967 -0.4291 -0.0055
 4607SOL    HW218194   3.029   1.007   0.436 -0.2101 -0.3061  0.5002
 4607SOL    HW318195   3.138   1.041   0.535  0.1852 -0.5242  0.1449
 4607SOL    MW418196   3.078   1.066   0.477  0.5201 -0.0792  0.0138
 4608SOL     OW18197   1.755   0.663   6.170  0.1372  0.5357  0.0600
 4608SOL    HW218198   1.818   0.657   6.242  1.1172  2.0848 -0.6000
 4608SOL    HW318199   1.809   0.661   6.091 -0.4973  2.7274 -0.5102
 4608SOL    MW418200   1.771   0.662   6.169  0.3109  0.1901  0.0821
 4609SOL     OW18201   4.109   3.631   4.102  0.6240  0.1705 -0.6613
 4609SOL    HW218202   4.098   3.621   4.196 -1.3178 -0.5069 -0.9025
 4609SOL    HW318203   4.180   3.694   4.092  0.8383  0.2818  1.2485
 4609SOL    MW418204   4.117   3.638   4.113  0.5090 -0.3128 -0.1542
 4610SOL     OW18205   4.232   2.082   1.403 -0.2590 -0.8012  0.1329
 4610SOL    HW218206   4.206   1.997   1.439  1.9726 -1.3774  0.5610
 4610SOL    HW318207   4.210   2.145   1.473  0.0131 -1.3264  0.7033
 4610SOL    MW418208   4.226   2.079   1.417  0.0072  0.8845 -0.5003
 4611SOL     OW18209   1.398   5.829   5.491  0.2762  0.3510 -0.3855
 4611SOL    HW218210   1.450   5.909   5.491 -0.6020  0.9427  0.7257
 4611SOL    HW318211   1.335   5.841   5.420  0.7159  0.2489 -0.7992
 4611SOL    MW418212   1.397   5.841   5.482  0.1502 -0.3385  0.5208
 4612SOL     OW18213   5.893   4.312   5.901  0.2851 -0.3794 -0.2462
 4612SOL    HW218214   5.833   4.327   5.829  0.8517  1.2173 -0.4294
 4612SOL    HW318215   5.937   4.229   5.880 -0.9373 -0.9214 -0.7258
 4612SOL    MW418216   5.891   4.303   5.889 -0.2299 -0.2583  0.0499
 4613SOL     OW18217   5.930   3.251   5.813 -0.1136 -0.0342  0.0205
 4613SOL    HW218218   6.001   3.189   5.823  0.1226  0.3352  0.6666
 4613SOL    HW318219   5.961   3.313   5.746 -0.1902 -0.3737 -0.3345
 4613SOL    MW418220   5.943   3.251   5.805  0.4186  0.2126 -0.4486
 4614SOL     OW18221   5.191   5.978   5.395 -0.2036  0.2120 -0.5867
 4614SOL    HW218222   5.286   5.977   5.384 -0.2803 -1.0923 -1.3238
 4614SOL    HW318223   5.156   5.962   5.307 -1.0801 -0.0237 -0.2100
 4614SOL    MW418224   5.199   5.976   5.382  0.5820 -0.4147 -0.4709
 4615SOL     OW18225   1.000   2.946   3.629  0.0088 -0.7946  0.4347
 4615SOL    HW218226   1.030   2.870   3.578  1.7733  0.6814 -0.8602
 4615SOL    HW318227   0.940   2.909   3.694  1.8398 -3.4840  0.7565
 4615SOL    MW418228   0.996   2.931   3.631  0.6487 -0.4137  0.2478
 4616SOL     OW18229   2.383   2.542   4.859  0.1249 -0.4752  0.4254
 4616SOL    HW218230   2.366   2.450   4.840  0.9842 -0.5043 -0.2533
 4616SOL    HW318231   2.443   2.540   4.933  0.5036 -0.4742  0.1197
 4616SOL    MW418232   2.388   2.529   4.866 -0.0696  0.2441  0.1329
 4617SOL     OW18233   4.597   1.300   5.822 -0.0269  0.1367 -0.3154
 4617SOL    HW218234   4.636   1.387   5.820 -1.6795  0.9357  0.4012
 4617SOL    HW318235   4.667   1.243   5.853  1.4039  0.9954 -1.8096
 4617SOL    MW418236   4.611   1.304   5.826 -0.0985  0.1497  0.2782
 4618SOL     OW18237   3.457   5.948   5.181  0.0347 -0.1429 -0.6389
 4618SOL    HW218238   3.422   6.036   5.194  1.1587  0.7250 -2.8437
 4618SOL    HW318239   3.407   5.893   5.241 -0.1621  2.0938  1.4079
 4618SOL    MW418240   3.446   5.952   5.191 -0.4615 -0.4367  0.3604
 4619SOL     OW18241   3.539   5.182   1.566 -0.1702  0.1278  0.4296
 4619SOL    HW218242   3.576   5.268   1.546 -1.0327  0.6190  0.9236
 4619SOL    HW318243   3.595   5.148   1.636  0.1573  0.2918  0.2509
 4619SOL    MW418244   3.552   5.188   1.572  0.0061 -0.1850  0.0672
 4620SOL     OW18245   5.959   2.858   4.669 -0.2980  0.4947  0.5704
 4620SOL    HW218246   5.935   2.775   4.627  1.8897 -0.3731  0.8965
 4620SOL    HW318247   5.914   2.856   4.754 -1.6001  0.4440 -0.1008
 4620SOL    MW418248   5.950   2.847   4.675  0.4875  0.0743  0.5669
 4621SOL     OW18249   1.246   5.534   0.127  0.8426  0.2277 -0.0379
 4621SOL    HW218250   1.257   5.619   0.170  0.1343  0.1483  0.3284
 4621SOL    HW318251   1.157   5.537   0.092  1.2780  0.1425 -1.1863
 4621SOL    MW418252   1.235   5.545   0.128 -0.0577 -0.1851 -0.2735
 4622SOL     OW18253   5.738   0.839   2.044 -0.4584 -0.1133  0.4258
 4622SOL    HW218254   5.806   0.863   1.982 -1.0576 -1.8636 -0.9945
 4622SOL    HW318255   5.661   0.822   1.990 -1.6110  0.3445  1.8595
 4622SOL    MW418256   5.737   0.840   2.029  0.3394 -0.1204  0.7013
 4623SOL     OW18257   4.832   2.037   4.731 -0.0886 -0.0912 -0.2432
 4623SOL    HW218258   4.878   2.102   4.677  0.1995 -0.3408 -0.3012
 4623SOL    HW318259   4.898   1.970   4.749 -0.7612 -1.1211 -1.4285
 4623SOL    MW418260   4.847   2.037   4.726  0.0364  0.0882 -0.1565
 4624SOL     OW18261   4.915   3.548   5.658  0.3620  0.3217  0.2506
 4624SOL    HW218262   4.912   3.589   5.745  1.2711 -1.5833  1.2257
 4624SOL    HW318263   4.959   3.464   5.672 -1.7297 -1.1874 -1.5931
 4624SOL    MW418264   4.920   3.543   5.672  0.0635  0.7725  0.2033
 4625SOL     OW18265   4.392   0.793   4.189 -0.0016 -0.6592  0.0241
 4625SOL    HW218266   4.446   0.738   4.245  0.9346 -0.1220 -0.3325
 4625SOL    HW318267   4.435   0.790   4.103 -0.3803 -0.0171 -0.1965
 4625SOL    MW418268   4.405   0.786   4.185  0.0092 -0.0524  0.3116
 4626SOL     OW18269   6.107   1.454   1.292  0.3726  0.3872 -0.5282
 4626SOL    HW218270   6.044   1.393   1.328 -2.2932  4.3347  2.3122
 4626SOL    HW318271   6.082   1.462   1.199 -1.1580 -0.5429 -0.2329
 4626SOL    MW418272   6.095   1.447   1.284 -0.4353  0.9521  0.1883
 4627SOL     OW18273   1.435   0.954   3.146 -0.4689  0.5555 -0.6220
 4627SOL    HW218274   1.465   0.994   3.064 -0.5309  1.9292  0.0006
 4627SOL    HW318275   1.458   0.862   3.137 -1.7351  0.3634 -2.7929
 4627SOL    MW418276   1.442   0.947   3.134 -0.4424 -0.2266  0.5402
 4628SOL     OW18277   3.986   3.229   4.967  0.5701 -0.0510 -0.2628
 4628SOL    HW218278   4.022   3.177   5.039  0.7580  0.9042  0.3608
 4628SOL    HW318279   3.904   3.264   5.002  0.0651 -0.5301 -0.9407
 4628SOL    MW418280   3.980   3.227   4.981 -0.5494 -0.3858 -0.7369
 4629SOL     OW18281   6.371   3.414   5.955  0.0301  0.0034 -0.2065
 4629SOL    HW218282   6.401   3.478   6.020  1.2814 -1.6911  0.9901
 4629SOL    HW318283   6.349   3.336   6.006 -0.6382 -0.8186 -1.6743
 4629SOL    MW418284   6.372   3.412   5.970  0.5099  0.3422  0.2666
 4630SOL     OW18285   4.261   3.085   2.837  0.4328  0.0995 -0.1085
 4630SOL    HW218286   4.333   3.101   2.897  0.5099 -1.1580  0.1576
 4630SOL    HW318287   4.193   3.044   2.890  0.4006 -0.7892 -0.8078
 4630SOL    MW418288   4.262   3.082   2.852 -0.7962 -0.0041 -0.1477
 4631SOL     OW18289   2.472   5.671   4.571  0.3728 -0.4217 -0.0029
 4631SOL    HW218290   2.391   5.651   4.617  0.2638 -0.9303 -0.3976
 4631SOL    HW318291   2.447   5.736   4.505  0.3169 -0.4597 -0.0193
 4631SOL    MW418292   2.458   5.677   4.568 -0.2300  0.3110  0.1221
 4632SOL     OW18293   5.540   0.739   0.728  0.8251  0.0179  0.2730
 4632SOL    HW218294   5.631   0.712   0.722  1.0925  0.5722  1.4663
 4632SOL    HW318295   5.519   0.775   0.642  1.0256 -2.1559 -0.7505
 4632SOL    MW418296   5.549   0.741   0.716 -0.3051 -0.4715  0.3580
 4633SOL     OW18297   0.869   3.241   2.780  0.2026  0.4514  0.7504
 4633SOL    HW218298   0.842   3.187   2.855 -2.2068  0.1756 -0.2404
 4633SOL    HW318299   0.829   3.327   2.797 -1.7456 -0.0544 -0.9026
 4633SOL    MW418300   0.860   3.245   2.792  0.2829  0.0470  0.2389
 4634SOL     OW18301   2.845   1.010   5.380 -0.3271  0.2019 -0.4819
 4634SOL    HW218302   2.899   0.932   5.397 -1.1420 -0.0058  1.4242
 4634SOL    HW318303   2.903   1.084   5.398 -0.3599 -0.0076  0.5230
 4634SOL    MW418304   2.860   1.009   5.385  0.2226 -0.3664 -0.1582
 4635SOL     OW18305   4.032   3.497   3.872  0.0691  0.3150 -0.1195
 4635SOL    HW218306   4.078   3.535   3.946  1.0602 -1.3437  0.1372
 4635SOL    HW318307   3.944   3.480   3.905  0.4683 -0.3024  0.6438
 4635SOL    MW418308   4.026   3.500   3.886 -0.1212 -0.4325 -0.0405
 4636SOL     OW18309   4.671   4.155   4.326  0.1065 -0.5563 -0.3003
 4636SOL    HW218310   4.760   4.129   4.353 -0.0679 -1.2243 -0.3560
 4636SOL    HW318311   4.635   4.199   4.403  0.2783 -0.8086 -0.0734
 4636SOL    MW418312   4.678   4.157   4.340  0.2118 -0.0761 -0.1363
 4637SOL     OW18313   0.097   1.002   0.169  0.3824 -0.4346  0.8236
 4637SOL    HW218314   0.145   0.957   0.238  0.4368 -2.5721 -0.5132
 4637SOL    HW318315   0.065   0.931   0.112  1.6677  1.2351 -2.2310
 4637SOL    MW418316   0.099   0.987   0.171  0.0819 -0.0455 -0.1609
 4638SOL     OW18317   0.043   1.166   6.369 -0.0262  0.2926  0.1217
 4638SOL    HW218318   0.090   1.161   6.452 -1.0117  0.2554  0.6894
 4638SOL    HW318319  -0.008   1.246   6.375  1.0410  1.1100 -1.0910
 4638SOL    MW418320   0.043   1.176   6.381  0.2879 -0.0165 -0.2068
 4639SOL     OW18321   6.150   4.545   5.226 -0.2142  0.0563  0.6991
 4639SOL    HW218322   6.204   4.467   5.218 -0.8377 -0.3433  0.2237
 4639SOL    HW318323   6.171   4.598   5.149  0.7607  0.7231  1.4107
 4639SOL    MW418324   6.160   4.542   5.215 -0.1185  0.8607  0.3484
 4640SOL     OW18325   6.361   4.013   1.737  0.1007  0.0612 -0.4909
 4640SOL    HW218326   6.311   4.070   1.679 -3.2726 -0.3336  1.7865
 4640SOL    HW318327   6.390   4.071   1.808  0.1647 -0.2887 -0.2274
 4640SOL    MW418328   6.358   4.029   1.739  0.0154 -0.1971  0.3273
 4641SOL     OW18329   0.195   4.402   2.729 -0.2687 -0.1547 -0.2620
 4641SOL    HW218330   0.178   4.381   2.821 -0.8726 -0.5368 -0.4570
 4641SOL    HW318331   0.258   4.336   2.701 -1.0312 -0.8102 -0.4614
 4641SOL    MW418332   0.201   4.391   2.738 -0.1211  0.5550  0.5643
 4642SOL     OW18333   2.205   2.124   2.533  0.0993  0.0495  0.0375
 4642SOL    HW218334   2.292   2.123   2.493 -0.6264 -0.7765 -1.6362
 4642SOL    HW318335   2.146   2.095   2.463 -1.4379 -0.1318  1.3397
 4642SOL    MW418336   2.209   2.120   2.518 -0.3136 -0.7446 -0.4067
 4643SOL     OW18337   2.991   1.485   0.983  0.2168 -0.0406  0.2888
 4643SOL    HW218338   3.073   1.446   0.953 -0.0393 -1.3899  1.2484
 4643SOL    HW318339   3.014   1.575   1.007  0.9639  0.2353 -1.3504
 4643SOL    MW418340   3.005   1.492   0.982 -0.1998 -0.0604  0.3208
 4644SOL     OW18341   4.985   1.907   3.204  0.1946 -0.6375 -0.1851
 4644SOL    HW218342   5.004   1.929   3.113  0.2194  1.1989  0.2089
 4644SOL    HW318343   5.070   1.909   3.248  0.1150 -0.9267 -0.0112
 4644SOL    MW418344   4.999   1.910   3.198 -0.5890  0.2869  0.1012
 4645SOL     OW18345   6.330   1.172   2.651 -0.3931 -0.0058 -0.0128
 4645SOL    HW218346   6.244   1.130   2.637  0.3784 -1.7742  0.2455
 4645SOL    HW318347   6.385   1.101   2.684  1.4388  0.8682 -1.0897
 4645SOL    MW418348   6.326   1.157   2.653  1.1668  0.0953 -0.1648
 4646SOL     OW18349   0.155   2.844   2.087  0.4962 -0.0433  0.3711
 4646SOL    HW218350   0.162   2.782   2.014  0.6650  0.0874  0.2736
 4646SOL    HW318351   0.246   2.867   2.106  0.4180  0.3642  0.2436
 4646SOL    MW418352   0.168   2.839   2.079  0.0922  0.0799  0.0220
 4647SOL     OW18353   3.378   3.655   3.084  0.3271  0.1913  0.3145
 4647SOL    HW218354   3.359   3.692   2.998  1.0709 -1.3732 -0.5731
 4647SOL    HW318355   3.466   3.687   3.104  0.6178 -0.3565 -0.0527
 4647SOL    MW418356   3.387   3.664   3.075 -0.6638 -0.2043 -0.5398
 4648SOL     OW18357   2.926   1.213   2.237 -0.4593 -0.2555  0.2774
 4648SOL    HW218358   2.986   1.268   2.187 -0.1303 -1.5683 -0.8243
 4648SOL    HW318359   2.983   1.162   2.295 -0.4255 -1.6912 -0.9531
 4648SOL    MW418360   2.941   1.214   2.238 -0.0866  0.1875 -0.5814
 4649SOL     OW18361   5.502   0.050   5.999  0.0847 -0.2939  0.7154
 4649SOL    HW218362   5.551  -0.031   6.013  1.3784  0.4494  0.6383
 4649SOL    HW318363   5.505   0.095   6.084  0.4187  0.2145  0.4426
 4649SOL    MW418364   5.509   0.045   6.012 -0.1000  0.5764 -0.0159
 4650SOL     OW18365   1.947   2.189   4.270 -0.4155  0.3400  0.0631
 4650SOL    HW218366   1.963   2.253   4.339  1.2801  0.4394 -0.3662
 4650SOL    HW318367   1.870   2.221   4.223 -1.6828  0.2064  1.9562
 4650SOL    MW418368   1.939   2.201   4.273  0.0292 -0.1310 -0.5530
 4651SOL     OW18369   2.631   4.590   1.544 -0.2352  0.0523 -0.1902
 4651SOL    HW218370   2.559   4.629   1.493 -1.6416 -0.7774  1.0626
 4651SOL    HW318371   2.613   4.618   1.634  1.2184  0.0669  0.1147
 4651SOL    MW418372   2.619   4.599   1.549  0.3190 -0.2492  0.3146
 4652SOL     OW18373   0.861   2.001   4.876  0.5635 -0.6252 -0.1806
 4652SOL    HW218374   0.781   1.954   4.853  0.5115 -0.7212  0.1885
 4652SOL    HW318375   0.830   2.079   4.921  0.7104 -1.7390  1.9791
 4652SOL    MW418376   0.847   2.005   4.879 -0.8064  0.0024  0.3251
 4653SOL     OW18377   1.214   3.511   5.137 -0.6671 -0.8577  0.3353
 4653SOL    HW218378   1.158   3.435   5.124 -0.8812 -0.4491 -1.3313
 4653SOL    HW318379   1.155   3.580   5.167 -1.3666 -0.0855 -2.5565
 4653SOL    MW418380   1.199   3.510   5.140 -0.2029  0.4052 -0.0512
 4654SOL     OW18381   4.117   2.650   1.354 -0.0412 -0.5693  0.9205
 4654SOL    HW218382   4.208   2.625   1.338  0.4058  1.4760 -0.0496
 4654SOL    HW318383   4.069   2.615   1.278  0.0376 -1.0766  1.1008
 4654SOL    MW418384   4.122   2.642   1.342  0.3229  0.4317 -0.2614
 4655SOL     OW18385   1.564   1.419   4.743  0.7022 -0.5389  0.1949
 4655SOL    HW218386   1.561   1.392   4.652 -1.0939 -0.0837  0.0752
 4655SOL    HW318387   1.572   1.515   4.740 -1.7757 -0.2531  0.3996
 4655SOL    MW418388   1.564   1.428   4.731 -0.0440  0.7287 -0.0491
 4656SOL     OW18389   3.654   5.014   0.954  0.1268  0.2174  0.9908
 4656SOL    HW218390   3.624   4.926   0.975 -1.9389  0.7126  0.3792
 4656SOL    HW318391   3.578   5.070   0.972  0.7598  1.6228 -0.4310
 4656SOL    MW418392   3.640   5.010   0.959 -0.0227 -0.3080 -0.4906
 4657SOL     OW18393   5.145   2.017   0.965  0.1698  0.0017 -1.1816
 4657SOL    HW218394   5.065   1.966   0.953 -0.3052  0.8267 -1.6198
 4657SOL    HW318395   5.147   2.035   1.059 -0.6723  0.7637 -1.2928
 4657SOL    MW418396   5.135   2.013   0.976 -0.5640 -0.4705 -0.2034
 4658SOL     OW18397   4.132   1.693   5.849 -0.1170 -0.1659 -0.3082
 4658SOL    HW218398   4.051   1.645   5.865 -0.6611  1.1876  1.3774
 4658SOL    HW318399   4.149   1.738   5.932  0.8393  1.7980 -1.5021
 4658SOL    MW418400   4.124   1.693   5.862  0.1699  0.4142 -0.1453
 4659SOL     OW18401   3.428   1.059   2.653  0.1267  0.1492  0.1388
 4659SOL    HW218402   3.455   0.971   2.629 -0.5447  0.0578 -0.3151
 4659SOL    HW318403   3.380   1.091   2.577  0.1311  0.8060  0.4041
 4659SOL    MW418404   3.425   1.052   2.640 -0.3026  0.7475  0.1708
 4660SOL     OW18405   1.187   1.435   4.482 -0.1650 -0.8249 -0.9521
 4660SOL    HW218406   1.230   1.389   4.554  0.0506  1.5408  0.5350
 4660SOL    HW318407   1.158   1.366   4.423  1.5312 -2.7502  0.3341
 4660SOL    MW418408   1.189   1.420   4.484 -0.0848 -0.5712 -0.2726
 4661SOL     OW18409   4.788   1.999   6.099 -0.3173  0.0882  0.7129
 4661SOL    HW218410   4.697   1.971   6.094 -0.1444 -0.4327  0.2428
 4661SOL    HW318411   4.800   2.028   6.189 -0.5606 -1.2589  1.2075
 4661SOL    MW418412   4.778   1.999   6.110 -0.4530 -1.1399  0.0644
 4662SOL     OW18413   1.447   0.898   5.469 -0.1500 -0.2653  0.0838
 4662SOL    HW218414   1.482   0.966   5.527 -0.2685  0.0047 -0.1564
 4662SOL    HW318415   1.385   0.850   5.523 -0.5053  0.1915  0.0868
 4662SOL    MW418416   1.444   0.901   5.484 -0.2382  0.1500 -0.4073
 4663SOL     OW18417   2.013   2.116   2.746 -0.0201 -0.4369 -0.0587
 4663SOL    HW218418   2.047   2.187   2.801  2.3404 -1.3825 -0.1409
 4663SOL    HW318419   2.068   2.119   2.667 -0.6497 -1.6336 -0.5637
 4663SOL    MW418420   2.025   2.126   2.743 -0.2432 -0.3184  1.0862
 4664SOL     OW18421   5.410   1.413   2.193 -0.6568 -0.5253 -0.2381
 4664SOL    HW218422   5.453   1.437   2.275  2.7989  1.2453 -2.3566
 4664SOL    HW318423   5.415   1.492   2.139 -1.6884 -1.9862 -2.6260
 4664SOL    MW418424   5.416   1.427   2.197  0.0676  0.2793  0.0726
 4665SOL     OW18425   5.835   3.193   0.680  0.5654 -0.2562 -0.6870
 4665SOL    HW218426   5.915   3.245   0.687  0.6338 -0.1926 -1.7986
 4665SOL    HW318427   5.771   3.239   0.735  1.1263  0.0089 -0.2549
 4665SOL    MW418428   5.837   3.206   0.688  0.2477  0.3207  0.6178
 4666SOL     OW18429   6.113   2.619   2.555  0.1870  0.6272  1.0419
 4666SOL    HW218430   6.132   2.700   2.603  0.4577  1.2646 -0.1159
 4666SOL    HW318431   6.191   2.605   2.501 -1.4885  1.9045 -1.9240
 4666SOL    MW418432   6.126   2.627   2.554  0.2534  0.0786 -0.1486
 4667SOL     OW18433   5.701   4.217   2.698  0.1001  0.2959 -0.4588
 4667SOL    HW218434   5.694   4.306   2.662  0.8148  0.5553  0.0331
 4667SOL    HW318435   5.781   4.181   2.659 -0.9187 -0.6606 -1.7608
 4667SOL    MW418436   5.710   4.224   2.688 -0.2128 -0.1303 -0.1071
 4668SOL     OW18437   1.174   0.765   0.266  0.3330 -0.0023 -0.2178
 4668SOL    HW218438   1.140   0.854   0.269 -1.0049 -0.4832 -0.3972
 4668SOL    HW318439   1.215   0.752   0.352 -0.1094  0.5418  0.0796
 4668SOL    MW418440   1.175   0.775   0.278  0.0166  0.1279  0.0364
 4669SOL     OW18441  -0.000   0.787   0.541 -0.2005 -0.0763 -0.0274
 4669SOL    HW218442   0.016   0.693   0.549 -0.9579 -0.3398 -1.2617
 4669SOL    HW318443  -0.054   0.795   0.463 -1.8937  1.1986  1.2025
 4669SOL    MW418444  -0.005   0.775   0.532  0.1004  0.1814 -0.5395
 4670SOL     OW18445   3.257   3.886   4.167 -0.3806 -0.0655  0.1476
 4670SOL    HW218446   3.230   3.965   4.120  1.9581  1.0831  0.6037
 4670SOL    HW318447   3.310   3.838   4.103  0.9138  0.3725  0.8733
 4670SOL    MW418448   3.260   3.890   4.152 -0.5003  0.2233 -0.8780
 4671SOL     OW18449   4.629   0.543   3.076 -0.2343  0.0565  0.4904
 4671SOL    HW218450   4.687   0.542   3.152 -0.3337 -0.4768  0.5567
 4671SOL    HW318451   4.605   0.636   3.066  1.2224  0.4118 -0.0019
 4671SOL    MW418452   4.633   0.555   3.085 -0.0966  0.5037  0.4475
 4672SOL     OW18453   2.398   4.926   4.286 -0.2402 -0.0371  0.0413
 4672SOL    HW218454   2.345   4.952   4.210 -0.6139 -1.2392 -0.1395
 4672SOL    HW318455   2.485   4.910   4.250  0.2814  1.9346  0.3371
 4672SOL    MW418456   2.402   4.927   4.271  0.5334 -0.0493 -0.3163
 4673SOL     OW18457   1.125   5.842   6.256  1.0006 -0.0781  0.0196
 4673SOL    HW218458   1.138   5.751   6.229 -1.6435 -0.9856  1.4243
 4673SOL    HW318459   1.106   5.837   6.350 -0.3776  1.7527 -0.0995
 4673SOL    MW418460   1.124   5.829   6.265 -0.1465 -0.0989 -0.2456
 4674SOL     OW18461   5.742   3.236   5.036  0.2852  0.1574 -0.4077
 4674SOL    HW218462   5.807   3.199   5.095  1.8177  3.4751  0.2566
 4674SOL    HW318463   5.790   3.249   4.953 -0.0640  0.8980 -0.5021
 4674SOL    MW418464   5.757   3.233   5.032  0.7538  0.3180  0.1478
 4675SOL     OW18465   5.234   5.341   6.376 -0.2490  0.1169 -0.1517
 4675SOL    HW218466   5.230   5.424   6.329  1.1075 -0.3960 -1.2102
 4675SOL    HW318467   5.279   5.362   6.458 -0.8992  0.6190  0.0916
 4675SOL    MW418468   5.239   5.355   6.381  0.0344 -0.3972  0.1110
 4676SOL     OW18469   0.418   2.818   1.133  0.0795  0.3723 -0.2439
 4676SOL    HW218470   0.487   2.849   1.192 -1.1049 -1.3000  2.2034
 4676SOL    HW318471   0.422   2.723   1.140 -2.0951  0.2108 -0.4575
 4676SOL    MW418472   0.427   2.810   1.142 -0.1974  0.0145  0.6238
 4677SOL     OW18473   3.988   4.842   0.656  0.2371  0.0910  0.2332
 4677SOL    HW218474   3.903   4.806   0.631  0.2208 -0.6088  1.2303
 4677SOL    HW318475   4.040   4.840   0.575 -0.2271 -0.8511 -0.0598
 4677SOL    MW418476   3.984   4.837   0.642  0.1577 -0.4599 -0.0011
 4678SOL     OW18477   4.233   3.376   5.717 -0.3435  0.2510  0.6218
 4678SOL    HW218478   4.140   3.357   5.733 -0.4291  1.1140  1.2376
 4678SOL    HW318479   4.236   3.471   5.705  0.6995  0.5283  2.5785
 4678SOL    MW418480   4.221   3.386   5.718  0.1528 -0.3017 -0.0360
 4679SOL     OW18481   2.157   0.597   4.515 -0.2226 -0.3237  0.0366
 4679SOL    HW218482   2.222   0.530   4.535 -1.0811 -0.7732  1.4960
 4679SOL    HW318483   2.177   0.670   4.574 -0.7773 -0.2958  0.1999
 4679SOL    MW418484   2.168   0.598   4.525 -0.7707  0.0239  0.1720
 4680SOL     OW18485   4.361   1.564   0.595  0.0929 -0.7096  0.3513
 4680SOL    HW218486   4.371   1.614   0.514 -1.1017 -1.5142 -0.3230
 4680SOL    HW318487   4.324   1.627   0.658 -1.1274 -0.6301 -0.4024
 4680SOL    MW418488   4.357   1.579   0.593 -0.4873  0.0172 -0.4089
 4681SOL     OW18489   4.657   6.399   5.236  0.0636 -0.2978  0.0903
 4681SOL    HW218490   4.692   6.368   5.152  2.2483 -2.2012  1.5749
 4681SOL    HW318491   4.692   6.487   5.246 -1.7085  0.7088 -1.7222
 4681SOL    MW418492   4.666   6.406   5.226 -0.4499 -0.1053  0.0125
 4682SOL     OW18493   4.901   5.406   0.229  0.4922  0.1237  0.2604
 4682SOL    HW218494   4.936   5.419   0.141  0.6418  0.5311  0.3789
 4682SOL    HW318495   4.807   5.422   0.219  0.5993  0.7880  0.2975
 4682SOL    MW418496   4.893   5.410   0.216 -0.5177 -0.3335  0.2351
 4683SOL     OW18497   4.007   2.082   0.909  0.1956 -0.1945  0.4242
 4683SOL    HW218498   4.078   2.052   0.966 -0.7835 -1.5388  0.9723
 4683SOL    HW318499   4.020   2.177   0.902  1.8363 -0.3687  0.7869
 4683SOL    MW418500   4.018   2.091   0.916 -0.9756 -0.1951  0.7224
 4684SOL     OW18501   6.069   0.097   0.148 -0.1216  0.0381 -0.8316
 4684SOL    HW218502   6.039   0.015   0.110  0.4529 -0.6177  0.0746
 4684SOL    HW318503   6.131   0.132   0.085  1.1160 -1.2254 -0.3479
 4684SOL    MW418504   6.073   0.091   0.135  0.2037 -0.4373  0.0359
 4685SOL     OW18505   3.710   1.826   0.550 -0.2992  0.4241  0.0793
 4685SOL    HW218506   3.787   1.874   0.519  2.2458 -2.4680  1.3192
 4685SOL    HW318507   3.688   1.869   0.633  0.8087  0.5271  0.3375
 4685SOL    MW418508   3.717   1.838   0.557  0.3577 -0.2414  0.5366
 4686SOL     OW18509   2.588   2.756   3.655  0.0810  0.7354  0.2738
 4686SOL    HW218510   2.565   2.674   3.699  2.3122 -0.6722 -1.0061
 4686SOL    HW318511   2.652   2.797   3.713  0.0921  0.8190  0.2020
 4686SOL    MW418512   2.593   2.751   3.669 -0.5655 -0.3808 -0.0907
 4687SOL     OW18513   0.414   0.855   1.694 -0.6861 -0.5726 -0.7748
 4687SOL    HW218514   0.453   0.942   1.696  0.6993 -1.1868  0.0445
 4687SOL    HW318515   0.467   0.806   1.631  0.2321 -1.5679  0.7356
 4687SOL    MW418516   0.426   0.860   1.686  1.0010 -0.3962  0.0238
 4688SOL     OW18517   1.601   1.138   4.891  0.8460  0.2180  0.1028
 4688SOL    HW218518   1.544   1.190   4.948  1.7611  1.8703 -0.4235
 4688SOL    HW318519   1.619   1.058   4.941 -0.4518  0.4810  1.0242
 4688SOL    MW418520   1.596   1.134   4.905  0.1893 -0.2197  0.7364
 4689SOL     OW18521   0.277   1.473   0.087  0.0848  0.3493  0.1256
 4689SOL    HW218522   0.210   1.448   0.151 -0.0447  0.3914  0.0084
 4689SOL    HW318523   0.236   1.545   0.037  0.3704  0.6473  0.3193
 4689SOL    MW418524   0.263   1.479   0.089  0.2033  0.1810  0.2919
 4690SOL     OW18525   5.149   1.321   3.399  0.0169 -0.1952 -0.1100
 4690SOL    HW218526   5.209   1.351   3.467  0.2069  0.5433 -0.5936
 4690SOL    HW318527   5.088   1.263   3.445  1.1612 -1.0672  0.3693
 4690SOL    MW418528   5.149   1.317   3.414 -0.0761 -0.3971 -0.4391
 4691SOL     OW18529   3.313   3.070   4.528  0.0192  0.3576 -0.4320
 4691SOL    HW218530   3.364   2.994   4.558 -0.7047 -0.1653 -0.5125
 4691SOL    HW318531   3.247   3.033   4.471  0.5999  1.2137 -1.7027
 4691SOL    MW418532   3.311   3.055   4.525 -0.0250  0.0500  0.1106
 4692SOL     OW18533   4.932   3.506   3.936 -0.0713  0.4411  0.0770
 4692SOL    HW218534   4.976   3.544   4.012  0.9285  0.5175 -0.5211
 4692SOL    HW318535   4.997   3.447   3.897 -1.2279 -1.1041  0.3756
 4692SOL    MW418536   4.946   3.503   3.941 -0.2524 -0.2301  0.3193
 4693SOL     OW18537   4.887   2.004   2.506 -0.2296 -0.3648  0.0605
 4693SOL    HW218538   4.817   2.064   2.480  1.9342  2.5190  0.4098
 4693SOL    HW318539   4.961   2.027   2.449  1.6718 -0.4503  2.3464
 4693SOL    MW418540   4.888   2.015   2.495  0.0771 -0.4089 -0.3208
 4694SOL     OW18541   2.231   2.932   0.949 -0.0401 -0.4362  0.0882
 4694SOL    HW218542   2.301   2.962   0.891  0.0820 -0.2121  0.3508
 4694SOL    HW318543   2.160   2.906   0.890 -0.0867  0.2190 -0.1524
 4694SOL    MW418544   2.231   2.932   0.934 -0.2366  0.1264 -0.2934
 4695SOL     OW18545   6.290   6.266   4.910  0.1176 -0.1230  0.2250
 4695SOL    HW218546   6.351   6.230   4.974  1.9736  1.3586 -0.6152
 4695SOL    HW318547   6.345   6.317   4.851 -1.8848  0.7562 -0.9669
 4695SOL    MW418548   6.305   6.268   4.911  0.0998  0.2115 -0.0963
 4696SOL     OW18549   4.413   1.986   2.651 -0.1171  0.0448 -0.0272
 4696SOL    HW218550   4.419   2.022   2.739 -1.8622 -0.4265  0.3116
 4696SOL    HW318551   4.427   1.892   2.661 -0.1133  0.0158 -0.2804
 4696SOL    MW418552   4.415   1.979   2.664  0.3395 -0.3281  0.1442
 4697SOL     OW18553   6.114   3.649   4.458 -0.1354 -0.7194 -0.3279
 4697SOL    HW218554   6.109   3.664   4.363 -0.0332  1.5006 -0.0255
 4697SOL    HW318555   6.076   3.728   4.497 -0.8923 -1.9366  1.4990
 4697SOL    MW418556   6.109   3.661   4.450 -0.4101 -0.4064 -0.0319
 4698SOL     OW18557   4.290   2.435   3.187 -0.1188 -0.0131 -0.4889
 4698SOL    HW218558   4.286   2.507   3.250  2.2634  0.6961 -1.0379
 4698SOL    HW318559   4.278   2.356   3.240 -0.2251  0.6737  0.5303
 4698SOL    MW418560   4.288   2.434   3.202  0.1666  0.1998  0.0914
 4699SOL     OW18561   5.848   3.456   1.382 -0.1380  0.5620  0.1677
 4699SOL    HW218562   5.761   3.462   1.423 -0.4956 -1.3371 -0.2397
 4699SOL    HW318563   5.830   3.442   1.289  0.5180 -1.9063  0.3625
 4699SOL    MW418564   5.834   3.455   1.375  0.8492 -0.1659  0.4511
 4700SOL     OW18565   3.950   0.531   0.096  0.3672 -0.0624 -0.3420
 4700SOL    HW218566   4.002   0.505   0.172  1.7142 -0.4320 -1.3386
 4700SOL    HW318567   3.876   0.471   0.096  1.4045 -1.3956 -0.4146
 4700SOL    MW418568   3.947   0.520   0.106 -0.5388 -0.2643  0.0241
 4701SOL     OW18569   5.674   0.598   2.447  0.4723  0.0075  0.2536
 4701SOL    HW218570   5.676   0.616   2.353  2.0450 -2.7752 -0.3529
 4701SOL    HW318571   5.582   0.612   2.472  0.2701  2.0856 -1.3475
 4701SOL    MW418572   5.662   0.603   2.438  0.4953 -0.0517 -0.1625
 4702SOL     OW18573   1.851   5.129   0.809 -0.0714  0.3911 -0.1612
 4702SOL    HW218574   1.764   5.110   0.843 -0.3593  1.0766 -0.4984
 4702SOL    HW318575   1.902   5.153   0.887  0.0109 -0.6657  0.1251
 4702SOL    MW418576   1.847   5.130   0.824  0.1374 -0.2036  0.0968
 4703SOL     OW18577   2.630   0.363   0.505  0.2323  0.0478  0.3872
 4703SOL    HW218578   2.575   0.286   0.520 -1.0878  0.9478  0.3031
 4703SOL    HW318579   2.690   0.364   0.579  0.5760 -1.2980  0.1610
 4703SOL    MW418580   2.630   0.353   0.516  0.2570  0.0134 -0.4947
 4704SOL     OW18581   2.176   4.136   0.213  0.4427 -0.2491 -0.3207
 4704SOL    HW218582   2.249   4.197   0.204 -0.5985  0.8837 -1.2965
 4704SOL    HW318583   2.208   4.054   0.174  2.3703 -0.8610  2.3019
 4704SOL    MW418584   2.190   4.133   0.207 -0.2475 -0.0643 -0.0899
 4705SOL     OW18585   3.145   1.375   1.758  0.0263  0.5747 -0.8685
 4705SOL    HW218586   3.103   1.295   1.726 -0.2569  0.2649  0.2144
 4705SOL    HW318587   3.080   1.444   1.741 -0.8970  0.1278  0.6363
 4705SOL    MW418588   3.131   1.373   1.752  0.6297  0.5608 -0.7264
 4706SOL     OW18589   0.942   4.904   1.836  0.5237 -0.8383  0.1960
 4706SOL    HW218590   0.894   4.943   1.908  2.7640 -0.8722  1.8046
 4706SOL    HW318591   0.905   4.816   1.828 -0.8379 -0.2920  0.1807
 4706SOL    MW418592   0.931   4.897   1.844 -0.1766  0.1169 -0.1654
 4707SOL     OW18593   3.894   4.536   2.041  0.1013  0.0921  0.3200
 4707SOL    HW218594   3.823   4.506   2.098 -0.5061  0.6024 -0.1429
 4707SOL    HW318595   3.881   4.489   1.959 -1.4375  2.1709 -0.7499
 4707SOL    MW418596   3.883   4.526   2.037  0.0834  0.2836 -0.3644
 4708SOL     OW18597   5.995   1.436   1.013 -0.2292 -0.0383 -0.6467
 4708SOL    HW218598   5.967   1.344   1.015  0.2500 -0.2064 -1.3504
 4708SOL    HW318599   5.916   1.485   1.038 -0.7601 -0.5876 -1.1951
 4708SOL    MW418600   5.981   1.430   1.017  0.1877 -0.0475 -0.0951
 4709SOL     OW18601   4.657   4.449   0.186  0.6030 -0.2092  0.2613
 4709SOL    HW218602   4.644   4.452   0.092  0.1221  0.3884  0.3419
 4709SOL    HW318603   4.692   4.361   0.203 -1.3611 -1.1450 -0.2205
 4709SOL    MW418604   4.660   4.438   0.176  0.3683 -0.3194  0.4553
 4710SOL     OW18605   3.376   3.822   5.667  0.1233 -0.0176  0.0904
 4710SOL    HW218606   3.438   3.877   5.619  0.9462 -0.8000  0.2347
 4710SOL    HW318607   3.355   3.751   5.607  2.2728 -1.8108  1.3038
 4710SOL    MW418608   3.381   3.820   5.653  0.0895  0.2550  0.9284
 4711SOL     OW18609   4.778   1.669   0.929 -0.0973 -0.0165  0.5220
 4711SOL    HW218610   4.762   1.670   0.834 -0.5454 -0.4814  0.5871
 4711SOL    HW318611   4.693   1.692   0.967  0.1566  0.4562  0.8048
 4711SOL    MW418612   4.765   1.672   0.921 -0.0914 -0.1291 -0.5511
 4712SOL     OW18613   3.738   4.711   5.554 -0.1659  0.6107 -0.0221
 4712SOL    HW218614   3.788   4.709   5.635 -1.3873  1.9567  0.8269
 4712SOL    HW318615   3.671   4.779   5.569 -0.3174  1.0194 -2.2200
 4712SOL    MW418616   3.736   4.720   5.567 -0.2024 -0.0134  0.2074
 4713SOL     OW18617   4.332   3.812   3.350 -0.0912  0.2664 -0.5276
 4713SOL    HW218618   4.357   3.764   3.271  0.4565 -0.1346 -0.1188
 4713SOL    HW318619   4.240   3.836   3.334  0.0330  0.2631 -1.3142
 4713SOL    MW418620   4.323   3.809   3.337  0.3797 -0.1752  0.6944
 4714SOL     OW18621   3.556   2.335   0.786 -0.7793 -0.2234  0.2678
 4714SOL    HW218622   3.629   2.317   0.845  0.2638  1.6348 -0.3614
 4714SOL    HW318623   3.569   2.274   0.713 -0.4819 -0.6585  0.6841
 4714SOL    MW418624   3.567   2.325   0.784  0.0355  0.0809  0.5605
 4715SOL     OW18625   0.020   6.177   3.660  0.3224 -0.4337  0.0456
 4715SOL    HW218626   0.053   6.097   3.700  0.4643 -0.5240 -0.2478
 4715SOL    HW318627   0.083   6.244   3.684  0.5482 -0.5401 -0.2409
 4715SOL    MW418628   0.033   6.175   3.668  0.2111  0.0619 -0.4463
 4716SOL     OW18629   1.541   0.986   1.819 -0.0284  0.0731  0.6500
 4716SOL    HW218630   1.630   1.018   1.803 -0.0638 -0.4542 -0.7351
 4716SOL    HW318631   1.533   0.908   1.764 -0.5756 -1.2775  2.5453
 4716SOL    MW418632   1.552   0.980   1.810 -0.4303  0.1007 -0.4491
 4717SOL     OW18633   2.251   4.950   1.131  0.0453 -0.6744 -0.6581
 4717SOL    HW218634   2.186   4.897   1.084 -0.4132 -0.5451 -0.1810
 4717SOL    HW318635   2.243   5.037   1.093  2.3704 -1.3861 -3.0408
 4717SOL    MW418636   2.241   4.955   1.120 -0.0729 -0.6273 -0.1233
 4718SOL     OW18637   2.367   1.520   5.240 -0.2198  0.3718 -0.3091
 4718SOL    HW218638   2.323   1.514   5.156  0.2529  0.0682 -0.5393
 4718SOL    HW318639   2.425   1.444   5.243  0.3279  0.7845 -0.0409
 4718SOL    MW418640   2.369   1.510   5.229 -0.5457  0.0861 -0.8382
 4719SOL     OW18641   5.821   4.900   4.969  0.3871 -0.0655  0.0152
 4719SOL    HW218642   5.858   4.983   4.939 -0.2627  0.4611  0.6343
 4719SOL    HW318643   5.897   4.843   4.981  0.6689 -0.4255 -2.8646
 4719SOL    MW418644   5.836   4.903   4.967 -0.1842 -0.5050 -0.3838
 4720SOL     OW18645   5.353   5.019   2.561 -0.4162  0.1119 -0.2313
 4720SOL    HW218646   5.439   4.987   2.588  0.1892  1.7465 -0.1057
 4720SOL    HW318647   5.334   4.971   2.480  0.9607  0.2815 -0.6776
 4720SOL    MW418648   5.362   5.008   2.554 -0.1356 -0.1979 -0.4715
 4721SOL     OW18649   1.881   3.615   2.895 -0.2998  0.1154  0.0058
 4721SOL    HW218650   1.868   3.581   2.983  1.8390 -1.5040 -0.2288
 4721SOL    HW318651   1.908   3.706   2.908 -0.1648 -0.0560  1.0083
 4721SOL    MW418652   1.883   3.622   2.908  0.2283  0.6035  0.1020
 4722SOL     OW18653   1.788   5.338   3.619  0.5164 -0.3057  0.5387
 4722SOL    HW218654   1.870   5.386   3.631 -0.6951  2.1029 -0.2521
 4722SOL    HW318655   1.770   5.301   3.706  1.4458  0.7728  1.2332
 4722SOL    MW418656   1.797   5.340   3.632 -0.3119  0.9000 -0.0244
 4723SOL     OW18657   0.906   1.215   1.127 -0.0481  0.5901 -0.1337
 4723SOL    HW218658   0.826   1.205   1.179 -0.0978  1.1735 -0.0917
 4723SOL    HW318659   0.911   1.134   1.076 -0.5397  0.4458  0.0364
 4723SOL    MW418660   0.896   1.203   1.127 -0.2735 -0.3050  0.0294
 4724SOL     OW18661   6.159   1.024   4.699 -0.1928 -0.3430 -0.5028
 4724SOL    HW218662   6.245   1.062   4.715 -0.3553  0.5381 -1.6075
 4724SOL    HW318663   6.108   1.095   4.660 -0.7347 -1.4601 -1.9368
 4724SOL    MW418664   6.164   1.038   4.696 -0.0990  0.3662  0.5699
 4725SOL     OW18665   5.700   4.174   2.993 -0.1426 -0.2894  0.3923
 4725SOL    HW218666   5.728   4.159   2.903 -1.2706  1.2442 -0.2440
 4725SOL    HW318667   5.759   4.241   3.027 -2.0789  2.0351 -0.5496
 4725SOL    MW418668   5.711   4.181   2.986  0.2470  0.5796  0.1286
 4726SOL     OW18669   3.003   6.014   2.473  0.3721  0.0367 -0.5468
 4726SOL    HW218670   3.020   5.960   2.396  2.1364 -0.8022  0.3784
 4726SOL    HW318671   2.936   5.965   2.522 -1.6470  1.1416 -2.0169
 4726SOL    MW418672   2.996   6.000   2.470  0.3550 -0.0500 -0.5074
 4727SOL     OW18673   3.453   3.788   3.939 -0.2505  0.1341 -0.3361
 4727SOL    HW218674   3.482   3.739   3.863 -0.4047 -0.1779 -0.1989
 4727SOL    HW318675   3.530   3.837   3.968 -0.2897  0.5290 -0.9005
 4727SOL    MW418676   3.467   3.788   3.933  0.1770 -0.1405  0.3995
 4728SOL     OW18677   5.145   3.022   4.260  0.2789  0.5655  0.6989
 4728SOL    HW218678   5.181   2.985   4.180 -0.9606 -0.9329  0.7804
 4728SOL    HW318679   5.171   3.114   4.258  1.1136  0.3305 -0.9119
 4728SOL    MW418680   5.153   3.030   4.249 -0.5379  0.1236 -0.0387
 4729SOL     OW18681   5.731   0.595   1.601 -0.4299  0.0651  0.2756
 4729SOL    HW218682   5.796   0.564   1.664 -0.3168  0.7513  0.5104
 4729SOL    HW318683   5.769   0.576   1.516  0.1681  0.6174  0.4107
 4729SOL    MW418684   5.744   0.589   1.598  0.2572 -0.1506  0.1605
 4730SOL     OW18685   5.066   5.006   0.828  0.8737 -0.2278 -0.3255
 4730SOL    HW218686   4.984   4.958   0.819  1.6219 -1.4636 -0.7136
 4730SOL    HW318687   5.122   4.972   0.758  1.8954  0.2266  0.2515
 4730SOL    MW418688   5.062   4.995   0.818 -0.1608 -0.1878  0.0871
 4731SOL     OW18689   5.577   4.752   2.889  0.0502  0.1520 -0.3067
 4731SOL    HW218690   5.618   4.688   2.947  0.8770  1.0643  0.1406
 4731SOL    HW318691   5.492   4.770   2.929  0.9000  1.3221  1.0802
 4731SOL    MW418692   5.571   4.746   2.902 -0.6401 -0.3877  0.2429
 4732SOL     OW18693   4.654   3.312   3.470 -0.8380  0.3688 -0.5818
 4732SOL    HW218694   4.588   3.293   3.538  0.0641 -0.8115 -0.0104
 4732SOL    HW318695   4.704   3.386   3.505 -1.5546  0.9815 -0.8200
 4732SOL    MW418696   4.652   3.319   3.484 -0.4302  0.2451  0.0210
 4733SOL     OW18697   6.002   1.716   3.661  0.8972 -0.8296 -0.0006
 4733SOL    HW218698   6.011   1.622   3.677  1.6768 -0.7366  0.1718
 4733SOL    HW318699   5.908   1.732   3.658  0.7449 -1.8073 -1.1700
 4733SOL    MW418700   5.991   1.706   3.662 -0.2650 -0.3984  0.5463
 4734SOL     OW18701   4.521   2.080   0.431  0.7897 -0.2314  0.5684
 4734SOL    HW218702   4.603   2.032   0.422  0.3928 -0.6322 -1.3119
 4734SOL    HW318703   4.519   2.138   0.355 -1.6553 -1.8152 -0.7072
 4734SOL    MW418704   4.532   2.081   0.420  0.0176  0.0208 -0.0354
 4735SOL     OW18705   1.483   0.595   6.160 -0.0309  0.3235 -0.6244
 4735SOL    HW218706   1.452   0.685   6.161 -1.7048 -0.1406 -2.6348
 4735SOL    HW318707   1.577   0.601   6.145  0.0130  1.7278  0.1209
 4735SOL    MW418708   1.491   0.608   6.158  0.6357  0.1009 -0.6299
 4736SOL     OW18709   6.247   2.012   2.168  0.4311 -0.5168 -0.4645
 4736SOL    HW218710   6.327   2.005   2.219  1.4587 -0.0266 -1.9400
 4736SOL    HW318711   6.191   1.941   2.199  0.7268  0.1724  1.7717
 4736SOL    MW418712   6.250   2.002   2.179 -0.2000  0.0310  0.4049
 4737SOL     OW18713   5.425   5.486   2.447  0.3270  0.0511  0.1468
 4737SOL    HW218714   5.388   5.518   2.529 -0.4875 -2.0785  0.6538
 4737SOL    HW318715   5.352   5.489   2.385  0.5603  0.2918 -0.1195
 4737SOL    MW418716   5.411   5.491   2.449 -0.0619  0.2623  0.2692
 4738SOL     OW18717   1.893   3.540   2.479  0.0761 -0.0172 -0.6816
 4738SOL    HW218718   1.834   3.559   2.552 -1.2277  1.2020 -1.9854
 4738SOL    HW318719   1.975   3.514   2.521 -1.7634 -3.5493  1.2947
 4738SOL    MW418720   1.896   3.539   2.494 -0.3610  0.1473  0.3665
 4739SOL     OW18721   4.369   6.150   1.095  0.0959  0.5830  0.5827
 4739SOL    HW218722   4.440   6.167   1.032  1.0898 -0.6024  1.3347
 4739SOL    HW318723   4.336   6.237   1.118 -1.2278  1.0470 -2.5517
 4739SOL    MW418724   4.374   6.164   1.089  0.0767 -0.3255  0.0397
 4740SOL     OW18725   3.419   0.405   3.398  0.1690  0.4154  0.5730
 4740SOL    HW218726   3.466   0.322   3.412  0.9624  1.1167  2.3358
 4740SOL    HW318727   3.474   0.471   3.439 -0.9053  1.7161  0.0062
 4740SOL    MW418728   3.433   0.403   3.405 -0.2641 -0.3854 -0.2710
 4741SOL     OW18729   3.484   1.773   2.222 -0.0196 -0.1091  0.5418
 4741SOL    HW218730   3.445   1.728   2.147 -0.3310  0.6857  0.2104
 4741SOL    HW318731   3.493   1.864   2.193  0.3717  0.0950  1.2763
 4741SOL    MW418732   3.480   1.779   2.208  0.2397 -0.2927  0.3574
 4742SOL     OW18733   1.899   2.957   4.858 -0.1210  0.2279 -0.0454
 4742SOL    HW218734   1.822   2.914   4.820 -0.6436  0.4594  0.7383
 4742SOL    HW318735   1.973   2.924   4.806 -0.7286 -0.1154 -0.7038
 4742SOL    MW418736   1.899   2.947   4.846  0.1147  0.8262 -0.4246
 4743SOL     OW18737   0.246   6.339   6.041 -0.6663  0.3027  0.5883
 4743SOL    HW218738   0.212   6.426   6.062 -2.6676 -0.4399  0.6274
 4743SOL    HW318739   0.221   6.324   5.950  2.1397  0.8308 -0.3680
 4743SOL    MW418740   0.238   6.348   6.032 -0.1080 -0.0841  0.5161
 4744SOL     OW18741   1.863   5.872   3.520  0.4794 -0.0928  0.5094
 4744SOL    HW218742   1.949   5.895   3.555  0.3027  0.9810  0.2797
 4744SOL    HW318743   1.882   5.815   3.445  0.9519 -0.4291  0.8792
 4744SOL    MW418744   1.877   5.868   3.514  0.3792 -0.0957  0.3395
 4745SOL     OW18745   1.320   4.119   1.843  0.2040 -0.6589 -0.0070
 4745SOL    HW218746   1.259   4.155   1.779  1.7363 -0.2313 -1.2976
 4745SOL    HW318747   1.361   4.045   1.797  0.2934 -1.2537  1.0125
 4745SOL    MW418748   1.318   4.114   1.828  0.2370  0.8263  0.0380
 4746SOL     OW18749   6.181   2.760   4.820  0.4695  0.2613  0.2676
 4746SOL    HW218750   6.112   2.776   4.756  0.8582  1.2125  0.0635
 4746SOL    HW318751   6.173   2.831   4.883  1.7676  0.8725 -0.2186
 4746SOL    MW418752   6.171   2.771   4.820  0.0821 -0.6626 -0.1083
 4747SOL     OW18753   6.364   6.188   1.367 -0.3682  0.1389 -0.1147
 4747SOL    HW218754   6.328   6.156   1.284 -1.2420  2.2784 -0.6268
 4747SOL    HW318755   6.335   6.124   1.432 -0.9041 -0.8039 -1.2420
 4747SOL    MW418756   6.355   6.175   1.365  0.5626  0.3884 -0.1187
 4748SOL     OW18757   5.978   5.882   4.641  0.7865  0.2214 -0.0186
 4748SOL    HW218758   6.025   5.839   4.570  1.2269 -0.5310  0.7040
 4748SOL    HW318759   5.894   5.907   4.603  0.4633 -1.3784 -0.4664
 4748SOL    MW418760   5.973   5.879   4.627 -0.4903 -0.0370 -0.2042
 4749SOL     OW18761   1.738   0.510   0.442 -0.4022  0.0729  0.4789
 4749SOL    HW218762   1.685   0.502   0.522 -1.8007  0.2043 -0.4042
 4749SOL    HW318763   1.730   0.425   0.399  0.3823 -0.0137  0.4839
 4749SOL    MW418764   1.730   0.498   0.447  0.3505  0.1317  0.1638
 4750SOL     OW18765   5.014   5.681   2.876 -0.3301  0.0943  0.7504
 4750SOL    HW218766   4.958   5.744   2.830 -1.7184 -1.3974  0.2783
 4750SOL    HW318767   4.995   5.597   2.834 -1.0487 -1.2246  3.4539
 4750SOL    MW418768   5.004   5.678   2.865 -0.1646 -0.2474 -0.3712
 4751SOL     OW18769   0.932   1.726   2.474 -0.1792 -0.0226 -0.1284
 4751SOL    HW218770   0.877   1.648   2.472  1.5845 -1.3464  0.4971
 4751SOL    HW318771   0.974   1.727   2.388  0.2219 -0.1046  0.0629
 4751SOL    MW418772   0.931   1.716   2.462 -0.7536  0.3110  0.3257
 4752SOL     OW18773   1.521   1.512   5.100  0.1521  0.1382  0.7442
 4752SOL    HW218774   1.612   1.503   5.071 -0.7944 -2.4843 -1.8787
 4752SOL    HW318775   1.478   1.563   5.032 -1.0858 -1.8904 -0.0765
 4752SOL    MW418776   1.527   1.517   5.087  0.6333  0.1054  0.1261
 4753SOL     OW18777   3.885   2.399   2.201 -0.7190 -0.2152  0.5104
 4753SOL    HW218778   3.861   2.430   2.288  0.2172 -1.0018  1.0692
 4753SOL    HW318779   3.852   2.309   2.198  1.4567 -1.0830  1.0443
 4753SOL    MW418780   3.877   2.392   2.212  0.5804  0.3882  0.2409
 4754SOL     OW18781   3.240   4.788   5.576 -0.0397 -0.6651 -0.1619
 4754SOL    HW218782   3.220   4.724   5.508 -0.9781  0.6704 -1.1895
 4754SOL    HW318783   3.264   4.867   5.528  1.4526 -0.3215  1.0744
 4754SOL    MW418784   3.241   4.790   5.561 -0.6441 -0.3557  0.4596
 4755SOL     OW18785   2.768   3.400   5.581  0.0008  0.0568 -0.0095
 4755SOL    HW218786   2.767   3.368   5.671 -0.2694  0.1175  0.0110
 4755SOL    HW318787   2.857   3.383   5.550 -0.3196 -1.3010 -0.2200
 4755SOL    MW418788   2.780   3.394   5.589 -0.5549  0.0952  0.2345
 4756SOL     OW18789   5.742   2.316   1.114 -0.0035  0.4738  0.2766
 4756SOL    HW218790   5.751   2.401   1.071 -1.1824  0.0820 -0.8253
 4756SOL    HW318791   5.691   2.334   1.193 -0.7369  0.7229 -0.2440
 4756SOL    MW418792   5.736   2.330   1.119  0.3018  0.1395  0.0319
 4757SOL     OW18793   4.562   4.760   0.773  0.5267 -0.0623  0.0732
 4757SOL    HW218794   4.504   4.701   0.821  1.0987 -0.3451  0.4274
 4757SOL    HW318795   4.566   4.724   0.685 -0.3563  0.3346 -0.1366
 4757SOL    MW418796   4.555   4.747   0.768  0.1132 -0.2112 -0.4117
 4758SOL     OW18797   3.572   5.693   2.967 -0.1872 -0.2346  0.2123
 4758SOL    HW218798   3.550   5.712   3.058 -5.2423 -0.0288 -0.7732
 4758SOL    HW318799   3.554   5.600   2.957 -1.9013  0.1713 -0.9602
 4758SOL    MW418800   3.567   5.683   2.978 -0.5360 -0.2976 -0.2894
 4759SOL     OW18801   4.890   0.151   4.977 -0.3216  0.4696 -0.3587
 4759SOL    HW218802   4.874   0.141   4.883 -2.7510 -0.8437  0.0879
 4759SOL    HW318803   4.878   0.063   5.013 -2.9210  1.4410  1.5299
 4759SOL    MW418804   4.886   0.138   4.970  0.1302  0.1934 -0.2639
 4760SOL     OW18805   1.907   3.812   4.567  0.0179  0.1866 -0.6799
 4760SOL    HW218806   1.891   3.883   4.505  0.2475 -0.0688 -1.0373
 4760SOL    HW318807   1.820   3.778   4.588 -0.0018 -0.3906 -1.6537
 4760SOL    MW418808   1.893   3.817   4.562 -0.6782  0.0866 -0.3281
 4761SOL     OW18809   0.720   2.416   0.646  0.1946 -0.0585 -0.1334
 4761SOL    HW218810   0.655   2.346   0.637 -0.3509  0.6329 -1.8147
 4761SOL    HW318811   0.790   2.376   0.698 -0.5500 -1.5285 -0.1942
 4761SOL    MW418812   0.721   2.401   0.652 -0.0919  0.0382  0.4213
 4762SOL     OW18813   5.879   5.636   1.824 -0.1181 -0.2329 -0.0243
 4762SOL    HW218814   5.797   5.674   1.791 -0.9186 -1.2141  0.7317
 4762SOL    HW318815   5.912   5.584   1.751  0.3494  0.9055 -0.6513
 4762SOL    MW418816   5.872   5.634   1.810 -0.5825 -0.0536 -0.3750
 4763SOL     OW18817   0.980   5.850   0.061 -0.4725  0.4245  0.1371
 4763SOL    HW218818   0.923   5.922   0.032 -1.4204 -0.6511 -0.7465
 4763SOL    HW318819   0.981   5.857   0.157 -2.3031  0.3317  0.1905
 4763SOL    MW418820   0.973   5.861   0.070 -0.2041 -0.5520  0.1069
 4764SOL     OW18821   3.828   4.423   5.052  0.4227 -0.3073 -0.5034
 4764SOL    HW218822   3.736   4.399   5.057  0.0741  1.1948  1.1667
 4764SOL    HW318823   3.870   4.350   5.006 -1.1373 -2.3261  1.0965
 4764SOL    MW418824   3.822   4.410   5.046  0.0931  0.6506 -0.6928
 4765SOL     OW18825   5.787   2.045   2.175 -0.0976  0.0303  0.1510
 4765SOL    HW218826   5.735   2.047   2.256  0.3548 -1.6783  0.5221
 4765SOL    HW318827   5.755   2.120   2.125 -1.4687  0.2355  1.2526
 4765SOL    MW418828   5.776   2.055   2.179 -0.3575  0.0581  0.0662
 4766SOL     OW18829   4.022   5.513   5.246  0.1255  0.0073  0.1788
 4766SOL    HW218830   4.037   5.570   5.322 -0.0821  0.4652 -0.1243
 4766SOL    HW318831   4.081   5.439   5.261 -1.6585 -1.1485  2.0395
 4766SOL    MW418832   4.032   5.510   5.258  0.6275 -0.6446  0.1876
 4767SOL     OW18833   1.374   3.177   2.748  0.1283 -0.4915  0.0476
 4767SOL    HW218834   1.319   3.154   2.823 -1.4065  0.4192 -0.7476
 4767SOL    HW318835   1.453   3.215   2.787 -1.8600  2.8089  1.3356
 4767SOL    MW418836   1.378   3.179   2.763 -0.1838 -0.0807  0.2022
 4768SOL     OW18837   5.366   1.322   1.530  0.2085 -0.2589 -0.1920
 4768SOL    HW218838   5.424   1.311   1.454 -1.5595 -1.6571 -1.4321
 4768SOL    HW318839   5.345   1.233   1.557 -0.2310  0.2273  1.1565
 4768SOL    MW418840   5.371   1.309   1.523 -0.0460 -0.0618 -0.1484
 4769SOL     OW18841   4.097   4.683   1.706  0.0858  0.1286 -0.5298
 4769SOL    HW218842   4.048   4.652   1.630 -1.1179 -0.9943  0.6431
 4769SOL    HW318843   4.071   4.775   1.715 -0.7410 -0.0706 -0.7696
 4769SOL    MW418844   4.087   4.691   1.697 -0.1581  0.2422 -0.4172
 4770SOL     OW18845   5.867   2.814   2.606  0.3504 -0.0587  0.2617
 4770SOL    HW218846   5.890   2.819   2.699 -1.6606  1.7356  0.7300
 4770SOL    HW318847   5.812   2.890   2.591 -0.1450 -0.8305 -2.2037
 4770SOL    MW418848   5.863   2.825   2.617 -0.4403 -0.0106 -0.1345
 4771SOL     OW18849   4.022   0.021   4.329  0.4638 -0.1246  0.1775
 4771SOL    HW218850   4.084   0.009   4.257  0.5014  0.1343  0.1674
 4771SOL    HW318851   4.048  -0.045   4.394 -0.8305 -1.7487 -0.8877
 4771SOL    MW418852   4.034   0.011   4.328 -0.3201  0.0346 -0.1934
 4772SOL     OW18853   4.243   3.440   3.401  0.5560  0.2758 -0.0367
 4772SOL    HW218854   4.208   3.523   3.433  0.3814 -0.0669  0.6877
 4772SOL    HW318855   4.222   3.377   3.470  2.5236  0.0468  0.4121
 4772SOL    MW418856   4.236   3.442   3.414  0.6333 -0.0010  0.5414
 4773SOL     OW18857   3.054   3.393   5.119  0.6133  0.2772 -0.1962
 4773SOL    HW218858   2.977   3.451   5.118  0.5437  0.1813 -0.6350
 4773SOL    HW318859   3.016   3.305   5.113  0.8119  0.2896 -3.1589
 4773SOL    MW418860   3.039   3.389   5.118  1.1405  0.2127 -0.2406
 4774SOL     OW18861   1.276   3.369   0.467  0.1199 -0.3338 -0.1082
 4774SOL    HW218862   1.299   3.294   0.522 -0.4519  0.5520  1.4059
 4774SOL    HW318863   1.185   3.389   0.489  0.2377  0.7550 -0.5216
 4774SOL    MW418864   1.267   3.362   0.477 -0.1018 -0.0294 -0.2590
 4775SOL     OW18865   6.121   2.214   3.884 -0.4133 -0.4236 -0.3676
 4775SOL    HW218866   6.089   2.151   3.949  0.3786  0.0205  0.4666
 4775SOL    HW318867   6.142   2.160   3.808 -0.4956 -1.0689  0.0523
 4775SOL    MW418868   6.119   2.198   3.883 -0.1816  0.1558  0.5472
 4776SOL     OW18869   5.821   1.890   4.419  0.0392  0.3747  0.4531
 4776SOL    HW218870   5.895   1.949   4.404 -0.5271  0.9082 -0.3117
 4776SOL    HW318871   5.751   1.947   4.453 -0.0292 -0.1242  1.1790
 4776SOL    MW418872   5.821   1.905   4.422 -0.1461  0.2545  0.2978
 4777SOL     OW18873   5.125   4.653   4.001 -0.6061  0.1778 -0.1280
 4777SOL    HW218874   5.054   4.658   3.937  1.4751 -1.8972 -2.8714
 4777SOL    HW318875   5.196   4.704   3.962  1.4047 -2.7516 -0.6631
 4777SOL    MW418876   5.125   4.660   3.988 -0.4209  0.4414  0.4495
 4778SOL     OW18877   6.025   4.994   0.138  0.0882 -0.6813  0.1592
 4778SOL    HW218878   6.058   4.928   0.078 -1.0029 -2.0025  0.9683
 4778SOL    HW318879   6.079   4.984   0.217  1.1263  0.6497 -0.3442
 4778SOL    MW418880   6.036   4.984   0.141 -0.3165 -0.0333 -0.4232
 4779SOL     OW18881   2.212   0.807   6.027 -0.4476  0.4346  0.1568
 4779SOL    HW218882   2.202   0.725   6.075 -0.3851 -0.0862 -0.7016
 4779SOL    HW318883   2.299   0.838   6.050 -0.1934 -0.1087 -0.0739
 4779SOL    MW418884   2.222   0.800   6.037 -0.6189  0.8637 -0.2613
 4780SOL     OW18885   5.960   3.627   0.698  0.3903 -0.4869  0.1215
 4780SOL    HW218886   5.986   3.649   0.788  0.3779  0.4567 -0.0928
 4780SOL    HW318887   6.024   3.672   0.643 -0.1477 -0.2906 -0.3555
 4780SOL    MW418888   5.972   3.636   0.703  0.4676  0.1034 -0.1644
 4781SOL     OW18889   0.381   2.906   0.065 -0.1624  0.6056 -0.6456
 4781SOL    HW218890   0.307   2.966   0.078 -1.8518 -1.7044  1.1325
 4781SOL    HW318891   0.350   2.844  -0.001  0.2373 -0.2835 -0.0128
 4781SOL    MW418892   0.367   2.906   0.058  0.1722 -0.4251 -0.2377
 4782SOL     OW18893   3.478   0.063   3.925 -0.3670 -0.0462  0.0012
 4782SOL    HW218894   3.557   0.074   3.871  0.7904  0.8217  1.7740
 4782SOL    HW318895   3.424   0.002   3.876  1.5329 -0.8906 -1.1599
 4782SOL    MW418896   3.481   0.056   3.911 -0.0737  0.0686  0.4900
 4783SOL     OW18897   4.479   1.133   5.160 -1.3707 -0.0035 -0.4541
 4783SOL    HW218898   4.499   1.058   5.215 -2.3963  0.2712  0.3313
 4783SOL    HW318899   4.431   1.193   5.217  0.1308  1.6482 -0.8277
 4783SOL    MW418900   4.475   1.131   5.175  0.6013 -0.1120  0.3089
 4784SOL     OW18901   4.115   2.543   5.385 -0.3244 -0.2712  0.2185
 4784SOL    HW218902   4.149   2.457   5.361  1.4141  0.3931  0.1670
 4784SOL    HW318903   4.126   2.548   5.480 -0.5787 -0.1680  0.2439
 4784SOL    MW418904   4.121   2.532   5.394  0.6074 -0.6462  0.1791
 4785SOL     OW18905   6.016   1.335   5.414  0.7013 -0.6476  0.1043
 4785SOL    HW218906   5.935   1.330   5.363  0.5079 -1.2312  0.4693
 4785SOL    HW318907   6.029   1.429   5.428 -1.1367 -0.6181  1.9924
 4785SOL    MW418908   6.007   1.347   5.409  0.0200  0.0348 -0.1952
 4786SOL     OW18909   3.731   2.679   6.415 -0.2820 -0.1397  0.1689
 4786SOL    HW218910   3.806   2.727   6.381  0.1950 -0.4080  0.8233
 4786SOL    HW318911   3.669   2.677   6.342 -0.1829  1.1766  0.0248
 4786SOL    MW418912   3.733   2.685   6.401 -0.3342  0.0849  0.2078
 4787SOL     OW18913   6.329   4.766   1.241  0.4056 -0.1659  0.0435
 4787SOL    HW218914   6.350   4.857   1.261 -0.0083  0.3585 -1.7549
 4787SOL    HW318915   6.369   4.716   1.313 -0.7112  1.5120  1.9388
 4787SOL    MW418916   6.337   4.772   1.253  0.1791  0.4128 -0.4017
 4788SOL     OW18917   4.046   5.194   2.644  0.0315  0.1549 -0.4919
 4788SOL    HW218918   4.061   5.100   2.643 -0.0891  0.1336 -0.4409
 4788SOL    HW318919   4.133   5.233   2.652  0.0717  0.0435 -0.3788
 4788SOL    MW418920   4.059   5.187   2.645 -0.0420 -0.3214 -0.1230
 4789SOL     OW18921   4.799   2.036   4.269  0.5464 -0.2566 -0.1541
 4789SOL    HW218922   4.764   1.969   4.211 -1.2100  0.9711 -0.5918
 4789SOL    HW318923   4.722   2.073   4.313  1.3995  1.7188 -0.2138
 4789SOL    MW418924   4.784   2.032   4.267  0.4952 -0.1166  0.3803
 4790SOL     OW18925   4.352   6.130   0.557  0.1651 -0.1618  0.3903
 4790SOL    HW218926   4.416   6.188   0.598  0.1212 -0.5507  1.0042
 4790SOL    HW318927   4.274   6.137   0.612 -0.4373  0.5398 -0.5138
 4790SOL    MW418928   4.350   6.139   0.569 -0.3502 -0.7921 -0.1509
 4791SOL     OW18929   1.846   5.501   3.244  0.1639 -0.1709 -0.4069
 4791SOL    HW218930   1.790   5.468   3.315  2.8776 -1.6550  1.2065
 4791SOL    HW318931   1.827   5.443   3.170  0.1150 -1.1823  0.3699
 4791SOL    MW418932   1.836   5.489   3.244 -0.0114  0.1207  0.3975
 4792SOL     OW18933   2.458   6.294   5.387  0.9978 -0.1243  0.9337
 4792SOL    HW218934   2.405   6.217   5.363 -1.0745  1.7118 -0.8925
 4792SOL    HW318935   2.526   6.298   5.320  1.3179 -0.5526  1.2318
 4792SOL    MW418936   2.460   6.284   5.375 -0.2270  0.8266  0.2693
 4793SOL     OW18937   0.235   0.610   2.541  0.4323  0.1843  0.4969
 4793SOL    HW218938   0.274   0.693   2.513 -1.0942  0.4700 -0.9919
 4793SOL    HW318939   0.309   0.551   2.554  1.4280  0.9761 -1.2664
 4793SOL    MW418940   0.250   0.613   2.539 -0.4140 -0.3835 -0.4601
 4794SOL     OW18941   6.191   5.729   3.022  1.5005 -0.1965  0.1760
 4794SOL    HW218942   6.157   5.703   3.108  1.8329  0.2977  0.4703
 4794SOL    HW318943   6.194   5.649   2.971  0.2878 -0.3198  0.2733
 4794SOL    MW418944   6.187   5.715   3.027  0.4826  0.2134 -0.5937
 4795SOL     OW18945   5.014   1.783   6.123  0.7262 -0.0136  0.0671
 4795SOL    HW218946   5.024   1.773   6.217  0.8593 -0.4094  0.0114
 4795SOL    HW318947   4.953   1.856   6.113 -0.1040 -0.6439  0.4709
 4795SOL    MW418948   5.008   1.791   6.134  0.2046  0.6841  0.8381
 4796SOL     OW18949   0.205   4.892   0.298 -0.0688 -0.0455  0.3352
 4796SOL    HW218950   0.253   4.810   0.309 -0.3374 -0.8003 -2.9418
 4796SOL    HW318951   0.272   4.956   0.272 -0.2655 -0.0762 -0.2697
 4796SOL    MW418952   0.220   4.890   0.296  0.3859  0.1653 -0.7638
 4797SOL     OW18953   2.904   3.597   6.062 -0.1042 -0.4738  0.2660
 4797SOL    HW218954   2.957   3.669   6.027  0.9952 -0.7726  1.2445
 4797SOL    HW318955   2.816   3.635   6.072  0.4665  0.7822  0.8207
 4797SOL    MW418956   2.899   3.612   6.059 -0.6634 -0.6272  0.4212
 4798SOL     OW18957   5.911   2.208   5.923  0.2676  0.2898  0.5766
 4798SOL    HW218958   5.871   2.294   5.911  0.7496  0.4938  0.4263
 4798SOL    HW318959   5.882   2.181   6.010 -0.9082  0.0486  0.1324
 4798SOL    MW418960   5.902   2.216   5.933 -0.1776 -0.2946 -0.0030
 4799SOL     OW18961   2.768   5.824   6.414 -0.3435 -0.4318  0.0421
 4799SOL    HW218962   2.741   5.915   6.398  2.5669  0.4347 -0.6004
 4799SOL    HW318963   2.770   5.817   6.509 -1.4704 -0.1507  0.1064
 4799SOL    MW418964   2.765   5.835   6.424 -0.2461  0.2604 -0.1182
 4800SOL     OW18965   2.364   4.453   1.979  0.4973  0.4521  0.6076
 4800SOL    HW218966   2.367   4.359   1.965  0.2883  0.5738 -0.3215
 4800SOL    HW318967   2.424   4.489   1.913 -1.2058  1.1072 -0.6825
 4800SOL    MW418968   2.372   4.446   1.968 -0.1812  0.0649 -0.0988
 4801SOL     OW18969   5.676   2.210   4.090  0.8254 -0.4005 -0.1190
 4801SOL    HW218970   5.585   2.232   4.070  1.5698  0.8185 -2.6241
 4801SOL    HW318971   5.693   2.251   4.175 -0.9773 -0.8036  0.4729
 4801SOL    MW418972   5.666   2.219   4.099  0.3394  0.1598 -0.1589
 4802SOL     OW18973   3.087   2.637   4.357  0.3052 -0.0628  0.4392
 4802SOL    HW218974   3.109   2.584   4.434  0.2706 -1.3051 -0.3841
 4802SOL    HW318975   3.109   2.582   4.282 -0.5971  0.7412 -0.4550
 4802SOL    MW418976   3.093   2.623   4.357 -0.3957 -0.1087 -0.1677
 4803SOL     OW18977   5.005   0.393   1.390 -0.1724 -0.4995  0.3700
 4803SOL    HW218978   4.947   0.358   1.458  0.2370 -0.4773  0.7289
 4803SOL    HW318979   4.952   0.389   1.310  0.1625 -2.7920  0.2069
 4803SOL    MW418980   4.990   0.388   1.389  0.4878  0.0519  0.3549
 4804SOL     OW18981   2.347   4.351   4.218 -0.3933  0.4736 -0.2388
 4804SOL    HW218982   2.436   4.328   4.191 -0.6217 -0.6341 -0.0554
 4804SOL    HW318983   2.305   4.382   4.137 -0.7977 -1.9918 -1.0447
 4804SOL    MW418984   2.353   4.352   4.203  0.2803  0.3331  0.7392
 4805SOL     OW18985   2.992   2.248   2.438 -0.3551  0.6107  0.0483
 4805SOL    HW218986   2.956   2.324   2.483 -0.8617  0.7531 -0.5856
 4805SOL    HW318987   3.068   2.222   2.492 -1.4070  0.2727  1.4256
 4805SOL    MW418988   2.998   2.254   2.451 -0.1474  0.0710 -0.1447
 4806SOL     OW18989   1.929   3.732   1.207 -0.0804 -0.6982 -0.1514
 4806SOL    HW218990   1.914   3.695   1.294  0.9580 -1.9168 -0.4741
 4806SOL    HW318991   1.873   3.810   1.205 -1.6366 -1.7320  0.8648
 4806SOL    MW418992   1.919   3.738   1.218  0.0202  0.9369 -0.1670
 4807SOL     OW18993   2.071   5.482   1.367 -0.3149 -0.6791  0.6356
 4807SOL    HW218994   2.123   5.563   1.361 -1.2817 -0.1184 -0.5398
 4807SOL    HW318995   2.128   5.415   1.330  0.1119 -0.3480  0.6729
 4807SOL    MW418996   2.086   5.484   1.361  0.0332  0.3271 -0.5645
 4808SOL     OW18997   5.871   3.930   4.812  0.1466 -0.5011 -0.1503
 4808SOL    HW218998   5.918   4.007   4.845  0.8334 -1.5154  1.3505
 4808SOL    HW318999   5.795   3.923   4.869  0.2051 -1.0534 -0.1379
 4808SOL    MW419000   5.867   3.940   4.824 -0.0805 -0.1235  0.1833
 4809SOL     OW19001   0.536   3.039   5.843  0.5366 -0.0079  0.3405
 4809SOL    HW219002   0.621   3.081   5.835  1.2584 -1.5155 -0.3083
 4809SOL    HW319003   0.524   2.993   5.760 -0.1427 -1.1653  1.0534
 4809SOL    MW419004   0.545   3.038   5.831  0.5110 -0.0295 -0.2796
 4810SOL     OW19005   1.602   5.615   2.412  0.2322 -0.7189 -0.4516
 4810SOL    HW219006   1.523   5.634   2.463  0.7136  0.6613 -0.1809
 4810SOL    HW319007   1.658   5.568   2.473  0.1787 -0.4697 -0.2099
 4810SOL    MW419008   1.599   5.611   2.427  0.3565  0.1291 -0.2740
 4811SOL     OW19009   1.488   4.542   3.937 -0.0858 -0.0469  0.0110
 4811SOL    HW219010   1.437   4.483   3.992 -1.9611 -0.7009 -2.2755
 4811SOL    HW319011   1.563   4.489   3.909 -0.3465 -0.4627  0.0916
 4811SOL    MW419012   1.492   4.527   3.941 -0.0985 -0.4592  0.1684
 4812SOL     OW19013   1.665   5.329   4.426 -0.5977 -0.3518 -0.3381
 4812SOL    HW219014   1.587   5.274   4.437 -0.3932 -0.3681  1.2731
 4812SOL    HW319015   1.638   5.396   4.363 -1.6124 -0.8984 -0.5077
 4812SOL    MW419016   1.651   5.330   4.419 -0.1115  0.1109  0.6433
 4813SOL     OW19017   1.038   5.574   2.473  0.3052  1.1484 -0.1968
 4813SOL    HW219018   1.065   5.565   2.382 -0.0151  0.5535 -0.2361
 4813SOL    HW319019   0.967   5.638   2.471  0.1120  0.9259 -0.4001
 4813SOL    MW419020   1.032   5.581   2.461  0.0586  0.0416 -0.1341
 4814SOL     OW19021   0.969   4.990   2.314  0.1352  0.7362 -0.4181
 4814SOL    HW219022   1.025   4.913   2.304  2.9106  2.8172 -2.5915
 4814SOL    HW319023   0.909   4.987   2.240  1.1917  1.3035 -1.3280
 4814SOL    MW419024   0.969   4.980   2.303 -0.2271  0.2247 -0.2447
 4815SOL     OW19025   5.759   2.025   5.647 -0.3673  0.4909  0.0877
 4815SOL    HW219026   5.841   2.074   5.642 -0.0274 -0.0304  0.4197
 4815SOL    HW319027   5.726   2.042   5.735  1.6027 -2.7072  1.6156
 4815SOL    MW419028   5.765   2.033   5.658  0.4131  0.0945 -0.1573
 4816SOL     OW19029   4.483   1.526   2.807  0.9155 -0.2425  0.2148
 4816SOL    HW219030   4.513   1.579   2.734  0.6019 -1.3204 -0.7352
 4816SOL    HW319031   4.543   1.451   2.809  1.1265 -0.0735  1.2893
 4816SOL    MW419032   4.495   1.523   2.798 -0.0115  0.9134 -0.1144
 4817SOL     OW19033   6.384   3.020   3.034 -0.0559 -0.5189 -0.1016
 4817SOL    HW219034   6.402   3.085   3.102  0.6624 -2.0508  1.2109
 4817SOL    HW319035   6.325   3.066   2.973 -3.2303  0.0330  3.0435
 4817SOL    MW419036   6.379   3.035   3.035  0.0645 -0.3884 -0.0870
 4818SOL     OW19037   2.474   1.134   4.865 -0.1053 -0.3521  0.3615
 4818SOL    HW219038   2.526   1.143   4.945 -0.1664  1.3765  0.2430
 4818SOL    HW319039   2.512   1.197   4.804  0.4530 -2.2074 -1.2906
 4818SOL    MW419040   2.486   1.143   4.868  0.0247 -0.0505 -0.1481
 4819SOL     OW19041   0.988   0.977   3.388 -0.2883 -0.2011 -0.1317
 4819SOL    HW219042   1.042   0.997   3.311 -1.1939 -0.8366 -0.9608
 4819SOL    HW319043   1.050   0.942   3.452  0.8328  2.3488  0.2665
 4819SOL    MW419044   1.003   0.975   3.386  0.0090  0.1582  0.4629
 4820SOL     OW19045   5.189   4.345   2.756  0.1278 -0.5460 -0.1185
 4820SOL    HW219046   5.245   4.290   2.701 -0.3769 -0.9568 -0.2394
 4820SOL    HW319047   5.200   4.433   2.722 -1.1954 -0.9666 -1.7836
 4820SOL    MW419048   5.197   4.349   2.744  0.5281  0.0498 -0.8832
 4821SOL     OW19049   1.952   5.316   5.807 -0.4521 -0.2456 -0.5151
 4821SOL    HW219050   2.003   5.392   5.779 -0.8219  0.2374  0.0894
 4821SOL    HW319051   1.956   5.319   5.903  0.6619 -1.7647 -0.4912
 4821SOL    MW419052   1.959   5.326   5.816 -1.0937 -0.7509  0.1624
 4822SOL     OW19053   5.329   2.495   4.066 -0.4898  0.1616  0.3544
 4822SOL    HW219054   5.240   2.486   4.033 -0.2257  0.3304 -0.4282
 4822SOL    HW319055   5.365   2.407   4.060 -0.6643  0.0567  0.8488
 4822SOL    MW419056   5.322   2.482   4.061 -0.2466 -0.7810  0.1497
 4823SOL     OW19057   1.350   1.630   0.642 -0.6683 -0.0843 -0.5978
 4823SOL    HW219058   1.439   1.656   0.666 -1.3471  0.6311  1.3896
 4823SOL    HW319059   1.360   1.547   0.596  0.8637 -1.4848  2.0675
 4823SOL    MW419060   1.363   1.623   0.639 -0.3089  0.7598  0.2009
 4824SOL     OW19061   2.214   3.931   2.797 -0.4746  0.4851  0.0628
 4824SOL    HW219062   2.214   4.009   2.852 -1.1272  0.0063  0.7673
 4824SOL    HW319063   2.186   3.962   2.711 -0.8645  0.9996  0.3714
 4824SOL    MW419064   2.210   3.945   2.793  0.2058  0.2032 -0.7104
 4825SOL     OW19065   4.661   2.759   0.328 -0.0208  0.1505  0.4216
 4825SOL    HW219066   4.639   2.666   0.323  0.5421  0.0493 -0.3526
 4825SOL    HW319067   4.743   2.767   0.278 -1.2256  1.4190 -1.4914
 4825SOL    MW419068   4.669   2.748   0.320  0.3756 -1.0850 -0.3032
 4826SOL     OW19069   3.081   5.702   1.122  0.4653 -0.4342 -0.0103
 4826SOL    HW219070   3.034   5.658   1.052  0.0260  0.8288 -0.5519
 4826SOL    HW319071   3.173   5.680   1.108  0.3054 -0.7783 -0.5388
 4826SOL    MW419072   3.087   5.694   1.111 -0.7820 -0.0713 -0.2457
 4827SOL     OW19073   3.065   3.591   0.335  0.0575  0.3406 -0.1786
 4827SOL    HW219074   3.109   3.569   0.252 -1.0592  1.1993 -1.0358
 4827SOL    HW319075   3.025   3.509   0.363  1.0291 -0.1192 -0.1222
 4827SOL    MW419076   3.065   3.577   0.328  0.2739 -0.2719 -0.4690
 4828SOL     OW19077   5.672   1.901   4.715  0.1541  0.0045  0.2257
 4828SOL    HW219078   5.659   1.939   4.628 -0.0434  1.5324  0.8799
 4828SOL    HW319079   5.635   1.813   4.709 -1.7898  0.8242 -0.6551
 4828SOL    MW419080   5.665   1.895   4.703 -0.5108  0.0139 -0.1369
 4829SOL     OW19081   5.640   2.375   1.354  0.3379  0.2507 -0.3253
 4829SOL    HW219082   5.596   2.455   1.328  0.3230 -0.0524 -1.2570
 4829SOL    HW319083   5.688   2.399   1.434 -1.1587  0.6873  0.4816
 4829SOL    MW419084   5.641   2.388   1.361  0.0515 -0.6261 -0.4586
 4830SOL     OW19085   5.121   0.737   1.171 -0.0978 -0.4059  0.2810
 4830SOL    HW219086   5.179   0.662   1.164  0.1036 -0.2283  0.0030
 4830SOL    HW319087   5.143   0.791   1.094  0.1811  0.2302  0.7988
 4830SOL    MW419088   5.131   0.734   1.160  0.2192 -0.1809 -0.1499
 4831SOL     OW19089   2.720   1.536   0.916  0.2901 -0.4731  0.1369
 4831SOL    HW219090   2.691   1.566   1.002  1.5014 -0.4430  0.5422
 4831SOL    HW319091   2.803   1.491   0.932 -0.7527 -2.8668 -0.6325
 4831SOL    MW419092   2.727   1.534   0.930 -0.1364 -0.6435  0.0613
 4832SOL     OW19093   4.676   1.782   4.592  0.2339  0.6278 -0.2954
 4832SOL    HW219094   4.727   1.809   4.668  0.7497  0.3569 -0.5402
 4832SOL    HW319095   4.594   1.832   4.599  1.5608  3.1560 -1.2974
 4832SOL    MW419096   4.672   1.792   4.603  0.4642  0.5396  0.1659
 4833SOL     OW19097   2.903   1.981   2.415  0.5006 -0.2051 -0.3040
 4833SOL    HW219098   2.942   1.949   2.333 -0.8180  0.4835 -1.2194
 4833SOL    HW319099   2.935   2.071   2.423  0.1856 -0.0901 -0.3472
 4833SOL    MW419100   2.913   1.988   2.405 -1.0973  0.2574 -0.5737
 4834SOL     OW19101   1.339   5.068   0.668 -0.0186  0.4095 -0.5493
 4834SOL    HW219102   1.278   5.100   0.735  0.6200 -1.4466  1.0193
 4834SOL    HW319103   1.292   4.997   0.624  0.2336  0.3869 -0.7847
 4834SOL    MW419104   1.325   5.063   0.671 -0.1489 -0.3669  0.2898
 4835SOL     OW19105   2.886   3.791   4.928 -0.2647 -0.1662 -0.4534
 4835SOL    HW219106   2.914   3.847   4.999 -1.3948 -1.5297  1.1498
 4835SOL    HW319107   2.967   3.756   4.890  0.3356 -0.8889  1.4156
 4835SOL    MW419108   2.900   3.794   4.932  0.3268 -0.0461  0.3177
 4836SOL     OW19109   5.746   5.217   0.304  0.6395  0.2964  0.1516
 4836SOL    HW219110   5.655   5.219   0.334  0.2772 -3.3657 -0.1715
 4836SOL    HW319111   5.771   5.309   0.296 -2.6889  1.4494  1.1887
 4836SOL    MW419112   5.737   5.229   0.307 -0.3273 -0.5490  0.4512
 4837SOL     OW19113   4.564   3.113   2.974  0.1201 -0.6081  0.7696
 4837SOL    HW219114   4.574   3.158   3.058  0.8872  0.4778  0.1179
 4837SOL    HW319115   4.612   3.031   2.985 -1.7025 -1.5873  2.1364
 4837SOL    MW419116   4.572   3.108   2.986 -0.3544 -0.4318 -1.0207
 4838SOL     OW19117   3.722   2.086   1.902  0.2274  0.5883 -0.1611
 4838SOL    HW219118   3.670   2.073   1.823 -1.6056 -1.0330  1.2241
 4838SOL    HW319119   3.711   2.179   1.923 -0.3405  0.7378 -1.0733
 4838SOL    MW419120   3.714   2.097   1.895 -0.2549 -0.2473  0.6605
 4839SOL     OW19121   5.311   3.447   6.336 -0.0177  0.1802 -0.1378
 4839SOL    HW219122   5.327   3.541   6.347 -0.0412  0.0332  1.1965
 4839SOL    HW319123   5.360   3.425   6.256  0.5837  1.1748 -0.0708
 4839SOL    MW419124   5.319   3.457   6.327 -0.1359 -0.1657 -0.0706
 4840SOL     OW19125   5.349   2.315   3.034 -0.4480  0.1242  0.2969
 4840SOL    HW219126   5.440   2.336   3.013 -0.2109  0.7325  1.7968
 4840SOL    HW319127   5.326   2.244   2.974  0.3497  1.3091 -1.4913
 4840SOL    MW419128   5.358   2.309   3.024 -0.0287  0.0496  0.0184
 4841SOL     OW19129   4.782   3.180   0.831 -0.5800  0.1934  0.4398
 4841SOL    HW219130   4.714   3.204   0.768  1.7945  2.3815 -1.5294
 4841SOL    HW319131   4.826   3.105   0.791 -0.8954 -0.2773  0.9685
 4841SOL    MW419132   4.779   3.173   0.818  0.0384  0.1841 -0.5340
 4842SOL     OW19133   6.080   0.771   5.191  0.0510 -0.4478 -0.7380
 4842SOL    HW219134   6.064   0.837   5.123 -0.2787 -0.2814 -0.5007
 4842SOL    HW319135   5.995   0.757   5.231  0.7091  1.6373  1.6517
 4842SOL    MW419136   6.067   0.778   5.187 -0.2392  0.4732  0.0923
 4843SOL     OW19137   5.066   5.173   3.403 -0.2215 -0.1606  0.3433
 4843SOL    HW219138   5.003   5.191   3.333 -0.3704 -1.2096  0.2037
 4843SOL    HW319139   5.016   5.125   3.469  0.4371 -1.0710  0.1973
 4843SOL    MW419140   5.051   5.169   3.402 -0.0491  0.1151 -0.1836
 4844SOL     OW19141   3.215   6.422   5.590 -0.2300 -0.2513 -0.3834
 4844SOL    HW219142   3.250   6.416   5.501  0.0993  0.5816 -0.3143
 4844SOL    HW319143   3.267   6.359   5.640  0.6405  0.3912 -0.4531
 4844SOL    MW419144   3.227   6.413   5.585 -0.1961  0.3277  0.0550
 4845SOL     OW19145   6.425   3.880   2.203 -0.3780  0.2312  0.5727
 4845SOL    HW219146   6.388   3.861   2.116  1.0243  0.6423 -0.1413
 4845SOL    HW319147   6.350   3.877   2.262 -1.0382 -2.3399 -0.2833
 4845SOL    MW419148   6.410   3.877   2.199 -0.3358 -0.4669 -0.3025
 4846SOL     OW19149   5.131   2.071   0.111  0.3582  0.4133  0.0382
 4846SOL    HW219150   5.210   2.110   0.075  0.9021 -1.0832 -0.5019
 4846SOL    HW319151   5.154   1.978   0.123 -1.3528 -0.0959 -0.2965
 4846SOL    MW419152   5.144   2.064   0.108  0.6090  0.9063 -0.4604
 4847SOL     OW19153   4.253   1.303   2.113 -0.1804  0.3715  0.2262
 4847SOL    HW219154   4.310   1.226   2.113  0.3880  0.7900  0.3649
 4847SOL    HW319155   4.308   1.374   2.081 -0.4423  0.9040  0.9249
 4847SOL    MW419156   4.268   1.302   2.109 -0.3912 -0.7127  0.2313
 4848SOL     OW19157   3.051   0.248   1.173  0.0668 -0.1870  0.1063
 4848SOL    HW219158   3.101   0.259   1.254  0.6754 -0.5326 -0.2189
 4848SOL    HW319159   2.993   0.325   1.170  0.4278  0.1107  0.5905
 4848SOL    MW419160   3.050   0.260   1.183  0.6908 -0.3947  0.3259
 4849SOL     OW19161   2.894   0.858   1.219 -0.4956  0.0876  0.0635
 4849SOL    HW219162   2.981   0.862   1.179 -1.0055  1.2364 -1.0197
 4849SOL    HW319163   2.902   0.793   1.289  1.6170  1.1637  0.9289
 4849SOL    MW419164   2.906   0.850   1.223  0.1181 -0.4810 -0.0122
 4850SOL     OW19165   1.583   0.202   2.409 -0.2306  0.2102  0.0139
 4850SOL    HW219166   1.669   0.162   2.425  0.3305  1.2436 -0.3051
 4850SOL    HW319167   1.564   0.250   2.490 -1.3521 -1.4457  0.7728
 4850SOL    MW419168   1.592   0.203   2.422 -0.6261  0.1907 -0.3442
 4851SOL     OW19169   1.126   6.159   5.112 -0.4594  0.4563  0.0806
 4851SOL    HW219170   1.192   6.205   5.060 -0.4381 -0.2720 -0.5420
 4851SOL    HW319171   1.079   6.229   5.157 -0.5742  1.1148 -1.0301
 4851SOL    MW419172   1.129   6.174   5.111  0.6735 -0.6414  0.3590
 4852SOL     OW19173   6.282   4.362   4.510  0.2066 -0.9784  0.4910
 4852SOL    HW219174   6.262   4.360   4.416 -0.8520 -0.8285  0.7014
 4852SOL    HW319175   6.268   4.273   4.540 -0.1468 -0.8720  0.6437
 4852SOL    MW419176   6.278   4.350   4.501 -0.8287 -0.2710  0.2680
 4853SOL     OW19177   5.182   4.679   5.779  0.3035 -1.1478 -0.1543
 4853SOL    HW219178   5.133   4.655   5.700  0.8072 -1.8506 -0.2634
 4853SOL    HW319179   5.217   4.766   5.761 -1.4144 -0.3455  0.1744
 4853SOL    MW419180   5.180   4.687   5.766  0.7247  0.2007 -0.0485
 4854SOL     OW19181   2.621   4.831   4.645  0.1239  0.1819  0.2746
 4854SOL    HW219182   2.678   4.887   4.698 -0.2705  1.8535 -0.9862
 4854SOL    HW319183   2.534   4.867   4.657 -0.5287 -1.5583  1.1479
 4854SOL    MW419184   2.617   4.843   4.654 -0.6432  0.1582  0.1074
 4855SOL     OW19185   1.808   5.320   0.572  0.3872  0.1363  0.4470
 4855SOL    HW219186   1.839   5.252   0.632  1.0563 -1.5563 -1.6813
 4855SOL    HW319187   1.734   5.361   0.617 -0.9406 -2.9489  1.2844
 4855SOL    MW419188   1.802   5.317   0.586  0.3981  0.0113 -0.0999
 4856SOL     OW19189   5.998   0.787   2.859 -0.1302  0.1813 -0.1851
 4856SOL    HW219190   6.071   0.780   2.921  1.3160  1.0472 -1.7138
 4856SOL    HW319191   5.973   0.696   2.841  1.1351 -0.1635 -0.2754
 4856SOL    MW419192   6.004   0.774   2.865 -0.3039  0.3297 -0.6089
 4857SOL     OW19193   3.210   4.516   6.059 -0.0905  0.1269 -1.0061
 4857SOL    HW219194   3.174   4.431   6.035 -1.7657  0.4373  0.1696
 4857SOL    HW319195   3.206   4.568   5.979  1.1707 -0.9225 -1.7959
 4857SOL    MW419196   3.205   4.512   6.045  0.4394  0.1311  0.1311
 4858SOL     OW19197   2.599   2.887   5.192  0.1544  0.5169  0.8334
 4858SOL    HW219198   2.531   2.850   5.248  0.4994 -0.3071  0.7266
 4858SOL    HW319199   2.654   2.812   5.169 -0.0560  0.8089 -0.7108
 4858SOL    MW419200   2.597   2.872   5.196 -0.2373 -0.2732 -0.4948
 4859SOL     OW19201   2.335   5.822   5.092 -0.5205 -0.0565 -0.5678
 4859SOL    HW219202   2.333   5.748   5.032  2.4905  0.3936 -1.4001
 4859SOL    HW319203   2.246   5.858   5.088 -1.2075 -1.7503 -2.5344
 4859SOL    MW419204   2.323   5.817   5.084  0.1793 -0.3618  0.7246
 4860SOL     OW19205   4.470   1.482   4.645 -0.3098  0.0988 -0.0090
 4860SOL    HW219206   4.475   1.516   4.555  0.8675  3.0225  1.0134
 4860SOL    HW319207   4.414   1.545   4.690 -0.6888 -1.1940  1.3756
 4860SOL    MW419208   4.463   1.495   4.639  0.7084 -0.2546 -0.1319
 4861SOL     OW19209   1.979   4.237   0.401  0.2652 -0.2096  0.6010
 4861SOL    HW219210   2.042   4.199   0.339 -0.9130  0.2611 -0.9218
 4861SOL    HW319211   1.976   4.173   0.473  1.6639 -0.7634  0.2088
 4861SOL    MW419212   1.987   4.223   0.403  0.0407  0.3904 -0.3465
 4862SOL     OW19213   1.236   3.209   2.420  0.0021  0.0895  0.5876
 4862SOL    HW219214   1.175   3.173   2.485  0.2048  0.8756  1.2354
 4862SOL    HW319215   1.242   3.302   2.442  3.8062 -0.4169  2.5996
 4862SOL    MW419216   1.229   3.217   2.432 -0.2877 -0.3552 -0.2926
 4863SOL     OW19217   0.884   0.079   2.086 -0.0126 -0.3513  0.5718
 4863SOL    HW219218   0.842   0.064   2.001  0.6938  0.3018  0.0972
 4863SOL    HW319219   0.966   0.030   2.081 -0.5092 -1.2867  1.3412
 4863SOL    MW419220   0.889   0.070   2.074  0.6875  0.1685 -0.8043
 4864SOL     OW19221   1.154   3.767   0.723  0.4066  0.0239  0.6647
 4864SOL    HW219222   1.095   3.696   0.750 -1.0701  0.6292 -0.8403
 4864SOL    HW319223   1.122   3.844   0.769 -1.5181  0.8514 -1.8363
 4864SOL    MW419224   1.142   3.767   0.733 -0.1428 -0.2450  0.0799
 4865SOL     OW19225   0.244   0.130   1.543  0.8407  0.1677  0.0561
 4865SOL    HW219226   0.326   0.178   1.541  1.2574 -0.5623 -0.8977
 4865SOL    HW319227   0.241   0.082   1.461  0.3630 -1.3080  0.8819
 4865SOL    MW419228   0.254   0.130   1.532  0.5824  0.2904 -0.1362
 4866SOL     OW19229   3.707   3.173   0.782 -0.3200 -0.0150  0.2562
 4866SOL    HW219230   3.654   3.110   0.733  0.9479 -1.5937  0.8353
 4866SOL    HW319231   3.779   3.195   0.722  0.2107 -0.5117  0.6979
 4866SOL    MW419232   3.710   3.168   0.767 -0.0818 -0.3217  0.0194
 4867SOL     OW19233   0.733   0.236   0.489 -0.4538  0.7735 -0.1652
 4867SOL    HW219234   0.753   0.273   0.403 -1.0643  0.5232 -0.4216
 4867SOL    HW319235   0.695   0.309   0.538 -0.5228  0.8036 -0.2617
 4867SOL    MW419236   0.730   0.250   0.484  0.5540  0.0819 -0.4588
 4868SOL     OW19237   0.784   1.816   5.827 -0.2036  1.0923 -0.2722
 4868SOL    HW219238   0.735   1.881   5.878 -0.7313 -0.2469  0.9868
 4868SOL    HW319239   0.730   1.737   5.830  1.6302 -0.2079  0.4958
 4868SOL    MW419240   0.770   1.814   5.834 -0.0940  0.2346 -0.0365
 4869SOL     OW19241   6.101   0.634   5.903 -0.1514 -0.7299  0.0209
 4869SOL    HW219242   6.049   0.554   5.897 -0.4158 -0.5928  0.4718
 4869SOL    HW319243   6.048   0.701   5.860 -0.5256 -0.5081  0.8013
 4869SOL    MW419244   6.087   0.632   5.897  0.5058 -0.0350 -0.2135
 4870SOL     OW19245   0.012   5.349   1.942  0.8027 -0.1951 -0.2332
 4870SOL    HW219246   0.046   5.270   1.899  0.5787 -0.5439  0.2275
 4870SOL    HW319247  -0.078   5.329   1.963  0.8628  0.0381  0.2552
 4870SOL    MW419248   0.005   5.336   1.939 -0.7527 -0.3141  0.6014
 4871SOL     OW19249   1.851   3.238   0.952  0.4383 -0.0468  0.1681
 4871SOL    HW219250   1.938   3.278   0.949  0.2193  0.3934 -1.5007
 4871SOL    HW319251   1.792   3.305   0.918 -0.0834 -1.3723 -1.7380
 4871SOL    MW419252   1.854   3.252   0.947  0.4471  0.2625  0.3204
 4872SOL     OW19253   0.866   3.406   0.041 -0.1447  0.7608 -0.0300
 4872SOL    HW219254   0.784   3.381  -0.003  1.6305 -1.9067 -2.1144
 4872SOL    HW319255   0.911   3.462  -0.023  0.7799  0.0233 -0.0445
 4872SOL    MW419256   0.861   3.410   0.026 -0.0145 -0.2596 -0.0356
 4873SOL     OW19257   3.006   5.118   1.669 -0.2947 -0.0590  0.2164
 4873SOL    HW219258   3.098   5.142   1.674 -0.0638  0.0873 -2.9515
 4873SOL    HW319259   2.962   5.196   1.635 -2.3727  1.2095  5.0180
 4873SOL    MW419260   3.012   5.131   1.665 -0.2615 -0.1291 -0.1428
 4874SOL     OW19261   2.405   2.516   2.473 -0.3861 -0.4050 -0.0856
 4874SOL    HW219262   2.366   2.492   2.557 -0.7359  2.6621  0.7435
 4874SOL    HW319263   2.333   2.509   2.410 -0.9512  0.2599  0.4731
 4874SOL    MW419264   2.391   2.512   2.476  0.3531  0.0594 -0.4235
 4875SOL     OW19265   6.355   3.797   3.734  0.1706 -0.0033  0.2886
 4875SOL    HW219266   6.263   3.774   3.746  0.8362 -1.9305  2.4639
 4875SOL    HW319267   6.400   3.713   3.726  1.9763  0.7983  1.4478
 4875SOL    MW419268   6.349   3.783   3.735 -0.3244 -0.5603  0.4451
 4876SOL     OW19269   2.292   4.332   2.789 -0.0253  0.4230  0.4355
 4876SOL    HW219270   2.244   4.311   2.709  1.0704  2.5500 -0.8813
 4876SOL    HW319271   2.271   4.423   2.807  0.3656  0.2105  2.1625
 4876SOL    MW419272   2.283   4.341   2.781 -0.1573 -0.3740 -0.3473
 4877SOL     OW19273   0.222   3.047   3.398  0.0277  0.5952 -0.6068
 4877SOL    HW219274   0.302   2.995   3.389  0.7021  1.7762 -1.9194
 4877SOL    HW319275   0.156   2.985   3.430  1.3158 -0.5330 -0.0518
 4877SOL    MW419276   0.224   3.032   3.401 -0.0913 -0.0939 -0.3558
 4878SOL     OW19277   5.357   5.985   2.245  0.0693  0.0570 -0.6412
 4878SOL    HW219278   5.420   6.008   2.176  2.3216  0.3741  1.3813
 4878SOL    HW319279   5.335   6.069   2.286 -0.1044 -0.2647 -0.0621
 4878SOL    MW419280   5.363   5.999   2.241 -0.1638 -0.0459 -0.5035
 4879SOL     OW19281   1.188   0.513   6.325 -0.0121 -0.1979  0.2047
 4879SOL    HW219282   1.228   0.510   6.412  0.9640  2.5575 -0.0564
 4879SOL    HW319283   1.149   0.600   6.320  0.9321  0.1464 -2.5031
 4879SOL    MW419284   1.188   0.524   6.336  0.6178  0.5232  0.6816
 4880SOL     OW19285   6.138   0.483   4.495 -0.3009  0.3928 -0.0385
 4880SOL    HW219286   6.063   0.538   4.474 -1.5942 -0.8368  1.1332
 4880SOL    HW319287   6.118   0.398   4.456  1.1226  0.3878 -0.8377
 4880SOL    MW419288   6.126   0.479   4.487  0.4702 -0.2639  0.2809
 4881SOL     OW19289   5.451   1.735   1.585 -0.1396  0.4394  0.7259
 4881SOL    HW219290   5.503   1.791   1.642  1.2494 -0.4406  0.3989
 4881SOL    HW319291   5.405   1.676   1.644 -1.0206  1.3984  1.0328
 4881SOL    MW419292   5.452   1.734   1.600 -0.3952  0.2242 -0.4987
 4882SOL     OW19293   6.218   4.073   1.199  0.0041  0.0948  0.3494
 4882SOL    HW219294   6.265   4.038   1.274 -1.9964 -0.6482  1.3214
 4882SOL    HW319295   6.127   4.047   1.213 -0.5364  0.4560 -2.0297
 4882SOL    MW419296   6.212   4.065   1.210  0.0064 -0.7547 -0.4815
 4883SOL     OW19297   1.828   5.347   3.002  0.2100 -0.0237 -0.2428
 4883SOL    HW219298   1.741   5.340   2.964  0.3291 -0.5766 -0.4184
 4883SOL    HW319299   1.881   5.386   2.932  0.2728 -0.3977 -0.4067
 4883SOL    MW419300   1.824   5.351   2.988  0.4462 -0.3625  0.0695
 4884SOL     OW19301   0.325   4.765   4.391  0.2513 -0.2023  0.2742
 4884SOL    HW219302   0.291   4.852   4.369  0.6664 -0.7811 -3.0754
 4884SOL    HW319303   0.254   4.724   4.441  0.0147  1.9450  1.8721
 4884SOL    MW419304   0.311   4.771   4.395 -0.0011  0.6735 -0.5400
 4885SOL     OW19305   3.214   2.600   2.396  0.1192  0.4454  0.2697
 4885SOL    HW219306   3.175   2.574   2.480 -0.9461  0.8827 -0.0739
 4885SOL    HW319307   3.236   2.692   2.407 -0.7209  0.7074 -0.1719
 4885SOL    MW419308   3.211   2.608   2.409 -0.5531  0.4233 -0.7261
 4886SOL     OW19309   0.086   1.340   0.275 -0.0055  0.4668 -0.0745
 4886SOL    HW219310   0.004   1.293   0.269 -0.1108  0.4149  1.3472
 4886SOL    HW319311   0.060   1.433   0.278  0.1509  0.6106 -1.9849
 4886SOL    MW419312   0.072   1.346   0.275 -0.1232 -0.1966 -0.1918
 4887SOL     OW19313   5.820   0.457   1.026  0.3387  0.1482  0.1758
 4887SOL    HW219314   5.837   0.370   1.061  0.5567 -0.9072 -2.3755
 4887SOL    HW319315   5.734   0.480   1.062  0.3315 -1.0395  0.9858
 4887SOL    MW419316   5.811   0.449   1.035 -0.1974 -0.1590  0.1807
 4888SOL     OW19317   1.716   4.785   5.296 -0.0638  0.2866 -0.7489
 4888SOL    HW219318   1.776   4.735   5.351  1.1165 -1.1531 -3.1835
 4888SOL    HW319319   1.640   4.727   5.285 -0.4231  0.6886 -0.4203
 4888SOL    MW419320   1.714   4.771   5.301  0.3903 -0.5809  0.0976
 4889SOL     OW19321   0.668   5.784   0.739 -0.6565  0.2548 -0.0468
 4889SOL    HW219322   0.714   5.742   0.811 -0.6063 -0.7585 -0.6602
 4889SOL    HW319323   0.656   5.715   0.674 -0.4710  1.2189 -1.1295
 4889SOL    MW419324   0.672   5.769   0.740 -0.1496 -0.0476  0.1667
 4890SOL     OW19325   2.632   0.822   6.271  0.7677 -0.3681 -0.3982
 4890SOL    HW219326   2.713   0.862   6.238  0.6749  0.6121  0.5011
 4890SOL    HW319327   2.638   0.831   6.366 -0.0197 -1.0423 -0.2762
 4890SOL    MW419328   2.643   0.828   6.279  0.0261  0.4017 -0.9866
 4891SOL     OW19329   1.795   6.241   3.923 -0.5640  0.2392 -0.2257
 4891SOL    HW219330   1.751   6.195   3.851 -0.0174 -0.0710 -0.3750
 4891SOL    HW319331   1.852   6.304   3.880  1.9650 -1.8761 -0.2731
 4891SOL    MW419332   1.797   6.243   3.908  0.0560  0.1118  0.2115
 4892SOL     OW19333   2.976   2.811   0.488 -0.0267  0.4888 -0.7676
 4892SOL    HW219334   2.908   2.782   0.427  0.0961 -1.5514 -0.0244
 4892SOL    HW319335   3.052   2.757   0.467  0.3067  0.4149  0.5474
 4892SOL    MW419336   2.977   2.800   0.477  0.0704  0.3898  0.0264
 4893SOL     OW19337   5.054   6.232   2.880 -0.0827 -0.3157 -0.0113
 4893SOL    HW219338   5.063   6.207   2.972  0.5209  1.1899  0.3770
 4893SOL    HW319339   5.095   6.160   2.831 -1.8515 -1.9266  0.7504
 4893SOL    MW419340   5.061   6.219   2.885  0.6423 -0.5546  0.3663
 4894SOL     OW19341   5.137   3.367   1.986  0.1213  0.0151  0.5976
 4894SOL    HW219342   5.053   3.392   2.024  0.0166 -0.4248  0.6641
 4894SOL    HW319343   5.118   3.287   1.937  0.4081  0.1666  0.2354
 4894SOL    MW419344   5.123   3.360   1.985 -0.2505 -0.3299  0.0402
 4895SOL     OW19345   3.290   4.678   4.535 -0.0783 -0.3854 -0.1461
 4895SOL    HW219346   3.334   4.640   4.459 -0.3856 -1.1835  0.0715
 4895SOL    HW319347   3.202   4.698   4.504 -0.7597 -2.2797  0.4318
 4895SOL    MW419348   3.284   4.676   4.520  0.3918 -0.7990  0.5130
 4896SOL     OW19349   6.277   2.107   4.386  0.4223 -0.0701  0.0925
 4896SOL    HW219350   6.284   2.197   4.354  0.7116 -0.9490 -2.5327
 4896SOL    HW319351   6.261   2.054   4.307  1.5547 -2.4719  1.3607
 4896SOL    MW419352   6.276   2.112   4.371  0.0161 -0.5088 -0.2295
 4897SOL     OW19353   4.403   6.330   5.812  0.7873  0.2123  0.2743
 4897SOL    HW219354   4.382   6.343   5.905 -0.1874  2.6754 -0.2260
 4897SOL    HW319355   4.317   6.326   5.769  1.1728 -2.3898 -0.4243
 4897SOL    MW419356   4.389   6.331   5.819  0.2298 -0.2847  0.3975
 4898SOL     OW19357   1.832   6.070   1.368  0.8428 -0.4628 -0.3016
 4898SOL    HW219358   1.786   6.053   1.285 -0.9906  2.2236  0.0182
 4898SOL    HW319359   1.866   6.159   1.358  0.3397  0.0220  1.9132
 4898SOL    MW419360   1.830   6.080   1.356 -0.3494 -0.6389  0.2248
 4899SOL     OW19361   5.683   5.936   4.532 -0.4118 -0.0089  0.4785
 4899SOL    HW219362   5.714   6.023   4.508  0.7729 -0.9593 -1.7042
 4899SOL    HW319363   5.651   5.898   4.450  0.9415 -2.3309  0.9378
 4899SOL    MW419364   5.683   5.943   4.518  0.3353 -0.2172 -0.3182
 4900SOL     OW19365   1.427   5.258   5.285 -0.6103  0.3227 -0.2998
 4900SOL    HW219366   1.512   5.301   5.288 -0.6259  0.5594 -1.8948
 4900SOL    HW319367   1.402   5.262   5.192 -0.7802 -2.7883 -0.4901
 4900SOL    MW419368   1.435   5.264   5.273  0.4796  0.3946 -0.1020
 4901SOL     OW19369   2.903   2.563   2.479  0.0049 -0.5070 -0.0373
 4901SOL    HW219370   2.911   2.658   2.471  0.4814 -0.5578 -0.1665
 4901SOL    HW319371   2.823   2.542   2.430  0.0909 -0.2137 -0.3057
 4901SOL    MW419372   2.893   2.572   2.471  0.4858 -0.2777  0.1791
 4902SOL     OW19373   0.457   0.088   0.746 -0.2375 -0.6253 -0.6422
 4902SOL    HW219374   0.489   0.001   0.723  0.6128 -0.4989  0.0280
 4902SOL    HW319375   0.454   0.135   0.663  1.7022 -0.5179 -0.6992
 4902SOL    MW419376   0.461   0.082   0.732 -0.2367 -0.3892 -0.2584
 4903SOL     OW19377   3.352   5.204   0.166  0.6947 -0.1037  0.1746
 4903SOL    HW219378   3.293   5.159   0.226 -1.2542  0.2631 -1.3821
 4903SOL    HW319379   3.297   5.267   0.119  1.7545 -1.2836 -2.9632
 4903SOL    MW419380   3.337   5.206   0.167  0.5357  0.3044  0.4628
 4904SOL     OW19381   5.932   1.822   4.795 -0.1682 -0.5116  0.1059
 4904SOL    HW219382   5.850   1.857   4.761  0.0839  1.0822  1.0584
 4904SOL    HW319383   5.998   1.844   4.729 -0.1046  0.4096  0.4578
 4904SOL    MW419384   5.930   1.829   4.782 -0.2143  0.1326  0.9244
 4905SOL     OW19385   6.184   3.113   5.789 -0.2903  0.6686 -0.1195
 4905SOL    HW219386   6.203   3.164   5.710 -1.2955  3.5976  1.3818
 4905SOL    HW319387   6.260   3.128   5.845 -0.9744  1.2551  0.6708
 4905SOL    MW419388   6.197   3.122   5.786  0.2248  0.0409 -0.7508
 4906SOL     OW19389   3.190   2.199   4.672  0.2491  0.7975 -0.1325
 4906SOL    HW219390   3.105   2.202   4.630  1.1183  0.3550 -1.9925
 4906SOL    HW319391   3.235   2.278   4.641  0.7203  0.7557  0.4198
 4906SOL    MW419392   3.185   2.210   4.663  0.3321 -0.3687  0.2128
 4907SOL     OW19393   3.444   4.979   4.137  0.0370  0.3846  0.4864
 4907SOL    HW219394   3.396   4.899   4.116  0.5672  0.0496  0.5248
 4907SOL    HW319395   3.436   4.987   4.232  1.2835 -0.4816  0.6819
 4907SOL    MW419396   3.437   4.969   4.147 -0.1398 -0.4460  0.2035
 4908SOL     OW19397   5.500   5.475   1.607 -0.4377 -0.1640 -0.1960
 4908SOL    HW219398   5.578   5.448   1.559 -0.9282  0.7148 -1.5592
 4908SOL    HW319399   5.452   5.531   1.545 -2.1405 -0.6720  0.6014
 4908SOL    MW419400   5.504   5.479   1.593  0.0191 -0.7740  0.1217
 4909SOL     OW19401   5.913   3.624   1.632 -0.1648 -0.3852 -0.2573
 4909SOL    HW219402   5.911   3.556   1.700 -0.1845  1.1795  1.3724
 4909SOL    HW319403   5.937   3.577   1.553  1.4253 -2.0680  1.1257
 4909SOL    MW419404   5.916   3.609   1.631  0.1237  0.2937 -0.0392
 4910SOL     OW19405   5.428   2.953   5.345  0.8722 -0.0847  0.0235
 4910SOL    HW219406   5.475   3.034   5.324 -1.6818  1.4419 -0.1731
 4910SOL    HW319407   5.372   2.937   5.270 -0.6591 -0.4811  1.1987
 4910SOL    MW419408   5.427   2.962   5.333  0.2513 -0.1384 -0.1340
 4911SOL     OW19409   2.878   0.574   0.124  0.2042  0.2164 -0.4987
 4911SOL    HW219410   2.954   0.631   0.129  0.2751  0.0826 -0.0305
 4911SOL    HW319411   2.904   0.505   0.062  0.3197  0.3847 -0.6376
 4911SOL    MW419412   2.892   0.572   0.116 -0.1866 -0.1009 -0.1949
 4912SOL     OW19413   1.695   0.942   2.653  0.4066  0.1730  0.4754
 4912SOL    HW219414   1.740   0.858   2.642  1.3113  0.7228 -0.1296
 4912SOL    HW319415   1.764   1.003   2.678  0.3536  1.3784 -2.0429
 4912SOL    MW419416   1.710   0.939   2.655 -0.2799 -0.8445 -0.2158
 4913SOL     OW19417   3.662   3.657   1.316 -0.0448  0.4627 -0.2510
 4913SOL    HW219418   3.685   3.674   1.224 -1.5952  0.7935 -0.6196
 4913SOL    HW319419   3.649   3.744   1.354  1.4019  0.3591  0.5347
 4913SOL    MW419420   3.663   3.671   1.309 -0.2167  0.0760 -0.5946
 4914SOL     OW19421   3.313   3.157   6.238 -0.0658  0.7663 -0.0976
 4914SOL    HW219422   3.224   3.165   6.273  0.2741  2.5098  0.4845
 4914SOL    HW319423   3.330   3.063   6.237 -1.8291  0.4099 -0.0223
 4914SOL    MW419424   3.304   3.146   6.243 -0.5224 -0.9479 -0.4163
 4915SOL     OW19425   4.625   1.826   3.143 -0.4285  0.5588  0.0797
 4915SOL    HW219426   4.568   1.759   3.106  0.7265 -0.4350  0.0405
 4915SOL    HW319427   4.658   1.788   3.225  1.2227  0.5163 -0.5539
 4915SOL    MW419428   4.622   1.812   3.149  0.2811  0.4626 -0.3816
 4916SOL     OW19429   6.352   1.293   3.013 -0.1353  0.0880  0.1005
 4916SOL    HW219430   6.387   1.329   3.095  0.9380 -0.9443  0.1361
 4916SOL    HW319431   6.293   1.360   2.980 -0.4727  0.6004  1.6442
 4916SOL    MW419432   6.349   1.306   3.020  0.0447  0.1940  0.1654
 4917SOL     OW19433   3.011   5.909   6.290 -0.1822 -0.0666  0.4790
 4917SOL    HW219434   2.932   5.874   6.332 -0.3172  0.0877  0.3546
 4917SOL    HW319435   2.983   5.931   6.202 -0.1380  0.4939  0.6007
 4917SOL    MW419436   2.997   5.907   6.284  0.1511 -0.0875 -0.4001
 4918SOL     OW19437   0.580   1.235   6.000 -0.0858  0.5181  0.2981
 4918SOL    HW219438   0.552   1.191   5.920  0.3331  0.0131  0.4258
 4918SOL    HW319439   0.674   1.249   5.989 -0.2003  1.3054  0.2960
 4918SOL    MW419440   0.589   1.231   5.988  0.8544  0.1835 -0.6523
 4919SOL     OW19441   0.583   3.670   1.965 -0.6930 -0.0686 -0.1248
 4919SOL    HW219442   0.566   3.667   2.060  0.1429  0.0753  0.0412
 4919SOL    HW319443   0.622   3.585   1.946 -0.3745  0.1028 -0.2382
 4919SOL    MW419444   0.586   3.658   1.975  0.3603  0.5240  0.5790
 4920SOL     OW19445   6.212   4.876   3.540 -0.0662  0.3935 -0.9783
 4920SOL    HW219446   6.300   4.885   3.504  1.0917 -2.3524  0.8477
 4920SOL    HW319447   6.211   4.937   3.615  0.1903  0.6005 -1.1421
 4920SOL    MW419448   6.224   4.886   3.545 -0.0650  0.1229 -0.4341
 4921SOL     OW19449   5.238   1.604   0.318  0.5119  0.1895 -0.8587
 4921SOL    HW219450   5.292   1.525   0.312  0.2187 -0.0046 -0.9725
 4921SOL    HW319451   5.260   1.642   0.403  1.3772  0.5220 -1.2188
 4921SOL    MW419452   5.248   1.599   0.329 -0.0755  0.1215 -0.0160
 4922SOL     OW19453   4.914   4.747   0.577 -0.9210  0.2836 -0.0205
 4922SOL    HW219454   5.004   4.770   0.600 -1.4636 -0.1452  2.9297
 4922SOL    HW319455   4.921   4.702   0.492  1.8930 -1.3970  0.9760
 4922SOL    MW419456   4.926   4.744   0.569 -0.5426 -0.0675  1.3229
 4923SOL     OW19457   3.440   4.646   3.141 -1.0436  0.1732 -0.2593
 4923SOL    HW219458   3.428   4.660   3.234 -2.6541  2.0565 -0.6917
 4923SOL    HW319459   3.483   4.560   3.135 -1.0772 -0.0782  2.1683
 4923SOL    MW419460   3.444   4.636   3.152 -0.1660  0.2479  0.1306
 4924SOL     OW19461   1.265   3.531   2.206 -0.1771 -0.1914  0.5956
 4924SOL    HW219462   1.259   3.520   2.301  1.8522 -0.3239  0.7435
 4924SOL    HW319463   1.320   3.458   2.178  0.0657  0.4258 -0.5531
 4924SOL    MW419464   1.272   3.520   2.215  0.0755 -0.4878 -0.1064
 4925SOL     OW19465   0.303   2.341   6.125 -0.1746  0.0476 -0.0404
 4925SOL    HW219466   0.222   2.358   6.174 -0.3291  0.5552 -0.4592
 4925SOL    HW319467   0.288   2.257   6.082 -0.4469  0.0986 -0.0470
 4925SOL    MW419468   0.290   2.332   6.126  0.4431  0.2188 -0.6188
 4926SOL     OW19469   4.212   3.839   4.577 -0.2893  0.1183  0.1017
 4926SOL    HW219470   4.131   3.882   4.603 -0.4924 -0.0578 -0.2266
 4926SOL    HW319471   4.184   3.767   4.520  0.1274  0.3662 -0.4271
 4926SOL    MW419472   4.198   3.835   4.573 -0.4500  0.5456  0.0569
 4927SOL     OW19473   3.104   4.904   1.333  0.3661 -0.1037  0.2123
 4927SOL    HW219474   3.134   4.988   1.300  0.7074 -0.2535  0.1352
 4927SOL    HW319475   3.018   4.922   1.371 -0.1948  0.0069 -1.0599
 4927SOL    MW419476   3.096   4.917   1.333 -0.3048  0.4444 -0.3100
 4928SOL     OW19477   0.914   4.510   3.636 -0.0694 -0.2103  0.0550
 4928SOL    HW219478   0.964   4.507   3.717 -2.0251  0.5589  1.3696
 4928SOL    HW319479   0.872   4.424   3.630 -0.3345 -0.0876  0.1385
 4928SOL    MW419480   0.915   4.499   3.646 -0.1103  0.4674  0.3111
 4929SOL     OW19481   2.367   0.605   2.705  0.0506  0.1929  0.3165
 4929SOL    HW219482   2.436   0.651   2.657 -0.8778  2.8778  1.3465
 4929SOL    HW319483   2.290   0.614   2.650 -0.8451  2.6552  1.8057
 4929SOL    MW419484   2.366   0.612   2.691  0.3802  0.3758 -0.0016
 4930SOL     OW19485   4.096   2.696   2.186 -0.2314 -0.6822  0.1168
 4930SOL    HW219486   4.181   2.655   2.172  0.3777  1.0608 -1.7338
 4930SOL    HW319487   4.037   2.650   2.126 -0.1173 -0.5096 -0.1284
 4930SOL    MW419488   4.099   2.684   2.176  0.7617  0.0049 -0.1258
 4931SOL     OW19489   3.384   1.036   1.290  0.5733 -0.2874 -0.2454
 4931SOL    HW219490   3.312   1.085   1.329  2.0005  1.2319  0.5761
 4931SOL    HW319491   3.431   1.000   1.365  0.5776 -1.4431 -0.7854
 4931SOL    MW419492   3.381   1.037   1.305  0.3581 -0.2633  0.2259
 4932SOL     OW19493   6.181   1.680   3.327  0.1894  0.2569  0.2265
 4932SOL    HW219494   6.224   1.596   3.344 -0.0907  0.1282  0.3130
 4932SOL    HW319495   6.209   1.736   3.399 -0.4108 -0.0665  0.7182
 4932SOL    MW419496   6.190   1.677   3.339  0.0855  0.0726 -0.9114
 4933SOL     OW19497   6.104   0.972   5.652 -0.0571 -0.2094 -0.3884
 4933SOL    HW219498   6.146   0.886   5.647 -1.8064 -1.0792 -1.0619
 4933SOL    HW319499   6.136   1.018   5.574  0.5418 -0.3996 -0.2648
 4933SOL    MW419500   6.114   0.967   5.641 -0.7764  0.7929 -0.4054
 4934SOL     OW19501   5.791   1.087   0.750 -0.5954 -1.0273 -0.1664
 4934SOL    HW219502   5.781   1.061   0.659  0.3255 -0.4447 -0.4494
 4934SOL    HW319503   5.836   1.014   0.792  0.3021 -0.6965 -0.5282
 4934SOL    MW419504   5.796   1.074   0.744 -0.1016  0.1666 -0.0349
 4935SOL     OW19505   1.222   2.366   5.426  0.1106 -0.2206  0.3519
 4935SOL    HW219506   1.248   2.276   5.406  1.2599  0.2456 -0.3374
 4935SOL    HW319507   1.193   2.402   5.342 -0.4368  0.0207  0.6426
 4935SOL    MW419508   1.222   2.359   5.412 -0.6920 -0.1130 -0.4002
 4936SOL     OW19509   1.118   1.965   5.134  0.1008 -0.5405  0.0070
 4936SOL    HW219510   1.162   1.932   5.056  0.2211 -0.9267  0.2373
 4936SOL    HW319511   1.189   1.991   5.193  0.0087  0.0582 -0.1376
 4936SOL    MW419512   1.133   1.964   5.132  0.1164  0.1928  0.2680
 4937SOL     OW19513   5.335   3.029   2.370  0.0860 -0.4055  0.0093
 4937SOL    HW219514   5.283   2.993   2.441  0.7220  0.8640  1.1827
 4937SOL    HW319515   5.420   2.986   2.378  0.4322  0.3651  0.5871
 4937SOL    MW419516   5.339   3.019   2.380 -0.4306  0.4779  0.0172
 4938SOL     OW19517   3.236   0.879   2.259  0.7715 -0.1834  0.2641
 4938SOL    HW219518   3.183   0.806   2.293  1.7720 -0.5574  1.0580
 4938SOL    HW319519   3.323   0.841   2.245  0.7492  0.2990 -1.4828
 4938SOL    MW419520   3.240   0.864   2.262  0.2044  0.0120 -0.1281
 4939SOL     OW19521   3.691   2.416   5.571 -0.2431 -0.7765 -0.0804
 4939SOL    HW219522   3.601   2.396   5.595 -0.7582  1.4818  0.1055
 4939SOL    HW319523   3.691   2.413   5.475 -0.4504 -1.0194 -0.0731
 4939SOL    MW419524   3.679   2.413   5.561 -0.0007  0.5682  0.0118
 4940SOL     OW19525   4.060   1.152   4.966 -0.2596  0.3382 -0.0767
 4940SOL    HW219526   4.149   1.116   4.965 -0.6898 -0.8305  0.5550
 4940SOL    HW319527   4.063   1.222   5.031  0.2100  0.3297 -0.0860
 4940SOL    MW419528   4.072   1.156   4.975 -0.0876 -0.2328 -0.2028
 4941SOL     OW19529   2.845   6.149   3.923 -0.3253 -0.7264  0.1330
 4941SOL    HW219530   2.870   6.129   3.833 -1.6484 -0.0585 -0.4080
 4941SOL    HW319531   2.776   6.216   3.915  2.3187  2.4782  1.7694
 4941SOL    MW419532   2.839   6.155   3.910  0.2499  0.3568 -0.3583
 4942SOL     OW19533   5.290   1.144   2.595 -0.2211  0.6682  0.3474
 4942SOL    HW219534   5.236   1.117   2.521  0.4241 -0.3190  0.2218
 4942SOL    HW319535   5.280   1.073   2.658  0.8674  0.5101  0.3506
 4942SOL    MW419536   5.281   1.131   2.594 -0.1599 -0.1427  0.3633
 4943SOL     OW19537   1.092   5.243   1.830  0.1627  0.3236 -0.1538
 4943SOL    HW219538   1.174   5.201   1.805  0.7178  0.5274  1.2239
 4943SOL    HW319539   1.024   5.190   1.789  0.9890  0.7278 -2.1493
 4943SOL    MW419540   1.094   5.230   1.821 -0.0184 -0.1186 -0.3081
 4944SOL     OW19541   3.289   6.040   2.515  0.1510 -0.2451  0.2421
 4944SOL    HW219542   3.193   6.042   2.523  0.1982 -0.8317  1.0487
 4944SOL    HW319543   3.306   5.966   2.456  0.1306 -0.5255  0.5848
 4944SOL    MW419544   3.278   6.030   2.508 -0.2120 -1.0154 -0.5231
 4945SOL     OW19545   4.604   5.792   5.461 -0.0725 -0.0556 -0.1323
 4945SOL    HW219546   4.610   5.697   5.467  0.5692 -0.1346 -1.6799
 4945SOL    HW319547   4.693   5.823   5.481 -0.0159  0.1408 -0.6628
 4945SOL    MW419548   4.617   5.784   5.464 -0.4310  0.4464 -0.5442
 4946SOL     OW19549   5.269   1.978   2.578  0.1951 -0.0470  0.1700
 4946SOL    HW219550   5.335   2.042   2.605 -1.3329  1.7906 -0.1830
 4946SOL    HW319551   5.190   2.003   2.627 -1.3555  0.4887 -2.3839
 4946SOL    MW419552   5.267   1.990   2.588 -0.4590  0.1382  0.2077
 4947SOL     OW19553   4.326   5.426   4.025 -0.0292  0.4691 -0.0201
 4947SOL    HW219554   4.281   5.360   4.078  1.3897 -1.2944 -0.9072
 4947SOL    HW319555   4.283   5.421   3.940 -1.2684  2.2024  0.4414
 4947SOL    MW419556   4.314   5.417   4.021 -0.1512  0.3006  0.4875
 4948SOL     OW19557   5.664   5.883   5.812  0.0416  0.1792  0.3476
 4948SOL    HW219558   5.590   5.904   5.869 -0.8989 -1.0089 -0.3919
 4948SOL    HW319559   5.659   5.788   5.800  0.7365  0.2912 -0.9795
 4948SOL    MW419560   5.654   5.874   5.818  0.1125 -0.1647 -0.0354
 4949SOL     OW19561   3.918   5.872   0.408  0.1116 -0.1332  0.1138
 4949SOL    HW219562   4.002   5.918   0.401 -0.0818  0.3374  0.7874
 4949SOL    HW319563   3.943   5.779   0.417  0.5600 -0.0098  0.2045
 4949SOL    MW419564   3.933   5.865   0.408  0.0313 -0.0391  0.0810
 4950SOL     OW19565   6.322   5.625   4.470  0.0726 -0.1044  0.6479
 4950SOL    HW219566   6.229   5.648   4.470 -0.0782 -0.6545 -0.3160
 4950SOL    HW319567   6.324   5.535   4.438  0.9281 -0.1580  0.8308
 4950SOL    MW419568   6.310   5.616   4.466 -0.1537  0.3496 -0.5585
 4951SOL     OW19569   0.440   0.801   3.839  0.0032  0.3133  0.0716
 4951SOL    HW219570   0.439   0.752   3.757  2.5970  1.1612 -0.5635
 4951SOL    HW319571   0.513   0.763   3.889 -0.3270  1.0626  1.1657
 4951SOL    MW419572   0.450   0.789   3.835 -0.0637  0.1437  0.2042
 4952SOL     OW19573   4.628   0.316   0.155 -0.2805  0.1497  0.0335
 4952SOL    HW219574   4.708   0.274   0.186  0.8433  1.6250 -0.7208
 4952SOL    HW319575   4.608   0.272   0.072 -0.8843 -0.9385  0.7368
 4952SOL    MW419576   4.636   0.305   0.148 -0.0980  0.5440 -0.6763
 4953SOL     OW19577   5.862   2.581   5.572 -0.5937 -0.0299  0.5481
 4953SOL    HW219578   5.898   2.669   5.578 -1.5753  0.4104  0.3241
 4953SOL    HW319579   5.839   2.559   5.662 -1.0038  0.2429  0.5153
 4953SOL    MW419580   5.863   2.590   5.585  0.0137 -0.5123 -0.3955
 4954SOL     OW19581   0.212   5.291   6.431  0.5150  0.4210  0.1560
 4954SOL    HW219582   0.258   5.371   6.454  0.6445  0.1524  0.8431
 4954SOL    HW319583   0.122   5.304   6.462  0.4536  0.4215 -0.0160
 4954SOL    MW419584   0.206   5.303   6.438  0.4353 -0.4846  0.5619
 4955SOL     OW19585   5.668   3.918   3.925 -0.2293  0.6768 -0.4452
 4955SOL    HW219586   5.635   3.962   4.003 -0.8030 -1.2726  0.4819
 4955SOL    HW319587   5.716   3.986   3.878 -1.6556  2.4520  0.5082
 4955SOL    MW419588   5.670   3.933   3.929  0.2737 -0.0887 -0.0975
 4956SOL     OW19589   1.212   3.721   3.595  0.2429  0.0458  0.2822
 4956SOL    HW219590   1.211   3.805   3.549 -1.4046  0.2765  0.6607
 4956SOL    HW319591   1.120   3.705   3.616  0.5395 -1.8586  0.2407
 4956SOL    MW419592   1.200   3.730   3.592  0.1656  0.0136 -0.0831
 4957SOL     OW19593   2.545   3.623   2.324 -0.3231 -0.0132 -0.4260
 4957SOL    HW219594   2.454   3.609   2.349 -0.5767  0.7715 -0.8805
 4957SOL    HW319595   2.570   3.544   2.276 -0.6112 -0.4292  0.0988
 4957SOL    MW419596   2.536   3.610   2.321 -0.2165  0.1822 -0.0928
 4958SOL     OW19597   4.050   4.952   1.799 -0.2557  0.3891  0.2380
 4958SOL    HW219598   4.082   5.032   1.757  1.2857 -0.6862 -0.7314
 4958SOL    HW319599   4.080   4.958   1.889  0.2285  0.6908  0.0587
 4958SOL    MW419600   4.058   4.963   1.805  0.5626 -0.4191  0.4874
 4959SOL     OW19601   4.577   2.632   5.477 -0.6131  0.1403 -0.9831
 4959SOL    HW219602   4.509   2.574   5.442  0.3512 -2.2060  0.7320
 4959SOL    HW319603   4.587   2.604   5.568  2.3168  0.6827 -1.0432
 4959SOL    MW419604   4.570   2.620   5.484 -0.3431 -0.2268  0.0812
 4960SOL     OW19605   5.991   6.402   1.735  0.0340  0.7737 -0.0416
 4960SOL    HW219606   5.996   6.454   1.655 -0.6828  0.2644 -0.4183
 4960SOL    HW319607   5.991   6.468   1.805 -0.4155  1.2697 -0.4949
 4960SOL    MW419608   5.992   6.418   1.734  0.1838  0.0299 -0.6703
 4961SOL     OW19609   3.647   1.248   4.922 -0.0129  0.0646  0.6293
 4961SOL    HW219610   3.648   1.166   4.873 -0.3264 -0.6853  1.8457
 4961SOL    HW319611   3.710   1.304   4.875  0.3263 -0.9088 -0.1218
 4961SOL    MW419612   3.655   1.245   4.909  0.3408  0.2083 -0.4040
 4962SOL     OW19613   3.579   4.674   5.205 -0.3725 -0.4507  0.5263
 4962SOL    HW219614   3.493   4.703   5.172 -1.1479 -2.1743  0.9079
 4962SOL    HW319615   3.640   4.740   5.173 -1.7016  0.2906 -0.6253
 4962SOL    MW419616   3.576   4.686   5.196 -0.9324 -0.4086  0.3072
 4963SOL     OW19617   5.590   0.346   2.691  0.4962 -0.0450 -0.0428
 4963SOL    HW219618   5.660   0.365   2.628 -1.2364 -0.7796 -2.3221
 4963SOL    HW319619   5.528   0.418   2.681 -0.8812 -1.2743 -0.8989
 4963SOL    MW419620   5.591   0.358   2.681  0.6949  0.4543  0.1872
 4964SOL     OW19621   1.075   2.684   0.587 -0.8353  0.2611 -0.0789
 4964SOL    HW219622   1.113   2.764   0.551  2.4547 -1.3349 -0.5557
 4964SOL    HW319623   1.036   2.640   0.511 -1.6853  0.8819 -0.0132
 4964SOL    MW419624   1.075   2.688   0.572 -0.9465 -0.4425 -0.0573
 4965SOL     OW19625   2.704   6.389   5.553 -0.3316  0.0271 -0.9163
 4965SOL    HW219626   2.693   6.483   5.567  0.0880 -0.2214  1.4234
 4965SOL    HW319627   2.617   6.359   5.525 -0.5650  1.0313 -1.3158
 4965SOL    MW419628   2.691   6.398   5.551 -0.0688  0.0555  0.4527
 4966SOL     OW19629   4.111   1.636   3.595  0.2405  0.1753 -0.0844
 4966SOL    HW219630   4.191   1.583   3.592 -0.2118 -0.4698 -1.8104
 4966SOL    HW319631   4.099   1.665   3.505 -1.0901  0.8573  0.3021
 4966SOL    MW419632   4.120   1.633   3.583  0.3899  0.3887 -0.5729
 4967SOL     OW19633   4.631   3.627   3.280 -0.7618 -0.2302 -0.2575
 4967SOL    HW219634   4.567   3.579   3.228 -0.0952 -1.7047  0.2273
 4967SOL    HW319635   4.680   3.679   3.216 -0.0620 -1.8915 -1.1454
 4967SOL    MW419636   4.629   3.627   3.265 -0.2040 -0.3290 -0.1071
 4968SOL     OW19637   5.205   2.254   3.274  0.1083 -0.0440  0.0244
 4968SOL    HW219638   5.117   2.291   3.269 -0.5012 -1.5642 -1.4855
 4968SOL    HW319639   5.253   2.297   3.203  0.0525 -0.5047 -0.2953
 4968SOL    MW419640   5.199   2.265   3.264 -0.2003  0.0645  0.0892
 4969SOL     OW19641   3.435   3.432   2.932 -0.0702  0.2017 -0.8037
 4969SOL    HW219642   3.398   3.497   2.991 -0.0593 -0.3023 -0.2304
 4969SOL    HW319643   3.382   3.438   2.853 -1.2824 -0.3671 -0.0774
 4969SOL    MW419644   3.423   3.441   2.929  0.0436  0.4239 -0.5301
 4970SOL     OW19645   0.367   6.048   2.760 -0.3810 -0.4036 -0.3829
 4970SOL    HW219646   0.436   6.031   2.696 -0.8399  0.8179 -1.2325
 4970SOL    HW319647   0.348   6.141   2.751 -0.8724 -0.3331  1.1334
 4970SOL    MW419648   0.374   6.058   2.750  0.1545 -0.0163  0.2700
 4971SOL     OW19649   4.511   0.226   1.533  0.4403  0.2485 -0.6617
 4971SOL    HW219650   4.557   0.299   1.575  0.4725  0.3059 -0.7978
 4971SOL    HW319651   4.418   0.247   1.543  0.4579  0.5964 -1.2158
 4971SOL    MW419652   4.505   0.239   1.540  0.1475 -0.2069  0.3312
 4972SOL     OW19653   0.926   2.958   1.596  0.2112 -0.7964 -0.3452
 4972SOL    HW219654   0.939   2.923   1.684 -0.8644 -0.8725 -0.2043
 4972SOL    HW319655   0.901   2.883   1.543  0.1104 -0.6214 -0.5495
 4972SOL    MW419656   0.925   2.944   1.600 -0.3076  0.2992  0.6719
 4973SOL     OW19657   3.858   5.866   4.079  0.1296 -0.2945  0.4790
 4973SOL    HW219658   3.846   5.824   4.164  1.6171 -1.2628  0.2594
 4973SOL    HW319659   3.819   5.952   4.088  0.3676 -0.3345  2.1825
 4973SOL    MW419660   3.852   5.872   4.091  0.0067  0.8322  0.3619
 4974SOL     OW19661   4.771   3.899   3.152  0.1542 -0.4431  0.0028
 4974SOL    HW219662   4.852   3.858   3.183  0.0081  0.0938  1.1559
 4974SOL    HW319663   4.782   3.905   3.057  1.4814 -0.3693  0.1361
 4974SOL    MW419664   4.783   3.895   3.143 -0.0887 -0.2316  0.3595
 4975SOL     OW19665   4.563   0.556   0.521 -0.2635 -0.0424  0.6633
 4975SOL    HW219666   4.565   0.615   0.597  0.5619 -0.0637  0.6607
 4975SOL    HW319667   4.494   0.492   0.543  1.1048 -1.0851  2.1939
 4975SOL    MW419668   4.554   0.555   0.534 -0.0357 -0.0696 -0.3085
 4976SOL     OW19669   4.361   5.687   6.046  0.1583  0.1130 -0.1610
 4976SOL    HW219670   4.300   5.628   6.001 -1.0212  0.7545  0.5441
 4976SOL    HW319671   4.448   5.660   6.015 -0.4555 -0.9933 -0.9978
 4976SOL    MW419672   4.365   5.675   6.036  0.0583 -0.4106  0.6164
 4977SOL     OW19673   6.122   1.466   4.858  0.7300 -0.1215  0.0149
 4977SOL    HW219674   6.161   1.547   4.889  1.2076  0.1587 -1.2625
 4977SOL    HW319675   6.166   1.397   4.909  0.1478  0.4147  1.2710
 4977SOL    MW419676   6.133   1.467   4.869 -0.4147  0.5816 -0.6254
 4978SOL     OW19677   4.664   5.904   1.139  0.0132  0.4360 -0.1722
 4978SOL    HW219678   4.662   5.833   1.075  0.1642 -0.6523  0.9644
 4978SOL    HW319679   4.745   5.889   1.188 -1.3073 -0.3705  1.9176
 4978SOL    MW419680   4.674   5.892   1.137  0.1632 -0.5172 -0.0063
 4979SOL     OW19681   2.768   5.055   0.265  0.7217  0.0581  0.1213
 4979SOL    HW219682   2.846   5.099   0.231  0.1039  1.1537  0.0988
 4979SOL    HW319683   2.709   5.049   0.190 -0.6111  2.4008  0.8740
 4979SOL    MW419684   2.771   5.060   0.250  0.1807  0.2222  0.1337
 4980SOL     OW19685   5.372   0.111   1.542  0.3892 -0.2493  0.2444
 4980SOL    HW219686   5.331   0.196   1.527  0.9728  0.4996  2.5037
 4980SOL    HW319687   5.301   0.055   1.572  0.1583 -0.3311 -0.4412
 4980SOL    MW419688   5.357   0.115   1.544  0.5561  0.7255  0.6173
 4981SOL     OW19689   5.005   3.757   0.158 -0.7197 -0.0309  0.2603
 4981SOL    HW219690   5.007   3.676   0.210 -0.5540  0.2809  0.7486
 4981SOL    HW319691   5.097   3.781   0.150 -0.7876  0.2689  0.3748
 4981SOL    MW419692   5.018   3.750   0.164 -0.0479  0.0704 -0.0358
 4982SOL     OW19693   2.731   0.670   2.127 -0.1688 -0.2010  0.2129
 4982SOL    HW219694   2.637   0.686   2.118 -0.5090  0.4401  3.5639
 4982SOL    HW319695   2.764   0.670   2.037 -3.2173  0.3534 -1.0354
 4982SOL    MW419696   2.723   0.672   2.114  0.4677  0.4177  0.6601
 4983SOL     OW19697   3.949   2.736   6.026 -0.4633 -0.2095  0.2396
 4983SOL    HW219698   3.866   2.689   6.017 -0.4184 -0.1775 -0.3808
 4983SOL    HW319699   3.944   2.778   6.112  0.4700 -3.2272  1.9168
 4983SOL    MW419700   3.937   2.736   6.036  0.6275  0.8036  0.5999
 4984SOL     OW19701   1.596   4.625   6.066  0.4142  0.0439  0.0448
 4984SOL    HW219702   1.645   4.698   6.103  1.2890 -1.1862  1.4600
 4984SOL    HW319703   1.585   4.647   5.974  0.0414  2.2482  0.5578
 4984SOL    MW419704   1.601   4.637   6.059 -0.0525  0.4374  0.0117
 4985SOL     OW19705   2.420   2.088   4.649  0.0188 -0.2962 -0.1623
 4985SOL    HW219706   2.338   2.072   4.603 -0.2228  2.9628 -1.1595
 4985SOL    HW319707   2.394   2.137   4.728  0.9185  0.2369 -0.1775
 4985SOL    MW419708   2.406   2.093   4.654  0.3546  0.8607 -0.2594
 4986SOL     OW19709   2.199   5.564   1.636 -0.6129 -0.1550 -0.5232
 4986SOL    HW219710   2.225   5.481   1.675 -0.7939  0.7438  1.6315
 4986SOL    HW319711   2.110   5.548   1.603 -1.0121 -0.6056  0.6990
 4986SOL    MW419712   2.190   5.551   1.637  0.4718 -0.0088 -0.0969
 4987SOL     OW19713   1.348   1.384   1.009 -0.0807 -0.0122 -0.2490
 4987SOL    HW219714   1.301   1.466   0.993  0.2350  0.0441 -0.9165
 4987SOL    HW319715   1.440   1.410   1.014  0.0635 -0.3734 -0.8873
 4987SOL    MW419716   1.354   1.398   1.007 -0.7602  0.2449  0.2852
 4988SOL     OW19717   0.685   5.017   0.537 -0.4826  0.2174  0.2765
 4988SOL    HW219718   0.643   4.951   0.592 -0.5261 -0.4485 -0.5368
 4988SOL    HW319719   0.675   4.984   0.448 -1.0007  1.6048 -0.2015
 4988SOL    MW419720   0.678   5.004   0.532  0.1495 -0.9234 -0.4044
 4989SOL     OW19721   3.964   1.305   2.093  0.2326 -0.7340 -0.1391
 4989SOL    HW219722   3.961   1.334   2.002 -2.6898  0.2624  0.1619
 4989SOL    HW319723   4.056   1.313   2.118  0.7916  0.9156 -2.4250
 4989SOL    MW419724   3.975   1.310   2.084 -0.3571 -0.1871 -0.1679
 4990SOL     OW19725   5.683   1.120   2.701  0.0760 -0.4820 -0.1055
 4990SOL    HW219726   5.749   1.110   2.633 -0.7593  0.5416 -1.1044
 4990SOL    HW319727   5.726   1.091   2.781  1.3088 -1.0407 -0.9473
 4990SOL    MW419728   5.697   1.115   2.703  0.1745  0.3065 -0.2701
 4991SOL     OW19729   3.672   4.148   4.992  0.0744 -0.8070 -0.1659
 4991SOL    HW219730   3.742   4.168   4.930  0.8830  1.4845  1.3495
 4991SOL    HW319731   3.718   4.118   5.070 -0.7126 -0.6224  0.3741
 4991SOL    MW419732   3.688   4.147   4.994 -0.3314  0.7653 -0.6394
 4992SOL     OW19733   0.297   2.246   5.694  0.2941 -0.5738 -0.1337
 4992SOL    HW219734   0.277   2.265   5.602  0.9703 -0.4171 -0.2579
 4992SOL    HW319735   0.228   2.289   5.744  1.8427  2.4525 -0.3764
 4992SOL    MW419736   0.286   2.254   5.688  0.2301  0.3026  0.2213
 4993SOL     OW19737   4.435   1.948   6.383 -0.4522  0.0822  0.3009
 4993SOL    HW219738   4.497   1.890   6.426 -0.3475 -0.4046 -0.4878
 4993SOL    HW319739   4.366   1.890   6.351  0.4440  0.1400 -1.9044
 4993SOL    MW419740   4.434   1.933   6.385  0.2886 -0.2064 -0.0062
 4994SOL     OW19741   4.332   6.364   4.995  0.0043  0.3887  0.4154
 4994SOL    HW219742   4.350   6.451   4.960  0.0066 -0.4272 -1.7046
 4994SOL    HW319743   4.246   6.341   4.962  0.1953 -0.6120  0.5682
 4994SOL    MW419744   4.323   6.372   4.986  0.2167 -0.5067 -0.4844
 4995SOL     OW19745   0.867   4.928   3.874  0.6176 -0.6648 -0.9569
 4995SOL    HW219746   0.909   4.988   3.935 -1.8019 -2.2295  2.5558
 4995SOL    HW319747   0.939   4.888   3.826  2.6082  1.1895  0.2890
 4995SOL    MW419748   0.882   4.931   3.875 -0.1344 -0.1228 -0.1126
 4996SOL     OW19749   5.288   2.278   1.258 -0.4548  0.2838 -0.5331
 4996SOL    HW219750   5.231   2.201   1.263 -0.1714  0.0429 -1.0103
 4996SOL    HW319751   5.325   2.275   1.170  1.0547 -0.1064  0.0763
 4996SOL    MW419752   5.285   2.267   1.247 -0.4078 -0.4062 -0.2746
 4997SOL     OW19753   6.106   5.095   1.343 -0.0756 -0.1926  0.1771
 4997SOL    HW219754   6.161   5.075   1.267  0.5419  0.5202  0.4180
 4997SOL    HW319755   6.159   5.068   1.418 -0.6663 -0.8552  0.3650
 4997SOL    MW419756   6.121   5.089   1.342  0.5007  0.0966 -0.1545
 4998SOL     OW19757   4.389   4.473   4.202  0.4662  0.0632 -0.7298
 4998SOL    HW219758   4.483   4.469   4.186  0.5540  0.0889 -0.2429
 4998SOL    HW319759   4.366   4.565   4.188  0.7237  0.2858  0.2562
 4998SOL    MW419760   4.398   4.485   4.198  0.1021  0.2482  0.1626
 4999SOL     OW19761   5.849   2.097   1.838  0.6600  0.7460  0.0273
 4999SOL    HW219762   5.886   2.012   1.863  1.4805  1.3461  0.9040
 4999SOL    HW319763   5.909   2.131   1.772  0.5009  0.7941 -0.0954
 4999SOL    MW419764   5.861   2.090   1.832  0.0327 -0.2597 -0.6405
 5000SOL     OW19765   3.046   1.982   3.025 -0.5547 -0.1904 -0.1813
 5000SOL    HW219766   3.025   2.052   3.086 -1.4195 -0.0344 -0.6363
 5000SOL    HW319767   2.967   1.973   2.971  0.0399 -0.5863 -1.0133
 5000SOL    MW419768   3.032   1.990   3.026  0.3345 -0.5153 -0.7788
 5001SOL     OW19769   6.408   0.659   5.821  0.5513 -0.0906  0.2595
 5001SOL    HW219770   6.333   0.694   5.773  0.0007 -2.0783 -0.3959
 5001SOL    HW319771   6.382   0.666   5.913 -2.1400 -4.0345  0.0238
 5001SOL    MW419772   6.395   0.665   5.827 -0.4788 -0.3775  0.1183
 5002SOL     OW19773   1.854   4.899   5.861 -0.1083 -0.9078 -0.2072
 5002SOL    HW219774   1.919   4.892   5.791  0.2125 -1.4582  0.1410
 5002SOL    HW319775   1.898   4.865   5.938 -0.8051 -1.2752  0.0329
 5002SOL    MW419776   1.868   4.893   5.862 -0.6805 -0.2530 -0.0523
 5003SOL     OW19777   2.835   5.085   2.841  0.5655 -0.1614 -0.5551
 5003SOL    HW219778   2.788   5.108   2.761  0.4826 -0.4240 -0.5825
 5003SOL    HW319779   2.790   5.135   2.910 -0.1733 -0.9025 -0.4831
 5003SOL    MW419780   2.823   5.095   2.840 -0.0035 -0.5253  0.0352
 5004SOL     OW19781   1.257   1.624   1.251  0.1246 -0.0406  0.4964
 5004SOL    HW219782   1.351   1.637   1.245  0.2045 -1.0858 -1.0134
 5004SOL    HW319783   1.234   1.652   1.339  1.8500  0.1752  0.8999
 5004SOL    MW419784   1.266   1.629   1.262 -0.0405 -0.3797  0.0423
 5005SOL     OW19785   1.249   2.307   6.417  0.0714 -0.4732 -0.3928
 5005SOL    HW219786   1.236   2.223   6.374  1.1871 -0.4196 -0.8653
 5005SOL    HW319787   1.342   2.308   6.441 -0.3913 -0.2556  1.5250
 5005SOL    MW419788   1.259   2.296   6.415  0.0640  0.1660 -0.0333
 5006SOL     OW19789   6.330   0.127   3.881 -0.0678 -0.2186 -0.1297
 5006SOL    HW219790   6.241   0.155   3.905  0.9601  1.9265  1.4224
 5006SOL    HW319791   6.373   0.110   3.964  1.9508  2.0589 -0.6123
 5006SOL    MW419792   6.324   0.128   3.895 -0.0234  0.1059 -0.2838
 5007SOL     OW19793   0.597   4.050   3.678  0.4158 -0.3152 -0.1263
 5007SOL    HW219794   0.668   4.108   3.651  0.4434 -0.3552 -0.1394
 5007SOL    HW319795   0.520   4.084   3.632  0.6101 -0.8509 -0.8711
 5007SOL    MW419796   0.596   4.062   3.668  0.0140 -0.0130  0.9138
 5008SOL     OW19797   3.013   4.077   6.139  0.3350  0.2732 -0.4772
 5008SOL    HW219798   3.037   4.147   6.078 -2.7863  2.7550  0.8517
 5008SOL    HW319799   3.006   4.122   6.224 -0.2388 -2.0397  0.7753
 5008SOL    MW419800   3.015   4.092   6.142  0.1597  0.5676 -0.3996
 5009SOL     OW19801   6.167   0.522   3.434  0.4084  0.0970  0.5401
 5009SOL    HW219802   6.262   0.524   3.428  0.3785 -0.3006 -0.2486
 5009SOL    HW319803   6.149   0.476   3.516  0.8831  1.3859  1.4041
 5009SOL    MW419804   6.177   0.516   3.444  0.0349  0.3792  0.1512
 5010SOL     OW19805   0.983   0.102   3.447  0.0133 -0.1225 -0.0822
 5010SOL    HW219806   0.983   0.169   3.379 -2.0141 -0.6695 -0.7047
 5010SOL    HW319807   1.061   0.120   3.500 -1.4886  4.0834  1.1099
 5010SOL    MW419808   0.993   0.113   3.445  0.1954 -0.6248  0.4416
 5011SOL     OW19809   2.826   2.978   2.272 -0.1090 -0.0671  0.0824
 5011SOL    HW219810   2.852   2.932   2.351  2.3423  0.2349 -0.4762
 5011SOL    HW319811   2.861   2.925   2.200  0.0652  1.0635 -0.6969
 5011SOL    MW419812   2.834   2.965   2.273 -0.7809  0.1435 -0.2305
 5012SOL     OW19813   1.169   4.984   1.469 -0.4036  0.5151  0.0026
 5012SOL    HW219814   1.076   4.997   1.451 -0.4491  1.9786  1.1136
 5012SOL    HW319815   1.170   4.925   1.545 -0.3963 -0.0434 -0.4263
 5012SOL    MW419816   1.157   4.978   1.477 -0.0033 -0.0170 -0.0925
 5013SOL     OW19817   4.098   2.041   3.146 -0.1863  0.5360 -0.2809
 5013SOL    HW219818   4.059   2.092   3.075 -0.6041 -1.5928 -1.6997
 5013SOL    HW319819   4.156   1.979   3.102  0.3320 -0.1865  1.3383
 5013SOL    MW419820   4.100   2.039   3.131 -0.1087 -0.2475 -1.2372
 5014SOL     OW19821   5.620   6.014   0.020 -0.3799  0.2237  0.5883
 5014SOL    HW219822   5.558   6.080  -0.010 -1.2375 -0.0219  1.7493
 5014SOL    HW319823   5.687   6.010  -0.049 -0.3473  2.2319  0.4561
 5014SOL    MW419824   5.621   6.022   0.007 -0.6033 -0.9025  0.7389
 5015SOL     OW19825   2.814   5.954   5.204  0.2647 -0.0862  0.3585
 5015SOL    HW219826   2.835   6.039   5.164 -0.5183 -1.1200 -2.4760
 5015SOL    HW319827   2.896   5.926   5.245  0.9700  1.3523  0.0033
 5015SOL    MW419828   2.828   5.962   5.204  0.8920  0.2491 -0.3184
 5016SOL     OW19829   2.506   3.653   3.463  0.5187  0.2753 -0.3920
 5016SOL    HW219830   2.440   3.589   3.489 -0.4741  1.0993 -0.7764
 5016SOL    HW319831   2.486   3.730   3.516  2.0985  0.0686  0.5355
 5016SOL    MW419832   2.494   3.655   3.473 -0.2580 -0.2225 -0.3331
 5017SOL     OW19833   3.852   4.975   2.844  0.0507 -0.1185 -0.2014
 5017SOL    HW219834   3.877   4.975   2.937  3.0662  1.2545 -0.9150
 5017SOL    HW319835   3.932   4.951   2.797 -0.4427  2.4383 -2.6091
 5017SOL    MW419836   3.866   4.972   2.850 -0.3319  0.0002  0.1745
 5018SOL     OW19837   4.952   0.064   2.437  0.4397  0.0151  0.5508
 5018SOL    HW219838   4.970   0.069   2.531  1.7283 -1.2231  0.4054
 5018SOL    HW319839   4.918  -0.025   2.424  1.6194 -0.3344 -0.3408
 5018SOL    MW419840   4.950   0.053   2.448 -0.3500 -0.0142  0.0493
 5019SOL     OW19841   3.495   6.209   2.474 -0.2069  0.1253  0.0783
 5019SOL    HW219842   3.489   6.246   2.385  0.4243 -0.3282 -0.1565
 5019SOL    HW319843   3.421   6.149   2.480  0.4424 -0.7508 -0.5735
 5019SOL    MW419844   3.485   6.206   2.463 -0.6929  0.0065 -0.0920
 5020SOL     OW19845   5.453   3.731   5.403  0.8940  0.0702 -0.3214
 5020SOL    HW219846   5.386   3.741   5.335  0.0836 -0.4530  0.3877
 5020SOL    HW319847   5.534   3.762   5.361  0.0792  1.4478 -0.9243
 5020SOL    MW419848   5.455   3.736   5.388 -0.1068 -0.3091  0.0452
 5021SOL     OW19849   2.873   6.304   4.200  0.7442 -0.3603  0.3093
 5021SOL    HW219850   2.961   6.271   4.217  1.7610  0.9613 -1.8927
 5021SOL    HW319851   2.862   6.294   4.105 -0.5622  1.5799  0.2043
 5021SOL    MW419852   2.883   6.299   4.189 -0.0054  0.1244 -0.3415
 5022SOL     OW19853   4.708   2.622   6.378 -0.2029 -0.0628 -0.0074
 5022SOL    HW219854   4.765   2.680   6.328 -1.8981  1.6639 -0.0533
 5022SOL    HW319855   4.620   2.655   6.361 -1.0720 -1.4207  1.6085
 5022SOL    MW419856   4.704   2.634   6.369  0.3727 -0.1571 -0.0146
 5023SOL     OW19857   4.346   3.313   3.972 -0.5029 -0.2660  0.4532
 5023SOL    HW219858   4.407   3.383   3.995  1.5769 -2.8259  3.5153
 5023SOL    HW319859   4.275   3.322   4.035 -0.7789 -0.2755  0.1428
 5023SOL    MW419860   4.345   3.324   3.983  0.1498  0.2610 -0.0201
 5024SOL     OW19861   0.129   3.784   1.554  0.3339  0.7821  0.8264
 5024SOL    HW219862   0.163   3.870   1.574 -1.1272  1.0394  2.4404
 5024SOL    HW319863   0.133   3.736   1.636  0.9221 -0.6293  0.0042
 5024SOL    MW419864   0.134   3.789   1.567  0.1645  0.0753 -0.4448
 5025SOL     OW19865   4.379   4.038   4.506  0.5650  0.2211  0.0579
 5025SOL    HW219866   4.380   4.035   4.410  2.9959  0.7312  0.0063
 5025SOL    HW319867   4.326   3.963   4.532  1.5921 -1.1906 -1.6864
 5025SOL    MW419868   4.372   4.028   4.497 -0.1356  1.2393 -0.0580
 5026SOL     OW19869   3.030   0.247   4.550  0.6275 -0.4335 -0.4226
 5026SOL    HW219870   3.061   0.269   4.638 -0.7793  2.1578 -0.4447
 5026SOL    HW319871   2.960   0.184   4.564 -0.7221  1.1879  0.5612
 5026SOL    MW419872   3.025   0.242   4.563  0.4940  0.4882 -0.0004
 5027SOL     OW19873   2.231   5.733   3.358 -0.0764  0.1468 -0.1095
 5027SOL    HW219874   2.240   5.797   3.428  0.3577 -1.1250  1.0411
 5027SOL    HW319875   2.137   5.724   3.344 -0.1498  0.6488  0.0738
 5027SOL    MW419876   2.220   5.740   3.365 -0.7675 -0.1690 -0.2621
 5028SOL     OW19877   4.161   4.019   5.698  0.4012  0.0206  0.0471
 5028SOL    HW219878   4.242   4.071   5.704  1.3549 -1.1536 -1.8573
 5028SOL    HW319879   4.094   4.082   5.672  1.2924  0.5472 -1.0482
 5028SOL    MW419880   4.163   4.034   5.695 -0.4279  0.1465  0.0660
 5029SOL     OW19881   3.582   1.104   6.206  0.4691  0.0562 -0.0682
 5029SOL    HW219882   3.655   1.064   6.252  0.1216  1.1401  1.5162
 5029SOL    HW319883   3.536   1.155   6.273 -1.9680 -0.8883 -0.9098
 5029SOL    MW419884   3.585   1.106   6.221  0.2215 -0.0476  0.8556
 5030SOL     OW19885   1.017   0.417   0.765 -0.1615 -0.0628 -0.0670
 5030SOL    HW219886   0.985   0.327   0.771 -2.1449  0.6648  1.5216
 5030SOL    HW319887   0.941   0.468   0.737  0.9233  1.1449 -0.9219
 5030SOL    MW419888   1.003   0.412   0.762 -0.4926 -0.1404 -0.3077
 5031SOL     OW19889   4.832   0.297   3.490  0.5363  0.0293 -0.4091
 5031SOL    HW219890   4.782   0.216   3.503 -0.3649  0.4176 -1.3087
 5031SOL    HW319891   4.918   0.268   3.461  0.7987 -0.6490  0.9747
 5031SOL    MW419892   4.837   0.282   3.488  0.2808  0.2336 -0.6035
 5032SOL     OW19893   2.974   3.810   0.509  0.0700  0.1743 -0.1925
 5032SOL    HW219894   2.983   3.724   0.469  1.4459 -0.4434  1.3137
 5032SOL    HW319895   3.058   3.853   0.492  0.0922  0.4934  0.6499
 5032SOL    MW419896   2.987   3.804   0.502  0.0246  0.4389 -0.4966
 5033SOL     OW19897   5.616   2.647   1.750 -0.3034  0.5533  0.5460
 5033SOL    HW219898   5.699   2.677   1.788 -0.1913  2.1340 -0.8305
 5033SOL    HW319899   5.551   2.663   1.818  0.1506  1.7037  0.7364
 5033SOL    MW419900   5.619   2.653   1.764 -0.7452 -1.1960  0.1256
 5034SOL     OW19901   2.129   1.174   5.367  0.1511 -0.3117 -0.2873
 5034SOL    HW219902   2.071   1.250   5.374 -0.5756 -0.8484 -0.5022
 5034SOL    HW319903   2.168   1.166   5.454 -1.5238 -1.0798  0.4408
 5034SOL    MW419904   2.127   1.183   5.379  0.5166 -0.3470  0.4850
 5035SOL     OW19905   2.902   2.794   4.706  0.0535  0.1029  0.0505
 5035SOL    HW219906   2.812   2.777   4.734  0.3570  1.2964  1.9193
 5035SOL    HW319907   2.893   2.860   4.637 -0.5472 -0.6804 -0.6433
 5035SOL    MW419908   2.889   2.801   4.700  0.2259 -0.0217 -0.2144
 5036SOL     OW19909   4.896   4.617   1.394  0.0765  0.4964  0.0800
 5036SOL    HW219910   4.919   4.693   1.448  1.5435 -1.1192  1.8906
 5036SOL    HW319911   4.849   4.559   1.454 -0.8513 -0.1345 -1.2176
 5036SOL    MW419912   4.893   4.619   1.409  0.2470  0.0097 -0.5427
 5037SOL     OW19913   2.018   4.386   1.440  0.3811 -0.4157 -0.3973
 5037SOL    HW219914   2.001   4.461   1.496  1.5670 -0.9204  0.6923
 5037SOL    HW319915   2.109   4.398   1.410  0.0876 -0.6522 -1.4431
 5037SOL    MW419916   2.028   4.398   1.443  0.6126 -0.9404 -0.0438
 5038SOL     OW19917   0.720   1.166   3.139 -0.0299  0.2986 -0.0245
 5038SOL    HW219918   0.718   1.073   3.162 -0.1927  0.1995 -0.4229
 5038SOL    HW319919   0.663   1.208   3.203 -2.1147 -0.2430 -1.4041
 5038SOL    MW419920   0.712   1.159   3.150  0.0706  0.1042  0.4395
 5039SOL     OW19921   0.806   5.427   3.130 -0.0268 -0.3145 -0.1460
 5039SOL    HW219922   0.800   5.456   3.039  0.1660  1.2819  0.3189
 5039SOL    HW319923   0.897   5.402   3.142 -0.3442 -1.8961 -0.7464
 5039SOL    MW419924   0.817   5.427   3.120  0.1621  0.1595 -0.0890
 5040SOL     OW19925   5.883   2.164   5.397  0.3999  0.1282 -0.5487
 5040SOL    HW219926   5.827   2.097   5.436 -0.4876  1.1197 -0.0381
 5040SOL    HW319927   5.949   2.116   5.348  0.1190 -1.1101  0.2616
 5040SOL    MW419928   5.884   2.149   5.396 -0.4999 -0.2418  0.1567
 5041SOL     OW19929   6.421   3.629   6.128 -0.0203  0.9680 -0.0550
 5041SOL    HW219930   6.435   3.627   6.222 -1.1455  1.4383  0.1382
 5041SOL    HW319931   6.501   3.666   6.092  1.3401 -1.2544  0.4938
 5041SOL    MW419932   6.433   3.634   6.136 -0.4489  0.1098  0.1140
 5042SOL     OW19933   2.456   5.432   1.791 -0.2414 -0.8042 -0.3171
 5042SOL    HW219934   2.549   5.437   1.814 -0.4918 -1.5665  1.0104
 5042SOL    HW319935   2.454   5.403   1.701  0.8127 -1.9800  0.0211
 5042SOL    MW419936   2.468   5.429   1.782  0.7852  0.3965 -0.0826
 5043SOL     OW19937   1.190   0.180   5.312 -0.1849 -0.0592  0.0993
 5043SOL    HW219938   1.114   0.121   5.317 -1.4582  1.3783 -1.1443
 5043SOL    HW319939   1.188   0.229   5.394 -0.1024 -0.5756  0.4167
 5043SOL    MW419940   1.180   0.179   5.323 -0.5051 -0.0621 -0.2642
 5044SOL     OW19941   3.467   5.747   2.675 -0.2415 -0.7836  0.1764
 5044SOL    HW219942   3.484   5.734   2.768 -0.2597  2.8254  0.8243
 5044SOL    HW319943   3.381   5.790   2.672 -0.2664 -0.8966 -1.5126
 5044SOL    MW419944   3.458   5.751   2.687  0.7442  0.4685 -0.3273
 5045SOL     OW19945   0.609   4.667   5.016  0.4599  0.0949 -0.3965
 5045SOL    HW219946   0.645   4.637   5.099  0.2900 -0.0913 -0.3874
 5045SOL    HW319947   0.652   4.613   4.950  1.2455  0.8435 -0.5054
 5045SOL    MW419948   0.619   4.656   5.018 -0.0939  0.8387 -0.1079
 5046SOL     OW19949   4.851   0.723   0.797  0.5023 -0.9034 -0.0532
 5046SOL    HW219950   4.869   0.724   0.703 -0.7882 -2.3101 -0.3353
 5046SOL    HW319951   4.757   0.736   0.804  0.5216 -1.2462  1.0193
 5046SOL    MW419952   4.841   0.725   0.785 -0.2447  0.6571 -0.9787
 5047SOL     OW19953   3.614   3.644   0.529 -0.0839  0.3677 -0.9000
 5047SOL    HW219954   3.640   3.624   0.618 -1.3128 -1.3709 -0.8816
 5047SOL    HW319955   3.537   3.701   0.539 -1.2429 -1.1493 -0.7565
 5047SOL    MW419956   3.607   3.649   0.542 -0.2869 -0.1532  0.6241
 5048SOL     OW19957   5.337   5.017   0.207 -0.2045 -0.1418  0.2059
 5048SOL    HW219958   5.269   4.972   0.156  0.8136 -0.4384 -0.9320
 5048SOL    HW319959   5.391   4.946   0.241 -0.3005  0.1088  0.8883
 5048SOL    MW419960   5.335   5.002   0.204  0.1875 -0.3089 -0.0509
 5049SOL     OW19961   4.626   5.527   4.834 -0.0444 -0.4001 -0.0273
 5049SOL    HW219962   4.567   5.463   4.794 -0.2328  0.0456 -0.4737
 5049SOL    HW319963   4.632   5.597   4.770 -0.3045  0.3069  0.7026
 5049SOL    MW419964   4.619   5.528   4.821 -0.0029 -0.4332 -0.1552
 5050SOL     OW19965   0.592   1.613   5.881  0.4606 -0.4396  0.2706
 5050SOL    HW219966   0.498   1.603   5.869  0.6263 -1.4551 -0.3974
 5050SOL    HW319967   0.604   1.623   5.975 -0.4936  2.3374  0.1795
 5050SOL    MW419968   0.581   1.613   5.892  0.6646  0.1220  0.0574
 5051SOL     OW19969   3.683   5.298   0.671 -0.5497  0.7707 -0.1444
 5051SOL    HW219970   3.777   5.316   0.673  0.1353 -2.4258  1.1472
 5051SOL    HW319971   3.648   5.344   0.747  0.5346 -0.3729  1.0999
 5051SOL    MW419972   3.691   5.307   0.681  0.2074 -0.0090  0.2618
 5052SOL     OW19973   0.871   2.588   4.120  0.0687 -0.1584  0.4307
 5052SOL    HW219974   0.879   2.638   4.201 -0.6896 -1.1781  1.1660
 5052SOL    HW319975   0.778   2.590   4.099 -0.4836 -3.3201  1.9148
 5052SOL    MW419976   0.860   2.595   4.128  0.3453 -0.2575  0.1224
 5053SOL     OW19977   6.116   2.767   4.246 -0.1073  0.0789 -0.0448
 5053SOL    HW219978   6.192   2.732   4.291  0.6677 -0.6872 -1.8775
 5053SOL    HW319979   6.148   2.845   4.201 -0.1922 -0.6127 -1.3668
 5053SOL    MW419980   6.130   2.773   4.246 -0.2244 -0.2787  0.3955
 5054SOL     OW19981   4.938   5.873   2.650 -1.3041 -0.6935 -0.4992
 5054SOL    HW219982   4.965   5.964   2.661 -1.2195 -0.7553 -0.1989
 5054SOL    HW319983   4.888   5.873   2.568 -0.1235 -0.6314 -1.2578
 5054SOL    MW419984   4.935   5.885   2.640  0.2426  0.0790  0.4374
 5055SOL     OW19985   0.595   6.065   1.128 -0.0130  0.2396 -0.6430
 5055SOL    HW219986   0.533   5.995   1.109 -0.1917  0.2623 -0.1547
 5055SOL    HW319987   0.625   6.047   1.217  1.3693 -0.2753 -1.1972
 5055SOL    MW419988   0.591   6.054   1.137  0.4505  0.3953  0.6624
 5056SOL     OW19989   3.754   1.796   4.354  0.3879  0.1488  0.4078
 5056SOL    HW219990   3.724   1.844   4.432 -0.9820  0.1025 -0.0650
 5056SOL    HW319991   3.739   1.704   4.375  2.7111 -0.1128  1.1843
 5056SOL    MW419992   3.748   1.790   4.367  0.0784 -0.0646 -0.4131
 5057SOL     OW19993   0.025   4.823   1.938  0.2005 -0.1041 -0.5356
 5057SOL    HW219994   0.004   4.862   2.023  1.0362 -0.5530 -0.1118
 5057SOL    HW319995  -0.012   4.735   1.941  1.1895 -0.5151 -0.2003
 5057SOL    MW419996   0.017   4.817   1.949 -0.0358  0.3881 -0.2805
 5058SOL     OW19997   3.441   3.312   4.490 -0.3917 -0.8183  0.4953
 5058SOL    HW219998   3.417   3.219   4.478 -2.5711 -0.1413 -1.2474
 5058SOL    HW319999   3.438   3.348   4.401 -2.3143  1.4760  1.3975
 5058SOL    MW420000   3.437   3.304   4.476  0.1788  0.1344 -0.3423
 5059SOL     OW20001   2.787   5.962   4.798  0.4030 -0.1711 -0.5434
 5059SOL    HW220002   2.758   6.053   4.794  0.8031 -0.0638 -1.3484
 5059SOL    HW320003   2.719   5.917   4.849 -0.3679  0.3702 -1.0608
 5059SOL    MW420004   2.774   5.968   4.804  0.3389  0.5472 -0.0873
 5060SOL     OW20005   4.760   1.924   1.495 -0.5423 -0.2761  0.6164
 5060SOL    HW220006   4.687   1.971   1.535 -0.9644  0.1172 -0.5480
 5060SOL    HW320007   4.742   1.929   1.401  0.0343 -1.7512  0.3989
 5060SOL    MW420008   4.748   1.931   1.488  0.2862 -0.5693  0.2331
 5061SOL     OW20009   5.551   1.611   4.984 -0.3759 -0.1623  0.0849
 5061SOL    HW220010   5.625   1.624   5.044  0.5715  0.4687 -1.1852
 5061SOL    HW320011   5.495   1.687   4.999 -0.4330 -0.2898  0.5533
 5061SOL    MW420012   5.553   1.622   4.994  0.1589  1.1225  0.5093
 5062SOL     OW20013   3.410   3.135   0.103  0.0717  0.0205  0.0795
 5062SOL    HW220014   3.324   3.094   0.107  0.8131 -1.5192  1.7697
 5062SOL    HW320015   3.448   3.104   0.021 -0.3593 -0.6942  0.1414
 5062SOL    MW420016   3.404   3.125   0.093 -0.1774 -0.2853 -0.0577
 5063SOL     OW20017   0.217   2.587   4.801  0.1743 -0.4271 -0.1323
 5063SOL    HW220018   0.236   2.681   4.797  0.0248 -0.4085 -0.3927
 5063SOL    HW320019   0.128   2.578   4.767  0.3101 -0.7002 -0.4197
 5063SOL    MW420020   0.208   2.598   4.796  0.0646  0.2046  0.1923
 5064SOL     OW20021   4.908   0.421   4.151 -0.6621  0.0952 -0.3563
 5064SOL    HW220022   4.909   0.386   4.062  1.7039 -3.2204  0.7886
 5064SOL    HW320023   4.847   0.365   4.199 -0.5492  0.6869  0.5123
 5064SOL    MW420024   4.900   0.409   4.146  0.7690  1.3643 -0.5061
 5065SOL     OW20025   4.050   4.356   3.106  0.0536 -0.2617  0.4118
 5065SOL    HW220026   4.086   4.321   3.025 -1.4790 -0.7196 -0.1169
 5065SOL    HW320027   4.084   4.298   3.174  0.6008 -0.4463 -0.0101
 5065SOL    MW420028   4.059   4.343   3.104  0.1397  0.8904  0.2544
 5066SOL     OW20029   2.903   3.328   0.367  0.1462 -1.0204 -0.4411
 5066SOL    HW220030   2.920   3.239   0.398  0.2082 -1.3560 -1.4190
 5066SOL    HW320031   2.821   3.352   0.409 -0.0299 -1.6510 -0.4088
 5066SOL    MW420032   2.895   3.319   0.377  0.3720  0.1828  0.3044
 5067SOL     OW20033   1.601   5.562   6.270  0.2088 -0.3524 -0.6634
 5067SOL    HW220034   1.639   5.558   6.182  0.5863 -3.5945 -0.4845
 5067SOL    HW320035   1.669   5.527   6.327 -1.4160 -2.1998  0.2721
 5067SOL    MW420036   1.615   5.557   6.266  0.9618 -0.2503 -0.0158
 5068SOL     OW20037   6.151   0.901   6.083 -0.4432  0.2980  0.1186
 5068SOL    HW220038   6.209   0.829   6.058 -1.5448 -0.6340  0.1386
 5068SOL    HW320039   6.163   0.911   6.177 -1.1148 -0.6714  0.3316
 5068SOL    MW420040   6.160   0.893   6.092 -0.1063  0.1095  0.1226
 5069SOL     OW20041   4.767   1.718   2.090 -0.4092  0.4535  0.4922
 5069SOL    HW220042   4.854   1.680   2.088 -0.8644 -0.7311  1.7660
 5069SOL    HW320043   4.737   1.706   2.180 -2.3724 -0.3491 -0.2124
 5069SOL    MW420044   4.774   1.711   2.101 -0.4967 -1.2102 -0.3089
 5070SOL     OW20045   4.248   6.392   1.162 -0.4787 -0.3638  0.4518
 5070SOL    HW220046   4.170   6.336   1.153 -1.8135  1.2563  1.3176
 5070SOL    HW320047   4.224   6.455   1.230 -0.5816  3.6114 -2.8411
 5070SOL    MW420048   4.234   6.393   1.169  0.2568 -0.1701 -1.0051
 5071SOL     OW20049   2.682   4.940   2.288  0.2623 -0.0329 -0.3863
 5071SOL    HW220050   2.599   4.988   2.297  0.4247  0.3565 -0.8807
 5071SOL    HW320051   2.687   4.919   2.194  0.1820 -1.0512 -0.1690
 5071SOL    MW420052   2.671   4.944   2.277 -0.2544 -0.2383 -0.2956
 5072SOL     OW20053   2.075   2.915   5.411 -0.2216 -0.1554 -0.0180
 5072SOL    HW220054   2.014   2.972   5.367 -0.8566  0.6980  1.8548
 5072SOL    HW320055   2.099   2.962   5.491  2.9063 -0.4317 -0.6335
 5072SOL    MW420056   2.070   2.928   5.416 -0.7206 -0.2230  0.5026
 5073SOL     OW20057   5.602   1.116   1.571 -0.7472  0.1399  0.3303
 5073SOL    HW220058   5.562   1.051   1.628  0.3657 -0.2999  0.6293
 5073SOL    HW320059   5.639   1.065   1.499 -0.4193  0.5009  0.2427
 5073SOL    MW420060   5.601   1.101   1.569  0.5868  0.2795 -0.0245
 5074SOL     OW20061   0.036   3.849   5.741  0.2696  0.0413  0.2586
 5074SOL    HW220062   0.092   3.920   5.772 -1.2627  0.1274  3.1783
 5074SOL    HW320063   0.022   3.868   5.648 -0.8586  4.2039  1.0759
 5074SOL    MW420064   0.041   3.861   5.733  0.3692  0.4171  0.5056
 5075SOL     OW20065   4.400   4.813   4.441  0.1962  0.4866  0.5109
 5075SOL    HW220066   4.333   4.749   4.462 -0.5038  0.9843 -0.1465
 5075SOL    HW320067   4.453   4.820   4.520  1.1803 -1.9575  0.1672
 5075SOL    MW420068   4.399   4.805   4.454 -0.3750  0.1499 -0.3223
 5076SOL     OW20069   3.385   4.077   3.873  0.6686  0.0515  0.5638
 5076SOL    HW220070   3.296   4.109   3.889  0.1222 -0.5745 -1.0399
 5076SOL    HW320071   3.379   3.983   3.888  0.6241 -0.2486 -1.1959
 5076SOL    MW420072   3.372   4.069   3.877 -0.4701 -0.2140  0.9078
 5077SOL     OW20073   3.260   2.054   2.850 -0.0354 -0.1548  0.2142
 5077SOL    HW220074   3.265   1.975   2.796 -0.3537  1.0686 -1.6956
 5077SOL    HW320075   3.186   2.039   2.908  0.1094 -1.3764  0.1231
 5077SOL    MW420076   3.251   2.041   2.851 -0.1462 -0.4418 -0.3440
 5078SOL     OW20077   5.995   6.281   3.595 -0.1370 -0.4968  0.2218
 5078SOL    HW220078   6.070   6.307   3.649 -0.1000 -0.7085  0.2725
 5078SOL    HW320079   5.932   6.245   3.657 -1.1991  1.6842  0.4810
 5078SOL    MW420080   5.997   6.280   3.610  0.7506 -0.3064  0.1333
 5079SOL     OW20081   0.015   5.214   1.562 -0.0482  0.1028  0.0067
 5079SOL    HW220082   0.076   5.271   1.608 -1.9497  1.2761  1.1979
 5079SOL    HW320083  -0.004   5.144   1.625  0.5376 -0.6336 -0.6095
 5079SOL    MW420084   0.021   5.212   1.576 -0.0056  0.2073 -0.2924
 5080SOL     OW20085   3.406   3.951   4.380 -0.2020 -0.0093  0.4159
 5080SOL    HW220086   3.342   3.919   4.317 -0.9611  1.1185  0.5982
 5080SOL    HW320087   3.438   3.871   4.424  1.9676 -1.1232 -2.7951
 5080SOL    MW420088   3.402   3.936   4.377 -0.4196  0.0288  0.3029
 5081SOL     OW20089   2.732   5.357   5.525 -0.3705  0.2824  0.4634
 5081SOL    HW220090   2.819   5.323   5.504 -0.4808  0.3917 -0.2046
 5081SOL    HW320091   2.720   5.430   5.465 -1.2002 -0.1679  0.0657
 5081SOL    MW420092   2.742   5.362   5.514 -0.3905 -0.7602 -0.5552
 5082SOL     OW20093   3.376   3.504   2.631  0.1567 -0.0765  0.6840
 5082SOL    HW220094   3.450   3.520   2.572  1.4971 -1.7054  1.8383
 5082SOL    HW320095   3.319   3.445   2.582  0.1734  0.2941  0.2104
 5082SOL    MW420096   3.378   3.499   2.616 -0.3896  0.0699 -0.3405
 5083SOL     OW20097   3.343   4.982   2.871  0.1736 -0.4670 -0.1012
 5083SOL    HW220098   3.309   5.053   2.924 -3.1601 -1.0484 -1.2535
 5083SOL    HW320099   3.375   5.024   2.791 -1.6256 -0.1916 -0.7065
 5083SOL    MW420100   3.343   4.997   2.867 -0.4632  0.3574 -0.1902
 5084SOL     OW20101   5.220   1.660   5.994  0.1908 -0.4696 -0.1104
 5084SOL    HW220102   5.216   1.696   5.905 -1.6372 -3.1935 -1.2627
 5084SOL    HW320103   5.145   1.699   6.039  0.2184 -0.2529 -0.2519
 5084SOL    MW420104   5.210   1.670   5.988 -0.7125  0.1550  0.3481
 5085SOL     OW20105   4.969   1.828   4.420 -0.0878  0.0797  0.0647
 5085SOL    HW220106   4.894   1.888   4.416  0.1993  0.4050 -0.7640
 5085SOL    HW320107   5.043   1.882   4.392  0.1696 -0.6752 -0.7495
 5085SOL    MW420108   4.969   1.843   4.416  0.5375 -0.3991  0.0312
 5086SOL     OW20109  -0.001   5.829   1.250 -0.3231  0.4999 -0.4511
 5086SOL    HW220110   0.081   5.781   1.241 -0.7743 -0.5540  0.8318
 5086SOL    HW320111  -0.058   5.792   1.182 -0.9233 -1.4059  1.0021
 5086SOL    MW420112   0.003   5.818   1.240 -0.4067 -0.1189 -0.0024
 5087SOL     OW20113   2.813   1.854   1.199 -0.1075  0.1626 -0.2869
 5087SOL    HW220114   2.753   1.782   1.181  0.8249 -0.7428  0.1392
 5087SOL    HW320115   2.899   1.822   1.171  0.5705  0.5224  1.2665
 5087SOL    MW420116   2.817   1.840   1.193 -0.3157  0.4802 -0.1619
 5088SOL     OW20117   6.376   2.809   5.930  0.1557  0.3844 -0.1615
 5088SOL    HW220118   6.434   2.839   5.859 -1.2121  1.4148 -0.8802
 5088SOL    HW320119   6.389   2.873   6.000  0.5502  0.0876  0.0454
 5088SOL    MW420120   6.386   2.821   5.929 -0.2991 -0.0966 -0.5624
 5089SOL     OW20121   0.997   4.630   6.015  0.9708  0.6591 -0.4302
 5089SOL    HW220122   1.063   4.685   6.056  1.3185  0.7414 -1.0896
 5089SOL    HW320123   0.944   4.598   6.088  1.5100  0.8880  0.0702
 5089SOL    MW420124   0.999   4.633   6.030  0.0130  0.0510 -0.0022
 5090SOL     OW20125   3.738   5.980   5.104 -0.5444 -0.2367  0.1758
 5090SOL    HW220126   3.775   5.902   5.144  0.4181  0.3748  0.5128
 5090SOL    HW320127   3.652   5.991   5.147 -0.1951 -0.4717  0.9535
 5090SOL    MW420128   3.731   5.971   5.115  0.4040  0.5143 -0.1806
 5091SOL     OW20129   2.853   2.639   0.718 -0.3451  0.0739  0.3842
 5091SOL    HW220130   2.759   2.626   0.707 -0.7417  1.7959  1.3083
 5091SOL    HW320131   2.880   2.685   0.639 -0.2779 -0.3523  0.1540
 5091SOL    MW420132   2.844   2.643   0.706 -0.4057 -0.3470  0.4006
 5092SOL     OW20133   4.739   6.082   4.938 -0.6229 -0.7377  0.0848
 5092SOL    HW220134   4.647   6.105   4.952 -0.5876  0.5845 -1.5038
 5092SOL    HW320135   4.755   6.103   4.846  1.2872 -0.8961  0.3430
 5092SOL    MW420136   4.729   6.088   4.928 -0.9565  0.2921  0.4807
 5093SOL     OW20137   4.947   2.814   4.844  0.1943 -0.2586 -0.1985
 5093SOL    HW220138   4.905   2.805   4.930  0.6007  0.2005  0.0551
 5093SOL    HW320139   5.040   2.807   4.863  0.3192  0.5403 -0.5025
 5093SOL    MW420140   4.953   2.812   4.858  0.5281 -0.2127 -0.3539
 5094SOL     OW20141   1.165   6.252   0.208  0.1286 -0.2785 -0.2525
 5094SOL    HW220142   1.169   6.262   0.113  0.6368  0.2700 -0.1816
 5094SOL    HW320143   1.256   6.239   0.234 -0.1409 -1.7956  0.0325
 5094SOL    MW420144   1.177   6.252   0.199 -0.0211  0.6591  0.6597
 5095SOL     OW20145   3.829   2.094   2.226 -0.2327 -0.0714 -0.1647
 5095SOL    HW220146   3.826   2.132   2.314 -0.6891  2.0456 -1.0477
 5095SOL    HW320147   3.743   2.055   2.214  0.2415 -1.4908  0.7496
 5095SOL    MW420148   3.818   2.094   2.236  0.8047  0.4273 -0.4382
 5096SOL     OW20149   0.168   1.845   0.788  0.0383 -0.1307  0.1271
 5096SOL    HW220150   0.081   1.877   0.811  0.4397  1.3755 -0.3153
 5096SOL    HW320151   0.162   1.825   0.695  0.2253  0.2300  0.0351
 5096SOL    MW420152   0.156   1.847   0.779 -0.6167  0.0583  0.2272
 5097SOL     OW20153   2.235   2.122   4.081  0.3044  0.3392 -0.3965
 5097SOL    HW220154   2.190   2.200   4.113 -0.8243 -0.4868  0.1291
 5097SOL    HW320155   2.285   2.090   4.156 -0.9928 -0.6450  0.0971
 5097SOL    MW420156   2.236   2.128   4.095 -0.2906  0.4190  0.1550
 5098SOL     OW20157   4.035   3.607   3.616 -0.1427 -0.4775 -0.5395
 5098SOL    HW220158   4.043   3.563   3.700 -4.2538 -2.8333 -1.1068
 5098SOL    HW320159   3.975   3.680   3.632  0.0600 -0.1625 -1.1759
 5098SOL    MW420160   4.028   3.611   3.629  0.0675  0.1941  0.4982
 5099SOL     OW20161   4.144   4.353   1.137 -0.0042  0.3266 -0.0928
 5099SOL    HW220162   4.238   4.353   1.124 -0.0849 -1.5890 -0.9597
 5099SOL    HW320163   4.132   4.319   1.226  0.1024 -0.4943 -0.3853
 5099SOL    MW420164   4.155   4.349   1.147  0.1565 -0.0086 -0.0366
 5100SOL     OW20165   4.300   4.374   3.912 -0.6857 -0.7421 -0.2784
 5100SOL    HW220166   4.331   4.283   3.908 -1.1336 -0.9033 -0.1380
 5100SOL    HW320167   4.306   4.397   4.004 -0.8648 -0.7322 -0.2695
 5100SOL    MW420168   4.305   4.365   3.923  0.2585 -0.2267 -0.2398
 5101SOL     OW20169   3.660   1.358   2.845 -0.3975  0.0449 -0.3436
 5101SOL    HW220170   3.704   1.293   2.789  2.0439  1.4983 -0.2427
 5101SOL    HW320171   3.706   1.352   2.929 -1.3919  0.6386  0.2667
 5101SOL    MW420172   3.672   1.348   2.849  0.2009 -0.1387  0.0711
 5102SOL     OW20173   2.727   3.949   6.058  0.2036  0.2489 -0.3277
 5102SOL    HW220174   2.822   3.958   6.070  0.1205 -0.8237  1.5202
 5102SOL    HW320175   2.713   3.972   5.966  2.3197 -0.0047 -0.7884
 5102SOL    MW420176   2.738   3.953   6.047  0.7279 -0.2343 -0.1297
 5103SOL     OW20177   5.829   4.461   0.094  0.4765 -0.3068  0.9082
 5103SOL    HW220178   5.787   4.520   0.031  1.1730  0.6576  1.3044
 5103SOL    HW320179   5.792   4.487   0.179 -1.0660 -2.1379  0.8563
 5103SOL    MW420180   5.819   4.472   0.097  0.1635  0.4620  0.5037
 5104SOL     OW20181   3.122   1.863   5.369  0.1657 -0.1854  0.2968
 5104SOL    HW220182   3.126   1.831   5.279 -0.9853  1.5656 -0.4236
 5104SOL    HW320183   3.125   1.784   5.422 -1.7051 -1.4783 -1.3536
 5104SOL    MW420184   3.123   1.849   5.364  0.4474 -0.6685  0.1132
 5105SOL     OW20185   1.635   2.119   2.857 -0.3144  0.5421  0.1747
 5105SOL    HW220186   1.559   2.089   2.806 -0.7384 -0.4660  1.3491
 5105SOL    HW320187   1.620   2.213   2.869 -0.6765  0.6155 -0.7490
 5105SOL    MW420188   1.623   2.128   2.852 -0.1145 -0.1508 -0.4689
 5106SOL     OW20189   3.743   0.600   4.601  0.2635  0.4609 -0.3894
 5106SOL    HW220190   3.784   0.516   4.618  2.2259  1.3245 -0.6192
 5106SOL    HW320191   3.736   0.642   4.687  0.2098  0.4804 -0.4029
 5106SOL    MW420192   3.747   0.595   4.614 -0.1315 -0.0849  0.4426
 5107SOL     OW20193   2.658   6.423   3.525 -0.1532 -0.8235  0.2633
 5107SOL    HW220194   2.688   6.495   3.469 -0.4093  1.0715  2.4390
 5107SOL    HW320195   2.708   6.347   3.495  2.4888  0.9305 -0.0880
 5107SOL    MW420196   2.668   6.422   3.513  0.1624 -0.0006 -0.6903
 5108SOL     OW20197   1.505   0.381   3.068  0.4528  0.4117  0.2626
 5108SOL    HW220198   1.572   0.364   3.134  0.4640  2.4107  0.8352
 5108SOL    HW320199   1.505   0.303   3.013  0.9150 -1.0379  2.2137
 5108SOL    MW420200   1.514   0.369   3.070  0.6688  0.6082 -0.1347
 5109SOL     OW20201   0.271   4.735   1.459 -0.2638  0.4971 -0.5081
 5109SOL    HW220202   0.320   4.707   1.381  0.0213 -0.9316  0.1435
 5109SOL    HW320203   0.185   4.695   1.448 -0.1787  0.1780 -0.0329
 5109SOL    MW420204   0.266   4.726   1.447  0.7247 -0.3795  0.4817
 5110SOL     OW20205   5.763   0.182   3.879 -0.0728 -0.5481  0.3076
 5110SOL    HW220206   5.757   0.268   3.837 -0.1368 -0.8614 -0.3356
 5110SOL    HW320207   5.856   0.175   3.904  0.6091 -1.4429 -2.1888
 5110SOL    MW420208   5.775   0.193   3.877  0.7030 -0.5087 -0.3286
 5111SOL     OW20209   2.461   5.012   3.208  0.1328 -0.1892 -0.3169
 5111SOL    HW220210   2.464   5.071   3.133 -0.7206  0.0691 -0.1547
 5111SOL    HW320211   2.476   5.068   3.284  0.9420 -0.4414 -0.2812
 5111SOL    MW420212   2.464   5.027   3.208 -0.2884 -0.1569  0.7439
 5112SOL     OW20213   3.049   1.024   5.822  0.7461 -0.0750 -0.7094
 5112SOL    HW220214   2.958   0.995   5.814  1.4366 -2.9542  0.3872
 5112SOL    HW320215   3.053   1.068   5.907  0.3470  0.2653 -0.8641
 5112SOL    MW420216   3.038   1.026   5.832  0.1341  0.2150  0.4599
 5113SOL     OW20217   1.280   2.973   3.710 -0.0814  0.4856  0.5105
 5113SOL    HW220218   1.187   2.986   3.692 -0.2356  0.0462  0.9971
 5113SOL    HW320219   1.284   2.897   3.768  0.6715 -0.2796 -0.4990
 5113SOL    MW420220   1.268   2.965   3.715  0.0856 -0.6881 -0.0242
 5114SOL     OW20221   2.888   0.940   1.895  0.3969  0.4184 -0.7849
 5114SOL    HW220222   2.971   0.935   1.943 -0.0704  0.0434  0.0038
 5114SOL    HW320223   2.866   0.849   1.877  0.0735  0.5104 -0.8520
 5114SOL    MW420224   2.896   0.927   1.899 -0.4421  0.1450  0.2161
 5115SOL     OW20225   4.155   4.107   6.385  0.0968 -0.6288  0.3334
 5115SOL    HW220226   4.080   4.110   6.325 -0.4022 -0.7745  0.9394
 5115SOL    HW320227   4.116   4.090   6.471  0.7550  0.0554  0.7769
 5115SOL    MW420228   4.140   4.105   6.388 -0.2848 -0.3270 -0.0492
 5116SOL     OW20229   2.115   3.330   1.633 -0.1743 -0.4627 -0.2319
 5116SOL    HW220230   2.180   3.309   1.700 -1.2037 -1.2560  0.5657
 5116SOL    HW320231   2.049   3.381   1.681 -0.5470 -0.3842 -0.8281
 5116SOL    MW420232   2.115   3.334   1.648  0.1786  0.5645  0.1386
 5117SOL     OW20233   4.837   0.485   0.456 -0.6512  0.2442 -0.4333
 5117SOL    HW220234   4.751   0.462   0.492 -0.5915  1.2851  0.4359
 5117SOL    HW320235   4.892   0.410   0.477 -1.3201 -0.4203 -0.9666
 5117SOL    MW420236   4.833   0.472   0.464 -0.2831 -0.0903 -0.2299
 5118SOL     OW20237   4.459   4.175   2.433  0.1650  0.2605  0.3717
 5118SOL    HW220238   4.453   4.255   2.486  0.1898 -0.3996  1.3953
 5118SOL    HW320239   4.411   4.109   2.482 -1.1027 -0.0287 -1.1638
 5118SOL    MW420240   4.452   4.177   2.446  1.0053  0.5822 -0.3549
 5119SOL     OW20241   1.419   1.286   1.582 -0.5945  0.1659 -0.7270
 5119SOL    HW220242   1.416   1.283   1.486  0.8328  1.3143 -0.8493
 5119SOL    HW320243   1.407   1.378   1.603  0.1283  0.0756  0.1376
 5119SOL    MW420244   1.417   1.298   1.572  0.1603  0.4485  0.3616
 5120SOL     OW20245   0.534   3.989   6.419  0.1794  0.1618  0.7128
 5120SOL    HW220246   0.619   3.999   6.462  1.7351 -0.5134 -1.9239
 5120SOL    HW320247   0.530   4.063   6.358 -0.7243 -0.2646  0.2377
 5120SOL    MW420248   0.545   4.000   6.417  0.3228 -0.4537 -0.4470
 5121SOL     OW20249   2.889   5.861   2.735 -0.0056 -0.0058  0.3019
 5121SOL    HW220250   2.891   5.770   2.708  2.1192 -0.1198  0.6528
 5121SOL    HW320251   2.796   5.881   2.749 -1.1299 -0.6387 -4.4992
 5121SOL    MW420252   2.877   5.852   2.733 -0.0285  0.4411 -0.2346
 5122SOL     OW20253   3.793   2.130   2.504 -0.0042  0.2581  0.1208
 5122SOL    HW220254   3.860   2.075   2.544 -0.0263  1.2928  1.6567
 5122SOL    HW320255   3.710   2.089   2.531 -0.0392  1.4282  1.9422
 5122SOL    MW420256   3.791   2.117   2.513 -0.8666  0.3792  0.4897
 5123SOL     OW20257   1.024   0.205   4.508 -0.1932  0.3699 -0.2385
 5123SOL    HW220258   0.940   0.241   4.480 -1.2282 -1.1301  0.7235
 5123SOL    HW320259   1.032   0.230   4.600  0.4133  0.4856 -0.3170
 5123SOL    MW420260   1.014   0.213   4.516 -0.4102 -0.6950  0.2092
 5124SOL     OW20261   0.640   1.840   2.234  0.1460  0.0433  0.9169
 5124SOL    HW220262   0.564   1.867   2.182  1.1631 -1.8359 -1.8314
 5124SOL    HW320263   0.630   1.885   2.318 -2.7530  1.6517 -0.1520
 5124SOL    MW420264   0.628   1.849   2.238  0.2687 -0.1215  0.1324
 5125SOL     OW20265   4.874   1.357   0.490  0.7582 -0.2320  0.1424
 5125SOL    HW220266   4.822   1.412   0.432 -1.5704  1.1926  3.2854
 5125SOL    HW320267   4.896   1.280   0.438 -0.7607  1.1235 -2.6831
 5125SOL    MW420268   4.870   1.354   0.476 -0.3434 -0.4224 -0.1608
 5126SOL     OW20269   5.878   2.594   4.150  0.3783  0.3190  0.0599
 5126SOL    HW220270   5.955   2.631   4.194  0.0620  0.6317  0.3582
 5126SOL    HW320271   5.898   2.602   4.057  1.1183 -0.4872  0.1410
 5126SOL    MW420272   5.891   2.600   4.144 -0.6186  0.6066 -0.7727
 5127SOL     OW20273   2.567   5.436   4.882 -0.0543 -0.6466  0.4320
 5127SOL    HW220274   2.601   5.454   4.795 -0.3929  2.3332  0.8023
 5127SOL    HW320275   2.496   5.499   4.894 -0.8612 -1.8073  2.4147
 5127SOL    MW420276   2.562   5.447   4.872 -0.5986 -0.3963  0.1617
 5128SOL     OW20277   0.218   0.239   2.591 -0.0458  0.4404  0.8347
 5128SOL    HW220278   0.225   0.189   2.510 -0.2643  2.1824 -0.3292
 5128SOL    HW320279   0.294   0.214   2.642 -0.1488 -1.0437  0.3109
 5128SOL    MW420280   0.229   0.229   2.587 -0.5238  0.2691  0.4140
 5129SOL     OW20281   2.335   2.614   0.068 -0.3630 -0.2747 -0.1285
 5129SOL    HW220282   2.322   2.653  -0.019  0.4462  0.0723 -0.1062
 5129SOL    HW320283   2.372   2.527   0.050 -0.9625 -0.5321 -0.1447
 5129SOL    MW420284   2.338   2.607   0.054 -0.2524 -0.2091 -0.5438
 5130SOL     OW20285   6.034   1.379   3.754  0.1118  0.4300 -0.1324
 5130SOL    HW220286   5.969   1.399   3.821  0.9981 -0.8418  1.1731
 5130SOL    HW320287   5.983   1.365   3.674 -1.0590  1.0362  0.4790
 5130SOL    MW420288   6.019   1.380   3.752 -0.1801 -0.1954 -0.1294
 5131SOL     OW20289   2.384   5.567   0.963  1.0282 -0.3451 -0.2696
 5131SOL    HW220290   2.353   5.626   1.032  1.1535  0.8125 -1.1839
 5131SOL    HW320291   2.480   5.568   0.973  1.0800  0.2436 -0.7869
 5131SOL    MW420292   2.393   5.575   0.974  0.1647 -0.3575 -0.6468
 5132SOL     OW20293   4.221   1.763   6.325 -0.1121  0.3134  0.0852
 5132SOL    HW220294   4.156   1.750   6.394  0.2017  1.0018  0.5246
 5132SOL    HW320295   4.173   1.805   6.254 -0.7051 -1.4388 -0.6039
 5132SOL    MW420296   4.206   1.767   6.325 -0.0511 -0.0895  0.0997
 5133SOL     OW20297   1.847   0.124   0.994 -0.2446  0.0427  0.4070
 5133SOL    HW220298   1.778   0.145   0.931  0.8748 -0.3039 -0.9717
 5133SOL    HW320299   1.859   0.030   0.986 -0.7963 -0.1789  1.9167
 5133SOL    MW420300   1.840   0.114   0.985  0.7464  0.6372 -0.5524
 5134SOL     OW20301   1.968   1.627   5.166  0.7019  0.4208 -0.5714
 5134SOL    HW220302   2.047   1.613   5.113 -0.4063  2.0812 -2.8051
 5134SOL    HW320303   1.899   1.581   5.119 -0.1819  1.2752 -0.1359
 5134SOL    MW420304   1.970   1.619   5.153 -0.1865  0.3708  0.0355
 5135SOL     OW20305   5.862   0.537   6.347  0.0769 -0.4223 -0.2855
 5135SOL    HW220306   5.816   0.455   6.329  0.0107 -0.5288  0.3655
 5135SOL    HW320307   5.894   0.528   6.437  0.1422  0.2302 -0.2383
 5135SOL    MW420308   5.860   0.525   6.356  0.0895  0.0948  0.1966
 5136SOL     OW20309   5.451   0.142   4.234 -0.4319  0.4062 -0.5926
 5136SOL    HW220310   5.367   0.097   4.231 -0.1606 -0.2228  0.5509
 5136SOL    HW320311   5.437   0.223   4.184 -0.9091 -0.9155 -2.7055
 5136SOL    MW420312   5.438   0.147   4.227 -0.2891  0.5405 -0.0316
 5137SOL     OW20313   0.949   4.532   2.514  0.0390  0.8260 -0.2547
 5137SOL    HW220314   0.940   4.602   2.578 -0.4907  0.9534 -0.4631
 5137SOL    HW320315   1.010   4.470   2.555  2.0957  2.3117 -0.8654
 5137SOL    MW420316   0.956   4.533   2.528  0.4237  0.3371 -0.0881
 5138SOL     OW20317   0.878   4.645   1.854  0.3117  0.3130  0.4458
 5138SOL    HW220318   0.818   4.643   1.929 -0.5916 -0.5446 -0.2714
 5138SOL    HW320319   0.937   4.571   1.868 -0.7054 -0.6854 -0.3282
 5138SOL    MW420320   0.878   4.635   1.866 -1.0055 -0.4154 -0.2910
 5139SOL     OW20321   4.325   3.037   5.983 -0.5078  0.3969 -0.3739
 5139SOL    HW220322   4.360   3.125   5.972 -1.9379  0.9266 -0.9143
 5139SOL    HW320323   4.387   2.980   5.937 -0.5247  1.3410 -1.5961
 5139SOL    MW420324   4.338   3.041   5.976 -0.0943  0.1426  0.3203
 5140SOL     OW20325   5.004   5.140   0.192 -0.0169 -0.0683 -0.3740
 5140SOL    HW220326   4.984   5.230   0.218  1.7369  0.3411 -0.2854
 5140SOL    HW320327   5.040   5.100   0.271 -0.2828 -0.6817 -0.5597
 5140SOL    MW420328   5.006   5.147   0.206  0.2825 -0.1175 -0.2514
 5141SOL     OW20329   3.662   4.006   0.351 -0.4612  0.5832  0.6490
 5141SOL    HW220330   3.606   3.930   0.333  0.2314 -0.1818  1.6574
 5141SOL    HW320331   3.682   4.042   0.264  0.2401 -1.1409  0.0690
 5141SOL    MW420332   3.657   4.001   0.337  0.1381 -0.3195  0.4678
 5142SOL     OW20333   3.288   3.823   5.928 -0.1552  0.4816  0.4490
 5142SOL    HW220334   3.323   3.816   5.839 -0.3165  0.8939  0.3491
 5142SOL    HW320335   3.329   3.751   5.975 -0.3660  0.0283 -0.0538
 5142SOL    MW420336   3.298   3.813   5.922 -0.0371 -0.3494  0.6632
 5143SOL     OW20337   4.713   2.730   4.545 -0.3500 -0.4300  0.0634
 5143SOL    HW220338   4.725   2.667   4.474  0.6341 -0.5373  0.3041
 5143SOL    HW320339   4.801   2.764   4.562 -0.3313 -1.3872  2.1197
 5143SOL    MW420340   4.726   2.726   4.538  0.0449 -0.1612 -0.5532
 5144SOL     OW20341   4.144   2.147   6.346  0.3157  0.1431  0.6038
 5144SOL    HW220342   4.174   2.209   6.279  1.0248  0.5544  1.2813
 5144SOL    HW320343   4.074   2.194   6.392 -0.1534 -0.1291  0.1639
 5144SOL    MW420344   4.139   2.162   6.344 -0.0225  0.4739  0.7165
 5145SOL     OW20345   3.500   4.530   3.939 -0.7749 -0.8255  0.0401
 5145SOL    HW220346   3.557   4.596   3.979 -2.1803 -0.1299  0.9544
 5145SOL    HW320347   3.528   4.448   3.979 -0.3110 -0.5124  0.3726
 5145SOL    MW420348   3.511   4.528   3.950 -0.4795 -0.6647 -0.0655
 5146SOL     OW20349   3.765   4.476   3.116 -0.5158  1.1346  0.4905
 5146SOL    HW220350   3.676   4.441   3.112 -0.5437  1.2472  0.0370
 5146SOL    HW320351   3.817   4.406   3.154 -0.7848  1.0375  0.6789
 5146SOL    MW420352   3.760   4.462   3.120 -0.0946  0.3642 -0.1298
 5147SOL     OW20353   2.590   4.216   6.091  0.2121  0.0497  0.3972
 5147SOL    HW220354   2.677   4.255   6.096  0.7021 -1.0549  1.2201
 5147SOL    HW320355   2.551   4.235   6.176  0.3154 -0.8870  0.6652
 5147SOL    MW420356   2.597   4.223   6.103 -0.0035 -0.2461  0.2311
 5148SOL     OW20357   5.250   4.045   4.404  0.0316  0.4618 -0.1855
 5148SOL    HW220358   5.313   3.977   4.429  1.4135  1.6368 -0.3537
 5148SOL    HW320359   5.186   4.046   4.476 -0.1794 -1.1735 -0.3093
 5148SOL    MW420360   5.250   4.036   4.417  0.3710 -0.0283  0.5071
 5149SOL     OW20361   0.199   4.595   5.892 -0.0559  0.3429  0.4101
 5149SOL    HW220362   0.182   4.686   5.870 -0.7202  0.1312  0.0100
 5149SOL    HW320363   0.191   4.591   5.987 -0.6363  0.5850  0.3738
 5149SOL    MW420364   0.196   4.606   5.902  0.8724  0.3330 -0.1288
 5150SOL     OW20365   2.845   1.627   4.195  0.3443 -0.7594  0.0841
 5150SOL    HW220366   2.751   1.633   4.214  0.8613  0.7129  2.6830
 5150SOL    HW320367   2.854   1.665   4.107 -1.4532 -0.6367 -0.0902
 5150SOL    MW420368   2.834   1.633   4.186 -0.3956 -0.5461  0.1892
 5151SOL     OW20369   5.767   6.323   4.279 -0.0719  0.1529  0.0664
 5151SOL    HW220370   5.774   6.402   4.332  0.9534 -0.5799  1.0786
 5151SOL    HW320371   5.830   6.262   4.318 -2.0274 -1.7861  0.4353
 5151SOL    MW420372   5.776   6.325   4.291 -0.5209 -0.7402 -0.0884
 5152SOL     OW20373   3.517   5.554   1.936 -0.0231 -0.2110  0.3768
 5152SOL    HW220374   3.569   5.563   2.016  2.5181 -1.0760 -1.0400
 5152SOL    HW320375   3.508   5.643   1.902  2.4633 -0.1866 -0.3982
 5152SOL    MW420376   3.523   5.567   1.942  0.2712 -0.3739  0.4199
 5153SOL     OW20377   5.607   0.024   5.320  0.2991 -0.7046 -0.4121
 5153SOL    HW220378   5.564   0.026   5.406 -1.3680 -2.5388 -1.1213
 5153SOL    HW320379   5.636   0.114   5.305 -1.0990  0.0758  1.2289
 5153SOL    MW420380   5.605   0.036   5.329  0.0157 -0.0800  0.6314
 5154SOL     OW20381   1.727   0.989   0.659 -0.9652  0.1916  0.0649
 5154SOL    HW220382   1.643   0.984   0.706 -1.4413  0.1710 -0.7680
 5154SOL    HW320383   1.723   0.918   0.595 -0.8320  0.9472 -0.8010
 5154SOL    MW420384   1.715   0.979   0.657 -0.1612  0.0056 -0.3229
 5155SOL     OW20385   5.215   3.821   3.647  0.2516  0.0014 -0.1081
 5155SOL    HW220386   5.145   3.829   3.712  1.6278  0.1783  1.4383
 5155SOL    HW320387   5.295   3.820   3.699  1.3994 -0.3558 -1.8059
 5155SOL    MW420388   5.216   3.822   3.663 -0.0778 -0.5191 -0.0085
 5156SOL     OW20389   4.389   3.714   1.319 -0.8219 -0.1312 -0.0648
 5156SOL    HW220390   4.416   3.702   1.410 -0.6849  0.7511  0.0271
 5156SOL    HW320391   4.450   3.660   1.268 -0.3026  0.1013  0.3047
 5156SOL    MW420392   4.401   3.705   1.324  0.0864 -0.4298 -0.0057
 5157SOL     OW20393   6.061   1.792   5.831  0.1483 -0.8471  0.1906
 5157SOL    HW220394   6.050   1.743   5.912 -0.8541  1.4779  1.5605
 5157SOL    HW320395   6.138   1.754   5.790 -0.9712 -4.0365  0.7196
 5157SOL    MW420396   6.069   1.781   5.836 -0.1229  0.3563 -0.0874
 5158SOL     OW20397   5.968   0.487   1.736 -0.2525  0.0115  0.3364
 5158SOL    HW220398   6.031   0.417   1.752  0.4221  0.3587 -0.6820
 5158SOL    HW320399   6.017   0.551   1.684 -1.3704  0.4163 -0.2454
 5158SOL    MW420400   5.983   0.486   1.731  0.5978 -0.2046  0.1666
 5159SOL     OW20401   0.955   2.332   0.789  0.1196  0.2895  0.2113
 5159SOL    HW220402   0.992   2.316   0.876  0.1828 -0.3036  0.0847
 5159SOL    HW320403   1.031   2.339   0.731  0.0628 -0.4315  0.0317
 5159SOL    MW420404   0.970   2.330   0.793  0.4827 -0.0989  0.2947
 5160SOL     OW20405   4.639   0.416   1.679  0.0245  0.1438 -0.1127
 5160SOL    HW220406   4.727   0.454   1.678 -0.4949  1.4930  1.1573
 5160SOL    HW320407   4.616   0.414   1.772 -1.3306 -0.0682 -0.4404
 5160SOL    MW420408   4.648   0.421   1.691 -0.0128 -0.4398  0.2927
 5161SOL     OW20409   5.053   0.317   5.197  0.1139 -0.0135 -0.2072
 5161SOL    HW220410   5.045   0.294   5.289 -0.2502  0.2418 -0.1719
 5161SOL    HW320411   4.973   0.282   5.157 -0.8686  1.8509 -0.0078
 5161SOL    MW420412   5.041   0.310   5.204 -0.3004 -0.6613  0.2427
 5162SOL     OW20413   5.037   3.800   4.701  0.2407 -0.2529 -0.3034
 5162SOL    HW220414   5.004   3.752   4.625 -1.8851 -2.0945  1.6377
 5162SOL    HW320415   5.093   3.737   4.746 -3.3975 -1.6474  2.8468
 5162SOL    MW420416   5.040   3.785   4.696  0.2927  0.6792 -0.3293
 5163SOL     OW20417   2.681   1.393   0.357 -0.2630 -0.0598 -0.1988
 5163SOL    HW220418   2.652   1.469   0.306  0.6771  0.9635  0.7166
 5163SOL    HW320419   2.600   1.345   0.377 -0.8358  0.5056 -1.0877
 5163SOL    MW420420   2.666   1.397   0.353 -0.1390  0.1454  0.1882
 5164SOL     OW20421   5.833   2.119   4.653  0.7679 -0.5736 -0.3057
 5164SOL    HW220422   5.900   2.114   4.584  1.4968 -3.1007  0.4862
 5164SOL    HW320423   5.882   2.124   4.734 -0.0939  1.2216  0.1707
 5164SOL    MW420424   5.848   2.119   4.654  0.2294  0.1122 -0.0322
 5165SOL     OW20425   0.694   2.528   0.241  0.0064 -0.4516 -0.2248
 5165SOL    HW220426   0.651   2.443   0.248  0.0653 -0.5940 -1.3362
 5165SOL    HW320427   0.748   2.535   0.319  0.3497 -1.6347 -0.3351
 5165SOL    MW420428   0.695   2.518   0.252 -0.0716 -0.8927  0.0973
 5166SOL     OW20429   1.611   1.470   2.849 -0.2248  0.2806  0.2037
 5166SOL    HW220430   1.594   1.564   2.857 -0.3850  0.2582  0.1287
 5166SOL    HW320431   1.572   1.431   2.927 -2.8442 -0.0813 -1.1708
 5166SOL    MW420432   1.604   1.477   2.860  0.1881  0.3977  0.3359
 5167SOL     OW20433   6.033   1.828   5.089 -0.2428 -0.2607  0.0169
 5167SOL    HW220434   6.016   1.830   4.995 -0.6742 -2.4190 -0.0146
 5167SOL    HW320435   5.959   1.778   5.125  0.3854 -0.2619  1.3677
 5167SOL    MW420436   6.021   1.822   5.082 -0.3711 -0.5748  0.1971
 5168SOL     OW20437   6.359   4.174   2.762 -0.0116  0.3058 -0.1986
 5168SOL    HW220438   6.364   4.223   2.844 -1.3245 -0.7920  0.5803
 5168SOL    HW320439   6.394   4.234   2.696  0.4857  1.4481  1.0549
 5168SOL    MW420440   6.364   4.188   2.764 -0.3309  0.0693  0.0347
 5169SOL     OW20441   0.964   5.189   5.373  0.2668  0.1916  0.1996
 5169SOL    HW220442   0.916   5.110   5.397 -0.6111  0.9798  1.1188
 5169SOL    HW320443   1.015   5.211   5.450  2.0442 -0.5335 -0.7079
 5169SOL    MW420444   0.965   5.181   5.386 -0.1471 -0.3723 -0.1038
 5170SOL     OW20445   4.899   1.997   6.380 -0.1511  0.0357  0.4943
 5170SOL    HW220446   4.984   2.036   6.399  0.0557 -0.3213  0.3158
 5170SOL    HW320447   4.907   1.906   6.408 -0.5729  0.0722  0.7468
 5170SOL    MW420448   4.911   1.990   6.386 -0.4548  0.6849  0.4352
 5171SOL     OW20449   4.005   3.891   5.258  0.3103  0.3256 -0.1556
 5171SOL    HW220450   4.036   3.919   5.171  0.5063 -0.7766 -0.4598
 5171SOL    HW320451   3.911   3.880   5.247  0.2703  0.6033 -0.1038
 5171SOL    MW420452   3.997   3.893   5.245  0.6199 -0.0823 -0.0339
 5172SOL     OW20453   0.486   5.386   5.152 -0.1568  0.1139  0.1092
 5172SOL    HW220454   0.550   5.316   5.169 -0.4289  0.1228  1.3039
 5172SOL    HW320455   0.418   5.372   5.218 -0.2725  1.4369  0.2950
 5172SOL    MW420456   0.485   5.375   5.163 -0.3738 -0.7275 -0.1357
 5173SOL     OW20457   2.586   2.168   6.165  0.2497 -0.2275 -0.2650
 5173SOL    HW220458   2.538   2.244   6.198 -0.9229 -0.5796 -1.0859
 5173SOL    HW320459   2.665   2.204   6.125  0.2423  0.4549  0.3177
 5173SOL    MW420460   2.590   2.183   6.164  0.4579 -0.1182 -0.0898
 5174SOL     OW20461   3.874   2.617   0.852 -0.6253  0.4375 -0.4170
 5174SOL    HW220462   3.797   2.624   0.909  0.9269  2.4845  1.5753
 5174SOL    HW320463   3.888   2.706   0.819  1.2190  0.2400 -0.2572
 5174SOL    MW420464   3.865   2.630   0.855 -0.0946 -0.6909  0.2005
 5175SOL     OW20465   0.260   5.178   2.142 -0.4020 -0.0674 -0.0500
 5175SOL    HW220466   0.294   5.089   2.152  1.7269  0.6537 -0.3259
 5175SOL    HW320467   0.218   5.179   2.056  1.7245 -0.2395 -1.1713
 5175SOL    MW420468   0.259   5.167   2.132 -0.5845 -0.1282  0.2125
 5176SOL     OW20469   5.497   3.405   1.783 -0.1279 -0.4884 -0.3706
 5176SOL    HW220470   5.556   3.431   1.854 -0.4781 -0.2867 -0.1547
 5176SOL    HW320471   5.419   3.459   1.795 -0.3716 -0.7778 -0.6361
 5176SOL    MW420472   5.495   3.415   1.794 -0.1865 -0.0256  0.1033
 5177SOL     OW20473   1.081   4.884   3.502 -0.5751  0.5694 -0.1065
 5177SOL    HW220474   1.129   4.854   3.580  0.6823  1.3954 -0.5354
 5177SOL    HW320475   1.008   4.935   3.537 -0.6099  0.0978  0.5402
 5177SOL    MW420476   1.078   4.887   3.517  0.2385 -0.6737 -0.1634
 5178SOL     OW20477   4.765   3.833   3.994  0.2505  0.0059  0.1644
 5178SOL    HW220478   4.743   3.785   3.914 -0.1827  0.6032 -0.0859
 5178SOL    HW320479   4.711   3.793   4.062 -0.7315  0.6692 -0.2074
 5178SOL    MW420480   4.755   3.822   3.992 -0.2846 -0.0297 -0.1551
 5179SOL     OW20481   3.524   0.619   1.936  0.4861  0.3770 -0.0697
 5179SOL    HW220482   3.544   0.593   2.026  0.2611 -1.5949 -0.5468
 5179SOL    HW320483   3.480   0.704   1.946 -0.5298 -0.2840  1.7957
 5179SOL    MW420484   3.521   0.627   1.949 -0.1962 -0.0337 -0.2129
 5180SOL     OW20485   4.599   1.241   1.143  0.3548  0.1733 -0.0326
 5180SOL    HW220486   4.664   1.199   1.086 -0.0225 -0.4054 -0.0507
 5180SOL    HW320487   4.649   1.303   1.196  0.7713  0.4165 -0.7042
 5180SOL    MW420488   4.614   1.243   1.142  0.3003 -0.1375  0.7024
 5181SOL     OW20489   6.179   4.987   6.208 -0.3399  0.0010  0.1736
 5181SOL    HW220490   6.119   5.059   6.191  0.0414  0.1913 -0.4335
 5181SOL    HW320491   6.182   4.938   6.125  1.3994  0.8089 -0.2883
 5181SOL    MW420492   6.172   4.990   6.195 -0.3398  0.0579  0.3233
 5182SOL     OW20493   2.447   1.537   5.532  0.4983  0.0280 -0.3163
 5182SOL    HW220494   2.394   1.584   5.595  0.6736 -0.9052  0.5588
 5182SOL    HW320495   2.400   1.545   5.449 -0.5249 -0.0034  0.2515
 5182SOL    MW420496   2.434   1.544   5.529  0.3933  0.5727 -0.1910
 5183SOL     OW20497   3.192   0.682   4.761  0.2331 -0.0685 -0.0478
 5183SOL    HW220498   3.232   0.594   4.761  0.5037  0.0443  0.7739
 5183SOL    HW320499   3.171   0.699   4.852  0.2290  0.7527 -0.1922
 5183SOL    MW420500   3.195   0.672   4.773 -0.0710  0.9207  0.2102
 5184SOL     OW20501   2.118   5.020   1.929  0.3573 -0.1793 -0.3409
 5184SOL    HW220502   2.029   4.994   1.907  0.5391 -1.9803  0.7762
 5184SOL    HW320503   2.135   5.097   1.875 -1.7238 -0.0149 -0.8591
 5184SOL    MW420504   2.108   5.026   1.919 -0.3321  0.0783  0.1212
 5185SOL     OW20505   1.858   5.498   2.541  0.5412  0.3358 -0.3056
 5185SOL    HW220506   1.906   5.498   2.458 -0.2049 -2.0768 -0.8271
 5185SOL    HW320507   1.820   5.410   2.547 -0.6638  0.9173  1.9017
 5185SOL    MW420508   1.859   5.486   2.531 -0.5552 -0.1628  0.0126
 5186SOL     OW20509   5.545   5.691   2.026 -0.2567 -0.0150  0.7928
 5186SOL    HW220510   5.638   5.710   2.037 -0.2984  1.2581 -0.6468
 5186SOL    HW320511   5.506   5.716   2.110  0.6036  0.1720  1.1513
 5186SOL    MW420512   5.552   5.697   2.038 -0.5777 -0.6079 -0.3779
 5187SOL     OW20513   5.575   1.254   3.592 -0.3300 -0.0323 -0.4620
 5187SOL    HW220514   5.623   1.222   3.516  0.5628  1.9912 -0.8359
 5187SOL    HW320515   5.626   1.223   3.667  1.1371  1.3414 -0.8363
 5187SOL    MW420516   5.588   1.246   3.592 -0.0822  0.1681 -0.0775
 5188SOL     OW20517   5.232   2.840   4.875  0.3679 -0.2778 -0.3560
 5188SOL    HW220518   5.230   2.805   4.965  2.2854 -0.4850 -0.3506
 5188SOL    HW320519   5.314   2.805   4.838  0.7908  1.6902 -1.3957
 5188SOL    MW420520   5.243   2.831   4.882  1.1537  0.1388  0.2905
 5189SOL     OW20521   2.923   4.838   2.379 -0.6235 -0.2243 -0.5956
 5189SOL    HW220522   2.834   4.872   2.369 -0.5315  0.3019  0.3069
 5189SOL    HW320523   2.970   4.909   2.422  0.1940 -0.5707 -0.9092
 5189SOL    MW420524   2.917   4.852   2.383  0.2866  0.2449  0.2661
 5190SOL     OW20525   3.724   1.785   0.212  1.0466  0.0483  0.4630
 5190SOL    HW220526   3.667   1.753   0.142 -0.8953  0.2237  1.8840
 5190SOL    HW320527   3.813   1.767   0.181  0.1782 -2.2872 -0.8779
 5190SOL    MW420528   3.729   1.779   0.199  0.0327 -0.2737 -0.1243
 5191SOL     OW20529   2.092   6.396   6.371 -0.1305  0.3804  0.0819
 5191SOL    HW220530   2.122   6.391   6.280  0.1368 -1.9549  0.2529
 5191SOL    HW320531   2.002   6.364   6.369  0.6091 -1.9079  0.9149
 5191SOL    MW420532   2.084   6.391   6.359 -0.0862  0.0020 -0.3084
 5192SOL     OW20533   2.854   1.090   3.918  0.1772  0.0220  0.3646
 5192SOL    HW220534   2.777   1.045   3.884 -0.0473  0.1575  0.7007
 5192SOL    HW320535   2.841   1.094   4.012  0.3181  0.5717  0.3623
 5192SOL    MW420536   2.842   1.085   3.926  0.1978  0.3324  0.0064
 5193SOL     OW20537   3.719   4.020   1.888  0.1402  0.1764 -0.0565
 5193SOL    HW220538   3.737   4.003   1.796 -2.0631  1.9228 -0.8847
 5193SOL    HW320539   3.790   4.078   1.916  1.2770 -1.0087 -0.3684
 5193SOL    MW420540   3.731   4.025   1.880  0.4822  0.1951 -0.1976
 5194SOL     OW20541   5.392   3.397   4.109  0.3980 -0.2693  0.3957
 5194SOL    HW220542   5.303   3.430   4.115  0.6791  0.5138  0.2857
 5194SOL    HW320543   5.387   3.325   4.046  0.0859  0.6089 -0.6118
 5194SOL    MW420544   5.380   3.392   4.102  0.0306 -0.0934 -0.3374
 5195SOL     OW20545   5.841   5.169   1.827  0.6954  0.6177 -0.1152
 5195SOL    HW220546   5.873   5.153   1.916 -0.2328 -0.3364  0.0664
 5195SOL    HW320547   5.777   5.240   1.836 -1.5221 -1.3386  0.4887
 5195SOL    MW420548   5.837   5.176   1.840 -0.0876  0.2883 -0.3833
 5196SOL     OW20549   6.037   1.222   6.229  0.1845 -0.1474 -0.1896
 5196SOL    HW220550   6.107   1.238   6.165  0.5305  1.0006  0.4317
 5196SOL    HW320551   6.083   1.222   6.313 -0.2809 -1.5002  0.0759
 5196SOL    MW420552   6.053   1.224   6.232 -0.0888 -0.1767  0.4396
 5197SOL     OW20553   5.793   4.179   0.159 -0.2526  0.0112  0.1337
 5197SOL    HW220554   5.803   4.274   0.157 -1.9423  0.2245  0.8004
 5197SOL    HW320555   5.756   4.157   0.073  2.3894 -0.3972 -1.0157
 5197SOL    MW420556   5.790   4.189   0.147  0.3091  0.3558  1.0753
 5198SOL     OW20557   1.148   2.485   0.311  0.0801 -0.2938 -0.0536
 5198SOL    HW220558   1.224   2.494   0.369 -0.4131  0.1155  0.5504
 5198SOL    HW320559   1.166   2.406   0.260  1.1667  0.1151 -0.3249
 5198SOL    MW420560   1.161   2.476   0.312 -0.4154 -0.2080  0.4298
 5199SOL     OW20561   2.393   5.118   0.797 -0.4083  0.0466  0.2953
 5199SOL    HW220562   2.422   5.088   0.710 -0.4572 -3.3800  1.2965
 5199SOL    HW320563   2.301   5.094   0.801  0.1970 -2.3291  2.1310
 5199SOL    MW420564   2.385   5.111   0.786 -0.2300 -0.2534 -0.5360
 5200SOL     OW20565   1.506   0.678   3.084 -0.3354  0.2330  0.4432
 5200SOL    HW220566   1.505   0.583   3.092  0.3344  0.2586  0.8922
 5200SOL    HW320567   1.599   0.701   3.084 -0.5012  0.9686  1.3320
 5200SOL    MW420568   1.518   0.669   3.085 -0.1412  0.3837 -0.3916
 5201SOL     OW20569   4.436   5.684   0.317 -0.1758 -0.3709  0.4820
 5201SOL    HW220570   4.351   5.675   0.273 -0.7086  0.3561  1.3164
 5201SOL    HW320571   4.419   5.747   0.388  1.1969  0.2168  0.3089
 5201SOL    MW420572   4.422   5.692   0.321  0.3814 -0.3479 -0.2352
 5202SOL     OW20573   2.086   6.237   5.860 -0.2746 -0.2290  0.0289
 5202SOL    HW220574   2.141   6.171   5.818  1.1763  0.3908  0.8772
 5202SOL    HW320575   2.134   6.319   5.846 -0.7882  0.2763  1.1290
 5202SOL    MW420576   2.100   6.239   5.852  0.2647  0.2052  0.7107
 5203SOL     OW20577   3.349   3.565   4.287  0.1030 -0.5144 -0.1446
 5203SOL    HW220578   3.409   3.620   4.338 -1.4676  0.8193  0.3687
 5203SOL    HW320579   3.392   3.553   4.203  0.6599  1.2855 -0.1586
 5203SOL    MW420580   3.362   3.570   4.283  0.5495 -0.5297  1.1808
 5204SOL     OW20581   4.851   3.068   4.785 -0.2517  0.7800 -0.2276
 5204SOL    HW220582   4.906   2.995   4.812  0.9679  0.3694 -3.3424
 5204SOL    HW320583   4.775   3.027   4.743  1.1930  1.0820 -3.4442
 5204SOL    MW420584   4.848   3.053   4.783 -0.0018  0.0867 -0.6498
 5205SOL     OW20585   1.708   4.737   5.637 -0.2984 -0.5779  0.7340
 5205SOL    HW220586   1.693   4.824   5.599 -0.3933 -0.6491  0.6070
 5205SOL    HW320587   1.773   4.752   5.705 -0.2439 -0.4206  0.6492
 5205SOL    MW420588   1.715   4.750   5.641  0.2309 -0.1397  0.2627
 5206SOL     OW20589   5.335   5.127   3.003  0.2047  0.4580 -0.4181
 5206SOL    HW220590   5.309   5.139   3.094  0.1373 -0.2241 -0.3434
 5206SOL    HW320591   5.431   5.132   3.005  0.2132  0.2537 -0.2805
 5206SOL    MW420592   5.344   5.130   3.015  0.0637  0.1228  0.4020
 5207SOL     OW20593   4.615   3.313   3.212  0.1663  0.5758  0.0055
 5207SOL    HW220594   4.628   3.304   3.307  1.4117  1.4860 -0.0511
 5207SOL    HW320595   4.696   3.353   3.181  0.9893 -2.2704 -1.8771
 5207SOL    MW420596   4.627   3.317   3.221 -0.0866  0.0404  0.3467
 5208SOL     OW20597   1.872   1.512   3.408  0.4724 -0.2739  0.0946
 5208SOL    HW220598   1.814   1.588   3.405  1.5090  0.5874  1.0130
 5208SOL    HW320599   1.816   1.440   3.438 -0.1621  0.4944  0.8201
 5208SOL    MW420600   1.857   1.513   3.411  0.1340  0.3957 -0.0310
 5209SOL     OW20601   2.142   5.728   2.741 -0.0539  0.1429 -0.4160
 5209SOL    HW220602   2.092   5.799   2.780  0.9243 -0.1939  1.6002
 5209SOL    HW320603   2.232   5.743   2.771  0.8566  0.0285 -2.8874
 5209SOL    MW420604   2.147   5.739   2.750  0.1215  0.0652 -0.7937
 5210SOL     OW20605   5.297   2.600   1.235 -0.0634  0.3651 -0.1282
 5210SOL    HW220606   5.239   2.673   1.217  0.3801  0.7408 -0.0605
 5210SOL    HW320607   5.254   2.551   1.305 -2.1251 -1.4510 -2.4667
 5210SOL    MW420608   5.284   2.603   1.242 -0.6953 -0.0075  0.0407
 5211SOL     OW20609   3.152   1.656   1.627  0.1749 -0.0692 -0.6308
 5211SOL    HW220610   3.225   1.691   1.677 -0.8610  1.0335  0.1839
 5211SOL    HW320611   3.114   1.733   1.584 -0.5645 -0.6055 -0.9629
 5211SOL    MW420612   3.157   1.671   1.628  0.5162 -0.0229 -0.1552
 5212SOL     OW20613   3.969   2.753   3.249  0.1576 -0.1304 -0.3402
 5212SOL    HW220614   3.949   2.708   3.331  0.6511  0.6053  0.1929
 5212SOL    HW320615   4.019   2.830   3.275 -2.3248  1.8363 -1.0505
 5212SOL    MW420616   3.973   2.757   3.263 -0.0751  0.5040 -0.0137
 5213SOL     OW20617   3.099   4.305   2.668 -0.0192 -0.0748 -0.2258
 5213SOL    HW220618   3.044   4.310   2.590 -0.6719 -1.5408  0.0955
 5213SOL    HW320619   3.165   4.238   2.647  0.5133  0.3385  0.0755
 5213SOL    MW420620   3.101   4.297   2.655 -0.3918  0.2396 -0.0419
 5214SOL     OW20621   5.609   4.881   2.634  0.0265  0.0202 -0.2219
 5214SOL    HW220622   5.651   4.820   2.573 -0.7880  1.7526 -2.6705
 5214SOL    HW320623   5.599   4.830   2.714  0.1128 -2.8071 -1.8418
 5214SOL    MW420624   5.613   4.866   2.636 -0.0422  0.2912  0.3082
 5215SOL     OW20625   3.874   0.145   5.898  0.1968 -0.7653 -0.6849
 5215SOL    HW220626   3.780   0.164   5.903  0.3963 -0.1238  2.7942
 5215SOL    HW320627   3.913   0.226   5.863 -0.4122 -0.4940 -0.7507
 5215SOL    MW420628   3.867   0.158   5.894  0.4420 -0.3096  0.0570
 5216SOL     OW20629   4.377   3.977   5.264  0.1000 -0.9511 -0.3502
 5216SOL    HW220630   4.359   3.886   5.284  1.2131 -0.7014  2.1929
 5216SOL    HW320631   4.445   3.974   5.196  0.5168 -2.0336  0.0998
 5216SOL    MW420632   4.384   3.965   5.258 -0.2222  0.1348  0.4562
 5217SOL     OW20633   5.979   0.157   0.887 -0.3117 -0.1607  0.4450
 5217SOL    HW220634   5.927   0.230   0.855  1.2499  1.6481  1.8117
 5217SOL    HW320635   5.916   0.099   0.930 -1.6876 -0.0910 -1.3333
 5217SOL    MW420636   5.964   0.159   0.888 -0.2057 -0.5133  0.1056
 5218SOL     OW20637   5.497   0.809   3.919 -0.1609  0.0283 -0.4212
 5218SOL    HW220638   5.544   0.817   3.836 -0.3831 -1.6623 -0.7450
 5218SOL    HW320639   5.562   0.772   3.979 -1.1005 -2.9093 -1.0261
 5218SOL    MW420640   5.512   0.805   3.916  0.7115  0.1708  0.4146
 5219SOL     OW20641   1.766   4.268   1.437 -0.0033 -0.1588 -0.2022
 5219SOL    HW220642   1.844   4.323   1.438 -1.8048  2.6268 -0.0117
 5219SOL    HW320643   1.750   4.250   1.344 -0.0396  0.7101 -0.3694
 5219SOL    MW420644   1.774   4.273   1.425  0.0646 -0.1251  0.2784
 5220SOL     OW20645   4.721   6.087   3.147 -0.2706  0.3485  0.5372
 5220SOL    HW220646   4.781   6.064   3.218  1.2017  1.6993 -0.2122
 5220SOL    HW320647   4.748   6.174   3.119  2.5635 -1.7094 -4.8557
 5220SOL    MW420648   4.733   6.095   3.152 -0.2499  0.4626  0.0201
 5221SOL     OW20649   2.741   1.348   3.884 -0.1158  0.2566  0.2620
 5221SOL    HW220650   2.689   1.335   3.964 -0.8299  0.1067 -0.2159
 5221SOL    HW320651   2.785   1.264   3.870 -0.2531  0.1757  0.3133
 5221SOL    MW420652   2.740   1.335   3.893  0.8822  0.0073  0.1545
 5222SOL     OW20653   2.836   5.769   5.514  0.3240 -0.4195  0.4379
 5222SOL    HW220654   2.830   5.766   5.610  0.4308 -0.4801  0.4427
 5222SOL    HW320655   2.867   5.858   5.495 -1.5949  0.2943  0.3611
 5222SOL    MW420656   2.839   5.781   5.524  0.2577 -0.4416 -0.0003
 5223SOL     OW20657   4.348   2.934   2.209 -0.7576 -0.2513 -0.3005
 5223SOL    HW220658   4.275   2.937   2.147  0.1413  0.5488 -1.3664
 5223SOL    HW320659   4.413   2.879   2.166 -0.9627 -1.5090  0.9383
 5223SOL    MW420660   4.347   2.927   2.195 -0.4736 -0.6207 -0.3160
 5224SOL     OW20661   6.024   4.785   2.316  0.0900 -0.2178 -0.2109
 5224SOL    HW220662   6.098   4.776   2.376 -0.2531 -0.6426  0.1523
 5224SOL    HW320663   6.059   4.835   2.242  0.9559 -1.0647 -0.4034
 5224SOL    MW420664   6.038   4.790   2.314 -0.3740 -0.1232  0.3443
 5225SOL     OW20665   3.480   0.437   5.852  0.3888  0.1123  0.1560
 5225SOL    HW220666   3.387   0.450   5.870  0.4058  1.9511 -0.8160
 5225SOL    HW320667   3.518   0.525   5.859  1.3185  0.1267 -3.3454
 5225SOL    MW420668   3.473   0.450   5.855  0.0038 -0.3968  0.0592
 5226SOL     OW20669   3.798   0.277   1.647 -0.0053  0.3246 -0.4552
 5226SOL    HW220670   3.788   0.305   1.738 -0.0286  2.5160 -1.0848
 5226SOL    HW320671   3.871   0.329   1.613  0.3788 -0.8827 -1.5453
 5226SOL    MW420672   3.806   0.288   1.655 -0.3772 -0.0648  0.7748
 5227SOL     OW20673   5.167   5.588   0.298  0.0947 -0.6123  0.3635
 5227SOL    HW220674   5.099   5.652   0.277  0.2316 -0.4923  0.2814
 5227SOL    HW320675   5.143   5.555   0.385 -1.1951 -2.0500 -0.4857
 5227SOL    MW420676   5.155   5.592   0.307  0.2444  0.5989  0.3462
 5228SOL     OW20677   3.970   1.438   6.110 -0.1404 -0.1319  0.7078
 5228SOL    HW220678   4.064   1.434   6.093 -0.1470  0.8644  0.3752
 5228SOL    HW320679   3.930   1.425   6.024 -0.2992 -0.0779  0.7731
 5228SOL    MW420680   3.977   1.435   6.096  0.7702 -0.5869  0.2040
 5229SOL     OW20681   5.138   3.032   0.515  0.4575 -0.1011 -0.2260
 5229SOL    HW220682   5.166   2.951   0.473  0.4169 -0.4770  0.4544
 5229SOL    HW320683   5.197   3.041   0.590 -0.8561 -0.5972  0.8954
 5229SOL    MW420684   5.149   3.023   0.519  0.2719  0.3203 -0.2951
 5230SOL     OW20685   3.350   6.204   5.199 -0.2987 -0.1129 -0.2142
 5230SOL    HW220686   3.299   6.197   5.280 -0.6529 -1.0632 -0.5100
 5230SOL    HW320687   3.429   6.252   5.225 -0.8384  0.4346  0.4796
 5230SOL    MW420688   3.354   6.210   5.213 -0.9374  0.3245 -0.2528
 5231SOL     OW20689   4.140   5.671   3.708  0.5621  0.7674  0.3351
 5231SOL    HW220690   4.049   5.643   3.699  0.5602  1.0269 -0.6446
 5231SOL    HW320691   4.144   5.752   3.657  1.4551  0.4862 -0.0593
 5231SOL    MW420692   4.129   5.678   3.700  0.4174  0.2616 -0.6174
 5232SOL     OW20693   5.859   0.216   1.170  0.2173 -0.1654 -0.3884
 5232SOL    HW220694   5.824   0.228   1.258  2.7917  1.2815  0.5664
 5232SOL    HW320695   5.896   0.128   1.171 -0.1574 -0.3210 -0.1668
 5232SOL    MW420696   5.859   0.206   1.181  0.3114  0.0637 -0.4604
 5233SOL     OW20697   2.258   6.136   4.112  0.1952 -1.0249  0.5989
 5233SOL    HW220698   2.301   6.222   4.111 -1.5977 -0.0207 -1.7404
 5233SOL    HW320699   2.174   6.151   4.157 -1.1269 -0.8866 -1.7490
 5233SOL    MW420700   2.252   6.150   4.118  0.0981  0.2631  0.8542
 5234SOL     OW20701   4.961   5.170   5.380 -0.6769 -0.6371 -0.6906
 5234SOL    HW220702   4.932   5.097   5.325 -1.4674  0.1357 -1.3318
 5234SOL    HW320703   4.918   5.246   5.343  1.5108  0.4614 -1.1049
 5234SOL    MW420704   4.951   5.170   5.368 -0.3401 -0.0584 -0.5432
 5235SOL     OW20705   1.244   2.449   2.961 -0.2368 -0.1536  0.5372
 5235SOL    HW220706   1.326   2.481   2.997  0.1801 -1.0533  0.4135
 5235SOL    HW320707   1.178   2.510   2.993  0.5257  0.8265  0.2935
 5235SOL    MW420708   1.246   2.461   2.970  0.0154 -0.3915 -0.1651
 5236SOL     OW20709   4.758   3.527   1.304  0.2342  0.2235  0.0353
 5236SOL    HW220710   4.827   3.590   1.280  0.9791 -0.4387  0.3981
 5236SOL    HW320711   4.700   3.526   1.228  2.9930 -2.4949 -2.3557
 5236SOL    MW420712   4.760   3.536   1.291 -0.0784 -0.5085 -0.1166
 5237SOL     OW20713   2.083   2.434   4.928  0.2227  0.0019  0.9384
 5237SOL    HW220714   2.163   2.390   4.900  0.5343  1.1577 -0.0683
 5237SOL    HW320715   2.103   2.467   5.016  1.2044  1.0978  0.3260
 5237SOL    MW420716   2.096   2.432   4.936  0.5093 -0.5016 -0.6509
 5238SOL     OW20717   5.570   3.085   0.068 -0.0415  0.1778 -0.0763
 5238SOL    HW220718   5.610   2.998   0.073 -1.5149 -0.9228 -3.7127
 5238SOL    HW320719   5.516   3.090   0.147  1.8260 -1.1692  1.4000
 5238SOL    MW420720   5.568   3.074   0.079  0.2324 -0.2467  0.1795
 5239SOL     OW20721   2.875   5.577   4.540  0.0652 -0.2819  0.5770
 5239SOL    HW220722   2.936   5.514   4.501 -0.0018  0.0305 -0.0420
 5239SOL    HW320723   2.806   5.523   4.578 -0.3236 -0.5749 -0.5027
 5239SOL    MW420724   2.874   5.562   4.540  0.3744 -0.2860 -0.6829
 5240SOL     OW20725   4.912   1.708   6.372 -0.2809  0.7398 -0.4477
 5240SOL    HW220726   4.935   1.647   6.442 -0.0953  1.9090  0.5521
 5240SOL    HW320727   4.854   1.659   6.314  1.3183 -0.9543 -0.7073
 5240SOL    MW420728   4.907   1.694   6.373 -0.8132  0.0952  0.7365
 5241SOL     OW20729   0.416   5.511   0.687  0.1874  0.3554 -0.4429
 5241SOL    HW220730   0.449   5.511   0.776  1.5730  1.8277 -0.9058
 5241SOL    HW320731   0.361   5.590   0.681  0.5079  0.5506 -0.9977
 5241SOL    MW420732   0.413   5.522   0.698 -0.1640 -0.3170  0.8177
 5242SOL     OW20733   1.740   5.600   4.573  0.1622 -0.0868  0.0462
 5242SOL    HW220734   1.721   5.514   4.535  1.0411 -0.2220 -0.0955
 5242SOL    HW320735   1.754   5.657   4.498  1.1772 -0.1887  0.1520
 5242SOL    MW420736   1.739   5.596   4.558 -0.1259 -0.3882 -0.4325
 5243SOL     OW20737   1.297   0.318   3.855  0.0342  0.5351  0.1020
 5243SOL    HW220738   1.338   0.236   3.882  0.0129  0.6275  0.4249
 5243SOL    HW320739   1.237   0.340   3.927 -1.3777 -0.1402 -0.8269
 5243SOL    MW420740   1.294   0.310   3.868 -0.0268  0.0558  0.0664
 5244SOL     OW20741   0.988   5.598   2.837 -0.0777 -0.0041 -0.0156
 5244SOL    HW220742   1.058   5.538   2.862  0.2691 -0.5180 -2.0964
 5244SOL    HW320743   0.939   5.552   2.770 -0.1682  1.7787 -1.2359
 5244SOL    MW420744   0.991   5.584   2.832  0.5646 -0.3179 -0.2220
 5245SOL     OW20745   3.757   4.409   0.843  0.4818  0.1874  0.3092
 5245SOL    HW220746   3.786   4.320   0.860 -0.5942 -0.1755  0.3026
 5245SOL    HW320747   3.689   4.400   0.777  0.3258  1.0081  0.3493
 5245SOL    MW420748   3.752   4.396   0.837 -0.4814 -0.2789  0.4732
 5246SOL     OW20749   4.053   4.454   0.082 -0.0438  0.3602  0.2118
 5246SOL    HW220750   3.969   4.498   0.097 -0.4206  0.3112 -1.5731
 5246SOL    HW320751   4.049   4.375   0.136 -1.4304  0.0203 -0.3590
 5246SOL    MW420752   4.042   4.450   0.091 -0.0242 -0.1837  0.3972
 5247SOL     OW20753   3.364   2.740   0.066 -0.5427  0.1150 -0.5260
 5247SOL    HW220754   3.341   2.657   0.024 -1.7286  0.0822  0.1339
 5247SOL    HW320755   3.436   2.718   0.125 -1.2881 -0.6185  0.1563
 5247SOL    MW420756   3.370   2.726   0.068 -0.1470  0.2214  0.0695
 5248SOL     OW20757   3.711   1.960   5.060 -0.4042 -0.1298 -0.0704
 5248SOL    HW220758   3.804   1.966   5.084 -0.1225 -0.8399 -0.9264
 5248SOL    HW320759   3.693   1.866   5.062 -0.0455 -0.4161 -3.6748
 5248SOL    MW420760   3.721   1.948   5.064 -0.3191 -0.5567  0.3365
 5249SOL     OW20761   4.984   2.944   3.952 -0.1113  0.1965  0.0789
 5249SOL    HW220762   5.079   2.949   3.940  0.1373  0.2190  1.7987
 5249SOL    HW320763   4.948   2.945   3.863  1.5780 -1.8203 -0.7140
 5249SOL    MW420764   4.992   2.945   3.939  0.3127  0.6225 -0.1160
 5250SOL     OW20765   2.335   5.376   6.365  0.1379  0.2416  0.3303
 5250SOL    HW220766   2.286   5.458   6.370 -0.3320  0.3147 -2.9048
 5250SOL    HW320767   2.418   5.400   6.325  0.0540 -0.7959 -0.5193
 5250SOL    MW420768   2.339   5.390   6.360  0.5160  0.6688 -0.0887
 5251SOL     OW20769   4.493   4.584   0.541 -0.1869  0.0073 -0.3912
 5251SOL    HW220770   4.527   4.497   0.560  0.5015  0.2666 -0.3887
 5251SOL    HW320771   4.398   4.572   0.534 -0.5676 -0.0867  3.3235
 5251SOL    MW420772   4.485   4.571   0.542 -0.7823  0.4150  0.2302
 5252SOL     OW20773   4.334   5.280   5.586  0.4791 -0.0372  0.0759
 5252SOL    HW220774   4.363   5.299   5.675  0.3415  1.8922 -0.2454
 5252SOL    HW320775   4.264   5.215   5.597  1.0014 -0.4228  1.2989
 5252SOL    MW420776   4.329   5.274   5.599  0.2075  0.5493  0.4520
 5253SOL     OW20777   0.470   2.161   4.929 -0.1632 -0.2234 -0.2962
 5253SOL    HW220778   0.392   2.118   4.963  0.1142  0.3906  1.2218
 5253SOL    HW320779   0.514   2.196   5.007 -0.0743  2.2860 -1.3653
 5253SOL    MW420780   0.465   2.160   4.944  0.4925  0.2548  0.2618
 5254SOL     OW20781   3.903   6.081   2.292 -0.6486  0.4182 -0.2344
 5254SOL    HW220782   3.980   6.042   2.333  1.5119  3.9865 -0.4435
 5254SOL    HW320783   3.898   6.039   2.206  1.2597  0.2141 -0.2906
 5254SOL    MW420784   3.912   6.071   2.286 -0.0718  0.0749 -0.0273
 5255SOL     OW20785   2.579   1.282   1.441 -0.4002 -0.0223 -0.1804
 5255SOL    HW220786   2.487   1.259   1.451  0.2336 -2.5347  0.6617
 5255SOL    HW320787   2.626   1.216   1.492  1.8634  1.4378 -0.2375
 5255SOL    MW420788   2.573   1.270   1.449  0.2976  0.0039 -0.6827
 5256SOL     OW20789   0.125   0.987   2.387 -0.1019 -0.3501  0.0471
 5256SOL    HW220790   0.148   0.935   2.464  3.0066  0.5881 -0.1097
 5256SOL    HW320791   0.036   0.959   2.365 -0.9213 -1.0236  3.6192
 5256SOL    MW420792   0.117   0.976   2.394 -0.1715 -0.2453  0.2077
 5257SOL     OW20793   4.945   5.885   1.159 -0.3391  0.1660 -0.4847
 5257SOL    HW220794   4.959   5.845   1.074 -3.4000 -0.2815 -0.9163
 5257SOL    HW320795   4.971   5.818   1.222 -1.3952 -0.9303 -1.1622
 5257SOL    MW420796   4.950   5.871   1.156  0.1000 -0.0902 -0.0319
 5258SOL     OW20797   5.784   0.980   2.938  0.9277  0.5361 -0.2458
 5258SOL    HW220798   5.830   1.036   3.001  1.6918  0.9643 -1.1543
 5258SOL    HW320799   5.852   0.922   2.904  0.6766  0.7680 -1.1666
 5258SOL    MW420800   5.799   0.980   2.942 -0.0841  0.8661  0.5179
 5259SOL     OW20801   3.496   0.757   2.261  0.3599 -0.6461 -0.1375
 5259SOL    HW220802   3.498   0.662   2.251 -2.4721 -0.8438  0.4344
 5259SOL    HW320803   3.470   0.772   2.352  1.3763  0.7139 -0.0293
 5259SOL    MW420804   3.493   0.747   2.272 -0.1331  0.1096  0.8758
 5260SOL     OW20805   3.082   6.002   3.165 -0.3539 -0.0910 -0.2899
 5260SOL    HW220806   3.088   6.063   3.238  0.3610  1.0650 -1.2885
 5260SOL    HW320807   3.019   6.042   3.106  0.9026  0.2328 -1.4515
 5260SOL    MW420808   3.074   6.015   3.167 -0.5521  0.4704  0.2379
 5261SOL     OW20809   0.278   2.079   1.502  0.2721  0.1716 -0.2578
 5261SOL    HW220810   0.322   2.001   1.469  1.3002  1.4011 -1.9846
 5261SOL    HW320811   0.193   2.048   1.533  1.3547 -1.8862  0.7982
 5261SOL    MW420812   0.273   2.064   1.502 -0.3663 -0.1046  0.3536
 5262SOL     OW20813   1.535   0.370   5.082  0.2669 -0.2220 -0.7322
 5262SOL    HW220814   1.464   0.420   5.041  0.8978  1.5179  0.2070
 5262SOL    HW320815   1.611   0.386   5.027  0.4900 -0.0937 -0.3870
 5262SOL    MW420816   1.535   0.379   5.070  0.8194  0.1562 -0.2119
 5263SOL     OW20817   2.657   5.539   1.451  0.7674 -0.1214 -0.3050
 5263SOL    HW220818   2.701   5.580   1.376 -0.3021 -0.5241 -1.1952
 5263SOL    HW320819   2.674   5.597   1.524  2.6734 -0.2090 -0.6215
 5263SOL    MW420820   2.665   5.552   1.451  0.1325 -0.5243 -0.4546
 5264SOL     OW20821   2.909   1.067   3.529 -0.0134 -0.5431  0.4295
 5264SOL    HW220822   2.851   0.992   3.526  0.5287 -1.0414  1.5771
 5264SOL    HW320823   2.977   1.042   3.592  0.9524  0.3598 -0.2238
 5264SOL    MW420824   2.910   1.054   3.537 -0.1658  0.5431  0.0805
 5265SOL     OW20825   0.262   2.035   3.792  0.5798 -0.1709 -0.0120
 5265SOL    HW220826   0.241   1.948   3.826 -1.3322 -0.3207 -1.3938
 5265SOL    HW320827   0.318   2.074   3.859  2.0703 -2.6829  0.3429
 5265SOL    MW420828   0.266   2.028   3.805  0.3834  0.2076 -0.1118
 5266SOL     OW20829   4.028   2.377   0.847  0.0319  0.0567 -0.2344
 5266SOL    HW220830   3.966   2.451   0.842 -0.1286 -0.0538  0.0832
 5266SOL    HW320831   4.108   2.410   0.807  0.2986  0.7540  0.8378
 5266SOL    MW420832   4.030   2.391   0.841  0.1164  0.2222 -0.0589
 5267SOL     OW20833   0.103   0.612   2.060  0.2537 -0.3542  0.2193
 5267SOL    HW220834   0.095   0.578   2.149  1.1751 -0.1684  0.3818
 5267SOL    HW320835   0.129   0.703   2.072 -0.2099 -0.1597 -0.2382
 5267SOL    MW420836   0.105   0.620   2.073 -0.1098  0.1664  0.0087
 5268SOL     OW20837   2.532   0.636   4.778  0.8270 -0.3882  0.3980
 5268SOL    HW220838   2.529   0.542   4.796 -1.6086 -0.5810 -0.6743
 5268SOL    HW320839   2.532   0.642   4.682 -1.4041  0.6830  0.4090
 5268SOL    MW420840   2.532   0.624   4.767 -0.6913  0.3443 -0.1044
 5269SOL     OW20841   1.407   5.670   0.592  0.0550 -0.3021  0.5992
 5269SOL    HW220842   1.429   5.762   0.579  0.1280 -0.2898  0.8068
 5269SOL    HW320843   1.315   5.672   0.620 -0.3635 -0.3841 -0.7136
 5269SOL    MW420844   1.397   5.682   0.594 -0.0248 -0.2588 -0.0955
 5270SOL     OW20845   3.745   5.712   0.691 -0.0310  0.6432  0.1163
 5270SOL    HW220846   3.827   5.743   0.729 -0.9837 -0.0821  3.0963
 5270SOL    HW320847   3.770   5.668   0.610  2.6683 -0.2575  1.3309
 5270SOL    MW420848   3.759   5.710   0.686  0.2547  0.0219  0.7121
 5271SOL     OW20849   0.697   4.223   2.152 -0.7159  0.3122  0.1153
 5271SOL    HW220850   0.658   4.246   2.237 -0.0048  0.9427  0.2804
 5271SOL    HW320851   0.656   4.140   2.129  1.5389 -1.6636  2.6616
 5271SOL    MW420852   0.686   4.215   2.160  0.0655  0.5322 -0.3762
 5272SOL     OW20853   5.052   5.495   5.237 -0.5037  0.0682 -0.1841
 5272SOL    HW220854   4.965   5.457   5.251  0.0643 -1.1332  0.1333
 5272SOL    HW320855   5.051   5.576   5.289 -0.9362 -0.6689  0.9904
 5272SOL    MW420856   5.040   5.501   5.246  0.2726 -0.5661 -0.8728
 5273SOL     OW20857   0.639   1.037   5.621 -0.2397 -0.1867  0.4797
 5273SOL    HW220858   0.587   1.056   5.543  0.9757  0.1035 -0.2852
 5273SOL    HW320859   0.667   0.946   5.609  1.0434  0.2516 -0.1210
 5273SOL    MW420860   0.636   1.027   5.609  0.9567 -0.8734 -0.1916
 5274SOL     OW20861   5.839   3.359   3.785 -0.4626 -0.3118  0.1936
 5274SOL    HW220862   5.822   3.377   3.878 -1.6976  0.2970 -0.1347
 5274SOL    HW320863   5.930   3.388   3.772 -0.2924 -0.3555  1.1990
 5274SOL    MW420864   5.849   3.365   3.796  0.2709  1.1033 -0.5724
 5275SOL     OW20865   1.051   3.246   5.169  0.9705  0.0397 -0.0291
 5275SOL    HW220866   1.009   3.241   5.255  1.8353 -1.6591  0.3332
 5275SOL    HW320867   0.979   3.252   5.107  0.3332  1.5224  0.7918
 5275SOL    MW420868   1.036   3.246   5.172  0.1252  0.0886 -0.1825
 5276SOL     OW20869   3.039   3.949   1.239  0.0681  0.1841  0.2980
 5276SOL    HW220870   3.079   3.985   1.319  2.7339 -0.5001 -0.6184
 5276SOL    HW320871   3.106   3.962   1.171 -1.0851 -1.5517 -1.2543
 5276SOL    MW420872   3.053   3.955   1.241  0.0450  0.1887 -0.1941
 5277SOL     OW20873   2.398   1.850   0.883  0.2264  0.3121  0.0446
 5277SOL    HW220874   2.388   1.895   0.967  0.8515  0.8269 -0.1582
 5277SOL    HW320875   2.492   1.840   0.871  0.1137 -0.8346 -0.0317
 5277SOL    MW420876   2.409   1.854   0.892  0.5562  0.1191 -0.3034
 5278SOL     OW20877   1.661   6.013   5.016 -0.4768 -0.0434  0.1509
 5278SOL    HW220878   1.666   5.926   5.056  0.2959  0.4302  1.1181
 5278SOL    HW320879   1.741   6.057   5.046 -2.0885  1.8923  1.8076
 5278SOL    MW420880   1.673   6.007   5.025 -0.0255  0.0808 -0.0140
 5279SOL     OW20881   1.734   4.602   4.780 -0.2008 -1.1726 -0.4392
 5279SOL    HW220882   1.710   4.684   4.738 -0.8888 -1.7193 -1.1250
 5279SOL    HW320883   1.804   4.567   4.725 -0.6368 -1.5619 -0.7422
 5279SOL    MW420884   1.740   4.608   4.767 -0.1140 -0.1601  0.0186
 5280SOL     OW20885   1.156   1.564   5.109  0.3857  0.5079 -0.1657
 5280SOL    HW220886   1.189   1.642   5.154 -1.5805  0.1227  2.1712
 5280SOL    HW320887   1.149   1.498   5.177 -0.3726 -0.9362 -1.5725
 5280SOL    MW420888   1.159   1.566   5.124 -1.0123  0.2697  0.0120
 5281SOL     OW20889   6.308   0.972   0.871 -0.0943  0.1671  0.5400
 5281SOL    HW220890   6.302   1.033   0.798 -1.0366  0.3622  0.7721
 5281SOL    HW320891   6.270   0.891   0.838  0.0885  0.0513  0.6068
 5281SOL    MW420892   6.302   0.969   0.857  0.4405 -0.8778  0.0703
 5282SOL     OW20893   0.524   3.137   2.238 -0.0063 -0.3472  0.0163
 5282SOL    HW220894   0.610   3.172   2.214  0.1801 -0.1913  0.8954
 5282SOL    HW320895   0.462   3.194   2.192  0.3220  0.5039  0.5921
 5282SOL    MW420896   0.527   3.149   2.229  0.1340 -0.1322 -0.7480
 5283SOL     OW20897   2.359   0.727   0.099 -0.5513  0.0002 -0.3335
 5283SOL    HW220898   2.423   0.712   0.169  0.1027 -0.2169 -0.9666
 5283SOL    HW320899   2.277   0.691   0.133 -0.3433  0.2528  0.4772
 5283SOL    MW420900   2.357   0.721   0.113 -0.5183  0.3573  0.2398
 5284SOL     OW20901   1.181   0.260   5.611  0.3332  0.8249 -0.4825
 5284SOL    HW220902   1.225   0.333   5.655  2.0305  1.1581 -2.5916
 5284SOL    HW320903   1.197   0.185   5.668 -0.5614  1.8426  1.2103
 5284SOL    MW420904   1.189   0.260   5.625 -0.3399 -0.1315 -0.1676
 5285SOL     OW20905   1.282   4.114   2.865  0.1420  0.8581  0.4479
 5285SOL    HW220906   1.324   4.063   2.934 -1.6525 -1.7828 -0.2505
 5285SOL    HW320907   1.279   4.203   2.900  2.0077  0.2374  2.4343
 5285SOL    MW420908   1.287   4.119   2.879  0.1659  0.0880  0.2229
 5286SOL     OW20909   2.211   4.826   0.296  0.2328  0.6390  0.4098
 5286SOL    HW220910   2.184   4.861   0.381  1.1704 -0.4219  1.1788
 5286SOL    HW320911   2.129   4.804   0.252 -0.2971 -2.0455  2.4724
 5286SOL    MW420912   2.196   4.827   0.301  0.0779  0.8580  0.1763
 5287SOL     OW20913   3.357   4.401   1.009  0.4557 -0.3052  0.3971
 5287SOL    HW220914   3.387   4.311   0.997 -0.1861 -0.4952  0.1618
 5287SOL    HW320915   3.337   4.407   1.103  0.3327 -0.4659  0.3831
 5287SOL    MW420916   3.358   4.390   1.020  0.4384  0.4007 -0.1358
 5288SOL     OW20917   1.773   1.088   3.658 -0.0713  0.5720  0.0424
 5288SOL    HW220918   1.830   1.141   3.714 -0.2198 -0.3106  1.0696
 5288SOL    HW320919   1.771   1.003   3.701 -0.5294 -0.0090 -1.1080
 5288SOL    MW420920   1.780   1.084   3.671 -1.1935  0.6529 -0.3004
 5289SOL     OW20921   2.630   1.666   5.010 -0.0004 -0.2569  0.3282
 5289SOL    HW220922   2.722   1.691   4.998 -0.4081  2.5521  1.9738
 5289SOL    HW320923   2.584   1.715   4.942 -0.4332  0.0389  0.8266
 5289SOL    MW420924   2.636   1.676   5.000  0.8306  0.3630 -0.3136
 5290SOL     OW20925   1.897   5.482   4.784  0.4312  0.2226  0.5609
 5290SOL    HW220926   1.814   5.440   4.807  0.3897 -0.2560 -0.4286
 5290SOL    HW320927   1.876   5.541   4.712  0.6823  1.2137  1.2773
 5290SOL    MW420928   1.884   5.484   4.778 -0.2610 -0.0251 -0.4711
 5291SOL     OW20929   5.925   6.264   2.294 -0.3987  0.2315  0.4481
 5291SOL    HW220930   5.964   6.332   2.240 -1.0021  1.1170  1.1019
 5291SOL    HW320931   5.839   6.299   2.319 -0.1748 -0.1793  1.8942
 5291SOL    MW420932   5.918   6.277   2.290 -0.0946  0.1657  0.1422
 5292SOL     OW20933   5.788   4.811   4.146 -0.7750  0.3244 -0.5679
 5292SOL    HW220934   5.853   4.764   4.198 -0.0400  0.7603 -1.0750
 5292SOL    HW320935   5.839   4.876   4.096 -1.8560  2.5531  1.0381
 5292SOL    MW420936   5.804   4.814   4.146 -0.4009  0.4446  0.0397
 5293SOL     OW20937   4.402   3.312   1.147 -0.8449 -0.3005  0.5639
 5293SOL    HW220938   4.376   3.292   1.237 -0.9575 -1.8650  0.2237
 5293SOL    HW320939   4.319   3.323   1.100 -0.7981  2.2550  0.9502
 5293SOL    MW420940   4.388   3.311   1.153  0.7089  0.1548  0.3156
 5294SOL     OW20941   0.471   5.795   1.664 -0.1896 -0.3986  1.0942
 5294SOL    HW220942   0.397   5.737   1.677 -1.6643  0.6721 -1.6659
 5294SOL    HW320943   0.443   5.879   1.700 -0.6350  0.1586 -0.4477
 5294SOL    MW420944   0.458   5.799   1.670  0.3082  0.2160 -0.1514
 5295SOL     OW20945   3.553   5.750   1.539  0.0269  0.6638  0.1055
 5295SOL    HW220946   3.542   5.801   1.619  1.5104  0.6246  0.3711
 5295SOL    HW320947   3.468   5.752   1.496 -1.1934 -0.4112  2.3342
 5295SOL    MW420948   3.541   5.757   1.544 -0.2413 -0.2582 -0.4189
 5296SOL     OW20949   0.539   1.221   0.926 -0.3642 -0.2522  0.0154
 5296SOL    HW220950   0.579   1.163   0.860  0.6093  1.7439 -1.2422
 5296SOL    HW320951   0.583   1.198   1.007  0.8454 -0.5057 -0.6828
 5296SOL    MW420952   0.550   1.210   0.928  0.5497  0.1312 -0.4170
 5297SOL     OW20953   4.108   4.784   4.047 -0.0224  0.1243 -0.4118
 5297SOL    HW220954   4.029   4.835   4.062 -0.4627 -0.8423  0.7379
 5297SOL    HW320955   4.098   4.707   4.103  1.9634  0.2338  0.1854
 5297SOL    MW420956   4.096   4.780   4.056 -0.1880 -0.5855  0.3718
 5298SOL     OW20957   4.279   2.506   0.018 -0.1071  0.2008 -0.0294
 5298SOL    HW220958   4.352   2.444   0.017 -1.1060 -1.0046  0.4071
 5298SOL    HW320959   4.316   2.587  -0.019  1.2488 -0.6041 -0.4893
 5298SOL    MW420960   4.294   2.509   0.013  0.0555  0.5172 -0.4038
 5299SOL     OW20961   5.682   2.545   4.357  0.2894  0.1340  0.0936
 5299SOL    HW220962   5.745   2.570   4.290 -1.2762  0.1393 -1.4607
 5299SOL    HW320963   5.712   2.588   4.437  1.3060  1.5169 -0.9886
 5299SOL    MW420964   5.694   2.554   4.359  0.8202  0.2860  0.4899
 5300SOL     OW20965   0.902   4.577   1.167 -0.7940  0.0068  0.2375
 5300SOL    HW220966   0.906   4.523   1.088  0.3795 -1.4239  1.2125
 5300SOL    HW320967   0.813   4.563   1.200 -0.4263 -1.5982  0.6207
 5300SOL    MW420968   0.890   4.568   1.161  0.2493 -0.3458 -0.6968
 5301SOL     OW20969   4.987   5.907   6.200  0.3938  0.0565  0.2420
 5301SOL    HW220970   4.963   5.978   6.260 -1.1541 -0.8591  0.7354
 5301SOL    HW320971   5.070   5.874   6.235  0.9450  1.3655  0.2196
 5301SOL    MW420972   4.995   5.912   6.212 -0.6462  0.3406  0.4707
 5302SOL     OW20973   3.900   0.954   0.744 -0.5652  0.6182  0.0217
 5302SOL    HW220974   3.847   0.958   0.823  0.8335 -0.9544  1.0978
 5302SOL    HW320975   3.852   0.895   0.686 -0.8054  0.5002  0.3378
 5302SOL    MW420976   3.886   0.947   0.747  0.2912  1.0013 -0.4398
 5303SOL     OW20977   2.643   1.937   3.709  0.2234 -0.1916  0.3172
 5303SOL    HW220978   2.715   1.890   3.666  1.8675  0.5926  2.0089
 5303SOL    HW320979   2.687   1.987   3.778 -1.7041  2.2007 -0.0923
 5303SOL    MW420980   2.659   1.937   3.713  0.2924 -0.1488 -1.0065
 5304SOL     OW20981   0.040   1.415   3.529 -0.1904 -0.4573 -0.0090
 5304SOL    HW220982   0.031   1.499   3.573 -1.2454 -1.4917  1.8847
 5304SOL    HW320983   0.081   1.358   3.593 -0.4603 -1.6620 -0.8653
 5304SOL    MW420984   0.044   1.418   3.543  0.1449 -0.1450  0.8482
 5305SOL     OW20985   3.672   0.401   0.135  0.2941  0.3419  0.2363
 5305SOL    HW220986   3.611   0.389   0.062  1.1046 -0.7388 -0.2881
 5305SOL    HW320987   3.620   0.446   0.201 -1.1601 -0.6999 -0.1219
 5305SOL    MW420988   3.657   0.405   0.134 -0.1633  0.1871 -0.5493
 5306SOL     OW20989   2.573   0.309   4.426 -0.1727 -0.1323  0.3329
 5306SOL    HW220990   2.596   0.219   4.401  0.2806  1.1308 -4.7039
 5306SOL    HW320991   2.654   0.358   4.414 -1.4276  1.6334 -1.4243
 5306SOL    MW420992   2.587   0.303   4.421 -0.0845 -0.2503  0.1626
 5307SOL     OW20993   4.553   4.833   0.424 -0.0173 -0.3028  0.2976
 5307SOL    HW220994   4.605   4.892   0.478  0.0698  0.3327 -0.4674
 5307SOL    HW320995   4.555   4.749   0.470  0.7132  0.0227  0.8618
 5307SOL    MW420996   4.560   4.830   0.437  0.0899 -0.0568 -0.0924
 5308SOL     OW20997   0.437   5.527   4.739  0.1713 -0.3482 -0.0055
 5308SOL    HW220998   0.397   5.463   4.679 -0.0665 -1.6275  1.4489
 5308SOL    HW320999   0.504   5.477   4.786  1.2227  0.9485 -0.0929
 5308SOL    MW421000   0.440   5.512   4.737  0.0485 -0.0559  0.2237
 5309SOL     OW21001   3.663   1.008   1.224  0.2119  0.0305  0.1771
 5309SOL    HW221002   3.637   0.924   1.264  0.4283 -0.5662 -0.8910
 5309SOL    HW321003   3.596   1.070   1.253 -0.3152 -0.6562  0.4664
 5309SOL    MW421004   3.651   1.005   1.233 -0.2858 -0.2287  0.3321
 5310SOL     OW21005   6.004   1.868   1.870 -0.2371  0.0405 -0.1369
 5310SOL    HW221006   6.010   1.789   1.815  0.5828  0.2471 -0.3616
 5310SOL    HW321007   5.963   1.837   1.951  1.8451 -1.0686  0.5646
 5310SOL    MW421008   5.999   1.853   1.874  0.5384 -0.0827 -0.0732
 5311SOL     OW21009   0.710   0.957   1.195  0.5188  0.1017 -0.0982
 5311SOL    HW221010   0.748   0.927   1.278  0.9112  1.7749  0.3500
 5311SOL    HW321011   0.696   1.051   1.207 -0.7064  0.1302 -1.4466
 5311SOL    MW421012   0.713   0.965   1.208  0.2603  0.5741  0.7084
 5312SOL     OW21013   3.660   6.373   2.653  0.1161 -0.1473  0.3989
 5312SOL    HW221014   3.620   6.306   2.599  0.2034  1.4725 -1.7929
 5312SOL    HW321015   3.690   6.326   2.732  2.1551 -3.1233 -1.9100
 5312SOL    MW421016   3.659   6.358   2.657  0.2510 -0.0077 -0.1326
 5313SOL     OW21017   1.614   3.261   3.446  0.0568  0.3328  0.5021
 5313SOL    HW221018   1.554   3.300   3.382  0.0211  1.2014  1.0500
 5313SOL    HW321019   1.701   3.273   3.409 -0.1113 -3.3987 -1.6784
 5313SOL    MW421020   1.617   3.267   3.433 -0.7127 -0.1652 -0.5198
 5314SOL     OW21021   0.809   3.116   3.931  0.3041 -0.1826  0.1083
 5314SOL    HW221022   0.867   3.157   3.995  1.6574  1.9074 -2.3201
 5314SOL    HW321023   0.731   3.172   3.929  0.0899 -0.4741  0.2078
 5314SOL    MW421024   0.806   3.129   3.939 -0.5260  0.0651 -0.1505
 5315SOL     OW21025   1.087   4.325   2.631 -0.1019  0.3270  0.5498
 5315SOL    HW221026   1.101   4.275   2.551 -1.2746  0.3932  0.2872
 5315SOL    HW321027   1.169   4.372   2.645  0.7681 -1.1033  0.4173
 5315SOL    MW421028   1.100   4.325   2.622  0.5028  0.2127 -0.2638
 5316SOL     OW21029   4.318   1.390   4.265  0.2607  0.6024 -0.3235
 5316SOL    HW221030   4.291   1.328   4.197 -2.3084  0.2941  0.8501
 5316SOL    HW321031   4.390   1.348   4.310 -1.4293 -1.6620  0.4596
 5316SOL    MW421032   4.324   1.376   4.262 -0.9172 -0.3503  0.0178
 5317SOL     OW21033   5.032   6.276   3.884  0.0923  0.3670 -0.1121
 5317SOL    HW221034   5.078   6.196   3.909 -1.0240 -0.6004 -1.0442
 5317SOL    HW321035   4.944   6.265   3.920 -0.1012  1.1294 -0.3528
 5317SOL    MW421036   5.026   6.264   3.892  0.1937  0.6399 -0.2067
 5318SOL     OW21037   4.452   1.969   5.705 -0.7788 -0.3347 -0.2591
 5318SOL    HW221038   4.493   1.952   5.620 -0.9440 -0.0249 -0.3996
 5318SOL    HW321039   4.491   2.051   5.735  0.1005 -0.9959  0.4736
 5318SOL    MW421040   4.462   1.977   5.698 -0.0772  0.0308  0.0727
 5319SOL     OW21041   2.592   2.176   5.710  0.0992 -0.7712  0.0288
 5319SOL    HW221042   2.530   2.164   5.638  0.3368 -2.7723  0.1140
 5319SOL    HW321043   2.545   2.144   5.787  0.1827  0.5080  0.6379
 5319SOL    MW421044   2.577   2.170   5.711 -0.2685  0.1175 -0.0527
 5320SOL     OW21045   4.450   0.753   0.347  0.5033 -0.0903  0.6264
 5320SOL    HW221046   4.465   0.691   0.418 -2.3837 -0.4355  1.0234
 5320SOL    HW321047   4.410   0.701   0.278  1.7889  0.5783 -0.6883
 5320SOL    MW421048   4.447   0.738   0.347 -0.4952  0.3472 -0.3737
 5321SOL     OW21049   4.991   3.197   1.571  0.1412  0.5499 -0.0967
 5321SOL    HW221050   5.041   3.278   1.567 -0.4719  0.9231 -0.5278
 5321SOL    HW321051   4.918   3.211   1.510 -0.9008  0.3145  1.0478
 5321SOL    MW421052   4.988   3.209   1.562  0.1236  0.1724 -0.1830
 5322SOL     OW21053   6.004   6.099   3.941  0.0592 -0.4290  0.1820
 5322SOL    HW221054   6.073   6.067   3.884  0.7545 -0.7363  1.1690
 5322SOL    HW321055   6.028   6.067   4.028  0.1476  1.7637  1.0213
 5322SOL    MW421056   6.016   6.091   3.945  0.2299 -0.1774  0.6628
 5323SOL     OW21057   5.132   4.055   4.669 -0.0250  0.0085  0.5584
 5323SOL    HW221058   5.208   4.057   4.727  0.4688 -0.3689 -0.0635
 5323SOL    HW321059   5.104   3.964   4.670  1.4314 -0.5245 -1.6128
 5323SOL    MW421060   5.138   4.043   4.677  0.4474  0.0513 -0.1200
 5324SOL     OW21061   0.809   6.066   3.943  0.0780 -0.2558 -0.5794
 5324SOL    HW221062   0.764   6.098   3.865 -1.0790 -1.0429 -0.2616
 5324SOL    HW321063   0.884   6.017   3.909  0.1360  0.2143 -1.1486
 5324SOL    MW421064   0.813   6.064   3.928 -0.0948  0.1355 -0.2671
 5325SOL     OW21065   4.188   6.430   0.434 -0.2498 -0.4818  0.4024
 5325SOL    HW221066   4.138   6.366   0.484 -1.4890 -1.0713 -1.5068
 5325SOL    HW321067   4.237   6.378   0.370 -1.1004  0.4265 -1.0336
 5325SOL    MW421068   4.188   6.414   0.432  0.1099 -0.3452 -0.3693
 5326SOL     OW21069   1.665   1.402   1.063  0.1285 -0.6397 -0.2119
 5326SOL    HW221070   1.696   1.470   1.123  0.2787 -0.9554  0.0707
 5326SOL    HW321071   1.734   1.336   1.064  0.1759 -0.5984 -0.8113
 5326SOL    MW421072   1.678   1.403   1.071 -0.1269  0.1433 -0.7531
 5327SOL     OW21073   4.444   1.214   3.476  0.1898 -0.2646 -0.4229
 5327SOL    HW221074   4.463   1.159   3.552  0.7546  2.1409  1.3012
 5327SOL    HW321075   4.354   1.191   3.453 -0.2377 -0.6173  1.3939
 5327SOL    MW421076   4.434   1.204   3.483  0.5140  0.1859 -0.4500
 5328SOL     OW21077   2.410   3.565   6.227 -0.3410  0.4019 -0.1267
 5328SOL    HW221078   2.437   3.480   6.193 -1.2078 -0.8171  2.0270
 5328SOL    HW321079   2.490   3.619   6.222  0.3153 -0.6190 -1.1926
 5328SOL    MW421080   2.424   3.561   6.222 -0.0572 -0.4985 -0.0695
 5329SOL     OW21081   5.123   3.296   0.054 -0.2263 -0.6438 -0.1786
 5329SOL    HW221082   5.141   3.202   0.051 -0.6169 -0.7333  0.1602
 5329SOL    HW321083   5.201   3.336   0.016  0.5099 -1.0298  0.8687
 5329SOL    MW421084   5.136   3.289   0.049  0.3064 -0.1638  0.7389
 5330SOL     OW21085   0.439   2.053   5.465 -0.4329 -0.1617  0.2801
 5330SOL    HW221086   0.500   2.001   5.518 -0.5521  0.1242  0.7050
 5330SOL    HW321087   0.494   2.121   5.426 -0.3217 -0.4505 -0.0731
 5330SOL    MW421088   0.455   2.055   5.467  0.5874  0.6288 -0.3801
 5331SOL     OW21089   3.852   3.384   3.639 -0.0806 -0.1342  0.1355
 5331SOL    HW221090   3.899   3.466   3.623 -0.7684 -0.0825 -1.9195
 5331SOL    HW321091   3.866   3.333   3.559 -1.6956 -1.0140  0.3808
 5331SOL    MW421092   3.860   3.388   3.626  0.5672  0.0541  0.0434
 5332SOL     OW21093   2.878   4.699   1.475  0.2143  0.1723  0.3989
 5332SOL    HW221094   2.799   4.650   1.497  0.5746 -0.0395  1.2394
 5332SOL    HW321095   2.942   4.673   1.541  1.2653 -0.3218 -0.7745
 5332SOL    MW421096   2.876   4.689   1.486 -0.2095  0.7083  0.3303
 5333SOL     OW21097   2.201   0.262   1.959  0.9077 -0.0358 -0.0490
 5333SOL    HW221098   2.161   0.313   2.029 -1.0033  1.2445 -1.9120
 5333SOL    HW321099   2.283   0.307   1.939  0.6449  0.5867  0.2626
 5333SOL    MW421100   2.206   0.274   1.965 -0.0006 -0.1005 -0.1406
 5334SOL     OW21101   1.463   1.378   0.562 -0.0854 -0.2415 -0.0729
 5334SOL    HW221102   1.545   1.372   0.610  0.1315 -2.7549 -0.6187
 5334SOL    HW321103   1.400   1.329   0.615 -0.7763  0.1003 -0.5526
 5334SOL    MW421104   1.465   1.371   0.575 -0.8887 -0.3132  0.0040
 5335SOL     OW21105   0.587   5.222   0.339  0.2009 -0.2303  0.1476
 5335SOL    HW221106   0.621   5.170   0.412  0.9351  0.1517  0.0773
 5335SOL    HW321107   0.663   5.242   0.285 -0.3731 -0.7459 -0.8873
 5335SOL    MW421108   0.601   5.218   0.341 -0.3446 -0.7603  0.3392
 5336SOL     OW21109   3.047   3.883   2.681 -0.0073  0.3989  0.2154
 5336SOL    HW221110   2.958   3.872   2.648 -0.1613 -0.4877  0.8682
 5336SOL    HW321111   3.045   3.844   2.769  0.9846  0.4932  0.2935
 5336SOL    MW421112   3.035   3.876   2.688  0.3508  0.2650 -0.1051
 5337SOL     OW21113   6.274   1.605   0.408  0.1642 -0.2760 -0.4994
 5337SOL    HW221114   6.296   1.589   0.500 -0.6444  0.3414 -0.1857
 5337SOL    HW321115   6.352   1.645   0.371  1.4192 -2.7521 -0.7387
 5337SOL    MW421116   6.287   1.608   0.416  0.0243 -0.0938  0.3243
 5338SOL     OW21117   6.346   5.257   0.646  0.1485 -0.2531  0.0104
 5338SOL    HW221118   6.394   5.242   0.564  1.1576  0.9974  0.3396
 5338SOL    HW321119   6.267   5.304   0.619  1.2830  1.7115 -0.1528
 5338SOL    MW421120   6.342   5.261   0.632 -0.5768  0.2077 -0.2619
 5339SOL     OW21121   2.357   0.635   4.295  0.0623 -0.1799  0.6904
 5339SOL    HW221122   2.279   0.626   4.351 -0.7243 -0.6723 -0.4417
 5339SOL    HW321123   2.382   0.545   4.275 -0.1734 -0.0123 -0.4095
 5339SOL    MW421124   2.350   0.622   4.300  0.3014  0.0217  0.0928
 5340SOL     OW21125   0.171   2.682   2.938 -0.1182  0.2607 -0.5188
 5340SOL    HW221126   0.194   2.611   2.998  3.4221  1.8076  0.2738
 5340SOL    HW321127   0.093   2.722   2.976 -1.5403 -2.4397 -0.4001
 5340SOL    MW421128   0.164   2.678   2.951  0.2211 -0.4318  0.0511
 5341SOL     OW21129   6.094   2.035   5.234 -0.4838  0.1391 -0.7437
 5341SOL    HW221130   6.075   1.956   5.183 -1.0543  0.2566 -0.7156
 5341SOL    HW321131   6.110   2.103   5.169  2.0341 -0.4205 -0.8297
 5341SOL    MW421132   6.094   2.033   5.219  0.0042  0.4621  0.3830
 5342SOL     OW21133   0.699   2.905   0.998 -0.0030 -0.6843  0.1656
 5342SOL    HW221134   0.618   2.905   0.949  0.0097 -0.2901  0.1395
 5342SOL    HW321135   0.679   2.857   1.078 -0.7251  0.7752  0.8948
 5342SOL    MW421136   0.686   2.899   1.002 -0.2555  0.1050 -0.1275
 5343SOL     OW21137   0.017   0.057   5.176 -0.5309  0.3570 -0.1440
 5343SOL    HW221138  -0.007   0.081   5.266  0.0465  0.3300  0.0213
 5343SOL    HW321139   0.053   0.137   5.139  0.8100 -0.0715  0.2045
 5343SOL    MW421140   0.018   0.071   5.183 -0.3293  0.1422  0.2797
 5344SOL     OW21141   3.162   4.060   2.327 -0.4054 -0.3351 -0.0758
 5344SOL    HW221142   3.107   4.137   2.316  1.0997  0.7471 -0.4213
 5344SOL    HW321143   3.209   4.075   2.409 -0.1620 -0.9146 -0.1022
 5344SOL    MW421144   3.161   4.072   2.336  0.1371 -0.2757 -0.9186
 5345SOL     OW21145   0.831   4.954   3.186 -0.2181 -0.0116 -0.0570
 5345SOL    HW221146   0.850   4.861   3.185 -0.8155 -0.1510 -1.6760
 5345SOL    HW321147   0.739   4.960   3.212  0.1997  0.2456  1.4581
 5345SOL    MW421148   0.821   4.943   3.189 -0.7520  1.0112 -0.6326
 5346SOL     OW21149   4.216   1.280   0.890 -0.3372 -0.0321  0.9652
 5346SOL    HW221150   4.283   1.295   0.823 -1.8325  0.5502 -0.4426
 5346SOL    HW321151   4.236   1.193   0.924  1.8077  0.5550  1.4240
 5346SOL    MW421152   4.228   1.270   0.886  0.3382 -0.5431 -0.2100
 5347SOL     OW21153   1.476   6.030   1.312 -0.0739  0.1354 -0.1865
 5347SOL    HW221154   1.393   5.995   1.281 -0.8717  1.8038 -0.0171
 5347SOL    HW321155   1.486   5.993   1.401 -0.1961 -0.7266 -0.5184
 5347SOL    MW421156   1.466   6.020   1.320 -0.3104 -0.0834  0.4125
 5348SOL     OW21157   4.650   2.076   1.755 -0.0446 -0.3914 -0.0578
 5348SOL    HW221158   4.719   2.123   1.800  0.2944 -0.3314 -0.6263
 5348SOL    HW321159   4.657   1.986   1.787 -1.2152  0.0826  1.6382
 5348SOL    MW421160   4.660   2.070   1.765 -0.1178  0.0112 -0.4427
 5349SOL     OW21161   4.603   4.688   2.576  0.2940  0.4795  0.2210
 5349SOL    HW221162   4.667   4.748   2.537  0.6512 -0.9251 -1.4755
 5349SOL    HW321163   4.656   4.624   2.623 -0.0045  0.5314  0.6407
 5349SOL    MW421164   4.618   4.688   2.577  0.3128  0.2682  0.4937
 5350SOL     OW21165   1.327   5.342   0.636  0.3261  0.5496 -0.2317
 5350SOL    HW221166   1.350   5.249   0.648  1.0756  0.6306 -0.9600
 5350SOL    HW321167   1.403   5.390   0.670 -0.1037  0.9089  0.2386
 5350SOL    MW421168   1.340   5.336   0.642 -0.0091 -0.0397  0.2771
 5351SOL     OW21169   0.407   4.679   5.657  0.7984 -0.3358  0.2412
 5351SOL    HW221170   0.349   4.730   5.713  0.6618  0.0118 -0.2108
 5351SOL    HW321171   0.383   4.704   5.568 -0.2764 -2.2649 -0.0676
 5351SOL    MW421172   0.396   4.689   5.653  0.3862 -0.8714  0.2863
 5352SOL     OW21173   3.614   3.380   2.422  0.0113  0.4130  0.1075
 5352SOL    HW221174   3.545   3.383   2.355  1.0897  1.2312 -1.0164
 5352SOL    HW321175   3.634   3.287   2.432 -1.0704  0.1827  0.2827
 5352SOL    MW421176   3.608   3.368   2.414  0.4369 -0.4597  0.0228
 5353SOL     OW21177   2.125   6.370   4.866  0.7139 -0.4583 -0.3367
 5353SOL    HW221178   2.058   6.303   4.857  1.8941 -1.6374 -0.6018
 5353SOL    HW321179   2.206   6.328   4.837  1.5336  1.0084 -0.3007
 5353SOL    MW421180   2.127   6.356   4.861 -0.7062 -0.0340 -0.1499
 5354SOL     OW21181   1.936   0.024   4.606 -0.3000 -0.3710  0.6954
 5354SOL    HW221182   1.873   0.084   4.566 -0.6919 -2.1164 -1.5419
 5354SOL    HW321183   1.949   0.058   4.694 -1.2336  2.3801 -0.1208
 5354SOL    MW421184   1.929   0.036   4.612  0.2396  0.3633 -0.2864
 5355SOL     OW21185   3.749   1.628   5.443 -0.1549  0.1764 -0.0121
 5355SOL    HW221186   3.682   1.674   5.392 -1.2962 -1.6273 -0.2082
 5355SOL    HW321187   3.729   1.649   5.534 -0.8790 -0.1865 -0.0810
 5355SOL    MW421188   3.737   1.637   5.448 -0.0865  1.0657 -0.7494
 5356SOL     OW21189   6.005   6.174   1.330 -0.3253  0.7947  0.6719
 5356SOL    HW221190   6.083   6.156   1.383 -0.8260  1.1762  1.5705
 5356SOL    HW321191   5.984   6.091   1.287  1.9875  1.2369 -1.5664
 5356SOL    MW421192   6.012   6.161   1.331  0.6319 -0.0435  0.1203
 5357SOL     OW21193   4.888   2.987   4.342  0.1503 -0.4876  0.0408
 5357SOL    HW221194   4.906   2.917   4.405 -0.0204  0.5546  1.2830
 5357SOL    HW321195   4.973   3.008   4.304  0.0146 -2.3179 -1.4280
 5357SOL    MW421196   4.901   2.981   4.346  0.3429 -0.5029  0.2445
 5358SOL     OW21197   3.334   1.158   0.906  0.4596 -0.0336  0.6952
 5358SOL    HW221198   3.313   1.104   0.830  1.1367 -0.2058  0.6281
 5358SOL    HW321199   3.250   1.169   0.951  0.2755 -0.9696  0.5954
 5358SOL    MW421200   3.320   1.152   0.902  0.1079  0.4181 -1.3033
 5359SOL     OW21201   0.214   6.428   1.095  0.7580 -0.4349 -0.0972
 5359SOL    HW221202   0.282   6.373   1.057  0.3818 -1.8901  1.2303
 5359SOL    HW321203   0.197   6.389   1.180 -0.7879  0.7122  0.1578
 5359SOL    MW421204   0.221   6.416   1.101 -0.8389 -0.0654 -0.2053
 5360SOL     OW21205   2.220   4.401   5.684  0.0369 -0.4450  0.0953
 5360SOL    HW221206   2.179   4.334   5.630  0.4991 -1.2369  0.6983
 5360SOL    HW321207   2.286   4.354   5.735  0.6382  0.5344  0.2561
 5360SOL    MW421208   2.224   4.386   5.684  0.3223 -0.1141 -0.0919
 5361SOL     OW21209   0.163   6.282   5.046 -0.4710 -0.2419 -0.2538
 5361SOL    HW221210   0.129   6.357   5.095  2.2740  1.1747 -0.3218
 5361SOL    HW321211   0.226   6.242   5.105 -0.1892 -1.0758 -1.0987
 5361SOL    MW421212   0.167   6.287   5.060  0.2392  0.1404 -0.3839
 5362SOL     OW21213   3.038   1.029   0.073  0.4204 -0.2886  0.4442
 5362SOL    HW221214   2.993   1.025  -0.011  3.4812 -1.7912 -1.3126
 5362SOL    HW321215   3.040   0.938   0.104  1.7072 -0.1963  0.7029
 5362SOL    MW421216   3.033   1.016   0.066  0.1053  0.2184  0.3819
 5363SOL     OW21217   1.834   4.077   2.583  0.5730 -0.2503  0.3333
 5363SOL    HW221218   1.755   4.058   2.633  1.5334 -0.1105  2.0016
 5363SOL    HW321219   1.806   4.075   2.491 -1.4051  0.1313  0.8845
 5363SOL    MW421220   1.820   4.074   2.577  0.4477  0.0016  0.8257
 5364SOL     OW21221   3.944   1.099   5.986  0.7997 -0.6845 -0.4273
 5364SOL    HW221222   4.022   1.136   5.946  0.4517 -0.3589 -0.8145
 5364SOL    HW321223   3.876   1.108   5.920  0.3068 -0.4782  0.0969
 5364SOL    MW421224   3.945   1.105   5.972 -0.5755  0.5087 -0.5780
 5365SOL     OW21225   1.614   2.987   2.158 -0.0655 -0.1360 -0.1793
 5365SOL    HW221226   1.636   2.913   2.215 -2.4754 -1.7536 -1.1852
 5365SOL    HW321227   1.628   3.064   2.213  1.5192 -1.3721  1.2545
 5365SOL    MW421228   1.619   2.987   2.173  0.8001 -0.2565  0.3510
 5366SOL     OW21229   3.558   5.899   3.457  0.0369 -0.3109 -0.0439
 5366SOL    HW221230   3.513   5.875   3.538 -0.2268  1.2633  0.3051
 5366SOL    HW321231   3.569   5.994   3.462  0.4551 -0.2379 -1.6376
 5366SOL    MW421232   3.554   5.908   3.468 -0.3276  0.9572  0.5833
 5367SOL     OW21233   6.070   5.676   3.293 -0.1154  0.1680 -0.2869
 5367SOL    HW221234   6.063   5.769   3.316 -1.0263 -0.2172  1.1393
 5367SOL    HW321235   5.980   5.650   3.271  0.0397 -0.4803 -0.1772
 5367SOL    MW421236   6.057   5.685   3.293 -0.1405 -0.0439  0.0241
 5368SOL     OW21237   3.241   5.977   4.623  0.0794  0.1431 -0.3759
 5368SOL    HW221238   3.257   5.883   4.624 -0.2049  0.0956 -0.1785
 5368SOL    HW321239   3.189   5.991   4.543  1.8175  0.4232 -1.5079
 5368SOL    MW421240   3.236   5.966   4.613 -0.4861 -0.7030 -0.2410
 5369SOL     OW21241   1.882   1.943   1.550 -0.2907  0.2196 -0.5261
 5369SOL    HW221242   1.896   1.857   1.508  1.7250  0.6878 -0.9116
 5369SOL    HW321243   1.968   1.967   1.583 -1.2196  1.2907  1.2160
 5369SOL    MW421244   1.895   1.935   1.549  0.1854  0.2538  0.1381
 5370SOL     OW21245   3.742   2.308   4.006 -0.1927  0.4721  0.7236
 5370SOL    HW221246   3.783   2.232   4.045 -3.1363 -1.2659  0.7299
 5370SOL    HW321247   3.743   2.291   3.912  0.7385  1.3427  0.5549
 5370SOL    MW421248   3.748   2.296   3.998 -0.0677 -0.4241  0.0116
 5371SOL     OW21249   4.241   5.419   2.140 -0.0469 -0.2000 -0.1597
 5371SOL    HW221250   4.263   5.358   2.211 -0.6867  0.7646  0.8974
 5371SOL    HW321251   4.323   5.433   2.094  0.6928  0.1965  1.2306
 5371SOL    MW421252   4.254   5.413   2.143 -0.0536  0.8837  0.2400
 5372SOL     OW21253   1.507   5.955   5.921  0.2341  0.1497 -0.2864
 5372SOL    HW221254   1.438   5.897   5.887  1.8479 -1.3280 -1.1709
 5372SOL    HW321255   1.510   6.027   5.858 -1.9335  1.4634  0.9377
 5372SOL    MW421256   1.498   5.957   5.908  0.4045  0.0306 -0.5119
 5373SOL     OW21257   6.374   0.889   1.273  0.2689 -0.6788  0.8804
 5373SOL    HW221258   6.461   0.900   1.233  0.3628 -0.6008  1.1085
 5373SOL    HW321259   6.389   0.897   1.367 -0.3212  1.7033  0.8357
 5373SOL    MW421260   6.388   0.892   1.280  0.2411 -0.1873 -0.5284
 5374SOL     OW21261   1.809   4.118   2.285 -0.3653  0.0039 -0.1592
 5374SOL    HW221262   1.777   4.036   2.249  0.4601 -0.1014 -0.6787
 5374SOL    HW321263   1.900   4.124   2.255 -0.9679  2.0411 -1.7569
 5374SOL    MW421264   1.817   4.108   2.277  0.5440 -0.1125  0.2139
 5375SOL     OW21265   0.573   0.493   1.134  0.1233 -0.1607 -0.6510
 5375SOL    HW221266   0.527   0.461   1.057 -1.3554  2.4980 -1.0163
 5375SOL    HW321267   0.640   0.552   1.099  0.4263 -0.0697  0.0553
 5375SOL    MW421268   0.576   0.497   1.119  0.4553  0.3986  0.1027
 5376SOL     OW21269   5.987   3.106   0.352  1.0045  0.1377  0.0395
 5376SOL    HW221270   6.007   3.014   0.337 -0.2893 -0.2489  0.5988
 5376SOL    HW321271   5.992   3.147   0.265 -1.8951 -1.1676 -0.8661
 5376SOL    MW421272   5.991   3.099   0.339 -0.4220 -0.0500  0.2058
 5377SOL     OW21273   3.661   2.683   5.904 -0.6502 -0.4444  0.4482
 5377SOL    HW221274   3.637   2.775   5.914 -1.0599 -0.6675  1.7866
 5377SOL    HW321275   3.688   2.674   5.813 -0.8650  0.9382  0.2353
 5377SOL    MW421276   3.661   2.694   5.893  0.2910 -0.3654  0.3942
 5378SOL     OW21277   3.419   4.358   4.279  0.2160  0.2614 -0.4787
 5378SOL    HW221278   3.491   4.318   4.229 -0.6600  0.3538 -1.8530
 5378SOL    HW321279   3.340   4.321   4.241 -0.5218  1.2391  0.0665
 5378SOL    MW421280   3.418   4.348   4.268 -0.2282 -0.6984 -0.1773
 5379SOL     OW21281   3.649   0.922   4.126 -0.4530  0.1478 -0.2324
 5379SOL    HW221282   3.699   0.935   4.045  0.3409 -0.3778  0.1557
 5379SOL    HW321283   3.706   0.869   4.180 -0.3226  1.7377  1.2808
 5379SOL    MW421284   3.663   0.917   4.122 -0.2276 -0.1706  0.1333
 5380SOL     OW21285   3.402   2.514   3.886 -0.3483 -0.5174  0.1643
 5380SOL    HW221286   3.374   2.605   3.890 -0.1366 -0.4931  1.4760
 5380SOL    HW321287   3.404   2.493   3.792  1.2807  1.3417 -0.2806
 5380SOL    MW421288   3.399   2.523   3.874  0.3447  0.5468  0.2225
 5381SOL     OW21289   0.127   6.023   3.045 -0.3335  0.6044  0.0255
 5381SOL    HW221290   0.092   6.100   3.090 -0.6542 -0.7347  2.2358
 5381SOL    HW321291   0.089   5.948   3.092  1.3499 -0.9094 -0.8858
 5381SOL    MW421292   0.118   6.023   3.058  0.1506 -0.1568 -0.3900
 5382SOL     OW21293   3.703   5.821   5.430  0.1394  0.0306 -0.7327
 5382SOL    HW221294   3.785   5.773   5.443 -0.0372 -0.6501 -1.9619
 5382SOL    HW321295   3.670   5.790   5.345 -1.1485  0.6461 -0.4865
 5382SOL    MW421296   3.709   5.811   5.420 -0.3268  0.3242  0.0039
 5383SOL     OW21297   4.496   4.231   1.383  0.2082 -0.0262 -0.0933
 5383SOL    HW221298   4.551   4.208   1.458 -1.1202 -1.1320  0.5762
 5383SOL    HW321299   4.516   4.323   1.366  1.1408  0.0099  1.0822
 5383SOL    MW421300   4.506   4.240   1.390  0.2749  0.6666  0.2071
 5384SOL     OW21301   5.633   3.562   1.527 -0.1053  0.4450  0.3318
 5384SOL    HW221302   5.685   3.624   1.578  2.1821 -1.9803  1.1946
 5384SOL    HW321303   5.597   3.501   1.592  0.8291 -1.2837 -0.6738
 5384SOL    MW421304   5.635   3.562   1.542 -0.3667 -0.1723  0.3480
 5385SOL     OW21305   4.444   1.608   2.359  0.1348  0.3652 -0.0203
 5385SOL    HW221306   4.492   1.687   2.337  1.2714 -0.2480  0.1332
 5385SOL    HW321307   4.512   1.540   2.365 -0.7555 -0.5291  0.2510
 5385SOL    MW421308   4.459   1.609   2.357 -0.2640 -0.0061  0.2999
 5386SOL     OW21309   1.434   5.407   3.228  0.1314 -0.4003 -0.2004
 5386SOL    HW221310   1.505   5.420   3.290  0.5749 -0.5231 -0.6766
 5386SOL    HW321311   1.439   5.314   3.204  0.9273 -0.0436 -1.5558
 5386SOL    MW421312   1.444   5.396   3.233  0.5832  0.5453  0.5423
 5387SOL     OW21313   1.337   4.957   1.254  0.4201 -0.4860  0.0145
 5387SOL    HW221314   1.322   4.864   1.237  3.3350 -1.1176  0.3278
 5387SOL    HW321315   1.302   4.972   1.342 -1.0725 -0.9539 -0.4637
 5387SOL    MW421316   1.330   4.947   1.263  0.0719 -0.1995 -0.1947
 5388SOL     OW21317   1.223   0.243   3.537 -0.4912  0.2159  0.6097
 5388SOL    HW221318   1.317   0.228   3.550 -0.6245  0.0724  1.5035
 5388SOL    HW321319   1.213   0.337   3.543 -0.3885  0.2400  0.4067
 5388SOL    MW421320   1.234   0.253   3.540 -0.2224 -0.0209  0.1902
 5389SOL     OW21321   3.541   2.647   6.212  0.0085  0.0686  0.2086
 5389SOL    HW221322   3.470   2.612   6.266  1.8152  0.3822  2.9834
 5389SOL    HW321323   3.515   2.627   6.122 -1.4422 -3.9259  1.3060
 5389SOL    MW421324   3.528   2.640   6.207 -0.0118  0.4438 -0.3072
 5390SOL     OW21325   2.137   2.512   1.465  0.5901  0.5104  0.0243
 5390SOL    HW221326   2.139   2.600   1.428  1.2858  0.8275  0.7790
 5390SOL    HW321327   2.084   2.521   1.544 -0.1620  0.0294 -0.4157
 5390SOL    MW421328   2.130   2.525   1.471  0.3359 -0.7483 -0.3825
 5391SOL     OW21329   5.620   1.560   3.905 -0.5703  0.2174 -0.3324
 5391SOL    HW221330   5.554   1.494   3.886  0.6606 -1.0675 -0.2975
 5391SOL    HW321331   5.698   1.510   3.928  1.1938  1.6170 -2.8064
 5391SOL    MW421332   5.621   1.545   3.906 -0.2250  0.3919 -0.0148
 5392SOL     OW21333   1.867   4.639   0.514  0.3372  0.8351  0.3995
 5392SOL    HW221334   1.852   4.664   0.605  1.2490  0.0574  0.7806
 5392SOL    HW321335   1.843   4.716   0.463  0.6807  1.5896  1.3615
 5392SOL    MW421336   1.862   4.652   0.519  0.0422  0.1903 -0.2247
 5393SOL     OW21337   2.806   1.942   3.216 -0.6029 -0.1080  0.1365
 5393SOL    HW221338   2.824   1.889   3.138 -0.5260  0.5800 -0.3322
 5393SOL    HW321339   2.716   1.921   3.239 -0.0967 -1.5930  0.8974
 5393SOL    MW421340   2.797   1.932   3.209  0.1900  0.3397  0.7260
 5394SOL     OW21341   2.135   4.996   0.762 -0.6134  0.0243  0.5284
 5394SOL    HW221342   2.102   5.020   0.675 -1.5476  1.1126  1.1511
 5394SOL    HW321343   2.061   5.013   0.820 -0.0010 -0.7107  1.5332
 5394SOL    MW421344   2.121   5.002   0.758  0.1234 -0.4115  0.5154
 5395SOL     OW21345   0.602   4.831   3.901 -0.3715  0.4596 -0.6010
 5395SOL    HW221346   0.572   4.813   3.990 -1.5007  1.0083 -0.8497
 5395SOL    HW321347   0.696   4.849   3.910  0.1054 -2.0270  0.0986
 5395SOL    MW421348   0.611   4.831   3.914 -0.1392  0.1928  0.2994
 5396SOL     OW21349   5.034   1.624   2.102 -0.0048  0.4406 -0.4750
 5396SOL    HW221350   5.083   1.694   2.058 -0.3429  1.4690  0.7316
 5396SOL    HW321351   5.086   1.545   2.085 -0.3058  0.6983 -2.9769
 5396SOL    MW421352   5.048   1.623   2.094  0.1898 -0.0888 -0.1468
 5397SOL     OW21353   5.517   5.441   6.143  0.0251  0.1377  0.0513
 5397SOL    HW221354   5.586   5.433   6.209 -2.0740  0.1321  2.4124
 5397SOL    HW321355   5.468   5.359   6.149 -0.7296  0.5029 -0.9016
 5397SOL    MW421356   5.519   5.429   6.153 -0.2695 -0.5836 -0.3731
 5398SOL     OW21357   5.979   5.516   1.596  0.1241 -0.9907  0.0091
 5398SOL    HW221358   5.995   5.604   1.562 -0.8708 -0.8916 -0.2436
 5398SOL    HW321359   5.895   5.491   1.557 -1.3373 -0.7062  2.7061
 5398SOL    MW421360   5.970   5.524   1.586  0.4166 -0.3247 -0.2851
 5399SOL     OW21361   2.411   0.381   4.173  0.6731  0.6887  0.6033
 5399SOL    HW221362   2.500   0.363   4.201  0.4901 -1.7919 -0.1388
 5399SOL    HW321363   2.402   0.335   4.089 -1.7155 -0.5209  1.3991
 5399SOL    MW421364   2.421   0.372   4.166  1.2113  0.5520  0.1575
 5400SOL     OW21365   6.260   4.198   2.072  0.0336  0.0031 -0.2366
 5400SOL    HW221366   6.338   4.243   2.106 -0.3719  0.1670  0.5009
 5400SOL    HW321367   6.236   4.247   1.994  0.0157  0.6459  0.1625
 5400SOL    MW421368   6.267   4.211   2.066 -0.8026  0.5567  0.1378
 5401SOL     OW21369   5.255   1.045   1.559  0.3778 -0.6281 -0.3797
 5401SOL    HW221370   5.268   1.036   1.465  0.9562 -1.1014 -0.2657
 5401SOL    HW321371   5.326   0.993   1.597  0.3015 -0.2273  0.3155
 5401SOL    MW421372   5.266   1.037   1.552 -0.0394  0.2111  0.1640
 5402SOL     OW21373   3.776   3.235   3.868 -0.2846 -0.2771 -0.2765
 5402SOL    HW221374   3.687   3.269   3.873 -0.7724 -1.3471 -1.4062
 5402SOL    HW321375   3.813   3.275   3.790 -0.0589 -0.5030 -0.2867
 5402SOL    MW421376   3.770   3.245   3.859 -0.1998  0.1554 -0.4151
 5403SOL     OW21377   5.348   0.870   0.489  0.5118 -0.3643 -0.4803
 5403SOL    HW221378   5.273   0.870   0.429 -1.7062 -1.3270  2.1312
 5403SOL    HW321379   5.376   0.962   0.491 -2.4494  0.6318  0.5511
 5403SOL    MW421380   5.341   0.882   0.481  0.1903 -0.2325 -0.2595
 5404SOL     OW21381   3.751   0.049   1.484 -0.5400  0.1275  0.0361
 5404SOL    HW221382   3.666   0.011   1.508  0.3695 -1.8030  0.3812
 5404SOL    HW321383   3.755   0.131   1.533 -2.4713  0.5785 -0.4935
 5404SOL    MW421384   3.740   0.055   1.494 -0.4217  0.2763  0.1249
 5405SOL     OW21385   0.716   5.207   4.998 -0.0363  0.3747 -0.0940
 5405SOL    HW221386   0.684   5.132   4.948  1.2485  0.7091 -1.4953
 5405SOL    HW321387   0.811   5.207   4.983  0.1344  1.5868  0.8519
 5405SOL    MW421388   0.724   5.197   4.990 -0.4543 -0.6150  0.1374
 5406SOL     OW21389   0.041   5.807   5.370 -0.5032  0.4596  0.2855
 5406SOL    HW221390   0.050   5.882   5.312 -0.8427  0.3200  0.0501
 5406SOL    HW321391   0.074   5.733   5.320  2.1473  0.7906  1.3577
 5406SOL    MW421392   0.046   5.807   5.356 -0.0772 -0.2338  0.4920
 5407SOL     OW21393   2.479   1.761   5.246 -0.7356 -0.4330 -0.3216
 5407SOL    HW221394   2.443   1.672   5.244  0.5963 -1.0020 -0.2438
 5407SOL    HW321395   2.567   1.752   5.210  0.8535  0.1462  2.9986
 5407SOL    MW421396   2.486   1.748   5.241  0.5407  0.0132 -0.0999
 5408SOL     OW21397   4.231   0.725   1.058  0.0290  0.2031 -0.3468
 5408SOL    HW221398   4.239   0.816   1.030  1.1330 -0.0976 -1.0547
 5408SOL    HW321399   4.320   0.689   1.051 -0.5191 -1.1369 -0.8223
 5408SOL    MW421400   4.244   0.732   1.053 -0.1773  0.0934 -0.3108
 5409SOL     OW21401   5.555   6.328   5.034 -0.1451  0.0191 -0.3478
 5409SOL    HW221402   5.573   6.394   5.101  0.3284 -0.1606 -0.2920
 5409SOL    HW321403   5.484   6.275   5.069 -1.5214  1.3699 -1.0007
 5409SOL    MW421404   5.548   6.330   5.047  0.1580 -0.0482 -0.3566
 5410SOL     OW21405   2.082   5.327   2.020  0.3517 -0.1092  0.2461
 5410SOL    HW221406   2.022   5.399   2.041  2.1279  1.1974  1.0862
 5410SOL    HW321407   2.051   5.254   2.074 -1.0033  0.2341 -0.0203
 5410SOL    MW421408   2.070   5.326   2.030  0.1914  0.1589  0.3642
 5411SOL     OW21409   3.610   6.150   3.515  1.3287  0.4660 -1.0255
 5411SOL    HW221410   3.551   6.225   3.508 -0.3298 -0.8644 -1.9470
 5411SOL    HW321411   3.633   6.146   3.608 -1.6251 -0.0956 -0.2107
 5411SOL    MW421412   3.606   6.159   3.526  0.1948  0.2287  0.0284
 5412SOL     OW21413   2.780   4.071   2.293  0.0261 -0.5615  0.2218
 5412SOL    HW221414   2.729   4.144   2.261  0.0135  0.0821  1.6494
 5412SOL    HW321415   2.731   3.993   2.266 -1.3572  0.0244  0.9953
 5412SOL    MW421416   2.767   4.070   2.285  0.3784 -0.6932  0.4759
 5413SOL     OW21417   1.583   5.159   0.100 -0.4900 -0.1290  0.2761
 5413SOL    HW221418   1.535   5.235   0.066  1.2129  0.7765 -0.1775
 5413SOL    HW321419   1.604   5.182   0.190  0.8594  0.3763 -0.1491
 5413SOL    MW421420   1.579   5.172   0.107 -0.1624 -0.0700 -0.5751
 5414SOL     OW21421   3.614   4.853   1.279  0.1961  0.1289  0.8496
 5414SOL    HW221422   3.678   4.914   1.243  0.5415 -1.0006 -0.5270
 5414SOL    HW321423   3.591   4.795   1.206 -0.4103 -1.1458  1.9936
 5414SOL    MW421424   3.620   4.853   1.265 -0.3721 -0.2043 -0.1483
 5415SOL     OW21425   6.011   3.222   0.094 -0.4298  0.1764 -0.4429
 5415SOL    HW221426   6.038   3.305   0.055 -2.3375  1.4747  0.8540
 5415SOL    HW321427   5.918   3.214   0.073 -0.3354 -1.5571 -0.3731
 5415SOL    MW421428   6.002   3.232   0.086  0.4635 -0.7195 -0.3640
 5416SOL     OW21429   6.279   0.939   2.268  0.1122 -0.3752 -0.2039
 5416SOL    HW221430   6.192   0.908   2.292  0.4496 -0.1131  1.4869
 5416SOL    HW321431   6.295   0.902   2.182 -3.1233  2.4664 -2.2626
 5416SOL    MW421432   6.270   0.930   2.260  0.3822  0.3451 -0.9899
 5417SOL     OW21433   1.886   2.718   0.483  0.4867  0.3999  0.1129
 5417SOL    HW221434   1.860   2.645   0.539 -0.7827 -1.5975 -2.8136
 5417SOL    HW321435   1.982   2.712   0.479  0.4663 -0.5050  0.7024
 5417SOL    MW421436   1.896   2.708   0.490 -0.1695  0.0004  0.3406
 5418SOL     OW21437   4.902   4.250   2.587  0.1733 -0.0884  0.0476
 5418SOL    HW221438   4.845   4.279   2.516  1.7001 -0.2057 -1.2613
 5418SOL    HW321439   4.991   4.269   2.557  0.9450 -1.5248  1.2825
 5418SOL    MW421440   4.906   4.256   2.574  0.2685 -0.0580 -0.3075
 5419SOL     OW21441   1.187   4.125   5.908  0.1368 -0.0427 -0.1145
 5419SOL    HW221442   1.100   4.149   5.875 -0.8347  0.4064  2.5451
 5419SOL    HW321443   1.247   4.188   5.867 -0.7679 -0.2456 -1.8434
 5419SOL    MW421444   1.184   4.137   5.898  0.5728 -0.2267  0.6131
 5420SOL     OW21445   1.985   3.215   3.680  0.1911 -0.4966 -0.1321
 5420SOL    HW221446   1.904   3.215   3.731  0.8915 -1.2910  1.0270
 5420SOL    HW321447   2.050   3.257   3.737  0.9287 -1.1618 -0.4548
 5420SOL    MW421448   1.983   3.221   3.694 -0.1311  0.3459 -0.4542
 5421SOL     OW21449   4.901   0.196   0.203  0.2129 -0.1245 -0.0608
 5421SOL    HW221450   4.908   0.155   0.117  1.8735  0.8358 -0.4188
 5421SOL    HW321451   4.947   0.279   0.194 -1.0607  0.7807  1.3017
 5421SOL    MW421452   4.908   0.201   0.190 -0.4578 -0.7705  0.3226
 5422SOL     OW21453   3.895   1.258   3.370  0.1200  0.0239  0.0023
 5422SOL    HW221454   3.867   1.167   3.368  0.9411 -0.2483  0.3927
 5422SOL    HW321455   3.989   1.254   3.350  0.2739  0.7310  0.5587
 5422SOL    MW421456   3.904   1.246   3.367  0.1338  0.0603 -1.0039
 5423SOL     OW21457   6.034   5.242   1.629 -0.3621 -0.0260 -0.3461
 5423SOL    HW221458   6.030   5.333   1.599  1.7548  0.2517  0.0755
 5423SOL    HW321459   5.967   5.238   1.698 -1.6179  0.7305 -1.4660
 5423SOL    MW421460   6.025   5.253   1.634 -0.1976 -0.3521 -0.0605
 5424SOL     OW21461   3.202   3.734   5.209  0.8051 -0.2312  0.5144
 5424SOL    HW221462   3.116   3.722   5.249 -0.3985 -0.4804 -1.9780
 5424SOL    HW321463   3.215   3.828   5.206  1.0515 -0.2122  1.6859
 5424SOL    MW421464   3.192   3.745   5.214  0.3127  0.0235 -0.1417
 5425SOL     OW21465   6.084   2.971   0.617  0.3543  0.4241  0.9597
 5425SOL    HW221466   6.018   3.028   0.577 -0.6658 -0.8891  0.6784
 5425SOL    HW321467   6.039   2.887   0.628  1.3998  0.0342  2.5718
 5425SOL    MW421468   6.069   2.967   0.613  0.3402  0.4506 -0.2150
 5426SOL     OW21469   5.255   1.650   0.605 -0.3530  0.1819 -0.0592
 5426SOL    HW221470   5.319   1.657   0.676  2.4638  0.3883 -2.3988
 5426SOL    HW321471   5.225   1.559   0.610  2.2943 -0.8259 -0.4334
 5426SOL    MW421472   5.260   1.639   0.615 -0.4911 -0.4655 -0.0798
 5427SOL     OW21473   0.686   0.144   0.922 -0.6129 -0.2645  0.0212
 5427SOL    HW221474   0.620   0.116   0.858  0.7226 -1.6426 -0.8298
 5427SOL    HW321475   0.658   0.104   1.004 -0.8864 -0.7753 -0.3121
 5427SOL    MW421476   0.673   0.135   0.924 -0.1906  0.2526  0.6964
 5428SOL     OW21477   3.313   5.753   5.354  0.2687 -0.2368 -0.1464
 5428SOL    HW221478   3.368   5.675   5.362  0.0288 -0.4255 -0.3145
 5428SOL    HW321479   3.301   5.783   5.443  1.0269  0.0722 -0.1458
 5428SOL    MW421480   3.318   5.746   5.366  0.1579 -0.3961 -0.4487
 5429SOL     OW21481   2.065   4.219   6.388  0.0831 -0.3805  0.4368
 5429SOL    HW221482   2.090   4.207   6.480 -0.9093  0.1832  0.7887
 5429SOL    HW321483   2.112   4.150   6.341 -0.1894 -1.3068  1.4968
 5429SOL    MW421484   2.075   4.208   6.394 -0.1558  0.5551  0.2439
 5430SOL     OW21485   3.809   0.011   5.292 -0.0205  0.1571 -0.4732
 5430SOL    HW221486   3.848  -0.037   5.365 -0.7810  2.3250  1.4619
 5430SOL    HW321487   3.769   0.087   5.332  1.2376  2.5355 -3.3643
 5430SOL    MW421488   3.809   0.014   5.307  0.2062  0.1686 -0.4002
 5431SOL     OW21489   5.250   4.523   5.997  0.6712  0.0614  0.8143
 5431SOL    HW221490   5.222   4.588   5.933  1.4013  0.4362  0.8655
 5431SOL    HW321491   5.330   4.560   6.035  2.6524 -2.0376 -1.0158
 5431SOL    MW421492   5.257   4.537   5.994 -0.0024  0.1917  0.3864
 5432SOL     OW21493   0.670   4.012   5.006  0.8284 -0.7209  0.1102
 5432SOL    HW221494   0.686   4.105   4.992  1.2353 -0.5549  1.4965
 5432SOL    HW321495   0.748   3.969   4.970  2.0426 -0.2814  2.0361
 5432SOL    MW421496   0.683   4.018   5.000 -0.5822  0.0270  0.2702
 5433SOL     OW21497   2.522   0.375   5.983 -0.0970  0.3290 -0.4068
 5433SOL    HW221498   2.568   0.442   6.034 -0.9392  1.1831 -0.7240
 5433SOL    HW321499   2.592   0.325   5.941  0.5709  1.6171 -0.9119
 5433SOL    MW421500   2.537   0.378   5.984  0.6248 -0.4276 -0.1287
 5434SOL     OW21501   5.596   6.315   1.129  0.1225  0.8408  0.1581
 5434SOL    HW221502   5.556   6.240   1.085 -1.0773  2.2413 -1.2646
 5434SOL    HW321503   5.579   6.300   1.222 -1.1259 -0.0925 -0.1877
 5434SOL    MW421504   5.588   6.303   1.135  0.3734 -0.0628  0.0936
 5435SOL     OW21505   0.298   1.636   6.233 -1.0644  0.3388 -0.5442
 5435SOL    HW221506   0.302   1.552   6.188 -1.8841 -0.0708  0.1311
 5435SOL    HW321507   0.310   1.701   6.163  4.5254 -0.2675 -0.5481
 5435SOL    MW421508   0.300   1.634   6.218  0.1352  0.2548  0.0533
 5436SOL     OW21509   2.034   0.801   5.039 -0.0831 -0.0139 -0.1432
 5436SOL    HW221510   2.081   0.752   5.107  0.1592  1.4403  0.7938
 5436SOL    HW321511   1.997   0.734   4.982  0.0445 -1.2749  1.2018
 5436SOL    MW421512   2.036   0.786   5.041 -0.2000 -0.1250  0.3696
 5437SOL     OW21513   3.692   1.953   4.107 -0.5315  0.2085 -0.1117
 5437SOL    HW221514   3.617   1.902   4.077 -1.0447  1.1838 -0.5512
 5437SOL    HW321515   3.738   1.896   4.168 -0.8353 -0.9326 -0.9173
 5437SOL    MW421516   3.688   1.939   4.111  0.1880 -0.0291 -0.1251
 5438SOL     OW21517   4.100   3.978   3.069 -0.6406 -0.0797 -0.1662
 5438SOL    HW221518   4.067   3.942   3.151 -2.5102  2.1476  0.1383
 5438SOL    HW321519   4.031   3.961   3.005  0.6504 -1.4904 -1.2740
 5438SOL    MW421520   4.087   3.971   3.071 -0.9134  0.7229  0.0354
 5439SOL     OW21521   5.473   2.379   2.376 -0.3223  0.0491  0.4030
 5439SOL    HW221522   5.463   2.387   2.281  0.4066 -0.4668  0.2729
 5439SOL    HW321523   5.563   2.346   2.387 -0.5328 -0.2490  1.2488
 5439SOL    MW421524   5.484   2.375   2.365  0.1189  0.3004 -0.0434
 5440SOL     OW21525   4.929   6.127   1.506 -0.5022 -0.5716 -0.2682
 5440SOL    HW221526   4.904   6.202   1.561 -2.3195 -2.4079  1.5553
 5440SOL    HW321527   5.020   6.146   1.481 -0.5841  1.7719  0.8965
 5440SOL    MW421528   4.938   6.140   1.510  0.5414  0.0807 -0.1135
 5441SOL     OW21529   4.896   0.530   1.682 -0.1976 -0.2449  0.3379
 5441SOL    HW221530   4.928   0.450   1.722 -0.7008 -0.0575  1.1538
 5441SOL    HW321531   4.927   0.600   1.740 -3.1457 -0.1318  2.0156
 5441SOL    MW421532   4.904   0.529   1.695 -0.6080 -0.4906  0.1965
 5442SOL     OW21533   3.189   4.033   5.312 -0.5334  0.1763 -0.2213
 5442SOL    HW221534   3.260   4.055   5.251 -0.2128 -0.8880 -0.2445
 5442SOL    HW321535   3.112   4.022   5.257 -0.6748  1.0903 -0.2222
 5442SOL    MW421536   3.189   4.034   5.297  0.7848 -0.5468  0.0132
 5443SOL     OW21537   4.251   1.975   2.430 -0.5628 -0.2753  0.4082
 5443SOL    HW221538   4.310   1.988   2.505  1.1908  1.5038 -1.1933
 5443SOL    HW321539   4.224   1.883   2.438  0.1007 -0.3507  2.8019
 5443SOL    MW421540   4.255   1.964   2.441 -0.4065  0.0237 -0.0697
 5444SOL     OW21541   0.663   6.291   6.023  0.7319  0.2970 -0.2156
 5444SOL    HW221542   0.627   6.209   5.988  0.7591 -0.3715  1.2467
 5444SOL    HW321543   0.646   6.287   6.117  2.0637  1.2899  0.1094
 5444SOL    MW421544   0.656   6.280   6.031  0.2002 -0.3469  0.1532
 5445SOL     OW21545   3.201   6.250   1.784 -0.4356 -0.3453  0.6232
 5445SOL    HW221546   3.156   6.309   1.845  1.5619  0.8817  1.0121
 5445SOL    HW321547   3.209   6.301   1.703 -1.9518 -1.5033 -0.3057
 5445SOL    MW421548   3.196   6.265   1.782  0.2708  0.4683  0.4395
 5446SOL     OW21549   1.145   5.674   4.604 -0.5436 -0.1636  0.0240
 5446SOL    HW221550   1.176   5.587   4.576 -1.2177 -0.2911 -0.3277
 5446SOL    HW321551   1.156   5.729   4.526 -1.9381 -0.3986 -0.3669
 5446SOL    MW421552   1.151   5.670   4.590 -0.5696 -0.3355 -0.0571
 5447SOL     OW21553   6.064   5.498   1.145 -0.9379  0.1855  0.2133
 5447SOL    HW221554   6.096   5.587   1.128 -1.4484  0.1479 -1.0333
 5447SOL    HW321555   6.096   5.478   1.233  1.7904  0.4137 -0.6511
 5447SOL    MW421556   6.072   5.507   1.154  0.5487 -0.0758 -0.6482
 5448SOL     OW21557   3.624   3.073   5.910 -0.1308  0.0466 -0.0717
 5448SOL    HW221558   3.567   3.149   5.926 -0.3245 -0.2565  0.7023
 5448SOL    HW321559   3.632   3.031   5.995  1.0822 -0.0481 -0.2242
 5448SOL    MW421560   3.617   3.078   5.923 -0.1366  0.0878 -0.0785
 5449SOL     OW21561   4.937   5.680   1.340 -0.2341  0.0705 -0.4598
 5449SOL    HW221562   4.950   5.599   1.290 -0.1352  0.0669 -0.4287
 5449SOL    HW321563   4.842   5.691   1.344 -0.2930 -0.6225  0.4465
 5449SOL    MW421564   4.926   5.670   1.334  0.5214 -0.0917 -0.0788
 5450SOL     OW21565   3.145   0.628   1.193  0.0053  0.0258 -0.2697
 5450SOL    HW221566   3.202   0.678   1.134 -0.8845  2.9344  1.1253
 5450SOL    HW321567   3.194   0.624   1.275  0.1159 -1.6457 -0.3902
 5450SOL    MW421568   3.159   0.634   1.196  0.4978 -0.0869  0.3760
 5451SOL     OW21569   4.590   4.447   3.836 -0.4215 -0.2782 -0.3421
 5451SOL    HW221570   4.568   4.537   3.815  0.3156  0.2037  0.8619
 5451SOL    HW321571   4.507   4.408   3.866 -0.3841  0.5501  0.9250
 5451SOL    MW421572   4.576   4.454   3.837 -0.4999 -0.2404 -0.5501
 5452SOL     OW21573   3.346   6.370   2.658  0.2307 -0.2509  0.1128
 5452SOL    HW221574   3.270   6.401   2.610 -0.3054  1.1166  1.7567
 5452SOL    HW321575   3.385   6.304   2.601 -0.7488  0.7961 -1.8625
 5452SOL    MW421576   3.341   6.366   2.645  0.1973  0.0447  0.0687
 5453SOL     OW21577   2.621   1.976   2.151  0.3624  0.4010  0.0824
 5453SOL    HW221578   2.597   2.065   2.175  0.7892  1.0213 -1.6531
 5453SOL    HW321579   2.610   1.925   2.232  0.2309  2.0348  1.1330
 5453SOL    MW421580   2.617   1.981   2.165  0.2339 -0.0635 -0.3768
 5454SOL     OW21581   2.153   3.068   1.176  0.1200  0.6611  0.1643
 5454SOL    HW221582   2.181   3.024   1.096 -1.4895  0.8043 -0.5114
 5454SOL    HW321583   2.077   3.019   1.206  0.1978  1.1150  1.1442
 5454SOL    MW421584   2.147   3.056   1.170  0.0550 -0.6371 -0.2558
 5455SOL     OW21585   1.521   2.600   2.744  0.4722  0.4718 -0.2024
 5455SOL    HW221586   1.594   2.600   2.683 -0.1160  1.9300 -0.9680
 5455SOL    HW321587   1.470   2.678   2.721 -0.2487  0.5931  1.5986
 5455SOL    MW421588   1.524   2.610   2.733  0.0915 -0.1044 -0.0884
 5456SOL     OW21589   3.532   3.666   1.015  0.2656 -0.4381  0.0958
 5456SOL    HW221590   3.467   3.712   1.068 -1.3620 -1.0499 -1.2913
 5456SOL    HW321591   3.534   3.578   1.051  1.5938  0.0001  1.1883
 5456SOL    MW421592   3.524   3.661   1.027 -0.6592  0.0621 -0.0491
 5457SOL     OW21593   3.788   0.544   3.120  0.4830 -0.5948  0.2928
 5457SOL    HW221594   3.799   0.561   3.214  0.2888  0.4745  0.1299
 5457SOL    HW321595   3.698   0.512   3.112  0.0316  0.6282  0.3103
 5457SOL    MW421596   3.778   0.542   3.131 -0.0350 -0.0570 -0.1341
 5458SOL     OW21597   3.643   3.115   4.662 -0.1467  0.0497 -0.9607
 5458SOL    HW221598   3.629   3.087   4.753  0.1607 -1.1529 -1.2589
 5458SOL    HW321599   3.630   3.209   4.663  1.0179  0.2224  0.5599
 5458SOL    MW421600   3.639   3.123   4.674  0.5447  0.3100 -0.2351
 5459SOL     OW21601   3.669   1.721   6.359  0.4682 -0.5424 -0.0273
 5459SOL    HW221602   3.637   1.632   6.347 -0.6671 -0.1656  0.0250
 5459SOL    HW321603   3.750   1.725   6.308  1.7751 -2.2336  1.7920
 5459SOL    MW421604   3.676   1.710   6.350 -0.3419  0.0867  0.2554
 5460SOL     OW21605   6.324   3.260   0.223  0.0573 -0.1106  0.3078
 5460SOL    HW221606   6.331   3.316   0.146 -1.4784  0.3188  0.4440
 5460SOL    HW321607   6.327   3.170   0.189  1.5272  0.0362 -0.0092
 5460SOL    MW421608   6.325   3.255   0.208 -0.1576  0.2305  0.3456
 5461SOL     OW21609   1.551   4.882   3.094 -0.2022  0.0244  0.2763
 5461SOL    HW221610   1.579   4.846   3.179 -0.0150 -1.2231 -0.3001
 5461SOL    HW321611   1.488   4.951   3.117  0.3077  0.1228  1.4474
 5461SOL    MW421612   1.546   4.886   3.109  0.4863 -0.2156  0.0782
 5462SOL     OW21613   0.227   4.883   5.110  0.2017  0.1480 -0.0532
 5462SOL    HW221614   0.143   4.844   5.135 -0.6794  1.7448 -0.3724
 5462SOL    HW321615   0.212   4.977   5.117  1.8759  0.4713 -0.4689
 5462SOL    MW421616   0.214   4.890   5.114  0.4314 -0.3720  0.3987
 5463SOL     OW21617   2.596   2.004   1.874  0.1561  0.4399  0.3969
 5463SOL    HW221618   2.603   1.926   1.819  0.6243  1.5255 -1.1776
 5463SOL    HW321619   2.590   1.971   1.963 -1.0247 -1.4309 -0.3067
 5463SOL    MW421620   2.596   1.990   1.878  0.3743  0.3004 -0.0322
 5464SOL     OW21621   1.371   0.032   2.276 -0.0908 -0.5829 -0.2916
 5464SOL    HW221622   1.419  -0.047   2.250  0.3524 -0.1125 -0.9448
 5464SOL    HW321623   1.437   0.087   2.318 -0.3473 -0.4661 -0.0424
 5464SOL    MW421624   1.386   0.029   2.278  0.3118  0.5084 -0.7234
 5465SOL     OW21625   4.423   4.162   0.851 -0.0715  0.4057  0.1575
 5465SOL    HW221626   4.441   4.225   0.921 -0.0097  0.3938  0.1525
 5465SOL    HW321627   4.423   4.214   0.771  0.0171  0.3938  0.1494
 5465SOL    MW421628   4.425   4.177   0.850  0.7568  0.2206  0.4298
 5466SOL     OW21629   4.917   3.081   0.257 -0.1385 -0.1018  0.3779
 5466SOL    HW221630   4.843   3.131   0.222 -0.2205 -1.0932 -0.9515
 5466SOL    HW321631   4.899   3.073   0.350 -2.3655 -1.3766 -0.0875
 5466SOL    MW421632   4.905   3.087   0.265 -0.5908 -0.2898  0.0724
 5467SOL     OW21633   6.135   0.575   1.501  0.6471  0.3055 -0.5617
 5467SOL    HW221634   6.099   0.519   1.432  0.6058 -0.0832 -0.2256
 5467SOL    HW321635   6.111   0.664   1.474  0.6116  0.1582 -1.0355
 5467SOL    MW421636   6.127   0.579   1.488 -0.9574 -0.0966  0.0236
 5468SOL     OW21637   5.239   0.313   5.680  0.2827 -0.2945 -0.5787
 5468SOL    HW221638   5.199   0.254   5.744  1.0028  0.7911  0.9174
 5468SOL    HW321639   5.184   0.303   5.602 -0.8838 -1.3333  0.3254
 5468SOL    MW421640   5.226   0.304   5.678 -0.7174 -0.0570 -0.6542
 5469SOL     OW21641   3.911   2.349   5.762 -0.0720 -0.1581  0.3628
 5469SOL    HW221642   3.900   2.263   5.803 -0.6597  0.3394  1.2808
 5469SOL    HW321643   3.839   2.355   5.699  0.8136 -0.9094 -0.7812
 5469SOL    MW421644   3.900   2.338   5.759  0.1442 -0.3418  0.2618
 5470SOL     OW21645   6.337   6.103   4.003  0.2327 -0.1651  0.3282
 5470SOL    HW221646   6.402   6.082   4.070  0.0192  1.2923  1.0410
 5470SOL    HW321647   6.387   6.110   3.922  0.9546  0.6615  0.8187
 5470SOL    MW421648   6.352   6.101   4.001  0.7432 -0.4907  0.0734
 5471SOL     OW21649   1.171   4.525   3.466 -0.1937 -0.5050  0.1958
 5471SOL    HW221650   1.245   4.521   3.527 -1.6477 -0.1280  2.0694
 5471SOL    HW321651   1.098   4.555   3.519 -1.1338  1.8138 -2.1727
 5471SOL    MW421652   1.171   4.529   3.481  0.3217 -0.2689 -0.2201
 5472SOL     OW21653   3.014   4.382   5.509 -0.2579 -0.4747 -0.3917
 5472SOL    HW221654   2.960   4.367   5.587 -2.2372 -0.6237 -1.7419
 5472SOL    HW321655   3.094   4.331   5.526  0.0117  0.6299  2.1242
 5472SOL    MW421656   3.017   4.373   5.522  0.6120  0.1416 -0.4775
 5473SOL     OW21657   5.669   6.381   2.401 -0.0264  1.3674 -0.1839
 5473SOL    HW221658   5.710   6.320   2.462  0.5775  2.5145  0.5870
 5473SOL    HW321659   5.660   6.462   2.450  1.3217  2.6170 -1.8903
 5473SOL    MW421660   5.673   6.384   2.415  0.1116  0.4540 -0.5107
 5474SOL     OW21661   2.757   3.051   5.926  0.2834  0.1117 -0.3758
 5474SOL    HW221662   2.831   3.022   5.873  1.5598  0.6061  1.0565
 5474SOL    HW321663   2.790   3.048   6.016 -1.3410  0.6559  0.2639
 5474SOL    MW421664   2.771   3.047   5.931  0.1278  0.2657 -0.5721
 5475SOL     OW21665   4.637   2.224   3.362  0.5339 -0.3511  0.4003
 5475SOL    HW221666   4.651   2.312   3.328  1.9319 -0.5370  0.4293
 5475SOL    HW321667   4.671   2.226   3.451 -2.1715 -0.1523  1.5331
 5475SOL    MW421668   4.643   2.236   3.369 -0.3555 -0.2055  0.1257
 5476SOL     OW21669   6.004   1.491   0.724  0.5677 -0.0860 -0.4662
 5476SOL    HW221670   6.035   1.581   0.715 -1.5450  0.8060  0.5856
 5476SOL    HW321671   6.009   1.472   0.817 -0.6254 -0.4017 -0.4417
 5476SOL    MW421672   6.009   1.500   0.735 -0.2725 -0.1498  0.1354
 5477SOL     OW21673   2.221   0.446   4.958 -0.9698 -0.2025 -0.2097
 5477SOL    HW221674   2.153   0.380   4.970 -0.9343  0.0411  1.7004
 5477SOL    HW321675   2.240   0.477   5.047  1.0269  0.3557 -0.7838
 5477SOL    MW421676   2.214   0.441   4.972  0.0194  0.3318  0.1106
 5478SOL     OW21677   0.742   1.758   5.427 -0.5162  0.1771 -0.1551
 5478SOL    HW221678   0.810   1.744   5.361 -0.4552  0.8026 -0.2290
 5478SOL    HW321679   0.660   1.732   5.383 -0.5591  1.1967 -0.7035
 5478SOL    MW421680   0.740   1.753   5.412  0.4786 -0.3016 -0.2784
 5479SOL     OW21681   4.695   0.823   2.252  0.2735  0.2798  0.0284
 5479SOL    HW221682   4.683   0.788   2.164  2.1938  0.4131 -0.3195
 5479SOL    HW321683   4.790   0.824   2.265  0.0227 -0.1678  2.2784
 5479SOL    MW421684   4.706   0.818   2.242  0.4135 -0.5398 -0.1517
 5480SOL     OW21685   1.560   1.369   2.551 -0.0387  0.0807 -0.2991
 5480SOL    HW221686   1.564   1.454   2.507 -2.0224  0.2987 -0.1546
 5480SOL    HW321687   1.601   1.383   2.636 -1.1142  1.1665  0.0688
 5480SOL    MW421688   1.566   1.382   2.557  0.2428 -0.2074 -0.1968
 5481SOL     OW21689   5.947   0.120   4.831  0.3085 -0.3394  0.1843
 5481SOL    HW221690   6.003   0.122   4.909  1.9297  1.5416 -0.9415
 5481SOL    HW321691   5.950   0.029   4.802  3.1772 -0.2627 -0.0373
 5481SOL    MW421692   5.955   0.109   4.838  0.0565 -0.1924 -0.1731
 5482SOL     OW21693   2.715   5.717   1.663  0.4549  0.5802  0.3393
 5482SOL    HW221694   2.785   5.775   1.634 -0.0510  1.2800  0.4872
 5482SOL    HW321695   2.635   5.769   1.653 -0.1692 -0.5455 -0.7715
 5482SOL    MW421696   2.714   5.732   1.658  0.1353 -0.3773  0.1039
 5483SOL     OW21697   3.177   3.091   5.917 -0.4874 -0.3053 -0.6017
 5483SOL    HW221698   3.269   3.068   5.920 -0.5175 -0.3669  1.3856
 5483SOL    HW321699   3.171   3.174   5.964 -1.2519  0.5215 -2.0799
 5483SOL    MW421700   3.188   3.099   5.924 -0.2578  0.7175 -0.5055
 5484SOL     OW21701   4.786   3.967   0.595  0.3096  0.6021 -0.6434
 5484SOL    HW221702   4.765   3.946   0.686 -1.3694  2.4913 -0.5477
 5484SOL    HW321703   4.877   3.998   0.599 -0.1192  1.8146  0.6163
 5484SOL    MW421704   4.795   3.968   0.608  0.3596  1.0183 -0.2041
 5485SOL     OW21705   1.733   3.675   1.714 -0.2544 -0.2423  0.5493
 5485SOL    HW221706   1.662   3.663   1.650 -0.6175 -0.7107  1.0369
 5485SOL    HW321707   1.796   3.732   1.669 -0.4622 -0.6409 -0.2632
 5485SOL    MW421708   1.732   3.681   1.699  0.4749 -0.4952 -0.5055
 5486SOL     OW21709   5.344   4.895   4.354 -0.3371  0.3503 -0.1725
 5486SOL    HW221710   5.313   4.805   4.345 -0.2216  0.2205  0.6518
 5486SOL    HW321711   5.300   4.943   4.284  0.1926 -0.4944 -1.1173
 5486SOL    MW421712   5.334   4.889   4.343 -0.0218 -0.0704 -0.3245
 5487SOL     OW21713   2.002   4.844   5.622  0.0569 -0.3814 -0.0734
 5487SOL    HW221714   1.990   4.783   5.550  0.0660 -0.6081  0.1138
 5487SOL    HW321715   2.031   4.925   5.581  1.2637 -0.8638 -0.2297
 5487SOL    MW421716   2.005   4.847   5.607 -0.0037  0.1189 -0.1184
 5488SOL     OW21717   5.870   2.874   4.955  0.0938  1.2851 -0.2900
 5488SOL    HW221718   5.778   2.897   4.969  0.0855 -0.0260  2.7029
 5488SOL    HW321719   5.916   2.915   5.029  1.3279 -0.8789  0.2159
 5488SOL    MW421720   5.864   2.882   4.967  0.1224  0.0710 -0.7416
 5489SOL     OW21721   3.045   1.769   1.022  0.1944 -0.2263  0.2127
 5489SOL    HW221722   3.048   1.832   0.950 -1.0928 -1.6470 -1.1665
 5489SOL    HW321723   3.108   1.802   1.086  0.6859  1.5987 -1.1422
 5489SOL    MW421724   3.054   1.781   1.021  0.2846  0.4957  0.1776
 5490SOL     OW21725   4.174   6.127   1.767 -0.3084 -0.1312 -0.1782
 5490SOL    HW221726   4.267   6.108   1.776  0.4562  2.1320 -2.2821
 5490SOL    HW321727   4.158   6.198   1.830 -0.2743  0.3311 -0.6769
 5490SOL    MW421728   4.184   6.134   1.777  0.1582  0.2979 -0.2738
 5491SOL     OW21729   3.265   5.015   6.283  0.1444  0.5763 -0.2916
 5491SOL    HW221730   3.208   4.978   6.350 -0.7963 -0.6313 -1.6842
 5491SOL    HW321731   3.354   4.997   6.314 -0.2657  0.2786  0.7387
 5491SOL    MW421732   3.269   5.008   6.296  0.0015  0.0505  0.1176
 5492SOL     OW21733   1.847   2.408   1.595 -0.3251 -0.0683  0.4380
 5492SOL    HW221734   1.851   2.503   1.601  0.7204 -0.0095 -0.6948
 5492SOL    HW321735   1.853   2.377   1.685 -4.3282  0.9644  1.2671
 5492SOL    MW421736   1.848   2.416   1.608 -0.1987 -0.3403 -1.1645
 5493SOL     OW21737   2.608   5.933   2.815 -0.4085  0.2489 -0.7121
 5493SOL    HW221738   2.562   6.011   2.785  0.5788  0.9810 -0.3740
 5493SOL    HW321739   2.540   5.866   2.822 -0.8194  0.1221 -4.1484
 5493SOL    MW421740   2.593   5.934   2.812  0.0660 -0.7109  0.1438
 5494SOL     OW21741   3.889   6.250   1.412  0.0590  0.6306 -0.1876
 5494SOL    HW221742   3.811   6.213   1.370 -0.0327  0.5223  0.0778
 5494SOL    HW321743   3.870   6.343   1.420 -1.8958  0.0689  3.7564
 5494SOL    MW421744   3.876   6.258   1.407  0.2557  0.2149 -0.3107
 5495SOL     OW21745   3.883   3.002   2.825 -0.3649 -0.1499 -0.1007
 5495SOL    HW221746   3.824   3.018   2.899  1.1882  0.0593  1.1512
 5495SOL    HW321747   3.914   3.089   2.800  0.1856 -0.3280 -0.0610
 5495SOL    MW421748   3.879   3.015   2.832  0.4155 -0.0711  0.0195
 5496SOL     OW21749   6.208   1.018   1.579  0.5686 -0.1422  0.3610
 5496SOL    HW221750   6.201   0.963   1.657 -1.1500  1.0300  1.1119
 5496SOL    HW321751   6.137   1.081   1.588  0.0536 -0.1910 -2.3607
 5496SOL    MW421752   6.197   1.019   1.590  0.3991  0.6271 -0.0483
 5497SOL     OW21753   2.918   4.649   4.655 -0.3113 -0.0132 -0.1829
 5497SOL    HW221754   2.825   4.625   4.662 -0.9600  2.1650 -0.6072
 5497SOL    HW321755   2.961   4.568   4.629 -2.3565 -0.6762 -1.8106
 5497SOL    MW421756   2.911   4.635   4.652 -0.0719  0.0710 -0.4927
 5498SOL     OW21757   4.238   0.682   0.542 -0.2800 -0.0202  0.2671
 5498SOL    HW221758   4.238   0.596   0.585  0.6770 -0.1234  0.0647
 5498SOL    HW321759   4.152   0.687   0.500 -0.6452 -0.5482  0.9346
 5498SOL    MW421760   4.226   0.671   0.542  0.1194  0.1431  0.2449
 5499SOL     OW21761   3.594   6.355   4.141 -0.2579  0.4421  0.0658
 5499SOL    HW221762   3.520   6.313   4.185  0.8093 -1.6630 -0.0506
 5499SOL    HW321763   3.556   6.393   4.061 -0.9782 -2.0832 -0.8715
 5499SOL    MW421764   3.579   6.355   4.136  0.3982  0.5371 -0.1356
 5500SOL     OW21765   5.795   6.413   1.459  0.1046 -0.2791 -0.4178
 5500SOL    HW221766   5.851   6.488   1.476 -1.8283  0.8461  1.5096
 5500SOL    HW321767   5.855   6.339   1.454  2.1685  1.4088 -3.3065
 5500SOL    MW421768   5.810   6.413   1.461  0.2273 -0.1550  0.3645
 5501SOL     OW21769   5.788   5.857   2.103 -0.3452 -0.3701 -0.2504
 5501SOL    HW221770   5.882   5.853   2.086 -0.2781  0.6425 -0.1624
 5501SOL    HW321771   5.781   5.838   2.197 -0.1693  0.1834 -0.1228
 5501SOL    MW421772   5.800   5.854   2.114 -0.1004 -0.0770 -0.0719
 5502SOL     OW21773   3.397   4.086   1.854  0.2531  0.3186 -0.0273
 5502SOL    HW221774   3.429   4.004   1.816  0.5961 -0.5200  1.9595
 5502SOL    HW321775   3.324   4.060   1.909  0.5318  1.3021  0.8427
 5502SOL    MW421776   3.392   4.072   1.856 -0.2092  0.4271 -0.2828
 5503SOL     OW21777   2.905   5.501   2.025 -0.1921  0.1358  0.1413
 5503SOL    HW221778   2.972   5.434   2.016 -0.3834 -0.0810  0.3055
 5503SOL    HW321779   2.860   5.501   1.941  0.4186  0.7258 -0.1918
 5503SOL    MW421780   2.908   5.492   2.013 -0.6869 -0.1721 -0.3293
 5504SOL     OW21781   4.012   1.220   0.695  0.8789  0.0628  0.1528
 5504SOL    HW221782   3.980   1.131   0.711  0.2745  0.4132  1.0297
 5504SOL    HW321783   4.068   1.239   0.770 -0.3925  1.0304  0.9120
 5504SOL    MW421784   4.015   1.211   0.707 -0.1601 -0.0196 -0.5093
 5505SOL     OW21785   2.401   3.087   4.271  0.0011  0.2573  0.2536
 5505SOL    HW221786   2.422   3.088   4.177  1.9596 -0.4302  0.6526
 5505SOL    HW321787   2.311   3.054   4.274 -0.3137  0.8398 -1.4030
 5505SOL    MW421788   2.392   3.083   4.259  0.1913 -0.0400  0.0568
 5506SOL     OW21789   5.450   1.663   2.047 -0.5785 -0.1816  0.2601
 5506SOL    HW221790   5.376   1.715   2.016 -0.2139 -0.3651 -0.9979
 5506SOL    HW321791   5.526   1.721   2.035 -0.3412 -0.5182  0.1232
 5506SOL    MW421792   5.450   1.678   2.041 -0.0290  0.6058 -0.3894
 5507SOL     OW21793   5.668   5.848   5.332  0.3075  0.0041  0.1648
 5507SOL    HW221794   5.626   5.771   5.295 -0.8407  1.0196 -0.6855
 5507SOL    HW321795   5.719   5.814   5.406 -0.3569 -1.5281 -0.0562
 5507SOL    MW421796   5.669   5.833   5.337  0.7076 -1.0646 -0.5031
 5508SOL     OW21797   1.518   3.530   0.585 -0.1007 -0.5255 -0.0008
 5508SOL    HW221798   1.517   3.621   0.556 -1.5292 -0.0666  1.3288
 5508SOL    HW321799   1.438   3.492   0.548  0.4235 -1.2151 -0.4497
 5508SOL    MW421800   1.507   3.537   0.576  0.2549 -0.5361 -0.1665
 5509SOL     OW21801   5.271   6.105   5.924  0.0847 -0.2262  0.0893
 5509SOL    HW221802   5.303   6.143   5.842  0.2764 -0.8948 -0.1537
 5509SOL    HW321803   5.176   6.113   5.919  0.1533  1.5766  0.7174
 5509SOL    MW421804   5.263   6.111   5.913 -0.3763 -0.1062 -0.5788
 5510SOL     OW21805   5.580   5.930   4.091  0.1923  0.0294  0.7539
 5510SOL    HW221806   5.550   5.888   4.172 -0.0624 -0.6833  0.2903
 5510SOL    HW321807   5.675   5.938   4.103  0.0837  0.4790  1.3738
 5510SOL    MW421808   5.589   5.926   4.103 -0.0741 -0.0414  0.2498
 5511SOL     OW21809   6.108   4.260   5.090 -0.0886  0.5045 -0.0974
 5511SOL    HW221810   6.201   4.248   5.111  0.0764  0.0914 -1.0084
 5511SOL    HW321811   6.064   4.189   5.138  0.3309 -0.7130 -1.4435
 5511SOL    MW421812   6.114   4.249   5.099  0.2621 -1.0527  0.0595
 5512SOL     OW21813   1.174   5.788   2.775  0.5562  0.9863  0.4795
 5512SOL    HW221814   1.113   5.717   2.796  0.9437  0.4475 -0.1812
 5512SOL    HW321815   1.130   5.837   2.705  1.7373 -0.6218 -1.4688
 5512SOL    MW421816   1.160   5.785   2.768  0.6732 -0.7018  0.3860
 5513SOL     OW21817   0.361   1.249   6.336 -0.1775  0.0070  0.4949
 5513SOL    HW221818   0.441   1.280   6.295 -0.8300 -0.1934 -0.9937
 5513SOL    HW321819   0.347   1.308   6.410  1.2287  0.1542  0.6679
 5513SOL    MW421820   0.369   1.261   6.340  0.0391  0.4035  0.0076
 5514SOL     OW21821   3.361   2.128   0.432 -0.0627  0.3000 -0.2936
 5514SOL    HW221822   3.268   2.148   0.437 -0.4856 -1.7295  1.5113
 5514SOL    HW321823   3.366   2.033   0.446  2.1911  0.1108 -1.8110
 5514SOL    MW421824   3.349   2.118   0.434  0.4509  0.2703  0.6036
 5515SOL     OW21825   0.751   3.790   3.446 -0.0873 -0.0758 -0.2571
 5515SOL    HW221826   0.707   3.719   3.401 -0.2020  0.4730 -1.0259
 5515SOL    HW321827   0.703   3.800   3.528  1.1373 -2.1886  0.8019
 5515SOL    MW421828   0.739   3.782   3.451 -0.3338  0.2130 -0.4443
 5516SOL     OW21829   1.354   5.103   2.772 -0.2243  0.4003 -0.4945
 5516SOL    HW221830   1.377   5.011   2.785 -0.3375  0.3555 -0.6148
 5516SOL    HW321831   1.258   5.104   2.767 -0.1932  0.4518 -1.0881
 5516SOL    MW421832   1.344   5.091   2.773  0.3118  0.3124 -0.3131
 5517SOL     OW21833   3.261   3.450   0.740 -0.4286 -0.4781  0.1715
 5517SOL    HW221834   3.250   3.401   0.659 -0.4843  1.4676 -1.0658
 5517SOL    HW321835   3.174   3.451   0.779 -0.1917 -2.2943  0.8315
 5517SOL    MW421836   3.248   3.444   0.734 -0.4001  0.1480  0.1847
 5518SOL     OW21837   0.175   2.460   6.436  0.1972 -0.1198  0.5017
 5518SOL    HW221838   0.141   2.408   6.509  1.1935  0.1624  1.1856
 5518SOL    HW321839   0.097   2.482   6.385 -0.6260  0.2376  1.8438
 5518SOL    MW421840   0.160   2.456   6.439  0.3503  0.0011 -0.0239
 5519SOL     OW21841   0.265   3.120   5.865  0.1463  0.3649  0.3259
 5519SOL    HW221842   0.273   3.207   5.904  0.6284  0.6651 -0.4046
 5519SOL    HW321843   0.355   3.089   5.858 -0.0845 -0.5665  1.3790
 5519SOL    MW421844   0.278   3.127   5.869  0.2287  0.3134 -0.0046
 5520SOL     OW21845   0.884   0.570   5.942 -0.0788 -0.0293  0.0897
 5520SOL    HW221846   0.801   0.565   5.988  0.6554 -1.2661  1.3563
 5520SOL    HW321847   0.865   0.539   5.853 -1.3044  1.4494 -0.2104
 5520SOL    MW421848   0.871   0.566   5.936  0.6480  0.7139 -0.5980
 5521SOL     OW21849   5.005   1.714   2.387  0.5396  0.1529  0.1804
 5521SOL    HW221850   5.006   1.652   2.314 -0.3340 -1.0288  1.1207
 5521SOL    HW321851   5.038   1.664   2.461  0.9556  1.1828  0.7101
 5521SOL    MW421852   5.009   1.699   2.387  0.0597 -0.7827  0.3638
 5522SOL     OW21853   0.357   0.648   3.606 -0.6374  0.4218  0.1523
 5522SOL    HW221854   0.349   0.553   3.592  2.2362  0.2758 -1.0696
 5522SOL    HW321855   0.302   0.686   3.537 -0.6428 -0.3460 -0.2846
 5522SOL    MW421856   0.348   0.640   3.595  0.3810 -0.8285 -0.7657
 5523SOL     OW21857   3.105   5.127   4.745  0.0303  0.6372 -0.4316
 5523SOL    HW221858   3.016   5.117   4.710 -0.5425 -0.0907  1.1324
 5523SOL    HW321859   3.105   5.214   4.784  0.0393  0.6882 -0.5456
 5523SOL    MW421860   3.093   5.137   4.745 -0.4520 -0.6918  0.0459
 5524SOL     OW21861   0.654   5.873   0.050 -0.0920 -0.1482 -0.3558
 5524SOL    HW221862   0.559   5.884   0.051 -0.0900 -0.1387 -0.2787
 5524SOL    HW321863   0.688   5.962   0.039 -0.0328  0.1434  1.7789
 5524SOL    MW421864   0.646   5.886   0.049  0.9224 -0.4225  0.6107
 5525SOL     OW21865   2.317   3.464   3.544 -0.0168  0.2098  0.9206
 5525SOL    HW221866   2.344   3.460   3.636 -1.2983 -0.6304  1.2894
 5525SOL    HW321867   2.230   3.503   3.547 -0.4748 -0.7194  0.1731
 5525SOL    MW421868   2.310   3.468   3.557 -0.9460  0.6620 -0.2976
 5526SOL     OW21869   3.368   5.672   5.003  0.4049  0.2154 -0.1663
 5526SOL    HW221870   3.296   5.734   5.013 -0.6820 -0.6705 -2.0874
 5526SOL    HW321871   3.339   5.593   5.048  0.9450  0.4195  0.5605
 5526SOL    MW421872   3.355   5.670   5.010  0.5582 -0.3105 -0.0856
 5527SOL     OW21873   5.131   0.418   2.333  0.4080  0.3039 -0.2289
 5527SOL    HW221874   5.163   0.333   2.363 -0.8981  0.0578  0.5196
 5527SOL    HW321875   5.051   0.433   2.383  0.3181  1.7288 -0.7490
 5527SOL    MW421876   5.125   0.409   2.344 -0.3975  0.5579 -0.1976
 5528SOL     OW21877   4.983   2.023   1.661 -0.7316  0.1729  0.4090
 5528SOL    HW221878   4.922   2.008   1.589  0.1158 -1.2642 -0.0686
 5528SOL    HW321879   4.967   2.113   1.688 -1.8525  0.3846 -0.8346
 5528SOL    MW421880   4.973   2.033   1.655 -0.1691  0.5774 -0.0003
 5529SOL     OW21881   3.927   0.932   5.066  0.1223  0.7845  0.0564
 5529SOL    HW221882   3.993   0.863   5.065 -0.8206 -0.2045 -2.4918
 5529SOL    HW321883   3.972   1.010   5.035  0.7595  0.9046  1.2224
 5529SOL    MW421884   3.942   0.933   5.062  0.3363  0.4863  0.1374
 5530SOL     OW21885   0.484   4.762   1.215  0.7141  0.4225  0.6537
 5530SOL    HW221886   0.545   4.712   1.269  0.0466 -0.7174  0.4033
 5530SOL    HW321887   0.500   4.853   1.237  3.3383  0.2535 -0.3047
 5530SOL    MW421888   0.494   4.767   1.225 -0.0855  0.3582  0.3654
 5531SOL     OW21889   5.866   2.744   1.834 -0.2159 -0.4270  0.3368
 5531SOL    HW221890   5.934   2.743   1.766 -0.6682 -0.3915 -0.1287
 5531SOL    HW321891   5.909   2.782   1.911  0.5076 -1.1082  0.2886
 5531SOL    MW421892   5.881   2.749   1.835 -0.1780  0.4002  0.4186
 5532SOL     OW21893   0.018   6.366   2.264 -0.0261 -0.4372 -0.5267
 5532SOL    HW221894  -0.003   6.343   2.174 -0.5116 -0.9622 -0.2923
 5532SOL    HW321895  -0.061   6.341   2.313  1.2724 -2.8737  0.4711
 5532SOL    MW421896   0.005   6.360   2.259 -0.0006  0.8893 -0.2121
 5533SOL     OW21897   0.958   1.715   0.710 -0.5945  0.2833  0.2008
 5533SOL    HW221898   0.892   1.712   0.780 -0.1800  0.2525  0.5963
 5533SOL    HW321899   0.986   1.807   0.708  2.7400 -0.4102  3.2880
 5533SOL    MW421900   0.953   1.727   0.719 -0.0603  0.2472  0.2081
 5534SOL     OW21901   4.290   0.241   2.956  0.3535 -0.1187 -0.1321
 5534SOL    HW221902   4.327   0.294   3.028 -0.8238 -0.1774  0.5341
 5534SOL    HW321903   4.196   0.253   2.963  0.0427 -2.1779 -0.0432
 5534SOL    MW421904   4.283   0.249   2.967 -0.0474 -0.0012  0.3422
 5535SOL     OW21905   5.227   5.525   2.244 -0.0980 -0.5267 -0.5256
 5535SOL    HW221906   5.178   5.579   2.182  0.6143 -0.5762 -1.1351
 5535SOL    HW321907   5.276   5.464   2.190  1.5810  0.3014 -0.0007
 5535SOL    MW421908   5.227   5.524   2.229  0.7021 -0.5668 -0.0184
 5536SOL     OW21909   4.436   4.292   3.005 -0.4164  0.0453  0.0624
 5536SOL    HW221910   4.502   4.299   2.935 -0.3963  0.2936  0.1026
 5536SOL    HW321911   4.462   4.216   3.056  1.1875  1.4445  1.4590
 5536SOL    MW421912   4.448   4.283   3.002 -0.3494  0.0918 -0.0052
 5537SOL     OW21913   5.492   5.537   3.487 -0.0475 -0.2639 -0.4323
 5537SOL    HW221914   5.581   5.570   3.493  0.0849 -0.7362  0.2910
 5537SOL    HW321915   5.478   5.489   3.569 -0.9326 -0.2682 -0.5715
 5537SOL    MW421916   5.502   5.535   3.499 -0.2714  0.7385 -0.4629
 5538SOL     OW21917   6.181   0.717   5.611 -0.8592 -0.1508 -0.6670
 5538SOL    HW221918   6.245   0.731   5.541 -0.2117 -0.2597 -0.1062
 5538SOL    HW321919   6.131   0.641   5.582 -2.2658  1.2798 -2.1921
 5538SOL    MW421920   6.183   0.708   5.598  0.4850 -0.8461 -0.3196
 5539SOL     OW21921   0.396   5.225   4.166  0.2967  0.2180  0.0539
 5539SOL    HW221922   0.431   5.300   4.215 -1.5409  1.8907 -1.0542
 5539SOL    HW321923   0.331   5.263   4.107  0.8676 -2.0060 -2.1427
 5539SOL    MW421924   0.392   5.240   4.165 -0.0108 -0.0609  0.0865
 5540SOL     OW21925   0.762   3.604   0.546  0.1351  0.1791  0.7915
 5540SOL    HW221926   0.810   3.522   0.555 -1.0460 -0.4598  1.6717
 5540SOL    HW321927   0.782   3.653   0.625 -0.0613  0.2409  0.8044
 5540SOL    MW421928   0.771   3.600   0.557  0.5085 -0.9995  0.1157
 5541SOL     OW21929   4.702   1.542   5.745 -0.2779 -0.1836 -0.5313
 5541SOL    HW221930   4.778   1.559   5.801 -0.5448  0.8095 -0.4447
 5541SOL    HW321931   4.739   1.526   5.658  0.0786 -0.6804 -0.2940
 5541SOL    MW421932   4.717   1.542   5.741 -0.2521  0.5776 -0.4685
 5542SOL     OW21933   4.141   1.175   6.194  0.0326  0.4198  0.1086
 5542SOL    HW221934   4.061   1.194   6.145 -0.1863 -1.8953 -0.5468
 5542SOL    HW321935   4.112   1.160   6.284 -0.2848 -0.4015 -0.1265
 5542SOL    MW421936   4.127   1.176   6.200 -0.0890  0.4105 -0.8113
 5543SOL     OW21937   0.714   3.677   3.910  0.3816  0.7062 -0.1469
 5543SOL    HW221938   0.687   3.727   3.833 -2.5412  0.7295  0.7347
 5543SOL    HW321939   0.748   3.743   3.971  0.9144  0.9484 -0.6994
 5543SOL    MW421940   0.715   3.692   3.908 -0.4945  0.1523 -0.3847
 5544SOL     OW21941   2.653   2.689   4.810 -0.0278 -0.1179 -0.3360
 5544SOL    HW221942   2.631   2.599   4.833  1.0815 -0.2790  0.1599
 5544SOL    HW321943   2.575   2.739   4.833  0.7991 -0.2921  3.7185
 5544SOL    MW421944   2.640   2.684   4.816 -0.0766 -0.2758 -0.6811
 5545SOL     OW21945   4.503   0.207   2.260  0.2143  0.0103 -1.0062
 5545SOL    HW221946   4.521   0.128   2.311  0.6214  0.6739 -0.1029
 5545SOL    HW321947   4.447   0.177   2.188  0.0328 -1.0206 -0.4493
 5545SOL    MW421948   4.498   0.192   2.257  0.4117 -0.7894  0.3335
 5546SOL     OW21949   3.746   5.724   5.791  0.3289  0.0085 -0.5285
 5546SOL    HW221950   3.827   5.759   5.827  0.9205 -1.8742  0.0833
 5546SOL    HW321951   3.773   5.652   5.735 -0.9219 -1.3220  0.4797
 5546SOL    MW421952   3.760   5.719   5.789 -0.3292  0.2055 -0.5189
 5547SOL     OW21953   3.423   5.735   3.655 -0.1539 -0.3235  0.0527
 5547SOL    HW221954   3.422   5.664   3.590  0.8716 -0.2840 -0.0188
 5547SOL    HW321955   3.497   5.714   3.712 -1.1856 -0.5030  1.3983
 5547SOL    MW421956   3.432   5.723   3.654 -0.2126  0.0584 -0.4113
 5548SOL     OW21957   1.333   3.301   5.440 -0.3610 -0.2369 -0.2937
 5548SOL    HW221958   1.317   3.228   5.379 -1.3722 -0.8932  0.7085
 5548SOL    HW321959   1.259   3.359   5.428  1.1688  1.4778 -2.1648
 5548SOL    MW421960   1.321   3.299   5.431  0.1514 -0.2076  0.1131
 5549SOL     OW21961   0.934   3.366   3.115 -0.3113 -0.0438 -0.1494
 5549SOL    HW221962   0.883   3.292   3.149 -1.2683  1.0331  0.8923
 5549SOL    HW321963   0.941   3.426   3.190 -0.1785  1.2398 -1.1514
 5549SOL    MW421964   0.928   3.364   3.130  0.1203 -0.2807 -0.0770
 5550SOL     OW21965   5.841   0.100   5.957 -0.7479 -0.0744  0.3039
 5550SOL    HW221966   5.927   0.078   5.921 -0.6598  1.4065 -0.4841
 5550SOL    HW321967   5.845   0.073   6.048 -0.0273 -1.5159 -0.1370
 5550SOL    MW421968   5.853   0.094   5.964 -0.6031 -0.0649  0.0839
 5551SOL     OW21969   5.826   3.735   1.909  0.2883  0.2313 -0.0288
 5551SOL    HW221970   5.876   3.664   1.869 -1.2121  0.2746 -2.1288
 5551SOL    HW321971   5.867   3.748   1.995  1.0998 -2.6019  0.0921
 5551SOL    MW421972   5.838   3.728   1.915  0.2719  0.6643  0.2960
 5552SOL     OW21973   4.817   0.572   3.298 -0.1591  0.2087 -0.1597
 5552SOL    HW221974   4.897   0.580   3.245  0.6606  0.8585  1.1418
 5552SOL    HW321975   4.826   0.487   3.342 -0.6107 -0.1074 -0.6544
 5552SOL    MW421976   4.829   0.562   3.296  0.3638 -0.1383 -0.3135
 5553SOL     OW21977   1.290   0.182   2.643 -0.3472 -0.3488  0.1752
 5553SOL    HW221978   1.197   0.167   2.630 -0.6898 -0.9193  2.8111
 5553SOL    HW321979   1.332   0.099   2.620 -0.8209 -1.0350  1.6902
 5553SOL    MW421980   1.283   0.169   2.638  0.0075 -0.2110  0.1078
 5554SOL     OW21981   5.363   3.572   0.304  0.1652  0.2836 -0.1428
 5554SOL    HW221982   5.336   3.584   0.395  0.8616 -0.4250  0.1734
 5554SOL    HW321983   5.386   3.479   0.298  2.7638  0.8721 -0.3012
 5554SOL    MW421984   5.362   3.561   0.315 -0.1833  0.5837  0.0377
 5555SOL     OW21985   0.923   2.556   2.580  0.9344 -0.4156 -0.8819
 5555SOL    HW221986   0.932   2.627   2.516 -0.5185 -1.5135 -2.3967
 5555SOL    HW321987   0.994   2.495   2.559  1.2357 -0.1612 -0.6035
 5555SOL    MW421988   0.933   2.557   2.569  0.3225  0.6463  0.8421
 5556SOL     OW21989   3.789   1.083   0.009 -0.0186 -0.5398  0.2452
 5556SOL    HW221990   3.741   1.115   0.086  0.5623  1.6844 -0.2503
 5556SOL    HW321991   3.822   1.163  -0.033  0.5030 -1.7665 -1.7765
 5556SOL    MW421992   3.787   1.098   0.014 -0.2876 -0.0272 -0.4774
 5557SOL     OW21993   5.205   4.657   0.391 -0.6926  0.1691 -0.4417
 5557SOL    HW221994   5.291   4.691   0.366 -0.5961 -0.3269 -0.8034
 5557SOL    HW321995   5.213   4.562   0.380 -0.4788 -0.1582  1.9597
 5557SOL    MW421996   5.217   4.649   0.387  0.2683  0.5789  0.5299
 5558SOL     OW21997   0.251   2.804   2.639  0.1333 -0.5784 -0.8520
 5558SOL    HW221998   0.192   2.824   2.711  1.6469  1.0126  0.0531
 5558SOL    HW321999   0.241   2.710   2.624 -0.7990 -0.8044  0.9087
 5558SOL    MW422000   0.242   2.794   2.646 -0.8932  0.0769  0.1652
 5559SOL     OW22001   0.235   3.127   0.961 -0.6416  0.5714  0.1040
 5559SOL    HW222002   0.292   3.052   0.941 -0.5553  0.9835 -1.3006
 5559SOL    HW322003   0.180   3.097   1.032 -1.9320 -1.5347 -1.6634
 5559SOL    MW422004   0.235   3.113   0.967  0.1571  0.1401 -0.1924
 5560SOL     OW22005   3.358   3.734   2.388  0.0776  0.1535  0.1129
 5560SOL    HW222006   3.386   3.798   2.322  0.3513 -1.5524 -1.5216
 5560SOL    HW322007   3.436   3.718   2.441  0.2683  0.4529 -0.0773
 5560SOL    MW422008   3.372   3.741   2.386 -0.2164  0.1460  0.1466
 5561SOL     OW22009   4.564   4.588   5.989  0.1997 -1.0682  0.4933
 5561SOL    HW222010   4.545   4.594   5.895 -0.6509 -3.0334  0.4864
 5561SOL    HW322011   4.599   4.674   6.012  0.1426 -0.4403 -1.5544
 5561SOL    MW422012   4.566   4.600   5.979  0.3170  0.2398  0.0669
 5562SOL     OW22013   0.385   0.695   2.267  0.6124  0.1816 -0.2598
 5562SOL    HW222014   0.348   0.754   2.201 -0.6599  0.0801  0.3423
 5562SOL    HW322015   0.421   0.753   2.334 -0.8964  0.2974  0.4737
 5562SOL    MW422016   0.385   0.710   2.267  1.0443  0.1507 -0.6323
 5563SOL     OW22017   2.425   6.311   6.064  0.3793 -0.4289  0.3019
 5563SOL    HW222018   2.427   6.407   6.074  0.4671 -0.1009 -2.0786
 5563SOL    HW322019   2.338   6.285   6.096 -0.0866  0.6216 -0.0539
 5563SOL    MW422020   2.413   6.321   6.069 -0.4469 -0.0027 -0.2840
 5564SOL     OW22021   5.367   0.466   3.640  0.1307 -0.0802 -0.1919
 5564SOL    HW222022   5.331   0.380   3.621  1.6984 -0.7098 -0.3974
 5564SOL    HW322023   5.289   0.522   3.651 -0.9150 -0.8953 -2.7052
 5564SOL    MW422024   5.352   0.462   3.639 -0.3150  0.1878  0.1004
 5565SOL     OW22025   5.051   5.195   4.957  0.0745 -0.1062  0.0826
 5565SOL    HW222026   5.074   5.279   4.918  0.4187 -0.9269 -1.5850
 5565SOL    HW322027   5.115   5.134   4.921  0.0642 -1.0288  1.5627
 5565SOL    MW422028   5.063   5.198   4.947  0.2856 -0.3108  0.5476
 5566SOL     OW22029   2.326   0.642   1.810 -0.1070  0.1328 -0.2872
 5566SOL    HW222030   2.233   0.655   1.830 -0.1439 -0.1634 -0.2530
 5566SOL    HW322031   2.372   0.687   1.880 -0.2169  0.7983 -0.6334
 5566SOL    MW422032   2.320   0.650   1.822 -0.2269  0.7357 -0.1758
 5567SOL     OW22033   0.320   1.880   1.204  0.2261  0.3673 -0.1991
 5567SOL    HW222034   0.284   1.811   1.149 -2.1117  1.0412  0.3792
 5567SOL    HW322035   0.313   1.845   1.293  1.0146  0.5346 -0.0649
 5567SOL    MW422036   0.314   1.866   1.209  0.8904 -0.2117 -0.0874
 5568SOL     OW22037   4.916   5.166   2.202 -0.6511 -0.2957 -0.2461
 5568SOL    HW222038   4.975   5.241   2.196  0.7246 -1.1263  1.6292
 5568SOL    HW322039   4.910   5.132   2.113 -0.2848  1.2725 -0.8979
 5568SOL    MW422040   4.923   5.171   2.190  0.2424 -0.6613  0.1841
 5569SOL     OW22041   6.233   4.209   3.176 -0.3600 -0.7181 -0.0632
 5569SOL    HW222042   6.167   4.174   3.115  0.1945 -0.7733 -0.6364
 5569SOL    HW322043   6.308   4.150   3.167 -0.3713 -0.9051  0.8984
 5569SOL    MW422044   6.234   4.197   3.167  0.0883  0.3640  0.0969
 5570SOL     OW22045   1.650   4.759   3.634 -0.8006  0.1785  0.6947
 5570SOL    HW222046   1.558   4.742   3.653 -0.8935 -0.5071 -0.3115
 5570SOL    HW322047   1.654   4.854   3.619 -1.4206  0.1493  0.3150
 5570SOL    MW422048   1.638   4.769   3.635  0.1162  0.3585 -0.3838
 5571SOL     OW22049   2.219   3.620   5.658 -0.1562  0.2865  0.3984
 5571SOL    HW222050   2.151   3.554   5.670 -1.5751  1.4220 -1.0404
 5571SOL    HW322051   2.260   3.598   5.575  0.5603  0.2171  0.7602
 5571SOL    MW422052   2.215   3.608   5.649 -0.0674 -0.1666  0.3586
 5572SOL     OW22053   5.142   0.540   4.613 -0.3287  0.3284 -0.1189
 5572SOL    HW222054   5.155   0.458   4.660  0.6880 -1.1460 -2.7498
 5572SOL    HW322055   5.085   0.517   4.540  0.0875  1.9548 -1.0038
 5572SOL    MW422056   5.136   0.526   4.610 -0.3285  0.4511 -0.4704
 5573SOL     OW22057   1.149   2.462   2.421  0.0480  0.3727 -0.5530
 5573SOL    HW222058   1.219   2.513   2.381 -0.0991  0.6400 -0.4651
 5573SOL    HW322059   1.085   2.451   2.351  0.2018  0.0796 -0.6503
 5573SOL    MW422060   1.150   2.467   2.406  0.5151 -0.0761 -0.1864
 5574SOL     OW22061   6.316   0.942   6.306  0.0548  0.8415  0.0686
 5574SOL    HW222062   6.359   1.021   6.339  1.7054  1.1682 -2.5612
 5574SOL    HW322063   6.355   0.927   6.220 -1.1276 -2.1496 -0.0857
 5574SOL    MW422064   6.327   0.950   6.299 -0.9937 -0.2407  0.1059
 5575SOL     OW22065   5.653   5.384   2.575 -0.1191  0.0178  0.0762
 5575SOL    HW222066   5.585   5.409   2.512  1.3188 -0.0736 -1.5820
 5575SOL    HW322067   5.661   5.289   2.564  0.4818  0.0728  0.0354
 5575SOL    MW422068   5.645   5.375   2.565  0.2192  0.0795 -0.5171
 5576SOL     OW22069   2.059   1.705   5.422  0.1566 -0.2794 -0.0088
 5576SOL    HW222070   2.130   1.769   5.419 -0.9406  0.9437 -1.2214
 5576SOL    HW322071   2.046   1.679   5.331 -0.9207 -0.4979  0.1889
 5576SOL    MW422072   2.066   1.710   5.409 -0.5118 -0.1756 -0.9224
 5577SOL     OW22073   5.904   3.926   3.238  0.1676  0.0766  0.5056
 5577SOL    HW222074   5.851   3.994   3.281 -0.7973 -0.4184  0.1251
 5577SOL    HW322075   5.943   3.971   3.163  2.5938  1.1929  2.3072
 5577SOL    MW422076   5.902   3.941   3.234  0.3984  0.4259 -0.4342
 5578SOL     OW22077   2.050   1.146   4.034  0.2872  0.5102 -0.3119
 5578SOL    HW222078   2.060   1.117   4.124  0.8510  0.5817 -0.3495
 5578SOL    HW322079   2.078   1.071   3.981  0.9772  0.8319 -0.4155
 5578SOL    MW422080   2.055   1.132   4.039 -0.4470 -0.0314  0.4401
 5579SOL     OW22081   6.329   5.529   0.454  0.2066 -0.9119 -0.0960
 5579SOL    HW222082   6.266   5.465   0.420 -1.8028  0.5915  0.5252
 5579SOL    HW322083   6.399   5.532   0.389 -0.4901 -2.4721 -0.9721
 5579SOL    MW422084   6.330   5.521   0.441 -0.2435  0.4954  0.0551
 5580SOL     OW22085   4.344   3.656   4.735 -0.1452  0.7510  0.4509
 5580SOL    HW222086   4.309   3.729   4.683  0.5172  0.4413 -0.4744
 5580SOL    HW322087   4.365   3.695   4.820 -1.1264  1.3064  0.4530
 5580SOL    MW422088   4.342   3.671   4.739  0.1646 -0.3369 -0.6617
 5581SOL     OW22089   4.025   2.852   2.477 -0.8009 -0.4360  0.3879
 5581SOL    HW222090   4.033   2.946   2.456  0.2772 -0.8048 -1.0492
 5581SOL    HW322091   3.970   2.817   2.406  1.2525 -1.3756 -0.8279
 5581SOL    MW422092   4.019   2.860   2.465 -0.5549  0.1734  0.3463
 5582SOL     OW22093   4.344   2.839   3.157 -0.3460 -0.1203  0.0023
 5582SOL    HW222094   4.314   2.796   3.237 -1.1970  0.6474  0.1105
 5582SOL    HW322095   4.266   2.846   3.103  0.1386 -0.2639 -0.7328
 5582SOL    MW422096   4.330   2.834   3.160 -0.3965  0.0698 -0.4317
 5583SOL     OW22097   5.953   1.261   4.199 -0.3399 -0.5767  0.2205
 5583SOL    HW222098   6.006   1.334   4.229  0.6143 -1.2233  0.1561
 5583SOL    HW322099   5.907   1.232   4.278 -0.3829 -0.1863  0.3418
 5583SOL    MW422100   5.954   1.267   4.214 -0.7980 -0.6042 -0.3228
 5584SOL     OW22101   4.101   5.042   4.583  0.5399 -0.7401  0.0773
 5584SOL    HW222102   4.174   5.080   4.631 -0.3709  0.4672  0.5551
 5584SOL    HW322103   4.041   5.115   4.567 -0.3685 -1.6110 -0.6815
 5584SOL    MW422104   4.103   5.057   4.587 -0.4041  0.4078 -0.2156
 5585SOL     OW22105   5.930   1.473   6.227  0.5141  0.0268  0.2324
 5585SOL    HW222106   5.961   1.384   6.211  0.0894 -0.3708  1.4669
 5585SOL    HW322107   5.850   1.481   6.175  1.1988  0.1184 -0.8274
 5585SOL    MW422108   5.923   1.462   6.218 -0.1660  0.7170 -0.1613
 5586SOL     OW22109   5.824   1.757   5.671 -0.4176  0.0246 -0.5931
 5586SOL    HW222110   5.792   1.845   5.650  1.6899  0.8247 -0.7471
 5586SOL    HW322111   5.909   1.772   5.712 -0.3098 -1.9381  0.0206
 5586SOL    MW422112   5.831   1.771   5.674 -0.0730 -0.3965 -0.0723
 5587SOL     OW22113   2.431   0.546   3.214 -0.0322  0.1852 -0.7688
 5587SOL    HW222114   2.350   0.500   3.238 -0.6616  2.0420  0.8947
 5587SOL    HW322115   2.401   0.622   3.165  0.7973  0.3235 -1.0721
 5587SOL    MW422116   2.416   0.550   3.211 -0.3026  0.4283  0.4173
 5588SOL     OW22117   5.243   0.383   3.194 -0.4206 -0.6449  0.4663
 5588SOL    HW222118   5.309   0.361   3.128 -1.0165 -0.3537 -0.2392
 5588SOL    HW322119   5.292   0.425   3.264  0.4274 -2.1519  0.8284
 5588SOL    MW422120   5.258   0.385   3.195  0.8112 -0.0589 -0.3885
 5589SOL     OW22121   4.704   1.568   6.247  0.7782 -0.0090  0.3807
 5589SOL    HW222122   4.626   1.589   6.196  0.0240  0.3035  1.6268
 5589SOL    HW322123   4.687   1.481   6.282  1.3991 -0.3242 -0.0828
 5589SOL    MW422124   4.692   1.560   6.245 -0.4762 -0.0084  0.6492
 5590SOL     OW22125   4.949   3.553   2.352 -0.4490 -0.3713 -0.2874
 5590SOL    HW222126   5.031   3.574   2.398 -0.1733 -0.7810 -0.5859
 5590SOL    HW322127   4.956   3.459   2.332 -0.5945 -0.2163 -1.0979
 5590SOL    MW422128   4.961   3.543   2.356  0.0787 -0.3783 -0.1506
 5591SOL     OW22129   3.837   1.556   2.700 -0.5611  0.2862  0.6382
 5591SOL    HW222130   3.852   1.498   2.775 -1.3800 -1.8594 -0.7717
 5591SOL    HW322131   3.899   1.525   2.633 -0.4468  1.5894  0.1106
 5591SOL    MW422132   3.848   1.544   2.701 -0.0549 -0.6945  0.0284
 5592SOL     OW22133   2.930   3.039   1.977 -0.3649  0.2602 -0.5689
 5592SOL    HW222134   2.948   3.033   1.883  0.6194  1.3953 -0.4733
 5592SOL    HW322135   3.014   3.063   2.016 -0.4678 -1.4102  0.7661
 5592SOL    MW422136   2.943   3.041   1.969  0.0155  0.2713  0.2516
 5593SOL     OW22137   1.146   3.453   2.935 -0.8882 -0.4093  0.1522
 5593SOL    HW222138   1.109   3.486   2.853 -0.6029 -1.1130 -0.2687
 5593SOL    HW322139   1.075   3.403   2.975 -0.4965 -1.5670 -0.5444
 5593SOL    MW422140   1.132   3.451   2.929  0.8323  0.2256  0.3751
 5594SOL     OW22141   4.779   0.400   0.768  0.1825  0.2176 -0.2570
 5594SOL    HW222142   4.758   0.366   0.855  1.1260  0.3484  0.0388
 5594SOL    HW322143   4.860   0.450   0.781 -0.1526  0.9894 -1.0473
 5594SOL    MW422144   4.787   0.402   0.781 -0.1342  0.1034 -0.5393
 5595SOL     OW22145   0.231   1.058   5.632  0.0160  0.4615 -0.2858
 5595SOL    HW222146   0.290   1.107   5.690  0.7523 -2.8071  1.9671
 5595SOL    HW322147   0.148   1.054   5.680 -0.1456 -0.1521 -0.6054
 5595SOL    MW422148   0.227   1.064   5.646  0.4100  0.5171 -0.6509
 5596SOL     OW22149   4.799   1.051   3.722  0.3653  0.3012 -0.6384
 5596SOL    HW222150   4.750   0.976   3.687 -0.2187  0.5145 -0.3077
 5596SOL    HW322151   4.731   1.109   3.757  0.9467 -0.5355  2.1385
 5596SOL    MW422152   4.783   1.049   3.722  0.1791 -0.0528  0.1976
 5597SOL     OW22153   3.609   6.018   4.850 -0.4613  0.4428 -1.0023
 5597SOL    HW222154   3.646   6.004   4.938  1.0439 -0.2874 -1.7220
 5597SOL    HW322155   3.525   6.061   4.867 -0.0403  0.6684  0.7815
 5597SOL    MW422156   3.603   6.022   4.864  0.2845  0.0671  0.2609
 5598SOL     OW22157   0.468   2.201   6.315  0.2317  0.2548 -0.4144
 5598SOL    HW222158   0.433   2.212   6.403  0.7124  1.3687 -0.3517
 5598SOL    HW322159   0.397   2.227   6.257 -1.0387 -2.8991 -0.5106
 5598SOL    MW422160   0.454   2.206   6.319  1.3088  0.0018  0.2052
 5599SOL     OW22161   0.493   2.930   2.650  0.4525 -0.3343 -0.1552
 5599SOL    HW222162   0.480   3.022   2.670  0.2739 -0.2313 -0.7250
 5599SOL    HW322163   0.405   2.895   2.636  0.5244 -0.5718 -0.0192
 5599SOL    MW422164   0.480   2.937   2.651  0.2045  0.3394 -0.1257
 5600SOL     OW22165   6.047   4.287   0.291 -0.1678  0.1281  0.2235
 5600SOL    HW222166   6.018   4.321   0.207 -0.8863 -0.2346  0.3110
 5600SOL    HW322167   5.967   4.280   0.343  0.3210  0.7746  1.0998
 5600SOL    MW422168   6.033   4.290   0.287 -0.4090 -0.4355  0.5538
 5601SOL     OW22169   1.523   0.352   4.620 -0.1064 -0.1461 -0.2814
 5601SOL    HW222170   1.445   0.349   4.674 -0.2742 -2.3215 -0.5785
 5601SOL    HW322171   1.596   0.357   4.682 -0.3872 -0.2915  0.0586
 5601SOL    MW422172   1.523   0.353   4.635 -0.7377  0.0484 -0.3471
 5602SOL     OW22173   3.883   2.070   0.459 -0.0906 -0.0300 -0.5681
 5602SOL    HW222174   3.956   2.009   0.465  2.7681  3.0523 -0.9567
 5602SOL    HW322175   3.845   2.054   0.372 -0.2808 -2.0204 -0.1526
 5602SOL    MW422176   3.887   2.060   0.448  0.2445 -0.9798  0.5144
 5603SOL     OW22177   5.709   6.244   3.375 -0.4502  0.1083  0.0511
 5603SOL    HW222178   5.640   6.217   3.314  0.1968 -1.5677  0.0136
 5603SOL    HW322179   5.732   6.165   3.423  2.2860  0.2798 -0.7795
 5603SOL    MW422180   5.703   6.230   3.373  0.4580  0.0067 -0.0778
 5604SOL     OW22181   2.180   2.973   2.823 -0.2841  0.3134  0.1545
 5604SOL    HW222182   2.105   2.978   2.764 -0.1774  0.7579  0.0472
 5604SOL    HW322183   2.255   2.955   2.766  0.2353  3.2172 -0.2368
 5604SOL    MW422184   2.180   2.971   2.808  0.2657 -0.1731 -0.6871
 5605SOL     OW22185   1.843   2.430   1.189  0.0672  0.1878 -0.1377
 5605SOL    HW222186   1.824   2.366   1.120 -0.9235 -0.6666  0.8982
 5605SOL    HW322187   1.881   2.379   1.260  2.0378  1.2046 -0.3772
 5605SOL    MW422188   1.845   2.415   1.189 -0.0630  0.1726 -0.2396
 5606SOL     OW22189   5.710   0.997   0.473 -0.4542  0.2003  0.2136
 5606SOL    HW222190   5.743   0.908   0.484 -0.4732  0.1670 -0.0028
 5606SOL    HW322191   5.758   1.032   0.399 -1.0978  0.0557 -0.2794
 5606SOL    MW422192   5.720   0.990   0.465 -0.1013  0.6835  0.3404
 5607SOL     OW22193   1.983   3.873   2.964 -0.3949 -0.1656  0.1501
 5607SOL    HW222194   2.061   3.904   2.918  0.2104 -2.0711 -0.1950
 5607SOL    HW322195   2.010   3.867   3.056 -0.0107 -1.0895 -0.0085
 5607SOL    MW422196   1.997   3.876   2.970 -0.1252  0.0269 -0.9180
 5608SOL     OW22197   1.305   5.331   5.042 -0.2675  0.3643  0.2007
 5608SOL    HW222198   1.332   5.414   5.003  1.2271 -0.1254  0.1436
 5608SOL    HW322199   1.234   5.355   5.102 -0.1979  1.6049 -0.1899
 5608SOL    MW422200   1.299   5.345   5.045 -0.3057  0.3462  0.4002
 5609SOL     OW22201   3.398   5.290   3.798 -0.5662  0.0618  0.2570
 5609SOL    HW222202   3.405   5.227   3.726 -0.4015 -1.1311  1.2853
 5609SOL    HW322203   3.467   5.355   3.779 -1.0351  0.2045 -1.0527
 5609SOL    MW422204   3.408   5.290   3.786 -0.1949 -0.1103  0.4751
 5610SOL     OW22205   6.268   3.776   1.170  0.2420 -0.0562 -0.1531
 5610SOL    HW222206   6.202   3.844   1.185 -0.0041 -0.4039  0.3427
 5610SOL    HW322207   6.346   3.808   1.216 -0.6273 -1.3153  2.3633
 5610SOL    MW422208   6.270   3.790   1.178  0.0160 -0.0187  0.0425
 5611SOL     OW22209   3.616   1.459   6.334  0.1466 -0.4040 -0.0042
 5611SOL    HW222210   3.581   1.448   6.246 -0.0118 -1.9297  0.2199
 5611SOL    HW322211   3.546   1.427   6.391  1.0060 -1.2997  0.5674
 5611SOL    MW422212   3.602   1.454   6.330 -0.2030 -0.0454  0.2769
 5612SOL     OW22213   3.719   5.142   4.109  0.0200  0.3390 -0.2210
 5612SOL    HW222214   3.780   5.103   4.046 -0.5451 -0.6800 -0.1529
 5612SOL    HW322215   3.640   5.089   4.102 -1.0680  1.9267 -0.6800
 5612SOL    MW422216   3.716   5.130   4.099 -0.0702  0.1420  0.8618
 5613SOL     OW22217   4.298   5.511   1.473 -0.5025 -0.8246  0.1329
 5613SOL    HW222218   4.345   5.591   1.451 -0.4386 -1.2414 -1.2958
 5613SOL    HW322219   4.210   5.524   1.436 -0.3010 -1.6596 -0.6591
 5613SOL    MW422220   4.292   5.524   1.465  0.3533  0.0287 -0.0418
 5614SOL     OW22221   3.212   5.829   6.013  0.0924  0.1107  0.1221
 5614SOL    HW222222   3.135   5.787   5.975 -0.2061  1.9996 -1.5298
 5614SOL    HW322223   3.286   5.790   5.966 -0.1627  1.1343 -1.1951
 5614SOL    MW422224   3.211   5.818   6.001 -0.2370 -0.1939  0.4381
 5615SOL     OW22225   5.250   3.753   3.382 -0.4113 -0.2932 -0.3473
 5615SOL    HW222226   5.254   3.763   3.477 -0.2583  0.2662 -0.4096
 5615SOL    HW322227   5.341   3.763   3.353 -0.2826 -1.5659 -0.4564
 5615SOL    MW422228   5.263   3.755   3.391  0.0390  0.0707 -0.0955
 5616SOL     OW22229   2.849   1.277   1.178 -0.0407 -0.7037  0.0296
 5616SOL    HW222230   2.761   1.260   1.146  0.5585 -1.0278 -1.5390
 5616SOL    HW322231   2.842   1.360   1.225 -1.5844 -1.7627  1.8104
 5616SOL    MW422232   2.837   1.286   1.180 -0.3719 -0.4275  0.3137
 5617SOL     OW22233   2.529   5.944   3.294 -0.5847 -0.0359  0.0265
 5617SOL    HW222234   2.514   6.035   3.317  0.7944  0.0279  0.7663
 5617SOL    HW322235   2.583   5.948   3.215  0.0601 -0.2117  0.4613
 5617SOL    MW422236   2.534   5.956   3.286  0.1952 -0.1243 -0.0382
 5618SOL     OW22237   6.048   5.872   2.080 -0.1407 -0.4742  0.1607
 5618SOL    HW222238   6.091   5.874   1.994 -1.2340  0.3306 -0.3811
 5618SOL    HW322239   6.077   5.952   2.123 -1.7534  0.5496 -0.5649
 5618SOL    MW422240   6.058   5.883   2.074 -0.3021  0.1141 -0.4948
 5619SOL     OW22241   4.650   1.619   1.606 -0.7507 -0.5004 -0.3496
 5619SOL    HW222242   4.681   1.689   1.663  1.3117 -0.7825 -1.0445
 5619SOL    HW322243   4.594   1.664   1.542 -0.1152  0.3955 -0.3018
 5619SOL    MW422244   4.647   1.634   1.605  0.1909 -0.3842  0.1403
 5620SOL     OW22245   5.429   5.876   0.338  0.2793  0.2208 -0.7570
 5620SOL    HW222246   5.422   5.964   0.301 -1.5264  0.5245  0.2066
 5620SOL    HW322247   5.518   5.847   0.315  1.4180  2.7922  0.0538
 5620SOL    MW422248   5.440   5.884   0.330 -0.3766  0.4555  0.4316
 5621SOL     OW22249   5.422   2.259   4.551 -0.3062 -0.0488 -0.5571
 5621SOL    HW222250   5.487   2.284   4.617 -0.3448 -2.0317  0.2813
 5621SOL    HW322251   5.352   2.324   4.561 -0.5053 -0.5454  1.6647
 5621SOL    MW422252   5.421   2.271   4.561 -0.4383  0.3456 -0.0266
 5622SOL     OW22253   3.203   1.197   1.410 -0.0591  0.6646 -0.3699
 5622SOL    HW222254   3.213   1.292   1.409  0.2697  0.6330 -0.4945
 5622SOL    HW322255   3.111   1.181   1.388  0.5056  0.8809 -3.4479
 5622SOL    MW422256   3.193   1.207   1.407 -0.0788 -0.0299  0.4016
 5623SOL     OW22257   0.360   4.576   5.046  0.4804 -0.2682  0.5013
 5623SOL    HW222258   0.363   4.483   5.027  0.1950 -0.6921  2.2958
 5623SOL    HW322259   0.452   4.604   5.045  0.5350 -0.4445 -0.4885
 5623SOL    MW422260   0.373   4.568   5.044  0.1655  0.5277  0.3004
 5624SOL     OW22261   3.845   3.751   3.945  0.1081 -0.2013  0.1820
 5624SOL    HW222262   3.825   3.682   4.008 -2.0529 -0.2663 -0.5021
 5624SOL    HW322263   3.791   3.825   3.972  1.4278  0.8209  0.1426
 5624SOL    MW422264   3.835   3.752   3.957  0.4668 -0.4268 -0.2680
 5625SOL     OW22265   6.128   6.396   0.751 -0.2044 -0.0573 -0.4198
 5625SOL    HW222266   6.081   6.339   0.690  1.3390 -1.8820 -0.0244
 5625SOL    HW322267   6.060   6.452   0.789 -2.1493 -2.6957  0.2992
 5625SOL    MW422268   6.113   6.396   0.748 -0.2474 -0.2516  0.2912
 5626SOL     OW22269   0.298   3.146   4.519 -0.6655 -0.5036 -0.4944
 5626SOL    HW222270   0.346   3.065   4.503 -0.5777 -1.1890  2.6381
 5626SOL    HW322271   0.366   3.213   4.525 -0.6934 -0.2376 -2.4596
 5626SOL    MW422272   0.314   3.144   4.518 -0.5064  0.2003 -0.3403
 5627SOL     OW22273   0.747   2.207   3.042 -0.4646  0.4420  0.2123
 5627SOL    HW222274   0.836   2.173   3.032  0.6635  2.5571  2.0223
 5627SOL    HW322275   0.728   2.248   2.958  0.6733  0.7770  0.1012
 5627SOL    MW422276   0.756   2.208   3.029 -0.0426 -0.2190  1.1909
 5628SOL     OW22277   1.473   1.192   2.331 -0.1004  0.0732  0.7092
 5628SOL    HW222278   1.476   1.251   2.407 -0.0711  0.5825  0.3127
 5628SOL    HW322279   1.384   1.202   2.298 -0.5786 -1.2341  1.5244
 5628SOL    MW422280   1.462   1.201   2.337  0.0905  0.2431 -0.1382
 5629SOL     OW22281   0.336   4.738   4.775 -0.2762  0.0989  0.8863
 5629SOL    HW222282   0.329   4.705   4.865  0.9870  0.2311  1.0468
 5629SOL    HW322283   0.284   4.677   4.724  0.7586 -1.2734  1.4061
 5629SOL    MW422284   0.328   4.725   4.780 -0.6693  0.5992 -0.4350
 5630SOL     OW22285   2.919   5.747   4.906  0.2177  0.1624 -0.1089
 5630SOL    HW222286   2.842   5.700   4.940 -1.0448  1.3381 -1.2368
 5630SOL    HW322287   2.884   5.830   4.874  2.3655  1.8846  1.7095
 5630SOL    MW422288   2.904   5.751   4.906  0.4633 -0.3808  0.0627
 5631SOL     OW22289   1.435   3.657   1.570  0.0082  0.2927  0.1214
 5631SOL    HW222290   1.389   3.575   1.591  0.7412 -0.2477 -0.3282
 5631SOL    HW322291   1.444   3.701   1.655 -0.4124 -0.0827  0.3689
 5631SOL    MW422292   1.430   3.652   1.584  0.1712 -0.9476 -0.2837
 5632SOL     OW22293   2.476   2.107   2.470 -0.2982  0.2408 -0.3519
 5632SOL    HW222294   2.508   2.137   2.555  0.8175  1.9003 -1.2829
 5632SOL    HW322295   2.511   2.018   2.461 -0.6223 -0.0381  0.9926
 5632SOL    MW422296   2.485   2.099   2.480 -0.3983  0.7775 -0.8957
 5633SOL     OW22297   3.505   4.386   3.135 -0.1091  0.4814  0.7020
 5633SOL    HW222298   3.439   4.339   3.186 -0.0173 -1.1601 -0.6288
 5633SOL    HW322299   3.482   4.368   3.044  1.4086  0.9879  0.2033
 5633SOL    MW422300   3.493   4.377   3.130 -0.3371  0.3981  0.0786
 5634SOL     OW22301   1.576   2.113   1.000 -0.1800 -0.4191  0.3484
 5634SOL    HW222302   1.501   2.132   0.944 -0.3791 -2.5827 -0.2117
 5634SOL    HW322303   1.539   2.097   1.086 -0.2047 -0.1131  0.3952
 5634SOL    MW422304   1.561   2.114   1.004  0.2615 -0.2012  0.0061
 5635SOL     OW22305   4.385   6.410   6.348 -0.7623 -0.2133  0.4028
 5635SOL    HW222306   4.357   6.480   6.407 -0.8016  0.6739 -0.6463
 5635SOL    HW322307   4.467   6.379   6.386 -1.4559 -0.5796  1.6623
 5635SOL    MW422308   4.392   6.415   6.361 -0.5486  0.0977 -0.0452
 5636SOL     OW22309   2.200   2.879   2.538 -0.2348 -0.3251 -0.0976
 5636SOL    HW222310   2.140   2.953   2.548  0.2221 -0.1004  1.1799
 5636SOL    HW322311   2.156   2.806   2.581 -1.1825 -1.1443 -2.3000
 5636SOL    MW422312   2.187   2.879   2.545 -0.9568 -0.0450 -0.5401
 5637SOL     OW22313   4.567   1.718   0.057  0.3050 -0.4610  0.3768
 5637SOL    HW222314   4.622   1.708   0.134  2.3883 -3.1241 -1.2723
 5637SOL    HW322315   4.619   1.680  -0.015 -0.8649  3.1199 -2.6904
 5637SOL    MW422316   4.581   1.711   0.057 -0.5067 -0.1447  0.0619
 5638SOL     OW22317   1.375   5.985   2.475 -0.1211 -0.0699  0.1322
 5638SOL    HW222318   1.294   5.935   2.478 -1.1069  1.3993 -0.6791
 5638SOL    HW322319   1.423   5.958   2.553 -1.7015 -0.4682  0.9975
 5638SOL    MW422320   1.370   5.975   2.486  0.5387 -0.0903  0.1931
 5639SOL     OW22321   6.116   2.873   0.224  0.2235  0.0486  0.0984
 5639SOL    HW222322   6.200   2.912   0.245  0.5572 -0.8032  0.3730
 5639SOL    HW322323   6.108   2.881   0.129 -0.8021  2.9322  0.3060
 5639SOL    MW422324   6.126   2.880   0.214 -0.3626 -0.0187 -0.4695
 5640SOL     OW22325   0.815   2.419   3.205  0.6250  0.1784 -0.0517
 5640SOL    HW222326   0.734   2.455   3.243  0.3562 -0.3988 -0.0658
 5640SOL    HW322327   0.785   2.346   3.151  1.0389  0.7246 -1.0579
 5640SOL    MW422328   0.800   2.414   3.203  0.2363 -0.0878 -0.8329
 5641SOL     OW22329   4.882   1.143   4.382  0.0627 -0.1662 -0.0938
 5641SOL    HW222330   4.856   1.073   4.322  1.7794 -1.1319  0.2150
 5641SOL    HW322331   4.856   1.110   4.469  2.9024 -1.5977  0.3439
 5641SOL    MW422332   4.875   1.129   4.386 -0.1833 -0.2480  0.0435
 5642SOL     OW22333   1.877   5.866   5.210  0.0275  0.0403 -0.1278
 5642SOL    HW222334   1.929   5.831   5.283 -0.2625  1.4526  0.8010
 5642SOL    HW322335   1.937   5.865   5.135  0.9162  0.2459  0.5662
 5642SOL    MW422336   1.892   5.861   5.210 -0.0178 -0.5909  0.1532
 5643SOL     OW22337   1.139   1.039   2.453  0.1581 -0.6597 -0.6016
 5643SOL    HW222338   1.145   0.977   2.526 -1.3804  0.0142  0.1473
 5643SOL    HW322339   1.168   1.122   2.490  0.7098 -0.5877 -1.1700
 5643SOL    MW422340   1.144   1.042   2.468  0.1620  0.0413 -0.0167
 5644SOL     OW22341   5.441   3.345   1.133 -0.2851 -0.0362 -0.1540
 5644SOL    HW222342   5.393   3.405   1.191  2.2422  1.3988  0.6088
 5644SOL    HW322343   5.495   3.293   1.192  1.2166  0.4144 -1.0749
 5644SOL    MW422344   5.442   3.346   1.148  0.3346  0.0891  0.1189
 5645SOL     OW22345   4.491   2.381   2.996  0.1059  0.3789  0.4531
 5645SOL    HW222346   4.551   2.394   3.070 -0.5179 -0.1518  1.0659
 5645SOL    HW322347   4.405   2.371   3.037 -0.3694  0.8836 -0.4020
 5645SOL    MW422348   4.488   2.382   3.011  0.0145  0.0289 -0.2107
 5646SOL     OW22349   0.902   1.519   1.404  0.4345  0.3641 -0.3868
 5646SOL    HW222350   0.910   1.531   1.310 -0.9728  0.5220 -0.5024
 5646SOL    HW322351   0.941   1.433   1.421  3.1466  1.4235 -0.6910
 5646SOL    MW422352   0.908   1.509   1.394  0.8315 -0.4876 -0.2342
 5647SOL     OW22353   6.291   3.014   2.212 -0.6585 -0.1754  0.5207
 5647SOL    HW222354   6.245   3.015   2.128  0.2614 -0.3936 -0.0095
 5647SOL    HW322355   6.366   3.073   2.198 -0.2876 -0.5107  1.0657
 5647SOL    MW422356   6.295   3.022   2.199  0.4303  0.3390  0.4270
 5648SOL     OW22357   2.156   1.894   1.889 -0.3437 -0.5087 -0.4006
 5648SOL    HW222358   2.119   1.825   1.833  0.6983 -0.9499 -0.5740
 5648SOL    HW322359   2.157   1.856   1.977 -3.8182  0.8784  0.4093
 5648SOL    MW422360   2.151   1.880   1.893  0.7225  0.1776 -0.3301
 5649SOL     OW22361   2.278   5.235   4.120 -0.0951  0.0662 -0.6323
 5649SOL    HW222362   2.281   5.288   4.200 -1.7158  0.2802 -0.6737
 5649SOL    HW322363   2.370   5.217   4.100  0.3958  0.9495  0.6465
 5649SOL    MW422364   2.291   5.239   4.128 -0.0919  0.1015  0.3603
 5650SOL     OW22365   4.996   2.237   5.179 -0.1685 -0.0369 -0.1062
 5650SOL    HW222366   4.968   2.328   5.182  2.7340  1.1942 -3.5326
 5650SOL    HW322367   5.071   2.233   5.239 -0.5858 -0.2993  0.3991
 5650SOL    MW422368   5.003   2.248   5.187  0.2898  0.2242  0.3158
 5651SOL     OW22369   1.807   4.893   4.071 -0.2307 -0.0811  0.8788
 5651SOL    HW222370   1.793   4.837   3.995 -2.4362  0.7334  0.6210
 5651SOL    HW322371   1.894   4.868   4.103 -0.4861 -2.5395 -0.1080
 5651SOL    MW422372   1.817   4.882   4.065  0.0308 -0.2330  0.0486
 5652SOL     OW22373   4.330   5.087   4.777  0.0443 -0.2296  0.4801
 5652SOL    HW222374   4.343   5.073   4.871 -0.5971  1.5217  0.8630
 5652SOL    HW322375   4.418   5.104   4.743  0.1384  0.3819  1.0064
 5652SOL    MW422376   4.343   5.087   4.785  0.2357  0.0932  0.7339
 5653SOL     OW22377   3.278   2.357   1.906  0.2362 -0.5270 -0.1636
 5653SOL    HW222378   3.327   2.440   1.907 -1.4743  0.8478 -4.5230
 5653SOL    HW322379   3.187   2.383   1.921 -0.2333 -1.7325 -0.7963
 5653SOL    MW422380   3.272   2.372   1.908 -0.2545 -0.3258  0.0127
 5654SOL     OW22381   4.809   3.239   1.325  0.7348 -0.0466  0.2410
 5654SOL    HW222382   4.760   3.213   1.247  1.2041  1.5863 -0.6541
 5654SOL    HW322383   4.811   3.334   1.320  2.1771  0.0019  1.3891
 5654SOL    MW422384   4.803   3.248   1.314 -0.0259 -0.1216 -0.4044
 5655SOL     OW22385   5.733   3.193   0.439 -0.6075 -0.5078 -0.3691
 5655SOL    HW222386   5.764   3.222   0.525 -1.5579  0.8031 -0.4340
 5655SOL    HW322387   5.806   3.144   0.402 -0.0620 -0.8060  1.0458
 5655SOL    MW422388   5.747   3.191   0.446  0.1182 -0.2441 -0.1632
 5656SOL     OW22389   3.989   2.323   0.531 -0.1539 -0.1068  0.1285
 5656SOL    HW222390   3.965   2.236   0.500 -1.5436  0.3483 -0.1679
 5656SOL    HW322391   3.973   2.321   0.626  0.5294 -0.3882  0.2407
 5656SOL    MW422392   3.983   2.312   0.540  0.2016 -0.4855  0.2620
 5657SOL     OW22393   2.947   1.700   3.950  0.0894  0.3727  0.0929
 5657SOL    HW222394   2.914   1.709   3.861 -1.4955  0.1371  0.6330
 5657SOL    HW322395   3.009   1.628   3.945  0.6703  0.9136 -0.9771
 5657SOL    MW422396   2.951   1.692   3.938 -0.1901 -0.2355 -0.7820
 5658SOL     OW22397   1.382   5.978   0.914  0.0939  0.5014 -0.0177
 5658SOL    HW222398   1.326   5.977   0.837 -1.1015  1.5990  0.8121
 5658SOL    HW322399   1.421   6.065   0.914 -0.6651  0.8604  1.1244
 5658SOL    MW422400   1.380   5.989   0.904  0.3055  0.1533  0.0486
 5659SOL     OW22401   2.348   3.195   2.992  0.5803  0.2311  0.0323
 5659SOL    HW222402   2.393   3.113   3.013 -0.5456 -0.0630  1.5402
 5659SOL    HW322403   2.262   3.168   2.959 -0.1602  0.7658  1.4193
 5659SOL    MW422404   2.342   3.181   2.991  0.3750  0.4876  0.0729
 5660SOL     OW22405   4.313   2.215   5.905 -0.1065  0.2205  0.1856
 5660SOL    HW222406   4.279   2.258   5.984  0.7418  0.9691  0.1519
 5660SOL    HW322407   4.408   2.216   5.916 -0.0224 -0.6286 -0.3564
 5660SOL    MW422408   4.321   2.221   5.917 -0.5996 -0.3314  0.6487
 5661SOL     OW22409   2.284   6.360   2.884  0.1315  0.4953 -0.7242
 5661SOL    HW222410   2.254   6.450   2.894 -1.8455 -0.0205 -1.4846
 5661SOL    HW322411   2.249   6.314   2.961  1.7332  0.4829  0.0341
 5661SOL    MW422412   2.275   6.366   2.896  0.0840 -0.0709 -0.4132
 5662SOL     OW22413   4.253   2.352   6.141  0.6557  0.1423 -0.3023
 5662SOL    HW222414   4.311   2.364   6.216 -0.5225 -0.0689  0.6772
 5662SOL    HW322415   4.239   2.440   6.107  2.4821  0.0926 -1.3282
 5662SOL    MW422416   4.258   2.365   6.146  0.4653  0.0310 -0.3898
 5663SOL     OW22417   4.019   0.438   1.572  0.5352  0.0355  0.2118
 5663SOL    HW222418   4.060   0.499   1.511  0.2014  0.4235  0.3737
 5663SOL    HW322419   3.996   0.491   1.648  0.1737 -0.2760  0.3261
 5663SOL    MW422420   4.022   0.453   1.574 -0.1334  0.0262 -0.1121
 5664SOL     OW22421   1.842   1.959   4.477  0.3145  0.0671  0.2585
 5664SOL    HW222422   1.863   2.014   4.552 -0.6194  0.4835  0.2234
 5664SOL    HW322423   1.774   2.006   4.430 -2.2729 -2.1501  1.5146
 5664SOL    MW422424   1.836   1.972   4.481 -0.4178 -0.7167  0.0820
 5665SOL     OW22425   2.831   2.149   1.552  0.3372  0.3832  0.3163
 5665SOL    HW222426   2.885   2.113   1.481  0.9205 -0.3110  1.1023
 5665SOL    HW322427   2.752   2.179   1.508  1.0486  0.7544 -0.7574
 5665SOL    MW422428   2.828   2.148   1.537 -0.1868  0.1085  0.0571
 5666SOL     OW22429   1.331   0.478   4.839  0.0047 -0.1800 -0.3921
 5666SOL    HW222430   1.281   0.397   4.828 -0.6682  0.1530  0.1279
 5666SOL    HW322431   1.266   0.542   4.868  0.7306  0.2693  0.2823
 5666SOL    MW422432   1.316   0.476   4.841  0.2746  0.6047 -0.1365
 5667SOL     OW22433   6.346   0.785   3.604  0.4059  0.1433  0.1915
 5667SOL    HW222434   6.256   0.788   3.637  0.3624  0.1751  0.0704
 5667SOL    HW322435   6.378   0.699   3.632  0.4010  0.2082  0.3981
 5667SOL    MW422436   6.338   0.774   3.612  0.6331  0.1448  0.0207
 5668SOL     OW22437   3.630   4.437   2.225  0.1877 -0.5769 -0.1014
 5668SOL    HW222438   3.568   4.406   2.290  0.3754 -0.9945 -0.1161
 5668SOL    HW322439   3.614   4.382   2.148  0.7535 -0.8742 -0.0156
 5668SOL    MW422440   3.620   4.425   2.223  0.7060  0.3170 -0.6312
 5669SOL     OW22441   1.294   3.915   4.719  0.2881 -0.8816  0.1441
 5669SOL    HW222442   1.365   3.860   4.752  0.5861 -0.8169 -0.3760
 5669SOL    HW322443   1.243   3.857   4.663  2.0910 -0.0671 -2.5502
 5669SOL    MW422444   1.297   3.900   4.716 -0.6384 -0.0874  0.6985
 5670SOL     OW22445   3.099   5.464   4.407 -0.2869  0.0933 -0.6816
 5670SOL    HW222446   3.192   5.444   4.414 -0.2987  0.2633 -0.0470
 5670SOL    HW322447   3.067   5.407   4.337 -0.2765 -1.9510  0.8915
 5670SOL    MW422448   3.107   5.454   4.398  0.7653 -0.4495 -0.5307
 5671SOL     OW22449   6.351   3.628   0.202  0.0497 -0.4679 -0.1372
 5671SOL    HW222450   6.405   3.632   0.282 -0.4124  0.3221  0.1428
 5671SOL    HW322451   6.262   3.618   0.234 -0.1099 -0.4345 -0.5714
 5671SOL    MW422452   6.347   3.627   0.217 -1.0942 -0.1781  0.3191
 5672SOL     OW22453   0.678   5.394   4.798 -0.1290  0.6500 -0.1603
 5672SOL    HW222454   0.699   5.340   4.873  3.2483  1.5576 -0.2822
 5672SOL    HW322455   0.650   5.332   4.730  1.6782 -0.7560  0.3150
 5672SOL    MW422456   0.677   5.379   4.799  0.2120 -0.3047 -0.3200
 5673SOL     OW22457   6.053   0.185   3.965 -0.4894 -0.0286 -0.1332
 5673SOL    HW222458   6.013   0.241   4.031 -3.4045  1.2630 -2.7272
 5673SOL    HW322459   6.020   0.098   3.984 -1.1831  0.2988  0.1849
 5673SOL    MW422460   6.044   0.181   3.976 -0.7605  0.0591  0.3230
 5674SOL     OW22461   4.913   4.754   5.871 -0.2501  0.4693 -0.0543
 5674SOL    HW222462   5.005   4.738   5.852 -0.2313  2.7561 -2.3872
 5674SOL    HW322463   4.913   4.785   5.962  1.3458  0.7935 -0.1285
 5674SOL    MW422464   4.925   4.756   5.881  0.0107 -0.3221 -0.7544
 5675SOL     OW22465   0.472   3.540   3.992 -0.1342 -0.1833 -0.0945
 5675SOL    HW222466   0.416   3.617   3.996  0.0210 -0.1007  0.5682
 5675SOL    HW322467   0.561   3.575   3.991 -0.0608 -0.3505  0.2793
 5675SOL    MW422468   0.477   3.555   3.992 -0.2259  0.0281  0.0143
 5676SOL     OW22469   3.978   2.487   1.557 -0.1741  0.0403 -0.5122
 5676SOL    HW222470   4.026   2.541   1.493 -1.8422 -0.5440 -2.3559
 5676SOL    HW322471   3.886   2.503   1.538 -0.7264 -0.6412  1.3982
 5676SOL    MW422472   3.972   2.496   1.546  0.7612  0.6150 -0.2379
 5677SOL     OW22473   0.414   1.154   2.480  0.0480 -0.3387 -0.1671
 5677SOL    HW222474   0.369   1.238   2.493  0.0984 -0.0921 -1.4591
 5677SOL    HW322475   0.398   1.132   2.389 -0.8157 -2.2607  0.3935
 5677SOL    MW422476   0.406   1.162   2.470 -0.0768 -0.2510 -0.0870
 5678SOL     OW22477   3.760   3.683   3.370 -0.0417 -0.0795  0.3799
 5678SOL    HW222478   3.847   3.646   3.383 -0.8723 -1.9920  0.8467
 5678SOL    HW322479   3.738   3.723   3.454  0.9200  1.7533 -0.1717
 5678SOL    MW422480   3.769   3.684   3.383 -0.8375 -0.0167  0.2522
 5679SOL     OW22481   3.300   3.708   2.817 -0.5209 -0.1174 -0.5119
 5679SOL    HW222482   3.334   3.794   2.794 -0.3629  0.1957  0.8362
 5679SOL    HW322483   3.338   3.649   2.752 -1.0337  0.8832 -1.7595
 5679SOL    MW422484   3.309   3.711   2.805 -0.0839 -0.0138 -0.1177
 5680SOL     OW22485   6.042   3.157   3.180  0.1315 -0.6195  0.0959
 5680SOL    HW222486   6.042   3.159   3.084  1.8881 -1.3704  0.0455
 5680SOL    HW322487   5.966   3.209   3.205 -0.5704 -0.7059 -1.7090
 5680SOL    MW422488   6.032   3.164   3.170 -0.6346 -0.2346 -0.9083
 5681SOL     OW22489   6.087   3.645   0.955  0.1357  0.2502  0.0511
 5681SOL    HW222490   6.169   3.687   0.981  0.8004 -0.5481 -0.7048
 5681SOL    HW322491   6.024   3.673   1.021  0.8962  1.2618  0.3765
 5681SOL    MW422492   6.090   3.654   0.967 -0.5440  0.4714 -0.2927
 5682SOL     OW22493   1.920   3.082   5.239  0.4045  0.5350 -0.0363
 5682SOL    HW222494   1.833   3.075   5.276  1.4835  3.4020  3.6196
 5682SOL    HW322495   1.919   3.164   5.189  0.9130  0.3759 -0.3240
 5682SOL    MW422496   1.909   3.092   5.237  0.2974 -0.7166 -0.3440
 5683SOL     OW22497   6.345   5.714   0.154 -0.2999 -0.4673 -0.0001
 5683SOL    HW222498   6.359   5.740   0.245  0.0274 -0.6187 -0.0047
 5683SOL    HW322499   6.410   5.763   0.104  0.2784 -1.2393 -0.0152
 5683SOL    MW422500   6.355   5.724   0.159  0.2886  0.1257 -0.0452
 5684SOL     OW22501   2.792   3.175   4.119  0.3927 -0.0702  0.2984
 5684SOL    HW222502   2.750   3.254   4.153  2.0555  0.2231  1.8603
 5684SOL    HW322503   2.720   3.114   4.103 -0.7381  0.8963  1.4833
 5684SOL    MW422504   2.777   3.177   4.122  0.0364 -0.1225  0.0099
 5685SOL     OW22505   4.247   2.382   2.333  0.2656 -0.7194 -0.1917
 5685SOL    HW222506   4.222   2.302   2.288 -0.3545 -1.3056  1.1494
 5685SOL    HW322507   4.307   2.353   2.402  0.2078 -0.0071  0.1691
 5685SOL    MW422508   4.252   2.368   2.336  0.0419  0.6451  0.0645
 5686SOL     OW22509   1.552   0.254   4.078 -0.2563 -0.1247  0.7696
 5686SOL    HW222510   1.518   0.198   4.148  1.7478 -0.7007  1.3417
 5686SOL    HW322511   1.553   0.342   4.116 -1.7360  0.0391  0.4837
 5686SOL    MW422512   1.548   0.258   4.092 -0.1706  0.2437  0.0244
 5687SOL     OW22513   4.863   1.467   5.521  0.3592 -0.2085  0.2081
 5687SOL    HW222514   4.939   1.521   5.501 -0.0132  0.5627  0.8085
 5687SOL    HW322515   4.899   1.387   5.558  0.9107 -0.2695 -0.4360
 5687SOL    MW422516   4.877   1.464   5.523  0.4773 -0.5138  0.4053
 5688SOL     OW22517   3.476   4.426   3.525 -0.1183  0.2190  0.7907
 5688SOL    HW222518   3.485   4.346   3.576  3.8590 -0.3940 -0.4828
 5688SOL    HW322519   3.420   4.403   3.452 -1.3786 -0.4842  1.9428
 5688SOL    MW422520   3.470   4.413   3.522  0.1622  0.3433  0.0656
 5689SOL     OW22521   5.824   6.152   6.233 -0.7090  0.0609  0.3820
 5689SOL    HW222522   5.851   6.069   6.272 -0.3456  0.2958  0.6389
 5689SOL    HW322523   5.906   6.201   6.222 -0.5657 -0.5555 -2.0235
 5689SOL    MW422524   5.838   6.147   6.237  0.1170 -0.3500  1.1606
 5690SOL     OW22525   5.530   4.888   0.987 -0.1560  0.6430 -0.4589
 5690SOL    HW222526   5.452   4.837   0.966  1.3765 -1.5748 -1.1844
 5690SOL    HW322527   5.567   4.912   0.902  0.1403  1.3657 -0.1354
 5690SOL    MW422528   5.525   4.884   0.973 -0.1625  0.4189 -0.4349
 5691SOL     OW22529   2.412   6.215   3.300  0.8390  0.2891  0.2254
 5691SOL    HW222530   2.471   6.274   3.253  0.8105  0.9990  1.0344
 5691SOL    HW322531   2.392   6.263   3.381  0.8796 -0.8807  0.9414
 5691SOL    MW422532   2.417   6.229   3.305  0.2155 -0.1333 -0.3550
 5692SOL     OW22533   0.018   2.225   4.909  0.4455  0.0562 -0.4477
 5692SOL    HW222534  -0.026   2.193   4.830 -0.2009 -0.1916  0.0031
 5692SOL    HW322535   0.060   2.307   4.882  1.3246 -0.6612 -1.3785
 5692SOL    MW422536   0.018   2.231   4.895 -0.7501 -0.5808  1.1392
 5693SOL     OW22537   3.320   4.666   1.237 -0.3261  0.2376  0.0308
 5693SOL    HW222538   3.288   4.681   1.326 -1.0872  0.9250 -0.3547
 5693SOL    HW322539   3.242   4.645   1.186 -0.0628  1.1004 -0.7461
 5693SOL    MW422540   3.306   4.665   1.242  0.2218  0.0266  0.2248
 5694SOL     OW22541   1.787   0.688   3.100 -0.1504  0.4157 -0.2732
 5694SOL    HW222542   1.840   0.666   3.176  0.8929  0.6465 -0.9089
 5694SOL    HW322543   1.846   0.673   3.025 -1.4993 -0.9600 -1.1242
 5694SOL    MW422544   1.802   0.683   3.100 -0.4254 -0.0862 -0.3785
 5695SOL     OW22545   2.935   5.902   1.589 -0.1047  0.0199  0.3400
 5695SOL    HW222546   2.961   5.953   1.666  0.0887 -0.8439  0.8554
 5695SOL    HW322547   3.015   5.894   1.538 -0.5863  2.0840 -0.8710
 5695SOL    MW422548   2.949   5.908   1.593 -0.4652 -0.8509 -0.0127
 5696SOL     OW22549   1.914   6.006   3.785 -0.3984 -0.0755  0.1142
 5696SOL    HW222550   1.985   6.067   3.806 -1.4125  1.3438 -0.3740
 5696SOL    HW322551   1.862   6.002   3.865  0.5387 -1.5978  0.6740
 5696SOL    MW422552   1.916   6.014   3.798  0.2517  0.0196  0.8093
 5697SOL     OW22553   4.925   2.948   3.245 -0.1598  0.2458 -0.1286
 5697SOL    HW222554   4.951   2.867   3.290 -0.1397  0.1841 -0.2506
 5697SOL    HW322555   5.008   2.988   3.219 -0.1877 -0.0538 -0.6995
 5697SOL    MW422556   4.940   2.942   3.248 -0.1236  0.4796  0.0047
 5698SOL     OW22557   4.467   6.048   4.400  0.4903  0.0276  0.0594
 5698SOL    HW222558   4.475   6.128   4.348 -0.1168 -0.6162 -1.0739
 5698SOL    HW322559   4.465   5.977   4.335 -0.0800 -0.8194  0.9668
 5698SOL    MW422560   4.467   6.049   4.384  0.3249  0.5611  0.0173
 5699SOL     OW22561   0.336   0.328   2.990  0.5404  0.3449 -0.3989
 5699SOL    HW222562   0.345   0.423   2.982 -0.1060  0.4154 -0.3500
 5699SOL    HW322563   0.367   0.308   3.078 -0.9807  0.7410  0.2403
 5699SOL    MW422564   0.342   0.338   3.000 -0.8477  0.0046  0.3143
 5700SOL     OW22565   4.877   5.471   2.784  0.2449 -0.0583  0.0438
 5700SOL    HW222566   4.878   5.484   2.689 -0.1673 -0.3061  0.0052
 5700SOL    HW322567   4.797   5.515   2.814  0.0082 -0.5831  0.1877
 5700SOL    MW422568   4.867   5.478   2.776 -0.4705 -0.8475 -0.4040
 5701SOL     OW22569   6.369   1.371   2.225 -0.5781 -0.0820 -0.2389
 5701SOL    HW222570   6.432   1.360   2.297 -0.3125 -0.4425 -0.5215
 5701SOL    HW322571   6.337   1.461   2.235 -1.3380 -0.4532  0.9616
 5701SOL    MW422572   6.373   1.382   2.236  0.5993  0.1453 -0.1651
 5702SOL     OW22573   6.389   4.888   1.666  0.4918 -0.6059 -0.0095
 5702SOL    HW222574   6.384   4.857   1.756  0.7359 -2.1345 -0.5069
 5702SOL    HW322575   6.311   4.943   1.656 -0.0020 -1.1167  0.8729
 5702SOL    MW422576   6.378   4.891   1.676  0.1506 -0.0026  0.5206
 5703SOL     OW22577   1.889   4.341   2.621 -0.2187 -0.7512  0.6062
 5703SOL    HW222578   1.983   4.344   2.609 -0.0701 -2.3369  1.2148
 5703SOL    HW322579   1.864   4.250   2.603 -1.7957 -0.1297 -0.6445
 5703SOL    MW422580   1.898   4.329   2.617  0.1729 -0.3585  0.2562
 5704SOL     OW22581   0.730   3.921   5.808 -0.1079 -0.3390  0.2882
 5704SOL    HW222582   0.665   3.943   5.741 -1.4811  2.5103  2.3608
 5704SOL    HW322583   0.735   3.999   5.863  3.3950 -1.3240  1.6311
 5704SOL    MW422584   0.722   3.934   5.806 -0.4573 -0.3526 -0.0315
 5705SOL     OW22585   6.331   1.653   2.258 -0.1355 -0.2700  0.0922
 5705SOL    HW222586   6.377   1.664   2.175  1.0109 -2.1209  0.4150
 5705SOL    HW322587   6.392   1.687   2.324 -0.3566 -0.3023  0.3165
 5705SOL    MW422588   6.345   1.659   2.256  0.4618 -0.0044  0.9269
 5706SOL     OW22589   0.220   2.265   2.545 -0.5526  0.4101  0.1346
 5706SOL    HW222590   0.239   2.356   2.567 -0.6750  0.5852 -0.4563
 5706SOL    HW322591   0.293   2.239   2.488 -1.5952  0.8183 -1.4528
 5706SOL    MW422592   0.232   2.274   2.540  0.1316 -0.7436 -0.1671
 5707SOL     OW22593   5.427   2.284   1.006  0.2213  0.5036 -0.0531
 5707SOL    HW222594   5.501   2.345   1.010  0.7608 -0.1588  0.6941
 5707SOL    HW322595   5.463   2.206   0.963  0.4222 -0.3838  1.6125
 5707SOL    MW422596   5.442   2.281   1.001  0.4691  0.1949  0.7767
 5708SOL     OW22597   6.185   0.326   3.234 -0.1023  0.0374 -0.0469
 5708SOL    HW222598   6.174   0.384   3.310 -2.3158  2.5685 -2.0858
 5708SOL    HW322599   6.262   0.274   3.255  0.1948  1.5309  3.3284
 5708SOL    MW422600   6.194   0.327   3.247 -0.6303 -0.5299  0.1742
 5709SOL     OW22601   4.944   1.684   1.258  0.3091  0.5275  0.1155
 5709SOL    HW222602   5.026   1.677   1.209  0.5655  1.3375  0.4290
 5709SOL    HW322603   4.970   1.699   1.348 -0.1511 -1.7213  0.6995
 5709SOL    MW422604   4.958   1.685   1.263  0.6860  0.3436  0.3741
 5710SOL     OW22605   4.335   1.002   0.931  0.0953 -0.1482 -0.1848
 5710SOL    HW222606   4.313   0.966   0.844  1.7521 -1.7599 -0.0182
 5710SOL    HW322607   4.430   1.016   0.927  0.0802  0.4572  1.1369
 5710SOL    MW422608   4.345   0.999   0.919 -0.1377 -0.6764 -0.4497
 5711SOL     OW22609   0.647   4.838   1.594  0.4524 -0.3436 -0.6772
 5711SOL    HW222610   0.593   4.759   1.600 -0.1001  0.0864  0.1736
 5711SOL    HW322611   0.635   4.882   1.678  0.4474  0.8485 -1.2785
 5711SOL    MW422612   0.639   4.833   1.605  0.1254 -0.2398  0.1431
 5712SOL     OW22613   2.012   2.461   1.939 -0.1863 -0.1154 -0.4802
 5712SOL    HW222614   1.944   2.528   1.937 -1.2919 -1.2108 -1.2552
 5712SOL    HW322615   2.019   2.437   2.031  0.7114  1.5034 -0.0922
 5712SOL    MW422616   2.004   2.467   1.951  0.0620  0.8010  0.0785
 5713SOL     OW22617   2.688   5.197   3.442 -0.4240 -0.2120  0.4585
 5713SOL    HW222618   2.757   5.261   3.427  1.6024 -2.2177  0.7675
 5713SOL    HW322619   2.648   5.225   3.525  0.2605  0.7584  0.4887
 5713SOL    MW422620   2.692   5.209   3.451  0.1811 -0.1787  0.1559
 5714SOL     OW22621   4.866   3.714   5.870  0.2973  0.0208 -0.3062
 5714SOL    HW222622   4.930   3.767   5.917  1.2632 -0.2947 -1.2165
 5714SOL    HW322623   4.785   3.723   5.920  0.5533  1.9390 -0.1658
 5714SOL    MW422624   4.864   3.722   5.883 -0.3313  0.5136 -0.2429
 5715SOL     OW22625   0.089   1.774   0.516 -0.8024 -0.3445  0.3339
 5715SOL    HW222626   0.142   1.818   0.450 -0.5280 -0.2490  0.6110
 5715SOL    HW322627   0.007   1.822   0.517 -0.7953 -0.3258  0.0861
 5715SOL    MW422628   0.085   1.786   0.508  0.5027 -0.3175 -0.4758
 5716SOL     OW22629   6.293   1.772   1.347  0.3567 -0.2612  0.2550
 5716SOL    HW222630   6.342   1.853   1.336  0.6199 -0.2903  1.0924
 5716SOL    HW322631   6.341   1.707   1.297  0.6904 -0.0999  0.3605
 5716SOL    MW422632   6.305   1.774   1.339  0.5283 -0.4749 -0.2954
 5717SOL     OW22633   0.232   0.556   1.769  0.2429  0.7716  0.5542
 5717SOL    HW222634   0.160   0.568   1.831 -0.0387 -0.3529  0.4689
 5717SOL    HW322635   0.306   0.526   1.823 -0.3514 -1.4305  0.2509
 5717SOL    MW422636   0.233   0.553   1.785  0.2481 -0.1487 -0.1063
 5718SOL     OW22637   2.379   5.036   4.632  0.6115  0.2414 -0.1197
 5718SOL    HW222638   2.311   4.987   4.679  1.5952 -1.1754 -0.1275
 5718SOL    HW322639   2.411   5.099   4.697 -0.1844  0.4064  0.1210
 5718SOL    MW422640   2.374   5.038   4.647 -0.2803  0.1411 -0.1836
 5719SOL     OW22641   2.578   0.889   2.327  0.0453  0.0010 -0.4176
 5719SOL    HW222642   2.660   0.881   2.280 -0.4763 -0.4941 -1.2857
 5719SOL    HW322643   2.562   0.801   2.361  0.2673  0.2849  0.4409
 5719SOL    MW422644   2.586   0.876   2.325 -0.0251  0.1657 -0.2155
 5720SOL     OW22645   5.793   4.991   1.126  0.7445 -0.1761  0.2008
 5720SOL    HW222646   5.876   4.945   1.112  0.3523 -0.1912 -3.0042
 5720SOL    HW322647   5.726   4.929   1.097 -0.0981  0.9432 -0.3481
 5720SOL    MW422648   5.795   4.977   1.120 -1.0877  0.7748 -0.3131
 5721SOL     OW22649   3.725   2.717   5.634 -0.6139 -0.4517 -0.5327
 5721SOL    HW222650   3.736   2.636   5.583 -0.0715  0.3404 -1.7350
 5721SOL    HW322651   3.810   2.762   5.625 -1.7006  1.4577 -2.1204
 5721SOL    MW422652   3.738   2.712   5.626 -0.3812  0.7083 -0.5761
 5722SOL     OW22653   3.028   5.590   5.377  0.2244 -0.3147  0.0320
 5722SOL    HW222654   2.949   5.645   5.386  0.1955 -0.0550 -1.4476
 5722SOL    HW322655   3.092   5.648   5.334  0.6399 -1.0345 -0.3299
 5722SOL    MW422656   3.026   5.605   5.372 -0.6468 -0.4093 -0.6000
 5723SOL     OW22657   6.365   4.958   0.221 -0.5574 -0.3209  0.0439
 5723SOL    HW222658   6.289   4.904   0.245 -0.3809 -1.4228 -1.6285
 5723SOL    HW322659   6.440   4.906   0.248 -0.3854  0.4731  1.1103
 5723SOL    MW422660   6.365   4.944   0.228  0.0106  0.6558 -0.2519
 5724SOL     OW22661   2.339   2.736   4.242 -0.0576 -0.1199 -0.8189
 5724SOL    HW222662   2.288   2.670   4.289  1.4952 -0.0821  1.0143
 5724SOL    HW322663   2.275   2.804   4.220 -0.9668 -0.4315  0.6975
 5724SOL    MW422664   2.324   2.736   4.245 -0.3576 -0.0649 -0.2917
 5725SOL     OW22665   1.280   0.466   5.785 -0.1495  0.4442  0.0185
 5725SOL    HW222666   1.256   0.459   5.878  0.3616  0.5997  0.1635
 5725SOL    HW322667   1.375   0.460   5.784 -0.1439  0.5638 -0.4876
 5725SOL    MW422668   1.289   0.464   5.797  0.5488 -0.5595 -0.3080
 5726SOL     OW22669   3.425   3.285   6.035 -0.4605 -0.1180 -0.2708
 5726SOL    HW222670   3.451   3.373   6.062 -0.7429 -0.3709  0.8751
 5726SOL    HW322671   3.399   3.242   6.116 -1.6731 -0.8089 -0.9967
 5726SOL    MW422672   3.425   3.291   6.049  0.5988 -0.2900 -0.4061
 5727SOL     OW22673   3.717   5.552   2.149 -0.1743 -0.3582  0.0452
 5727SOL    HW222674   3.740   5.461   2.165 -1.9208 -1.0161 -0.9109
 5727SOL    HW322675   3.799   5.593   2.120  0.6491 -1.5842  0.5793
 5727SOL    MW422676   3.731   5.545   2.147 -0.3085 -0.0068  0.2231
 5728SOL     OW22677   5.452   6.278   4.415  0.3788  0.0089  0.5535
 5728SOL    HW222678   5.498   6.279   4.330 -1.6521  2.4665 -0.6472
 5728SOL    HW322679   5.452   6.369   4.443 -1.2691 -0.3613  1.9095
 5728SOL    MW422680   5.458   6.290   4.407  0.2511 -0.1155 -0.1165
 5729SOL     OW22681   3.624   2.503   1.260 -0.3884 -0.5447 -0.0280
 5729SOL    HW222682   3.602   2.413   1.282  0.4918 -0.5771  0.7832
 5729SOL    HW322683   3.657   2.540   1.342 -2.2643  1.0158  0.1029
 5729SOL    MW422684   3.626   2.496   1.274  0.2989  0.4109  0.2250
 5730SOL     OW22685   5.930   1.919   0.601 -0.1805  0.2371  0.2618
 5730SOL    HW222686   5.927   1.998   0.654 -0.2589  0.1322  0.4117
 5730SOL    HW322687   5.985   1.858   0.651  0.2745  0.3642 -0.0761
 5730SOL    MW422688   5.937   1.921   0.614 -0.4691 -0.2042 -0.6583
 5731SOL     OW22689   2.772   3.225   2.417 -0.5519 -0.3068 -0.4101
 5731SOL    HW222690   2.773   3.146   2.364 -2.9878  0.1670 -1.3331
 5731SOL    HW322691   2.856   3.268   2.400  0.7713 -2.5906  0.0450
 5731SOL    MW422692   2.783   3.221   2.408 -0.5162  0.2456  0.3914
 5732SOL     OW22693   5.106   2.073   4.947 -0.1600 -0.9355  0.2788
 5732SOL    HW222694   5.062   2.141   4.998  0.3892 -0.8850  0.6970
 5732SOL    HW322695   5.076   1.991   4.986 -0.5472 -0.9223  0.0068
 5732SOL    MW422696   5.096   2.071   4.959 -0.5314  0.8399 -0.0060
 5733SOL     OW22697   0.254   3.767   6.108  0.2957  0.4594 -0.4290
 5733SOL    HW222698   0.247   3.850   6.155  1.2611  0.4208 -0.2012
 5733SOL    HW322699   0.259   3.792   6.016 -2.7447  0.4920 -0.6827
 5733SOL    MW422700   0.254   3.781   6.102  0.4628 -0.1783 -0.2478
 5734SOL     OW22701   0.197   2.413   3.574 -0.8786  0.3641  0.6940
 5734SOL    HW222702   0.215   2.355   3.500  0.3010  0.2971  1.0002
 5734SOL    HW322703   0.275   2.469   3.579 -1.6005  1.3645  0.9660
 5734SOL    MW422704   0.210   2.413   3.565 -0.5010 -0.1747 -0.2497
 5735SOL     OW22705   5.183   6.369   6.330  0.3193  0.1819  0.1562
 5735SOL    HW222706   5.193   6.369   6.235  1.8712  0.0275  0.2997
 5735SOL    HW322707   5.099   6.412   6.345  0.3405  0.7601 -1.2578
 5735SOL    MW422708   5.173   6.375   6.320 -0.0097 -0.8344 -0.2528
 5736SOL     OW22709   3.183   0.018   1.581  0.5622 -0.0168 -0.3976
 5736SOL    HW222710   3.248   0.080   1.615  1.4000 -0.8971 -0.3608
 5736SOL    HW322711   3.118   0.074   1.538 -0.1794  1.0898  1.9967
 5736SOL    MW422712   3.183   0.034   1.580  0.3139 -0.3717 -0.2162
 5737SOL     OW22713   4.073   4.599   3.471  0.1883 -0.8484 -0.4847
 5737SOL    HW222714   3.995   4.544   3.478 -0.1138 -0.3422  0.2540
 5737SOL    HW322715   4.103   4.587   3.381  0.3071 -2.4515 -0.2568
 5737SOL    MW422716   4.066   4.590   3.460 -0.1446 -0.7612 -0.3255
 5738SOL     OW22717   0.590   2.895   2.384  0.3228  0.2892  0.0389
 5738SOL    HW222718   0.575   2.981   2.345 -2.5737 -0.4274 -0.6262
 5738SOL    HW322719   0.573   2.908   2.477 -2.1589  0.1028 -0.3233
 5738SOL    MW422720   0.586   2.908   2.391 -0.5753  0.4776 -0.1904
 5739SOL     OW22721   0.118   3.115   1.710 -0.1275  0.0407  0.3917
 5739SOL    HW222722   0.207   3.086   1.691  0.6836  2.3642  0.2859
 5739SOL    HW322723   0.120   3.210   1.695 -2.3239  0.3383  1.5433
 5739SOL    MW422724   0.130   3.124   1.705 -0.6721 -0.8843  0.2815
 5740SOL     OW22725   0.984   1.648   4.151 -0.6382  0.0447 -0.3118
 5740SOL    HW222726   1.038   1.672   4.226  0.1084  1.0898 -1.1371
 5740SOL    HW322727   0.897   1.631   4.187 -0.5953  1.6695  0.6563
 5740SOL    MW422728   0.980   1.649   4.165  0.2987  0.2990 -0.4864
 5741SOL     OW22729   2.832   2.005   5.693  0.4677  0.1306  0.6916
 5741SOL    HW222730   2.829   1.981   5.600 -0.3789 -1.2519  1.0512
 5741SOL    HW322731   2.800   2.096   5.694  2.0143  0.7325 -0.5113
 5741SOL    MW422732   2.827   2.014   5.681 -0.2156 -0.9061  0.3012
 5742SOL     OW22733   3.591   2.728   3.689  0.3649 -0.5052  0.7319
 5742SOL    HW222734   3.629   2.711   3.775  0.0148 -0.7366  0.8470
 5742SOL    HW322735   3.500   2.753   3.708  0.5925  0.5507  0.4985
 5742SOL    MW422736   3.584   2.729   3.703  0.1463 -0.5600 -0.2332
 5743SOL     OW22737   5.773   3.561   6.108  0.6763 -0.2149  0.0358
 5743SOL    HW222738   5.838   3.610   6.157  0.9957  0.1871 -0.7653
 5743SOL    HW322739   5.751   3.618   6.034  1.1302 -1.3123 -0.9813
 5743SOL    MW422740   5.778   3.575   6.104  0.2215  0.6486 -0.4239
 5744SOL     OW22741   5.208   2.489   5.616 -0.2358  0.9137  0.4183
 5744SOL    HW222742   5.146   2.561   5.609 -1.2471 -0.0390 -1.3687
 5744SOL    HW322743   5.292   2.527   5.595 -0.5590  1.8033  0.7053
 5744SOL    MW422744   5.211   2.503   5.612 -0.6405 -0.3281 -0.2156
 5745SOL     OW22745   5.699   3.004   4.515 -0.6247  0.5554  0.4086
 5745SOL    HW222746   5.627   2.952   4.477 -0.5554 -1.0769  2.3270
 5745SOL    HW322747   5.773   2.989   4.455 -0.2412 -2.7203  1.4856
 5745SOL    MW422748   5.699   2.995   4.502 -0.2409  0.2961  0.0275
 5746SOL     OW22749   5.236   5.715   3.816  0.4704  0.0355  0.0288
 5746SOL    HW222750   5.144   5.689   3.812 -0.3187  2.7905 -2.8010
 5746SOL    HW322751   5.284   5.638   3.785 -1.0312 -0.8231 -0.2461
 5746SOL    MW422752   5.231   5.701   3.812 -0.2200  0.1195  0.3945
 5747SOL     OW22753   4.548   0.457   4.616 -0.7148  0.2168 -0.9275
 5747SOL    HW222754   4.636   0.495   4.608 -0.7244  0.0474 -1.9834
 5747SOL    HW322755   4.519   0.482   4.704  0.5953 -0.1629 -0.3697
 5747SOL    MW422756   4.556   0.465   4.626 -0.1471  0.0937  0.5242
 5748SOL     OW22757   0.038   5.392   2.825  0.2852  0.9740  0.6234
 5748SOL    HW222758   0.076   5.471   2.862  0.5363  1.0367  0.2345
 5748SOL    HW322759   0.009   5.418   2.738  0.3017  0.6560  0.5225
 5748SOL    MW422760   0.039   5.406   2.819  0.5834  0.0138  0.7241
 5749SOL     OW22761   1.430   3.287   3.249 -0.3973  0.1153  0.0863
 5749SOL    HW222762   1.434   3.361   3.188  0.5901 -0.2974 -0.3781
 5749SOL    HW322763   1.349   3.300   3.297  0.1051  1.8925  0.5284
 5749SOL    MW422764   1.420   3.298   3.247 -0.0706 -0.2585  0.3489
 5750SOL     OW22765   2.074   0.967   1.730  0.4671  0.3603  0.2255
 5750SOL    HW222766   2.083   0.915   1.650  0.8667  0.5030  0.1762
 5750SOL    HW322767   2.154   1.019   1.734 -1.0452  3.0291 -1.1815
 5750SOL    MW422768   2.085   0.967   1.720 -0.2515  0.5113 -0.2631
 5751SOL     OW22769   0.864   6.011   4.376 -0.2067  0.1150  0.6289
 5751SOL    HW222770   0.823   6.010   4.290  2.2018  0.8268 -0.5963
 5751SOL    HW322771   0.884   6.103   4.392  0.6875 -0.1831  1.2882
 5751SOL    MW422772   0.861   6.023   4.367  0.9633  0.2564  0.4438
 5752SOL     OW22773   5.290   6.267   1.666  0.2423 -0.2211  0.0531
 5752SOL    HW222774   5.276   6.188   1.615 -0.2350 -0.7492  0.9835
 5752SOL    HW322775   5.384   6.270   1.681  0.2410 -0.6918  0.1446
 5752SOL    MW422776   5.300   6.257   1.661 -0.4620  0.1097 -0.2021
 5753SOL     OW22777   2.319   6.064   5.347 -0.1947 -0.0510 -0.1256
 5753SOL    HW222778   2.237   6.034   5.386 -0.7311 -1.7056 -2.2951
 5753SOL    HW322779   2.387   6.010   5.389 -0.5126 -0.3646 -0.0146
 5753SOL    MW422780   2.317   6.053   5.358 -0.6660 -0.2045  0.0576
 5754SOL     OW22781   4.717   0.218   0.965  0.4687  0.0072  0.1643
 5754SOL    HW222782   4.634   0.254   0.996  0.0937  1.5593 -2.3964
 5754SOL    HW322783   4.699   0.125   0.952  0.0202 -0.2592  2.2794
 5754SOL    MW422784   4.704   0.211   0.967 -0.5279  0.5800 -1.1063
 5755SOL     OW22785   1.065   5.061   5.153  0.4915 -0.4534 -0.3214
 5755SOL    HW222786   1.040   5.120   5.081 -1.5460 -0.1804  0.5284
 5755SOL    HW322787   1.040   5.108   5.232  0.2012 -1.8471  0.4435
 5755SOL    MW422788   1.058   5.075   5.154  0.4545 -0.1210  0.5309
 5756SOL     OW22789   5.835   3.177   2.765  0.9861  0.0023  0.3638
 5756SOL    HW222790   5.800   3.163   2.677  0.0235  0.1484  0.7231
 5756SOL    HW322791   5.777   3.242   2.805  0.9013 -0.6900  1.4065
 5756SOL    MW422792   5.823   3.184   2.759  0.3160  0.2304  0.1110
 5757SOL     OW22793   1.782   2.324   5.457 -0.2959  0.1535 -0.0652
 5757SOL    HW222794   1.703   2.296   5.412 -1.4180  1.7107  0.8372
 5757SOL    HW322795   1.751   2.364   5.538  1.3208  1.6826 -0.1364
 5757SOL    MW422796   1.768   2.326   5.462  0.2326  0.0210 -0.2631
 5758SOL     OW22797   5.850   1.378   0.241 -0.2252 -0.9160 -0.6844
 5758SOL    HW222798   5.799   1.371   0.160  1.1325  0.4381 -1.7187
 5758SOL    HW322799   5.795   1.429   0.300  0.4280  1.8933 -2.3186
 5758SOL    MW422800   5.836   1.384   0.238  0.2905  0.9195  0.2855
 5759SOL     OW22801   4.844   1.435   1.509  0.5213  0.0153  0.5293
 5759SOL    HW222802   4.774   1.500   1.518 -0.3614 -0.5241 -1.7195
 5759SOL    HW322803   4.922   1.486   1.489  0.1700  0.4643  0.2984
 5759SOL    MW422804   4.845   1.450   1.508 -0.1532  0.1739  0.1553
 5760SOL     OW22805   3.867   2.940   4.341  0.3198 -0.3683  0.1538
 5760SOL    HW222806   3.800   2.993   4.299 -1.6381 -0.7243  2.5535
 5760SOL    HW322807   3.849   2.850   4.313 -0.1196 -0.4410  0.6535
 5760SOL    MW422808   3.856   2.935   4.332 -0.2767 -0.8926 -0.2949
 5761SOL     OW22809   1.243   0.085   2.032  0.0061 -0.1938 -0.1328
 5761SOL    HW222810   1.295   0.148   1.981 -0.3667  0.5672  0.4030
 5761SOL    HW322811   1.290   0.078   2.116 -0.4819  0.1126  0.1659
 5761SOL    MW422812   1.256   0.093   2.036 -0.2621 -0.3618 -0.2262
 5762SOL     OW22813   0.170   5.628   5.678 -0.5163  0.2620  0.2922
 5762SOL    HW222814   0.178   5.718   5.648  1.5523  0.0114 -0.0191
 5762SOL    HW322815   0.156   5.635   5.773 -0.5582  0.8923  0.2398
 5762SOL    MW422816   0.169   5.640   5.687 -0.0400  0.2115 -0.3992
 5763SOL     OW22817   3.851   2.230   3.274  0.0219  0.1783  0.6144
 5763SOL    HW222818   3.839   2.136   3.285  2.2443  0.0810  3.4571
 5763SOL    HW322819   3.902   2.257   3.351  2.1311  3.1797 -1.5694
 5763SOL    MW422820   3.856   2.221   3.286  0.1233 -0.1557 -1.0674
 5764SOL     OW22821   0.437   5.998   0.457 -0.2012 -0.2279  0.0517
 5764SOL    HW222822   0.463   5.914   0.419  0.1495  0.0824 -0.4022
 5764SOL    HW322823   0.513   6.054   0.444 -0.3471  0.0898  0.5753
 5764SOL    MW422824   0.450   5.994   0.450 -0.1775  0.3614 -0.3381
 5765SOL     OW22825   0.012   4.634   0.235  0.4656 -0.4967  0.2898
 5765SOL    HW222826   0.004   4.651   0.141  1.3574 -1.0123  0.1152
 5765SOL    HW322827   0.104   4.612   0.248  0.3682 -0.3460  1.3037
 5765SOL    MW422828   0.023   4.633   0.224 -0.1329  0.7384 -0.0094
 5766SOL     OW22829   2.130   2.069   1.564  0.3845  0.0313 -0.2024
 5766SOL    HW222830   2.089   2.119   1.493 -0.2367  0.0298  0.1502
 5766SOL    HW322831   2.120   2.124   1.641  1.9079  0.4668 -0.2801
 5766SOL    MW422832   2.123   2.083   1.565  0.3938 -0.0204  0.0029
 5767SOL     OW22833   5.464   2.670   4.228  0.0491  0.3077  0.3409
 5767SOL    HW222834   5.416   2.606   4.176 -1.1483 -0.9678  2.8594
 5767SOL    HW322835   5.529   2.618   4.276  0.5853  1.3151  0.7466
 5767SOL    MW422836   5.467   2.654   4.228 -0.7528  0.5817  0.0325
 5768SOL     OW22837   1.704   1.993   0.042  0.3141  0.6699  0.3525
 5768SOL    HW222838   1.628   2.047   0.019  0.2135  0.7030  0.7465
 5768SOL    HW322839   1.780   2.049   0.023  0.2235  0.7943  0.3556
 5768SOL    MW422840   1.704   2.007   0.037  0.0188 -0.5969 -0.3914
 5769SOL     OW22841   2.101   2.973   3.620 -0.0909 -0.7059  0.2736
 5769SOL    HW222842   2.086   2.979   3.526  1.9195  0.0891 -0.0335
 5769SOL    HW322843   2.062   3.053   3.656 -0.2800 -0.6881  0.0287
 5769SOL    MW422844   2.094   2.984   3.613 -0.3553  0.9585  0.0759
 5770SOL     OW22845   0.434   1.660   3.538 -0.0036 -0.1362  0.0536
 5770SOL    HW222846   0.505   1.716   3.569  0.9992 -0.4389 -1.6165
 5770SOL    HW322847   0.385   1.637   3.618  1.3106  0.6821  1.1337
 5770SOL    MW422848   0.437   1.664   3.553 -0.1074  0.0144  0.2947
 5771SOL     OW22849   1.390   1.318   3.448  0.2847 -0.0770 -0.0708
 5771SOL    HW222850   1.297   1.333   3.431 -0.0615 -1.6165  0.3246
 5771SOL    HW322851   1.431   1.404   3.435 -1.0593  0.4420 -1.0774
 5771SOL    MW422852   1.383   1.331   3.444 -0.1106 -0.2129  0.1542
 5772SOL     OW22853   0.097   0.027   1.815  0.2769  0.2287  0.0849
 5772SOL    HW222854   0.119  -0.060   1.847 -0.7868 -0.0497  0.0819
 5772SOL    HW322855   0.115   0.023   1.721 -0.3766 -0.1975 -0.0284
 5772SOL    MW422856   0.102   0.015   1.807  0.0732 -0.3135  0.1474
 5773SOL     OW22857   4.029   3.023   3.677 -0.4811  0.6520  0.5944
 5773SOL    HW222858   4.020   3.041   3.771  0.6556  0.8344  0.6722
 5773SOL    HW322859   3.941   2.996   3.650 -0.7651  0.3507  1.7637
 5773SOL    MW422860   4.016   3.022   3.686  0.0881  0.3951 -0.1289
 5774SOL     OW22861   2.036   3.509   2.038 -0.1623  0.2553  0.1330
 5774SOL    HW222862   1.990   3.560   2.104 -1.2648 -0.5958  0.0443
 5774SOL    HW322863   2.029   3.419   2.068 -0.4165 -0.1144 -0.9724
 5774SOL    MW422864   2.029   3.504   2.050  0.3641  0.3606 -0.1983
 5775SOL     OW22865   4.125   0.744   5.640  0.5957 -0.4435  0.6986
 5775SOL    HW222866   4.118   0.831   5.679 -0.1484 -0.1801 -0.0022
 5775SOL    HW322867   4.161   0.759   5.552 -0.6299 -0.7110  0.1350
 5775SOL    MW422868   4.129   0.757   5.633 -0.1345  0.2179 -0.5143
 5776SOL     OW22869   2.622   4.739   1.097  0.0803  0.1273  0.0848
 5776SOL    HW222870   2.715   4.722   1.111  0.3140  0.8180 -0.5660
 5776SOL    HW322871   2.614   4.754   1.003 -0.8300 -0.7241  0.0029
 5776SOL    MW422872   2.633   4.739   1.087  0.3160  0.1609 -0.6517
 5777SOL     OW22873   6.011   3.447   3.311  0.1614 -0.2965  0.0643
 5777SOL    HW222874   5.938   3.442   3.249 -0.5231  1.0249  0.7325
 5777SOL    HW322875   6.089   3.441   3.256 -0.4270 -1.1578 -0.7191
 5777SOL    MW422876   6.012   3.446   3.295  0.4854 -0.0602  0.2629
 5778SOL     OW22877   2.416   3.031   6.233 -0.6611 -0.3948 -0.3942
 5778SOL    HW222878   2.386   3.087   6.304 -2.8045  0.3035 -1.7496
 5778SOL    HW322879   2.375   2.946   6.250 -0.8701 -0.3343 -0.5893
 5778SOL    MW422880   2.407   3.027   6.245 -0.1141 -0.0724 -0.2578
 5779SOL     OW22881   4.686   2.729   0.776 -0.0751 -0.3072  0.2265
 5779SOL    HW222882   4.668   2.811   0.731  1.0770  0.0789  0.4380
 5779SOL    HW322883   4.666   2.661   0.712  0.9436  0.2110 -0.6810
 5779SOL    MW422884   4.681   2.731   0.762 -0.1124  0.3524 -0.4526
 5780SOL     OW22885   3.560   0.381   0.896  0.0670 -0.2530  0.2012
 5780SOL    HW222886   3.652   0.405   0.882 -0.0765  0.9502  1.1631
 5780SOL    HW322887   3.565   0.303   0.952  0.5110  0.0448  0.5904
 5780SOL    MW422888   3.573   0.374   0.902 -0.0639  0.1909 -0.6442
 5781SOL     OW22889   2.954   4.571   6.149  0.0403  0.4778 -0.2968
 5781SOL    HW222890   3.045   4.568   6.117  0.0107  2.3553 -0.6478
 5781SOL    HW322891   2.941   4.662   6.175 -1.7276  0.1979 -0.1235
 5781SOL    MW422892   2.965   4.582   6.149  0.2486 -0.2596  0.4328
 5782SOL     OW22893   1.320   0.739   2.602  0.0219 -0.0892 -0.6244
 5782SOL    HW222894   1.364   0.795   2.538 -2.3285  1.1143 -1.3285
 5782SOL    HW322895   1.270   0.801   2.656 -0.2088 -1.3171  0.6167
 5782SOL    MW422896   1.319   0.755   2.601  0.2880  0.3228  0.1709
 5783SOL     OW22897   5.425   3.037   6.231 -0.6233  0.3720 -0.3515
 5783SOL    HW222898   5.453   3.085   6.153 -2.8267  2.2453 -0.0880
 5783SOL    HW322899   5.475   3.076   6.303  0.0003 -0.0403 -0.5499
 5783SOL    MW422900   5.435   3.048   6.230 -0.4537 -0.3383 -0.8175
 5784SOL     OW22901   3.463   5.507   2.329 -0.5037  0.7550 -0.6133
 5784SOL    HW222902   3.413   5.474   2.254  0.5446 -0.1486 -0.9426
 5784SOL    HW322903   3.536   5.554   2.290  0.8019 -0.8514 -0.2287
 5784SOL    MW422904   3.466   5.509   2.314 -0.1801 -0.0982 -0.2847
 5785SOL     OW22905   5.196   3.578   5.737 -0.1405 -0.4275  0.4570
 5785SOL    HW222906   5.200   3.551   5.645  1.3187  0.5839  0.1813
 5785SOL    HW322907   5.274   3.538   5.776 -1.7818 -2.5419  1.8067
 5785SOL    MW422908   5.207   3.569   5.730  0.4437  0.3509  0.0659
 5786SOL     OW22909   5.495   3.626   5.934  0.0846 -0.1966 -0.7560
 5786SOL    HW222910   5.578   3.669   5.912 -0.0814  0.2269 -0.5713
 5786SOL    HW322911   5.484   3.559   5.867  0.8574 -0.6321 -0.4482
 5786SOL    MW422912   5.504   3.623   5.922 -0.0025 -0.4470  0.1800
 5787SOL     OW22913   3.796   1.775   3.451  0.3446 -0.0048  0.1649
 5787SOL    HW222914   3.784   1.820   3.368  0.2843  0.9596  0.6914
 5787SOL    HW322915   3.708   1.757   3.483  0.3665 -0.6105 -0.0917
 5787SOL    MW422916   3.783   1.778   3.444 -0.0511 -0.2185  0.1814
 5788SOL     OW22917   1.724   0.606   3.428  0.1712 -0.3358 -0.5980
 5788SOL    HW222918   1.666   0.682   3.418 -1.8163 -1.4591  1.3529
 5788SOL    HW322919   1.721   0.586   3.521  3.3504 -0.8349 -0.5193
 5788SOL    MW422920   1.716   0.613   3.439  0.1708  0.2178  0.0075
 5789SOL     OW22921   1.855   0.687   5.890 -0.2246  0.3964  0.2250
 5789SOL    HW222922   1.809   0.652   5.814 -0.8250  2.4536 -0.4266
 5789SOL    HW322923   1.926   0.625   5.906 -1.2497 -1.0994 -0.7941
 5789SOL    MW422924   1.858   0.674   5.882  0.0437  0.1454  0.1612
 5790SOL     OW22925   5.887   0.932   6.224  0.0222  0.2803 -0.0515
 5790SOL    HW222926   5.915   1.017   6.190  0.6764  0.1082  0.0629
 5790SOL    HW322927   5.939   0.868   6.176 -0.6329 -0.0815 -0.3079
 5790SOL    MW422928   5.897   0.935   6.213  0.4259  0.1339  0.0346
 5791SOL     OW22929   4.536   6.334   3.472 -0.2281 -0.0902  0.5319
 5791SOL    HW222930   4.576   6.282   3.542 -1.4477 -0.8741  0.6633
 5791SOL    HW322931   4.519   6.271   3.401  0.8125  0.6531 -0.4265
 5791SOL    MW422932   4.539   6.319   3.472 -0.1719  0.1237 -0.4007
 5792SOL     OW22933   1.270   5.540   1.729 -0.7164  0.8998  0.6926
 5792SOL    HW222934   1.282   5.487   1.807  2.3236  1.7024  0.8988
 5792SOL    HW322935   1.216   5.614   1.757 -3.1399 -0.8433  0.9230
 5792SOL    MW422936   1.264   5.543   1.743  0.2732  0.1845  0.2160
 5793SOL     OW22937   4.391   4.450   5.204 -0.2109 -0.1025 -0.3157
 5793SOL    HW222938   4.350   4.382   5.258  1.7679 -0.4446  0.8729
 5793SOL    HW322939   4.318   4.506   5.176 -1.6704 -1.6543  0.2033
 5793SOL    MW422940   4.376   4.448   5.208 -0.2977  0.3815  0.3594
 5794SOL     OW22941   5.175   3.702   2.455  0.4845 -0.1170 -0.5320
 5794SOL    HW222942   5.168   3.797   2.468  1.6841 -0.1138  0.2417
 5794SOL    HW322943   5.259   3.679   2.494 -0.6131 -1.8085  1.0149
 5794SOL    MW422944   5.185   3.711   2.462  0.4016  0.0896  0.1680
 5795SOL     OW22945   5.691   1.714   2.522 -0.2584 -0.1236 -0.1215
 5795SOL    HW222946   5.776   1.705   2.566 -0.9559 -2.2749  0.8704
 5795SOL    HW322947   5.629   1.733   2.592 -0.8045  0.2499 -0.6951
 5795SOL    MW422948   5.694   1.715   2.537 -0.5916 -0.4143  0.0273
 5796SOL     OW22949   6.366   5.438   5.590 -0.0836 -0.2025  0.2020
 5796SOL    HW222950   6.343   5.385   5.665 -1.1377  0.8983  0.6937
 5796SOL    HW322951   6.428   5.503   5.624  1.2405 -1.1065 -0.4024
 5796SOL    MW422952   6.371   5.440   5.604 -0.6823  0.3885 -0.1482
 5797SOL     OW22953   2.817   0.517   5.314 -0.3790  0.5368 -0.3262
 5797SOL    HW222954   2.843   0.609   5.317 -0.2459  0.4840  0.2258
 5797SOL    HW322955   2.770   0.508   5.231 -0.8231  1.2149 -0.1562
 5797SOL    MW422956   2.814   0.528   5.303 -0.1503 -0.1072  0.1052
 5798SOL     OW22957   4.852   5.081   6.050 -0.2106 -0.1476 -0.2262
 5798SOL    HW222958   4.944   5.053   6.046 -0.4505 -0.8907 -0.6997
 5798SOL    HW322959   4.839   5.105   6.142  0.4530 -0.0443 -0.1526
 5798SOL    MW422960   4.863   5.081   6.062  0.3480  0.6552  0.0287
 5799SOL     OW22961   5.410   2.744   1.583  0.0622  0.1848  0.1470
 5799SOL    HW222962   5.458   2.700   1.653 -0.8965 -1.1025  0.0157
 5799SOL    HW322963   5.457   2.720   1.503  1.9115  2.6568  0.3773
 5799SOL    MW422964   5.423   2.735   1.582 -0.0889  0.1363  0.0378
 5800SOL     OW22965   0.296   2.779   1.393  0.3043  0.2609 -0.0698
 5800SOL    HW222966   0.325   2.819   1.311 -2.2001 -0.0457 -1.2187
 5800SOL    HW322967   0.311   2.685   1.381 -0.0479  0.2174 -0.1897
 5800SOL    MW422968   0.302   2.772   1.381  0.1500  0.0753  0.3627
 5801SOL     OW22969   2.530   5.487   4.246 -0.1715 -0.1705  0.5933
 5801SOL    HW222970   2.593   5.416   4.231  0.6147  0.5636  0.3102
 5801SOL    HW322971   2.502   5.513   4.159  0.1508  0.3902  0.6533
 5801SOL    MW422972   2.535   5.481   4.233 -0.2862 -0.0689  0.3738
 5802SOL     OW22973   0.903   1.591   1.117  0.6343 -0.6914  0.1438
 5802SOL    HW222974   0.966   1.663   1.109 -1.4793  1.0654 -2.1726
 5802SOL    HW322975   0.931   1.526   1.053 -0.1242  0.3584 -1.3224
 5802SOL    MW422976   0.915   1.592   1.108 -0.2095 -0.3916 -0.0126
 5803SOL     OW22977   2.983   4.952   0.663  0.7141  0.7227 -0.1133
 5803SOL    HW222978   2.984   5.031   0.608  2.2420 -0.1533 -1.4202
 5803SOL    HW322979   3.072   4.945   0.697  0.5381 -0.3431  0.1679
 5803SOL    MW422980   2.995   4.962   0.661 -0.2371 -0.0225 -0.0242
 5804SOL     OW22981   2.671   5.001   1.710 -0.3520  0.2093  0.0426
 5804SOL    HW222982   2.592   4.992   1.763  0.3502 -0.5269  1.0051
 5804SOL    HW322983   2.725   5.065   1.757 -0.4036  0.7772 -0.6549
 5804SOL    MW422984   2.668   5.008   1.723  0.4178 -0.2428 -0.6756
 5805SOL     OW22985   4.202   1.212   5.891  0.0401 -0.3906  0.1432
 5805SOL    HW222986   4.213   1.298   5.851 -1.3871 -1.2109 -2.1848
 5805SOL    HW322987   4.260   1.214   5.967 -0.9830  3.1411  1.0489
 5805SOL    MW422988   4.211   1.224   5.896 -0.4761 -0.6969 -0.2748
 5806SOL     OW22989   2.449   3.490   0.532 -0.0466 -0.3560 -0.0331
 5806SOL    HW222990   2.368   3.455   0.494  0.4025 -0.6276 -0.7652
 5806SOL    HW322991   2.519   3.443   0.486  0.5247 -0.5437  0.9902
 5806SOL    MW422992   2.448   3.479   0.521  0.3961  0.1194  0.3104
 5807SOL     OW22993   5.487   4.662   2.308  0.0598  0.0412 -0.5936
 5807SOL    HW222994   5.480   4.744   2.260 -1.3221  0.8121  0.8433
 5807SOL    HW322995   5.556   4.678   2.373  0.4459 -0.2713 -0.9213
 5807SOL    MW422996   5.495   4.675   2.310  0.5814 -0.5333  0.0782
 5808SOL     OW22997   4.667   4.218   2.074 -0.2040 -0.2572  0.0590
 5808SOL    HW222998   4.747   4.183   2.034 -0.2954  0.1375 -0.4840
 5808SOL    HW322999   4.597   4.162   2.039 -0.4403  0.8919 -1.4104
 5808SOL    MW423000   4.668   4.206   2.064 -0.6961  0.2317 -0.3837
 5809SOL     OW23001   5.578   0.416   4.419  0.0706 -0.2508 -0.0562
 5809SOL    HW223002   5.603   0.370   4.499  2.2401  1.0161  0.0991
 5809SOL    HW323003   5.512   0.479   4.447 -0.0280 -0.5913  0.4948
 5809SOL    MW423004   5.573   0.418   4.434  0.2814  0.4473 -0.4151
 5810SOL     OW23005   6.247   5.299   3.191  0.5338  0.1434  0.0320
 5810SOL    HW223006   6.192   5.320   3.267 -0.2200  1.8315 -0.9194
 5810SOL    HW323007   6.332   5.338   3.212  0.0809  1.3609 -0.3231
 5810SOL    MW423008   6.251   5.307   3.204  0.2417 -0.0125 -0.1892
 5811SOL     OW23009   0.459   4.485   2.152 -0.4880  0.3694 -0.3510
 5811SOL    HW223010   0.542   4.527   2.127 -0.6034 -0.0127 -1.4088
 5811SOL    HW323011   0.442   4.422   2.082  0.0158 -1.9536  1.4924
 5811SOL    MW423012   0.468   4.482   2.140 -0.9798  0.2768 -0.0607
 5812SOL     OW23013   1.179   2.931   5.545  0.1692 -0.1093  0.4603
 5812SOL    HW223014   1.097   2.976   5.524 -0.9983 -1.2431  2.3263
 5812SOL    HW323015   1.202   2.885   5.465 -1.3791 -0.2978  0.0942
 5812SOL    MW423016   1.171   2.931   5.532  0.5558  0.1811  0.3336
 5813SOL     OW23017   3.058   5.598   1.608 -0.4111 -0.0307  0.6425
 5813SOL    HW223018   3.114   5.649   1.667  0.3665 -0.3705  0.2074
 5813SOL    HW323019   3.013   5.663   1.555  0.4477  0.2285  0.2087
 5813SOL    MW423020   3.059   5.613   1.609 -0.3287  0.3662  0.2927
 5814SOL     OW23021   1.379   4.846   5.470 -0.1555 -0.2113 -0.5697
 5814SOL    HW223022   1.453   4.895   5.505 -0.1970  0.9809 -2.0302
 5814SOL    HW323023   1.418   4.769   5.429  0.2124  0.0789 -0.7675
 5814SOL    MW423024   1.394   4.842   5.469  0.2915 -0.7379  0.3677
 5815SOL     OW23025   2.061   2.366   6.142 -0.0326  0.4164 -0.3751
 5815SOL    HW223026   2.005   2.440   6.163  0.6563  0.7369  0.3759
 5815SOL    HW323027   2.068   2.367   6.046  0.7322  1.9104 -0.3307
 5815SOL    MW423028   2.055   2.376   6.132  0.1797 -0.6588 -0.7801
 5816SOL     OW23029   2.471   0.629   5.090 -0.1876 -0.6921 -0.3562
 5816SOL    HW223030   2.552   0.648   5.138 -0.4899 -0.2269 -0.0257
 5816SOL    HW323031   2.465   0.699   5.025  0.5053 -1.6144 -1.4665
 5816SOL    MW423032   2.481   0.641   5.088 -0.5794 -0.3605  0.2245
 5817SOL     OW23033   4.569   0.500   1.334 -0.3438  0.4211  0.6847
 5817SOL    HW223034   4.616   0.427   1.294  0.7014  1.7079 -0.5491
 5817SOL    HW323035   4.481   0.466   1.351 -0.6259 -0.4493 -2.0594
 5817SOL    MW423036   4.563   0.486   1.331  0.5276 -0.1561  0.3465
 5818SOL     OW23037   1.188   0.494   3.633  0.1274 -0.3222 -0.0817
 5818SOL    HW223038   1.260   0.556   3.640  1.2057 -1.6111  0.7590
 5818SOL    HW323039   1.185   0.451   3.718 -0.7967 -1.1910 -0.5366
 5818SOL    MW423040   1.197   0.497   3.645  0.5212  0.2828  0.2679
 5819SOL     OW23041   0.798   4.228   1.153 -0.4794 -0.0949  0.4733
 5819SOL    HW223042   0.842   4.145   1.135 -2.2726 -0.8010 -0.9375
 5819SOL    HW323043   0.842   4.262   1.232  1.9470 -1.1398 -0.3158
 5819SOL    MW423044   0.810   4.222   1.161  1.0717  0.4592 -0.7133
 5820SOL     OW23045   0.538   1.704   6.335  0.0523 -0.2313 -0.3564
 5820SOL    HW223046   0.449   1.672   6.319 -0.9483  1.5019  1.3823
 5820SOL    HW323047   0.539   1.793   6.300  1.0789 -0.2040 -0.2933
 5820SOL    MW423048   0.527   1.711   6.328  0.9241 -0.5792 -0.2713
 5821SOL     OW23049   1.546   1.605   3.223 -0.1034  0.3370  0.4177
 5821SOL    HW223050   1.501   1.605   3.308  0.7491  1.5430  0.9065
 5821SOL    HW323051   1.496   1.666   3.169  0.7439  1.5035  0.8895
 5821SOL    MW423052   1.534   1.613   3.227  0.3604 -0.3710 -0.2550
 5822SOL     OW23053   1.917   3.656   6.420  0.3234 -0.4903 -0.3620
 5822SOL    HW223054   1.905   3.721   6.488  0.2097  1.1264 -1.8692
 5822SOL    HW323055   1.973   3.589   6.461  2.1638  1.5331  0.6220
 5822SOL    MW423056   1.923   3.656   6.434 -0.3307  0.3240 -0.0426
 5823SOL     OW23057   4.807   1.196   2.417  0.7147 -0.2504 -0.3563
 5823SOL    HW223058   4.753   1.204   2.496  1.0702  1.4073 -0.2455
 5823SOL    HW323059   4.746   1.166   2.349 -0.2260  0.9126 -0.0688
 5823SOL    MW423060   4.792   1.193   2.418 -0.3276  0.2328  0.2852
 5824SOL     OW23061   4.345   1.010   0.446  0.0973 -0.2471 -0.3215
 5824SOL    HW223062   4.313   0.985   0.532 -0.2435  0.0212 -0.3685
 5824SOL    HW323063   4.378   0.928   0.408  2.7840  0.0446  1.0906
 5824SOL    MW423064   4.346   0.996   0.452 -0.3705  0.7294  0.0514
 5825SOL     OW23065   5.021   3.065   1.197  0.3743 -0.2073  0.5162
 5825SOL    HW223066   4.948   3.035   1.142  1.3792 -1.0892 -0.3665
 5825SOL    HW323067   4.979   3.117   1.265 -0.8988  1.2919 -1.3009
 5825SOL    MW423068   5.006   3.068   1.198  0.1394 -0.3166 -0.9047
 5826SOL     OW23069   2.719   2.868   4.164  0.0335 -0.2359  0.2783
 5826SOL    HW223070   2.753   2.834   4.081 -0.9149 -1.5060  0.3764
 5826SOL    HW323071   2.749   2.804   4.229  3.2858  2.1939  1.4738
 5826SOL    MW423072   2.728   2.855   4.162 -0.1979  0.2414 -0.0806
 5827SOL     OW23073   5.496   3.160   2.987  0.4238  0.2292 -0.3265
 5827SOL    HW223074   5.455   3.180   3.071 -0.0106  1.2913 -0.7681
 5827SOL    HW323075   5.556   3.234   2.972 -0.7715  0.9597 -1.7433
 5827SOL    MW423076   5.499   3.173   2.996 -0.3816  0.3517  0.2060
 5828SOL     OW23077   4.882   5.838   4.033  0.0546  0.3035 -0.6322
 5828SOL    HW223078   4.929   5.785   4.098 -1.6910 -0.4491  0.0865
 5828SOL    HW323079   4.950   5.870   3.974  1.3046 -1.8624 -0.4618
 5828SOL    MW423080   4.897   5.835   4.034 -0.6527  0.0498  0.0242
 5829SOL     OW23081   0.472   0.880   2.524  0.4736  0.1518  0.0669
 5829SOL    HW223082   0.565   0.877   2.500  0.6135  2.5656  0.0873
 5829SOL    HW323083   0.445   0.970   2.505 -1.8236 -0.4279  0.2790
 5829SOL    MW423084   0.481   0.892   2.518  0.2840 -0.0324 -0.6370
 5830SOL     OW23085   5.003   4.437   4.520  0.0466  0.1549 -0.0018
 5830SOL    HW223086   4.956   4.383   4.456  1.0584 -0.1754 -0.4863
 5830SOL    HW323087   5.087   4.393   4.531  0.4108  0.9664  0.5325
 5830SOL    MW423088   5.007   4.424   4.513  0.7040  0.5406 -0.2073
 5831SOL     OW23089   2.897   0.917   6.212  0.4395  0.3901 -0.1224
 5831SOL    HW223090   2.923   0.843   6.157 -2.2537 -1.1572  0.4592
 5831SOL    HW323091   2.909   0.994   6.156  2.9132 -0.4619 -0.9070
 5831SOL    MW423092   2.902   0.917   6.197  0.3198  0.1636 -0.2276
 5832SOL     OW23093   0.989   0.357   3.312  0.1079  0.1806  0.3927
 5832SOL    HW223094   0.973   0.436   3.261 -0.7253 -0.0252  0.3150
 5832SOL    HW323095   1.084   0.352   3.321  0.2610  0.3371 -0.9482
 5832SOL    MW423096   1.000   0.367   3.307  0.1223  0.1739  0.6497
 5833SOL     OW23097   4.661   4.153   1.605 -0.5552  0.4304 -0.0890
 5833SOL    HW223098   4.686   4.231   1.655  0.8644  1.1118 -1.7661
 5833SOL    HW323099   4.744   4.108   1.587 -1.3121 -1.3498  0.5846
 5833SOL    MW423100   4.675   4.157   1.609 -0.3570 -0.3667 -0.0424
 5834SOL     OW23101   5.404   4.064   1.701 -0.0788 -0.3797 -0.7653
 5834SOL    HW223102   5.428   4.142   1.750  1.4341 -0.5877 -1.1319
 5834SOL    HW323103   5.457   3.994   1.740  0.1686 -0.7967 -1.8303
 5834SOL    MW423104   5.414   4.065   1.713  0.1017 -0.2016 -0.1657
 5835SOL     OW23105   2.700   2.991   1.659 -0.1358  0.0117  0.0890
 5835SOL    HW223106   2.669   3.016   1.572 -1.4833 -0.1460  0.4968
 5835SOL    HW323107   2.746   2.909   1.646  1.4724  1.0041 -0.7678
 5835SOL    MW423108   2.702   2.984   1.646 -0.2422 -0.4476 -0.4834
 5836SOL     OW23109   3.958   5.708   5.437  0.0236  0.2052 -0.4146
 5836SOL    HW223110   4.028   5.722   5.500 -0.4482  0.3124  0.0982
 5836SOL    HW323111   3.987   5.753   5.358 -0.3696  2.0829  0.4399
 5836SOL    MW423112   3.971   5.716   5.435  0.2482  0.0005  0.4266
 5837SOL     OW23113   3.707   5.370   3.933  0.4486  0.2679  0.1032
 5837SOL    HW223114   3.685   5.335   4.019 -0.2819 -0.7253 -0.4710
 5837SOL    HW323115   3.782   5.319   3.905  0.1409 -0.0149 -0.2150
 5837SOL    MW423116   3.714   5.359   3.941 -0.0096 -0.4750 -0.9209
 5838SOL     OW23117   4.463   2.014   3.850 -0.5788  0.3896 -1.0827
 5838SOL    HW223118   4.545   2.043   3.809 -0.1254  0.7530  0.0274
 5838SOL    HW323119   4.411   1.979   3.778  0.3005  0.7346 -1.9111
 5838SOL    MW423120   4.467   2.014   3.835  0.3625 -0.1988 -0.0337
 5839SOL     OW23121   0.635   2.285   2.783  0.5682  0.4306 -0.5687
 5839SOL    HW223122   0.558   2.227   2.787 -2.2657  3.8861  1.3187
 5839SOL    HW323123   0.632   2.323   2.696 -0.0644  0.6683 -0.4553
 5839SOL    MW423124   0.624   2.282   2.772 -0.4327  0.3261  0.2247
 5840SOL     OW23125   5.439   5.743   2.325  0.4445 -0.0234 -0.0200
 5840SOL    HW223126   5.369   5.681   2.341  1.1852 -1.5492 -2.1830
 5840SOL    HW323127   5.396   5.820   2.289 -0.4122  0.5104  2.0235
 5840SOL    MW423128   5.424   5.745   2.322 -0.7712 -0.2292  0.0266
 5841SOL     OW23129   5.680   3.031   1.799  0.0724  0.0327  0.6999
 5841SOL    HW223130   5.740   2.960   1.774  1.3797  1.2583  0.2361
 5841SOL    HW323131   5.595   3.004   1.763  1.1008 -0.0548 -1.8201
 5841SOL    MW423132   5.677   3.018   1.791  0.0709 -0.1036  0.3055
 5842SOL     OW23133   4.786   1.968   0.357  0.1751  0.2065 -0.0254
 5842SOL    HW223134   4.774   1.873   0.346 -0.2804  0.3053 -0.4022
 5842SOL    HW323135   4.767   2.005   0.271  1.0984  0.5757 -0.0757
 5842SOL    MW423136   4.782   1.960   0.344 -0.3358  0.3028 -0.4807
 5843SOL     OW23137   2.727   5.159   5.750 -0.3081 -0.0838  0.2661
 5843SOL    HW223138   2.751   5.085   5.694 -0.0725  0.4232 -0.3181
 5843SOL    HW323139   2.731   5.235   5.692  1.5494  0.6990  1.3348
 5843SOL    MW423140   2.730   5.159   5.735 -0.5491  0.6007  0.8010
 5844SOL     OW23141   2.801   1.724   0.260 -0.3602 -0.5029 -0.7430
 5844SOL    HW223142   2.740   1.684   0.198 -0.3210 -0.4560 -0.8121
 5844SOL    HW323143   2.850   1.787   0.208  1.5401 -2.3388 -1.3008
 5844SOL    MW423144   2.800   1.727   0.245 -0.1119 -0.4486  0.4359
 5845SOL     OW23145   2.446   0.138   3.675  0.3120 -0.2269  0.1929
 5845SOL    HW223146   2.523   0.090   3.645 -0.2459 -1.5814  0.8334
 5845SOL    HW323147   2.408   0.175   3.595  0.3531 -1.4948 -0.4510
 5845SOL    MW423148   2.451   0.136   3.660 -0.3827 -0.5205  0.4560
 5846SOL     OW23149   3.640   1.674   4.727  0.4550 -0.4664 -0.3089
 5846SOL    HW223150   3.553   1.702   4.753 -0.0308 -0.7623 -1.5352
 5846SOL    HW323151   3.626   1.592   4.679  1.1138  0.6537 -2.5665
 5846SOL    MW423152   3.627   1.667   4.724  0.6317  0.3259  0.1257
 5847SOL     OW23153   1.659   5.969   5.395 -0.0222 -0.1902  0.0115
 5847SOL    HW223154   1.672   5.907   5.322 -0.6581 -1.1457  0.6819
 5847SOL    HW323155   1.728   6.033   5.384  2.0465 -2.2055  0.4975
 5847SOL    MW423156   1.669   5.969   5.384  0.1076  0.1215 -0.0366
 5848SOL     OW23157   2.540   2.200   4.942  0.0231  0.0035  0.1592
 5848SOL    HW223158   2.601   2.127   4.948 -0.9920 -1.1758 -2.2713
 5848SOL    HW323159   2.590   2.270   4.899  0.2762 -0.1689  0.1744
 5848SOL    MW423160   2.554   2.200   4.937 -0.0671 -0.0528 -0.8690
 5849SOL     OW23161   5.320   6.043   4.483 -0.5852 -0.0884  0.3381
 5849SOL    HW223162   5.384   6.112   4.465 -0.6830 -0.3411 -1.0646
 5849SOL    HW323163   5.361   5.989   4.550 -0.3964  1.1568  1.2754
 5849SOL    MW423164   5.334   6.045   4.490 -0.2208 -0.2819  0.8220
 5850SOL     OW23165   6.252   2.640   1.353  0.1207 -0.4030  0.4014
 5850SOL    HW223166   6.246   2.735   1.342  0.2692 -0.4485 -0.0891
 5850SOL    HW323167   6.321   2.613   1.292 -0.6943 -0.9630 -0.3034
 5850SOL    MW423168   6.260   2.649   1.343  0.6690 -0.0970 -0.3746
 5851SOL     OW23169   0.311   1.762   5.964 -0.1709  0.1760 -0.2199
 5851SOL    HW223170   0.218   1.738   5.959 -0.5610  1.2905  1.0367
 5851SOL    HW323171   0.324   1.821   5.890 -1.8084  3.9735  2.2212
 5851SOL    MW423172   0.300   1.767   5.954 -0.2856  0.7874  0.2740
 5852SOL     OW23173   3.959   2.854   6.295 -0.3206 -0.0732  0.5616
 5852SOL    HW223174   3.954   2.945   6.265  0.7100  0.0292  0.6649
 5852SOL    HW323175   4.053   2.837   6.305 -0.5537 -0.6343  2.1288
 5852SOL    MW423176   3.970   2.864   6.292  0.2803  0.0977  0.3048
 5853SOL     OW23177   6.092   4.915   2.793  0.1014  0.0449 -0.4236
 5853SOL    HW223178   6.042   4.991   2.822 -0.9782  0.1107 -2.3221
 5853SOL    HW323179   6.158   4.903   2.861 -1.1151  1.2895  1.0577
 5853SOL    MW423180   6.094   4.923   2.806 -0.2130 -0.4065  0.1996
 5854SOL     OW23181   1.777   0.963   3.190 -0.2953  0.6809 -0.2655
 5854SOL    HW223182   1.735   1.023   3.128 -1.5779  0.5878  0.4787
 5854SOL    HW323183   1.793   0.884   3.139 -0.4914  0.9325 -0.7252
 5854SOL    MW423184   1.773   0.960   3.175  0.1559  0.2735  0.0439
 5855SOL     OW23185   1.872   4.085   1.814 -0.0116  0.4592 -0.0509
 5855SOL    HW223186   1.952   4.053   1.856 -0.0588  0.6259  0.1615
 5855SOL    HW323187   1.802   4.065   1.876 -0.1512  0.2059 -0.2881
 5855SOL    MW423188   1.873   4.078   1.827  0.1603  0.1091 -0.9168
 5856SOL     OW23189   0.319   3.640   3.402  0.0216  0.4139  0.0835
 5856SOL    HW223190   0.402   3.667   3.363 -0.5216  0.9549 -0.7146
 5856SOL    HW323191   0.252   3.669   3.340 -0.7984  0.3656  0.9212
 5856SOL    MW423192   0.321   3.647   3.388  0.1491  0.3406 -0.0309
 5857SOL     OW23193   0.639   3.989   1.472 -0.0658  0.5254 -0.2968
 5857SOL    HW223194   0.733   4.003   1.471 -0.2325  1.9242 -2.1556
 5857SOL    HW323195   0.606   4.044   1.401 -2.0297 -1.6339 -1.1957
 5857SOL    MW423196   0.647   3.998   1.462  0.2249  0.2893 -0.5101
 5858SOL     OW23197   1.114   3.607   1.475 -0.0078 -0.0414  0.5125
 5858SOL    HW223198   1.180   3.674   1.488  1.9212 -1.8366  0.5269
 5858SOL    HW323199   1.031   3.654   1.480  1.1753  2.0811  1.9618
 5858SOL    MW423200   1.112   3.622   1.477 -0.2765  0.2184  0.3658
 5859SOL     OW23201   0.348   4.704   3.816  0.0574 -0.7175 -0.3395
 5859SOL    HW223202   0.441   4.727   3.824  0.1240 -1.4288  1.2635
 5859SOL    HW323203   0.329   4.715   3.722  1.5037  0.3351 -0.5507
 5859SOL    MW423204   0.358   4.709   3.804  0.1247 -0.6979  0.1570
 5860SOL     OW23205   4.272   2.649   6.065  0.8321 -0.3843 -0.8631
 5860SOL    HW223206   4.184   2.680   6.041  1.1950  0.8278 -0.7118
 5860SOL    HW323207   4.285   2.680   6.154  1.5892 -0.1645 -1.0459
 5860SOL    MW423208   4.262   2.657   6.073  0.5998 -0.0342 -0.1078
 5861SOL     OW23209   1.414   2.590   6.382  0.0980  0.0608 -0.5896
 5861SOL    HW223210   1.395   2.532   6.309 -0.2464 -2.3307  1.2714
 5861SOL    HW323211   1.495   2.634   6.358  1.2568 -2.3967 -1.4622
 5861SOL    MW423212   1.422   2.588   6.369 -0.0388 -0.1698  0.2208
 5862SOL     OW23213   1.839   5.720   4.345  0.2502  0.1948 -0.3835
 5862SOL    HW223214   1.849   5.764   4.261 -0.6401  0.4696 -0.3561
 5862SOL    HW323215   1.866   5.630   4.329 -0.4352  0.1130 -1.1023
 5862SOL    MW423216   1.844   5.714   4.332 -0.0946 -0.4202 -0.1762
 5863SOL     OW23217   1.241   1.169   1.757  0.2837  0.3878 -0.8990
 5863SOL    HW223218   1.189   1.233   1.806 -0.0311 -0.5075 -0.0313
 5863SOL    HW323219   1.308   1.221   1.713 -0.7997  1.4671 -1.3235
 5863SOL    MW423220   1.243   1.184   1.758 -0.2308  0.0320  0.1573
 5864SOL     OW23221   1.408   2.848   2.410 -0.2439  0.2996 -0.1742
 5864SOL    HW223222   1.476   2.916   2.411 -1.1548  1.2374  0.2058
 5864SOL    HW323223   1.361   2.861   2.492  0.0572 -1.3333  0.2890
 5864SOL    MW423224   1.411   2.859   2.421  0.1493  0.4464  0.0284
 5865SOL     OW23225   2.361   2.014   2.834  0.1400 -0.1108 -0.3826
 5865SOL    HW223226   2.293   1.983   2.774  0.5855 -0.8757 -0.5057
 5865SOL    HW323227   2.398   2.091   2.791  0.1187 -0.3649 -0.8628
 5865SOL    MW423228   2.357   2.020   2.821  0.1875  0.0039 -0.0335
 5866SOL     OW23229   3.455   1.347   0.103  0.4507 -0.2179  0.5175
 5866SOL    HW223230   3.407   1.426   0.125  1.3410  0.0462  1.5784
 5866SOL    HW323231   3.387   1.284   0.079 -0.2883  0.7341  0.0459
 5866SOL    MW423232   3.439   1.349   0.102  0.2780  0.0709  0.1108
 5867SOL     OW23233   0.987   3.443   1.815  0.1960  0.1964 -0.6230
 5867SOL    HW223234   1.009   3.371   1.874  0.8892 -0.0579 -1.1877
 5867SOL    HW323235   0.940   3.402   1.742 -1.7674  0.6588  0.2965
 5867SOL    MW423236   0.983   3.428   1.813  0.5041  0.3672  0.0411
 5868SOL     OW23237   3.678   0.165   3.774  0.0008 -0.2167  0.4164
 5868SOL    HW223238   3.702   0.237   3.833 -1.1912  1.8293 -1.4489
 5868SOL    HW323239   3.761   0.132   3.741  0.5523  0.8137  0.7232
 5868SOL    MW423240   3.692   0.170   3.778  0.6946  0.0776  0.0051
 5869SOL     OW23241   0.531   2.469   5.977 -0.0850  0.0350  0.7580
 5869SOL    HW223242   0.577   2.389   5.951  0.6705  0.5383  0.5289
 5869SOL    HW323243   0.438   2.444   5.976  0.0854 -0.6043 -0.1259
 5869SOL    MW423244   0.525   2.455   5.974  0.0197 -0.2904 -0.0062
 5870SOL     OW23245   2.219   4.835   1.615  0.0399 -0.2748 -0.2361
 5870SOL    HW223246   2.226   4.927   1.592  0.2929 -0.3354 -0.4072
 5870SOL    HW323247   2.126   4.815   1.603  0.2705 -0.4919 -2.0127
 5870SOL    MW423248   2.207   4.844   1.610 -0.2276  0.0816 -0.2326
 5871SOL     OW23249   5.016   0.238   0.512 -0.8151  0.5014  0.3483
 5871SOL    HW223250   5.066   0.313   0.480 -0.3558  0.0896  0.0846
 5871SOL    HW323251   5.041   0.231   0.605  2.9863 -2.2084 -0.6039
 5871SOL    MW423252   5.026   0.247   0.520  0.0671 -0.3600 -0.9033
 5872SOL     OW23253   3.298   4.509   2.698  0.3125  0.0463 -0.4357
 5872SOL    HW223254   3.287   4.591   2.746  1.4272  0.1791 -0.3801
 5872SOL    HW323255   3.209   4.474   2.689  0.0269  0.2782  1.2393
 5872SOL    MW423256   3.284   4.515   2.703 -0.0189 -0.1319  0.1032
 5873SOL     OW23257   3.766   6.025   5.954 -0.1674 -0.7714 -0.3129
 5873SOL    HW223258   3.832   5.959   5.973 -1.2605 -1.1304  2.6366
 5873SOL    HW323259   3.814   6.108   5.955  0.4252 -1.1132  0.7522
 5873SOL    MW423260   3.781   6.027   5.956  0.0258  0.0640  0.1485
 5874SOL     OW23261   4.925   2.606   5.701 -0.1547  0.9035 -0.2598
 5874SOL    HW223262   4.971   2.671   5.648  0.7138 -0.1805 -0.8938
 5874SOL    HW323263   4.880   2.550   5.638 -2.4485  1.9543  0.3492
 5874SOL    MW423264   4.925   2.607   5.686 -0.1573  0.1216  0.3513
 5875SOL     OW23265   3.787   0.085   2.403  0.0394 -0.2171  0.8740
 5875SOL    HW223266   3.708   0.060   2.449  0.6717 -1.8491  1.1418
 5875SOL    HW323267   3.853   0.022   2.432  1.2827  0.7163  0.1962
 5875SOL    MW423268   3.786   0.073   2.413 -0.1330 -1.0810 -0.3982
 5876SOL     OW23269   5.754   1.389   2.742 -0.0131 -0.7943  0.2437
 5876SOL    HW223270   5.687   1.454   2.761 -0.5366 -0.8728 -1.1657
 5876SOL    HW323271   5.705   1.312   2.712  0.7032 -0.6847 -1.3032
 5876SOL    MW423272   5.739   1.387   2.740 -0.0513  0.0945 -0.3137
 5877SOL     OW23273   6.329   5.942   0.896 -0.5161 -0.2939 -0.3852
 5877SOL    HW223274   6.237   5.932   0.871  0.0561 -1.4589 -2.2019
 5877SOL    HW323275   6.376   5.945   0.813  1.0748  0.6661  0.5112
 5877SOL    MW423276   6.323   5.941   0.882  0.2024  1.0034 -0.0937
 5878SOL     OW23277   6.086   3.430   5.300  0.4682 -0.1654 -0.0534
 5878SOL    HW223278   6.075   3.406   5.392  1.4594  1.2591  0.4780
 5878SOL    HW323279   6.009   3.484   5.280 -0.3355 -1.4001 -0.4343
 5878SOL    MW423280   6.074   3.434   5.309  0.1710 -0.1858  0.3618
 5879SOL     OW23281   0.891   1.725   3.592 -0.9856 -0.5020  0.0938
 5879SOL    HW223282   0.930   1.668   3.526  0.1607  0.0963  0.2173
 5879SOL    HW323283   0.949   1.717   3.668 -1.5800 -0.2186  0.5868
 5879SOL    MW423284   0.904   1.717   3.594  0.1172 -0.1822  0.3073
 5880SOL     OW23285   3.324   1.527   1.186  0.2292 -0.6714 -0.1068
 5880SOL    HW223286   3.319   1.521   1.091  2.2431 -1.4723 -0.2045
 5880SOL    HW323287   3.399   1.473   1.210  1.5114  1.7064  1.6839
 5880SOL    MW423288   3.333   1.519   1.177  0.3906  0.1779  0.2778
 5881SOL     OW23289   2.438   0.854   1.156  0.7395 -0.0046  0.0370
 5881SOL    HW223290   2.530   0.876   1.147  0.9600 -0.6288  0.6911
 5881SOL    HW323291   2.428   0.771   1.109  0.2127  0.7140 -1.1851
 5881SOL    MW423292   2.449   0.846   1.148  0.2667 -0.2825 -0.2277
 5882SOL     OW23293   0.723   4.290   4.966 -0.1314  0.0782 -0.4788
 5882SOL    HW223294   0.761   4.374   4.942  0.6617  0.3355  1.4960
 5882SOL    HW323295   0.629   4.304   4.963  0.0032  1.1951  0.3462
 5882SOL    MW423296   0.716   4.303   4.962 -0.3191 -0.4649 -0.6312
 5883SOL     OW23297   4.486   3.226   0.102 -0.3394  0.3147  0.3389
 5883SOL    HW223298   4.573   3.243   0.067  0.5096 -4.6461 -0.6783
 5883SOL    HW323299   4.483   3.278   0.183  2.7217  2.1578 -0.5423
 5883SOL    MW423300   4.497   3.235   0.108  0.3036  0.1109 -0.1794
 5884SOL     OW23301   2.634   2.605   3.012  0.1291  0.3751 -0.0658
 5884SOL    HW223302   2.624   2.582   2.919  0.1647  1.2057 -0.2919
 5884SOL    HW323303   2.561   2.563   3.056 -0.8050  1.2629 -0.7282
 5884SOL    MW423304   2.623   2.597   3.005  0.2470 -0.0900  0.2318
 5885SOL     OW23305   0.595   1.934   4.797  0.1572  0.3959  0.3871
 5885SOL    HW223306   0.559   2.003   4.852  2.1656 -0.0115  2.3031
 5885SOL    HW323307   0.585   1.854   4.849  1.0338 -0.1978 -0.3344
 5885SOL    MW423308   0.589   1.933   4.811  0.1691  0.0092  0.2633
 5886SOL     OW23309   3.605   4.602   1.821  0.1237  0.3495 -0.6799
 5886SOL    HW223310   3.539   4.602   1.891  0.2300 -2.1708 -0.4760
 5886SOL    HW323311   3.556   4.622   1.741 -0.2601  1.8129 -0.0978
 5886SOL    MW423312   3.590   4.604   1.820  0.5024 -0.2290 -0.2937
 5887SOL     OW23313   5.979   4.788   5.364 -0.2347  0.4605 -0.3152
 5887SOL    HW223314   6.045   4.726   5.335  2.0133  2.5643 -0.0361
 5887SOL    HW323315   5.908   4.780   5.300 -0.8673 -3.4247  0.6000
 5887SOL    MW423316   5.978   4.779   5.352 -0.6042 -0.0805 -0.3095
 5888SOL     OW23317   2.233   3.786   2.404  0.7353 -0.5636  0.1230
 5888SOL    HW223318   2.218   3.784   2.310  2.5310 -2.1854 -0.1848
 5888SOL    HW323319   2.181   3.714   2.439  0.3014 -0.1460  0.3608
 5888SOL    MW423320   2.224   3.776   2.396  0.3512  0.1151  0.1133
 5889SOL     OW23321   4.136   3.488   4.818 -0.9031  0.0461  0.4873
 5889SOL    HW223322   4.107   3.564   4.869 -0.6675  0.5445 -0.1112
 5889SOL    HW323323   4.210   3.521   4.766  0.4991 -1.0760  1.6600
 5889SOL    MW423324   4.142   3.503   4.818 -0.0354  0.7759  0.5004
 5890SOL     OW23325   0.616   3.213   1.791  0.0727  0.2438 -0.3379
 5890SOL    HW223326   0.544   3.275   1.785  0.6437  1.0883  1.0474
 5890SOL    HW323327   0.666   3.242   1.868  1.2499 -0.9838 -0.6102
 5890SOL    MW423328   0.613   3.225   1.801 -0.2262  0.0718  0.3362
 5891SOL     OW23329   4.441   3.298   5.895 -0.3620 -0.0876 -0.4094
 5891SOL    HW223330   4.517   3.336   5.851 -0.0842  1.6333  1.4173
 5891SOL    HW323331   4.368   3.318   5.836  0.2127  0.7183 -0.8775
 5891SOL    MW423332   4.441   3.305   5.881 -0.1617 -0.5141  0.6529
 5892SOL     OW23333   0.566   6.246   6.279  0.3520  0.1689  0.5704
 5892SOL    HW223334   0.595   6.225   6.368  0.6284  1.9428  0.9320
 5892SOL    HW323335   0.500   6.313   6.291  1.0070  1.0537 -0.5998
 5892SOL    MW423336   0.561   6.252   6.293  0.2051 -0.9307 -0.1415
 5893SOL     OW23337   4.573   0.727   2.484 -0.2193 -0.2286  0.4677
 5893SOL    HW223338   4.638   0.674   2.532  1.6607  1.5376  0.0168
 5893SOL    HW323339   4.617   0.749   2.402 -1.6293  0.5635 -0.0981
 5893SOL    MW423340   4.587   0.723   2.480  0.3699 -0.6711  0.3226
 5894SOL     OW23341   6.111   0.300   3.626 -0.3482 -0.2411  0.0030
 5894SOL    HW223342   6.043   0.234   3.632  0.0587 -0.9818 -2.3204
 5894SOL    HW323343   6.191   0.251   3.607  0.2622  0.8098 -0.2280
 5894SOL    MW423344   6.112   0.285   3.624 -0.0278  0.7828  0.0315
 5895SOL     OW23345   0.449   5.828   3.500 -0.2854  0.1178 -0.3659
 5895SOL    HW223346   0.490   5.876   3.429 -0.2522 -0.4804 -0.7585
 5895SOL    HW323347   0.495   5.744   3.501 -1.8292 -0.7736 -1.1561
 5895SOL    MW423348   0.461   5.823   3.491 -0.4872  0.0917 -0.4674
 5896SOL     OW23349   1.671   0.621   2.396 -0.2683  0.5231  0.0491
 5896SOL    HW223350   1.600   0.645   2.336 -0.1197  1.7784  0.3580
 5896SOL    HW323351   1.746   0.603   2.339 -0.5124  0.3509 -0.2169
 5896SOL    MW423352   1.672   0.622   2.380  0.6449 -0.2217 -0.0913
 5897SOL     OW23353   5.694   1.158   2.226  0.4148 -0.2245  0.1676
 5897SOL    HW223354   5.685   1.253   2.240 -0.7350 -0.3131  0.0885
 5897SOL    HW323355   5.757   1.151   2.154  1.3599  0.4333  0.8972
 5897SOL    MW423356   5.701   1.170   2.218  0.2063 -0.0069  0.3252
 5898SOL     OW23357   2.970   5.554   6.270 -0.3763 -0.4497  0.2405
 5898SOL    HW223358   2.914   5.529   6.197  0.6525 -0.8987 -0.4132
 5898SOL    HW323359   2.929   5.513   6.347  0.8373 -3.7071 -0.6760
 5898SOL    MW423360   2.957   5.545   6.271 -0.3425  0.1258 -0.3031
 5899SOL     OW23361   0.673   3.794   2.419  0.1014  0.0881  0.1645
 5899SOL    HW223362   0.702   3.874   2.462 -1.5546  0.9976 -0.3410
 5899SOL    HW323363   0.613   3.754   2.482 -1.3830  0.8021 -0.7498
 5899SOL    MW423364   0.669   3.799   2.433 -0.1207 -0.3457  0.5385
 5900SOL     OW23365   0.243   2.175   3.014 -0.5456  0.1655  0.4095
 5900SOL    HW223366   0.202   2.218   2.939  2.4147  2.0189 -0.3059
 5900SOL    HW323367   0.189   2.098   3.030 -2.1165  0.4601 -2.6992
 5900SOL    MW423368   0.230   2.171   3.006  0.7434 -0.1366 -0.5576
 5901SOL     OW23369   3.974   2.381   6.332 -0.1714  0.1330  0.1698
 5901SOL    HW223370   3.907   2.358   6.268 -0.3371  1.4070 -0.1281
 5901SOL    HW323371   4.014   2.461   6.299  0.6864  0.0550  0.9597
 5901SOL    MW423372   3.970   2.389   6.319 -0.2224 -0.1779 -0.1051
 5902SOL     OW23373   5.267   3.279   2.388  0.3851  0.0199 -0.2664
 5902SOL    HW223374   5.306   3.195   2.364 -0.2660  0.0189 -1.3860
 5902SOL    HW323375   5.278   3.284   2.483  3.1100  0.0324 -0.4894
 5902SOL    MW423376   5.274   3.269   2.397 -0.3553  0.1314  0.4753
 5903SOL     OW23377   4.378   3.303   1.416 -0.3039  0.2970  0.5999
 5903SOL    HW223378   4.329   3.359   1.475 -0.1820 -0.5507  1.5443
 5903SOL    HW323379   4.462   3.289   1.460 -0.1638 -0.2551  0.1804
 5903SOL    MW423380   4.383   3.308   1.429 -0.2335 -0.2497 -0.1164
 5904SOL     OW23381   2.611   1.864   0.407  0.0975 -0.3298 -0.0212
 5904SOL    HW223382   2.692   1.841   0.362 -0.2401 -0.1408 -0.7432
 5904SOL    HW323383   2.631   1.946   0.453  0.4585 -0.5493  0.2135
 5904SOL    MW423384   2.624   1.872   0.407 -0.7267 -0.4117 -0.7319
 5905SOL     OW23385   0.570   0.349   5.381 -0.2190  0.2732  1.6007
 5905SOL    HW223386   0.511   0.278   5.357  2.9354 -1.7163 -0.9868
 5905SOL    HW323387   0.557   0.415   5.312  0.1239  0.1394  1.4100
 5905SOL    MW423388   0.560   0.349   5.369 -0.5316 -0.0745 -0.0442
 5906SOL     OW23389   0.416   1.421   2.266 -0.0450  0.6979 -0.2124
 5906SOL    HW223390   0.379   1.433   2.353  1.2751  0.2472  0.4368
 5906SOL    HW323391   0.504   1.459   2.272  1.7465 -3.0698 -0.0390
 5906SOL    MW423392   0.423   1.428   2.278  0.0965  0.3152  0.1364
 5907SOL     OW23393   5.013   0.497   5.004  0.1621  0.2062  0.1556
 5907SOL    HW223394   5.030   0.445   5.083 -1.9150  0.1294  0.6169
 5907SOL    HW323395   5.069   0.457   4.937 -0.2159 -1.6732  0.8829
 5907SOL    MW423396   5.023   0.485   5.005  0.6148 -0.1599  0.2179
 5908SOL     OW23397   1.803   1.795   1.770  0.1499  0.3090  0.1166
 5908SOL    HW223398   1.837   1.842   1.694  0.4511 -1.4017 -0.8370
 5908SOL    HW323399   1.749   1.725   1.734  1.4511 -1.4459  1.3745
 5908SOL    MW423400   1.800   1.792   1.755  0.0855  0.0676  0.6765
 5909SOL     OW23401   4.664   3.944   0.881 -0.3487 -0.6165 -0.0776
 5909SOL    HW223402   4.616   4.026   0.887 -1.2236 -1.1274  0.1029
 5909SOL    HW323403   4.607   3.879   0.921  1.6980 -0.7704  2.8918
 5909SOL    MW423404   4.650   3.946   0.887  0.3139 -0.1819 -1.0295
 5910SOL     OW23405   6.010   2.632   0.300 -0.1755 -0.4409  0.6350
 5910SOL    HW223406   6.035   2.626   0.392  1.3970 -0.3720  0.2426
 5910SOL    HW323407   6.052   2.713   0.269 -0.7705 -0.4111 -0.1158
 5910SOL    MW423408   6.019   2.642   0.308  0.0101 -0.5552  0.3881
 5911SOL     OW23409   0.900   2.999   0.009  0.2028 -0.0758 -0.0738
 5911SOL    HW223410   0.883   2.905   0.021  0.4195 -0.1481 -0.3260
 5911SOL    HW323411   0.813   3.039   0.010  0.1787  0.2708  4.3363
 5911SOL    MW423412   0.886   2.992   0.011 -0.3814 -0.3555 -0.0145
 5912SOL     OW23413   5.004   3.285   2.350 -0.1998 -0.2693  0.1391
 5912SOL    HW223414   4.990   3.212   2.291 -0.3933 -0.7787  0.7999
 5912SOL    HW323415   5.099   3.292   2.357 -0.1438  0.4942 -1.0613
 5912SOL    MW423416   5.015   3.276   2.343  0.2400 -0.4436  0.0517
 5913SOL     OW23417   4.712   3.483   1.571 -1.0271 -0.6578  0.1475
 5913SOL    HW223418   4.673   3.397   1.586 -1.7674 -0.6501 -1.4702
 5913SOL    HW323419   4.744   3.479   1.480  1.2224 -0.0784  0.8498
 5913SOL    MW423420   4.711   3.471   1.561  0.7596  0.1052  0.3463
 5914SOL     OW23421   5.040   4.515   6.180  0.4842  0.2216  0.4923
 5914SOL    HW223422   5.105   4.506   6.110 -0.8633 -1.0185 -0.6771
 5914SOL    HW323423   5.089   4.496   6.260  1.5377 -0.7935 -0.3510
 5914SOL    MW423424   5.055   4.511   6.181  0.0531  0.5675 -0.3285
 5915SOL     OW23425   1.092   0.611   4.518 -0.3936  0.4097  0.1899
 5915SOL    HW223426   1.185   0.619   4.539 -0.4917 -1.9025  1.9008
 5915SOL    HW323427   1.047   0.659   4.588 -0.5309 -0.5124  0.7429
 5915SOL    MW423428   1.098   0.619   4.530  0.3000  0.7010  0.2866
 5916SOL     OW23429   6.383   3.444   0.954  0.4206  0.0446  0.4078
 5916SOL    HW223430   6.350   3.362   0.990 -1.0144 -0.1744 -1.2921
 5916SOL    HW323431   6.460   3.419   0.903 -0.4683 -0.4163 -0.7598
 5916SOL    MW423432   6.389   3.430   0.952  0.1715 -0.5904  0.1451
 5917SOL     OW23433   4.452   3.200   2.184  0.3109  0.3720 -0.2686
 5917SOL    HW223434   4.432   3.107   2.192  0.0180  0.5184  0.9029
 5917SOL    HW323435   4.532   3.203   2.132  0.1225 -0.5096 -0.6225
 5917SOL    MW423436   4.460   3.188   2.178 -0.0442  0.0117 -0.5058
 5918SOL     OW23437   1.869   4.415   6.345 -0.1023 -0.4320  0.2234
 5918SOL    HW223438   1.789   4.385   6.301  0.9536 -2.1226 -0.6742
 5918SOL    HW323439   1.922   4.336   6.353  2.7907  1.0736 -2.0642
 5918SOL    MW423440   1.866   4.401   6.340 -1.1571 -0.3852  0.2805
 5919SOL     OW23441   3.699   3.908   2.290 -0.1129  0.2405  0.8587
 5919SOL    HW223442   3.669   3.999   2.291 -0.3179  0.2014 -0.3489
 5919SOL    HW323443   3.787   3.911   2.328  0.1815  1.0610  0.1355
 5919SOL    MW423444   3.707   3.921   2.295  0.7000  0.7445  0.6924
 5920SOL     OW23445   4.892   0.643   5.410  0.5747 -0.0807  0.7127
 5920SOL    HW223446   4.982   0.620   5.387  0.2457  0.5303 -1.3601
 5920SOL    HW323447   4.871   0.586   5.484  2.2286 -1.1285  0.4228
 5920SOL    MW423448   4.901   0.633   5.417  0.4326  0.1199 -0.5202
 5921SOL     OW23449   5.087   5.355   2.918 -0.3488  0.4086  0.1697
 5921SOL    HW223450   5.133   5.319   2.843 -0.5119 -1.3917  0.8835
 5921SOL    HW323451   5.004   5.387   2.882 -0.4266 -0.4399 -0.4421
 5921SOL    MW423452   5.082   5.354   2.904 -0.4254  0.2318 -0.2340
 5922SOL     OW23453   5.672   0.458   3.336 -0.0173  0.0360 -0.1026
 5922SOL    HW223454   5.695   0.387   3.395 -1.4623  1.5841  2.4845
 5922SOL    HW323455   5.593   0.497   3.374 -0.7739  1.4521 -2.8225
 5922SOL    MW423456   5.664   0.454   3.349 -0.1171  0.3587  0.1261
 5923SOL     OW23457   2.111   2.414   3.984 -0.0437 -0.9380 -0.2447
 5923SOL    HW223458   2.119   2.509   3.989  1.0357 -0.8252 -2.5986
 5923SOL    HW323459   2.017   2.398   3.973 -0.3140 -0.2184  0.9148
 5923SOL    MW423460   2.100   2.425   3.983 -0.1898  0.1510 -0.4428
 5924SOL     OW23461   2.041   0.748   1.511 -0.4164 -0.2384 -0.4681
 5924SOL    HW223462   2.059   0.785   1.424 -0.4019  0.5287 -0.1437
 5924SOL    HW323463   1.946   0.740   1.515 -0.5825  1.6323  0.1943
 5924SOL    MW423464   2.031   0.752   1.500 -0.5357 -0.7094  0.4335
 5925SOL     OW23465   3.957   5.968   1.236 -0.4407 -0.0013  0.4149
 5925SOL    HW223466   4.002   5.908   1.296  0.4995 -0.2981 -0.5749
 5925SOL    HW323467   3.865   5.939   1.239 -0.0590 -1.3126  0.1862
 5925SOL    MW423468   3.951   5.956   1.245  0.0859 -0.0065  0.0721
 5926SOL     OW23469   5.339   0.162   0.331 -0.2363  0.4202 -0.6847
 5926SOL    HW223470   5.415   0.219   0.344 -0.6113  1.0659 -1.2477
 5926SOL    HW323471   5.302   0.152   0.419  0.8198 -0.3915 -0.3005
 5926SOL    MW423472   5.344   0.168   0.344 -0.5133  0.2469 -0.1180
 5927SOL     OW23473   3.325   1.071   5.042  0.3020 -0.2971 -0.4071
 5927SOL    HW223474   3.400   1.019   5.015  0.4186 -1.6203  2.1829
 5927SOL    HW323475   3.352   1.112   5.124 -0.9935  1.1142 -0.6512
 5927SOL    MW423476   3.338   1.069   5.049 -0.5224 -0.4608  0.1634
 5928SOL     OW23477   3.721   1.391   2.217  0.4649 -0.1663  0.2841
 5928SOL    HW223478   3.729   1.485   2.231 -0.8319 -0.1268  1.0041
 5928SOL    HW323479   3.804   1.364   2.178 -1.1030  2.2233 -5.7675
 5928SOL    MW423480   3.733   1.400   2.214  0.3908  0.1688 -0.1701
 5929SOL     OW23481   6.277   2.810   1.961 -0.0016  0.0042 -0.5412
 5929SOL    HW223482   6.350   2.824   2.020  1.8070 -1.5130 -2.2748
 5929SOL    HW323483   6.245   2.722   1.983 -1.6469  0.8015  0.4721
 5929SOL    MW423484   6.282   2.800   1.972 -0.5276  0.3651 -0.5420
 5930SOL     OW23485   5.752   6.080   0.512  0.3732 -0.8300 -0.2734
 5930SOL    HW223486   5.840   6.117   0.522 -0.0768 -0.0108  0.8769
 5930SOL    HW323487   5.756   6.032   0.430  1.6483 -0.0808 -0.6889
 5930SOL    MW423488   5.765   6.079   0.503  0.2272 -0.4760  0.2515
 5931SOL     OW23489   3.210   4.565   0.840  0.3202 -0.0235 -0.4098
 5931SOL    HW223490   3.206   4.523   0.755  1.2346  0.1708 -0.5553
 5931SOL    HW323491   3.246   4.498   0.899 -0.8725 -0.3628 -0.0256
 5931SOL    MW423492   3.214   4.551   0.837  0.1994 -0.1508  0.2350
 5932SOL     OW23493   4.046   0.885   4.736  0.6059 -0.3756 -0.3436
 5932SOL    HW223494   3.999   0.859   4.814  0.0837 -1.2062 -0.9243
 5932SOL    HW323495   4.110   0.950   4.767 -2.2188  2.3954  0.1914
 5932SOL    MW423496   4.048   0.890   4.750 -0.0695 -0.1046  0.0858
 5933SOL     OW23497   2.257   2.231   0.222  0.2706  0.5444  0.1031
 5933SOL    HW223498   2.244   2.147   0.266 -2.3747 -0.1023 -1.6808
 5933SOL    HW323499   2.169   2.265   0.207  1.0735  1.6866 -2.7848
 5933SOL    MW423500   2.244   2.225   0.226  0.3805  0.9308 -0.2946
 5934SOL     OW23501   1.135   4.915   0.081  0.6630  0.1687 -0.0678
 5934SOL    HW223502   1.223   4.923   0.118 -0.1088  0.0700  1.8996
 5934SOL    HW323503   1.133   4.827   0.043  1.1886 -0.0986  0.5039
 5934SOL    MW423504   1.147   4.905   0.080  0.3902 -0.5511 -0.0229
 5935SOL     OW23505   0.206   4.621   2.103 -0.5234 -0.2424  0.4821
 5935SOL    HW223506   0.290   4.577   2.119  0.1536  0.6540 -0.4389
 5935SOL    HW323507   0.140   4.559   2.134  0.1461 -3.5510 -3.6886
 5935SOL    MW423508   0.208   4.607   2.109  0.1397  0.1184 -0.1821
 5936SOL     OW23509   0.559   0.143   2.049 -0.1208  0.1947  0.2794
 5936SOL    HW223510   0.489   0.153   1.984 -0.6315  1.9282  1.0416
 5936SOL    HW323511   0.520   0.093   2.120  0.0692 -0.6478 -0.1983
 5936SOL    MW423512   0.545   0.138   2.050 -0.6245 -0.2119  0.2966
 5937SOL     OW23513   4.425   3.565   0.467  0.9424  0.0204 -0.1391
 5937SOL    HW223514   4.358   3.610   0.519  0.3020  1.8938 -2.4173
 5937SOL    HW323515   4.449   3.628   0.399  3.4417 -1.4446 -0.7353
 5937SOL    MW423516   4.419   3.579   0.465 -0.3534 -0.1096 -0.4473
 5938SOL     OW23517   2.137   5.641   1.919  0.0451  0.7279  0.7208
 5938SOL    HW223518   2.145   5.730   1.954  0.9432  0.9293  0.0304
 5938SOL    HW323519   2.144   5.651   1.824  0.4625 -0.1080  0.6533
 5938SOL    MW423520   2.139   5.654   1.911  0.4700  0.2128  0.5777
 5939SOL     OW23521   3.271   1.837   4.004 -0.0006  0.2131 -0.7280
 5939SOL    HW223522   3.190   1.887   4.009 -1.1192 -1.5058 -0.6294
 5939SOL    HW323523   3.246   1.748   4.028  2.2563 -0.0627  0.9666
 5939SOL    MW423524   3.257   1.832   4.008 -0.4063  0.0394 -0.5411
 5940SOL     OW23525   1.619   4.750   0.854  0.5069  0.6109  0.1021
 5940SOL    HW223526   1.605   4.843   0.841  0.1583  0.3463 -1.7311
 5940SOL    HW323527   1.531   4.714   0.870  0.3346  0.3440 -1.2870
 5940SOL    MW423528   1.605   4.757   0.854  0.2244 -0.0966  0.3870
 5941SOL     OW23529   5.217   4.958   5.763 -0.0644 -0.1738 -0.4182
 5941SOL    HW223530   5.159   4.954   5.840 -0.8809  1.5323 -0.8887
 5941SOL    HW323531   5.305   4.965   5.799 -0.3613 -0.3321  0.3569
 5941SOL    MW423532   5.221   4.959   5.778 -0.3145  0.5312 -0.1395
 5942SOL     OW23533   0.466   3.751   0.215  0.2657 -0.1249 -0.1048
 5942SOL    HW223534   0.443   3.691   0.285 -0.0041 -1.0222 -0.9395
 5942SOL    HW323535   0.550   3.720   0.182  0.9715  0.9929  0.5596
 5942SOL    MW423536   0.474   3.739   0.220  0.0381  0.2019 -0.1300
 5943SOL     OW23537   0.305   5.397   5.550  0.2036  0.0064 -0.0546
 5943SOL    HW223538   0.256   5.399   5.468 -1.2772 -0.2555  0.7834
 5943SOL    HW323539   0.282   5.479   5.594  0.8768  0.0853  0.1692
 5943SOL    MW423540   0.296   5.408   5.545 -0.5803  0.2479  0.2126
 5944SOL     OW23541   1.529   0.881   4.430  0.5344  0.2372  0.0843
 5944SOL    HW223542   1.526   0.791   4.462  2.9288  0.2544  0.4988
 5944SOL    HW323543   1.490   0.932   4.501  0.6212 -0.3129  0.5424
 5944SOL    MW423544   1.523   0.876   4.444  0.3353  0.6627 -0.1168
 5945SOL     OW23545   1.790   6.196   3.599  0.2656  0.3263 -0.4282
 5945SOL    HW223546   1.747   6.147   3.529 -1.4555 -1.2887  1.6097
 5945SOL    HW323547   1.848   6.131   3.640  0.9812  1.1462 -0.1188
 5945SOL    MW423548   1.792   6.181   3.595  0.2485  0.7071  0.4911
 5946SOL     OW23549   2.136   0.286   6.089 -0.0085 -0.1309 -0.0122
 5946SOL    HW223550   2.070   0.217   6.088 -1.6187  1.3351  0.5624
 5946SOL    HW323551   2.092   0.363   6.054  1.9699  0.4743 -1.3813
 5946SOL    MW423552   2.122   0.287   6.084 -0.8993 -0.3059  0.1392
 5947SOL     OW23553   5.790   3.810   4.388  0.5315  0.5869 -0.0941
 5947SOL    HW223554   5.831   3.859   4.459 -1.7329  0.9460  1.0625
 5947SOL    HW323555   5.708   3.778   4.425 -0.3100  0.0072 -2.2890
 5947SOL    MW423556   5.784   3.812   4.402 -0.2402 -0.0847 -0.0716
 5948SOL     OW23557   5.563   1.466   1.736 -0.0996 -0.3216  0.6728
 5948SOL    HW223558   5.498   1.406   1.701 -1.4792  1.0211  0.8306
 5948SOL    HW323559   5.605   1.504   1.659 -1.1933  0.5636  0.4869
 5948SOL    MW423560   5.560   1.463   1.721 -0.2670 -0.3686 -0.2565
 5949SOL     OW23561   5.643   4.109   2.022  0.0029 -0.2614 -0.1154
 5949SOL    HW223562   5.593   4.165   1.964  0.1525  0.7066  0.6568
 5949SOL    HW323563   5.731   4.107   1.984  0.9330  2.7632  1.5164
 5949SOL    MW423564   5.648   4.116   2.009  0.8107 -0.1495 -0.0065
 5950SOL     OW23565   3.707   4.702   0.656 -0.8699 -0.2259  0.1468
 5950SOL    HW223566   3.757   4.625   0.633  0.5740  1.2093 -1.8159
 5950SOL    HW323567   3.639   4.670   0.716  0.4583 -2.7436  0.4075
 5950SOL    MW423568   3.705   4.688   0.661  0.2187 -0.2186  0.4135
 5951SOL     OW23569   4.678   2.202   2.836  0.4813  0.2845 -0.3857
 5951SOL    HW223570   4.600   2.251   2.861  0.7981  0.9632 -0.7020
 5951SOL    HW323571   4.739   2.214   2.909  0.4651  0.1385 -0.3463
 5951SOL    MW423572   4.676   2.210   2.849 -0.0758  0.8723 -0.7333
 5952SOL     OW23573   5.908   4.051   2.606  0.3718  0.0695  0.7837
 5952SOL    HW223574   5.966   4.090   2.672 -0.1376 -0.5619  1.6217
 5952SOL    HW323575   5.905   3.958   2.629  1.8143 -0.5970 -1.3548
 5952SOL    MW423576   5.916   4.044   2.617  0.3032  0.5474  0.4808
 5953SOL     OW23577   0.576   0.076   3.476 -0.2572  0.5329  0.4820
 5953SOL    HW223578   0.628  -0.003   3.462  1.8651  2.1654 -1.8967
 5953SOL    HW323579   0.589   0.099   3.568  0.2824 -1.0522  0.8183
 5953SOL    MW423580   0.584   0.069   3.486 -0.1848 -0.0278  0.2337
 5954SOL     OW23581   0.256   1.767   4.687 -0.0747  0.3279 -0.1993
 5954SOL    HW223582   0.319   1.705   4.649  0.6630  1.0915 -0.2441
 5954SOL    HW323583   0.299   1.852   4.681  0.1672  0.4825  2.5078
 5954SOL    MW423584   0.270   1.770   4.681 -0.0100  0.4289 -0.5958
 5955SOL     OW23585   5.439   5.542   0.870 -0.1518 -0.3704  0.0794
 5955SOL    HW223586   5.494   5.617   0.890 -0.2425  0.0056 -1.0306
 5955SOL    HW323587   5.480   5.469   0.916 -0.2321  0.3943  1.4317
 5955SOL    MW423588   5.451   5.542   0.879  0.5916 -0.0236 -0.2395
 5956SOL     OW23589   5.669   0.925   4.513 -0.3367  0.3020 -0.1952
 5956SOL    HW223590   5.728   0.982   4.464 -0.6730 -0.0130 -0.9770
 5956SOL    HW323591   5.581   0.955   4.490 -0.5017 -0.0284 -0.0051
 5956SOL    MW423592   5.665   0.937   4.504 -0.1935  0.7724  0.2341
 5957SOL     OW23593   3.735   4.722   1.473 -0.2383 -0.7119 -0.3665
 5957SOL    HW223594   3.657   4.707   1.526  0.4256 -0.9709  0.5606
 5957SOL    HW323595   3.703   4.767   1.395 -1.3177 -0.8696 -0.0279
 5957SOL    MW423596   3.721   4.726   1.469 -0.0567  0.4821 -0.3289
 5958SOL     OW23597   4.564   4.841   4.678 -0.0329 -0.0886  0.5879
 5958SOL    HW223598   4.657   4.852   4.699  0.5662 -2.8345 -0.1773
 5958SOL    HW323599   4.521   4.833   4.763  0.2976  1.7300  0.9686
 5958SOL    MW423600   4.571   4.841   4.692  0.1852  0.6345 -0.2757
 5959SOL     OW23601   5.045   5.223   2.544  0.1264 -0.5347  0.4650
 5959SOL    HW223602   4.958   5.186   2.554  0.1845 -0.2062  2.4435
 5959SOL    HW323603   5.096   5.187   2.617  1.6900 -0.7567 -0.6638
 5959SOL    MW423604   5.040   5.213   2.555  0.6077  0.1071  0.6041
 5960SOL     OW23605   3.156   4.521   0.084 -0.3895  0.2152  0.5774
 5960SOL    HW223606   3.062   4.527   0.104 -0.1202  2.7749  1.5164
 5960SOL    HW323607   3.183   4.612   0.070  1.6882 -0.5800 -1.0814
 5960SOL    MW423608   3.147   4.534   0.085 -0.0980 -0.3164  0.3335
 5961SOL     OW23609   2.566   0.455   5.432  0.6168 -0.8339  0.2347
 5961SOL    HW223610   2.660   0.473   5.431  0.5767 -0.5372  1.0691
 5961SOL    HW323611   2.527   0.534   5.470 -0.2159  0.0972 -2.3543
 5961SOL    MW423612   2.573   0.468   5.437 -0.1364 -0.2447 -0.1577
 5962SOL     OW23613   2.709   1.761   4.623  0.3273 -0.4953  0.1541
 5962SOL    HW223614   2.713   1.855   4.605  1.9883 -0.5083  0.3049
 5962SOL    HW323615   2.793   1.740   4.664 -0.2217 -1.9573  0.6213
 5962SOL    MW423616   2.721   1.771   4.626  0.0906  0.2479 -0.2215
 5963SOL     OW23617   1.200   1.322   1.259  0.1152 -0.0846  0.3730
 5963SOL    HW223618   1.154   1.287   1.182  1.3079  0.5516 -0.6792
 5963SOL    HW323619   1.199   1.417   1.245  1.1200 -0.0228  0.6944
 5963SOL    MW423620   1.194   1.330   1.247  0.1603 -0.3658 -0.0516
 5964SOL     OW23621   3.271   4.936   4.964 -0.4436  0.0641  0.3921
 5964SOL    HW223622   3.202   4.902   4.907 -0.8604 -0.7131  1.3384
 5964SOL    HW323623   3.332   4.863   4.975 -0.2235  0.2949  0.7290
 5964SOL    MW423624   3.270   4.922   4.958 -0.0039  0.5400  0.2117
 5965SOL     OW23625   5.585   3.901   2.223 -0.1487  0.0242  0.3825
 5965SOL    HW223626   5.618   3.951   2.148 -0.5889  0.0484  0.2012
 5965SOL    HW323627   5.578   3.811   2.191 -0.1853  0.0057  0.4416
 5965SOL    MW423628   5.588   3.896   2.209  0.0720  0.6971 -0.0998
 5966SOL     OW23629   0.375   5.560   3.104 -0.3128  0.0526 -0.5800
 5966SOL    HW223630   0.459   5.592   3.071  1.4655 -2.0219  1.5320
 5966SOL    HW323631   0.368   5.596   3.192 -0.9755 -0.8616 -0.2431
 5966SOL    MW423632   0.385   5.569   3.111  0.1961  0.1181 -0.1989
 5967SOL     OW23633   0.177   6.190   4.582  0.0230 -0.1282 -0.0239
 5967SOL    HW223634   0.145   6.101   4.589  1.6247 -0.6669  0.9381
 5967SOL    HW323635   0.226   6.205   4.662  0.5342  1.3099 -0.5632
 5967SOL    MW423636   0.179   6.180   4.593 -0.6552 -0.0849 -0.2282
 5968SOL     OW23637   2.007   1.032   0.954  0.3532  0.2296 -0.3038
 5968SOL    HW223638   2.087   0.998   0.993 -0.9509 -2.0650  0.5865
 5968SOL    HW323639   2.000   0.987   0.870  0.3071  0.8814 -0.6517
 5968SOL    MW423640   2.016   1.021   0.948 -0.0765  0.7090  0.1193
 5969SOL     OW23641   0.439   6.186   2.050  0.3648 -0.4663  0.1065
 5969SOL    HW223642   0.462   6.112   2.106  0.4338 -0.0197  0.6730
 5969SOL    HW323643   0.514   6.198   1.992  0.4578 -0.6732  0.1863
 5969SOL    MW423644   0.452   6.178   2.050  0.2083 -0.4493  0.0929
 5970SOL     OW23645   2.061   2.575   1.079  0.1321  0.4359  0.4704
 5970SOL    HW223646   2.038   2.579   0.986  1.2126 -0.8786  0.1193
 5970SOL    HW323647   1.981   2.545   1.122 -0.6409  1.8821  0.1046
 5970SOL    MW423648   2.047   2.571   1.072  0.4916 -0.2391 -0.7980
 5971SOL     OW23649   4.025   2.255   1.842 -0.2045 -0.4264  0.0339
 5971SOL    HW223650   3.953   2.311   1.814 -0.9656 -0.6236  1.5253
 5971SOL    HW323651   4.086   2.255   1.768 -1.2076  0.6313 -0.8137
 5971SOL    MW423652   4.024   2.262   1.829 -0.2151  0.2866 -0.3049
 5972SOL     OW23653   2.723   4.343   0.250  0.3915  0.3046 -0.2880
 5972SOL    HW223654   2.634   4.354   0.283 -0.8602  1.2877 -3.6123
 5972SOL    HW323655   2.728   4.250   0.227 -0.6682  0.6614 -2.1637
 5972SOL    MW423656   2.712   4.332   0.251  0.1498  0.1293  0.3567
 5973SOL     OW23657   0.759   5.576   1.157  0.0012  0.2119 -0.1224
 5973SOL    HW223658   0.689   5.518   1.125 -0.6453  0.8621  0.0769
 5973SOL    HW323659   0.836   5.519   1.164 -0.6267 -0.6336  0.1207
 5973SOL    MW423660   0.760   5.560   1.154 -0.0016 -0.5644 -0.1812
 5974SOL     OW23661   0.137   4.529   5.273 -0.0512  0.4051  0.0015
 5974SOL    HW223662   0.071   4.461   5.266  1.1888 -1.0007  1.2929
 5974SOL    HW323663   0.195   4.515   5.199 -0.3726  0.7119 -0.3092
 5974SOL    MW423664   0.136   4.518   5.263  0.4769 -0.0367  0.1143
 5975SOL     OW23665   4.504   3.159   5.398  0.4400 -0.1092 -0.4905
 5975SOL    HW223666   4.457   3.229   5.352  0.6171 -0.2613 -0.9096
 5975SOL    HW323667   4.503   3.085   5.337  0.1681 -0.5080 -0.0130
 5975SOL    MW423668   4.498   3.159   5.384 -0.0323  0.0841  0.1391
 5976SOL     OW23669   3.379   6.212   4.933  0.1270  0.2507 -0.0184
 5976SOL    HW223670   3.378   6.307   4.918  0.6043  0.3218  0.3627
 5976SOL    HW323671   3.376   6.203   5.029 -0.4017 -0.1311 -0.0688
 5976SOL    MW423672   3.379   6.224   4.944 -0.5079  0.3591 -0.0473
 5977SOL     OW23673   1.780   0.944   0.215 -0.5376  0.4366 -0.0482
 5977SOL    HW223674   1.774   0.904   0.301 -0.4777  1.7783  0.5978
 5977SOL    HW323675   1.690   0.966   0.192 -0.9017 -2.0350 -1.4258
 5977SOL    MW423676   1.767   0.941   0.223  0.0129 -0.0587 -0.2108
 5978SOL     OW23677   0.948   4.898   0.299 -0.0192 -0.0570 -0.2116
 5978SOL    HW223678   1.013   4.924   0.233 -0.9401  0.1099 -1.0859
 5978SOL    HW323679   0.863   4.921   0.259 -0.5779  0.7095  1.3289
 5978SOL    MW423680   0.945   4.905   0.285  0.5572 -0.3411 -0.2079
 5979SOL     OW23681   2.877   3.748   1.801 -0.6794  0.3373 -0.4398
 5979SOL    HW223682   2.920   3.833   1.789 -0.1752  0.1479 -0.0192
 5979SOL    HW323683   2.948   3.684   1.790 -0.1398  0.0970  3.2312
 5979SOL    MW423684   2.892   3.751   1.798 -0.0065 -0.0212 -0.0710
 5980SOL     OW23685   1.931   0.748   3.620 -0.0142  0.7432 -0.0304
 5980SOL    HW223686   1.846   0.770   3.658 -0.4260  0.8432 -0.9902
 5980SOL    HW323687   1.955   0.825   3.568 -0.0818  0.1084 -1.0295
 5980SOL    MW423688   1.923   0.761   3.618  0.4644 -0.2885  0.1365
 5981SOL     OW23689   4.066   3.759   0.814  0.1550  0.4640  0.1824
 5981SOL    HW223690   3.992   3.814   0.840  0.1647 -0.1426  1.5837
 5981SOL    HW323691   4.048   3.737   0.723 -1.2794  0.5256  0.4248
 5981SOL    MW423692   4.054   3.763   0.806 -0.1606  0.1483  0.0047
 5982SOL     OW23693   5.300   0.911   2.063  0.8079 -0.0840  0.3292
 5982SOL    HW223694   5.344   0.964   2.130  0.4643  0.7119 -0.0588
 5982SOL    HW323695   5.310   0.821   2.093  0.0661  0.2975  1.8246
 5982SOL    MW423696   5.307   0.907   2.076  0.0415  0.4522  0.2418
 5983SOL     OW23697   0.160   3.390   1.588 -0.3192 -0.6904  0.4896
 5983SOL    HW223698   0.126   3.386   1.498 -0.2146  1.8459  0.2633
 5983SOL    HW323699   0.255   3.383   1.578 -0.1673  1.3042  0.1715
 5983SOL    MW423700   0.168   3.389   1.574 -0.1894 -0.4460 -0.3157
 5984SOL     OW23701   4.803   1.120   5.895  0.0361  0.2479 -0.7357
 5984SOL    HW223702   4.841   1.055   5.837  0.5452  1.0975 -1.3886
 5984SOL    HW323703   4.876   1.177   5.919 -0.1425 -0.1309  0.8275
 5984SOL    MW423704   4.817   1.119   5.891  0.8999 -0.4932 -0.2139
 5985SOL     OW23705   2.022   0.501   0.947 -0.7979 -0.5301  0.4958
 5985SOL    HW223706   2.065   0.418   0.928  3.3873  0.9216  2.2514
 5985SOL    HW323707   2.021   0.547   0.863  0.6506 -0.9060  0.2336
 5985SOL    MW423708   2.028   0.496   0.934  0.3021  0.0826  0.3575
 5986SOL     OW23709   1.554   4.206   0.050 -0.4783 -0.5608 -0.2157
 5986SOL    HW223710   1.577   4.165   0.133  2.1463  2.4420  0.7502
 5986SOL    HW323711   1.623   4.179  -0.011  0.1685  0.7421 -0.0992
 5986SOL    MW423712   1.566   4.197   0.053 -0.1674 -0.4537  0.1428
 5987SOL     OW23713   2.757   5.538   5.100  0.3102  0.4719  0.0290
 5987SOL    HW223714   2.699   5.498   5.035 -0.4043  1.1832  0.2153
 5987SOL    HW323715   2.699   5.564   5.172  0.5951  2.4678 -0.3796
 5987SOL    MW423716   2.742   5.536   5.101 -0.3879 -0.0874  1.0833
 5988SOL     OW23717   5.908   3.420   1.842  0.3387 -0.1994  0.1720
 5988SOL    HW223718   5.970   3.444   1.912 -0.5726 -1.4129  1.4460
 5988SOL    HW323719   5.948   3.344   1.800  0.2315 -0.3025  0.2592
 5988SOL    MW423720   5.922   3.413   1.846 -0.1999 -0.2987 -0.6145
 5989SOL     OW23721   1.956   5.007   5.039 -0.3606 -0.2702  0.4441
 5989SOL    HW223722   1.861   5.006   5.038 -0.3560 -0.7224 -0.0170
 5989SOL    HW323723   1.982   4.921   5.005  0.2010  0.3100 -0.6764
 5989SOL    MW423724   1.947   4.995   5.034  0.1815 -0.1949  0.8232
 5990SOL     OW23725   2.387   0.126   3.150 -0.1633  0.2682  0.1830
 5990SOL    HW223726   2.460   0.065   3.165 -0.1286  0.2963  0.1324
 5990SOL    HW323727   2.343   0.090   3.073 -0.2477  0.2097  0.2591
 5990SOL    MW423728   2.391   0.113   3.141  0.5978  0.2949  0.5974
 5991SOL     OW23729   4.882   3.488   2.058  0.8181 -0.3952  0.3892
 5991SOL    HW223730   4.852   3.559   2.115 -1.7958  0.1631 -1.5008
 5991SOL    HW323731   4.829   3.413   2.082 -1.3661  0.2144 -2.0371
 5991SOL    MW423732   4.871   3.488   2.069 -0.0506 -0.0361 -0.0893
 5992SOL     OW23733   5.437   5.086   1.158  0.1306 -0.0251  0.5931
 5992SOL    HW223734   5.343   5.085   1.138 -0.0482 -0.7122  1.4102
 5992SOL    HW323735   5.472   5.013   1.108  0.3575  0.6244 -0.2237
 5992SOL    MW423736   5.429   5.076   1.149  0.1063  0.7619 -0.3033
 5993SOL     OW23737   4.189   0.575   5.864  0.1115  0.2158  0.2393
 5993SOL    HW223738   4.279   0.606   5.879  0.2251  0.1499 -0.2980
 5993SOL    HW323739   4.147   0.644   5.813 -0.2182  0.3516  0.6873
 5993SOL    MW423740   4.196   0.588   5.860 -0.4208  0.3020  0.0129
 5994SOL     OW23741   2.021   0.451   5.856 -0.4050  0.3446 -0.0614
 5994SOL    HW223742   2.073   0.446   5.776 -0.0532 -0.0224  0.1888
 5994SOL    HW323743   1.960   0.377   5.850 -0.5066  0.4290 -0.0782
 5994SOL    MW423744   2.020   0.441   5.845 -0.2035 -0.9080  0.1427
 5995SOL     OW23745   1.824   4.594   2.510  0.4244  0.1995 -0.2472
 5995SOL    HW223746   1.755   4.596   2.444 -0.0626  2.2558  0.2435
 5995SOL    HW323747   1.833   4.501   2.533 -1.2540 -0.2533 -1.2540
 5995SOL    MW423748   1.816   4.582   2.504  0.2594 -0.3753  0.3326
 5996SOL     OW23749   1.527   2.256   0.014 -0.0388  0.1952 -0.0551
 5996SOL    HW223750   1.533   2.327   0.078 -0.5356  0.8734 -0.7543
 5996SOL    HW323751   1.585   2.283  -0.057 -1.4716  0.7043 -1.0684
 5996SOL    MW423752   1.535   2.269   0.013  0.0108 -0.2049  0.1532
 5997SOL     OW23753   2.281   2.227   4.866  0.1385  0.1297 -0.5353
 5997SOL    HW223754   2.370   2.214   4.897  0.3372 -0.0643 -1.1542
 5997SOL    HW323755   2.240   2.140   4.874  0.7348 -0.3793 -2.4325
 5997SOL    MW423756   2.287   2.214   4.871 -0.6270  0.1786 -0.6837
 5998SOL     OW23757   6.307   4.036   6.217 -0.0021  0.5485  1.3492
 5998SOL    HW223758   6.372   4.043   6.287 -0.0209  0.3591  1.3865
 5998SOL    HW323759   6.224   4.058   6.260 -0.0851 -0.0527  1.5064
 5998SOL    MW423760   6.305   4.040   6.232 -0.0963  0.0589  0.2456
 5999SOL     OW23761   0.592   1.029   1.903  0.7422  0.1675 -0.2931
 5999SOL    HW223762   0.639   1.044   1.822  0.2006 -1.0998 -0.8678
 5999SOL    HW323763   0.646   0.967   1.951  0.3049 -0.2947 -0.3864
 5999SOL    MW423764   0.605   1.023   1.899 -0.2408  0.2532 -0.1853
 6000SOL     OW23765   0.401   6.287   3.898 -0.9504  0.0306  0.1176
 6000SOL    HW223766   0.314   6.315   3.868 -0.7890  0.4616  0.0424
 6000SOL    HW323767   0.386   6.203   3.941 -1.0009 -1.3954 -2.4812
 6000SOL    MW423768   0.388   6.279   3.900  0.3411 -0.0873 -0.1305
 6001SOL     OW23769   0.360   5.928   4.506  0.2799  0.6591 -0.4207
 6001SOL    HW223770   0.404   5.999   4.551  2.1940 -1.3503  1.0879
 6001SOL    HW323771   0.404   5.921   4.421 -0.5716  1.8228 -0.9879
 6001SOL    MW423772   0.371   5.936   4.501  0.8251 -0.3407 -0.6604
 6002SOL     OW23773   0.790   6.194   5.338  0.2463 -0.0218  0.0800
 6002SOL    HW223774   0.833   6.109   5.329  1.1994  0.1523  2.3673
 6002SOL    HW323775   0.758   6.196   5.428  0.1217  1.9808  0.0437
 6002SOL    MW423776   0.791   6.183   5.348 -0.4182  0.1130  0.2594
 6003SOL     OW23777   1.575   1.008   1.280 -0.3267 -0.0630  0.4214
 6003SOL    HW223778   1.669   1.023   1.273 -0.0297 -2.3835 -2.1840
 6003SOL    HW323779   1.537   1.096   1.291  2.0308  0.9875  0.7765
 6003SOL    MW423780   1.582   1.022   1.281  0.3489 -0.2760  0.2571
 6004SOL     OW23781   4.443   5.777   1.561  0.0248 -0.0695  0.7013
 6004SOL    HW223782   4.387   5.737   1.628 -0.7324 -0.0076  0.1190
 6004SOL    HW323783   4.405   5.864   1.548  0.5493  0.1527  0.6391
 6004SOL    MW423784   4.430   5.784   1.568  0.8330  0.1815 -0.2298
 6005SOL     OW23785   4.922   3.649   4.503 -0.1833  0.3197  0.1013
 6005SOL    HW223786   4.837   3.659   4.546 -0.2534 -0.2023  0.0834
 6005SOL    HW323787   4.935   3.555   4.497  0.7169  0.3893  0.7376
 6005SOL    MW423788   4.912   3.638   4.508  0.5935  0.0100 -0.5321
 6006SOL     OW23789   4.737   1.208   4.104  0.1158 -0.1265  0.0206
 6006SOL    HW223790   4.694   1.241   4.183  0.3687 -0.1643  0.1751
 6006SOL    HW323791   4.822   1.251   4.103  0.0821 -0.0671 -0.2742
 6006SOL    MW423792   4.743   1.218   4.115 -0.1333  0.1220 -0.1649
 6007SOL     OW23793   1.051   1.976   3.653  0.7661  0.5769  0.3030
 6007SOL    HW223794   1.023   2.044   3.714  1.6859  0.4773  0.8568
 6007SOL    HW323795   0.972   1.927   3.632  0.0917  1.7820 -0.0677
 6007SOL    MW423796   1.037   1.978   3.658  0.4372 -0.2423 -0.4736
 6008SOL     OW23797   4.873   1.215   5.169 -0.0900  0.6112  0.4249
 6008SOL    HW223798   4.927   1.290   5.193 -2.0873  2.6892 -1.1234
 6008SOL    HW323799   4.798   1.253   5.123 -1.0620 -2.3859 -0.7199
 6008SOL    MW423800   4.870   1.230   5.166  0.1999  0.2609  0.3416
 6009SOL     OW23801   3.251   5.460   2.157  0.5219  0.2003  0.3913
 6009SOL    HW223802   3.221   5.394   2.095 -0.2449  0.3248  0.6092
 6009SOL    HW323803   3.253   5.541   2.106  0.1686  0.2495  0.4507
 6009SOL    MW423804   3.247   5.462   2.142  0.2551  0.5737  0.2631
 6010SOL     OW23805   2.184   4.737   6.334  0.1070 -0.2178 -0.5896
 6010SOL    HW223806   2.257   4.707   6.388 -0.3161 -0.3033 -0.0512
 6010SOL    HW323807   2.154   4.817   6.377 -1.0102 -0.9353  0.0357
 6010SOL    MW423808   2.189   4.743   6.347  0.3766 -0.2397  0.2967
 6011SOL     OW23809   0.213   5.900   5.889  0.0859 -0.5583 -0.1525
 6011SOL    HW223810   0.146   5.963   5.917 -1.3392 -1.8326 -0.5695
 6011SOL    HW323811   0.206   5.899   5.794 -1.7781 -3.1682 -0.1176
 6011SOL    MW423812   0.203   5.908   5.881  0.3405  0.3639  0.7021
 6012SOL     OW23813   1.418   3.349   4.814 -0.0683  0.5309  0.2331
 6012SOL    HW223814   1.389   3.279   4.756 -0.7236  1.5957 -0.7669
 6012SOL    HW323815   1.463   3.304   4.886 -0.3513 -0.8891 -0.4506
 6012SOL    MW423816   1.420   3.334   4.816  0.4353  0.2168 -0.0256
 6013SOL     OW23817   4.864   1.424   2.272  0.0374  0.3633  0.4227
 6013SOL    HW223818   4.905   1.409   2.187  3.3272  0.5015  1.8103
 6013SOL    HW323819   4.841   1.337   2.304  0.3377  0.1478  0.0633
 6013SOL    MW423820   4.867   1.411   2.265  0.1493 -0.4974 -0.4250
 6014SOL     OW23821   5.761   0.228   5.027 -0.1687  0.2334  0.3618
 6014SOL    HW223822   5.814   0.176   4.967 -0.8049  0.0462 -0.0511
 6014SOL    HW323823   5.763   0.317   4.990 -0.8947  0.0337 -0.1764
 6014SOL    MW423824   5.768   0.233   5.014  0.2067  0.2615  0.1906
 6015SOL     OW23825   4.460   4.979   1.308 -0.0271  0.0994 -0.3666
 6015SOL    HW223826   4.403   4.902   1.315 -0.0907  0.1752 -0.0492
 6015SOL    HW323827   4.401   5.054   1.318  0.2696  0.1675  1.1087
 6015SOL    MW423828   4.445   4.979   1.310 -0.3773 -0.2681  0.3544
 6016SOL     OW23829   0.397   1.627   0.703  0.1671 -0.3001 -0.0084
 6016SOL    HW223830   0.306   1.600   0.689 -0.3015  1.6820 -1.2444
 6016SOL    HW323831   0.446   1.581   0.635 -0.3402  0.5781 -0.9902
 6016SOL    MW423832   0.392   1.617   0.692  0.2222  0.2766 -0.0434
 6017SOL     OW23833   3.505   1.479   0.398 -0.1358 -0.1296 -0.1164
 6017SOL    HW223834   3.449   1.517   0.465 -0.4927 -0.5867 -0.1509
 6017SOL    HW323835   3.593   1.513   0.417 -0.7402  2.2855 -1.3092
 6017SOL    MW423836   3.509   1.488   0.409  0.0483  0.3334 -0.1792
 6018SOL     OW23837   2.050   2.625   0.813 -0.1617 -0.4017 -0.2681
 6018SOL    HW223838   2.002   2.708   0.808  0.1520 -0.2782 -1.4196
 6018SOL    HW323839   2.129   2.640   0.761  1.3455 -0.4846  1.8531
 6018SOL    MW423840   2.054   2.638   0.806  0.5232 -0.0023 -0.2218
 6019SOL     OW23841   2.027   3.755   6.168 -0.0206  0.1481 -0.5620
 6019SOL    HW223842   1.961   3.796   6.111  0.9163 -1.1958 -2.7522
 6019SOL    HW323843   1.979   3.731   6.247 -2.1319 -0.4943 -1.9562
 6019SOL    MW423844   2.012   3.757   6.171 -0.1502  0.4863  0.1033
 6020SOL     OW23845   4.153   3.838   5.480  0.3546 -0.0655  0.0806
 6020SOL    HW223846   4.151   3.904   5.550  0.0107  0.8301 -0.7457
 6020SOL    HW323847   4.095   3.874   5.412  0.9253 -0.7655 -0.7910
 6020SOL    MW423848   4.145   3.851   5.481 -0.1795  0.6661 -0.2395
 6021SOL     OW23849   5.984   3.877   4.192 -0.3690 -0.0880  0.5816
 6021SOL    HW223850   5.917   3.878   4.260 -0.3621  0.7393  0.5821
 6021SOL    HW323851   6.052   3.936   4.225 -0.1625 -0.0297  0.0580
 6021SOL    MW423852   5.984   3.885   4.206 -0.7130  0.2168  0.2255
 6022SOL     OW23853   0.257   4.571   0.333 -0.1230  0.6672  0.4745
 6022SOL    HW223854   0.352   4.580   0.327  0.2300 -1.2570  2.2300
 6022SOL    HW323855   0.238   4.582   0.426 -1.4729 -0.2478  0.3294
 6022SOL    MW423856   0.267   4.574   0.345 -0.0731  0.7995  0.2569
 6023SOL     OW23857   4.438   1.324   0.715 -0.8117 -0.4650  0.1324
 6023SOL    HW223858   4.525   1.338   0.752 -1.3116 -0.8027  1.5147
 6023SOL    HW323859   4.417   1.405   0.669 -0.8583  0.7089  2.1178
 6023SOL    MW423860   4.447   1.336   0.714 -0.4600 -0.1545  0.7571
 6024SOL     OW23861   1.822   6.049   2.632 -0.3888  0.3969  0.2949
 6024SOL    HW223862   1.758   6.119   2.627 -1.3336 -0.4245  0.6297
 6024SOL    HW323863   1.771   5.969   2.644  0.6449 -0.4094 -0.4561
 6024SOL    MW423864   1.807   6.048   2.633  0.0579 -0.5701 -0.5719
 6025SOL     OW23865   5.316   6.179   3.650 -0.2874  0.8483 -0.4041
 6025SOL    HW223866   5.346   6.103   3.598  0.2774  0.0568  1.0260
 6025SOL    HW323867   5.352   6.255   3.604 -0.0806  0.1921 -1.3578
 6025SOL    MW423868   5.325   6.179   3.637  0.2381 -0.1365  0.1952
 6026SOL     OW23869   1.845   2.295   4.998 -0.4730 -0.6506  0.0438
 6026SOL    HW223870   1.800   2.282   4.914  0.8638 -3.4001 -0.3654
 6026SOL    HW323871   1.922   2.346   4.976 -1.0210  0.1495 -0.0601
 6026SOL    MW423872   1.849   2.300   4.984  0.1579  0.1069  0.0632
 6027SOL     OW23873   5.854   1.004   5.257 -0.2296 -0.1165  0.5360
 6027SOL    HW223874   5.865   1.006   5.352 -0.2851  1.6250  0.5477
 6027SOL    HW323875   5.843   1.096   5.233 -1.0353 -0.6047 -1.0694
 6027SOL    MW423876   5.854   1.016   5.266 -0.5913 -0.2493  0.1385
 6028SOL     OW23877   6.301   0.343   0.240  0.0439  0.5235 -0.0258
 6028SOL    HW223878   6.270   0.433   0.242 -1.4702  0.0374  1.9235
 6028SOL    HW323879   6.286   0.314   0.150 -1.4896  1.5841 -0.1455
 6028SOL    MW423880   6.295   0.351   0.228  0.0938  0.4505  0.4854
 6029SOL     OW23881   5.488   1.468   3.443  0.2543  0.3267 -0.6293
 6029SOL    HW223882   5.405   1.504   3.475 -0.5527 -0.8410 -1.3453
 6029SOL    HW323883   5.506   1.394   3.501  0.4816  0.2201 -0.8330
 6029SOL    MW423884   5.479   1.463   3.455  0.5300 -0.2725  0.3422
 6030SOL     OW23885   4.886   2.359   3.001  0.4822 -0.3635 -0.1084
 6030SOL    HW223886   4.922   2.315   3.078  0.7999  2.2094  1.3441
 6030SOL    HW323887   4.954   2.422   2.975 -0.8589  1.0068 -0.4822
 6030SOL    MW423888   4.900   2.362   3.008 -0.6988 -0.2489  0.0497
 6031SOL     OW23889   0.626   4.880   4.184 -0.2877  0.1802  0.1508
 6031SOL    HW223890   0.701   4.930   4.219 -1.2839  0.2863  2.3000
 6031SOL    HW323891   0.634   4.794   4.225 -0.3854 -0.4092 -1.0214
 6031SOL    MW423892   0.637   4.875   4.194  0.4593 -0.0284  0.3002
 6032SOL     OW23893   2.785   4.239   4.513  0.2572 -0.0398  0.1232
 6032SOL    HW223894   2.691   4.238   4.529  0.2727  2.4585  0.7744
 6032SOL    HW323895   2.811   4.330   4.529  2.7738 -0.6512 -0.1088
 6032SOL    MW423896   2.776   4.251   4.517 -0.1751  0.9654 -0.3445
 6033SOL     OW23897   3.703   2.585   1.509  0.5718 -0.2658  0.4581
 6033SOL    HW223898   3.710   2.677   1.532 -2.5077  0.2601 -0.2823
 6033SOL    HW323899   3.615   2.560   1.535  0.9849 -2.7681 -0.2330
 6033SOL    MW423900   3.693   2.594   1.516 -0.7189 -0.6765  0.2398
 6034SOL     OW23901   1.330   3.436   2.703  0.0826 -0.0508  0.1426
 6034SOL    HW223902   1.315   3.347   2.735  0.0850 -0.0418  0.1688
 6034SOL    HW323903   1.339   3.488   2.782  1.2961 -0.2237  0.1385
 6034SOL    MW423904   1.329   3.431   2.717  0.1046  0.2555  0.5509
 6035SOL     OW23905   2.713   3.920   4.537  0.1889 -0.0472  0.4682
 6035SOL    HW223906   2.727   3.926   4.631  2.0712 -0.4745  0.2372
 6035SOL    HW323907   2.751   4.000   4.501  0.2518 -0.2893 -0.0175
 6035SOL    MW423908   2.720   3.932   4.544 -0.2626 -0.4021  0.4424
 6036SOL     OW23909   3.310   0.640   2.803  0.1787 -0.0781  0.1166
 6036SOL    HW223910   3.253   0.585   2.748 -1.8527  0.6445  1.3780
 6036SOL    HW323911   3.353   0.577   2.861 -1.9501 -0.4964  1.3924
 6036SOL    MW423912   3.308   0.624   2.803  0.1348 -0.1720  0.2107
 6037SOL     OW23913   2.442   2.375   0.490  0.1784 -0.2759  0.2853
 6037SOL    HW223914   2.487   2.293   0.510  1.1952 -0.0251 -0.8748
 6037SOL    HW323915   2.486   2.409   0.412  0.3493  1.7876  1.1896
 6037SOL    MW423916   2.454   2.369   0.483  0.1162  0.4658  0.1073
 6038SOL     OW23917   0.137   6.243   0.022 -0.0079 -0.4864  0.4964
 6038SOL    HW223918   0.165   6.192   0.099  0.3224  0.1630  0.8195
 6038SOL    HW323919   0.155   6.186  -0.052  1.1385 -0.5382  0.7845
 6038SOL    MW423920   0.143   6.229   0.023  0.0067  0.6026  0.0657
 6039SOL     OW23921   0.826   2.141   0.338 -0.0206  0.5748 -0.3034
 6039SOL    HW223922   0.799   2.075   0.273 -0.3435  2.0990 -1.7889
 6039SOL    HW323923   0.912   2.112   0.368 -1.4969 -2.2943  1.6174
 6039SOL    MW423924   0.834   2.128   0.333  0.2939 -0.0349  0.3295
 6040SOL     OW23925   5.566   5.699   3.173 -0.7836  0.3523  0.0601
 6040SOL    HW223926   5.626   5.753   3.121 -1.2650  0.5476 -0.2988
 6040SOL    HW323927   5.485   5.750   3.178 -1.1613 -0.2176 -0.0630
 6040SOL    MW423928   5.563   5.713   3.167  0.1615  0.2701  0.2724
 6041SOL     OW23929   3.806   0.872   5.669  0.4125  0.0146  0.0613
 6041SOL    HW223930   3.724   0.824   5.679 -0.1823  1.4479  3.0227
 6041SOL    HW323931   3.867   0.829   5.729 -0.3461  3.0945  3.3913
 6041SOL    MW423932   3.804   0.860   5.678 -0.3407  0.4884  0.3532
 6042SOL     OW23933   2.589   4.228   4.879 -0.1148  0.3956  0.0967
 6042SOL    HW223934   2.498   4.244   4.905  0.1231  0.4876  0.8897
 6042SOL    HW323935   2.638   4.230   4.961  0.5939  0.2620 -0.3188
 6042SOL    MW423936   2.583   4.230   4.893  0.0153  0.5787 -0.2750
 6043SOL     OW23937   4.192   2.872   5.535 -0.4881  0.0373 -0.0566
 6043SOL    HW223938   4.235   2.949   5.573 -0.7398 -0.6616  1.7666
 6043SOL    HW323939   4.156   2.826   5.611 -2.9875 -0.3046 -1.3459
 6043SOL    MW423940   4.193   2.876   5.550 -0.9326  0.0101  0.2219
 6044SOL     OW23941   5.225   0.523   1.047 -0.4445 -0.5952 -0.1280
 6044SOL    HW223942   5.206   0.430   1.065 -1.4322 -0.6776 -1.4220
 6044SOL    HW323943   5.301   0.521   0.989 -0.5046 -0.6084 -0.2073
 6044SOL    MW423944   5.233   0.510   1.041 -0.5536  0.4786 -0.5226
 6045SOL     OW23945   0.935   4.613   0.296  0.0254 -0.6143 -0.0927
 6045SOL    HW223946   0.949   4.705   0.271 -0.1800 -0.2871  0.9334
 6045SOL    HW323947   1.021   4.583   0.325 -0.0806 -0.4893  0.3566
 6045SOL    MW423948   0.948   4.621   0.296 -0.3335  0.0274 -0.0456
 6046SOL     OW23949   6.010   2.500   3.039 -0.2870  0.2003 -0.2805
 6046SOL    HW223950   5.967   2.438   2.980 -0.3420  0.8166 -0.8959
 6046SOL    HW323951   6.079   2.539   2.986  0.5153 -0.1795  0.4541
 6046SOL    MW423952   6.014   2.497   3.024  0.2072 -0.4477 -0.0468
 6047SOL     OW23953   3.246   2.158   4.267 -0.4288  0.0589  0.1395
 6047SOL    HW223954   3.253   2.063   4.278 -0.4659  0.2301  2.0869
 6047SOL    HW323955   3.335   2.187   4.249 -0.4538 -0.3676 -0.6735
 6047SOL    MW423956   3.258   2.149   4.266 -0.4449  0.0198 -0.6217
 6048SOL     OW23957   6.073   0.500   2.824 -0.6263 -0.1085  0.5437
 6048SOL    HW223958   6.137   0.511   2.893 -1.9364  1.9062  1.5501
 6048SOL    HW323959   6.030   0.417   2.844 -0.8528  0.3448  2.0844
 6048SOL    MW423960   6.075   0.491   2.835 -0.2277 -0.2221  0.0452
 6049SOL     OW23961   2.642   1.075   2.539 -0.1573 -0.6562 -0.1088
 6049SOL    HW223962   2.629   1.023   2.460  0.0366 -0.7185 -0.1013
 6049SOL    HW323963   2.733   1.056   2.565  0.0756  0.0716 -0.3830
 6049SOL    MW423964   2.652   1.066   2.532  0.2176 -0.3087 -0.1680
 6050SOL     OW23965   1.825   2.339   0.400 -0.1470 -0.6481  0.2130
 6050SOL    HW223966   1.828   2.391   0.480  0.2690  0.9006 -0.7637
 6050SOL    HW323967   1.824   2.248   0.430  0.3624 -0.1114  1.9605
 6050SOL    MW423968   1.825   2.334   0.414  0.0691 -0.4708  0.7280
 6051SOL     OW23969   0.136   3.492   2.047 -0.4826  0.2897 -0.2450
 6051SOL    HW223970   0.100   3.487   1.958  0.2035 -2.0830 -0.4511
 6051SOL    HW323971   0.060   3.509   2.103 -0.8145  2.7306 -1.2828
 6051SOL    MW423972   0.121   3.494   2.042 -0.3642 -0.5775 -0.3693
 6052SOL     OW23973   5.268   5.683   4.089 -0.5624  0.6750 -0.3701
 6052SOL    HW223974   5.269   5.590   4.111  0.4079  0.5300 -0.9803
 6052SOL    HW323975   5.254   5.685   3.994 -0.6980  1.1604 -0.3444
 6052SOL    MW423976   5.266   5.671   4.079 -0.0620 -0.2448 -0.0812
 6053SOL     OW23977   0.186   5.746   4.144 -0.0269  0.1188 -0.3871
 6053SOL    HW223978   0.175   5.718   4.235  0.2626  0.4503 -0.2503
 6053SOL    HW323979   0.248   5.684   4.106 -0.7202 -0.4783 -0.5725
 6053SOL    MW423980   0.192   5.734   4.151  0.0417  0.1900 -0.4045
 6054SOL     OW23981   3.030   4.636   3.663  0.1782  0.1379  0.3707
 6054SOL    HW223982   2.982   4.556   3.645  0.1654  0.0316  0.8487
 6054SOL    HW323983   2.965   4.706   3.652  0.2633  0.1079 -0.3263
 6054SOL    MW423984   3.015   4.635   3.659  0.2922 -0.6304 -0.5578
 6055SOL     OW23985   5.597   5.849   1.449  0.2733 -0.8789  0.2677
 6055SOL    HW223986   5.600   5.943   1.467 -1.2280 -0.5984 -0.7029
 6055SOL    HW323987   5.610   5.807   1.534  1.0401  0.1969  0.6995
 6055SOL    MW423988   5.599   5.856   1.462  1.0355 -0.1419 -0.1512
 6056SOL     OW23989   4.831   0.433   4.526 -0.5671 -0.7913  0.1562
 6056SOL    HW223990   4.838   0.504   4.590 -2.3318 -1.1217  0.7662
 6056SOL    HW323991   4.877   0.360   4.567  0.9354 -0.1630 -0.3159
 6056SOL    MW423992   4.838   0.433   4.540 -0.1075  0.0183 -0.6769
 6057SOL     OW23993   4.317   0.641   3.448 -0.3472  0.0065  0.2121
 6057SOL    HW223994   4.243   0.586   3.423 -1.5295  0.2626  2.7919
 6057SOL    HW323995   4.359   0.594   3.520 -0.3240  1.5842  1.2894
 6057SOL    MW423996   4.313   0.628   3.454  0.1158 -0.4285 -0.4225
 6058SOL     OW23997   3.220   4.385   0.331 -0.3563  0.3614 -0.5212
 6058SOL    HW223998   3.212   4.426   0.245 -1.5176  0.9239 -0.1564
 6058SOL    HW323999   3.314   4.373   0.343 -0.0655  1.7878 -1.1727
 6058SOL    MW424000   3.232   4.389   0.321 -0.4260 -0.5865  0.1096
 6059SOL     OW24001   0.932   4.415   0.682 -0.0080  0.2698 -0.1208
 6059SOL    HW224002   0.893   4.473   0.617 -1.7921 -1.9946 -1.1901
 6059SOL    HW324003   0.875   4.421   0.759 -1.2447 -1.2956 -0.8609
 6059SOL    MW424004   0.920   4.423   0.684  0.6496  0.3206 -0.6114
 6060SOL     OW24005   4.035   2.045   2.036 -0.2621 -0.2551  0.2141
 6060SOL    HW224006   4.017   2.113   1.971  0.0247  1.0824  1.4828
 6060SOL    HW324007   3.962   2.051   2.098  1.2335  1.0125  1.9804
 6060SOL    MW424008   4.023   2.055   2.036 -0.5645  0.9140 -0.4190
 6061SOL     OW24009   3.672   3.071   4.206 -0.2504  0.0508  0.0442
 6061SOL    HW224010   3.585   3.109   4.217 -0.0613  0.5881 -0.2757
 6061SOL    HW324011   3.662   3.012   4.130 -0.3962 -0.0908  0.1717
 6061SOL    MW424012   3.659   3.068   4.197 -0.3011 -0.2924  0.5415
 6062SOL     OW24013   5.513   5.176   5.023  0.1612 -0.3396  0.0781
 6062SOL    HW224014   5.586   5.196   4.965  0.3488 -2.8446 -0.6459
 6062SOL    HW324015   5.540   5.097   5.070 -2.1976 -1.5832 -0.5036
 6062SOL    MW424016   5.526   5.168   5.022  0.2829  0.1128  0.0022
 6063SOL     OW24017   2.751   4.054   1.849 -0.5782  0.3274 -0.2486
 6063SOL    HW224018   2.787   4.033   1.764 -0.4249 -2.1182  0.3581
 6063SOL    HW324019   2.672   4.001   1.856 -0.1171 -0.2044  1.4570
 6063SOL    MW424020   2.745   4.044   1.839  0.6374  0.0582  0.3476
 6064SOL     OW24021   5.067   1.847   0.641 -0.2999 -0.1019 -0.1525
 6064SOL    HW224022   5.116   1.778   0.596  1.5155  1.0205  0.0052
 6064SOL    HW324023   5.067   1.921   0.580  2.2501  1.4648  1.5217
 6064SOL    MW424024   5.074   1.848   0.627  0.7342 -0.4015 -0.3472
 6065SOL     OW24025   6.383   0.392   1.171  0.3300  0.3357 -0.0496
 6065SOL    HW224026   6.307   0.372   1.116  1.6874  1.0276 -2.3361
 6065SOL    HW324027   6.375   0.333   1.246 -2.4378  0.4136 -0.1887
 6065SOL    MW424028   6.372   0.382   1.174 -0.1178 -0.2791  0.3446
 6066SOL     OW24029   0.431   4.330   1.929  0.7296 -0.1459 -0.4888
 6066SOL    HW224030   0.523   4.346   1.910  0.3042  0.2696 -2.2998
 6066SOL    HW324031   0.416   4.239   1.902  0.8722 -0.6582  1.0081
 6066SOL    MW424032   0.441   4.320   1.923 -0.0126 -0.5135 -0.5851
 6067SOL     OW24033   5.227   4.065   2.956  0.3293  0.0728  0.2375
 6067SOL    HW224034   5.264   4.102   2.876 -0.5810  1.0692  0.2618
 6067SOL    HW324035   5.269   4.113   3.027  0.8872 -0.5808  0.3630
 6067SOL    MW424036   5.237   4.076   2.955 -0.8200 -0.0328 -0.6336
 6068SOL     OW24037   0.101   0.940   2.690  0.5926 -0.3921  0.3098
 6068SOL    HW224038   0.118   0.877   2.759 -0.8601 -0.5728  0.5441
 6068SOL    HW324039   0.161   1.012   2.707  2.2637 -1.6678  0.0472
 6068SOL    MW424040   0.111   0.942   2.701 -0.5162 -0.2080  0.1257
 6069SOL     OW24041   5.031   2.390   1.245 -0.4202 -0.0151 -0.7419
 6069SOL    HW224042   5.009   2.324   1.310 -0.3417  0.8894  0.2374
 6069SOL    HW324043   5.126   2.386   1.238 -0.3673  0.3425 -0.2862
 6069SOL    MW424044   5.040   2.381   1.253 -0.5550 -0.3491  0.6225
 6070SOL     OW24045   5.314   6.357   3.270 -0.1028 -0.1028 -0.1426
 6070SOL    HW224046   5.220   6.377   3.275 -0.3177 -1.0332 -0.2417
 6070SOL    HW324047   5.355   6.439   3.244 -0.7504  0.6582  1.1130
 6070SOL    MW424048   5.307   6.370   3.267  0.1264  0.1811 -0.2430
 6071SOL     OW24049   5.214   5.679   5.812 -0.3573 -0.0670 -0.1365
 6071SOL    HW224050   5.178   5.759   5.773 -1.6834 -0.0132  1.1403
 6071SOL    HW324051   5.144   5.644   5.866  1.2031 -0.4740  1.7435
 6071SOL    MW424052   5.200   5.685   5.814 -0.3802  0.6899  0.1156
 6072SOL     OW24053   1.374   5.308   5.971  0.4215 -0.2472 -0.1493
 6072SOL    HW224054   1.293   5.297   5.920  2.5238 -0.2533 -3.8505
 6072SOL    HW324055   1.367   5.396   6.008 -1.5037 -0.4858  0.1681
 6072SOL    MW424056   1.362   5.319   5.969  0.5640  0.2580  0.6269
 6073SOL     OW24057   3.924   3.919   2.440  0.2212  0.4136  0.5903
 6073SOL    HW224058   3.916   3.848   2.503  1.1055 -0.9410 -0.7463
 6073SOL    HW324059   3.972   3.880   2.366  1.8899  2.7562  0.3454
 6073SOL    MW424060   3.929   3.904   2.438 -0.3992 -0.2948  0.0264
 6074SOL     OW24061   4.134   3.421   0.536  0.1216 -0.3893 -0.4131
 6074SOL    HW224062   4.171   3.423   0.625  0.7595  1.4386 -0.6641
 6074SOL    HW324063   4.083   3.502   0.530 -0.4762 -0.8341 -1.4863
 6074SOL    MW424064   4.132   3.432   0.547 -0.7631 -0.0463  0.6198
 6075SOL     OW24065   3.740   5.398   3.232 -0.4352 -0.3747  0.3840
 6075SOL    HW224066   3.748   5.494   3.231 -2.2518 -0.1777  0.1701
 6075SOL    HW324067   3.798   5.368   3.162  0.5217  0.5186  0.7646
 6075SOL    MW424068   3.748   5.407   3.222 -0.4604  0.4504  0.3674
 6076SOL     OW24069   4.138   0.625   1.334 -0.1817 -0.3687  0.4599
 6076SOL    HW224070   4.074   0.680   1.378 -0.2381  1.4300 -1.7006
 6076SOL    HW324071   4.155   0.669   1.251  2.0489 -2.0750 -0.0921
 6076SOL    MW424072   4.132   0.638   1.329  0.3930  0.2107  0.1395
 6077SOL     OW24073   0.910   2.875   1.295  0.6039  0.0726 -0.1634
 6077SOL    HW224074   0.974   2.854   1.363  0.5121  0.1000 -0.0677
 6077SOL    HW324075   0.913   2.970   1.288  1.4535 -0.0022 -1.0209
 6077SOL    MW424076   0.919   2.885   1.303  0.2435  0.4265 -0.2795
 6078SOL     OW24077   3.854   3.247   3.408  0.1751 -0.2947  0.1157
 6078SOL    HW224078   3.892   3.299   3.337 -0.8686 -0.0792 -0.3062
 6078SOL    HW324079   3.776   3.208   3.370 -0.2707 -0.3772  1.0825
 6078SOL    MW424080   3.849   3.249   3.394  0.0204 -0.1060 -0.3422
 6079SOL     OW24081   0.426   4.831   0.685  0.4847 -0.2782 -0.0320
 6079SOL    HW224082   0.355   4.891   0.660 -0.6879 -1.1598  1.0258
 6079SOL    HW324083   0.429   4.838   0.780  1.8879 -0.2159 -0.0729
 6079SOL    MW424084   0.417   4.840   0.694  0.4402 -0.0916 -0.5028
 6080SOL     OW24085   1.980   5.655   5.411 -0.0870 -0.1720  0.4153
 6080SOL    HW224086   2.047   5.597   5.446  1.7256  2.3853  1.5225
 6080SOL    HW324087   1.897   5.619   5.442  1.0913 -1.0852  2.6776
 6080SOL    MW424088   1.978   5.643   5.420 -0.7505  0.0831 -0.3983
 6081SOL     OW24089   3.428   4.237   5.406 -0.6008  0.2209 -0.0259
 6081SOL    HW224090   3.465   4.149   5.399 -0.2777  0.4690 -1.9513
 6081SOL    HW324091   3.503   4.294   5.422 -0.8748  0.1153  1.7794
 6081SOL    MW424092   3.442   4.233   5.407 -0.2990  0.4222  0.9940
 6082SOL     OW24093   0.037   3.486   2.622  0.0119 -0.3460  0.1621
 6082SOL    HW224094   0.094   3.530   2.559 -1.0661  0.8728 -0.0128
 6082SOL    HW324095   0.028   3.549   2.694  1.3696 -1.7842  1.6651
 6082SOL    MW424096   0.043   3.500   2.623  0.1273  0.1014 -0.6120
 6083SOL     OW24097   3.570   0.788   2.543  0.3222 -0.3044  0.2719
 6083SOL    HW224098   3.609   0.701   2.529  0.0362 -0.3662 -0.1938
 6083SOL    HW324099   3.638   0.849   2.515  2.0229 -0.1805  4.0594
 6083SOL    MW424100   3.584   0.784   2.537  0.2383 -0.3726 -0.0213
 6084SOL     OW24101   1.229   3.333   4.477  0.2022  0.1353 -0.4881
 6084SOL    HW224102   1.252   3.272   4.548  1.1560  1.2344  0.1901
 6084SOL    HW324103   1.172   3.282   4.419 -1.2833 -0.5608  1.4808
 6084SOL    MW424104   1.225   3.318   4.479  0.0334 -0.3746 -0.4328
 6085SOL     OW24105   2.289   1.577   3.859  0.5823  0.2165 -0.1524
 6085SOL    HW224106   2.218   1.573   3.796  0.3280 -0.5700  0.1711
 6085SOL    HW324107   2.254   1.628   3.932 -0.1775 -1.3680  0.6351
 6085SOL    MW424108   2.275   1.583   3.860 -0.5312 -0.4260 -0.5169
 6086SOL     OW24109   0.780   4.970   4.797  0.5307  0.4801 -0.2424
 6086SOL    HW224110   0.811   5.046   4.747 -1.1914  0.3299 -1.6432
 6086SOL    HW324111   0.706   4.936   4.746  0.2187 -1.1626  1.1988
 6086SOL    MW424112   0.774   4.976   4.784 -0.2626  0.1275 -0.0471
 6087SOL     OW24113   0.909   0.774   2.244 -0.3593 -0.2599 -0.0840
 6087SOL    HW224114   0.847   0.702   2.231 -0.0226 -0.3863 -1.0232
 6087SOL    HW324115   0.895   0.832   2.170 -0.2633  0.3833  0.3939
 6087SOL    MW424116   0.899   0.772   2.233 -1.1919  0.7196 -0.6483
 6088SOL     OW24117   4.629   5.041   1.054 -0.1681 -0.2328 -0.3935
 6088SOL    HW224118   4.535   5.035   1.035 -0.0790 -2.7077 -0.3639
 6088SOL    HW324119   4.654   4.952   1.078  1.9198  0.6691  1.0299
 6088SOL    MW424120   4.620   5.029   1.055  0.1659  0.0832  0.9428
 6089SOL     OW24121   0.875   1.996   3.423 -1.1456  0.4437  0.1802
 6089SOL    HW224122   0.807   1.936   3.390 -1.0610  1.2749 -1.6068
 6089SOL    HW324123   0.826   2.066   3.465 -1.3132  0.1714  0.4505
 6089SOL    MW424124   0.860   1.997   3.424  0.3211 -0.3556  0.1632
 6090SOL     OW24125   5.415   0.535   2.931 -0.1932  0.3537 -0.0472
 6090SOL    HW224126   5.409   0.606   2.995  1.7852  0.3472  0.2316
 6090SOL    HW324127   5.467   0.468   2.975 -1.1995 -0.8549 -0.6730
 6090SOL    MW424128   5.421   0.536   2.945 -0.9752 -0.8714  0.2468
 6091SOL     OW24129   2.501   2.136   3.572  0.2733  0.3272  0.4659
 6091SOL    HW224130   2.481   2.188   3.650  1.6759 -0.1981  1.2066
 6091SOL    HW324131   2.558   2.066   3.604 -0.2386 -0.7021 -0.8041
 6091SOL    MW424132   2.506   2.134   3.587 -0.2215 -0.5956 -0.0554
 6092SOL     OW24133   4.538   2.605   2.515  0.3623  0.0785  0.1052
 6092SOL    HW224134   4.461   2.660   2.503  1.1340  1.8569  2.5461
 6092SOL    HW324135   4.542   2.589   2.609  1.0627 -2.9579 -0.3342
 6092SOL    MW424136   4.529   2.610   2.526 -0.6517 -0.3820  0.1764
 6093SOL     OW24137   3.824   5.510   4.497 -0.2827  0.1234 -0.2999
 6093SOL    HW224138   3.833   5.588   4.552 -1.3387  0.6309 -0.8105
 6093SOL    HW324139   3.856   5.537   4.411 -0.6818  0.0134 -0.4871
 6093SOL    MW424140   3.829   5.524   4.493 -0.1832  0.4455 -0.0881
 6094SOL     OW24141   5.685   5.798   3.700  0.2487  0.1064  0.1276
 6094SOL    HW224142   5.712   5.874   3.648 -1.5716 -0.1744 -1.3280
 6094SOL    HW324143   5.705   5.722   3.646 -2.5318 -0.1495 -0.7012
 6094SOL    MW424144   5.691   5.798   3.686 -0.2035 -0.1531  0.3542
 6095SOL     OW24145   2.109   2.888   4.671  0.2182 -0.3518 -0.5608
 6095SOL    HW224146   2.195   2.925   4.653  0.1099  0.2769  0.1798
 6095SOL    HW324147   2.109   2.804   4.624  0.5432  0.4675 -2.0646
 6095SOL    MW424148   2.121   2.882   4.663  0.1577  0.1607 -0.1308
 6096SOL     OW24149   0.875   3.015   5.502  0.4198  0.3122 -0.9249
 6096SOL    HW224150   0.864   2.965   5.421 -1.7631  1.0820 -1.1535
 6096SOL    HW324151   0.906   3.101   5.472  3.5881 -0.5695 -0.5734
 6096SOL    MW424152   0.878   3.020   5.487 -0.3128  0.1194 -0.0523
 6097SOL     OW24153   1.470   4.837   3.854 -0.6501  0.4081 -0.6107
 6097SOL    HW224154   1.402   4.831   3.787 -2.7292  0.5415  1.3541
 6097SOL    HW324155   1.481   4.747   3.885 -1.8704  0.7085  0.8167
 6097SOL    MW424156   1.462   4.824   3.849  0.0170 -0.3530  0.4611
 6098SOL     OW24157   1.926   2.224   3.591  0.3093 -0.3063 -0.5299
 6098SOL    HW224158   1.836   2.257   3.581  0.3666  0.7154  1.6761
 6098SOL    HW324159   1.978   2.302   3.611  0.8026 -1.3630  2.9577
 6098SOL    MW424160   1.921   2.239   3.592 -0.0854  0.3305  0.1605
 6099SOL     OW24161   4.947   6.036   3.318  0.9381  0.3273  0.0559
 6099SOL    HW224162   4.970   6.072   3.404 -0.7781 -0.2536  0.8157
 6099SOL    HW324163   4.939   5.942   3.333  0.8129  0.1979 -0.7929
 6099SOL    MW424164   4.949   6.028   3.331 -0.1475 -0.3400  0.4987
 6100SOL     OW24165   1.104   5.856   4.379 -0.2893  0.1495 -0.6252
 6100SOL    HW224166   1.125   5.895   4.295 -0.0242 -1.0433 -1.1318
 6100SOL    HW324167   1.011   5.878   4.393  0.4553  3.1814  0.3836
 6100SOL    MW424168   1.094   5.864   4.370 -0.1218  0.1671  0.3655
 6101SOL     OW24169   2.147   5.214   4.939 -0.0332 -0.3068 -0.0557
 6101SOL    HW224170   2.135   5.291   4.995 -0.3102 -0.4039  0.0194
 6101SOL    HW324171   2.091   5.147   4.978 -1.5568  0.1191 -1.4091
 6101SOL    MW424172   2.138   5.215   4.952  0.3252 -0.1735 -0.1161
 6102SOL     OW24173   0.234   0.593   5.498  0.2023 -0.0607 -0.2004
 6102SOL    HW224174   0.326   0.613   5.477 -0.5087  1.0524 -2.5884
 6102SOL    HW324175   0.210   0.659   5.563 -0.2070  2.9753 -3.1736
 6102SOL    MW424176   0.243   0.604   5.504  0.0545 -0.6386  0.4988
 6103SOL     OW24177   5.075   1.683   2.730 -0.5957 -0.1110 -0.0574
 6103SOL    HW224178   5.041   1.631   2.802 -1.2132 -1.0350 -0.9835
 6103SOL    HW324179   4.999   1.732   2.697 -0.6386 -0.7304 -0.9229
 6103SOL    MW424180   5.061   1.682   2.735  0.0778 -0.6835 -0.6148
 6104SOL     OW24181   1.196   6.318   1.451 -1.0703  0.6815 -0.6184
 6104SOL    HW224182   1.108   6.315   1.490 -0.7389  0.6506  0.1450
 6104SOL    HW324183   1.220   6.226   1.441 -2.3848  0.5524 -3.8257
 6104SOL    MW424184   1.187   6.305   1.455  0.7950  0.7344  0.2183
 6105SOL     OW24185   1.000   2.367   5.592  0.1073 -0.0716  0.2933
 6105SOL    HW224186   1.039   2.391   5.676 -0.0832  1.4922 -0.0351
 6105SOL    HW324187   1.075   2.365   5.531  0.5225 -2.8695  0.7628
 6105SOL    MW424188   1.015   2.370   5.595  0.4728 -0.1989  0.2185
 6106SOL     OW24189   0.698   6.252   2.683 -0.3246  0.1028  0.0953
 6106SOL    HW224190   0.669   6.331   2.731  1.4387 -0.2078  1.7685
 6106SOL    HW324191   0.698   6.279   2.591 -1.6328  1.4365  0.4417
 6106SOL    MW424192   0.694   6.266   2.677  0.5629  0.6370  0.1446
 6107SOL     OW24193   4.912   3.731   0.552 -0.1756  0.1741  0.1639
 6107SOL    HW224194   4.861   3.811   0.565  1.9572  1.4410  1.2686
 6107SOL    HW324195   4.940   3.705   0.640  1.0545 -0.4693 -0.3884
 6107SOL    MW424196   4.909   3.738   0.565  0.0760 -0.6369 -0.6068
 6108SOL     OW24197   3.093   2.426   6.234  0.1274 -0.2662  0.0505
 6108SOL    HW224198   3.053   2.425   6.147  1.4081 -1.4732 -0.5811
 6108SOL    HW324199   3.023   2.452   6.293 -0.8753  0.1958 -1.3015
 6108SOL    MW424200   3.079   2.429   6.230 -0.0438 -0.6495  0.0557
 6109SOL     OW24201   1.779   1.730   6.333  0.4819  0.2843 -0.1461
 6109SOL    HW224202   1.822   1.651   6.364  0.5662 -0.1074 -1.2168
 6109SOL    HW324203   1.808   1.799   6.393 -0.2456 -0.6372  1.3010
 6109SOL    MW424204   1.788   1.729   6.345  0.0616  0.5099 -0.1744
 6110SOL     OW24205   3.450   3.079   2.017 -0.2676 -0.4548 -0.3431
 6110SOL    HW224206   3.358   3.092   2.039 -0.4737  0.4277 -1.6293
 6110SOL    HW324207   3.451   3.007   1.954 -0.0223 -0.7614  0.0045
 6110SOL    MW424208   3.438   3.072   2.012  0.5201 -0.5371 -0.3090
 6111SOL     OW24209   3.037   3.338   1.472  0.1410 -0.7420 -0.1010
 6111SOL    HW224210   3.103   3.370   1.535  0.5293 -1.1240 -0.3106
 6111SOL    HW324211   3.038   3.243   1.482  0.8165 -0.8800 -1.2790
 6111SOL    MW424212   3.046   3.330   1.482  0.2572  0.1288 -0.2472
 6112SOL     OW24213   0.847   1.852   4.017 -0.0899 -0.4481  0.0969
 6112SOL    HW224214   0.886   1.770   4.047 -0.8769 -0.9340 -0.1899
 6112SOL    HW324215   0.797   1.829   3.939 -0.4889  0.2647  0.1294
 6112SOL    MW424216   0.845   1.838   4.011 -0.2558  0.1792  0.3718
 6113SOL     OW24217   1.302   2.770   3.871 -0.0021 -0.3533  0.6131
 6113SOL    HW224218   1.389   2.731   3.859  0.1697 -0.1241  1.0936
 6113SOL    HW324219   1.253   2.705   3.920 -0.0407 -0.3999  0.5127
 6113SOL    MW424220   1.307   2.757   3.876 -0.1242  0.1838  0.0470
 6114SOL     OW24221   1.293   5.797   0.225 -0.6926 -0.3249 -0.1589
 6114SOL    HW224222   1.342   5.861   0.174  0.1854 -1.5153 -0.8814
 6114SOL    HW324223   1.262   5.845   0.301 -0.5228  1.0723 -0.9377
 6114SOL    MW424224   1.296   5.812   0.228  0.3522 -0.2320 -0.5992
 6115SOL     OW24225   1.786   1.603   4.394 -0.1611 -0.3936 -0.8366
 6115SOL    HW224226   1.854   1.582   4.456 -1.0754 -1.9812 -0.3213
 6115SOL    HW324227   1.721   1.653   4.444 -0.5918 -1.1202 -0.6539
 6115SOL    MW424228   1.786   1.607   4.409 -0.3607  0.2307  0.2762
 6116SOL     OW24229   3.988   2.941   1.787 -0.0688  0.0393  0.6423
 6116SOL    HW224230   4.036   2.858   1.787 -0.0825  0.0241 -0.1433
 6116SOL    HW324231   4.055   3.008   1.773 -0.0928  0.1398  1.0010
 6116SOL    MW424232   4.003   2.939   1.785 -0.1689  0.0950  0.6377
 6117SOL     OW24233   2.180   1.720   2.388  1.0579 -0.0355  0.0304
 6117SOL    HW224234   2.101   1.667   2.384  1.7568 -1.0389 -1.7393
 6117SOL    HW324235   2.252   1.658   2.376  1.9883  1.0894 -0.4935
 6117SOL    MW424236   2.179   1.705   2.386  0.1758  0.4243 -0.4966
 6118SOL     OW24237   5.759   0.722   2.713  0.1523 -0.1610  0.0228
 6118SOL    HW224238   5.682   0.770   2.682  0.6530  0.7832  0.1879
 6118SOL    HW324239   5.763   0.644   2.657  0.5817  1.0878 -1.7706
 6118SOL    MW424240   5.749   0.718   2.701 -0.3535  0.0598 -0.0013
 6119SOL     OW24241   2.351   2.465   2.771 -0.5411  0.2082 -0.0805
 6119SOL    HW224242   2.355   2.486   2.864  0.3413  2.3608 -0.5456
 6119SOL    HW324243   2.395   2.538   2.728 -0.2829 -1.0877 -2.1525
 6119SOL    MW424244   2.357   2.478   2.777 -0.6714 -0.4344  0.6004
 6120SOL     OW24245   5.407   3.146   4.404  0.0442  0.3117  0.1411
 6120SOL    HW224246   5.412   3.227   4.454  1.2909 -0.8276  1.9586
 6120SOL    HW324247   5.417   3.077   4.469  0.4111 -1.2826 -1.5284
 6120SOL    MW424248   5.409   3.148   4.419 -0.3881 -0.3810  0.6302
 6121SOL     OW24249   4.454   3.953   1.681  0.1026  0.1620  0.8491
 6121SOL    HW224250   4.531   4.004   1.656  0.6073 -0.4446  1.1184
 6121SOL    HW324251   4.426   3.990   1.764 -1.7061  2.3230 -0.6231
 6121SOL    MW424252   4.460   3.964   1.689  0.0548 -0.2025 -0.7639
 6122SOL     OW24253   3.893   3.473   0.060  0.0237  0.1075 -0.2535
 6122SOL    HW224254   3.869   3.422  -0.017 -1.1696  0.9887 -0.4909
 6122SOL    HW324255   3.885   3.412   0.133 -1.1241 -0.1256 -0.5615
 6122SOL    MW424256   3.889   3.458   0.059 -1.0088  0.2719  0.7172
 6123SOL     OW24257   4.958   1.112   1.281  0.0574 -0.0904 -0.0698
 6123SOL    HW224258   4.995   1.195   1.251  0.1351  0.0826  0.4926
 6123SOL    HW324259   4.984   1.049   1.215 -0.9682  0.5420 -1.1102
 6123SOL    MW424260   4.966   1.115   1.269 -0.9405  0.9616 -0.0330
 6124SOL     OW24261   1.219   6.212   1.728  0.3767  0.4522  0.0505
 6124SOL    HW224262   1.232   6.118   1.714  4.2995  1.1307 -2.7124
 6124SOL    HW324263   1.174   6.243   1.649  0.0821  1.0657  0.4446
 6124SOL    MW424264   1.215   6.204   1.715 -0.2024 -0.4765 -0.2279
 6125SOL     OW24265   3.800   2.488   0.354 -0.9055 -0.4331 -0.0444
 6125SOL    HW224266   3.836   2.420   0.411 -0.2380  0.2090  0.3027
 6125SOL    HW324267   3.756   2.439   0.284  1.8598 -1.3108 -1.3312
 6125SOL    MW424268   3.799   2.473   0.352  0.1571 -0.1372 -0.0461
 6126SOL     OW24269   1.442   2.637   1.644 -0.3608 -0.2431 -0.3552
 6126SOL    HW224270   1.420   2.689   1.721  0.0136 -0.2229 -0.2593
 6126SOL    HW324271   1.510   2.687   1.600 -0.2493 -0.4790 -0.4517
 6126SOL    MW424272   1.448   2.650   1.649  0.7078 -0.4205 -0.5883
 6127SOL     OW24273  -0.000   0.739   1.537 -0.2498  0.3704 -0.3121
 6127SOL    HW224274  -0.066   0.671   1.548  0.8976 -0.7963 -0.4440
 6127SOL    HW324275   0.054   0.709   1.463  1.3113  0.5410  0.7063
 6127SOL    MW424276  -0.001   0.726   1.528 -0.0877  0.0957  0.1448
 6128SOL     OW24277   3.037   1.816   0.434  0.1972 -0.0656 -0.2791
 6128SOL    HW224278   3.098   1.802   0.506 -0.1480  1.7774  0.4375
 6128SOL    HW324279   3.092   1.844   0.360  0.5213 -1.6881 -0.6865
 6128SOL    MW424280   3.052   1.818   0.433  0.2031 -0.3295  0.7531
 6129SOL     OW24281   3.741   2.149   2.834 -0.6606 -0.7684 -0.0946
 6129SOL    HW224282   3.681   2.219   2.859 -0.4410  0.0421 -1.7519
 6129SOL    HW324283   3.824   2.174   2.874 -0.8382 -0.6294  0.1923
 6129SOL    MW424284   3.744   2.162   2.843 -0.5349  0.6848 -0.9353
 6130SOL     OW24285   4.698   1.999   0.766  0.2467  0.0320  0.0501
 6130SOL    HW224286   4.603   1.990   0.755  0.1473  1.6938 -0.7579
 6130SOL    HW324287   4.734   1.916   0.734 -0.8833 -0.3399 -0.3112
 6130SOL    MW424288   4.690   1.987   0.761  0.6673  0.1134 -0.3102
 6131SOL     OW24289   5.922   0.145   6.242  0.1019 -0.0671  0.1510
 6131SOL    HW224290   5.991   0.209   6.222  0.3400 -0.8077 -1.5608
 6131SOL    HW324291   5.867   0.189   6.307  1.0768  1.3037  0.0977
 6131SOL    MW424292   5.924   0.159   6.248 -0.0203  0.0118 -0.4196
 6132SOL     OW24293   0.682   1.165   2.343  0.1250  0.5665 -0.4549
 6132SOL    HW224294   0.659   1.180   2.251  1.8216  1.3838 -0.7764
 6132SOL    HW324295   0.599   1.177   2.390 -0.8671 -0.2827 -1.8872
 6132SOL    MW424296   0.668   1.168   2.337  0.4344  0.1722  0.3234
 6133SOL     OW24297   6.169   0.009   5.528  0.1902 -0.1388  0.1125
 6133SOL    HW224298   6.101   0.071   5.501 -0.2875 -1.4005 -1.7984
 6133SOL    HW324299   6.250   0.045   5.492  0.0780 -0.1088 -0.1101
 6133SOL    MW424300   6.170   0.022   5.520 -0.1103 -0.2985  1.0579
 6134SOL     OW24301   3.551   1.088   3.012 -0.6804  0.0191  0.3195
 6134SOL    HW224302   3.468   1.109   2.969 -0.7452 -0.6704  0.0932
 6134SOL    HW324303   3.574   1.001   2.978  0.8666  0.8070 -0.7490
 6134SOL    MW424304   3.543   1.079   3.002 -0.3536 -0.5415  1.0069
 6135SOL     OW24305   3.216   3.526   2.250 -0.1278  0.0142  0.0143
 6135SOL    HW224306   3.146   3.503   2.311 -0.2221  1.6835  0.6017
 6135SOL    HW324307   3.259   3.602   2.291  0.0152  0.9847 -1.8202
 6135SOL    MW424308   3.212   3.533   2.264 -0.1505  0.1796  0.1406
 6136SOL     OW24309   0.129   0.829   1.784  0.0574  0.3833 -0.0393
 6136SOL    HW224310   0.208   0.788   1.749  0.2426  1.5930 -1.1367
 6136SOL    HW324311   0.069   0.831   1.709 -0.3938  0.9968  0.3309
 6136SOL    MW424312   0.131   0.824   1.769 -0.3866 -0.2053  0.0634
 6137SOL     OW24313   5.198   5.593   0.993  0.3322 -0.0146 -0.0282
 6137SOL    HW224314   5.284   5.575   0.956  1.6425  1.0410  2.2705
 6137SOL    HW324315   5.179   5.519   1.051 -0.7583 -0.6762 -1.1840
 6137SOL    MW424316   5.206   5.581   0.996  0.5358  0.6591 -0.2972
 6138SOL     OW24317   0.758   4.694   3.502  0.3379 -0.3609 -0.7229
 6138SOL    HW224318   0.822   4.640   3.549 -0.4326 -1.8310 -1.3109
 6138SOL    HW324319   0.804   4.721   3.423  1.3734  1.4817  0.4198
 6138SOL    MW424320   0.773   4.690   3.498  0.6889 -0.0016  0.1967
 6139SOL     OW24321   3.736   4.186   5.480  0.3772  0.3904 -0.0019
 6139SOL    HW224322   3.715   4.276   5.455 -1.6839  0.5242  1.9007
 6139SOL    HW324323   3.803   4.195   5.549  0.4118  0.4438 -0.0424
 6139SOL    MW424324   3.742   4.199   5.486  0.4824 -0.1809 -0.2722
 6140SOL     OW24325   4.029   4.485   5.976 -0.0906  0.3163  0.0793
 6140SOL    HW224326   4.116   4.519   5.957 -0.4379 -0.0756 -2.6219
 6140SOL    HW324327   4.039   4.437   6.059  2.5407 -0.7318 -0.7360
 6140SOL    MW424328   4.042   4.483   5.985 -0.1316  0.5746  0.6845
 6141SOL     OW24329   6.393   2.902   3.817 -0.1037 -0.3551  0.1794
 6141SOL    HW224330   6.314   2.853   3.840 -0.7233 -0.9027 -2.7142
 6141SOL    HW324331   6.432   2.853   3.746  1.4312  1.3024 -0.2037
 6141SOL    MW424332   6.387   2.889   3.811 -0.3721  0.5514  0.5019
 6142SOL     OW24333   0.159   5.621   2.944  0.0857 -0.0333 -0.5374
 6142SOL    HW224334   0.238   5.591   2.988 -0.4695 -0.3957  0.2481
 6142SOL    HW324335   0.187   5.695   2.891  0.5957  1.1997  1.3631
 6142SOL    MW424336   0.173   5.627   2.943  0.2472  0.1670  0.6229
 6143SOL     OW24337   5.814   5.724   5.535  0.1398 -0.0817  0.0621
 6143SOL    HW224338   5.777   5.646   5.575  0.6934 -0.8225 -0.8277
 6143SOL    HW324339   5.860   5.769   5.606  0.1891 -0.7890  0.4813
 6143SOL    MW424340   5.815   5.720   5.549  0.4744  0.6055  0.3399
 6144SOL     OW24341   0.167   1.789   3.853  0.1729  0.7628 -0.4845
 6144SOL    HW224342   0.100   1.830   3.908 -0.5502 -0.1922 -0.6235
 6144SOL    HW324343   0.199   1.715   3.905 -0.0919  0.2066 -1.1009
 6144SOL    MW424344   0.162   1.784   3.867 -0.0899 -0.8055 -0.0290
 6145SOL     OW24345   0.894   0.636   0.381  0.0315 -0.4139  0.4274
 6145SOL    HW224346   0.828   0.704   0.399 -0.2106 -0.4359 -0.3592
 6145SOL    HW324347   0.971   0.685   0.351 -0.5626 -0.5343 -1.3963
 6145SOL    MW424348   0.895   0.652   0.379 -0.3463  0.0831  0.2149
 6146SOL     OW24349   5.540   4.776   1.288  0.0546 -0.1022  0.0439
 6146SOL    HW224350   5.460   4.797   1.240  0.9346  1.2012 -0.9264
 6146SOL    HW324351   5.535   4.682   1.303 -1.3179 -0.1604 -0.6098
 6146SOL    MW424352   5.528   4.767   1.284  0.3653  0.0453  0.5750
 6147SOL     OW24353   0.933   0.781   1.727 -0.0562 -0.6990 -0.1924
 6147SOL    HW224354   0.906   0.821   1.810 -0.0797 -1.0336 -0.0359
 6147SOL    HW324355   0.952   0.855   1.669  1.0733 -0.4392  0.4680
 6147SOL    MW424356   0.932   0.796   1.730 -0.7795 -0.4234 -0.1945
 6148SOL     OW24357   4.286   5.437   2.931 -0.3102 -0.1122 -0.2241
 6148SOL    HW224358   4.200   5.478   2.918 -0.3876 -0.2636 -0.2056
 6148SOL    HW324359   4.285   5.362   2.871  0.1280  0.3486 -0.8079
 6148SOL    MW424360   4.274   5.432   2.922 -0.6873 -0.5283 -0.4922
 6149SOL     OW24361   1.424   3.289   0.899 -0.2138  0.0513  0.2550
 6149SOL    HW224362   1.346   3.335   0.929  0.8657  2.0050  0.2319
 6149SOL    HW324363   1.391   3.223   0.838 -1.7588  1.7183 -0.8210
 6149SOL    MW424364   1.410   3.286   0.895  0.2062 -0.1176  0.1301
 6150SOL     OW24365   1.673   5.560   4.997 -0.2276  0.2811 -0.6630
 6150SOL    HW224366   1.625   5.610   5.063 -0.4863 -0.6405 -0.1405
 6150SOL    HW324367   1.699   5.626   4.932  1.1908  1.4569  0.9762
 6150SOL    MW424368   1.670   5.576   4.997  1.1477 -0.1582 -0.3959
 6151SOL     OW24369   5.250   4.637   2.421 -0.1343  0.2391  0.2421
 6151SOL    HW224370   5.340   4.642   2.390  0.0895  0.7388  0.9459
 6151SOL    HW324371   5.225   4.546   2.408  0.4525  0.1101  0.0004
 6151SOL    MW424372   5.258   4.626   2.415 -0.1610 -0.4029  0.1187
 6152SOL     OW24373   0.749   5.811   1.741  0.8445  0.5628  0.1086
 6152SOL    HW224374   0.658   5.810   1.710  0.8069  2.2959  0.0410
 6152SOL    HW324375   0.795   5.753   1.681 -0.2776 -0.6674  0.3884
 6152SOL    MW424376   0.743   5.804   1.729  0.7386  0.1243 -0.4988
 6153SOL     OW24377   5.484   1.412   0.669 -0.3196 -0.0493  0.1711
 6153SOL    HW224378   5.578   1.424   0.680 -0.4505 -0.6453  2.2857
 6153SOL    HW324379   5.468   1.431   0.576  1.8174  0.3577 -0.1556
 6153SOL    MW424380   5.494   1.416   0.658 -0.3552  0.9611  0.2487
 6154SOL     OW24381   3.554   0.275   6.292  0.6413  0.6538 -0.7309
 6154SOL    HW224382   3.625   0.338   6.278  0.7629  0.6451 -0.1854
 6154SOL    HW324383   3.598   0.195   6.320  0.3422  1.4326  2.4450
 6154SOL    MW424384   3.569   0.273   6.294  0.0909  0.1469 -0.7680
 6155SOL     OW24385   0.215   2.474   3.123  0.2088  0.1328  0.0357
 6155SOL    HW224386   0.210   2.531   3.200 -0.1174 -1.6923  1.4329
 6155SOL    HW324387   0.304   2.439   3.126  0.1881  0.0443 -0.4158
 6155SOL    MW424388   0.226   2.477   3.134  0.0311  0.7174  0.3946
 6156SOL     OW24389   2.065   1.789   0.063 -0.5033  0.0535 -0.7671
 6156SOL    HW224390   2.084   1.717   0.004 -0.5084  1.5922 -2.7700
 6156SOL    HW324391   2.115   1.863   0.027 -1.4317  1.3385  0.4738
 6156SOL    MW424392   2.074   1.790   0.050 -0.6471 -0.0644  0.3898
 6157SOL     OW24393   4.041   0.920   4.025 -0.3972 -0.5095 -0.2002
 6157SOL    HW224394   4.046   0.856   4.096 -0.3899 -0.0908  0.1791
 6157SOL    HW324395   4.050   1.005   4.068  0.0731 -0.2703 -0.7533
 6157SOL    MW424396   4.043   0.923   4.040  0.2704  0.1284 -0.2860
 6158SOL     OW24397   4.471   2.600   0.916 -0.6325 -0.0866 -0.5393
 6158SOL    HW224398   4.422   2.543   0.858 -0.0078  0.8013 -1.9835
 6158SOL    HW324399   4.531   2.647   0.859  0.0600  0.7661  0.8388
 6158SOL    MW424400   4.472   2.599   0.901 -0.1516  0.5110 -0.4828
 6159SOL     OW24401   0.548   6.170   5.163 -0.0653  0.5071  0.2928
 6159SOL    HW224402   0.597   6.216   5.095 -0.2513  0.3277  0.0373
 6159SOL    HW324403   0.616   6.136   5.222  0.2387 -1.2194 -0.9814
 6159SOL    MW424404   0.564   6.172   5.162  0.3346  0.3258 -0.7383
 6160SOL     OW24405   1.258   2.803   1.278  0.3289  0.2198 -0.7157
 6160SOL    HW224406   1.210   2.756   1.346  0.2594 -0.1069 -0.9858
 6160SOL    HW324407   1.312   2.866   1.325  0.2151  0.0535 -0.3634
 6160SOL    MW424408   1.259   2.805   1.293 -0.2214 -0.6471 -0.0690
 6161SOL     OW24409   5.597   3.359   0.718  0.3159 -0.6101  0.0408
 6161SOL    HW224410   5.580   3.411   0.797  0.0643 -2.1840  1.0754
 6161SOL    HW324411   5.654   3.414   0.665  2.3500 -0.3335  2.3218
 6161SOL    MW424412   5.602   3.373   0.722  0.0272 -0.0558  0.3479
 6162SOL     OW24413   5.227   0.794   5.782 -0.0089  0.0716  0.6818
 6162SOL    HW224414   5.187   0.715   5.818 -0.6658 -0.6692 -1.5265
 6162SOL    HW324415   5.319   0.771   5.771 -0.2643 -0.5425 -0.2840
 6162SOL    MW424416   5.234   0.780   5.785  0.3423  0.2265  0.3188
 6163SOL     OW24417   2.546   2.460   1.215 -0.2428  0.3166 -0.2091
 6163SOL    HW224418   2.454   2.438   1.225 -0.3261  0.6571 -0.2180
 6163SOL    HW324419   2.554   2.548   1.252  0.5523 -0.6263  2.0496
 6163SOL    MW424420   2.535   2.469   1.221 -0.1933  0.3964 -0.7005
 6164SOL     OW24421   2.556   0.656   4.507  0.6494  0.4233 -0.7187
 6164SOL    HW224422   2.626   0.633   4.447  0.7903  0.6351 -0.6370
 6164SOL    HW324423   2.481   0.604   4.478  1.3602 -1.2720  0.3889
 6164SOL    MW424424   2.555   0.646   4.495 -0.1438 -0.3041  0.1752
 6165SOL     OW24425   5.380   0.300   0.725  0.1782  0.1321 -0.8354
 6165SOL    HW224426   5.428   0.227   0.765  0.6789  0.1578 -1.3687
 6165SOL    HW324427   5.405   0.376   0.777  1.1473  0.2344 -1.4319
 6165SOL    MW424428   5.390   0.300   0.737  0.2243  0.1649  0.2205
 6166SOL     OW24429   5.949   2.040   3.226 -0.5003  0.4155 -0.3304
 6166SOL    HW224430   5.950   2.128   3.188 -1.1536  0.0302 -1.2502
 6166SOL    HW324431   5.857   2.014   3.226 -0.1055 -1.2232 -2.3395
 6166SOL    MW424432   5.937   2.048   3.221 -0.0696 -0.7035  0.0104
 6167SOL     OW24433   2.158   0.632   2.533 -0.1554 -0.9260 -0.5443
 6167SOL    HW224434   2.117   0.716   2.552 -0.8375 -1.0658 -1.3435
 6167SOL    HW324435   2.086   0.576   2.502  0.2727 -1.8292  0.0564
 6167SOL    MW424436   2.143   0.636   2.531 -0.2884 -0.1099 -0.5211
 6168SOL     OW24437   1.034   5.145   6.387 -0.0893  0.3164  0.0681
 6168SOL    HW224438   1.054   5.061   6.428 -2.3180 -0.8664 -1.1190
 6168SOL    HW324439   1.072   5.138   6.299 -0.9657  0.1918 -0.3130
 6168SOL    MW424440   1.042   5.133   6.380 -0.3939  0.0283  0.6020
 6169SOL     OW24441   4.438   2.322   5.079  0.3686 -0.6161  0.1290
 6169SOL    HW224442   4.413   2.356   5.165  1.3894  0.4544  0.0227
 6169SOL    HW324443   4.495   2.247   5.098  2.4373  0.9563  0.4630
 6169SOL    MW424444   4.442   2.316   5.093 -0.0233 -0.3858  0.0087
 6170SOL     OW24445   1.075   5.622   5.442  0.6322  0.2448 -0.2656
 6170SOL    HW224446   1.007   5.582   5.387 -0.7560  0.2733  1.3238
 6170SOL    HW324447   1.100   5.702   5.396 -1.4628  0.9660 -0.2674
 6170SOL    MW424448   1.069   5.627   5.429  0.2480  1.2315 -0.1402
 6171SOL     OW24449   4.242   5.893   4.766 -0.8804  0.5433  0.0295
 6171SOL    HW224450   4.257   5.803   4.738 -2.2440 -0.9020  3.4415
 6171SOL    HW324451   4.308   5.944   4.718 -1.2942 -1.8595 -3.4976
 6171SOL    MW424452   4.253   5.888   4.756  0.1209 -0.1369  0.0066
 6172SOL     OW24453   5.557   2.096   0.848 -0.2256 -0.3828 -0.2824
 6172SOL    HW224454   5.499   2.079   0.774 -0.3698  0.1962 -0.3075
 6172SOL    HW324455   5.603   2.013   0.862 -0.0984 -0.4603 -1.1064
 6172SOL    MW424456   5.556   2.083   0.840 -0.3319  0.6383 -0.3697
 6173SOL     OW24457   3.721   1.604   1.202 -0.3326  0.2906  0.2165
 6173SOL    HW224458   3.674   1.522   1.182  0.3643 -0.1451  0.3232
 6173SOL    HW324459   3.788   1.578   1.264  0.1555  0.8759 -0.0615
 6173SOL    MW424460   3.723   1.589   1.207 -0.0465 -0.1714  0.0510
 6174SOL     OW24461   6.198   6.230   2.039 -0.4814 -0.3214  0.1188
 6174SOL    HW224462   6.170   6.317   2.070 -1.1086 -0.7216  0.7088
 6174SOL    HW324463   6.210   6.240   1.945  1.1837  0.8641  0.4034
 6174SOL    MW424464   6.196   6.243   2.031 -0.0999 -0.0028  0.0536
 6175SOL     OW24465   4.965   0.884   2.244 -0.5360  0.6328  0.4044
 6175SOL    HW224466   4.948   0.917   2.156 -0.9399  0.3567  0.3757
 6175SOL    HW324467   4.986   0.961   2.295 -0.8725  0.8637  0.1998
 6175SOL    MW424468   4.966   0.898   2.239 -0.1464  0.0945  0.0119
 6176SOL     OW24469   5.561   1.956   4.176  0.7572 -0.0511 -0.4100
 6176SOL    HW224470   5.601   2.029   4.130  0.7105 -1.3036 -2.6113
 6176SOL    HW324471   5.501   1.917   4.111  1.2222 -2.3510  0.4407
 6176SOL    MW424472   5.558   1.960   4.161 -0.5972 -0.0856  0.1873
 6177SOL     OW24473   6.283   1.304   5.008 -0.3295  0.0280 -0.4809
 6177SOL    HW224474   6.362   1.320   4.957 -0.8027 -1.2372 -1.6509
 6177SOL    HW324475   6.309   1.324   5.098  1.4136 -0.6656 -0.7911
 6177SOL    MW424476   6.297   1.309   5.013 -0.4972  0.1256 -0.3915
 6178SOL     OW24477   4.554   5.754   2.190 -0.4401 -0.0332  0.4378
 6178SOL    HW224478   4.649   5.768   2.187 -0.4402 -0.1647 -1.0656
 6178SOL    HW324479   4.544   5.670   2.236  0.2272 -0.4070 -0.0835
 6178SOL    MW424480   4.565   5.745   2.196 -0.7776  0.3433  0.3153
 6179SOL     OW24481   5.625   2.914   2.347 -0.6345 -0.0342 -0.1133
 6179SOL    HW224482   5.599   2.916   2.255  0.2623  0.1223 -0.3807
 6179SOL    HW324483   5.615   2.823   2.373 -0.1690 -0.2290 -0.5985
 6179SOL    MW424484   5.620   2.902   2.338 -0.2175  0.2632 -0.1127
 6180SOL     OW24485   5.975   2.069   4.072  0.4633 -0.1208 -0.1551
 6180SOL    HW224486   5.894   2.029   4.040  0.7777 -0.5269 -0.4558
 6180SOL    HW324487   5.948   2.154   4.106  0.2619  0.8078 -2.4829
 6180SOL    MW424488   5.960   2.075   4.072 -0.9165 -0.2873 -0.4245
 6181SOL     OW24489   3.874   2.765   2.708  0.3978  0.3653 -0.0446
 6181SOL    HW224490   3.899   2.841   2.760 -0.9877  2.2119 -1.9058
 6181SOL    HW324491   3.911   2.782   2.621 -0.5337 -0.7415 -0.6944
 6181SOL    MW424492   3.882   2.777   2.703  0.1846 -0.3513 -0.0835
 6182SOL     OW24493   1.315   3.129   0.632 -0.0387  0.1454 -0.0992
 6182SOL    HW224494   1.260   3.068   0.584  0.7878 -0.4850 -0.2607
 6182SOL    HW324495   1.388   3.076   0.663 -0.1931  0.6889  1.2487
 6182SOL    MW424496   1.317   3.114   0.630  0.2274  0.3400  0.0619
 6183SOL     OW24497   1.797   5.151   6.356  0.0770 -0.0898 -0.1889
 6183SOL    HW224498   1.726   5.181   6.413  0.3583  0.2497 -0.0157
 6183SOL    HW324499   1.865   5.218   6.365  1.4751 -1.6403  1.5952
 6183SOL    MW424500   1.796   5.164   6.365 -0.3675 -0.5589 -0.2664
 6184SOL     OW24501   4.884   5.630   1.782 -0.0887  0.0689 -0.2897
 6184SOL    HW224502   4.914   5.721   1.784  1.6593 -0.4912  0.3946
 6184SOL    HW324503   4.877   5.605   1.874  0.2855 -0.7425 -0.4746
 6184SOL    MW424504   4.887   5.639   1.795  0.5534  0.5130 -0.2459
 6185SOL     OW24505   4.160   2.847   4.613 -0.3017  0.5110  0.0251
 6185SOL    HW224506   4.141   2.898   4.534 -1.0542 -0.9391 -0.7633
 6185SOL    HW324507   4.105   2.769   4.605  2.8069 -1.8095 -0.2052
 6185SOL    MW424508   4.150   2.844   4.602  0.3805 -0.2541  0.0447
 6186SOL     OW24509   1.252   1.523   2.889  0.0128  0.6470 -0.2689
 6186SOL    HW224510   1.280   1.556   2.804  0.7907 -0.4396 -0.4616
 6186SOL    HW324511   1.295   1.580   2.953  0.9183  0.3648 -0.6008
 6186SOL    MW424512   1.262   1.535   2.886  0.0335 -0.3544 -0.1511
 6187SOL     OW24513   4.902   1.559   4.400  0.2550 -0.0932  0.3902
 6187SOL    HW224514   4.928   1.650   4.409  1.1984 -0.1897 -0.9803
 6187SOL    HW324515   4.951   1.527   4.324 -1.4432 -1.2274 -0.3027
 6187SOL    MW424516   4.912   1.567   4.391 -0.3252  0.1713  0.0850
 6188SOL     OW24517   0.805   1.256   0.044  0.2753 -0.4945  0.3817
 6188SOL    HW224518   0.834   1.319   0.110  1.9793  0.6433 -1.3709
 6188SOL    HW324519   0.726   1.295   0.007 -0.3234 -0.8296  1.2772
 6188SOL    MW424520   0.798   1.270   0.048  0.5836  0.0637  0.3124
 6189SOL     OW24521   2.527   4.741   0.324  0.1688  0.3330  0.0633
 6189SOL    HW224522   2.508   4.657   0.367 -3.4991  2.0448  2.2578
 6189SOL    HW324523   2.483   4.734   0.239 -0.6706  0.2115  0.4925
 6189SOL    MW424524   2.519   4.729   0.319  0.0125 -0.2603 -0.3175
 6190SOL     OW24525   2.106   1.052   3.225  0.3207  0.2014 -1.1723
 6190SOL    HW224526   2.200   1.069   3.232 -0.2515  3.1701  1.2234
 6190SOL    HW324527   2.068   1.135   3.196 -1.8127  0.0444  0.8783
 6190SOL    MW424528   2.114   1.065   3.222  0.4580 -0.3633 -0.0191
 6191SOL     OW24529   3.062   1.689   0.056  0.2182  0.5732 -0.9069
 6191SOL    HW224530   3.048   1.604   0.099  0.7342  0.4018 -1.0707
 6191SOL    HW324531   3.115   1.739   0.117  2.0836 -0.1477 -1.8743
 6191SOL    MW424532   3.067   1.684   0.070 -0.3226  0.0487  0.2041
 6192SOL     OW24533   2.053   3.426   0.029 -0.0845 -0.2070 -0.1229
 6192SOL    HW224534   2.123   3.485   0.056  0.3996 -1.5232  1.7079
 6192SOL    HW324535   2.026   3.383   0.110 -0.0858 -2.8547 -1.4329
 6192SOL    MW424536   2.058   3.428   0.043  0.3030  0.2131 -0.5762
 6193SOL     OW24537   4.958   0.716   0.051 -0.4537  0.2245 -0.5650
 6193SOL    HW224538   5.018   0.657   0.097 -1.1633 -0.6106 -0.6800
 6193SOL    HW324539   4.871   0.676   0.063 -0.9215  1.1376 -0.8309
 6193SOL    MW424540   4.954   0.703   0.059 -0.0804  0.2725  0.2692
 6194SOL     OW24541   4.726   3.188   5.035  0.0919  0.4955 -0.1471
 6194SOL    HW224542   4.781   3.155   4.964 -0.3706  0.3687 -0.4426
 6194SOL    HW324543   4.770   3.157   5.115 -0.5466 -1.1837 -0.4163
 6194SOL    MW424544   4.739   3.179   5.036  0.2837 -0.3884  0.6039
 6195SOL     OW24545   0.494   3.705   2.225  0.0168 -0.0098  0.3069
 6195SOL    HW224546   0.534   3.781   2.267 -0.6545  0.8331 -0.5334
 6195SOL    HW324547   0.410   3.737   2.193  0.3625 -0.7157 -1.3770
 6195SOL    MW424548   0.488   3.719   2.227 -0.3318 -0.6558 -0.0854
 6196SOL     OW24549   3.136   5.470   3.431 -0.2479 -0.0464  0.3790
 6196SOL    HW224550   3.201   5.516   3.377 -1.7191  2.0738  0.3153
 6196SOL    HW324551   3.157   5.496   3.521 -1.9839  2.0884  0.2358
 6196SOL    MW424552   3.148   5.480   3.436  0.2453  0.3265  0.3406
 6197SOL     OW24553   5.693   5.544   1.189 -0.1747  0.1895  0.0326
 6197SOL    HW224554   5.731   5.501   1.112  0.8818  2.7092 -0.9525
 6197SOL    HW324555   5.598   5.532   1.178 -0.0285  0.1686 -1.4637
 6197SOL    MW424556   5.685   5.536   1.177  0.2145 -0.2138  0.1264
 6198SOL     OW24557   0.152   3.972   0.953 -0.3955  0.4755  0.4014
 6198SOL    HW224558   0.219   3.964   0.886  0.2007 -0.3799  1.0753
 6198SOL    HW324559   0.115   3.884   0.960  1.3583 -0.1780  2.9839
 6198SOL    MW424560   0.156   3.959   0.945  0.0530 -0.1397  0.5070
 6199SOL     OW24561   5.013   0.246   1.762 -0.4892 -0.1440 -0.0402
 6199SOL    HW224562   4.957   0.208   1.829 -0.1135  2.9214  2.2514
 6199SOL    HW324563   5.099   0.210   1.778 -0.6588 -0.3926  0.3213
 6199SOL    MW424564   5.017   0.236   1.773  0.7171  0.2289 -0.3172
 6200SOL     OW24565   5.052   4.496   1.181 -0.0524 -0.2833  0.4672
 6200SOL    HW224566   5.002   4.533   1.253 -1.4713  0.4757 -0.8521
 6200SOL    HW324567   5.058   4.567   1.117 -0.2530 -1.4082 -0.8528
 6200SOL    MW424568   5.046   4.510   1.182 -0.2363 -0.4438  0.0580
 6201SOL     OW24569   6.117   0.327   6.158  0.0986  0.2205 -0.3903
 6201SOL    HW224570   6.148   0.417   6.170  0.9983 -0.1164 -0.1182
 6201SOL    HW324571   6.158   0.298   6.077  1.4717 -0.6164  0.5647
 6201SOL    MW424572   6.126   0.335   6.149 -0.5249  0.4433 -0.2103
 6202SOL     OW24573   5.695   1.916   3.194 -0.1283  0.3568 -0.0182
 6202SOL    HW224574   5.684   1.925   3.100 -0.1156  1.1833  0.0510
 6202SOL    HW324575   5.605   1.916   3.229 -0.1669 -0.7168 -0.0819
 6202SOL    MW424576   5.682   1.917   3.186  0.2189  0.6924  0.4961
 6203SOL     OW24577   2.761   0.837   3.576  0.7042 -0.6867 -0.1381
 6203SOL    HW224578   2.703   0.811   3.504 -1.3714  0.0391  1.1751
 6203SOL    HW324579   2.764   0.760   3.633 -1.1077  0.0826  1.0703
 6203SOL    MW424580   2.754   0.823   3.574  0.3493 -0.1477 -0.0467
 6204SOL     OW24581   6.095   5.926   3.724 -0.2748  0.0509 -0.0455
 6204SOL    HW224582   6.132   5.844   3.693  0.2010  0.3154 -0.1835
 6204SOL    HW324583   6.006   5.903   3.752  0.0287 -0.6111  0.4016
 6204SOL    MW424584   6.088   5.912   3.724  0.5718  0.3352  0.8955
 6205SOL     OW24585   5.812   5.108   3.496  0.5966  0.5417  0.2652
 6205SOL    HW224586   5.729   5.135   3.455 -0.2958 -0.4099  1.3660
 6205SOL    HW324587   5.797   5.119   3.590  2.3716  2.0618  0.4204
 6205SOL    MW424588   5.799   5.113   3.503  0.1598 -0.2782  0.2997
 6206SOL     OW24589   1.839   6.344   1.355 -0.4410  0.1510 -0.5891
 6206SOL    HW224590   1.880   6.425   1.327 -0.9632  0.7666  0.3681
 6206SOL    HW324591   1.814   6.360   1.446  0.1291 -1.3522 -0.1364
 6206SOL    MW424592   1.841   6.356   1.363  0.4706  0.1665  0.8463
 6207SOL     OW24593   5.993   4.208   4.535 -0.3005 -0.1241  0.4186
 6207SOL    HW224594   6.028   4.211   4.624 -1.1795  0.6739  0.7563
 6207SOL    HW324595   5.961   4.296   4.519 -3.1817 -1.0417  0.5902
 6207SOL    MW424596   5.993   4.220   4.545  0.1824 -0.6007  0.1550
 6208SOL     OW24597   2.455   2.965   1.822  0.0250  0.0310  0.2184
 6208SOL    HW224598   2.476   2.900   1.889  0.1272  0.5216  0.6775
 6208SOL    HW324599   2.529   2.963   1.762  0.0781 -0.2009  0.2910
 6208SOL    MW424600   2.467   2.956   1.823  0.3066 -0.1033  0.1396
 6209SOL     OW24601   5.559   3.883   3.584  0.8776  0.0549  0.1255
 6209SOL    HW224602   5.635   3.939   3.601  1.7009  0.0040 -2.7932
 6209SOL    HW324603   5.597   3.801   3.554 -0.3254 -0.2301 -0.6811
 6209SOL    MW424604   5.574   3.880   3.582 -0.1753  0.1869  0.3957
 6210SOL     OW24605   3.179   4.124   0.893  0.5842 -0.2876  0.2271
 6210SOL    HW224606   3.161   4.186   0.964  0.3025  1.4444 -1.2818
 6210SOL    HW324607   3.125   4.154   0.820 -0.2358 -2.8626 -0.3404
 6210SOL    MW424608   3.170   4.136   0.893  0.5371 -0.4097 -1.0204
 6211SOL     OW24609   5.425   4.784   3.637  0.2527  0.5430 -0.2943
 6211SOL    HW224610   5.494   4.813   3.577 -0.8510 -0.6379 -2.2585
 6211SOL    HW324611   5.463   4.708   3.682 -0.0377 -0.7899 -2.1648
 6211SOL    MW424612   5.439   4.777   3.635 -0.6289  0.4752 -0.3598
 6212SOL     OW24613   5.275   2.850   4.092  0.3266 -0.1147  0.8258
 6212SOL    HW224614   5.328   2.877   4.017  0.3820 -1.4063  0.3890
 6212SOL    HW324615   5.334   2.798   4.146 -0.6051 -2.0423  0.0585
 6212SOL    MW424616   5.290   2.847   4.089  0.3450  0.0748 -0.1948
 6213SOL     OW24617   3.299   0.203   1.923 -0.4404  0.2647  0.5645
 6213SOL    HW224618   3.253   0.267   1.868  0.6255 -1.3155 -2.4024
 6213SOL    HW324619   3.240   0.128   1.926  0.7110 -0.7603 -1.0024
 6213SOL    MW424620   3.285   0.202   1.916  0.3009 -0.4086 -0.0903
 6214SOL     OW24621   6.096   4.603   3.343 -0.0011  0.5485 -0.2839
 6214SOL    HW224622   6.122   4.625   3.433  0.2087  0.3014 -0.2824
 6214SOL    HW324623   6.093   4.507   3.342  0.5504  0.5321 -0.6917
 6214SOL    MW424624   6.099   4.593   3.355 -0.2430  0.6634 -0.3275
 6215SOL     OW24625   2.476   2.941   0.782  0.1281  0.2948 -0.5656
 6215SOL    HW224626   2.430   2.872   0.735 -1.7403  1.0039  0.1150
 6215SOL    HW324627   2.537   2.894   0.840  0.3224 -0.6714 -1.5147
 6215SOL    MW424628   2.478   2.926   0.784 -0.1030 -0.3000 -0.2844
 6216SOL     OW24629   6.012   0.501   4.807  0.2274 -0.0122  0.2044
 6216SOL    HW224630   6.049   0.569   4.751  0.3491  0.4637  0.8493
 6216SOL    HW324631   5.955   0.450   4.749 -1.1449  1.6288  0.0201
 6216SOL    MW424632   6.009   0.503   4.792 -0.0198  0.7259  0.5339
 6217SOL     OW24633  -0.001   1.884   4.068 -0.0800  0.6010  0.4870
 6217SOL    HW224634   0.019   1.809   4.123  0.8664  0.1813 -0.3750
 6217SOL    HW324635  -0.095   1.897   4.076  0.1489  1.1598  2.9122
 6217SOL    MW424636  -0.011   1.876   4.076  0.3791  0.0942 -0.2070
 6218SOL     OW24637   1.564   2.210   5.340 -0.0666  0.7083  0.2575
 6218SOL    HW224638   1.535   2.251   5.259 -1.1828  1.2779  0.9329
 6218SOL    HW324639   1.505   2.135   5.352 -0.2807  0.9648  0.8370
 6218SOL    MW424640   1.553   2.205   5.331 -0.1288  0.4253  0.3111
 6219SOL     OW24641   3.357   2.504   3.155 -0.9797  0.2792  0.8184
 6219SOL    HW224642   3.305   2.437   3.200 -1.8994  1.3464  1.3807
 6219SOL    HW324643   3.414   2.539   3.224 -0.8787  0.4597  0.6429
 6219SOL    MW424644   3.358   2.499   3.170  0.1613 -0.7711 -0.3769
 6220SOL     OW24645   0.559   3.060   0.649 -0.7037 -0.3242 -0.0731
 6220SOL    HW224646   0.535   3.012   0.727 -2.9543  0.2646 -0.3044
 6220SOL    HW324647   0.487   3.044   0.588 -0.1863  1.1070 -1.1386
 6220SOL    MW424648   0.546   3.052   0.651  0.2913  0.1999  0.8183
 6221SOL     OW24649   1.471   5.971   1.597  0.8725 -0.6536 -0.4948
 6221SOL    HW224650   1.511   5.885   1.611  1.1349 -0.3687  0.5433
 6221SOL    HW324651   1.541   6.034   1.614  1.1235 -0.2319 -2.7197
 6221SOL    MW424652   1.485   5.968   1.601  0.1883 -0.0232 -0.1198
 6222SOL     OW24653   0.493   0.690   5.480  0.0814  0.2595  0.3865
 6222SOL    HW224654   0.573   0.715   5.526 -1.2410  2.8351  1.4899
 6222SOL    HW324655   0.451   0.773   5.458 -2.2173 -0.9941 -0.2971
 6222SOL    MW424656   0.498   0.704   5.483 -0.4206  0.0660  0.5362
 6223SOL     OW24657   5.937   6.314   0.076  0.2463 -0.0267  0.2058
 6223SOL    HW224658   5.952   6.273  -0.009  0.3831  1.5858 -0.5843
 6223SOL    HW324659   5.871   6.381   0.059 -0.6116 -0.4519  1.6344
 6223SOL    MW424660   5.930   6.317   0.062  0.3634  0.0640 -0.0633
 6224SOL     OW24661   4.770   6.375   0.944 -0.0277  0.2679  0.2718
 6224SOL    HW224662   4.850   6.388   0.892 -0.1468 -0.9805 -0.2442
 6224SOL    HW324663   4.795   6.400   1.033  1.1411 -0.7152  0.2460
 6224SOL    MW424664   4.784   6.380   0.949  0.8473 -0.2008 -0.9155
 6225SOL     OW24665   6.204   1.111   4.395  0.3870 -0.0459 -0.1520
 6225SOL    HW224666   6.180   1.125   4.304 -0.0884 -1.1550 -0.2113
 6225SOL    HW324667   6.245   1.194   4.422 -1.1405  0.9609 -0.8120
 6225SOL    MW424668   6.206   1.124   4.387  0.0324  0.8283 -0.3130
 6226SOL     OW24669   5.631   1.316   1.975 -0.2313 -0.3849  0.3112
 6226SOL    HW224670   5.670   1.377   2.038 -1.5349 -0.5889  1.3609
 6226SOL    HW324671   5.602   1.372   1.903 -2.4171  0.4873  1.7434
 6226SOL    MW424672   5.632   1.332   1.974  0.1777  0.1142  0.1225
 6227SOL     OW24673   5.285   6.365   0.556  0.5404 -0.1350  0.2260
 6227SOL    HW224674   5.258   6.375   0.647  0.7815  3.3205  0.0743
 6227SOL    HW324675   5.203   6.355   0.507  0.0941  1.3407  0.5981
 6227SOL    MW424676   5.270   6.365   0.561  0.1844 -0.0185  0.8260
 6228SOL     OW24677   0.880   1.531   4.982 -0.0775 -0.1688  0.3208
 6228SOL    HW224678   0.902   1.600   5.045 -0.7311 -0.6196  1.0655
 6228SOL    HW324679   0.893   1.450   5.031  2.4719 -0.7148 -1.0673
 6228SOL    MW424680   0.885   1.530   4.997 -0.4576 -0.4610  0.5650
 6229SOL     OW24681   4.763   1.398   2.809 -0.3143 -0.0876 -0.1349
 6229SOL    HW224682   4.828   1.345   2.856 -1.2939 -0.3693  0.9403
 6229SOL    HW324683   4.743   1.348   2.731 -0.0940 -0.5670  0.1127
 6229SOL    MW424684   4.769   1.384   2.805 -0.2276 -0.0999 -0.4414
 6230SOL     OW24685   0.497   6.391   4.744 -0.0413  0.8289 -0.0687
 6230SOL    HW224686   0.531   6.377   4.655 -1.0095  0.7850 -0.4507
 6230SOL    HW324687   0.572   6.375   4.801  0.1751 -0.9551 -0.7654
 6230SOL    MW424688   0.511   6.387   4.740 -0.5728 -0.1972 -0.5633
 6231SOL     OW24689   5.589   5.715   4.991  0.1251 -0.4342  0.0421
 6231SOL    HW224690   5.651   5.783   5.018 -1.7857  1.0369  1.0020
 6231SOL    HW324691   5.581   5.658   5.067  1.5779 -1.7109 -0.6973
 6231SOL    MW424692   5.596   5.717   5.005  0.0618 -0.0592  0.0286
 6232SOL     OW24693   4.749   2.111   3.830  0.0651  0.2436 -0.1985
 6232SOL    HW224694   4.713   2.153   3.908 -1.4487  1.1455 -1.3296
 6232SOL    HW324695   4.760   2.182   3.767  0.9563 -0.5174 -0.9399
 6232SOL    MW424696   4.746   2.126   3.832  0.2172  0.8009 -0.9620
 6233SOL     OW24697   5.221   6.044   3.907 -0.5124 -0.2670 -0.5001
 6233SOL    HW224698   5.288   6.017   3.843 -0.8635 -0.1279 -0.9346
 6233SOL    HW324699   5.268   6.048   3.990 -0.1909 -1.0741 -0.6312
 6233SOL    MW424700   5.236   6.041   3.909 -0.3068  0.4667  0.5935
 6234SOL     OW24701   5.676   5.898   3.021  0.2401 -0.4675 -0.2275
 6234SOL    HW224702   5.635   5.982   3.037  0.2537 -0.8507  2.1318
 6234SOL    HW324703   5.770   5.915   3.025  0.4152  0.0314 -3.6034
 6234SOL    MW424704   5.683   5.911   3.023 -0.8642 -0.0337 -0.6376
 6235SOL     OW24705   3.377   1.716   5.765 -0.4937 -0.7635  0.1961
 6235SOL    HW224706   3.366   1.717   5.860  0.9393 -0.3341  0.3796
 6235SOL    HW324707   3.416   1.630   5.746 -1.6722 -1.2483 -0.1396
 6235SOL    MW424708   3.381   1.705   5.775 -0.0899 -0.5014  0.3829
 6236SOL     OW24709   1.192   4.206   5.327 -0.0849 -0.3600  0.8832
 6236SOL    HW224710   1.233   4.196   5.412  0.3216 -2.5827  0.4849
 6236SOL    HW324711   1.172   4.299   5.321  2.4462  0.3573  2.1969
 6236SOL    MW424712   1.195   4.217   5.337 -0.3437 -0.5781 -0.0095
 6237SOL     OW24713   3.859   4.281   2.288  0.6680 -0.7295  0.4973
 6237SOL    HW224714   3.842   4.212   2.352  0.0385 -0.1310  0.9953
 6237SOL    HW324715   3.774   4.324   2.275  1.1575  0.3205  0.6334
 6237SOL    MW424716   3.846   4.278   2.294 -0.0526  0.1612  0.7215
 6238SOL     OW24717   3.211   4.802   3.808  0.3943 -0.4442 -0.2668
 6238SOL    HW224718   3.146   4.757   3.755  0.9182 -2.2256  0.5340
 6238SOL    HW324719   3.278   4.831   3.746 -0.5062  0.2951 -0.9306
 6238SOL    MW424720   3.211   4.800   3.793  0.8048 -0.4226  0.3023
 6239SOL     OW24721   5.538   2.228   3.328  0.0661  0.4746 -1.1585
 6239SOL    HW224722   5.603   2.194   3.389 -1.9360  0.0175  0.8744
 6239SOL    HW324723   5.502   2.150   3.285 -0.4218  0.5525 -0.8951
 6239SOL    MW424724   5.542   2.213   3.330  0.2389 -0.3071  0.2186
 6240SOL     OW24725   4.775   0.535   2.099  0.3114 -0.7448  0.1051
 6240SOL    HW224726   4.724   0.510   2.176  1.0403 -2.3015  0.1193
 6240SOL    HW324727   4.736   0.618   2.070 -0.3402 -0.4299  1.7906
 6240SOL    MW424728   4.763   0.543   2.105 -0.1928 -0.3435 -0.3551
 6241SOL     OW24729   0.658   6.087   3.565  0.1386  0.3980  0.7407
 6241SOL    HW224730   0.569   6.110   3.592  0.6888  2.2193  1.1293
 6241SOL    HW324731   0.710   6.165   3.583  1.5236 -0.0537 -0.9927
 6241SOL    MW424732   0.653   6.100   3.571  0.1392  0.4489 -0.1953
 6242SOL     OW24733   5.061   6.320   1.825 -0.6934 -0.0947 -0.3941
 6242SOL    HW224734   5.134   6.293   1.769  0.2624  1.6565 -0.0704
 6242SOL    HW324735   4.988   6.331   1.764 -0.4822 -1.0687 -0.8474
 6242SOL    MW424736   5.061   6.318   1.809  0.6892  0.3588 -0.3443
 6243SOL     OW24737   2.698   4.753   5.306 -0.5764 -0.4022  0.0186
 6243SOL    HW224738   2.709   4.828   5.247 -1.5928 -1.0136 -0.9688
 6243SOL    HW324739   2.660   4.684   5.252  0.3898 -1.6780  0.9029
 6243SOL    MW424740   2.694   4.754   5.291  0.4579  0.4920 -0.1857
 6244SOL     OW24741   1.169   0.677   4.939 -0.0512 -0.2747  0.3388
 6244SOL    HW224742   1.090   0.626   4.952  0.8573 -1.8556 -0.0609
 6244SOL    HW324743   1.223   0.658   5.016 -0.2232  1.1602  0.8453
 6244SOL    MW424744   1.166   0.668   4.951  1.2091 -0.3835  0.1504
 6245SOL     OW24745   3.391   5.704   4.335  0.1197 -0.1280  0.4804
 6245SOL    HW224746   3.358   5.698   4.424 -0.8146  0.0734  0.1630
 6245SOL    HW324747   3.315   5.686   4.280  0.7621 -0.5998 -0.2759
 6245SOL    MW424748   3.377   5.701   4.339  0.1115 -0.2700  0.0835
 6246SOL     OW24749   4.960   4.923   2.353 -0.2602  0.0744  0.6705
 6246SOL    HW224750   5.055   4.918   2.343  0.1677  2.1441  2.7308
 6246SOL    HW324751   4.937   5.011   2.323 -1.4266 -0.1308  0.8958
 6246SOL    MW424752   4.969   4.934   2.348  0.0739  0.0590  0.0887
 6247SOL     OW24753   2.330   4.413   1.665  0.3855 -0.4183 -0.1292
 6247SOL    HW224754   2.255   4.356   1.684 -0.1119  0.1160 -0.4199
 6247SOL    HW324755   2.341   4.408   1.570 -0.5367  0.9784 -0.3522
 6247SOL    MW424756   2.321   4.405   1.655  0.2222 -0.4931  0.5863
 6248SOL     OW24757   1.643   2.938   2.876  0.7184 -0.7220  0.5113
 6248SOL    HW224758   1.707   2.881   2.919  2.3388  1.5101  1.2577
 6248SOL    HW324759   1.696   2.993   2.819 -0.8002 -0.0580 -0.2945
 6248SOL    MW424760   1.659   2.938   2.874  0.0871  0.4605  0.1050
 6249SOL     OW24761   5.470   5.298   0.427  0.4779 -0.1503  0.0201
 6249SOL    HW224762   5.470   5.369   0.491  1.3952 -0.8495  0.8230
 6249SOL    HW324763   5.427   5.225   0.472 -0.0660 -0.2480 -0.6408
 6249SOL    MW424764   5.465   5.298   0.441 -0.4055 -0.1009  0.6627
 6250SOL     OW24765   1.225   1.527   3.288  0.1593 -0.1898  0.0062
 6250SOL    HW224766   1.155   1.549   3.350  0.9483  1.0179  0.5001
 6250SOL    HW324767   1.225   1.600   3.226  0.9779 -0.1794  0.0084
 6250SOL    MW424768   1.215   1.540   3.288 -0.2159 -0.8800 -0.1959
 6251SOL     OW24769   0.466   2.223   2.376  0.5241  0.5253  0.0361
 6251SOL    HW224770   0.410   2.187   2.307 -0.1372  1.7392 -0.0894
 6251SOL    HW324771   0.522   2.149   2.402  1.9022  0.3861 -2.8547
 6251SOL    MW424772   0.466   2.208   2.370 -0.1852 -0.4294 -0.1697
 6252SOL     OW24773   0.655   2.364   2.007  0.0488 -0.5542 -0.3020
 6252SOL    HW224774   0.680   2.437   2.065  1.2215 -1.4750  0.4075
 6252SOL    HW324775   0.675   2.395   1.919  0.5543 -0.0175 -0.0046
 6252SOL    MW424776   0.661   2.378   2.003  0.1126 -0.6176  0.5002
 6253SOL     OW24777   5.430   2.814   3.190  0.0563  0.2433 -0.3307
 6253SOL    HW224778   5.386   2.740   3.231  0.1933  0.4638  0.2171
 6253SOL    HW324779   5.385   2.826   3.106  0.1838 -0.6050 -0.5273
 6253SOL    MW424780   5.418   2.806   3.184 -0.0183  0.1008 -0.3229
 6254SOL     OW24781   0.998   5.069   6.005 -0.1886 -0.3298  0.5129
 6254SOL    HW224782   1.042   4.997   6.051 -1.7605 -1.9114 -0.3284
 6254SOL    HW324783   0.915   5.080   6.050  0.0331  1.0212  0.6440
 6254SOL    MW424784   0.993   5.061   6.017  0.6445  0.4388 -0.1695
 6255SOL     OW24785   1.788   4.696   3.860  0.2445  0.4501 -0.2273
 6255SOL    HW224786   1.742   4.737   3.787  0.4506 -0.1818 -0.7276
 6255SOL    HW324787   1.769   4.602   3.850  4.0927 -0.3300 -2.3782
 6255SOL    MW424788   1.780   4.689   3.849  0.0046  0.0944 -0.7359
 6256SOL     OW24789   4.764   2.896   2.334 -0.2252 -0.1443  0.1916
 6256SOL    HW224790   4.706   2.871   2.262  0.1393 -0.2656 -0.0648
 6256SOL    HW324791   4.711   2.884   2.413 -0.6526  0.0640 -0.0599
 6256SOL    MW424792   4.749   2.891   2.335 -0.3097 -0.2262  0.0563
 6257SOL     OW24793   5.183   1.791   0.119  0.3036 -0.5817 -0.3121
 6257SOL    HW224794   5.220   1.738   0.190 -0.9433  3.0590  3.4564
 6257SOL    HW324795   5.094   1.758   0.108 -0.0902 -0.0697  1.1661
 6257SOL    MW424796   5.176   1.779   0.127 -0.1363 -1.0856 -0.3759
 6258SOL     OW24797   5.301   6.366   0.854  0.1216 -0.2211  0.1030
 6258SOL    HW224798   5.321   6.406   0.939 -2.6218  0.3438  0.5647
 6258SOL    HW324799   5.206   6.360   0.852 -0.0099  0.7941 -3.3792
 6258SOL    MW424800   5.291   6.370   0.865  0.5993  0.2309 -0.3057
 6259SOL     OW24801   4.845   3.951   6.086 -0.2535 -0.3531  0.0155
 6259SOL    HW224802   4.786   4.001   6.143  0.2231  2.2150 -1.5886
 6259SOL    HW324803   4.910   3.915   6.146 -1.0013  0.3804  1.3364
 6259SOL    MW424804   4.846   3.953   6.102  0.4942  0.2535  0.0306
 6260SOL     OW24805   4.975   5.633   3.788 -0.1375 -0.5969 -0.1779
 6260SOL    HW224806   4.884   5.643   3.818 -0.7547 -1.2760 -1.7171
 6260SOL    HW324807   4.991   5.539   3.792 -0.0505 -0.6450 -1.3745
 6260SOL    MW424808   4.965   5.622   3.792 -0.3665 -0.1420 -0.8194
 6261SOL     OW24809   2.136   6.414   3.862  0.6924 -0.0788 -0.4814
 6261SOL    HW224810   2.104   6.469   3.791  1.4104  1.4116  0.3043
 6261SOL    HW324811   2.231   6.417   3.854  0.7644 -0.3915  0.1687
 6261SOL    MW424812   2.144   6.422   3.852  0.4277 -0.5982 -0.5530
 6262SOL     OW24813   5.729   2.868   5.275 -0.5703 -0.0744  0.7420
 6262SOL    HW224814   5.680   2.887   5.195  0.5510 -0.4366 -0.0456
 6262SOL    HW324815   5.739   2.773   5.275 -0.8787 -0.1138  1.5098
 6262SOL    MW424816   5.724   2.858   5.264  0.3761 -0.8047  0.3863
 6263SOL     OW24817   1.629   2.556   2.091 -0.1583 -0.2405 -0.2014
 6263SOL    HW224818   1.674   2.623   2.143  1.0774  0.6692 -2.2911
 6263SOL    HW324819   1.645   2.583   2.000 -4.3119 -0.2949 -1.1265
 6263SOL    MW424820   1.637   2.569   2.086  0.5646 -0.4188 -0.2174
 6264SOL     OW24821   0.058   3.843   5.217 -0.5567  0.6164  0.1068
 6264SOL    HW224822   0.089   3.757   5.188  0.1339  1.1808 -0.8759
 6264SOL    HW324823  -0.022   3.858   5.168 -0.1449  0.9573 -0.4699
 6264SOL    MW424824   0.051   3.834   5.207 -0.3549  0.7070  0.2202
 6265SOL     OW24825   1.920   1.577   2.415  0.0341 -0.6164 -0.0619
 6265SOL    HW224826   1.895   1.640   2.483 -0.5088 -1.5803  0.6474
 6265SOL    HW324827   1.933   1.495   2.462  3.0256 -0.5683 -0.6118
 6265SOL    MW424828   1.918   1.575   2.430 -0.3098  0.0079  0.2218
 6266SOL     OW24829   1.832   2.044   0.425  0.1863  0.2006 -0.0753
 6266SOL    HW224830   1.774   1.994   0.368  1.7401 -0.6468 -0.9767
 6266SOL    HW324831   1.847   1.986   0.500 -0.4099  0.5723  0.3381
 6266SOL    MW424832   1.827   2.029   0.427 -0.2095  0.3822 -0.0644
 6267SOL     OW24833   1.664   5.969   4.351  0.2743  0.2184  0.2461
 6267SOL    HW224834   1.738   5.911   4.363 -0.5218 -1.0891 -0.8130
 6267SOL    HW324835   1.694   6.034   4.287  0.6858  0.0189  0.2378
 6267SOL    MW424836   1.678   5.970   4.344 -0.8274  0.3073  0.1604
 6268SOL     OW24837   5.570   5.595   5.244  0.7431  0.5891 -0.2737
 6268SOL    HW224838   5.483   5.561   5.266  0.8532  0.0545 -0.6327
 6268SOL    HW324839   5.630   5.528   5.276  1.0274  0.9511 -0.0412
 6268SOL    MW424840   5.566   5.582   5.251  0.4448 -0.4745  0.1485
 6269SOL     OW24841   3.728   3.570   0.797 -0.5846  0.5183 -0.2842
 6269SOL    HW224842   3.814   3.549   0.834 -1.1756 -1.1923  0.2462
 6269SOL    HW324843   3.676   3.601   0.871 -1.4050 -1.7501  0.1794
 6269SOL    MW424844   3.732   3.571   0.812 -0.0258 -0.0270  0.3662
 6270SOL     OW24845   5.608   2.100   5.880  0.1183  0.6993 -0.4296
 6270SOL    HW224846   5.589   2.150   5.801 -0.2436  0.0283 -0.7774
 6270SOL    HW324847   5.547   2.027   5.877  2.3492 -1.2555 -1.3182
 6270SOL    MW424848   5.598   2.097   5.869  0.0056 -0.9546  0.4973
 6271SOL     OW24849   0.075   5.880   6.424  0.3112 -0.5134 -0.2786
 6271SOL    HW224850   0.159   5.924   6.413 -0.0838 -0.1595 -2.2996
 6271SOL    HW324851   0.083   5.799   6.374 -0.4629 -0.5771 -0.3163
 6271SOL    MW424852   0.087   5.875   6.416 -0.4449 -0.2493  0.2854
 6272SOL     OW24853   5.073   6.240   2.098 -0.1524  0.3547  0.1932
 6272SOL    HW224854   5.104   6.299   2.167 -1.4257 -0.2197  1.2936
 6272SOL    HW324855   5.068   6.295   2.020 -0.0369  1.3729  0.8820
 6272SOL    MW424856   5.077   6.255   2.097 -0.4741 -0.6042  0.7660
 6273SOL     OW24857   5.159   4.316   4.776 -0.7106  0.0992 -0.0566
 6273SOL    HW224858   5.092   4.264   4.733  0.5230  0.1293 -2.1000
 6273SOL    HW324859   5.214   4.349   4.705 -2.3361  5.6825  0.7608
 6273SOL    MW424860   5.158   4.314   4.761 -0.1181 -0.2512  0.3669
 6274SOL     OW24861   3.971   6.283   0.569  0.2769 -0.0811 -0.3894
 6274SOL    HW224862   3.946   6.266   0.478 -1.6744  1.3049 -0.1662
 6274SOL    HW324863   3.916   6.224   0.621  0.3566  0.1367 -0.0490
 6274SOL    MW424864   3.961   6.273   0.564  0.0053  0.6588 -0.6259
 6275SOL     OW24865   5.346   4.830   3.933 -0.1350 -0.1668 -0.0937
 6275SOL    HW224866   5.380   4.899   3.876 -0.3121  0.7966  0.9278
 6275SOL    HW324867   5.417   4.812   3.994 -0.2264 -0.6367 -0.1219
 6275SOL    MW424868   5.360   4.837   3.934  0.1395  0.2424 -0.0436
 6276SOL     OW24869   1.133   4.478   1.845 -0.7302  0.1020  0.1161
 6276SOL    HW224870   1.147   4.567   1.811  1.8538 -0.8201 -1.5574
 6276SOL    HW324871   1.201   4.467   1.911 -0.3735 -0.9391 -0.4063
 6276SOL    MW424872   1.144   4.488   1.849  0.3977  0.8570  0.1716
 6277SOL     OW24873   5.859   0.668   4.974  0.5505  0.0273 -0.0118
 6277SOL    HW224874   5.926   0.735   4.973  0.1349  0.4576 -1.4029
 6277SOL    HW324875   5.888   0.603   4.910 -0.2275  0.1047 -0.4594
 6277SOL    MW424876   5.871   0.668   4.965  0.3705 -0.1379 -0.0996
 6278SOL     OW24877   2.381   0.502   6.351 -0.3137  0.0006  0.3554
 6278SOL    HW224878   2.456   0.529   6.299  0.2298  0.1911  1.2214
 6278SOL    HW324879   2.361   0.578   6.406  0.2480 -0.7885  1.7027
 6278SOL    MW424880   2.388   0.516   6.351 -0.4168  0.0301  0.0821
 6279SOL     OW24881   5.357   2.042   2.937  0.1249 -0.1007 -0.0647
 6279SOL    HW224882   5.273   1.997   2.932 -0.1861  0.5072 -0.4376
 6279SOL    HW324883   5.375   2.050   3.031  0.8418 -2.1825  0.0118
 6279SOL    MW424884   5.348   2.037   2.949 -0.5247  0.2397 -0.4595
 6280SOL     OW24885   3.538   5.938   3.897 -0.5038 -0.4371  0.1460
 6280SOL    HW224886   3.559   5.979   3.981 -0.6407  0.1359 -0.1007
 6280SOL    HW324887   3.573   5.849   3.905  1.8965  0.4241 -0.2080
 6280SOL    MW424888   3.545   5.931   3.909  0.7364  0.0372 -0.4070
 6281SOL     OW24889   4.442   1.010   1.251  0.4327 -0.3449 -0.4809
 6281SOL    HW224890   4.503   0.937   1.257 -0.6705 -1.1989  1.1170
 6281SOL    HW324891   4.494   1.082   1.216  2.4621 -0.9267  1.1555
 6281SOL    MW424892   4.457   1.010   1.247 -0.2904  0.0938 -0.4915
 6282SOL     OW24893   0.196   0.149   2.314  0.5182 -0.1883 -0.5899
 6282SOL    HW224894   0.275   0.096   2.314  0.2491 -0.6857  1.3315
 6282SOL    HW324895   0.125   0.087   2.298  0.3863 -0.0483 -0.5492
 6282SOL    MW424896   0.197   0.134   2.312 -0.3192 -0.2899  0.4265
 6283SOL     OW24897   3.425   5.062   4.674  0.2812  0.5280 -0.2906
 6283SOL    HW224898   3.429   4.970   4.702  0.9356  0.3987 -0.7709
 6283SOL    HW324899   3.356   5.101   4.728  0.0157 -0.2396 -0.0648
 6283SOL    MW424900   3.417   5.055   4.685  0.1106  0.3256 -0.2304
 6284SOL     OW24901   2.025   5.226   4.618  0.1138  0.2480  0.0530
 6284SOL    HW224902   2.009   5.316   4.589  0.5698  0.4368  0.3770
 6284SOL    HW324903   2.058   5.235   4.707 -0.4809 -0.2842  0.3365
 6284SOL    MW424904   2.027   5.239   4.626  0.0863  0.3254  0.3295
 6285SOL     OW24905   5.030   4.193   5.524  0.9101 -0.0588 -0.0979
 6285SOL    HW224906   5.006   4.122   5.464  2.5436 -0.4453 -0.3263
 6285SOL    HW324907   5.089   4.248   5.474  0.4496  0.9262  0.4155
 6285SOL    MW424908   5.034   4.191   5.510  0.3361 -0.1341 -0.9610
 6286SOL     OW24909   0.786   0.303   6.211 -0.3357  0.2229  0.5238
 6286SOL    HW224910   0.877   0.315   6.236 -0.2110  0.6399 -0.1161
 6286SOL    HW324911   0.790   0.257   6.127 -0.7297 -0.4109  0.8425
 6286SOL    MW424912   0.799   0.298   6.203  0.7980 -0.0777  0.1236
 6287SOL     OW24913   2.925   5.094   2.143  0.4557  0.3685  0.4743
 6287SOL    HW224914   2.966   5.008   2.153  1.5255  0.9048  0.8917
 6287SOL    HW324915   2.847   5.090   2.197  1.4332  0.2298  1.9416
 6287SOL    MW424916   2.920   5.082   2.152 -0.0209  0.2918 -0.1811
 6288SOL     OW24917   2.016   1.020   5.947  0.4251 -0.3010  0.2816
 6288SOL    HW224918   2.072   0.959   5.995  2.8958  1.2846 -0.3580
 6288SOL    HW324919   1.980   1.078   6.014 -0.0721 -1.0297  0.6553
 6288SOL    MW424920   2.019   1.020   5.962 -0.0423  0.0732  0.7914
 6289SOL     OW24921   6.319   3.069   4.500  0.0877  0.2048  0.0845
 6289SOL    HW224922   6.371   3.004   4.547 -0.3462 -0.5610 -0.4872
 6289SOL    HW324923   6.240   3.078   4.552 -0.4219 -0.6928 -0.5182
 6289SOL    MW424924   6.316   3.062   4.513  0.2957 -0.7357 -0.1656
 6290SOL     OW24925   5.081   3.923   1.048  0.1384  0.3444  0.2831
 6290SOL    HW224926   5.127   3.922   1.133  1.2879  2.6259 -0.2118
 6290SOL    HW324927   5.133   3.864   0.993  0.6923  0.5316  0.5863
 6290SOL    MW424928   5.094   3.915   1.052  0.1599  0.4228  0.5011
 6291SOL     OW24929   0.029   2.496   2.787 -0.1538  0.5031 -0.3588
 6291SOL    HW224930   0.035   2.534   2.699  1.0669 -0.0504 -0.5428
 6291SOL    HW324931   0.087   2.550   2.841  0.3214 -0.0910 -0.2582
 6291SOL    MW424932   0.038   2.508   2.783 -0.4809  0.4004  0.5708
 6292SOL     OW24933   4.785   3.670   3.753  0.0724  0.4977 -0.4191
 6292SOL    HW224934   4.837   3.602   3.796 -2.4020 -1.1744  0.2200
 6292SOL    HW324935   4.779   3.643   3.662 -0.1793  0.3113 -0.3506
 6292SOL    MW424936   4.791   3.657   3.747  0.2461 -0.3876 -0.1662
 6293SOL     OW24937   3.314   1.412   2.218 -0.2924 -0.0343 -0.2105
 6293SOL    HW224938   3.317   1.498   2.176 -1.2457 -0.2908 -0.8380
 6293SOL    HW324939   3.241   1.417   2.279  1.5627  0.5980  2.1185
 6293SOL    MW424940   3.305   1.424   2.220  0.1689 -0.5699 -0.7750
 6294SOL     OW24941   0.893   2.893   5.241  0.1459  0.0054 -0.1746
 6294SOL    HW224942   0.885   2.799   5.253  0.7478 -0.0702 -0.3264
 6294SOL    HW324943   0.825   2.915   5.176  0.4121 -0.4229 -0.6020
 6294SOL    MW424944   0.883   2.884   5.234 -0.0961  0.3819 -0.3398
 6295SOL     OW24945   3.482   5.824   1.803  0.2096 -0.5002 -0.3150
 6295SOL    HW224946   3.505   5.863   1.887  1.6248  0.7183 -1.2132
 6295SOL    HW324947   3.396   5.785   1.816  0.5039 -0.5302  1.7450
 6295SOL    MW424948   3.474   5.824   1.815 -0.8383 -0.1220  0.3558
 6296SOL     OW24949   1.702   5.867   0.270 -0.2616 -0.2357 -0.3928
 6296SOL    HW224950   1.654   5.788   0.297 -1.0422 -0.8471 -3.1518
 6296SOL    HW324951   1.637   5.919   0.223  1.3930 -0.6305 -3.4302
 6296SOL    MW424952   1.687   5.863   0.267 -0.0265  0.4003 -0.1428
 6297SOL     OW24953   3.132   6.307   4.296  0.1698 -0.2700 -0.1321
 6297SOL    HW224954   3.157   6.393   4.329 -0.7635 -0.0252 -0.0430
 6297SOL    HW324955   3.216   6.263   4.278  0.6592  0.4443  0.3447
 6297SOL    MW424956   3.147   6.312   4.298  0.1024 -0.6744 -0.5961
 6298SOL     OW24957   5.965   1.615   1.713  0.5895  0.1185 -0.3946
 6298SOL    HW224958   5.878   1.622   1.674  0.5224 -0.1577 -0.2963
 6298SOL    HW324959   6.013   1.559   1.652  0.7885  0.5064 -0.6008
 6298SOL    MW424960   5.960   1.608   1.700  0.0569  1.1096 -0.4805
 6299SOL     OW24961   3.117   0.025   2.502 -0.0533  0.0333  0.2390
 6299SOL    HW224962   3.079   0.107   2.472  0.0762  0.1296  0.3372
 6299SOL    HW324963   3.042  -0.032   2.518 -0.3100  0.9497  2.6415
 6299SOL    MW424964   3.102   0.028   2.500  0.7763  0.0120 -0.8854
 6300SOL     OW24965   3.130   4.000   3.672  0.1428  0.1487 -0.2713
 6300SOL    HW224966   3.062   3.999   3.604 -1.7957 -3.7361  1.3697
 6300SOL    HW324967   3.129   4.089   3.705 -3.3139  0.6497 -1.2624
 6300SOL    MW424968   3.121   4.011   3.667 -0.0541 -0.8374  0.3674
 6301SOL     OW24969   2.229   5.502   0.252  0.4121  0.0325 -0.5972
 6301SOL    HW224970   2.291   5.574   0.265 -0.5633  0.7983  0.0851
 6301SOL    HW324971   2.264   5.430   0.304  0.0563  0.8958  0.8977
 6301SOL    MW424972   2.242   5.502   0.261 -0.6800 -0.2724 -0.4282
 6302SOL     OW24973   3.372   5.715   1.120 -0.5931 -0.3881  0.3157
 6302SOL    HW224974   3.364   5.672   1.035 -3.0161 -0.7649  0.6499
 6302SOL    HW324975   3.387   5.807   1.098  0.6987 -0.7553 -0.4583
 6302SOL    MW424976   3.373   5.722   1.106 -0.9336 -0.1263  0.2531
 6303SOL     OW24977   2.397   3.758   1.391  0.2879  0.2209  0.0559
 6303SOL    HW224978   2.343   3.808   1.330  0.1162 -1.0860 -0.8995
 6303SOL    HW324979   2.336   3.695   1.430  1.4067 -2.6327 -2.5114
 6303SOL    MW424980   2.382   3.756   1.388 -0.0998  0.4193  0.1202
 6304SOL     OW24981   5.854   5.544   4.902  0.8551  0.4612 -0.9168
 6304SOL    HW224982   5.910   5.620   4.886  0.7715  1.0802  1.4019
 6304SOL    HW324983   5.768   5.580   4.919  0.7349 -0.1560 -0.1411
 6304SOL    MW424984   5.850   5.559   4.902  0.0444 -0.7481 -0.3360
 6305SOL     OW24985   5.552   3.587   2.812  0.1500  0.0442 -0.1648
 6305SOL    HW224986   5.521   3.577   2.722 -1.7274  0.5085  0.3888
 6305SOL    HW324987   5.486   3.543   2.866  1.3611 -0.4286  0.9924
 6305SOL    MW424988   5.539   3.580   2.807 -0.8326 -0.7995 -0.2200
 6306SOL     OW24989   0.179   3.303   4.146 -0.4243  0.1189 -0.0614
 6306SOL    HW224990   0.172   3.208   4.145  1.6487 -0.1236  1.8915
 6306SOL    HW324991   0.097   3.333   4.185 -2.5637 -0.5332 -3.6117
 6306SOL    MW424992   0.167   3.294   4.151  0.8411  0.5430 -0.3693
 6307SOL     OW24993   0.454   0.233   6.174  0.5984  0.0299  0.1665
 6307SOL    HW224994   0.423   0.157   6.223 -1.0845  1.2941  1.1372
 6307SOL    HW324995   0.525   0.198   6.119 -1.3479 -2.6399 -0.8589
 6307SOL    MW424996   0.459   0.219   6.173 -0.6793  0.4026  0.0604
 6308SOL     OW24997   6.313   5.792   1.498 -0.1135 -0.0591  0.0377
 6308SOL    HW224998   6.341   5.701   1.492  0.2682  0.0672 -0.1025
 6308SOL    HW324999   6.342   5.832   1.416 -0.1194  0.2332  0.1754
 6308SOL    MW425000   6.320   5.785   1.487  0.1881 -0.5801  0.0340
 6309SOL     OW25001   2.545   3.884   1.584  0.1463  0.1329  0.4214
 6309SOL    HW225002   2.522   3.841   1.501 -3.5250  0.9968  0.8151
 6309SOL    HW325003   2.634   3.917   1.570  0.3274 -1.2435 -2.4962
 6309SOL    MW425004   2.554   3.882   1.571  0.9602  0.4102 -0.3573
 6310SOL     OW25005   2.520   3.916   0.793 -0.4664  0.3457  0.0293
 6310SOL    HW225006   2.505   3.845   0.730  1.4319 -0.2415  0.1726
 6310SOL    HW325007   2.512   3.873   0.879  0.8399  0.2546  0.1155
 6310SOL    MW425008   2.517   3.901   0.796  0.4536 -0.9320 -0.7386
 6311SOL     OW25009   4.337   5.453   5.047 -0.0183  0.2388  0.5471
 6311SOL    HW225010   4.306   5.532   5.092  0.9976  0.6965  0.4572
 6311SOL    HW325011   4.277   5.443   4.973 -0.7114  0.3961  1.0662
 6311SOL    MW425012   4.325   5.462   5.044 -0.1585 -0.4707 -0.2952
 6312SOL     OW25013   4.828   4.568   0.376  0.3997 -0.0515  0.2332
 6312SOL    HW225014   4.755   4.550   0.317  0.6930 -1.3705  0.2400
 6312SOL    HW325015   4.861   4.482   0.400  0.0070  0.4081  2.7013
 6312SOL    MW425016   4.823   4.555   0.372 -0.2812 -0.5807  0.2667
 6313SOL     OW25017   3.032   3.133   2.968  0.4198  0.1581 -0.2142
 6313SOL    HW225018   3.100   3.148   3.034 -0.0122 -0.2164  0.3283
 6313SOL    HW325019   3.080   3.118   2.887  1.0471 -1.3217  0.3935
 6313SOL    MW425020   3.048   3.133   2.966  0.2308  0.4600 -0.2581
 6314SOL     OW25021   2.560   0.678   5.808 -0.0527  0.0892 -0.2043
 6314SOL    HW225022   2.546   0.727   5.889 -0.2372 -0.9927  0.4389
 6314SOL    HW325023   2.489   0.614   5.806  0.4495 -0.4651 -0.7712
 6314SOL    MW425024   2.549   0.676   5.819  0.3948 -0.3493 -0.4494
 6315SOL     OW25025   3.164   0.038   6.297  0.0899 -0.0652 -0.0272
 6315SOL    HW225026   3.230   0.094   6.256 -1.6258 -0.0632 -3.1049
 6315SOL    HW325027   3.204   0.010   6.379  3.0801  1.5067 -0.7986
 6315SOL    MW425028   3.178   0.042   6.302  0.1809 -0.3354  0.5554
 6316SOL     OW25029   0.388   2.219   4.516 -0.0000 -0.2344 -0.1179
 6316SOL    HW225030   0.378   2.262   4.600 -2.5549  1.6256 -1.2569
 6316SOL    HW325031   0.314   2.159   4.510  0.4520 -0.7404 -0.8229
 6316SOL    MW425032   0.377   2.217   4.526 -0.0833 -0.0719 -0.3303
 6317SOL     OW25033   2.214   2.771   5.841 -0.1350 -0.5517 -0.0790
 6317SOL    HW225034   2.292   2.740   5.795  0.0184  0.2289 -0.3530
 6317SOL    HW325035   2.143   2.763   5.776  0.3585  2.0450 -1.0539
 6317SOL    MW425036   2.215   2.766   5.826 -0.1196  0.5012 -0.1404
 6318SOL     OW25037   4.942   2.467   2.173  0.3599 -0.2436  0.1911
 6318SOL    HW225038   4.892   2.476   2.255 -2.0479  0.7454 -1.2817
 6318SOL    HW325039   4.998   2.545   2.171  0.1832 -0.0950  0.7303
 6318SOL    MW425040   4.943   2.478   2.184 -0.2157 -0.3925 -0.0744
 6319SOL     OW25041   3.587   1.961   0.747  0.0436  0.2779  0.0473
 6319SOL    HW225042   3.591   2.038   0.691  3.7973 -0.8624 -1.5600
 6319SOL    HW325043   3.648   1.980   0.819  0.9711 -1.0730 -0.3359
 6319SOL    MW425044   3.596   1.973   0.749 -0.1679  0.3543  0.4478
 6320SOL     OW25045   1.843   1.077   1.290 -0.0107  0.2407  0.1199
 6320SOL    HW225046   1.841   1.099   1.383  2.7763 -1.4599  0.7129
 6320SOL    HW325047   1.881   1.154   1.247 -0.4820  0.6863  0.4909
 6320SOL    MW425048   1.848   1.090   1.296  0.5036 -0.0736  0.3708
 6321SOL     OW25049   3.485   3.449   5.324  0.7277 -1.0297 -0.1657
 6321SOL    HW225050   3.469   3.377   5.385  0.2706 -0.7346  0.0736
 6321SOL    HW325051   3.572   3.481   5.347  0.0953 -0.1568  1.1509
 6321SOL    MW425052   3.495   3.444   5.335 -0.0566  0.1100  0.1175
 6322SOL     OW25053   3.193   3.940   1.994  0.3141  0.5929  0.0131
 6322SOL    HW225054   3.185   3.845   1.989 -1.1958  0.6864  0.1041
 6322SOL    HW325055   3.119   3.967   2.048  0.3002  1.8820 -0.6170
 6322SOL    MW425056   3.182   3.931   2.000 -0.3135  0.1808 -0.2335
 6323SOL     OW25057   0.537   1.141   1.444  0.6650  0.8361  0.4141
 6323SOL    HW225058   0.453   1.095   1.446  0.4207  1.2840  1.2344
 6323SOL    HW325059   0.513   1.234   1.445  1.1428  1.0064 -1.4253
 6323SOL    MW425060   0.523   1.147   1.444 -0.1299 -0.7596 -0.0320
 6324SOL     OW25061   4.927   1.931   3.961  0.1934  0.3496  0.1955
 6324SOL    HW225062   4.858   1.969   3.907 -1.8195 -0.3472  2.1236
 6324SOL    HW325063   4.917   1.836   3.949  3.0218  0.1856 -2.0041
 6324SOL    MW425064   4.917   1.923   3.952 -0.3158 -0.6733 -0.2231
 6325SOL     OW25065   1.479   2.641   4.126 -0.4552 -0.0886 -0.1394
 6325SOL    HW225066   1.517   2.592   4.199  2.5203  0.2267 -1.3031
 6325SOL    HW325067   1.482   2.732   4.154 -0.4342 -0.0761 -0.1814
 6325SOL    MW425068   1.485   2.646   4.139  0.5398 -0.2349  0.3707
 6326SOL     OW25069   3.819   3.998   0.062 -0.1702  0.1022 -0.1625
 6326SOL    HW225070   3.848   3.910   0.087 -2.3261 -0.8723 -0.8758
 6326SOL    HW325071   3.889   4.056   0.093  1.0053 -1.7847  0.9052
 6326SOL    MW425072   3.832   3.994   0.070 -0.0432  0.9829 -0.3361
 6327SOL     OW25073   6.143   1.469   0.200  0.0476 -0.0681  0.0515
 6327SOL    HW225074   6.166   1.546   0.254 -1.9657 -0.2893  1.3079
 6327SOL    HW325075   6.057   1.443   0.231  0.2294 -2.2228 -1.0981
 6327SOL    MW425076   6.135   1.476   0.211 -0.4597  0.4102  0.1748
 6328SOL     OW25077   3.323   2.900   0.409  0.0369 -0.5631 -0.1618
 6328SOL    HW225078   3.311   2.951   0.489  0.4961 -0.0525 -0.4121
 6328SOL    HW325079   3.411   2.923   0.378 -0.5189  0.0447 -1.3755
 6328SOL    MW425080   3.333   2.910   0.415  0.1238  0.6152  0.0173
 6329SOL     OW25081   5.016   0.703   1.433 -0.0349  0.0968 -0.5849
 6329SOL    HW225082   5.008   0.608   1.443 -0.8330  0.1718 -0.4634
 6329SOL    HW325083   5.056   0.714   1.347  1.0037 -0.3668 -0.1846
 6329SOL    MW425084   5.021   0.692   1.423 -0.2065 -0.1711  0.3224
 6330SOL     OW25085   1.672   2.450   6.008 -0.4756 -0.2255 -0.0945
 6330SOL    HW225086   1.692   2.357   6.017 -0.2255 -0.1595  0.0461
 6330SOL    HW325087   1.593   2.463   6.060 -0.1543 -0.2363  0.4083
 6330SOL    MW425088   1.665   2.439   6.016  0.1869  0.4134  0.4480
 6331SOL     OW25089   4.638   6.152   2.313 -0.2533 -0.1927  0.8708
 6331SOL    HW225090   4.596   6.226   2.358 -0.9739  1.3499 -2.0413
 6331SOL    HW325091   4.731   6.160   2.333 -0.0842  2.5322 -0.5369
 6331SOL    MW425092   4.644   6.163   2.322  0.1844 -0.4021 -0.5107
 6332SOL     OW25093   0.054   2.208   2.803  0.2536  0.7313  0.2059
 6332SOL    HW225094  -0.028   2.198   2.852 -0.8105 -1.6333 -1.8821
 6332SOL    HW325095   0.051   2.297   2.769 -1.7286  0.5454 -0.2258
 6332SOL    MW425096   0.043   2.218   2.805  0.1160  0.4576 -0.3221
 6333SOL     OW25097   0.685   2.268   0.934 -0.5016  0.0752  0.2968
 6333SOL    HW225098   0.631   2.258   1.013  0.5547 -2.3284  0.8112
 6333SOL    HW325099   0.706   2.361   0.931 -0.2883  0.2150  3.1164
 6333SOL    MW425100   0.681   2.279   0.944 -0.0223  0.1077 -0.5822
 6334SOL     OW25101   1.749   5.885   1.138  0.0457 -0.1926 -0.4644
 6334SOL    HW225102   1.788   5.801   1.160 -1.2235 -0.3362  1.4872
 6334SOL    HW325103   1.661   5.863   1.107 -0.2287  0.4004 -0.1240
 6334SOL    MW425104   1.742   5.871   1.137 -0.3394  0.0439  0.2137
 6335SOL     OW25105   6.388   2.040   1.248  0.8921  0.0585 -0.1555
 6335SOL    HW225106   6.329   2.115   1.255  0.9794  0.0233  1.1488
 6335SOL    HW325107   6.472   2.073   1.281  1.2806 -0.2536 -0.8039
 6335SOL    MW425108   6.392   2.054   1.253 -0.4017 -0.5458  0.2591
 6336SOL     OW25109   2.342   4.064   3.240  0.5612  0.3789  0.2759
 6336SOL    HW225110   2.396   4.099   3.168  2.9441  0.3797  1.9420
 6336SOL    HW325111   2.353   4.127   3.311 -0.8760 -0.1639  1.0122
 6336SOL    MW425112   2.351   4.077   3.240 -0.2366  0.2575  0.0066
 6337SOL     OW25113   4.438   4.860   5.432 -0.1952  0.0471 -0.0563
 6337SOL    HW225114   4.461   4.952   5.418  2.1506 -0.4534  0.1900
 6337SOL    HW325115   4.453   4.845   5.526 -1.5457 -0.3532  0.1161
 6337SOL    MW425116   4.443   4.870   5.443 -0.0930 -0.3507  0.5059
 6338SOL     OW25117   3.149   0.259   4.820 -0.5722  0.1950  0.2211
 6338SOL    HW225118   3.075   0.306   4.858  0.3351  0.6263  1.5167
 6338SOL    HW325119   3.216   0.325   4.809 -0.0400 -0.3800 -0.0147
 6338SOL    MW425120   3.148   0.274   4.824  0.1982 -0.6751 -0.8611
 6339SOL     OW25121   5.033   3.172   4.591 -0.3368  0.0903 -0.1960
 6339SOL    HW225122   5.072   3.092   4.556 -2.3281 -1.2306  0.4067
 6339SOL    HW325123   4.968   3.141   4.654 -0.9404  2.2167  0.3078
 6339SOL    MW425124   5.029   3.157   4.595  0.2248 -0.0550  0.1213
 6340SOL     OW25125   0.134   5.317   0.811 -0.1577 -0.7134  0.1165
 6340SOL    HW225126   0.065   5.284   0.754 -0.9381  0.3134  0.4304
 6340SOL    HW325127   0.216   5.297   0.765 -0.7865  1.2679 -2.0506
 6340SOL    MW425128   0.136   5.310   0.798 -1.0411 -0.2208  0.1457
 6341SOL     OW25129   0.601   4.940   5.601 -0.0793 -0.5916  0.0457
 6341SOL    HW225130   0.678   4.978   5.559  0.2136 -1.2908 -0.0696
 6341SOL    HW325131   0.610   4.846   5.587  0.3714 -0.9282  2.2148
 6341SOL    MW425132   0.612   4.933   5.594 -0.1810  0.0408 -0.1930
 6342SOL     OW25133   1.771   3.313   4.349 -0.2339 -0.8422  0.0298
 6342SOL    HW225134   1.685   3.334   4.314 -0.0047  1.2534  0.5920
 6342SOL    HW325135   1.772   3.352   4.436  1.1808 -1.0795  0.1435
 6342SOL    MW425136   1.760   3.321   4.356 -1.1577 -0.1240 -0.5566
 6343SOL     OW25137   2.716   3.208   1.869 -0.2293  0.3913  0.7002
 6343SOL    HW225138   2.773   3.170   1.936  0.1883  0.5036  0.4117
 6343SOL    HW325139   2.718   3.145   1.796  2.0719  1.8546 -0.6114
 6343SOL    MW425140   2.724   3.194   1.868  0.0075  0.2070 -0.3798
 6344SOL     OW25141   2.013   3.609   3.846 -0.1711  0.4173 -0.5635
 6344SOL    HW225142   2.007   3.696   3.885  0.2741 -0.6126  2.0014
 6344SOL    HW325143   1.931   3.566   3.869  0.7662 -0.7631  0.8137
 6344SOL    MW425144   2.002   3.615   3.854 -0.4350 -0.0651 -0.2351
 6345SOL     OW25145   4.006   2.632   4.724  0.0934  0.1856  1.0523
 6345SOL    HW225146   3.971   2.615   4.811 -2.2517  1.2122  0.3806
 6345SOL    HW325147   3.937   2.605   4.664  0.5630  1.9783 -0.3832
 6345SOL    MW425148   3.993   2.626   4.728  0.0148  0.5305  0.1001
 6346SOL     OW25149   1.641   5.313   4.881 -0.2393 -0.8366  0.1375
 6346SOL    HW225150   1.650   5.232   4.931  1.3279 -0.7223  0.1047
 6346SOL    HW325151   1.631   5.382   4.947 -1.0259 -0.9941  0.1845
 6346SOL    MW425152   1.641   5.311   4.896  0.3612 -0.0348 -0.2900
 6347SOL     OW25153   0.541   2.213   0.717 -0.0291  0.2147 -0.5741
 6347SOL    HW225154   0.577   2.132   0.680 -0.8559 -1.1506  1.4325
 6347SOL    HW325155   0.596   2.230   0.794 -0.9168  0.5916 -0.0124
 6347SOL    MW425156   0.553   2.204   0.722  0.4388 -0.4055 -0.4197
 6348SOL     OW25157   3.980   3.064   3.945  0.5739 -1.0573  0.5006
 6348SOL    HW225158   4.039   3.119   3.995 -0.2221  0.2160  0.0846
 6348SOL    HW325159   3.907   3.121   3.922  0.5938 -1.7592 -1.5353
 6348SOL    MW425160   3.978   3.079   3.948 -0.2028  0.4752  0.1092
 6349SOL     OW25161   2.300   4.038   5.412  0.1607 -0.0604  0.2161
 6349SOL    HW225162   2.362   4.077   5.474  0.9988 -2.2855  0.8631
 6349SOL    HW325163   2.230   4.003   5.466  0.1141 -0.6467 -0.2091
 6349SOL    MW425164   2.299   4.039   5.427 -0.3451 -0.4089 -0.3755
 6350SOL     OW25165   2.671   1.187   0.724  0.2655  0.7372 -0.1852
 6350SOL    HW225166   2.764   1.211   0.720  0.4394  0.5202  1.7997
 6350SOL    HW325167   2.626   1.270   0.740  0.2997  0.6114  0.6049
 6350SOL    MW425168   2.678   1.201   0.725 -0.4533  0.1991 -0.4082
 6351SOL     OW25169   1.394   4.887   2.541  0.6175 -0.3913 -0.3285
 6351SOL    HW225170   1.474   4.855   2.584 -0.2704 -2.5190 -0.1200
 6351SOL    HW325171   1.325   4.827   2.572 -0.4508 -0.7099 -3.0588
 6351SOL    MW425172   1.396   4.875   2.551 -0.0490 -0.3487 -0.3604
 6352SOL     OW25173   2.316   3.300   3.310 -0.1839 -0.2974  0.1821
 6352SOL    HW225174   2.302   3.354   3.388 -0.0386 -0.5378  0.3757
 6352SOL    HW325175   2.296   3.358   3.237 -1.1098 -0.2974  0.4178
 6352SOL    MW425176   2.311   3.315   3.310  0.5020 -0.2843 -0.2055
 6353SOL     OW25177   4.637   5.705   0.897  0.2489  0.1000 -0.4472
 6353SOL    HW225178   4.659   5.728   0.806 -0.3347  0.5626 -0.4829
 6353SOL    HW325179   4.678   5.620   0.911 -0.8541 -0.6735 -1.6243
 6353SOL    MW425180   4.645   5.697   0.887  0.4518  0.0371  0.0327
 6354SOL     OW25181   5.496   1.495   0.992  0.7603  0.8638 -0.4210
 6354SOL    HW225182   5.412   1.454   0.970  1.9224 -1.8695 -0.2298
 6354SOL    HW325183   5.561   1.426   0.977  2.8485  2.4626  0.6844
 6354SOL    MW425184   5.494   1.480   0.987  0.1747 -0.1249 -0.3219
 6355SOL     OW25185   2.987   5.129   1.048 -0.0311  0.1045  0.3708
 6355SOL    HW225186   3.068   5.083   1.065  0.0732  0.5104  0.9932
 6355SOL    HW325187   2.918   5.067   1.072  0.0768 -0.5206 -0.8909
 6355SOL    MW425188   2.988   5.115   1.053 -0.4362 -0.0965 -0.4237
 6356SOL     OW25189   0.571   4.315   0.594  0.1702 -0.3575 -0.3109
 6356SOL    HW225190   0.486   4.280   0.621  0.6677  0.5063  2.7416
 6356SOL    HW325191   0.565   4.409   0.610  1.8969 -0.3765  0.7496
 6356SOL    MW425192   0.559   4.323   0.600  1.1076 -0.1581  0.2316
 6357SOL     OW25193   0.714   5.270   2.843  0.0747 -0.2836 -0.0052
 6357SOL    HW225194   0.758   5.205   2.898 -1.3398 -0.8706  0.4769
 6357SOL    HW325195   0.640   5.300   2.896 -1.7146 -1.3139 -1.7717
 6357SOL    MW425196   0.710   5.265   2.857  0.5147 -0.7529  0.0879
 6358SOL     OW25197   4.386   4.070   1.924 -0.4394 -0.2464 -0.0465
 6358SOL    HW225198   4.326   4.138   1.952 -0.5412 -0.4462  0.2253
 6358SOL    HW325199   4.378   4.001   1.990  0.2606 -0.1770  0.1263
 6358SOL    MW425200   4.377   4.070   1.937 -0.4672  0.0120 -0.3098
 6359SOL     OW25201   5.909   5.389   0.534  0.1720  0.1712  0.3516
 6359SOL    HW225202   5.859   5.469   0.517 -0.0471  0.1086  0.6795
 6359SOL    HW325203   5.963   5.377   0.457 -1.2792 -0.4899 -0.6140
 6359SOL    MW425204   5.909   5.398   0.522 -0.1156 -0.1647 -0.2549
 6360SOL     OW25205   0.367   2.987   1.618  0.2939 -0.0135  0.5932
 6360SOL    HW225206   0.320   2.906   1.596 -1.5820  0.1385  3.5719
 6360SOL    HW325207   0.434   2.959   1.680  0.0253  0.6144  1.1770
 6360SOL    MW425208   0.370   2.972   1.623 -0.0765 -0.0243  0.2480
 6361SOL     OW25209   2.141   3.833   1.666 -0.9089 -0.1142  0.1643
 6361SOL    HW225210   2.184   3.918   1.658 -1.4924  0.3275  1.4395
 6361SOL    HW325211   2.155   3.807   1.757  0.0580 -1.8459 -0.4371
 6361SOL    MW425212   2.148   3.841   1.677 -0.1281 -0.4799 -0.1053
 6362SOL     OW25213   1.924   0.052   2.710 -0.2079 -0.5303 -0.0233
 6362SOL    HW225214   1.920  -0.029   2.761  1.8693 -1.1013 -0.6711
 6362SOL    HW325215   1.891   0.028   2.624 -0.4855 -0.4262  0.0508
 6362SOL    MW425216   1.919   0.038   2.706  0.2574 -0.2264 -0.2093
 6363SOL     OW25217   3.627   1.161   5.215  0.6391  0.2336  0.3618
 6363SOL    HW225218   3.640   1.185   5.123  0.7319 -2.8721 -0.5308
 6363SOL    HW325219   3.686   1.220   5.263  1.1657  1.4273 -1.6049
 6363SOL    MW425220   3.637   1.172   5.209  0.3631 -0.6452  0.1679
 6364SOL     OW25221   1.541   0.903   2.097 -0.0406 -0.4400 -0.8200
 6364SOL    HW225222   1.623   0.940   2.132 -0.8851  0.7347  0.0220
 6364SOL    HW325223   1.545   0.920   2.003  0.1887  0.6699 -0.6268
 6364SOL    MW425224   1.552   0.910   2.089  0.1715 -0.6969  0.3642
 6365SOL     OW25225   3.299   3.114   2.332  0.4418 -0.2395 -0.4295
 6365SOL    HW225226   3.248   3.175   2.385 -0.4507  0.2104 -1.7461
 6365SOL    HW325227   3.359   3.170   2.283 -1.1363 -0.2300 -2.4782
 6365SOL    MW425228   3.300   3.130   2.333  0.6452 -0.0957 -0.2588
 6366SOL     OW25229   3.126   1.658   3.314  0.0130  0.1006  0.2893
 6366SOL    HW225230   3.064   1.585   3.315 -0.7132  0.6997  0.0408
 6366SOL    HW325231   3.128   1.686   3.222  0.7261  0.0352  0.2779
 6366SOL    MW425232   3.118   1.652   3.302 -0.4822 -0.1750 -0.1678
 6367SOL     OW25233   0.529   5.232   3.258 -0.5541 -0.0202  0.3469
 6367SOL    HW225234   0.594   5.285   3.211  0.7602 -0.6365  1.3962
 6367SOL    HW325235   0.500   5.167   3.195 -0.6335  0.6389 -0.3180
 6367SOL    MW425236   0.534   5.231   3.243  0.4641  0.0378 -0.2734
 6368SOL     OW25237   3.109   1.485   1.398  0.2611  0.0659 -0.4470
 6368SOL    HW225238   3.170   1.490   1.324 -0.5347  0.8036 -1.0786
 6368SOL    HW325239   3.151   1.537   1.467 -0.3626  2.0224 -1.4400
 6368SOL    MW425240   3.123   1.493   1.397 -0.2713 -0.7266 -0.5095
 6369SOL     OW25241   4.348   3.963   1.223 -0.4404  0.3597  0.3864
 6369SOL    HW225242   4.379   3.880   1.259 -1.2630 -0.1582 -0.0834
 6369SOL    HW325243   4.428   4.008   1.194 -0.0388 -0.4966  0.1356
 6369SOL    MW425244   4.363   3.958   1.224 -0.5295 -0.2608  0.1918
 6370SOL     OW25245   5.330   3.811   5.631 -0.7226 -0.3790  0.2832
 6370SOL    HW225246   5.359   3.796   5.541 -2.0280  1.7265 -0.5686
 6370SOL    HW325247   5.292   3.728   5.658 -1.0978 -0.8052 -1.4302
 6370SOL    MW425248   5.329   3.798   5.622 -0.1504 -0.0389  0.0590
 6371SOL     OW25249   3.575   4.159   2.310  0.1206  0.0895  0.3446
 6371SOL    HW225250   3.496   4.105   2.309 -1.1888  1.9214 -1.3020
 6371SOL    HW325251   3.554   4.230   2.371  1.3389 -0.4896  1.4955
 6371SOL    MW425252   3.562   4.161   2.318 -0.2961 -0.4304 -0.0656
 6372SOL     OW25253   1.934   4.825   1.610  0.0566  0.0009  0.2560
 6372SOL    HW225254   1.894   4.859   1.690  0.9824  1.4230  0.1549
 6372SOL    HW325255   1.874   4.851   1.540  0.1521  0.3789  0.3102
 6372SOL    MW425256   1.921   4.833   1.611 -0.6966 -0.0337 -0.2286
 6373SOL     OW25257   0.927   4.850   0.728  0.2642  0.6756  0.0332
 6373SOL    HW225258   1.008   4.831   0.776 -1.4303  1.4350  3.4448
 6373SOL    HW325259   0.935   4.942   0.703  0.2587  0.8909  0.8069
 6373SOL    MW425260   0.939   4.860   0.731  0.4636  0.2859 -0.2462
 6374SOL     OW25261   4.752   0.225   5.207 -0.3952  0.6476  0.1525
 6374SOL    HW225262   4.706   0.306   5.230 -2.6694 -0.7825  0.9040
 6374SOL    HW325263   4.757   0.227   5.111 -0.4069  1.6707  0.1641
 6374SOL    MW425264   4.746   0.236   5.197  0.3762 -0.3576  0.5229
 6375SOL     OW25265   5.703   0.583   0.443  0.0154  0.1238  0.1939
 6375SOL    HW225266   5.692   0.520   0.514  1.9319 -0.5761 -0.0659
 6375SOL    HW325267   5.777   0.637   0.471  1.7989 -1.1034 -1.8425
 6375SOL    MW425268   5.712   0.582   0.456 -0.1457 -0.4760  0.1736
 6376SOL     OW25269   3.984   1.578   0.320 -0.4932 -0.2874  0.0665
 6376SOL    HW225270   3.903   1.562   0.369 -0.8052 -0.3829 -0.4659
 6376SOL    HW325271   4.051   1.530   0.368 -0.8473 -0.6338  0.2255
 6376SOL    MW425272   3.982   1.570   0.333 -0.0384  0.3571  0.0811
 6377SOL     OW25273   4.136   3.029   4.422 -0.3202  0.0064 -0.1251
 6377SOL    HW225274   4.044   3.040   4.399 -0.0550  1.2831 -0.6570
 6377SOL    HW325275   4.184   3.074   4.353  0.6899 -0.1154  0.4725
 6377SOL    MW425276   4.130   3.036   4.410 -0.6877  0.0630  0.2478
 6378SOL     OW25277   3.271   1.869   2.630 -0.3052 -0.0636 -0.1271
 6378SOL    HW225278   3.236   1.861   2.541 -0.5349  0.7636 -0.1118
 6378SOL    HW325279   3.342   1.805   2.633 -1.1110 -0.9958 -0.4945
 6378SOL    MW425280   3.276   1.859   2.619  0.9335  0.1255 -0.4478
 6379SOL     OW25281   4.967   3.170   5.213  0.2539  0.2747  0.8138
 6379SOL    HW225282   4.972   3.174   5.118 -0.8106 -1.2119  0.6632
 6379SOL    HW325283   4.958   3.261   5.241 -0.2469  0.6613 -0.5614
 6379SOL    MW425284   4.967   3.182   5.204  0.3574 -0.4754 -0.3133
 6380SOL     OW25285   3.186   1.755   3.042  0.0407 -0.3214  0.2150
 6380SOL    HW225286   3.155   1.701   2.969 -1.6785 -0.1532  0.7822
 6380SOL    HW325287   3.134   1.835   3.038  1.0482  0.3860  0.6855
 6380SOL    MW425288   3.175   1.758   3.032  0.0419 -0.2012 -0.3683
 6381SOL     OW25289   5.380   3.184   0.646  0.0572 -1.1027  0.1775
 6381SOL    HW225290   5.444   3.242   0.688 -0.0796  0.5952 -1.7827
 6381SOL    HW325291   5.300   3.237   0.642  0.3492 -0.7260 -3.0368
 6381SOL    MW425292   5.378   3.199   0.651  0.2450 -0.4643 -0.2534
 6382SOL     OW25293   3.587   4.985   6.072 -0.3892 -0.3934 -0.1794
 6382SOL    HW225294   3.569   4.992   6.166  1.4925  0.9616  0.1489
 6382SOL    HW325295   3.581   5.076   6.041  3.9148  0.0587 -0.2773
 6382SOL    MW425296   3.584   4.998   6.080 -0.8369  0.1048 -0.6376
 6383SOL     OW25297   1.363   2.390   2.013  0.1551  0.1191  0.2101
 6383SOL    HW225298   1.404   2.410   1.929 -1.5684  1.5387 -0.3452
 6383SOL    HW325299   1.426   2.333   2.057  0.2798 -2.3949 -2.8447
 6383SOL    MW425300   1.376   2.385   2.008 -0.1342  0.1494 -0.3580
 6384SOL     OW25301   4.246   1.785   0.790  0.5641 -0.1585  0.8502
 6384SOL    HW225302   4.252   1.847   0.862  0.2923 -1.0223  1.6392
 6384SOL    HW325303   4.157   1.750   0.796  0.2388  0.4169 -0.4631
 6384SOL    MW425304   4.235   1.788   0.800  0.2165  0.3774  0.2076
 6385SOL     OW25305   0.029   4.379   2.195  0.1311  0.3551 -0.5038
 6385SOL    HW225306   0.053   4.350   2.283 -0.6481 -2.3063 -1.0681
 6385SOL    HW325307  -0.057   4.420   2.206  0.0611  0.0883 -0.0320
 6385SOL    MW425308   0.021   4.381   2.208 -0.5691  0.4156 -0.4395
 6386SOL     OW25309   1.850   1.700   5.593 -0.0960 -0.0647 -0.1671
 6386SOL    HW225310   1.871   1.773   5.651  2.2509 -0.8026  0.0228
 6386SOL    HW325311   1.893   1.721   5.510 -2.6590  0.5376 -1.4334
 6386SOL    MW425312   1.858   1.712   5.590 -0.2135  0.2075  0.5954
 6387SOL     OW25313   6.177   4.065   4.275 -0.0207 -0.2485  1.2479
 6387SOL    HW225314   6.233   4.018   4.213 -0.1556  0.8660  0.2322
 6387SOL    HW325315   6.220   4.054   4.360  1.4872  0.1615  0.5688
 6387SOL    MW425316   6.190   4.057   4.278  0.2185  0.1223  0.3422
 6388SOL     OW25317   0.948   6.314   3.172 -0.0673  0.1478 -0.3946
 6388SOL    HW225318   0.864   6.341   3.135 -1.1622 -1.3244  0.8737
 6388SOL    HW325319   1.004   6.390   3.163 -1.4991  1.1344 -1.3933
 6388SOL    MW425320   0.944   6.327   3.166 -0.0852  0.5670  0.1063
 6389SOL     OW25321  -0.002   1.648   3.646 -0.4684  0.0110 -0.2905
 6389SOL    HW225322   0.071   1.690   3.692 -1.6181  5.5337 -2.6591
 6389SOL    HW325323  -0.051   1.603   3.715  2.4386  0.3126  2.2036
 6389SOL    MW425324   0.002   1.648   3.661 -0.2512  0.0121  0.4841
 6390SOL     OW25325   2.521   2.701   4.044 -1.0345  0.1905  0.0982
 6390SOL    HW225326   2.600   2.744   4.076 -1.2497  1.2513 -0.7344
 6390SOL    HW325327   2.459   2.708   4.116  0.0894 -2.1298  1.4187
 6390SOL    MW425328   2.523   2.707   4.058 -0.6844 -0.5208  0.0311
 6391SOL     OW25329   3.418   5.981   6.375  0.3474 -0.0655 -0.2354
 6391SOL    HW225330   3.502   5.961   6.334  0.6346  0.5471  0.0347
 6391SOL    HW325331   3.382   5.896   6.399  0.0646 -0.4641 -1.9504
 6391SOL    MW425332   3.424   5.967   6.373 -0.4224 -0.9733 -0.3575
 6392SOL     OW25333   2.483   2.630   1.558  0.0514  0.4783  0.0124
 6392SOL    HW225334   2.568   2.648   1.598  0.3119 -0.9583  0.1522
 6392SOL    HW325335   2.495   2.650   1.465  0.7491 -0.3796 -0.0865
 6392SOL    MW425336   2.495   2.635   1.551 -0.1237 -0.3717  0.4709
 6393SOL     OW25337   4.978   4.653   2.888 -0.3641  0.1051  0.0076
 6393SOL    HW225338   4.910   4.636   2.823 -0.6624 -0.0937  0.3682
 6393SOL    HW325339   4.977   4.748   2.900 -0.1627  0.1628 -0.4352
 6393SOL    MW425340   4.969   4.663   2.881 -0.2936  0.5964  0.3350
 6394SOL     OW25341   1.419   4.592   4.666  0.5735  0.0024  0.8307
 6394SOL    HW225342   1.422   4.666   4.606  0.2445 -0.3222  0.4134
 6394SOL    HW325343   1.510   4.574   4.687  0.6770  0.2354  0.5766
 6394SOL    MW425344   1.431   4.600   4.661  0.4499  0.0947  0.6660
 6395SOL     OW25345   5.996   5.958   3.340  0.2659 -0.1326 -0.1601
 6395SOL    HW225346   6.075   6.005   3.370 -0.7464  1.6546 -0.1716
 6395SOL    HW325347   5.931   5.975   3.408  0.2424 -2.8410  0.6143
 6395SOL    MW425348   5.998   5.967   3.353 -0.2577  0.3194 -0.0550
 6396SOL     OW25349   4.681   4.376   0.661 -0.5117  0.2277  0.6879
 6396SOL    HW225350   4.701   4.361   0.754  0.7885 -0.3024  0.3477
 6396SOL    HW325351   4.631   4.299   0.634  1.4156 -0.9870  0.3229
 6396SOL    MW425352   4.677   4.364   0.670  0.5358 -0.0748  0.3278
 6397SOL     OW25353   3.654   5.539   0.101  0.1674 -0.0814  0.8782
 6397SOL    HW225354   3.707   5.618   0.101 -0.1479  0.1321  1.0165
 6397SOL    HW325355   3.569   5.567   0.136  0.0803 -0.4959  1.0045
 6397SOL    MW425356   3.650   5.553   0.106  0.5626 -0.3869  0.3387
 6398SOL     OW25357   3.176   5.935   0.270  0.9005  0.1052  0.2014
 6398SOL    HW225358   3.177   5.884   0.351  1.5594  0.1186  0.2094
 6398SOL    HW325359   3.109   6.002   0.285  1.8177  0.8290  1.2026
 6398SOL    MW425360   3.167   5.937   0.283 -0.0813 -0.1072  0.6952
 6399SOL     OW25361   4.103   3.177   5.400  0.6928  0.2941  0.0591
 6399SOL    HW225362   4.087   3.109   5.335 -0.4139  0.1637  0.4428
 6399SOL    HW325363   4.109   3.130   5.483  1.5552  0.5134  0.1373
 6399SOL    MW425364   4.102   3.162   5.402  0.8416  0.0555 -0.0445
 6400SOL     OW25365   2.193   1.714   4.382 -0.2299  0.3136 -0.5095
 6400SOL    HW225366   2.160   1.788   4.331 -1.6405  0.0364 -0.0291
 6400SOL    HW325367   2.191   1.640   4.321 -1.2644  0.1306 -0.2673
 6400SOL    MW425368   2.188   1.714   4.367 -0.5321  0.1097  0.6659
 6401SOL     OW25369   2.456   0.705   5.529 -0.2995  0.1773 -1.1834
 6401SOL    HW225370   2.451   0.730   5.621 -0.0684  2.1580 -1.6530
 6401SOL    HW325371   2.369   0.672   5.508 -0.5613  0.3699 -0.4279
 6401SOL    MW425372   2.444   0.704   5.538  0.6164  0.1669  0.0546
 6402SOL     OW25373   0.204   0.582   0.893 -0.0527 -0.8486  0.2564
 6402SOL    HW225374   0.172   0.669   0.915  0.6223 -0.1201 -1.4775
 6402SOL    HW325375   0.214   0.538   0.977 -0.7035  0.6369  1.1434
 6402SOL    MW425376   0.201   0.588   0.907 -0.0338  0.1974 -0.2017
 6403SOL     OW25377   4.979   4.777   2.589 -0.1571 -0.2355  0.0648
 6403SOL    HW225378   5.036   4.817   2.654 -0.3493 -0.3718  0.3159
 6403SOL    HW325379   4.986   4.835   2.513 -0.3244  0.2037  0.3803
 6403SOL    MW425380   4.987   4.790   2.587 -0.3270 -0.5775 -0.3561
 6404SOL     OW25381   0.639   1.294   5.169  0.1123  0.4376 -0.2034
 6404SOL    HW225382   0.603   1.331   5.088 -0.2422 -0.0669 -0.2851
 6404SOL    HW325383   0.561   1.273   5.221  0.2955 -0.3516 -0.2400
 6404SOL    MW425384   0.624   1.296   5.165 -0.4459 -0.2595 -0.1097
 6405SOL     OW25385   1.221   2.456   1.649 -0.3460  1.0520 -0.0746
 6405SOL    HW225386   1.297   2.513   1.642 -0.7663  1.6244  0.0119
 6405SOL    HW325387   1.183   2.453   1.561 -0.0573  0.5225 -0.1891
 6405SOL    MW425388   1.226   2.463   1.637 -0.2201 -0.0792  0.0082
 6406SOL     OW25389   3.255   3.844   0.133 -0.0749  0.1543 -0.9616
 6406SOL    HW225390   3.193   3.906   0.173  0.7076 -0.4682  1.3891
 6406SOL    HW325391   3.237   3.761   0.176  0.6602 -0.6511 -2.1592
 6406SOL    MW425392   3.244   3.841   0.144 -0.1547 -0.2954 -0.3314
 6407SOL     OW25393   4.503   6.298   4.307  0.1200 -0.7361  0.3660
 6407SOL    HW225394   4.590   6.338   4.306 -0.2610  0.1907  1.9259
 6407SOL    HW325395   4.445   6.367   4.341 -1.1935 -1.4253 -0.3830
 6407SOL    MW425396   4.507   6.313   4.311  0.2668  0.5913 -0.0316
 6408SOL     OW25397   1.969   4.871   6.146  0.5481  0.1131  0.2194
 6408SOL    HW225398   2.003   4.912   6.225  0.0796  1.2124 -0.1415
 6408SOL    HW325399   1.874   4.873   6.156  0.4799  0.3917 -0.4388
 6408SOL    MW425400   1.961   4.876   6.157 -0.4192 -0.2283  0.4304
 6409SOL     OW25401   0.961   6.105   4.897  0.5048  0.2771 -0.3289
 6409SOL    HW225402   0.907   6.030   4.923  1.8605 -0.5877  0.0667
 6409SOL    HW325403   1.009   6.129   4.976 -1.7471  3.2650  0.3136
 6409SOL    MW425404   0.960   6.098   4.910 -0.6353  0.0785 -1.1974
 6410SOL     OW25405   5.806   1.128   4.410  0.3212  0.4624  0.1891
 6410SOL    HW225406   5.846   1.162   4.490 -1.3355  0.6150  0.9735
 6410SOL    HW325407   5.724   1.177   4.401 -0.0310 -0.3126 -1.0238
 6410SOL    MW425408   5.801   1.139   4.419 -0.1439  0.4521  0.2176
 6411SOL     OW25409   0.917   0.883   0.613 -0.1284  0.0931  0.4585
 6411SOL    HW225410   0.999   0.852   0.653 -0.0445 -0.8564 -0.3945
 6411SOL    HW325411   0.919   0.978   0.625  0.7621  0.0169  1.0648
 6411SOL    MW425412   0.928   0.891   0.620  0.5407 -0.4001 -0.4503
 6412SOL     OW25413   4.996   1.707   3.602  0.6714  0.1812 -0.3201
 6412SOL    HW225414   4.960   1.634   3.651  1.9506 -2.5835 -3.1519
 6412SOL    HW325415   4.920   1.762   3.582 -0.3869 -0.5263  1.5413
 6412SOL    MW425416   4.981   1.705   3.606 -0.1001  0.5217 -0.2219
 6413SOL     OW25417   6.106   5.839   6.200 -0.7945  0.5156  0.0842
 6413SOL    HW225418   6.080   5.753   6.231  1.0898 -0.4329 -0.8180
 6413SOL    HW325419   6.187   5.824   6.150 -0.0505  2.8838  0.4357
 6413SOL    MW425420   6.113   5.826   6.197  0.1465 -0.4063 -0.4616
 6414SOL     OW25421   3.068   2.473   2.934 -0.0614  0.1335 -0.4192
 6414SOL    HW225422   3.014   2.410   2.885 -0.5936  0.1295  0.1577
 6414SOL    HW325423   3.150   2.427   2.951 -0.1601 -0.1310 -0.6545
 6414SOL    MW425424   3.072   2.459   2.930 -0.7310 -0.6128  0.4117
 6415SOL     OW25425   5.421   0.798   3.445  0.2656  0.1632  0.1833
 6415SOL    HW225426   5.483   0.783   3.516 -0.9266 -0.8729  1.0558
 6415SOL    HW325427   5.398   0.891   3.452 -0.7496 -0.1713  1.9702
 6415SOL    MW425428   5.426   0.808   3.456 -0.5426  0.0600 -0.1178
 6416SOL     OW25429   2.618   6.379   3.204 -0.2930  0.0722  0.0415
 6416SOL    HW225430   2.680   6.331   3.258  1.0770  0.8829 -0.7583
 6416SOL    HW325431   2.671   6.417   3.133 -1.7788  0.3342 -0.9892
 6416SOL    MW425432   2.633   6.378   3.202  0.3118  0.3595 -0.6664
 6417SOL     OW25433   1.875   0.929   4.661 -0.0997  0.1284  0.1645
 6417SOL    HW225434   1.812   0.984   4.707 -1.4392 -1.1534 -0.0618
 6417SOL    HW325435   1.871   0.958   4.570 -1.8314 -1.1772 -0.2297
 6417SOL    MW425436   1.866   0.940   4.655  0.2498  0.4764  0.0834
 6418SOL     OW25437   5.617   1.985   2.451 -0.5213 -0.0099 -0.3287
 6418SOL    HW225438   5.585   2.008   2.538  2.2236  0.1094  0.7453
 6418SOL    HW325439   5.658   1.899   2.463  1.7000  0.8848 -0.9181
 6418SOL    MW425440   5.618   1.977   2.464 -0.1470  0.6936  0.2654
 6419SOL     OW25441   3.951   6.221   3.800 -0.1452 -0.4204 -0.1486
 6419SOL    HW225442   3.864   6.183   3.807 -0.0782 -0.3839  1.1098
 6419SOL    HW325443   3.991   6.208   3.886  0.1964  1.6987  0.0922
 6419SOL    MW425444   3.945   6.215   3.812 -0.5450 -0.1896 -0.9108
 6420SOL     OW25445   5.549   1.503   2.424  0.3846  0.5555  0.9272
 6420SOL    HW225446   5.575   1.586   2.465 -0.1325  1.0048  0.3654
 6420SOL    HW325447   5.495   1.460   2.490 -1.3697  1.7704  0.3589
 6420SOL    MW425448   5.546   1.508   2.438  0.2538 -0.4901  0.8695
 6421SOL     OW25449   5.065   5.906   5.160 -0.0745  0.5027 -0.3736
 6421SOL    HW225450   4.970   5.895   5.170 -0.2850  1.8154 -0.6949
 6421SOL    HW325451   5.075   5.950   5.075  0.9059 -0.5436 -0.8273
 6421SOL    MW425452   5.053   5.910   5.150  0.0827 -0.4588  0.0025
 6422SOL     OW25453   1.977   0.426   2.470  0.0592 -0.5118  0.1294
 6422SOL    HW225454   1.923   0.463   2.400 -0.8072  0.2698  1.1721
 6422SOL    HW325455   1.915   0.407   2.540  0.8266 -1.8595  0.4706
 6422SOL    MW425456   1.962   0.429   2.470  0.4219 -0.2528 -0.3052
 6423SOL     OW25457   0.318   2.549   4.156  0.0045 -0.3485  0.4896
 6423SOL    HW225458   0.317   2.476   4.218  0.7106 -0.0679  0.8279
 6423SOL    HW325459   0.410   2.571   4.145 -0.1145 -0.3029 -0.5539
 6423SOL    MW425460   0.330   2.542   4.163  0.6280  0.3490 -0.2416
 6424SOL     OW25461   3.204   5.472   3.726  0.0912  0.4732 -0.1863
 6424SOL    HW225462   3.113   5.447   3.744  0.2573  0.9484  1.5133
 6424SOL    HW325463   3.254   5.391   3.736 -0.1665  0.1154 -1.5673
 6424SOL    MW425464   3.199   5.458   3.730 -0.6203 -0.1308 -0.6024
 6425SOL     OW25465   2.297   2.233   6.293 -0.2065 -0.6950  0.7749
 6425SOL    HW225466   2.225   2.286   6.259  0.3989  0.2389  0.8998
 6425SOL    HW325467   2.261   2.144   6.298 -1.2168 -0.3250  0.4597
 6425SOL    MW425468   2.282   2.228   6.289 -0.2728 -0.3019  0.0776
 6426SOL     OW25469   0.646   3.372   0.766 -0.1887  0.0501  0.2733
 6426SOL    HW225470   0.595   3.379   0.685 -2.5904 -0.4024  1.6559
 6426SOL    HW325471   0.690   3.288   0.759  0.9716  0.7491 -1.2575
 6426SOL    MW425472   0.645   3.362   0.754 -0.5019 -0.2290  0.3913
 6427SOL     OW25473   2.615   0.386   3.644  0.4031  0.0076  0.3385
 6427SOL    HW225474   2.541   0.447   3.646  0.8868  0.5932  1.1109
 6427SOL    HW325475   2.619   0.351   3.733 -0.0428 -1.4002 -0.1629
 6427SOL    MW425476   2.605   0.390   3.656  0.4266 -0.0953  0.5664
 6428SOL     OW25477   0.443   1.666   2.669  0.4730  0.0413 -0.4488
 6428SOL    HW225478   0.524   1.644   2.622  0.1809 -0.0854 -0.9051
 6428SOL    HW325479   0.442   1.762   2.671 -0.4386  0.1269 -2.4031
 6428SOL    MW425480   0.453   1.676   2.663  0.8452  0.0623  0.0539
 6429SOL     OW25481   0.988   0.204   1.115 -0.2494  0.5328  0.0417
 6429SOL    HW225482   1.067   0.179   1.162  0.1363 -0.2143 -0.9562
 6429SOL    HW325483   0.958   0.284   1.157  1.2910  1.0730  0.1530
 6429SOL    MW425484   0.994   0.211   1.127  0.2437  0.1031  0.2611
 6430SOL     OW25485   4.610   1.713   3.822 -0.1036  0.3508  0.1348
 6430SOL    HW225486   4.628   1.621   3.843  1.0635  0.3823 -0.6305
 6430SOL    HW325487   4.517   1.714   3.798 -0.0408 -0.7142 -0.2327
 6430SOL    MW425488   4.600   1.701   3.822 -0.1682 -0.0909  0.3115
 6431SOL     OW25489   5.314   0.033   1.119  0.2736 -0.0185 -0.0053
 6431SOL    HW225490   5.323  -0.056   1.153  0.6812 -0.4986 -1.3143
 6431SOL    HW325491   5.396   0.076   1.144  0.4647 -0.2916 -0.1491
 6431SOL    MW425492   5.326   0.027   1.127  0.6098  0.2774 -0.1256
 6432SOL     OW25493   3.062   6.015   1.823  0.0201  0.1863 -0.0154
 6432SOL    HW225494   3.128   6.085   1.824  0.4918 -0.2245 -1.2442
 6432SOL    HW325495   2.980   6.059   1.846  0.5865  0.8332  0.8310
 6432SOL    MW425496   3.060   6.030   1.826  0.1677  0.1115  0.0638
 6433SOL     OW25497   2.267   2.735   1.715 -0.1008  0.9086  0.0873
 6433SOL    HW225498   2.329   2.707   1.647 -0.3827  0.6232 -0.0579
 6433SOL    HW325499   2.281   2.829   1.723  1.5567  0.6093  1.2819
 6433SOL    MW425500   2.277   2.744   1.707 -0.4745 -0.2881 -0.2056
 6434SOL     OW25501   1.285   4.175   6.379  0.1768 -0.2790 -0.7630
 6434SOL    HW225502   1.241   4.229   6.445 -1.2616 -0.4568 -1.5251
 6434SOL    HW325503   1.367   4.149   6.420 -0.6540 -0.3814  0.9606
 6434SOL    MW425504   1.290   4.179   6.393 -0.6250 -0.2833  0.1651
 6435SOL     OW25505   0.634   1.224   1.198 -0.2148  0.1711 -0.5561
 6435SOL    HW225506   0.596   1.199   1.282 -0.7208  0.7195 -0.6178
 6435SOL    HW325507   0.614   1.317   1.189  1.1877  0.4869 -0.5809
 6435SOL    MW425508   0.626   1.233   1.208 -0.4429 -0.2732 -0.5104
 6436SOL     OW25509   1.517   4.277   3.442 -0.6294  0.0500 -0.1910
 6436SOL    HW225510   1.501   4.184   3.428 -0.8735  0.2628 -1.4500
 6436SOL    HW325511   1.596   4.296   3.390 -0.0152  0.3549  0.8287
 6436SOL    MW425512   1.525   4.267   3.433  0.3404  0.6083 -0.0789
 6437SOL     OW25513   5.038   0.505   2.071  0.3473  0.3447 -0.1840
 6437SOL    HW225514   4.944   0.523   2.072  0.2472 -0.1956  0.1502
 6437SOL    HW325515   5.059   0.481   2.161  0.5037 -1.0472 -0.5751
 6437SOL    MW425516   5.028   0.504   2.083  0.2732 -0.1280  0.5274
 6438SOL     OW25517   2.166   2.949   0.163  0.1400  0.1157  0.3162
 6438SOL    HW225518   2.085   2.969   0.210 -0.0312  1.0840 -0.3620
 6438SOL    HW325519   2.138   2.889   0.093  0.2706 -0.7239  0.9638
 6438SOL    MW425520   2.151   2.944   0.160  0.3196 -0.2866 -0.6388
 6439SOL     OW25521   6.024   6.331   6.214  0.0810  0.0842 -0.3911
 6439SOL    HW225522   6.116   6.336   6.185 -0.0039 -1.4279 -1.0184
 6439SOL    HW325523   6.000   6.422   6.232  1.2648  0.6773 -1.6026
 6439SOL    MW425524   6.033   6.344   6.212  0.5293 -0.0084  0.5695
 6440SOL     OW25525   1.306   4.675   0.938 -0.0383  0.4179 -0.1998
 6440SOL    HW225526   1.265   4.761   0.949 -1.4401 -0.1589 -0.7772
 6440SOL    HW325527   1.240   4.622   0.893  1.0104 -0.8096 -0.3451
 6440SOL    MW425528   1.292   4.679   0.934  0.4736  0.5405 -0.0514
 6441SOL     OW25529   2.655   3.293   0.443  0.5893 -0.3884  0.1110
 6441SOL    HW225530   2.679   3.273   0.533  0.7750  0.3270  0.2305
 6441SOL    HW325531   2.645   3.208   0.401 -0.2459 -0.7465  0.9924
 6441SOL    MW425532   2.657   3.280   0.449 -0.1479 -0.1170  0.5106
 6442SOL     OW25533   2.242   4.378   6.251  0.5303  0.0931  0.1303
 6442SOL    HW225534   2.185   4.370   6.328 -0.2837  1.4250 -0.2905
 6442SOL    HW325535   2.205   4.451   6.202  3.0376  1.4863  0.1675
 6442SOL    MW425536   2.229   4.386   6.254 -0.3716 -0.2112  0.4234
 6443SOL     OW25537   4.313   6.424   3.613 -0.3514  0.2447 -0.4417
 6443SOL    HW225538   4.319   6.476   3.693 -0.1558  0.8723 -0.8475
 6443SOL    HW325539   4.403   6.425   3.578 -0.6842  1.1012 -1.3363
 6443SOL    MW425540   4.326   6.431   3.619  0.0542  0.9399 -0.0860
 6444SOL     OW25541   0.279   4.165   3.954 -0.1964  0.3849  0.1401
 6444SOL    HW225542   0.241   4.136   3.871  1.9792 -0.9196 -0.4693
 6444SOL    HW325543   0.212   4.147   4.019 -0.4657 -2.3694 -0.7937
 6444SOL    MW425544   0.265   4.159   3.952 -0.1614  0.0520  0.0517
 6445SOL     OW25545   5.423   4.323   0.667  0.1766 -0.0071 -0.2698
 6445SOL    HW225546   5.495   4.263   0.688  0.5771  0.7451  0.5231
 6445SOL    HW325547   5.408   4.373   0.747 -2.3216 -1.2294  0.1254
 6445SOL    MW425548   5.430   4.321   0.680  0.9215  0.0735  0.0504
 6446SOL     OW25549   1.587   5.547   4.227 -0.3555 -0.3103 -0.5936
 6446SOL    HW225550   1.584   5.633   4.268  0.8239 -0.1734 -0.7475
 6446SOL    HW325551   1.545   5.560   4.142  0.7526  0.3867 -1.0529
 6446SOL    MW425552   1.581   5.560   4.221 -0.1678 -0.2503  0.0302
 6447SOL     OW25553   2.906   1.752   4.940 -0.6666  0.0028 -0.9719
 6447SOL    HW225554   2.901   1.829   4.884 -1.3862  0.0038 -0.9211
 6447SOL    HW325555   2.991   1.759   4.984 -1.7076  2.0921  0.8980
 6447SOL    MW425556   2.917   1.763   4.938  0.4097 -0.0669 -0.6231
 6448SOL     OW25557   5.161   1.981   5.912  0.3618 -0.1983  0.2356
 6448SOL    HW225558   5.189   1.992   5.821  0.3888 -0.7345  0.1761
 6448SOL    HW325559   5.078   1.934   5.906 -0.7429  1.6427  0.3949
 6448SOL    MW425560   5.154   1.976   5.899  0.1289  0.0447 -0.1356
 6449SOL     OW25561   4.187   5.639   0.750 -0.2322 -0.4986  0.4954
 6449SOL    HW225562   4.231   5.652   0.834  0.4490  2.5408 -0.2102
 6449SOL    HW325563   4.207   5.548   0.726  2.2491 -0.4818  2.1418
 6449SOL    MW425564   4.196   5.629   0.758 -0.4587 -0.3087  0.0716
 6450SOL     OW25565   0.949   6.321   1.586  0.2143 -0.2323  0.2769
 6450SOL    HW225566   0.897   6.242   1.599  2.4292 -1.6255  1.1864
 6450SOL    HW325567   0.911   6.385   1.645 -1.0652 -0.8760  0.1743
 6450SOL    MW425568   0.937   6.319   1.595 -0.5733 -0.0969  0.6139
 6451SOL     OW25569   2.874   4.279   3.316 -0.4091  0.7661  0.1362
 6451SOL    HW225570   2.934   4.248   3.249  0.6680 -2.2508  2.2787
 6451SOL    HW325571   2.790   4.239   3.294  0.0559 -0.6126  0.7960
 6451SOL    MW425572   2.871   4.270   3.304 -0.0479  0.7319  0.6311
 6452SOL     OW25573   3.771   0.370   3.951  0.3389 -0.0354 -0.2381
 6452SOL    HW225574   3.754   0.446   3.894 -0.6151 -0.3589 -0.4150
 6452SOL    HW325575   3.786   0.408   4.037  0.4294  0.3864 -0.4341
 6452SOL    MW425576   3.770   0.385   3.955  0.0820  0.1903  0.1738
 6453SOL     OW25577   2.133   5.886   4.800  0.2186  0.4553 -0.5196
 6453SOL    HW225578   2.191   5.934   4.741  1.3742 -2.2923 -1.8321
 6453SOL    HW325579   2.139   5.795   4.770 -1.9195 -0.5281  1.6807
 6453SOL    MW425580   2.141   5.880   4.788  0.0862  0.1564  0.3177
 6454SOL     OW25581   5.769   3.701   5.840 -0.0011 -0.2795 -0.3290
 6454SOL    HW225582   5.793   3.650   5.763  1.3368 -0.3104  0.0819
 6454SOL    HW325583   5.742   3.786   5.805  0.1155 -0.4569 -0.8607
 6454SOL    MW425584   5.769   3.706   5.825 -0.2297  0.4030 -0.2457
 6455SOL     OW25585   1.844   1.983   2.580 -0.1063 -0.4692  0.3480
 6455SOL    HW225586   1.756   2.010   2.553  0.6896  1.2642 -0.6938
 6455SOL    HW325587   1.861   2.031   2.660 -0.2999 -1.2480  0.8699
 6455SOL    MW425588   1.835   1.993   2.587  0.7589 -0.4062  0.3701
 6456SOL     OW25589   3.521   0.353   1.831  0.2261 -0.7144 -0.4019
 6456SOL    HW225590   3.456   0.301   1.878  0.7525 -1.3260 -0.3335
 6456SOL    HW325591   3.509   0.442   1.864 -0.4822 -0.8466 -0.2918
 6456SOL    MW425592   3.511   0.358   1.842  0.5120 -0.2175 -0.4279
 6457SOL     OW25593   1.924   0.174   1.259  0.1924 -0.1561 -0.0057
 6457SOL    HW225594   1.908   0.267   1.277  2.4889  0.1406  0.8333
 6457SOL    HW325595   1.891   0.161   1.170 -0.4809  1.3640 -0.0147
 6457SOL    MW425596   1.917   0.184   1.250 -0.2233 -0.2717 -0.3798
 6458SOL     OW25597   3.915   2.882   0.777  0.1648  0.2160  0.0969
 6458SOL    HW225598   3.994   2.934   0.791 -0.0216  0.3514  0.6328
 6458SOL    HW325599   3.904   2.882   0.681  0.5571  0.5707  0.0469
 6458SOL    MW425600   3.924   2.889   0.766 -0.1138 -0.1585 -0.3268
 6459SOL     OW25601   3.352   3.317   1.882  0.3993  0.4411  0.1781
 6459SOL    HW225602   3.367   3.298   1.790 -2.3369 -0.4031 -0.1778
 6459SOL    HW325603   3.387   3.240   1.928  1.8444  0.8995 -0.0910
 6459SOL    MW425604   3.359   3.304   1.876  0.6691 -0.0303 -0.8131
 6460SOL     OW25605   1.970   4.319   3.285  1.2898 -0.2936  0.6902
 6460SOL    HW225606   2.003   4.380   3.219  1.7317 -0.8197  0.4206
 6460SOL    HW325607   2.027   4.331   3.360  1.5788 -0.6100  0.5204
 6460SOL    MW425608   1.982   4.329   3.286  0.0590  0.5142  0.1991
 6461SOL     OW25609   0.158   4.381   5.722  0.4292  0.2621 -0.0966
 6461SOL    HW225610   0.174   4.467   5.761  1.2308  0.0038  0.1779
 6461SOL    HW325611   0.202   4.385   5.637 -1.4090  0.8629 -1.0796
 6461SOL    MW425612   0.166   4.393   5.716 -0.0026 -0.1040 -0.5249
 6462SOL     OW25613   4.892   6.207   2.374 -0.4827 -0.1344 -0.3046
 6462SOL    HW225614   4.981   6.184   2.347 -0.5817  0.0658 -0.8174
 6462SOL    HW325615   4.882   6.168   2.461 -0.8221 -2.4811 -1.3173
 6462SOL    MW425616   4.902   6.199   2.382 -0.5156 -0.1228  0.1283
 6463SOL     OW25617   5.607   2.493   2.118 -0.1809  0.3793  0.0477
 6463SOL    HW225618   5.629   2.404   2.091  0.1953  0.7106 -0.7744
 6463SOL    HW325619   5.690   2.529   2.151 -0.8430 -0.3693  2.7671
 6463SOL    MW425620   5.621   2.486   2.119  0.0246 -0.6281 -0.1976
 6464SOL     OW25621   2.815   3.437   4.756 -0.0480 -0.2243  0.1226
 6464SOL    HW225622   2.763   3.418   4.678 -0.9234 -1.0130  0.8547
 6464SOL    HW325623   2.750   3.468   4.820  0.7553  1.1108  0.3165
 6464SOL    MW425624   2.799   3.439   4.754 -0.4837  0.4633 -0.8641
 6465SOL     OW25625   5.879   2.047   1.453 -0.2041 -0.0289 -0.0228
 6465SOL    HW225626   5.919   1.979   1.398  1.0387  0.2461  0.4969
 6465SOL    HW325627   5.945   2.064   1.521 -0.6204  1.4769  0.0307
 6465SOL    MW425628   5.893   2.040   1.455 -0.6127  0.0674 -1.0619
 6466SOL     OW25629   2.363   5.632   1.400 -0.1789 -0.6439  0.2295
 6466SOL    HW225630   2.338   5.561   1.460 -1.8640 -1.1093 -0.9368
 6466SOL    HW325631   2.457   5.623   1.390 -0.3151 -2.6013  0.3096
 6466SOL    MW425632   2.372   5.621   1.406 -0.1860  0.7808  0.3419
 6467SOL     OW25633   2.429   2.357   0.059  0.0610 -0.3151 -0.4794
 6467SOL    HW225634   2.376   2.315   0.126 -0.2113 -1.9548 -1.6719
 6467SOL    HW325635   2.400   2.317  -0.023 -0.1307  2.1430 -1.6952
 6467SOL    MW425636   2.418   2.346   0.057 -0.0884  0.4449 -0.7617
 6468SOL     OW25637   0.186   4.040   1.615  0.2660 -0.0772 -0.2430
 6468SOL    HW225638   0.103   4.029   1.662  0.5689 -0.9528  0.1214
 6468SOL    HW325639   0.248   4.069   1.682  0.8592 -1.9662  0.0996
 6468SOL    MW425640   0.183   4.042   1.630 -0.6774 -1.8760 -0.2537
 6469SOL     OW25641   2.091   0.900   5.327 -0.2281 -0.3168 -0.0800
 6469SOL    HW225642   2.085   0.981   5.377  1.2434  0.4275 -1.0268
 6469SOL    HW325643   2.182   0.895   5.300 -0.0880 -2.7459  0.6415
 6469SOL    MW425644   2.102   0.910   5.330  0.7004  0.1051 -0.1880
 6470SOL     OW25645   3.485   6.369   2.911  0.0902 -0.3533 -0.0762
 6470SOL    HW225646   3.459   6.409   2.828  0.2879 -0.4967 -0.2086
 6470SOL    HW325647   3.471   6.276   2.899  0.1751 -0.3810  0.0319
 6470SOL    MW425648   3.480   6.362   2.899 -0.1488  0.4895  0.5395
 6471SOL     OW25649   3.537   5.031   6.347 -0.4632 -0.5276 -0.3605
 6471SOL    HW225650   3.547   4.946   6.389  0.7233 -0.2210  0.0066
 6471SOL    HW325651   3.606   5.085   6.385  0.6703 -0.2162 -2.7111
 6471SOL    MW425652   3.547   5.027   6.358  0.1583 -0.0367  0.0474
 6472SOL     OW25653   4.478   5.097   3.503  0.5356 -0.2971 -0.0860
 6472SOL    HW225654   4.431   5.030   3.454  0.2821 -1.5198  1.7352
 6472SOL    HW325655   4.522   5.150   3.436 -2.8039  0.5009 -1.8727
 6472SOL    MW425656   4.478   5.095   3.488 -0.8579  0.0575  0.4491
 6473SOL     OW25657   4.180   5.926   3.550 -0.1505 -0.8864  0.4869
 6473SOL    HW225658   4.177   6.011   3.594 -0.1393 -0.1474 -0.8913
 6473SOL    HW325659   4.112   5.931   3.484  0.1781 -1.7629  0.0737
 6473SOL    MW425660   4.171   5.938   3.547  0.4313  0.1286 -0.0922
 6474SOL     OW25661   6.396   3.709   4.152 -0.4299  0.1393 -0.0974
 6474SOL    HW225662   6.301   3.701   4.142 -0.5874  1.5374  0.1069
 6474SOL    HW325663   6.416   3.797   4.121  0.6065  0.3911  1.2053
 6474SOL    MW425664   6.386   3.719   4.147 -0.3398 -0.0832 -0.1391
 6475SOL     OW25665   5.243   1.388   6.045 -0.2225  0.0428  0.3705
 6475SOL    HW225666   5.153   1.357   6.037 -0.3151 -0.5399  3.0199
 6475SOL    HW325667   5.237   1.483   6.033 -1.1862 -0.0012  0.4792
 6475SOL    MW425668   5.231   1.397   6.042 -0.7486  0.3811  0.0180
 6476SOL     OW25669   0.311   2.501   1.453 -0.1633 -0.5152  0.2205
 6476SOL    HW225670   0.224   2.468   1.474  0.7998 -2.9230  0.7357
 6476SOL    HW325671   0.321   2.486   1.359 -0.6185  0.6600 -0.0369
 6476SOL    MW425672   0.301   2.495   1.443  0.4969  0.4167 -0.5387
 6477SOL     OW25673   2.019   3.752   4.287  0.3405  0.1897  0.0153
 6477SOL    HW225674   2.025   3.764   4.382  0.0031 -0.9912  0.2028
 6477SOL    HW325675   1.935   3.791   4.263 -0.2324 -0.7499  0.4337
 6477SOL    MW425676   2.009   3.758   4.296 -0.0109 -0.4487 -0.1660
 6478SOL     OW25677   0.265   2.138   1.819  0.2240 -0.1453  0.1812
 6478SOL    HW225678   0.321   2.213   1.839  1.0906 -0.4880 -0.8627
 6478SOL    HW325679   0.323   2.074   1.778 -1.1048 -0.0426 -2.0689
 6478SOL    MW425680   0.280   2.139   1.816  0.4434 -0.2874 -0.5931
 6479SOL     OW25681   0.865   1.462   2.843 -0.7124  0.2348  0.5173
 6479SOL    HW225682   0.782   1.500   2.871 -0.5157  0.3127  0.9933
 6479SOL    HW325683   0.865   1.472   2.748 -1.0158  0.7003  0.5665
 6479SOL    MW425684   0.854   1.468   2.834 -0.3561  0.2136 -0.2338
 6480SOL     OW25685   1.209   1.299   2.548  0.3238 -0.0909 -0.0740
 6480SOL    HW225686   1.263   1.376   2.531 -0.4712  0.2447 -1.1739
 6480SOL    HW325687   1.239   1.268   2.634 -0.0515  2.0500  0.9089
 6480SOL    MW425688   1.220   1.305   2.557  0.3412  0.3498  0.2981
 6481SOL     OW25689   0.712   0.378   2.016  0.8567  0.4920 -0.0637
 6481SOL    HW225690   0.800   0.364   2.051  0.3256 -0.0274  1.1168
 6481SOL    HW325691   0.664   0.298   2.038  0.3443  0.3301 -1.5901
 6481SOL    MW425692   0.717   0.366   2.023 -0.0145  0.0692 -0.1466
 6482SOL     OW25693   2.941   2.230   4.557  0.3944  0.1491  0.2641
 6482SOL    HW225694   2.957   2.227   4.463  1.9401  0.3350  0.5013
 6482SOL    HW325695   2.866   2.171   4.570  0.0476  0.2534 -1.0896
 6482SOL    MW425696   2.933   2.221   4.547 -0.0642  0.3849 -0.3841
 6483SOL     OW25697   0.224   3.719   2.163  0.2547  0.0013  0.0352
 6483SOL    HW225698   0.145   3.763   2.193  0.4410  0.7733 -0.5630
 6483SOL    HW325699   0.194   3.637   2.125 -0.3928  0.8326 -1.2894
 6483SOL    MW425700   0.210   3.714   2.162  0.0942 -0.7008 -0.3963
 6484SOL     OW25701   0.582   6.241   0.156  0.5618 -0.3471  0.0486
 6484SOL    HW225702   0.677   6.244   0.149  0.4722  0.3553 -1.2479
 6484SOL    HW325703   0.554   6.332   0.148 -0.1744 -0.4141  1.5113
 6484SOL    MW425704   0.591   6.253   0.154 -0.8751  0.0342 -0.4778
 6485SOL     OW25705   2.003   5.481   3.723 -0.5082 -0.1111 -0.0016
 6485SOL    HW225706   2.050   5.442   3.797  0.1593  0.5251 -0.0705
 6485SOL    HW325707   2.069   5.483   3.652 -0.5946  0.9124 -0.0626
 6485SOL    MW425708   2.018   5.476   3.723  0.1917 -0.8276 -0.1400
 6486SOL     OW25709   1.080   3.764   5.211 -0.4799  0.6677  0.6264
 6486SOL    HW225710   0.990   3.732   5.214  0.2617 -2.2854 -2.3961
 6486SOL    HW325711   1.072   3.855   5.181 -2.4716  0.2648 -0.2236
 6486SOL    MW425712   1.067   3.772   5.207 -0.1476  0.7310  0.1685
 6487SOL     OW25713   3.912   6.300   5.912  0.6853 -0.0623 -0.2314
 6487SOL    HW225714   3.971   6.294   5.837 -2.0216 -1.2391 -2.4908
 6487SOL    HW325715   3.872   6.387   5.903  0.0980 -0.3453 -0.4070
 6487SOL    MW425716   3.914   6.311   5.901  0.5187  0.0968 -0.2077
 6488SOL     OW25717   5.999   2.385   1.762 -0.1618  0.1650  0.0685
 6488SOL    HW225718   5.924   2.434   1.727  1.2392  1.5956 -1.0984
 6488SOL    HW325719   5.993   2.396   1.857 -2.1849 -0.9537  0.1211
 6488SOL    MW425720   5.988   2.393   1.770  0.4684  0.1711 -0.3698
 6489SOL     OW25721   4.850   6.136   6.337 -0.6172 -0.1737 -0.3134
 6489SOL    HW225722   4.913   6.196   6.297 -1.2305  0.2308 -0.6896
 6489SOL    HW325723   4.868   6.141   6.431  1.9669 -2.3938 -0.5599
 6489SOL    MW425724   4.860   6.144   6.344 -0.1005 -0.4608  0.6826
 6490SOL     OW25725   5.490   5.945   6.008  0.1671 -0.6301 -0.2293
 6490SOL    HW225726   5.411   5.993   5.983 -0.0120 -0.6928  0.2162
 6490SOL    HW325727   5.459   5.856   6.025  0.7332 -1.3906 -2.6873
 6490SOL    MW425728   5.475   5.940   6.007  0.2602  0.1681 -0.1980
 6491SOL     OW25729   0.155   2.880   5.754  0.4587  0.6141 -0.0161
 6491SOL    HW225730   0.228   2.820   5.742  0.6947  1.1497 -1.4155
 6491SOL    HW325731   0.197   2.965   5.770  0.1394  0.7150  0.2890
 6491SOL    MW425732   0.170   2.884   5.755 -0.5239  0.1387 -0.2213
 6492SOL     OW25733   3.149   4.247   4.237 -0.0718 -0.0055 -0.2780
 6492SOL    HW225734   3.123   4.177   4.297  0.6830 -1.0549 -1.1498
 6492SOL    HW325735   3.084   4.316   4.251 -0.2557 -0.4651  1.3127
 6492SOL    MW425736   3.137   4.247   4.247  0.0393  0.4206  0.8083
 6493SOL     OW25737   3.089   2.202   0.447 -0.3179  0.1907 -0.7095
 6493SOL    HW225738   3.073   2.186   0.540 -0.3114 -0.2559 -0.7813
 6493SOL    HW325739   3.014   2.162   0.402 -0.3010  0.3673 -0.9004
 6493SOL    MW425740   3.077   2.195   0.453 -0.3112  0.1796 -0.3014
 6494SOL     OW25741   1.340   0.654   1.129  0.7253  0.3332  0.2746
 6494SOL    HW225742   1.271   0.661   1.195  0.7067 -0.5406  0.3566
 6494SOL    HW325743   1.379   0.741   1.127 -2.1047  1.7072 -1.6982
 6494SOL    MW425744   1.336   0.666   1.138  0.6211 -0.1783  0.1044
 6495SOL     OW25745   5.250   4.605   3.156 -0.4599 -0.6262  0.1873
 6495SOL    HW225746   5.179   4.558   3.113 -1.1599  0.8274 -0.3070
 6495SOL    HW325747   5.220   4.613   3.247 -1.3726  0.7144 -0.1940
 6495SOL    MW425748   5.236   4.600   3.163 -0.2547 -0.2607 -0.4570
 6496SOL     OW25749   0.940   2.367   4.422  0.0398  0.0409 -0.1944
 6496SOL    HW225750   0.850   2.348   4.450 -0.1154 -0.1799 -0.8282
 6496SOL    HW325751   0.994   2.307   4.475 -0.4808 -2.6934 -2.4942
 6496SOL    MW425752   0.935   2.356   4.433 -0.4153  1.0166 -0.5308
 6497SOL     OW25753   6.084   4.799   6.393 -0.0995  0.1970 -0.1085
 6497SOL    HW225754   6.120   4.853   6.323  0.4437 -1.9491 -1.5974
 6497SOL    HW325755   5.999   4.771   6.361 -0.3015  0.0094  0.5660
 6497SOL    MW425756   6.078   4.802   6.380 -0.5918  0.2978 -0.0799
 6498SOL     OW25757   6.421   2.741   4.319 -0.3024  0.1327  0.1606
 6498SOL    HW225758   6.455   2.746   4.230  2.1994 -0.7051  0.9667
 6498SOL    HW325759   6.476   2.802   4.369 -1.5038  0.4100  1.1862
 6498SOL    MW425760   6.433   2.750   4.314 -0.5691 -0.0432  0.5798
 6499SOL     OW25761   1.758   2.533   2.584 -0.2373 -0.3169  0.0395
 6499SOL    HW225762   1.709   2.482   2.521 -1.4951  0.9890 -0.0853
 6499SOL    HW325763   1.829   2.572   2.534  0.7481 -1.8965  0.1400
 6499SOL    MW425764   1.761   2.531   2.569  0.3033 -0.0886 -0.3638
 6500SOL     OW25765   2.328   1.144   1.742 -0.5393  0.2761  0.7530
 6500SOL    HW225766   2.343   1.207   1.813  1.4745  0.6461  0.0853
 6500SOL    HW325767   2.398   1.079   1.753 -2.1025 -1.4532  0.9490
 6500SOL    MW425768   2.339   1.144   1.753 -0.5747  0.3455  0.1658
 6501SOL     OW25769   5.615   3.806   1.247 -0.2424 -0.6087 -0.2199
 6501SOL    HW225770   5.598   3.896   1.219 -2.3275  0.3192  3.3852
 6501SOL    HW325771   5.696   3.781   1.202 -1.0845  1.9708 -3.5148
 6501SOL    MW425772   5.624   3.814   1.238 -0.2867  0.2025 -0.4649
 6502SOL     OW25773   2.414   6.416   0.231  0.4876 -0.6290 -0.8538
 6502SOL    HW225774   2.338   6.361   0.211 -1.8140  2.2064 -0.5247
 6502SOL    HW325775   2.441   6.451   0.147  0.3653 -0.3607 -0.7825
 6502SOL    MW425776   2.407   6.413   0.218 -0.2975 -0.2830  0.2232
 6503SOL     OW25777   3.142   3.335   6.094 -0.1067  0.2610  0.0512
 6503SOL    HW225778   3.233   3.312   6.114 -0.1113 -2.3517 -2.3247
 6503SOL    HW325779   3.103   3.353   6.180  2.6404  1.7505  1.1351
 6503SOL    MW425780   3.149   3.334   6.108  0.6605 -0.3990  0.3065
 6504SOL     OW25781   2.467   5.496   3.939 -0.1986 -0.0640 -0.3639
 6504SOL    HW225782   2.486   5.519   3.848 -0.1844  0.9042 -0.1304
 6504SOL    HW325783   2.382   5.452   3.935 -0.2276  0.0224 -0.8402
 6504SOL    MW425784   2.459   5.493   3.926 -0.4969 -0.2349 -0.3414
 6505SOL     OW25785   2.422   4.665   5.079  0.4153  0.0076 -0.1457
 6505SOL    HW225786   2.499   4.642   5.027  0.1139 -0.5638 -0.3541
 6505SOL    HW325787   2.391   4.747   5.040  0.4038 -0.2267 -0.6414
 6505SOL    MW425788   2.428   4.673   5.067  0.4387  0.1408  0.0958
 6506SOL     OW25789   1.272   4.379   4.565 -0.3064 -0.4003  0.4683
 6506SOL    HW225790   1.293   4.469   4.589 -1.0050  0.1728 -0.9448
 6506SOL    HW325791   1.193   4.359   4.615 -0.7789  0.1689 -0.0351
 6506SOL    MW425792   1.264   4.388   4.575 -0.0814  0.3128 -0.6412
 6507SOL     OW25793   4.967   3.543   0.330 -0.4395  0.6979  0.0585
 6507SOL    HW225794   5.042   3.485   0.348 -0.6532  0.4609  0.1970
 6507SOL    HW325795   4.972   3.609   0.399  0.8383  1.8925 -1.1215
 6507SOL    MW425796   4.978   3.544   0.341  0.2630  0.2869  0.3364
 6508SOL     OW25797   1.628   1.511   3.697 -0.3304  0.4473 -0.1108
 6508SOL    HW225798   1.693   1.579   3.718  0.1745 -0.5813  2.0063
 6508SOL    HW325799   1.681   1.434   3.678 -0.9135  0.3217 -1.2511
 6508SOL    MW425800   1.644   1.510   3.698  0.3391 -0.0336 -0.6111
 6509SOL     OW25801   3.086   5.200   3.466  0.3350 -0.9986 -0.2827
 6509SOL    HW225802   3.111   5.286   3.435  1.2078 -0.5933  1.4441
 6509SOL    HW325803   3.098   5.142   3.390  0.8042  0.1933 -1.1352
 6509SOL    MW425804   3.091   5.203   3.452  1.0190  0.1215  0.6012
 6510SOL     OW25805   5.132   1.451   2.560 -0.0088  0.0659 -0.5954
 6510SOL    HW225806   5.131   1.518   2.628  0.3874 -0.0067 -0.5186
 6510SOL    HW325807   5.224   1.439   2.538 -0.0988 -0.2416 -0.8197
 6510SOL    MW425808   5.144   1.458   2.566 -0.1164 -0.6392 -0.1243
 6511SOL     OW25809   1.645   4.579   2.294 -0.1646 -0.2547 -0.2847
 6511SOL    HW225810   1.594   4.638   2.238 -0.9397  0.0135  0.6909
 6511SOL    HW325811   1.670   4.507   2.235 -0.1807  0.4647 -1.2039
 6511SOL    MW425812   1.642   4.578   2.279 -0.3830  0.0383  0.0758
 6512SOL     OW25813   2.183   1.749   4.772 -0.2696  0.2399  0.4287
 6512SOL    HW225814   2.170   1.840   4.799  0.5877  0.6441 -0.4686
 6512SOL    HW325815   2.121   1.735   4.701 -1.6659 -0.4521  1.7274
 6512SOL    MW425816   2.173   1.759   4.767 -0.2595 -0.2173  0.1553
 6513SOL     OW25817   6.137   0.026   5.818  0.1187 -0.6766 -0.0025
 6513SOL    HW225818   6.139   0.003   5.725 -0.1840 -2.2392  0.3479
 6513SOL    HW325819   6.171  -0.052   5.863  1.0059  0.3411  1.1578
 6513SOL    MW425820   6.141   0.012   5.812  0.1615 -0.1030  0.4483
 6514SOL     OW25821   6.314   6.339   3.400 -0.5925  0.0950 -0.6454
 6514SOL    HW225822   6.295   6.258   3.448  1.5281 -0.9694 -1.4326
 6514SOL    HW325823   6.234   6.358   3.352 -1.3758 -1.1405  0.1079
 6514SOL    MW425824   6.301   6.330   3.400  0.2672 -0.4187 -0.8051
 6515SOL     OW25825   2.517   5.944   5.499  0.0158  0.3707 -0.2220
 6515SOL    HW225826   2.509   5.930   5.594 -0.7693  0.1185 -0.3149
 6515SOL    HW325827   2.595   5.998   5.489  1.3570 -1.3925  0.3925
 6515SOL    MW425828   2.526   5.950   5.511 -0.0521 -0.0495 -0.0074
 6516SOL     OW25829   5.062   1.082   2.407 -0.2433 -0.4530  0.6851
 6516SOL    HW225830   5.092   1.145   2.341  1.0078 -0.8609  0.8420
 6516SOL    HW325831   4.978   1.118   2.438  0.1351  0.8065  0.3142
 6516SOL    MW425832   5.055   1.095   2.403  1.2242  0.2523 -0.1780
 6517SOL     OW25833   0.250   0.799   3.376  0.3696  0.6466  0.7031
 6517SOL    HW225834   0.249   0.877   3.430 -0.7140  0.7272  0.5875
 6517SOL    HW325835   0.253   0.832   3.286  2.3542  0.5128  0.6782
 6517SOL    MW425836   0.250   0.813   3.371 -0.2081 -0.5921 -0.1903
 6518SOL     OW25837   5.542   6.158   2.939 -0.6569  0.0461 -0.8302
 6518SOL    HW225838   5.618   6.211   2.915 -0.9806  1.4337  1.0226
 6518SOL    HW325839   5.472   6.187   2.881  0.5024 -2.4528 -3.7966
 6518SOL    MW425840   5.543   6.169   2.928 -0.1242 -0.3733 -0.2195
 6519SOL     OW25841   3.588   0.209   4.358 -0.1331 -0.0649  0.5040
 6519SOL    HW225842   3.558   0.148   4.291  1.0333  0.6559 -0.7381
 6519SOL    HW325843   3.681   0.187   4.370 -0.4566 -0.5648  2.3377
 6519SOL    MW425844   3.596   0.198   4.350  0.0323 -0.1123  0.0238
 6520SOL     OW25845   2.783   0.191   6.270 -0.1793  0.8343  0.1855
 6520SOL    HW225846   2.839   0.118   6.296 -0.9829 -0.7840 -2.2396
 6520SOL    HW325847   2.843   0.260   6.244  0.7222 -0.4164 -1.2004
 6520SOL    MW425848   2.798   0.190   6.270  1.0353 -0.2339  0.2298
 6521SOL     OW25849   5.029   2.825   1.529 -0.4332 -0.1717  0.1605
 6521SOL    HW225850   5.076   2.800   1.608 -0.6830 -1.0162  0.0469
 6521SOL    HW325851   5.092   2.877   1.479  0.1022 -0.5924  0.3912
 6521SOL    MW425852   5.043   2.829   1.533  0.1169 -0.1870  0.8221
 6522SOL     OW25853   2.445   4.389   0.959 -0.3767  0.0498  0.8764
 6522SOL    HW225854   2.516   4.384   0.894 -0.7287 -0.4483  0.5223
 6522SOL    HW325855   2.382   4.449   0.919 -0.5790 -0.2328  0.7749
 6522SOL    MW425856   2.446   4.397   0.945 -0.4148  0.1280 -0.2499
 6523SOL     OW25857   1.610   4.699   1.125  0.2656 -0.3526  0.1704
 6523SOL    HW225858   1.643   4.719   1.038 -0.6671 -2.0279 -0.6026
 6523SOL    HW325859   1.536   4.640   1.111 -1.7895  1.5856  1.9474
 6523SOL    MW425860   1.605   4.694   1.112 -0.0818  0.2072 -0.7609
 6524SOL     OW25861   4.448   6.015   1.804  0.0173  0.1479  0.2670
 6524SOL    HW225862   4.436   5.927   1.839  2.4453 -0.4496 -0.2345
 6524SOL    HW325863   4.543   6.027   1.801 -0.2288  2.2991 -0.8887
 6524SOL    MW425864   4.459   6.005   1.809  0.4965 -0.1363 -0.0877
 6525SOL     OW25865   3.985   4.896   1.468 -0.1777  0.7814 -0.4112
 6525SOL    HW225866   3.963   4.987   1.484  0.6075  0.7689  0.8792
 6525SOL    HW325867   3.901   4.850   1.472 -0.6871  1.5128 -1.8654
 6525SOL    MW425868   3.971   4.902   1.470  0.2676 -0.5338  0.4124
 6526SOL     OW25869   1.271   3.580   4.870 -0.4562 -0.3600 -0.0732
 6526SOL    HW225870   1.246   3.563   4.960 -0.6406  0.5732  0.0597
 6526SOL    HW325871   1.291   3.493   4.834  1.4289 -0.6002  1.3834
 6526SOL    MW425872   1.271   3.566   4.877 -0.4146 -0.1159 -0.0846
 6527SOL     OW25873   5.354   1.635   5.349 -0.2769 -0.9948  0.4530
 6527SOL    HW225874   5.338   1.702   5.282  4.0661  1.0373  1.1244
 6527SOL    HW325875   5.363   1.554   5.300  0.1877 -0.0282 -1.1262
 6527SOL    MW425876   5.353   1.633   5.334 -0.5239  0.1940 -0.3931
 6528SOL     OW25877   4.194   5.337   4.801  0.6379  0.2474 -0.4967
 6528SOL    HW225878   4.230   5.397   4.736  2.7349 -0.4000  0.0193
 6528SOL    HW325879   4.242   5.255   4.788 -0.5047 -0.6002  0.3852
 6528SOL    MW425880   4.205   5.334   4.791 -0.4987 -0.2021  0.2023
 6529SOL     OW25881   3.783   2.680   4.309 -0.0810 -0.1124  0.5560
 6529SOL    HW225882   3.748   2.671   4.397 -2.8308  1.1595 -0.2861
 6529SOL    HW325883   3.712   2.649   4.252  0.3899  1.9829 -1.2907
 6529SOL    MW425884   3.769   2.675   4.313 -0.0920  0.0674 -0.0346
 6530SOL     OW25885   2.178   3.914   3.506  0.5927  0.7043  0.4238
 6530SOL    HW225886   2.271   3.929   3.521  0.2132  1.1200  2.7248
 6530SOL    HW325887   2.134   3.966   3.573 -1.2826  0.0753 -0.2598
 6530SOL    MW425888   2.185   3.923   3.516 -0.1855 -0.1852 -0.2716
 6531SOL     OW25889   1.294   6.076   2.087 -0.3190  0.1033  0.6482
 6531SOL    HW225890   1.283   6.126   2.006 -1.1495 -2.3195 -0.8420
 6531SOL    HW325891   1.228   6.110   2.146 -0.4325  1.1899 -0.0868
 6531SOL    MW425892   1.284   6.087   2.084 -0.3873 -0.2536  0.2236
 6532SOL     OW25893   4.586   3.959   2.852 -0.1136 -0.2668  0.3882
 6532SOL    HW225894   4.556   3.987   2.939 -2.8607 -0.8975 -0.2462
 6532SOL    HW325895   4.585   3.863   2.856  0.0228 -0.2989 -0.2441
 6532SOL    MW425896   4.582   3.950   2.864 -0.0035 -0.0319  0.0051
 6533SOL     OW25897   2.154   3.534   2.594  0.5340  0.2854 -0.2799
 6533SOL    HW225898   2.220   3.491   2.539 -0.3683 -0.7297 -0.5941
 6533SOL    HW325899   2.168   3.497   2.681 -0.5916 -1.1127 -0.6575
 6533SOL    MW425900   2.164   3.524   2.598  0.1265 -0.4482 -0.1427
 6534SOL     OW25901   1.651   4.373   6.187  0.1865 -0.2857  0.4980
 6534SOL    HW225902   1.712   4.328   6.128  0.0476  0.7660 -0.4629
 6534SOL    HW325903   1.640   4.460   6.149 -1.4809 -0.2632  0.9691
 6534SOL    MW425904   1.657   4.378   6.174 -0.5892  0.5255 -0.6138
 6535SOL     OW25905   1.938   1.321   0.048  0.5727  0.2885  0.3436
 6535SOL    HW225906   1.896   1.377   0.113 -1.2170 -0.4659 -0.1021
 6535SOL    HW325907   2.011   1.280   0.094 -0.0948  0.4735  1.6039
 6535SOL    MW425908   1.942   1.323   0.062 -0.6891 -0.3439  0.2088
 6536SOL     OW25909   0.513   3.341   1.286  0.2242 -0.1821 -0.5096
 6536SOL    HW225910   0.475   3.264   1.330  1.9913 -0.2331  1.0502
 6536SOL    HW325911   0.515   3.316   1.194  1.2483 -2.2686  0.0113
 6536SOL    MW425912   0.508   3.328   1.280 -0.3573 -0.2165 -0.5257
 6537SOL     OW25913   4.172   4.218   4.567 -0.5301  0.3402  1.1938
 6537SOL    HW225914   4.228   4.145   4.541 -1.0806  0.4150 -0.3061
 6537SOL    HW325915   4.203   4.242   4.654 -0.0299 -1.3656  1.5254
 6537SOL    MW425916   4.184   4.212   4.575  0.6652  0.8573  0.1394
 6538SOL     OW25917   3.542   3.312   5.751  0.6456 -0.2694 -0.1822
 6538SOL    HW225918   3.611   3.377   5.768 -0.0724  0.4870 -0.0914
 6538SOL    HW325919   3.477   3.328   5.819 -0.3106  0.0153 -1.1296
 6538SOL    MW425920   3.543   3.323   5.762 -0.7351  0.1707 -0.1859
 6539SOL     OW25921   2.251   5.952   3.145 -0.4620  0.1292  0.2934
 6539SOL    HW225922   2.344   5.964   3.163  0.2466 -0.3875 -2.5297
 6539SOL    HW325923   2.218   5.904   3.221  1.6694 -0.0765  1.1602
 6539SOL    MW425924   2.259   5.947   3.157  0.3760 -0.4571 -0.1334
 6540SOL     OW25925   3.560   2.408   2.963  0.1108  0.0141  0.5751
 6540SOL    HW225926   3.509   2.462   3.024  0.0858  0.2545  0.3498
 6540SOL    HW325927   3.628   2.467   2.930 -0.4679  0.1897 -0.3595
 6540SOL    MW425928   3.562   2.423   2.967 -0.6134 -0.4924 -0.1974
 6541SOL     OW25929   1.066   2.427   1.887  0.5029 -0.2620  0.3217
 6541SOL    HW225930   1.139   2.442   1.827  0.4689  0.3152  0.4137
 6541SOL    HW325931   1.023   2.348   1.854  1.1462 -0.5807  0.2489
 6541SOL    MW425932   1.070   2.419   1.875 -0.7156  0.4414 -0.1990
 6542SOL     OW25933   3.694   0.539   2.480  0.6730 -0.1314 -0.0113
 6542SOL    HW225934   3.726   0.459   2.439  0.0373 -0.5521  0.2909
 6542SOL    HW325935   3.754   0.554   2.553  1.5079  0.3429 -0.7806
 6542SOL    MW425936   3.706   0.530   2.484  0.2540 -0.3772 -0.3847
 6543SOL     OW25937   1.525   2.293   0.402  0.4997  0.6473 -0.0140
 6543SOL    HW225938   1.492   2.345   0.330 -0.2483 -0.4670 -0.5001
 6543SOL    HW325939   1.614   2.326   0.417 -0.7374  3.7335  1.3564
 6543SOL    MW425940   1.533   2.304   0.395 -0.0703  0.4352 -0.3117
 6544SOL     OW25941   5.109   3.151   4.951 -0.0012 -0.0254  0.3111
 6544SOL    HW225942   5.197   3.154   4.913 -0.2485 -1.8403 -0.5238
 6544SOL    HW325943   5.059   3.215   4.901  0.4505 -0.1823 -0.3658
 6544SOL    MW425944   5.114   3.160   4.939  0.2012 -0.1536  0.5074
 6545SOL     OW25945   0.260   5.047   1.323 -0.0718  0.2786  0.1594
 6545SOL    HW225946   0.320   5.058   1.397 -0.9511 -0.9424  1.0839
 6545SOL    HW325947   0.303   5.093   1.251  1.0878  1.0013  1.2651
 6545SOL    MW425948   0.274   5.055   1.324  0.3677  0.1006 -0.7116
 6546SOL     OW25949   2.299   4.414   1.369 -0.0080  0.1439  0.2695
 6546SOL    HW225950   2.327   4.505   1.376  0.4042  0.4204 -3.0811
 6546SOL    HW325951   2.379   4.366   1.345 -0.4859 -0.8518  0.6016
 6546SOL    MW425952   2.314   4.420   1.367  0.2169 -0.4601  0.2473
 6547SOL     OW25953   4.662   2.915   4.039 -0.2862  0.3125 -0.1141
 6547SOL    HW225954   4.689   3.006   4.052 -1.2574  0.6545 -0.3565
 6547SOL    HW325955   4.671   2.899   3.945  0.1409  0.0696 -0.0335
 6547SOL    MW425956   4.667   2.925   4.028  0.0560  1.0613  0.8970
 6548SOL     OW25957   5.036   3.293   5.644  1.1297  0.0884  0.1184
 6548SOL    HW225958   5.087   3.288   5.563 -0.6001  3.7810 -1.4212
 6548SOL    HW325959   4.953   3.251   5.623  1.4743 -0.9815  0.8038
 6548SOL    MW425960   5.032   3.286   5.631  0.4704 -0.2687 -0.5337
 6549SOL     OW25961   4.938   5.301   5.850 -0.1311 -0.4500  0.0967
 6549SOL    HW225962   4.992   5.254   5.786  2.4060 -1.0118  2.4286
 6549SOL    HW325963   4.925   5.238   5.921 -3.3255 -0.0406 -0.0058
 6549SOL    MW425964   4.944   5.287   5.851 -0.1915  0.0004  0.4309
 6550SOL     OW25965   0.811   0.629   1.017 -0.1543  0.9561 -0.6067
 6550SOL    HW225966   0.895   0.676   1.023 -0.8697  2.2976 -0.7374
 6550SOL    HW325967   0.768   0.667   0.940 -0.3400 -0.6524 -1.3322
 6550SOL    MW425968   0.817   0.640   1.008 -0.5353  0.9624  0.0298
 6551SOL     OW25969   5.369   0.677   4.519  0.2171 -0.3784 -0.2168
 6551SOL    HW225970   5.351   0.765   4.552 -1.6288  0.4522 -3.0601
 6551SOL    HW325971   5.298   0.623   4.554  1.5618 -0.9433  1.8476
 6551SOL    MW425972   5.357   0.681   4.528  0.2315  0.1599  0.2821
 6552SOL     OW25973   2.266   3.896   0.093 -0.2861 -0.1016 -0.4022
 6552SOL    HW225974   2.231   3.919   0.007 -2.1479 -3.1865 -0.6428
 6552SOL    HW325975   2.359   3.881   0.078 -0.6494 -0.9917 -2.0455
 6552SOL    MW425976   2.273   3.897   0.080 -0.1505 -0.0877 -0.3313
 6553SOL     OW25977   2.646   3.666   4.566 -0.1132 -0.2979  0.3708
 6553SOL    HW225978   2.613   3.670   4.656 -0.2911 -1.1069  0.3468
 6553SOL    HW325979   2.669   3.757   4.545 -1.7840  0.2189  0.5860
 6553SOL    MW425980   2.645   3.679   4.575 -0.1518  0.4455 -0.0451
 6554SOL     OW25981   4.995   3.746   2.783 -0.4871  0.2751  0.0645
 6554SOL    HW225982   4.997   3.841   2.791  0.4800  0.2735 -0.0257
 6554SOL    HW325983   4.924   3.729   2.720 -0.0036  1.0001 -0.6945
 6554SOL    MW425984   4.986   3.756   2.775  0.5178 -0.5334  0.5080
 6555SOL     OW25985   0.917   5.482   0.679 -0.0473 -0.2212 -0.8280
 6555SOL    HW225986   0.978   5.549   0.649 -0.9874  0.7636 -0.6365
 6555SOL    HW325987   0.923   5.412   0.614  2.4942 -0.9508  0.0636
 6555SOL    MW425988   0.926   5.482   0.666 -0.3207 -0.2120  0.5308
 6556SOL     OW25989   0.128   0.464   0.219 -0.4734  0.4733 -0.7322
 6556SOL    HW225990   0.203   0.411   0.192 -0.8056 -0.2645 -0.2472
 6556SOL    HW325991   0.055   0.402   0.222 -0.6704  0.7448  0.7985
 6556SOL    MW425992   0.128   0.449   0.216 -0.0251 -0.6631  0.0241
 6557SOL     OW25993   6.025   3.138   4.636 -0.1112  0.3750 -0.2527
 6557SOL    HW225994   6.006   3.169   4.548 -0.3007  1.6682  0.2297
 6557SOL    HW325995   6.000   3.045   4.635 -2.5323  0.9737 -0.8403
 6557SOL    MW425996   6.019   3.130   4.624  0.3156 -0.3692  0.1191
 6558SOL     OW25997   1.875   1.406   6.220  0.2186  0.3806  0.3023
 6558SOL    HW225998   1.907   1.392   6.309  1.4016 -0.2033 -0.2053
 6558SOL    HW325999   1.939   1.464   6.179  1.3503 -1.7018 -1.0742
 6558SOL    MW426000   1.887   1.412   6.226 -0.4244  0.4294 -0.0945
 6559SOL     OW26001   4.243   4.961   1.493  0.2561 -0.9122 -0.1506
 6559SOL    HW226002   4.278   4.926   1.574  0.9799  1.1273  0.4663
 6559SOL    HW326003   4.148   4.950   1.501  0.4115 -2.0767  0.2815
 6559SOL    MW426004   4.235   4.955   1.505 -0.0948 -0.1633 -0.4018
 6560SOL     OW26005   5.480   2.567   5.572 -0.9015  0.3584  0.1889
 6560SOL    HW226006   5.528   2.634   5.620 -1.4004 -0.7918  2.4392
 6560SOL    HW326007   5.530   2.487   5.587 -0.9680 -0.0252 -1.4539
 6560SOL    MW426008   5.493   2.565   5.580  0.2977  0.4924  0.3473
 6561SOL     OW26009   2.963   6.119   0.298  0.3807  0.3256 -0.0555
 6561SOL    HW226010   2.960   6.163   0.213  1.7288 -1.2494 -0.9632
 6561SOL    HW326011   2.949   6.190   0.361  1.4913  1.9343 -1.4958
 6561SOL    MW426012   2.961   6.134   0.295  0.1212  0.3801 -0.0476
 6562SOL     OW26013   4.368   2.207   1.038  0.4234  0.4234  0.4739
 6562SOL    HW226014   4.424   2.221   0.961  1.0063 -1.3329  0.5350
 6562SOL    HW326015   4.411   2.254   1.108  0.2485  1.4836 -0.1036
 6562SOL    MW426016   4.381   2.215   1.037  0.2790  0.4585  0.0418
 6563SOL     OW26017   5.889   4.439   5.282 -0.4078 -0.2071  0.1420
 6563SOL    HW226018   5.974   4.434   5.238 -0.9711 -0.4225 -0.9297
 6563SOL    HW326019   5.848   4.354   5.265 -0.7732 -0.1748  0.8155
 6563SOL    MW426020   5.895   4.427   5.274 -0.3098 -0.0897 -0.3310
 6564SOL     OW26021   4.858   1.223   3.502  0.4990 -0.4413 -0.3473
 6564SOL    HW226022   4.849   1.161   3.574  1.1656 -0.2478 -0.0942
 6564SOL    HW326023   4.809   1.183   3.430 -0.5255 -0.4399  0.3280
 6564SOL    MW426024   4.850   1.210   3.502 -0.8358  0.0137 -0.2097
 6565SOL     OW26025   4.213   4.827   5.802  0.2633 -0.5433  0.0988
 6565SOL    HW226026   4.242   4.756   5.859  0.2276 -0.0278  0.7771
 6565SOL    HW326027   4.117   4.825   5.809  0.2887  0.1068  0.8101
 6565SOL    MW426028   4.204   4.817   5.811 -0.0157  0.0656 -0.3523
 6566SOL     OW26029   0.189   2.088   4.136 -0.0501  0.5196  1.1899
 6566SOL    HW226030   0.262   2.041   4.175  0.6544  0.7687  0.2006
 6566SOL    HW326031   0.123   2.020   4.120 -1.0282  0.6305  4.1965
 6566SOL    MW426032   0.190   2.073   4.139 -0.2538  0.3728 -0.4561
 6567SOL     OW26033   5.105   5.073   1.378 -0.4224  0.1705  0.0102
 6567SOL    HW226034   5.029   5.098   1.324 -0.2931 -2.3749 -1.5239
 6567SOL    HW326035   5.116   5.146   1.438 -2.4228  1.8608 -1.4966
 6567SOL    MW426036   5.096   5.086   1.379  0.4241 -0.4899 -1.1400
 6568SOL     OW26037   5.236   3.743   4.316  0.2092 -0.5774 -0.1990
 6568SOL    HW226038   5.292   3.720   4.390  1.6616 -1.8697 -1.6314
 6568SOL    HW326039   5.295   3.745   4.241 -1.3688 -0.1806 -1.4859
 6568SOL    MW426040   5.251   3.740   4.316 -0.3964 -0.3371  0.7500
 6569SOL     OW26041   5.173   5.155   5.215  0.7279 -0.1768 -0.1281
 6569SOL    HW226042   5.113   5.149   5.141  1.5928  0.1502 -0.8828
 6569SOL    HW326043   5.117   5.169   5.291 -0.0911  1.5405 -0.9920
 6569SOL    MW426044   5.158   5.156   5.215 -0.2512 -0.1263  0.5009
 6570SOL     OW26045   1.138   4.029   6.170  0.0445  0.4762 -0.4021
 6570SOL    HW226046   1.186   4.077   6.237  0.6162 -1.2018  0.4446
 6570SOL    HW326047   1.159   4.074   6.088  1.6057  0.8743  0.1896
 6570SOL    MW426048   1.147   4.042   6.168 -0.1102 -0.6247 -0.5111
 6571SOL     OW26049   0.713   1.816   0.857  0.2811  0.2366  0.2841
 6571SOL    HW226050   0.774   1.889   0.849  1.6581 -1.0338 -2.6846
 6571SOL    HW326051   0.628   1.853   0.833  0.6472  1.2073  0.4400
 6571SOL    MW426052   0.710   1.830   0.853 -0.2662  0.1996 -0.3647
 6572SOL     OW26053   0.597   1.468   1.949  0.4232 -0.0485  0.2512
 6572SOL    HW226054   0.504   1.494   1.943  0.5316  0.0665 -1.2208
 6572SOL    HW326055   0.595   1.382   1.990 -0.1854  0.7528  2.0182
 6572SOL    MW426056   0.584   1.460   1.954  0.1847 -0.5906 -0.5597
 6573SOL     OW26057   5.185   2.567   1.821  0.7955  0.0351 -0.0377
 6573SOL    HW226058   5.260   2.509   1.827  0.9506  0.3887  2.4189
 6573SOL    HW326059   5.216   2.651   1.856 -0.8476  0.0259  1.5735
 6573SOL    MW426060   5.199   2.571   1.826 -0.4612 -0.4490 -0.3657
 6574SOL     OW26061   0.994   0.329   2.076 -0.6539  0.0542 -0.5514
 6574SOL    HW226062   1.029   0.335   2.165 -0.3577  0.1938 -0.6791
 6574SOL    HW326063   0.982   0.235   2.061  1.3723 -0.1400 -1.1742
 6574SOL    MW426064   0.997   0.317   2.086 -0.0468  0.3200  0.3695
 6575SOL     OW26065   2.692   1.716   2.684  0.2287  0.8459  0.0448
 6575SOL    HW226066   2.676   1.759   2.600  3.5753  0.4931 -0.9064
 6575SOL    HW326067   2.704   1.624   2.661 -1.6678  0.1994  1.3829
 6575SOL    MW426068   2.691   1.710   2.670 -0.2172  0.2346 -1.1636
 6576SOL     OW26069   4.192   1.197   3.352  0.5682 -0.5829  0.2716
 6576SOL    HW226070   4.217   1.277   3.306 -1.4474  0.0460  0.1779
 6576SOL    HW326071   4.196   1.129   3.285 -1.2838  0.1364 -0.6343
 6576SOL    MW426072   4.196   1.199   3.337 -0.9455  0.6520  0.0710
 6577SOL     OW26073   6.231   4.579   5.498 -0.1354  0.1619  0.3732
 6577SOL    HW226074   6.224   4.574   5.403  0.9838  0.0133  0.2805
 6577SOL    HW326075   6.152   4.535   5.531 -0.5122  0.1859 -0.4781
 6577SOL    MW426076   6.220   4.572   5.490 -0.6772 -0.2515 -0.3938
 6578SOL     OW26077   3.784   0.979   3.884 -0.3056  0.4721  0.4644
 6578SOL    HW226078   3.866   0.938   3.911 -0.1549  0.2077 -0.3509
 6578SOL    HW326079   3.799   1.073   3.894  0.7743  0.5511 -1.4141
 6578SOL    MW426080   3.797   0.986   3.889  0.3991  0.3936 -0.4016
 6579SOL     OW26081   5.140   0.642   3.625 -0.3206 -0.1852  0.5400
 6579SOL    HW226082   5.150   0.707   3.693 -1.1503  0.4201  0.0988
 6579SOL    HW326083   5.056   0.600   3.643 -1.9849  1.8950 -1.6298
 6579SOL    MW426084   5.130   0.645   3.636  0.1477  0.1986 -0.0726
 6580SOL     OW26085   0.727   0.017   3.064  0.3752 -0.6164  0.1659
 6580SOL    HW226086   0.632   0.011   3.054  0.4017 -1.4138  0.2936
 6580SOL    HW326087   0.746   0.110   3.058 -0.4714 -0.4045  0.5858
 6580SOL    MW426088   0.717   0.028   3.062 -0.0215  0.0485 -0.4083
 6581SOL     OW26089   4.264   6.323   2.389 -0.0484  0.4480  0.1295
 6581SOL    HW226090   4.270   6.307   2.295 -2.4956  1.1153 -0.2197
 6581SOL    HW326091   4.266   6.236   2.429  0.4398  0.1281 -0.5746
 6581SOL    MW426092   4.265   6.309   2.382  0.4092  0.0096 -0.0588
 6582SOL     OW26093   4.743   1.485   1.141 -0.9762  0.3592 -0.2508
 6582SOL    HW226094   4.784   1.555   1.091 -1.0527 -0.0457 -0.9021
 6582SOL    HW326095   4.786   1.487   1.226  1.2626 -0.7622 -1.2499
 6582SOL    MW426096   4.754   1.494   1.146 -0.3819  0.1077 -0.2301
 6583SOL     OW26097   2.571   5.028   3.676 -0.0884  0.2006 -0.6121
 6583SOL    HW226098   2.533   5.000   3.759  1.7030  0.8873  0.5039
 6583SOL    HW326099   2.497   5.063   3.626 -1.1023  0.3803  0.9574
 6583SOL    MW426100   2.556   5.029   3.680 -0.0130  0.3864 -0.4733
 6584SOL     OW26101   4.493   2.927   5.202 -0.0776  0.4478  0.2046
 6584SOL    HW226102   4.439   2.856   5.235  0.4033  0.1594  0.3865
 6584SOL    HW326103   4.528   2.894   5.119 -1.3416  1.1978 -0.6486
 6584SOL    MW426104   4.491   2.913   5.195 -0.0412 -0.1362 -0.1679
 6585SOL     OW26105   4.983   0.101   1.274  0.0980  0.4336 -0.7320
 6585SOL    HW226106   4.972   0.150   1.356 -1.0056 -0.5189 -0.2866
 6585SOL    HW326107   5.033   0.160   1.218 -0.8668  1.9260 -0.0870
 6585SOL    MW426108   4.988   0.115   1.278  0.1916 -0.0700  0.0254
 6586SOL     OW26109   5.320   5.535   2.700 -0.4489  0.4672 -0.1117
 6586SOL    HW226110   5.392   5.543   2.763 -1.9462  2.3475  1.5129
 6586SOL    HW326111   5.298   5.442   2.700  0.2596  0.2643  1.3804
 6586SOL    MW426112   5.327   5.524   2.709  0.3527  0.0167  0.5382
 6587SOL     OW26113   0.930   3.993   2.236  0.0440  0.1983  0.4200
 6587SOL    HW226114   1.001   3.951   2.187 -0.3108 -0.2238  0.2710
 6587SOL    HW326115   0.854   3.987   2.179 -0.5890 -1.0545  1.3621
 6587SOL    MW426116   0.929   3.987   2.222 -0.0125 -0.1589  0.4448
 6588SOL     OW26117   6.090   3.129   2.371  0.0434  0.4071  0.6862
 6588SOL    HW226118   6.178   3.100   2.349 -0.1605  0.0289  0.3474
 6588SOL    HW326119   6.074   3.203   2.311 -0.1512 -0.0134  0.2068
 6588SOL    MW426120   6.099   3.135   2.360  0.6213  0.0338  0.2303
 6589SOL     OW26121   4.771   2.232   0.615  0.1481 -0.5661 -0.4585
 6589SOL    HW226122   4.843   2.226   0.679  0.3091 -0.3058 -0.6145
 6589SOL    HW326123   4.730   2.146   0.618 -0.2977 -0.3370  0.5327
 6589SOL    MW426124   4.775   2.220   0.624  0.0134  0.5224  0.0061
 6590SOL     OW26125   2.876   0.566   0.868 -0.0025 -0.7864 -0.1472
 6590SOL    HW226126   2.875   0.531   0.956  1.3201  3.9832  2.1122
 6590SOL    HW326127   2.789   0.607   0.857  0.8158  1.1740  0.2675
 6590SOL    MW426128   2.864   0.567   0.878  0.2798 -0.4220  0.2453
 6591SOL     OW26129   4.083   4.504   5.473 -0.0412  0.0071  0.3980
 6591SOL    HW226130   4.004   4.486   5.422  0.0561 -0.6161  0.4598
 6591SOL    HW326131   4.073   4.595   5.502 -0.1838  0.3135 -0.5720
 6591SOL    MW426132   4.071   4.514   5.470  0.1811 -0.6386 -0.3723
 6592SOL     OW26133   0.910   0.840   5.836 -0.0606  0.1917  0.7307
 6592SOL    HW226134   0.843   0.902   5.864  1.0055  1.4477  0.6138
 6592SOL    HW326135   0.903   0.767   5.898 -0.6174  0.9288  1.5639
 6592SOL    MW426136   0.901   0.838   5.848 -0.4538  0.0925  0.0762
 6593SOL     OW26137   5.771   5.630   0.595 -0.0161  0.6082 -0.1555
 6593SOL    HW226138   5.807   5.657   0.679 -0.0152  1.3715 -0.3948
 6593SOL    HW326139   5.771   5.710   0.542 -0.1116  0.1562 -0.8457
 6593SOL    MW426140   5.776   5.644   0.599  0.5386 -0.3591 -0.7960
 6594SOL     OW26141   1.651   0.760   1.177 -0.3619  0.4384  0.6277
 6594SOL    HW226142   1.609   0.833   1.223 -0.5333  1.5804 -1.2270
 6594SOL    HW326143   1.677   0.797   1.093  1.6619 -1.0533  0.5353
 6594SOL    MW426144   1.649   0.774   1.172 -0.0547  0.1392 -0.5634
 6595SOL     OW26145   4.952   2.552   3.901 -0.0829  0.7237  0.4877
 6595SOL    HW226146   5.040   2.572   3.869 -0.3174 -0.7957 -1.2434
 6595SOL    HW326147   4.963   2.478   3.960 -0.4554 -1.8107 -2.3777
 6595SOL    MW426148   4.965   2.545   3.905  0.0205  0.3992 -0.0094
 6596SOL     OW26149   5.369   5.414   0.179 -0.3828 -0.5145  0.0789
 6596SOL    HW226150   5.300   5.471   0.212 -0.6938 -0.6672 -0.2959
 6596SOL    HW326151   5.395   5.360   0.254 -0.2960 -0.0921  0.3577
 6596SOL    MW426152   5.363   5.414   0.193 -0.1717  0.0694 -0.5030
 6597SOL     OW26153   3.298   4.346   4.525 -0.5022  0.4242  1.1445
 6597SOL    HW226154   3.332   4.374   4.440  0.8993 -0.0921  1.5077
 6597SOL    HW326155   3.284   4.252   4.515 -0.1611  0.3314  1.5351
 6597SOL    MW426156   3.301   4.338   4.512  1.1276  0.7227 -0.1264
 6598SOL     OW26157   1.027   3.031   0.720  0.2577  0.1406 -0.2182
 6598SOL    HW226158   0.954   2.973   0.743 -0.0168  0.4543 -0.2855
 6598SOL    HW326159   1.019   3.104   0.782 -1.4841  1.8319 -2.2787
 6598SOL    MW426160   1.016   3.033   0.731 -0.4073 -0.0262 -0.3025
 6599SOL     OW26161   5.907   0.591   4.364 -0.2657 -0.0083  0.2500
 6599SOL    HW226162   5.870   0.619   4.448 -1.4387 -3.1125  0.9075
 6599SOL    HW326163   5.930   0.672   4.320 -2.8279  1.9207  2.1337
 6599SOL    MW426164   5.905   0.605   4.369 -0.2192 -0.4892 -0.8099
 6600SOL     OW26165   4.499   1.874   2.253  0.0737  0.1132 -0.1056
 6600SOL    HW226166   4.564   1.941   2.233  1.0918 -0.9656 -0.5294
 6600SOL    HW326167   4.430   1.921   2.300  1.4335  1.1817  0.9120
 6600SOL    MW426168   4.498   1.889   2.257 -0.4197  0.3743  0.1741
 6601SOL     OW26169   0.466   1.393   1.503  0.1868 -0.8008 -0.0442
 6601SOL    HW226170   0.511   1.476   1.488 -1.2627  0.1033  0.4805
 6601SOL    HW326171   0.435   1.398   1.593 -0.6942 -1.5411 -0.2963
 6601SOL    MW426172   0.468   1.405   1.513  0.2543 -0.2011 -0.6111
 6602SOL     OW26173   5.922   0.409   2.085 -0.1096 -0.1853 -0.6314
 6602SOL    HW226174   5.843   0.463   2.092 -0.9008 -1.5307  2.0148
 6602SOL    HW326175   5.994   0.469   2.100 -0.7222  0.7460 -1.3112
 6602SOL    MW426176   5.921   0.424   2.088  0.0288  0.2049 -0.0770
 6603SOL     OW26177   4.149   5.059   2.318  0.2459  0.0175 -0.4308
 6603SOL    HW226178   4.238   5.027   2.330  1.0511  2.5529  1.1241
 6603SOL    HW326179   4.125   5.033   2.229  1.9881 -1.9116 -0.3822
 6603SOL    MW426180   4.158   5.052   2.308  0.0185 -0.0244  0.2663
 6604SOL     OW26181   2.564   3.174   0.933 -0.0219  0.1835  0.0161
 6604SOL    HW226182   2.536   3.238   0.998 -0.9857 -2.1145  2.0363
 6604SOL    HW326183   2.483   3.150   0.887  0.0353 -0.6685  0.3445
 6604SOL    MW426184   2.550   3.179   0.935 -0.6329 -0.5795 -0.0616
 6605SOL     OW26185   3.640   1.381   1.672  0.3074 -0.1921 -0.6209
 6605SOL    HW226186   3.556   1.395   1.716 -0.1150  0.0097 -1.4614
 6605SOL    HW326187   3.696   1.453   1.703  0.1262 -0.2360 -0.1807
 6605SOL    MW426188   3.636   1.393   1.682 -1.2357  0.1346  0.3128
 6606SOL     OW26189   1.724   1.488   1.858  0.1030  0.0810  0.2456
 6606SOL    HW226190   1.641   1.527   1.885  0.7719  0.1647  2.2845
 6606SOL    HW326191   1.791   1.549   1.889  0.9893 -0.6596 -0.1695
 6606SOL    MW426192   1.722   1.501   1.865 -0.7033 -0.1379 -0.8174
 6607SOL     OW26193   3.679   5.912   4.589  0.6277 -0.4289  0.6149
 6607SOL    HW226194   3.745   5.979   4.571 -0.0992 -0.4464 -2.7076
 6607SOL    HW326195   3.647   5.934   4.676  2.2477  1.9623  0.7193
 6607SOL    MW426196   3.684   5.924   4.598  0.4235  0.4381  0.1934
 6608SOL     OW26197   3.001   2.453   0.396 -0.3322  0.1989 -0.5645
 6608SOL    HW226198   3.060   2.503   0.339 -1.1860  0.2602 -1.4161
 6608SOL    HW326199   3.044   2.368   0.406  1.5564  1.2921  1.5775
 6608SOL    MW426200   3.015   2.448   0.390 -0.4341 -0.0376  0.0311
 6609SOL     OW26201   2.095   2.667   2.671  0.7969  0.3329  0.2014
 6609SOL    HW226202   2.120   2.654   2.763  2.8741  0.2120 -0.3272
 6609SOL    HW326203   2.095   2.579   2.634  1.4344  0.5067 -0.2319
 6609SOL    MW426204   2.099   2.653   2.678 -0.2687  0.0322  0.3831
 6610SOL     OW26205   2.740   4.065   6.316 -0.2658  0.6992  0.0461
 6610SOL    HW226206   2.699   4.149   6.296  1.6987  1.9714  1.1081
 6610SOL    HW326207   2.731   4.014   6.235 -4.9946  0.3055  0.5153
 6610SOL    MW426208   2.733   4.069   6.302  0.0441 -0.2754  0.0986
 6611SOL     OW26209   0.265   5.730   0.669 -0.4355  0.3230  0.1741
 6611SOL    HW226210   0.175   5.702   0.653  0.0021 -0.5576 -0.8672
 6611SOL    HW326211   0.267   5.821   0.639 -0.6608 -0.0658 -1.1074
 6611SOL    MW426212   0.254   5.738   0.663  0.4782  0.1467  0.1268
 6612SOL     OW26213   4.874   5.926   3.000 -0.5723 -0.1113 -0.0062
 6612SOL    HW226214   4.956   5.928   3.050 -0.3212  1.5859 -0.4297
 6612SOL    HW326215   4.821   5.995   3.039 -0.0621  1.8386 -2.5218
 6612SOL    MW426216   4.878   5.936   3.012  0.3422 -0.5069 -0.1636
 6613SOL     OW26217   5.019   1.300   4.086 -0.1669  0.1170 -0.3060
 6613SOL    HW226218   5.079   1.356   4.134  1.7482 -1.4877 -0.6816
 6613SOL    HW326219   5.060   1.213   4.088 -2.6899 -1.1803 -0.2415
 6613SOL    MW426220   5.032   1.296   4.092 -0.3012 -0.3241 -0.0665
 6614SOL     OW26221   0.148   3.956   3.798 -1.0973 -0.1638 -0.1418
 6614SOL    HW226222   0.207   3.887   3.827  0.2871  1.0590  0.0693
 6614SOL    HW326223   0.071   3.910   3.763  0.4308 -1.8519 -1.4618
 6614SOL    MW426224   0.145   3.941   3.797  0.0511 -0.2624 -0.0593
 6615SOL     OW26225   4.510   3.782   1.948  0.2484  0.3345  0.3782
 6615SOL    HW226226   4.427   3.783   1.900  0.4580  1.7386  0.0078
 6615SOL    HW326227   4.488   3.817   2.034 -0.0238 -1.6977  1.1895
 6615SOL    MW426228   4.496   3.787   1.953 -0.0767 -0.3155 -0.1348
 6616SOL     OW26229   4.223   0.726   2.805  0.0864 -0.0425 -0.1832
 6616SOL    HW226230   4.221   0.686   2.892 -0.9988 -1.1780 -0.7086
 6616SOL    HW326231   4.308   0.770   2.802  0.4461 -0.5702  1.1868
 6616SOL    MW426232   4.234   0.727   2.816 -0.3035 -0.0319 -0.5422
 6617SOL     OW26233   1.116   6.325   4.456  0.3927 -0.1247  0.3598
 6617SOL    HW226234   1.101   6.252   4.515 -1.4567 -0.0001  0.0945
 6617SOL    HW326235   1.120   6.402   4.513  0.6278 -0.2325  0.4889
 6617SOL    MW426236   1.115   6.326   4.472 -0.6229  0.0592 -0.6739
 6618SOL     OW26237   2.633   5.861   3.675 -0.2701 -0.1479 -0.0665
 6618SOL    HW226238   2.637   5.956   3.664  1.1457 -0.1957 -0.1846
 6618SOL    HW326239   2.625   5.849   3.770 -1.8229  0.0952 -0.1496
 6618SOL    MW426240   2.633   5.872   3.686  0.1199 -0.1865  0.0827
 6619SOL     OW26241   5.109   2.806   1.221 -0.3486 -0.2525 -0.3097
 6619SOL    HW226242   5.089   2.898   1.236  1.1194  0.0747 -0.2103
 6619SOL    HW326243   5.039   2.758   1.265 -1.3548  0.8043 -0.7097
 6619SOL    MW426244   5.097   2.811   1.228  0.0839  0.0649  0.0108
 6620SOL     OW26245   0.561   2.323   1.208 -0.2013  0.0533 -0.8009
 6620SOL    HW226246   0.480   2.372   1.218 -0.2299 -0.1266 -0.0423
 6620SOL    HW326247   0.546   2.243   1.258  0.0953 -0.4187 -1.4579
 6620SOL    MW426248   0.548   2.319   1.216  0.5103 -0.3491  0.1127
 6621SOL     OW26249   1.039   1.768   0.321 -0.1731  0.6392 -0.3190
 6621SOL    HW226250   1.102   1.800   0.386 -0.6861 -1.6656  1.4280
 6621SOL    HW326251   1.076   1.686   0.290 -0.9588  0.6803 -1.4020
 6621SOL    MW426252   1.052   1.762   0.326  0.0542 -0.5648  0.4726
 6622SOL     OW26253   4.576   1.192   3.849 -0.3658  0.1399 -0.2210
 6622SOL    HW226254   4.617   1.215   3.932 -0.0808  1.1550 -0.6348
 6622SOL    HW326255   4.482   1.204   3.865 -0.3234  0.1826  0.0017
 6622SOL    MW426256   4.569   1.196   3.862 -0.3844  0.7901 -0.1075
 6623SOL     OW26257   5.465   5.551   2.947  0.1130  0.0355  0.6860
 6623SOL    HW226258   5.522   5.593   3.011  1.0543  1.6408 -1.1079
 6623SOL    HW326259   5.386   5.529   2.996  1.1749  0.2839  2.5986
 6623SOL    MW426260   5.462   5.553   2.962  0.3084  0.5210 -0.4487
 6624SOL     OW26261   4.736   0.583   0.151  0.1438 -0.9576 -0.1647
 6624SOL    HW226262   4.706   0.493   0.165  0.2654 -0.8355  0.9324
 6624SOL    HW326263   4.750   0.618   0.239 -1.4157  0.6658 -0.5004
 6624SOL    MW426264   4.734   0.576   0.164 -0.1209 -0.5342  0.0818
 6625SOL     OW26265   2.556   1.897   5.697 -0.1387 -0.6370 -0.2810
 6625SOL    HW226266   2.574   1.852   5.615 -0.4588 -2.8996  0.8285
 6625SOL    HW326267   2.636   1.946   5.716 -0.1495  0.1255 -2.0139
 6625SOL    MW426268   2.569   1.898   5.689  0.8633 -0.4243  0.2370
 6626SOL     OW26269   2.418   2.653   5.705 -0.0209  0.4051 -0.2335
 6626SOL    HW226270   2.499   2.704   5.697  0.4536 -0.2563  0.3155
 6626SOL    HW326271   2.420   2.593   5.631  0.2331  0.0515  0.0599
 6626SOL    MW426272   2.429   2.652   5.694 -0.2921 -0.1437 -0.0080
 6627SOL     OW26273   2.446   1.049   6.241  0.1682  0.1549 -0.1651
 6627SOL    HW226274   2.498   1.111   6.190  0.2663  0.1251 -0.1020
 6627SOL    HW326275   2.509   0.984   6.272  0.2208  0.5393  0.5557
 6627SOL    MW426276   2.461   1.049   6.239  0.2473 -0.5231 -0.4265
 6628SOL     OW26277   2.324   0.511   5.851 -1.1376 -0.5327  0.5298
 6628SOL    HW226278   2.371   0.439   5.892  2.6034  1.6147  0.4842
 6628SOL    HW326279   2.265   0.543   5.920  1.0372 -0.3939  2.4664
 6628SOL    MW426280   2.323   0.506   5.866  0.1980  0.3036  0.3518
 6629SOL     OW26281   5.487   4.341   6.414 -0.2534 -0.1610 -0.1594
 6629SOL    HW226282   5.441   4.260   6.393 -0.5506  0.6660 -3.3656
 6629SOL    HW326283   5.575   4.329   6.377 -0.3444  0.9716 -0.7955
 6629SOL    MW426284   5.493   4.329   6.406  0.7695  0.1569 -0.1636
 6630SOL     OW26285   1.949   2.077   3.988 -0.0050  0.2717  0.1116
 6630SOL    HW226286   2.031   2.057   4.033 -1.0150 -1.7661  1.1819
 6630SOL    HW326287   1.895   1.999   4.000 -2.1089  1.5280 -0.5903
 6630SOL    MW426288   1.952   2.064   3.995  0.3906 -0.2601  0.4139
 6631SOL     OW26289   0.842   4.962   5.432 -0.0465 -0.1268 -0.6035
 6631SOL    HW226290   0.877   4.885   5.477  3.1452  0.5792 -1.5675
 6631SOL    HW326291   0.828   4.933   5.342 -2.9768 -0.5920 -0.0960
 6631SOL    MW426292   0.845   4.948   5.426  0.5633  0.7128  0.4796
 6632SOL     OW26293   4.601   2.832   2.084 -0.2630  0.4526  0.0140
 6632SOL    HW226294   4.623   2.743   2.055 -0.4818  0.6460 -0.7780
 6632SOL    HW326295   4.647   2.889   2.023 -2.3215  0.8633 -1.2525
 6632SOL    MW426296   4.610   2.827   2.072  0.2029 -0.0613  0.2835
 6633SOL     OW26297   3.373   3.989   3.511 -0.3546  0.0256 -0.5302
 6633SOL    HW226298   3.371   3.894   3.502  1.2520 -0.3289  1.9934
 6633SOL    HW326299   3.298   4.010   3.566  1.4500 -0.3469  2.2547
 6633SOL    MW426300   3.363   3.979   3.517  0.1632 -0.0727  0.3907
 6634SOL     OW26301   1.598   4.737   1.895 -1.1029 -0.1818  0.4740
 6634SOL    HW226302   1.677   4.782   1.864 -0.9792 -1.8430 -1.8570
 6634SOL    HW326303   1.614   4.645   1.878 -2.7511 -0.7943  1.8944
 6634SOL    MW426304   1.611   4.731   1.889  0.2092  0.7174  0.1481
 6635SOL     OW26305   5.069   4.147   0.131 -0.1974 -0.5067  0.1243
 6635SOL    HW226306   5.091   4.077   0.193  0.9660  0.3957  0.7788
 6635SOL    HW326307   5.023   4.103   0.060 -0.6508 -1.7326  1.1342
 6635SOL    MW426308   5.066   4.132   0.130  0.2331  0.0832  0.5158
 6636SOL     OW26309   5.446   1.860   3.476  0.7450 -0.3850 -0.5540
 6636SOL    HW226310   5.383   1.932   3.467  1.5509  0.7317  1.7569
 6636SOL    HW326311   5.392   1.781   3.471 -0.9183  0.5283  1.2761
 6636SOL    MW426312   5.430   1.859   3.474 -0.3314 -0.0387 -0.0428
 6637SOL     OW26313   3.206   3.654   2.009  0.4851  0.4366  0.3777
 6637SOL    HW226314   3.296   3.676   1.985  0.4964 -0.0629 -0.0485
 6637SOL    HW326315   3.215   3.606   2.091  0.6215  0.1885  0.2161
 6637SOL    MW426316   3.219   3.651   2.017 -0.4022  0.4412 -0.1532
 6638SOL     OW26317   0.355   6.278   2.461 -0.4859 -0.0358  0.0507
 6638SOL    HW226318   0.328   6.317   2.544 -1.1924  0.3768 -0.3638
 6638SOL    HW326319   0.288   6.212   2.442 -0.7859  0.4457 -0.5961
 6638SOL    MW426320   0.342   6.274   2.469  0.1917 -0.4578  0.8494
 6639SOL     OW26321   0.256   5.713   4.650 -0.3042  0.1710  0.2740
 6639SOL    HW226322   0.339   5.673   4.676 -0.5689 -1.4475 -1.1408
 6639SOL    HW326323   0.281   5.795   4.608  0.4154  0.6377  1.5724
 6639SOL    MW426324   0.271   5.718   4.648  0.0237 -0.3349  0.2379
 6640SOL     OW26325   0.831   2.164   5.291  0.0488  0.5108  0.3862
 6640SOL    HW226326   0.905   2.130   5.340  0.3347 -2.1896 -1.6966
 6640SOL    HW326327   0.869   2.203   5.213 -0.6140  1.5860  0.5720
 6640SOL    MW426328   0.846   2.165   5.287 -0.1421  0.1745 -0.6375
 6641SOL     OW26329   2.300   2.184   1.028  0.2918  0.2012 -0.0986
 6641SOL    HW226330   2.296   2.218   0.938  2.3042  0.0889 -0.2680
 6641SOL    HW326331   2.262   2.253   1.081  1.1720  1.2620 -0.8100
 6641SOL    MW426332   2.294   2.197   1.023 -0.1934 -0.0464 -0.3326
 6642SOL     OW26333   4.706   4.305   2.391 -0.1435  0.0114 -0.1376
 6642SOL    HW226334   4.622   4.260   2.405 -0.1378  0.0046 -0.1244
 6642SOL    HW326335   4.685   4.398   2.404 -0.7170  0.3091 -2.6416
 6642SOL    MW426336   4.692   4.312   2.395  0.2374 -0.4279  0.4998
 6643SOL     OW26337   0.066   3.587   4.481 -0.4684  0.3690  0.0942
 6643SOL    HW226338   0.071   3.492   4.486 -1.5625  0.3046  0.0691
 6643SOL    HW326339   0.146   3.612   4.435 -0.3055 -0.5555 -0.1545
 6643SOL    MW426340   0.077   3.578   4.476 -0.2424 -0.1468 -0.4871
 6644SOL     OW26341   4.384   4.495   0.223  0.3390  0.2874 -0.2623
 6644SOL    HW226342   4.347   4.462   0.141 -0.0668  1.5535 -0.6107
 6644SOL    HW326343   4.478   4.481   0.214  0.1611 -1.0888 -0.2315
 6644SOL    MW426344   4.392   4.489   0.211  0.3015  0.3321 -0.6036
 6645SOL     OW26345   3.879   1.255   0.277 -0.2286 -0.2951 -0.0172
 6645SOL    HW226346   3.783   1.256   0.269 -0.3174  1.0355  0.8065
 6645SOL    HW326347   3.902   1.347   0.287  0.9981 -0.7148  1.2798
 6645SOL    MW426348   3.869   1.267   0.277 -0.6114 -0.1218  0.0039
 6646SOL     OW26349   3.722   0.453   1.243  0.5235  0.3235  0.3706
 6646SOL    HW226350   3.776   0.524   1.208  0.6767  0.5046  0.9579
 6646SOL    HW326351   3.779   0.377   1.243 -0.2349 -0.3384 -2.1705
 6646SOL    MW426352   3.737   0.452   1.238 -0.0392  0.0384 -0.4735
 6647SOL     OW26353   4.362   5.530   5.470  0.1923  0.1035  0.2461
 6647SOL    HW226354   4.330   5.587   5.540  1.4105  0.1053  0.8203
 6647SOL    HW326355   4.325   5.444   5.491 -0.9856  0.4858 -0.1768
 6647SOL    MW426356   4.353   5.526   5.482  0.4625  0.1894 -0.3445
 6648SOL     OW26357   0.216   1.641   1.500 -0.5066 -0.1679  0.2375
 6648SOL    HW226358   0.210   1.561   1.447  0.5786  0.0749 -0.2578
 6648SOL    HW326359   0.126   1.675   1.500 -0.5828 -0.3043 -1.2363
 6648SOL    MW426360   0.203   1.635   1.493 -1.0352  0.3563  0.0632
 6649SOL     OW26361   1.648   4.588   2.848  0.0941 -0.3743 -0.0970
 6649SOL    HW226362   1.685   4.501   2.836 -3.2237 -1.8902 -0.4470
 6649SOL    HW326363   1.624   4.592   2.941  0.1445  0.1304 -0.1021
 6649SOL    MW426364   1.649   4.577   2.859  0.5065 -0.3042  0.7300
 6650SOL     OW26365   2.651   5.408   1.027 -0.8631  0.4923 -0.1465
 6650SOL    HW226366   2.729   5.403   1.082 -0.5521  0.0979 -0.6200
 6650SOL    HW326367   2.680   5.382   0.940 -1.6989 -0.5509 -0.1458
 6650SOL    MW426368   2.665   5.404   1.023  0.5320 -0.3633  0.6553
 6651SOL     OW26369   6.269   0.584   4.922  0.3747  0.0844 -0.1787
 6651SOL    HW226370   6.188   0.535   4.907 -0.0955  0.2396  1.6875
 6651SOL    HW326371   6.310   0.589   4.835 -1.5495 -0.0782 -1.1371
 6651SOL    MW426372   6.264   0.578   4.908 -0.2282 -0.0671  0.1675
 6652SOL     OW26373   3.458   1.679   2.641  0.3681 -0.0798 -0.2417
 6652SOL    HW226374   3.495   1.691   2.728  3.8583 -1.6338 -1.3494
 6652SOL    HW326375   3.445   1.584   2.633 -1.6864  0.1864 -0.8369
 6652SOL    MW426376   3.461   1.668   2.651  0.5136 -0.1086  0.6092
 6653SOL     OW26377   2.456   5.798   2.509  0.1195 -0.0042  0.3306
 6653SOL    HW226378   2.465   5.724   2.569  0.3609 -1.6619 -1.6457
 6653SOL    HW326379   2.373   5.783   2.464 -0.7541  1.9689  1.1570
 6653SOL    MW426380   2.447   5.786   2.511 -0.1869 -0.3005 -0.1710
 6654SOL     OW26381   3.780   2.756   2.368  0.2171  0.0303  0.3647
 6654SOL    HW226382   3.730   2.806   2.303  0.7597  0.3190  0.1555
 6654SOL    HW326383   3.729   2.677   2.383 -0.3031  0.3226  0.1652
 6654SOL    MW426384   3.767   2.752   2.361 -0.4625  0.4868 -0.0876
 6655SOL     OW26385   6.418   0.333   2.677 -0.1712 -0.2272 -0.3931
 6655SOL    HW226386   6.408   0.300   2.766 -1.7438 -0.0342 -0.4702
 6655SOL    HW326387   6.501   0.295   2.646 -0.1924 -1.2387  0.7263
 6655SOL    MW426388   6.428   0.324   2.685  0.4343 -0.1276 -0.2775
 6656SOL     OW26389   2.345   1.589   1.194  0.0814 -0.3425 -0.5050
 6656SOL    HW226390   2.331   1.614   1.285  2.5722 -0.5706 -0.0004
 6656SOL    HW326391   2.292   1.652   1.144 -0.6586  0.3149  1.0361
 6656SOL    MW426392   2.336   1.601   1.199  0.2485  0.3744 -0.2786
 6657SOL     OW26393   0.621   1.612   1.402  0.5976 -0.1314 -0.5241
 6657SOL    HW226394   0.715   1.598   1.411  0.8907  1.3056 -1.0209
 6657SOL    HW326395   0.599   1.577   1.316  0.8293  0.2183 -0.7269
 6657SOL    MW426396   0.630   1.606   1.392  0.4399  0.4527 -0.3026
 6658SOL     OW26397   6.003   5.776   1.502  0.9433 -0.1257  0.7292
 6658SOL    HW226398   5.942   5.843   1.534 -0.5354 -1.7128  1.3366
 6658SOL    HW326399   6.085   5.796   1.548  0.3016  0.7809  1.5399
 6658SOL    MW426400   6.006   5.788   1.513  0.0421 -0.0036  0.1481
 6659SOL     OW26401   5.773   1.727   5.139 -0.3139 -0.0929  0.0944
 6659SOL    HW226402   5.770   1.818   5.110 -0.5708  0.2903  1.2592
 6659SOL    HW326403   5.727   1.727   5.223 -0.6783 -1.3790 -0.0771
 6659SOL    MW426404   5.766   1.739   5.146 -0.5748  0.7372 -0.3778
 6660SOL     OW26405   1.306   6.283   0.846  0.3219  0.0173  0.4630
 6660SOL    HW226406   1.307   6.304   0.939 -0.1663 -0.9819  0.7085
 6660SOL    HW326407   1.327   6.365   0.802 -0.8981  0.8577  1.3933
 6660SOL    MW426408   1.309   6.296   0.852  0.3442  0.1167 -0.2906
 6661SOL     OW26409   0.474   1.922   0.377  0.1289  0.2403  0.7870
 6661SOL    HW226410   0.544   1.911   0.314 -0.4777  0.2326  0.1014
 6661SOL    HW326411   0.519   1.935   0.461  0.9475  0.5609  0.3134
 6661SOL    MW426412   0.489   1.923   0.380 -0.2115  0.2091 -0.2900
 6662SOL     OW26413   0.047   3.967   2.887 -0.3139 -0.2899 -1.0387
 6662SOL    HW226414   0.135   3.994   2.911  0.0226 -1.4669 -0.8633
 6662SOL    HW326415   0.009   4.043   2.842 -0.2138  1.2211  1.2888
 6662SOL    MW426416   0.053   3.980   2.884 -0.3855 -0.3132  0.2218
 6663SOL     OW26417   2.906   6.430   1.207  0.3746 -0.2714  0.5949
 6663SOL    HW226418   2.830   6.478   1.175  1.0355  0.6081  0.3051
 6663SOL    HW326419   2.980   6.488   1.189  1.2353 -1.5327 -0.0794
 6663SOL    MW426420   2.906   6.444   1.200  0.7542  0.0943 -0.2145
 6664SOL     OW26421   2.667   3.887   2.941  0.3711 -0.2231 -0.3652
 6664SOL    HW226422   2.603   3.843   2.885  1.5690 -0.9940 -1.1932
 6664SOL    HW326423   2.641   3.865   3.030  0.2617 -1.6899 -0.7270
 6664SOL    MW426424   2.655   3.878   2.945 -0.0906  0.6071  0.0216
 6665SOL     OW26425   1.704   0.160   3.855  0.0779 -0.4408  0.8139
 6665SOL    HW226426   1.651   0.179   3.932 -0.7741  0.6670 -0.0175
 6665SOL    HW326427   1.675   0.074   3.825  1.3994 -1.5317  2.5082
 6665SOL    MW426428   1.693   0.151   3.861 -0.3493  0.2190  0.2280
 6666SOL     OW26429   5.082   5.109   1.657 -0.0193 -0.0904  0.4070
 6666SOL    HW226430   5.020   5.180   1.673  1.5639  1.8602 -1.5786
 6666SOL    HW326431   5.166   5.144   1.685  1.0541 -0.5095 -2.0241
 6666SOL    MW426432   5.085   5.123   1.663  0.3008  0.2621 -0.1502
 6667SOL     OW26433   4.479   2.308   3.623 -0.4157 -0.2996 -1.0310
 6667SOL    HW226434   4.463   2.366   3.698  1.0927 -1.4746  0.2620
 6667SOL    HW326435   4.407   2.245   3.626 -0.8271  0.1540 -1.1047
 6667SOL    MW426436   4.467   2.307   3.633  0.3190 -0.0421 -0.7111
 6668SOL     OW26437   1.355   1.898   0.992  0.1498  0.2635  0.3099
 6668SOL    HW226438   1.327   1.987   0.968 -0.6906 -0.4646 -1.6551
 6668SOL    HW326439   1.277   1.857   1.028  0.3390  0.0931  0.5291
 6668SOL    MW426440   1.341   1.904   0.993 -0.2928  0.3299 -0.4587
 6669SOL     OW26441   3.982   5.164   1.590  0.8081 -0.3329  0.2777
 6669SOL    HW226442   3.911   5.203   1.538  2.2328  0.5784 -1.1100
 6669SOL    HW326443   4.030   5.240   1.625  0.3464 -0.9404  2.3207
 6669SOL    MW426444   3.979   5.179   1.587 -0.1271  0.4303  0.1919
 6670SOL     OW26445   6.077   4.818   1.868  0.3808 -0.4882 -0.0155
 6670SOL    HW226446   6.148   4.753   1.877  1.0995  0.1242 -1.0509
 6670SOL    HW326447   6.001   4.766   1.842  0.5617 -1.1035  0.6434
 6670SOL    MW426448   6.077   4.803   1.866 -1.0732 -0.3201 -0.6379
 6671SOL     OW26449   0.367   1.979   5.793  0.2746  0.1619  0.4131
 6671SOL    HW226450   0.355   2.067   5.756  0.6004  0.0890  0.1261
 6671SOL    HW326451   0.452   1.983   5.836 -0.0481  0.2059  1.0489
 6671SOL    MW426452   0.377   1.991   5.794 -0.3119 -0.1292  0.0826
 6672SOL     OW26453   5.077   3.541   3.569  0.6359 -0.4374 -0.3423
 6672SOL    HW226454   5.138   3.534   3.642 -0.3734 -1.1203  0.4495
 6672SOL    HW326455   5.124   3.595   3.504  2.1911 -1.1976  0.1063
 6672SOL    MW426456   5.091   3.547   3.570  0.1945 -0.6609 -0.1459
 6673SOL     OW26457   2.701   5.194   1.376 -0.3082  0.1577 -0.1546
 6673SOL    HW226458   2.655   5.172   1.295  0.0442  0.2524 -0.3812
 6673SOL    HW326459   2.759   5.120   1.393  0.8952  0.8907 -0.9320
 6673SOL    MW426460   2.702   5.182   1.368  0.2846  0.3396  0.8627
 6674SOL     OW26461   2.007   3.470   3.547  0.1684 -0.2777  0.8083
 6674SOL    HW226462   1.931   3.527   3.537  1.1059  0.9778  0.4993
 6674SOL    HW326463   1.977   3.399   3.603 -0.9398  0.7473  1.5652
 6674SOL    MW426464   1.993   3.468   3.553 -0.2227 -0.6408 -0.0376
 6675SOL     OW26465   3.588   2.668   0.215 -0.1696 -0.5364 -0.1010
 6675SOL    HW226466   3.626   2.699   0.298  0.4048  1.6937 -1.1093
 6675SOL    HW326467   3.650   2.697   0.148 -2.1942  0.7178 -1.5798
 6675SOL    MW426468   3.601   2.676   0.217  0.0671  0.4197  0.0779
 6676SOL     OW26469   4.505   5.499   2.425  0.4053 -0.1584 -0.1433
 6676SOL    HW226470   4.592   5.536   2.410  0.3466  0.0593  0.0394
 6676SOL    HW326471   4.478   5.537   2.509 -0.1554  0.3122 -0.5378
 6676SOL    MW426472   4.513   5.509   2.434  0.2226 -0.0535 -0.2457
 6677SOL     OW26473   6.194   4.345   4.250  0.0438 -0.1856  0.5504
 6677SOL    HW226474   6.160   4.257   4.265 -0.1743 -0.1388  0.3437
 6677SOL    HW326475   6.278   4.333   4.208 -0.6550 -0.2817 -0.8713
 6677SOL    MW426476   6.200   4.332   4.246 -0.4214 -0.2924  0.3274
 6678SOL     OW26477   3.081   4.841   6.061 -0.1449  0.2120 -0.3747
 6678SOL    HW226478   3.071   4.797   5.976 -0.9954 -1.7980  0.6896
 6678SOL    HW326479   3.175   4.844   6.075 -0.0498 -1.1372 -0.5918
 6678SOL    MW426480   3.092   4.835   6.052 -0.5357  0.6941  1.2286
 6679SOL     OW26481   3.523   3.543   4.061  0.0363 -0.5850 -0.4119
 6679SOL    HW226482   3.510   3.467   4.004 -0.0271 -0.3450 -0.7206
 6679SOL    HW326483   3.498   3.618   4.006  1.5614 -0.2094 -0.6199
 6679SOL    MW426484   3.518   3.543   4.046 -0.5741  0.3365  0.2375
 6680SOL     OW26485   2.284   0.931   1.389  0.2431 -0.5556 -0.0121
 6680SOL    HW226486   2.341   0.909   1.315 -0.4245 -0.1272 -0.6742
 6680SOL    HW326487   2.196   0.908   1.358 -0.1778  0.6877  0.2047
 6680SOL    MW426488   2.280   0.925   1.375  0.4557 -0.3319 -0.0107
 6681SOL     OW26489   0.724   3.523   4.187 -0.1955 -0.0311  0.1162
 6681SOL    HW226490   0.631   3.505   4.175 -0.1341  0.4322 -1.2813
 6681SOL    HW326491   0.732   3.618   4.179  0.4214 -0.0797  0.0627
 6681SOL    MW426492   0.713   3.534   4.184 -0.7522 -0.7083 -0.0210
 6682SOL     OW26493   4.390   3.035   4.015 -0.2632  0.0651  0.8581
 6682SOL    HW226494   4.486   3.041   4.012 -0.1395 -1.4889  0.6691
 6682SOL    HW326495   4.360   3.122   3.990  1.0991  0.7594  1.5018
 6682SOL    MW426496   4.399   3.047   4.011  0.0421  0.1294 -0.1714
 6683SOL     OW26497   5.646   3.804   2.480  0.2893 -0.2843  0.4878
 6683SOL    HW226498   5.653   3.855   2.400  0.4114  0.3814  0.9180
 6683SOL    HW326499   5.626   3.868   2.549  0.0131 -0.8647  0.9632
 6683SOL    MW426500   5.644   3.819   2.479 -0.0220  1.1019 -0.3494
 6684SOL     OW26501   2.972   1.235   4.468  0.3706 -0.2123 -0.3424
 6684SOL    HW226502   2.989   1.143   4.447  1.9763  0.2690 -1.3434
 6684SOL    HW326503   2.878   1.245   4.457  0.2977 -1.5175 -1.1598
 6684SOL    MW426504   2.962   1.224   4.464 -0.4282  0.5729  0.2007
 6685SOL     OW26505   2.447   4.389   5.431 -0.5960  0.5576  0.0976
 6685SOL    HW226506   2.372   4.449   5.432  0.4969  2.0404 -1.4290
 6685SOL    HW326507   2.512   4.432   5.488 -0.6216 -0.3722  0.8561
 6685SOL    MW426508   2.445   4.403   5.439  0.0153 -0.0880 -0.6244
 6686SOL     OW26509   4.314   3.410   4.575  0.1038  0.2054 -0.8367
 6686SOL    HW226510   4.338   3.495   4.611 -0.5472 -0.0562  0.2402
 6686SOL    HW326511   4.392   3.356   4.585  0.1094  0.3051 -0.3224
 6686SOL    MW426512   4.327   3.414   4.581  0.2490  0.3974 -0.0224
 6687SOL     OW26513   1.192   4.341   0.158 -0.1593  0.0115 -0.0165
 6687SOL    HW226514   1.277   4.384   0.165  0.9752 -2.1472  0.5302
 6687SOL    HW326515   1.178   4.301   0.244 -0.0588 -2.5060 -1.0923
 6687SOL    MW426516   1.201   4.341   0.170  0.1049  0.6371 -0.0716
 6688SOL     OW26517   4.308   0.154   2.083  0.3989  0.4564  0.4400
 6688SOL    HW226518   4.325   0.072   2.036  0.0016  0.1893  0.7572
 6688SOL    HW326519   4.273   0.213   2.017  0.8549  0.4294  0.1703
 6688SOL    MW426520   4.306   0.151   2.068 -0.6971 -0.2280  0.4946
 6689SOL     OW26521   0.104   0.804   5.169  0.6486  0.4133  0.0186
 6689SOL    HW226522   0.099   0.889   5.212 -1.0497  0.6707 -0.6192
 6689SOL    HW326523   0.058   0.816   5.086 -0.5246 -1.3808  0.3493
 6689SOL    MW426524   0.097   0.817   5.164 -0.2300 -1.2994 -0.4539
 6690SOL     OW26525   3.246   4.521   3.816 -0.0723  0.1626 -0.1451
 6690SOL    HW226526   3.316   4.518   3.881  0.5366  0.9281 -0.7499
 6690SOL    HW326527   3.246   4.611   3.784  1.1283 -0.6577 -2.7740
 6690SOL    MW426528   3.255   4.532   3.820  0.1496  0.3333 -0.2317
 6691SOL     OW26529   2.229   3.546   3.127 -0.3022 -0.1098  0.1110
 6691SOL    HW226530   2.176   3.499   3.062 -0.0052 -1.9037  1.0762
 6691SOL    HW326531   2.164   3.586   3.185 -0.6161 -0.8821  0.3135
 6691SOL    MW426532   2.213   3.545   3.126 -0.5740  0.3722  0.3367
 6692SOL     OW26533   2.590   1.203   1.103 -0.1163 -0.4856 -0.8008
 6692SOL    HW226534   2.555   1.240   1.183 -0.5865  0.1310 -1.2835
 6692SOL    HW326535   2.531   1.234   1.034 -0.7571 -2.4136 -1.1960
 6692SOL    MW426536   2.578   1.212   1.104 -0.4349  0.1383 -0.3163
 6693SOL     OW26537   3.609   3.757   2.534 -0.7020  0.4901  0.1923
 6693SOL    HW226538   3.636   3.811   2.460 -0.1981 -0.9447 -0.6914
 6693SOL    HW326539   3.690   3.735   2.579 -0.9979  1.3155  1.1883
 6693SOL    MW426540   3.623   3.762   2.530 -0.6090 -0.5301  0.7763
 6694SOL     OW26541   6.424   0.191   0.851 -0.1395 -0.1039  0.0748
 6694SOL    HW226542   6.425   0.279   0.814 -0.0485 -0.5838 -1.1168
 6694SOL    HW326543   6.415   0.133   0.775  2.0215 -1.2314  0.5931
 6694SOL    MW426544   6.423   0.195   0.836 -0.8882  0.0022  0.7053
 6695SOL     OW26545   5.848   0.350   2.547 -0.1136  0.1220  0.5233
 6695SOL    HW226546   5.869   0.442   2.531 -1.6757  0.3890 -0.1897
 6695SOL    HW326547   5.875   0.305   2.468 -1.4905  0.3670 -0.1239
 6695SOL    MW426548   5.854   0.356   2.535  0.0420 -0.1986 -0.3145
 6696SOL     OW26549   5.524   0.700   1.900  0.6657 -0.8814  0.0332
 6696SOL    HW226550   5.442   0.695   1.949 -0.4879  0.0899 -1.6759
 6696SOL    HW326551   5.551   0.609   1.890 -2.5891 -1.7847 -3.0125
 6696SOL    MW426552   5.517   0.687   1.905 -0.4900 -0.2187 -0.1459
 6697SOL     OW26553   4.598   2.288   4.665 -0.2133  0.4121 -0.7709
 6697SOL    HW226554   4.594   2.231   4.741  1.2015 -0.4055 -1.2851
 6697SOL    HW326555   4.649   2.364   4.694  1.2811 -0.3985 -1.1749
 6697SOL    MW426556   4.604   2.291   4.679 -0.2303  0.1229  0.4035
 6698SOL     OW26557   3.966   5.018   4.012  0.2934  0.8486  0.2582
 6698SOL    HW226558   4.002   5.008   3.924  0.0991 -0.6976  0.3289
 6698SOL    HW326559   4.030   5.073   4.057 -0.2803  2.8520 -1.1973
 6698SOL    MW426560   3.979   5.024   4.006  0.3292 -0.3743  0.0873
 6699SOL     OW26561   5.663   4.457   6.067 -0.0427  0.0861  0.2512
 6699SOL    HW226562   5.591   4.517   6.087  0.5494  0.5437  1.0709
 6699SOL    HW326563   5.620   4.372   6.051 -0.6874  0.0126  2.1398
 6699SOL    MW426564   5.648   4.453   6.068  0.0326 -0.0497 -0.5995
 6700SOL     OW26565   2.184   1.177   0.678  0.2098  0.0704 -0.0123
 6700SOL    HW226566   2.166   1.147   0.589  0.0276 -0.6524  0.2659
 6700SOL    HW326567   2.128   1.123   0.734  0.1074  0.7120  0.5230
 6700SOL    MW426568   2.174   1.166   0.674 -0.3875 -0.1874  0.8809
 6701SOL     OW26569   3.075   3.281   1.854  1.2437  0.2413 -0.1587
 6701SOL    HW226570   3.031   3.316   1.931  1.4850 -2.6676  1.4286
 6701SOL    HW326571   3.168   3.284   1.877  1.5844  1.7798 -1.4979
 6701SOL    MW426572   3.082   3.286   1.867 -0.3930  0.5625 -0.7741
 6702SOL     OW26573   1.106   2.775   1.754 -0.3782  0.1388 -0.1056
 6702SOL    HW226574   1.173   2.750   1.818  0.1552  0.2321 -0.6265
 6702SOL    HW326575   1.028   2.727   1.783  0.0830 -0.5068  0.1133
 6702SOL    MW426576   1.104   2.765   1.766  0.0755 -0.4353  0.1137
 6703SOL     OW26577   4.916   3.756   1.224  0.0450 -0.2470  0.1952
 6703SOL    HW226578   4.967   3.785   1.148  1.3761  0.2593  1.2351
 6703SOL    HW326579   4.850   3.824   1.235  1.3739  1.0105  0.9019
 6703SOL    MW426580   4.914   3.769   1.215  0.1800  0.6487 -0.7189
 6704SOL     OW26581   0.047   3.262   0.585  0.7147 -0.3011  1.0832
 6704SOL    HW226582  -0.030   3.317   0.597  0.4829 -0.8517  2.3052
 6704SOL    HW326583   0.013   3.172   0.586  0.9724 -0.5163 -1.7127
 6704SOL    MW426584   0.033   3.257   0.587  0.3644  0.2242  0.3847
 6705SOL     OW26585   2.834   4.256   5.085  0.3059  0.4673 -0.5057
 6705SOL    HW226586   2.914   4.308   5.077 -0.3835  1.4987 -0.8035
 6705SOL    HW326587   2.804   4.273   5.174  0.2960  0.2518 -0.4678
 6705SOL    MW426588   2.841   4.265   5.096 -0.7108 -0.3002  0.3632
 6706SOL     OW26589   1.946   2.114   6.385  0.5813  0.0268  0.0137
 6706SOL    HW226590   1.972   2.082   6.298  0.2503  1.6209 -0.7121
 6706SOL    HW326591   2.029   2.128   6.431  0.7539 -3.5616  1.0973
 6706SOL    MW426592   1.960   2.112   6.379  0.0532  0.0674 -0.4653
 6707SOL     OW26593   5.148   6.333   1.392 -0.4766 -0.3878  0.0332
 6707SOL    HW226594   5.111   6.413   1.356 -0.4390 -0.4211 -0.0787
 6707SOL    HW326595   5.185   6.287   1.317  1.0084  0.2763  0.3377
 6707SOL    MW426596   5.148   6.337   1.378 -0.8712  0.2865  0.1977
 6708SOL     OW26597   4.455   3.353   2.631  0.0240 -0.5136  0.3385
 6708SOL    HW226598   4.416   3.276   2.589 -0.6699 -0.9535  1.7214
 6708SOL    HW326599   4.381   3.406   2.657  0.4155 -0.3522  1.1653
 6708SOL    MW426600   4.440   3.350   2.629 -0.4418  0.9104 -0.0276
 6709SOL     OW26601   0.303   2.121   1.063 -0.2340 -0.3825 -0.0414
 6709SOL    HW226602   0.272   2.172   1.137  0.7355 -0.1865  0.2499
 6709SOL    HW326603   0.292   2.030   1.090  2.3601 -0.3713  1.4107
 6709SOL    MW426604   0.298   2.116   1.076  0.1309 -0.6160  0.1554
 6710SOL     OW26605   2.925   3.012   1.119  0.1695 -0.4631  0.4252
 6710SOL    HW226606   2.916   3.016   1.024  0.9587  0.8419  0.3764
 6710SOL    HW326607   3.014   3.044   1.135  0.2673 -1.2766  1.5614
 6710SOL    MW426608   2.936   3.017   1.108  0.3043 -0.0975  0.2239
 6711SOL     OW26609   5.693   1.193   3.364  0.2414 -0.1754 -0.4102
 6711SOL    HW226610   5.707   1.101   3.341  0.3421 -0.2502 -0.0611
 6711SOL    HW326611   5.727   1.242   3.290  2.6842 -0.3316  0.5261
 6711SOL    MW426612   5.699   1.187   3.351  0.3565 -0.1488 -0.2537
 6712SOL     OW26613   1.999   3.649   4.925  0.8272  0.1465 -0.3742
 6712SOL    HW226614   2.056   3.654   4.849  1.8270  1.2910  0.3989
 6712SOL    HW326615   1.982   3.740   4.949  0.8269 -0.1713  0.9697
 6712SOL    MW426616   2.004   3.662   4.918 -0.1105  0.1382 -0.4882
 6713SOL     OW26617   1.438   5.254   4.688 -0.2584  0.6875 -0.3350
 6713SOL    HW226618   1.501   5.280   4.756  1.0161 -0.9420 -0.8234
 6713SOL    HW326619   1.375   5.199   4.733 -0.4396  1.0509 -0.1423
 6713SOL    MW426620   1.438   5.251   4.703 -0.0179 -0.3600 -0.2078
 6714SOL     OW26621   3.727   2.651   4.588 -0.2642 -0.4538 -0.1539
 6714SOL    HW226622   3.692   2.566   4.613 -1.6104 -0.7916 -2.8099
 6714SOL    HW326623   3.670   2.715   4.631 -2.1913 -0.9958 -1.7656
 6714SOL    MW426624   3.715   2.648   4.597  0.2475 -0.1746 -0.0267
 6715SOL     OW26625   3.135   6.026   5.685  0.2509 -0.0799  0.1435
 6715SOL    HW226626   3.055   6.019   5.737 -0.1567  2.6382  0.0051
 6715SOL    HW326627   3.192   6.085   5.736  1.8674 -1.2950 -0.1644
 6715SOL    MW426628   3.132   6.033   5.699 -0.0831  0.1397  0.0105
 6716SOL     OW26629   4.477   1.813   1.190  0.1974 -0.7384  0.3411
 6716SOL    HW226630   4.567   1.844   1.204  0.2633 -0.1211 -1.2321
 6716SOL    HW326631   4.487   1.733   1.139 -0.1388 -0.3801 -0.3036
 6716SOL    MW426632   4.490   1.807   1.185  0.0546  0.6367  0.6074
 6717SOL     OW26633   0.958   4.539   2.232  0.4424 -0.0317  0.1294
 6717SOL    HW226634   1.030   4.602   2.245  1.6346 -1.4513  0.7561
 6717SOL    HW326635   0.912   4.539   2.316  0.6761 -0.2522  0.2613
 6717SOL    MW426636   0.962   4.548   2.245  0.0145  0.0794  0.1975
 6718SOL     OW26637   3.307   4.805   1.507 -0.3755  0.1874 -0.0686
 6718SOL    HW226638   3.298   4.822   1.601  0.6163 -1.5354  0.3867
 6718SOL    HW326639   3.226   4.838   1.469 -0.3872  1.7924  1.2537
 6718SOL    MW426640   3.295   4.811   1.514  0.3006  0.5507  0.0322
 6719SOL     OW26641   0.351   1.192   1.743  0.0209 -0.1392  0.2831
 6719SOL    HW226642   0.328   1.176   1.651 -3.3261 -1.1287  1.1448
 6719SOL    HW326643   0.314   1.278   1.762 -0.1523 -0.3517  0.9238
 6719SOL    MW426644   0.343   1.201   1.733  0.4295 -0.1609 -0.0225
 6720SOL     OW26645   1.032   6.293   0.569  0.4108  0.1486  0.1372
 6720SOL    HW226646   1.106   6.235   0.580  0.2228 -0.0140  0.5492
 6720SOL    HW326647   1.067   6.369   0.523  0.9710  0.3617  0.9018
 6720SOL    MW426648   1.046   6.295   0.564 -0.1197 -0.9064  0.2912
 6721SOL     OW26649   3.601   1.148   4.304 -0.4220  0.2868  0.2168
 6721SOL    HW226650   3.619   1.225   4.249 -1.9651  0.1328 -0.5676
 6721SOL    HW326651   3.624   1.073   4.249  0.7189  0.1524  0.8447
 6721SOL    MW426652   3.606   1.149   4.289  0.6920  0.4410  0.6284
 6722SOL     OW26653   5.787   4.241   2.234  0.0536  0.5935  0.0588
 6722SOL    HW226654   5.728   4.217   2.163  1.5495 -1.2002 -0.6363
 6722SOL    HW326655   5.732   4.291   2.295 -2.4776 -1.8975  0.0020
 6722SOL    MW426656   5.772   4.245   2.233 -0.0880  0.1581  0.5967
 6723SOL     OW26657   4.331   3.084   3.287 -0.2100  0.1492 -0.5520
 6723SOL    HW226658   4.336   3.166   3.237  2.2089 -0.7475 -1.9321
 6723SOL    HW326659   4.341   3.015   3.222  2.0052 -1.1094  0.9857
 6723SOL    MW426660   4.333   3.086   3.272 -0.2632 -0.4271 -0.1823
 6724SOL     OW26661   5.095   4.066   1.728 -0.2134 -0.5521  0.4873
 6724SOL    HW226662   5.186   4.068   1.699 -0.4773  1.5038 -0.3916
 6724SOL    HW326663   5.047   4.024   1.657 -0.4036  1.6175 -0.7593
 6724SOL    MW426664   5.101   4.061   1.715  0.4282  0.3114  0.1260
 6725SOL     OW26665   0.179   2.933   4.400 -0.1236 -0.0083  0.3286
 6725SOL    HW226666   0.194   3.005   4.460 -0.8426 -0.8905  1.6246
 6725SOL    HW326667   0.265   2.894   4.387 -0.1047 -0.4750  1.7005
 6725SOL    MW426668   0.192   2.937   4.406  0.0785 -0.6196 -0.4743
 6726SOL     OW26669   5.915   2.046   6.209 -0.0865 -0.1373 -0.3127
 6726SOL    HW226670   5.868   1.978   6.161 -0.5121 -0.8504  1.0671
 6726SOL    HW326671   5.853   2.076   6.275  0.6952  0.3750  0.2046
 6726SOL    MW426672   5.901   2.041   6.211  0.1017  0.6157  0.2917
 6727SOL     OW26673   1.574   5.415   0.710 -0.1193 -0.0921  0.3034
 6727SOL    HW226674   1.572   5.403   0.804  2.4566  1.6930  0.7042
 6727SOL    HW326675   1.564   5.510   0.698 -1.8106 -0.4186 -1.3524
 6727SOL    MW426676   1.572   5.426   0.721  0.0364 -0.0701 -0.1711
 6728SOL     OW26677   3.136   4.583   3.403  0.6269 -0.2197 -0.5217
 6728SOL    HW226678   3.106   4.612   3.489  1.0086 -1.3049 -0.0072
 6728SOL    HW326679   3.092   4.642   3.341  0.7627  0.9149  0.4318
 6728SOL    MW426680   3.126   4.595   3.406 -0.0590 -0.2503 -0.1712
 6729SOL     OW26681   2.908   3.410   2.044  0.0340  0.4332 -0.0685
 6729SOL    HW226682   2.899   3.505   2.048 -1.6450  0.2879  0.5007
 6729SOL    HW326683   2.819   3.377   2.057  0.2553 -1.1734 -2.0552
 6729SOL    MW426684   2.895   3.418   2.046 -0.4196  0.5290  0.4703
 6730SOL     OW26685   5.168   0.568   2.600 -0.5410 -0.2209  0.2408
 6730SOL    HW226686   5.085   0.611   2.618 -0.1209  0.8175 -0.2019
 6730SOL    HW326687   5.184   0.583   2.507  1.1771  1.5704  0.7491
 6730SOL    MW426688   5.159   0.576   2.590  0.4186 -0.1789  0.2179
 6731SOL     OW26689   3.309   2.193   5.284 -0.0813  0.3224  0.3636
 6731SOL    HW226690   3.316   2.109   5.328  1.4529  0.5149  0.5319
 6731SOL    HW326691   3.307   2.172   5.191  0.5663  0.0995  0.3954
 6731SOL    MW426692   3.310   2.179   5.277 -0.3055 -0.3318 -0.3291
 6732SOL     OW26693   1.117   1.536   5.843  0.4727 -0.4757  0.2768
 6732SOL    HW226694   1.152   1.510   5.758  1.7823  0.4285  0.5031
 6732SOL    HW326695   1.160   1.478   5.906  0.6761 -0.1359  0.4542
 6732SOL    MW426696   1.127   1.525   5.840 -0.3194  0.5340  0.0710
 6733SOL     OW26697   5.171   4.041   3.428 -0.6670 -0.3574  0.0096
 6733SOL    HW226698   5.200   3.950   3.424  0.8001  0.1161 -1.9894
 6733SOL    HW326699   5.227   4.081   3.495 -0.2722 -0.6140 -0.1613
 6733SOL    MW426700   5.182   4.034   3.437  0.0509  0.0495 -0.2975
 6734SOL     OW26701   3.224   1.458   4.786 -0.4147  0.8919 -0.7350
 6734SOL    HW226702   3.129   1.453   4.775 -0.2513  0.9649 -2.3654
 6734SOL    HW326703   3.239   1.420   4.873 -1.8083 -0.5402 -1.0553
 6734SOL    MW426704   3.213   1.452   4.796  0.0524 -0.5096 -0.5553
 6735SOL     OW26705   2.951   3.126   5.132  0.1249  0.5036 -0.0526
 6735SOL    HW226706   2.932   3.081   5.050  0.8082  1.8588 -0.9896
 6735SOL    HW326707   2.865   3.136   5.174  0.0319 -2.5067  0.7077
 6735SOL    MW426708   2.937   3.122   5.127 -0.0672  0.3126 -0.1600
 6736SOL     OW26709   3.481   0.297   0.633 -0.3344 -0.2465  0.0007
 6736SOL    HW226710   3.490   0.305   0.728  2.2707 -0.2826 -0.1754
 6736SOL    HW326711   3.395   0.257   0.620 -0.5698 -0.6166  2.3501
 6736SOL    MW426712   3.470   0.293   0.644  0.0534 -0.3191  0.7501
 6737SOL     OW26713   5.694   2.749   0.624  0.0029  0.1003 -0.3425
 6737SOL    HW226714   5.730   2.782   0.542 -1.4456 -0.7106 -1.3577
 6737SOL    HW326715   5.719   2.815   0.690 -0.1229  1.5844 -1.7114
 6737SOL    MW426716   5.702   2.762   0.622 -0.3132 -0.2895 -0.9267
 6738SOL     OW26717   3.969   1.595   2.220  0.8735 -0.3663 -0.8551
 6738SOL    HW226718   3.889   1.647   2.221  0.3242 -1.1976  0.0531
 6738SOL    HW326719   4.039   1.660   2.216  0.2089  0.4598  0.3159
 6738SOL    MW426720   3.968   1.611   2.219 -0.1073  0.8861  0.1765
 6739SOL     OW26721   0.053   1.374   3.261 -0.5949 -0.2955  0.7058
 6739SOL    HW226722   0.057   1.379   3.356  0.5294 -0.0029  0.6558
 6739SOL    HW326723   0.114   1.441   3.230  0.2547 -1.4401 -0.1885
 6739SOL    MW426724   0.061   1.383   3.269 -0.0169  0.5429 -0.3476
 6740SOL     OW26725   3.885   5.325   2.984 -0.2918 -0.1204  0.8596
 6740SOL    HW226726   3.842   5.284   2.909  1.2435 -0.6656  0.2311
 6740SOL    HW326727   3.964   5.272   2.997  0.5422  1.2509  1.5046
 6740SOL    MW426728   3.890   5.312   2.976  0.0835 -0.1185  0.0670
 6741SOL     OW26729   1.534   3.797   4.088  0.2951  0.0255 -0.0512
 6741SOL    HW226730   1.503   3.813   4.177  2.4847  0.0848  0.7436
 6741SOL    HW326731   1.512   3.705   4.071 -2.1692  0.5880 -0.3848
 6741SOL    MW426732   1.527   3.787   4.097  0.3351  0.0428 -0.2072
 6742SOL     OW26733   6.171   6.163   5.837 -0.0453 -0.2227 -0.3462
 6742SOL    HW226734   6.094   6.127   5.880 -0.0244 -0.6513 -0.6729
 6742SOL    HW326735   6.245   6.127   5.887 -0.0626  0.5302  0.2370
 6742SOL    MW426736   6.171   6.154   5.849  0.0582 -0.1229  0.0945
 6743SOL     OW26737   5.560   6.054   1.042  0.0651 -0.0935  0.1672
 6743SOL    HW226738   5.515   6.040   0.958  0.1383  0.5744  0.0088
 6743SOL    HW326739   5.611   5.975   1.055 -3.4103 -2.3189  1.8602
 6743SOL    MW426740   5.561   6.042   1.032 -0.3918  1.0931 -0.2650
 6744SOL     OW26741   3.626   6.165   1.286 -0.2835  0.3381  0.3929
 6744SOL    HW226742   3.590   6.215   1.213  0.7262  1.9573  0.9369
 6744SOL    HW326743   3.640   6.077   1.251 -1.0670  0.7231 -0.9498
 6744SOL    MW426744   3.623   6.160   1.272  0.4169  0.2240 -0.1734
 6745SOL     OW26745   1.503   2.349   5.101 -0.2214  0.1444 -0.5486
 6745SOL    HW226746   1.475   2.314   5.016 -1.1074  0.4094 -0.3761
 6745SOL    HW326747   1.502   2.444   5.089  1.0629  0.1624 -0.6674
 6745SOL    MW426748   1.499   2.357   5.088  0.2660  0.7291  0.5567
 6746SOL     OW26749   2.784   0.250   3.064  0.6137 -0.0853  0.5720
 6746SOL    HW226750   2.705   0.301   3.049  0.3301 -0.9601 -1.1751
 6746SOL    HW326751   2.781   0.227   3.157 -0.5795  0.8408  0.7824
 6746SOL    MW426752   2.774   0.254   3.074 -0.1235 -0.4467  0.3684
 6747SOL     OW26753   0.434   2.913   2.081  0.4704 -0.4119 -0.2894
 6747SOL    HW226754   0.463   2.839   2.135  0.2279 -0.2692  0.0377
 6747SOL    HW326755   0.461   2.991   2.129 -1.4957 -0.2446  0.6548
 6747SOL    MW426756   0.441   2.913   2.095 -0.0420  0.1146  0.0914
 6748SOL     OW26757   2.641   1.443   6.340 -0.7772 -0.9837 -0.0258
 6748SOL    HW226758   2.577   1.479   6.278 -0.2059  1.6037  0.7407
 6748SOL    HW326759   2.695   1.518   6.363  1.7718 -2.8096  0.3127
 6748SOL    MW426760   2.640   1.458   6.335  0.8227 -0.3215 -0.7157
 6749SOL     OW26761   3.169   0.422   1.792  0.6316  0.0032 -0.4203
 6749SOL    HW226762   3.183   0.516   1.798  1.0134  0.0565 -1.8481
 6749SOL    HW326763   3.080   0.412   1.760  0.9005 -0.0894 -1.1576
 6749SOL    MW426764   3.159   0.433   1.789  0.8624  0.0393  0.0958
 6750SOL     OW26765   5.916   0.389   4.133 -0.0320  0.1455  0.4646
 6750SOL    HW226766   5.934   0.448   4.206  1.9010 -0.6434  0.7014
 6750SOL    HW326767   5.832   0.349   4.154  1.0516 -1.0274  2.9877
 6750SOL    MW426768   5.907   0.391   4.145  0.3000  0.3202 -0.3328
 6751SOL     OW26769   3.043   4.309   2.305  0.2765  0.3930 -0.3932
 6751SOL    HW226770   3.109   4.374   2.330  0.7127 -0.7821  1.7259
 6751SOL    HW326771   2.961   4.358   2.302  0.7065  1.1813  0.4530
 6751SOL    MW426772   3.041   4.324   2.308  0.4791  0.4778  0.0881
 6752SOL     OW26773   0.290   2.524   2.620  0.6838  0.8841  0.8578
 6752SOL    HW226774   0.353   2.573   2.567 -0.4507  1.6341  0.1713
 6752SOL    HW326775   0.337   2.505   2.702  2.5908 -0.6179 -0.4955
 6752SOL    MW426776   0.305   2.528   2.624  0.3385 -0.1670 -0.0623
 6753SOL     OW26777   5.770   1.449   3.169  0.3122  0.5753 -0.1116
 6753SOL    HW226778   5.823   1.525   3.194  1.2108 -0.6911  2.1604
 6753SOL    HW326779   5.680   1.479   3.176  0.6519  1.4891  0.5558
 6753SOL    MW426780   5.765   1.463   3.173 -0.0723  0.6770 -0.2531
 6754SOL     OW26781   1.186   2.633   4.094 -0.1306 -0.2719  0.0608
 6754SOL    HW226782   1.145   2.617   4.179  1.8153 -1.6745  0.8060
 6754SOL    HW326783   1.279   2.639   4.113  0.1838  1.9451 -1.6836
 6754SOL    MW426784   1.193   2.632   4.108 -0.3712 -0.2265 -0.3836
 6755SOL     OW26785   2.763   6.429   4.950  0.8795 -0.5652  0.0928
 6755SOL    HW226786   2.840   6.445   5.004 -0.4091  1.3448  1.4687
 6755SOL    HW326787   2.746   6.512   4.906 -1.1228 -0.5547  0.8084
 6755SOL    MW426788   2.771   6.442   4.951 -0.1274  0.2174  0.4591
 6756SOL     OW26789   0.975   2.225   5.067 -0.1247 -0.2567  0.3685
 6756SOL    HW226790   1.028   2.299   5.098 -0.0049  0.0545 -0.5703
 6756SOL    HW326791   1.036   2.151   5.066  0.2895  0.0879 -0.6554
 6756SOL    MW426792   0.990   2.225   5.071  0.2560  0.0850  0.3957
 6757SOL     OW26793   2.754   2.930   4.524  0.5966  0.3282  0.6375
 6757SOL    HW226794   2.662   2.933   4.496  0.7221 -2.6325 -0.4929
 6757SOL    HW326795   2.800   2.986   4.461  0.0007 -1.1252 -1.1553
 6757SOL    MW426796   2.748   2.938   4.512 -0.7477 -0.5799  0.0645
 6758SOL     OW26797   4.616   1.253   2.616 -0.0944 -0.3734 -0.1724
 6758SOL    HW226798   4.554   1.269   2.545 -1.0105 -1.1229  0.4162
 6758SOL    HW326799   4.592   1.166   2.648  1.1869 -0.6120  0.1708
 6758SOL    MW426800   4.604   1.243   2.611 -0.5277 -0.3011  0.7258
 6759SOL     OW26801   5.992   5.512   5.785  0.3215  0.5286  0.3533
 6759SOL    HW226802   5.997   5.425   5.826 -2.1239  0.1602  0.0201
 6759SOL    HW326803   6.008   5.494   5.692 -0.1811  0.4250  0.2844
 6759SOL    MW426804   5.995   5.498   5.778  0.0150 -0.2437 -0.1118
 6760SOL     OW26805   6.344   5.818   2.673  0.4411  0.3306 -0.3040
 6760SOL    HW226806   6.268   5.763   2.693  1.0607 -1.1848 -1.7980
 6760SOL    HW326807   6.321   5.862   2.591  0.3873  1.4915  0.3136
 6760SOL    MW426808   6.331   5.816   2.665 -0.2970  0.0782 -0.1178
 6761SOL     OW26809   1.445   5.782   4.707  0.0409  0.2773  0.0928
 6761SOL    HW226810   1.380   5.822   4.765  1.7116  1.5823  1.1719
 6761SOL    HW326811   1.527   5.784   4.757  0.7878 -2.0513 -0.8959
 6761SOL    MW426812   1.448   5.787   4.721  0.5370 -0.3470 -0.6946
 6762SOL     OW26813   0.396   6.398   2.206  0.5885 -0.8036  0.1596
 6762SOL    HW226814   0.379   6.348   2.286 -0.4042 -0.6682  0.0482
 6762SOL    HW326815   0.406   6.331   2.138 -0.4193 -0.8852  0.0700
 6762SOL    MW426816   0.395   6.383   2.208  0.5034 -0.4972  0.6120
 6763SOL     OW26817   2.506   6.363   2.639 -0.0596 -0.0925 -0.0605
 6763SOL    HW226818   2.536   6.308   2.711  0.2743 -1.0475 -0.9036
 6763SOL    HW326819   2.516   6.308   2.561  0.3928  1.1938 -0.9514
 6763SOL    MW426820   2.512   6.348   2.638  0.3897 -0.3485 -0.3408
 6764SOL     OW26821   1.411   5.644   3.049  0.0072 -0.4892  0.2863
 6764SOL    HW226822   1.422   5.581   3.120  0.9312 -1.1690 -0.4464
 6764SOL    HW326823   1.318   5.663   3.048 -0.0315 -0.5080  1.6451
 6764SOL    MW426824   1.401   5.638   3.058  0.2667  0.3120  0.4376
 6765SOL     OW26825   6.246   3.534   2.498 -0.0042 -0.0980 -0.2258
 6765SOL    HW226826   6.323   3.496   2.540 -0.2359 -1.1556 -0.7362
 6765SOL    HW326827   6.177   3.468   2.508 -0.4419  0.2139 -1.0666
 6765SOL    MW426828   6.247   3.521   2.505 -0.3453 -0.5111  0.7980
 6766SOL     OW26829   0.224   5.766   0.941  0.0952  0.6001  0.1959
 6766SOL    HW226830   0.226   5.744   0.847 -0.3243  1.4296 -0.0182
 6766SOL    HW326831   0.159   5.707   0.978  1.8617 -1.3054  0.4062
 6766SOL    MW426832   0.216   5.755   0.933  0.2311  0.0571  0.2895
 6767SOL     OW26833   5.993   1.188   1.635  0.5319  0.9780 -0.1962
 6767SOL    HW226834   5.921   1.188   1.699  0.3748  1.3469 -0.3684
 6767SOL    HW326835   6.018   1.281   1.628  0.9702  0.8606 -0.1981
 6767SOL    MW426836   5.986   1.201   1.643  0.1285 -0.3889 -0.5539
 6768SOL     OW26837   0.991   3.188   3.478  0.1290 -0.0923 -0.2305
 6768SOL    HW226838   0.990   3.106   3.527 -1.2504  0.6383  1.0535
 6768SOL    HW326839   0.930   3.245   3.525 -0.1512  1.1468 -1.9802
 6768SOL    MW426840   0.983   3.184   3.491  0.3706 -0.3202  0.4128
 6769SOL     OW26841   6.271   0.580   1.909 -0.5637 -0.3305 -0.2634
 6769SOL    HW226842   6.359   0.589   1.946 -1.4925  0.9521  1.7993
 6769SOL    HW326843   6.274   0.497   1.861  1.9400 -0.0101 -0.8368
 6769SOL    MW426844   6.283   0.570   1.908 -0.3074 -0.9030  0.1089
 6770SOL     OW26845   1.842   4.301   5.765  0.6503  0.7480 -0.2070
 6770SOL    HW226846   1.916   4.254   5.727 -0.3734 -1.4069  0.2989
 6770SOL    HW326847   1.781   4.314   5.691  1.2304  1.9778 -0.4948
 6770SOL    MW426848   1.843   4.297   5.750  0.3829  1.0212 -0.5592
 6771SOL     OW26849   4.465   1.286   6.073  0.3199 -0.1446 -0.9124
 6771SOL    HW226850   4.526   1.291   5.999  1.3137 -0.6278 -0.1393
 6771SOL    HW326851   4.483   1.202   6.114 -2.2471 -1.2467 -1.8112
 6771SOL    MW426852   4.475   1.276   6.069  0.1440 -0.4337  0.0095
 6772SOL     OW26853   6.421   4.532   3.631 -0.4259 -0.2309  0.1050
 6772SOL    HW226854   6.395   4.449   3.672  0.0392  0.1290  1.1734
 6772SOL    HW326855   6.442   4.508   3.540 -0.8125 -1.1853  0.2489
 6772SOL    MW426856   6.420   4.518   3.624 -0.3152 -0.7113 -0.3769
 6773SOL     OW26857   3.840   1.243   3.939  0.1804  0.2494  0.7672
 6773SOL    HW226858   3.855   1.271   4.029  1.8430 -0.7042  0.8358
 6773SOL    HW326859   3.875   1.313   3.884  0.9634 -0.0400  0.8931
 6773SOL    MW426860   3.846   1.256   3.943 -0.2732  0.0429 -0.5506
 6774SOL     OW26861   3.087   1.174   3.754 -0.0608 -0.1692  0.1705
 6774SOL    HW226862   3.147   1.190   3.827  1.4623  0.7524 -1.2122
 6774SOL    HW326863   3.001   1.168   3.795  0.6555  0.9789  1.9897
 6774SOL    MW426864   3.084   1.175   3.769  0.1025  0.0357  0.4796
 6775SOL     OW26865   4.511   0.738   4.731 -0.0548 -0.3295 -0.2927
 6775SOL    HW226866   4.534   0.812   4.675 -2.6066 -0.2202 -1.3318
 6775SOL    HW326867   4.592   0.715   4.775  1.4594  1.2660 -2.0832
 6775SOL    MW426868   4.524   0.745   4.729  1.0786 -0.1772  0.5832
 6776SOL     OW26869   6.239   3.877   3.014  0.0727  0.4617 -0.4583
 6776SOL    HW226870   6.243   3.784   3.036 -0.0056  0.6844  0.5713
 6776SOL    HW326871   6.323   3.896   2.971  1.2279  0.4609  1.6619
 6776SOL    MW426872   6.251   3.867   3.011 -0.0046 -0.6506 -0.4307
 6777SOL     OW26873   5.195   4.322   3.376  0.6054  0.6558  0.5824
 6777SOL    HW226874   5.146   4.253   3.420 -0.6687  0.0566 -1.6222
 6777SOL    HW326875   5.274   4.334   3.430  0.1776 -1.4979  1.7931
 6777SOL    MW426876   5.199   4.315   3.389  0.7119 -0.0985  0.4322
 6778SOL     OW26877   4.010   4.684   1.066  0.7632  0.2228  0.3614
 6778SOL    HW226878   4.006   4.772   1.103 -0.3305 -0.2247  1.3601
 6778SOL    HW326879   4.074   4.638   1.120  0.0654 -0.0780  0.9471
 6778SOL    MW426880   4.018   4.690   1.078  0.1550 -0.1723 -0.0570
 6779SOL     OW26881   5.684   4.181   0.647 -0.0106  0.5817 -0.2521
 6779SOL    HW226882   5.726   4.104   0.609 -2.2965 -2.6136  2.9794
 6779SOL    HW326883   5.688   4.167   0.742 -2.4086  3.3865  0.4342
 6779SOL    MW426884   5.690   4.169   0.654  0.2299 -0.0178 -0.6237
 6780SOL     OW26885   0.994   3.537   0.813 -0.3741 -0.7375 -0.2488
 6780SOL    HW226886   0.917   3.593   0.819  1.3870  1.7875  0.4043
 6780SOL    HW326887   0.990   3.499   0.725 -0.7551  1.9292 -1.4918
 6780SOL    MW426888   0.984   3.539   0.802 -0.2237 -0.3319  0.0436
 6781SOL     OW26889   1.558   1.701   4.524  0.3822  0.9451  0.1275
 6781SOL    HW226890   1.534   1.794   4.518 -0.1916  0.8118  0.2838
 6781SOL    HW326891   1.518   1.662   4.446 -0.3703  0.6224  0.6707
 6781SOL    MW426892   1.549   1.708   4.513  0.0756  0.2545  0.4710
 6782SOL     OW26893   5.046   0.291   5.466  0.2327  0.1117  0.3691
 6782SOL    HW226894   4.970   0.326   5.513  1.2419  1.5140  1.0455
 6782SOL    HW326895   5.049   0.199   5.490 -0.8058  0.2139  0.9429
 6782SOL    MW426896   5.036   0.284   5.475  1.1111  0.2070  0.1550
 6783SOL     OW26897   2.897   2.126   3.568  0.2667 -0.0163  0.1585
 6783SOL    HW226898   2.927   2.048   3.522  1.1088  0.5061 -0.1989
 6783SOL    HW326899   2.840   2.170   3.506  0.5888  0.1633 -0.0117
 6783SOL    MW426900   2.893   2.122   3.554 -0.2984  0.1309  0.2781
 6784SOL     OW26901   3.718   0.537   3.730 -0.3397 -0.3935 -0.0168
 6784SOL    HW226902   3.758   0.617   3.764 -0.3120 -0.9935  1.4562
 6784SOL    HW326903   3.657   0.567   3.662 -0.0692  0.8364  0.2587
 6784SOL    MW426904   3.715   0.551   3.725 -0.3005 -0.2486 -0.1853
 6785SOL     OW26905   2.969   3.536   3.561 -0.3223 -0.0055  0.1899
 6785SOL    HW226906   2.967   3.573   3.650  1.6246  1.8368 -0.4316
 6785SOL    HW326907   2.882   3.499   3.548 -1.2213  1.2019  2.2493
 6785SOL    MW426908   2.957   3.536   3.571 -0.5275  0.0295 -0.0790
 6786SOL     OW26909   4.964   4.133   3.844  0.0290  0.4049  0.0668
 6786SOL    HW226910   4.912   4.080   3.784  0.3587  1.9108 -1.6225
 6786SOL    HW326911   4.900   4.180   3.898 -0.2951  0.1711 -0.1183
 6786SOL    MW426912   4.949   4.132   3.844  0.7753 -0.1344 -0.3289
 6787SOL     OW26913   4.760   6.310   4.011  0.6718  0.4867 -0.5357
 6787SOL    HW226914   4.674   6.335   3.980  0.7763  2.0841  0.3457
 6787SOL    HW326915   4.744   6.236   4.069  0.3017 -1.4132 -2.9376
 6787SOL    MW426916   4.747   6.304   4.015  0.6605  0.5409 -0.0607
 6788SOL     OW26917   3.502   3.119   3.586  0.0603  0.1358 -0.1744
 6788SOL    HW226918   3.453   3.080   3.659 -1.9003  1.6321 -0.6085
 6788SOL    HW326919   3.455   3.090   3.508  2.5564 -2.0380 -1.0015
 6788SOL    MW426920   3.489   3.110   3.586 -0.1588 -0.0857 -0.0982
 6789SOL     OW26921   3.964   1.008   2.044  0.1938 -0.1895 -0.2306
 6789SOL    HW226922   3.952   1.103   2.044  0.4516 -0.1075  1.6101
 6789SOL    HW326923   4.049   0.994   2.001 -0.0483  0.3607 -0.9024
 6789SOL    MW426924   3.974   1.018   2.038  0.2095 -0.4820  0.4715
 6790SOL     OW26925   4.927   4.553   4.244  0.1345  0.5220 -0.2980
 6790SOL    HW226926   4.935   4.552   4.340 -0.0344  3.4281 -0.1536
 6790SOL    HW326927   4.833   4.547   4.228 -0.0403  2.2776 -0.1144
 6790SOL    MW426928   4.916   4.552   4.255  0.5297  0.0148 -0.1725
 6791SOL     OW26929   3.883   1.935   5.604 -0.3483  0.1354 -0.1842
 6791SOL    HW226930   3.973   1.922   5.632 -0.3136 -0.6130 -0.6169
 6791SOL    HW326931   3.835   1.860   5.638 -0.5452 -0.1492 -1.0593
 6791SOL    MW426932   3.888   1.924   5.612  0.4962  0.0486 -0.0350
 6792SOL     OW26933   1.312   2.195   2.392 -0.0611 -0.2439  0.2466
 6792SOL    HW226934   1.312   2.288   2.413  0.9940 -0.2566  0.3561
 6792SOL    HW326935   1.279   2.191   2.302  1.2530  0.3775 -0.2879
 6792SOL    MW426936   1.308   2.207   2.383 -0.7803 -0.4309  0.0653
 6793SOL     OW26937   1.040   6.349   5.324  0.2576 -0.1320  0.4078
 6793SOL    HW226938   0.946   6.337   5.341  0.5424 -0.4037  1.9035
 6793SOL    HW326939   1.083   6.299   5.393  1.5212 -0.9218 -0.9080
 6793SOL    MW426940   1.033   6.341   5.335 -0.0403 -0.0554  0.1530
 6794SOL     OW26941   2.130   1.781   1.152  0.4770 -0.3293  0.4178
 6794SOL    HW226942   2.074   1.761   1.227 -0.6078 -0.7813 -0.4735
 6794SOL    HW326943   2.076   1.836   1.095  0.8169 -1.0204 -0.6071
 6794SOL    MW426944   2.116   1.785   1.154 -0.3138  0.1342 -0.1642
 6795SOL     OW26945   4.446   2.715   4.135 -0.3251 -0.2603  1.0381
 6795SOL    HW226946   4.421   2.772   4.063  0.1924 -0.2745  0.8411
 6795SOL    HW326947   4.530   2.750   4.165 -0.8116  0.1183  2.0327
 6795SOL    MW426948   4.454   2.728   4.129 -0.6033  0.1332  0.0840
 6796SOL     OW26949   2.139   6.009   6.202  0.2152  0.0803 -0.6413
 6796SOL    HW226950   2.057   5.992   6.247 -0.0608  0.3156 -1.0493
 6796SOL    HW326951   2.194   6.054   6.266 -0.4502  1.1120 -0.7795
 6796SOL    MW426952   2.136   6.012   6.216 -0.2070  0.1975 -0.0310
 6797SOL     OW26953   3.584   3.367   1.675 -0.1536  0.1482  0.5950
 6797SOL    HW226954   3.501   3.340   1.635  0.9468 -3.3779  0.3420
 6797SOL    HW326955   3.644   3.376   1.602  0.4745 -0.6150  1.0093
 6797SOL    MW426956   3.581   3.365   1.660 -0.6894  0.0062  0.3621
 6798SOL     OW26957   3.058   0.340   3.036  0.1010 -0.1348  0.5133
 6798SOL    HW226958   2.968   0.316   3.058  0.3201 -0.0880  1.5197
 6798SOL    HW326959   3.087   0.393   3.110  0.6210  0.7268 -0.2894
 6798SOL    MW426960   3.050   0.344   3.048  1.0746 -0.4212 -0.8984
 6799SOL     OW26961   0.024   2.502   1.837  0.4303  0.3936 -0.0960
 6799SOL    HW226962   0.066   2.585   1.861 -0.6722  0.7525  0.6860
 6799SOL    HW326963   0.059   2.438   1.899  0.8603  0.3951 -0.3380
 6799SOL    MW426964   0.034   2.504   1.848 -0.3195  0.2876 -0.2166
 6800SOL     OW26965   1.457   6.313   1.886 -0.0953  0.2897 -0.3665
 6800SOL    HW226966   1.387   6.287   1.827 -0.3444  0.3919 -0.1181
 6800SOL    HW326967   1.436   6.403   1.911 -1.6894 -0.7098  2.2917
 6800SOL    MW426968   1.445   6.322   1.882  0.2603  0.4078 -0.1430
 6801SOL     OW26969   3.321   4.499   5.745  0.2335 -0.3305 -0.4347
 6801SOL    HW226970   3.274   4.419   5.722 -1.4296  0.6388 -0.5454
 6801SOL    HW326971   3.319   4.552   5.665 -0.7579  0.7720  0.2753
 6801SOL    MW426972   3.314   4.495   5.731  0.0383  0.4050 -0.7320
 6802SOL     OW26973   1.716   4.346   2.160 -0.2898  0.2745 -0.1305
 6802SOL    HW226974   1.747   4.265   2.199  1.8555  1.0862  0.0037
 6802SOL    HW326975   1.647   4.319   2.099  0.5497 -1.6624 -0.2777
 6802SOL    MW426976   1.711   4.332   2.157 -0.0321  0.4926 -0.0580
 6803SOL     OW26977   5.971   5.170   2.055  0.6030  0.6599  0.4395
 6803SOL    HW226978   6.023   5.094   2.079 -0.9038 -1.0078 -1.2691
 6803SOL    HW326979   5.903   5.175   2.122 -1.4324 -1.7751 -1.2837
 6803SOL    MW426980   5.969   5.161   2.067  0.2494 -0.0215  0.1027
 6804SOL     OW26981   1.632   4.449   0.204 -0.1429  0.7842  0.0713
 6804SOL    HW226982   1.694   4.417   0.269 -1.5133 -0.7423  0.7073
 6804SOL    HW326983   1.613   4.373   0.149 -1.2977  1.2525 -0.2177
 6804SOL    MW426984   1.637   4.435   0.205  0.3216 -0.2559  0.1667
 6805SOL     OW26985   4.923   0.742   0.524  0.1739 -0.3498 -0.1150
 6805SOL    HW226986   4.895   0.672   0.466  0.3124 -1.0076  0.5901
 6805SOL    HW326987   4.858   0.811   0.513  0.9771  0.1463 -2.1176
 6805SOL    MW426988   4.911   0.742   0.515  0.3392  0.0537  0.0724
 6806SOL     OW26989   0.987   5.957   0.821 -0.5591 -0.3736 -0.1632
 6806SOL    HW226990   0.934   5.963   0.742 -0.0369  1.1090 -0.4363
 6806SOL    HW326991   0.941   6.011   0.885 -0.2754 -0.4693  0.1226
 6806SOL    MW426992   0.974   5.965   0.819  0.5417  0.1511 -0.0324
 6807SOL     OW26993   0.311   5.531   0.061  0.3018 -0.0294 -0.2210
 6807SOL    HW226994   0.246   5.532   0.132 -1.0223 -0.2506 -1.4054
 6807SOL    HW326995   0.394   5.546   0.106 -0.3072 -1.5523  1.5733
 6807SOL    MW426996   0.313   5.533   0.077 -0.0279 -0.4219 -0.3267
 6808SOL     OW26997   5.060   4.554   3.388  1.0341 -0.1451  0.6051
 6808SOL    HW226998   5.088   4.594   3.470  2.3079  0.9167 -0.3065
 6808SOL    HW326999   5.110   4.473   3.382  0.9878 -0.1913  0.8527
 6808SOL    MW427000   5.070   4.549   3.398  0.1334  0.1523  0.1306
 6809SOL     OW27001   4.156   0.180   1.026  0.3228 -0.4915  0.1787
 6809SOL    HW227002   4.201   0.135   1.098  0.6748 -0.3038  0.0738
 6809SOL    HW327003   4.219   0.182   0.954  0.5634  0.7887  0.4029
 6809SOL    MW427004   4.170   0.174   1.026 -0.2935  0.1933  0.5550
 6810SOL     OW27005   0.645   1.839   3.336 -0.0612  0.3757 -0.1721
 6810SOL    HW227006   0.631   1.885   3.254 -1.1163  1.1964  0.4447
 6810SOL    HW327007   0.558   1.828   3.373  0.4762  1.1637  1.4438
 6810SOL    MW427008   0.632   1.844   3.330  0.7071 -0.3901  0.2319
 6811SOL     OW27009   2.535   3.374   1.110  0.6874  0.8689 -0.7015
 6811SOL    HW227010   2.584   3.365   1.192  0.2421 -1.0754 -0.6090
 6811SOL    HW327011   2.585   3.439   1.060  1.6523  1.1753  0.6070
 6811SOL    MW427012   2.548   3.381   1.114  0.2786  0.0823 -0.2083
 6812SOL     OW27013   0.448   0.828   5.861 -0.1682  0.5301 -0.1225
 6812SOL    HW227014   0.368   0.806   5.813 -0.1142 -1.6014  0.6460
 6812SOL    HW327015   0.416   0.857   5.947 -0.1549 -0.6369  0.3001
 6812SOL    MW427016   0.433   0.829   5.866  0.0467 -0.0735  0.1467
 6813SOL     OW27017   3.214   6.375   1.136  0.4803 -0.4754 -0.2075
 6813SOL    HW227018   3.279   6.439   1.166  2.1076 -2.0394 -0.2502
 6813SOL    HW327019   3.161   6.357   1.213  1.2506 -0.5201  0.3258
 6813SOL    MW427020   3.215   6.381   1.150 -0.0640 -0.3600 -0.4590
 6814SOL     OW27021   2.075   5.915   5.941  0.0230 -0.5204 -0.1036
 6814SOL    HW227022   2.094   5.920   6.034 -0.5676 -0.7080  0.0348
 6814SOL    HW327023   2.044   5.825   5.927 -0.4270 -0.3284 -0.3692
 6814SOL    MW427024   2.073   5.904   5.951  0.0449 -0.3291 -0.1282
 6815SOL     OW27025   3.984   5.755   0.870 -0.1342  0.8423 -0.3593
 6815SOL    HW227026   4.011   5.819   0.936 -0.6019 -0.0311  0.7075
 6815SOL    HW327027   4.065   5.728   0.828  0.1445  1.5700 -0.3033
 6815SOL    MW427028   3.998   5.760   0.873  0.0189 -0.2184 -0.4013
 6816SOL     OW27029   3.385   0.364   3.996 -0.6381  0.3195  0.4118
 6816SOL    HW227030   3.326   0.390   3.926 -2.0007 -0.3396  1.2816
 6816SOL    HW327031   3.409   0.274   3.974 -0.9238  0.1743  0.6858
 6816SOL    MW427032   3.381   0.355   3.984  0.3696 -0.1404 -0.3181
 6817SOL     OW27033   1.498   4.443   1.099  0.6587  0.3092  0.0171
 6817SOL    HW227034   1.480   4.375   1.164 -0.1789 -0.5035 -1.0254
 6817SOL    HW327035   1.427   4.435   1.036  1.1636  1.4225 -0.7242
 6817SOL    MW427036   1.486   4.433   1.099 -0.1765  0.2845  0.2248
 6818SOL     OW27037   5.952   4.706   5.983  0.7865  0.2879  0.1927
 6818SOL    HW227038   5.963   4.641   6.052  0.1245  1.3857  1.3750
 6818SOL    HW327039   6.010   4.677   5.913 -0.8719 -2.6163 -0.1285
 6818SOL    MW427040   5.961   4.694   5.983  0.5366  0.1803 -0.1637
 6819SOL     OW27041   2.339   1.812   6.156 -0.0505  0.2154 -0.3317
 6819SOL    HW227042   2.289   1.842   6.080  0.8826  0.1267 -1.0006
 6819SOL    HW327043   2.358   1.720   6.137  0.6363  0.3335 -0.2340
 6819SOL    MW427044   2.335   1.804   6.144  0.4399  0.4221 -0.2792
 6820SOL     OW27045   2.659   2.822   3.190  0.2814 -0.4988 -0.3259
 6820SOL    HW227046   2.739   2.871   3.169 -0.2676  0.5551 -0.0662
 6820SOL    HW327047   2.663   2.744   3.134  2.6961 -1.7803  1.4355
 6820SOL    MW427048   2.670   2.818   3.180 -0.4114 -0.2813 -0.3514
 6821SOL     OW27049   0.017   4.828   3.406 -0.2029  0.4371  0.5083
 6821SOL    HW227050   0.032   4.908   3.354 -0.4566  0.2216  0.1053
 6821SOL    HW327051  -0.011   4.763   3.342 -2.5713  0.7104  1.1704
 6821SOL    MW427052   0.016   4.830   3.390  0.8631 -0.3937  0.0786
 6822SOL     OW27053   4.437   6.022   3.459 -0.3936  0.2804 -0.1276
 6822SOL    HW227054   4.360   5.970   3.484  0.1680 -1.2296 -1.3831
 6822SOL    HW327055   4.414   6.058   3.374 -0.0844  0.6601 -0.0514
 6822SOL    MW427056   4.424   6.020   3.451 -0.2573 -0.2005 -0.5897
 6823SOL     OW27057   4.149   4.001   5.970 -0.2777 -0.3162 -0.6047
 6823SOL    HW227058   4.134   4.010   5.876 -1.2448 -0.3153 -0.4615
 6823SOL    HW327059   4.225   3.944   5.977  0.4310  0.5032 -1.4017
 6823SOL    MW427060   4.157   3.995   5.958  0.3498 -0.6714  0.6450
 6824SOL     OW27061   2.633   0.569   6.197 -0.0928 -0.0645 -0.2961
 6824SOL    HW227062   2.649   0.654   6.238  0.0444 -0.5116  0.6087
 6824SOL    HW327063   2.720   0.532   6.183 -0.1642 -0.8035  0.9773
 6824SOL    MW427064   2.646   0.575   6.201  0.0327  0.2346 -0.0564
 6825SOL     OW27065   4.982   1.742   1.532 -0.6699 -0.8360 -0.3854
 6825SOL    HW227066   4.888   1.758   1.527 -0.5769 -0.5481 -1.3664
 6825SOL    HW327067   5.019   1.826   1.561 -0.2976  0.6161 -4.4358
 6825SOL    MW427068   4.974   1.755   1.535  0.5923  0.2981 -0.2780
 6826SOL     OW27069   0.197   3.048   2.869 -0.4269  0.9372 -0.0870
 6826SOL    HW227070   0.195   3.137   2.833  1.1835  0.7605 -0.7011
 6826SOL    HW327071   0.115   3.040   2.918 -0.9248  2.5095 -0.6008
 6826SOL    MW427072   0.186   3.059   2.871 -0.5694 -0.2927 -0.2572
 6827SOL     OW27073   3.197   0.429   5.905 -0.6159 -0.0749 -0.3894
 6827SOL    HW227074   3.184   0.411   5.998 -0.1799 -0.6175 -0.4353
 6827SOL    HW327075   3.188   0.344   5.862 -0.3739  0.1040 -0.7981
 6827SOL    MW427076   3.194   0.416   5.911  0.2068  0.1787  0.6278
 6828SOL     OW27077   1.738   3.408   4.602 -0.5175 -0.0261  0.3358
 6828SOL    HW227078   1.764   3.470   4.670 -2.1032  1.8073 -0.6325
 6828SOL    HW327079   1.707   3.331   4.649 -3.1034  1.8075  1.8403
 6828SOL    MW427080   1.737   3.406   4.617  0.8224 -0.1396  0.3852
 6829SOL     OW27081   3.371   3.267   5.510  0.6603  0.7334 -0.4465
 6829SOL    HW227082   3.290   3.251   5.558 -0.2246  1.3427 -1.6941
 6829SOL    HW327083   3.431   3.302   5.576  0.5198 -1.3562  0.8852
 6829SOL    MW427084   3.368   3.270   5.525 -0.4736  0.7699  1.0915
 6830SOL     OW27085   3.224   3.855   3.229  0.4273  0.4087 -0.0092
 6830SOL    HW227086   3.169   3.807   3.292  0.7704 -0.0267 -0.0292
 6830SOL    HW327087   3.299   3.797   3.215 -0.3719 -0.2172 -2.0097
 6830SOL    MW427088   3.226   3.841   3.236 -0.1954  0.5845 -0.6126
 6831SOL     OW27089   0.574   4.395   6.277  0.4289 -0.4621 -0.5205
 6831SOL    HW227090   0.556   4.484   6.307  0.1497  0.1413 -2.3420
 6831SOL    HW327091   0.661   4.401   6.238  0.0630 -0.7789 -1.3968
 6831SOL    MW427092   0.583   4.408   6.276  0.1582  0.0557 -0.7091
 6832SOL     OW27093   6.193   2.517   5.868 -0.3491 -0.3271  0.4572
 6832SOL    HW227094   6.202   2.428   5.901 -0.1217 -0.7697 -0.7428
 6832SOL    HW327095   6.135   2.560   5.931 -0.6763 -1.3961  0.9177
 6832SOL    MW427096   6.186   2.511   5.881  0.3811  0.0224 -0.2925
 6833SOL     OW27097   5.691   3.758   0.914  0.7020  0.4921 -0.0860
 6833SOL    HW227098   5.724   3.753   0.824  2.2830  0.3604  0.4690
 6833SOL    HW327099   5.654   3.671   0.930 -0.4061  0.7881 -0.8742
 6833SOL    MW427100   5.690   3.746   0.904  0.0783  0.5082  0.5524
 6834SOL     OW27101   1.086   4.690   6.349 -0.0052 -0.2796  0.1735
 6834SOL    HW227102   1.163   4.648   6.311  0.1996 -0.0702  0.3546
 6834SOL    HW327103   1.032   4.618   6.380 -0.9301 -0.5538 -1.9218
 6834SOL    MW427104   1.089   4.675   6.348 -0.0391  0.0102  0.5370
 6835SOL     OW27105   2.644   4.088   3.492 -0.1302  0.2129 -0.3064
 6835SOL    HW227106   2.593   4.156   3.448 -0.2561 -1.0860 -2.2807
 6835SOL    HW327107   2.662   4.124   3.579 -1.1250  2.2870 -0.9002
 6835SOL    MW427108   2.640   4.102   3.498 -0.1500 -0.6706 -0.4579
 6836SOL     OW27109   2.757   0.338   1.365 -0.2114  0.0660 -0.0653
 6836SOL    HW227110   2.711   0.291   1.295  1.0715  0.6757 -1.3698
 6836SOL    HW327111   2.809   0.404   1.320 -0.7576  1.7320  1.6234
 6836SOL    MW427112   2.758   0.340   1.350  0.1021  0.0775 -0.0634
 6837SOL     OW27113   2.507   4.485   6.021 -0.7788  0.9799 -0.0473
 6837SOL    HW227114   2.425   4.496   5.972 -0.7777 -0.0832 -0.3157
 6837SOL    HW327115   2.510   4.392   6.042 -0.4460  1.2911  1.4241
 6837SOL    MW427116   2.497   4.474   6.017 -0.4574  0.1337  0.3987
 6838SOL     OW27117   1.652   2.091   4.332 -0.7106  0.1340  0.1456
 6838SOL    HW227118   1.645   2.168   4.390 -1.3967 -0.1801  0.4934
 6838SOL    HW327119   1.638   2.126   4.244 -0.0112  0.5626  0.1980
 6838SOL    MW427120   1.649   2.106   4.328  0.1002 -0.1000  0.3105
 6839SOL     OW27121   0.535   1.758   4.388  0.6032  0.2582 -0.1314
 6839SOL    HW227122   0.546   1.840   4.437 -1.3660  0.3775  0.1916
 6839SOL    HW327123   0.522   1.692   4.456 -1.9803  0.3944 -0.4145
 6839SOL    MW427124   0.535   1.760   4.404  0.2489  0.2350  0.0948
 6840SOL     OW27125   1.089   5.514   3.578 -0.0518  0.0246  0.1244
 6840SOL    HW227126   1.159   5.575   3.600 -0.2580  1.1420 -2.0342
 6840SOL    HW327127   1.107   5.487   3.488 -1.3417 -1.1943  0.1890
 6840SOL    MW427128   1.100   5.519   3.569 -0.3838  0.3192  0.0530
 6841SOL     OW27129   3.746   2.280   6.190 -0.3634 -0.0468 -0.0275
 6841SOL    HW227130   3.747   2.188   6.164  0.3470 -0.1518  0.3492
 6841SOL    HW327131   3.732   2.329   6.109 -0.3817 -0.4706 -0.2773
 6841SOL    MW427132   3.744   2.275   6.176  0.4010 -0.1500  0.5356
 6842SOL     OW27133   6.333   2.925   2.485 -0.7345  0.8641  0.4673
 6842SOL    HW227134   6.419   2.967   2.498 -0.9457  1.3155  0.4354
 6842SOL    HW327135   6.326   2.916   2.390  1.0696 -2.9798  0.5281
 6842SOL    MW427136   6.344   2.930   2.474 -0.7774  0.5245 -0.3336
 6843SOL     OW27137   5.377   0.152   4.516 -0.2227 -0.1342  0.5863
 6843SOL    HW227138   5.364   0.183   4.427  0.5254  1.8642  1.1304
 6843SOL    HW327139   5.460   0.189   4.544  0.2411 -1.8401  1.6841
 6843SOL    MW427140   5.386   0.161   4.508  0.7482  0.1441  0.5501
 6844SOL     OW27141   5.793   1.834   6.110 -0.2390 -0.7424 -0.4182
 6844SOL    HW227142   5.735   1.793   6.175 -0.9489 -1.5600 -1.5390
 6844SOL    HW327143   5.857   1.765   6.089 -0.8357 -0.9555 -1.5776
 6844SOL    MW427144   5.794   1.819   6.116  0.6424  0.2540 -0.1427
 6845SOL     OW27145   2.124   5.553   5.742  0.4440  0.0656 -0.0623
 6845SOL    HW227146   2.201   5.521   5.790  0.3863 -0.2469 -0.1721
 6845SOL    HW327147   2.150   5.548   5.650  0.4522  0.3933 -0.0787
 6845SOL    MW427148   2.138   5.548   5.736 -0.2116 -0.5306 -0.0819
 6846SOL     OW27149   5.826   3.516   2.588  0.1976  0.2565  0.3527
 6846SOL    HW227150   5.746   3.464   2.590  0.4983 -0.2103  0.4919
 6846SOL    HW327151   5.828   3.554   2.500 -0.3473  0.5558  0.4611
 6846SOL    MW427152   5.816   3.514   2.577 -0.2153  0.3819 -0.3101
 6847SOL     OW27153   4.331   0.191   3.828  0.0503  0.3283 -0.1069
 6847SOL    HW227154   4.309   0.272   3.875  1.8772  0.1632  1.1446
 6847SOL    HW327155   4.427   0.190   3.826  0.0944  0.3072 -3.9432
 6847SOL    MW427156   4.341   0.201   3.834 -0.3210 -0.4600 -0.3080
 6848SOL     OW27157   4.172   1.774   2.175 -0.1982 -0.1530  0.1916
 6848SOL    HW227158   4.175   1.847   2.114  2.7568 -0.0158  0.3722
 6848SOL    HW327159   4.228   1.707   2.136 -1.4486 -1.6754  0.8681
 6848SOL    MW427160   4.179   1.774   2.162 -0.2164 -0.6528 -0.0633
 6849SOL     OW27161   0.653   0.792   0.447 -0.2488 -0.0148  0.1748
 6849SOL    HW227162   0.653   0.873   0.396 -2.0097  0.1530  0.4092
 6849SOL    HW327163   0.703   0.815   0.526  0.0005  0.5748 -0.1408
 6849SOL    MW427164   0.660   0.806   0.451 -0.3072 -0.0057  0.7767
 6850SOL     OW27165   1.876   5.628   1.200 -0.3579  0.0070 -0.3675
 6850SOL    HW227166   1.929   5.563   1.248  0.3305  0.7761 -0.0568
 6850SOL    HW327167   1.795   5.582   1.181  0.2693 -1.0909 -0.5193
 6850SOL    MW427168   1.873   5.613   1.204  0.5597 -0.7530 -0.2787
 6851SOL     OW27169   3.793   2.272   3.738 -0.1934 -0.2211  0.0316
 6851SOL    HW227170   3.748   2.337   3.684 -0.0820  0.1134  0.3378
 6851SOL    HW327171   3.763   2.188   3.704 -0.7685 -0.0060 -0.0076
 6851SOL    MW427172   3.783   2.269   3.727  0.9760  0.8085  0.4289
 6852SOL     OW27173   0.335   3.521   2.813  0.0338  0.0480 -0.6364
 6852SOL    HW227174   0.417   3.497   2.858  1.3982  2.6189 -1.5421
 6852SOL    HW327175   0.288   3.575   2.877 -0.2231 -0.1077 -0.6918
 6852SOL    MW427176   0.340   3.525   2.827  0.3482 -0.5187 -0.3092
 6853SOL     OW27177   0.282   5.415   6.059 -0.3733 -0.5193 -0.7143
 6853SOL    HW227178   0.341   5.390   5.987  0.0323 -1.3513 -0.1128
 6853SOL    HW327179   0.239   5.333   6.084 -2.3384  0.1994 -1.6024
 6853SOL    MW427180   0.284   5.401   6.053 -0.2297 -0.5099  0.0849
 6854SOL     OW27181   5.178   3.461   5.027  0.0160 -0.3620  0.2452
 6854SOL    HW227182   5.206   3.524   4.960 -0.0310 -0.7629 -0.1581
 6854SOL    HW327183   5.095   3.426   4.994  0.1767 -0.8298  0.3262
 6854SOL    MW427184   5.171   3.465   5.013  0.4293 -0.3421  0.2227
 6855SOL     OW27185   0.846   5.683   0.926  0.1061  0.5811  0.7019
 6855SOL    HW227186   0.799   5.634   0.995 -0.4530 -0.0651 -0.1101
 6855SOL    HW327187   0.923   5.629   0.907 -0.1318  0.3721  0.3112
 6855SOL    MW427188   0.850   5.669   0.933 -0.0819 -0.6073  0.8357
 6856SOL     OW27189   0.534   0.591   5.229 -0.1914 -0.0196  0.1208
 6856SOL    HW227190   0.542   0.603   5.324  0.4884 -0.3800  0.1123
 6856SOL    HW327191   0.481   0.665   5.200  0.7716  0.8721  0.5802
 6856SOL    MW427192   0.528   0.602   5.238  0.2380  0.1598 -0.5024
 6857SOL     OW27193   4.930   3.847   6.340  0.0407  0.1653  0.8885
 6857SOL    HW227194   4.946   3.795   6.419 -1.3747 -1.2221  0.3269
 6857SOL    HW327195   4.848   3.893   6.358  0.8984  1.6547  1.0843
 6857SOL    MW427196   4.921   3.846   6.353 -0.2097  0.0309  0.7131
 6858SOL     OW27197   2.610   4.242   2.173  0.2493  0.5771  0.3549
 6858SOL    HW227198   2.633   4.224   2.082 -0.8816 -2.9537  0.6201
 6858SOL    HW327199   2.519   4.271   2.170 -0.0744 -0.4025  0.3849
 6858SOL    MW427200   2.601   4.244   2.161  0.1737  0.7034  0.5261
 6859SOL     OW27201   2.429   3.347   3.783  0.1423  0.9269  0.1105
 6859SOL    HW227202   2.356   3.349   3.845  1.0858 -1.6379  1.4458
 6859SOL    HW327203   2.495   3.404   3.823 -0.2928  1.5011  0.0210
 6859SOL    MW427204   2.428   3.355   3.797 -0.0532 -0.0542  0.0644
 6860SOL     OW27205   4.382   6.417   2.836  0.3302  0.1943 -0.6785
 6860SOL    HW227206   4.326   6.495   2.842  0.3034  0.2019 -1.0482
 6860SOL    HW327207   4.323   6.346   2.812  0.5362  0.2741 -1.4448
 6860SOL    MW427208   4.367   6.418   2.834 -0.1052 -1.0921  0.1997
 6861SOL     OW27209   1.531   5.632   1.819 -0.2095 -0.6788  0.2898
 6861SOL    HW227210   1.524   5.703   1.883  0.0805 -0.1892 -0.2126
 6861SOL    HW327211   1.441   5.606   1.801 -0.2938 -0.8067  0.8818
 6861SOL    MW427212   1.518   5.638   1.825 -0.3994 -0.3267 -0.0062
 6862SOL     OW27213   0.082   3.681   3.275  0.4686  0.3115  0.6445
 6862SOL    HW227214   0.025   3.740   3.325 -1.3778  0.4353 -1.4524
 6862SOL    HW327215   0.057   3.593   3.305  2.3714  0.4165  2.8850
 6862SOL    MW427216   0.071   3.677   3.286  0.0699 -0.6673 -0.4808
 6863SOL     OW27217   0.798   0.873   1.445  0.7318  0.5586  0.5636
 6863SOL    HW227218   0.874   0.829   1.407  1.8600  2.0881  0.9572
 6863SOL    HW327219   0.739   0.802   1.470  0.4098 -0.6032 -2.9485
 6863SOL    MW427220   0.800   0.858   1.443  0.7056  0.2318 -0.0531
 6864SOL     OW27221   2.521   4.141   0.376 -0.3413 -0.4543 -0.0593
 6864SOL    HW227222   2.443   4.093   0.404 -0.2801 -2.1223 -2.4457
 6864SOL    HW327223   2.594   4.086   0.403 -0.1783 -0.6794 -0.9160
 6864SOL    MW427224   2.521   4.128   0.383 -0.2406 -0.1287  0.6169
 6865SOL     OW27225   5.563   3.974   5.756 -0.2971  0.4186 -0.4534
 6865SOL    HW227226   5.537   4.051   5.805 -0.4321  0.1546 -0.1085
 6865SOL    HW327227   5.481   3.934   5.728 -0.2320  0.2873 -0.4583
 6865SOL    MW427228   5.549   3.979   5.758  0.0776  0.2396  0.0957
 6866SOL     OW27229   3.573   1.414   0.787  0.0787 -0.2632  0.5242
 6866SOL    HW227230   3.520   1.483   0.825  2.3656  1.1640  1.3252
 6866SOL    HW327231   3.579   1.347   0.855 -1.5613 -0.9827  0.0041
 6866SOL    MW427232   3.567   1.414   0.801 -0.2911 -0.6135 -0.4892
 6867SOL     OW27233   2.834   5.384   0.364 -0.1689 -1.0708 -0.1624
 6867SOL    HW227234   2.871   5.469   0.385 -0.1949 -0.7735 -1.2455
 6867SOL    HW327235   2.880   5.322   0.420 -0.0724 -0.3619  0.5537
 6867SOL    MW427236   2.845   5.387   0.374 -0.4802 -0.1098 -0.7340
 6868SOL     OW27237   6.129   0.831   4.417  0.0028 -0.5403  0.4512
 6868SOL    HW227238   6.159   0.921   4.428 -1.8259  0.2566 -0.5793
 6868SOL    HW327239   6.115   0.799   4.506  2.1710 -0.4086  0.8997
 6868SOL    MW427240   6.131   0.838   4.430 -0.5096 -0.0760  0.4358
 6869SOL     OW27241   2.053   6.236   4.256 -0.0680 -0.2777 -0.5838
 6869SOL    HW227242   2.073   6.326   4.232 -0.6814  0.9360  2.8737
 6869SOL    HW327243   1.961   6.224   4.234 -0.7944  1.0114  1.4237
 6869SOL    MW427244   2.044   6.246   4.250  0.0948 -0.0741  0.0591
 6870SOL     OW27245   5.524   0.873   2.600  0.0989  0.0064 -0.0728
 6870SOL    HW227246   5.544   0.938   2.667  0.6075 -0.3515  0.1269
 6870SOL    HW327247   5.591   0.886   2.533  1.6515 -1.8273  1.0385
 6870SOL    MW427248   5.535   0.884   2.600  0.5388 -0.1983  0.2504
 6871SOL     OW27249   1.029   1.876   5.678  0.2362  0.0675  0.5254
 6871SOL    HW227250   0.990   1.958   5.645  0.6867 -0.0636 -0.3653
 6871SOL    HW327251   0.966   1.844   5.743  0.1909  1.2619  1.0912
 6871SOL    MW427252   1.015   1.883   5.682  0.0081 -0.0808  0.3522
 6872SOL     OW27253   4.266   5.919   5.887 -0.6042  0.0174 -0.3362
 6872SOL    HW227254   4.284   5.837   5.933  0.4140 -0.0556 -0.8406
 6872SOL    HW327255   4.311   5.910   5.803 -0.8752  0.9098 -0.5902
 6872SOL    MW427256   4.274   5.907   5.882  0.2543 -0.3102 -0.6227
 6873SOL     OW27257   0.510   0.920   3.487 -0.1388  0.4663 -0.0398
 6873SOL    HW227258   0.553   0.953   3.408 -0.6924  1.5848  0.1070
 6873SOL    HW327259   0.567   0.850   3.517 -0.8619 -1.2960 -2.4643
 6873SOL    MW427260   0.523   0.915   3.480 -0.0332 -0.0725 -0.3507
 6874SOL     OW27261   5.784   4.950   2.930  0.3490  0.4996  0.4254
 6874SOL    HW227262   5.724   4.879   2.906  1.9124 -0.4577 -0.8985
 6874SOL    HW327263   5.829   4.918   3.008  0.5930  0.3052  0.2074
 6874SOL    MW427264   5.782   4.936   2.937 -0.1142 -0.4139 -0.6102
 6875SOL     OW27265   0.135   5.974   3.801  0.1516  0.1005  0.1730
 6875SOL    HW227266   0.101   5.885   3.812  0.1322  0.3387  2.4075
 6875SOL    HW327267   0.229   5.965   3.815 -0.0374  0.6213  2.0453
 6875SOL    MW427268   0.143   5.961   3.804 -0.1535  0.2052 -0.3646
 6876SOL     OW27269   3.325   0.299   1.592  0.0515  0.2951 -0.1189
 6876SOL    HW227270   3.271   0.348   1.654 -0.5371 -1.0342  0.4464
 6876SOL    HW327271   3.415   0.328   1.611 -0.2986  1.3590 -0.0144
 6876SOL    MW427272   3.330   0.310   1.603  0.2919 -0.3285 -0.9478
 6877SOL     OW27273   5.623   6.207   1.784  0.4079  0.1864 -0.2840
 6877SOL    HW227274   5.574   6.205   1.866 -0.3147 -2.5982 -0.6886
 6877SOL    HW327275   5.712   6.180   1.809 -0.4266 -3.4737 -0.6038
 6877SOL    MW427276   5.628   6.203   1.798 -0.2289  0.4411 -0.2402
 6878SOL     OW27277   3.256   4.752   0.404  0.0407  0.1776 -0.1502
 6878SOL    HW227278   3.254   4.681   0.468 -0.3225  0.5681  0.2776
 6878SOL    HW327279   3.341   4.794   0.419 -0.1090  0.3658  0.1865
 6878SOL    MW427280   3.267   4.748   0.415  0.3183  0.3788 -0.3008
 6879SOL     OW27281   0.371   0.160   5.349  0.4128 -0.1827  0.2468
 6879SOL    HW227282   0.412   0.078   5.376 -0.0261 -1.0208 -1.5414
 6879SOL    HW327283   0.303   0.175   5.414  0.5557 -1.1819  0.6457
 6879SOL    MW427284   0.367   0.151   5.361  0.5367 -0.0560  0.0790
 6880SOL     OW27285   5.700   5.377   5.363 -0.2337  0.7810  0.7764
 6880SOL    HW227286   5.780   5.327   5.379  1.5051  2.4065 -1.9407
 6880SOL    HW327287   5.633   5.311   5.348  1.4837 -0.7921 -0.5748
 6880SOL    MW427288   5.702   5.362   5.363  0.2243  0.5131  0.2314
 6881SOL     OW27289   1.604   2.908   5.048 -0.2734 -0.5124  0.1284
 6881SOL    HW227290   1.628   2.882   4.959 -0.3123 -1.2421  0.3206
 6881SOL    HW327291   1.509   2.917   5.046 -0.1970  0.2519 -0.0991
 6881SOL    MW427292   1.595   2.906   5.036 -0.1156  0.3087 -0.1411
 6882SOL     OW27293   5.604   2.757   5.750  0.0295 -0.0726 -0.3353
 6882SOL    HW227294   5.515   2.787   5.768  0.1271  0.6987 -1.0469
 6882SOL    HW327295   5.634   2.814   5.679  0.8162 -0.8253 -0.6256
 6882SOL    MW427296   5.596   2.769   5.743 -0.2488  0.0276  0.0206
 6883SOL     OW27297   4.804   5.832   5.161 -0.2235  0.3451 -0.1174
 6883SOL    HW227298   4.774   5.872   5.079 -2.3504  0.4369  0.6599
 6883SOL    HW327299   4.750   5.753   5.171  1.9390 -1.2378 -0.1710
 6883SOL    MW427300   4.793   5.827   5.151  0.1225  0.2266 -0.2642
 6884SOL     OW27301   2.252   4.636   5.384 -0.3710 -0.1905  0.2593
 6884SOL    HW227302   2.175   4.668   5.337 -1.0929 -1.1704  0.7375
 6884SOL    HW327303   2.311   4.711   5.387 -1.7257  0.8970  0.7730
 6884SOL    MW427304   2.250   4.650   5.378  0.5474 -0.0150 -0.0816
 6885SOL     OW27305   1.810   2.556   4.206  0.1722  0.0806  0.0144
 6885SOL    HW227306   1.736   2.540   4.265 -0.0807 -0.7301 -0.5076
 6885SOL    HW327307   1.807   2.483   4.144  2.4627 -0.9727  1.0311
 6885SOL    MW427308   1.800   2.544   4.205  0.0449 -0.0717  0.0606
 6886SOL     OW27309   2.335   1.654   1.472  0.0706 -0.0461  0.2318
 6886SOL    HW227310   2.416   1.632   1.517 -0.7427  0.4644  2.0602
 6886SOL    HW327311   2.329   1.749   1.478 -0.1431  0.0222 -0.8614
 6886SOL    MW427312   2.345   1.664   1.479  0.3986 -0.3368 -0.1892
 6887SOL     OW27313   1.477   5.683   3.515 -0.2854  0.2007 -0.4531
 6887SOL    HW227314   1.541   5.735   3.564  0.2363 -0.2338 -0.6595
 6887SOL    HW327315   1.442   5.621   3.579 -1.0538  0.9255 -0.1581
 6887SOL    MW427316   1.481   5.682   3.530  0.0794 -0.7132  0.5797
 6888SOL     OW27317   3.555   1.672   3.288 -0.5654  0.4937 -0.3580
 6888SOL    HW227318   3.554   1.738   3.219 -1.0410  0.0278 -0.8085
 6888SOL    HW327319   3.619   1.607   3.258  0.8593  1.3529  0.6846
 6888SOL    MW427320   3.563   1.672   3.275  0.1596  0.2987  0.2445
 6889SOL     OW27321   4.126   6.126   1.480  0.2194 -0.1365 -0.0373
 6889SOL    HW227322   4.036   6.151   1.459  0.3766  0.3282 -0.1701
 6889SOL    HW327323   4.131   6.136   1.575  0.0014 -0.6092  0.0299
 6889SOL    MW427324   4.114   6.131   1.490 -0.0250  0.3971 -0.0585
 6890SOL     OW27325   2.988   1.758   2.654  0.6801 -0.1775  0.5296
 6890SOL    HW227326   3.034   1.704   2.719 -0.3127 -0.5731  0.9367
 6890SOL    HW327327   2.895   1.743   2.673  0.3745  0.0825 -0.6856
 6890SOL    MW427328   2.982   1.749   2.665  0.1793  0.5619  0.1193
 6891SOL     OW27329   2.018   3.409   0.730  0.2005 -0.1641 -0.2200
 6891SOL    HW227330   2.051   3.489   0.771 -0.1646 -0.4760  0.7198
 6891SOL    HW327331   2.085   3.343   0.749 -0.4858 -0.5719  0.8597
 6891SOL    MW427332   2.031   3.411   0.738  0.4105  0.0225  0.1690
 6892SOL     OW27333  -0.002   1.604   6.367 -0.4609  0.6180  0.3969
 6892SOL    HW227334  -0.030   1.694   6.355 -0.4800  0.5217 -0.3060
 6892SOL    HW327335   0.079   1.597   6.317 -0.7956  0.0736 -0.0766
 6892SOL    MW427336   0.005   1.615   6.359 -0.1150  0.1544  0.5582
 6893SOL     OW27337   5.687   0.035   3.550  0.2748  0.1193 -0.2695
 6893SOL    HW227338   5.692  -0.003   3.637 -1.9744 -0.2944 -0.2436
 6893SOL    HW327339   5.702  -0.038   3.491 -1.0074 -0.2342 -0.1991
 6893SOL    MW427340   5.689   0.021   3.554 -0.4241 -0.3222 -0.5579
 6894SOL     OW27341   6.199   4.446   0.471 -0.2917 -0.2379  0.1053
 6894SOL    HW227342   6.128   4.479   0.526 -0.2288  0.8252 -0.4193
 6894SOL    HW327343   6.154   4.416   0.391 -0.3179 -1.1987  0.4664
 6894SOL    MW427344   6.183   4.446   0.468  0.3286 -0.5729 -0.2582
 6895SOL     OW27345   3.075   1.051   2.427 -0.0903 -0.4640 -0.3598
 6895SOL    HW227346   3.139   0.992   2.387 -1.0061 -2.8040  1.3791
 6895SOL    HW327347   3.127   1.109   2.483  0.6076 -1.7065  0.3067
 6895SOL    MW427348   3.090   1.051   2.429  0.0254  0.0212  0.0365
 6896SOL     OW27349   3.533   5.790   5.989 -0.8192  0.3572 -0.8170
 6896SOL    HW227350   3.505   5.703   5.962 -0.4613 -0.2201  0.6012
 6896SOL    HW327351   3.600   5.815   5.926  0.5128 -1.2548 -0.1183
 6896SOL    MW427352   3.538   5.782   5.977 -0.2878  0.2659  0.0907
 6897SOL     OW27353   2.863   4.697   1.181 -0.0703  0.3827 -0.3517
 6897SOL    HW227354   2.875   4.735   1.268  1.3399 -2.2318  0.7175
 6897SOL    HW327355   2.951   4.701   1.142 -0.7788  1.9159 -1.8786
 6897SOL    MW427356   2.876   4.702   1.188 -0.5121 -0.0767  0.1725
 6898SOL     OW27357   1.795   3.841   4.169 -0.6736  0.2227 -0.0139
 6898SOL    HW227358   1.704   3.819   4.148 -1.1587  1.9548  0.1044
 6898SOL    HW327359   1.788   3.913   4.231  0.8012 -0.6023  1.1665
 6898SOL    MW427360   1.782   3.847   4.174 -0.2170  0.2493 -0.4532
 6899SOL     OW27361   2.745   0.260   2.367  0.1974 -0.3683  0.1299
 6899SOL    HW227362   2.688   0.259   2.444 -3.2625  2.4309 -2.1019
 6899SOL    HW327363   2.764   0.167   2.350 -2.1641 -1.3345  2.1073
 6899SOL    MW427364   2.740   0.247   2.375 -0.5220  0.3103  0.2189
 6900SOL     OW27365   3.835   0.598   3.375 -0.2676  0.3615  0.2932
 6900SOL    HW227366   3.902   0.546   3.421 -1.7075 -0.5702  1.4137
 6900SOL    HW327367   3.864   0.688   3.385  0.2458  0.0613  1.7650
 6900SOL    MW427368   3.848   0.603   3.383  0.1891 -0.1150 -0.7390
 6901SOL     OW27369   4.734   6.064   4.123 -0.3764 -0.2026 -0.1095
 6901SOL    HW227370   4.806   6.084   4.182  1.2984  1.3992 -2.4643
 6901SOL    HW327371   4.753   5.977   4.089  0.2957  0.0666 -0.4412
 6901SOL    MW427372   4.746   6.055   4.126  0.2362 -0.0303  0.1653
 6902SOL     OW27373   0.617   5.327   5.493  0.0385 -0.7348  0.3446
 6902SOL    HW227374   0.652   5.292   5.411  0.2398  1.4480 -0.5569
 6902SOL    HW327375   0.523   5.305   5.489 -0.2584  0.6197 -1.2256
 6902SOL    MW427376   0.609   5.320   5.482  0.1521 -0.1067  0.5658
 6903SOL     OW27377   6.197   0.288   0.989  0.2154 -0.5195  0.1735
 6903SOL    HW227378   6.122   0.229   0.977  0.1634 -0.4767  0.2839
 6903SOL    HW327379   6.270   0.243   0.945  0.4803 -1.2815  1.3343
 6903SOL    MW427380   6.197   0.274   0.982  0.9228  0.1460 -0.0843
 6904SOL     OW27381   3.245   1.224   6.246 -0.1037 -0.0984 -0.3070
 6904SOL    HW227382   3.217   1.301   6.297  1.6456 -0.0703  0.6822
 6904SOL    HW327383   3.272   1.161   6.312  2.2406 -0.0571 -1.1542
 6904SOL    MW427384   3.245   1.226   6.262 -0.1258  0.2474  0.6832
 6905SOL     OW27385   1.216   3.333   3.435 -0.1297 -0.3261  0.4809
 6905SOL    HW227386   1.260   3.346   3.519  2.1362 -2.0050 -0.3395
 6905SOL    HW327387   1.146   3.270   3.454 -0.0311 -0.2233  1.2126
 6905SOL    MW427388   1.213   3.327   3.449 -0.0295 -0.3964  0.2063
 6906SOL     OW27389   1.080   1.498   0.536  0.0467  0.0676 -0.1406
 6906SOL    HW227390   1.045   1.575   0.580  0.7894 -0.1517  0.8778
 6906SOL    HW327391   1.106   1.529   0.450  1.1027  1.1838  0.5385
 6906SOL    MW427392   1.079   1.512   0.531 -0.9031  0.3979 -0.1852
 6907SOL     OW27393   2.389   2.467   3.047  0.1527 -0.6227 -0.2751
 6907SOL    HW227394   2.333   2.536   3.082 -0.0471  0.9453 -3.3703
 6907SOL    HW327395   2.408   2.411   3.123 -1.0998  1.8181  2.0037
 6907SOL    MW427396   2.384   2.469   3.062  0.5370  0.1647 -0.0089
 6908SOL     OW27397   3.241   0.859   2.958 -0.1953 -0.2305  0.5229
 6908SOL    HW227398   3.263   0.792   2.893  2.0698 -1.7073  2.6901
 6908SOL    HW327399   3.165   0.824   3.005  1.3939 -1.7000  2.0996
 6908SOL    MW427400   3.234   0.846   2.955  1.2055 -0.0891 -0.0954
 6909SOL     OW27401   2.639   4.564   4.719 -0.3698 -0.1653 -0.2636
 6909SOL    HW227402   2.627   4.654   4.691  1.4898  0.2054 -0.0247
 6909SOL    HW327403   2.639   4.567   4.814 -1.2782 -0.5891 -0.2380
 6909SOL    MW427404   2.638   4.576   4.728 -0.0312 -0.3577  0.4466
 6910SOL     OW27405   2.656   1.871   2.453 -0.2192 -0.4621 -0.4199
 6910SOL    HW227406   2.731   1.931   2.451 -0.3394 -0.3079 -2.7467
 6910SOL    HW327407   2.677   1.804   2.388 -0.0018 -3.1762  2.2070
 6910SOL    MW427408   2.669   1.870   2.444 -0.2586  0.6856  0.0734
 6911SOL     OW27409   0.838   3.685   1.399 -0.4491  0.0628  0.2867
 6911SOL    HW227410   0.807   3.596   1.416 -0.4097  0.3040  1.7381
 6911SOL    HW327411   0.802   3.707   1.313 -2.8020 -0.3373  1.1018
 6911SOL    MW427412   0.829   3.676   1.390 -0.1677 -0.1036  0.3526
 6912SOL     OW27413   4.789   0.452   4.835  0.0636 -0.1939 -0.3372
 6912SOL    HW227414   4.846   0.445   4.912 -0.4106  0.4823  0.0968
 6912SOL    HW327415   4.708   0.408   4.861 -0.3651  0.6730 -0.1659
 6912SOL    MW427416   4.785   0.446   4.849 -0.2149 -0.2390 -0.1114
 6913SOL     OW27417   1.179   1.046   3.170  0.0130 -0.2019  0.4934
 6913SOL    HW227418   1.196   1.134   3.138  0.0547 -0.8302 -1.3273
 6913SOL    HW327419   1.266   1.007   3.178 -0.0408 -0.2943  0.6270
 6913SOL    MW427420   1.193   1.052   3.167  0.1030 -0.3311 -0.2935
 6914SOL     OW27421   6.379   0.262   2.181  0.1813 -0.1107  0.4391
 6914SOL    HW227422   6.452   0.298   2.231  0.8038 -0.4361 -0.2126
 6914SOL    HW327423   6.313   0.240   2.247  0.8542 -0.2405  1.0800
 6914SOL    MW427424   6.380   0.264   2.196 -0.7293  0.0547  0.5096
 6915SOL     OW27425   4.092   4.978   2.067 -0.0273 -0.1689  0.2317
 6915SOL    HW227426   4.187   4.970   2.061  0.0329  0.2225  0.5845
 6915SOL    HW327427   4.062   4.892   2.095  0.1149 -0.6269 -1.0065
 6915SOL    MW427428   4.101   4.966   2.070  0.5586  0.0036 -0.3045
 6916SOL     OW27429   4.880   3.111   0.521  0.8041 -0.0492 -0.6625
 6916SOL    HW227430   4.967   3.076   0.541  1.5113 -0.0008 -3.3328
 6916SOL    HW327431   4.883   3.201   0.553  2.9825  1.0171 -3.4392
 6916SOL    MW427432   4.892   3.118   0.528 -0.0582  0.1912 -0.1203
 6917SOL     OW27433   3.607   4.141   1.527 -0.2506 -0.0314  0.3316
 6917SOL    HW227434   3.687   4.138   1.474  0.2289 -0.2781  1.0469
 6917SOL    HW327435   3.638   4.156   1.616 -1.0217  0.0705  0.5928
 6917SOL    MW427436   3.622   4.142   1.531  0.3672  0.4959 -0.5502
 6918SOL     OW27437   3.233   2.936   5.496 -0.2297 -0.6099 -0.4751
 6918SOL    HW227438   3.219   2.943   5.402  1.0190  1.3888 -0.5695
 6918SOL    HW327439   3.327   2.919   5.506  0.1538  1.7089  0.4119
 6918SOL    MW427440   3.243   2.934   5.485 -0.2067 -0.5599 -0.1913
 6919SOL     OW27441   5.355   5.223   1.670 -0.1554  0.3769 -0.5488
 6919SOL    HW227442   5.410   5.300   1.658 -0.7436  0.5987 -2.1688
 6919SOL    HW327443   5.388   5.159   1.606  0.9252 -1.1279  1.3932
 6919SOL    MW427444   5.366   5.225   1.660  0.1870 -0.3311  0.0816
 6920SOL     OW27445   0.718   6.121   2.292  0.2461 -0.1640  0.5277
 6920SOL    HW227446   0.763   6.134   2.208  0.2350  0.7847  0.6516
 6920SOL    HW327447   0.669   6.202   2.305 -0.2295 -0.5479  1.1680
 6920SOL    MW427448   0.717   6.133   2.283  1.0135  0.1499  0.1614
 6921SOL     OW27449   3.772   4.254   3.351 -0.7601  0.5942 -0.0951
 6921SOL    HW227450   3.787   4.280   3.442  0.0367 -1.6680  0.4847
 6921SOL    HW327451   3.678   4.265   3.338 -1.0788 -0.1219  1.3908
 6921SOL    MW427452   3.762   4.259   3.362  0.0582  0.5275 -0.4722
 6922SOL     OW27453   0.040   1.118   1.509  0.2643 -0.1462  0.4722
 6922SOL    HW227454   0.012   1.194   1.457 -0.3858 -0.2695  0.6321
 6922SOL    HW327455  -0.041   1.087   1.550  0.2140 -1.8463 -0.7801
 6922SOL    MW427456   0.025   1.124   1.507 -0.8297 -0.2195  0.2099
 6923SOL     OW27457   4.612   0.746   5.088 -0.3031 -1.0996  0.0051
 6923SOL    HW227458   4.525   0.735   5.050 -1.1723 -0.7498  1.8080
 6923SOL    HW327459   4.672   0.729   5.015 -1.8684  0.7644 -1.8597
 6923SOL    MW427460   4.609   0.743   5.073 -0.4587 -0.4625  0.5532
 6924SOL     OW27461   2.714   1.053   4.735  0.3119 -0.1328  0.5187
 6924SOL    HW227462   2.704   1.148   4.743 -1.7918 -0.2007 -0.6442
 6924SOL    HW327463   2.660   1.018   4.806 -0.9579 -0.4640 -0.5902
 6924SOL    MW427464   2.706   1.061   4.746 -0.4534  0.3282 -0.2241
 6925SOL     OW27465   3.209   6.004   3.581 -0.4784 -0.0425  0.5025
 6925SOL    HW227466   3.271   5.934   3.560  1.1187  1.5494 -0.4225
 6925SOL    HW327467   3.221   6.019   3.675  1.8482  1.3373  0.0618
 6925SOL    MW427468   3.219   5.997   3.591 -0.5357  0.4572 -0.7279
 6926SOL     OW27469   1.017   3.799   0.465 -0.3969 -0.3541 -0.1387
 6926SOL    HW227470   1.004   3.707   0.441 -0.5851 -0.4900  0.4501
 6926SOL    HW327471   1.052   3.795   0.554 -1.7696  0.1693  0.4517
 6926SOL    MW427472   1.019   3.786   0.474 -0.2609 -0.1395  0.0449
 6927SOL     OW27473   3.778   0.696   0.636  0.1014 -0.4861 -0.3807
 6927SOL    HW227474   3.779   0.634   0.709  1.1910 -1.9421 -1.5770
 6927SOL    HW327475   3.701   0.671   0.585  0.2444 -0.5053 -0.5862
 6927SOL    MW427476   3.768   0.684   0.639 -0.0798 -0.4786 -0.3331
 6928SOL     OW27477   1.625   4.496   1.753 -0.0666  0.2719  0.2294
 6928SOL    HW227478   1.717   4.503   1.729 -0.3022  1.8175 -0.3061
 6928SOL    HW327479   1.577   4.505   1.671 -0.7110 -0.4506  0.5123
 6928SOL    MW427480   1.631   4.498   1.739 -0.4154  0.6609 -0.5488
 6929SOL     OW27481   3.198   1.557   4.063 -0.2374  0.5120 -0.2023
 6929SOL    HW227482   3.274   1.539   4.117  0.3064  0.6068 -0.9235
 6929SOL    HW327483   3.187   1.478   4.010 -0.9762  0.2798  0.2830
 6929SOL    MW427484   3.206   1.545   4.063  0.0176  0.2747 -0.4239
 6930SOL     OW27485   6.418   0.676   3.213 -0.1310  0.0195  0.2914
 6930SOL    HW227486   6.360   0.747   3.244  0.9572  0.6267  1.0004
 6930SOL    HW327487   6.475   0.718   3.148  1.3886  0.1597  1.6489
 6930SOL    MW427488   6.418   0.691   3.209  0.4354  0.1217 -0.1954
 6931SOL     OW27489   0.073   1.969   2.277  0.8540 -0.2494 -0.2099
 6931SOL    HW227490   0.083   1.882   2.315  1.2482 -0.1849 -0.1622
 6931SOL    HW327491   0.156   1.985   2.232  0.8051  0.1254 -0.1662
 6931SOL    MW427492   0.085   1.960   2.276  0.2440 -0.0590 -0.3774
 6932SOL     OW27493   2.567   5.852   3.967 -0.3348  0.3767 -0.0475
 6932SOL    HW227494   2.474   5.842   3.984 -0.1884  0.0655  0.5855
 6932SOL    HW327495   2.610   5.819   4.045  0.3168  0.3470 -0.4077
 6932SOL    MW427496   2.561   5.847   3.979 -0.4747 -0.4519 -0.1182
 6933SOL     OW27497   2.015   3.010   3.060 -0.1363 -0.2400 -0.3163
 6933SOL    HW227498   1.950   2.947   3.029 -0.7351  1.4901 -2.8694
 6933SOL    HW327499   2.091   2.996   3.005 -0.0024  0.7238 -0.3994
 6933SOL    MW427500   2.016   3.000   3.049  0.2556 -0.2872  0.6787
 6934SOL     OW27501   1.998   2.002   6.131 -0.2425  0.2822  0.4208
 6934SOL    HW227502   1.982   1.914   6.096  1.7667 -0.3526  1.0073
 6934SOL    HW327503   2.032   2.051   6.056  1.5964 -0.3503  0.8016
 6934SOL    MW427504   2.000   1.997   6.116 -0.0004 -0.0996 -0.6207
 6935SOL     OW27505   5.498   4.470   1.667  0.1175  0.2262  0.2549
 6935SOL    HW227506   5.493   4.528   1.743 -3.1057  0.3295  0.0811
 6935SOL    HW327507   5.407   4.448   1.647  1.0113 -1.8381 -2.0521
 6935SOL    MW427508   5.485   4.475   1.674  0.3144 -0.2079 -0.3082
 6936SOL     OW27509   0.587   3.868   2.786 -0.1328  0.0682 -0.5856
 6936SOL    HW227510   0.561   3.852   2.877  1.7462  0.3452  0.0380
 6936SOL    HW327511   0.661   3.809   2.771  1.2499  1.8489 -1.0674
 6936SOL    MW427512   0.593   3.858   2.796 -0.0331 -0.3486  0.3971
 6937SOL     OW27513   0.970   5.972   5.656 -0.1584 -0.1765  0.7851
 6937SOL    HW227514   0.934   5.907   5.596  1.5707  0.3830 -0.9899
 6937SOL    HW327515   1.031   6.023   5.602 -0.3156  1.9449  2.4652
 6937SOL    MW427516   0.973   5.970   5.641  0.3100  0.3598  0.0550
 6938SOL     OW27517   2.145   2.486   5.839  0.1510 -0.1138 -0.4742
 6938SOL    HW227518   2.190   2.570   5.837  1.9730 -1.0429 -0.2036
 6938SOL    HW327519   2.168   2.445   5.756 -0.5907 -0.4292 -0.5288
 6938SOL    MW427520   2.154   2.492   5.828 -0.2866 -0.0844  0.0967
 6939SOL     OW27521   3.078   4.720   5.801 -0.2026  0.1089 -0.9989
 6939SOL    HW227522   2.986   4.704   5.779 -0.5993  1.1575 -0.2386
 6939SOL    HW327523   3.120   4.740   5.718 -0.2211 -2.1934 -1.6156
 6939SOL    MW427524   3.071   4.721   5.787  0.1728  0.2002 -0.7855
 6940SOL     OW27525   1.209   6.396   4.764  0.0863  0.4751  0.5804
 6940SOL    HW227526   1.241   6.377   4.852 -0.2555  0.1951  0.6504
 6940SOL    HW327527   1.233   6.319   4.713  1.7931  1.3395  0.0006
 6940SOL    MW427528   1.216   6.383   4.769  0.1929 -0.0125 -0.1598
 6941SOL     OW27529   2.080   2.445   5.411  0.1798 -0.0744  0.1475
 6941SOL    HW227530   2.113   2.387   5.342  0.4724 -1.0757  1.1085
 6941SOL    HW327531   1.985   2.436   5.405  0.2133 -0.4390  0.1034
 6941SOL    MW427532   2.072   2.436   5.401 -0.8823  0.5833 -0.3605
 6942SOL     OW27533   1.447   1.176   0.379  0.1409  0.1964 -0.3858
 6942SOL    HW227534   1.447   1.257   0.428 -2.5342  0.5735 -0.8625
 6942SOL    HW327535   1.410   1.111   0.439 -1.6668  0.3208 -1.2856
 6942SOL    MW427536   1.442   1.178   0.393  0.0327  0.2477  0.1348
 6943SOL     OW27537   2.719   3.448   3.520  0.1219  0.2948  0.3597
 6943SOL    HW227538   2.643   3.504   3.507 -0.2087 -0.1259  0.4638
 6943SOL    HW327539   2.730   3.403   3.437 -0.4912 -0.5572  0.7328
 6943SOL    MW427540   2.711   3.450   3.508 -0.5413 -0.1112  0.1617
 6944SOL     OW27541   1.026   5.410   1.571  0.1748 -0.2189 -0.2276
 6944SOL    HW227542   1.086   5.398   1.644  0.7697  1.9980 -0.2609
 6944SOL    HW327543   0.952   5.354   1.591  0.0771  0.7049  2.3683
 6944SOL    MW427544   1.024   5.401   1.583  0.2406 -0.1033 -0.2310
 6945SOL     OW27545   0.395   5.387   3.618 -0.2412  0.3154 -0.1436
 6945SOL    HW227546   0.434   5.300   3.629 -1.3650 -0.2794 -0.6314
 6945SOL    HW327547   0.460   5.436   3.567 -0.2246 -0.7391 -1.1981
 6945SOL    MW427548   0.409   5.382   3.613 -0.2031  0.1398  0.0384
 6946SOL     OW27549   0.352   3.460   4.282  0.8202 -0.3677  0.4558
 6946SOL    HW227550   0.416   3.488   4.217  0.2437  0.1449  0.1071
 6946SOL    HW327551   0.291   3.405   4.233 -1.4737  2.5664 -0.2106
 6946SOL    MW427552   0.353   3.456   4.267  0.2530 -0.1224 -0.0455
 6947SOL     OW27553   2.786   0.191   3.360 -0.2208 -0.5677  0.3895
 6947SOL    HW227554   2.745   0.262   3.409  2.2692  0.7358  0.7101
 6947SOL    HW327555   2.874   0.184   3.396  0.3649 -2.2768 -1.2145
 6947SOL    MW427556   2.792   0.199   3.371  0.2838  0.6371  0.2047
 6948SOL     OW27557   4.501   0.633   1.053 -0.2173  0.7393 -0.5260
 6948SOL    HW227558   4.533   0.667   1.136 -1.0510  1.4277 -0.4692
 6948SOL    HW327559   4.509   0.538   1.061  0.2322  0.8280  0.1222
 6948SOL    MW427560   4.506   0.625   1.065 -0.2077  0.1135  0.0295
 6949SOL     OW27561   5.358   4.594   5.515 -0.1883 -0.1997 -0.2149
 6949SOL    HW227562   5.437   4.546   5.489 -1.0883 -1.4166 -0.8733
 6949SOL    HW327563   5.389   4.678   5.547  1.6407 -1.7648  2.4902
 6949SOL    MW427564   5.372   4.598   5.516  0.1259 -0.0455 -0.3033
 6950SOL     OW27565   1.835   1.209   0.358 -0.4835  0.1877  0.3918
 6950SOL    HW227566   1.811   1.140   0.297  0.8745  0.8892 -1.0130
 6950SOL    HW327567   1.754   1.258   0.373 -0.9468 -0.3097 -0.4457
 6950SOL    MW427568   1.821   1.207   0.352 -0.6387 -0.2989  0.6095
 6951SOL     OW27569   6.356   5.528   1.532  0.6291  0.5320 -0.0251
 6951SOL    HW227570   6.282   5.487   1.487 -0.3682  0.7264  1.3827
 6951SOL    HW327571   6.431   5.472   1.511 -0.6346 -1.9875  1.6800
 6951SOL    MW427572   6.357   5.515   1.523  0.2489  0.1519  0.6429
 6952SOL     OW27573   5.998   4.193   4.808  0.0707 -0.1825 -0.1821
 6952SOL    HW227574   6.027   4.228   4.892 -0.7571 -1.6695  0.7686
 6952SOL    HW327575   5.934   4.257   4.776  1.0528  0.8490 -0.1314
 6952SOL    MW427576   5.993   4.206   4.815  0.3906  0.1362 -0.0243
 6953SOL     OW27577   3.192   0.763   5.850 -0.5971  0.0118  0.0091
 6953SOL    HW227578   3.154   0.837   5.803  0.6460 -0.5266 -1.9901
 6953SOL    HW327579   3.182   0.689   5.790 -0.4885 -1.1354  1.3410
 6953SOL    MW427580   3.186   0.763   5.836  0.3309  0.4913 -0.5096
 6954SOL     OW27581   0.133   1.455   4.489  0.1794  0.2720 -0.0655
 6954SOL    HW227582   0.136   1.364   4.459 -2.9473  0.9124 -2.9598
 6954SOL    HW327583   0.170   1.506   4.416 -0.5113  1.4729  0.3872
 6954SOL    MW427584   0.138   1.450   4.475 -0.3132  0.0480 -0.2226
 6955SOL     OW27585   5.571   0.042   0.461  0.3259  0.1439 -0.3922
 6955SOL    HW227586   5.597  -0.014   0.387 -0.5327 -0.1108 -0.5181
 6955SOL    HW327587   5.477   0.025   0.471 -0.3069  2.6529 -1.3749
 6955SOL    MW427588   5.562   0.032   0.452 -0.2615 -0.0514 -0.8934
 6956SOL     OW27589   3.400   2.419   3.616  0.1788 -0.1399 -0.1495
 6956SOL    HW227590   3.377   2.326   3.612 -0.0017 -0.0477 -2.1453
 6956SOL    HW327591   3.494   2.421   3.599 -0.0542  0.1107 -1.4956
 6956SOL    MW427592   3.409   2.407   3.613  0.5014 -0.4447 -0.1320
 6957SOL     OW27593   1.599   0.860   3.391 -0.5180 -0.0292  0.1223
 6957SOL    HW227594   1.510   0.893   3.383 -0.5588 -0.4021 -1.1906
 6957SOL    HW327595   1.647   0.903   3.319  0.0552 -0.7829  0.0453
 6957SOL    MW427596   1.594   0.870   3.380  0.3731 -0.1174  0.2271
 6958SOL     OW27597   6.008   3.922   1.790 -0.7266 -0.6124  0.3859
 6958SOL    HW227598   5.949   3.850   1.812 -1.9422  0.5793  1.2225
 6958SOL    HW327599   5.959   4.001   1.813  0.4714  0.5054 -0.7110
 6958SOL    MW427600   5.994   3.923   1.796 -0.1687 -0.1569  0.3715
 6959SOL     OW27601   6.090   4.185   2.773  0.7083  0.5120  0.1517
 6959SOL    HW227602   6.061   4.276   2.769 -1.4519 -0.0984  0.2976
 6959SOL    HW327603   6.185   4.189   2.763  0.5282  2.6550 -1.3858
 6959SOL    MW427604   6.098   4.197   2.771  0.5555 -0.3402  0.1492
 6960SOL     OW27605   5.075   2.667   4.166 -0.8838  0.1844 -0.6819
 6960SOL    HW227606   5.121   2.732   4.114 -1.0851  0.4737 -0.5038
 6960SOL    HW327607   4.983   2.680   4.145 -1.0674  0.9928  0.4882
 6960SOL    MW427608   5.069   2.677   4.157  0.1206  0.0736 -0.1202
 6961SOL     OW27609   3.803   5.647   4.952  0.1919 -0.0243 -0.6341
 6961SOL    HW227610   3.818   5.563   4.994  2.7600  0.9961  0.6885
 6961SOL    HW327611   3.708   5.661   4.959  0.1052 -1.3540  2.0141
 6961SOL    MW427612   3.792   5.638   4.958  0.4398 -0.5371 -1.2335
 6962SOL     OW27613   1.842   6.167   0.049  0.2672 -0.0653  0.1343
 6962SOL    HW227614   1.813   6.245   0.095  1.0127 -0.1681  0.8175
 6962SOL    HW327615   1.831   6.096   0.113 -0.7289 -0.5846 -0.5924
 6962SOL    MW427616   1.837   6.168   0.064  0.0911 -0.4052 -0.1341
 6963SOL     OW27617   6.101   0.467   5.185  0.4820  0.0875 -0.6452
 6963SOL    HW227618   6.080   0.559   5.168 -1.6537 -0.2361 -0.0623
 6963SOL    HW327619   6.174   0.471   5.248  0.9901  1.3453 -1.2668
 6963SOL    MW427620   6.108   0.480   5.191  0.5035  0.6160  0.6071
 6964SOL     OW27621   5.238   0.881   0.946  0.5926 -0.3070  0.0572
 6964SOL    HW227622   5.320   0.930   0.940  1.7970 -2.2582 -0.3690
 6964SOL    HW327623   5.235   0.830   0.864 -0.6938 -0.7906  0.3838
 6964SOL    MW427624   5.248   0.881   0.934 -0.3388  0.0711 -0.1686
 6965SOL     OW27625   2.407   4.245   3.429  0.3342  0.5370  0.2556
 6965SOL    HW227626   2.417   4.320   3.370 -0.5120 -0.8943 -1.8434
 6965SOL    HW327627   2.376   4.283   3.511  2.0118  2.6791 -0.0065
 6965SOL    MW427628   2.404   4.260   3.432 -0.4394 -0.4774 -0.3863
 6966SOL     OW27629   4.866   1.053   0.486  0.2039  0.0514 -0.2607
 6966SOL    HW227630   4.838   1.014   0.403  0.4609  0.6664 -0.6476
 6966SOL    HW327631   4.790   1.103   0.516 -0.1553 -0.8099  0.2798
 6966SOL    MW427632   4.852   1.054   0.479  0.0382  0.1767  0.5418
 6967SOL     OW27633   3.639   1.465   2.517  0.1752  0.3145 -0.4110
 6967SOL    HW227634   3.653   1.532   2.449  0.3773  2.1621  1.3407
 6967SOL    HW327635   3.702   1.488   2.585  0.2629 -1.7446  0.2657
 6967SOL    MW427636   3.649   1.477   2.517 -0.1054 -0.0998 -0.0825
 6968SOL     OW27637   1.673   0.446   0.704 -0.2578  0.3159  0.1692
 6968SOL    HW227638   1.592   0.474   0.747 -1.2755 -0.4924 -1.1363
 6968SOL    HW327639   1.697   0.364   0.748 -0.0337  0.6434  0.6712
 6968SOL    MW427640   1.666   0.439   0.715 -0.0827  0.1875  0.0114
 6969SOL     OW27641   0.097   5.215   0.427  0.0247 -0.0189 -0.2444
 6969SOL    HW227642   0.105   5.125   0.458  0.7816 -0.3785 -1.4316
 6969SOL    HW327643   0.185   5.252   0.436 -0.0058  0.2270 -0.8598
 6969SOL    MW427644   0.110   5.208   0.432  0.5474  0.2559 -0.0987
 6970SOL     OW27645   5.372   1.743   4.495 -0.2523 -0.0314  0.2034
 6970SOL    HW227646   5.350   1.769   4.584  2.6255 -0.0981  1.0325
 6970SOL    HW327647   5.377   1.826   4.446  0.6129  0.2564  0.7544
 6970SOL    MW427648   5.370   1.758   4.500 -0.4207 -0.2792 -0.1875
 6971SOL     OW27649   3.781   3.896   1.635  0.3816  0.1256 -0.6521
 6971SOL    HW227650   3.809   3.804   1.632  1.1455  0.3584 -0.9697
 6971SOL    HW327651   3.841   3.941   1.575  0.7698  1.0237  0.3753
 6971SOL    MW427652   3.793   3.889   1.627 -0.0039 -0.6128  0.0083
 6972SOL     OW27653   4.241   3.290   6.269 -0.4431  0.1328 -0.8743
 6972SOL    HW227654   4.227   3.325   6.358 -0.1656  0.5729 -0.9973
 6972SOL    HW327655   4.162   3.240   6.250 -1.2463  1.4240 -1.0264
 6972SOL    MW427656   4.229   3.288   6.279 -0.5607  0.0950  0.0753
 6973SOL     OW27657   1.606   3.996   6.018  0.3841 -0.3495  0.0386
 6973SOL    HW227658   1.662   4.072   6.006  1.2925 -1.2003 -1.3835
 6973SOL    HW327659   1.580   3.999   6.110 -0.1144  2.0042 -0.1252
 6973SOL    MW427660   1.610   4.006   6.029  0.1351  0.4934 -0.3010
 6974SOL     OW27661   5.978   3.537   4.700 -0.0313 -0.1644 -0.0367
 6974SOL    HW227662   6.065   3.510   4.674  0.4057  0.4176  0.7748
 6974SOL    HW327663   5.941   3.462   4.746 -0.1400 -0.5723 -0.7855
 6974SOL    MW427664   5.984   3.524   4.703  0.6656 -0.7252 -0.4694
 6975SOL     OW27665   0.097   2.711   4.073  0.0932 -0.2523  0.3530
 6975SOL    HW227666   0.127   2.771   4.006 -2.3362 -2.2917 -2.8488
 6975SOL    HW327667   0.153   2.634   4.064 -0.1455 -0.4835  0.8009
 6975SOL    MW427668   0.108   2.708   4.063 -0.4283 -0.2829  0.4439
 6976SOL     OW27669   1.963   2.869   0.772  0.0079 -0.1377  0.0258
 6976SOL    HW227670   1.961   2.914   0.688 -1.0573 -0.1789  0.0164
 6976SOL    HW327671   1.889   2.906   0.821  0.3582 -0.4130  0.7890
 6976SOL    MW427672   1.953   2.880   0.768 -0.1895  0.4225 -0.4766
 6977SOL     OW27673   2.276   5.318   1.016 -0.1458 -0.6266  0.2896
 6977SOL    HW227674   2.348   5.256   1.027 -1.2834 -2.9683 -3.6344
 6977SOL    HW327675   2.319   5.402   1.001  1.8908 -1.9305 -1.9119
 6977SOL    MW427676   2.291   5.321   1.016 -0.1396 -0.4784  0.2862
 6978SOL     OW27677   0.652   5.595   5.439  0.2266 -0.5286  0.2325
 6978SOL    HW227678   0.625   5.506   5.461  0.5900 -1.2995 -2.1067
 6978SOL    HW327679   0.584   5.626   5.379  0.0909  0.8192  1.0377
 6978SOL    MW427680   0.639   5.587   5.434 -0.7231  0.0470 -0.7141
 6979SOL     OW27681   0.700   1.881   2.874 -0.5441  0.0076  0.1650
 6979SOL    HW227682   0.740   1.924   2.949  0.2915  1.2530 -0.9290
 6979SOL    HW327683   0.763   1.895   2.803 -0.0520 -3.3139 -0.2396
 6979SOL    MW427684   0.714   1.889   2.874  0.2932  0.9319 -0.0525
 6980SOL     OW27685   1.231   3.417   1.670 -0.3553 -0.4393  0.0169
 6980SOL    HW227686   1.181   3.453   1.597 -0.9435  0.2300  0.7251
 6980SOL    HW327687   1.168   3.410   1.741  0.4909  0.1737  0.8604
 6980SOL    MW427688   1.216   3.421   1.670  0.0560  0.6643  0.2374
 6981SOL     OW27689   2.755   1.339   5.957 -0.1469 -0.2663 -1.0230
 6981SOL    HW227690   2.797   1.268   6.005  0.9703  0.5297 -0.7747
 6981SOL    HW327691   2.662   1.324   5.968  0.0608 -0.3787  1.0334
 6981SOL    MW427692   2.749   1.328   5.965 -0.5424  0.4352 -0.0938
 6982SOL     OW27693   1.709   3.740   0.310 -0.1638 -0.1080  0.1273
 6982SOL    HW227694   1.632   3.758   0.257  0.1658  0.5887 -0.1338
 6982SOL    HW327695   1.709   3.645   0.323 -0.7248 -0.1771 -0.3835
 6982SOL    MW427696   1.699   3.730   0.305 -0.2387  0.0344  0.0199
 6983SOL     OW27697   2.457   5.086   2.254 -0.0046 -0.3554  0.1392
 6983SOL    HW227698   2.438   5.083   2.160  0.9187  0.7992 -0.1096
 6983SOL    HW327699   2.512   5.164   2.265 -1.7875  0.7775  1.9434
 6983SOL    MW427700   2.462   5.096   2.243  0.2886 -0.0121 -0.6800
 6984SOL     OW27701   2.310   3.930   4.521  0.4208 -0.1801  0.0751
 6984SOL    HW227702   2.360   3.968   4.449  0.9683 -0.3027  0.3825
 6984SOL    HW327703   2.341   3.839   4.526 -0.4158 -0.4935 -0.2437
 6984SOL    MW427704   2.320   3.923   4.512  0.2221  0.1385 -0.5110
 6985SOL     OW27705   4.054   1.718   1.401 -0.8563 -0.6389 -0.0287
 6985SOL    HW227706   3.991   1.765   1.455  1.8025  1.0622  1.8303
 6985SOL    HW327707   4.064   1.773   1.323 -0.5293 -0.0596  0.4115
 6985SOL    MW427708   4.047   1.731   1.398  0.6797  0.9461 -0.1078
 6986SOL     OW27709   2.966   4.249   1.677 -0.1840 -0.0649 -0.1172
 6986SOL    HW227710   2.915   4.314   1.725  0.0531 -0.2305  0.3757
 6986SOL    HW327711   3.011   4.298   1.609  0.1693  0.3254  0.3905
 6986SOL    MW427712   2.965   4.264   1.675  0.0150  0.7316  0.2907
 6987SOL     OW27713   5.828   0.628   0.791  0.3224 -0.1425  0.2951
 6987SOL    HW227714   5.844   0.709   0.840  1.5564  0.6871 -1.3636
 6987SOL    HW327715   5.803   0.564   0.857 -1.5007  1.7725  1.5993
 6987SOL    MW427716   5.827   0.631   0.806 -0.0260  0.3217 -0.4398
 6988SOL     OW27717   6.026   5.931   0.882 -0.4163  0.5076 -0.1413
 6988SOL    HW227718   6.062   5.937   0.793 -1.2345 -0.8277 -0.5954
 6988SOL    HW327719   6.022   6.022   0.912 -0.2100  0.9989 -1.5024
 6988SOL    MW427720   6.030   5.944   0.874  0.3131  0.2410  0.0458
 6989SOL     OW27721   3.302   1.152   2.893  0.1387  1.0457 -0.3079
 6989SOL    HW227722   3.329   1.108   2.812  1.8880 -0.9367  1.2417
 6989SOL    HW327723   3.222   1.105   2.920 -0.9957  2.3338 -1.3201
 6989SOL    MW427724   3.295   1.140   2.886  0.0928  0.2902 -0.4849
 6990SOL     OW27725   5.034   6.285   0.875  0.2785  0.2337  0.3559
 6990SOL    HW227726   5.036   6.221   0.947 -0.8073  2.0843  2.1092
 6990SOL    HW327727   4.966   6.252   0.817 -0.0726 -0.3718  1.0796
 6990SOL    MW427728   5.025   6.272   0.877  0.6524 -0.0931 -0.1772
 6991SOL     OW27729   5.905   6.194   5.612 -1.3435 -0.1700 -0.0577
 6991SOL    HW227730   5.927   6.110   5.653 -1.2022 -0.1109 -0.0121
 6991SOL    HW327731   5.852   6.240   5.678 -3.4175 -1.1655 -0.9486
 6991SOL    MW427732   5.901   6.189   5.626 -0.3716 -0.1260  0.2741
 6992SOL     OW27733   0.944   1.779   1.505 -0.2083  0.2849  0.1491
 6992SOL    HW227734   0.911   1.695   1.473  1.4040 -0.1460 -0.4660
 6992SOL    HW327735   0.880   1.843   1.474 -0.7661 -0.5682 -0.5124
 6992SOL    MW427736   0.931   1.776   1.497 -0.3852 -0.2357  0.0207
 6993SOL     OW27737   0.657   0.526   6.103  0.1924  0.1884 -0.6943
 6993SOL    HW227738   0.687   0.438   6.125  0.4028  0.6358  0.9250
 6993SOL    HW327739   0.601   0.514   6.026  0.6556 -1.2745 -0.8288
 6993SOL    MW427740   0.654   0.513   6.095 -0.4707  0.0717 -0.0844
 6994SOL     OW27741   3.227   5.460   6.040  0.5952  0.8923 -0.0229
 6994SOL    HW227742   3.249   5.512   6.118  2.7549 -0.8183  0.5922
 6994SOL    HW327743   3.173   5.389   6.074 -0.8187  1.6611 -0.5809
 6994SOL    MW427744   3.223   5.458   6.055 -0.2479  0.1864 -0.4057
 6995SOL     OW27745   6.289   6.413   1.094  0.0443 -0.1467  0.4913
 6995SOL    HW227746   6.309   6.319   1.095 -0.5875 -0.3035 -0.2411
 6995SOL    HW327747   6.303   6.440   1.003 -1.1776  0.1348  0.3607
 6995SOL    MW427748   6.293   6.404   1.082  0.0299 -0.4020  0.0657
 6996SOL     OW27749   1.507   1.629   5.347  0.2362 -0.1584  0.1147
 6996SOL    HW227750   1.514   1.588   5.260  1.8547 -0.8038  0.5197
 6996SOL    HW327751   1.511   1.556   5.408  1.4753  0.4439  0.7973
 6996SOL    MW427752   1.508   1.614   5.343 -0.3351  0.3090 -0.0438
 6997SOL     OW27753   0.511   0.389   0.895  0.1226  0.0172  0.0591
 6997SOL    HW227754   0.426   0.347   0.906  0.0982 -0.1635 -0.7144
 6997SOL    HW327755   0.574   0.316   0.897  0.0226 -0.1969 -1.9984
 6997SOL    MW427756   0.508   0.374   0.896  0.7184 -0.3580  0.3146
 6998SOL     OW27757   5.846   0.201   0.274 -0.2012  0.0342  0.3441
 6998SOL    HW227758   5.925   0.167   0.233 -1.3035 -1.1474 -0.8908
 6998SOL    HW327759   5.867   0.203   0.367  1.2598 -0.2669  0.0530
 6998SOL    MW427760   5.859   0.197   0.281  0.1357 -0.0480 -0.1938
 6999SOL     OW27761   0.808   3.763   0.782 -0.0417 -0.8246  0.2784
 6999SOL    HW227762   0.728   3.717   0.808 -1.0133  0.2323 -0.7211
 6999SOL    HW327763   0.794   3.853   0.808  0.1100 -0.2913 -1.3622
 6999SOL    MW427764   0.796   3.768   0.789 -0.1620 -0.1169 -0.1110
 7000SOL     OW27765   5.526   2.793   3.535 -0.1974  0.2740  0.4099
 7000SOL    HW227766   5.567   2.746   3.608 -0.7710  0.1029  0.6228
 7000SOL    HW327767   5.436   2.762   3.534  0.0608 -0.5116 -1.0203
 7000SOL    MW427768   5.520   2.783   3.544 -0.9910  0.5632 -0.0037
 7001SOL     OW27769   0.536   1.312   4.550  0.1336 -0.6133  0.0572
 7001SOL    HW227770   0.556   1.276   4.463  1.1530  0.7758 -0.3179
 7001SOL    HW327771   0.473   1.250   4.587  1.2272 -2.3659 -0.8395
 7001SOL    MW427772   0.531   1.299   4.543 -0.1281 -0.1761  0.5013
 7002SOL     OW27773   1.890   1.913   0.678  0.0774 -0.1017  0.5174
 7002SOL    HW227774   1.917   1.821   0.679  0.0949 -0.1076 -0.0673
 7002SOL    HW327775   1.950   1.957   0.739  1.0036 -0.2252 -0.2951
 7002SOL    MW427776   1.901   1.907   0.686  0.8278  0.6733  0.2578
 7003SOL     OW27777   0.177   0.252   1.924  0.0623  0.3968  0.2730
 7003SOL    HW227778   0.100   0.239   1.979  1.5564  0.6275  2.5817
 7003SOL    HW327779   0.171   0.185   1.856 -0.9910 -1.0880  1.7749
 7003SOL    MW427780   0.166   0.242   1.922 -0.4303 -0.4892  0.4725
 7004SOL     OW27781   5.892   0.155   1.962 -0.0675  0.1207 -0.2382
 7004SOL    HW227782   5.898   0.245   1.995 -0.5629  0.5127 -1.1738
 7004SOL    HW327783   5.804   0.126   1.987  0.1886 -0.2054  0.2961
 7004SOL    MW427784   5.881   0.163   1.969 -0.1135 -0.0425  0.8228
 7005SOL     OW27785   5.961   2.797   1.341  0.0623  0.3798 -0.1403
 7005SOL    HW227786   5.904   2.831   1.410  1.0576  1.9727 -0.0535
 7005SOL    HW327787   5.990   2.712   1.373  0.0173  0.8245  1.1376
 7005SOL    MW427788   5.957   2.791   1.354 -0.4859  0.3863  0.6114
 7006SOL     OW27789   5.737   3.065   1.123 -0.2663 -0.1874  0.0332
 7006SOL    HW227790   5.658   3.044   1.074  0.1611 -1.6841 -0.0742
 7006SOL    HW327791   5.706   3.103   1.205 -1.0914 -0.5843 -0.0898
 7006SOL    MW427792   5.723   3.067   1.127 -0.3115  0.3598  0.6557
 7007SOL     OW27793   6.223   4.228   2.357  0.0229 -0.3871 -0.0005
 7007SOL    HW227794   6.251   4.138   2.375 -0.5557 -0.4413  0.6485
 7007SOL    HW327795   6.205   4.229   2.263 -0.0076 -0.9608 -0.0051
 7007SOL    MW427796   6.224   4.216   2.347  0.2861  0.0878  0.0215
 7008SOL     OW27797   1.650   5.048   5.310 -0.1539 -0.2005  1.0459
 7008SOL    HW227798   1.590   5.093   5.250  2.0748  0.8825 -0.5106
 7008SOL    HW327799   1.668   4.964   5.268  2.4109  1.0706 -0.6210
 7008SOL    MW427800   1.644   5.043   5.296 -0.0637  0.5299  0.0450
 7009SOL     OW27801   6.117   5.343   0.343 -1.1022 -0.3256  0.9163
 7009SOL    HW227802   6.117   5.251   0.369  0.8538 -0.5606  0.2220
 7009SOL    HW327803   6.087   5.342   0.252  0.7975 -0.5349  0.2564
 7009SOL    MW427804   6.113   5.331   0.335  0.3675 -0.3621 -0.0433
 7010SOL     OW27805   4.413   4.516   4.499  0.7207  0.2099 -0.2267
 7010SOL    HW227806   4.410   4.510   4.403 -0.9572 -1.3586 -0.1269
 7010SOL    HW327807   4.324   4.543   4.523  1.6395  2.5494  0.8402
 7010SOL    MW427808   4.401   4.519   4.489  0.0906 -0.3103 -0.4072
 7011SOL     OW27809   6.067   6.027   4.211 -0.1547 -0.2430 -0.2109
 7011SOL    HW227810   6.127   5.956   4.234  1.8336  1.1421 -0.8405
 7011SOL    HW327811   6.038   6.061   4.295  0.6705 -0.3613  0.1361
 7011SOL    MW427812   6.071   6.022   4.225 -0.1588 -0.1425  0.6272
 7012SOL     OW27813   0.361   3.800   5.596  0.4567  0.2549  0.2209
 7012SOL    HW227814   0.411   3.804   5.514 -0.0397 -0.7565 -0.1437
 7012SOL    HW327815   0.395   3.873   5.648  0.9119  0.7963 -0.8072
 7012SOL    MW427816   0.372   3.811   5.592  0.7118 -0.1389 -0.4902
 7013SOL     OW27817   1.904   1.955   1.116 -0.4168 -0.7275  0.5927
 7013SOL    HW227818   1.929   2.011   1.042 -1.9703  0.0886  0.6418
 7013SOL    HW327819   1.844   1.891   1.078 -1.0811 -0.4124  1.0882
 7013SOL    MW427820   1.899   1.954   1.101 -0.0270 -0.6806  0.5887
 7014SOL     OW27821   6.330   5.128   4.598 -0.0590  0.2245 -0.2587
 7014SOL    HW227822   6.407   5.172   4.633 -0.7326  1.0898  0.1799
 7014SOL    HW327823   6.358   5.038   4.582  0.9346  0.4441  0.2155
 7014SOL    MW427824   6.344   5.122   4.600  0.4695  0.1522  0.0841
 7015SOL     OW27825   3.571   2.035   2.144 -0.3601 -0.3472 -0.0488
 7015SOL    HW227826   3.600   2.055   2.055 -0.2497  0.3848  0.1470
 7015SOL    HW327827   3.484   2.074   2.150 -0.8766 -1.4272 -0.2147
 7015SOL    MW427828   3.563   2.042   2.133  0.6817  0.0128 -0.1188
 7016SOL     OW27829   0.864   0.973   0.937  0.1326 -0.4023  0.0646
 7016SOL    HW227830   0.819   0.903   0.889 -0.9049  0.0564  0.3453
 7016SOL    HW327831   0.817   0.980   1.020  0.8472 -0.0342  0.4449
 7016SOL    MW427832   0.852   0.965   0.941  0.3429  0.3783 -0.0553
 7017SOL     OW27833   4.292   0.822   2.233 -0.1068 -0.8619  0.4320
 7017SOL    HW227834   4.252   0.754   2.179  2.0215 -0.9043 -1.1752
 7017SOL    HW327835   4.220   0.853   2.289 -1.9675 -2.0171 -1.1968
 7017SOL    MW427836   4.277   0.817   2.233 -0.5039  0.1358 -0.2376
 7018SOL     OW27837   3.232   5.920   4.137  0.3130 -0.3131  0.3326
 7018SOL    HW227838   3.240   5.828   4.115 -1.2470 -0.6697  1.0930
 7018SOL    HW327839   3.184   5.920   4.220 -0.3373  1.1977 -0.0149
 7018SOL    MW427840   3.227   5.908   4.145  0.3197  0.0772  0.9268
 7019SOL     OW27841   6.164   3.750   1.595  0.2356 -0.4590 -0.3511
 7019SOL    HW227842   6.076   3.746   1.633  0.7173 -4.0590  0.6826
 7019SOL    HW327843   6.156   3.705   1.511  0.8528  0.3670 -0.8656
 7019SOL    MW427844   6.152   3.744   1.589 -0.3936  0.3729 -0.1789
 7020SOL     OW27845   5.118   6.059   1.028  0.8603  0.4792 -0.3495
 7020SOL    HW227846   5.056   6.016   1.087  1.9228  0.8314  1.0687
 7020SOL    HW327847   5.179   5.990   1.003  0.4373  0.3404 -1.0280
 7020SOL    MW427848   5.118   6.044   1.032 -0.3372  0.1829  0.1938
 7021SOL     OW27849   0.187   4.308   6.319  0.2221 -0.6538  0.2171
 7021SOL    HW227850   0.243   4.298   6.396  1.4321 -0.8629 -0.6534
 7021SOL    HW327851   0.108   4.349   6.352  1.0441  0.0147  1.4463
 7021SOL    MW427852   0.184   4.312   6.334 -0.2722 -0.1924 -0.1221
 7022SOL     OW27853   4.413   0.333   4.356 -0.1835 -1.0763 -0.1854
 7022SOL    HW227854   4.498   0.344   4.313 -0.5982  0.1748 -0.7299
 7022SOL    HW327855   4.349   0.362   4.291 -1.0576 -2.2350  0.1287
 7022SOL    MW427856   4.416   0.338   4.342  0.0759  0.0128 -0.4583
 7023SOL     OW27857   2.412   5.930   4.440  0.0171 -0.7249 -0.4852
 7023SOL    HW227858   2.499   5.966   4.421 -0.3493  0.3555 -0.1822
 7023SOL    HW327859   2.377   5.904   4.355  1.1558 -2.4270 -0.4726
 7023SOL    MW427860   2.419   5.931   4.427  0.2614 -0.1411 -0.6433
 7024SOL     OW27861   5.152   5.890   4.237  0.0232  0.0393 -0.3814
 7024SOL    HW227862   5.201   5.849   4.166  0.5416  0.1990 -0.1158
 7024SOL    HW327863   5.219   5.928   4.294 -0.4330  0.9295 -0.4261
 7024SOL    MW427864   5.167   5.890   4.235 -0.6087 -0.1047  0.2627
 7025SOL     OW27865   3.057   1.949   2.174  0.3604  0.0330  0.3636
 7025SOL    HW227866   3.047   2.043   2.159 -1.9324 -0.2900 -0.4224
 7025SOL    HW327867   3.108   1.918   2.099 -0.0261  0.4414 -0.0720
 7025SOL    MW427868   3.063   1.957   2.162  0.9939 -0.5091 -0.2831
 7026SOL     OW27869   1.823   1.723   4.799 -0.6589  0.1722  0.0510
 7026SOL    HW227870   1.856   1.713   4.710 -0.5654  0.4147  0.0581
 7026SOL    HW327871   1.791   1.813   4.802 -2.9167 -0.5562 -0.4911
 7026SOL    MW427872   1.823   1.733   4.787 -0.1852  0.0853  0.3105
 7027SOL     OW27873   2.232   6.240   0.142  0.6698  0.3938 -0.0182
 7027SOL    HW227874   2.184   6.275   0.066  1.8760 -1.6723 -1.8655
 7027SOL    HW327875   2.163   6.210   0.202 -0.5817 -2.4531 -2.5661
 7027SOL    MW427876   2.217   6.240   0.140 -0.1411  0.1957  0.3453
 7028SOL     OW27877   5.105   4.062   5.113 -0.0415 -0.0722  0.1827
 7028SOL    HW227878   5.040   4.012   5.063  0.2719  1.7203 -2.2004
 7028SOL    HW327879   5.082   4.046   5.205 -2.1151 -1.6854 -0.5379
 7028SOL    MW427880   5.093   4.053   5.119 -0.2759  0.2266 -0.2320
 7029SOL     OW27881   5.632   1.931   2.928 -0.3075  0.2567 -0.1581
 7029SOL    HW227882   5.656   1.999   2.866 -2.3194  0.2999 -0.9544
 7029SOL    HW327883   5.537   1.936   2.935 -0.6981 -3.1400 -1.0496
 7029SOL    MW427884   5.623   1.941   2.921  0.0615 -0.3473 -0.3448
 7030SOL     OW27885   2.943   5.246   5.936  0.1363  0.0029 -0.2752
 7030SOL    HW227886   2.880   5.191   5.890 -0.9762 -0.1799  1.3642
 7030SOL    HW327887   3.012   5.262   5.872 -1.0746 -0.6285 -1.8174
 7030SOL    MW427888   2.944   5.241   5.922 -0.1013  0.7848  0.3630
 7031SOL     OW27889   2.613   3.555   5.273 -0.2720  0.2925  0.0616
 7031SOL    HW227890   2.575   3.633   5.313  0.5526  0.4001  0.6477
 7031SOL    HW327891   2.581   3.483   5.327  0.1802  0.3654  0.4333
 7031SOL    MW427892   2.604   3.556   5.285 -0.2711  0.4277 -0.4069
 7032SOL     OW27893   4.360   2.943   0.634 -0.1413  0.5330  0.2089
 7032SOL    HW227894   4.362   3.011   0.567  0.8362 -1.1534 -1.5580
 7032SOL    HW327895   4.452   2.933   0.661 -0.4419  0.7469  1.3827
 7032SOL    MW427896   4.373   2.951   0.629  0.2763 -0.2180  0.2130
 7033SOL     OW27897   1.021   1.788   2.179  0.0756 -0.0783 -0.2647
 7033SOL    HW227898   1.071   1.707   2.191  0.9950  0.6322  0.9170
 7033SOL    HW327899   0.980   1.778   2.093 -1.0723 -2.4406  0.4798
 7033SOL    MW427900   1.023   1.776   2.169 -0.0992  0.0814  0.7461
 7034SOL     OW27901   6.287   6.198   0.142 -0.5717  0.0719 -0.1391
 7034SOL    HW227902   6.259   6.142   0.069  2.5444 -1.0725 -0.6108
 7034SOL    HW327903   6.370   6.236   0.113 -0.0675  0.8961  2.1859
 7034SOL    MW427904   6.294   6.195   0.128  0.5463  0.6447  0.2847
 7035SOL     OW27905   2.257   3.262   2.718  0.0422  0.1607  0.5244
 7035SOL    HW227906   2.212   3.314   2.785 -0.9198  1.8545 -1.3420
 7035SOL    HW327907   2.340   3.237   2.760 -1.0125  0.0949  2.7446
 7035SOL    MW427908   2.262   3.265   2.733 -0.0892  0.0298 -0.1922
 7036SOL     OW27909   2.094   1.278   1.936 -0.1424 -0.7196  0.0450
 7036SOL    HW227910   2.072   1.311   1.849 -0.3190 -0.9036  0.0200
 7036SOL    HW327911   2.122   1.356   1.985  2.9878 -0.9896 -1.0782
 7036SOL    MW427912   2.095   1.293   1.931 -0.1248  0.4763  0.3748
 7037SOL     OW27913   1.827   2.588   0.009  0.1059  0.0740  0.2139
 7037SOL    HW227914   1.904   2.604  -0.046  0.0200  2.2002  0.6424
 7037SOL    HW327915   1.756   2.636  -0.034 -0.9028 -1.4179  0.1218
 7037SOL    MW427916   1.828   2.596  -0.004 -0.4315  0.0874 -0.4439
 7038SOL     OW27917   4.974   1.556   0.170  0.4989  0.4708  0.2570
 7038SOL    HW227918   4.950   1.465   0.155 -0.3766  0.8408 -0.6853
 7038SOL    HW327919   5.042   1.552   0.237  1.1840 -0.9377 -0.4800
 7038SOL    MW427920   4.980   1.544   0.177  0.5493 -0.2882 -0.4153
 7039SOL     OW27921   3.798   0.607   2.712  0.6339 -0.2781  0.0983
 7039SOL    HW227922   3.864   0.665   2.750  1.6576 -0.9869 -0.5470
 7039SOL    HW327923   3.782   0.542   2.781  1.2683 -0.6067 -0.0517
 7039SOL    MW427924   3.805   0.606   2.726 -0.2198  0.2732  0.1063
 7040SOL     OW27925   1.695   1.333   2.235  0.9246 -0.6023 -0.1525
 7040SOL    HW227926   1.605   1.310   2.258  0.8632  0.7665  1.1406
 7040SOL    HW327927   1.711   1.288   2.152 -0.8365 -1.1230 -0.2502
 7040SOL    MW427928   1.685   1.324   2.227 -0.5016 -0.0775 -0.2073
 7041SOL     OW27929   1.468   2.638   3.073 -0.0206  0.5004  0.2747
 7041SOL    HW227930   1.424   2.706   3.124 -0.0082  0.0876  0.8523
 7041SOL    HW327931   1.465   2.669   2.983 -0.2748  1.1243  0.4938
 7041SOL    MW427932   1.462   2.651   3.068  0.1902 -0.1886  0.2044
 7042SOL     OW27933   3.041   3.767   1.455 -0.0795 -0.1648  0.1334
 7042SOL    HW227934   2.959   3.717   1.464 -0.7088  0.6277 -0.9510
 7042SOL    HW327935   3.032   3.813   1.371  1.1882  0.4776  0.3273
 7042SOL    MW427936   3.029   3.766   1.445 -0.4652 -0.3829  0.2738
 7043SOL     OW27937   0.355   4.317   3.325  0.1758  0.9235 -0.0576
 7043SOL    HW227938   0.281   4.376   3.308 -1.2658  0.5353  3.7037
 7043SOL    HW327939   0.431   4.376   3.333 -0.3208  1.7055 -0.8768
 7043SOL    MW427940   0.355   4.333   3.324 -0.0224 -0.4567  0.0372
 7044SOL     OW27941   1.119   4.599   0.699  0.3785  0.4171 -0.1133
 7044SOL    HW227942   1.056   4.528   0.713  1.0143 -0.5669 -1.9937
 7044SOL    HW327943   1.189   4.560   0.648  1.3133  2.1277 -0.2092
 7044SOL    MW427944   1.120   4.584   0.694 -0.4446 -0.3515 -0.1040
 7045SOL     OW27945   0.447   1.382   3.707 -0.4029 -0.3804 -0.0479
 7045SOL    HW227946   0.407   1.299   3.735 -2.6345  0.8151  0.5946
 7045SOL    HW327947   0.525   1.356   3.659  2.9664 -2.8042  5.7264
 7045SOL    MW427948   0.452   1.368   3.705  0.2614 -0.1372 -1.0752
 7046SOL     OW27949   2.593   1.614   5.915 -0.2912  0.0715  0.3625
 7046SOL    HW227950   2.568   1.698   5.953  0.5149 -0.0113  1.1122
 7046SOL    HW327951   2.615   1.634   5.824 -1.3095  0.4451  0.1851
 7046SOL    MW427952   2.593   1.628   5.908  0.5145 -0.2246  0.1663
 7047SOL     OW27953   0.544   5.347   1.226  0.6546  0.7654 -0.0852
 7047SOL    HW227954   0.620   5.307   1.268 -0.1167 -1.8445 -0.9723
 7047SOL    HW327955   0.480   5.358   1.297  0.4462 -0.7979  0.0013
 7047SOL    MW427956   0.545   5.344   1.241  0.2020 -0.5696  0.7040
 7048SOL     OW27957   1.467   5.324   5.723  0.3031 -0.3153  0.6913
 7048SOL    HW227958   1.458   5.418   5.709 -0.7629 -0.2550  1.6443
 7048SOL    HW327959   1.469   5.314   5.818  1.8500 -1.1539  0.6123
 7048SOL    MW427960   1.466   5.335   5.733 -0.3045 -0.3220 -0.1456
 7049SOL     OW27961   4.125   5.983   1.015  0.0393 -0.3580 -0.5944
 7049SOL    HW227962   4.060   5.977   1.086  0.9307  0.7740  0.3564
 7049SOL    HW327963   4.208   5.998   1.060  0.7975 -0.7353 -1.8477
 7049SOL    MW427964   4.127   5.984   1.030  0.3861 -0.1459 -0.3899
 7050SOL     OW27965   2.243   2.873   4.966  0.0026 -0.3428 -0.0187
 7050SOL    HW227966   2.196   2.882   4.883 -1.3654  4.0136  0.9802
 7050SOL    HW327967   2.174   2.851   5.030  0.5883 -1.0106  0.3978
 7050SOL    MW427968   2.228   2.871   4.964 -0.0395  0.5401 -0.5272
 7051SOL     OW27969   0.433   3.525   5.546 -0.1593  0.3786  0.1532
 7051SOL    HW227970   0.457   3.522   5.638  0.3647 -1.9921  0.0035
 7051SOL    HW327971   0.444   3.617   5.521  0.8853  0.8370  2.1289
 7051SOL    MW427972   0.438   3.537   5.555  0.1994 -0.0261  0.0696
 7052SOL     OW27973   3.018   3.476   2.650 -0.2368  0.0623  0.2760
 7052SOL    HW227974   2.924   3.497   2.654 -0.1638  0.5236 -0.3417
 7052SOL    HW327975   3.056   3.548   2.600  0.4197 -0.2304  0.3562
 7052SOL    MW427976   3.010   3.488   2.644  0.5310  0.2434  0.4067
 7053SOL     OW27977   1.290   4.230   5.584 -0.0950  0.4465 -0.2022
 7053SOL    HW227978   1.338   4.312   5.596 -0.7900  0.6742  1.3359
 7053SOL    HW327979   1.340   4.166   5.634  0.7427 -0.2298 -1.8369
 7053SOL    MW427980   1.303   4.232   5.592 -0.3861 -0.2204 -0.2757
 7054SOL     OW27981   2.882   5.993   5.814 -0.1933 -0.2266  0.2564
 7054SOL    HW227982   2.852   5.903   5.814  0.5825 -0.5716 -1.9369
 7054SOL    HW327983   2.895   6.015   5.906 -1.1085 -2.0887  0.8760
 7054SOL    MW427984   2.880   5.984   5.826 -0.0132  0.4192  0.4681
 7055SOL     OW27985   0.690   1.059   1.658  0.3816 -0.3573  0.0135
 7055SOL    HW227986   0.716   0.980   1.610 -0.2631 -0.7589  0.3086
 7055SOL    HW327987   0.618   1.096   1.608 -0.8200 -1.2141  1.0545
 7055SOL    MW427988   0.684   1.053   1.645 -0.1182 -0.0779  0.2337
 7056SOL     OW27989   3.417   5.303   5.200 -0.2442 -0.1490 -0.0523
 7056SOL    HW227990   3.507   5.270   5.194  1.0153  3.0693 -1.3948
 7056SOL    HW327991   3.376   5.276   5.118  0.1275 -0.0075 -0.2851
 7056SOL    MW427992   3.424   5.295   5.188  0.6596  0.2336  0.3036
 7057SOL     OW27993   3.947   0.939   1.233 -0.5250  0.0219 -0.3405
 7057SOL    HW227994   3.868   0.992   1.221 -0.7302 -0.3526 -0.6511
 7057SOL    HW327995   3.935   0.896   1.317  1.1979  3.1453  1.7321
 7057SOL    MW427996   3.935   0.941   1.242 -0.1882  0.1334 -0.3806
 7058SOL     OW27997   0.865   5.915   0.583  0.2023  0.3500 -0.0515
 7058SOL    HW227998   0.777   5.888   0.610  0.6133 -1.2498 -0.2094
 7058SOL    HW327999   0.885   5.860   0.507  1.2975  0.7694 -0.0879
 7058SOL    MW428000   0.856   5.904   0.577 -0.2334 -0.5382 -0.2459
 7059SOL     OW28001   3.445   0.410   2.550  0.0058  0.0300 -0.5509
 7059SOL    HW228002   3.504   0.484   2.536 -0.2578  1.2124  3.4217
 7059SOL    HW328003   3.495   0.349   2.603 -1.3516 -0.3409  0.3548
 7059SOL    MW428004   3.459   0.412   2.555  0.4966  0.1029  0.3749
 7060SOL     OW28005   1.610   3.254   2.887 -0.0362 -1.2961 -0.5070
 7060SOL    HW228006   1.628   3.273   2.980  0.8679 -2.6858 -0.3757
 7060SOL    HW328007   1.690   3.213   2.855 -0.4380 -1.0772 -1.8530
 7060SOL    MW428008   1.623   3.251   2.895 -0.3307 -0.1709  0.7091
 7061SOL     OW28009   1.830   4.104   3.002 -0.0248  0.6003  1.1334
 7061SOL    HW228010   1.758   4.077   2.946  0.0720  0.5656  1.0258
 7061SOL    HW328011   1.899   4.040   2.986  0.7759  1.7386 -0.2556
 7061SOL    MW428012   1.829   4.092   2.993  0.1809  0.2340  0.1649
 7062SOL     OW28013   2.324   6.355   5.619  0.0729  0.1414 -0.0463
 7062SOL    HW228014   2.387   6.331   5.686  0.1836  2.0546  0.6084
 7062SOL    HW328015   2.365   6.328   5.537  0.1281 -1.8253  0.5892
 7062SOL    MW428016   2.338   6.348   5.617  0.1655  0.0977 -0.3883
 7063SOL     OW28017   2.677   5.594   5.365 -0.2126  0.4114 -0.0132
 7063SOL    HW228018   2.586   5.624   5.372  0.0367  1.5446 -1.2628
 7063SOL    HW328019   2.726   5.651   5.423 -0.0254  1.1482 -0.8757
 7063SOL    MW428020   2.671   5.605   5.373  0.2035  0.0480  0.3213
 7064SOL     OW28021   4.101   1.831   4.711 -0.9280 -0.0745  0.5679
 7064SOL    HW228022   4.084   1.832   4.617 -0.7839 -1.0437  0.5276
 7064SOL    HW328023   4.034   1.773   4.747 -0.7798  0.0373  1.0328
 7064SOL    MW428024   4.090   1.824   4.703 -0.0267 -0.6336  0.1590
 7065SOL     OW28025   5.786   3.076   2.072  0.1846 -0.7021 -0.0871
 7065SOL    HW228026   5.742   3.100   1.990  0.8764 -1.7769 -0.8044
 7065SOL    HW328027   5.740   3.125   2.140 -1.0543 -0.5541 -1.0011
 7065SOL    MW428028   5.774   3.085   2.070 -0.3638 -0.1001  0.6112
 7066SOL     OW28029   0.197   3.616   1.761  0.3849 -0.0816 -0.3202
 7066SOL    HW228030   0.251   3.539   1.743  1.2464  0.8005 -1.6396
 7066SOL    HW328031   0.256   3.676   1.807 -0.8400 -0.9415  2.5794
 7066SOL    MW428032   0.212   3.614   1.765 -0.4117 -0.2982 -0.2704
 7067SOL     OW28033   5.246   4.237   1.939 -0.2414  0.5457 -0.6251
 7067SOL    HW228034   5.200   4.296   1.998  0.6761  1.5652 -0.8898
 7067SOL    HW328035   5.204   4.152   1.951 -2.5090  1.5091 -1.2226
 7067SOL    MW428036   5.234   4.234   1.948  0.0495 -0.5629  0.3542
 7068SOL     OW28037   5.961   0.210   0.530 -0.2809  0.0742 -0.0136
 7068SOL    HW228038   5.995   0.293   0.562  0.7022 -0.5423  0.5872
 7068SOL    HW328039   6.037   0.165   0.493 -0.8300 -0.4962 -0.4809
 7068SOL    MW428040   5.975   0.215   0.529  0.0975  0.0654 -0.0117
 7069SOL     OW28041   1.352   6.281   5.006 -0.2364  0.1303 -0.8624
 7069SOL    HW228042   1.430   6.259   4.956 -0.2514  0.0344 -0.8446
 7069SOL    HW328043   1.378   6.357   5.059  0.3742 -0.9004  0.3853
 7069SOL    MW428044   1.366   6.288   5.007  0.6148  0.1157 -0.2407
 7070SOL     OW28045   5.365   5.110   0.613 -0.6212  0.1890 -0.0019
 7070SOL    HW228046   5.453   5.073   0.626  0.3261  2.2788  0.0418
 7070SOL    HW328047   5.346   5.154   0.696 -1.7128 -0.2168 -0.0307
 7070SOL    MW428048   5.374   5.111   0.626 -0.2314  0.4526  0.2231
 7071SOL     OW28049   6.311   5.531   5.131 -0.3321  0.0382 -0.0990
 7071SOL    HW228050   6.220   5.555   5.114 -0.1738 -0.6792 -2.2517
 7071SOL    HW328051   6.306   5.461   5.195 -1.2549  0.4592  0.2981
 7071SOL    MW428052   6.298   5.525   5.137 -0.3005  0.1325 -0.3508
 7072SOL     OW28053   0.579   1.978   2.463  0.1354  0.5735 -0.1575
 7072SOL    HW228054   0.501   1.960   2.516  0.1390  0.4612 -0.1902
 7072SOL    HW328055   0.649   1.991   2.528 -0.1264  1.7598 -0.0818
 7072SOL    MW428056   0.578   1.978   2.479 -0.4634 -0.6133 -0.0533
 7073SOL     OW28057   6.239   3.674   5.345  0.0387  0.1984  0.2316
 7073SOL    HW228058   6.322   3.634   5.373 -0.7153 -1.2820  0.4237
 7073SOL    HW328059   6.181   3.600   5.329 -1.0339  1.1943 -0.6246
 7073SOL    MW428060   6.242   3.659   5.347  0.1443 -0.5277 -0.5437
 7074SOL     OW28061   0.657   1.630   4.806 -0.0461 -0.0195  0.4463
 7074SOL    HW228062   0.587   1.652   4.867 -0.2061  3.3481 -0.7279
 7074SOL    HW328063   0.728   1.598   4.861 -1.6658 -1.3426  1.8709
 7074SOL    MW428064   0.657   1.629   4.821  0.1722 -0.3292 -0.1379
 7075SOL     OW28065   0.687   3.958   2.033 -0.0757 -0.0998 -0.1722
 7075SOL    HW228066   0.728   3.994   1.954 -0.1670  0.9988  0.2604
 7075SOL    HW328067   0.651   3.874   2.005  0.3796  0.0184 -1.1615
 7075SOL    MW428068   0.688   3.952   2.019  0.1619  0.1041  0.6021
 7076SOL     OW28069   1.432   6.365   2.694  0.6201  0.0668  0.4356
 7076SOL    HW228070   1.500   6.362   2.760  1.0096 -1.2289  0.0064
 7076SOL    HW328071   1.363   6.306   2.726  1.1015 -1.1004 -0.5818
 7076SOL    MW428072   1.432   6.357   2.707  0.0255 -0.3160 -0.4715
 7077SOL     OW28073   2.533   3.496   2.594 -0.0285 -0.4242  0.4497
 7077SOL    HW228074   2.513   3.588   2.608  1.2275  0.0090 -0.4932
 7077SOL    HW328075   2.563   3.491   2.504  2.3723 -1.3052  1.2167
 7077SOL    MW428076   2.534   3.507   2.584 -0.7504  0.0447  0.8173
 7078SOL     OW28077   4.205   1.577   2.776 -0.2488  0.4467 -0.3691
 7078SOL    HW228078   4.299   1.562   2.785 -0.0409  1.7502 -0.1543
 7078SOL    HW328079   4.198   1.636   2.700 -0.8876  0.3748 -0.3686
 7078SOL    MW428080   4.216   1.583   2.767 -0.0563 -0.1029  0.0399
 7079SOL     OW28081   5.063   0.560   6.200 -0.1254  0.1851  0.7638
 7079SOL    HW228082   5.015   0.625   6.252 -1.2151 -0.6423  0.8334
 7079SOL    HW328083   5.094   0.497   6.264 -1.0034 -0.5452  0.4935
 7079SOL    MW428084   5.061   0.561   6.216  0.0108 -0.6618  0.0559
 7080SOL     OW28085   1.063   2.742   6.186  0.2962 -0.0733  0.2386
 7080SOL    HW228086   1.127   2.789   6.239  1.0337 -1.0637  0.2681
 7080SOL    HW328087   1.035   2.804   6.119  1.4242  0.3265  0.1231
 7080SOL    MW428088   1.067   2.756   6.184 -0.2348  0.2566 -0.3529
 7081SOL     OW28089   2.884   0.927   0.309 -0.0369 -0.4065  0.8699
 7081SOL    HW228090   2.947   0.877   0.257  0.1840  0.0436  0.7058
 7081SOL    HW328091   2.881   0.881   0.393  1.1975  0.0948  1.2130
 7081SOL    MW428092   2.892   0.914   0.313  0.8032  0.1211 -1.0345
 7082SOL     OW28093   1.596   2.084   4.062  0.5161 -0.4278  1.1338
 7082SOL    HW228094   1.626   1.998   4.034 -1.3159 -0.7638 -0.0191
 7082SOL    HW328095   1.624   2.144   3.993  0.8967 -0.2649  1.4246
 7082SOL    MW428096   1.603   2.081   4.049 -0.2049  0.8239 -0.3495
 7083SOL     OW28097   2.481   5.967   0.885 -0.4762  0.4721 -0.4568
 7083SOL    HW228098   2.542   6.035   0.856 -0.8149  0.2991 -1.6142
 7083SOL    HW328099   2.416   5.961   0.815 -1.8056  0.6097  0.7110
 7083SOL    MW428100   2.480   5.975   0.872 -0.3189  0.8874  0.2589
 7084SOL     OW28101   4.943   3.054   2.196  0.3376  0.0846  0.1410
 7084SOL    HW228102   4.890   2.988   2.241  1.0849 -0.3567  0.3922
 7084SOL    HW328103   5.020   3.006   2.165  0.6084  0.7214 -0.1903
 7084SOL    MW428104   4.947   3.039   2.198 -0.3180 -0.0118  0.3613
 7085SOL     OW28105   4.264   2.411   0.431  0.0780  0.1315 -0.0814
 7085SOL    HW228106   4.305   2.349   0.371 -0.0110  0.5267 -0.5571
 7085SOL    HW328107   4.192   2.361   0.471 -0.9415  0.3439 -1.5716
 7085SOL    MW428108   4.260   2.396   0.429 -0.0470 -0.5766 -0.5913
 7086SOL     OW28109   3.618   5.692   5.204 -0.0900  0.4841  0.3246
 7086SOL    HW228110   3.560   5.712   5.130 -1.8224 -2.1009  0.8496
 7086SOL    HW328111   3.567   5.633   5.259  2.0367  0.4051  2.3582
 7086SOL    MW428112   3.603   5.686   5.201 -0.3773 -0.7132  0.1781
 7087SOL     OW28113   0.199   4.463   1.233  0.5401  0.2602  0.2350
 7087SOL    HW228114   0.173   4.524   1.164  0.2990  1.5322  1.4286
 7087SOL    HW328115   0.121   4.452   1.287  0.9286 -0.1595  0.7282
 7087SOL    MW428116   0.185   4.469   1.231 -0.1139  0.6761  0.3673
 7088SOL     OW28117   0.028   1.944   6.112  0.1758 -0.6132  0.0284
 7088SOL    HW228118   0.043   1.851   6.096 -1.5057 -1.0419  0.7909
 7088SOL    HW328119  -0.037   1.970   6.047  2.1314  0.6131 -1.5910
 7088SOL    MW428120   0.022   1.935   6.101  0.6287 -0.2836  0.0894
 7089SOL     OW28121   0.405   4.370   1.595 -0.1561 -0.5198 -0.6285
 7089SOL    HW228122   0.310   4.357   1.591 -0.6537  1.8148  1.0855
 7089SOL    HW328123   0.429   4.398   1.507 -1.2233 -0.2971 -0.8639
 7089SOL    MW428124   0.395   4.372   1.583 -0.7471  0.1351 -0.1821
 7090SOL     OW28125   4.471   0.345   1.075  0.2863 -0.0039 -0.1912
 7090SOL    HW228126   4.454   0.309   0.988  2.0334  1.0998 -1.0717
 7090SOL    HW328127   4.478   0.269   1.132 -1.6839 -0.7070 -0.8359
 7090SOL    MW428128   4.470   0.330   1.071 -0.1460  0.4521 -0.5955
 7091SOL     OW28129   3.909   1.084   2.936 -0.0573 -0.1469 -0.2763
 7091SOL    HW228130   3.930   1.177   2.926  0.5792 -0.0554  1.5777
 7091SOL    HW328131   3.851   1.081   3.013 -0.5111 -1.2363 -0.6468
 7091SOL    MW428132   3.904   1.096   2.945  0.2545  0.1804 -0.3136
 7092SOL     OW28133   5.706   4.325   1.526  0.1593 -0.2986 -0.1441
 7092SOL    HW228134   5.634   4.271   1.494 -1.7097  2.1999 -0.4497
 7092SOL    HW328135   5.669   4.373   1.600  1.5367  0.9714 -0.2156
 7092SOL    MW428136   5.692   4.324   1.532  0.1375  0.1634 -0.2471
 7093SOL     OW28137   4.993   4.453   4.934  0.3860  0.2762 -0.3768
 7093SOL    HW228138   4.937   4.384   4.971 -0.2356  0.7165 -0.4711
 7093SOL    HW328139   5.061   4.406   4.886 -0.0583 -0.2745 -0.4809
 7093SOL    MW428140   4.994   4.437   4.933 -0.4573 -0.1230 -1.0311
 7094SOL     OW28141   0.939   2.195   1.755  0.5739  0.3956  0.5234
 7094SOL    HW228142   1.026   2.171   1.725  0.6055 -0.0608  0.9580
 7094SOL    HW328143   0.913   2.123   1.812  0.1725  0.8334  0.9014
 7094SOL    MW428144   0.947   2.183   1.759 -0.0410 -0.1443  0.5680
 7095SOL     OW28145   5.927   1.347   2.953  0.6987 -0.6816  0.3942
 7095SOL    HW228146   5.885   1.392   3.026  0.7041  2.4955 -1.3804
 7095SOL    HW328147   5.874   1.371   2.876  2.5897 -1.0684 -1.1166
 7095SOL    MW428148   5.914   1.356   2.952 -0.1751 -0.3073  0.0998
 7096SOL     OW28149   5.405   6.412   3.539  0.2078  0.4683 -0.3439
 7096SOL    HW228150   5.387   6.405   3.445  0.6259  2.4305 -0.6173
 7096SOL    HW328151   5.500   6.423   3.544  0.4992 -1.8341  0.5110
 7096SOL    MW428152   5.416   6.412   3.527  0.2245  0.3832 -0.1495
 7097SOL     OW28153   4.277   0.596   0.175  0.1220  0.3361 -0.2568
 7097SOL    HW228154   4.213   0.662   0.147 -1.5464 -1.4372 -0.8660
 7097SOL    HW328155   4.226   0.535   0.229  1.5560 -0.5819  0.1070
 7097SOL    MW428156   4.262   0.597   0.178  0.0639 -0.2813  0.1891
 7098SOL     OW28157   1.333   0.688   1.891 -0.1474  0.5424  0.6273
 7098SOL    HW228158   1.310   0.620   1.954  1.4870 -1.3180 -0.6696
 7098SOL    HW328159   1.284   0.666   1.812  0.9034  0.4556 -0.0157
 7098SOL    MW428160   1.324   0.676   1.889  0.5191  0.0481  0.0586
 7099SOL     OW28161   6.269   1.560   0.975 -0.4296  0.0525 -0.2978
 7099SOL    HW228162   6.255   1.470   0.946 -0.5309  0.3889 -1.3233
 7099SOL    HW328163   6.185   1.585   1.014 -0.9228  0.2257 -1.4468
 7099SOL    MW428164   6.256   1.551   0.976 -0.3581  0.0768 -0.3745
 7100SOL     OW28165   2.116   0.337   5.281 -0.4352  0.4262  0.2492
 7100SOL    HW228166   2.182   0.282   5.324  0.1571  0.0828 -1.0683
 7100SOL    HW328167   2.161   0.420   5.265 -0.9932  0.9440  1.2376
 7100SOL    MW428168   2.130   0.341   5.285  0.1308  0.3024 -0.1316
 7101SOL     OW28169   1.665   3.333   5.941 -0.1892  0.4816  0.1991
 7101SOL    HW228170   1.667   3.287   5.857 -0.5172 -0.3688  0.6429
 7101SOL    HW328171   1.717   3.412   5.927  1.5770 -0.7032 -0.1793
 7101SOL    MW428172   1.672   3.338   5.928 -0.0686 -0.1650  0.2717
 7102SOL     OW28173   0.587   2.626   4.047 -0.1001 -0.2312 -0.2350
 7102SOL    HW228174   0.555   2.716   4.056  0.4257 -0.0457 -0.1870
 7102SOL    HW328175   0.602   2.615   3.953 -1.0822 -0.5959 -0.3620
 7102SOL    MW428176   0.584   2.636   4.035  0.0513 -0.2698 -0.2601
 7103SOL     OW28177   3.857   4.452   5.316 -0.9418 -0.1633  0.2211
 7103SOL    HW228178   3.852   4.424   5.225 -0.0070 -1.9002  0.6574
 7103SOL    HW328179   3.765   4.466   5.341 -1.2459 -0.2101 -0.8132
 7103SOL    MW428180   3.844   4.450   5.307  0.5422 -0.5386 -0.2859
 7104SOL     OW28181   0.227   5.350   1.678 -0.0824 -0.1995  0.1373
 7104SOL    HW228182   0.240   5.444   1.676 -1.7113  0.0769  0.5521
 7104SOL    HW328183   0.304   5.315   1.723 -0.0233  1.0527  1.0710
 7104SOL    MW428184   0.239   5.358   1.684 -0.1593  0.1089  0.0403
 7105SOL     OW28185   5.162   0.560   5.407  0.4547 -0.6819  0.4178
 7105SOL    HW228186   5.214   0.560   5.326 -0.9852 -2.2380 -0.5937
 7105SOL    HW328187   5.140   0.468   5.421  1.3125 -0.5605  3.0756
 7105SOL    MW428188   5.166   0.548   5.398 -0.1393  0.2762 -0.2272
 7106SOL     OW28189   5.484   3.985   0.145  0.0760 -0.3930 -0.4118
 7106SOL    HW228190   5.424   3.910   0.151 -1.3126  0.3076 -3.5583
 7106SOL    HW328191   5.565   3.948   0.111  0.6710 -0.9711  1.5399
 7106SOL    MW428192   5.487   3.970   0.141 -0.2677  0.1680  0.6895
 7107SOL     OW28193   1.833   3.547   3.159  0.2677  0.6977  0.1109
 7107SOL    HW228194   1.899   3.580   3.220 -0.9459 -0.9968  2.4843
 7107SOL    HW328195   1.753   3.595   3.182 -0.5343 -0.9181  0.8500
 7107SOL    MW428196   1.831   3.558   3.170 -0.1734  0.1825  0.6689
 7108SOL     OW28197   5.314   2.235   4.873 -0.2864 -0.0241 -0.6739
 7108SOL    HW228198   5.373   2.170   4.834  1.3751  0.2021  1.2601
 7108SOL    HW328199   5.242   2.183   4.910  1.4737 -1.0147  1.6732
 7108SOL    MW428200   5.313   2.219   4.873  0.0845  0.1133  0.0721
 7109SOL     OW28201   4.712   5.231   3.033 -0.5956 -0.1919 -0.1147
 7109SOL    HW228202   4.806   5.235   3.051 -0.7043 -1.6287  1.0351
 7109SOL    HW328203   4.699   5.147   2.988 -1.6577 -1.6474  2.6249
 7109SOL    MW428204   4.722   5.220   3.030 -0.1622 -0.0217  0.3624
 7110SOL     OW28205   5.875   4.355   3.086  0.4500 -0.0239 -0.2654
 7110SOL    HW228206   5.931   4.404   3.026 -0.8972  0.9602 -0.7617
 7110SOL    HW328207   5.921   4.357   3.169  0.9178  1.1958 -0.5451
 7110SOL    MW428208   5.888   4.361   3.089  0.6757 -0.1101 -0.1991
 7111SOL     OW28209   4.057   6.056   3.161  0.0253  0.0688  0.9247
 7111SOL    HW228210   4.102   6.005   3.094  0.2694 -0.7874  1.7242
 7111SOL    HW328211   4.109   6.136   3.169 -1.0101  1.0386 -1.1635
 7111SOL    MW428212   4.070   6.060   3.153  0.7218  0.0187  0.4154
 7112SOL     OW28213   3.572   0.622   3.490 -0.1842  0.2628 -0.0320
 7112SOL    HW228214   3.661   0.614   3.455 -0.2499 -0.1308 -0.1170
 7112SOL    HW328215   3.549   0.714   3.475  0.1012  0.3016 -0.2657
 7112SOL    MW428216   3.581   0.633   3.483  0.1422 -0.3310  0.8299
 7113SOL     OW28217   5.105   2.717   0.956 -0.5445  0.3474 -0.0046
 7113SOL    HW228218   5.116   2.806   0.921  1.6762  0.2296  0.2528
 7113SOL    HW328219   5.092   2.730   1.050  1.2041  0.4142  0.2724
 7113SOL    MW428220   5.105   2.731   0.964 -0.6320 -0.1189  0.4325
 7114SOL     OW28221   0.161   4.518   3.369 -0.3618 -0.0039  0.4300
 7114SOL    HW228222   0.097   4.447   3.372  1.3467 -1.7462 -0.9720
 7114SOL    HW328223   0.126   4.579   3.305 -2.1152  0.7569  2.0387
 7114SOL    MW428224   0.148   4.517   3.361 -0.4424  0.0254  0.7314
 7115SOL     OW28225   6.223   6.107   5.574  0.1415  0.5381  0.2538
 7115SOL    HW228226   6.239   6.013   5.563  1.2023  0.6934  0.3601
 7115SOL    HW328227   6.184   6.115   5.660 -1.2345  0.0651 -0.3009
 7115SOL    MW428228   6.220   6.096   5.584  0.1825  0.3253  0.2169
 7116SOL     OW28229   4.261   1.478   6.128 -0.3036 -0.3169  0.2779
 7116SOL    HW228230   4.314   1.399   6.117  0.4599  0.3441 -1.0335
 7116SOL    HW328231   4.236   1.477   6.220 -0.1003 -1.9486  0.3425
 7116SOL    MW428232   4.265   1.468   6.139  0.3735  0.2488  0.3375
 7117SOL     OW28233   4.946   4.932   2.990 -0.2136 -0.4704  0.2251
 7117SOL    HW228234   5.014   4.946   2.924  0.0756 -1.9157  0.1934
 7117SOL    HW328235   4.994   4.901   3.067 -0.4236  2.1148  1.5138
 7117SOL    MW428236   4.962   4.930   2.991 -0.5022 -0.3443 -0.1909
 7118SOL     OW28237   3.218   0.685   1.735  0.2512  0.5396  0.3414
 7118SOL    HW228238   3.151   0.745   1.701  1.0190  1.7475  0.8830
 7118SOL    HW328239   3.270   0.739   1.795 -0.4804 -1.2838  2.7290
 7118SOL    MW428240   3.216   0.700   1.738 -0.2666  0.2122 -0.1366
 7119SOL     OW28241   4.510   4.512   1.250 -0.3622  0.6396  0.0452
 7119SOL    HW228242   4.595   4.551   1.271 -1.2864  3.5832 -1.2854
 7119SOL    HW328243   4.446   4.567   1.295 -1.7172  0.1679 -1.2204
 7119SOL    MW428244   4.513   4.524   1.259  0.2924 -0.3916 -0.2871
 7120SOL     OW28245   5.462   3.024   3.383  0.1516 -0.8475  0.5416
 7120SOL    HW228246   5.435   2.948   3.332  0.3117 -0.1477 -0.6190
 7120SOL    HW328247   5.420   3.098   3.340  1.9159 -0.0043  0.1783
 7120SOL    MW428248   5.453   3.024   3.371  0.1886 -0.2567  0.5357
 7121SOL     OW28249   2.151   4.136   2.973 -0.3662  0.2354 -0.1564
 7121SOL    HW228250   2.118   4.121   3.062 -0.6317  0.2122 -0.2588
 7121SOL    HW328251   2.140   4.230   2.960 -0.3140  0.2408 -0.1591
 7121SOL    MW428252   2.145   4.147   2.983  0.5895  0.5121 -0.1397
 7122SOL     OW28253   5.115   2.076   4.341 -0.7882 -0.0804 -0.0867
 7122SOL    HW228254   5.036   2.129   4.330  0.4575  1.7655 -0.5894
 7122SOL    HW328255   5.141   2.053   4.252 -0.5856 -0.4381  0.0618
 7122SOL    MW428256   5.108   2.080   4.328  0.3764 -0.0579 -0.2601
 7123SOL     OW28257   5.813   4.330   0.445  0.4212  0.0142  0.2274
 7123SOL    HW228258   5.762   4.274   0.505  0.6300 -1.4135 -0.8760
 7123SOL    HW328259   5.773   4.416   0.453 -1.9860 -0.9796 -0.3671
 7123SOL    MW428260   5.801   4.334   0.454  0.5057 -0.3254 -0.1524
 7124SOL     OW28261   3.364   1.665   3.483 -0.5180 -0.2643  0.1650
 7124SOL    HW228262   3.433   1.657   3.418 -0.9009 -0.2139 -0.2500
 7124SOL    HW328263   3.283   1.646   3.436 -0.8981  0.7086  0.3938
 7124SOL    MW428264   3.363   1.662   3.468  0.1113  0.0061 -0.4151
 7125SOL     OW28265   1.008   0.045   6.123 -0.2151  0.1949  0.1096
 7125SOL    HW228266   1.009   0.136   6.096  0.1596  0.5744  1.2999
 7125SOL    HW328267   1.101   0.021   6.129 -0.3070 -0.7292 -1.5829
 7125SOL    MW428268   1.021   0.053   6.121 -0.5820  0.4177 -0.0075
 7126SOL     OW28269   6.212   4.985   5.715  0.2713  0.1156 -0.4349
 7126SOL    HW228270   6.150   4.995   5.642 -0.1535  2.4311  0.1789
 7126SOL    HW328271   6.270   4.914   5.686  0.2120  1.0189 -3.1277
 7126SOL    MW428272   6.211   4.977   5.701 -0.0331 -0.6912  0.4600
 7127SOL     OW28273   6.249   5.847   3.952 -0.2534  0.3981 -0.0384
 7127SOL    HW228274   6.265   5.941   3.949 -1.2327  0.5564 -1.5119
 7127SOL    HW328275   6.305   5.811   3.882 -0.2051 -0.0633  0.2311
 7127SOL    MW428276   6.259   5.855   3.942 -0.0344 -0.0606  0.3154
 7128SOL     OW28277   4.320   1.056   4.952  0.1010  0.1098 -0.1723
 7128SOL    HW228278   4.374   1.087   5.025  1.5594 -0.5669 -0.9239
 7128SOL    HW328279   4.332   0.961   4.951 -0.5778  0.0237 -0.7621
 7128SOL    MW428280   4.329   1.048   4.961  0.0924  0.4101  0.2628
 7129SOL     OW28281   1.253   2.671   5.017  0.6654 -0.1179  0.2128
 7129SOL    HW228282   1.345   2.666   5.042  0.5186 -1.2524  0.5995
 7129SOL    HW328283   1.217   2.743   5.070  0.9156 -0.8957  1.4863
 7129SOL    MW428284   1.260   2.680   5.027 -0.4426  0.1769  0.5670
 7130SOL     OW28285   5.346   1.063   6.320 -0.2325  0.3960  0.3266
 7130SOL    HW228286   5.379   0.977   6.346 -1.2962  0.0775  0.6605
 7130SOL    HW328287   5.252   1.050   6.306 -0.4190  1.5109  0.4432
 7130SOL    MW428288   5.338   1.050   6.322  0.2565 -0.2896 -0.3939
 7131SOL     OW28289   0.017   4.056   3.169  0.2904 -0.7467 -0.4011
 7131SOL    HW228290   0.031   3.995   3.097 -1.1318 -2.4168  0.6606
 7131SOL    HW328291   0.103   4.066   3.209  0.4573 -2.6038 -0.2144
 7131SOL    MW428292   0.030   4.050   3.165 -0.2161 -0.3473  0.2220
 7132SOL     OW28293   1.391   5.893   3.368 -0.2462  0.0119  0.5664
 7132SOL    HW228294   1.423   5.811   3.406  0.2492 -0.8672 -1.6269
 7132SOL    HW328295   1.404   5.958   3.438  3.3444 -0.9271  1.0083
 7132SOL    MW428296   1.397   5.891   3.382 -0.2323  0.0601  0.2420
 7133SOL     OW28297   0.642   1.597   2.956 -0.6244 -0.2206  0.4550
 7133SOL    HW228298   0.555   1.581   2.920 -1.2508  1.1764  1.2841
 7133SOL    HW328299   0.665   1.685   2.927  0.3346 -0.4048  0.6110
 7133SOL    MW428300   0.634   1.607   2.947  0.7941 -0.3366 -0.0847
 7134SOL     OW28301   1.556   5.858   2.271 -0.1485  0.0317  0.3134
 7134SOL    HW228302   1.564   5.777   2.323 -0.4740  0.4304  1.0036
 7134SOL    HW328303   1.490   5.909   2.317 -2.1558 -0.5474 -1.7537
 7134SOL    MW428304   1.549   5.854   2.284 -0.1585  0.5323  0.1650
 7135SOL     OW28305   6.102   5.305   3.632  0.1417 -0.1032 -0.3475
 7135SOL    HW228306   6.038   5.246   3.673 -1.9136  1.7172 -0.7452
 7135SOL    HW328307   6.062   5.329   3.548  1.1910  1.3731 -0.4637
 7135SOL    MW428308   6.088   5.300   3.626 -0.4034 -0.5376  0.6044
 7136SOL     OW28309   6.270   5.213   0.951 -0.2952  0.1274  0.1090
 7136SOL    HW228310   6.209   5.139   0.957 -0.8185  0.1711 -2.9069
 7136SOL    HW328311   6.301   5.210   0.860  0.8502  2.7202  0.3413
 7136SOL    MW428312   6.266   5.202   0.940 -0.1754 -0.1797  0.1245
 7137SOL     OW28313   2.437   4.220   3.015  0.3700  0.1630 -0.2111
 7137SOL    HW228314   2.438   4.315   2.999  1.9523 -0.2329 -3.0746
 7137SOL    HW328315   2.347   4.194   2.999  0.1049  1.0573 -0.2367
 7137SOL    MW428316   2.426   4.229   3.011  1.2196 -0.1461  0.3582
 7138SOL     OW28317   0.563   4.048   3.959  0.5499  0.3154 -0.0657
 7138SOL    HW228318   0.474   4.085   3.956 -0.1809 -1.3647 -0.2793
 7138SOL    HW328319   0.596   4.059   3.870  0.6648  1.1578  0.0713
 7138SOL    MW428320   0.556   4.054   3.947  0.1925 -0.2377  0.4909
 7139SOL     OW28321   5.065   2.372   3.600  0.6426  0.0474 -0.1449
 7139SOL    HW228322   5.052   2.283   3.633  0.3816 -1.5628 -4.0100
 7139SOL    HW328323   4.976   2.403   3.582  0.8273 -0.3894 -2.0270
 7139SOL    MW428324   5.051   2.364   3.602 -0.4837 -0.3350  0.4881
 7140SOL     OW28325   3.481   3.802   0.285 -0.0544 -0.2334 -0.6109
 7140SOL    HW228326   3.512   3.724   0.239 -0.2850  0.0876 -1.3274
 7140SOL    HW328327   3.414   3.839   0.227  0.6457  0.9656 -0.6944
 7140SOL    MW428328   3.477   3.797   0.271  0.4049 -0.1617  0.6734
 7141SOL     OW28329   1.612   2.985   4.424 -0.0392 -0.2134  0.1104
 7141SOL    HW228330   1.680   3.053   4.428  0.0277 -0.3550  2.3684
 7141SOL    HW328331   1.559   3.000   4.501 -0.3732 -2.3817  0.3539
 7141SOL    MW428332   1.614   2.996   4.435  0.3114  0.0900  0.0915
 7142SOL     OW28333   1.507   4.615   5.337 -0.2050 -0.1736 -0.1161
 7142SOL    HW228334   1.487   4.564   5.416  0.4845  0.6907  0.6322
 7142SOL    HW328335   1.490   4.554   5.265 -0.1829 -1.2075  0.7249
 7142SOL    MW428336   1.502   4.600   5.338 -0.1825  0.3293  0.3244
 7143SOL     OW28337   5.644   1.885   1.421  0.3360  0.2394 -0.1217
 7143SOL    HW228338   5.580   1.955   1.411  1.1370  0.7225 -2.8009
 7143SOL    HW328339   5.727   1.930   1.440  0.1560 -0.3205  2.3623
 7143SOL    MW428340   5.647   1.900   1.422 -0.2962  0.0336  0.0309
 7144SOL     OW28341   3.274   5.225   1.627  0.2476  0.2341 -0.4741
 7144SOL    HW228342   3.265   5.305   1.678  0.1323 -0.6661  0.9859
 7144SOL    HW328343   3.369   5.210   1.622  0.3227  0.9904 -1.6513
 7144SOL    MW428344   3.285   5.233   1.633 -0.1504 -0.1346  0.0539
 7145SOL     OW28345   0.443   4.309   4.978  0.1139 -0.7798  0.0328
 7145SOL    HW228346   0.391   4.253   5.036 -0.2580  0.5377  1.0125
 7145SOL    HW328347   0.418   4.281   4.890 -2.8506  0.2700  0.4406
 7145SOL    MW428348   0.433   4.298   4.974  0.3336  0.0068  0.5407
 7146SOL     OW28349   4.842   3.187   2.556 -0.7915  0.3689  0.3743
 7146SOL    HW228350   4.919   3.172   2.501 -0.1942  0.7380  1.0851
 7146SOL    HW328351   4.788   3.248   2.506 -0.5409  0.2372 -0.0563
 7146SOL    MW428352   4.845   3.193   2.542 -0.1554  0.2528 -0.1964
 7147SOL     OW28353   4.020   0.255   3.301  0.0150 -0.1205 -0.2978
 7147SOL    HW228354   3.949   0.215   3.353 -0.0015  0.8916  0.4889
 7147SOL    HW328355   4.083   0.184   3.288 -0.0188 -0.4264  1.0548
 7147SOL    MW428356   4.019   0.240   3.306  0.1520  0.1509 -0.1290
 7148SOL     OW28357   3.373   1.476   3.159  0.0308  0.9125  0.4702
 7148SOL    HW228358   3.409   1.430   3.235 -0.2831  1.3060  0.8609
 7148SOL    HW328359   3.349   1.562   3.192 -0.6609  0.8807  0.0633
 7148SOL    MW428360   3.375   1.481   3.173  0.1856 -0.3327  0.1271
 7149SOL     OW28361   4.349   2.179   4.682  0.3536  0.5171 -0.2053
 7149SOL    HW228362   4.312   2.179   4.770  1.4616 -0.1062  0.2732
 7149SOL    HW328363   4.430   2.229   4.689  1.8763 -1.7880 -0.1967
 7149SOL    MW428364   4.355   2.186   4.694  0.1298  0.0333  0.1535
 7150SOL     OW28365   4.489   1.518   4.080 -0.3737 -0.9253 -0.5227
 7150SOL    HW228366   4.415   1.493   4.136 -1.1565  1.1681 -0.5450
 7150SOL    HW328367   4.448   1.561   4.004  0.8228 -0.9908 -1.2325
 7150SOL    MW428368   4.474   1.520   4.077  0.0694 -0.5941  1.3288
 7151SOL     OW28369   1.309   3.568   4.370  0.4865 -1.1360 -0.2025
 7151SOL    HW228370   1.253   3.578   4.293 -0.5848 -0.1265  0.6557
 7151SOL    HW328371   1.276   3.488   4.413 -0.9268 -0.1070  0.7373
 7151SOL    MW428372   1.297   3.559   4.366  0.2280  0.2558 -0.2707
 7152SOL     OW28373   0.272   5.754   3.294  0.3108  0.4011 -0.1937
 7152SOL    HW228374   0.188   5.793   3.318 -0.0269  0.0376 -0.7742
 7152SOL    HW328375   0.322   5.752   3.376 -1.2069 -1.7910  0.7756
 7152SOL    MW428376   0.268   5.759   3.308 -0.0136 -0.4220  0.9333
 7153SOL     OW28377   2.475   1.557   4.153  0.3002 -0.4595  0.2974
 7153SOL    HW228378   2.507   1.571   4.064 -1.8293  0.1883 -0.4115
 7153SOL    HW328379   2.505   1.634   4.201  0.9366 -0.5201  0.0156
 7153SOL    MW428380   2.484   1.569   4.148 -0.6045 -0.0664  0.3958
 7154SOL     OW28381   2.397   2.132   5.505 -0.3216  0.2969 -0.7656
 7154SOL    HW228382   2.449   2.144   5.425 -0.9380 -0.9208 -1.3801
 7154SOL    HW328383   2.359   2.044   5.496 -0.1975  0.0320  0.9964
 7154SOL    MW428384   2.399   2.122   5.493 -0.1491  0.0025  0.3649
 7155SOL     OW28385   1.118   6.273   4.179  0.0898 -0.4197  0.0636
 7155SOL    HW228386   1.091   6.355   4.139 -0.3066 -0.6514 -0.1472
 7155SOL    HW328387   1.123   6.293   4.273  1.9810  0.3931 -0.1602
 7155SOL    MW428388   1.115   6.286   4.186  0.1254  0.1524 -0.5821
 7156SOL     OW28389   4.813   5.468   4.064  0.1845 -0.3491 -0.1237
 7156SOL    HW228390   4.840   5.377   4.076  1.4425  0.0878  0.5419
 7156SOL    HW328391   4.876   5.519   4.114 -0.2020  0.9312 -0.8773
 7156SOL    MW428392   4.825   5.463   4.072  0.1962  0.3353  0.3691
 7157SOL     OW28393   1.779   3.402   6.193 -0.0064 -0.5768  0.3776
 7157SOL    HW228394   1.705   3.341   6.192  1.4920 -2.5461  1.9934
 7157SOL    HW328395   1.833   3.376   6.118  0.3072 -0.8089  0.6828
 7157SOL    MW428396   1.776   3.391   6.183  0.0320 -0.1609  0.5550
 7158SOL     OW28397   3.923   0.164   2.741  0.9175  0.3297  0.1614
 7158SOL    HW228398   3.893   0.098   2.679 -1.1484  1.4306 -0.0820
 7158SOL    HW328399   3.957   0.235   2.687 -0.3107  1.0261  0.2825
 7158SOL    MW428400   3.924   0.165   2.726  0.2306 -0.2748  0.4976
 7159SOL     OW28401   4.546   5.130   5.855 -0.5141 -0.0775 -0.1326
 7159SOL    HW228402   4.618   5.160   5.800 -0.7499  2.4913  0.8578
 7159SOL    HW328403   4.514   5.051   5.810  2.0872 -0.6259 -1.2391
 7159SOL    MW428404   4.551   5.123   5.842  0.0813  0.9948 -0.1944
 7160SOL     OW28405   3.946   2.907   5.415  0.2128  0.8209  0.5436
 7160SOL    HW228406   4.028   2.888   5.459 -0.5895  1.1385  2.2432
 7160SOL    HW328407   3.972   2.947   5.332  1.7702 -0.2332  0.4812
 7160SOL    MW428408   3.960   2.909   5.410 -1.0483  0.2567  0.4535
 7161SOL     OW28409   3.791   3.323   1.207 -0.4133  0.2042 -0.4361
 7161SOL    HW228410   3.808   3.352   1.297  0.1733  0.7140 -0.7035
 7161SOL    HW328411   3.698   3.340   1.193 -0.1999  1.5084 -0.4082
 7161SOL    MW428412   3.781   3.329   1.217  0.0089  0.2367 -0.3311
 7162SOL     OW28413   3.187   2.296   1.306 -0.0196  0.3513 -0.5803
 7162SOL    HW228414   3.273   2.259   1.292 -1.0008 -2.2862 -0.1173
 7162SOL    HW328415   3.191   2.332   1.395  0.3420 -0.5614 -0.2218
 7162SOL    MW428416   3.199   2.296   1.316 -0.4127  0.0155 -0.5787
 7163SOL     OW28417   5.461   1.279   2.978 -0.5195 -0.0287 -0.3739
 7163SOL    HW228418   5.440   1.228   3.056  0.6799 -1.4719 -0.9393
 7163SOL    HW328419   5.420   1.232   2.906  0.3624 -0.0579 -0.8771
 7163SOL    MW428420   5.453   1.266   2.979  0.4602 -0.0781  0.6561
 7164SOL     OW28421   3.143   1.789   5.097 -0.1018  0.5706  0.2222
 7164SOL    HW228422   3.174   1.704   5.129 -1.0543 -0.8445 -2.2986
 7164SOL    HW328423   3.223   1.833   5.068  0.1065 -1.6718 -3.1590
 7164SOL    MW428424   3.158   1.784   5.098 -0.2631  0.0836 -0.3249
 7165SOL     OW28425   0.329   2.114   2.151 -0.5321  0.2752  0.1433
 7165SOL    HW228426   0.345   2.170   2.075 -1.1983  1.4967  0.8823
 7165SOL    HW328427   0.345   2.025   2.119 -0.4165  0.8007 -1.3152
 7165SOL    MW428428   0.333   2.109   2.137  0.4399 -0.0139 -0.9405
 7166SOL     OW28429   2.844   3.979   4.162 -0.2771 -0.2093  0.6216
 7166SOL    HW228430   2.869   4.003   4.073  0.6211 -3.3860 -0.1098
 7166SOL    HW328431   2.890   4.042   4.218  0.3847  0.8977 -1.0984
 7166SOL    MW428432   2.854   3.991   4.158 -0.4180  0.5693  0.1547
 7167SOL     OW28433   4.513   3.998   0.499 -0.3364 -0.3332 -0.3349
 7167SOL    HW228434   4.528   4.019   0.407 -0.6188 -0.3405 -0.3837
 7167SOL    HW328435   4.600   3.991   0.537 -0.1750 -1.3573 -0.8396
 7167SOL    MW428436   4.526   4.000   0.492 -0.0811  0.0915 -0.3876
 7168SOL     OW28437   2.831   1.521   1.390 -0.3046  0.2417  0.5173
 7168SOL    HW228438   2.924   1.504   1.398 -0.5180 -1.0744  0.5163
 7168SOL    HW328439   2.793   1.488   1.472 -0.8806 -0.2316  0.0721
 7168SOL    MW428440   2.838   1.514   1.402 -0.1386 -0.3569  0.1622
 7169SOL     OW28441   4.511   2.437   1.145  0.1085 -0.5092  0.5664
 7169SOL    HW228442   4.497   2.485   1.064  0.7184 -0.3281  0.5628
 7169SOL    HW328443   4.594   2.391   1.132 -0.2203 -1.1771  0.7598
 7169SOL    MW428444   4.520   2.437   1.133 -0.6682  0.3527  0.1687
 7170SOL     OW28445   1.695   5.685   0.774 -0.3789  0.3118  0.5367
 7170SOL    HW228446   1.620   5.696   0.832  0.2694  0.6141  1.3420
 7170SOL    HW328447   1.753   5.625   0.820 -0.1755 -0.0221 -0.1337
 7170SOL    MW428448   1.693   5.679   0.787  0.3577 -0.4265 -0.1118
 7171SOL     OW28449   5.935   1.808   0.974 -0.3956 -0.5002  0.0776
 7171SOL    HW228450   5.873   1.880   0.963 -3.2028 -2.5892  0.7379
 7171SOL    HW328451   5.986   1.831   1.052  0.6981  1.9103 -1.2571
 7171SOL    MW428452   5.933   1.820   0.983  0.6258  0.0166 -0.2138
 7172SOL     OW28453   0.472   5.749   0.377 -0.0546  0.4777 -0.1955
 7172SOL    HW228454   0.498   5.692   0.305  0.8692  0.0571  0.4519
 7172SOL    HW328455   0.543   5.742   0.440 -0.8728  0.7730  0.7939
 7172SOL    MW428456   0.485   5.740   0.376 -0.2423 -0.2013 -0.2022
 7173SOL     OW28457   0.587   5.212   4.608 -0.9466  0.0357  0.5123
 7173SOL    HW228458   0.585   5.138   4.547 -1.2013  0.5108 -0.0558
 7173SOL    HW328459   0.526   5.187   4.678 -1.0253 -0.2960  0.3253
 7173SOL    MW428460   0.578   5.199   4.609  0.1089  0.1823 -0.1049
 7174SOL     OW28461   3.923   5.278   3.791  1.0254  0.1776 -0.0244
 7174SOL    HW228462   4.003   5.228   3.811  1.5149  0.9234 -0.0804
 7174SOL    HW328463   3.905   5.258   3.699  1.5819  0.5923 -0.2280
 7174SOL    MW428464   3.932   5.269   3.782  0.3723  0.1689 -0.0034
 7175SOL     OW28465   5.083   2.577   4.436 -0.1159 -0.4639 -0.2915
 7175SOL    HW228466   5.085   2.601   4.343  2.0351 -0.5417 -0.3046
 7175SOL    HW328467   5.027   2.499   4.439 -2.4791  1.0879 -1.0612
 7175SOL    MW428468   5.076   2.570   4.424  0.5464 -0.0596  0.5496
 7176SOL     OW28469   0.833   6.114   0.994  0.1334  0.2912  0.4373
 7176SOL    HW228470   0.743   6.109   1.027 -1.2510 -1.9658 -3.1304
 7176SOL    HW328471   0.826   6.164   0.913  1.9149 -0.7085 -0.3795
 7176SOL    MW428472   0.820   6.120   0.988  0.4860 -0.0072 -0.4295
 7177SOL     OW28473   0.267   0.248   0.889  0.0459 -0.0749  0.0668
 7177SOL    HW228474   0.318   0.172   0.860 -0.1495 -0.9432  1.8575
 7177SOL    HW328475   0.176   0.218   0.888 -0.0573  0.2038  0.5214
 7177SOL    MW428476   0.262   0.234   0.885  0.2233 -0.1314 -0.6018
 7178SOL     OW28477   2.565   3.682   4.837  0.1961 -0.3192  0.2199
 7178SOL    HW228478   2.558   3.750   4.905 -0.7964 -1.0596  0.8830
 7178SOL    HW328479   2.518   3.607   4.873  1.1918 -1.3487 -0.5435
 7178SOL    MW428480   2.558   3.681   4.851 -0.1915  0.3001 -0.4399
 7179SOL     OW28481   3.874   6.065   2.932  0.1202  0.3124  0.1605
 7179SOL    HW228482   3.927   6.066   3.012  0.6754 -0.7158 -0.1761
 7179SOL    HW328483   3.789   6.099   2.959  0.7645  1.4389  0.8412
 7179SOL    MW428484   3.870   6.070   2.946 -0.0925 -0.1695 -0.0861
 7180SOL     OW28485   1.520   5.914   3.071 -0.2055 -0.3501  0.1493
 7180SOL    HW228486   1.479   5.946   3.152  1.3297  0.9609  0.4692
 7180SOL    HW328487   1.483   5.827   3.058 -1.4319 -0.0855  1.5745
 7180SOL    MW428488   1.510   5.907   3.080  0.6757 -0.0185  0.1536
 7181SOL     OW28489   3.800   3.367   5.116  0.1575  0.7662 -0.2652
 7181SOL    HW228490   3.875   3.423   5.141  1.2187  1.2041 -3.8642
 7181SOL    HW328491   3.747   3.423   5.059 -0.0033 -1.1332 -2.0851
 7181SOL    MW428492   3.803   3.382   5.112  0.2946  0.2336  0.2293
 7182SOL     OW28493   1.313   0.780   4.668 -0.3362  0.0719  0.5676
 7182SOL    HW228494   1.344   0.793   4.757 -0.8391 -0.1166  0.7783
 7182SOL    HW328495   1.377   0.721   4.628 -0.0407  0.2607  0.7644
 7182SOL    MW428496   1.325   0.774   4.674  0.1032  0.1792 -0.1995
 7183SOL     OW28497   3.195   1.488   6.329  0.3732 -0.2345 -0.4378
 7183SOL    HW228498   3.171   1.572   6.368  0.4481 -0.8586  1.0012
 7183SOL    HW328499   3.177   1.499   6.236 -1.2161  0.8029 -0.0405
 7183SOL    MW428500   3.190   1.501   6.322 -0.0970  0.5237  0.0290
 7184SOL     OW28501   1.976   1.660   0.568 -0.2616  0.1465  0.0483
 7184SOL    HW228502   2.032   1.583   0.571 -1.1554 -0.7361 -2.8366
 7184SOL    HW328503   1.949   1.667   0.477 -0.8061  3.5017  0.3350
 7184SOL    MW428504   1.980   1.651   0.556 -0.0965  0.1581 -0.5822
 7185SOL     OW28505   5.233   2.329   6.147  0.2855  0.1899  0.2727
 7185SOL    HW228506   5.310   2.273   6.157  2.7477  2.9142 -1.6658
 7185SOL    HW328507   5.213   2.326   6.054 -1.1699  0.5698  0.5476
 7185SOL    MW428508   5.241   2.321   6.136 -0.0899  0.4579 -0.3715
 7186SOL     OW28509   6.409   1.405   6.097  0.0443  0.2405  0.0318
 7186SOL    HW228510   6.467   1.329   6.099 -0.0347  0.1750  2.5141
 7186SOL    HW328511   6.326   1.370   6.064  0.5175 -0.3399 -0.5709
 7186SOL    MW428512   6.405   1.390   6.093 -0.8582 -0.3238  0.1473
 7187SOL     OW28513   5.374   1.097   3.463  0.0667  0.1862 -0.2411
 7187SOL    HW228514   5.356   1.133   3.377  0.9042 -1.2171 -1.0374
 7187SOL    HW328515   5.442   1.155   3.500 -0.3041  0.7932 -0.5092
 7187SOL    MW428516   5.381   1.109   3.457 -0.6706 -0.2872  0.0246
 7188SOL     OW28517   2.634   6.090   6.413 -0.3326  0.0170 -0.3755
 7188SOL    HW228518   2.628   6.149   6.488 -0.6428  0.4309 -0.7216
 7188SOL    HW328519   2.543   6.061   6.398 -0.3075  0.1319 -0.7462
 7188SOL    MW428520   2.621   6.094   6.421  0.2784  0.4428  0.2562
 7189SOL     OW28521   2.198   6.314   1.187 -0.3871 -0.5607 -0.1034
 7189SOL    HW228522   2.233   6.396   1.151 -0.6783  0.3206  1.5297
 7189SOL    HW328523   2.257   6.246   1.153  0.9114  0.5139 -0.1003
 7189SOL    MW428524   2.210   6.316   1.178  0.0983 -0.1775  0.6820
 7190SOL     OW28525   1.925   3.074   4.298 -0.2616  0.1107 -0.0869
 7190SOL    HW228526   1.959   3.077   4.387  1.8211  1.1508 -0.8394
 7190SOL    HW328527   1.865   3.148   4.292 -0.7780 -0.2457  0.5699
 7190SOL    MW428528   1.922   3.084   4.309  0.1880  0.1462  0.0230
 7191SOL     OW28529   2.125   4.384   3.513  0.2401  0.0333  0.1031
 7191SOL    HW228530   2.214   4.395   3.547  0.7199 -0.1368 -1.0204
 7191SOL    HW328531   2.076   4.457   3.549  0.9798  0.4341  0.3199
 7191SOL    MW428532   2.131   4.395   3.522  0.3573  0.4023 -0.4619
 7192SOL     OW28533   2.552   1.849   4.002  0.7119  0.2113 -0.6927
 7192SOL    HW228534   2.575   1.788   3.932 -1.2572  0.5200 -1.6932
 7192SOL    HW328535   2.524   1.929   3.957  0.9876  1.0261  0.5119
 7192SOL    MW428536   2.551   1.852   3.987  0.0964  0.4324 -0.2162
 7193SOL     OW28537   1.779   3.484   3.963  0.3113 -0.6157  0.1522
 7193SOL    HW228538   1.713   3.545   3.929 -0.5292 -2.6860 -2.1774
 7193SOL    HW328539   1.770   3.491   4.058 -0.0453  2.4825 -0.0006
 7193SOL    MW428540   1.769   3.493   3.971 -0.0711 -0.0690 -0.6995
 7194SOL     OW28541   3.903   4.550   3.989  0.0971 -0.0002  0.8072
 7194SOL    HW228542   3.850   4.629   4.001  0.3330 -0.1205  3.1138
 7194SOL    HW328543   3.966   4.574   3.922 -0.7025  1.3183  0.4830
 7194SOL    MW428544   3.904   4.564   3.982  0.2081  0.3609 -0.0478
 7195SOL     OW28545   1.211   5.811   2.108  0.6300 -0.3424 -0.3141
 7195SOL    HW228546   1.197   5.775   2.020  0.5359  0.8586 -0.8064
 7195SOL    HW328547   1.250   5.897   2.092 -1.7633  1.0242  0.7081
 7195SOL    MW428548   1.214   5.817   2.094  0.2338  0.4160  0.7396
 7196SOL     OW28549   6.317   3.024   5.166  0.1476 -1.0144  0.0715
 7196SOL    HW228550   6.297   3.118   5.159  1.2145 -0.7920 -0.3260
 7196SOL    HW328551   6.234   2.983   5.189 -0.4952 -0.0487 -0.4390
 7196SOL    MW428552   6.303   3.031   5.168  0.4732  0.0760 -0.1041
 7197SOL     OW28553   4.533   3.667   0.038  0.2843 -0.0580 -0.4777
 7197SOL    HW228554   4.587   3.589   0.023 -0.4959 -0.5973 -0.5584
 7197SOL    HW328555   4.443   3.635   0.034 -0.0950  0.0533  3.3015
 7197SOL    MW428556   4.528   3.652   0.036  0.1111  0.6113  0.1497
 7198SOL     OW28557   3.422   4.879   3.634  1.0534  1.3316 -0.2626
 7198SOL    HW228558   3.411   4.966   3.596 -0.2180  0.8219 -1.1219
 7198SOL    HW328559   3.438   4.822   3.558  0.1485  0.5516  0.1151
 7198SOL    MW428560   3.423   4.883   3.619  0.2055 -0.4728 -0.5479
 7199SOL     OW28561   2.967   0.295   5.384 -0.5167 -0.2231  0.6260
 7199SOL    HW228562   2.915   0.367   5.351  1.5322  0.8655 -0.4401
 7199SOL    HW328563   2.937   0.218   5.335 -1.7528  0.1512  0.7660
 7199SOL    MW428564   2.957   0.294   5.373 -0.0278 -0.1738 -0.1774
 7200SOL     OW28565   5.813   1.699   1.285 -0.4196  0.4321  0.1749
 7200SOL    HW228566   5.781   1.671   1.199 -0.8435  1.0320  0.1269
 7200SOL    HW328567   5.744   1.758   1.318 -0.3889 -0.0022  1.0420
 7200SOL    MW428568   5.799   1.703   1.278  0.2141  0.4132 -0.1475
 7201SOL     OW28569   2.175   0.080   5.860 -0.0150 -0.0719 -0.0273
 7201SOL    HW228570   2.186   0.149   5.925  1.0617  1.3723 -1.6528
 7201SOL    HW328571   2.248   0.093   5.799 -1.1076 -1.2128 -1.6470
 7201SOL    MW428572   2.186   0.090   5.861 -0.4065  0.3016 -0.0752
 7202SOL     OW28573   1.799   0.957   2.179  0.5169  0.5829  0.5728
 7202SOL    HW228574   1.826   0.963   2.271  0.4720  1.3415  0.5489
 7202SOL    HW328575   1.848   0.884   2.143  2.0008  1.4744  0.7118
 7202SOL    MW428576   1.809   0.948   2.186 -0.3040 -0.1356  0.2347
 7203SOL     OW28577   1.364   4.336   6.153  0.0824  0.1727  0.3397
 7203SOL    HW228578   1.321   4.276   6.213  0.0567 -1.2847 -1.0703
 7203SOL    HW328579   1.457   4.328   6.173  0.0311  0.1221  0.5599
 7203SOL    MW428580   1.371   4.327   6.163 -0.1394 -0.1899 -0.1341
 7204SOL     OW28581   4.136   5.638   2.260 -0.4903  0.5121  0.1136
 7204SOL    HW228582   4.156   5.565   2.202  0.2290  1.0639 -0.3405
 7204SOL    HW328583   4.125   5.597   2.346  0.3657 -0.0761 -0.0428
 7204SOL    MW428584   4.137   5.623   2.264 -0.1783 -0.1024 -0.2623
 7205SOL     OW28585   5.453   2.155   3.795 -0.1843  0.1735  0.7992
 7205SOL    HW228586   5.472   2.064   3.770  1.1204  0.4321  0.7945
 7205SOL    HW328587   5.538   2.199   3.793 -0.8014  1.4087  0.7845
 7205SOL    MW428588   5.467   2.148   3.792  0.6496  0.2457 -0.1090
 7206SOL     OW28589   2.743   4.809   4.401  0.3969  0.1635 -0.1414
 7206SOL    HW228590   2.695   4.820   4.483 -1.7754  0.7004 -1.4047
 7206SOL    HW328591   2.726   4.718   4.376  0.6479  0.1434 -0.2387
 7206SOL    MW428592   2.734   4.798   4.408 -0.2411 -0.6241 -0.3918
 7207SOL     OW28593   1.834   1.718   3.732  0.1459 -0.5549 -0.0112
 7207SOL    HW228594   1.811   1.755   3.817 -0.2519 -1.0383  0.0917
 7207SOL    HW328595   1.832   1.793   3.672  0.5432 -0.1928  0.4233
 7207SOL    MW428596   1.831   1.733   3.735  0.0001 -0.1929  0.1296
 7208SOL     OW28597   1.697   2.073   5.106  0.1686  0.5326  0.1909
 7208SOL    HW228598   1.739   2.159   5.102 -1.6406  1.5120  0.7358
 7208SOL    HW328599   1.635   2.080   5.180 -0.9835 -0.7681 -0.5932
 7208SOL    MW428600   1.694   2.085   5.115 -0.1119 -0.3184 -0.4448
 7209SOL     OW28601   4.227   2.962   1.064 -0.0625 -0.0669  0.2050
 7209SOL    HW228602   4.178   2.879   1.060  0.2399 -0.2175 -3.1946
 7209SOL    HW328603   4.318   2.935   1.072  0.0314 -0.0887 -0.8477
 7209SOL    MW428604   4.232   2.947   1.065 -0.5112 -0.6094 -0.2757
 7210SOL     OW28605   4.889   0.691   5.979 -0.3208 -0.0587  0.4046
 7210SOL    HW228606   4.915   0.609   5.937 -0.2206 -0.0095  0.3701
 7210SOL    HW328607   4.971   0.739   5.991 -0.2913 -0.2570  1.0494
 7210SOL    MW428608   4.903   0.687   5.975 -0.6423 -0.5210  0.6243
 7211SOL     OW28609   0.985   0.482   4.993 -0.3729 -0.1433  0.3313
 7211SOL    HW228610   1.030   0.412   5.041 -0.3165 -1.1430 -1.1119
 7211SOL    HW328611   0.922   0.517   5.055  0.3305 -0.7565  1.4289
 7211SOL    MW428612   0.983   0.477   5.008 -0.7483  0.2100 -0.4817
 7212SOL     OW28613   0.363   3.623   3.677  0.1733 -0.2957  0.0249
 7212SOL    HW228614   0.351   3.600   3.585 -2.5669 -2.4621  0.7675
 7212SOL    HW328615   0.407   3.547   3.715  0.4904  0.1944  0.6642
 7212SOL    MW428616   0.367   3.610   3.670  0.6899 -0.7124 -0.5139
 7213SOL     OW28617   0.643   5.138   2.596 -0.1160  0.6118 -0.8075
 7213SOL    HW228618   0.654   5.179   2.682  0.9317 -1.7627  0.2666
 7213SOL    HW328619   0.722   5.085   2.585 -1.4257 -1.1648 -2.0481
 7213SOL    MW428620   0.655   5.137   2.606  0.4394  0.0632  0.1185
 7214SOL     OW28621   0.471   5.795   1.057 -0.2151 -0.3922  0.4889
 7214SOL    HW228622   0.386   5.802   1.014 -0.2975 -1.7380  0.3973
 7214SOL    HW328623   0.450   5.766   1.146  0.1719 -1.1395  0.3394
 7214SOL    MW428624   0.457   5.792   1.063  0.0354 -0.7151  0.2142
 7215SOL     OW28625   3.981   3.489   0.891  0.0364  0.4297  0.3116
 7215SOL    HW228626   3.949   3.520   0.976 -0.7285  0.4051  0.0397
 7215SOL    HW328627   4.025   3.566   0.853 -0.1213  0.6097  0.4905
 7215SOL    MW428628   3.983   3.504   0.897  0.5837 -0.2909  0.1859
 7216SOL     OW28629   3.943   0.563   5.573  0.8410  0.2089 -0.4335
 7216SOL    HW228630   3.896   0.608   5.503  1.0839 -2.2448 -2.3234
 7216SOL    HW328631   4.022   0.614   5.587  1.4612  0.0617 -2.9814
 7216SOL    MW428632   3.947   0.575   5.566  0.2060  0.2223  0.2160
 7217SOL     OW28633   3.037   3.395   6.355  0.2080  0.5108 -0.6000
 7217SOL    HW228634   3.054   3.304   6.378  0.7389  0.2120 -2.0565
 7217SOL    HW328635   2.950   3.393   6.313  0.3892  0.6042 -0.9838
 7217SOL    MW428636   3.028   3.383   6.352  0.6992  0.4371  0.0958
 7218SOL     OW28637   2.230   0.055   2.599  0.0017 -0.3535  0.1205
 7218SOL    HW228638   2.178   0.129   2.631  1.0902  0.8554 -0.7848
 7218SOL    HW328639   2.267   0.016   2.678  2.8047  2.6704  0.5149
 7218SOL    MW428640   2.228   0.060   2.614 -0.8612  0.3584 -0.2079
 7219SOL     OW28641   1.623   3.184   4.979  0.3978 -0.2445  0.3719
 7219SOL    HW228642   1.621   3.091   5.004 -0.4619 -0.3353 -0.0013
 7219SOL    HW328643   1.658   3.184   4.890 -0.0071 -0.2578  0.2090
 7219SOL    MW428644   1.627   3.172   4.970  0.4408  0.1039 -0.1762
 7220SOL     OW28645   1.310   5.972   4.865  0.0317  0.2893  0.1945
 7220SOL    HW228646   1.351   5.989   4.950 -0.0824 -0.1537  0.3397
 7220SOL    HW328647   1.310   6.057   4.821  2.2384  0.0974 -0.3004
 7220SOL    MW428648   1.316   5.985   4.870 -0.3827  0.3975 -0.5715
 7221SOL     OW28649   3.614   3.410   4.684 -0.6149 -0.4117  0.2096
 7221SOL    HW228650   3.571   3.401   4.598  0.1237  1.5005 -0.4292
 7221SOL    HW328651   3.542   3.426   4.745 -1.0173  0.4939 -0.4716
 7221SOL    MW428652   3.599   3.411   4.681  0.0049  0.3124  0.1205
 7222SOL     OW28653   5.089   0.781   5.027  0.2071  0.6876 -0.0362
 7222SOL    HW228654   5.067   0.689   5.018 -0.7621  1.0622 -1.9488
 7222SOL    HW328655   5.007   0.823   5.055  0.8393  0.8913  1.6097
 7222SOL    MW428656   5.075   0.774   5.029 -0.3031  0.7956  0.3578
 7223SOL     OW28657   0.932   5.638   5.684 -0.3441  0.0502  0.2722
 7223SOL    HW228658   0.972   5.637   5.597  0.5035 -1.2341  0.6472
 7223SOL    HW328659   0.865   5.707   5.679  0.4938  0.8172 -1.0162
 7223SOL    MW428660   0.928   5.647   5.672  0.1492 -0.2773  0.0694
 7224SOL     OW28661   6.036   5.563   5.145 -0.2932 -0.2553 -0.3688
 7224SOL    HW228662   6.009   5.478   5.181 -1.6842  0.1511 -0.4117
 7224SOL    HW328663   5.975   5.579   5.073  0.4054  0.4655 -0.8090
 7224SOL    MW428664   6.025   5.554   5.140  0.4998 -0.7486  0.7541
 7225SOL     OW28665   3.162   2.489   0.656  0.1540  0.1941  0.2165
 7225SOL    HW228666   3.221   2.504   0.583 -0.0449 -4.1533 -1.1119
 7225SOL    HW328667   3.074   2.492   0.618 -0.1895  1.1566  1.0256
 7225SOL    MW428668   3.158   2.491   0.642 -0.3100 -0.3079  0.6399
 7226SOL     OW28669   0.039   5.721   3.823  0.4432 -0.9306  0.4057
 7226SOL    HW228670   0.118   5.670   3.836  0.7497 -0.5666 -0.0176
 7226SOL    HW328671   0.013   5.704   3.733  1.3338  0.7322 -0.1977
 7226SOL    MW428672   0.046   5.712   3.813 -0.1655 -0.2305 -0.8228
 7227SOL     OW28673   1.597   2.113   2.417 -0.2394  0.1030  0.2383
 7227SOL    HW228674   1.505   2.117   2.393 -0.0232 -0.2040 -0.7159
 7227SOL    HW328675   1.639   2.069   2.342  0.4184 -1.3145  1.3796
 7227SOL    MW428676   1.591   2.107   2.404  0.0102 -0.2607 -0.3240
 7228SOL     OW28677   2.347   3.098   5.125  0.3777  0.1029 -0.1381
 7228SOL    HW228678   2.412   3.146   5.073 -0.7434  0.9613 -0.7754
 7228SOL    HW328679   2.296   3.049   5.060  0.3461 -0.5413  0.3563
 7228SOL    MW428680   2.349   3.098   5.110 -0.1453  0.2046  0.0834
 7229SOL     OW28681   3.274   1.081   4.601 -0.2713  0.1776  0.3189
 7229SOL    HW228682   3.244   1.049   4.516 -0.7238  1.5428 -0.0566
 7229SOL    HW328683   3.314   1.004   4.642 -1.0160 -0.7788 -0.6708
 7229SOL    MW428684   3.275   1.067   4.595 -0.8197  0.4596 -0.1863
 7230SOL     OW28685   2.236   5.756   2.322  0.2036  0.3577  0.2256
 7230SOL    HW228686   2.272   5.694   2.258  0.5139  0.2240  0.5267
 7230SOL    HW328687   2.150   5.720   2.344  0.1238  0.3672 -0.0622
 7230SOL    MW428688   2.230   5.743   2.316 -0.5816 -0.0701 -0.3862
 7231SOL     OW28689   2.488   1.264   3.751  0.5197 -0.2873 -0.3554
 7231SOL    HW228690   2.567   1.294   3.797 -0.2663  1.2481  0.0820
 7231SOL    HW328691   2.492   1.309   3.666 -0.6141  1.0633  0.2581
 7231SOL    MW428692   2.499   1.274   3.745  0.1322  0.2990 -0.1969
 7232SOL     OW28693   1.935   3.098   4.576 -0.2763 -0.3349 -0.5248
 7232SOL    HW228694   1.977   3.178   4.606 -0.3747 -0.0902 -1.0182
 7232SOL    HW328695   1.993   3.027   4.603 -0.1084 -0.0849 -0.2318
 7232SOL    MW428696   1.948   3.099   4.583  0.2052 -0.2481 -0.0241
 7233SOL     OW28697   0.489   0.808   2.811  0.2270 -0.4926  0.2581
 7233SOL    HW228698   0.467   0.828   2.720  1.3196  1.6416  0.4087
 7233SOL    HW328699   0.485   0.893   2.856  0.0216 -1.4539  2.1419
 7233SOL    MW428700   0.485   0.822   2.805  0.0677  0.1554  0.1599
 7234SOL     OW28701   3.609   3.404   0.380  0.5774  0.3843  0.1802
 7234SOL    HW228702   3.610   3.474   0.446  1.7685  0.0938  0.5117
 7234SOL    HW328703   3.572   3.329   0.426  1.0005  0.3026  0.3958
 7234SOL    MW428704   3.605   3.404   0.395 -0.0731  0.2010  0.3655
 7235SOL     OW28705   3.052   4.665   2.567 -0.7842 -0.6056 -0.3451
 7235SOL    HW228706   3.002   4.727   2.513 -0.3604  1.1847  1.1755
 7235SOL    HW328707   2.992   4.643   2.638 -0.6533 -1.3371 -0.4625
 7235SOL    MW428708   3.038   4.671   2.569  0.0721 -0.0236 -0.5837
 7236SOL     OW28709   3.994   3.922   1.452 -0.0207  0.3045  0.1713
 7236SOL    HW228710   3.960   3.874   1.376 -0.3346  0.7627  0.0207
 7236SOL    HW328711   4.062   3.978   1.417 -0.6327  1.0241  0.1067
 7236SOL    MW428712   3.998   3.923   1.437  0.5874 -0.1504  0.5179
 7237SOL     OW28713   0.771   3.938   0.433  0.2922  0.1807  0.1672
 7237SOL    HW228714   0.862   3.915   0.452  1.1564  2.2306 -1.1130
 7237SOL    HW328715   0.776   4.027   0.398 -2.4055  0.9864  1.5854
 7237SOL    MW428716   0.784   3.947   0.431  0.0408 -0.3526  0.2268
 7238SOL     OW28717   3.653   5.951   0.862 -0.9696 -0.3536  0.3008
 7238SOL    HW228718   3.685   5.865   0.837  0.4525  0.1026  0.4579
 7238SOL    HW328719   3.573   5.963   0.812 -0.5613 -1.2914 -0.5970
 7238SOL    MW428720   3.647   5.941   0.852 -0.3870 -0.4299  0.1577
 7239SOL     OW28721   0.543   5.532   1.587 -0.3001  0.0235 -0.3621
 7239SOL    HW228722   0.546   5.628   1.583 -1.1862  0.0825  0.1199
 7239SOL    HW328723   0.487   5.507   1.514  0.3501 -0.1627 -0.8000
 7239SOL    MW428724   0.536   5.541   1.577  0.2974  0.5222  0.5806
 7240SOL     OW28725   0.655   1.981   5.128 -0.0390  0.2407 -0.0221
 7240SOL    HW228726   0.728   1.921   5.110  0.0715  0.8145 -1.6151
 7240SOL    HW328727   0.690   2.043   5.192  0.5548 -0.0837 -0.0290
 7240SOL    MW428728   0.669   1.981   5.134 -0.2580  0.8954 -0.1427
 7241SOL     OW28729   4.881   2.501   0.880 -0.1226  0.2767 -0.1598
 7241SOL    HW228730   4.855   2.539   0.796 -0.6222  0.8081  0.2266
 7241SOL    HW328731   4.885   2.576   0.940  0.7599 -0.0214  0.1681
 7241SOL    MW428732   4.878   2.516   0.877  0.2646 -0.0654 -0.0993
 7242SOL     OW28733   5.150   2.204   2.441 -0.1406  0.1301 -0.3437
 7242SOL    HW228734   5.211   2.142   2.481  0.6374 -0.6225 -2.5279
 7242SOL    HW328735   5.176   2.289   2.477  1.9381 -0.2351 -0.8321
 7242SOL    MW428736   5.162   2.207   2.451  0.7030  0.1414 -0.3500
 7243SOL     OW28737   5.260   3.630   4.800 -0.6602  0.1767  0.6012
 7243SOL    HW228738   5.294   3.661   4.716 -0.7619 -0.4203  0.3394
 7243SOL    HW328739   5.336   3.592   4.845 -0.4258  1.2231  1.1344
 7243SOL    MW428740   5.274   3.629   4.795  0.1038  0.4961 -0.1440
 7244SOL     OW28741   0.464   5.120   5.766  0.2835  0.4964  0.1611
 7244SOL    HW228742   0.516   5.046   5.733 -0.3248 -0.4339  1.2560
 7244SOL    HW328743   0.522   5.163   5.828  0.8918  1.3848 -0.9755
 7244SOL    MW428744   0.479   5.116   5.770 -0.0866  0.1037  0.0773
 7245SOL     OW28745   0.757   4.871   5.174 -0.0596 -0.7532 -0.1569
 7245SOL    HW228746   0.817   4.858   5.100  1.1095  2.0846  0.1631
 7245SOL    HW328747   0.672   4.889   5.133  0.4401  0.1708 -0.8383
 7245SOL    MW428748   0.754   4.872   5.159 -0.2779 -0.2349  0.2610
 7246SOL     OW28749   3.346   2.900   2.689  0.2500  0.8507 -0.1417
 7246SOL    HW228750   3.439   2.905   2.668  0.2713  1.5373  0.0943
 7246SOL    HW328751   3.341   2.839   2.763  0.4227  0.2290 -0.6316
 7246SOL    MW428752   3.358   2.893   2.696 -0.0554  0.1230  0.2983
 7247SOL     OW28753   2.644   4.547   3.540  0.4529  0.1574  0.9101
 7247SOL    HW228754   2.636   4.640   3.518  1.3284 -0.2066 -1.1991
 7247SOL    HW328755   2.701   4.544   3.616 -1.1617  1.4173  2.2630
 7247SOL    MW428756   2.650   4.559   3.547 -0.3067 -0.1494  0.1540
 7248SOL     OW28757   2.809   4.406   2.587  0.3089  0.6593 -0.2318
 7248SOL    HW228758   2.744   4.345   2.621 -0.0949  1.9110  1.3474
 7248SOL    HW328759   2.801   4.398   2.492 -0.0934 -1.3218 -0.0888
 7248SOL    MW428760   2.800   4.397   2.579 -0.5202 -0.5039  0.1165
 7249SOL     OW28761   3.850   4.903   5.979  0.4215 -0.6304  0.6996
 7249SOL    HW228762   3.761   4.915   6.012  0.3152  1.5457 -0.1369
 7249SOL    HW328763   3.903   4.890   6.057 -0.0733  2.4711  1.6976
 7249SOL    MW428764   3.845   4.903   5.994 -0.3423 -0.0856 -0.7888
 7250SOL     OW28765   3.224   4.236   5.597  0.3946  0.2223  0.2342
 7250SOL    HW228766   3.205   4.143   5.599 -2.2435  0.6490 -1.4541
 7250SOL    HW328767   3.282   4.248   5.522  1.8060 -0.1429  1.2075
 7250SOL    MW428768   3.229   4.225   5.588 -0.5291  0.3609 -0.0804
 7251SOL     OW28769   3.109   0.663   2.344 -0.7332 -0.1726  0.0603
 7251SOL    HW228770   3.042   0.683   2.409 -0.9063  1.5093 -0.5663
 7251SOL    HW328771   3.084   0.577   2.309 -2.7949  0.5334 -0.3814
 7251SOL    MW428772   3.097   0.654   2.348 -0.3470  0.2249  0.5133
 7252SOL     OW28773   2.285   1.010   0.985 -0.1063 -0.1046  0.4848
 7252SOL    HW228774   2.323   1.088   0.946 -1.0159  0.5977  0.9750
 7252SOL    HW328775   2.350   0.981   1.049  0.6941 -0.3676 -0.4151
 7252SOL    MW428776   2.299   1.016   0.988  0.0288  0.4227  0.2262
 7253SOL     OW28777   1.340   2.842   3.231 -0.1443 -0.1804  0.0078
 7253SOL    HW228778   1.379   2.911   3.177 -0.0107  0.9775  1.5189
 7253SOL    HW328779   1.394   2.839   3.309 -1.0140 -1.0202  0.6011
 7253SOL    MW428780   1.352   2.851   3.234  0.0081 -0.4763  0.0371
 7254SOL     OW28781   5.397   0.779   4.270 -0.4370 -0.7158  1.0306
 7254SOL    HW228782   5.389   0.757   4.363 -0.8748 -1.5352  0.8104
 7254SOL    HW328783   5.487   0.755   4.248  0.4921  1.7750  1.8017
 7254SOL    MW428784   5.408   0.773   4.280  0.2191 -0.2228  0.4536
 7255SOL     OW28785   3.715   5.379   1.793 -0.9333  0.4719  0.0978
 7255SOL    HW228786   3.634   5.425   1.813 -1.3756  0.6198 -1.8280
 7255SOL    HW328787   3.704   5.293   1.835 -1.6565  0.8376  0.6826
 7255SOL    MW428788   3.703   5.374   1.801  0.0583  0.1495  0.5724
 7256SOL     OW28789   3.528   4.833   0.464 -0.0702 -0.2374  0.5551
 7256SOL    HW228790   3.540   4.900   0.531  0.3586 -0.7102  0.9632
 7256SOL    HW328791   3.579   4.758   0.496  1.1568 -0.0665 -0.8939
 7256SOL    MW428792   3.537   4.832   0.477  0.7758  0.8908  0.1152
 7257SOL     OW28793   2.556   4.794   0.809 -0.2034  0.3775 -0.5129
 7257SOL    HW228794   2.461   4.798   0.806 -0.3352 -0.5781  1.0515
 7257SOL    HW328795   2.581   4.738   0.736 -0.8362  0.5865 -0.8943
 7257SOL    MW428796   2.547   4.788   0.799  0.0048  0.1963 -0.0922
 7258SOL     OW28797   2.114   4.969   3.044  0.2541 -0.1707  0.1869
 7258SOL    HW228798   2.032   4.922   3.028  0.0973 -0.7100  2.3241
 7258SOL    HW328799   2.175   4.901   3.072  0.3456  0.6685  2.1895
 7258SOL    MW428800   2.111   4.954   3.046 -0.1438 -0.2109  0.1168
 7259SOL     OW28801   2.350   1.116   2.726 -0.0521 -0.4114  0.3473
 7259SOL    HW228802   2.376   1.052   2.793  0.8321  0.6307  1.0441
 7259SOL    HW328803   2.339   1.064   2.646 -1.1754 -1.6853  1.3006
 7259SOL    MW428804   2.352   1.101   2.724 -0.0658  0.0131  0.0346
 7260SOL     OW28805   0.129   3.920   5.499  0.4250  0.5485 -0.1346
 7260SOL    HW228806   0.134   3.876   5.414  1.7433  1.6787 -0.6909
 7260SOL    HW328807   0.205   3.888   5.547  1.2473  1.9227 -0.4431
 7260SOL    MW428808   0.140   3.910   5.494  0.0943  0.2490  0.5039
 7261SOL     OW28809   4.171   5.166   5.998  0.0647  0.3222  0.1846
 7261SOL    HW228810   4.116   5.196   6.070 -0.2682  0.1713 -0.0030
 7261SOL    HW328811   4.220   5.093   6.035  0.2623  0.5609  0.4001
 7261SOL    MW428812   4.170   5.160   6.012  0.2557  0.0425  0.4800
 7262SOL     OW28813   6.111   4.945   2.111 -0.3644  0.2267  0.3247
 7262SOL    HW228814   6.096   4.897   2.029  0.1401  0.7786 -0.0944
 7262SOL    HW328815   6.204   4.932   2.130 -0.5048 -0.0071  0.8872
 7262SOL    MW428816   6.121   4.937   2.103 -0.2830  0.2512 -0.5219
 7263SOL     OW28817   2.120   0.386   3.817  0.6279  0.3304  0.0919
 7263SOL    HW228818   2.026   0.390   3.836  0.9554 -1.8661  2.8062
 7263SOL    HW328819   2.129   0.314   3.755  0.6558 -1.3678  1.9494
 7263SOL    MW428820   2.109   0.377   3.811  0.1164  0.3849  0.7878
 7264SOL     OW28821   5.640   3.599   6.349 -0.0244 -0.0261  0.3143
 7264SOL    HW228822   5.667   3.528   6.408 -0.8511 -1.0508 -0.4926
 7264SOL    HW328823   5.687   3.582   6.268 -0.1412  0.4221  0.1496
 7264SOL    MW428824   5.650   3.587   6.346 -0.1540  0.1538 -0.8050
 7265SOL     OW28825   3.404   3.522   1.391 -0.0879 -0.1673  0.2720
 7265SOL    HW228826   3.486   3.567   1.372  0.9806 -1.9616  0.3847
 7265SOL    HW328827   3.364   3.573   1.461  1.5269  0.1038  1.0482
 7265SOL    MW428828   3.409   3.535   1.397  0.1466  0.1474  0.2872
 7266SOL     OW28829   3.855   2.629   5.348  0.4239  0.0332  0.1541
 7266SOL    HW228830   3.870   2.723   5.337  1.2069 -0.2075 -1.1647
 7266SOL    HW328831   3.942   2.594   5.369  0.3561 -0.5133 -0.4358
 7266SOL    MW428832   3.869   2.637   5.349 -0.2849 -0.2619  0.0106
 7267SOL     OW28833   5.678   5.322   4.851  0.2612  0.5667 -0.4865
 7267SOL    HW228834   5.761   5.368   4.863 -0.4294  1.6174  0.4754
 7267SOL    HW328835   5.698   5.252   4.789  2.2839 -0.2949  1.0230
 7267SOL    MW428836   5.692   5.319   4.845  0.5701  0.0901  0.4890
 7268SOL     OW28837   4.681   1.366   4.332  0.1036 -0.0999 -0.1222
 7268SOL    HW228838   4.773   1.375   4.357 -0.0662 -1.5109  1.2180
 7268SOL    HW328839   4.641   1.448   4.361  0.8215  0.2573 -0.1109
 7268SOL    MW428840   4.688   1.378   4.339  0.2032 -0.1090 -0.0113
 7269SOL     OW28841   3.990   1.691   0.776  0.0656  0.7930  0.1774
 7269SOL    HW228842   3.958   1.601   0.772 -0.9347  1.1679 -0.8607
 7269SOL    HW328843   3.922   1.739   0.824 -0.4526  1.3935 -1.1141
 7269SOL    MW428844   3.977   1.686   0.782  0.0686 -0.0954 -0.1892
 7270SOL     OW28845   3.615   5.586   4.203  0.8506 -0.4940  0.4527
 7270SOL    HW228846   3.544   5.621   4.256  0.7873 -0.2676  0.2244
 7270SOL    HW328847   3.604   5.630   4.118  0.6281 -1.2362  0.0864
 7270SOL    MW428848   3.604   5.597   4.198 -0.4482  0.2899  0.9229
 7271SOL     OW28849   4.009   1.710   0.071 -0.1105 -0.1436  0.1736
 7271SOL    HW228850   4.034   1.794   0.109  0.4234 -0.5621  0.7801
 7271SOL    HW328851   3.996   1.652   0.147 -1.4188 -0.3594 -0.1915
 7271SOL    MW428852   4.010   1.713   0.086  1.1736 -0.7970 -0.6391
 7272SOL     OW28853   3.414   2.843   4.248  0.1612  0.0813  0.0495
 7272SOL    HW228854   3.323   2.875   4.250 -0.1343 -0.4167 -2.2462
 7272SOL    HW328855   3.412   2.761   4.297 -0.8292 -0.3006 -0.5915
 7272SOL    MW428856   3.402   2.837   4.254  0.1952 -0.0873 -0.3621
 7273SOL     OW28857   1.168   5.922   3.225 -0.1428 -0.1466  0.8717
 7273SOL    HW228858   1.237   5.901   3.287 -0.0782  0.5533  1.0366
 7273SOL    HW328859   1.136   5.836   3.195  1.0940 -0.4736  0.4500
 7273SOL    MW428860   1.173   5.908   3.229  0.1611  0.3409 -0.4457
 7274SOL     OW28861   1.501   1.368   3.071 -0.3523  0.2755  0.0867
 7274SOL    HW228862   1.511   1.447   3.124 -0.1018 -0.9806  2.0074
 7274SOL    HW328863   1.410   1.342   3.085 -0.0802 -0.4734  0.5297
 7274SOL    MW428864   1.490   1.375   3.080 -0.2529  0.7028 -0.2358
 7275SOL     OW28865   1.346   5.599   4.922  0.0710  0.0229  0.6852
 7275SOL    HW228866   1.287   5.662   4.963  1.6416  2.1602 -0.1949
 7275SOL    HW328867   1.381   5.644   4.845 -0.2911 -2.6845 -1.2006
 7275SOL    MW428868   1.343   5.613   4.917  0.2628 -0.6039 -0.1096
 7276SOL     OW28869   0.070   4.280   1.840  0.0902 -0.1318  0.0869
 7276SOL    HW228870   0.113   4.365   1.846  1.4521 -0.7796 -0.1701
 7276SOL    HW328871   0.140   4.217   1.856 -0.4461 -1.2727 -1.7842
 7276SOL    MW428872   0.085   4.283   1.843  0.3760 -0.2324 -0.2418
 7277SOL     OW28873   2.058   4.830   4.156  0.3173  0.1062  0.1916
 7277SOL    HW228874   2.047   4.744   4.116  3.4434 -1.1453  1.6913
 7277SOL    HW328875   2.093   4.812   4.243  0.4784  2.8974  0.8221
 7277SOL    MW428876   2.061   4.817   4.162  0.5430  0.9581 -0.3017
 7278SOL     OW28877   0.359   4.130   2.388 -0.0480 -0.5677  0.3563
 7278SOL    HW228878   0.381   4.050   2.436  2.0837 -0.3243 -0.1204
 7278SOL    HW328879   0.345   4.100   2.298  3.5276 -0.1890 -0.4615
 7278SOL    MW428880   0.360   4.115   2.382  0.1785  0.0077 -0.0033
 7279SOL     OW28881   4.455   1.779   1.477  0.2007  0.2263 -0.1145
 7279SOL    HW228882   4.453   1.760   1.383  2.0078 -0.0341 -0.1432
 7279SOL    HW328883   4.477   1.872   1.482  1.7968 -0.1182  0.0032
 7279SOL    MW428884   4.458   1.789   1.465  0.3085  0.0240 -0.1569
 7280SOL     OW28885   3.556   2.072   3.444  0.0782 -0.0716  0.5503
 7280SOL    HW228886   3.565   2.088   3.350 -0.3500  1.3561  0.7249
 7280SOL    HW328887   3.468   2.035   3.454 -0.9416  2.2108  0.6166
 7280SOL    MW428888   3.546   2.069   3.433 -0.0703 -0.8257  0.6059
 7281SOL     OW28889   1.515   4.131   0.972  0.0794 -0.4808  0.0406
 7281SOL    HW228890   1.504   4.036   0.981  1.2291 -0.7671 -1.4101
 7281SOL    HW328891   1.568   4.156   1.048 -0.7938 -0.8530  0.8075
 7281SOL    MW428892   1.520   4.122   0.983  0.0315  0.2430 -0.9852
 7282SOL     OW28893   4.241   3.445   2.891 -0.1464 -0.2095 -0.6545
 7282SOL    HW228894   4.252   3.383   2.963  1.7557 -0.2185 -0.9077
 7282SOL    HW328895   4.247   3.391   2.812  0.0024  0.1028 -0.8572
 7282SOL    MW428896   4.243   3.429   2.890 -0.2689 -0.5441  0.7655
 7283SOL     OW28897   4.204   0.210   5.795  0.0365  0.4030 -0.0100
 7283SOL    HW228898   4.262   0.257   5.855  1.4018 -0.3076 -0.7122
 7283SOL    HW328899   4.189   0.126   5.837 -1.0715  0.8257  0.4822
 7283SOL    MW428900   4.210   0.205   5.808  0.8316 -0.5140 -0.3834
 7284SOL     OW28901   0.363   4.525   0.855  0.1930  0.4082  0.5151
 7284SOL    HW228902   0.348   4.430   0.863 -0.9188  0.6389  1.4709
 7284SOL    HW328903   0.316   4.562   0.929 -0.1301  1.7934 -0.3577
 7284SOL    MW428904   0.355   4.517   0.866 -0.0261  0.3041 -0.0508
 7285SOL     OW28905   5.240   5.199   2.322  0.2183 -0.1692  0.0766
 7285SOL    HW228906   5.329   5.202   2.359  0.4762 -2.3136 -0.1977
 7285SOL    HW328907   5.188   5.157   2.390 -0.2439 -0.2717 -0.3391
 7285SOL    MW428908   5.245   5.194   2.336  0.0204 -0.1504 -0.2838
 7286SOL     OW28909   5.892   2.664   3.552  0.2668 -0.0966 -0.1781
 7286SOL    HW228910   5.957   2.610   3.597 -0.6816 -1.7113 -0.6628
 7286SOL    HW328911   5.809   2.637   3.590 -0.2135  1.3898 -0.1169
 7286SOL    MW428912   5.890   2.653   3.563 -0.1240 -0.4953  0.3304
 7287SOL     OW28913   6.324   3.537   2.223 -0.3677  0.0927  0.0755
 7287SOL    HW228914   6.341   3.443   2.227  0.2708  0.1878 -0.3299
 7287SOL    HW328915   6.307   3.562   2.314 -1.2975 -0.5419  0.0917
 7287SOL    MW428916   6.324   3.528   2.236 -0.2552 -0.4710 -0.6831
 7288SOL     OW28917   4.997   2.693   3.332  0.8811  0.2097 -0.2433
 7288SOL    HW228918   5.083   2.688   3.374  0.4704 -0.5065  0.5489
 7288SOL    HW328919   4.999   2.625   3.265  1.1414  0.5925 -0.6237
 7288SOL    MW428920   5.009   2.683   3.329 -0.0813 -0.4063  0.6958
 7289SOL     OW28921   2.993   3.990   5.125 -0.2624  0.0015 -0.5555
 7289SOL    HW228922   2.918   3.947   5.165 -0.6233  1.1405  0.0236
 7289SOL    HW328923   2.961   4.077   5.100  1.2575  1.1588  1.2100
 7289SOL    MW428924   2.979   3.996   5.127  0.2638 -0.4804 -0.2984
 7290SOL     OW28925   4.273   0.514   4.984  0.0493 -0.1119 -0.2877
 7290SOL    HW228926   4.278   0.471   5.069 -0.8982 -0.1140 -0.2203
 7290SOL    HW328927   4.213   0.459   4.933 -1.5640  1.3329 -0.0575
 7290SOL    MW428928   4.266   0.501   4.988 -0.3365 -0.1137  0.2032
 7291SOL     OW28929   4.739   1.932   2.922 -0.6042  0.0917  0.3697
 7291SOL    HW228930   4.687   1.903   2.997 -1.2176 -0.7447 -0.3522
 7291SOL    HW328931   4.691   2.007   2.887 -0.6661  0.0737  0.4166
 7291SOL    MW428932   4.726   1.938   2.927  0.0696 -0.0730  0.1182
 7292SOL     OW28933   2.551   1.247   4.064 -0.3485 -0.0318  0.0074
 7292SOL    HW228934   2.546   1.279   4.154 -0.2611 -0.3216  0.1161
 7292SOL    HW328935   2.473   1.281   4.022  0.6511  1.8999 -0.3857
 7292SOL    MW428936   2.540   1.256   4.071  0.4425  0.5575 -0.2741
 7293SOL     OW28937   0.364   0.589   4.284 -0.0948 -0.1182  0.1593
 7293SOL    HW228938   0.341   0.613   4.374  0.1644  0.4965  0.0694
 7293SOL    HW328939   0.434   0.524   4.293  0.0890  0.1100  0.4046
 7293SOL    MW428940   0.370   0.583   4.297  0.2131  0.2041 -0.4868
 7294SOL     OW28941   3.206   3.359   1.252 -0.3210  0.3268  0.0023
 7294SOL    HW228942   3.137   3.365   1.318  1.3552  2.2782  1.7386
 7294SOL    HW328943   3.283   3.397   1.295  1.5148 -0.5578 -2.2809
 7294SOL    MW428944   3.207   3.364   1.266 -0.0041 -0.2610  0.7226
 7295SOL     OW28945   6.290   6.384   6.127 -0.0461 -0.0268  0.4676
 7295SOL    HW228946   6.348   6.439   6.074 -1.5487 -0.5677 -1.9009
 7295SOL    HW328947   6.346   6.312   6.155  0.7350  0.0615 -0.7557
 7295SOL    MW428948   6.305   6.382   6.124 -0.0702  0.2562  0.4533
 7296SOL     OW28949   5.152   6.419   5.322 -0.0667  0.5465  0.2818
 7296SOL    HW228950   5.073   6.422   5.376 -0.3083  1.2810 -0.0977
 7296SOL    HW328951   5.120   6.395   5.235  0.2345  0.0536  0.3020
 7296SOL    MW428952   5.137   6.416   5.318 -0.4286 -0.2939 -0.3356
 7297SOL     OW28953   0.224   3.666   0.676 -0.7962  0.2720 -0.2974
 7297SOL    HW228954   0.144   3.635   0.717 -1.2040  0.6668 -0.7902
 7297SOL    HW328955   0.294   3.641   0.737 -1.4299  1.3080  0.9044
 7297SOL    MW428956   0.223   3.659   0.690 -0.5331 -0.1235  0.6467
 7298SOL     OW28957   5.569   4.430   5.474 -0.2640 -0.0750 -0.0513
 7298SOL    HW228958   5.640   4.438   5.538  1.0229 -0.8203 -1.3283
 7298SOL    HW328959   5.595   4.486   5.401 -1.8453  0.9877  0.1497
 7298SOL    MW428960   5.582   4.438   5.473 -0.0613  0.5542 -0.1013
 7299SOL     OW28961   1.334   5.619   2.533  0.1868  0.4465 -0.3073
 7299SOL    HW228962   1.267   5.604   2.467 -1.2739 -0.4067  1.3120
 7299SOL    HW328963   1.307   5.700   2.577  0.1817  0.0830  0.3722
 7299SOL    MW428964   1.322   5.628   2.530  0.0334 -0.5075 -0.4185
 7300SOL     OW28965   5.529   4.010   2.698  0.0825  0.4673  0.1376
 7300SOL    HW228966   5.528   3.965   2.782  0.0689 -0.4198 -0.3243
 7300SOL    HW328967   5.588   4.084   2.711  1.6911 -0.7768  0.3906
 7300SOL    MW428968   5.537   4.014   2.711 -1.0859  0.0317  0.3021
 7301SOL     OW28969   4.546   0.166   4.596  0.0451  0.1625 -0.4818
 7301SOL    HW228970   4.580   0.163   4.506  1.4083  1.5862 -0.0724
 7301SOL    HW328971   4.528   0.259   4.611 -0.6550 -0.1279  0.5602
 7301SOL    MW428972   4.548   0.178   4.586  0.2622  0.4527  0.1505
 7302SOL     OW28973   6.273   0.667   1.143 -0.0523 -0.1308 -0.3103
 7302SOL    HW228974   6.322   0.591   1.175  1.6375  0.0287 -2.3157
 7302SOL    HW328975   6.313   0.741   1.188  2.2320  0.0781 -2.4594
 7302SOL    MW428976   6.285   0.667   1.153 -1.0502  0.5269 -0.0560
 7303SOL     OW28977   1.595   5.649   2.835  0.1098 -0.7473  0.2076
 7303SOL    HW228978   1.562   5.635   2.923 -0.8608  0.4490  0.0713
 7303SOL    HW328979   1.574   5.569   2.788 -2.3777 -0.1710  0.2263
 7303SOL    MW428980   1.588   5.637   2.840  0.1039 -0.4090  0.2668
 7304SOL     OW28981   6.199   3.805   6.106 -0.6117  0.0407 -0.3973
 7304SOL    HW228982   6.222   3.871   6.171 -2.0032  0.2006 -0.0253
 7304SOL    HW328983   6.269   3.741   6.111 -0.0563  0.6884  0.3741
 7304SOL    MW428984   6.211   3.805   6.115  0.4683 -0.1207  0.0455
 7305SOL     OW28985   0.911   1.933   1.204 -0.5745  0.2142 -0.1862
 7305SOL    HW228986   0.824   1.895   1.187 -0.5567  0.2032 -0.2537
 7305SOL    HW328987   0.972   1.875   1.158 -0.6902  1.3476 -1.8961
 7305SOL    MW428988   0.907   1.921   1.196  0.3372  0.0658 -0.0754
 7306SOL     OW28989   4.620   0.171   0.690  0.1052  0.0389  0.4096
 7306SOL    HW228990   4.647   0.156   0.599  1.8552 -0.4585  0.9603
 7306SOL    HW328991   4.674   0.245   0.718 -1.4730  1.1434  0.6422
 7306SOL    MW428992   4.631   0.179   0.681 -0.3356 -0.3696  0.0818
 7307SOL     OW28993   1.793   2.294   0.973 -0.0315  0.5889  0.6476
 7307SOL    HW228994   1.771   2.365   0.912  2.1189 -1.5569 -2.9413
 7307SOL    HW328995   1.713   2.241   0.978  0.8670 -1.8117 -4.4768
 7307SOL    MW428996   1.779   2.297   0.966 -0.1240  0.3403  0.2509
 7308SOL     OW28997   1.479   3.430   1.827 -0.2365 -0.5287 -0.2919
 7308SOL    HW228998   1.520   3.374   1.761  0.2791 -1.3018  0.6538
 7308SOL    HW328999   1.387   3.432   1.802 -0.1288 -1.1803 -0.7848
 7308SOL    MW429000   1.472   3.423   1.815  0.3418 -0.5237 -0.2666
 7309SOL     OW29001   0.382   5.854   2.358 -0.2129 -0.2399  0.4955
 7309SOL    HW229002   0.371   5.764   2.388  0.9430  0.4225  3.1788
 7309SOL    HW329003   0.414   5.846   2.268 -0.2609 -2.4804  0.6312
 7309SOL    MW429004   0.385   5.841   2.350  0.4115  0.1102 -0.2386
 7310SOL     OW29005   3.361   6.187   0.550  0.0122  0.3781  0.3404
 7310SOL    HW229006   3.345   6.134   0.472  0.2720  0.1615  0.4362
 7310SOL    HW329007   3.277   6.186   0.597 -0.0298  0.1917  0.2613
 7310SOL    MW429008   3.348   6.180   0.546 -0.1147 -0.9974 -0.4140
 7311SOL     OW29009   0.888   0.550   3.131 -0.3426  0.4194 -0.4285
 7311SOL    HW229010   0.965   0.607   3.133 -0.0074 -0.0463  0.3585
 7311SOL    HW329011   0.838   0.581   3.056  0.6183  0.7100 -0.9712
 7311SOL    MW429012   0.892   0.562   3.121 -0.4737  0.4172 -0.0712
 7312SOL     OW29013   3.072   3.571   5.518  0.3108  0.0668 -0.1796
 7312SOL    HW229014   3.164   3.595   5.521  1.1096 -2.6307  0.0894
 7312SOL    HW329015   3.072   3.482   5.482 -2.1813 -0.0622 -0.0473
 7312SOL    MW429016   3.084   3.562   5.513 -0.2355  0.2155  0.0696
 7313SOL     OW29017   1.196   4.582   0.381 -0.6096 -0.3396 -0.5059
 7313SOL    HW229018   1.268   4.553   0.437  0.5030  2.8880 -0.0862
 7313SOL    HW329019   1.237   4.598   0.296 -0.8411  1.1949 -0.3556
 7313SOL    MW429020   1.211   4.580   0.377 -0.2434 -0.6434 -0.2367
 7314SOL     OW29021   6.182   3.073   0.894  0.8983  0.0392 -0.0179
 7314SOL    HW229022   6.107   3.032   0.937  1.7703  0.1700  1.7220
 7314SOL    HW329023   6.182   3.038   0.806 -0.7185 -0.5971  0.2073
 7314SOL    MW429024   6.172   3.063   0.888 -0.4453 -0.8581 -0.1564
 7315SOL     OW29025   0.279   5.326   3.357 -1.1846 -0.0068 -0.3922
 7315SOL    HW229026   0.320   5.350   3.440 -1.7115  0.7349 -0.3331
 7315SOL    HW329027   0.350   5.290   3.305 -0.9652 -1.0773  0.5973
 7315SOL    MW429028   0.294   5.325   3.361 -0.2847  1.0007 -1.0455
 7316SOL     OW29029   3.379   5.353   3.126 -0.1762  0.5917  0.1631
 7316SOL    HW229030   3.433   5.315   3.195  0.8514 -1.6542 -1.7318
 7316SOL    HW329031   3.441   5.376   3.057 -1.3671  0.4771 -0.9859
 7316SOL    MW429032   3.394   5.351   3.126 -0.5725 -0.7650  0.2865
 7317SOL     OW29033   0.102   3.527   5.195 -0.0755  0.4513 -0.4796
 7317SOL    HW229034   0.191   3.494   5.211 -0.4633 -0.0302  0.8126
 7317SOL    HW329035   0.045   3.456   5.224 -0.9820  2.3787  2.9510
 7317SOL    MW429036   0.106   3.513   5.201  0.0092  0.1135 -0.6774
 7318SOL     OW29037   0.056   1.680   4.263 -0.2003  0.3948 -0.2398
 7318SOL    HW229038   0.009   1.610   4.217 -0.6015 -1.1187  2.2757
 7318SOL    HW329039   0.147   1.651   4.265 -0.2074  0.3951  0.0517
 7318SOL    MW429040   0.062   1.667   4.257 -0.6582 -0.0287 -0.5004
 7319SOL     OW29041   5.139   0.985   1.857 -0.4674  0.3638 -0.0621
 7319SOL    HW229042   5.201   0.979   1.930 -1.3204 -0.6970  0.5888
 7319SOL    HW329043   5.195   0.981   1.779  0.3938  0.8442  0.5066
 7319SOL    MW429044   5.155   0.984   1.856  0.6741 -0.2936 -0.3118
 7320SOL     OW29045   3.882   5.645   4.264  0.2050  1.0907 -0.2415
 7320SOL    HW229046   3.915   5.607   4.182  0.7215  0.5266  0.2214
 7320SOL    HW329047   3.787   5.629   4.261  0.5497 -1.6111  0.6013
 7320SOL    MW429048   3.874   5.638   4.253  0.2461 -0.6023  0.1506
 7321SOL     OW29049   4.630   5.528   5.502  0.0962  0.2942  0.1170
 7321SOL    HW229050   4.639   5.499   5.593  1.3465  1.0461  0.2516
 7321SOL    HW329051   4.537   5.513   5.482 -0.0665 -0.4498  1.3087
 7321SOL    MW429052   4.619   5.522   5.512 -0.0136  0.1811  0.0353
 7322SOL     OW29053   6.097   1.498   4.264  0.2342  0.4428  0.0970
 7322SOL    HW229054   6.119   1.558   4.335  1.1890 -0.6649  0.7822
 7322SOL    HW329055   6.182   1.469   4.230 -0.2017 -0.1649 -0.5015
 7322SOL    MW429056   6.111   1.502   4.269  0.0884  0.5307  0.2613
 7323SOL     OW29057   2.062   4.787   1.275  0.3899 -0.2606 -0.7735
 7323SOL    HW229058   2.112   4.867   1.267 -1.3012  0.8509 -0.7637
 7323SOL    HW329059   2.118   4.719   1.237  2.3089  0.6973  0.2239
 7323SOL    MW429060   2.076   4.788   1.269  0.4607 -0.3386 -0.0089
 7324SOL     OW29061   3.804   3.466   5.839 -0.5525  1.0620 -0.3302
 7324SOL    HW229062   3.773   3.542   5.791  0.1627  1.5743 -0.0064
 7324SOL    HW329063   3.868   3.425   5.782 -1.0081  0.6392 -0.5449
 7324SOL    MW429064   3.808   3.471   5.825 -0.4715  0.1123 -0.2542
 7325SOL     OW29065   1.062   1.003   0.278  0.5534  0.3592  0.0352
 7325SOL    HW229066   1.060   1.080   0.335 -4.4902  0.1963  0.5618
 7325SOL    HW329067   1.039   1.037   0.192  0.7580 -0.2909 -0.2776
 7325SOL    MW429068   1.059   1.018   0.274 -0.0343 -0.0231  0.0344
 7326SOL     OW29069   2.991   3.040   5.552 -0.3755 -0.0763  0.1118
 7326SOL    HW229070   2.920   2.986   5.516  0.5884  0.9166 -3.7648
 7326SOL    HW329071   3.067   2.982   5.550  0.1167  0.5458 -1.6594
 7326SOL    MW429072   2.992   3.025   5.547  0.0035  0.2811  0.1171
 7327SOL     OW29073   0.763   4.556   1.582  0.1340  0.0444 -0.6471
 7327SOL    HW229074   0.825   4.627   1.594  0.8757 -0.6026 -0.5795
 7327SOL    HW329075   0.720   4.547   1.668  2.5807 -1.9150  0.4957
 7327SOL    MW429076   0.765   4.564   1.595  0.4117  0.3511 -0.3274
 7328SOL     OW29077   5.517   3.520   4.856  0.1376 -0.1312 -0.0764
 7328SOL    HW229078   5.488   3.459   4.788  1.2296 -1.1800  0.3575
 7328SOL    HW329079   5.527   3.604   4.811  0.3292 -0.6921 -1.0972
 7328SOL    MW429080   5.515   3.523   4.841  0.2145 -0.0706 -0.1608
 7329SOL     OW29081   1.851   3.343   1.463  0.0910  0.3518 -0.1049
 7329SOL    HW229082   1.926   3.288   1.488  0.5896  1.3272  0.5900
 7329SOL    HW329083   1.809   3.295   1.391  0.7336 -0.7493  0.2333
 7329SOL    MW429084   1.855   3.329   1.457  0.0508  0.3737  0.0760
 7330SOL     OW29085   4.556   4.013   5.914 -0.0538 -0.3919 -0.8587
 7330SOL    HW229086   4.504   4.004   5.994 -0.9710 -0.2653 -1.4187
 7330SOL    HW329087   4.588   4.103   5.916 -0.4725 -0.2375 -0.8484
 7330SOL    MW429088   4.553   4.024   5.925 -0.0272 -0.2342  0.1755
 7331SOL     OW29089   5.714   1.611   3.463 -0.0042 -0.3712 -0.8749
 7331SOL    HW229090   5.765   1.530   3.454 -0.9187 -0.8558 -1.8674
 7331SOL    HW329091   5.624   1.585   3.444 -0.4830  0.6770 -0.1335
 7331SOL    MW429092   5.709   1.597   3.460  0.3458 -0.7407  0.0137
 7332SOL     OW29093   4.641   1.820   5.833  0.0948  0.8382  0.4576
 7332SOL    HW229094   4.662   1.734   5.797  1.0126  1.4938 -0.6126
 7332SOL    HW329095   4.562   1.847   5.786  0.7418  1.2748 -0.4016
 7332SOL    MW429096   4.633   1.812   5.822  0.1938 -0.3701  0.2183
 7333SOL     OW29097   5.804   3.361   1.103 -0.6583  0.2549 -0.0324
 7333SOL    HW229098   5.890   3.379   1.065 -0.0968  1.6716  1.7757
 7333SOL    HW329099   5.808   3.269   1.128 -0.2319 -0.0906 -1.3217
 7333SOL    MW429100   5.816   3.351   1.101  0.0129 -0.0814 -0.1029
 7334SOL     OW29101   5.355   4.132   4.862 -0.4179 -0.0543 -0.0365
 7334SOL    HW229102   5.285   4.197   4.871 -0.1129  0.0783  1.6708
 7334SOL    HW329103   5.435   4.184   4.860 -0.3259 -0.1611 -2.5624
 7334SOL    MW429104   5.356   4.148   4.863 -1.0432  0.1709 -0.3986
 7335SOL     OW29105   3.581   2.858   3.999 -0.4085 -0.5458 -0.2028
 7335SOL    HW229106   3.655   2.800   3.985 -1.2621 -1.4129 -1.3705
 7335SOL    HW329107   3.527   2.812   4.064  0.4440  0.4806  1.2932
 7335SOL    MW429108   3.583   2.844   4.006 -0.1741  0.3583 -0.2526
 7336SOL     OW29109   5.276   6.223   4.155 -0.2946  0.2173  0.1456
 7336SOL    HW229110   5.365   6.241   4.188 -0.3356  1.9388 -0.5749
 7336SOL    HW329111   5.222   6.291   4.196 -1.0351  0.0204 -0.4987
 7336SOL    MW429112   5.281   6.235   4.165  0.3358  0.2275 -0.3501
 7337SOL     OW29113   0.188   6.206   1.887 -0.0489  0.4344  0.3556
 7337SOL    HW229114   0.278   6.193   1.916 -0.1942 -0.1994  0.5303
 7337SOL    HW329115   0.140   6.133   1.924 -0.3682 -0.0217 -0.8949
 7337SOL    MW429116   0.194   6.195   1.896  0.0737  0.3844 -0.4823
 7338SOL     OW29117   3.951   1.375   2.898  0.4052  0.3250 -0.1061
 7338SOL    HW229118   4.025   1.364   2.838  1.4640 -1.0182  1.3602
 7338SOL    HW329119   3.983   1.437   2.964 -0.6648  1.6169 -0.7777
 7338SOL    MW429120   3.965   1.382   2.899 -0.2143 -0.2192 -0.4627
 7339SOL     OW29121   4.981   6.089   5.977 -0.1867 -0.0541  0.4560
 7339SOL    HW229122   4.886   6.085   5.969 -0.2600  0.0776  1.1915
 7339SOL    HW329123   5.003   6.020   6.040  0.2451 -0.3400 -0.0001
 7339SOL    MW429124   4.972   6.080   5.984  0.1707  0.9365  0.3040
 7340SOL     OW29125   5.473   1.062   5.794  0.2221  0.1515 -0.4957
 7340SOL    HW229126   5.489   1.131   5.859  1.2563  0.5513 -1.1503
 7340SOL    HW329127   5.519   0.986   5.828  0.0817  0.1246 -0.3643
 7340SOL    MW429128   5.481   1.061   5.807  0.2878 -0.3518 -0.3482
 7341SOL     OW29129   5.193   2.914   1.839 -0.0758 -0.2404 -0.5424
 7341SOL    HW229130   5.136   2.991   1.828 -2.9364 -1.9140  1.3086
 7341SOL    HW329131   5.216   2.914   1.932  0.8627 -1.0063 -0.7643
 7341SOL    MW429132   5.188   2.924   1.850 -0.2646  0.1536 -0.7404
 7342SOL     OW29133   5.093   3.525   6.093 -0.1363 -0.4899 -0.0241
 7342SOL    HW229134   5.084   3.470   6.016  3.5435  0.4178 -1.3467
 7342SOL    HW329135   5.151   3.476   6.152  0.3311  0.4403  0.3293
 7342SOL    MW429136   5.100   3.511   6.091 -0.8779  0.4426  0.5434
 7343SOL     OW29137   3.947   5.551   1.803  0.0922 -0.3247 -0.4279
 7343SOL    HW229138   3.944   5.596   1.887  0.0445 -0.3589 -0.4119
 7343SOL    HW329139   3.867   5.499   1.800  0.3770 -0.7759 -0.2419
 7343SOL    MW429140   3.936   5.550   1.813  0.4837  0.1045 -0.5669
 7344SOL     OW29141   4.298   1.245   3.864  0.2625  0.0485 -0.3654
 7344SOL    HW229142   4.265   1.334   3.875  0.1830 -0.0644  0.3107
 7344SOL    HW329143   4.268   1.220   3.776  0.0670  0.5911 -0.4583
 7344SOL    MW429144   4.289   1.254   3.854  0.5182 -0.5376 -0.4359
 7345SOL     OW29145   4.466   0.901   5.328 -0.8667 -0.6059  0.5477
 7345SOL    HW229146   4.557   0.889   5.352 -1.2803 -0.5922  2.2072
 7345SOL    HW329147   4.437   0.814   5.299 -0.1486 -0.4437 -0.7402
 7345SOL    MW429148   4.474   0.888   5.327  0.3816  0.0235  0.0360
 7346SOL     OW29149   2.834   1.241   6.362  0.0932  0.4181 -0.0304
 7346SOL    HW229150   2.829   1.240   6.457 -1.2432 -1.1776 -0.0646
 7346SOL    HW329151   2.773   1.310   6.335 -1.5244 -0.8375  0.2572
 7346SOL    MW429152   2.825   1.250   6.371  0.2356  0.3802  0.0014
 7347SOL     OW29153   0.754   5.245   1.389  0.5467  0.1898 -0.5730
 7347SOL    HW229154   0.821   5.300   1.348  0.5568  0.7689  0.1970
 7347SOL    HW329155   0.725   5.295   1.465 -0.2330 -0.3890 -0.4717
 7347SOL    MW429156   0.759   5.259   1.393 -0.2699 -0.2098  0.4770
 7348SOL     OW29157   5.241   3.047   1.480 -0.0588 -0.0087 -0.6526
 7348SOL    HW229158   5.172   3.105   1.511  1.7064  1.8478  0.0019
 7348SOL    HW329159   5.301   3.038   1.554  2.8366  2.3302 -2.4945
 7348SOL    MW429160   5.240   3.053   1.494  0.6052 -0.3956  0.7045
 7349SOL     OW29161   2.410   0.799   1.595  0.2558  0.0212 -0.4312
 7349SOL    HW229162   2.340   0.847   1.550 -0.7839 -0.1311  0.9643
 7349SOL    HW329163   2.364   0.735   1.649  1.4138  0.7028  1.4500
 7349SOL    MW429164   2.395   0.797   1.596  0.1554  0.3751 -0.2937
 7350SOL     OW29165   5.367   2.913   5.816  0.2774 -0.5301  0.0179
 7350SOL    HW229166   5.280   2.889   5.786  0.1127  1.1247 -0.9430
 7350SOL    HW329167   5.354   2.941   5.907  0.0320 -1.4501  0.2722
 7350SOL    MW429168   5.354   2.914   5.824  0.6207 -0.0850  0.1481
 7351SOL     OW29169   3.619   5.452   1.450  0.3105 -0.1643 -0.2080
 7351SOL    HW229170   3.605   5.479   1.360  1.3789 -0.4448 -0.4836
 7351SOL    HW329171   3.613   5.532   1.501  0.0117  0.0453 -0.5714
 7351SOL    MW429172   3.617   5.466   1.445 -0.4904  0.4804 -0.0415
 7352SOL     OW29173   0.724   3.495   5.961  0.3453  0.0758 -0.4459
 7352SOL    HW229174   0.767   3.505   5.876 -2.2827  0.4863 -1.8478
 7352SOL    HW329175   0.748   3.574   6.010 -0.9914  1.7482 -2.2907
 7352SOL    MW429176   0.733   3.507   5.956 -0.1614  0.1893  0.2120
 7353SOL     OW29177   1.130   0.367   2.303  0.2053 -0.4100 -0.0365
 7353SOL    HW229178   1.212   0.337   2.263  0.8201 -0.0460  0.9190
 7353SOL    HW329179   1.151   0.453   2.338  0.1495 -1.3332  2.4127
 7353SOL    MW429180   1.144   0.374   2.302  0.4178 -0.2119 -0.0367
 7354SOL     OW29181   1.636   2.756   0.948  0.3413 -0.3001  0.1590
 7354SOL    HW229182   1.542   2.769   0.956  0.2760 -1.3472  1.2662
 7354SOL    HW329183   1.671   2.845   0.935 -0.7738  0.0998 -0.2272
 7354SOL    MW429184   1.629   2.770   0.947 -0.1134 -0.0221  0.0420
 7355SOL     OW29185   1.071   2.382   3.565  0.5502 -0.5927  0.3213
 7355SOL    HW229186   1.100   2.423   3.647 -1.1297 -0.0248  0.6693
 7355SOL    HW329187   1.147   2.388   3.507  1.3319  0.2193  1.3868
 7355SOL    MW429188   1.085   2.388   3.568 -0.0520 -0.5127 -0.3126
 7356SOL     OW29189   4.363   4.774   1.104 -0.2116  0.0173  0.2048
 7356SOL    HW229190   4.372   4.864   1.073 -0.5320  0.5240  1.5009
 7356SOL    HW329191   4.286   4.776   1.162  0.6940 -0.7123  1.4977
 7356SOL    MW429192   4.354   4.786   1.108 -0.1814  0.4410 -0.2797
 7357SOL     OW29193   0.122   0.295   6.311  0.3974  0.3733 -0.0516
 7357SOL    HW229194   0.210   0.298   6.347 -0.5040  1.4737  2.3420
 7357SOL    HW329195   0.090   0.385   6.319 -1.0150 -0.0438 -0.6463
 7357SOL    MW429196   0.129   0.307   6.317  0.0519  0.1861 -0.9617
 7358SOL     OW29197   4.303   1.448   5.840 -0.3366 -0.1796  0.1427
 7358SOL    HW229198   4.238   1.518   5.829 -1.3444 -1.3064 -1.5615
 7358SOL    HW329199   4.386   1.494   5.851 -1.3754  1.3412  2.8913
 7358SOL    MW429200   4.305   1.464   5.840  0.3673 -0.0330 -0.2083
 7359SOL     OW29201   3.920   4.520   0.484 -0.6274 -0.2169  0.2147
 7359SOL    HW229202   3.890   4.455   0.421 -2.8493 -0.6025  1.5619
 7359SOL    HW329203   3.919   4.603   0.435 -1.4792 -0.6243 -0.4807
 7359SOL    MW429204   3.916   4.522   0.469 -0.1887  0.0613 -0.5143
 7360SOL     OW29205   1.413   6.166   5.368 -0.6424  0.2761  0.5153
 7360SOL    HW229206   1.407   6.099   5.299 -0.4890 -0.0630  0.8286
 7360SOL    HW329207   1.498   6.150   5.408 -1.2514 -0.3254  1.5995
 7360SOL    MW429208   1.423   6.155   5.364  0.4913  0.0378  0.2263
 7361SOL     OW29209   2.379   4.417   3.635  0.4162 -0.0387  0.3585
 7361SOL    HW229210   2.385   4.360   3.711 -0.6588 -0.6971 -0.0202
 7361SOL    HW329211   2.469   4.432   3.608  0.7113 -2.7501 -0.3881
 7361SOL    MW429212   2.392   4.412   3.641  0.3176  0.3538 -0.2102
 7362SOL     OW29213   0.473   0.701   3.233  0.2694  0.1556  0.6512
 7362SOL    HW229214   0.542   0.764   3.214  1.2747 -0.4517  2.0749
 7362SOL    HW329215   0.434   0.732   3.315  0.5493 -0.8765  1.1860
 7362SOL    MW429216   0.477   0.713   3.242  0.0521 -0.2429 -0.4851
 7363SOL     OW29217   1.097   5.403   5.224 -0.4372 -0.3606  0.1100
 7363SOL    HW229218   1.009   5.436   5.205 -0.6142 -0.8588  0.0498
 7363SOL    HW329219   1.082   5.326   5.278 -0.0653 -0.8362 -0.4549
 7363SOL    MW429220   1.083   5.397   5.228 -0.6503  0.1234  0.0120
 7364SOL     OW29221   5.836   5.450   0.996  0.2061 -0.2120 -0.0046
 7364SOL    HW229222   5.908   5.455   1.059 -0.7408 -1.2151  1.2267
 7364SOL    HW329223   5.822   5.356   0.983 -0.7829 -0.0325 -0.3241
 7364SOL    MW429224   5.844   5.439   1.003  0.2468  0.2031  0.2870
 7365SOL     OW29225   0.533   4.610   3.064  0.2459 -0.3330 -0.5200
 7365SOL    HW229226   0.448   4.655   3.062  1.1020  1.4055 -3.6924
 7365SOL    HW329227   0.512   4.519   3.044 -0.8854  0.1276 -1.5868
 7365SOL    MW429228   0.519   4.604   3.061  0.1923 -0.0185 -0.3864
 7366SOL     OW29229   0.064   6.172   5.598  0.1911 -0.7166 -0.0398
 7366SOL    HW229230  -0.031   6.162   5.604  0.1619  0.3735  2.3756
 7366SOL    HW329231   0.098   6.083   5.611 -0.4237 -1.6934 -3.7944
 7366SOL    MW429232   0.056   6.159   5.600  0.2908 -0.0338 -0.5768
 7367SOL     OW29233   0.685   5.315   1.678 -0.0301 -0.6734  0.3940
 7367SOL    HW229234   0.635   5.396   1.663 -0.1464 -0.8392 -0.1137
 7367SOL    HW329235   0.738   5.334   1.756  0.0964 -0.0343  0.1582
 7367SOL    MW429236   0.685   5.328   1.687 -0.1605 -0.6072 -0.0678
 7368SOL     OW29237   4.990   5.177   3.128 -0.0652 -0.0364  0.0261
 7368SOL    HW229238   4.985   5.091   3.086 -0.1489 -0.1113  0.1910
 7368SOL    HW329239   5.032   5.233   3.062  0.2783 -0.2774  0.0357
 7368SOL    MW429240   4.995   5.173   3.114 -0.1595 -0.0879 -0.0006
 7369SOL     OW29241   2.631   0.598   1.197  0.5913 -0.0983 -0.1585
 7369SOL    HW229242   2.595   0.511   1.213  0.7078 -0.1339 -0.0853
 7369SOL    HW329243   2.650   0.633   1.285  1.9263 -0.5879 -0.2260
 7369SOL    MW429244   2.629   0.591   1.211 -0.1732 -0.5433  0.0745
 7370SOL     OW29245   4.919   1.863   5.806  0.2042  0.0721  0.2839
 7370SOL    HW229246   4.900   1.912   5.727  1.0271 -0.6624 -0.3840
 7370SOL    HW329247   4.833   1.838   5.840 -0.1933  1.1857  0.1596
 7370SOL    MW429248   4.906   1.866   5.800  0.1634  0.6393  0.2838
 7371SOL     OW29249   5.733   2.565   5.317  0.4581 -0.0188 -0.2664
 7371SOL    HW229250   5.764   2.572   5.407 -2.0507  1.3782  0.5925
 7371SOL    HW329251   5.643   2.598   5.320  0.2763  0.0467 -3.2899
 7371SOL    MW429252   5.725   2.570   5.329 -0.1359  0.8825 -0.6213
 7372SOL     OW29253   1.473   2.984   6.342 -0.5193  0.5081 -0.5532
 7372SOL    HW229254   1.404   2.967   6.277  0.8049  1.1156 -2.1952
 7372SOL    HW329255   1.514   3.066   6.312  1.4489 -0.2625 -0.1279
 7372SOL    MW429256   1.469   2.993   6.329  0.3248  0.0688  0.0017
 7373SOL     OW29257   6.129   6.085   2.264  0.2582 -0.4363 -0.2382
 7373SOL    HW229258   6.043   6.124   2.276  1.5761  1.9841  2.7877
 7373SOL    HW329259   6.171   6.138   2.197  0.8626  1.4662  1.5172
 7373SOL    MW429260   6.123   6.097   2.257  0.1458 -0.1533 -0.1880
 7374SOL     OW29261   0.973   0.612   5.489  0.4016  0.1103  0.4167
 7374SOL    HW229262   1.067   0.602   5.475  0.8092  2.6011  0.9823
 7374SOL    HW329263   0.935   0.601   5.401  1.5043  1.6538 -0.2898
 7374SOL    MW429264   0.980   0.609   5.475  0.0097 -0.0491 -0.3664
 7375SOL     OW29265   1.973   2.107   0.882 -0.3093 -1.1040 -0.4541
 7375SOL    HW229266   1.920   2.181   0.910 -0.8935 -0.7985 -2.2269
 7375SOL    HW329267   2.057   2.146   0.856 -0.0022 -1.2947  0.2436
 7375SOL    MW429268   1.977   2.122   0.882  0.4111 -0.5127  0.0704
 7376SOL     OW29269   0.117   2.670   5.484 -0.7643 -0.3578 -0.3385
 7376SOL    HW229270   0.066   2.713   5.552  0.5292  1.0245 -0.1961
 7376SOL    HW329271   0.134   2.582   5.518 -3.0327 -0.8651 -0.4135
 7376SOL    MW429272   0.113   2.664   5.497 -0.6728 -1.0652  0.3011
 7377SOL     OW29273   3.619   6.125   3.062  0.0151 -0.1046 -0.2901
 7377SOL    HW229274   3.533   6.085   3.050 -0.3072  0.4199  0.2173
 7377SOL    HW329275   3.653   6.085   3.142  0.8361 -1.3045 -1.1902
 7377SOL    MW429276   3.612   6.114   3.071 -0.5138 -0.1790  0.0389
 7378SOL     OW29277   6.269   0.093   1.958  0.2447 -0.1082 -0.1892
 7378SOL    HW229278   6.311   0.156   2.017  0.4157  0.2717 -0.7146
 7378SOL    HW329279   6.341   0.043   1.921  0.1119 -0.5981  0.1968
 7378SOL    MW429280   6.284   0.095   1.961 -0.0430  0.0128  0.5301
 7379SOL     OW29281   2.818   3.306   2.867  0.4213  0.0046 -0.2845
 7379SOL    HW229282   2.902   3.305   2.912  0.6098 -2.2352 -0.5419
 7379SOL    HW329283   2.753   3.316   2.937  0.8453  0.7077  0.0202
 7379SOL    MW429284   2.820   3.307   2.882  0.1846 -0.2127  0.2222
 7380SOL     OW29285   5.044   2.310   1.645  0.3646  0.0262 -0.2450
 7380SOL    HW229286   5.119   2.252   1.664  1.3913  1.2898 -0.3003
 7380SOL    HW329287   5.016   2.340   1.731 -0.9847 -1.4802 -0.1098
 7380SOL    MW429288   5.050   2.306   1.659 -0.4222  0.2406 -0.5446
 7381SOL     OW29289   3.948   4.340   2.747  0.2781  0.0203 -0.0653
 7381SOL    HW229290   4.033   4.294   2.743 -0.4504 -1.3255 -0.9365
 7381SOL    HW329291   3.968   4.424   2.788  2.1661  0.0002 -0.8420
 7381SOL    MW429292   3.962   4.345   2.752  0.1829  0.6017 -0.3747
 7382SOL     OW29293   3.409   1.747   1.656  0.4216 -0.1155 -0.1617
 7382SOL    HW229294   3.398   1.732   1.562  1.6151  1.3127 -0.5590
 7382SOL    HW329295   3.434   1.661   1.691  0.4971 -0.5459 -1.2365
 7382SOL    MW429296   3.411   1.734   1.648  0.6871 -0.1734 -0.8793
 7383SOL     OW29297   5.977   1.727   0.278 -0.5279  0.3377  0.3707
 7383SOL    HW229298   5.932   1.811   0.291 -2.1365 -0.5279  0.7298
 7383SOL    HW329299   5.949   1.699   0.190 -1.5768 -0.7006  1.0105
 7383SOL    MW429300   5.967   1.735   0.268  0.2852 -0.0364 -0.3134
 7384SOL     OW29301   0.118   6.150   6.177  0.1406  0.1556  0.2384
 7384SOL    HW229302   0.185   6.083   6.163  0.7413  0.9482 -0.7630
 7384SOL    HW329303   0.159   6.232   6.149 -1.2224  0.6645 -0.3467
 7384SOL    MW429304   0.132   6.152   6.171 -0.3941  0.5156  0.0820
 7385SOL     OW29305   1.750   1.597   2.204 -0.0816  0.3842 -0.2114
 7385SOL    HW229306   1.712   1.509   2.201  0.4039  0.1899 -0.7622
 7385SOL    HW329307   1.802   1.598   2.284 -0.3326  0.2735 -0.0454
 7385SOL    MW429308   1.752   1.585   2.214  0.3294  0.5014  0.0513
 7386SOL     OW29309   2.260   5.265   3.728  0.2440 -0.1818  0.0942
 7386SOL    HW229310   2.232   5.287   3.816 -0.1932  0.5851 -0.2316
 7386SOL    HW329311   2.204   5.191   3.702 -0.8163  0.6989 -0.1822
 7386SOL    MW429312   2.249   5.258   3.736 -1.0619 -0.4702 -0.7951
 7387SOL     OW29313   0.694   2.289   4.519 -0.0499 -0.2480 -0.2121
 7387SOL    HW229314   0.631   2.217   4.513  0.4927 -0.7742  0.2674
 7387SOL    HW329315   0.640   2.367   4.536 -0.5977 -0.6290 -0.1743
 7387SOL    MW429316   0.679   2.290   4.520  0.2686  0.4115  0.3623
 7388SOL     OW29317   3.986   1.278   1.773  0.0184 -0.0979  0.2177
 7388SOL    HW229318   4.068   1.326   1.758 -0.2064  0.3069  0.2621
 7388SOL    HW329319   3.957   1.251   1.686  0.3234 -0.4588  0.2227
 7388SOL    MW429320   3.993   1.281   1.760 -0.0984  0.2033 -0.1691
 7389SOL     OW29321   0.339   4.175   3.579 -0.2827 -0.4089  0.0314
 7389SOL    HW229322   0.313   4.240   3.644  0.7268  0.2758 -0.2271
 7389SOL    HW329323   0.343   4.223   3.497 -1.5128 -1.2595 -0.5596
 7389SOL    MW429324   0.336   4.190   3.577  0.3323  0.1167 -0.1324
 7390SOL     OW29325   4.903   4.012   1.508  0.1963  0.5107  0.3286
 7390SOL    HW229326   4.896   4.041   1.417  0.4319  0.2332  0.2227
 7390SOL    HW329327   4.880   3.919   1.505  1.7044  0.1128  0.3155
 7390SOL    MW429328   4.899   4.004   1.495 -0.2433 -0.1013 -0.0697
 7391SOL     OW29329   5.906   5.901   5.710  0.2073 -0.0233 -0.5397
 7391SOL    HW229330   5.826   5.913   5.762 -0.0195  1.3504 -1.1540
 7391SOL    HW329331   5.974   5.885   5.775 -0.3160  0.2429  0.0915
 7391SOL    MW429332   5.904   5.900   5.725 -0.1962 -0.1999 -0.6404
 7392SOL     OW29333   6.203   5.435   3.882  0.3335 -0.2041  0.0968
 7392SOL    HW229334   6.225   5.393   3.799  0.7487 -1.2390  0.6971
 7392SOL    HW329335   6.286   5.473   3.912 -0.3443  2.4825 -1.1690
 7392SOL    MW429336   6.217   5.434   3.875  0.0673  0.3662 -0.0628
 7393SOL     OW29337   4.143   0.639   2.050 -0.0884 -0.4436 -0.3487
 7393SOL    HW229338   4.072   0.631   2.113  0.1223 -1.4963 -0.2289
 7393SOL    HW329339   4.102   0.623   1.965 -0.1986  0.0580 -0.3920
 7393SOL    MW429340   4.128   0.636   2.047  0.8536 -0.2906  0.3569
 7394SOL     OW29341   4.948   2.337   4.384 -0.1803 -0.7163  0.3630
 7394SOL    HW229342   4.967   2.288   4.464 -0.0820 -0.5104  0.4672
 7394SOL    HW329343   4.853   2.346   4.383 -0.1015  0.3213  1.0825
 7394SOL    MW429344   4.938   2.331   4.394  0.1414 -0.1843 -0.0643
 7395SOL     OW29345   0.160   6.379   3.788  0.4210  0.2791  0.4848
 7395SOL    HW229346   0.173   6.466   3.751  3.0150  0.1154  0.8070
 7395SOL    HW329347   0.120   6.395   3.874 -0.6492  1.0110 -0.1348
 7395SOL    MW429348   0.157   6.392   3.795 -0.1758 -0.5905  0.3848
 7396SOL     OW29349   5.639   1.482   6.190 -0.9779  0.4410 -0.6518
 7396SOL    HW229350   5.618   1.572   6.215 -0.5894  0.3058  0.1882
 7396SOL    HW329351   5.608   1.475   6.100 -0.7615  1.5005 -0.8261
 7396SOL    MW429352   5.632   1.493   6.181  0.2570 -0.8153 -0.3225
 7397SOL     OW29353   0.887   4.152   6.184 -0.2244  0.2524 -0.2684
 7397SOL    HW229354   0.957   4.091   6.161 -1.4547 -1.0420 -0.7156
 7397SOL    HW329355   0.821   4.138   6.116 -0.8656  1.5541  0.0644
 7397SOL    MW429356   0.888   4.142   6.172  0.1325 -0.4997  0.0444
 7398SOL     OW29357   2.625   5.843   5.018 -0.3537 -0.1317 -0.5905
 7398SOL    HW229358   2.665   5.895   5.088  0.6544  0.3377 -1.4884
 7398SOL    HW329359   2.534   5.833   5.045  0.5398 -2.1840  2.0874
 7398SOL    MW429360   2.618   5.849   5.031 -0.6034 -0.3321  0.0730
 7399SOL     OW29361   5.965   2.830   5.617 -0.2571  0.1820  0.0085
 7399SOL    HW229362   6.034   2.842   5.552 -0.0600 -0.5849  0.0707
 7399SOL    HW329363   6.010   2.835   5.701 -0.6411  2.1075  0.1532
 7399SOL    MW429364   5.980   2.832   5.620 -0.0723 -0.0675 -0.5414
 7400SOL     OW29365   5.938   2.394   4.536 -0.0664 -0.4058  0.0901
 7400SOL    HW229366   5.890   2.332   4.480  0.4586  0.9449 -2.0066
 7400SOL    HW329367   6.013   2.344   4.568 -1.2845 -1.7110  1.0560
 7400SOL    MW429368   5.941   2.379   4.533  0.0162  0.3099 -0.2080
 7401SOL     OW29369   5.653   4.743   4.798 -0.1128  0.4173 -0.3829
 7401SOL    HW229370   5.581   4.782   4.749 -0.3801  0.1353 -0.2206
 7401SOL    HW329371   5.674   4.808   4.865  1.0087  1.2985 -1.5544
 7401SOL    MW429372   5.646   4.757   4.801 -0.4446  0.3218  0.2405
 7402SOL     OW29373   0.832   5.057   4.249  0.0782 -0.2910  0.2699
 7402SOL    HW229374   0.764   5.106   4.202 -0.9604 -1.3031  0.6403
 7402SOL    HW329375   0.907   5.057   4.189 -0.4157  0.4285 -0.3766
 7402SOL    MW429376   0.833   5.063   4.235 -0.7164  0.4226 -0.4567
 7403SOL     OW29377   1.775   0.234   0.352 -0.2099  0.2890 -0.2989
 7403SOL    HW229378   1.776   0.189   0.268  1.0633  1.4129 -0.9236
 7403SOL    HW329379   1.704   0.193   0.401 -1.3412 -0.0225 -2.1203
 7403SOL    MW429380   1.765   0.223   0.348 -0.2579  0.9343 -0.3679
 7404SOL     OW29381   1.377   4.322   1.569  0.4705  0.1968 -0.0727
 7404SOL    HW229382   1.383   4.319   1.474 -1.9490  0.5038 -0.2739
 7404SOL    HW329383   1.285   4.341   1.588  0.7883 -0.3008  2.3412
 7404SOL    MW429384   1.366   4.325   1.559 -0.3401  0.1464 -0.1978
 7405SOL     OW29385   5.473   6.055   5.363 -0.2947  0.2962  0.3771
 7405SOL    HW229386   5.512   5.975   5.328 -0.4900 -0.0117  0.8594
 7405SOL    HW329387   5.548   6.113   5.378 -0.3255  1.1233 -2.2106
 7405SOL    MW429388   5.488   6.052   5.360  0.6216  0.2764 -0.8980
 7406SOL     OW29389   0.094   3.329   3.583 -0.0311  0.1762 -0.1532
 7406SOL    HW229390   0.085   3.413   3.629  1.6741 -1.1373  2.8873
 7406SOL    HW329391   0.185   3.326   3.554 -0.1061 -0.5498 -0.3459
 7406SOL    MW429392   0.105   3.339   3.585  0.0169 -0.4220  0.0789
 7407SOL     OW29393   1.518   5.162   2.542  0.2341  0.0276 -0.2132
 7407SOL    HW229394   1.469   5.087   2.575  0.1656  0.0296 -0.3102
 7407SOL    HW329395   1.460   5.201   2.476  0.0980  0.4049  0.1252
 7407SOL    MW429396   1.504   5.158   2.537 -0.0272 -0.0158 -0.9154
 7408SOL     OW29397   2.983   3.632   3.822 -0.4271 -0.0944 -0.5878
 7408SOL    HW229398   2.966   3.584   3.903 -1.7429 -0.5953 -1.1312
 7408SOL    HW329399   2.909   3.693   3.814  1.9604  3.3633  0.9421
 7408SOL    MW429400   2.971   3.634   3.832  0.3571  0.9859  0.0809
 7409SOL     OW29401   0.272   2.949   6.108 -0.2200 -0.4529  0.2877
 7409SOL    HW229402   0.268   3.013   6.037 -0.8098 -0.5010  0.2776
 7409SOL    HW329403   0.358   2.964   6.149 -0.3228  0.2873  0.2358
 7409SOL    MW429404   0.283   2.959   6.104  0.8105 -0.6706 -0.0260
 7410SOL     OW29405   3.860   3.436   2.580  0.1003 -0.3191  0.9733
 7410SOL    HW229406   3.920   3.403   2.512  0.8892 -0.3970  1.6905
 7410SOL    HW329407   3.773   3.431   2.540  0.6627  0.7567 -0.4824
 7410SOL    MW429408   3.857   3.431   2.565 -0.3692  0.2399  0.4901
 7411SOL     OW29409   0.990   5.572   0.013  0.8124  0.0330  0.0220
 7411SOL    HW229410   0.975   5.666   0.023  0.1325  0.0631 -1.0835
 7411SOL    HW329411   0.962   5.553  -0.077  0.0623 -1.3927  0.5329
 7411SOL    MW429412   0.984   5.582   0.002 -0.6034 -0.8420 -0.8210
 7412SOL     OW29413   4.155   4.167   5.223 -0.3200  0.0331  0.0208
 7412SOL    HW229414   4.218   4.097   5.242  2.2171  1.5151 -2.2173
 7412SOL    HW329415   4.153   4.220   5.302 -0.4204 -1.1980  0.8728
 7412SOL    MW429416   4.163   4.165   5.236  0.2678  0.3641 -0.0184
 7413SOL     OW29417   4.998   2.248   0.801 -0.4552  0.4107 -0.1569
 7413SOL    HW229418   4.956   2.321   0.849  0.4773  0.5410  0.4904
 7413SOL    HW329419   4.977   2.171   0.853 -1.3408  0.2190 -0.7783
 7413SOL    MW429420   4.990   2.248   0.815  0.6267 -0.2059 -0.5348
 7414SOL     OW29421   5.777   3.175   6.325  0.0630  0.4081  0.6916
 7414SOL    HW229422   5.712   3.129   6.379 -0.4289  1.0034  0.6267
 7414SOL    HW329423   5.735   3.184   6.240 -0.3294  1.9516  1.0123
 7414SOL    MW429424   5.763   3.170   6.321  0.1805 -0.0770  0.2163
 7415SOL     OW29425   5.593   3.403   3.669 -0.8943 -0.4991 -0.3695
 7415SOL    HW229426   5.679   3.393   3.710 -0.5302  1.0837 -0.6773
 7415SOL    HW329427   5.568   3.314   3.643  1.4741 -0.8019 -1.9097
 7415SOL    MW429428   5.601   3.390   3.671  0.4189  0.0444 -0.4011
 7416SOL     OW29429   6.407   1.773   5.366 -0.0305  0.0477  0.0925
 7416SOL    HW229430   6.360   1.849   5.399 -0.2857  0.0654 -0.2974
 7416SOL    HW329431   6.438   1.800   5.279 -1.7686 -0.9240 -0.8830
 7416SOL    MW429432   6.405   1.786   5.359 -0.5202 -0.2406 -0.1471
 7417SOL     OW29433   0.912   0.034   6.380  0.4116  0.5692  0.2508
 7417SOL    HW229434   0.958   0.018   6.298  1.2062 -2.2068  1.1582
 7417SOL    HW329435   0.940   0.122   6.406 -1.0205  2.1904 -3.0966
 7417SOL    MW429436   0.922   0.044   6.373 -0.3143  0.1896 -0.7208
 7418SOL     OW29437   3.111   2.079   0.059  0.0284  0.1558 -0.2512
 7418SOL    HW229438   3.157   2.112  -0.019 -0.9259  0.8346 -0.5496
 7418SOL    HW329439   3.103   2.155   0.116 -0.6945  0.0445 -0.1946
 7418SOL    MW429440   3.116   2.093   0.056  0.2194  0.6787  0.0176
 7419SOL     OW29441   4.456   2.279   0.245  0.1233  0.0854  0.4330
 7419SOL    HW229442   4.424   2.269   0.156  0.5255  2.0488  0.0182
 7419SOL    HW329443   4.496   2.366   0.247  0.8492 -0.2303  2.3147
 7419SOL    MW429444   4.457   2.289   0.234 -0.5748  0.2960 -0.3685
 7420SOL     OW29445   3.308   2.701   2.875  0.3193 -0.4397 -0.0829
 7420SOL    HW229446   3.236   2.715   2.936  1.5693  1.3389  1.0659
 7420SOL    HW329447   3.268   2.656   2.800 -2.5601  2.6343 -0.6031
 7420SOL    MW429448   3.293   2.697   2.873  0.5906  0.0366 -0.3567
 7421SOL     OW29449   0.423   3.347   0.585  0.4646 -0.4057  0.0183
 7421SOL    HW229450   0.358   3.331   0.653  0.8253  1.4737  0.8826
 7421SOL    HW329451   0.378   3.328   0.503 -1.4951  1.5916  0.5266
 7421SOL    MW429452   0.409   3.343   0.583  0.3133 -0.5452  0.7236
 7422SOL     OW29453   3.622   2.178   0.554  0.1035 -0.1262  0.9681
 7422SOL    HW229454   3.556   2.161   0.487  0.2265  1.9789  0.2199
 7422SOL    HW329455   3.704   2.150   0.514  0.1937  1.2358  0.1164
 7422SOL    MW429456   3.624   2.172   0.539  0.0995  0.6813  0.3820
 7423SOL     OW29457   2.797   2.677   5.138  0.1445  0.0747 -0.2999
 7423SOL    HW229458   2.861   2.678   5.209  1.3877  1.1776 -1.3749
 7423SOL    HW329459   2.847   2.705   5.061 -1.7922  1.6460 -1.0632
 7423SOL    MW429460   2.812   2.681   5.137 -0.1450  0.6297 -0.0481
 7424SOL     OW29461   5.059   4.089   0.590 -0.2264 -0.1098  0.4032
 7424SOL    HW229462   5.105   4.043   0.521 -2.4293 -2.1222  0.1789
 7424SOL    HW329463   5.117   4.081   0.667  0.5027 -1.1999 -0.2325
 7424SOL    MW429464   5.073   4.082   0.591  0.0918 -0.4224 -1.1816
 7425SOL     OW29465   0.978   6.393   2.715  0.2981  0.4598 -0.4745
 7425SOL    HW229466   1.006   6.319   2.769 -1.1539 -0.2426 -0.6167
 7425SOL    HW329467   0.897   6.363   2.675 -0.8707  2.4713  0.2200
 7425SOL    MW429468   0.971   6.379   2.717 -0.0315 -0.2517 -0.5463
 7426SOL     OW29469   5.374   4.088   5.390 -0.0741  0.0550 -0.0908
 7426SOL    HW229470   5.328   4.172   5.383  1.1349  0.6619 -1.1020
 7426SOL    HW329471   5.379   4.056   5.300  1.5379  0.0405 -0.0115
 7426SOL    MW429472   5.368   4.095   5.377  0.0981  0.2336  0.1436
 7427SOL     OW29473   5.684   0.281   4.212  0.2053  0.2654  0.0890
 7427SOL    HW229474   5.637   0.339   4.272 -1.5520  1.1801 -2.0276
 7427SOL    HW329475   5.625   0.208   4.197  0.0542  0.6831 -1.4710
 7427SOL    MW429476   5.670   0.279   4.218 -0.4642 -0.4167 -0.2518
 7428SOL     OW29477   4.076   3.720   1.646  0.0888  0.0935  0.1886
 7428SOL    HW229478   4.084   3.625   1.633 -1.7482 -0.1171  0.2046
 7428SOL    HW329479   4.061   3.754   1.558  3.4422  0.7952 -0.2378
 7428SOL    MW429480   4.075   3.712   1.633  0.2570 -0.4241  0.5408
 7429SOL     OW29481   2.439   0.145   0.458  0.0932 -0.2843  0.5079
 7429SOL    HW229482   2.432   0.123   0.365  2.3926 -0.0807  0.2287
 7429SOL    HW329483   2.366   0.206   0.473 -0.2194 -0.1701 -1.1919
 7429SOL    MW429484   2.428   0.150   0.448  0.2800  0.4201 -0.1347
 7430SOL     OW29485   3.501   1.118   5.461  0.3766  0.7269  0.1712
 7430SOL    HW229486   3.544   1.190   5.508  2.0024 -0.3257  0.3781
 7430SOL    HW329487   3.555   1.105   5.383  1.8674 -2.0353  1.4923
 7430SOL    MW429488   3.514   1.126   5.457 -0.3333 -0.1596 -0.3290
 7431SOL     OW29489   5.852   1.427   3.978  0.3185 -0.2412 -0.5159
 7431SOL    HW229490   5.877   1.501   4.034 -0.2318  0.1630 -0.8008
 7431SOL    HW329491   5.872   1.349   4.031 -0.6635  0.1404  0.4549
 7431SOL    MW429492   5.858   1.426   3.992  0.3351  0.3902  0.2799
 7432SOL     OW29493   5.502   0.960   4.891  0.6019 -1.0484 -0.2578
 7432SOL    HW229494   5.565   0.894   4.920  0.3372 -1.7078 -1.1583
 7432SOL    HW329495   5.546   1.005   4.818  1.4439  0.8967  1.3347
 7432SOL    MW429496   5.516   0.957   4.885 -0.0163 -0.1623 -0.1400
 7433SOL     OW29497   2.557   3.992   2.654 -0.0129  0.5053  0.2681
 7433SOL    HW229498   2.493   3.943   2.705  1.6308 -0.8256  1.1706
 7433SOL    HW329499   2.587   4.062   2.713 -1.0836  1.5652 -0.3980
 7433SOL    MW429500   2.553   3.995   2.669  0.0332 -0.0520 -0.0668
 7434SOL     OW29501   3.322   6.220   5.769  0.1595 -0.1574  0.8992
 7434SOL    HW229502   3.347   6.306   5.804  0.5905  0.2068 -0.2683
 7434SOL    HW329503   3.405   6.172   5.761  0.5212  0.7767 -2.2466
 7434SOL    MW429504   3.336   6.225   5.773  0.1112  0.4094 -0.0715
 7435SOL     OW29505   4.238   5.269   3.508  0.2028  0.5050 -0.0098
 7435SOL    HW229506   4.233   5.318   3.590  1.1394  1.2233 -0.3628
 7435SOL    HW329507   4.327   5.234   3.506  0.4145  1.0723 -1.0416
 7435SOL    MW429508   4.249   5.271   3.519  0.3010  0.0015 -0.5770
 7436SOL     OW29509   4.581   4.147   1.141 -0.4636  0.4255  0.8508
 7436SOL    HW229510   4.583   4.221   1.079  0.5479 -0.4398 -0.1819
 7436SOL    HW329511   4.538   4.183   1.219 -1.0670  1.7690 -0.0582
 7436SOL    MW429512   4.575   4.162   1.143 -0.1644  0.1088 -0.0696
 7437SOL     OW29513   6.347   3.840   3.437  0.0878 -0.3332 -0.3354
 7437SOL    HW229514   6.255   3.863   3.426 -0.3897 -2.0098 -0.0809
 7437SOL    HW329515   6.356   3.822   3.530  0.5587 -0.6727 -0.4471
 7437SOL    MW429516   6.336   3.841   3.448 -0.2245  0.0141 -0.0391
 7438SOL     OW29517   6.044   1.155   1.065  0.2043  0.1738 -0.0530
 7438SOL    HW229518   5.987   1.082   1.088 -0.7479  1.1250  0.7232
 7438SOL    HW329519   6.119   1.147   1.124  0.9892 -1.1581 -1.1640
 7438SOL    MW429520   6.047   1.144   1.075 -0.1683 -0.0312  0.3843
 7439SOL     OW29521   3.989   2.200   0.198 -0.0626 -0.6864 -0.1702
 7439SOL    HW229522   3.993   2.296   0.198  0.4972 -0.5926  2.9019
 7439SOL    HW329523   3.898   2.180   0.177 -0.8229  0.6782  1.5385
 7439SOL    MW429524   3.978   2.210   0.196 -0.1487 -1.1286 -0.1293
 7440SOL     OW29525   1.788   0.020   5.498 -0.4813  0.2351  1.1522
 7440SOL    HW229526   1.786   0.079   5.422 -1.8356  0.7794  1.5880
 7440SOL    HW329527   1.704  -0.026   5.495  0.3689 -1.3647  1.0868
 7440SOL    MW429528   1.777   0.022   5.487 -0.0357  0.0064 -0.3697
 7441SOL     OW29529   5.295   0.349   1.458  0.5934  0.2990 -0.4208
 7441SOL    HW229530   5.317   0.406   1.532 -0.8016 -2.5580  2.4163
 7441SOL    HW329531   5.217   0.390   1.420  0.0994  0.7851  1.0352
 7441SOL    MW429532   5.287   0.362   1.463 -0.1404 -0.0110 -0.5078
 7442SOL     OW29533   0.559   0.438   0.624 -0.3623  0.0846 -0.3087
 7442SOL    HW229534   0.472   0.453   0.586 -0.1550 -0.4885 -1.0353
 7442SOL    HW329535   0.543   0.433   0.718 -0.8629  1.6598 -0.2849
 7442SOL    MW429536   0.545   0.439   0.631  0.4481 -0.0337 -0.3244
 7443SOL     OW29537   3.344   1.198   4.211  0.8917 -0.1468  0.4535
 7443SOL    HW229538   3.325   1.285   4.245  1.1168 -0.0009  0.2024
 7443SOL    HW329539   3.430   1.176   4.246 -0.2542 -1.3622  2.7026
 7443SOL    MW429540   3.353   1.206   4.220 -0.7678 -0.6706 -0.0253
 7444SOL     OW29541   5.422   5.510   1.208  0.0325 -0.2200  0.2076
 7444SOL    HW229542   5.341   5.462   1.187 -0.1861 -0.6370  1.8545
 7444SOL    HW329543   5.398   5.565   1.283  1.0576  0.3055  0.1671
 7444SOL    MW429544   5.408   5.511   1.215  0.3053  0.2724  0.2072
 7445SOL     OW29545   1.086   2.908   5.054  0.0352 -0.2727 -0.1585
 7445SOL    HW229546   1.032   2.884   5.129 -1.1235 -3.6209 -1.8437
 7445SOL    HW329547   1.026   2.952   4.994  0.7423  1.5676  0.4155
 7445SOL    MW429548   1.071   2.911   5.056 -0.1329  0.0306 -0.2490
 7446SOL     OW29549   5.501   1.513   3.157  0.1788  0.5061  0.1821
 7446SOL    HW229550   5.488   1.433   3.106  1.5395  0.1580  0.3494
 7446SOL    HW329551   5.480   1.487   3.247  0.4796  0.3791  0.2147
 7446SOL    MW429552   5.496   1.499   3.162  0.1661  0.3803 -0.3471
 7447SOL     OW29553   2.257   4.981   4.039 -0.2255 -0.1067 -0.5930
 7447SOL    HW229554   2.248   5.075   4.052 -1.0502 -0.2263 -0.1929
 7447SOL    HW329555   2.198   4.942   4.104  3.2391 -1.0700  2.2701
 7447SOL    MW429556   2.248   4.988   4.049  0.5507  0.1546 -0.0164
 7448SOL     OW29557   1.305   3.880   5.777  1.2041 -0.1697  0.1962
 7448SOL    HW229558   1.283   3.840   5.861 -0.1722  0.2560  0.0613
 7448SOL    HW329559   1.317   3.973   5.797  0.3510  0.0242 -0.1449
 7448SOL    MW429560   1.304   3.887   5.790 -0.0646  0.1677 -0.2555
 7449SOL     OW29561   1.758   6.431   1.625 -0.4330 -0.1892 -0.3624
 7449SOL    HW229562   1.803   6.411   1.707  0.3870  1.3614 -0.3923
 7449SOL    HW329563   1.751   6.526   1.624 -0.5828 -0.1828 -2.0072
 7449SOL    MW429564   1.763   6.441   1.635 -0.0840 -0.2510 -0.0500
 7450SOL     OW29565   2.601   5.139   5.425 -0.0976  0.2352 -0.4239
 7450SOL    HW229566   2.513   5.135   5.462 -0.0738 -2.4498 -0.3966
 7450SOL    HW329567   2.641   5.217   5.464 -1.7896  0.3749  1.1498
 7450SOL    MW429568   2.595   5.148   5.435  0.4482  0.1127  0.2457
 7451SOL     OW29569   5.726   5.786   2.380  0.1944 -0.3528  0.2202
 7451SOL    HW229570   5.691   5.855   2.436  0.3258  0.4238 -0.6407
 7451SOL    HW329571   5.648   5.737   2.353  0.1611 -0.9622  1.3456
 7451SOL    MW429572   5.711   5.788   2.384  0.1053  0.3575  0.1157
 7452SOL     OW29573   3.207   2.388   1.573 -0.2476  0.2307  0.3819
 7452SOL    HW229574   3.217   2.315   1.634 -1.1850 -1.3282 -1.2375
 7452SOL    HW329575   3.133   2.438   1.609  0.3191  0.3499  1.4328
 7452SOL    MW429576   3.198   2.385   1.586 -0.2257  0.0077 -0.1743
 7453SOL     OW29577   3.341   3.727   4.966 -0.0682 -0.3226 -0.3639
 7453SOL    HW229578   3.363   3.643   4.925 -0.0458 -0.6197  0.2374
 7453SOL    HW329579   3.266   3.707   5.022 -1.2148  0.4519 -1.5826
 7453SOL    MW429580   3.334   3.713   4.968  0.3982 -0.5424  0.4511
 7454SOL     OW29581   4.741   0.712   4.839 -0.2840 -0.2317  0.7074
 7454SOL    HW229582   4.778   0.738   4.755 -2.8054 -0.2091 -0.4932
 7454SOL    HW329583   4.764   0.620   4.848 -0.4558 -0.3880 -0.3120
 7454SOL    MW429584   4.749   0.703   4.829  0.4698  0.1777 -0.0299
 7455SOL     OW29585   4.725   5.639   6.272  0.7938  0.0375 -0.2459
 7455SOL    HW229586   4.741   5.672   6.183 -0.1530 -0.8457 -0.7593
 7455SOL    HW329587   4.634   5.610   6.271  0.4554  0.9480  1.3338
 7455SOL    MW429588   4.715   5.640   6.260 -0.0678  0.7077  0.0075
 7456SOL     OW29589   4.146   3.037   0.782 -0.1294 -0.4104 -0.1953
 7456SOL    HW229590   4.211   2.997   0.724 -0.2602 -1.6463  0.4900
 7456SOL    HW329591   4.170   3.009   0.870 -1.6424 -0.9984  0.0678
 7456SOL    MW429592   4.158   3.028   0.786 -0.4250  0.0121 -0.3938
 7457SOL     OW29593   1.228   1.359   6.028  0.1030  0.6156 -0.0814
 7457SOL    HW229594   1.246   1.286   6.086 -1.4492 -0.1280 -0.4677
 7457SOL    HW329595   1.295   1.424   6.049  1.8510 -1.0899 -0.1031
 7457SOL    MW429596   1.239   1.358   6.039  0.2494  0.0726  0.3217
 7458SOL     OW29597   4.305   3.421   0.798  0.3190  0.4662  0.5975
 7458SOL    HW229598   4.366   3.359   0.758 -0.2765 -0.1852  0.6880
 7458SOL    HW329599   4.257   3.370   0.863 -0.3602  0.9559  0.4938
 7458SOL    MW429600   4.307   3.406   0.801 -0.0705 -0.5077  0.0873
 7459SOL     OW29601   1.130   4.891   4.689  0.3912 -0.1261  0.6590
 7459SOL    HW229602   1.208   4.859   4.644  0.8249  1.6908  0.0644
 7459SOL    HW329603   1.162   4.956   4.751 -0.6039  0.4019  0.6416
 7459SOL    MW429604   1.144   4.895   4.691 -0.4700  0.4022 -0.3309
 7460SOL     OW29605   5.508   4.305   5.062 -0.7223  0.0110 -0.3827
 7460SOL    HW229606   5.466   4.391   5.056 -2.0486 -0.4533  1.2935
 7460SOL    HW329607   5.435   4.244   5.069  0.2216 -1.0201  0.7741
 7460SOL    MW429608   5.493   4.308   5.062  0.6891 -0.0127 -0.2536
 7461SOL     OW29609   4.736   2.811   1.232  0.4521 -0.2957 -0.1058
 7461SOL    HW229610   4.780   2.831   1.150  0.9923  2.3585  0.7499
 7461SOL    HW329611   4.793   2.746   1.274  0.3165 -1.4607 -1.6267
 7461SOL    MW429612   4.750   2.805   1.227 -0.0797  0.3941 -0.4777
 7462SOL     OW29613   3.953   1.413   3.734 -0.0843  0.3800 -0.2147
 7462SOL    HW229614   3.997   1.338   3.694  0.1625 -0.5426  1.6643
 7462SOL    HW329615   3.926   1.467   3.660 -0.7802 -1.8196 -1.6704
 7462SOL    MW429616   3.955   1.410   3.719  0.4654  0.5713 -0.2598
 7463SOL     OW29617   6.399   4.330   3.371  0.0413 -0.4771 -0.1144
 7463SOL    HW229618   6.411   4.267   3.442 -1.6040  1.0936  1.7010
 7463SOL    HW329619   6.326   4.296   3.320 -1.4281  0.2818  1.3799
 7463SOL    MW429620   6.391   4.317   3.374  0.0792  0.6893  0.4827
 7464SOL     OW29621   2.708   4.818   2.872 -0.0176 -0.2858  0.0214
 7464SOL    HW229622   2.765   4.894   2.858  0.0727 -0.0085  1.6765
 7464SOL    HW329623   2.760   4.743   2.842  0.3747  0.1857 -0.4912
 7464SOL    MW429624   2.723   4.818   2.866 -0.9080  0.3191 -0.0732
 7465SOL     OW29625   3.401   4.653   4.288  0.0243  0.3784 -0.6671
 7465SOL    HW229626   3.346   4.681   4.214 -0.2264  0.8252 -0.3148
 7465SOL    HW329627   3.403   4.558   4.280  1.1214  0.4794 -2.0468
 7465SOL    MW429628   3.394   4.644   4.277 -0.0316  0.2024 -0.4671
 7466SOL     OW29629   4.065   3.914   2.174  0.2912 -0.2056 -0.7090
 7466SOL    HW229630   4.146   3.956   2.145  1.5817 -1.4891  0.8146
 7466SOL    HW329631   4.066   3.827   2.133 -0.3557 -0.2187 -0.7157
 7466SOL    MW429632   4.076   3.908   2.165  0.3823 -0.0785 -0.3453
 7467SOL     OW29633   4.064   0.871   1.686  0.2210 -0.0662  0.4808
 7467SOL    HW229634   4.064   0.967   1.686  1.8291 -0.0228  1.1781
 7467SOL    HW329635   4.155   0.848   1.667  0.0866 -1.4328  1.3825
 7467SOL    MW429636   4.076   0.881   1.683 -0.1917  0.2249 -0.6107
 7468SOL     OW29637   4.841   5.279   1.425  0.4075  0.4151  0.0688
 7468SOL    HW229638   4.778   5.207   1.431  0.3351  0.4075 -0.6789
 7468SOL    HW329639   4.888   5.276   1.509  0.2437 -0.3498  0.1489
 7468SOL    MW429640   4.839   5.269   1.437 -0.7037  0.3267  0.0081
 7469SOL     OW29641   5.042   2.329   0.369  0.0865 -0.1476  0.2098
 7469SOL    HW229642   5.106   2.393   0.337 -1.8059  1.4896 -0.4835
 7469SOL    HW329643   5.009   2.287   0.289  0.2651 -0.9535  0.5590
 7469SOL    MW429644   5.046   2.332   0.354  0.2349  0.4760 -0.0043
 7470SOL     OW29645   5.159   2.982   0.858 -0.2298 -0.3622 -0.1062
 7470SOL    HW229646   5.236   2.942   0.819  0.0052  1.5219 -1.7867
 7470SOL    HW329647   5.194   3.046   0.921 -0.5510 -1.5860  1.3756
 7470SOL    MW429648   5.173   2.985   0.861  0.3498  0.3000  0.2461
 7471SOL     OW29649   1.367   3.831   0.490  0.1969 -0.4846 -0.0020
 7471SOL    HW229650   1.303   3.809   0.422 -0.5889  1.2250  0.1396
 7471SOL    HW329651   1.336   3.914   0.527  0.9148 -1.0746  2.0677
 7471SOL    MW429652   1.355   3.839   0.486  0.1674 -0.8786 -0.0174
 7472SOL     OW29653   0.538   0.458   1.791 -0.2842  0.3049 -0.7086
 7472SOL    HW229654   0.569   0.442   1.880 -0.0680 -1.0214 -1.0052
 7472SOL    HW329655   0.609   0.508   1.750 -0.0307  0.2257 -0.3713
 7472SOL    MW429656   0.551   0.462   1.797 -0.1319  0.0044  0.0843
 7473SOL     OW29657   6.266   3.386   6.305  0.0305 -0.3115 -0.8505
 7473SOL    HW229658   6.244   3.319   6.240 -0.5899  0.5898 -1.5980
 7473SOL    HW329659   6.186   3.436   6.315  0.5501  0.4593 -0.4775
 7473SOL    MW429660   6.253   3.384   6.297 -0.4596  0.0923  0.2609
 7474SOL     OW29661   6.002   3.374   5.563  0.3647 -0.7220  0.3408
 7474SOL    HW229662   6.081   3.405   5.608 -0.3413 -0.3040  1.3226
 7474SOL    HW329663   6.021   3.282   5.542  3.2933  0.5818 -4.3393
 7474SOL    MW429664   6.015   3.366   5.566  0.1875  0.2826 -0.4442
 7475SOL     OW29665   2.368   5.595   2.124  0.3661  0.3262 -0.5184
 7475SOL    HW229666   2.326   5.619   2.042  0.1042 -0.1286 -0.5168
 7475SOL    HW329667   2.394   5.504   2.113 -1.0462 -0.2220  0.4574
 7475SOL    MW429668   2.366   5.586   2.112  0.6646  0.5921 -0.2471
 7476SOL     OW29669   3.434   0.435   4.469  0.2690 -0.2181 -0.0590
 7476SOL    HW229670   3.501   0.377   4.434 -1.2327 -0.7541 -2.2145
 7476SOL    HW329671   3.355   0.415   4.419 -1.0985  1.5620  1.2213
 7476SOL    MW429672   3.432   0.425   4.458  0.4248 -0.0937 -0.2816
 7477SOL     OW29673   5.183   5.339   1.454  0.3578 -0.2018  0.3737
 7477SOL    HW229674   5.131   5.411   1.492 -0.5860 -1.1594  0.9518
 7477SOL    HW329675   5.244   5.315   1.524 -0.0092 -0.6292  0.5471
 7477SOL    MW429676   5.184   5.346   1.468  0.1219 -0.0592  0.6662
 7478SOL     OW29677   4.678   2.080   0.121  0.0183 -0.1394 -0.0819
 7478SOL    HW229678   4.740   2.037   0.062  2.0871 -0.2660  2.0138
 7478SOL    HW329679   4.692   2.174   0.105  2.4448 -0.0692  1.8017
 7478SOL    MW429680   4.688   2.087   0.111 -0.0209  0.2243  0.0020
 7479SOL     OW29681   4.192   5.740   5.588 -0.1661 -0.7502 -0.2237
 7479SOL    HW229682   4.240   5.822   5.587 -0.7677 -0.3811  0.5064
 7479SOL    HW329683   4.216   5.699   5.671 -0.2585 -1.0778 -0.3562
 7479SOL    MW429684   4.201   5.745   5.599  0.8953 -0.4364  0.5768
 7480SOL     OW29685   6.200   0.268   5.901  0.0991 -0.3007 -0.1415
 7480SOL    HW229686   6.145   0.192   5.880 -0.7050 -0.6665  2.8227
 7480SOL    HW329687   6.287   0.232   5.916  0.4477 -0.1662 -1.7102
 7480SOL    MW429688   6.204   0.254   5.901 -0.0615  0.3310 -0.5928
 7481SOL     OW29689   3.658   3.971   4.040 -0.0785  0.2359 -0.3001
 7481SOL    HW229690   3.697   4.038   3.984 -2.2320  1.4752 -0.4490
 7481SOL    HW329691   3.651   4.012   4.126 -0.8458  0.0060 -0.2399
 7481SOL    MW429692   3.662   3.985   4.044 -0.2086  0.0797  0.3355
 7482SOL     OW29693   1.564   1.624   2.462  0.2915 -0.6983 -0.0856
 7482SOL    HW229694   1.582   1.643   2.370 -0.2313 -1.6205 -0.3928
 7482SOL    HW329695   1.623   1.682   2.511  1.9496 -1.5352 -1.0088
 7482SOL    MW429696   1.574   1.634   2.456  0.0576 -0.1262 -0.2885
 7483SOL     OW29697   1.880   2.707   1.591  0.4958 -0.2446 -0.4140
 7483SOL    HW229698   1.812   2.749   1.540 -0.0228 -1.5820 -0.8759
 7483SOL    HW329699   1.955   2.766   1.585 -0.0827  0.4216 -1.3246
 7483SOL    MW429700   1.881   2.720   1.584 -0.0982  0.1617 -0.0058
 7484SOL     OW29701   4.915   2.315   0.102  0.4754  0.3497  0.4091
 7484SOL    HW229702   4.960   2.232   0.087  0.9027  0.7039 -0.2952
 7484SOL    HW329703   4.922   2.362   0.019  0.4917  1.2103  0.8850
 7484SOL    MW429704   4.922   2.310   0.089 -0.2911  0.2454  0.0505
 7485SOL     OW29705   4.118   3.983   3.609 -0.3798 -0.4765 -0.4355
 7485SOL    HW229706   4.034   4.023   3.585 -1.2111  0.1976  3.1472
 7485SOL    HW329707   4.101   3.936   3.690  2.7272 -0.1583  0.5509
 7485SOL    MW429708   4.105   3.982   3.616  0.4308 -0.2659 -0.0291
 7486SOL     OW29709   5.682   4.549   2.104  0.5184  0.3328  0.5963
 7486SOL    HW229710   5.664   4.553   2.198  0.9478  0.4083  0.6756
 7486SOL    HW329711   5.595   4.549   2.064  0.3353  1.0968  0.9602
 7486SOL    MW429712   5.668   4.550   2.112  0.6949 -0.5125  0.0153
 7487SOL     OW29713   5.093   2.763   6.002  1.0222 -0.2765  0.5939
 7487SOL    HW229714   5.134   2.825   6.063  2.2983 -0.4370 -0.0780
 7487SOL    HW329715   5.133   2.679   6.023  0.3401 -0.6210  0.5388
 7487SOL    MW429716   5.103   2.760   6.013  0.1495  0.5170  0.4826
 7488SOL     OW29717   2.996   2.750   3.429 -0.0386 -0.6646  0.3342
 7488SOL    HW229718   3.036   2.686   3.487 -0.2347 -1.0058  0.0979
 7488SOL    HW329719   2.902   2.731   3.434 -0.2667  0.5987  1.4534
 7488SOL    MW429720   2.989   2.739   3.437  0.1766  0.0359 -0.0527
 7489SOL     OW29721   4.142   4.319   2.558 -0.1811  0.5505 -0.6459
 7489SOL    HW229722   4.234   4.334   2.580 -0.0995  0.8837 -1.1934
 7489SOL    HW329723   4.125   4.230   2.588  0.1414  0.7082  0.0315
 7489SOL    MW429724   4.152   4.309   2.565  0.3914  0.6697  0.0595
 7490SOL     OW29725   5.869   2.297   2.922 -0.1130 -0.6560  0.1174
 7490SOL    HW229726   5.792   2.299   2.978 -1.0287  0.5254 -1.1170
 7490SOL    HW329727   5.853   2.226   2.861  0.3116 -1.1365  0.5547
 7490SOL    MW429728   5.857   2.288   2.921  0.3721 -0.1820 -0.1890
 7491SOL     OW29729   0.651   4.900   0.264 -0.9977  0.1564  0.2345
 7491SOL    HW229730   0.617   4.811   0.269  0.3786 -0.4544 -0.8274
 7491SOL    HW329731   0.684   4.909   0.175 -2.3651  2.2231 -0.1484
 7491SOL    MW429732   0.651   4.890   0.253  0.2240  0.6286 -0.4115
 7492SOL     OW29733   3.010   0.438   1.480 -0.2121  0.7047  0.5228
 7492SOL    HW229734   3.099   0.426   1.446 -0.5578 -3.4462  0.5421
 7492SOL    HW329735   2.993   0.531   1.470  4.0388  1.6676  0.3459
 7492SOL    MW429736   3.019   0.448   1.474  0.5758 -0.3210  0.0900
 7493SOL     OW29737   4.107   4.071   3.947  0.0471  0.0651 -0.0500
 7493SOL    HW229738   4.095   3.985   3.909  0.2957  1.0641 -2.5945
 7493SOL    HW329739   4.201   4.077   3.964 -0.1410 -0.5874  1.3226
 7493SOL    MW429740   4.118   4.061   3.944  0.1288  0.1702 -0.0474
 7494SOL     OW29741   4.409   5.162   1.841 -0.4479 -0.6446 -0.3934
 7494SOL    HW229742   4.324   5.199   1.863  0.2545  0.8216 -0.0657
 7494SOL    HW329743   4.458   5.234   1.801  1.6163 -0.5990  1.9774
 7494SOL    MW429744   4.405   5.176   1.839 -0.7773 -0.4334  0.4363
 7495SOL     OW29745   0.773   4.610   2.913  0.5719 -0.0612  0.4006
 7495SOL    HW229746   0.830   4.557   2.970  0.2721 -0.8729 -0.0386
 7495SOL    HW329747   0.686   4.599   2.950  0.1388 -1.7188 -0.9611
 7495SOL    MW429748   0.769   4.601   2.926 -0.5432  0.3978 -0.0011
 7496SOL     OW29749   1.857   1.159   1.563  0.1246  0.3229 -0.3399
 7496SOL    HW229750   1.818   1.119   1.641  1.0914  1.0582  0.5536
 7496SOL    HW329751   1.812   1.243   1.553  0.0843  0.2823 -0.5080
 7496SOL    MW429752   1.846   1.165   1.572  0.0207  1.0018  0.5496
 7497SOL     OW29753   2.157   2.760   1.316  0.1947  0.6369 -0.1558
 7497SOL    HW229754   2.062   2.757   1.308  0.2361 -1.3299 -0.6007
 7497SOL    HW329755   2.189   2.755   1.225  0.7389  1.7873 -0.0424
 7497SOL    MW429756   2.149   2.759   1.303  0.4969  0.3193 -0.1840
 7498SOL     OW29757   1.177   3.752   2.822  0.2478  0.6211  0.1138
 7498SOL    HW229758   1.106   3.806   2.789  0.1503  0.4480  0.0423
 7498SOL    HW329759   1.153   3.733   2.913 -0.7395 -1.0248 -0.4700
 7498SOL    MW429760   1.165   3.757   2.830  0.5501 -0.0024  0.0252
 7499SOL     OW29761   3.303   2.428   4.546 -0.1693 -0.1355  0.5924
 7499SOL    HW229762   3.267   2.510   4.580 -0.7399  0.8346 -2.1012
 7499SOL    HW329763   3.354   2.454   4.470 -0.2576 -2.2703 -0.2654
 7499SOL    MW429764   3.305   2.442   4.541 -0.3973 -0.0797 -0.3624
 7500SOL     OW29765   0.577   2.022   4.524  0.5383  0.7207  0.3019
 7500SOL    HW229766   0.585   1.991   4.615 -1.5941 -0.0648  0.3050
 7500SOL    HW329767   0.501   2.080   4.526  0.4876  0.7223 -0.9607
 7500SOL    MW429768   0.568   2.025   4.537 -0.2834  0.4342  0.5276
 7501SOL     OW29769   1.854   0.392   3.895 -0.2250  0.1564  0.2935
 7501SOL    HW229770   1.820   0.303   3.889  1.7277 -0.6321  0.2571
 7501SOL    HW329771   1.844   0.415   3.988 -1.8554  0.3990  0.0814
 7501SOL    MW429772   1.848   0.383   3.907  0.9239  0.1302  0.5235
 7502SOL     OW29773   0.953   3.737   5.977 -0.3446 -0.1540  0.6373
 7502SOL    HW229774   0.995   3.659   5.940  1.6908  1.2200 -0.1222
 7502SOL    HW329775   0.894   3.768   5.908  1.0898  0.6177 -0.2889
 7502SOL    MW429776   0.950   3.731   5.963  0.0351 -0.3959  0.0066
 7503SOL     OW29777   3.088   4.216   0.646 -0.1607 -0.3366 -0.2795
 7503SOL    HW229778   3.058   4.236   0.558  2.8153  2.7335 -0.7856
 7503SOL    HW329779   3.171   4.170   0.633 -0.3284 -1.0331  0.9540
 7503SOL    MW429780   3.095   4.212   0.633 -0.1200 -0.4012  0.6701
 7504SOL     OW29781   3.336   5.192   2.329  0.2927  0.8560 -0.2532
 7504SOL    HW229782   3.388   5.181   2.250 -0.2304 -0.7455 -0.4256
 7504SOL    HW329783   3.392   5.243   2.388  1.4414  0.4842 -0.9830
 7504SOL    MW429784   3.350   5.197   2.327  0.6405 -0.0841  0.9242
 7505SOL     OW29785   1.259   0.474   3.017 -0.9326  0.1092  0.0484
 7505SOL    HW229786   1.278   0.565   2.998 -0.3590  0.4065  1.8089
 7505SOL    HW329787   1.345   0.433   3.030 -1.2173 -0.4399  0.2540
 7505SOL    MW429788   1.273   0.480   3.016 -0.4325 -0.2593 -0.5031
 7506SOL     OW29789   4.828   4.982   3.376  1.2015  0.3782  0.0632
 7506SOL    HW229790   4.762   4.913   3.370  0.9559  0.5463  0.7665
 7506SOL    HW329791   4.906   4.944   3.334  0.8991 -0.1118 -0.0631
 7506SOL    MW429792   4.830   4.968   3.369  0.0267  0.6784  0.0008
 7507SOL     OW29793   3.569   2.105   5.709 -0.5326  0.3690 -0.7077
 7507SOL    HW229794   3.489   2.067   5.746 -1.0480  1.6933 -0.3926
 7507SOL    HW329795   3.585   2.055   5.629 -1.0933 -0.5859 -0.2411
 7507SOL    MW429796   3.560   2.093   5.704  0.2732 -0.5681 -0.3539
 7508SOL     OW29797   0.062   4.664   2.723  0.7237 -0.0819  0.5778
 7508SOL    HW229798   0.140   4.687   2.772  0.9398  0.0623  0.1663
 7508SOL    HW329799   0.069   4.569   2.710  0.8617 -0.0581  0.4830
 7508SOL    MW429800   0.073   4.654   2.728  0.1908  0.5067 -0.6191
 7509SOL     OW29801   2.966   0.712   6.028 -0.5933 -0.0107  0.3035
 7509SOL    HW229802   2.958   0.619   6.051  0.9948 -0.2918 -0.2141
 7509SOL    HW329803   3.035   0.715   5.962 -0.7222  1.5311  0.2082
 7509SOL    MW429804   2.974   0.700   6.023 -0.8085 -0.0672 -0.3682
 7510SOL     OW29805   5.963   1.217   4.621 -0.1202 -0.4287  0.4899
 7510SOL    HW229806   5.895   1.240   4.685 -2.6498 -0.3600 -2.0344
 7510SOL    HW329807   5.999   1.301   4.594 -1.6226 -0.1170 -0.7144
 7510SOL    MW429808   5.958   1.231   4.626  0.2332 -0.2077 -0.0983
 7511SOL     OW29809   3.283   1.865   4.305  0.9280 -0.2547  0.5515
 7511SOL    HW229810   3.204   1.814   4.320  1.8595 -2.3401 -1.1245
 7511SOL    HW329811   3.312   1.839   4.217  2.6392  1.6001  0.4894
 7511SOL    MW429812   3.276   1.855   4.295 -0.0203 -0.4039  0.4183
 7512SOL     OW29813   2.130   5.376   3.958  0.2940 -0.2570  0.1009
 7512SOL    HW229814   2.040   5.381   3.992  0.0134 -3.0101  0.0014
 7512SOL    HW329815   2.178   5.327   4.025  1.2238 -0.5466 -0.7504
 7512SOL    MW429816   2.124   5.370   3.971 -0.2653 -0.1523 -0.2173
 7513SOL     OW29817   0.180   3.348   0.789 -0.6291 -0.0502  0.1757
 7513SOL    HW229818   0.125   3.330   0.712  0.0165 -2.1926  0.1815
 7513SOL    HW329819   0.189   3.264   0.833  0.5377  0.7810  1.6101
 7513SOL    MW429820   0.174   3.335   0.785  0.2915  0.3387 -0.4348
 7514SOL     OW29821   1.337   1.539   1.660 -0.2346 -0.4510 -0.4469
 7514SOL    HW229822   1.303   1.597   1.592 -0.0427 -0.1208 -0.2657
 7514SOL    HW329823   1.282   1.557   1.736  0.3597  0.1125 -0.1413
 7514SOL    MW429824   1.325   1.549   1.661 -0.3394  0.2843  0.5255
 7515SOL     OW29825   4.947   4.418   2.001 -0.5946 -0.1549  0.1166
 7515SOL    HW229826   4.879   4.485   1.992 -0.1385  0.2458 -0.4888
 7515SOL    HW329827   4.913   4.357   2.066 -2.3222 -0.9512 -1.4584
 7515SOL    MW429828   4.934   4.419   2.008 -0.3006 -0.1768  0.1827
 7516SOL     OW29829   3.662   5.650   1.136 -0.2095 -0.0529  0.1708
 7516SOL    HW229830   3.682   5.559   1.113  0.5872  0.6837 -2.3336
 7516SOL    HW329831   3.567   5.656   1.131 -0.1523 -0.2148 -2.1565
 7516SOL    MW429832   3.652   5.639   1.133 -0.0484  0.0236 -0.1239
 7517SOL     OW29833   3.951   4.595   2.879  0.4130 -0.2037  0.8361
 7517SOL    HW229834   3.932   4.534   2.950  0.2516 -1.8836 -0.5849
 7517SOL    HW329835   3.865   4.627   2.852  0.4036 -0.2207  0.8454
 7517SOL    MW429836   3.937   4.591   2.885 -0.3568  0.4245 -0.0321
 7518SOL     OW29837   5.930   4.305   3.823  0.2684 -0.0571 -0.0827
 7518SOL    HW229838   5.888   4.238   3.877 -0.9938 -0.9291 -2.0289
 7518SOL    HW329839   5.959   4.372   3.885 -0.2961 -1.4239  1.7192
 7518SOL    MW429840   5.928   4.305   3.838 -0.8792  0.9829 -0.3020
 7519SOL     OW29841   2.487   5.647   0.616 -0.2766  0.1488 -0.4362
 7519SOL    HW229842   2.447   5.561   0.629  0.3013 -0.2899 -1.4770
 7519SOL    HW329843   2.455   5.676   0.531 -1.4227  1.5205  0.4217
 7519SOL    MW429844   2.478   5.640   0.606  0.6603  0.1593 -0.0884
 7520SOL     OW29845   6.387   0.605   4.673  0.2757 -0.1467  0.3026
 7520SOL    HW229846   6.470   0.568   4.703  0.9312  1.0629  0.0617
 7520SOL    HW329847   6.347   0.537   4.619  0.9022 -0.8996  0.7697
 7520SOL    MW429848   6.392   0.591   4.670 -0.1911  0.2112  0.6969
 7521SOL     OW29849   0.732   4.887   0.902 -0.3307  0.5079  0.6160
 7521SOL    HW229850   0.673   4.941   0.849 -0.7645 -1.6450 -1.2915
 7521SOL    HW329851   0.801   4.860   0.841  0.5146 -0.1209  1.8086
 7521SOL    MW429852   0.733   4.890   0.887 -0.6914 -0.9661  0.2462
 7522SOL     OW29853   5.250   5.646   4.962  0.3073  0.7480  0.9192
 7522SOL    HW229854   5.273   5.562   5.002  0.6123 -0.1573 -1.0300
 7522SOL    HW329855   5.154   5.648   4.962  0.1928 -0.8475 -1.2898
 7522SOL    MW429856   5.240   5.635   4.967 -0.0921  0.6049  0.2349
 7523SOL     OW29857   1.804   5.299   1.358  0.1740 -0.1080 -0.3260
 7523SOL    HW229858   1.732   5.240   1.380  1.1878 -1.9698 -1.6752
 7523SOL    HW329859   1.871   5.242   1.320  2.1987  1.6176  0.4689
 7523SOL    MW429860   1.804   5.284   1.356  0.2040  0.1449  0.2679
 7524SOL     OW29861   4.074   5.175   3.122  0.1651  0.2560  0.4300
 7524SOL    HW229862   4.166   5.148   3.116 -0.0515 -0.3290 -0.5995
 7524SOL    HW329863   4.026   5.093   3.129 -0.3862  0.4482 -0.8135
 7524SOL    MW429864   4.080   5.161   3.122 -0.4912 -0.7253 -0.7731
 7525SOL     OW29865   3.204   5.665   6.223 -0.2389  0.5732 -0.4250
 7525SOL    HW229866   3.199   5.744   6.170 -2.4994  1.8413  1.5064
 7525SOL    HW329867   3.114   5.633   6.227  0.7233 -2.8116 -2.0415
 7525SOL    MW429868   3.192   5.671   6.216 -0.8379 -0.1796 -0.0259
 7526SOL     OW29869   0.753   2.889   0.320  0.3080 -0.2565  0.6273
 7526SOL    HW229870   0.792   2.811   0.279 -1.9738 -0.9656 -0.3686
 7526SOL    HW329871   0.750   2.867   0.413  1.1261 -0.6813  0.5684
 7526SOL    MW429872   0.758   2.876   0.327 -0.8701  0.1425 -0.6746
 7527SOL     OW29873   6.027   4.963   3.363 -0.0089  0.1087  0.2915
 7527SOL    HW229874   6.085   4.937   3.435  0.9264  3.1129  0.7818
 7527SOL    HW329875   5.958   5.013   3.406 -0.0243  1.0291 -0.7770
 7527SOL    MW429876   6.026   4.966   3.378  0.0858 -0.4583 -0.2479
 7528SOL     OW29877   0.169   2.251   1.307  0.0891 -0.0944  0.2952
 7528SOL    HW229878   0.205   2.225   1.392  0.1415 -0.7728  0.0731
 7528SOL    HW329879   0.111   2.324   1.327 -0.3355 -0.5999  0.9943
 7528SOL    MW429880   0.166   2.257   1.321  0.4226 -0.0200  0.0135
 7529SOL     OW29881   5.345   3.736   1.170  0.3283 -0.3054  0.6384
 7529SOL    HW229882   5.343   3.664   1.233  1.1189 -0.3082  0.6636
 7529SOL    HW329883   5.436   3.765   1.169 -0.2961  2.1322  2.2487
 7529SOL    MW429884   5.357   3.730   1.178  0.4848 -0.0018 -0.2700
 7530SOL     OW29885   3.754   2.016   3.623  0.4180 -0.2183  0.8005
 7530SOL    HW229886   3.680   2.049   3.573  1.8145  0.3125 -1.0065
 7530SOL    HW329887   3.779   1.935   3.579  0.2867 -0.9650  2.0455
 7530SOL    MW429888   3.747   2.009   3.611 -0.1964 -0.0442 -0.2751
 7531SOL     OW29889   4.350   4.657   2.398 -0.1577 -0.0981  0.4292
 7531SOL    HW229890   4.297   4.638   2.475  0.2647 -1.3483  0.4302
 7531SOL    HW329891   4.440   4.637   2.425 -0.0077 -0.5710 -0.3982
 7531SOL    MW429892   4.355   4.652   2.412 -0.1146  0.0299  0.1539
 7532SOL     OW29893   1.026   5.367   2.072 -0.2228 -0.2966 -0.5071
 7532SOL    HW229894   1.049   5.317   1.994 -0.0934 -0.3560 -0.4329
 7532SOL    HW329895   1.096   5.432   2.080  0.0143 -0.5884 -0.1820
 7532SOL    MW429896   1.038   5.369   2.063  0.3619  0.3697  0.8701
 7533SOL     OW29897   2.032   4.024   5.887 -0.1267 -0.5391  0.5441
 7533SOL    HW229898   2.120   4.007   5.853  0.1418 -1.2319  1.5429
 7533SOL    HW329899   2.044   4.092   5.953 -0.6536  0.8239 -0.6936
 7533SOL    MW429900   2.045   4.031   5.891  1.0311  0.3798  0.4796
 7534SOL     OW29901   2.660   5.718   0.860  0.1691 -0.0147  0.2645
 7534SOL    HW229902   2.655   5.761   0.946 -0.3602  0.6780 -0.0984
 7534SOL    HW329903   2.576   5.739   0.819  0.4767 -0.2260 -0.4768
 7534SOL    MW429904   2.648   5.727   0.866 -0.4691  0.0051 -0.1393
 7535SOL     OW29905   4.781   5.089   2.654 -0.1419 -0.1180 -0.5975
 7535SOL    HW229906   4.735   5.044   2.584 -0.1065  0.7668 -1.2099
 7535SOL    HW329907   4.723   5.162   2.678 -0.5651 -0.9048  0.9159
 7535SOL    MW429908   4.767   5.093   2.648 -0.3664 -0.3306  0.0716
 7536SOL     OW29909   4.651   2.274   5.534 -0.1231  0.4075 -0.2229
 7536SOL    HW229910   4.682   2.187   5.507 -1.2931  0.8210 -3.3847
 7536SOL    HW329911   4.726   2.331   5.521  0.3153  0.0709  0.7540
 7536SOL    MW429912   4.665   2.270   5.529  0.4122  0.1968 -0.4406
 7537SOL     OW29913   4.421   2.524   4.886 -0.2522  0.6080  0.5064
 7537SOL    HW229914   4.420   2.455   4.952 -1.0402  0.5985  0.4862
 7537SOL    HW329915   4.381   2.485   4.809  0.4265  0.7032  0.0935
 7537SOL    MW429916   4.416   2.510   4.885 -0.4982  0.2030 -0.4940
 7538SOL     OW29917   3.652   0.804   0.316 -0.3518 -0.2893  0.4473
 7538SOL    HW229918   3.635   0.873   0.380 -1.3905  0.5111 -0.6555
 7538SOL    HW329919   3.616   0.725   0.356  1.3796 -0.3883  1.9956
 7538SOL    MW429920   3.645   0.803   0.330 -0.4358  0.5485  0.2568
 7539SOL     OW29921   2.989   4.090   4.397  0.0999 -0.2593 -0.0383
 7539SOL    HW229922   3.000   4.026   4.467 -0.7900 -1.5248 -1.0308
 7539SOL    HW329923   2.931   4.156   4.434 -1.2694 -1.4877  0.0817
 7539SOL    MW429924   2.983   4.090   4.411 -0.9524 -0.6567  0.0171
 7540SOL     OW29925   5.240   3.473   5.485  0.4895 -0.5505 -0.6390
 7540SOL    HW229926   5.309   3.446   5.424  0.0616 -0.7487 -1.0451
 7540SOL    HW329927   5.160   3.476   5.432  0.0823 -0.8563 -0.0653
 7540SOL    MW429928   5.238   3.470   5.470  0.5360  0.4410 -0.3123
 7541SOL     OW29929   4.685   4.430   6.331 -0.0761  0.9652 -0.1646
 7541SOL    HW229930   4.621   4.395   6.269  0.1502  2.1325 -1.1203
 7541SOL    HW329931   4.684   4.525   6.314  0.5959  1.2039  1.0598
 7541SOL    MW429932   4.676   4.438   6.320  0.0278  0.2829 -0.0539
 7542SOL     OW29933   4.376   5.350   5.859 -0.2602  0.0114  0.7123
 7542SOL    HW229934   4.452   5.294   5.841  0.2099  1.0743 -0.7595
 7542SOL    HW329935   4.317   5.294   5.910  0.5023 -1.5983 -0.0852
 7542SOL    MW429936   4.378   5.335   5.863  0.0003 -0.1461  0.0539
 7543SOL     OW29937   2.351   4.177   1.996 -0.1287  0.3316 -0.3758
 7543SOL    HW229938   2.283   4.135   1.944 -1.6463  0.2222  1.6245
 7543SOL    HW329939   2.433   4.149   1.954 -1.2414  0.5529 -2.9097
 7543SOL    MW429940   2.353   4.168   1.983 -0.8895  0.1113  0.3176
 7544SOL     OW29941   1.347   0.880   5.214 -0.7878 -0.3181  0.7160
 7544SOL    HW229942   1.383   0.897   5.301 -0.5287 -0.4634  0.6388
 7544SOL    HW329943   1.308   0.963   5.187 -0.3470 -0.1065  0.7269
 7544SOL    MW429944   1.347   0.893   5.222 -0.6264 -0.0197  0.5776
 7545SOL     OW29945   2.222   1.433   3.095 -0.3560 -0.0384  0.3554
 7545SOL    HW229946   2.128   1.414   3.091  0.1343 -3.0200  0.7906
 7545SOL    HW329947   2.247   1.451   3.004 -1.0027 -1.2636 -0.0798
 7545SOL    MW429948   2.213   1.433   3.082  0.1643  0.8210 -0.4077
 7546SOL     OW29949   6.310   3.070   2.736  0.0640  0.5498  0.5101
 7546SOL    HW229950   6.282   2.979   2.747  1.4316  0.0750  0.2417
 7546SOL    HW329951   6.299   3.087   2.642  1.4290  0.0880  0.2546
 7546SOL    MW429952   6.305   3.060   2.725  0.9047 -0.1749  0.0317
 7547SOL     OW29953   2.513   4.249   4.586 -0.1004 -0.0457 -0.3915
 7547SOL    HW229954   2.551   4.255   4.674  1.9817  1.3237 -1.2833
 7547SOL    HW329955   2.488   4.339   4.564  0.1916 -0.2091 -1.4969
 7547SOL    MW429956   2.515   4.262   4.594  0.3241  0.2841 -0.2787
 7548SOL     OW29957   0.283   4.660   4.081  0.4890 -0.5445 -0.1900
 7548SOL    HW229958   0.319   4.665   3.993  0.8032 -1.1234 -0.0998
 7548SOL    HW329959   0.359   4.653   4.139  0.2579 -2.3005 -0.0349
 7548SOL    MW429960   0.297   4.660   4.077  0.2439  0.1380 -0.1101
 7549SOL     OW29961   1.410   5.363   1.554  0.1482  0.4594 -0.2459
 7549SOL    HW229962   1.403   5.434   1.617  2.7646  0.7505 -0.1625
 7549SOL    HW329963   1.360   5.393   1.478 -0.2269  1.5908  0.4233
 7549SOL    MW429964   1.402   5.376   1.552 -0.3590  0.0456 -0.3815
 7550SOL     OW29965   3.996   6.364   0.021  0.1068 -0.1329  0.4831
 7550SOL    HW229966   4.004   6.311  -0.058 -0.8763  0.1305  0.1908
 7550SOL    HW329967   3.985   6.453  -0.011  0.0561  0.0208  0.9217
 7550SOL    MW429968   3.995   6.369   0.007  0.5574 -0.1619  0.0817
 7551SOL     OW29969   1.078   2.697   1.471  0.4699 -0.3009  0.5091
 7551SOL    HW229970   1.090   2.730   1.560  0.1109 -0.8379  0.7638
 7551SOL    HW329971   0.993   2.653   1.473  0.5586 -0.5090 -0.0454
 7551SOL    MW429972   1.068   2.696   1.483  0.5180  0.4429 -0.0694
 7552SOL     OW29973   4.863   0.410   2.466  0.6976  0.0880  0.6617
 7552SOL    HW229974   4.812   0.371   2.395  0.4882  1.3219  0.1129
 7552SOL    HW329975   4.809   0.482   2.498 -0.2006 -1.7302  3.5711
 7552SOL    MW429976   4.849   0.414   2.461 -0.3745 -0.0445  0.4656
 7553SOL     OW29977   1.911   5.556   0.925 -0.4475  0.0775  0.3322
 7553SOL    HW229978   1.912   5.592   1.014 -1.1901 -0.1727  0.4540
 7553SOL    HW329979   1.988   5.593   0.883  0.1451 -0.1187  1.2065
 7553SOL    MW429980   1.921   5.566   0.931 -0.6169  0.1431 -0.4151
 7554SOL     OW29981   3.011   4.597   4.974 -0.0966  0.2559 -0.2851
 7554SOL    HW229982   2.993   4.610   5.067 -0.2843 -0.8292 -0.1560
 7554SOL    HW329983   3.037   4.684   4.942 -1.4638  0.9652  0.4461
 7554SOL    MW429984   3.012   4.610   4.982  0.0883 -0.5895  0.0652
 7555SOL     OW29985   1.746   3.582   4.828 -0.4861 -0.4562  0.0565
 7555SOL    HW229986   1.830   3.612   4.862 -0.4937  0.6907 -0.8391
 7555SOL    HW329987   1.708   3.530   4.898  0.2080  0.4513  1.1437
 7555SOL    MW429988   1.752   3.579   4.841 -0.5234  0.2910 -0.1176
 7556SOL     OW29989   4.422   1.005   3.672 -0.2113  0.0164  1.4554
 7556SOL    HW229990   4.353   0.969   3.615  0.3043  0.6643  0.4008
 7556SOL    HW329991   4.495   0.943   3.663 -0.5595 -0.5632  2.4208
 7556SOL    MW429992   4.422   0.992   3.663 -0.0341  0.1870  0.4970
 7557SOL     OW29993   1.374   2.041   3.898 -0.6666  0.3280 -0.8137
 7557SOL    HW229994   1.433   2.080   3.962  0.6895  1.1958 -2.5194
 7557SOL    HW329995   1.287   2.047   3.938  0.0922  1.1743  0.7606
 7557SOL    MW429996   1.370   2.047   3.912 -0.7254 -0.6416 -0.7663
 7558SOL     OW29997   6.394   3.534   5.560 -0.1983 -0.1159  0.2530
 7558SOL    HW229998   6.471   3.535   5.615 -1.3529 -0.0366  1.9383
 7558SOL    HW329999   6.320   3.529   5.621 -1.5838  1.1328 -1.2188
 7558SOL    MW430000   6.394   3.533   5.575  0.3505  0.7596  0.0571
 7559SOL     OW30001   5.982   3.404   4.177 -0.1132 -0.1895 -0.2636
 7559SOL    HW230002   5.903   3.375   4.131 -0.5084 -0.8515  0.7937
 7559SOL    HW330003   5.982   3.354   4.258  1.0027  0.3575  0.0934
 7559SOL    MW430004   5.971   3.394   4.182 -0.2706  0.3222 -0.1919
 7560SOL     OW30005   3.029   6.393   5.919 -0.1186  0.5241  0.5806
 7560SOL    HW230006   2.949   6.342   5.913  1.1566 -1.6289  0.8909
 7560SOL    HW330007   3.076   6.356   5.994  1.9955  0.4146 -0.6959
 7560SOL    MW430008   3.025   6.382   5.928 -0.8208 -0.1930  0.2794
 7561SOL     OW30009   4.894   0.320   2.970 -0.1960 -0.3466 -0.0567
 7561SOL    HW230010   4.870   0.322   2.877  0.3101  0.5771 -0.1803
 7561SOL    HW330011   4.956   0.246   2.977  1.3738  0.8198 -0.8938
 7561SOL    MW430012   4.899   0.310   2.958 -0.3877  0.0721 -0.1886
 7562SOL     OW30013   6.295   3.925   1.423 -0.1403 -0.2245 -0.3424
 7562SOL    HW230014   6.252   3.897   1.504  1.3873  1.1201  1.0221
 7562SOL    HW330015   6.379   3.880   1.423  0.0595  0.1314 -0.9534
 7562SOL    MW430016   6.300   3.916   1.434 -0.0930 -0.2035  0.3863
 7563SOL     OW30017   5.575   3.361   2.551 -0.3501 -0.2492  0.7571
 7563SOL    HW230018   5.534   3.279   2.579 -0.1560 -0.8812 -0.7092
 7563SOL    HW330019   5.586   3.351   2.456  0.7601  0.9985  0.7264
 7563SOL    MW430020   5.571   3.349   2.542  0.2218 -0.1810 -0.1194
 7564SOL     OW30021   5.490   0.827   1.174 -0.1788  0.2713  0.3654
 7564SOL    HW230022   5.402   0.856   1.199  0.0428  0.7099  0.6542
 7564SOL    HW330023   5.507   0.871   1.091 -1.5448 -2.4098 -1.4816
 7564SOL    MW430024   5.480   0.836   1.166  0.2872  0.2335 -0.0129
 7565SOL     OW30025   0.435   0.857   4.207  0.2452  0.0519  0.4005
 7565SOL    HW230026   0.445   0.860   4.111 -2.5308  1.5305  0.0484
 7565SOL    HW330027   0.413   0.766   4.225 -1.1991  0.1410 -0.6874
 7565SOL    MW430028   0.433   0.845   4.197  0.2999 -0.0092 -0.1026
 7566SOL     OW30029   5.694   1.643   5.877  0.2806 -0.2441 -0.0920
 7566SOL    HW230030   5.747   1.685   5.809 -0.2086  0.3781 -0.0943
 7566SOL    HW330031   5.642   1.714   5.915  0.7514 -0.5187  1.1324
 7566SOL    MW430032   5.694   1.658   5.873 -0.0476 -0.4283  0.0962
 7567SOL     OW30033   3.166   0.710   3.791 -0.2266  0.0621 -0.0633
 7567SOL    HW230034   3.222   0.788   3.794  0.4119 -0.3244 -1.1790
 7567SOL    HW330035   3.158   0.690   3.698 -1.6622 -0.3158  0.1189
 7567SOL    MW430036   3.173   0.718   3.779  0.0826  0.2505  0.2145
 7568SOL     OW30037   1.063   3.831   2.051 -0.1677  0.6365 -0.2054
 7568SOL    HW230038   1.159   3.821   2.054 -0.3905 -2.4941 -0.3799
 7568SOL    HW330039   1.050   3.911   2.001  2.3590  0.8908 -0.6246
 7568SOL    MW430040   1.074   3.840   2.045  0.5773  0.0109  0.3870
 7569SOL     OW30041   2.668   6.209   2.461  0.0707  0.1902 -0.2794
 7569SOL    HW230042   2.675   6.143   2.393  0.1061 -0.2314  0.1347
 7569SOL    HW330043   2.753   6.209   2.504 -0.7175 -1.2995  1.3749
 7569SOL    MW430044   2.680   6.201   2.457 -0.0284  0.1598  0.0486
 7570SOL     OW30045   1.779   4.438   1.014 -0.0380 -0.0288 -0.3073
 7570SOL    HW230046   1.733   4.386   0.949  0.4612 -1.9707  0.8161
 7570SOL    HW330047   1.711   4.462   1.077 -0.0724 -0.2464 -0.2616
 7570SOL    MW430048   1.764   4.435   1.014  0.1222 -0.8204 -0.4962
 7571SOL     OW30049   4.125   0.588   2.539 -0.0048 -0.5588 -0.7942
 7571SOL    HW230050   4.132   0.640   2.619  0.1270 -0.0731 -1.1175
 7571SOL    HW330051   4.215   0.578   2.509  0.0252 -1.5114 -0.3960
 7571SOL    MW430052   4.138   0.594   2.546 -0.1341 -0.0087 -0.7215
 7572SOL     OW30053   6.338   1.176   1.934 -0.4391 -0.0983  0.4639
 7572SOL    HW230054   6.291   1.187   2.017 -0.2236 -1.4238  0.7738
 7572SOL    HW330055   6.337   1.082   1.917  0.2379  0.0684 -0.6244
 7572SOL    MW430056   6.332   1.165   1.943 -0.9126  0.2350 -0.5721
 7573SOL     OW30057   4.024   1.643   5.133 -0.2243 -0.0104  0.0809
 7573SOL    HW230058   3.991   1.699   5.203  1.4322  1.3479 -0.1647
 7573SOL    HW330059   3.978   1.674   5.055  0.8052  1.1739 -0.0840
 7573SOL    MW430060   4.014   1.654   5.132  0.4325  0.1126  0.0302
 7574SOL     OW30061   0.711   0.015   1.866 -0.0370 -0.1974  0.0924
 7574SOL    HW230062   0.657   0.055   1.935 -1.0526  1.2461 -1.4665
 7574SOL    HW330063   0.686  -0.077   1.868 -2.2182  0.3241 -0.1911
 7574SOL    MW430064   0.700   0.008   1.875  0.0297 -0.1830  0.0451
 7575SOL     OW30065   3.054   5.035   3.914 -0.5519  0.0473  0.0285
 7575SOL    HW230066   3.117   5.098   3.948 -1.6850  0.5404  1.2577
 7575SOL    HW330067   3.107   4.958   3.893  0.6232  0.8475 -0.0537
 7575SOL    MW430068   3.069   5.033   3.915 -0.3071 -0.2754 -0.7781
 7576SOL     OW30069   3.268   4.106   5.925 -0.7365 -0.3471 -0.8848
 7576SOL    HW230070   3.297   4.014   5.924 -1.4826 -0.5862 -1.3266
 7576SOL    HW330071   3.295   4.138   6.011 -0.4970 -0.9890 -0.7089
 7576SOL    MW430072   3.276   4.098   5.936 -0.2214 -0.2588 -0.2622
 7577SOL     OW30073   5.498   1.505   5.751 -0.6002  0.0601  0.0657
 7577SOL    HW230074   5.564   1.543   5.809  0.6656 -0.2235 -1.1378
 7577SOL    HW330075   5.548   1.477   5.674 -1.8685 -1.8100 -0.1107
 7577SOL    MW430076   5.514   1.507   5.749 -0.1934 -0.1942  0.0296
 7578SOL     OW30077   3.163   3.125   2.713 -0.2147  0.7307 -0.4538
 7578SOL    HW230078   3.221   3.050   2.707 -1.4903 -0.3568  0.3454
 7578SOL    HW330079   3.078   3.093   2.684 -1.2850  1.2371  1.8527
 7578SOL    MW430080   3.160   3.111   2.709 -0.1723 -0.6673 -0.0081
 7579SOL     OW30081   0.723   1.406   0.763  0.3993 -0.2783 -0.3181
 7579SOL    HW230082   0.678   1.472   0.711  0.6339 -1.0398 -1.5526
 7579SOL    HW330083   0.654   1.351   0.798  0.2887 -0.7023 -1.1705
 7579SOL    MW430084   0.708   1.407   0.761  0.0813 -0.4222  0.5511
 7580SOL     OW30085   1.059   0.958   1.228 -0.0070  0.4501  0.1403
 7580SOL    HW230086   1.100   1.002   1.154 -0.8818  1.0078 -0.0229
 7580SOL    HW330087   1.035   1.028   1.288  1.1141 -0.0298  1.1881
 7580SOL    MW430088   1.061   0.973   1.226  0.1963  0.3206 -0.0159
 7581SOL     OW30089   1.728   0.281   1.572 -0.3893 -0.2202  0.2517
 7581SOL    HW230090   1.638   0.315   1.572  0.1807  1.3982  0.1321
 7581SOL    HW330091   1.774   0.337   1.510  0.7078 -1.0543  0.2883
 7581SOL    MW430092   1.722   0.293   1.563 -0.5601 -0.1452  0.7761
 7582SOL     OW30093   5.391   4.604   0.018 -0.4284 -0.1849  0.2281
 7582SOL    HW230094   5.406   4.515  -0.013 -1.7185 -0.4335  0.2506
 7582SOL    HW330095   5.295   4.611   0.025 -0.3870  1.4250 -0.4582
 7582SOL    MW430096   5.380   4.593   0.015  0.2029 -0.0390  0.5560
 7583SOL     OW30097   1.886   4.043   3.419  0.0598  0.3248  0.6478
 7583SOL    HW230098   1.916   4.122   3.374  0.0901  0.6105  1.1556
 7583SOL    HW330099   1.806   4.018   3.373 -0.8560  1.5862  1.4513
 7583SOL    MW430100   1.879   4.050   3.407  0.2592  0.5969 -0.1265
 7584SOL     OW30101   2.367   0.165   5.046  0.1722 -0.0552  0.7817
 7584SOL    HW230102   2.388   0.243   5.096  0.9500  0.7339 -0.7219
 7584SOL    HW330103   2.384   0.092   5.106  2.6166  0.7831  1.1877
 7584SOL    MW430104   2.372   0.166   5.061  0.1317 -0.6220  0.4326
 7585SOL     OW30105   6.356   4.406   6.421  0.3939  0.5599  0.4736
 7585SOL    HW230106   6.349   4.366   6.507  1.4071 -0.4056  0.1405
 7585SOL    HW330107   6.342   4.499   6.436  0.0028  0.3303  1.5884
 7585SOL    MW430108   6.353   4.413   6.434  0.6371 -0.4411 -0.2118
 7586SOL     OW30109   5.793   5.575   5.966 -0.0057 -0.6452  0.0227
 7586SOL    HW230110   5.848   5.574   5.887  0.7652  1.7364  0.4673
 7586SOL    HW330111   5.739   5.496   5.958  0.6380 -0.9182 -2.4495
 7586SOL    MW430112   5.793   5.564   5.954  0.2397  0.0562 -0.3478
 7587SOL     OW30113   5.966   6.121   0.283  0.2129  0.0028 -0.5723
 7587SOL    HW230114   5.967   6.198   0.226  0.7641 -0.3295 -1.0236
 7587SOL    HW330115   5.882   6.078   0.264 -0.6303  1.0816  0.5152
 7587SOL    MW430116   5.955   6.126   0.273  0.0881  0.2539  0.3539
 7588SOL     OW30117   5.736   5.935   0.279  0.3839  0.4310 -0.0592
 7588SOL    HW230118   5.718   5.961   0.188  0.5784  0.4092 -0.1048
 7588SOL    HW330119   5.807   5.872   0.272 -0.9552 -1.1452 -0.0597
 7588SOL    MW430120   5.743   5.930   0.266  0.8428  0.1953  0.4249
 7589SOL     OW30121   2.164   0.648   3.723  0.3287 -0.3062  0.2533
 7589SOL    HW230122   2.130   0.566   3.758  0.0853 -0.4903 -0.3948
 7589SOL    HW330123   2.094   0.681   3.667  0.6783  0.0172  0.0006
 7589SOL    MW430124   2.150   0.642   3.720  0.3391 -0.8803 -0.5237
 7590SOL     OW30125   1.707   0.085   4.839 -0.0854 -0.0696 -0.2244
 7590SOL    HW230126   1.773   0.148   4.809 -1.7803  2.5546  1.2074
 7590SOL    HW330127   1.730   0.067   4.930 -1.0602  0.5253  0.1497
 7590SOL    MW430128   1.719   0.091   4.847  0.4569 -0.2958 -0.0420
 7591SOL     OW30129   0.166   2.665   3.790  0.1244 -0.3325  0.2906
 7591SOL    HW230130   0.241   2.721   3.808 -1.3791  1.5297  1.1249
 7591SOL    HW330131   0.152   2.675   3.696  0.1203  0.3998  0.3594
 7591SOL    MW430132   0.174   2.674   3.780  0.6641  0.5885 -0.5446
 7592SOL     OW30133   4.613   0.251   6.286  0.1185  0.1197  0.5112
 7592SOL    HW230134   4.676   0.301   6.234  0.4847 -0.3551  0.4917
 7592SOL    HW330135   4.630   0.160   6.262 -1.2257  0.0343 -0.2175
 7592SOL    MW430136   4.624   0.245   6.276 -0.4683  0.5547 -0.2908
 7593SOL     OW30137   4.770   1.618   2.962  0.2895 -0.3133 -0.0637
 7593SOL    HW230138   4.767   1.677   2.887  1.5957  1.2375  1.0353
 7593SOL    HW330139   4.766   1.530   2.924  0.9110  0.4250 -1.9372
 7593SOL    MW430140   4.769   1.614   2.947 -0.3096 -0.0650  0.2877
 7594SOL     OW30141   3.870   3.305   4.246  0.7588  0.4137 -0.2770
 7594SOL    HW230142   3.812   3.237   4.213  2.1750 -0.7564 -0.4584
 7594SOL    HW330143   3.884   3.283   4.338  0.0310  1.3537  0.0800
 7594SOL    MW430144   3.864   3.293   4.254  0.1466 -0.2521 -0.0506
 7595SOL     OW30145   6.091   5.413   0.742 -0.4651 -0.9170 -0.3712
 7595SOL    HW230146   6.014   5.433   0.688 -1.3905 -1.9559  0.5042
 7595SOL    HW330147   6.070   5.450   0.828  1.6634  2.1435 -1.0129
 7595SOL    MW430148   6.078   5.421   0.747  0.2648 -0.0124 -0.0820
 7596SOL     OW30149   2.319   1.875   5.833 -0.0482  0.4044 -0.2070
 7596SOL    HW230150   2.398   1.893   5.783  0.4867  1.0162  0.8301
 7596SOL    HW330151   2.269   1.957   5.829 -0.2874  0.2585 -0.2402
 7596SOL    MW430152   2.323   1.888   5.826  0.5231 -0.3709  0.2650
 7597SOL     OW30153   5.449   0.526   0.883 -0.3543  0.4727 -0.1020
 7597SOL    HW230154   5.456   0.593   0.815  0.1136  0.5338  0.0043
 7597SOL    HW330155   5.500   0.562   0.956  1.4502 -0.7976 -0.6704
 7597SOL    MW430156   5.457   0.540   0.884 -0.1058  0.2884 -0.0545
 7598SOL     OW30157   5.467   3.181   1.998 -0.5869  0.6295 -0.1341
 7598SOL    HW230158   5.485   3.197   1.906 -1.1485  0.8845 -0.2033
 7598SOL    HW330159   5.436   3.265   2.032 -2.8090 -0.0458 -0.3173
 7598SOL    MW430160   5.466   3.194   1.991  0.4930 -0.0111  0.2853
 7599SOL     OW30161   1.449   0.170   1.843 -0.1598 -0.2463  0.1057
 7599SOL    HW230162   1.527   0.225   1.835 -0.5872  0.1893 -1.3286
 7599SOL    HW330163   1.430   0.142   1.754 -2.3580  0.6401  0.2472
 7599SOL    MW430164   1.457   0.173   1.830 -0.5166 -0.7573 -0.0922
 7600SOL     OW30165   1.486   4.112   5.784 -0.2125 -0.6984 -0.2744
 7600SOL    HW230166   1.497   4.206   5.795  1.2635 -0.6106 -2.0046
 7600SOL    HW330167   1.518   4.075   5.867 -0.2080  0.2837  0.1826
 7600SOL    MW430168   1.492   4.120   5.797  0.2149  0.3801 -0.0267
 7601SOL     OW30169   4.073   4.627   0.796 -0.0632 -0.1575  0.0226
 7601SOL    HW230170   4.048   4.638   0.888  0.4848 -1.0579  0.2841
 7601SOL    HW330171   4.046   4.709   0.754  0.2243  0.5094  1.1088
 7601SOL    MW430172   4.066   4.640   0.803  0.4794 -0.4223 -0.1203
 7602SOL     OW30173   1.274   5.099   4.872  0.2651  0.5036  0.0680
 7602SOL    HW230174   1.329   5.051   4.935  1.5134 -0.4512 -1.6592
 7602SOL    HW330175   1.241   5.174   4.921  1.8311  0.2337  1.6386
 7602SOL    MW430176   1.277   5.102   4.887 -0.0099 -0.1376  0.2724
 7603SOL     OW30177   2.960   6.304   5.513  0.1823 -0.0598 -0.1749
 7603SOL    HW230178   2.872   6.341   5.520  0.2793  0.6381 -2.1427
 7603SOL    HW330179   3.012   6.355   5.575 -0.8290 -0.7001  1.2584
 7603SOL    MW430180   2.955   6.316   5.522  0.5074 -0.3232  0.2738
 7604SOL     OW30181   2.023   0.096   5.627  0.2950 -0.4548  0.3664
 7604SOL    HW230182   2.060   0.037   5.693 -1.8612 -0.1411  1.9762
 7604SOL    HW330183   1.960   0.042   5.580  0.5392 -0.2117 -0.2464
 7604SOL    MW430184   2.019   0.081   5.630 -0.4963 -0.2390  0.7413
 7605SOL     OW30185   0.787   0.709   2.890  0.4343 -0.0817 -0.2174
 7605SOL    HW230186   0.710   0.653   2.885  0.0803  0.4388 -0.6360
 7605SOL    HW330187   0.842   0.681   2.816 -0.0959  0.6331 -0.8994
 7605SOL    MW430188   0.784   0.698   2.879  0.1309  0.2018 -0.9246
 7606SOL     OW30189   3.328   3.651   5.443 -0.7088 -0.9297  0.3430
 7606SOL    HW230190   3.290   3.700   5.369  1.3371  2.2298  1.1608
 7606SOL    HW330191   3.376   3.579   5.402  0.8081  1.0441 -1.5776
 7606SOL    MW430192   3.329   3.648   5.428 -0.3337  0.8951 -0.1423
 7607SOL     OW30193   5.491   0.226   5.072 -0.5765  0.0220  0.3156
 7607SOL    HW230194   5.585   0.221   5.056 -0.3992 -3.8435  1.6702
 7607SOL    HW330195   5.477   0.312   5.112  1.8771  1.7680 -2.2449
 7607SOL    MW430196   5.501   0.236   5.075 -0.3357 -0.1160 -0.0110
 7608SOL     OW30197   4.605   3.925   5.086 -0.4322  0.2864  0.3767
 7608SOL    HW230198   4.646   3.934   5.000  0.9058  0.0712  0.9650
 7608SOL    HW330199   4.648   3.848   5.125 -0.5785  0.7449  1.4715
 7608SOL    MW430200   4.616   3.916   5.079 -0.4612  0.2153 -0.0945
 7609SOL     OW30201   6.096   3.945   3.474  0.3377  0.6679  0.2926
 7609SOL    HW230202   6.088   4.034   3.508 -2.9477  0.1548  1.2716
 7609SOL    HW330203   6.046   3.946   3.392  0.7569 -0.1206  0.0189
 7609SOL    MW430204   6.088   3.957   3.467  0.0741  0.3898 -0.4039
 7610SOL     OW30205   2.594   1.608   3.883  0.6384 -0.1585 -0.1698
 7610SOL    HW230206   2.508   1.576   3.855  0.5552  0.9690 -1.2942
 7610SOL    HW330207   2.650   1.530   3.880 -0.5892 -1.2220  1.9013
 7610SOL    MW430208   2.590   1.593   3.879 -0.0178  0.4460 -0.4279
 7611SOL     OW30209   0.367   1.159   4.224 -0.2943 -0.2849  0.0454
 7611SOL    HW230210   0.384   1.067   4.202 -0.6780 -0.5082  0.6533
 7611SOL    HW330211   0.452   1.192   4.253 -0.5535 -1.0426  1.8278
 7611SOL    MW430212   0.381   1.151   4.225  0.6626 -0.4084 -0.0433
 7612SOL     OW30213   5.957   4.482   6.151 -0.1886  0.0878  0.1455
 7612SOL    HW230214   5.894   4.435   6.096 -0.1833 -0.0296  0.2396
 7612SOL    HW330215   5.905   4.518   6.223  0.0557 -1.2043  1.0009
 7612SOL    MW430216   5.942   4.480   6.153 -0.0897 -0.3745  0.5364
 7613SOL     OW30217   1.205   0.351   1.461 -0.4306  0.5823 -0.2998
 7613SOL    HW230218   1.199   0.276   1.402  0.0300 -1.2666  1.8418
 7613SOL    HW330219   1.193   0.314   1.549 -0.8216  3.1311  0.8296
 7613SOL    MW430220   1.202   0.336   1.465  0.2373 -0.3014  0.5330
 7614SOL     OW30221   5.294   4.128   5.654  0.1069 -0.4738 -0.1535
 7614SOL    HW230222   5.327   4.214   5.682 -0.5717 -0.1472 -0.3461
 7614SOL    HW330223   5.331   4.117   5.566 -1.4946  0.5825 -1.0055
 7614SOL    MW430224   5.304   4.138   5.646  0.4523  0.2442  0.4227
 7615SOL     OW30225   6.175   6.094   3.496  0.2096  0.4626 -0.2245
 7615SOL    HW230226   6.127   6.177   3.503  0.2658  0.4024  1.3206
 7615SOL    HW330227   6.148   6.044   3.573 -0.2774 -1.2276 -1.4486
 7615SOL    MW430228   6.165   6.099   3.507 -1.2431 -0.4986 -0.4183
 7616SOL     OW30229   4.377   4.106   3.932 -0.4477  0.0225 -0.0530
 7616SOL    HW230230   4.386   4.095   3.837  1.0580 -0.2304  0.1023
 7616SOL    HW330231   4.464   4.087   3.967 -1.2359 -1.0105  1.4871
 7616SOL    MW430232   4.389   4.102   3.924  0.4234  0.5998  0.2369
 7617SOL     OW30233   3.917   5.657   6.163  0.0723 -0.0816  0.0249
 7617SOL    HW230234   3.891   5.676   6.254 -1.2340  0.4139 -0.4256
 7617SOL    HW330235   3.998   5.607   6.171  0.2743  0.4279  1.4541
 7617SOL    MW430236   3.924   5.653   6.176 -0.8104  0.3341 -0.0076
 7618SOL     OW30237   4.369   5.669   0.968 -0.0952 -0.0961 -0.5634
 7618SOL    HW230238   4.464   5.677   0.953 -0.1121  1.3081 -0.0651
 7618SOL    HW330239   4.353   5.721   1.046 -0.9804 -2.0592  0.6394
 7618SOL    MW430240   4.380   5.677   0.976  0.8564  0.1613  0.0000
 7619SOL     OW30241   3.415   2.580   4.323  0.2540 -0.2213 -0.7750
 7619SOL    HW230242   3.338   2.526   4.301 -0.4617  0.2369  0.4852
 7619SOL    HW330243   3.473   2.570   4.248 -0.0601 -2.3670 -0.8088
 7619SOL    MW430244   3.412   2.571   4.310  0.0859 -0.0582  0.2162
 7620SOL     OW30245   4.649   2.391   5.997  0.2028 -0.0369 -0.0560
 7620SOL    HW230246   4.642   2.323   5.930  0.5526  0.1156 -0.2483
 7620SOL    HW330247   4.742   2.414   5.998  0.0408  0.6466 -0.2008
 7620SOL    MW430248   4.661   2.385   5.988 -0.6956 -0.5500  0.0503
 7621SOL     OW30249   1.114   3.474   5.482  0.1830  0.3985 -0.2796
 7621SOL    HW230250   1.159   3.471   5.566  0.8575  0.6559 -0.6202
 7621SOL    HW330251   1.045   3.539   5.493 -1.1567 -1.1339  0.7415
 7621SOL    MW430252   1.111   3.482   5.494 -0.0064  0.1711 -0.1033
 7622SOL     OW30253   5.922   3.174   1.436  0.5510  0.1920  0.0528
 7622SOL    HW230254   5.969   3.165   1.353 -0.1184 -0.5097 -0.2582
 7622SOL    HW330255   5.894   3.266   1.438 -0.6867 -0.1180 -1.2052
 7622SOL    MW430256   5.925   3.185   1.426  0.1770  0.3495 -0.3074
 7623SOL     OW30257   5.572   5.849   0.590 -0.0389  0.4915 -0.1488
 7623SOL    HW230258   5.602   5.928   0.544  0.2648  0.3422 -0.2089
 7623SOL    HW330259   5.481   5.838   0.561  0.1980  0.3120 -0.8475
 7623SOL    MW430260   5.564   5.858   0.580 -0.6848  0.2948  0.7978
 7624SOL     OW30261   5.334   3.108   0.310 -0.3283 -0.2245  1.2269
 7624SOL    HW230262   5.373   3.049   0.375  0.4416  0.3018  1.2618
 7624SOL    HW330263   5.278   3.167   0.362  1.5609  1.2705  1.6955
 7624SOL    MW430264   5.332   3.108   0.326 -0.4895  0.0659  0.3838
 7625SOL     OW30265   1.971   5.583   2.305  0.3173 -0.1976 -0.2691
 7625SOL    HW230266   2.046   5.525   2.314 -0.7962 -1.6444 -0.0155
 7625SOL    HW330267   1.932   5.559   2.221 -0.1312  0.2272 -0.1857
 7625SOL    MW430268   1.976   5.572   2.295  0.0427 -0.0118  0.5915
 7626SOL     OW30269   0.935   1.721   6.045  0.3651  0.0389 -0.3955
 7626SOL    HW230270   1.017   1.674   6.028  1.5805  2.1106 -0.5922
 7626SOL    HW330271   0.908   1.753   5.959  1.4786  2.5914  0.1095
 7626SOL    MW430272   0.942   1.719   6.032  0.3703 -0.1342  0.1242
 7627SOL     OW30273   4.089   0.460   6.104 -0.2883 -0.5065  0.0540
 7627SOL    HW230274   4.136   0.497   6.030  1.0279 -0.3548  0.9316
 7627SOL    HW330275   4.144   0.387   6.133  0.0692  0.4205  1.8569
 7627SOL    MW430276   4.103   0.455   6.098 -0.1256 -0.0765 -0.1073
 7628SOL     OW30277   2.454   0.041   1.979 -0.4846 -0.1769 -0.2902
 7628SOL    HW230278   2.447   0.075   2.069  0.1437  0.5597 -0.5025
 7628SOL    HW330279   2.366   0.052   1.943 -1.4473 -2.8115  0.9885
 7628SOL    MW430280   2.441   0.047   1.986 -0.0606  0.1799  0.5181
 7629SOL     OW30281   3.538   5.161   2.131  0.1395 -0.0291 -0.1389
 7629SOL    HW230282   3.589   5.221   2.185  0.1093 -0.3877  0.2968
 7629SOL    HW330283   3.593   5.083   2.123  0.2124  0.0784 -0.7682
 7629SOL    MW430284   3.552   5.159   2.137  0.4398 -0.4373  1.0041
 7630SOL     OW30285   1.235   1.310   3.096  0.4422 -0.1676  0.6998
 7630SOL    HW230286   1.153   1.318   3.048  0.1024  2.2149  1.4901
 7630SOL    HW330287   1.233   1.385   3.157  2.1129 -1.4258  2.4107
 7630SOL    MW430288   1.224   1.321   3.098  0.2082  0.6139 -0.0741
 7631SOL     OW30289   3.422   3.252   4.201 -0.2761 -0.2159 -0.2982
 7631SOL    HW230290   3.329   3.234   4.213 -0.1471 -0.3099  0.5880
 7631SOL    HW330291   3.432   3.265   4.106 -1.0125 -1.1975 -0.5246
 7631SOL    MW430292   3.411   3.251   4.190 -0.4302  0.5409 -0.0116
 7632SOL     OW30293   5.317   5.376   5.026  0.2252 -0.1490  0.3686
 7632SOL    HW230294   5.262   5.329   5.088  1.3898  0.6918  2.1379
 7632SOL    HW330295   5.388   5.315   5.005 -1.6896 -1.5791 -2.6220
 7632SOL    MW430296   5.319   5.362   5.031  0.7892 -0.4193 -0.4646
 7633SOL     OW30297   3.035   3.013   1.729 -0.0893 -0.3163 -0.0665
 7633SOL    HW230298   3.064   3.103   1.745 -1.0101 -0.2738  1.5283
 7633SOL    HW330299   3.008   3.013   1.637  0.4483  0.8757 -0.2456
 7633SOL    MW430300   3.035   3.025   1.719 -0.2131 -0.4974 -0.0501
 7634SOL     OW30301   2.699   6.087   0.723  0.1589  0.1652  0.2669
 7634SOL    HW230302   2.722   6.127   0.639  1.4198  0.3436  0.6804
 7634SOL    HW330303   2.767   6.022   0.738 -1.0724 -1.1828  0.2965
 7634SOL    MW430304   2.711   6.084   0.714  0.3696  0.1353 -0.1348
 7635SOL     OW30305   2.960   6.159   5.119 -0.4045 -0.1059 -0.0148
 7635SOL    HW230306   3.006   6.114   5.048 -1.5179  0.2575 -1.0094
 7635SOL    HW330307   3.007   6.242   5.128 -0.5022  0.0217 -0.6192
 7635SOL    MW430308   2.973   6.164   5.111  0.4930  0.1541  0.6374
 7636SOL     OW30309   5.811   5.264   4.346 -0.0841 -0.2162 -0.0966
 7636SOL    HW230310   5.895   5.250   4.390  0.2568 -3.2718 -1.4205
 7636SOL    HW330311   5.745   5.252   4.415  0.4767  2.8395  1.0886
 7636SOL    MW430312   5.813   5.260   4.361  0.2214  0.1813  0.5181
 7637SOL     OW30313   5.953   4.001   1.227 -0.3600 -0.2215 -0.0687
 7637SOL    HW230314   5.899   4.075   1.199 -2.7389 -2.1455 -0.8386
 7637SOL    HW330315   5.950   4.006   1.323 -0.8959  0.4062 -0.1032
 7637SOL    MW430316   5.945   4.012   1.236 -0.1789  0.1399  0.0061
 7638SOL     OW30317   2.327   4.762   1.852  0.1118 -0.2804  0.5707
 7638SOL    HW230318   2.280   4.784   1.771 -0.1772  0.2972  0.8797
 7638SOL    HW330319   2.261   4.772   1.920  0.7294  0.8092  1.0476
 7638SOL    MW430320   2.312   4.766   1.850  0.0034  0.3737 -0.3360
 7639SOL     OW30321   1.223   1.740   1.505  0.5800  0.0199 -0.5692
 7639SOL    HW230322   1.255   1.831   1.504  1.2112 -0.2034 -1.9727
 7639SOL    HW330323   1.128   1.748   1.498  0.2858  0.6459  2.4126
 7639SOL    MW430324   1.215   1.753   1.504 -0.3898 -0.0215  0.9145
 7640SOL     OW30325   2.199   4.589   2.861 -0.1398 -0.1372 -0.0229
 7640SOL    HW230326   2.276   4.631   2.823  0.0711 -0.0945  0.4550
 7640SOL    HW330327   2.125   4.637   2.823  0.0158 -0.8881 -1.3515
 7640SOL    MW430328   2.199   4.600   2.851 -0.1443 -0.0193  0.8018
 7641SOL     OW30329   0.588   2.667   1.954  0.4254 -0.2094 -0.1238
 7641SOL    HW230330   0.554   2.648   1.867  0.3858 -2.7549  0.3837
 7641SOL    HW330331   0.683   2.673   1.942  0.3819 -0.0307 -0.4029
 7641SOL    MW430332   0.596   2.665   1.941 -0.6315 -0.0764 -0.9001
 7642SOL     OW30333   3.610   5.487   0.861 -0.1480  0.1869 -0.1582
 7642SOL    HW230334   3.541   5.548   0.835 -1.2744 -0.0338  2.0978
 7642SOL    HW330335   3.689   5.540   0.866 -0.6885  1.0152 -0.2740
 7642SOL    MW430336   3.611   5.502   0.858  0.1350 -0.3904  0.6214
 7643SOL     OW30337   5.674   3.957   5.008  0.4975 -0.1149 -0.0792
 7643SOL    HW230338   5.673   4.044   5.047  0.7132  1.1009 -2.6127
 7643SOL    HW330339   5.668   3.897   5.083  0.6690  2.0369  1.7525
 7643SOL    MW430340   5.673   3.960   5.023  0.2366  0.2818  0.1094
 7644SOL     OW30341   2.407   2.267   3.218  0.4115  0.4259  0.2940
 7644SOL    HW230342   2.477   2.205   3.236  2.7280  1.9760 -2.5580
 7644SOL    HW330343   2.342   2.216   3.169  1.0103 -0.3316  0.2701
 7644SOL    MW430344   2.407   2.252   3.214 -0.1764  0.2493 -0.5932
 7645SOL     OW30345   2.867   3.627   3.160  0.4574 -0.3188 -0.4292
 7645SOL    HW230346   2.847   3.677   3.081  2.1477  2.9704  1.0261
 7645SOL    HW330347   2.938   3.569   3.135  0.1404 -0.2209 -1.6068
 7645SOL    MW430348   2.874   3.626   3.146 -0.0205  0.1514  0.2204
 7646SOL     OW30349   0.449   6.392   3.054 -0.0041 -0.6239 -0.0180
 7646SOL    HW230350   0.420   6.316   3.105  0.5437 -1.9546 -1.6035
 7646SOL    HW330351   0.369   6.423   3.010 -0.0787 -0.7701  0.0129
 7646SOL    MW430352   0.434   6.386   3.055 -0.7305 -0.1327  0.4297
 7647SOL     OW30353   1.730   5.553   5.437 -0.7474 -0.5508 -0.4955
 7647SOL    HW230354   1.648   5.559   5.485 -1.1488  0.1278 -1.2393
 7647SOL    HW330355   1.725   5.469   5.391 -1.7927  0.2401 -1.8781
 7647SOL    MW430356   1.719   5.543   5.437 -0.0501  0.1506  0.6307
 7648SOL     OW30357   4.750   1.021   1.015  0.4829  0.1027 -0.4932
 7648SOL    HW230358   4.718   0.971   1.090  2.0727 -0.9198 -0.4633
 7648SOL    HW330359   4.844   1.031   1.030  0.7577  0.2744 -2.1273
 7648SOL    MW430360   4.758   1.016   1.027  0.6739  0.5810  0.3387
 7649SOL     OW30361   3.197   0.568   5.640  0.4381  0.0634 -0.0496
 7649SOL    HW230362   3.236   0.490   5.678 -1.1348 -0.6739  0.1175
 7649SOL    HW330363   3.224   0.567   5.549 -0.2124 -1.1280 -0.2471
 7649SOL    MW430364   3.206   0.558   5.633 -0.1756 -0.2542  0.1345
 7650SOL     OW30365   5.600   0.521   0.092  0.1055  0.3875 -0.0906
 7650SOL    HW230366   5.529   0.578   0.060 -0.9738 -0.6581  0.3677
 7650SOL    HW330367   5.562   0.477   0.168  1.3354 -0.0393  0.2897
 7650SOL    MW430368   5.585   0.523   0.098 -0.0164 -0.2557  0.2335
 7651SOL     OW30369   4.144   3.273   2.667 -0.2093 -0.5558  0.1405
 7651SOL    HW230370   4.079   3.229   2.613  0.1002 -0.7332 -0.0886
 7651SOL    HW330371   4.189   3.201   2.712  1.5440 -0.6281 -1.6200
 7651SOL    MW430372   4.141   3.258   2.666 -0.2693 -0.1660 -0.4812
 7652SOL     OW30373   4.307   4.290   4.805  0.0789  0.3114 -0.4944
 7652SOL    HW230374   4.399   4.282   4.830  0.7128  1.0891 -2.3742
 7652SOL    HW330375   4.264   4.326   4.882  1.3554 -0.0527  0.4167
 7652SOL    MW430376   4.313   4.294   4.818 -0.4027 -0.0824 -0.1751
 7653SOL     OW30377   0.860   4.976   2.578  0.1218 -0.5819 -0.5279
 7653SOL    HW230378   0.927   5.003   2.640  1.0816  1.6803 -2.3778
 7653SOL    HW330379   0.900   4.988   2.492 -1.7769 -1.7263 -1.6501
 7653SOL    MW430380   0.874   4.981   2.575  0.0640  0.6691  0.0670
 7654SOL     OW30381   2.100   4.240   5.278 -0.2493  0.0035 -0.4210
 7654SOL    HW230382   2.063   4.171   5.223  0.5848 -1.1377  0.3789
 7654SOL    HW330383   2.028   4.301   5.292 -1.7755 -1.9053  0.7493
 7654SOL    MW430384   2.086   4.239   5.273  0.9572  0.3830  0.2455
 7655SOL     OW30385   3.789   6.016   0.079  0.5101  0.5694 -0.6599
 7655SOL    HW230386   3.782   6.079   0.150  0.6166  2.0541 -1.9290
 7655SOL    HW330387   3.821   5.936   0.121  0.8000  1.4780  0.9079
 7655SOL    MW430388   3.792   6.014   0.094  0.0774  0.0856  0.1275
 7656SOL     OW30389   1.036   2.035   1.968 -0.0801  0.0384 -0.9803
 7656SOL    HW230390   1.068   1.949   1.939  0.7092  0.4852 -1.4534
 7656SOL    HW330391   0.970   2.014   2.035  0.1191 -0.9344 -1.0669
 7656SOL    MW430392   1.031   2.021   1.973 -0.4194  0.5376  0.1238
 7657SOL     OW30393   3.037   4.766   1.932  0.3700 -0.5448 -0.7080
 7657SOL    HW230394   2.963   4.811   1.892 -0.3215 -2.6710 -1.9643
 7657SOL    HW330395   2.999   4.713   2.002  1.1076  0.4236  0.4633
 7657SOL    MW430396   3.022   4.765   1.936  0.5720 -0.4941 -0.4156
 7658SOL     OW30397   4.824   0.908   2.990  0.5272  0.4263  0.5745
 7658SOL    HW230398   4.747   0.870   3.032  0.9105  1.1519  1.9874
 7658SOL    HW330399   4.897   0.885   3.047  0.8811  2.6018  1.1041
 7658SOL    MW430400   4.824   0.900   3.003 -0.0326  0.3855 -0.0323
 7659SOL     OW30401   0.176   0.238   4.357 -0.2061 -0.0056 -0.0984
 7659SOL    HW230402   0.104   0.178   4.337 -1.4165  1.5640 -0.7317
 7659SOL    HW330403   0.253   0.198   4.318 -0.9978 -1.0918 -0.5883
 7659SOL    MW430404   0.177   0.225   4.349  0.1898 -0.2648 -0.3551
 7660SOL     OW30405   1.440   3.320   2.089 -0.4262 -0.4426 -0.1813
 7660SOL    HW230406   1.393   3.238   2.077  1.5553 -1.9090  1.3933
 7660SOL    HW330407   1.469   3.345   2.002 -1.4057 -1.1835 -0.7366
 7660SOL    MW430408   1.437   3.313   2.076  0.0540  0.2492 -0.4960
 7661SOL     OW30409   6.422   5.635   4.759  0.3284 -0.3510  0.5301
 7661SOL    HW230410   6.511   5.658   4.729  1.5399 -3.0065  1.7611
 7661SOL    HW330411   6.372   5.624   4.678  1.6163 -0.5992 -0.2601
 7661SOL    MW430412   6.428   5.637   4.744 -0.0255  0.4785  0.5528
 7662SOL     OW30413   6.105   1.817   2.314  0.9739 -0.2900  0.6316
 7662SOL    HW230414   6.152   1.862   2.383  0.9865 -0.8982  1.0301
 7662SOL    HW330415   6.157   1.738   2.297 -0.0612 -1.1403  1.3112
 7662SOL    MW430416   6.118   1.812   2.321  0.3639  0.2548  0.1137
 7663SOL     OW30417   2.798   4.973   5.572  0.3785  0.1991 -0.2717
 7663SOL    HW230418   2.737   5.000   5.503 -0.1648 -0.0819  0.0895
 7663SOL    HW330419   2.880   5.017   5.551  0.8965 -1.6045 -2.3460
 7663SOL    MW430420   2.800   4.982   5.560 -0.1863 -0.4015 -1.2229
 7664SOL     OW30421   3.054   3.423   3.994 -0.1206  0.4336  0.4152
 7664SOL    HW230422   2.999   3.366   3.941  0.1720 -0.4064  0.9988
 7664SOL    HW330423   3.134   3.434   3.944 -0.2640  0.5174  0.2025
 7664SOL    MW430424   3.057   3.417   3.981 -0.1461  0.3433 -0.2108
 7665SOL     OW30425   0.342   1.053   0.519 -0.6179  0.0998  0.1620
 7665SOL    HW230426   0.380   1.064   0.432 -1.0775 -0.4756 -0.1211
 7665SOL    HW330427   0.278   1.123   0.526 -0.3289  0.3616  0.1755
 7665SOL    MW430428   0.339   1.063   0.509 -0.1643 -0.2348 -0.2338
 7666SOL     OW30429   4.582   5.192   0.597 -0.1426 -0.2703  0.4234
 7666SOL    HW230430   4.659   5.139   0.579  0.1893  0.6745 -1.1056
 7666SOL    HW330431   4.608   5.281   0.573 -2.1687 -0.1479 -1.6288
 7666SOL    MW430432   4.596   5.197   0.592  0.4510 -0.6189  0.0886
 7667SOL     OW30433   1.310   4.500   2.636 -0.2834 -0.2150  0.2484
 7667SOL    HW230434   1.287   4.590   2.658  0.1270 -0.2613  0.9052
 7667SOL    HW330435   1.331   4.503   2.543 -1.5522  0.0962 -0.0372
 7667SOL    MW430436   1.310   4.513   2.627 -0.3005  0.3739  0.2668
 7668SOL     OW30437   5.606   1.756   6.309  0.4417  0.6032  0.2015
 7668SOL    HW230438   5.511   1.743   6.306  0.6959 -1.4286 -0.2707
 7668SOL    HW330439   5.620   1.814   6.384 -1.2031  1.5457 -0.1713
 7668SOL    MW430440   5.596   1.762   6.319  0.7198  0.3210  0.8101
 7669SOL     OW30441   3.028   4.373   2.921  0.2679 -0.2393  0.2268
 7669SOL    HW230442   3.095   4.424   2.966  2.4130 -2.2915 -0.4224
 7669SOL    HW330443   3.060   4.365   2.831 -0.2293 -2.2097  0.1657
 7669SOL    MW430444   3.041   4.378   2.915 -0.3416 -0.4457 -0.4346
 7670SOL     OW30445   4.554   0.575   3.991 -0.1680  0.3348 -0.4224
 7670SOL    HW230446   4.582   0.484   3.977 -1.1050 -0.0324 -0.0037
 7670SOL    HW330447   4.603   0.603   4.068  0.1853  0.2195 -0.5991
 7670SOL    MW430448   4.564   0.566   3.999  0.1305 -0.2034  0.0148
 7671SOL     OW30449   4.039   2.306   3.464  0.3619  0.3030  0.3926
 7671SOL    HW230450   4.115   2.287   3.408  1.5317  1.5981  1.4650
 7671SOL    HW330451   4.076   2.320   3.551 -1.3242 -0.7568  1.3357
 7671SOL    MW430452   4.054   2.306   3.468 -0.1738  0.4145 -0.1236
 7672SOL     OW30453   2.730   4.479   3.105 -0.0189  0.1211  0.3410
 7672SOL    HW230454   2.779   4.446   3.181  0.1328  0.9549  0.6100
 7672SOL    HW330455   2.742   4.574   3.107 -1.0631  0.2767  0.0033
 7672SOL    MW430456   2.738   4.487   3.115 -0.8501  0.7371  0.1279
 7673SOL     OW30457   1.269   0.432   6.080 -0.0699 -0.1498  0.4487
 7673SOL    HW230458   1.240   0.455   6.168  0.7424 -0.7845  0.8997
 7673SOL    HW330459   1.350   0.481   6.068  0.1818 -0.5900  0.3238
 7673SOL    MW430460   1.276   0.442   6.090 -0.2413  0.2031  0.1037
 7674SOL     OW30461   6.289   0.567   2.350 -0.1216  0.5776 -0.4205
 7674SOL    HW230462   6.247   0.543   2.433  1.2291  2.9442  1.0707
 7674SOL    HW330463   6.363   0.506   2.343 -1.2972 -0.8639 -0.9211
 7674SOL    MW430464   6.293   0.555   2.360  0.4491  0.2203 -0.0234
 7675SOL     OW30465   4.683   2.554   4.784  0.0518 -0.0014 -0.1808
 7675SOL    HW230466   4.701   2.638   4.742  0.8598 -0.7447 -1.3574
 7675SOL    HW330467   4.623   2.576   4.856 -0.5158  1.4431 -1.0498
 7675SOL    MW430468   4.677   2.568   4.788 -0.1945  0.5209 -0.0175
 7676SOL     OW30469   1.577   3.936   6.311 -0.3256 -0.5708  0.6159
 7676SOL    HW230470   1.664   3.966   6.337 -0.2609  0.3272 -0.5544
 7676SOL    HW330471   1.590   3.845   6.283 -0.1494 -1.0928  2.2849
 7676SOL    MW430472   1.590   3.928   6.311 -0.2902 -0.3949  0.3676
 7677SOL     OW30473   4.549   6.130   5.699 -0.3475 -0.7687  0.1008
 7677SOL    HW230474   4.603   6.106   5.774 -0.9806 -0.7089  0.5858
 7677SOL    HW330475   4.504   6.210   5.727 -1.6352 -1.5054  0.1990
 7677SOL    MW430476   4.550   6.137   5.713 -0.4302  0.1081 -0.4432
 7678SOL     OW30477   0.125   0.430   2.337 -0.3057  0.1485 -0.1117
 7678SOL    HW230478   0.161   0.488   2.403  0.1727  0.9180 -1.0207
 7678SOL    HW330479   0.182   0.353   2.338  0.2614  0.5670 -0.2796
 7678SOL    MW430480   0.137   0.427   2.346 -0.3704 -0.5660  0.1028
 7679SOL     OW30481   6.033   3.918   4.537  0.4478 -0.0791 -0.7392
 7679SOL    HW230482   6.033   4.011   4.518 -2.1605 -0.0360 -0.7674
 7679SOL    HW330483   6.023   3.912   4.632 -2.4078 -0.2455 -0.9686
 7679SOL    MW430484   6.032   3.929   4.547 -0.3186  0.2706 -0.3997
 7680SOL     OW30485   0.824   4.052   0.040  0.5019  0.2439  0.1398
 7680SOL    HW230486   0.818   4.077  -0.052 -1.0018 -1.2208 -0.2082
 7680SOL    HW330487   0.863   3.965   0.039 -0.7786 -0.3657  0.7539
 7680SOL    MW430488   0.828   4.044   0.028  0.0156 -0.1674 -0.8369
 7681SOL     OW30489   0.285   3.482   6.173 -0.3112 -0.2170  0.2919
 7681SOL    HW230490   0.368   3.470   6.220  0.6136  0.5187 -1.0895
 7681SOL    HW330491   0.266   3.576   6.183 -0.1852 -0.0868 -0.6518
 7681SOL    MW430492   0.294   3.493   6.181 -0.0923 -0.2462  0.4064
 7682SOL     OW30493   4.962   3.904   4.958  0.0800 -0.0556  0.4894
 7682SOL    HW230494   4.999   3.869   4.876  0.2159 -2.8341  1.6114
 7682SOL    HW330495   4.879   3.943   4.932 -0.1027 -1.2887 -0.9463
 7682SOL    MW430496   4.956   3.904   4.943  0.2331  0.3340  0.5726
 7683SOL     OW30497   4.942   1.066   5.395 -0.0713 -0.0526 -0.2522
 7683SOL    HW230498   5.028   1.037   5.364  0.9867  1.1081  1.3695
 7683SOL    HW330499   4.896   1.094   5.316  1.4222  0.2058 -1.0758
 7683SOL    MW430500   4.948   1.066   5.381  0.4934 -0.2648 -0.3590
 7684SOL     OW30501   1.059   5.913   5.903 -0.1227 -0.3137  0.1155
 7684SOL    HW230502   1.034   5.942   5.815 -0.2601  0.8109  0.5000
 7684SOL    HW330503   1.131   5.852   5.889  0.5083  0.5996 -0.7333
 7684SOL    MW430504   1.065   5.909   5.890 -0.2770 -0.0079  0.3720
 7685SOL     OW30505   0.735   3.076   2.960 -0.3479 -0.3887  0.3718
 7685SOL    HW230506   0.819   3.051   2.999 -0.2802  2.5369  2.3993
 7685SOL    HW330507   0.680   3.100   3.034 -2.2985 -0.1777 -1.0576
 7685SOL    MW430508   0.739   3.076   2.975  0.0812 -0.4108  0.1350
 7686SOL     OW30509   3.251   0.051   3.024 -0.2364 -0.1386 -0.6773
 7686SOL    HW230510   3.325   0.012   2.976  0.0116  0.5599 -0.8725
 7686SOL    HW330511   3.226   0.127   2.972 -1.0178 -0.2941 -0.5412
 7686SOL    MW430512   3.258   0.056   3.011 -0.0828 -0.0154  0.6634
 7687SOL     OW30513   3.864   1.534   1.725 -0.0833  0.2355 -0.0221
 7687SOL    HW230514   3.895   1.444   1.728 -2.4846 -0.6825 -0.6546
 7687SOL    HW330515   3.868   1.564   1.816  0.8230 -0.4590  0.1811
 7687SOL    MW430516   3.869   1.526   1.738  0.0354 -0.3112  0.0784
 7688SOL     OW30517   6.375   5.929   4.438 -0.2389 -0.0795  0.2267
 7688SOL    HW230518   6.391   5.843   4.477  3.2923  0.7838  1.0211
 7688SOL    HW330519   6.318   5.974   4.501 -2.6873 -1.9435 -0.5142
 7688SOL    MW430520   6.370   5.924   4.452 -0.1035  1.0573  0.3223
 7689SOL     OW30521   4.558   4.661   5.290 -0.1185  0.1479 -0.0740
 7689SOL    HW230522   4.506   4.581   5.284 -0.8228  0.5675  0.4084
 7689SOL    HW330523   4.496   4.729   5.316  0.2545  1.0723 -1.4481
 7689SOL    MW430524   4.543   4.660   5.293  0.0501 -0.1399  0.1174
 7690SOL     OW30525   4.269   4.635   1.377 -0.0034 -0.7699 -0.9912
 7690SOL    HW230526   4.178   4.614   1.395  0.0297 -0.3896 -0.3653
 7690SOL    HW330527   4.311   4.639   1.463 -0.0656  2.0298 -1.0110
 7690SOL    MW430528   4.263   4.633   1.391  0.3960  0.5533  0.1370
 7691SOL     OW30529   4.009   2.074   5.070 -0.1607 -0.2076  0.3167
 7691SOL    HW230530   4.004   2.084   5.165 -0.0996  1.5775  0.1787
 7691SOL    HW330531   3.930   2.118   5.037 -0.1649 -0.7764 -0.4711
 7691SOL    MW430532   3.998   2.081   5.078 -0.4157  0.0738 -0.0230
 7692SOL     OW30533   6.156   5.984   0.584 -0.6591  0.6294  0.2135
 7692SOL    HW230534   6.247   5.977   0.615  0.0433  1.2676 -1.6191
 7692SOL    HW330535   6.126   5.893   0.580 -0.3194  0.4439  1.3936
 7692SOL    MW430536   6.164   5.971   0.588  0.7297  0.0621 -0.4486
 7693SOL     OW30537   2.802   0.312   0.707 -0.0001 -0.1574  0.3306
 7693SOL    HW230538   2.876   0.254   0.727  0.7530  0.6772  0.0417
 7693SOL    HW330539   2.835   0.399   0.726 -0.2278  0.4215 -1.7500
 7693SOL    MW430540   2.816   0.315   0.712  0.7030  0.1770 -0.0903
 7694SOL     OW30541   0.028   0.623   2.750 -0.6822  0.5424 -0.1293
 7694SOL    HW230542   0.095   0.620   2.682 -1.4000  0.9096 -0.8757
 7694SOL    HW330543  -0.014   0.537   2.748 -1.6815  1.0253 -1.1934
 7694SOL    MW430544   0.031   0.612   2.741  0.5976  0.1351  0.2541
 7695SOL     OW30545   2.984   5.171   0.475 -0.8255 -0.1303 -0.0992
 7695SOL    HW230546   3.041   5.245   0.496 -2.3759  2.1617 -3.0837
 7695SOL    HW330547   3.035   5.118   0.414 -1.0577  0.7015 -1.0400
 7695SOL    MW430548   2.998   5.174   0.470  0.4984 -0.3369  0.1743
 7696SOL     OW30549   4.076   3.698   2.860  0.0740 -0.0127  0.1387
 7696SOL    HW230550   4.138   3.626   2.875 -0.0974 -0.2947 -0.5072
 7696SOL    HW330551   4.132   3.773   2.839  0.1826 -0.5268 -1.5565
 7696SOL    MW430552   4.092   3.698   2.859  0.6442  0.2889  0.1381
 7697SOL     OW30553   1.321   0.128   0.040 -0.2229 -0.3394 -0.1292
 7697SOL    HW230554   1.388   0.103   0.104 -0.3206 -0.5655 -0.1152
 7697SOL    HW330555   1.358   0.205  -0.004  0.2428 -0.7134 -0.4210
 7697SOL    MW430556   1.335   0.135   0.042 -0.4003 -0.3126 -0.6481
 7698SOL     OW30557   1.135   1.557   2.317 -0.0259 -0.1447  0.1691
 7698SOL    HW230558   1.212   1.530   2.268  1.1625  2.5923  0.3226
 7698SOL    HW330559   1.073   1.485   2.308  2.2360 -2.1050 -0.6229
 7698SOL    MW430560   1.137   1.544   2.310 -0.2746 -0.0119  0.1677
 7699SOL     OW30561   4.733   0.819   0.315 -0.0517  0.2856  0.0593
 7699SOL    HW230562   4.735   0.870   0.234 -0.7135 -1.8825 -1.4217
 7699SOL    HW330563   4.639   0.806   0.331  0.0862  0.5185  1.0877
 7699SOL    MW430564   4.721   0.824   0.306  0.3333 -0.1358 -0.2108
 7700SOL     OW30565   4.919   4.561   2.441  0.5046 -0.1920  0.1710
 7700SOL    HW230566   4.943   4.641   2.489 -0.3483  0.1729 -0.0034
 7700SOL    HW330567   4.990   4.550   2.377  1.2668 -0.2702  1.0040
 7700SOL    MW430568   4.932   4.570   2.439  0.1222  0.4393  1.1575
 7701SOL     OW30569   6.359   4.337   2.985  0.2602  0.5174  0.1175
 7701SOL    HW230570   6.448   4.345   3.018 -0.3593  1.6850  1.6742
 7701SOL    HW330571   6.309   4.303   3.060 -0.4611 -0.9941 -0.9960
 7701SOL    MW430572   6.364   4.333   3.000  0.1735  0.4009 -0.3036
 7702SOL     OW30573   3.978   3.706   1.920 -0.9120 -0.6469 -0.2297
 7702SOL    HW230574   3.976   3.756   1.838 -2.1783 -0.3675 -0.0434
 7702SOL    HW330575   3.893   3.723   1.961  0.3080  0.5883  1.9708
 7702SOL    MW430576   3.967   3.715   1.915  0.3594 -0.1063  0.3885
 7703SOL     OW30577   2.395   1.703   1.781  0.5851 -0.0788  0.0110
 7703SOL    HW230578   2.369   1.778   1.728 -0.3645  0.5357  1.2800
 7703SOL    HW330579   2.317   1.648   1.784  1.7708 -2.0465 -2.3214
 7703SOL    MW430580   2.381   1.706   1.774 -0.1692 -0.3316 -0.1737
 7704SOL     OW30581   3.795   1.775   2.554  0.0803 -0.1670 -0.0150
 7704SOL    HW230582   3.872   1.831   2.560  0.7192 -0.6138 -2.6098
 7704SOL    HW330583   3.821   1.694   2.599 -0.4573  1.0844  2.7742
 7704SOL    MW430584   3.809   1.772   2.561 -0.0687  0.3096 -0.5773
 7705SOL     OW30585   1.217   3.809   6.023  0.3007 -0.8184  0.2514
 7705SOL    HW230586   1.210   3.879   6.088 -1.0553 -2.7897  2.3829
 7705SOL    HW330587   1.126   3.792   5.997  0.6763 -1.3141 -0.7999
 7705SOL    MW430588   1.204   3.816   6.028  0.1857  0.0014 -0.3927
 7706SOL     OW30589   5.451   0.522   1.604  0.1211  0.1678 -0.5005
 7706SOL    HW230590   5.539   0.561   1.609  0.0147  0.4832 -0.9793
 7706SOL    HW330591   5.394   0.587   1.645  0.1673 -0.2266  0.1926
 7706SOL    MW430592   5.455   0.536   1.610  0.0927  0.2377  0.1752
 7707SOL     OW30593  -0.001   3.749   0.908 -0.6436  0.2182 -0.0220
 7707SOL    HW230594  -0.026   3.700   0.987 -0.2363  2.6848  1.7627
 7707SOL    HW330595  -0.070   3.815   0.898  0.8690  1.8949  0.1323
 7707SOL    MW430596  -0.013   3.751   0.917  0.5689 -0.2909  0.1163
 7708SOL     OW30597   0.414   5.310   2.917  0.4665 -0.7570  0.2381
 7708SOL    HW230598   0.351   5.298   2.846 -1.4335 -1.3549  1.9162
 7708SOL    HW330599   0.385   5.389   2.963  2.2780  0.2239 -0.1938
 7708SOL    MW430600   0.402   5.319   2.914  0.8763 -0.0814  0.4438
 7709SOL     OW30601   3.617   3.879   6.055 -0.0177 -0.2688  0.3475
 7709SOL    HW230602   3.607   3.895   5.961 -1.3680  1.8333  0.7900
 7709SOL    HW330603   3.712   3.874   6.068  0.1798 -1.0022 -1.1656
 7709SOL    MW430604   3.629   3.881   6.044  0.1557 -0.0029 -0.2860
 7710SOL     OW30605   4.065   4.730   2.184  0.9405  0.9094  0.6788
 7710SOL    HW230606   4.019   4.659   2.141 -1.0030  2.1709  0.5397
 7710SOL    HW330607   4.065   4.707   2.277  0.2122  0.7711  0.6483
 7710SOL    MW430608   4.059   4.718   2.190 -0.1832 -1.0175 -0.1598
 7711SOL     OW30609   5.091   1.422   5.203 -0.7791  0.0293 -0.2110
 7711SOL    HW230610   5.163   1.418   5.139 -1.4808 -0.2021 -1.0031
 7711SOL    HW330611   5.135   1.433   5.287  0.1832  0.0444 -0.6965
 7711SOL    MW430612   5.106   1.423   5.206 -0.0757 -0.0564 -0.0301
 7712SOL     OW30613   5.874   2.606   2.234  0.0518  0.0311 -0.5064
 7712SOL    HW230614   5.934   2.539   2.203  1.7031 -0.0068  2.4033
 7712SOL    HW330615   5.895   2.683   2.182  0.8787 -0.6404 -1.2096
 7712SOL    MW430616   5.885   2.607   2.223 -0.5288 -0.5069  0.0875
 7713SOL     OW30617   4.429   3.570   5.464 -0.0161  0.3015 -0.6944
 7713SOL    HW230618   4.397   3.486   5.432 -0.6713  0.7707 -1.3012
 7713SOL    HW330619   4.370   3.592   5.536  1.1366 -0.5015  0.5690
 7713SOL    MW430620   4.417   3.562   5.469 -1.0181  0.7448 -0.4159
 7714SOL     OW30621   0.453   3.794   1.546 -0.3335 -0.2117  0.0912
 7714SOL    HW230622   0.494   3.718   1.587 -0.2701  0.9968  2.4141
 7714SOL    HW330623   0.527   3.849   1.520 -0.4058  0.0905  0.5181
 7714SOL    MW430624   0.468   3.791   1.548 -0.4256  0.4898  0.0168
 7715SOL     OW30625   3.063   0.607   3.552  0.0071 -0.2938  0.6464
 7715SOL    HW230626   3.108   0.523   3.540 -1.2579 -0.7720 -1.0832
 7715SOL    HW330627   2.993   0.588   3.615  0.2921 -0.3036  0.9622
 7715SOL    MW430628   3.060   0.594   3.559  0.3461 -0.5378  0.9898
 7716SOL     OW30629   4.687   5.228   0.867 -0.3044 -0.0752  0.5066
 7716SOL    HW230630   4.664   5.162   0.931 -4.9972  2.5422  2.0071
 7716SOL    HW330631   4.646   5.198   0.786 -0.1265 -0.2903  0.4976
 7716SOL    MW430632   4.678   5.216   0.865 -0.2913 -0.0702  0.3618
 7717SOL     OW30633   3.674   5.925   1.151 -0.0868 -0.3961 -0.3250
 7717SOL    HW230634   3.688   5.962   1.063  1.0326  1.2431  0.4906
 7717SOL    HW330635   3.675   5.830   1.137 -0.1253 -0.1779 -2.1052
 7717SOL    MW430636   3.676   5.917   1.137  0.2137 -0.0825  0.5315
 7718SOL     OW30637   2.421   5.738   0.349 -0.1943 -0.6624  0.3506
 7718SOL    HW230638   2.498   5.681   0.342  0.6072  0.6323 -2.5968
 7718SOL    HW330639   2.448   5.805   0.413  0.2422 -1.4633  1.0359
 7718SOL    MW430640   2.435   5.739   0.357 -0.0391  0.3533  0.7736
 7719SOL     OW30641   3.093   6.030   1.185 -0.2248 -0.3566  0.2393
 7719SOL    HW230642   3.104   6.105   1.243  0.1655 -0.5568  0.4280
 7719SOL    HW330643   3.069   5.958   1.242 -3.2010  0.1614 -0.2001
 7719SOL    MW430644   3.091   6.031   1.200 -0.1179 -0.2319  0.7818
 7720SOL     OW30645   0.680   0.982   4.607 -0.2168  0.6920 -0.2958
 7720SOL    HW230646   0.689   0.992   4.513  1.1730  1.2335 -0.1211
 7720SOL    HW330647   0.738   0.909   4.629 -2.7657 -1.4761 -0.2129
 7720SOL    MW430648   0.688   0.973   4.598 -0.5779 -0.0119  0.8713
 7721SOL     OW30649   5.480   1.844   5.915  0.0309 -0.6294 -0.4244
 7721SOL    HW230650   5.447   1.875   5.999  0.5154 -0.4171 -0.3111
 7721SOL    HW330651   5.406   1.797   5.876 -0.4242 -0.1059 -0.2014
 7721SOL    MW430652   5.466   1.842   5.921  0.4472  0.8699  0.0150
 7722SOL     OW30653   1.358   4.864   4.540 -0.0281 -0.5413  0.2633
 7722SOL    HW230654   1.389   4.955   4.536 -1.3935 -0.0470  0.4354
 7722SOL    HW330655   1.346   4.839   4.449 -1.6790  0.1987  0.2465
 7722SOL    MW430656   1.361   4.873   4.528  0.1375 -0.5298 -0.0151
 7723SOL     OW30657   0.519   1.080   3.762  0.4035  0.0575  0.5282
 7723SOL    HW230658   0.592   1.077   3.701  1.6510 -0.4241  1.9864
 7723SOL    HW330659   0.488   0.989   3.767 -0.2610  0.2477 -0.0331
 7723SOL    MW430660   0.524   1.068   3.755 -0.2729 -0.5222 -0.4225
 7724SOL     OW30661   1.248   3.139   2.143  0.2131 -0.6389  0.4686
 7724SOL    HW230662   1.220   3.157   2.232 -0.4329 -0.7111  0.2844
 7724SOL    HW330663   1.172   3.161   2.089  1.2748  1.5896 -0.2854
 7724SOL    MW430664   1.235   3.145   2.147  0.3107  0.6222  0.1292
 7725SOL     OW30665   3.124   2.490   1.074  0.3521 -0.1905  0.0101
 7725SOL    HW230666   3.203   2.471   1.024  0.4460 -1.5369  0.6254
 7725SOL    HW330667   3.131   2.434   1.152 -1.1011 -0.1907  0.1650
 7725SOL    MW430668   3.135   2.480   1.078 -0.2946 -0.7294 -0.1927
 7726SOL     OW30669   2.948   5.330   0.882 -0.4020  0.2997 -0.1886
 7726SOL    HW230670   2.967   5.252   0.934 -0.1303  0.0650 -0.6264
 7726SOL    HW330671   2.889   5.299   0.813  0.5911  0.2232 -1.0352
 7726SOL    MW430672   2.943   5.316   0.880 -0.2788 -0.3231  0.0762
 7727SOL     OW30673   2.669   1.786   1.723 -0.0244 -0.0576 -0.2617
 7727SOL    HW230674   2.672   1.804   1.629 -1.9435  1.7936 -0.0504
 7727SOL    HW330675   2.590   1.732   1.734  0.5440 -0.8124  0.2314
 7727SOL    MW430676   2.659   1.781   1.712  0.8183 -0.2526  0.6629
 7728SOL     OW30677   4.973   3.206   2.955 -0.1908 -0.0410 -0.4863
 7728SOL    HW230678   4.907   3.239   3.016 -0.7657 -0.8347 -0.6594
 7728SOL    HW330679   4.964   3.262   2.877 -1.5882 -0.9491 -1.0254
 7728SOL    MW430680   4.963   3.218   2.953  0.7603 -0.2181 -0.3787
 7729SOL     OW30681   1.089   3.342   6.248 -0.1186  0.0794 -0.2599
 7729SOL    HW230682   1.014   3.322   6.192  0.0574 -1.8897  0.1460
 7729SOL    HW330683   1.128   3.257   6.266  3.5555  1.1448 -2.2443
 7729SOL    MW430684   1.084   3.328   6.243  0.4181  0.4998  0.0901
 7730SOL     OW30685   1.445   0.339   6.342 -0.0945 -0.5176  0.3309
 7730SOL    HW230686   1.435   0.427   6.307 -0.6034 -0.0990  1.4870
 7730SOL    HW330687   1.497   0.293   6.277 -0.4421  0.4265 -0.6355
 7730SOL    MW430688   1.451   0.344   6.329 -0.2001  0.2163  0.7621
 7731SOL     OW30689   3.391   4.947   5.758  0.2713  0.4157  0.0063
 7731SOL    HW230690   3.477   4.929   5.720  1.0425  2.9475  0.3938
 7731SOL    HW330691   3.329   4.906   5.698  1.6652  0.2803 -1.3941
 7731SOL    MW430692   3.394   4.939   5.745  0.4017  0.0253  0.3185
 7732SOL     OW30693   2.995   5.887   0.752  0.1013  0.0084  0.3812
 7732SOL    HW230694   2.927   5.828   0.718  0.5232 -0.5082  0.4321
 7732SOL    HW330695   2.955   5.926   0.830 -0.1273 -0.3120  0.4277
 7732SOL    MW430696   2.981   5.884   0.758  0.5398  0.0141 -0.6835
 7733SOL     OW30697   3.610   3.073   6.357 -0.3257 -0.0697  0.5567
 7733SOL    HW230698   3.674   3.028   6.413  0.3666  0.1622 -0.0294
 7733SOL    HW330699   3.650   3.158   6.338 -1.5096  0.7176  1.4444
 7733SOL    MW430700   3.624   3.078   6.362  0.0969  0.5559 -0.3279
 7734SOL     OW30701   1.470   1.268   1.306  0.2020  0.3580 -0.7192
 7734SOL    HW230702   1.377   1.284   1.293  0.0326 -0.4861 -0.6380
 7734SOL    HW330703   1.514   1.338   1.258 -0.4681  0.2465 -1.5301
 7734SOL    MW430704   1.463   1.279   1.298 -0.1195  1.0415 -0.2079
 7735SOL     OW30705   2.179   5.630   4.693  0.2495 -0.0318 -0.3268
 7735SOL    HW230706   2.166   5.649   4.600  0.4589 -1.3593 -0.6410
 7735SOL    HW330707   2.104   5.577   4.718  1.5142 -1.9779 -0.4456
 7735SOL    MW430708   2.167   5.626   4.684  0.1298 -0.4619 -0.2787
 7736SOL     OW30709   3.393   1.111   0.362  0.6349  0.5220  0.3718
 7736SOL    HW230710   3.395   1.155   0.447  0.0257 -1.3305  1.3999
 7736SOL    HW330711   3.307   1.131   0.327  0.5095  0.4771  0.6505
 7736SOL    MW430712   3.382   1.119   0.369  0.6872  0.6087  0.3462
 7737SOL     OW30713   6.340   4.680   6.401 -0.1402 -0.0453  0.5141
 7737SOL    HW230714   6.383   4.764   6.389 -0.1808  0.1474  1.5945
 7737SOL    HW330715   6.248   4.702   6.416 -0.6597 -0.4476 -1.6793
 7737SOL    MW430716   6.334   4.694   6.401  0.4578 -0.3993  0.5114
 7738SOL     OW30717   5.363   0.395   4.098 -0.4943  0.2546 -1.0941
 7738SOL    HW230718   5.343   0.480   4.058 -2.8134  0.1688 -0.2498
 7738SOL    HW330719   5.340   0.331   4.030 -0.2545  0.2346 -1.1592
 7738SOL    MW430720   5.357   0.398   4.084  0.4583  0.6297  0.8252
 7739SOL     OW30721   3.956   0.848   3.405 -0.0404 -0.3126 -0.2817
 7739SOL    HW230722   3.905   0.927   3.422  0.7753  0.1316  0.1472
 7739SOL    HW330723   4.029   0.852   3.467  1.0592 -0.4441 -1.5221
 7739SOL    MW430724   3.959   0.859   3.416  0.7705 -0.9353 -0.4637
 7740SOL     OW30725   3.050   3.625   4.779  0.2121 -0.7392 -0.0565
 7740SOL    HW230726   3.112   3.612   4.707 -1.1996  1.1848 -1.7187
 7740SOL    HW330727   2.991   3.550   4.774  0.0699 -0.5675 -0.9763
 7740SOL    MW430728   3.051   3.613   4.769 -0.1631  0.2512 -0.3791
 7741SOL     OW30729   3.446   2.432   2.346  0.6537  0.1947  0.4141
 7741SOL    HW230730   3.455   2.412   2.439  2.2464 -0.4645  0.1596
 7741SOL    HW330731   3.366   2.484   2.340 -0.6106 -1.4360  1.8670
 7741SOL    MW430732   3.437   2.436   2.357  0.0045 -0.0818 -0.0085
 7742SOL     OW30733   3.702   4.474   5.996 -0.4367  0.2860  0.5469
 7742SOL    HW230734   3.782   4.517   5.965  0.2919 -0.8090  0.8332
 7742SOL    HW330735   3.634   4.540   5.986  0.2954  0.8868 -0.7308
 7742SOL    MW430736   3.704   4.489   5.991  0.9077 -0.8798 -0.0108
 7743SOL     OW30737   2.230   6.233   1.464  0.1483  0.2189  0.3952
 7743SOL    HW230738   2.221   6.252   1.371 -1.0721  0.4395  0.5463
 7743SOL    HW330739   2.298   6.293   1.495  0.2457  0.4471 -0.2581
 7743SOL    MW430740   2.238   6.243   1.456 -0.0130  0.6742 -0.6669
 7744SOL     OW30741   4.840   2.165   5.870  0.2090  0.4123  0.1259
 7744SOL    HW230742   4.897   2.149   5.795  2.4216  1.0885  1.5727
 7744SOL    HW330743   4.854   2.089   5.927 -0.3249  0.6113  0.5339
 7744SOL    MW430744   4.849   2.153   5.868 -0.4138 -0.1379 -0.1358
 7745SOL     OW30745   0.294   4.952   3.221  0.2557  0.0191 -0.0521
 7745SOL    HW230746   0.342   4.985   3.145  0.2534  2.1140  0.7898
 7745SOL    HW330747   0.208   4.991   3.215  0.8009  1.6882  1.9022
 7745SOL    MW430748   0.289   4.961   3.210  0.5845  0.4692  0.1835
 7746SOL     OW30749   5.303   2.558   3.238  0.1714  0.4540 -0.0811
 7746SOL    HW230750   5.359   2.502   3.184  0.0248 -0.3301  0.5586
 7746SOL    HW330751   5.321   2.530   3.328 -0.2386  1.1304  0.2158
 7746SOL    MW430752   5.312   2.547   3.243  0.5254 -0.1600 -0.6103
 7747SOL     OW30753   4.980   1.853   1.878 -0.0036 -0.0593 -0.0648
 7747SOL    HW230754   4.963   1.924   1.940  1.1580  0.6745 -0.5411
 7747SOL    HW330755   4.976   1.894   1.792  1.0420 -0.4773 -0.3295
 7747SOL    MW430756   4.978   1.868   1.875  0.1306  0.1297  0.3583
 7748SOL     OW30757   1.793   4.700   1.335 -0.1134 -0.0136  0.1394
 7748SOL    HW230758   1.743   4.678   1.256  1.4537 -1.5736 -0.5022
 7748SOL    HW330759   1.884   4.707   1.304  0.4017  0.2770  1.6496
 7748SOL    MW430760   1.799   4.698   1.321  0.0581 -0.4960 -0.0140
 7749SOL     OW30761   1.939   3.022   1.524 -0.2910  0.8130 -0.1008
 7749SOL    HW230762   1.923   2.986   1.437 -1.4278  0.1663  0.3593
 7749SOL    HW330763   2.034   3.018   1.534 -0.2971 -1.3902 -0.3783
 7749SOL    MW430764   1.949   3.016   1.514  0.0789  0.6264 -0.1273
 7750SOL     OW30765   0.003   4.874   4.619 -0.5449 -0.0029  0.3603
 7750SOL    HW230766  -0.056   4.818   4.670  1.8303 -1.5611  1.6054
 7750SOL    HW330767   0.069   4.901   4.682  1.8126 -0.9386 -1.5563
 7750SOL    MW430768   0.004   4.870   4.634  0.7897 -0.4043 -0.3636
 7751SOL     OW30769   5.479   4.545   3.755 -0.3934  0.2574 -0.4290
 7751SOL    HW230770   5.397   4.508   3.786 -0.6712 -0.2291 -1.6774
 7751SOL    HW330771   5.546   4.510   3.813 -0.9352 -0.2932 -0.1317
 7751SOL    MW430772   5.477   4.536   3.767 -0.1607 -0.3262  0.3750
 7752SOL     OW30773   4.007   1.953   2.599  0.1174 -0.2172  0.0163
 7752SOL    HW230774   4.023   1.914   2.685  1.0613  0.2218  0.0497
 7752SOL    HW330775   4.094   1.964   2.561 -0.2620  0.0568 -0.7906
 7752SOL    MW430776   4.021   1.949   2.606  0.1382 -0.3832 -0.1888
 7753SOL     OW30777   6.223   3.938   2.386  0.0560 -0.1251 -0.4525
 7753SOL    HW230778   6.211   3.895   2.471  0.5940 -0.6102 -0.6094
 7753SOL    HW330779   6.136   3.936   2.346  0.2944 -2.3024 -1.0052
 7753SOL    MW430780   6.210   3.932   2.392  0.5088 -1.1812 -0.6195
 7754SOL     OW30781   1.215   0.083   5.838 -0.4673 -0.9349 -0.1260
 7754SOL    HW230782   1.305   0.092   5.867 -0.3923  0.1525 -0.6652
 7754SOL    HW330783   1.167   0.151   5.885 -0.7245 -0.5333 -0.9407
 7754SOL    MW430784   1.220   0.093   5.848 -0.3669 -0.2716 -0.0562
 7755SOL     OW30785   4.750   2.546   4.346  0.3013  0.3963  0.0708
 7755SOL    HW230786   4.662   2.514   4.324  1.1669 -3.0516  0.9969
 7755SOL    HW330787   4.790   2.567   4.262 -0.7661  0.1127 -0.5297
 7755SOL    MW430788   4.743   2.544   4.332 -0.3581 -0.1120 -0.3108
 7756SOL     OW30789   0.485   5.732   5.863  0.7230  0.1643  0.4183
 7756SOL    HW230790   0.424   5.666   5.832  0.6559  0.1218  0.6415
 7756SOL    HW330791   0.566   5.684   5.880  1.5356  0.5519 -1.9829
 7756SOL    MW430792   0.488   5.717   5.861  0.4995  0.8419 -0.1438
 7757SOL     OW30793   1.381   4.348   5.853 -0.3375 -0.7581 -1.2287
 7757SOL    HW230794   1.397   4.439   5.831 -0.8922 -0.5405 -0.7676
 7757SOL    HW330795   1.364   4.349   5.947  0.8887 -1.5093 -0.9856
 7757SOL    MW430796   1.381   4.360   5.863 -0.0189 -0.6118 -0.2021
 7758SOL     OW30797   3.404   1.856   0.419 -0.8113  0.1078  0.1607
 7758SOL    HW230798   3.499   1.851   0.430 -0.6517 -1.2201 -1.4162
 7758SOL    HW330799   3.370   1.794   0.483 -0.7159  1.2762  1.3930
 7758SOL    MW430800   3.412   1.847   0.429  0.1334  0.0778 -0.3869
 7759SOL     OW30801   1.485   3.025   3.095  0.5076 -0.5392  0.4142
 7759SOL    HW230802   1.552   3.007   3.030  0.6692 -0.5403  0.5783
 7759SOL    HW330803   1.521   3.095   3.148  1.0115 -1.5044  1.4020
 7759SOL    MW430804   1.498   3.032   3.094 -0.4823  0.2513 -0.6725
 7760SOL     OW30805   5.229   0.085   4.997  0.5120  0.2224 -0.1513
 7760SOL    HW230806   5.166   0.141   5.043  0.3994  0.9588 -1.1587
 7760SOL    HW330807   5.314   0.120   5.020  0.5388 -0.4468  0.7980
 7760SOL    MW430808   5.232   0.097   5.006  0.1631 -0.0700  0.1489
 7761SOL     OW30809   1.590   0.162   6.193  0.4285  0.1081  0.7039
 7761SOL    HW230810   1.643   0.107   6.250  0.7477  1.0279  1.3266
 7761SOL    HW330811   1.651   0.227   6.158  0.1788 -0.2512 -0.4627
 7761SOL    MW430812   1.605   0.163   6.196 -0.5295 -0.4672 -0.4815
 7762SOL     OW30813   6.200   1.964   3.108  0.6363 -0.0475  0.2542
 7762SOL    HW230814   6.119   1.979   3.156  0.2578  0.3231 -0.4931
 7762SOL    HW330815   6.207   1.868   3.102 -0.7218 -0.0974 -1.2756
 7762SOL    MW430816   6.190   1.953   3.114  0.0829 -0.0443 -0.2410
 7763SOL     OW30817   3.929   4.117   4.488  0.3589  0.0232 -0.3579
 7763SOL    HW230818   4.012   4.162   4.504 -0.8696  2.1646  0.3630
 7763SOL    HW330819   3.924   4.108   4.393  0.3314  2.0797 -0.5785
 7763SOL    MW430820   3.939   4.122   4.478  0.1442  0.0324  0.1643
 7764SOL     OW30821   3.067   5.828   2.281 -0.2217 -0.6648  0.0388
 7764SOL    HW230822   3.150   5.793   2.312  0.3988  1.0867  0.4260
 7764SOL    HW330823   3.007   5.753   2.285  1.0892 -1.7274  0.6302
 7764SOL    MW430824   3.070   5.813   2.286 -0.9926 -0.2855 -0.1374
 7765SOL     OW30825   2.957   0.846   3.937 -0.1425  0.4261 -0.0165
 7765SOL    HW230826   2.959   0.942   3.931 -0.9819  0.3657 -1.4637
 7765SOL    HW330827   3.041   0.818   3.899  0.2965  0.5787  0.8032
 7765SOL    MW430828   2.969   0.855   3.932 -0.2179 -0.0739 -0.1888
 7766SOL     OW30829   3.147   5.812   5.075 -0.5082 -0.0465 -0.2444
 7766SOL    HW230830   3.057   5.787   5.050 -1.7352  1.9628  1.8012
 7766SOL    HW330831   3.162   5.896   5.031  0.8541 -0.8626 -1.4322
 7766SOL    MW430832   3.137   5.820   5.066 -0.0074  0.7935 -0.0646
 7767SOL     OW30833   3.081   4.761   3.194 -0.1358 -0.3788 -0.0289
 7767SOL    HW230834   3.112   4.704   3.124  0.1164 -0.8542  0.4609
 7767SOL    HW330835   2.986   4.755   3.190 -0.1604  0.4415 -1.0151
 7767SOL    MW430836   3.073   4.753   3.184  0.1999  0.0862 -0.0322
 7768SOL     OW30837   2.376   5.060   1.996 -0.3454 -0.4020  0.3363
 7768SOL    HW230838   2.283   5.044   1.983 -0.6507  0.6748  1.0438
 7768SOL    HW330839   2.385   5.155   1.991  0.7790 -0.5132 -0.0943
 7768SOL    MW430840   2.365   5.070   1.994  0.3817 -0.5890 -0.6075
 7769SOL     OW30841   3.861   1.716   6.168  0.1903 -0.1720 -0.2554
 7769SOL    HW230842   3.912   1.636   6.160 -0.9997 -0.9920  0.0694
 7769SOL    HW330843   3.925   1.784   6.188  1.3542 -0.8412 -1.5251
 7769SOL    MW430844   3.876   1.715   6.169 -0.1246 -0.0712 -0.9197
 7770SOL     OW30845   4.289   2.065   3.595  0.0696 -0.0666  0.2210
 7770SOL    HW230846   4.310   1.998   3.530  0.5831 -0.4226  0.7433
 7770SOL    HW330847   4.200   2.044   3.624 -0.3861  0.4258 -0.7525
 7770SOL    MW430848   4.280   2.054   3.591 -0.0823 -0.1320 -0.1746
 7771SOL     OW30849   3.304   5.635   1.398  0.0049 -0.6612  0.0174
 7771SOL    HW230850   3.238   5.566   1.398 -0.6089 -0.1078  0.9829
 7771SOL    HW330851   3.321   5.653   1.306  0.8993 -2.7435 -0.2820
 7771SOL    MW430852   3.298   5.628   1.386 -0.2519  0.5173  0.4006
 7772SOL     OW30853   3.356   3.707   0.666  0.4473 -0.0614 -0.0756
 7772SOL    HW230854   3.340   3.751   0.749 -4.8565  0.5264 -1.0540
 7772SOL    HW330855   3.312   3.623   0.674 -0.5935  0.1888 -2.3673
 7772SOL    MW430856   3.348   3.702   0.678  0.1448 -0.0092  0.0805
 7773SOL     OW30857   4.632   0.837   3.671 -0.5829  0.0086  0.0161
 7773SOL    HW230858   4.636   0.744   3.693  1.7412  0.3028  1.1976
 7773SOL    HW330859   4.662   0.841   3.580  0.1721 -0.3678  0.2330
 7773SOL    MW430860   4.637   0.825   3.662 -0.0337  0.1832  0.2438
 7774SOL     OW30861   2.755   1.087   1.543  0.6176 -0.0200 -0.4690
 7774SOL    HW230862   2.808   1.132   1.609 -0.6311  1.3216 -0.3300
 7774SOL    HW330863   2.808   1.089   1.464  1.3878 -0.0383  0.0348
 7774SOL    MW430864   2.769   1.093   1.542 -0.2385 -0.0653  0.0258
 7775SOL     OW30865   4.340   4.147   3.654 -0.4645 -0.2551  0.7322
 7775SOL    HW230866   4.263   4.090   3.651  0.8753 -2.1212 -0.9493
 7775SOL    HW330867   4.304   4.235   3.659 -2.7239 -1.0314 -0.3328
 7775SOL    MW430868   4.325   4.151   3.654  0.1504 -0.0187  0.6804
 7776SOL     OW30869   5.785   3.445   3.148 -0.2775  0.5560  0.5149
 7776SOL    HW230870   5.722   3.429   3.218  1.0289  0.3035  1.6817
 7776SOL    HW330871   5.805   3.538   3.154  0.0192  0.4866  0.6609
 7776SOL    MW430872   5.779   3.455   3.158 -1.0785 -0.2556 -0.5491
 7777SOL     OW30873   3.515   5.803   5.647 -0.3156  0.3156 -0.0589
 7777SOL    HW230874   3.548   5.791   5.557 -0.3462 -0.0749 -0.0197
 7777SOL    HW330875   3.582   5.763   5.702  0.7465  2.3715  0.2500
 7777SOL    MW430876   3.528   5.796   5.642  0.4494  0.0550 -0.0399
 7778SOL     OW30877   4.668   2.237   1.358 -0.5377 -0.1367  0.1969
 7778SOL    HW230878   4.643   2.313   1.409 -1.3475  1.4711 -2.4000
 7778SOL    HW330879   4.616   2.165   1.393 -1.0945  0.9012  1.5542
 7778SOL    MW430880   4.658   2.238   1.369  0.7600  0.3838  0.1134
 7779SOL     OW30881   2.991   1.026   4.726  0.7736 -0.3075 -0.2563
 7779SOL    HW230882   3.036   1.083   4.664  0.1756 -0.3721 -0.7595
 7779SOL    HW330883   2.899   1.029   4.699  0.1799  1.0305  1.6614
 7779SOL    MW430884   2.985   1.034   4.715  0.6371 -0.2226  0.0161
 7780SOL     OW30885   3.083   5.976   4.390  0.3292  0.5605  0.2542
 7780SOL    HW230886   3.013   5.939   4.443 -0.1860  0.9606 -0.1306
 7780SOL    HW330887   3.041   5.998   4.307  1.0516  0.2431 -0.2048
 7780SOL    MW430888   3.068   5.974   4.386  0.8565  0.1265  0.2232
 7781SOL     OW30889   2.885   0.446   6.111  0.1666  0.0194 -0.2347
 7781SOL    HW230890   2.867   0.374   6.050  0.6529 -1.3506  1.1657
 7781SOL    HW330891   2.974   0.430   6.142  0.3710  1.3803 -0.0668
 7781SOL    MW430892   2.894   0.434   6.107  0.4137  0.3898 -0.2419
 7782SOL     OW30893   0.108   3.804   1.281  0.8468 -0.0637 -0.0697
 7782SOL    HW230894   0.131   3.769   1.367  0.2781 -0.5165 -0.0973
 7782SOL    HW330895   0.167   3.879   1.269  1.3281 -0.3475  0.4606
 7782SOL    MW430896   0.119   3.809   1.291 -0.0175 -0.0792 -1.0121
 7783SOL     OW30897   0.484   5.793   6.157 -0.0900  0.1975 -0.5429
 7783SOL    HW230898   0.573   5.769   6.181  0.8497  2.4886 -1.4638
 7783SOL    HW330899   0.478   5.776   6.063 -0.3936  0.6685 -0.6163
 7783SOL    MW430900   0.495   5.788   6.148 -0.1895 -0.8233 -0.1503
 7784SOL     OW30901   3.673   4.046   4.311 -0.6627  0.2181  0.0406
 7784SOL    HW230902   3.583   4.023   4.333 -0.2988  0.3022  1.7852
 7784SOL    HW330903   3.703   4.099   4.385  0.3981  1.3693 -1.1484
 7784SOL    MW430904   3.665   4.050   4.323  0.0823  0.0401 -0.2401
 7785SOL     OW30905   4.587   5.682   5.907 -0.3926  0.4920 -0.4222
 7785SOL    HW230906   4.674   5.704   5.942  0.9889 -2.1182 -1.9159
 7785SOL    HW330907   4.551   5.766   5.879  1.8156  1.6367 -0.1020
 7785SOL    MW430908   4.594   5.696   5.908 -0.2844  0.2648  0.1163
 7786SOL     OW30909   0.258   2.450   4.443  0.1259 -0.2404 -0.3687
 7786SOL    HW230910   0.335   2.503   4.463  0.5975 -1.1546  0.3524
 7786SOL    HW330911   0.289   2.359   4.451 -0.4365 -0.6700 -2.3183
 7786SOL    MW430912   0.272   2.445   4.447 -0.8444 -0.0411  0.0177
 7787SOL     OW30913   4.643   4.763   3.361 -0.1065 -0.1542 -0.2989
 7787SOL    HW230914   4.568   4.816   3.333 -1.6128 -1.5791  0.8199
 7787SOL    HW330915   4.666   4.711   3.284 -1.2856 -0.8036 -0.2392
 7787SOL    MW430916   4.636   4.763   3.347  1.2237  0.1777 -0.1144
 7788SOL     OW30917   2.793   0.549   3.312  0.3395  0.2683 -0.6273
 7788SOL    HW230918   2.862   0.577   3.372 -1.5938 -1.3386  2.6682
 7788SOL    HW330919   2.716   0.599   3.339 -1.3967 -2.7984  0.6038
 7788SOL    MW430920   2.792   0.559   3.323  0.1560 -0.3877 -0.4315
 7789SOL     OW30921   3.630   2.900   2.637  0.8299 -1.0004 -0.1244
 7789SOL    HW230922   3.707   2.845   2.630  2.6334  1.4986 -2.1155
 7789SOL    HW330923   3.647   2.957   2.712  1.5062  0.2179 -1.1478
 7789SOL    MW430924   3.642   2.900   2.646  0.4635 -0.1134  0.3006
 7790SOL     OW30925   4.185   0.840   3.585 -0.0301 -0.2835  0.4759
 7790SOL    HW230926   4.224   0.771   3.531  1.0413  0.2712  0.4997
 7790SOL    HW330927   4.200   0.811   3.675  0.0814 -0.2056  0.4830
 7790SOL    MW430928   4.192   0.827   3.590 -0.1036 -0.0811 -0.5154
 7791SOL     OW30929   4.372   5.777   3.126 -0.0735 -0.2103 -0.1000
 7791SOL    HW230930   4.298   5.725   3.157  0.7350 -0.2874  1.8018
 7791SOL    HW330931   4.431   5.781   3.200  1.6034  0.3026 -1.4074
 7791SOL    MW430932   4.370   5.771   3.140  0.0066 -0.2500  0.4148
 7792SOL     OW30933   5.092   2.575   3.057  0.0074 -0.3502 -0.8478
 7792SOL    HW230934   5.157   2.555   3.124 -0.0401 -0.9145 -0.9635
 7792SOL    HW330935   5.140   2.570   2.974 -0.1767 -0.7689 -0.9337
 7792SOL    MW430936   5.107   2.572   3.055 -0.4826  0.1301 -0.0649
 7793SOL     OW30937   3.439   5.294   6.263 -0.4945 -0.3883 -0.2264
 7793SOL    HW230938   3.425   5.201   6.281 -2.5189 -0.0478  0.2497
 7793SOL    HW330939   3.385   5.339   6.328  3.4417  1.3024  2.2321
 7793SOL    MW430940   3.430   5.288   6.274 -0.8285  0.2405 -0.2110
 7794SOL     OW30941   0.802   1.042   4.050  1.1057  0.2808  0.0925
 7794SOL    HW230942   0.792   0.997   3.966  2.3941  0.1116  0.0204
 7794SOL    HW330943   0.896   1.058   4.058  0.9722  0.4908  1.4112
 7794SOL    MW430944   0.813   1.038   4.040 -0.1197  0.4003  0.5047
 7795SOL     OW30945   5.798   3.590   2.318  0.0294  0.0590 -0.0973
 7795SOL    HW230946   5.724   3.641   2.350 -0.5796 -0.4577 -0.6373
 7795SOL    HW330947   5.854   3.653   2.274  0.1363  0.5283  0.6903
 7795SOL    MW430948   5.795   3.605   2.317  0.0081  0.0197 -0.0329
 7796SOL     OW30949   5.788   1.883   3.955 -0.0850 -0.4196 -0.4076
 7796SOL    HW230950   5.777   1.848   3.867  1.8741 -0.1661 -0.7976
 7796SOL    HW330951   5.762   1.811   4.013 -0.9345 -0.7519 -1.1844
 7796SOL    MW430952   5.783   1.869   3.951 -0.1690  0.0507 -0.4947
 7797SOL     OW30953   2.383   0.032   0.815 -0.6110 -0.2579  0.0119
 7797SOL    HW230954   2.305   0.080   0.788 -0.4562  0.1253  0.2370
 7797SOL    HW330955   2.452   0.098   0.818 -0.3080 -0.5695 -0.0587
 7797SOL    MW430956   2.382   0.047   0.812  1.3075  0.5642 -0.0778
 7798SOL     OW30957   0.595   3.767   3.675  0.6145 -0.3458  0.8696
 7798SOL    HW230958   0.572   3.859   3.689  1.6697  0.0612  0.0717
 7798SOL    HW330959   0.511   3.722   3.671  0.0476  0.7068  0.4427
 7798SOL    MW430960   0.581   3.773   3.677  0.2574 -0.7447  0.5812
 7799SOL     OW30961   2.408   2.384   4.212 -0.6707 -0.6511 -0.0085
 7799SOL    HW230962   2.328   2.420   4.249 -0.0515 -0.1180  0.8629
 7799SOL    HW330963   2.446   2.455   4.161 -0.2523 -0.5560  0.4175
 7799SOL    MW430964   2.403   2.398   4.210  0.4353 -0.2273  0.1176
 7800SOL     OW30965   3.950   5.704   2.064  0.3738 -0.1694 -0.8765
 7800SOL    HW230966   4.011   5.691   2.136 -0.8389  0.3857  0.2880
 7800SOL    HW330967   3.908   5.788   2.082  0.6340  0.4082 -2.6977
 7800SOL    MW430968   3.952   5.713   2.076  0.1864 -0.3386 -0.3316
 7801SOL     OW30969   0.064   2.765   1.557  0.7192  0.5174 -0.1591
 7801SOL    HW230970   0.004   2.833   1.526 -0.6464 -0.6563 -0.2400
 7801SOL    HW330971   0.136   2.766   1.494  0.4469  1.4969 -0.4753
 7801SOL    MW430972   0.065   2.774   1.544  0.4121 -0.2470 -0.2004
 7802SOL     OW30973   1.426   0.920   1.059 -0.2185  0.3754 -0.6070
 7802SOL    HW230974   1.471   0.949   0.980 -1.4537  1.4580 -0.9496
 7802SOL    HW330975   1.480   0.953   1.131  0.7613 -0.3683 -0.9898
 7802SOL    MW430976   1.439   0.928   1.058 -0.1688 -0.3611  0.3548
 7803SOL     OW30977   0.228   4.986   1.636  0.2545  0.0406 -0.1180
 7803SOL    HW230978   0.273   4.933   1.570  0.3748 -0.6791  0.5178
 7803SOL    HW330979   0.140   4.949   1.640  0.3726 -0.1967  0.4112
 7803SOL    MW430980   0.222   4.974   1.628  0.0067  0.0474 -0.2814
 7804SOL     OW30981   1.808   2.679   1.877  0.1036  0.1739 -0.0768
 7804SOL    HW230982   1.798   2.761   1.925  0.0620  0.6916 -0.9524
 7804SOL    HW330983   1.823   2.706   1.786  0.1254 -0.7861 -0.3673
 7804SOL    MW430984   1.809   2.693   1.871  0.1470 -0.0531 -0.6280
 7805SOL     OW30985   0.440   2.169   3.972 -0.0501 -0.3958  1.3582
 7805SOL    HW230986   0.531   2.188   3.952 -0.2162 -1.6680 -1.1013
 7805SOL    HW330987   0.442   2.119   4.053  1.4274 -0.2548  1.4232
 7805SOL    MW430988   0.452   2.165   3.980  0.1960 -0.5000  0.1745
 7806SOL     OW30989   1.725   3.871   2.190 -0.4505  0.1634  0.5425
 7806SOL    HW230990   1.690   3.858   2.102 -1.2141 -1.4020  1.0454
 7806SOL    HW330991   1.653   3.846   2.249  0.4103  0.1261  1.6128
 7806SOL    MW430992   1.711   3.866   2.186  0.6351 -1.1918 -0.0984
 7807SOL     OW30993   2.427   6.092   5.081 -0.6141  0.2068 -0.2669
 7807SOL    HW230994   2.403   6.001   5.098  1.5113 -0.1943  0.9583
 7807SOL    HW330995   2.368   6.144   5.136 -1.2216 -0.4818 -0.2613
 7807SOL    MW430996   2.416   6.087   5.090 -0.3620 -0.1569  0.2048
 7808SOL     OW30997   3.452   6.030   0.247  0.6481 -0.3829 -0.3113
 7808SOL    HW230998   3.357   6.027   0.242  0.6430  0.7705 -2.3367
 7808SOL    HW330999   3.480   6.033   0.155  2.5441  0.8671  0.2567
 7808SOL    MW431000   3.443   6.030   0.234 -0.0835 -0.1836  0.2807
 7809SOL     OW31001   2.614   2.739   0.092  0.0558  0.0053 -0.2034
 7809SOL    HW231002   2.532   2.696   0.068 -0.3820  1.1137 -0.7644
 7809SOL    HW331003   2.629   2.713   0.183 -0.3659 -1.0385 -0.4194
 7809SOL    MW431004   2.605   2.730   0.101  0.3391 -0.0621  0.0947
 7810SOL     OW31005   4.702   4.806   0.170 -0.5243 -0.3620 -0.0598
 7810SOL    HW231006   4.656   4.806   0.254 -0.3941  1.8838  0.0629
 7810SOL    HW331007   4.708   4.898   0.146 -0.1118 -0.9207 -2.3081
 7810SOL    MW431008   4.696   4.818   0.178  0.3229  0.2459  0.6942
 7811SOL     OW31009   4.562   2.464   1.500  0.8281  0.3245 -0.3000
 7811SOL    HW231010   4.507   2.524   1.451  1.2345  1.6087  0.7660
 7811SOL    HW331011   4.513   2.449   1.582  0.5450 -1.1302 -0.6974
 7811SOL    MW431012   4.548   2.470   1.504 -0.2083  0.0212 -0.0492
 7812SOL     OW31013   0.260   3.953   5.878 -0.2868  0.2631  0.3218
 7812SOL    HW231014   0.291   4.038   5.909 -0.4923  0.9530 -1.2469
 7812SOL    HW331015   0.340   3.901   5.868  0.2660  1.4087 -1.8952
 7812SOL    MW431016   0.275   3.958   5.881  0.0681 -0.1032 -0.4806
 7813SOL     OW31017   3.047   4.340   2.018  0.1386 -0.0926  0.1693
 7813SOL    HW231018   3.054   4.381   2.105  0.7276 -2.3167  1.2582
 7813SOL    HW331019   3.026   4.248   2.037 -2.4302 -0.0934 -2.1819
 7813SOL    MW431020   3.045   4.333   2.032 -0.0075  0.2510  0.9471
 7814SOL     OW31021   0.607   1.491   1.152  0.6407  0.9707 -0.3114
 7814SOL    HW231022   0.546   1.485   1.079  0.6910  1.1116 -0.3645
 7814SOL    HW331023   0.688   1.524   1.113  1.1226 -0.3253 -0.4690
 7814SOL    MW431024   0.610   1.494   1.137 -0.0199 -0.1876 -0.1889
 7815SOL     OW31025   5.092   1.376   1.229 -0.6313  0.2309 -0.2768
 7815SOL    HW231026   5.113   1.441   1.296 -0.2317  0.0733 -0.2433
 7815SOL    HW331027   5.175   1.329   1.216 -0.9873 -0.4439 -0.1066
 7815SOL    MW431028   5.106   1.378   1.236  0.8699  0.8851  0.4663
 7816SOL     OW31029   6.251   4.526   2.230  0.0430  0.1311 -0.6258
 7816SOL    HW231030   6.166   4.511   2.271 -0.9680  1.2111 -2.1669
 7816SOL    HW331031   6.293   4.592   2.285 -0.4880  0.2062 -0.2989
 7816SOL    MW431032   6.245   4.533   2.242  0.0211 -0.2433  0.0170
 7817SOL     OW31033   4.880   5.464   2.008  0.0423 -0.5414  0.3371
 7817SOL    HW231034   4.798   5.438   2.049  0.8332 -0.8350  1.8037
 7817SOL    HW331035   4.923   5.520   2.073  0.4420  0.6705 -0.9226
 7817SOL    MW431036   4.875   5.468   2.022 -0.0345 -0.6116  0.3966
 7818SOL     OW31037   4.135   2.499   5.673 -0.2933 -0.2305 -0.4012
 7818SOL    HW231038   4.059   2.448   5.701 -1.0483  0.0120 -1.8900
 7818SOL    HW331039   4.197   2.433   5.642 -0.1918 -0.3807  0.1046
 7818SOL    MW431040   4.133   2.484   5.673 -0.4027 -0.4475 -0.7127
 7819SOL     OW31041   0.858   1.273   6.040 -0.1233 -0.0226  0.2730
 7819SOL    HW231042   0.918   1.199   6.032 -1.1988 -1.1576  1.9717
 7819SOL    HW331043   0.878   1.328   5.964  3.2901 -0.1247  0.9108
 7819SOL    MW431044   0.869   1.271   6.029  0.7761  0.3408  0.3968
 7820SOL     OW31045   0.542   5.489   3.870  0.5224 -0.2484 -0.1508
 7820SOL    HW231046   0.598   5.420   3.834  0.3904 -0.3526 -0.1550
 7820SOL    HW331047   0.457   5.477   3.828  0.8791  0.7982 -1.2359
 7820SOL    MW431048   0.539   5.479   3.860  0.2077  0.0653 -0.4588
 7821SOL     OW31049   2.580   2.566   0.657  0.3664 -0.0188 -0.7281
 7821SOL    HW231050   2.578   2.544   0.750  0.2566  1.2362 -0.4181
 7821SOL    HW331051   2.534   2.493   0.615 -0.9357  0.1178  0.3682
 7821SOL    MW431052   2.573   2.553   0.664  0.0144  0.8287  0.1121
 7822SOL     OW31053   3.899   1.547   5.811  0.0806 -0.4188  0.1807
 7822SOL    HW231054   3.833   1.603   5.770  0.2811 -0.8721 -0.7883
 7822SOL    HW331055   3.924   1.485   5.743  0.9937 -0.7095  0.7571
 7822SOL    MW431056   3.893   1.546   5.797  0.1613  0.4687 -0.4041
 7823SOL     OW31057   3.337   5.580   3.986  0.0037  0.4143 -0.5414
 7823SOL    HW231058   3.275   5.608   4.053  0.7257 -0.2368  0.4228
 7823SOL    HW331059   3.282   5.553   3.912 -0.8847 -0.5176  0.4337
 7823SOL    MW431060   3.322   5.580   3.985 -0.2105 -0.6921 -0.5112
 7824SOL     OW31061   5.213   1.131   3.690 -0.5340  0.3351 -0.2775
 7824SOL    HW231062   5.279   1.131   3.759 -0.2505  4.9292 -0.2549
 7824SOL    HW331063   5.260   1.105   3.611  0.8650  1.5109  0.1308
 7824SOL    MW431064   5.228   1.128   3.689 -0.2280 -0.2775 -0.4785
 7825SOL     OW31065   1.924   3.621   1.469 -0.5902  0.4569 -0.2570
 7825SOL    HW231066   1.895   3.530   1.470 -2.3333  0.9098  2.5394
 7825SOL    HW331067   2.019   3.617   1.461 -0.5335 -1.6806  0.9161
 7825SOL    MW431068   1.933   3.609   1.468  0.3483 -0.1995 -0.3520
 7826SOL     OW31069   4.235   3.354   2.146  0.0988 -0.8506 -0.2132
 7826SOL    HW231070   4.217   3.358   2.052 -0.3728 -1.3295 -0.1486
 7826SOL    HW331071   4.309   3.295   2.154 -0.0969 -1.1029 -0.2545
 7826SOL    MW431072   4.242   3.347   2.135 -0.0022 -0.2388  0.3909
 7827SOL     OW31073   5.392   4.001   5.135  0.5556 -0.5254 -0.5875
 7827SOL    HW231074   5.326   4.031   5.072  0.4156 -0.5159 -0.4349
 7827SOL    HW331075   5.369   3.909   5.152 -1.5645  0.3630  2.1373
 7827SOL    MW431076   5.380   3.993   5.129  0.2677 -1.0719 -0.0184
 7828SOL     OW31077   2.919   5.594   0.908 -0.3268 -0.2516  0.0528
 7828SOL    HW231078   2.828   5.623   0.897  0.1139  0.8655 -0.7466
 7828SOL    HW331079   2.913   5.499   0.906 -1.8218 -0.3327  2.7724
 7828SOL    MW431080   2.906   5.585   0.906  0.4234 -0.1608 -0.4555
 7829SOL     OW31081   5.951   1.214   1.358 -0.4758  0.0051 -0.1283
 7829SOL    HW231082   6.026   1.162   1.329  0.9098  0.9608  1.5185
 7829SOL    HW331083   5.939   1.190   1.449 -2.0854  0.0225 -0.3084
 7829SOL    MW431084   5.959   1.204   1.366 -0.4244  0.1248  0.4171
 7830SOL     OW31085   5.640   2.337   4.719  0.2993 -0.0695  0.4436
 7830SOL    HW231086   5.687   2.364   4.798  2.1144  1.0739 -0.9562
 7830SOL    HW331087   5.691   2.265   4.684 -0.8100 -0.9416  0.5497
 7830SOL    MW431088   5.653   2.331   4.725 -0.3608  0.2526 -0.0046
 7831SOL     OW31089   1.039   0.380   4.729 -0.3248  0.4251 -0.0214
 7831SOL    HW231090   1.017   0.417   4.815 -1.7688  2.4970 -1.1935
 7831SOL    HW331091   1.042   0.456   4.671 -1.3002 -1.0969 -2.1771
 7831SOL    MW431092   1.037   0.395   4.733 -0.0892  0.7521  0.5185
 7832SOL     OW31093   3.188   6.095   0.792 -0.0669  0.3790  0.0640
 7832SOL    HW231094   3.243   6.078   0.868 -0.0332  0.5519  0.0776
 7832SOL    HW331095   3.136   6.015   0.781  0.2969  0.1550 -0.0414
 7832SOL    MW431096   3.189   6.082   0.800  0.1734 -0.0760  0.1492
 7833SOL     OW31097   0.440   4.665   1.672 -0.1584  0.3510  0.1503
 7833SOL    HW231098   0.362   4.703   1.631 -0.7242 -0.1422  0.7333
 7833SOL    HW331099   0.429   4.571   1.659  0.9201  0.3376 -0.7523
 7833SOL    MW431100   0.428   4.658   1.665  0.2546  0.5734  0.8199
 7834SOL     OW31101   2.625   6.220   4.254  0.1128  0.3293  0.0062
 7834SOL    HW231102   2.644   6.129   4.274 -0.5144  0.1364 -0.2439
 7834SOL    HW331103   2.709   6.257   4.226 -0.0726 -0.8001 -2.2339
 7834SOL    MW431104   2.639   6.213   4.253  0.1425 -0.0574 -0.4454
 7835SOL     OW31105   0.774   3.322   2.474 -0.2716  0.4326 -0.8909
 7835SOL    HW231106   0.828   3.399   2.491  1.2409 -0.9926  1.3672
 7835SOL    HW331107   0.786   3.267   2.551 -2.8935 -1.1901 -1.5070
 7835SOL    MW431108   0.783   3.325   2.486 -0.5621 -1.1642 -0.3402
 7836SOL     OW31109   4.688   0.067   4.341 -0.4632 -0.1331 -0.3213
 7836SOL    HW231110   4.645   0.060   4.256  1.1524  1.2192 -1.3178
 7836SOL    HW331111   4.781   0.058   4.321 -0.0779 -0.1878  1.3716
 7836SOL    MW431112   4.695   0.065   4.327  0.1018 -0.3117 -0.2167
 7837SOL     OW31113   5.588   1.276   4.387  0.0803  0.0235 -0.3538
 7837SOL    HW231114   5.530   1.217   4.338  0.7551 -1.5548  0.6577
 7837SOL    HW331115   5.563   1.363   4.358 -0.6406 -0.7590 -2.2879
 7837SOL    MW431116   5.577   1.280   4.377 -0.6525 -0.1825  0.1695
 7838SOL     OW31117   3.599   4.448   5.471 -0.2358 -0.0573  0.3551
 7838SOL    HW231118   3.582   4.539   5.445  0.4187  0.3951  1.4358
 7838SOL    HW331119   3.637   4.455   5.558  1.7108 -1.2392 -0.3383
 7838SOL    MW431120   3.602   4.461   5.479 -0.2721  0.3455  1.1536
 7839SOL     OW31121   3.785   2.526   2.845  0.3422 -0.1625 -0.2721
 7839SOL    HW231122   3.788   2.474   2.764 -1.8821 -0.3739 -0.2810
 7839SOL    HW331123   3.813   2.613   2.818  1.8771 -0.7668 -0.7470
 7839SOL    MW431124   3.789   2.531   2.831  0.3145 -0.6900  0.4590
 7840SOL     OW31125   2.239   0.465   2.163  0.1109  0.1744 -0.2983
 7840SOL    HW231126   2.326   0.425   2.158 -0.5352 -1.2690 -0.5583
 7840SOL    HW331127   2.192   0.413   2.229 -1.0494 -0.0857 -1.2891
 7840SOL    MW431128   2.244   0.453   2.171 -0.2297  0.0967  0.3007
 7841SOL     OW31129   2.460   5.355   1.518 -0.7877 -0.0366 -0.2711
 7841SOL    HW231130   2.499   5.268   1.523 -0.4496  0.1364  0.2601
 7841SOL    HW331131   2.535   5.414   1.509 -0.8921  0.3051  0.8676
 7841SOL    MW431132   2.475   5.351   1.518  0.0167  0.2873 -0.0487
 7842SOL     OW31133   1.761   5.032   2.824 -0.0662  0.3169  0.2224
 7842SOL    HW231134   1.728   4.956   2.775  0.1569  2.1361 -2.9731
 7842SOL    HW331135   1.854   5.015   2.834  0.1120  0.4404 -1.0837
 7842SOL    MW431136   1.769   5.019   2.819 -0.0560  0.0499  0.4643
 7843SOL     OW31137   0.350   5.977   1.316  0.7654 -0.0603  0.1811
 7843SOL    HW231138   0.375   6.059   1.359  0.9427  0.5154 -0.9864
 7843SOL    HW331139   0.290   6.004   1.246  0.1248 -1.0173  0.3460
 7843SOL    MW431140   0.345   5.991   1.312  0.0865 -0.3902 -0.4536
 7844SOL     OW31141   2.370   2.374   1.536  0.1466 -0.6658 -0.5722
 7844SOL    HW231142   2.289   2.420   1.514 -0.4171 -1.4887 -0.2250
 7844SOL    HW331143   2.426   2.442   1.574 -1.1744 -0.5186  1.2142
 7844SOL    MW431144   2.367   2.389   1.538  0.2619  0.3168  0.9226
 7845SOL     OW31145   1.174   0.694   4.211 -0.0638  0.6355  0.1194
 7845SOL    HW231146   1.087   0.726   4.233 -0.8501 -1.0269 -0.3898
 7845SOL    HW331147   1.169   0.671   4.118  0.8080  0.1853  0.1674
 7845SOL    MW431148   1.162   0.695   4.202 -0.7246  0.3297  0.0611
 7846SOL     OW31149   1.044   3.474   5.873  0.4665 -0.2454 -0.3102
 7846SOL    HW231150   1.129   3.494   5.833  0.8413 -1.7452 -0.3324
 7846SOL    HW331151   0.984   3.464   5.799  0.2495  0.7750 -0.2962
 7846SOL    MW431152   1.047   3.475   5.858 -0.0883  0.2815 -0.4007
 7847SOL     OW31153   2.190   5.610   6.384 -0.2027 -0.1345 -0.6739
 7847SOL    HW231154   2.115   5.666   6.405 -1.3365 -0.9573 -2.3587
 7847SOL    HW331155   2.194   5.608   6.289  0.5893 -1.9043 -0.6455
 7847SOL    MW431156   2.181   5.617   6.374 -0.3323 -0.1998  0.2499
 7848SOL     OW31157   1.157   5.921   0.445  0.0657  0.0819  0.1227
 7848SOL    HW231158   1.066   5.939   0.424 -0.6134 -1.2398  1.7521
 7848SOL    HW331159   1.175   5.972   0.524 -0.3790 -2.3052  1.8541
 7848SOL    MW431160   1.148   5.930   0.453  0.0490 -0.0635  0.1267
 7849SOL     OW31161   0.078   3.294   4.485 -0.3588  0.2096  0.0644
 7849SOL    HW231162   0.020   3.218   4.493 -0.7651  0.7139  3.1990
 7849SOL    HW331163   0.166   3.257   4.492 -0.3693 -0.2638 -1.8457
 7849SOL    MW431164   0.082   3.279   4.487 -0.6992 -0.0727  0.2307
 7850SOL     OW31165   6.063   4.042   6.354 -0.3090  0.7232 -0.2805
 7850SOL    HW231166   6.104   4.018   6.437  0.0208  0.4884 -0.5082
 7850SOL    HW331167   6.073   4.137   6.349 -1.5846  0.9265  0.6060
 7850SOL    MW431168   6.070   4.051   6.365 -0.5131 -0.1464 -0.8483
 7851SOL     OW31169   2.962   4.681   5.229  0.5852  0.4266  0.4962
 7851SOL    HW231170   2.877   4.705   5.265  0.9539  1.4515  0.7370
 7851SOL    HW331171   3.009   4.641   5.303 -0.6862 -2.9939 -0.3580
 7851SOL    MW431172   2.957   4.679   5.243  0.1575 -0.2681  0.6899
 7852SOL     OW31173   2.465   4.492   3.318  0.7204 -0.4256  0.4745
 7852SOL    HW231174   2.476   4.514   3.226 -0.3520 -0.8992  0.2159
 7852SOL    HW331175   2.554   4.473   3.349  1.2127  0.7096 -0.1893
 7852SOL    MW431176   2.478   4.492   3.310  0.3399 -0.4156 -0.4494
 7853SOL     OW31177   1.191   2.587   5.988  0.9860 -0.6310  0.1531
 7853SOL    HW231178   1.151   2.633   6.061 -0.5238 -0.0469 -0.9944
 7853SOL    HW331179   1.203   2.654   5.920  2.3518 -1.1549 -0.1708
 7853SOL    MW431180   1.187   2.602   5.988  0.4943 -0.2893 -0.0159
 7854SOL     OW31181   2.934   3.787   0.786 -0.3597 -0.6254  0.5327
 7854SOL    HW231182   2.880   3.859   0.820 -0.9720 -1.4392  1.3599
 7854SOL    HW331183   2.937   3.801   0.692 -1.7237 -0.3396  0.5083
 7854SOL    MW431184   2.927   3.798   0.778  0.1118  0.9128 -0.3521
 7855SOL     OW31185   2.437   0.354   4.815 -0.0956 -0.5951  0.4724
 7855SOL    HW231186   2.407   0.264   4.801  0.5913 -0.7249 -0.2591
 7855SOL    HW331187   2.375   0.391   4.877 -1.3377 -1.0856 -0.4335
 7855SOL    MW431188   2.425   0.347   4.821 -0.0122 -0.3213 -0.0100
 7856SOL     OW31189   0.211   1.570   4.899 -0.5805  0.1227  0.2451
 7856SOL    HW231190   0.157   1.496   4.873 -0.2704  0.1544 -0.5302
 7856SOL    HW331191   0.205   1.631   4.825  2.4525 -0.9233 -1.0086
 7856SOL    MW431192   0.203   1.568   4.885 -0.2095  0.5669 -0.1833
 7857SOL     OW31193   3.757   3.116   0.420  0.0911 -0.1556 -0.2516
 7857SOL    HW231194   3.768   3.156   0.507  2.8754 -1.5165  0.1206
 7857SOL    HW331195   3.815   3.165   0.363  0.3888 -1.0240 -0.7145
 7857SOL    MW431196   3.766   3.128   0.424  0.2704  0.3263 -0.3893
 7858SOL     OW31197   1.276   4.895   4.058 -0.4476 -0.3980  0.3634
 7858SOL    HW231198   1.348   4.887   3.995 -0.8294 -0.2997 -0.0805
 7858SOL    HW331199   1.313   4.860   4.139  0.8713  1.6679  0.7505
 7858SOL    MW431200   1.291   4.890   4.060  0.1288 -0.4262 -0.9094
 7859SOL     OW31201   1.612   6.249   5.567 -0.4358  0.0640  0.2914
 7859SOL    HW231202   1.554   6.242   5.642 -1.0069  1.1657 -0.0180
 7859SOL    HW331203   1.699   6.230   5.602 -0.8027 -0.2757  1.0457
 7859SOL    MW431204   1.616   6.246   5.581 -0.0327  0.0260 -0.4293
 7860SOL     OW31205   1.448   3.888   2.269  0.1452 -0.5998 -0.1726
 7860SOL    HW231206   1.409   3.842   2.344  2.1495 -0.1147  1.2486
 7860SOL    HW331207   1.394   3.966   2.258 -0.4343 -0.8964  0.4824
 7860SOL    MW431208   1.436   3.892   2.277 -0.5151 -0.0693  0.1678
 7861SOL     OW31209   2.352   5.837   2.885 -0.3634  0.9535 -0.3468
 7861SOL    HW231210   2.329   5.827   2.977  1.6127  0.3917  0.1348
 7861SOL    HW331211   2.305   5.915   2.857  0.1824  2.0292  1.5634
 7861SOL    MW431212   2.343   5.846   2.893  0.0404 -0.1524  0.1331
 7862SOL     OW31213   5.476   2.983   1.327 -0.1346  0.6765 -0.5274
 7862SOL    HW231214   5.393   3.009   1.366  0.3136  0.9112  0.2941
 7862SOL    HW331215   5.452   2.943   1.243 -1.3474 -2.0509  0.9724
 7862SOL    MW431216   5.462   2.981   1.321  0.0904 -1.0574 -0.0901
 7863SOL     OW31217   2.646   4.398   0.730  0.1938 -0.1823  0.3483
 7863SOL    HW231218   2.723   4.348   0.757  0.9960 -0.0981 -1.6224
 7863SOL    HW331219   2.584   4.332   0.700  0.2382 -0.1524  0.1878
 7863SOL    MW431220   2.648   4.382   0.730 -0.2460 -0.4255 -0.6734
 7864SOL     OW31221   4.187   5.193   4.127 -0.6518 -0.4500  0.4924
 7864SOL    HW231222   4.203   5.141   4.205  0.4714 -1.0703 -0.1141
 7864SOL    HW331223   4.115   5.251   4.150  0.2553  0.0302  2.2958
 7864SOL    MW431224   4.180   5.194   4.140 -0.2309  0.3897 -0.1704
 7865SOL     OW31225   3.869   1.273   5.307  0.2375 -0.5620 -0.2073
 7865SOL    HW231226   3.930   1.311   5.244  0.2820 -0.2626  0.0186
 7865SOL    HW331227   3.864   1.336   5.378  2.1907 -2.0622  1.3619
 7865SOL    MW431228   3.876   1.286   5.308  0.0539  0.7169 -0.7158
 7866SOL     OW31229   4.035   3.679   0.553  0.5096  0.4619 -0.1137
 7866SOL    HW231230   4.109   3.699   0.497 -0.3549  0.1104 -1.4265
 7866SOL    HW331231   3.959   3.718   0.509 -0.4384 -1.2373 -0.1038
 7866SOL    MW431232   4.034   3.687   0.540  0.0502 -0.4229  0.1304
 7867SOL     OW31233   1.906   0.129   6.096 -0.0458 -0.3382 -0.5804
 7867SOL    HW231234   1.852   0.191   6.047 -1.6073 -1.2196 -0.0363
 7867SOL    HW331235   1.886   0.043   6.058  2.3383 -0.5601 -1.5514
 7867SOL    MW431236   1.897   0.126   6.084 -0.0202 -0.5351 -0.2706
 7868SOL     OW31237   2.204   6.326   5.147 -0.8792  0.1317  0.4759
 7868SOL    HW231238   2.173   6.372   5.069  0.6128  1.0378  0.3763
 7868SOL    HW331239   2.152   6.246   5.150 -0.4009 -0.3500 -1.9381
 7868SOL    MW431240   2.193   6.321   5.137  0.3026  0.3969 -0.5677
 7869SOL     OW31241   3.698   3.089   2.426 -0.2229 -0.4916  0.2544
 7869SOL    HW231242   3.658   3.032   2.491 -1.3974  0.7111  0.6237
 7869SOL    HW331243   3.668   3.054   2.342  2.3118 -2.8260  0.1911
 7869SOL    MW431244   3.689   3.077   2.423  0.0709 -0.3500  0.7341
 7870SOL     OW31245   0.038   0.548   3.829  0.1588 -0.1577  0.0956
 7870SOL    HW231246   0.046   0.608   3.904  0.4246 -0.0221 -0.0397
 7870SOL    HW331247   0.123   0.503   3.826 -0.0009 -0.4662  0.1312
 7870SOL    MW431248   0.051   0.550   3.839 -0.2994  0.4272  0.0184
 7871SOL     OW31249   0.175   0.383   4.147  0.1185 -0.0923 -0.7345
 7871SOL    HW231250   0.159   0.326   4.222 -2.1395  0.3670 -0.7923
 7871SOL    HW331251   0.204   0.466   4.185  1.5553 -0.6453 -0.5550
 7871SOL    MW431252   0.177   0.387   4.161 -0.2859 -0.2815  0.4315
 7872SOL     OW31253   4.390   1.856   5.214 -0.2117  0.2958 -0.2178
 7872SOL    HW231254   4.351   1.820   5.134  4.3326 -2.6490 -1.4970
 7872SOL    HW331255   4.406   1.948   5.193 -1.1237  0.1393 -1.8036
 7872SOL    MW431256   4.387   1.863   5.201 -0.0435  0.0246  0.7198
 7873SOL     OW31257   6.364   5.027   5.358  0.0957 -0.6362 -0.4759
 7873SOL    HW231258   6.375   4.952   5.300  1.2140 -0.3782 -0.6029
 7873SOL    HW331259   6.449   5.038   5.400 -0.6399 -0.7294  1.1224
 7873SOL    MW431260   6.376   5.018   5.356  0.0043  0.1649  0.1598
 7874SOL     OW31261   2.736   4.999   1.074  0.1028 -0.7025 -0.3299
 7874SOL    HW231262   2.743   4.968   0.984  1.8798 -0.6921 -0.2386
 7874SOL    HW331263   2.739   4.920   1.127 -1.4485 -0.7453 -0.2691
 7874SOL    MW431264   2.737   4.984   1.069  0.2359 -0.3950 -0.0334
 7875SOL     OW31265   2.800   4.941   6.040  0.1635 -0.5202  0.0276
 7875SOL    HW231266   2.766   4.989   6.116 -0.2333 -0.0268 -0.4494
 7875SOL    HW331267   2.894   4.933   6.057 -0.1671 -1.9222  1.3720
 7875SOL    MW431268   2.808   4.946   6.052 -0.0121 -0.2994  0.0915
 7876SOL     OW31269   0.143   3.057   2.552 -0.6084  0.6041 -0.6762
 7876SOL    HW231270   0.193   2.976   2.555  0.9755  1.4055 -2.6619
 7876SOL    HW331271   0.131   3.081   2.644 -0.3985 -1.4230 -0.0669
 7876SOL    MW431272   0.148   3.050   2.565  0.3374  0.1843 -0.1201
 7877SOL     OW31273   0.457   4.638   2.684  0.3708  0.4373  0.4304
 7877SOL    HW231274   0.524   4.701   2.657 -0.9174  2.1433  0.9906
 7877SOL    HW331275   0.504   4.555   2.693  2.1761  1.3316 -0.2075
 7877SOL    MW431276   0.472   4.636   2.682  0.8054  0.4371  0.4784
 7878SOL     OW31277   1.462   3.470   6.357  0.4595 -0.1555  0.4091
 7878SOL    HW231278   1.396   3.526   6.316  1.2370 -0.7585 -1.8454
 7878SOL    HW331279   1.427   3.451   6.444 -0.8061  2.0866  0.4597
 7878SOL    MW431280   1.449   3.475   6.363  0.3369  0.4286 -0.3028
 7879SOL     OW31281   1.792   2.340   6.312  0.9084 -0.0492 -0.7533
 7879SOL    HW231282   1.857   2.281   6.349 -1.3087 -0.7480  2.4803
 7879SOL    HW331283   1.801   2.421   6.362 -1.4813 -0.6466  0.8526
 7879SOL    MW431284   1.802   2.343   6.324 -0.3239  0.1076  0.0790
 7880SOL     OW31285   3.975   3.211   1.580  0.2814 -0.3661  0.2869
 7880SOL    HW231286   3.887   3.176   1.591 -0.8152  2.5595  2.0062
 7880SOL    HW331287   3.970   3.267   1.503  0.6601 -0.2590  0.3367
 7880SOL    MW431288   3.963   3.214   1.572  0.0205  0.1822 -0.0883
 7881SOL     OW31289   4.404   6.088   4.661 -0.2169  0.5850 -0.6346
 7881SOL    HW231290   4.436   6.065   4.574  2.6959 -2.4874  1.0065
 7881SOL    HW331291   4.480   6.125   4.706 -1.1056  0.3955  1.1272
 7881SOL    MW431292   4.418   6.090   4.656 -1.6289  0.1071  0.1510
 7882SOL     OW31293   5.054   5.562   1.563 -0.1577  0.0849  0.1827
 7882SOL    HW231294   5.010   5.602   1.487 -1.0825  3.3892  2.2547
 7882SOL    HW331295   4.991   5.572   1.635  0.8271 -2.5931  1.5531
 7882SOL    MW431296   5.040   5.569   1.562  0.0976 -0.0815  0.2982
 7883SOL     OW31297   0.391   4.215   2.721  0.0548 -0.1219  0.5821
 7883SOL    HW231298   0.467   4.265   2.694  1.3330 -0.4463  3.2929
 7883SOL    HW331299   0.404   4.129   2.680 -1.4349  1.1014 -2.9021
 7883SOL    MW431300   0.403   4.210   2.712  0.1171 -0.1418 -0.6381
 7884SOL     OW31301   5.975   1.453   2.588 -0.3422 -0.4653 -0.0447
 7884SOL    HW231302   5.892   1.420   2.623  0.0583 -0.9812  0.4325
 7884SOL    HW331303   5.987   1.403   2.507 -0.6693 -0.1375 -0.2979
 7884SOL    MW431304   5.966   1.442   2.582  0.5529 -0.0347  0.2238
 7885SOL     OW31305   6.056   1.468   4.588 -1.0421 -0.4512  0.0893
 7885SOL    HW231306   5.975   1.513   4.565 -2.3830 -1.9279  1.6997
 7885SOL    HW331307   6.062   1.475   4.683 -0.1150 -1.6937  0.1547
 7885SOL    MW431308   6.047   1.475   4.597 -0.1191  0.1805  0.2074
 7886SOL     OW31309   5.368   3.122   4.735  0.4417 -0.2265  0.0006
 7886SOL    HW231310   5.435   3.053   4.743 -1.1354 -1.7784  0.2963
 7886SOL    HW331311   5.296   3.079   4.689 -0.9706  0.9546  1.0546
 7886SOL    MW431312   5.368   3.107   4.730 -0.7866 -0.3897 -0.3307
 7887SOL     OW31313   5.434   1.730   0.841 -0.2632  0.5489  0.3950
 7887SOL    HW231314   5.523   1.745   0.807  0.1628 -1.0926  0.6718
 7887SOL    HW331315   5.443   1.653   0.897 -1.8459  0.4195  0.5124
 7887SOL    MW431316   5.447   1.721   0.844  0.8192  0.7171  0.1617
 7888SOL     OW31317   4.090   0.789   0.029 -0.6499  0.3559 -0.0233
 7888SOL    HW231318   4.043   0.709   0.055 -0.3297  0.6901  1.7732
 7888SOL    HW331319   4.043   0.859   0.075  0.2775  0.9448  0.0419
 7888SOL    MW431320   4.077   0.787   0.039  0.5388 -0.7152  0.4253
 7889SOL     OW31321   2.993   4.177   4.822 -0.0086 -0.5341 -0.1627
 7889SOL    HW231322   2.905   4.142   4.833  0.3685 -1.5047 -0.1660
 7889SOL    HW331323   3.047   4.101   4.799  0.4620  0.3220 -2.1404
 7889SOL    MW431324   2.988   4.163   4.820  0.2368 -0.1710 -0.4093
 7890SOL     OW31325   1.084   1.748   2.864  0.3116  0.2543  0.0399
 7890SOL    HW231326   1.098   1.777   2.774 -1.7014 -0.9525 -0.7349
 7890SOL    HW331327   1.124   1.661   2.867  0.4383  0.3234  0.3279
 7890SOL    MW431328   1.091   1.740   2.852 -0.2830  0.3020  0.1878
 7891SOL     OW31329   6.121   0.605   2.136 -0.0601 -0.2712 -0.3585
 7891SOL    HW231330   6.191   0.593   2.200 -0.8417  0.5097  0.6653
 7891SOL    HW331331   6.165   0.600   2.051  1.2306  0.1757  0.2652
 7891SOL    MW431332   6.136   0.603   2.133 -0.0294  0.0947  0.1124
 7892SOL     OW31333   5.309   1.962   6.136 -0.2539  0.2314  0.1304
 7892SOL    HW231334   5.250   1.951   6.061  0.7938 -1.3173 -0.5283
 7892SOL    HW331335   5.345   2.050   6.127 -0.6543  0.3034 -0.8107
 7892SOL    MW431336   5.306   1.972   6.125  0.0660 -0.2330  0.6038
 7893SOL     OW31337   2.868   4.353   5.756 -0.3275 -0.5207 -0.1232
 7893SOL    HW231338   2.826   4.268   5.770 -3.3863  0.9657  0.6257
 7893SOL    HW331339   2.817   4.414   5.809  1.3878  1.9020 -1.0826
 7893SOL    MW431340   2.856   4.350   5.765 -0.0242  0.4168 -0.2966
 7894SOL     OW31341   2.293   0.228   1.634  0.9647  0.0270  0.0479
 7894SOL    HW231342   2.205   0.262   1.651  0.3883 -1.6702  0.6696
 7894SOL    HW331343   2.341   0.245   1.715  1.8207  2.5986 -0.9078
 7894SOL    MW431344   2.288   0.235   1.647  0.0948 -0.1473 -0.1131
 7895SOL     OW31345   1.999   6.010   4.530  0.3579  0.0495 -0.1448
 7895SOL    HW231346   2.059   5.935   4.532 -0.3296 -0.6104 -1.9414
 7895SOL    HW331347   2.024   6.058   4.451 -0.3280  0.7684  0.0621
 7895SOL    MW431348   2.010   6.006   4.520  0.2100  0.0554 -0.4276
 7896SOL     OW31349   3.417   5.235   5.741 -0.2073 -0.3380 -0.0627
 7896SOL    HW231350   3.422   5.142   5.720  0.1436 -0.4498  0.5147
 7896SOL    HW331351   3.437   5.241   5.834  0.2228  0.3628 -0.1907
 7896SOL    MW431352   3.420   5.224   5.750 -0.0586 -0.0110  0.6457
 7897SOL     OW31353   5.800   0.621   1.330 -0.0829  0.8759  0.0528
 7897SOL    HW231354   5.751   0.562   1.274  0.1616 -2.6701  3.2338
 7897SOL    HW331355   5.876   0.646   1.277 -0.6804 -0.9115 -1.7792
 7897SOL    MW431356   5.804   0.617   1.315 -0.1764 -0.5063 -0.2879
 7898SOL     OW31357   0.299   6.398   3.524  0.4974  0.0409  0.3302
 7898SOL    HW231358   0.269   6.468   3.581  1.1004  0.4381  0.1675
 7898SOL    HW331359   0.382   6.429   3.488  1.0884 -1.0061  0.7314
 7898SOL    MW431360   0.306   6.411   3.527  0.4821  0.1247 -0.0349
 7899SOL     OW31361   0.842   1.030   6.289 -0.0201 -0.1142  0.6312
 7899SOL    HW231362   0.808   1.108   6.333 -3.5630 -0.4937 -1.0776
 7899SOL    HW331363   0.818   0.958   6.346 -2.8014 -0.4251 -0.7872
 7899SOL    MW431364   0.835   1.031   6.302 -0.8644 -0.1260 -0.1222
 7900SOL     OW31365   4.909   1.282   0.127  0.0192  0.1073  0.0326
 7900SOL    HW231366   4.982   1.267   0.188  0.2547 -1.3350 -0.5844
 7900SOL    HW331367   4.846   1.214   0.147  0.2170 -0.5714 -1.4915
 7900SOL    MW431368   4.911   1.271   0.138 -0.1078 -0.2906 -0.2818
 7901SOL     OW31369   1.089   0.822   0.887  0.2413 -0.5205 -0.3106
 7901SOL    HW231370   1.131   0.826   0.973  2.3556  2.2919 -1.3488
 7901SOL    HW331371   1.005   0.865   0.900  0.3787 -0.4398  0.3988
 7901SOL    MW431372   1.084   0.828   0.900  0.2398  0.8364 -0.0246
 7902SOL     OW31373   5.901   1.293   5.675  0.3030  0.3072  0.3256
 7902SOL    HW231374   5.857   1.212   5.698  0.7254  0.8258  3.3067
 7902SOL    HW331375   5.960   1.269   5.604 -0.6349 -1.6380  0.1333
 7902SOL    MW431376   5.903   1.279   5.669 -0.0298 -0.1471  0.0271
 7903SOL     OW31377   0.002   1.050   5.765  0.4174  0.2187  0.1978
 7903SOL    HW231378  -0.013   0.991   5.839 -0.9902 -2.0186 -1.7005
 7903SOL    HW331379  -0.077   1.102   5.759  1.3524  1.8661  1.4077
 7903SOL    MW431380  -0.010   1.049   5.774 -0.0725  0.2426  0.0533
 7904SOL     OW31381   3.002   4.713   4.137 -0.1785 -0.1216  0.4840
 7904SOL    HW231382   2.997   4.721   4.232 -1.7015  0.3311  0.3975
 7904SOL    HW331383   2.933   4.770   4.104  2.2673  2.1815 -1.0601
 7904SOL    MW431384   2.992   4.721   4.145 -0.4244  0.8149  0.1706
 7905SOL     OW31385   4.343   2.646   5.796  0.9764  0.0733 -0.0369
 7905SOL    HW231386   4.312   2.662   5.885 -0.7914  4.1897 -1.1781
 7905SOL    HW331387   4.269   2.601   5.753  2.1544 -2.7199  0.6261
 7905SOL    MW431388   4.329   2.642   5.802 -0.1732  0.2627  0.3887
 7906SOL     OW31389   2.961   2.207   3.204  0.6727 -0.0548 -0.6563
 7906SOL    HW231390   2.899   2.160   3.260 -0.7717  0.7753 -1.4736
 7906SOL    HW331391   2.920   2.293   3.191  2.1758  0.6435 -0.9762
 7906SOL    MW431392   2.947   2.212   3.210  0.6516 -0.0241  0.5092
 7907SOL     OW31393   2.426   5.182   4.874 -0.2793 -0.3549 -0.4025
 7907SOL    HW231394   2.334   5.203   4.889 -0.3324  1.4606 -2.6927
 7907SOL    HW331395   2.470   5.267   4.874  1.1346 -1.0493 -0.9125
 7907SOL    MW431396   2.420   5.196   4.876  0.5115  0.2862  0.6890
 7908SOL     OW31397   4.848   1.564   6.004  0.1251  0.1829 -0.0403
 7908SOL    HW231398   4.901   1.644   6.007  1.0959 -0.4950  1.5433
 7908SOL    HW331399   4.810   1.557   6.091 -0.2303 -0.9035 -0.2717
 7908SOL    MW431400   4.850   1.574   6.016 -0.0626  0.2219  0.7132
 7909SOL     OW31401   0.442   5.083   3.821  0.2325  0.1501  0.1470
 7909SOL    HW231402   0.361   5.064   3.774 -0.6125 -1.4444  2.0944
 7909SOL    HW331403   0.486   4.998   3.828  2.4977  1.0800 -1.4635
 7909SOL    MW431404   0.437   5.069   3.816 -0.1794 -0.4869 -0.1912
 7910SOL     OW31405   3.626   4.970   5.618 -0.1128  0.6388 -0.2703
 7910SOL    HW231406   3.705   5.013   5.651  0.7092 -0.5716 -0.5909
 7910SOL    HW331407   3.604   5.018   5.538  0.4088  0.8735 -0.2788
 7910SOL    MW431408   3.633   4.982   5.612 -0.1757  0.2384 -0.5922
 7911SOL     OW31409   6.406   4.438   0.692  0.1171 -0.0737 -0.3770
 7911SOL    HW231410   6.346   4.427   0.618 -0.6554 -1.6862  0.4155
 7911SOL    HW331411   6.356   4.488   0.757  0.2225  0.0061 -0.3576
 7911SOL    MW431412   6.391   4.443   0.691 -0.0119  0.1271  0.0970
 7912SOL     OW31413   1.401   0.353   2.225  0.3929  0.0578 -0.1100
 7912SOL    HW231414   1.466   0.331   2.292  1.1754 -1.6007 -1.3281
 7912SOL    HW331415   1.411   0.447   2.212  1.3995  0.1152  0.9037
 7912SOL    MW431416   1.411   0.363   2.232  0.0452 -0.1746 -0.1305
 7913SOL     OW31417   3.463   3.186   0.538  0.4392  0.0896  0.4536
 7913SOL    HW231418   3.369   3.201   0.537  0.4015 -0.1504  0.6215
 7913SOL    HW331419   3.474   3.098   0.573  0.7391  0.2078  0.6626
 7913SOL    MW431420   3.452   3.177   0.542 -0.1353  0.6642 -0.6062
 7914SOL     OW31421   4.525   5.998   5.286  0.3328 -0.4742  0.4274
 7914SOL    HW231422   4.563   5.930   5.341 -0.7664 -1.5353 -0.0861
 7914SOL    HW331423   4.592   6.015   5.219  0.3727 -1.4986  0.1973
 7914SOL    MW431424   4.539   5.991   5.284  0.0123 -0.2741  0.7584
 7915SOL     OW31425   3.445   1.830   0.023 -0.1443  0.1392  0.4520
 7915SOL    HW231426   3.526   1.800  -0.018  1.1242  1.1601  2.0536
 7915SOL    HW331427   3.413   1.754   0.072 -0.5154 -0.4533 -0.6889
 7915SOL    MW431428   3.451   1.816   0.024 -0.4354  0.7220 -0.2163
 7916SOL     OW31429   1.685   4.786   3.340 -0.7358  0.2411  0.3257
 7916SOL    HW231430   1.601   4.762   3.380 -1.0380  0.8266  0.0590
 7916SOL    HW331431   1.709   4.868   3.384 -1.2036  1.0442 -0.8542
 7916SOL    MW431432   1.677   4.794   3.351 -0.1740 -0.4457 -0.3196
 7917SOL     OW31433   4.539   4.873   4.026 -0.0422  0.2929  0.0674
 7917SOL    HW231434   4.486   4.952   4.023 -0.8689 -0.1184  2.0505
 7917SOL    HW331435   4.493   4.815   4.087  2.5342 -0.1843  1.7528
 7917SOL    MW431436   4.526   4.876   4.033 -0.6597  0.6359  0.7932
 7918SOL     OW31437   3.838   4.632   0.072  0.0069 -0.6680 -0.3179
 7918SOL    HW231438   3.894   4.688   0.019 -0.2959  0.2309  0.2892
 7918SOL    HW331439   3.828   4.679   0.154 -1.7165 -0.7416 -0.4425
 7918SOL    MW431440   3.844   4.645   0.076  0.1458 -0.6656  0.7547
 7919SOL     OW31441   2.440   5.420   2.422 -0.8005 -0.1887 -0.1164
 7919SOL    HW231442   2.352   5.447   2.397 -0.9652  0.2102  0.8630
 7919SOL    HW331443   2.460   5.471   2.500  0.1744 -0.5167 -0.1364
 7919SOL    MW431444   2.431   5.430   2.429  0.3112  0.0467  0.2089
 7920SOL     OW31445   1.118   0.892   2.705  0.4123 -0.4066 -0.7137
 7920SOL    HW231446   1.050   0.826   2.695  0.6078 -0.7881  0.3757
 7920SOL    HW331447   1.070   0.973   2.722  0.2270 -0.7519  0.4615
 7920SOL    MW431448   1.103   0.894   2.706  0.0298  0.0772  0.5995
 7921SOL     OW31449   4.357   4.617   0.881  0.2668 -0.3281 -0.0285
 7921SOL    HW231450   4.366   4.673   0.958  1.6669 -1.9688  1.0696
 7921SOL    HW331451   4.263   4.619   0.861 -0.3564 -0.8119  2.4985
 7921SOL    MW431452   4.346   4.625   0.888  0.3816  1.0790 -0.0808
 7922SOL     OW31453   4.308   3.876   2.879 -0.5094 -0.4649  0.2169
 7922SOL    HW231454   4.391   3.922   2.885 -0.2690 -0.8890  0.1897
 7922SOL    HW331455   4.248   3.927   2.935  0.2276 -1.1336  1.6877
 7922SOL    MW431456   4.311   3.889   2.887 -0.7283  0.6673  0.0696
 7923SOL     OW31457   4.575   4.209   2.751 -0.1559  0.1870  0.5608
 7923SOL    HW231458   4.580   4.114   2.757  0.3212 -0.0345 -2.2259
 7923SOL    HW331459   4.665   4.239   2.767 -0.0070  0.0530 -0.0195
 7923SOL    MW431460   4.588   4.201   2.754  0.4305 -0.0967 -0.5125
 7924SOL     OW31461   1.140   1.220   4.295 -0.1624  0.0616 -0.2052
 7924SOL    HW231462   1.154   1.144   4.351 -1.0956 -0.3700 -0.5416
 7924SOL    HW331463   1.229   1.249   4.272  0.2492  0.4243  1.6962
 7924SOL    MW431464   1.154   1.214   4.299 -0.1337  0.0842 -0.0016
 7925SOL     OW31465   2.250   0.788   0.836 -0.0794 -0.3336 -0.0925
 7925SOL    HW231466   2.275   0.864   0.887 -1.4780 -0.7010  1.1987
 7925SOL    HW331467   2.258   0.714   0.896 -1.3052 -0.8419 -0.5244
 7925SOL    MW431468   2.254   0.788   0.850  0.4890  0.0542 -0.1419
 7926SOL     OW31469   0.584   4.819   4.636 -0.0853 -0.3084  0.2527
 7926SOL    HW231470   0.497   4.794   4.668 -0.5646 -0.5455 -1.1645
 7926SOL    HW331471   0.568   4.893   4.577  0.8374  0.4927  0.9651
 7926SOL    MW431472   0.571   4.826   4.632  0.0030 -0.1209  0.4433
 7927SOL     OW31473   2.352   5.329   2.025 -0.1902  0.4700 -0.1796
 7927SOL    HW231474   2.393   5.364   1.946 -1.0455 -3.2685 -2.5161
 7927SOL    HW331475   2.259   5.352   2.016 -0.8823 -2.6020 -2.0751
 7927SOL    MW431476   2.345   5.337   2.014  0.2114 -0.7912 -0.2393
 7928SOL     OW31477   6.061   3.351   1.001 -0.6378 -0.1413  0.0342
 7928SOL    HW231478   6.067   3.326   0.909 -0.8992  0.9279 -0.2989
 7928SOL    HW331479   6.081   3.445   1.001 -3.6067  0.6212  0.5956
 7928SOL    MW431480   6.064   3.360   0.989  0.8958 -0.2502 -0.0492
 7929SOL     OW31481   0.248   2.080   6.034  0.8251 -0.5078  0.4633
 7929SOL    HW231482   0.169   2.036   6.066 -0.8266  1.8680 -0.0639
 7929SOL    HW331483   0.261   2.044   5.946  1.2392 -1.9810  1.1026
 7929SOL    MW431484   0.239   2.070   6.027  0.6304 -0.3584 -0.0744
 7930SOL     OW31485   3.861   4.124   5.908 -0.2016  0.0434  0.1543
 7930SOL    HW231486   3.916   4.087   5.977 -2.3736 -4.9210 -0.2641
 7930SOL    HW331487   3.782   4.154   5.953 -0.2050  0.0196  0.1644
 7930SOL    MW431488   3.858   4.123   5.923 -0.0516  0.6683  0.8572
 7931SOL     OW31489   1.682   1.304   3.489  0.1682 -0.6127 -0.2312
 7931SOL    HW231490   1.596   1.288   3.450 -0.5574 -2.1052  1.8596
 7931SOL    HW331491   1.692   1.236   3.555  2.6829 -0.0428  0.0694
 7931SOL    MW431492   1.672   1.293   3.492  0.4100 -0.3621 -0.0923
 7932SOL     OW31493   4.828   3.594   6.200  0.1521 -0.5502 -0.0203
 7932SOL    HW231494   4.860   3.669   6.248 -0.7663  0.6993 -1.2724
 7932SOL    HW331495   4.898   3.573   6.138  0.4195 -0.7395  0.3475
 7932SOL    MW431496   4.841   3.601   6.198 -0.7949  1.0411  0.0138
 7933SOL     OW31497   0.378   0.935   0.898  0.5992 -0.1444 -0.1517
 7933SOL    HW231498   0.421   0.993   0.836  0.6818 -1.5092 -1.4229
 7933SOL    HW331499   0.408   0.848   0.875 -0.1999 -0.8029  1.1470
 7933SOL    MW431500   0.388   0.931   0.887  0.6996  0.1017  0.3287
 7934SOL     OW31501   2.935   4.064   2.053 -0.4564 -0.6639 -0.0422
 7934SOL    HW231502   2.883   4.049   2.131 -1.6922 -1.3203 -0.9625
 7934SOL    HW331503   2.874   4.054   1.980  0.4509  0.8128 -1.0808
 7934SOL    MW431504   2.920   4.061   2.053 -0.8489  0.4624  0.3813
 7935SOL     OW31505   1.845   5.236   5.422  0.1170 -0.1967  0.1481
 7935SOL    HW231506   1.821   5.149   5.389 -1.0626  0.1826 -0.0381
 7935SOL    HW331507   1.815   5.236   5.513 -1.5417  0.6203 -0.3668
 7935SOL    MW431508   1.838   5.224   5.429 -0.5230 -0.4407 -0.1224
 7936SOL     OW31509   3.065   3.116   6.360 -0.3590  0.3788  0.3294
 7936SOL    HW231510   3.067   3.054   6.432 -0.0730 -0.4071 -0.3407
 7936SOL    HW331511   2.987   3.092   6.309 -0.0122  0.2925 -0.1689
 7936SOL    MW431512   3.055   3.105   6.362 -0.1205  0.0809  0.1044
 7937SOL     OW31513   4.597   0.888   4.467  0.1917  0.1398  0.5694
 7937SOL    HW231514   4.662   0.902   4.398 -0.0040  2.1602  0.7454
 7937SOL    HW331515   4.564   0.799   4.450  1.4359 -0.1108 -0.8177
 7937SOL    MW431516   4.601   0.878   4.456 -0.6162 -0.2403 -0.0977
 7938SOL     OW31517   3.096   3.934   3.011  0.6372  0.1616 -0.0588
 7938SOL    HW231518   3.143   3.918   3.093 -0.0277 -1.9463 -0.0299
 7938SOL    HW331519   3.071   3.847   2.981  0.7040  0.8993 -2.4327
 7938SOL    MW431520   3.099   3.921   3.018  0.0746 -0.5866 -0.1513
 7939SOL     OW31521   3.759   2.877   1.117 -0.0336 -0.5060 -0.2457
 7939SOL    HW231522   3.681   2.919   1.152  1.2087  0.3011  1.7380
 7939SOL    HW331523   3.799   2.942   1.060  0.6534  0.2164  1.0014
 7939SOL    MW431524   3.754   2.891   1.114  0.1789  0.5895  0.0351
 7940SOL     OW31525   0.771   6.044   3.114  0.2721 -0.1040  0.1616
 7940SOL    HW231526   0.703   6.008   3.171 -2.9294  1.7177 -2.2156
 7940SOL    HW331527   0.789   5.974   3.051 -2.1338  0.4981 -1.3194
 7940SOL    MW431528   0.765   6.030   3.113 -0.5267  0.2332  0.3083
 7941SOL     OW31529   2.825   5.568   2.708 -0.2116  0.2837  0.5406
 7941SOL    HW231530   2.880   5.529   2.640 -0.6472 -1.2449  1.0284
 7941SOL    HW331531   2.866   5.542   2.791  0.0485  1.7293  0.9112
 7941SOL    MW431532   2.837   5.560   2.710 -0.6191  0.6752  0.5412
 7942SOL     OW31533   6.315   0.398   4.147 -0.4857 -0.6416  0.1392
 7942SOL    HW231534   6.279   0.438   4.067 -0.6520 -2.2743 -0.6325
 7942SOL    HW331535   6.409   0.394   4.131 -0.3238  0.4091  0.6935
 7942SOL    MW431536   6.323   0.403   4.134  0.2512  0.9038  0.1304
 7943SOL     OW31537   4.591   6.228   2.912 -0.0568 -0.4149 -0.4383
 7943SOL    HW231538   4.515   6.274   2.878  0.6409  0.6428 -0.6223
 7943SOL    HW331539   4.577   6.137   2.887  0.2214  0.2247 -3.3223
 7943SOL    MW431540   4.579   6.222   2.904 -0.1795  0.3765 -0.4741
 7944SOL     OW31541   6.034   1.875   1.255  0.3258 -0.5825 -0.2510
 7944SOL    HW231542   6.125   1.848   1.265  0.3396 -0.1629  0.9172
 7944SOL    HW331543   5.984   1.794   1.254  0.4434 -0.7594  2.3029
 7944SOL    MW431544   6.040   1.861   1.256  0.1773 -0.2477  0.2662
 7945SOL     OW31545   0.732   0.218   1.506 -0.1995 -0.1531  0.3170
 7945SOL    HW231546   0.644   0.257   1.505  0.5552  1.6411 -1.2467
 7945SOL    HW331547   0.775   0.257   1.582 -0.7356 -1.0838  1.1242
 7945SOL    MW431548   0.726   0.229   1.516 -0.2953 -0.4078 -0.3307
 7946SOL     OW31549   4.772   3.203   5.498 -0.5432  0.1793 -0.2177
 7946SOL    HW231550   4.693   3.154   5.475 -1.1947  0.5091  1.1869
 7946SOL    HW331551   4.750   3.294   5.475 -0.6393  0.2931  0.3153
 7946SOL    MW431552   4.759   3.209   5.492  0.3963 -0.1975 -0.2266
 7947SOL     OW31553   3.031   6.421   5.028  0.0614  0.5721  0.0771
 7947SOL    HW231554   3.122   6.447   5.045  0.2252  0.1589 -0.1439
 7947SOL    HW331555   3.036   6.373   4.945 -0.3646  0.5812  0.0479
 7947SOL    MW431556   3.044   6.418   5.019  0.0148  0.1665 -0.3169
 7948SOL     OW31557   0.663   0.076   2.803 -0.1558 -0.4723 -0.4541
 7948SOL    HW231558   0.686   0.061   2.894 -1.4793  0.8392  0.1441
 7948SOL    HW331559   0.726   0.142   2.773 -0.8826  0.5064  0.1121
 7948SOL    MW431560   0.674   0.083   2.811 -0.3174 -0.0311  0.1824
 7949SOL     OW31561   0.036   4.148   0.702  0.0737 -0.6952  0.6190
 7949SOL    HW231562   0.099   4.154   0.630 -0.3074 -0.2164  0.3135
 7949SOL    HW331563   0.068   4.212   0.767 -1.5818  1.6718 -0.7393
 7949SOL    MW431564   0.048   4.157   0.701  0.0922  0.5254 -0.4027
 7950SOL     OW31565   3.398   0.283   5.579 -0.3079  0.4275  0.2158
 7950SOL    HW231566   3.453   0.208   5.555  1.1698  1.2770  0.8132
 7950SOL    HW331567   3.361   0.259   5.664  2.9666  1.6980  2.1725
 7950SOL    MW431568   3.401   0.270   5.587 -0.0805  0.0581  0.0009
 7951SOL     OW31569   1.314   6.298   1.140  0.6339 -0.4113  0.3168
 7951SOL    HW231570   1.271   6.216   1.165  2.1771 -0.5662  2.9208
 7951SOL    HW331571   1.399   6.294   1.184  0.6633  2.7007  0.7640
 7951SOL    MW431572   1.320   6.287   1.149  0.2142 -0.3822 -0.0196
 7952SOL     OW31573   1.428   3.698   5.612 -0.1376  0.4253  0.1718
 7952SOL    HW231574   1.378   3.765   5.658 -0.6479 -1.6223  2.8545
 7952SOL    HW331575   1.517   3.706   5.646  0.2794  0.9545 -0.9838
 7952SOL    MW431576   1.433   3.708   5.622  0.5957 -0.3453 -0.1211
 7953SOL     OW31577   1.019   1.060   6.061  0.1450 -0.0793 -0.2140
 7953SOL    HW231578   0.965   1.041   6.138 -2.1899 -0.6722 -1.9003
 7953SOL    HW331579   1.044   0.974   6.028 -3.1775 -0.2140 -2.9127
 7953SOL    MW431580   1.015   1.046   6.067 -0.7882 -0.5475  0.6804
 7954SOL     OW31581   1.511   2.673   5.835  0.4298 -0.6147 -0.1495
 7954SOL    HW231582   1.533   2.679   5.743  1.2184 -1.3061 -0.0153
 7954SOL    HW331583   1.595   2.682   5.881 -0.0061  0.2159  0.5239
 7954SOL    MW431584   1.525   2.675   5.829 -0.8045 -0.5176 -0.1400
 7955SOL     OW31585   4.118   0.725   4.247  0.0248  0.8269 -0.0722
 7955SOL    HW231586   4.207   0.724   4.210 -0.0092  0.6233 -0.1520
 7955SOL    HW331587   4.103   0.634   4.273 -1.1970  0.2438 -2.5659
 7955SOL    MW431588   4.128   0.713   4.245  0.3032 -0.4816 -0.1711
 7956SOL     OW31589   2.629   3.038   0.353 -0.1905  0.2362 -0.2060
 7956SOL    HW231590   2.545   2.992   0.359  0.5027 -1.1556 -0.5817
 7956SOL    HW331591   2.677   3.011   0.432  0.6971 -0.7294 -1.0348
 7956SOL    MW431592   2.624   3.028   0.365 -0.2173 -0.6916  0.3802
 7957SOL     OW31593   1.222   0.139   1.290 -0.2676 -0.4837  0.0401
 7957SOL    HW231594   1.228   0.048   1.318  1.9028 -0.5795 -0.5519
 7957SOL    HW331595   1.280   0.145   1.214 -2.4987  0.7788 -1.7003
 7957SOL    MW431596   1.230   0.128   1.283 -0.3600  0.2993  0.2622
 7958SOL     OW31597   3.903   4.378   1.598  0.1037  0.2532 -0.3258
 7958SOL    HW231598   3.892   4.311   1.530  2.3361 -1.8386  1.2180
 7958SOL    HW331599   3.827   4.368   1.654 -0.0835 -0.3088 -0.6698
 7958SOL    MW431600   3.892   4.368   1.596  0.2189 -0.1622  0.5000
 7959SOL     OW31601   3.637   5.356   4.358 -0.5135  0.1253 -0.0965
 7959SOL    HW231602   3.677   5.398   4.434 -0.1397 -0.9835  0.3445
 7959SOL    HW331603   3.643   5.422   4.289  0.6003  0.5876  0.4073
 7959SOL    MW431604   3.643   5.370   4.359 -0.2600 -0.1857 -0.1532
 7960SOL     OW31605   3.272   1.438   0.897  0.0353  0.3468 -0.4121
 7960SOL    HW231606   3.227   1.474   0.820 -0.8381  0.2412  0.0334
 7960SOL    HW331607   3.304   1.352   0.868  0.3435  0.6094 -0.8672
 7960SOL    MW431608   3.270   1.431   0.883  0.2951 -0.3415 -0.4750
 7961SOL     OW31609   2.146   6.294   4.523  0.2241 -0.1326  0.1438
 7961SOL    HW231610   2.106   6.273   4.438  0.7655 -0.3617 -0.0556
 7961SOL    HW331611   2.089   6.362   4.559 -0.3941 -0.5005 -0.1014
 7961SOL    MW431612   2.133   6.300   4.516 -0.2899  0.5273 -0.6202
 7962SOL     OW31613   3.580   4.337   6.416  0.2856 -0.6509  0.6385
 7962SOL    HW231614   3.556   4.245   6.425  1.4367 -1.0638 -0.1365
 7962SOL    HW331615   3.513   4.374   6.358  0.4307 -1.2918  0.0422
 7962SOL    MW431616   3.568   4.329   6.409  0.1653  0.3837  0.6732
 7963SOL     OW31617   3.362   1.685   6.038  0.2260  0.0565  0.2136
 7963SOL    HW231618   3.283   1.630   6.029 -0.0037  0.2527  0.9907
 7963SOL    HW331619   3.342   1.743   6.111  1.1420  0.0350  0.4853
 7963SOL    MW431620   3.349   1.685   6.046 -0.7274  0.2033 -0.0883
 7964SOL     OW31621   1.395   2.720   0.421 -0.3740  0.1838  0.7356
 7964SOL    HW231622   1.324   2.783   0.428 -0.7084  0.2080 -1.8478
 7964SOL    HW331623   1.420   2.721   0.329  1.9165 -1.0089  1.2484
 7964SOL    MW431624   1.389   2.728   0.410 -0.5140 -0.1705  0.7229
 7965SOL     OW31625   3.551   0.910   3.428 -0.5348 -0.1905 -0.1704
 7965SOL    HW231626   3.465   0.948   3.413 -0.7423 -0.2759  0.7985
 7965SOL    HW331627   3.568   0.922   3.521  1.2491  1.3653 -0.6306
 7965SOL    MW431628   3.542   0.916   3.438  0.1504 -0.3162 -0.6281
 7966SOL     OW31629   5.523   4.510   4.282 -0.3123 -0.2477 -0.7555
 7966SOL    HW231630   5.575   4.430   4.278  0.1776  0.0452 -0.4293
 7966SOL    HW331631   5.554   4.554   4.361  0.7785  1.1810 -1.9281
 7966SOL    MW431632   5.534   4.505   4.292  0.7856  0.0163 -0.4848
 7967SOL     OW31633   4.783   1.804   5.258  0.1280 -0.3797  0.1862
 7967SOL    HW231634   4.730   1.784   5.334  0.5247 -1.0529  0.2929
 7967SOL    HW331635   4.726   1.788   5.183 -0.8972  2.0813  0.3228
 7967SOL    MW431636   4.769   1.800   5.258 -0.6331  0.7472  0.0379
 7968SOL     OW31637   5.537   2.915   2.078  0.1916 -0.0998 -0.1775
 7968SOL    HW231638   5.615   2.892   2.029  0.2531  0.1391 -0.1926
 7968SOL    HW331639   5.524   3.008   2.060  1.5593  0.6013  2.0980
 7968SOL    MW431640   5.545   2.924   2.069 -0.4757  0.0634 -0.2480
 7969SOL     OW31641   5.032   0.809   3.398  0.1651  0.3111  0.0421
 7969SOL    HW231642   5.104   0.775   3.452 -0.5870  0.5751  1.2475
 7969SOL    HW331643   4.954   0.799   3.453 -0.5608  1.0360 -0.8249
 7969SOL    MW431644   5.031   0.803   3.412 -0.5765  0.4085  0.2265
 7970SOL     OW31645   2.866   5.636   2.271  0.4200  0.7878 -0.3485
 7970SOL    HW231646   2.864   5.605   2.181 -0.7160 -0.9077  0.2101
 7970SOL    HW331647   2.791   5.695   2.278  2.0922  3.1568 -1.1848
 7970SOL    MW431648   2.856   5.639   2.260  0.0060  0.2630  0.0140
 7971SOL     OW31649   5.050   0.201   6.166 -0.3975 -0.2473 -0.2496
 7971SOL    HW231650   5.134   0.237   6.194 -0.3621 -0.5966  0.1013
 7971SOL    HW331651   5.071   0.146   6.091 -0.0975 -1.4569  0.6870
 7971SOL    MW431652   5.064   0.198   6.160 -0.0794  0.4892  0.6737
 7972SOL     OW31653   4.736   5.073   0.108 -0.3573 -0.7043  0.4823
 7972SOL    HW231654   4.823   5.111   0.122 -0.4632  0.7504 -2.2381
 7972SOL    HW331655   4.675   5.142   0.135 -0.6783 -1.2660  1.2366
 7972SOL    MW431656   4.739   5.087   0.114 -0.2203 -0.6102  0.8763
 7973SOL     OW31657   5.893   3.900   0.275  0.3232 -0.3571  0.5162
 7973SOL    HW231658   5.979   3.870   0.247  1.0033  0.8560  1.2229
 7973SOL    HW331659   5.888   3.990   0.244 -0.7767 -0.4726  0.3308
 7973SOL    MW431660   5.904   3.908   0.267 -0.2049  0.0055 -0.6165
 7974SOL     OW31661   5.538   0.041   1.792 -0.1183  0.3146  0.0510
 7974SOL    HW231662   5.580  -0.044   1.778 -1.8224 -0.5055 -0.2527
 7974SOL    HW331663   5.546   0.087   1.708  2.1618  1.1382  0.6376
 7974SOL    MW431664   5.545   0.036   1.779  0.2738  1.0364  0.1843
 7975SOL     OW31665   4.766   5.466   0.966 -0.2551 -0.2959 -0.2358
 7975SOL    HW231666   4.729   5.385   0.931  1.1823 -0.8281 -0.6034
 7975SOL    HW331667   4.812   5.439   1.046  1.0642 -0.0506 -0.8791
 7975SOL    MW431668   4.767   5.452   0.972  0.1917  0.6835  0.5396
 7976SOL     OW31669   3.680   3.655   5.680 -0.5395  0.3630  0.2213
 7976SOL    HW231670   3.755   3.715   5.682  0.6328 -1.0051  2.3153
 7976SOL    HW331671   3.604   3.712   5.680  0.5125  1.8320 -0.4032
 7976SOL    MW431672   3.680   3.671   5.680 -0.0271  0.6001 -0.2765
 7977SOL     OW31673   0.029   1.663   6.010 -0.1578 -0.1718 -0.2664
 7977SOL    HW231674   0.018   1.574   6.043 -1.1839 -0.0163 -0.1427
 7977SOL    HW331675  -0.022   1.665   5.929  0.0706  0.2302 -0.4025
 7977SOL    MW431676   0.021   1.651   6.003 -0.0390 -0.2607 -0.0724
 7978SOL     OW31677   1.886   5.861   0.707  0.2792  0.4470 -0.7712
 7978SOL    HW231678   1.921   5.827   0.625  0.0256  0.5325 -0.9145
 7978SOL    HW331679   1.812   5.805   0.726  0.4362  0.3252 -0.5145
 7978SOL    MW431680   1.881   5.849   0.699  0.0187  0.6440  0.0331
 7979SOL     OW31681   1.060   0.747   6.111 -0.0277 -0.4582  0.4021
 7979SOL    HW231682   1.020   0.693   6.043 -0.6868  0.4352  0.0617
 7979SOL    HW331683   1.144   0.774   6.075 -0.4783  0.2080 -0.1749
 7979SOL    MW431684   1.066   0.744   6.098 -0.1560  0.4639 -0.9593
 7980SOL     OW31685   4.094   4.562   3.799  0.2912  0.1769  0.3011
 7980SOL    HW231686   4.104   4.574   3.704  1.2586  0.6006  0.4508
 7980SOL    HW331687   4.182   4.542   3.830  0.0366  0.3823  1.1713
 7980SOL    MW431688   4.107   4.561   3.790 -0.0585  0.2049  0.1915
 7981SOL     OW31689   3.328   2.352   2.833  0.4006 -0.1429 -0.2914
 7981SOL    HW231690   3.328   2.257   2.849  0.4191  0.0267  0.8084
 7981SOL    HW331691   3.401   2.385   2.885  0.5045  0.4624 -0.8114
 7981SOL    MW431692   3.338   2.344   2.842  0.0445  0.2596  0.5346
 7982SOL     OW31693   3.776   3.573   4.137 -0.4939 -0.0766 -0.3295
 7982SOL    HW231694   3.815   3.490   4.162 -0.1362  1.0050  3.2723
 7982SOL    HW331695   3.684   3.553   4.119 -0.5827 -1.1506  1.2115
 7982SOL    MW431696   3.769   3.560   4.138  0.4182  0.3609  0.3709
 7983SOL     OW31697   3.471   5.471   4.699 -0.2176 -0.4816 -0.6370
 7983SOL    HW231698   3.541   5.410   4.678  0.0049 -0.3641 -0.2422
 7983SOL    HW331699   3.504   5.522   4.773 -0.4408  0.0476 -0.8914
 7983SOL    MW431700   3.485   5.470   4.706 -0.2825 -0.4093 -0.0323
 7984SOL     OW31701   0.987   2.794   2.073  0.2210 -0.3198  0.3723
 7984SOL    HW231702   1.074   2.834   2.071 -0.1362  0.6476  2.2752
 7984SOL    HW331703   0.959   2.802   2.164 -1.8777 -0.6112 -0.2060
 7984SOL    MW431704   0.995   2.800   2.085  0.7349 -0.7998  0.3288
 7985SOL     OW31705   0.140   3.035   4.160  0.0028 -0.5252  0.2314
 7985SOL    HW231706   0.046   3.017   4.166 -0.3681  1.4011  0.9721
 7985SOL    HW331707   0.176   3.005   4.243 -0.2063 -0.0677  0.4938
 7985SOL    MW431708   0.132   3.029   4.172  0.2030 -0.1813  0.3497
 7986SOL     OW31709   5.980   5.909   1.252  0.0508 -0.0014 -0.0539
 7986SOL    HW231710   5.893   5.872   1.235  0.3826 -2.0359  2.1696
 7986SOL    HW331711   6.003   5.878   1.340  2.9309  0.6693 -0.4636
 7986SOL    MW431712   5.971   5.900   1.261  0.2284 -0.4498  0.2058
 7987SOL     OW31713   3.559   3.033   2.878 -1.0157  0.8008 -0.3418
 7987SOL    HW231714   3.558   2.951   2.927  1.2097  1.2751  0.6041
 7987SOL    HW331715   3.505   3.092   2.929 -1.4459  0.3364 -0.2546
 7987SOL    MW431716   3.552   3.030   2.891  0.2566 -0.2096  0.5010
 7988SOL     OW31717   5.179   4.803   0.643 -0.1225  0.6189  0.1586
 7988SOL    HW231718   5.202   4.737   0.577  2.2003  1.1495  0.3519
 7988SOL    HW331719   5.245   4.792   0.712  0.3428  3.0862  0.2013
 7988SOL    MW431720   5.191   4.793   0.643  0.5686  0.7402 -0.1984
 7989SOL     OW31721   2.594   4.057   1.168  0.7346 -0.5235  0.2489
 7989SOL    HW231722   2.671   4.001   1.162  1.0685 -0.2711  1.8391
 7989SOL    HW331723   2.625   4.143   1.140 -0.3104 -1.4178 -4.5240
 7989SOL    MW431724   2.608   4.061   1.164  0.3944  0.6420  0.8426
 7990SOL     OW31725   6.004   0.707   2.541  0.5943 -0.4843 -0.2195
 7990SOL    HW231726   5.964   0.745   2.619 -1.6804 -1.2438 -0.9295
 7990SOL    HW331727   6.098   0.721   2.552  0.0986  2.6291  0.9320
 7990SOL    MW431728   6.011   0.714   2.553  0.0232 -0.6512  0.1417
 7991SOL     OW31729   2.767   1.670   3.107  0.5243 -0.5574 -0.3570
 7991SOL    HW231730   2.720   1.683   3.025 -0.9072  0.1614  0.5381
 7991SOL    HW331731   2.819   1.591   3.093 -2.0626 -2.2606 -0.9276
 7991SOL    MW431732   2.768   1.662   3.094  0.1964  0.1892 -0.1620
 7992SOL     OW31733   4.096   1.184   3.628  0.2958 -0.5330  0.4440
 7992SOL    HW231734   4.017   1.132   3.613 -1.2483  1.9011 -0.4899
 7992SOL    HW331735   4.130   1.203   3.540 -0.4903  1.7873  0.5537
 7992SOL    MW431736   4.090   1.180   3.615  0.1599 -0.3988 -0.2128
 7993SOL     OW31737   1.792   4.686   6.434  0.0214  0.0577  0.3917
 7993SOL    HW231738   1.853   4.709   6.504  2.1647  0.1376 -1.3959
 7993SOL    HW331739   1.792   4.590   6.433  0.9698  0.0514 -0.2645
 7993SOL    MW431740   1.800   4.676   6.443  0.1176 -0.1864 -0.4286
 7994SOL     OW31741   2.109   0.404   3.282  0.7126  0.2977  0.3678
 7994SOL    HW231742   2.058   0.484   3.270 -1.1139 -0.6723  1.1660
 7994SOL    HW331743   2.066   0.339   3.226  0.2151 -0.8711  1.9906
 7994SOL    MW431744   2.097   0.406   3.273  0.1517 -0.0987  0.2135
 7995SOL     OW31745   3.863   4.201   1.404 -0.1235 -0.1410  0.0499
 7995SOL    HW231746   3.954   4.172   1.402  0.0924  0.4988  0.2448
 7995SOL    HW331747   3.862   4.279   1.349 -0.8543 -0.9507 -1.1263
 7995SOL    MW431748   3.875   4.207   1.397 -0.3305  0.6526  0.4014
 7996SOL     OW31749   5.627   0.290   4.686  0.3996 -0.3574  0.1979
 7996SOL    HW231750   5.723   0.290   4.678  0.4415  1.3629  0.3583
 7996SOL    HW331751   5.610   0.343   4.763 -0.7127  0.3857 -0.5329
 7996SOL    MW431752   5.638   0.297   4.695 -0.5395  1.0404 -0.7140
 7997SOL     OW31753   3.086   2.101   5.664 -0.1638 -0.1246  0.2700
 7997SOL    HW231754   3.003   2.055   5.678  0.3751 -1.4876 -0.7863
 7997SOL    HW331755   3.064   2.170   5.601 -0.5599 -0.3035  0.2069
 7997SOL    MW431756   3.072   2.104   5.657  0.0964  0.3279 -0.6434
 7998SOL     OW31757   2.205   4.400   2.229 -0.3178  0.0287 -0.6810
 7998SOL    HW231758   2.151   4.461   2.179  1.5822  1.9086 -0.6013
 7998SOL    HW331759   2.280   4.383   2.172  0.6031  0.1198  0.4727
 7998SOL    MW431760   2.208   4.406   2.215  0.1710 -0.9143 -0.2071
 7999SOL     OW31761   4.945   3.210   4.013 -0.1146  0.3661 -0.1366
 7999SOL    HW231762   4.967   3.256   3.932 -0.0915 -0.2224 -0.4712
 7999SOL    HW331763   4.963   3.118   3.994 -1.4887  0.0327  0.0469
 7999SOL    MW431764   4.950   3.204   4.000  0.1282 -1.0918 -0.2691
 8000SOL     OW31765   1.456   3.765   3.750 -0.3776  0.3927  0.3642
 8000SOL    HW231766   1.369   3.777   3.712 -0.9036  1.3087  1.7609
 8000SOL    HW331767   1.440   3.714   3.829  0.7544 -1.9131 -0.8300
 8000SOL    MW431768   1.442   3.760   3.755  0.6426 -0.5120 -0.4684
 8001SOL     OW31769   2.867   3.124   2.653 -0.4623  0.0286 -0.0809
 8001SOL    HW231770   2.860   3.202   2.708  1.3436 -0.4373  0.8611
 8001SOL    HW331771   2.845   3.155   2.565  0.2845  1.6207  0.2653
 8001SOL    MW431772   2.863   3.138   2.649  0.9737 -0.1409  0.4482
 8002SOL     OW31773   3.266   2.530   5.821 -0.0552  0.1387  0.1281
 8002SOL    HW231774   3.211   2.578   5.759 -0.3094 -0.4242 -0.0845
 8002SOL    HW331775   3.296   2.597   5.883  0.5421  0.7773 -0.8341
 8002SOL    MW431776   3.262   2.545   5.821  0.1975 -0.0436 -0.1532
 8003SOL     OW31777   5.256   2.520   0.016 -0.8468 -0.3475  0.0073
 8003SOL    HW231778   5.185   2.463  -0.011  0.5633 -0.4465 -4.3147
 8003SOL    HW331779   5.227   2.608  -0.009 -0.6244  0.0362  1.0511
 8003SOL    MW431780   5.243   2.524   0.009  0.2087 -0.2835 -0.2465
 8004SOL     OW31781   4.852   3.944   3.661 -0.1886 -0.6142  0.0962
 8004SOL    HW231782   4.823   3.857   3.690 -1.6944 -0.0956  0.2543
 8004SOL    HW331783   4.814   3.954   3.574 -1.8649  0.6875  0.9123
 8004SOL    MW431784   4.843   3.934   3.654  0.7579  0.1356  0.6924
 8005SOL     OW31785   1.058   5.327   4.153  0.2218 -0.4648  0.2416
 8005SOL    HW231786   1.020   5.334   4.065  0.4368 -3.5767 -0.2198
 8005SOL    HW331787   1.113   5.405   4.161 -1.1993  0.8564 -1.6111
 8005SOL    MW431788   1.060   5.338   4.142 -0.4879 -0.3814 -0.0692
 8006SOL     OW31789   1.676   6.224   0.997 -0.3487  0.0044  0.1572
 8006SOL    HW231790   1.768   6.211   1.019 -0.3295  0.8665  0.5922
 8006SOL    HW331791   1.630   6.220   1.081 -0.7320 -0.5090 -0.0654
 8006SOL    MW431792   1.682   6.221   1.011  0.1157 -0.3602  0.2515
 8007SOL     OW31793   3.024   4.399   4.590 -0.1988 -0.0072 -0.2043
 8007SOL    HW231794   3.115   4.389   4.561  0.3110 -0.7570  1.5326
 8007SOL    HW331795   3.014   4.337   4.662 -1.9700  0.3806 -0.0537
 8007SOL    MW431796   3.035   4.389   4.596  0.6861  0.6297 -0.1062
 8008SOL     OW31797   3.888   3.836   6.089 -0.1038 -0.6340 -0.1549
 8008SOL    HW231798   3.926   3.816   6.004 -0.4481 -1.8559 -0.0387
 8008SOL    HW331799   3.914   3.763   6.145  0.0661  0.1274  0.7772
 8008SOL    MW431800   3.896   3.824   6.085  0.0163  0.3973  0.0695
 8009SOL     OW31801   4.702   2.204   2.425 -0.1289 -0.0476  0.9650
 8009SOL    HW231802   4.715   2.296   2.400 -1.7255 -0.6701 -2.9528
 8009SOL    HW331803   4.632   2.206   2.489 -0.1264  1.4668  0.9524
 8009SOL    MW431804   4.695   2.216   2.430  1.1993 -0.4396  0.3544
 8010SOL     OW31805   5.669   5.424   3.850 -0.0027 -0.1438  0.4756
 8010SOL    HW231806   5.725   5.466   3.785 -0.1363 -0.1645  0.3475
 8010SOL    HW331807   5.632   5.496   3.901  0.9299 -0.1712  1.2162
 8010SOL    MW431808   5.671   5.439   3.849 -0.4600 -0.5003  0.4551
 8011SOL     OW31809   5.173   2.334   5.878 -0.7343 -0.1622  0.0567
 8011SOL    HW231810   5.191   2.254   5.827 -1.4802  0.4403 -1.2074
 8011SOL    HW331811   5.169   2.403   5.812 -1.8734  0.6246  0.9201
 8011SOL    MW431812   5.175   2.332   5.862  0.2069 -0.5501 -0.1673
 8012SOL     OW31813   1.584   3.781   2.580  0.2011  0.1906  0.1302
 8012SOL    HW231814   1.634   3.727   2.642 -0.8238 -0.1026  0.7166
 8012SOL    HW331815   1.586   3.869   2.617 -0.0231  0.1068  0.3416
 8012SOL    MW431816   1.591   3.785   2.593  0.3615  0.4847  0.1270
 8013SOL     OW31817   0.624   1.222   4.282 -0.2186 -0.5206 -0.2444
 8013SOL    HW231818   0.701   1.278   4.269 -0.4620 -0.0070  0.4846
 8013SOL    HW331819   0.660   1.133   4.289  0.2433 -0.3615 -0.5326
 8013SOL    MW431820   0.639   1.217   4.281 -0.1370  0.0972 -0.0131
 8014SOL     OW31821   2.243   2.799   6.268 -0.1511  0.3408 -0.1057
 8014SOL    HW231822   2.152   2.807   6.297  0.2515 -0.5805  1.5328
 8014SOL    HW331823   2.246   2.718   6.217 -0.0301 -0.3174  0.9083
 8014SOL    MW431824   2.232   2.789   6.265  0.2648 -0.0264 -0.3440
 8015SOL     OW31825   1.720   2.997   1.696  0.0539  0.3128  0.5025
 8015SOL    HW231826   1.792   2.993   1.633  0.0684 -3.3715  0.5501
 8015SOL    HW331827   1.763   3.013   1.781  0.6542 -0.1453  0.2928
 8015SOL    MW431828   1.735   2.999   1.699  0.1147 -0.0019  0.0637
 8016SOL     OW31829   5.850   5.313   3.073  0.1242  0.1130 -1.1347
 8016SOL    HW231830   5.911   5.279   3.007 -0.0271 -1.0446 -0.6988
 8016SOL    HW331831   5.771   5.261   3.060  0.1234 -0.1813  0.0148
 8016SOL    MW431832   5.848   5.302   3.062 -0.3177  0.7224 -0.0934
 8017SOL     OW31833   5.431   0.588   0.389 -0.2828  0.3473 -0.2098
 8017SOL    HW231834   5.417   0.677   0.420 -1.2271  0.2156 -0.2194
 8017SOL    HW331835   5.526   0.577   0.388 -0.1145  1.7179 -1.2541
 8017SOL    MW431836   5.442   0.598   0.393  0.2899 -0.5005  0.1801
 8018SOL     OW31837   4.902   5.451   4.761  0.4380 -0.2142 -0.0645
 8018SOL    HW231838   4.812   5.424   4.782 -0.1113 -0.0050 -1.9041
 8018SOL    HW331839   4.931   5.501   4.837 -1.4359  0.6899  0.1104
 8018SOL    MW431840   4.894   5.454   4.773  0.0833  0.7059  0.2770
 8019SOL     OW31841   5.200   1.025   2.968  0.0575 -0.2453 -0.0957
 8019SOL    HW231842   5.195   1.001   2.875 -0.8567  0.7740 -0.3328
 8019SOL    HW331843   5.204   0.941   3.014 -1.0055 -0.8126 -0.9809
 8019SOL    MW431844   5.200   1.011   2.962 -0.4429 -1.2744  0.7988
 8020SOL     OW31845   5.989   5.044   2.547 -0.0038 -0.7617  0.1529
 8020SOL    HW231846   6.039   5.120   2.516 -1.7674  0.5963  0.4199
 8020SOL    HW331847   6.027   5.023   2.632  0.3112  0.0480  0.2244
 8020SOL    MW431848   6.000   5.051   2.554  0.1409 -0.1480 -0.2815
 8021SOL     OW31849   0.549   4.882   3.584 -0.2561 -0.4887  0.1911
 8021SOL    HW231850   0.478   4.821   3.567  1.3001 -2.8276  1.4305
 8021SOL    HW331851   0.623   4.826   3.608  2.6593  1.6193 -2.9498
 8021SOL    MW431852   0.550   4.866   3.585  0.2470 -0.5856 -0.0848
 8022SOL     OW31853   5.253   5.956   0.123 -0.0335  0.0500 -0.2401
 8022SOL    HW231854   5.294   5.888   0.176 -1.8203 -0.1277  0.9755
 8022SOL    HW331855   5.190   5.999   0.181 -1.2500  0.6064 -1.8779
 8022SOL    MW431856   5.250   5.953   0.137 -0.1834  0.2749  0.0101
 8023SOL     OW31857   1.777   2.266   1.908 -0.1588  0.5244 -0.2515
 8023SOL    HW231858   1.705   2.323   1.880  0.4425  0.8018 -1.2584
 8023SOL    HW331859   1.834   2.323   1.959 -0.5880  0.3216  0.4832
 8023SOL    MW431860   1.775   2.281   1.911  0.5053  0.4790 -0.5007
 8024SOL     OW31861   2.985   1.245   0.720 -0.1617  0.2905 -0.0352
 8024SOL    HW231862   3.036   1.322   0.744 -0.8821  0.2563  1.8031
 8024SOL    HW331863   3.036   1.203   0.650  2.2016  0.4172  1.4820
 8024SOL    MW431864   2.999   1.249   0.714  1.0402 -0.3337  0.6940
 8025SOL     OW31865   1.628   1.292   5.703  0.3275 -0.1556  0.4399
 8025SOL    HW231866   1.713   1.322   5.671 -0.4039  0.3052 -1.1983
 8025SOL    HW331867   1.584   1.372   5.732 -0.4218 -0.0138 -0.9719
 8025SOL    MW431868   1.633   1.306   5.702 -0.8215 -0.2084  0.0430
 8026SOL     OW31869   1.228   3.763   0.264 -0.3486  0.3255 -0.2578
 8026SOL    HW231870   1.148   3.792   0.310  0.4891  2.4908 -0.0528
 8026SOL    HW331871   1.205   3.769   0.171 -0.4751  0.8559 -0.1990
 8026SOL    MW431872   1.214   3.768   0.258 -0.1667  0.0850 -0.0453
 8027SOL     OW31873   4.858   0.691   1.070 -0.2274  0.3884  0.1305
 8027SOL    HW231874   4.945   0.695   1.110 -0.4148  0.4482  0.5380
 8027SOL    HW331875   4.875   0.691   0.976  0.1504  2.7453  0.1150
 8027SOL    MW431876   4.872   0.692   1.063 -0.0420  0.2945 -0.2137
 8028SOL     OW31877   2.544   3.841   5.058  0.5441  0.9232  0.3052
 8028SOL    HW231878   2.476   3.856   5.124 -0.9379 -1.8731 -0.4440
 8028SOL    HW331879   2.626   3.849   5.107 -0.4101  1.3296  1.9289
 8028SOL    MW431880   2.546   3.844   5.074 -0.5661  0.4678  0.0358
 8029SOL     OW31881   0.435   2.846   3.419 -0.3303  0.2125  0.4692
 8029SOL    HW231882   0.469   2.873   3.504 -0.4313  0.8989  0.2950
 8029SOL    HW331883   0.511   2.847   3.361 -0.5687  1.4202  0.1581
 8029SOL    MW431884   0.450   2.850   3.423  0.3746 -0.3201  1.1154
 8030SOL     OW31885   0.095   0.296   5.066 -0.1932  0.5362  0.2044
 8030SOL    HW231886   0.172   0.282   5.010 -0.3203  1.9920 -0.3811
 8030SOL    HW331887   0.115   0.376   5.115 -0.2794 -0.4648  1.9517
 8030SOL    MW431888   0.108   0.305   5.065  0.4302 -0.1097 -0.1760
 8031SOL     OW31889   5.011   2.456   6.272 -0.1927 -0.6131  0.3364
 8031SOL    HW231890   4.967   2.496   6.197  1.6287  3.0942  0.9967
 8031SOL    HW331891   5.090   2.416   6.235  1.2715  2.1573  0.2357
 8031SOL    MW431892   5.016   2.456   6.257  0.5793 -0.0654  0.1945
 8032SOL     OW31893   1.653   5.123   1.950 -0.3913  0.6702  0.2868
 8032SOL    HW231894   1.567   5.085   1.969  0.4807 -1.5674  0.1546
 8032SOL    HW331895   1.634   5.203   1.901 -2.4174 -1.1545 -2.1958
 8032SOL    MW431896   1.639   5.128   1.946  0.1067  0.4259  0.3124
 8033SOL     OW31897   6.247   1.986   5.944 -0.0014  0.0417 -0.4085
 8033SOL    HW231898   6.293   2.020   5.867 -1.6796  1.4521 -0.8443
 8033SOL    HW331899   6.194   1.914   5.910 -0.6505  0.5871 -0.5708
 8033SOL    MW431900   6.246   1.981   5.929 -0.0419 -0.7957 -0.6625
 8034SOL     OW31901   0.740   0.753   5.601 -0.8750  0.6032  0.1624
 8034SOL    HW231902   0.815   0.719   5.553 -1.4239  0.0697 -0.3438
 8034SOL    HW331903   0.776   0.784   5.684 -0.1409  0.1112  0.0359
 8034SOL    MW431904   0.754   0.753   5.606 -0.3898 -0.0610  0.2550
 8035SOL     OW31905   5.054   0.829   3.126  0.3169 -0.2509  0.2451
 8035SOL    HW231906   5.039   0.839   3.220  1.2901 -0.2641  0.4159
 8035SOL    HW331907   5.086   0.739   3.116  0.9527 -0.0074  0.0139
 8035SOL    MW431908   5.056   0.819   3.137 -0.2462  0.1272  0.2165
 8036SOL     OW31909   6.379   0.155   5.419 -0.1727 -0.0320 -0.0713
 8036SOL    HW231910   6.453   0.145   5.479 -1.5333  1.0582  1.8982
 8036SOL    HW331911   6.377   0.248   5.397 -0.6931 -0.1296 -0.4753
 8036SOL    MW431912   6.389   0.166   5.424  0.0738 -0.2561  0.0412
 8037SOL     OW31913   1.479   2.282   3.134 -0.2002 -0.3257 -0.0482
 8037SOL    HW231914   1.439   2.242   3.057 -0.8631  1.7275 -0.8471
 8037SOL    HW331915   1.565   2.311   3.104 -0.0731 -0.3828  0.2604
 8037SOL    MW431916   1.485   2.281   3.120  0.0690 -0.3417 -0.2682
 8038SOL     OW31917   1.480   1.059   5.727  0.8587 -0.3807  0.2334
 8038SOL    HW231918   1.398   1.108   5.739 -0.1893 -1.7637 -0.8648
 8038SOL    HW331919   1.549   1.124   5.734 -0.5154  1.5872 -2.6431
 8038SOL    MW431920   1.478   1.074   5.730 -0.0223  0.0754 -0.1156
 8039SOL     OW31921   4.076   1.362   5.134  0.3516  0.0482 -0.1529
 8039SOL    HW231922   4.069   1.457   5.146  0.2509  0.0666 -0.3543
 8039SOL    HW331923   4.152   1.337   5.186  0.4394  0.2554 -0.1811
 8039SOL    MW431924   4.085   1.372   5.142  0.7059 -0.1091  0.6280
 8040SOL     OW31925   6.093   4.842   3.865  0.0485 -0.0278  0.3322
 8040SOL    HW231926   6.184   4.821   3.847  0.4836  0.6207  1.6756
 8040SOL    HW331927   6.044   4.767   3.832  0.9334  0.1280 -1.4892
 8040SOL    MW431928   6.098   4.829   3.858 -0.0117 -0.2579  0.3681
 8041SOL     OW31929   2.891   4.554   0.181 -0.5146 -0.0898  0.6088
 8041SOL    HW231930   2.842   4.475   0.207 -1.8384  0.2116 -0.8154
 8041SOL    HW331931   2.840   4.626   0.218  0.8435  0.1334  2.1379
 8041SOL    MW431932   2.878   4.553   0.189 -0.5640 -0.6490 -0.1391
 8042SOL     OW31933   4.805   4.546   2.708 -0.1503  0.1044 -0.4765
 8042SOL    HW231934   4.811   4.460   2.749 -3.0021  0.0285  0.0035
 8042SOL    HW331935   4.861   4.540   2.630  2.3736 -1.0008  1.3017
 8042SOL    MW431936   4.813   4.534   2.703 -0.0743  0.8853  0.3238
 8043SOL     OW31937   4.023   3.186   2.185 -0.2191  0.2550 -0.5410
 8043SOL    HW231938   4.055   3.108   2.139 -0.1825  0.8718 -1.5813
 8043SOL    HW331939   4.096   3.247   2.181 -0.5444  0.6521 -0.4546
 8043SOL    MW431940   4.037   3.184   2.179  1.0128 -0.0941 -0.0388
 8044SOL     OW31941   5.807   6.124   2.091  0.8610  0.2081  0.3440
 8044SOL    HW231942   5.826   6.031   2.102  1.4973  0.3106  0.1601
 8044SOL    HW331943   5.853   6.166   2.164  4.3028  0.8028 -1.9090
 8044SOL    MW431944   5.816   6.117   2.102  0.3550 -0.6982 -0.2635
 8045SOL     OW31945   3.244   1.843   2.357 -0.2020  0.0351  0.0119
 8045SOL    HW231946   3.322   1.823   2.305 -2.7462 -1.3551 -3.6326
 8045SOL    HW331947   3.188   1.895   2.299 -1.6959  1.8262  2.8197
 8045SOL    MW431948   3.247   1.847   2.343  0.3364  0.3213 -0.0510
 8046SOL     OW31949   0.901   6.172   1.257 -0.3715  0.4922 -0.9491
 8046SOL    HW231950   0.860   6.191   1.172 -1.9946 -0.9020 -0.5218
 8046SOL    HW331951   0.900   6.256   1.303  0.9362  1.3814 -2.4117
 8046SOL    MW431952   0.896   6.186   1.252  0.0823 -0.3940 -0.0310
 8047SOL     OW31953   4.499   6.269   1.346  0.1735 -0.5361  0.1671
 8047SOL    HW231954   4.503   6.302   1.436  1.8707 -1.1294  0.3511
 8047SOL    HW331955   4.453   6.337   1.297  1.9404  1.2608  0.8755
 8047SOL    MW431956   4.493   6.282   1.352 -0.5836 -0.6965 -0.0186
 8048SOL     OW31957   3.038   4.251   6.394  0.4751 -0.1336  0.4959
 8048SOL    HW231958   3.064   4.185   6.459  0.3935 -0.7714 -0.1038
 8048SOL    HW331959   3.094   4.326   6.413  2.9089 -1.4854 -0.8187
 8048SOL    MW431960   3.049   4.252   6.405  0.2750 -0.3159 -0.4746
 8049SOL     OW31961   2.448   2.177   5.226 -0.0542 -0.0301  0.3227
 8049SOL    HW231962   2.484   2.234   5.159 -0.7541  0.0100 -0.0284
 8049SOL    HW331963   2.460   2.088   5.191 -0.1118 -0.0270  0.2942
 8049SOL    MW431964   2.454   2.173   5.212  0.2961 -0.3235  0.2841
 8050SOL     OW31965   3.276   5.406   0.982 -0.6632 -0.3412  0.2840
 8050SOL    HW231966   3.228   5.418   1.063 -1.7528  0.3520 -0.4415
 8050SOL    HW331967   3.213   5.424   0.913 -0.1178 -2.1123 -0.7675
 8050SOL    MW431968   3.262   5.410   0.983  0.5389 -0.2428 -0.7782
 8051SOL     OW31969   4.004   3.643   3.190  0.0841  1.0690  0.3306
 8051SOL    HW231970   3.956   3.667   3.110  0.3811  0.8121  0.0741
 8051SOL    HW331971   4.092   3.677   3.176  1.2894 -2.1630 -1.1303
 8051SOL    MW431972   4.009   3.651   3.177 -0.4663  0.1785 -0.3786
 8052SOL     OW31973   5.604   2.539   0.298  0.4529  0.7427  0.0820
 8052SOL    HW231974   5.532   2.539   0.360  0.4098 -1.9313  0.1385
 8052SOL    HW331975   5.678   2.503   0.347  0.5621 -0.8869 -1.1823
 8052SOL    MW431976   5.605   2.534   0.312  0.3228 -0.1725  0.1088
 8053SOL     OW31977   1.379   4.767   4.278  0.2367  0.2003 -0.1148
 8053SOL    HW231978   1.326   4.687   4.270 -1.7024  1.5618 -1.8968
 8053SOL    HW331979   1.469   4.735   4.283 -0.3619 -2.1032 -2.0502
 8053SOL    MW431980   1.384   4.752   4.278  0.1583  0.1484 -0.4418
 8054SOL     OW31981   2.931   4.382   3.580  0.3178 -0.3217 -0.3386
 8054SOL    HW231982   3.011   4.330   3.591  1.4306  1.0468 -1.4848
 8054SOL    HW331983   2.902   4.364   3.491  0.3673  0.5150 -0.5359
 8054SOL    MW431984   2.938   4.373   3.570  0.2348  0.0604  0.1374
 8055SOL     OW31985   1.443   6.211   5.789  0.3048  0.2211 -0.3813
 8055SOL    HW231986   1.458   6.286   5.848 -1.1706 -1.2625  2.0464
 8055SOL    HW331987   1.350   6.191   5.799  0.5594 -1.6356 -1.3333
 8055SOL    MW431988   1.433   6.218   5.798 -0.3928  0.1951 -0.3943
 8056SOL     OW31989   2.923   4.695   0.533 -0.0271 -0.1484 -0.0551
 8056SOL    HW231990   2.929   4.727   0.443 -0.3856  0.9793  0.3048
 8056SOL    HW331991   2.943   4.771   0.587 -0.1869 -0.7183  0.8302
 8056SOL    MW431992   2.926   4.709   0.528  0.0965  0.5809 -0.5451
 8057SOL     OW31993   0.317   4.731   3.525 -0.0535  0.4945 -0.0353
 8057SOL    HW231994   0.359   4.651   3.492  0.4310  1.3092 -1.4669
 8057SOL    HW331995   0.224   4.716   3.511 -0.0458 -0.2029  0.5939
 8057SOL    MW431996   0.310   4.718   3.519 -0.3405 -0.2841  0.4492
 8058SOL     OW31997   3.802   5.218   2.524 -0.2662  0.6783 -0.0229
 8058SOL    HW231998   3.806   5.142   2.465 -1.0223 -0.1000  0.8826
 8058SOL    HW331999   3.880   5.211   2.578 -0.3836  0.4840  0.1233
 8058SOL    MW432000   3.813   5.207   2.524 -0.3981  0.5188 -0.0043
 8059SOL     OW32001   4.806   0.117   4.708  0.0625 -0.0706 -0.0370
 8059SOL    HW232002   4.854   0.093   4.630  0.5198  1.6862 -0.3218
 8059SOL    HW332003   4.718   0.140   4.677  0.1882  0.4481 -0.0095
 8059SOL    MW432004   4.800   0.117   4.694  0.0445 -0.3807  0.0327
 8060SOL     OW32005   2.019   4.945   4.555 -0.0322 -0.0562  0.0109
 8060SOL    HW232006   2.076   4.880   4.514  0.1664  0.0686  0.0846
 8060SOL    HW332007   2.063   5.029   4.539  0.2348 -0.0419  0.7816
 8060SOL    MW432008   2.032   4.948   4.547 -0.6599 -0.1572  0.8401
 8061SOL     OW32009   1.188   0.058   3.734 -0.2789  0.7342 -0.6267
 8061SOL    HW232010   1.210   0.137   3.686  0.3816 -0.1425 -1.8363
 8061SOL    HW332011   1.248   0.056   3.808  1.6008  0.0118 -2.1082
 8061SOL    MW432012   1.198   0.068   3.738  0.1082  0.2255  0.2150
 8062SOL     OW32013   5.312   2.429   2.152  0.2361  0.0747 -0.1869
 8062SOL    HW232014   5.249   2.356   2.151  1.2756 -0.8546  0.3109
 8062SOL    HW332015   5.344   2.434   2.062 -0.6464  0.6687 -0.4880
 8062SOL    MW432016   5.308   2.420   2.140  0.2493  0.1602 -0.0615
 8063SOL     OW32017   1.962   3.890   3.875 -0.4618 -0.1458 -0.1034
 8063SOL    HW232018   2.047   3.932   3.887 -0.2363 -0.5703 -0.2048
 8063SOL    HW332019   1.911   3.918   3.951 -0.8648  1.6345 -0.9823
 8063SOL    MW432020   1.967   3.899   3.887  0.0697  0.2350  0.5569
 8064SOL     OW32021   1.486   3.844   0.168  0.1629  0.3273 -0.2439
 8064SOL    HW232022   1.495   3.859   0.074  1.3412 -0.6877 -0.3136
 8064SOL    HW332023   1.392   3.847   0.184 -0.0198  1.1770 -1.3260
 8064SOL    MW432024   1.475   3.847   0.158  0.2146  0.3040 -0.1971
 8065SOL     OW32025   1.197   4.988   3.082 -0.5086  0.2842  0.4602
 8065SOL    HW232026   1.114   5.032   3.100 -2.3978 -1.9661 -1.9603
 8065SOL    HW332027   1.197   4.913   3.141  0.6267  1.1097  1.5526
 8065SOL    MW432028   1.186   4.984   3.092 -0.6790  0.1743  0.4480
 8066SOL     OW32029   3.978   3.534   4.579 -0.0860  0.6347 -0.4000
 8066SOL    HW232030   4.010   3.523   4.669 -0.1205  3.4999  0.0649
 8066SOL    HW332031   3.934   3.451   4.559 -1.5806  0.4767  2.8612
 8066SOL    MW432032   3.976   3.521   4.588 -0.2418 -0.5770  0.1081
 8067SOL     OW32033   6.195   4.937   1.021 -0.5034  0.0994 -0.2012
 8067SOL    HW232034   6.162   4.924   0.932  0.7104  2.4729 -1.0867
 8067SOL    HW332035   6.289   4.950   1.011 -0.3192  0.3530  1.4397
 8067SOL    MW432036   6.203   4.937   1.008 -0.0697 -0.3671  0.2160
 8068SOL     OW32037   0.833   5.747   2.395 -0.0092  0.1798  0.5670
 8068SOL    HW232038   0.794   5.822   2.439 -0.2217 -0.8131  2.1646
 8068SOL    HW332039   0.764   5.680   2.396  0.5169 -0.3827  0.1157
 8068SOL    MW432040   0.818   5.748   2.401  0.3712 -0.4237 -0.1533
 8069SOL     OW32041   5.355   4.725   5.260 -0.3342  0.2413  0.1976
 8069SOL    HW232042   5.433   4.673   5.239 -0.4475  0.0386  0.2690
 8069SOL    HW332043   5.322   4.687   5.342  0.5764  1.5634  1.2070
 8069SOL    MW432044   5.361   4.713   5.268 -0.4164 -0.2499  1.1436
 8070SOL     OW32045   5.106   3.331   3.786 -0.2391  0.4145  0.0805
 8070SOL    HW232046   5.133   3.240   3.768 -0.9697  0.0961  0.5604
 8070SOL    HW332047   5.183   3.383   3.764 -0.6484 -0.0327 -2.9223
 8070SOL    MW432048   5.120   3.326   3.780 -0.3071  0.3370 -0.2435
 8071SOL     OW32049   4.329   6.233   4.078 -0.4409 -0.0258 -0.6054
 8071SOL    HW232050   4.394   6.241   4.148 -2.8867 -0.8409  1.9484
 8071SOL    HW332051   4.381   6.224   3.998  2.5283  0.8545  1.0616
 8071SOL    MW432052   4.345   6.233   4.077 -0.0373 -0.1663 -0.1922
 8072SOL     OW32053   6.304   5.768   3.606  0.0404  0.2123  0.7251
 8072SOL    HW232054   6.335   5.823   3.533  1.1411 -1.4174 -0.0892
 8072SOL    HW332055   6.260   5.694   3.564  1.0309 -0.9625  1.6953
 8072SOL    MW432056   6.302   5.766   3.591 -0.6425 -0.0828 -0.0948
 8073SOL     OW32057   3.278   1.223   3.952  0.2575 -0.2436 -0.4080
 8073SOL    HW232058   3.361   1.263   3.925  0.0040 -0.6505 -1.8466
 8073SOL    HW332059   3.286   1.215   4.047  0.2061  3.4680  0.0566
 8073SOL    MW432060   3.290   1.228   3.961  0.1137  0.6483  0.1352
 8074SOL     OW32061   1.665   5.559   3.876  0.3991 -0.3159  0.1661
 8074SOL    HW232062   1.697   5.637   3.831 -0.6743  1.2113  1.9046
 8074SOL    HW332063   1.706   5.486   3.829  2.1678  1.2954 -0.9685
 8074SOL    MW432064   1.675   5.559   3.864  0.4154  0.0365 -0.5595
 8075SOL     OW32065   0.446   6.327   5.418  0.2618  0.1056  0.4035
 8075SOL    HW232066   0.506   6.311   5.345 -0.7272  1.7154 -0.8305
 8075SOL    HW332067   0.371   6.271   5.399 -0.2152  0.9070 -0.1163
 8075SOL    MW432068   0.444   6.318   5.406  0.1684  0.3467 -0.6694
 8076SOL     OW32069   3.418   6.187   4.544 -0.0915 -0.0123 -0.3880
 8076SOL    HW232070   3.376   6.113   4.589  2.1265  0.4599  2.7379
 8076SOL    HW332071   3.511   6.166   4.545  0.3899  1.8111 -1.5276
 8076SOL    MW432072   3.424   6.174   4.550 -0.0044  0.2951  0.7962
 8077SOL     OW32073   4.767   1.732   0.644 -0.1325 -0.3148  0.7510
 8077SOL    HW232074   4.711   1.707   0.570 -0.3864  1.4033  0.3282
 8077SOL    HW332075   4.849   1.760   0.604 -0.8233  2.2071  0.9003
 8077SOL    MW432076   4.770   1.732   0.629 -0.5275  0.9226 -0.2365
 8078SOL     OW32077   5.329   5.427   4.370 -0.1588 -1.0500  0.3109
 8078SOL    HW232078   5.385   5.396   4.440  0.8543  0.7615  0.3618
 8078SOL    HW332079   5.324   5.522   4.382 -1.3725 -0.8868 -1.0504
 8078SOL    MW432080   5.336   5.436   4.381 -0.1692  0.3481  0.4283
 8079SOL     OW32081   4.646   5.975   2.796  0.0969  0.1858  0.0376
 8079SOL    HW232082   4.710   5.922   2.842 -0.1855  0.5649  0.8997
 8079SOL    HW332083   4.562   5.950   2.834 -0.1696  0.3462 -0.4341
 8079SOL    MW432084   4.643   5.965   2.807  0.4738 -0.4278 -0.2137
 8080SOL     OW32085   0.906   2.717   2.791 -0.6020  0.2224 -0.1542
 8080SOL    HW232086   0.904   2.658   2.716  0.3017 -1.0718  0.7894
 8080SOL    HW332087   0.814   2.734   2.811 -0.8740 -0.5378 -0.6964
 8080SOL    MW432088   0.894   2.711   2.783  0.5384 -0.0613  0.5992
 8081SOL     OW32089   5.757   4.499   5.020  0.0454 -0.2639  0.8902
 8081SOL    HW232090   5.763   4.428   5.084 -0.3856 -1.6909 -0.5825
 8081SOL    HW332091   5.840   4.547   5.029  1.9272 -3.0228 -0.3800
 8081SOL    MW432092   5.769   4.496   5.029  0.4776  0.0129  0.1373
 8082SOL     OW32093   2.527   2.722   1.295 -0.0773  0.6424 -0.4099
 8082SOL    HW232094   2.442   2.719   1.251  0.0745  0.6668 -0.7072
 8082SOL    HW332095   2.549   2.816   1.296  0.9793  0.4827 -2.3537
 8082SOL    MW432096   2.519   2.734   1.289  0.2679  0.5940 -0.1342
 8083SOL     OW32097   0.944   5.669   1.573  0.2190 -0.3644  0.0999
 8083SOL    HW232098   0.996   5.722   1.512  1.0349 -0.7759  0.4318
 8083SOL    HW332099   0.974   5.580   1.559 -2.1439 -1.0231 -1.4789
 8083SOL    MW432100   0.955   5.664   1.563  0.1088  0.1969  0.2620
 8084SOL     OW32101   5.733   4.423   3.411 -0.0193 -0.4023  0.1715
 8084SOL    HW232102   5.645   4.422   3.373  0.2510  3.2179 -0.9715
 8084SOL    HW332103   5.720   4.397   3.502 -2.1802 -0.4923 -0.1128
 8084SOL    MW432104   5.720   4.420   3.418  0.6886  0.0757  0.1900
 8085SOL     OW32105   1.273   0.747   2.903  0.0034  0.1199 -0.6909
 8085SOL    HW232106   1.353   0.795   2.928  1.3288 -1.4987 -1.5818
 8085SOL    HW332107   1.233   0.802   2.836 -0.2629  1.4815  0.5140
 8085SOL    MW432108   1.279   0.761   2.898 -0.3902 -0.6117  0.3464
 8086SOL     OW32109   3.229   5.644   2.464 -0.4864  0.1232  0.5880
 8086SOL    HW232110   3.154   5.587   2.476 -1.4276  1.0644 -0.5950
 8086SOL    HW332111   3.297   5.587   2.428 -0.0120 -1.1034  3.2141
 8086SOL    MW432112   3.228   5.629   2.461  0.6724  0.1342 -0.2115
 8087SOL     OW32113   4.799   3.551   3.505 -0.2258  0.9704 -0.1171
 8087SOL    HW232114   4.796   3.585   3.416  1.0264 -2.5850 -1.7124
 8087SOL    HW332115   4.893   3.547   3.526 -0.2798 -1.0791 -0.0006
 8087SOL    MW432116   4.811   3.555   3.496  0.0556  0.2119 -0.1985
 8088SOL     OW32117   0.515   5.039   6.389  0.2241 -0.6144  0.0204
 8088SOL    HW232118   0.467   5.050   6.307  1.0645  2.1107 -0.2074
 8088SOL    HW332119   0.448   5.048   6.457 -0.0168  0.3368 -0.3312
 8088SOL    MW432120   0.500   5.041   6.387 -0.0677 -0.0766  0.3503
 8089SOL     OW32121   3.502   0.578   0.574  0.1784 -0.3958  0.3341
 8089SOL    HW232122   3.439   0.620   0.631 -0.9920 -2.0115  0.3013
 8089SOL    HW332123   3.501   0.486   0.600  1.1180 -0.8025 -0.9439
 8089SOL    MW432124   3.494   0.572   0.585  0.1386  0.0052  0.0902
 8090SOL     OW32125   4.616   6.139   0.952  0.7108  0.2595 -0.1948
 8090SOL    HW232126   4.670   6.217   0.961  0.9615  0.0229  0.3960
 8090SOL    HW332127   4.632   6.090   1.032 -2.2367  1.3380  1.1910
 8090SOL    MW432128   4.625   6.143   0.964 -0.3978  0.1499 -0.0910
 8091SOL     OW32129   2.125   1.473   4.267  0.6320  0.3423  0.4088
 8091SOL    HW232130   2.154   1.424   4.191 -1.7692 -1.5645  0.6109
 8091SOL    HW332131   2.155   1.422   4.342 -1.0710 -0.3732  0.6354
 8091SOL    MW432132   2.133   1.460   4.267 -0.1693 -0.3302 -0.0407
 8092SOL     OW32133   2.324   2.115   1.855 -0.4443  0.0434  0.6941
 8092SOL    HW232134   2.263   2.045   1.833 -1.5527  1.0749  0.4190
 8092SOL    HW332135   2.411   2.075   1.844 -1.0442 -1.4965  1.2882
 8092SOL    MW432136   2.328   2.100   1.850  0.6969  0.3201  0.6841
 8093SOL     OW32137   2.384   1.833   3.689 -0.2082 -0.6956 -0.1996
 8093SOL    HW232138   2.472   1.869   3.699  0.0720 -1.4072 -0.0056
 8093SOL    HW332139   2.363   1.798   3.776 -1.3950  0.9849  0.2430
 8093SOL    MW432140   2.393   1.833   3.702  0.4996 -0.3598  0.4194
 8094SOL     OW32141   2.083   3.431   2.908 -0.1746  0.0198  0.1106
 8094SOL    HW232142   2.023   3.505   2.895 -0.8400  0.3161  3.6019
 8094SOL    HW332143   2.026   3.354   2.906 -0.3151  0.0823  0.9339
 8094SOL    MW432144   2.068   3.431   2.906  0.6496 -0.0417  0.2859
 8095SOL     OW32145   4.121   5.110   6.323  0.5124 -0.0302  0.1323
 8095SOL    HW232146   4.140   5.019   6.299 -1.1040 -0.3933  0.1092
 8095SOL    HW332147   4.099   5.106   6.416  0.5837  0.3648  0.1674
 8095SOL    MW432148   4.121   5.098   6.332 -0.2084  0.4835  0.2344
 8096SOL     OW32149   5.979   2.887   0.985 -0.5451  0.3667 -0.3935
 8096SOL    HW232150   6.028   2.817   1.028 -0.7803  0.5383  0.1557
 8096SOL    HW332151   5.943   2.940   1.056 -3.5483 -1.1070 -0.6363
 8096SOL    MW432152   5.981   2.885   1.000 -0.5026 -0.3421 -0.1688
 8097SOL     OW32153   1.636   2.296   3.548 -0.0462 -0.2598 -0.4202
 8097SOL    HW232154   1.583   2.254   3.481 -1.8955  0.1133  0.7338
 8097SOL    HW332155   1.653   2.384   3.514 -1.7285  0.2319 -0.0579
 8097SOL    MW432156   1.631   2.302   3.535  0.3765  0.2710 -0.4565
 8098SOL     OW32157   4.251   6.362   3.086  0.1822 -0.6482 -0.4250
 8098SOL    HW232158   4.304   6.395   3.013 -0.7286  1.4661 -0.1996
 8098SOL    HW332159   4.161   6.375   3.058 -0.2749 -2.8157 -0.1753
 8098SOL    MW432160   4.246   6.368   3.072  0.8488  0.3151  0.0171
 8099SOL     OW32161   5.492   0.289   2.103  0.5599  0.0521  0.3580
 8099SOL    HW232162   5.396   0.291   2.102  0.4878 -1.7667 -0.7203
 8099SOL    HW332163   5.518   0.353   2.037  0.0479 -0.0800  0.0172
 8099SOL    MW432164   5.483   0.297   2.094  0.4274  0.1469  0.2304
 8100SOL     OW32165   1.145   5.172   1.157  0.1283 -0.2357  0.7486
 8100SOL    HW232166   1.069   5.143   1.106 -0.7965  2.0515  0.7201
 8100SOL    HW332167   1.186   5.091   1.186 -1.5244 -1.5625 -0.4033
 8100SOL    MW432168   1.140   5.157   1.154 -0.1115 -1.2268  0.2562
 8101SOL     OW32169   0.948   4.638   5.458 -0.3847 -0.1763 -0.0971
 8101SOL    HW232170   0.963   4.699   5.530  0.0675  1.0198 -1.1661
 8101SOL    HW332171   0.853   4.630   5.453 -0.4182 -0.4838  0.7855
 8101SOL    MW432172   0.938   4.645   5.467 -0.1662 -0.1744 -0.0711
 8102SOL     OW32173   2.927   5.646   0.371  0.2590  0.5987  0.1684
 8102SOL    HW232174   2.875   5.711   0.324  0.0225  0.3002  0.0175
 8102SOL    HW332175   3.018   5.670   0.352  0.1935  1.3858  0.7870
 8102SOL    MW432176   2.933   5.658   0.363 -0.4874 -0.1053  0.5893
 8103SOL     OW32177   0.527   1.470   4.083 -0.4640 -0.2317 -0.3755
 8103SOL    HW232178   0.445   1.463   4.034 -0.8053 -2.9070  0.3988
 8103SOL    HW332179   0.574   1.389   4.062  1.1872  0.4190  0.6159
 8103SOL    MW432180   0.523   1.459   4.074 -0.0300  0.2177 -0.0176
 8104SOL     OW32181   4.106   4.439   1.819 -0.7415 -0.3605  0.3479
 8104SOL    HW232182   4.053   4.391   1.755 -1.3576  0.1461  0.4618
 8104SOL    HW332183   4.082   4.531   1.805 -1.3337 -0.2885  1.6774
 8104SOL    MW432184   4.096   4.445   1.809 -0.5395 -0.1480 -0.3247
 8105SOL     OW32185   6.325   1.151   0.671 -0.0726 -0.4753  0.1772
 8105SOL    HW232186   6.408   1.158   0.623 -0.7246 -1.6964 -1.1818
 8105SOL    HW332187   6.257   1.154   0.604 -0.9997 -2.5910  0.9253
 8105SOL    MW432188   6.327   1.152   0.656 -0.0922 -0.1630 -0.2601
 8106SOL     OW32189   2.425   3.339   6.066 -0.0313  0.0133 -0.3681
 8106SOL    HW232190   2.404   3.246   6.077 -0.1375  0.1144  0.3848
 8106SOL    HW332191   2.428   3.353   5.972 -0.2793 -0.6963 -0.4844
 8106SOL    MW432192   2.423   3.329   6.055  0.0060 -0.0750 -0.3112
 8107SOL     OW32193   4.700   4.997   2.889 -0.0901  0.3804  0.1566
 8107SOL    HW232194   4.781   4.961   2.926 -1.4172 -3.1762 -0.0603
 8107SOL    HW332195   4.727   5.034   2.805  1.2524 -1.4679 -0.3074
 8107SOL    MW432196   4.714   4.997   2.883  0.3663  0.3235  0.3237
 8108SOL     OW32197   4.914   4.942   5.234 -0.5544 -0.2122 -0.0320
 8108SOL    HW232198   4.872   4.879   5.292  0.1132 -1.5844 -0.9920
 8108SOL    HW332199   4.850   4.958   5.165 -0.0212 -1.3076 -0.7984
 8108SOL    MW432200   4.900   4.936   5.233 -0.4181  0.0195 -0.2264
 8109SOL     OW32201   5.148   5.029   0.403 -0.2388 -0.5739  0.5699
 8109SOL    HW232202   5.219   5.028   0.339 -1.0633  1.3513 -0.4392
 8109SOL    HW332203   5.192   5.039   0.488  0.6837  1.1451 -0.0819
 8109SOL    MW432204   5.163   5.030   0.406 -0.2472  0.3039  0.4535
 8110SOL     OW32205   2.826   3.553   4.344 -0.8334  0.3349 -0.2010
 8110SOL    HW232206   2.799   3.569   4.434  3.6141 -0.6413  1.5798
 8110SOL    HW332207   2.867   3.635   4.316 -1.9886  0.5603 -1.3070
 8110SOL    MW432208   2.828   3.566   4.352  0.1912  0.2625 -0.0694
 8111SOL     OW32209   1.996   5.297   1.028 -0.3170 -0.0407  0.3131
 8111SOL    HW232210   1.952   5.375   0.996 -1.7711 -0.9062  0.0873
 8111SOL    HW332211   2.087   5.323   1.040 -1.0591  2.1600  1.8336
 8111SOL    MW432212   2.002   5.311   1.026 -0.0441 -0.1319 -0.3161
 8112SOL     OW32213   1.677   2.733   2.310  0.8898  0.4566  0.1593
 8112SOL    HW232214   1.761   2.749   2.353  0.4549  0.3914  1.0606
 8112SOL    HW332215   1.614   2.726   2.382 -0.3387  2.9562 -0.5707
 8112SOL    MW432216   1.680   2.734   2.325  0.2430 -0.0889 -0.0330
 8113SOL     OW32217   1.332   1.636   2.630  0.2794  0.2833 -0.1165
 8113SOL    HW232218   1.401   1.633   2.564  0.2565  1.4728 -0.2003
 8113SOL    HW332219   1.284   1.717   2.613  0.2975  0.6470  1.3724
 8113SOL    MW432220   1.335   1.646   2.619  0.1017 -0.7114  0.2032
 8114SOL     OW32221   0.681   4.550   4.794 -0.2174 -0.2601 -0.0202
 8114SOL    HW232222   0.666   4.625   4.737  0.7928  0.3204  0.4638
 8114SOL    HW332223   0.615   4.486   4.766 -0.2831  0.3227 -1.2625
 8114SOL    MW432224   0.670   4.552   4.783 -0.3755 -0.6662  0.0289
 8115SOL     OW32225   5.599   3.111   3.663  0.4867  0.2381  0.0619
 8115SOL    HW232226   5.584   3.051   3.590  0.7638 -0.2488  0.3946
 8115SOL    HW332227   5.694   3.106   3.679  0.4312  0.3597  0.4328
 8115SOL    MW432228   5.610   3.102   3.656 -0.6910  0.0178 -0.3742
 8116SOL     OW32229   4.124   3.890   1.068 -0.0422 -0.2169  0.6388
 8116SOL    HW232230   4.161   3.850   0.989 -1.1898 -2.2406  1.0616
 8116SOL    HW332231   4.200   3.917   1.119  0.7427 -0.3159 -0.4425
 8116SOL    MW432232   4.139   3.888   1.064 -0.4126  0.2504  0.0964
 8117SOL     OW32233   1.388   4.949   2.247 -0.0340 -0.3038 -0.1241
 8117SOL    HW232234   1.398   4.985   2.335 -0.0830  0.5781 -0.4697
 8117SOL    HW332235   1.324   5.007   2.205 -0.5211 -1.1139 -0.5271
 8117SOL    MW432236   1.381   4.961   2.253  0.0448  0.4476 -0.2162
 8118SOL     OW32237   2.225   5.921   1.419  0.0588 -0.3556  0.3976
 8118SOL    HW232238   2.293   5.872   1.465 -0.0250  0.8138  1.8458
 8118SOL    HW332239   2.215   6.002   1.469 -1.9559 -0.2046 -0.1351
 8118SOL    MW432240   2.233   5.925   1.431 -0.3256 -0.0681  0.0605
 8119SOL     OW32241   2.160   0.499   1.512  0.8073  0.7699 -0.0465
 8119SOL    HW232242   2.127   0.585   1.534  1.8152  0.7409  1.7301
 8119SOL    HW332243   2.151   0.447   1.592  1.8402 -0.2420 -0.5416
 8119SOL    MW432244   2.155   0.503   1.525 -0.2751  0.7107 -0.0912
 8120SOL     OW32245   4.221   3.567   6.140 -0.1865 -0.4214 -0.7025
 8120SOL    HW232246   4.160   3.608   6.202 -1.2939  0.1489 -2.0952
 8120SOL    HW332247   4.235   3.480   6.175 -1.2717 -0.3255  0.0472
 8120SOL    MW432248   4.215   3.561   6.153  0.7329 -0.0057 -0.0516
 8121SOL     OW32249   2.892   0.589   5.619 -0.5760 -0.3339  0.6706
 8121SOL    HW232250   2.857   0.659   5.564 -1.4639 -0.6096  0.8654
 8121SOL    HW332251   2.987   0.599   5.613 -0.6866  0.6843  0.4489
 8121SOL    MW432252   2.900   0.600   5.611 -0.5925 -0.1321 -0.1172
 8122SOL     OW32253   5.654   3.780   0.606  0.4353 -0.0188 -0.5435
 8122SOL    HW232254   5.719   3.848   0.585 -1.2209  1.4919 -0.9677
 8122SOL    HW332255   5.663   3.717   0.535 -0.3208  1.5208 -2.0939
 8122SOL    MW432256   5.664   3.781   0.594  0.0912 -0.0270 -0.0201
 8123SOL     OW32257   1.003   2.138   1.456 -0.4503  0.4790 -0.2475
 8123SOL    HW232258   0.979   2.086   1.380 -3.0562  0.6741  0.3341
 8123SOL    HW332259   0.939   2.113   1.523  0.1608  2.1657  1.0422
 8123SOL    MW432260   0.992   2.128   1.455  0.1694 -0.5299  0.1742
 8124SOL     OW32261   4.489   1.618   6.060  0.0787  0.4880  0.2970
 8124SOL    HW232262   4.400   1.592   6.081  0.2032  0.9363  1.4862
 8124SOL    HW332263   4.485   1.713   6.053 -0.0110  0.3586 -2.1678
 8124SOL    MW432264   4.477   1.627   6.062 -0.2368 -0.8451  0.3568
 8125SOL     OW32265   2.071   3.801   5.491 -0.2869  0.1349  0.2057
 8125SOL    HW232266   2.124   3.744   5.546 -0.5267  1.2465  1.6667
 8125SOL    HW332267   2.096   3.779   5.402 -0.6910 -2.5077  0.6845
 8125SOL    MW432268   2.081   3.791   5.487 -0.4190 -0.0917 -0.0651
 8126SOL     OW32269   5.386   4.463   0.272 -0.1701  0.2954  0.4006
 8126SOL    HW232270   5.394   4.376   0.311  1.0551  0.7504  1.2253
 8126SOL    HW332271   5.406   4.450   0.179  1.0599 -0.1499  0.7116
 8126SOL    MW432272   5.390   4.450   0.265  0.1273 -0.9174 -0.3904
 8127SOL     OW32273   0.759   1.550   1.728 -0.0092 -0.6816 -0.3069
 8127SOL    HW232274   0.785   1.459   1.712  2.3453 -0.3940  1.3015
 8127SOL    HW332275   0.702   1.546   1.805 -0.4811 -0.8275 -0.6559
 8127SOL    MW432276   0.755   1.538   1.736  0.5309  1.1670  0.1710
 8128SOL     OW32277   5.933   3.856   5.449  0.0658 -0.5604 -0.3575
 8128SOL    HW232278   6.014   3.870   5.498  1.0260 -0.2434 -1.9739
 8128SOL    HW332279   5.864   3.890   5.507  1.3315  1.4109  0.0836
 8128SOL    MW432280   5.934   3.863   5.463 -0.4927  0.5333 -0.3749
 8129SOL     OW32281   3.769   2.667   3.928 -0.0308 -0.1036 -0.4015
 8129SOL    HW232282   3.844   2.685   3.985  0.7393 -0.6929 -1.2026
 8129SOL    HW332283   3.717   2.604   3.977  1.1937 -1.4579 -0.7721
 8129SOL    MW432284   3.772   2.661   3.942  0.5889  0.3524 -0.2927
 8130SOL     OW32285   4.834   2.496   3.489  0.1666 -0.3288  0.4877
 8130SOL    HW232286   4.896   2.555   3.446  0.0113 -1.5656 -1.5544
 8130SOL    HW332287   4.791   2.551   3.554  3.4725  0.5520  2.1793
 8130SOL    MW432288   4.837   2.511   3.492  0.5695 -0.7593 -0.7224
 8131SOL     OW32289   4.414   0.146   5.309 -0.7664  0.1647 -0.2093
 8131SOL    HW232290   4.461   0.200   5.373 -0.5289 -0.3892  0.0895
 8131SOL    HW332291   4.481   0.091   5.270 -1.0569 -0.1298 -0.2954
 8131SOL    MW432292   4.429   0.146   5.313  0.2704  0.2801  0.0029
 8132SOL     OW32293   3.354   5.986   1.066  0.0939  0.2995 -0.4731
 8132SOL    HW232294   3.270   5.996   1.111  1.5577 -0.0756  2.5816
 8132SOL    HW332295   3.401   6.067   1.082  2.1714 -1.2693  2.3457
 8132SOL    MW432296   3.349   5.998   1.074 -0.2042 -0.1926  0.0307
 8133SOL     OW32297   2.159   5.889   3.573 -0.6408 -0.1343  0.8894
 8133SOL    HW232298   2.212   5.968   3.584 -1.4875  0.3563  1.5274
 8133SOL    HW332299   2.180   5.835   3.650 -1.4466  0.2918  1.4181
 8133SOL    MW432300   2.169   5.892   3.584  1.0887  0.4134 -0.1951
 8134SOL     OW32301   3.024   1.885   1.552  0.3416 -0.5547  0.1592
 8134SOL    HW232302   2.938   1.845   1.554 -0.3078  0.8115  1.1940
 8134SOL    HW332303   3.028   1.932   1.469  1.4207 -3.2652 -1.4536
 8134SOL    MW432304   3.013   1.886   1.542  0.2281  0.3808 -0.2096
 8135SOL     OW32305   1.610   3.838   1.934 -0.1485 -0.4160  0.5897
 8135SOL    HW232306   1.528   3.806   1.971 -0.3620 -1.0303 -0.4005
 8135SOL    HW332307   1.652   3.761   1.898  0.8154 -0.0857  0.9620
 8135SOL    MW432308   1.605   3.824   1.934 -0.0093 -0.0425  0.2801
 8136SOL     OW32309   4.329   0.391   0.547 -0.8169 -0.2649 -0.3380
 8136SOL    HW232310   4.355   0.355   0.462 -0.2214 -1.3326  0.2746
 8136SOL    HW332311   4.286   0.318   0.592 -0.3259  0.0162  0.6142
 8136SOL    MW432312   4.327   0.376   0.542  0.1554  0.1569  0.0330
 8137SOL     OW32313   4.484   1.198   4.417  0.2971 -0.6575 -0.0988
 8137SOL    HW232314   4.549   1.269   4.417  2.0890 -2.1940 -0.5648
 8137SOL    HW332315   4.483   1.166   4.507 -0.7142  0.1154  0.1732
 8137SOL    MW432316   4.493   1.203   4.429  0.5473 -0.2797 -0.5685
 8138SOL     OW32317   2.518   6.282   0.977  0.0315 -0.6507 -1.0402
 8138SOL    HW232318   2.608   6.302   0.949  0.3079  1.4860  1.0951
 8138SOL    HW332319   2.463   6.339   0.923 -0.1195 -2.1283 -2.5132
 8138SOL    MW432320   2.523   6.292   0.966 -0.7468  0.3143  0.3977
 8139SOL     OW32321   3.228   2.192   3.562 -0.5590  0.3019 -0.0048
 8139SOL    HW232322   3.139   2.200   3.595 -0.5584 -2.1311  0.7594
 8139SOL    HW332323   3.241   2.098   3.550  1.7766  0.6227 -0.4988
 8139SOL    MW432324   3.218   2.181   3.565  0.1739  0.1371  0.1208
 8140SOL     OW32325   1.347   4.886   5.752 -0.4109 -0.1764  0.0214
 8140SOL    HW232326   1.347   4.919   5.663  1.6485 -2.1603 -0.8103
 8140SOL    HW332327   1.421   4.930   5.794 -0.0725 -0.7772  0.0769
 8140SOL    MW432328   1.357   4.896   5.746  0.2843 -0.2839  0.4293
 8141SOL     OW32329   0.671   4.153   2.820 -0.1068 -0.6784  0.4655
 8141SOL    HW232330   0.650   4.061   2.804 -0.8397 -0.6153  1.0593
 8141SOL    HW332331   0.656   4.166   2.913  0.7911 -0.1541  0.5550
 8141SOL    MW432332   0.666   4.143   2.830 -0.3017  0.0881  0.8155
 8142SOL     OW32333   0.529   2.055   1.301 -0.0908  0.3422 -0.0328
 8142SOL    HW232334   0.464   2.032   1.235  0.7194  3.4295 -2.1463
 8142SOL    HW332335   0.610   2.013   1.272 -0.5694 -1.7463  1.4312
 8142SOL    MW432336   0.531   2.047   1.289 -0.2274 -0.6381  0.5729
 8143SOL     OW32337   1.668   3.466   0.342 -0.8197  0.3673  0.3056
 8143SOL    HW232338   1.640   3.476   0.433 -0.5288 -0.5491  0.5027
 8143SOL    HW332339   1.588   3.482   0.291 -1.6963 -1.9384  0.8492
 8143SOL    MW432340   1.654   3.470   0.347 -0.4923 -0.2576 -0.3040
 8144SOL     OW32341   3.112   5.382   4.867  0.1669  0.0508 -0.0562
 8144SOL    HW232342   3.061   5.383   4.948 -0.6484 -1.8385 -0.4815
 8144SOL    HW332343   3.105   5.471   4.832 -2.6159 -0.0375  0.0691
 8144SOL    MW432344   3.104   5.394   4.873 -0.0551 -0.2444  0.6499
 8145SOL     OW32345   5.210   3.260   2.664  0.3725 -0.0010 -0.0573
 8145SOL    HW232346   5.193   3.351   2.687 -0.6949 -0.0812 -0.4955
 8145SOL    HW332347   5.134   3.213   2.696 -0.9652 -0.2042 -3.2223
 8145SOL    MW432348   5.198   3.266   2.671 -0.3823 -0.0896  0.3672
 8146SOL     OW32349   6.187   0.408   2.570 -0.0766 -1.1504 -0.0086
 8146SOL    HW232350   6.275   0.385   2.600  0.8082  1.6528 -0.1070
 8146SOL    HW332351   6.143   0.442   2.647 -0.2970 -0.5681 -0.3802
 8146SOL    MW432352   6.193   0.409   2.584 -0.3971 -0.4141  0.3917
 8147SOL     OW32353   2.090   4.539   1.880 -0.0585  0.1552 -0.2721
 8147SOL    HW232354   2.180   4.519   1.904  0.1438  0.3481 -0.8489
 8147SOL    HW332355   2.038   4.513   1.956  0.2688 -1.8600 -0.7043
 8147SOL    MW432356   2.095   4.533   1.893  0.5515  0.2827 -0.3933
 8148SOL     OW32357   5.004   0.080   2.703  0.6189 -0.5107 -0.1971
 8148SOL    HW232358   5.087   0.035   2.686  0.7881  0.2279 -1.4263
 8148SOL    HW332359   4.950   0.014   2.746  2.2897 -0.6111  1.9513
 8148SOL    MW432360   5.008   0.066   2.707 -1.0709  0.0278 -0.1511
 8149SOL     OW32361   0.490   3.372   2.519  0.0135  0.3767 -0.0676
 8149SOL    HW232362   0.494   3.468   2.520  1.7863  0.3297  0.2904
 8149SOL    HW332363   0.580   3.345   2.502 -0.0953 -1.2417  1.6640
 8149SOL    MW432364   0.502   3.381   2.517 -0.4352  0.3584  0.2105
 8150SOL     OW32365   3.695   2.886   3.355  0.2569  0.2417 -0.1856
 8150SOL    HW232366   3.709   2.902   3.448  0.0339 -0.6661  0.0146
 8150SOL    HW332367   3.778   2.851   3.323 -0.0470 -0.6441 -0.0395
 8150SOL    MW432368   3.708   2.884   3.363 -0.4868 -0.1126 -0.5162
 8151SOL     OW32369   2.286   4.763   0.705  0.2703  0.3161 -0.4835
 8151SOL    HW232370   2.234   4.706   0.649 -1.8168  1.7207 -0.1086
 8151SOL    HW332371   2.229   4.838   0.723  2.5359  2.1180 -0.2324
 8151SOL    MW432372   2.272   4.766   0.700  0.3194 -0.1748  0.4311
 8152SOL     OW32373   0.814   5.966   6.046 -0.5276 -0.6049 -0.3370
 8152SOL    HW232374   0.893   5.929   6.006 -0.1771 -1.6174  1.1746
 8152SOL    HW332375   0.760   5.994   5.972  1.1950  0.0258 -1.4113
 8152SOL    MW432376   0.817   5.964   6.031  0.5583 -0.0118  0.3931
 8153SOL     OW32377   2.416   2.632   0.360  0.0004  0.2079  0.5764
 8153SOL    HW232378   2.389   2.603   0.273  4.7336 -0.4862 -0.9863
 8153SOL    HW332379   2.399   2.727   0.360 -1.1660  0.0178 -0.6084
 8153SOL    MW432380   2.410   2.641   0.349 -0.6196  1.0441  0.1363
 8154SOL     OW32381   4.218   2.436   4.131 -0.2025  0.0590  0.4259
 8154SOL    HW232382   4.233   2.407   4.221  0.3374  0.6639  0.5317
 8154SOL    HW332383   4.182   2.524   4.139  1.8319  0.9902  0.0269
 8154SOL    MW432384   4.215   2.444   4.144  0.3817 -0.6409  0.2120
 8155SOL     OW32385   6.229   2.215   2.890  0.7633 -0.4566 -0.0981
 8155SOL    HW232386   6.231   2.258   2.975  0.5418 -0.3380 -0.1520
 8155SOL    HW332387   6.186   2.131   2.906 -0.1009 -0.0554 -0.2599
 8155SOL    MW432388   6.223   2.210   2.903 -0.1098 -0.5624  0.4558
 8156SOL     OW32389   1.352   2.259   4.834 -0.2279 -0.0928 -0.4779
 8156SOL    HW232390   1.345   2.345   4.792 -1.5783 -0.7255 -1.6500
 8156SOL    HW332391   1.262   2.227   4.837 -0.0970 -0.4349  2.2613
 8156SOL    MW432392   1.339   2.266   4.829 -0.7171 -0.0044  0.1827
 8157SOL     OW32393   4.263   1.933   1.019  0.2820  0.8236 -0.6668
 8157SOL    HW232394   4.323   1.883   1.074 -1.4426 -0.3138  0.3072
 8157SOL    HW332395   4.305   2.018   1.008  1.4014  0.5594  1.1768
 8157SOL    MW432396   4.276   1.938   1.025 -0.1833 -0.4746 -0.5059
 8158SOL     OW32397   2.269   0.352   0.542  0.3823  0.0790 -0.0010
 8158SOL    HW232398   2.211   0.293   0.589  0.5377  0.3171  0.5022
 8158SOL    HW332399   2.212   0.397   0.480  0.1825 -0.2723 -0.0753
 8158SOL    MW432400   2.254   0.350   0.540 -0.7014 -0.2969 -0.3540
 8159SOL     OW32401   5.683   5.155   3.766 -0.0633 -0.0293  0.0364
 8159SOL    HW232402   5.768   5.128   3.800 -0.5949 -0.3977  1.1264
 8159SOL    HW332403   5.674   5.247   3.791  0.4126  0.2922 -0.9289
 8159SOL    MW432404   5.693   5.163   3.774 -0.1261 -0.1321 -0.3545
 8160SOL     OW32405   2.516   2.963   5.768 -0.7119  0.4406 -0.2961
 8160SOL    HW232406   2.598   2.978   5.814  0.0625 -0.2357 -1.3922
 8160SOL    HW332407   2.448   2.983   5.832  0.3003  1.0878  0.6096
 8160SOL    MW432408   2.518   2.967   5.783  0.3924 -0.1271 -0.0659
 8161SOL     OW32409   5.600   5.178   2.299 -0.1689 -0.0038 -0.2490
 8161SOL    HW232410   5.621   5.143   2.386 -4.3915  1.9973  1.8698
 8161SOL    HW332411   5.590   5.101   2.244 -1.7547 -1.7317  2.2433
 8161SOL    MW432412   5.602   5.163   2.303  1.0966  0.7609 -0.3113
 8162SOL     OW32413   5.150   1.340   1.823 -0.5329 -0.2427 -0.0095
 8162SOL    HW232414   5.221   1.280   1.846  0.8230  1.3374  0.1197
 8162SOL    HW332415   5.107   1.299   1.748  1.1556 -0.7788 -0.7215
 8162SOL    MW432416   5.154   1.327   1.816  0.4033  0.2836  0.4091
 8163SOL     OW32417   2.352   0.237   3.932  0.0531 -0.2770  0.5682
 8163SOL    HW232418   2.266   0.267   3.904 -0.8902 -3.2923 -0.1024
 8163SOL    HW332419   2.401   0.226   3.851  1.4865  2.2632  0.9845
 8163SOL    MW432420   2.347   0.240   3.918 -0.2548 -0.5184 -1.0557
 8164SOL     OW32421   3.369   2.461   0.244 -0.2074 -0.1685  0.2322
 8164SOL    HW232422   3.436   2.517   0.204  1.5317 -0.1829  2.8752
 8164SOL    HW332423   3.348   2.504   0.327 -1.4388 -1.6001  0.7110
 8164SOL    MW432424   3.375   2.474   0.250 -0.0610 -0.0144 -0.9615
 8165SOL     OW32425   5.508   5.676   4.720 -0.0572 -0.7446  0.0152
 8165SOL    HW232426   5.457   5.757   4.712 -0.4926 -1.1122 -1.1424
 8165SOL    HW332427   5.561   5.689   4.799 -4.3216 -1.6762  3.4780
 8165SOL    MW432428   5.508   5.688   4.729  0.0019 -0.3644  0.7613
 8166SOL     OW32429   5.381   5.439   3.753  0.0245  0.0455 -0.3147
 8166SOL    HW232430   5.453   5.399   3.801 -1.2411  1.1022  2.7026
 8166SOL    HW332431   5.342   5.366   3.703  1.2365 -1.2026  0.5041
 8166SOL    MW432432   5.385   5.424   3.753  0.2951 -0.2150  0.1054
 8167SOL     OW32433   0.310   1.447   2.518  0.1207  0.1822  0.2557
 8167SOL    HW232434   0.334   1.531   2.557 -0.2243  0.5644 -0.3422
 8167SOL    HW332435   0.219   1.433   2.545 -0.4308  0.8900 -1.1180
 8167SOL    MW432436   0.301   1.456   2.527  0.4748 -0.0924 -0.0212
 8168SOL     OW32437   4.847   2.407   2.712 -0.0456  0.3886  0.0250
 8168SOL    HW232438   4.798   2.488   2.702 -1.1726 -0.3845 -1.0800
 8168SOL    HW332439   4.785   2.345   2.750  0.8789  0.0966  1.1201
 8168SOL    MW432440   4.832   2.410   2.716  0.5055 -0.4447 -0.3059
 8169SOL     OW32441   4.988   5.011   3.663 -0.3021  0.0284  0.1072
 8169SOL    HW232442   5.015   4.934   3.613 -0.5782  0.1137 -0.1759
 8169SOL    HW332443   4.904   4.987   3.702 -0.6584  0.3766 -0.4306
 8169SOL    MW432444   4.980   4.998   3.662 -0.5017 -0.1454 -0.4834
 8170SOL     OW32445   4.941   3.389   4.920  0.4723  0.1027 -0.2218
 8170SOL    HW232446   4.917   3.435   4.839 -0.5629 -0.2496 -0.1363
 8170SOL    HW332447   4.872   3.415   4.982  0.5501 -0.6278  0.1722
 8170SOL    MW432448   4.929   3.399   4.918 -0.2552  0.2437  0.5761
 8171SOL     OW32449   2.141   4.513   3.138 -0.4573  0.0974 -0.1711
 8171SOL    HW232450   2.230   4.509   3.175  0.0235  2.3086 -0.9103
 8171SOL    HW332451   2.155   4.533   3.046 -1.7036  1.5223 -0.0936
 8171SOL    MW432452   2.155   4.515   3.131 -0.7948 -0.6608  0.7569
 8172SOL     OW32453   0.202   4.083   2.153 -0.1725 -0.3402 -0.4589
 8172SOL    HW232454   0.137   4.017   2.175  1.5066 -1.8177  0.3669
 8172SOL    HW332455   0.160   4.167   2.171 -1.5706 -1.2696  0.7749
 8172SOL    MW432456   0.188   4.085   2.158  0.1305 -0.6594 -0.3085
 8173SOL     OW32457   5.727   1.183   1.191  0.1104  0.5702 -0.1607
 8173SOL    HW232458   5.810   1.202   1.234  1.6325 -1.1634 -2.1788
 8173SOL    HW332459   5.693   1.106   1.237  0.6285  0.0624 -0.6239
 8173SOL    MW432460   5.733   1.175   1.203  0.3716 -0.2137  0.0804
 8174SOL     OW32461   4.717   0.096   5.606 -0.4713 -0.4366 -0.1058
 8174SOL    HW232462   4.687   0.008   5.581  0.9681 -1.2743  0.9171
 8174SOL    HW332463   4.680   0.109   5.693 -2.3259  0.8638 -1.0231
 8174SOL    MW432464   4.708   0.086   5.614  0.0868 -0.0104 -0.1846
 8175SOL     OW32465   2.261   2.595   1.961  0.4397 -0.3887 -0.0257
 8175SOL    HW232466   2.175   2.554   1.953  0.7612 -1.5449  1.7695
 8175SOL    HW332467   2.266   2.656   1.887 -0.2495 -3.2319 -2.6082
 8175SOL    MW432468   2.250   2.598   1.950  0.0449  0.1450  0.5333
 8176SOL     OW32469   6.108   4.539   0.122  0.3480  0.1501  0.1148
 8176SOL    HW232470   6.015   4.538   0.098  0.8053 -0.5296 -1.8564
 8176SOL    HW332471   6.116   4.610   0.185 -1.7301 -0.6313  1.3588
 8176SOL    MW432472   6.097   4.548   0.127 -0.1141  0.4872 -0.1331
 8177SOL     OW32473   4.905   5.120   1.179  0.7284 -0.0584  0.0724
 8177SOL    HW232474   4.825   5.071   1.160  0.2767  0.4813  0.5772
 8177SOL    HW332475   4.877   5.211   1.187  1.2071 -0.0037  1.3438
 8177SOL    MW432476   4.891   5.125   1.177  0.1042 -0.0037  0.1059
 8178SOL     OW32477   1.257   3.164   3.015 -0.1577  0.5619  0.4066
 8178SOL    HW232478   1.349   3.139   3.017 -0.2063 -0.0082 -1.7446
 8178SOL    HW332479   1.254   3.248   3.061  1.1163 -0.2241  2.0151
 8178SOL    MW432480   1.268   3.172   3.021  0.5982 -0.7462  0.1280
 8179SOL     OW32481   4.489   0.738   5.606 -0.2304 -0.2705  0.1733
 8179SOL    HW232482   4.569   0.747   5.659 -0.4148 -1.5447  0.7314
 8179SOL    HW332483   4.419   0.768   5.664 -0.1478  1.0891 -0.4076
 8179SOL    MW432484   4.491   0.743   5.621 -0.0991  0.1125  0.4940
 8180SOL     OW32485   5.390   0.494   5.528 -0.4720  0.1394 -0.0727
 8180SOL    HW232486   5.317   0.535   5.482  0.2130  0.9543 -0.4797
 8180SOL    HW332487   5.356   0.411   5.559 -1.8294  0.8766  0.4961
 8180SOL    MW432488   5.376   0.489   5.526 -0.3979 -0.8641  0.3569
 8181SOL     OW32489   3.904   3.966   2.871  0.1146 -0.1776 -0.5669
 8181SOL    HW232490   3.835   4.031   2.883 -0.5851 -0.7145 -1.5690
 8181SOL    HW332491   3.859   3.882   2.878  0.8864 -0.5606 -0.0122
 8181SOL    MW432492   3.889   3.964   2.874 -0.1069 -0.1264 -0.1755
 8182SOL     OW32493   3.972   3.134   2.456 -0.1814 -0.0333 -0.8022
 8182SOL    HW232494   4.002   3.169   2.372 -0.6981  3.2408  0.2335
 8182SOL    HW332495   3.882   3.106   2.440 -0.6371  1.5482 -1.1586
 8182SOL    MW432496   3.964   3.135   2.443 -0.4116  0.3227  0.2471
 8183SOL     OW32497   4.430   3.110   4.282 -0.5485 -0.4577 -0.7414
 8183SOL    HW232498   4.435   3.073   4.194 -0.2923  0.7655 -1.2656
 8183SOL    HW332499   4.464   3.041   4.339  4.3957  0.3907 -2.1285
 8183SOL    MW432500   4.435   3.096   4.278 -0.4377 -0.2368 -0.7446
 8184SOL     OW32501   6.156   0.828   1.772  0.6680  0.0183  0.6438
 8184SOL    HW232502   6.161   0.738   1.804  1.9779  0.5531  2.0736
 8184SOL    HW332503   6.063   0.851   1.779  0.7204 -0.2525  3.2171
 8184SOL    MW432504   6.144   0.820   1.778 -0.0560  0.7195 -0.4141
 8185SOL     OW32505   2.167   3.721   1.926 -0.6499 -0.0634  0.4569
 8185SOL    HW232506   2.259   3.711   1.950 -0.5046 -0.9490 -0.4113
 8185SOL    HW332507   2.124   3.644   1.962 -0.5412 -1.0894 -1.4646
 8185SOL    MW432508   2.174   3.710   1.934  0.6565 -0.0261 -0.2092
 8186SOL     OW32509   4.579   5.322   0.114  0.2946  0.3426  0.3732
 8186SOL    HW232510   4.606   5.412   0.129  0.6863  0.2793  0.0580
 8186SOL    HW332511   4.511   5.306   0.179 -0.4920  1.1822 -0.2140
 8186SOL    MW432512   4.574   5.331   0.124 -0.9378  0.0071  0.1208
 8187SOL     OW32513   4.651   3.377   2.417 -0.3117  0.6644 -0.1039
 8187SOL    HW232514   4.598   3.385   2.495 -0.7800  0.5417 -0.4068
 8187SOL    HW332515   4.617   3.443   2.357 -1.0031 -0.3006 -0.7928
 8187SOL    MW432516   4.640   3.387   2.419 -0.6062 -0.1648  0.5347
 8188SOL     OW32517   3.820   4.312   0.345 -0.5047  0.3291 -0.5936
 8188SOL    HW232518   3.797   4.278   0.432 -0.6199 -0.1536 -0.8097
 8188SOL    HW332519   3.740   4.356   0.315 -1.2687 -1.5358 -1.4359
 8188SOL    MW432520   3.806   4.313   0.353 -0.3179 -0.0400  0.6635
 8189SOL     OW32521   6.044   3.349   2.579  0.8019 -0.6608  0.6103
 8189SOL    HW232522   5.964   3.401   2.590  1.2046 -0.4422  3.3479
 8189SOL    HW332523   6.014   3.264   2.547 -0.4298 -0.2954  0.7415
 8189SOL    MW432524   6.030   3.345   2.577 -0.3997 -0.1369 -0.2773
 8190SOL     OW32525   5.890   2.709   6.407 -0.1844  0.0806  0.4029
 8190SOL    HW232526   5.830   2.700   6.334  0.0257  0.3592  0.1935
 8190SOL    HW332527   5.897   2.620   6.443  1.8925 -0.7065 -1.6600
 8190SOL    MW432528   5.883   2.696   6.402 -0.5755  0.2425 -0.1952
 8191SOL     OW32529   3.959   1.800   5.344  0.1845  0.0172 -0.3401
 8191SOL    HW232530   3.900   1.742   5.392  1.6352 -2.0751 -0.9328
 8191SOL    HW332531   4.046   1.772   5.370  1.0136 -0.4482 -3.2356
 8191SOL    MW432532   3.962   1.788   5.354  0.4903 -0.4997  0.0502
 8192SOL     OW32533   3.908   6.389   5.032  0.3989  0.1717 -0.4207
 8192SOL    HW232534   3.933   6.297   5.021 -1.8286 -0.2798 -2.7760
 8192SOL    HW332535   3.886   6.397   5.124  0.6474 -1.6593 -0.1548
 8192SOL    MW432536   3.908   6.378   5.043 -0.1030  0.2598 -0.1256
 8193SOL     OW32537   4.139   6.231   5.736  0.1113  0.1160  0.2467
 8193SOL    HW232538   4.131   6.152   5.790 -0.5228  0.4368  0.6412
 8193SOL    HW332539   4.162   6.198   5.649  2.8144 -0.3251  1.0272
 8193SOL    MW432540   4.141   6.216   5.732  0.3925  0.2177 -0.0129
 8194SOL     OW32541   5.258   5.250   2.744 -0.5207  0.2072  0.0951
 8194SOL    HW232542   5.301   5.206   2.670 -1.6513  0.0882 -0.5075
 8194SOL    HW332543   5.290   5.203   2.822 -0.2508 -0.4548 -0.4075
 8194SOL    MW432544   5.268   5.238   2.745 -0.4668 -0.4560 -0.3190
 8195SOL     OW32545   1.038   5.033   4.076  0.0747 -0.6649 -0.1282
 8195SOL    HW232546   1.056   5.125   4.055  0.6212 -0.5916  0.6076
 8195SOL    HW332547   1.122   4.989   4.070  0.2643 -0.6435  1.7471
 8195SOL    MW432548   1.051   5.040   4.073 -0.5593  0.2402 -0.3840
 8196SOL     OW32549   4.545   6.387   2.408 -0.1107 -0.3077  0.4665
 8196SOL    HW232550   4.577   6.425   2.489 -0.1105  0.1135  0.2747
 8196SOL    HW332551   4.450   6.384   2.419 -0.3049  1.5440 -0.2445
 8196SOL    MW432552   4.537   6.392   2.420 -0.6781  0.4123  1.3540
 8197SOL     OW32553   5.828   5.903   4.217  0.0147  0.4151  0.1451
 8197SOL    HW232554   5.922   5.910   4.197 -0.3090 -1.8560 -2.7682
 8197SOL    HW332555   5.821   5.821   4.267 -0.4120  0.7874  0.7079
 8197SOL    MW432556   5.840   5.893   4.221 -0.2086  0.2310 -0.1641
 8198SOL     OW32557   4.173   1.308   2.739 -0.0799 -0.3164  0.0063
 8198SOL    HW232558   4.149   1.270   2.654  2.0587 -0.3801 -0.6255
 8198SOL    HW332559   4.195   1.399   2.719  2.7879 -0.9413 -0.0220
 8198SOL    MW432560   4.172   1.315   2.725  0.0827  0.1067 -0.1363
 8199SOL     OW32561   1.410   2.447   6.113  0.5969 -0.4082  0.2245
 8199SOL    HW232562   1.358   2.367   6.107  0.3362 -0.1353 -1.5673
 8199SOL    HW332563   1.362   2.511   6.060  2.9048 -0.2562 -1.8338
 8199SOL    MW432564   1.397   2.445   6.106 -0.6953 -0.4295 -0.6836
 8200SOL     OW32565   3.659   5.209   5.179  0.3536 -0.5705 -0.1123
 8200SOL    HW232566   3.732   5.268   5.195  1.0897 -1.5925  0.4496
 8200SOL    HW332567   3.673   5.175   5.091  1.0892 -1.4538  0.3256
 8200SOL    MW432568   3.670   5.212   5.170  0.3657 -0.1950 -0.0732
 8201SOL     OW32569   4.290   3.665   3.731 -0.1280 -0.0780 -0.2419
 8201SOL    HW232570   4.363   3.665   3.669 -0.4588  1.3803 -0.6744
 8201SOL    HW332571   4.213   3.650   3.677 -0.3368  0.3964 -0.0836
 8201SOL    MW432572   4.289   3.663   3.716  0.1114 -0.5145 -0.1330
 8202SOL     OW32573   1.719   1.895   2.243 -0.5835 -0.3033  0.2326
 8202SOL    HW232574   1.784   1.935   2.186 -0.2175 -0.2035  0.7147
 8202SOL    HW332575   1.723   1.801   2.223 -2.3092 -0.0201 -1.7996
 8202SOL    MW432576   1.728   1.888   2.233 -0.4102  0.4031 -0.1363
 8203SOL     OW32577   5.960   4.422   0.635 -0.6454 -0.2259 -0.4739
 8203SOL    HW232578   5.953   4.368   0.714  1.5256  0.2192  0.0984
 8203SOL    HW332579   5.903   4.378   0.571  0.2502 -2.6508  0.2589
 8203SOL    MW432580   5.952   4.409   0.637 -0.0895 -0.5520  0.4561
 8204SOL     OW32581   3.770   1.561   0.491  0.1642 -0.2792  0.3045
 8204SOL    HW232582   3.746   1.649   0.520 -1.6577 -0.9648  1.0042
 8204SOL    HW332583   3.788   1.513   0.572 -2.7887 -1.5989  0.2950
 8204SOL    MW432584   3.769   1.567   0.506  0.0328  0.0396 -0.1522
 8205SOL     OW32585   1.334   1.745   3.075 -0.0999 -0.5179 -0.7936
 8205SOL    HW232586   1.391   1.772   3.003  1.3183  0.0048  0.4640
 8205SOL    HW332587   1.311   1.826   3.120  1.5207 -1.0260  1.0959
 8205SOL    MW432588   1.338   1.759   3.071  0.3209 -0.1333  0.4382
 8206SOL     OW32589   5.615   1.629   4.725 -0.0748 -0.3059 -0.0948
 8206SOL    HW232590   5.543   1.581   4.684 -3.6069  3.3614  1.1259
 8206SOL    HW332591   5.600   1.617   4.819  0.3801  1.1754  0.1831
 8206SOL    MW432592   5.603   1.621   4.732 -0.3010 -0.5020  0.3438
 8207SOL     OW32593   2.031   0.401   2.886  0.0124  0.3916  0.5644
 8207SOL    HW232594   2.038   0.496   2.874  1.3460  0.4689  1.7847
 8207SOL    HW332595   1.960   0.375   2.827 -0.2507  2.1132  0.0717
 8207SOL    MW432596   2.022   0.410   2.877 -0.6788  0.3122  0.4704
 8208SOL     OW32597   3.862   4.659   5.820 -0.2425 -0.2828 -0.4700
 8208SOL    HW232598   3.851   4.735   5.876  0.9795  0.9187 -1.7813
 8208SOL    HW332599   3.939   4.614   5.855  0.8288  0.7446 -1.4213
 8208SOL    MW432600   3.871   4.663   5.832 -0.1796  0.9099  0.0928
 8209SOL     OW32601   4.069   4.373   6.250  0.1538  0.3033  0.4415
 8209SOL    HW232602   4.076   4.397   6.343  0.6118 -0.9916  0.7648
 8209SOL    HW332603   3.979   4.342   6.240  1.1617 -3.3642  1.4746
 8209SOL    MW432604   4.058   4.372   6.261 -0.7564 -0.0160  0.3458
 8210SOL     OW32605   1.489   2.487   0.200  0.6283 -0.0813 -0.4341
 8210SOL    HW232606   1.477   2.522   0.111 -0.0477  2.6976  0.6273
 8210SOL    HW332607   1.572   2.524   0.229  0.4870 -0.3426  0.3367
 8210SOL    MW432608   1.498   2.497   0.192 -0.6885 -0.0849 -0.0029
 8211SOL     OW32609   1.965   4.783   0.192  0.3285  0.5685 -0.1888
 8211SOL    HW232610   1.899   4.828   0.244 -0.1974  0.0620 -0.4119
 8211SOL    HW332611   1.975   4.838   0.114  1.0754  1.2967  0.3887
 8211SOL    MW432612   1.958   4.796   0.188 -0.1208  0.1670 -0.2620
 8212SOL     OW32613   2.211   6.356   1.882  0.1662  0.2221  0.3608
 8212SOL    HW232614   2.284   6.295   1.880 -0.4214 -0.5144  0.8745
 8212SOL    HW332615   2.161   6.331   1.960 -2.0192 -0.9463 -1.2984
 8212SOL    MW432616   2.214   6.345   1.892  0.1561  0.2034 -0.3911
 8213SOL     OW32617   0.099   5.325   4.741  0.5729 -1.0461 -0.4394
 8213SOL    HW232618   0.170   5.319   4.805  0.2604  1.1187  0.1878
 8213SOL    HW332619   0.116   5.407   4.695 -0.6535 -1.2911 -1.3601
 8213SOL    MW432620   0.111   5.335   4.744  0.5841  0.0411  0.4110
 8214SOL     OW32621   1.453   2.910   4.212 -0.0566 -0.3773  0.5229
 8214SOL    HW232622   1.369   2.955   4.224 -0.5113 -1.2598  0.7194
 8214SOL    HW332623   1.505   2.936   4.288 -0.6380 -0.8813  1.0996
 8214SOL    MW432624   1.449   2.920   4.224 -0.1746 -0.0523  0.6717
 8215SOL     OW32625   1.442   5.851   2.718 -0.1210  0.0676  0.2441
 8215SOL    HW232626   1.480   5.767   2.741 -0.7158 -0.0345  0.8770
 8215SOL    HW332627   1.352   5.847   2.752 -0.0446  1.0930  0.6010
 8215SOL    MW432628   1.435   5.839   2.725 -0.3662  0.3310  0.1778
 8216SOL     OW32629   5.528   1.221   5.328 -0.6223  0.4371  0.0491
 8216SOL    HW232630   5.482   1.161   5.269  2.8572 -1.2537 -1.2269
 8216SOL    HW332631   5.563   1.164   5.397  0.7168  1.3935  0.1854
 8216SOL    MW432632   5.526   1.205   5.330 -0.4130 -0.0028 -0.0681
 8217SOL     OW32633   6.279   4.844   5.956  0.1009 -0.6858  0.5107
 8217SOL    HW232634   6.342   4.777   5.983  1.5496  0.0607 -0.8122
 8217SOL    HW332635   6.330   4.925   5.953 -1.0511  0.0439 -0.1175
 8217SOL    MW432636   6.294   4.846   5.959  0.1635  0.7096  0.5577
 8218SOL     OW32637   5.620   2.157   1.651 -0.6153 -0.1678 -0.5024
 8218SOL    HW232638   5.703   2.203   1.667 -0.6809 -0.1555 -0.2019
 8218SOL    HW332639   5.623   2.135   1.558 -1.2044  1.6901 -1.0000
 8218SOL    MW432640   5.632   2.160   1.641 -0.1863 -0.0396 -0.0578
 8219SOL     OW32641   1.163   5.149   2.193 -0.4544  0.5237 -0.5358
 8219SOL    HW232642   1.089   5.092   2.215 -0.0490 -0.1439 -0.8632
 8219SOL    HW332643   1.123   5.234   2.174 -0.9434  0.7490  1.3621
 8219SOL    MW432644   1.148   5.153   2.193  0.3243 -0.3900  0.2977
 8220SOL     OW32645   4.637   2.568   1.993  0.3518 -0.0356  0.3418
 8220SOL    HW232646   4.567   2.523   2.040 -0.4503  1.6918  0.8702
 8220SOL    HW332647   4.666   2.504   1.927 -2.3917 -0.5094 -0.5582
 8220SOL    MW432648   4.632   2.553   1.990 -0.4327 -0.4768 -0.0521
 8221SOL     OW32649   4.588   2.714   3.153  0.0996  0.3791 -0.1982
 8221SOL    HW232650   4.618   2.732   3.242 -1.8565  0.4932  0.4953
 8221SOL    HW332651   4.508   2.766   3.144 -1.7345 -2.3644 -0.7234
 8221SOL    MW432652   4.581   2.724   3.164 -0.1671 -0.5853 -0.2479
 8222SOL     OW32653   6.311   4.342   6.053 -0.1198 -0.7810 -0.4028
 8222SOL    HW232654   6.353   4.258   6.039 -1.1818 -1.5405  0.7526
 8222SOL    HW332655   6.255   4.329   6.130 -1.0305  0.7046 -0.7649
 8222SOL    MW432656   6.309   4.329   6.061 -0.2606 -0.0976 -0.1392
 8223SOL     OW32657   0.548   1.250   3.317 -0.2845  0.6261  0.4080
 8223SOL    HW232658   0.537   1.345   3.319 -0.7525  0.6784 -1.7608
 8223SOL    HW332659   0.460   1.216   3.333  0.1267  0.4646  2.6382
 8223SOL    MW432660   0.535   1.258   3.319  0.2710 -0.5186  0.1301
 8224SOL     OW32661   1.171   4.926   0.516  0.4001 -0.0603  0.0619
 8224SOL    HW232662   1.093   4.934   0.461  1.8654  1.4860 -1.9516
 8224SOL    HW332663   1.174   4.833   0.540 -2.0800 -0.1383  0.2917
 8224SOL    MW432664   1.161   4.914   0.512  0.8533 -0.0091 -0.3603
 8225SOL     OW32665   4.537   2.444   4.166  0.0207 -0.1544  0.0509
 8225SOL    HW232666   4.473   2.388   4.123  1.3868 -0.4228 -1.7682
 8225SOL    HW332667   4.508   2.533   4.145 -0.6049 -0.2327  0.5630
 8225SOL    MW432668   4.525   2.448   4.157 -0.0803 -0.3633 -0.4267
 8226SOL     OW32669   0.215   1.043   1.932  0.4495 -0.6761  0.0970
 8226SOL    HW232670   0.276   1.104   1.892 -1.6590  1.3233 -0.2650
 8226SOL    HW332671   0.213   0.968   1.872  1.5609 -0.2421 -0.5038
 8226SOL    MW432672   0.223   1.041   1.919  0.3983 -0.2025  0.5594
 8227SOL     OW32673   0.095   6.035   4.189 -0.1632  0.3801  0.0741
 8227SOL    HW232674   0.057   6.007   4.272 -1.0310  0.7589 -0.1711
 8227SOL    HW332675   0.124   5.955   4.147  0.8783  0.2482  1.0131
 8227SOL    MW432676   0.094   6.021   4.194  0.3276 -0.2836  0.2446
 8228SOL     OW32677   0.119   4.622   4.525 -0.7175 -0.0193 -0.2233
 8228SOL    HW232678   0.079   4.706   4.549 -1.2994 -0.1401 -0.7389
 8228SOL    HW332679   0.057   4.583   4.463 -0.5061 -0.8820  0.1009
 8228SOL    MW432680   0.106   4.628   4.520  0.1356  0.3063  0.1826
 8229SOL     OW32681   4.055   2.373   3.735  0.3638  0.0481 -0.7589
 8229SOL    HW232682   3.963   2.353   3.748  1.1464 -1.7746  3.8248
 8229SOL    HW332683   4.060   2.468   3.740 -1.2513  0.1776 -1.1979
 8229SOL    MW432684   4.044   2.383   3.738  0.4956 -0.7474 -0.3737
 8230SOL     OW32685   3.128   3.374   2.868  0.0097 -0.2847  0.8142
 8230SOL    HW232686   3.105   3.430   2.794  0.3614  0.0291  0.9372
 8230SOL    HW332687   3.145   3.288   2.830  0.7142  0.0078  0.4640
 8230SOL    MW432688   3.127   3.370   2.853 -0.5645  0.3619 -0.4499
 8231SOL     OW32689   4.604   4.707   1.491 -0.2061  0.1630  0.0655
 8231SOL    HW232690   4.534   4.737   1.549 -1.3852 -1.5109 -0.4143
 8231SOL    HW332691   4.650   4.639   1.542 -0.8805 -0.8954 -0.6887
 8231SOL    MW432692   4.601   4.702   1.505 -0.2796 -0.0616 -0.0936
 8232SOL     OW32693   2.166   2.597   0.475 -0.0168 -0.0209 -0.7243
 8232SOL    HW232694   2.261   2.597   0.462 -0.0214 -0.8853 -0.8252
 8232SOL    HW332695   2.145   2.506   0.496 -0.0163  0.9637  5.4162
 8232SOL    MW432696   2.176   2.585   0.476 -0.1029 -0.1416 -0.5203
 8233SOL     OW32697   2.514   0.348   3.043 -0.5709  0.3927  0.4844
 8233SOL    HW232698   2.451   0.282   3.072 -0.7256  1.5686  3.1091
 8233SOL    HW332699   2.494   0.425   3.097  0.8285  1.9707 -1.1360
 8233SOL    MW432700   2.503   0.349   3.054  0.0188 -0.4846 -0.0345
 8234SOL     OW32701   6.181   1.929   4.219 -0.3659 -0.4841 -0.2143
 8234SOL    HW232702   6.106   1.953   4.164 -0.8117  1.1613  1.0316
 8234SOL    HW332703   6.144   1.870   4.285  0.0027 -1.7823 -1.1262
 8234SOL    MW432704   6.166   1.924   4.220 -0.2212  0.4011  0.5957
 8235SOL     OW32705   6.036   4.016   3.903 -0.3971  0.0983 -0.0951
 8235SOL    HW232706   6.096   4.090   3.905 -0.3034  0.0125  0.2788
 8235SOL    HW332707   6.002   4.009   3.992 -1.0474  0.2127 -0.3229
 8235SOL    MW432708   6.039   4.025   3.915  0.3110 -0.0831 -0.4072
 8236SOL     OW32709   3.576   2.426   4.622 -0.2062 -0.3931 -0.0454
 8236SOL    HW232710   3.480   2.428   4.614 -0.1747  1.5958 -0.4725
 8236SOL    HW332711   3.594   2.347   4.673 -2.0836 -0.7691  0.1118
 8236SOL    MW432712   3.565   2.416   4.628 -0.1070  0.1721  0.7394
 8237SOL     OW32713   4.147   4.145   1.371 -0.1651  0.1566 -0.1127
 8237SOL    HW232714   4.213   4.104   1.315 -2.6611 -2.1083 -1.6418
 8237SOL    HW332715   4.188   4.146   1.458  2.0511 -0.6432 -1.0586
 8237SOL    MW432716   4.161   4.140   1.375 -0.2936 -0.3263  0.4360
 8238SOL     OW32717   5.836   4.214   1.106 -0.4297 -0.6175  0.3407
 8238SOL    HW232718   5.865   4.284   1.165 -0.9353 -0.5989  0.5801
 8238SOL    HW332719   5.866   4.241   1.020  2.2945 -1.7192  0.8376
 8238SOL    MW432720   5.844   4.227   1.103  0.2544  0.4414 -0.5523
 8239SOL     OW32721   2.066   2.024   5.632  0.2750 -0.5806 -0.2327
 8239SOL    HW232722   2.097   2.112   5.610 -0.2879 -0.3721 -0.1973
 8239SOL    HW332723   1.995   2.008   5.571 -0.7150 -0.3527  0.8149
 8239SOL    MW432724   2.061   2.034   5.621  0.2039 -0.6234 -0.4195
 8240SOL     OW32725   6.425   2.495   4.480  0.0595  0.1554 -0.2998
 8240SOL    HW232726   6.418   2.579   4.435 -1.0404 -0.4448 -1.2916
 8240SOL    HW332727   6.518   2.472   4.473  0.2711  1.0199 -0.4957
 8240SOL    MW432728   6.436   2.503   4.473 -0.1030  0.4900  0.2446
 8241SOL     OW32729   3.621   5.447   0.452  0.3506 -0.2638  0.5195
 8241SOL    HW232730   3.633   5.395   0.531 -0.7827 -1.1100  0.1611
 8241SOL    HW332731   3.574   5.525   0.480  1.2337  0.1461  0.9035
 8241SOL    MW432732   3.616   5.450   0.466  0.0913  0.0588  0.4303
 8242SOL     OW32733   2.097   0.239   0.909 -0.1125 -0.6462 -0.3388
 8242SOL    HW232734   2.015   0.192   0.922 -0.8080  0.8760  1.2885
 8242SOL    HW332735   2.147   0.222   0.988 -0.9110  2.1880  0.9293
 8242SOL    MW432736   2.093   0.231   0.921 -0.4036 -0.0401 -0.8529
 8243SOL     OW32737   1.123   0.059   0.372 -0.6715  0.0698  0.0363
 8243SOL    HW232738   1.114  -0.014   0.310 -0.5787 -0.8207  1.0502
 8243SOL    HW332739   1.112   0.137   0.318 -1.2421 -0.6972 -1.0007
 8243SOL    MW432740   1.120   0.060   0.357 -0.0174 -0.5798 -0.2176
 8244SOL     OW32741   0.901   0.874   5.204 -0.0107  0.2766 -0.4588
 8244SOL    HW232742   0.814   0.880   5.244 -0.7311  1.2792 -2.0912
 8244SOL    HW332743   0.961   0.889   5.277 -0.9245 -4.3093  1.5769
 8244SOL    MW432744   0.897   0.877   5.219 -0.8418  0.4703  0.1212
 8245SOL     OW32745   0.119   3.068   1.215 -0.1854  0.1188  0.2177
 8245SOL    HW232746   0.209   3.071   1.247 -0.2675 -1.3893  0.6851
 8245SOL    HW332747   0.100   2.974   1.206 -1.3541  0.4348 -0.9010
 8245SOL    MW432748   0.128   3.056   1.218  0.0573 -0.1970 -0.5031
 8246SOL     OW32749   5.918   0.868   4.233  0.8380 -0.3124  0.1487
 8246SOL    HW232750   5.958   0.893   4.316 -1.3176 -0.2369  1.2378
 8246SOL    HW332751   5.990   0.870   4.170  2.0087  2.5265  1.4022
 8246SOL    MW432752   5.932   0.871   4.236 -0.0172 -0.1224  0.0109
 8247SOL     OW32753   0.910   6.212   6.188 -0.4355  0.2391  0.0009
 8247SOL    HW232754   0.901   6.294   6.139  0.4082 -0.3036 -1.1000
 8247SOL    HW332755   0.855   6.150   6.140  0.0762 -0.2006 -0.0204
 8247SOL    MW432756   0.901   6.215   6.175 -0.1252  0.6614  0.2516
 8248SOL     OW32757   3.743   4.602   1.033  0.3911 -0.1957  0.3269
 8248SOL    HW232758   3.744   4.541   0.959 -0.6288  3.1075 -2.6843
 8248SOL    HW332759   3.829   4.644   1.032  0.2745  0.0709  0.8696
 8248SOL    MW432760   3.754   4.599   1.023  0.4683 -0.4621 -0.4216
 8249SOL     OW32761   3.219   4.517   2.392 -0.0673  0.1932  0.5093
 8249SOL    HW232762   3.168   4.565   2.457 -0.2116  1.8806 -0.7791
 8249SOL    HW332763   3.255   4.585   2.335 -0.4358 -1.2266 -1.5151
 8249SOL    MW432764   3.217   4.532   2.393 -0.1922  0.3240 -0.3051
 8250SOL     OW32765   4.828   0.386   1.173  0.3603 -0.0246  0.4728
 8250SOL    HW232766   4.823   0.475   1.140 -0.2224 -0.3763 -0.4339
 8250SOL    HW332767   4.832   0.331   1.095 -0.8011 -0.8674  0.9645
 8250SOL    MW432768   4.828   0.390   1.159 -0.6702 -0.4136  1.0985
 8251SOL     OW32769   2.176   0.177   1.158  0.5336  0.3194 -0.0260
 8251SOL    HW232770   2.094   0.165   1.206 -0.2174  0.5854 -1.2016
 8251SOL    HW332771   2.244   0.180   1.226 -0.1457 -2.0260  0.8482
 8251SOL    MW432772   2.174   0.176   1.174  0.2488  0.3346 -0.4905
 8252SOL     OW32773   5.822   2.359   4.933 -0.2290  0.3416 -0.1252
 8252SOL    HW232774   5.841   2.453   4.941 -1.4529  0.5896  0.1669
 8252SOL    HW332775   5.775   2.337   5.013 -1.3335 -0.1425 -0.8681
 8252SOL    MW432776   5.818   2.369   4.944  0.0900 -0.2778  0.0031
 8253SOL     OW32777   0.421   5.014   5.375  0.6491 -0.3319  0.2523
 8253SOL    HW232778   0.385   4.933   5.339  1.5597 -0.5479 -0.2213
 8253SOL    HW332779   0.458   4.989   5.460 -1.3326  0.1390  1.3073
 8253SOL    MW432780   0.421   5.000   5.381 -0.3743 -0.5179 -0.1996
 8254SOL     OW32781   2.941   1.166   6.108  0.6980 -0.5276 -0.9161
 8254SOL    HW232782   2.905   1.197   6.191  0.2729  2.5527 -2.1248
 8254SOL    HW332783   3.035   1.158   6.124  0.4301 -1.6047  0.2704
 8254SOL    MW432784   2.948   1.169   6.121  0.3260 -0.1650  0.5364
 8255SOL     OW32785   0.698   5.960   0.326 -0.4297 -0.4033  0.0412
 8255SOL    HW232786   0.713   6.054   0.323 -1.5535 -0.0719  2.3671
 8255SOL    HW332787   0.675   5.936   0.236  0.8271  1.3307 -0.7945
 8255SOL    MW432788   0.697   5.969   0.314  0.1938 -0.3949  0.1220
 8256SOL     OW32789   3.402   4.622   1.996 -0.1988  0.1046 -0.4532
 8256SOL    HW232790   3.374   4.692   1.937  0.2967 -0.0709 -0.9063
 8256SOL    HW332791   3.355   4.545   1.965  0.8878 -0.2260 -1.3177
 8256SOL    MW432792   3.392   4.621   1.984  0.3672  0.3171 -0.0190
 8257SOL     OW32793   4.777   3.759   1.550 -0.1770  0.8794  0.0840
 8257SOL    HW232794   4.753   3.789   1.638  0.2935  0.7516  0.2600
 8257SOL    HW332795   4.715   3.687   1.532 -0.0417  0.6651  0.4593
 8257SOL    MW432796   4.765   3.753   1.559 -0.3461 -0.4625  0.1949
 8258SOL     OW32797   3.957   1.673   1.947  0.3297  0.0149 -0.7721
 8258SOL    HW232798   3.979   1.637   2.033 -1.5859  0.5756  0.0046
 8258SOL    HW332799   3.967   1.768   1.958 -1.3634  0.2057 -0.6874
 8258SOL    MW432800   3.961   1.681   1.960 -0.2397 -0.3044 -0.0318
 8259SOL     OW32801   4.017   1.654   4.076 -0.2549 -0.1862  0.0997
 8259SOL    HW232802   4.027   1.745   4.047  0.3377 -0.3082 -0.0859
 8259SOL    HW332803   3.936   1.624   4.033 -0.2198  0.1168 -0.1804
 8259SOL    MW432804   4.007   1.662   4.067 -0.1801 -0.3497 -0.0798
 8260SOL     OW32805   1.125   0.433   4.053  0.1140 -0.4812 -0.3546
 8260SOL    HW232806   1.143   0.395   4.139 -0.6342  0.2911  0.1548
 8260SOL    HW332807   1.034   0.464   4.059  0.0414 -0.4584 -1.4351
 8260SOL    MW432808   1.115   0.432   4.065 -0.4693 -0.0693 -0.0982
 8261SOL     OW32809   6.094   2.435   6.321 -0.0784  0.0604  0.0911
 8261SOL    HW232810   6.050   2.426   6.405  0.9787 -0.2606  0.6339
 8261SOL    HW332811   6.115   2.346   6.294  1.1426  0.2389  0.3655
 8261SOL    MW432812   6.091   2.422   6.328  0.1842 -0.0328  0.0863
 8262SOL     OW32813   3.788   4.798   1.912 -0.4265  0.0242  0.2373
 8262SOL    HW232814   3.719   4.739   1.882 -0.3510 -0.6309  1.2727
 8262SOL    HW332815   3.846   4.742   1.965  2.5130 -0.1282 -2.7787
 8262SOL    MW432816   3.787   4.783   1.915  0.1351 -0.0461  0.1890
 8263SOL     OW32817   5.438   1.371   3.866 -0.4768  0.1958  0.2296
 8263SOL    HW232818   5.383   1.385   3.788 -0.1662  0.2736  0.0213
 8263SOL    HW332819   5.433   1.276   3.881 -2.8965  0.5068  1.8796
 8263SOL    MW432820   5.430   1.360   3.857 -0.7356 -0.0078  0.0685
 8264SOL     OW32821   3.659   2.916   2.166 -0.7381  0.3761 -0.5245
 8264SOL    HW232822   3.603   2.981   2.122 -1.8312 -0.6671 -0.7299
 8264SOL    HW332823   3.665   2.844   2.103 -0.8972 -0.4038  0.3413
 8264SOL    MW432824   3.652   2.915   2.152  0.3713 -0.6765 -1.5995
 8265SOL     OW32825   1.355   4.723   1.485  0.5342  0.1257 -0.1710
 8265SOL    HW232826   1.352   4.739   1.391 -0.0184  2.2027  0.1371
 8265SOL    HW332827   1.398   4.639   1.494  1.4419  0.3072 -2.2421
 8265SOL    MW432828   1.360   4.714   1.474 -0.3891 -0.2538 -0.1662
 8266SOL     OW32829   6.143   5.213   4.035  0.2232  0.2809  0.2407
 8266SOL    HW232830   6.135   5.298   3.991  1.4814 -0.9821 -2.7358
 8266SOL    HW332831   6.236   5.191   4.028  0.4477 -0.2529  3.3608
 8266SOL    MW432832   6.154   5.221   4.028  0.9475 -0.4629 -0.5514
 8267SOL     OW32833   2.883   3.917   5.591 -0.4482  0.2824 -0.8232
 8267SOL    HW232834   2.868   3.834   5.636 -2.4636  0.6286 -0.7291
 8267SOL    HW332835   2.977   3.921   5.577  0.0757 -0.6244  1.8610
 8267SOL    MW432836   2.893   3.907   5.595  0.2185 -0.5127 -0.1397
 8268SOL     OW32837   2.719   5.147   2.608  0.3300 -0.5516 -0.0926
 8268SOL    HW232838   2.729   5.188   2.522  1.7531  0.0460  0.3325
 8268SOL    HW332839   2.657   5.075   2.593  2.0085 -1.7020 -2.0427
 8268SOL    MW432840   2.712   5.143   2.594 -0.0081 -0.2329 -0.2808
 8269SOL     OW32841   4.034   2.647   1.775  0.3694 -0.9949  0.0359
 8269SOL    HW232842   4.009   2.591   1.701  0.9824 -0.5540 -0.5156
 8269SOL    HW332843   4.123   2.676   1.755 -0.4269  1.3545 -0.4534
 8269SOL    MW432844   4.042   2.643   1.763  0.0748  0.8762  0.0926
 8270SOL     OW32845   0.897   4.331   2.000  0.1533 -0.5143  0.3716
 8270SOL    HW232846   0.838   4.282   2.057  1.7202 -3.3706 -0.2587
 8270SOL    HW332847   0.924   4.407   2.052 -0.7864 -1.3905  2.2275
 8270SOL    MW432848   0.893   4.335   2.014 -0.4548  0.0600 -0.0275
 8271SOL     OW32849   4.135   6.059   0.737 -0.3307 -0.6137 -0.1613
 8271SOL    HW232850   4.046   6.054   0.703  0.3027 -1.5082 -1.7846
 8271SOL    HW332851   4.129   6.025   0.826 -1.8710  0.8722  0.3671
 8271SOL    MW432852   4.123   6.054   0.744  0.0761  0.3920 -0.1662
 8272SOL     OW32853   3.625   5.007   4.436 -0.5272  0.4957 -0.8098
 8272SOL    HW232854   3.538   5.017   4.476  0.0014 -0.0939  0.5426
 8272SOL    HW332855   3.651   5.096   4.413 -0.6241  0.9404  0.6827
 8272SOL    MW432856   3.617   5.020   4.438  0.1606 -0.5124 -0.3302
 8273SOL     OW32857   2.616   5.532   0.271 -0.0501  0.0224 -0.1365
 8273SOL    HW232858   2.574   5.470   0.212  0.2629 -0.6967  0.3748
 8273SOL    HW332859   2.686   5.481   0.313 -1.4926 -0.1053  2.3308
 8273SOL    MW432860   2.620   5.517   0.269 -0.3305 -0.1941 -0.3704
 8274SOL     OW32861   5.248   4.621   4.329  0.0494 -0.2447 -0.5542
 8274SOL    HW232862   5.323   4.562   4.335 -1.1845 -1.7443  1.0170
 8274SOL    HW332863   5.193   4.584   4.260 -0.4625 -0.6337  0.0543
 8274SOL    MW432864   5.250   4.609   4.321  0.1218 -0.7453 -0.0382
 8275SOL     OW32865   5.201   3.062   3.819  0.8464  0.1210  0.1343
 8275SOL    HW232866   5.288   3.078   3.856  2.0300 -1.3668 -1.8153
 8275SOL    HW332867   5.218   3.036   3.729 -1.6567 -0.0270 -0.3583
 8275SOL    MW432868   5.215   3.061   3.812 -0.1314 -0.0859  0.4246
 8276SOL     OW32869   4.069   6.113   4.050  0.1576 -0.5966  0.0592
 8276SOL    HW232870   4.158   6.143   4.063 -0.5799  1.1170  1.6292
 8276SOL    HW332871   4.076   6.017   4.047  2.1108 -0.4668 -0.7249
 8276SOL    MW432872   4.081   6.104   4.051 -0.4815  0.2940 -0.1158
 8277SOL     OW32873   4.617   2.103   4.872 -0.2068  0.7621  0.5920
 8277SOL    HW232874   4.563   2.027   4.847  0.9159 -0.6104  2.0998
 8277SOL    HW332875   4.703   2.083   4.836  0.0449  1.4481  0.8054
 8277SOL    MW432876   4.621   2.090   4.864  0.1505 -0.0349  0.2472
 8278SOL     OW32877   3.470   0.412   2.896 -0.7778  0.1837 -0.1866
 8278SOL    HW232878   3.486   0.415   2.990  1.0625  0.1157 -0.4727
 8278SOL    HW332879   3.552   0.381   2.858 -1.1288  1.2241 -1.9010
 8278SOL    MW432880   3.483   0.408   2.903  0.1515 -0.0053  0.2183
 8279SOL     OW32881   1.103   0.442   2.787  0.1766  0.1418  0.5652
 8279SOL    HW232882   1.164   0.457   2.859  1.0380 -2.2862  0.4333
 8279SOL    HW332883   1.154   0.394   2.722 -1.4201 -0.4830 -0.2711
 8279SOL    MW432884   1.118   0.437   2.788  0.0958 -0.1260  0.1905
 8280SOL     OW32885   3.527   1.092   1.829 -0.1943 -0.0406 -0.4123
 8280SOL    HW232886   3.567   1.139   1.756 -0.4985  1.0802  0.1203
 8280SOL    HW332887   3.488   1.160   1.883 -0.0151 -0.8460  0.7785
 8280SOL    MW432888   3.527   1.107   1.826  0.3083  0.2724 -0.0035
 8281SOL     OW32889   2.688   1.179   4.433  0.0713  0.7080 -0.3587
 8281SOL    HW232890   2.607   1.228   4.415  0.1589  1.2717  0.6901
 8281SOL    HW332891   2.657   1.096   4.468 -0.0765  0.9423  0.0904
 8281SOL    MW432892   2.673   1.175   4.435 -0.3533  0.1784 -0.6907
 8282SOL     OW32893   4.991   2.681   0.627 -0.1441 -0.1776  0.1083
 8282SOL    HW232894   4.937   2.609   0.594  0.2438 -0.2559 -0.3719
 8282SOL    HW332895   5.072   2.639   0.654  0.0755  0.0783 -0.1529
 8282SOL    MW432896   4.994   2.666   0.626  0.1017 -0.0257 -0.2535
 8283SOL     OW32897   3.805   0.483   0.838 -0.3788  0.9046  0.5217
 8283SOL    HW232898   3.875   0.545   0.859 -1.0473  1.7257  0.3667
 8283SOL    HW332899   3.850   0.411   0.794 -0.0076  3.1862 -3.3436
 8283SOL    MW432900   3.821   0.482   0.835 -0.2577 -0.3250  0.0616
 8284SOL     OW32901   6.023   2.587   6.070  0.4545  0.3623  0.2334
 8284SOL    HW232902   5.986   2.675   6.069  1.9275  1.0118 -0.3039
 8284SOL    HW332903   6.043   2.570   6.162 -0.6701  0.2039  0.4602
 8284SOL    MW432904   6.021   2.596   6.082  0.2231 -0.3944 -0.0742
 8285SOL     OW32905   0.999   4.100   2.914 -0.0055 -0.2093 -0.0208
 8285SOL    HW232906   1.095   4.099   2.908 -0.0137 -1.0784 -0.2141
 8285SOL    HW332907   0.970   4.063   2.830 -0.5030 -0.0728  0.0891
 8285SOL    MW432908   1.008   4.095   2.902 -0.2830 -0.6526  0.1440
 8286SOL     OW32909   3.352   3.363   5.104 -0.5397 -0.3768  0.1352
 8286SOL    HW232910   3.402   3.397   5.177  0.6728  0.8643 -1.2107
 8286SOL    HW332911   3.260   3.377   5.129 -0.1484  0.1263  1.3488
 8286SOL    MW432912   3.346   3.369   5.117 -0.2711 -0.1577  0.3136
 8287SOL     OW32913   4.043   5.148   0.143 -0.0183 -0.5245 -0.5044
 8287SOL    HW232914   3.950   5.125   0.142 -0.0568 -0.3578 -1.1471
 8287SOL    HW332915   4.070   5.134   0.233 -1.0013  0.7765  0.0213
 8287SOL    MW432916   4.034   5.143   0.154 -0.0023  0.2987 -0.1176
 8288SOL     OW32917   3.455   5.063   1.321 -0.3926 -0.5406 -0.1707
 8288SOL    HW232918   3.452   5.083   1.414 -0.7947 -2.4765  0.2874
 8288SOL    HW332919   3.516   4.989   1.314  1.7558  1.2269 -1.8436
 8288SOL    MW432920   3.463   5.055   1.332  0.0804 -0.4095  0.1392
 8289SOL     OW32921   3.930   0.138   5.583 -0.1893  0.2941  0.3243
 8289SOL    HW232922   3.914   0.178   5.669 -2.3046  0.0332  0.1111
 8289SOL    HW332923   3.935   0.044   5.602  0.1184  0.2982  0.2583
 8289SOL    MW432924   3.928   0.131   5.597 -0.3513  0.3061 -0.2592
 8290SOL     OW32925   2.427   3.753   2.766  0.1118  0.1209 -0.1129
 8290SOL    HW232926   2.344   3.799   2.779  0.0163 -0.3909  1.2508
 8290SOL    HW332927   2.438   3.700   2.845  1.3871 -0.3723 -0.5908
 8290SOL    MW432928   2.417   3.752   2.778  0.4266 -0.3064 -0.1983
 8291SOL     OW32929   1.170   5.433   0.867  0.3204 -0.3396  0.1556
 8291SOL    HW232930   1.204   5.419   0.778 -0.8460 -0.0120 -0.3619
 8291SOL    HW332931   1.155   5.528   0.872 -1.1274 -0.5478  0.1167
 8291SOL    MW432932   1.172   5.444   0.856 -0.1074 -0.1563  0.1861
 8292SOL     OW32933   0.092   1.841   5.127  0.2691  0.2859  0.0368
 8292SOL    HW232934   0.020   1.812   5.071 -0.7740 -1.1896  1.9785
 8292SOL    HW332935   0.147   1.763   5.138  1.7362  1.1835 -0.7707
 8292SOL    MW432936   0.089   1.827   5.121 -0.0559 -0.2405  0.3657
 8293SOL     OW32937   4.735   1.634   2.366  0.8909 -0.1406 -0.2671
 8293SOL    HW232938   4.771   1.553   2.329  2.1462  0.8100 -1.2295
 8293SOL    HW332939   4.809   1.674   2.412  0.9579  1.5332 -1.7145
 8293SOL    MW432940   4.750   1.629   2.367  0.4036  0.1072  0.6062
 8294SOL     OW32941   2.745   3.584   6.396 -0.3167  0.0067  0.7793
 8294SOL    HW232942   2.737   3.504   6.447  0.8241 -1.0286 -0.5665
 8294SOL    HW332943   2.803   3.640   6.448 -0.5347 -0.3289  1.3940
 8294SOL    MW432944   2.751   3.581   6.409  0.3011  0.4653 -0.0802
 8295SOL     OW32945   2.202   1.604   0.902  0.0612 -0.0605 -0.4095
 8295SOL    HW232946   2.212   1.565   0.815  0.2288  1.1036 -0.9199
 8295SOL    HW332947   2.264   1.676   0.904 -0.1167  0.0797  0.5929
 8295SOL    MW432948   2.211   1.608   0.891 -0.1304  0.2360 -0.1680
 8296SOL     OW32949   3.833   3.309   6.287 -0.2405  0.1740  0.0288
 8296SOL    HW232950   3.895   3.249   6.247 -0.2114 -0.2718  0.7178
 8296SOL    HW332951   3.832   3.385   6.230 -0.8013 -0.7635 -1.2551
 8296SOL    MW432952   3.841   3.311   6.274 -0.6804  0.5041 -0.3746
 8297SOL     OW32953   5.884   1.677   2.160 -0.9157  0.0257 -0.0402
 8297SOL    HW232954   5.924   1.728   2.230 -1.2134  0.4852 -0.2016
 8297SOL    HW332955   5.840   1.605   2.206  0.8336 -1.0244  0.0802
 8297SOL    MW432956   5.883   1.674   2.175 -0.0326 -0.0415  0.3896
 8298SOL     OW32957   0.188   2.475   5.073 -0.0996 -0.5870  0.0874
 8298SOL    HW232958   0.216   2.550   5.125 -3.8549  0.6219  0.6299
 8298SOL    HW332959   0.176   2.509   4.985  0.6975 -1.2615 -0.3029
 8298SOL    MW432960   0.190   2.489   5.068 -0.4937  0.1752  0.1909
 8299SOL     OW32961   0.590   1.237   2.085 -0.1712  0.5262  0.1466
 8299SOL    HW232962   0.587   1.154   2.038  0.5387 -0.3396  1.5855
 8299SOL    HW332963   0.500   1.250   2.116 -0.3997  0.5737 -0.5121
 8299SOL    MW432964   0.578   1.228   2.083 -0.0335 -0.1568  0.2013
 8300SOL     OW32965   2.686   5.301   0.750  0.0535  0.0001 -0.0978
 8300SOL    HW232966   2.684   5.309   0.654  1.4151  1.0277 -0.0769
 8300SOL    HW332967   2.716   5.211   0.765 -1.0134 -0.4591 -0.6125
 8300SOL    MW432968   2.690   5.290   0.739  0.1553  0.6187  0.2185
 8301SOL     OW32969   2.016   0.091   1.808  0.4210  0.0446  0.2720
 8301SOL    HW232970   2.052   0.130   1.729 -0.0805  0.4293  0.2280
 8301SOL    HW332971   2.088   0.039   1.844  1.9016  2.8184  1.6053
 8301SOL    MW432972   2.030   0.089   1.802 -1.0249 -0.0280  0.9754
 8302SOL     OW32973   5.959   6.046   5.321  0.4925  0.1839  0.1428
 8302SOL    HW232974   5.956   5.952   5.338 -0.8863  0.5168  2.1667
 8302SOL    HW332975   5.869   6.068   5.297  0.7928  1.0042 -0.2552
 8302SOL    MW432976   5.946   6.036   5.320  0.4592  0.2564  0.7911
 8303SOL     OW32977   3.546   4.173   3.659  0.0073  0.2096  0.9944
 8303SOL    HW232978   3.517   4.098   3.608  1.6302 -0.1219  0.5109
 8303SOL    HW332979   3.506   4.161   3.745  1.3513 -1.9788  1.3752
 8303SOL    MW432980   3.537   4.162   3.663 -0.5249  0.6020  0.0601
 8304SOL     OW32981   6.018   2.083   5.686 -0.5087  0.1503  0.0066
 8304SOL    HW232982   6.001   2.108   5.777 -0.5153  2.0535 -0.4723
 8304SOL    HW332983   6.031   2.166   5.640  0.2629 -0.7975 -1.5941
 8304SOL    MW432984   6.018   2.097   5.692 -0.3216  0.0916  0.1343
 8305SOL     OW32985   2.902   5.639   4.029 -0.3277  0.1039 -0.1286
 8305SOL    HW232986   2.892   5.728   3.993 -1.5629  0.1056  0.1561
 8305SOL    HW332987   2.862   5.582   3.963  0.7738 -0.2897 -0.4696
 8305SOL    MW432988   2.895   5.644   4.016  0.3445  0.4670 -0.5993
 8306SOL     OW32989   2.110   1.630   3.412 -0.2482 -0.7515 -0.0691
 8306SOL    HW232990   2.031   1.577   3.406 -0.9635 -0.2091  2.9110
 8306SOL    HW332991   2.180   1.571   3.384 -1.4548 -1.8784 -0.8390
 8306SOL    MW432992   2.109   1.615   3.408  0.1533 -0.3972  0.5891
 8307SOL     OW32993   3.959   3.365   5.590  0.0145  0.4201 -0.3592
 8307SOL    HW232994   3.966   3.317   5.508 -1.7903  0.6298 -0.6720
 8307SOL    HW332995   4.020   3.438   5.580  1.1182 -0.5150 -0.7708
 8307SOL    MW432996   3.968   3.368   5.578  0.4848 -0.6525 -0.0591
 8308SOL     OW32997   2.252   3.269   1.359 -0.3360  0.3286 -0.1278
 8308SOL    HW232998   2.213   3.202   1.302  0.6375  1.0536 -1.7009
 8308SOL    HW332999   2.184   3.287   1.424 -0.8308 -1.7765  0.0191
 8308SOL    MW433000   2.237   3.262   1.360  0.3803  0.2155  0.8242
 8309SOL     OW33001   1.185   6.022   1.516  0.6266 -0.0611 -0.5314
 8309SOL    HW233002   1.277   5.995   1.517  1.1532  1.5999  0.0840
 8309SOL    HW333003   1.143   5.961   1.455  1.6743 -2.1783  0.7464
 8309SOL    MW433004   1.192   6.011   1.508  0.3171  0.0290  0.0078
 8310SOL     OW33005   3.199   6.395   3.296 -0.7658 -0.1585  0.2236
 8310SOL    HW233006   3.226   6.422   3.208 -1.1755 -2.4295 -0.6590
 8310SOL    HW333007   3.135   6.461   3.322 -1.6859 -0.1962 -1.7779
 8310SOL    MW433008   3.194   6.407   3.288  0.2611 -0.9646  0.0977
 8311SOL     OW33009   0.997   1.483   6.178  0.1612 -0.6649 -0.3178
 8311SOL    HW233010   1.071   1.446   6.130  0.5592 -1.6445  0.9711
 8311SOL    HW333011   0.921   1.434   6.148  0.0177  0.3092 -1.6094
 8311SOL    MW433012   0.997   1.471   6.168 -0.0781 -0.0569 -0.6384
 8312SOL     OW33013   5.159   2.948   5.166 -0.3044 -0.0441 -0.0536
 8312SOL    HW233014   5.157   3.013   5.096 -0.7979 -0.2544 -0.2352
 8312SOL    HW333015   5.090   2.886   5.144 -1.3696  0.5964  1.2936
 8312SOL    MW433016   5.150   2.949   5.154 -0.2483 -0.2160  0.4124
 8313SOL     OW33017   4.263   0.985   3.160  0.2160  0.1378  0.9542
 8313SOL    HW233018   4.250   1.053   3.094  1.5191 -1.2120 -0.8322
 8313SOL    HW333019   4.191   0.923   3.146  0.1604  0.1499  1.1895
 8313SOL    MW433020   4.252   0.986   3.149 -0.0007 -0.0041 -0.5158
 8314SOL     OW33021   0.536   6.181   5.698  1.1674 -0.2255 -0.2159
 8314SOL    HW233022   0.621   6.197   5.658  2.1364  0.3382  1.9235
 8314SOL    HW333023   0.489   6.265   5.689  1.2808 -0.1775 -0.3686
 8314SOL    MW433024   0.541   6.194   5.691  0.6341  0.0727 -0.0059
 8315SOL     OW33025   4.344   0.891   1.706 -0.1185  0.8829  0.1364
 8315SOL    HW233026   4.299   0.948   1.768 -0.2622  1.4574 -0.4835
 8315SOL    HW333027   4.412   0.947   1.667 -0.8749  0.9234 -1.1735
 8315SOL    MW433028   4.347   0.906   1.709  0.6353 -0.0437  0.0421
 8316SOL     OW33029   2.174   1.575   6.340 -0.0123  0.5109 -0.3259
 8316SOL    HW233030   2.229   1.510   6.384  1.4748  1.3108 -0.9122
 8316SOL    HW333031   2.235   1.623   6.284 -1.5853  0.4401 -2.2013
 8316SOL    MW433032   2.189   1.573   6.338  0.6964 -0.7961  0.2503
 8317SOL     OW33033   2.787   4.759   3.121  0.3436 -0.0799  0.3994
 8317SOL    HW233034   2.758   4.779   3.032  0.9064 -1.8254 -0.2360
 8317SOL    HW333035   2.764   4.836   3.172 -1.4658  0.3326 -0.9242
 8317SOL    MW433036   2.780   4.772   3.116 -0.2406 -0.3722  0.3641
 8318SOL     OW33037   5.230   3.855   1.548  0.3362  0.0193  0.2855
 8318SOL    HW233038   5.174   3.782   1.523 -0.9499  0.9057  0.5232
 8318SOL    HW333039   5.282   3.822   1.621  0.1238 -0.7993  0.0747
 8318SOL    MW433040   5.230   3.841   1.554 -0.2908  0.1684  0.3879
 8319SOL     OW33041   1.077   2.099   0.448  0.1595  0.6582 -0.4070
 8319SOL    HW233042   1.124   2.021   0.477 -1.8127 -0.3344  0.2918
 8319SOL    HW333043   1.112   2.117   0.360  0.1362 -1.4686 -0.9042
 8319SOL    MW433044   1.088   2.091   0.440 -0.5043 -0.4615  0.2821
 8320SOL     OW33045   4.020   6.230   1.156  0.2330 -0.0469 -0.6144
 8320SOL    HW233046   3.966   6.298   1.195  3.0407  1.4377  1.0057
 8320SOL    HW333047   3.993   6.149   1.200  1.8174  1.2299  3.1147
 8320SOL    MW433048   4.010   6.228   1.167  0.8227  0.1742 -0.4700
 8321SOL     OW33049   5.466   1.134   0.459  0.4716 -0.4472  0.1837
 8321SOL    HW233050   5.430   1.135   0.548  0.4845 -1.8011  0.2293
 8321SOL    HW333051   5.558   1.109   0.470  0.2792 -1.4150 -0.2423
 8321SOL    MW433052   5.473   1.131   0.472 -0.5436 -0.6121  0.1850
 8322SOL     OW33053   5.465   4.454   3.244  0.7490  0.2331 -0.5139
 8322SOL    HW233054   5.404   4.521   3.214  2.3042  2.1509  0.4247
 8322SOL    HW333055   5.452   4.448   3.338  1.0985 -0.3109 -0.4895
 8322SOL    MW433056   5.456   4.462   3.252  0.6386  0.4372 -0.1890
 8323SOL     OW33057   3.451   5.480   3.537  0.4406 -0.2168  0.3006
 8323SOL    HW233058   3.545   5.466   3.549  0.4062  0.6231  1.7776
 8323SOL    HW333059   3.426   5.419   3.468  1.9995 -0.7070  0.1355
 8323SOL    MW433060   3.460   5.470   3.529  0.1122  0.9210  0.0637
 8324SOL     OW33061   5.759   3.498   0.536 -0.0590  0.0306  0.1638
 8324SOL    HW233062   5.829   3.539   0.588 -0.3149  0.6473  0.0288
 8324SOL    HW333063   5.797   3.488   0.449  1.0299 -2.6688  0.8348
 8324SOL    MW433064   5.774   3.502   0.532 -0.0449  0.0714  0.0109
 8325SOL     OW33065   4.456   5.572   6.287  0.1602 -0.2806 -0.2051
 8325SOL    HW233066   4.397   5.581   6.212  0.4228 -1.0926 -0.5197
 8325SOL    HW333067   4.405   5.522   6.351 -0.3342  1.0433  0.4722
 8325SOL    MW433068   4.441   5.566   6.286 -0.3305  0.2769  0.3618
 8326SOL     OW33069   5.260   4.911   6.249 -0.6616 -0.3121 -0.2739
 8326SOL    HW233070   5.215   4.930   6.331  0.6229 -0.0254  0.3737
 8326SOL    HW333071   5.339   4.964   6.251 -0.9004  0.1921 -1.9858
 8326SOL    MW433072   5.264   4.920   6.260  0.1965 -0.1504 -0.3438
 8327SOL     OW33073   0.861   2.998   6.143  0.0950  0.4269 -0.0469
 8327SOL    HW233074   0.883   3.041   6.226  0.6417  0.3620 -0.1519
 8327SOL    HW333075   0.768   2.979   6.150  0.3045 -0.3730  0.9240
 8327SOL    MW433076   0.852   3.001   6.155  0.8063  0.5241  0.0355
 8328SOL     OW33077   6.202   5.677   2.199 -0.7181  0.5550 -0.4872
 8328SOL    HW233078   6.188   5.769   2.175 -1.5311  0.6010  0.1635
 8328SOL    HW333079   6.181   5.629   2.119 -0.1807  0.9291 -0.8681
 8328SOL    MW433080   6.198   5.683   2.185 -0.4218 -0.0031 -0.4703
 8329SOL     OW33081   0.785   6.100   1.628 -0.9093 -0.5035  0.4990
 8329SOL    HW233082   0.819   6.020   1.669  1.9717 -0.0747 -0.7997
 8329SOL    HW333083   0.743   6.071   1.548  1.4908 -0.7074 -0.7674
 8329SOL    MW433084   0.784   6.086   1.623 -0.0468  0.3839 -0.7959
 8330SOL     OW33085   2.334   1.352   6.427 -0.3554 -0.2575  0.5995
 8330SOL    HW233086   2.301   1.325   6.341 -1.0719 -0.2678  0.8703
 8330SOL    HW333087   2.395   1.283   6.452 -0.4917 -0.4916  0.2945
 8330SOL    MW433088   2.337   1.339   6.419 -0.3351  0.5796 -0.1470
 8331SOL     OW33089   4.693   5.442   0.511  0.4372 -0.1794 -0.2392
 8331SOL    HW233090   4.781   5.405   0.505  0.4832 -0.0507 -0.3600
 8331SOL    HW333091   4.708   5.536   0.524  0.3554 -0.4028  1.8297
 8331SOL    MW433092   4.707   5.450   0.512  0.5145 -0.1327 -0.1192
 8332SOL     OW33093   5.189   1.923   5.421  0.0488 -0.6214 -0.4333
 8332SOL    HW233094   5.143   1.843   5.445  0.4118 -0.7410 -0.1345
 8332SOL    HW333095   5.204   1.914   5.327  1.4852 -1.6401 -0.1364
 8332SOL    MW433096   5.185   1.911   5.412 -0.1673  0.5854 -0.1658
 8333SOL     OW33097   3.530   1.740   5.294  0.4562  0.2606 -0.0178
 8333SOL    HW233098   3.549   1.719   5.202  0.0376  0.7950 -0.2323
 8333SOL    HW333099   3.475   1.668   5.324  1.4335 -0.4366  0.1149
 8333SOL    MW433100   3.525   1.728   5.285  0.8550  0.0148 -0.0492
 8334SOL     OW33101   0.945   1.841   3.089 -0.2203  0.4860  0.0233
 8334SOL    HW233102   0.984   1.803   3.168  0.2769  1.0039  0.0319
 8334SOL    HW333103   0.994   1.801   3.017 -1.1114 -0.4857 -0.0606
 8334SOL    MW433104   0.957   1.831   3.090  0.9711  0.5104  0.0363
 8335SOL     OW33105   3.286   2.843   6.248 -0.3603  0.5630  0.4643
 8335SOL    HW233106   3.311   2.809   6.334 -0.3071  1.1128  0.6725
 8335SOL    HW333107   3.192   2.860   6.255 -0.3289  0.7410  0.4617
 8335SOL    MW433108   3.277   2.841   6.260  0.1937 -0.3511  0.0450
 8336SOL     OW33109   1.793   0.801   0.458  0.0646  0.7316 -0.2396
 8336SOL    HW233110   1.888   0.804   0.445 -0.1688  1.9793 -2.0463
 8336SOL    HW333111   1.767   0.715   0.425  0.6995 -0.2160  1.6218
 8336SOL    MW433112   1.802   0.790   0.452 -0.0570  0.2089  0.5094
 8337SOL     OW33113   5.873   1.450   5.046 -0.4108  0.4964 -0.4450
 8337SOL    HW233114   5.962   1.479   5.022 -1.4713  2.5108 -2.3499
 8337SOL    HW333115   5.832   1.528   5.083 -1.3578 -0.4842  0.6638
 8337SOL    MW433116   5.879   1.464   5.048 -0.6638 -0.4450  0.1325
 8338SOL     OW33117   3.234   5.723   2.051 -0.4830  0.0507  0.0744
 8338SOL    HW233118   3.158   5.741   2.106  0.6995  0.5505  1.6160
 8338SOL    HW333119   3.298   5.789   2.077  0.6478 -0.6407 -0.8730
 8338SOL    MW433120   3.232   5.734   2.061  0.2896  0.6798  0.5117
 8339SOL     OW33121   4.660   0.025   6.131 -0.1154  0.5997  0.1474
 8339SOL    HW233122   4.625   0.051   6.045  0.7895 -1.0055 -0.7466
 8339SOL    HW333123   4.633  -0.066   6.142  0.5720  0.5000  1.1494
 8339SOL    MW433124   4.652   0.017   6.121  0.5273  0.2003  0.2155
 8340SOL     OW33125   2.474   1.651   3.491 -0.1569  0.0942  0.1523
 8340SOL    HW233126   2.430   1.566   3.501 -1.1601  0.6885  1.0084
 8340SOL    HW333127   2.429   1.709   3.554  1.4639  0.8923  0.6260
 8340SOL    MW433128   2.462   1.648   3.501  0.2810 -0.3929 -0.1968
 8341SOL     OW33129   1.239   0.510   5.434 -0.2920  0.0073 -0.0968
 8341SOL    HW233130   1.256   0.596   5.473 -0.0821  0.6677 -1.5707
 8341SOL    HW333131   1.325   0.469   5.426 -0.1699  0.4277 -1.0615
 8341SOL    MW433132   1.252   0.516   5.438 -0.1336 -0.1658  0.0699
 8342SOL     OW33133   5.079   3.282   3.462 -0.2036 -0.8424  0.1413
 8342SOL    HW233134   5.080   3.314   3.552 -0.3426  1.2774 -0.5649
 8342SOL    HW333135   5.003   3.224   3.458 -1.2886  0.4728  0.9386
 8342SOL    MW433136   5.069   3.279   3.473 -0.4449 -0.1328  0.4599
 8343SOL     OW33137   5.173   5.097   1.064  0.4463 -0.1983 -1.2031
 8343SOL    HW233138   5.147   5.050   0.985 -1.4122  1.4033 -1.6243
 8343SOL    HW333139   5.098   5.089   1.123  0.8818  0.5416 -0.5142
 8343SOL    MW433140   5.159   5.090   1.062  0.0002  0.3306 -0.4373
 8344SOL     OW33141   0.503   4.150   6.162  0.3747  0.2382 -0.0289
 8344SOL    HW233142   0.507   4.236   6.205  0.7034  0.7315 -1.0052
 8344SOL    HW333143   0.409   4.133   6.152  0.3028  0.3840  0.3609
 8344SOL    MW433144   0.491   4.159   6.166 -0.4958 -0.2542 -0.4234
 8345SOL     OW33145   4.561   5.287   6.146  0.2497 -0.0605 -0.4318
 8345SOL    HW233146   4.543   5.221   6.079  0.2478 -0.1120 -0.3812
 8345SOL    HW333147   4.507   5.362   6.121 -0.4333 -0.3908 -0.0010
 8345SOL    MW433148   4.551   5.288   6.134 -0.2300  0.2514 -0.2577
 8346SOL     OW33149   2.598   3.603   0.931  0.7301  0.1443 -0.1671
 8346SOL    HW233150   2.520   3.564   0.892  0.0225  1.4992 -0.1567
 8346SOL    HW333151   2.567   3.685   0.970  2.6300  2.4470 -3.0113
 8346SOL    MW433152   2.584   3.609   0.931  0.0858 -0.1055  0.0068
 8347SOL     OW33153   5.330   5.647   1.445  0.2381 -0.0872 -0.4733
 8347SOL    HW233154   5.309   5.739   1.429  0.4247  0.7879  3.3800
 8347SOL    HW333155   5.262   5.616   1.505  1.0738 -1.9905 -0.4302
 8347SOL    MW433156   5.319   5.655   1.451  0.1073  0.1718 -0.7285
 8348SOL     OW33157   1.229   2.813   6.392  0.9183  0.1136 -0.7240
 8348SOL    HW233158   1.297   2.747   6.404  1.9220  0.9487 -1.7115
 8348SOL    HW333159   1.187   2.820   6.478  1.9236 -0.5750 -0.1660
 8348SOL    MW433160   1.232   2.805   6.405  0.1491 -0.0801  0.7046
 8349SOL     OW33161   5.863   3.111   5.289 -0.7143  0.4889 -0.6525
 8349SOL    HW233162   5.824   3.024   5.280  0.1203 -0.0310  0.5216
 8349SOL    HW333163   5.790   3.166   5.318 -0.8990 -0.1816  0.2112
 8349SOL    MW433164   5.848   3.107   5.292  0.2971  0.1032  0.2110
 8350SOL     OW33165   3.146   1.590   2.788  0.0446  0.3933 -0.4123
 8350SOL    HW233166   3.221   1.583   2.730 -0.2275 -0.0575 -0.7175
 8350SOL    HW333167   3.155   1.517   2.849  0.4235  0.9693  0.2314
 8350SOL    MW433168   3.157   1.580   2.788  0.1097 -0.4202  1.0594
 8351SOL     OW33169   3.472   0.529   3.139  0.0055  0.1703  0.3051
 8351SOL    HW233170   3.467   0.625   3.136 -2.9481  0.0959  0.6534
 8351SOL    HW333171   3.461   0.507   3.232  3.0253 -0.5370  0.6240
 8351SOL    MW433172   3.470   0.539   3.151  0.3101  0.3387 -0.0306
 8352SOL     OW33173   4.006   3.682   6.296 -0.1292 -0.3776  0.1610
 8352SOL    HW233174   4.003   3.736   6.375  0.1270 -0.2604  0.0935
 8352SOL    HW333175   3.923   3.634   6.296 -0.5957  0.4068 -0.0525
 8352SOL    MW433176   3.995   3.683   6.306  0.4275  0.1795  0.6377
 8353SOL     OW33177   2.606   2.230   4.089  0.1023  0.0060 -0.0617
 8353SOL    HW233178   2.620   2.157   4.149  0.1618  1.0074  1.1752
 8353SOL    HW333179   2.535   2.281   4.129  0.4353  0.9253 -0.6077
 8353SOL    MW433180   2.598   2.227   4.102  0.2263  0.2160  0.2924
 8354SOL     OW33181   1.809   3.248   0.626 -0.6116 -0.4538 -0.0259
 8354SOL    HW233182   1.728   3.248   0.677 -1.0291 -1.2166 -0.6817
 8354SOL    HW333183   1.862   3.317   0.667 -1.9201  0.6583 -0.1364
 8354SOL    MW433184   1.806   3.257   0.638 -0.8558 -0.3512 -0.2885
 8355SOL     OW33185   1.681   1.366   1.546  0.2872  0.3606  0.2094
 8355SOL    HW233186   1.684   1.433   1.614  1.7094 -2.2156  2.8967
 8355SOL    HW333187   1.591   1.333   1.549 -0.1692  1.4751 -0.5149
 8355SOL    MW433188   1.670   1.370   1.555 -0.1081  0.2812 -0.1335
 8356SOL     OW33189   4.790   6.004   0.772  0.1555 -0.4097  0.1369
 8356SOL    HW233190   4.838   5.939   0.823 -0.3910 -1.3806 -0.5207
 8356SOL    HW333191   4.712   6.023   0.824  0.5831  0.1418  0.5824
 8356SOL    MW433192   4.786   5.998   0.785  0.3317 -0.3878 -0.7753
 8357SOL     OW33193   5.765   1.079   5.901 -0.0525  0.2187  0.4923
 8357SOL    HW233194   5.732   1.092   5.990  0.1524  0.7043  0.5036
 8357SOL    HW333195   5.858   1.102   5.906 -0.2639  1.2637 -0.0562
 8357SOL    MW433196   5.773   1.084   5.913  0.8747  0.0008  0.3622
 8358SOL     OW33197   4.503   4.344   6.112  0.0873 -0.0873 -0.2588
 8358SOL    HW233198   4.414   4.323   6.083 -0.1648 -0.6357  0.8654
 8358SOL    HW333199   4.528   4.420   6.059 -1.1731  0.2814 -0.3581
 8358SOL    MW433200   4.494   4.351   6.101 -1.0115  0.8958  0.2855
 8359SOL     OW33201   5.009   4.665   0.961  0.0279  0.2104  0.2322
 8359SOL    HW233202   4.945   4.728   0.927 -0.9448 -0.6693  0.3964
 8359SOL    HW333203   5.001   4.589   0.905  1.6199  0.4101 -0.3301
 8359SOL    MW433204   5.000   4.663   0.949 -0.3341 -0.0855 -0.3197
 8360SOL     OW33205   4.944   1.639   3.174 -0.2197  0.0554 -0.5093
 8360SOL    HW233206   4.873   1.634   3.110  0.0885  0.6933 -0.9041
 8360SOL    HW333207   4.960   1.733   3.186  1.2351 -0.0777 -1.1905
 8360SOL    MW433208   4.937   1.651   3.167 -0.4500 -0.2118 -0.1326
 8361SOL     OW33209   5.479   0.287   5.849 -0.7478  0.6583 -0.0522
 8361SOL    HW233210   5.407   0.271   5.787 -0.8771  0.5233  0.1288
 8361SOL    HW333211   5.486   0.205   5.897 -0.8435  0.8606  0.3107
 8361SOL    MW433212   5.470   0.274   5.847 -0.0505  0.2388 -0.0655
 8362SOL     OW33213   0.719   1.364   3.562  0.5150  0.0974  0.2963
 8362SOL    HW233214   0.789   1.414   3.520 -0.0759  0.2919 -0.4971
 8362SOL    HW333215   0.675   1.320   3.489 -0.0954 -0.1368  0.7981
 8362SOL    MW433216   0.723   1.365   3.546 -0.0163  0.1637  0.2680
 8363SOL     OW33217   2.628   3.108   4.678  0.6657  0.0908  0.2667
 8363SOL    HW233218   2.683   3.044   4.632 -2.6610 -1.7240 -1.5997
 8363SOL    HW333219   2.617   3.072   4.766 -0.3320 -1.4734 -0.4497
 8363SOL    MW433220   2.634   3.095   4.683  0.3620  0.5480  0.4690
 8364SOL     OW33221   1.122   4.801   3.811  0.0246 -0.1988  0.0123
 8364SOL    HW233222   1.124   4.705   3.807 -1.2177 -0.2477  0.3015
 8364SOL    HW333223   1.166   4.823   3.893 -0.4090 -0.5640  0.3438
 8364SOL    MW433224   1.128   4.791   3.821 -0.0513  0.5512  0.1896
 8365SOL     OW33225   0.266   2.655   6.041  0.3589 -0.7648 -0.0710
 8365SOL    HW233226   0.315   2.614   6.112  0.4741 -0.1622  0.2027
 8365SOL    HW333227   0.262   2.748   6.065  0.6534 -0.5042 -0.9914
 8365SOL    MW433228   0.272   2.662   6.054 -0.2343  0.1770 -0.3564
 8366SOL     OW33229   0.693   1.533   2.512 -0.4165 -0.2598  0.0461
 8366SOL    HW233230   0.751   1.457   2.522 -0.0039 -0.1268 -1.0995
 8366SOL    HW333231   0.649   1.518   2.428 -2.3960 -0.5640  1.0712
 8366SOL    MW433232   0.695   1.521   2.502 -0.6509 -0.4140 -0.0398
 8367SOL     OW33233   0.565   2.269   0.313  0.1909 -0.1883  0.0195
 8367SOL    HW233234   0.652   2.233   0.328  0.5013  0.8202  0.7533
 8367SOL    HW333235   0.514   2.195   0.278  1.7739 -0.3582 -2.1214
 8367SOL    MW433236   0.570   2.254   0.310 -0.2462  0.0979  0.1330
 8368SOL     OW33237   5.374   3.743   1.906  0.1314  0.9409 -0.1837
 8368SOL    HW233238   5.413   3.698   1.981  1.2222  0.7289 -0.8564
 8368SOL    HW333239   5.449   3.776   1.857 -0.5122 -0.0412 -1.8728
 8368SOL    MW433240   5.389   3.741   1.910  0.3793 -0.5409  0.6174
 8369SOL     OW33241   2.793   6.268   1.006  0.0044  0.4949 -0.0487
 8369SOL    HW233242   2.867   6.288   0.949 -0.3258  0.6919 -0.4158
 8369SOL    HW333243   2.818   6.303   1.091  0.5163  0.1732 -0.0607
 8369SOL    MW433244   2.806   6.275   1.009  0.6425  0.4934 -0.6801
 8370SOL     OW33245   0.748   1.584   3.219 -0.0222 -0.1255 -0.4934
 8370SOL    HW233246   0.718   1.605   3.131  0.8265  1.7201 -0.3928
 8370SOL    HW333247   0.749   1.668   3.265 -0.7562 -1.0836  1.3867
 8370SOL    MW433248   0.744   1.598   3.213  0.4181  0.2793 -0.1325
 8371SOL     OW33249   1.844   3.552   5.861 -0.1092 -0.2640 -0.2670
 8371SOL    HW233250   1.917   3.506   5.903  0.5705  1.0116 -0.0201
 8371SOL    HW333251   1.837   3.634   5.909 -1.4747 -0.2094 -0.5421
 8371SOL    MW433252   1.853   3.557   5.873  0.2209  0.7237 -0.0282
 8372SOL     OW33253   6.278   0.488   3.037  0.1575 -0.1399 -0.3966
 8372SOL    HW233254   6.308   0.570   3.076  0.1838 -0.3481  0.0245
 8372SOL    HW333255   6.246   0.436   3.110 -2.5807  0.6050 -0.9428
 8372SOL    MW433256   6.278   0.492   3.051 -0.3480 -0.1010 -0.3364
 8373SOL     OW33257   5.675   3.353   2.918  0.3339 -0.0059  0.1210
 8373SOL    HW233258   5.718   3.379   2.999  1.6991  0.3699 -0.6954
 8373SOL    HW333259   5.647   3.435   2.877 -1.1804 -0.2400  0.6195
 8373SOL    MW433260   5.677   3.367   2.923 -0.1475 -0.5121 -0.3296
 8374SOL     OW33261   2.870   1.486   1.982  0.1858  0.0492  0.1690
 8374SOL    HW233262   2.886   1.491   2.077  2.1845  1.0683 -0.1627
 8374SOL    HW333263   2.865   1.577   1.954 -1.5611 -0.2460 -0.5766
 8374SOL    MW433264   2.872   1.498   1.991 -0.3759  0.5252  0.1755
 8375SOL     OW33265   2.100   2.584   5.164 -0.2443 -0.3505 -0.1211
 8375SOL    HW233266   2.065   2.567   5.251  0.2105  1.3788  0.4393
 8375SOL    HW333267   2.042   2.651   5.128  1.0173  0.7571 -0.1467
 8375SOL    MW433268   2.088   2.591   5.171  0.1289  0.0438 -0.4197
 8376SOL     OW33269   3.580   6.290   5.304 -0.0304 -0.4346 -0.2456
 8376SOL    HW233270   3.623   6.234   5.369  0.7052  1.2646  0.8294
 8376SOL    HW333271   3.647   6.355   5.281 -1.4942  1.3436  0.2774
 8376SOL    MW433272   3.594   6.291   5.310  0.0337 -0.3664  0.4916
 8377SOL     OW33273   4.922   5.480   2.503  0.1935  0.3355 -0.0815
 8377SOL    HW233274   4.948   5.389   2.487  0.5634  0.2024  1.1411
 8377SOL    HW333275   4.998   5.532   2.476  0.5298  0.1655  0.4949
 8377SOL    MW433276   4.936   5.475   2.498  0.0951 -0.0050 -0.0769
 8378SOL     OW33277   3.704   5.222   2.805  0.7702  0.2277  0.7777
 8378SOL    HW233278   3.731   5.251   2.717 -1.4699  1.2427  0.3730
 8378SOL    HW333279   3.746   5.137   2.815  2.1042  0.6417 -0.7498
 8378SOL    MW433280   3.713   5.215   2.794  0.7047 -0.1165 -0.1055
 8379SOL     OW33281   3.440   0.030   4.637 -0.1370 -0.4169 -0.7451
 8379SOL    HW233282   3.431  -0.060   4.605 -0.1002 -0.5614 -0.3611
 8379SOL    HW333283   3.373   0.079   4.590 -0.9986 -0.8966 -0.0609
 8379SOL    MW433284   3.430   0.025   4.627  0.3409 -0.0214 -0.1331
 8380SOL     OW33285   0.211   5.221   5.727  0.1603  0.5460 -0.1791
 8380SOL    HW233286   0.220   5.284   5.655 -0.3175 -1.2177 -1.8627
 8380SOL    HW333287   0.300   5.211   5.761  0.4158  1.2882 -0.6003
 8380SOL    MW433288   0.224   5.228   5.722 -0.1852 -0.2568 -0.0671
 8381SOL     OW33289   1.276   1.527   5.597 -0.6391  0.2753 -0.2873
 8381SOL    HW233290   1.326   1.604   5.622 -1.0340 -0.3828  3.0024
 8381SOL    HW333291   1.341   1.468   5.558  0.4984  0.6983  0.8996
 8381SOL    MW433292   1.291   1.529   5.595  0.2410 -0.0324  0.4871
 8382SOL     OW33293   4.370   5.690   5.229  0.3449 -0.1903  0.1959
 8382SOL    HW233294   4.370   5.628   5.303  0.2468 -1.6370 -0.9665
 8382SOL    HW333295   4.367   5.776   5.270 -1.8532 -0.9696  1.8942
 8382SOL    MW433296   4.369   5.693   5.245  0.4125 -0.6214  0.4719
 8383SOL     OW33297   4.831   4.401   5.402  0.0157  0.2836 -0.1644
 8383SOL    HW233298   4.856   4.493   5.405  0.9588  0.0247  0.7030
 8383SOL    HW333299   4.897   4.357   5.455 -0.8379 -0.8034  0.0286
 8383SOL    MW433300   4.843   4.407   5.409  0.1934 -0.1790  0.0888
 8384SOL     OW33301   4.183   5.670   0.206 -0.0126  0.1054 -0.1521
 8384SOL    HW233302   4.122   5.602   0.179  1.0996 -0.4326 -1.4154
 8384SOL    HW333303   4.150   5.750   0.165 -0.5115  0.0532  0.1385
 8384SOL    MW433304   4.171   5.672   0.197  0.6013 -0.4976  0.3220
 8385SOL     OW33305   3.825   0.709   1.139  0.1156 -0.0266 -0.2239
 8385SOL    HW233306   3.857   0.791   1.175 -2.6841  2.0344 -2.0018
 8385SOL    HW333307   3.860   0.706   1.050 -1.3382  0.2913 -0.8335
 8385SOL    MW433308   3.834   0.719   1.132  0.1835 -0.3841  0.5107
 8386SOL     OW33309   2.632   0.221   5.593 -0.0764 -0.2836  0.2880
 8386SOL    HW233310   2.614   0.280   5.520 -0.9597 -0.4628  0.3427
 8386SOL    HW333311   2.671   0.277   5.661  0.3664 -0.0377 -0.1688
 8386SOL    MW433312   2.635   0.236   5.593 -0.2356  0.3525  0.0980
 8387SOL     OW33313   1.834   2.681   3.805 -0.0932  0.7447 -0.6311
 8387SOL    HW233314   1.916   2.665   3.852  1.2175 -1.4908 -3.3485
 8387SOL    HW333315   1.856   2.665   3.713 -3.6465 -0.2022 -1.4640
 8387SOL    MW433316   1.848   2.677   3.799 -0.2209  0.3881 -0.6841
 8388SOL     OW33317   2.405   1.488   2.890 -0.2176 -0.2658 -0.0372
 8388SOL    HW233318   2.476   1.426   2.872  0.2655 -0.1792  1.4483
 8388SOL    HW333319   2.420   1.560   2.828 -0.0624 -1.0581 -0.9397
 8388SOL    MW433320   2.417   1.489   2.880 -0.3595 -0.4657 -0.6379
 8389SOL     OW33321   2.317   0.965   2.488 -0.2241 -0.1042 -0.2706
 8389SOL    HW233322   2.391   0.917   2.451 -0.9264 -0.7395 -0.8865
 8389SOL    HW333323   2.252   0.967   2.418 -1.2994 -0.6826  0.6772
 8389SOL    MW433324   2.318   0.959   2.474 -0.4828  0.2124 -0.1687
 8390SOL     OW33325   2.882   2.377   4.136  0.0884  0.0071 -0.2892
 8390SOL    HW233326   2.825   2.393   4.060  1.3775  1.8872 -0.9350
 8390SOL    HW333327   2.825   2.387   4.212 -0.8594 -0.2078 -0.9531
 8390SOL    MW433328   2.867   2.380   4.136  0.5289  0.2073  0.0964
 8391SOL     OW33329   1.700   2.683   1.206  0.6969  0.0408 -0.0845
 8391SOL    HW233330   1.745   2.599   1.214  1.2883  0.3145 -0.4911
 8391SOL    HW333331   1.682   2.692   1.112  0.9682  0.5391 -0.0876
 8391SOL    MW433332   1.703   2.673   1.195 -0.0413  0.0692  0.3405
 8392SOL     OW33333   3.783   3.300   1.959 -0.2795  0.4466  0.5016
 8392SOL    HW233334   3.718   3.360   1.993  1.1015  1.4422  1.5249
 8392SOL    HW333335   3.821   3.259   2.037 -1.1942 -1.7948 -0.1755
 8392SOL    MW433336   3.780   3.303   1.973 -0.0526 -0.9402 -0.1356
 8393SOL     OW33337   4.382   1.505   0.111  0.6174 -0.1705  0.3785
 8393SOL    HW233338   4.288   1.499   0.091  0.4913 -0.2451  0.9850
 8393SOL    HW333339   4.413   1.577   0.056  0.5247 -1.1332 -1.0020
 8393SOL    MW433340   4.374   1.513   0.101 -0.3031  0.0824  0.3211
 8394SOL     OW33341   6.056   0.844   1.391  0.0362 -0.5217 -0.3632
 8394SOL    HW233342   6.117   0.905   1.432  1.1735  0.2695 -3.0168
 8394SOL    HW333343   6.018   0.894   1.319  0.9016 -2.8313 -2.5506
 8394SOL    MW433344   6.059   0.859   1.387  0.5710  0.4965 -0.0888
 8395SOL     OW33345   2.015   1.605   4.578  0.2275  0.0314 -0.2746
 8395SOL    HW233346   2.039   1.514   4.596  0.0704  0.0198 -0.1169
 8395SOL    HW333347   2.073   1.632   4.507 -0.3457 -0.4844 -0.9508
 8395SOL    MW433348   2.026   1.596   4.571 -0.5129 -0.1260 -0.0310
 8396SOL     OW33349   4.094   3.674   4.366  0.5369  0.3087 -0.4223
 8396SOL    HW233350   4.061   3.608   4.426  0.6064 -1.5834 -2.3295
 8396SOL    HW333351   4.017   3.727   4.344 -1.2279 -3.0500 -3.5525
 8396SOL    MW433352   4.079   3.672   4.371 -0.0736  0.7867 -0.0233
 8397SOL     OW33353   5.242   2.140   1.919  0.5701  0.1290  0.5255
 8397SOL    HW233354   5.298   2.086   1.974 -0.2830  0.4991  1.8138
 8397SOL    HW333355   5.175   2.175   1.979 -0.1365  0.9157 -0.6598
 8397SOL    MW433356   5.240   2.138   1.934 -0.4270 -0.1788  0.6941
 8398SOL     OW33357   2.087   6.281   2.130 -0.4156 -0.4213 -0.4713
 8398SOL    HW233358   2.011   6.327   2.165  1.0396  0.1802  2.1602
 8398SOL    HW333359   2.089   6.198   2.177  0.1317 -0.7670 -1.0857
 8398SOL    MW433360   2.078   6.277   2.141  0.4816  0.1571  0.2937
 8399SOL     OW33361   0.475   4.395   1.302 -0.2208 -0.0775  0.0269
 8399SOL    HW233362   0.489   4.301   1.287 -0.5927  0.2264 -2.8557
 8399SOL    HW333363   0.384   4.409   1.275  0.0628  1.2221 -0.2993
 8399SOL    MW433364   0.465   4.384   1.297 -0.0691 -0.5906 -0.3269
 8400SOL     OW33365   4.160   0.437   4.269 -0.2160  0.0469  0.1603
 8400SOL    HW233366   4.122   0.428   4.182 -1.2281 -0.9545  0.6825
 8400SOL    HW333367   4.103   0.384   4.325 -0.9536  2.4345  1.8346
 8400SOL    MW433368   4.147   0.429   4.265 -0.1371  0.1162  0.6027
 8401SOL     OW33369   1.679   3.012   5.322 -0.5333  0.8489  0.1708
 8401SOL    HW233370   1.684   2.951   5.396 -0.4356  0.6091 -0.0334
 8401SOL    HW333371   1.639   2.961   5.252 -0.5696  1.0600  0.0379
 8401SOL    MW433372   1.674   2.997   5.323  0.3133  0.0788 -0.6216
 8402SOL     OW33373   3.171   1.483   6.059  0.5051  0.6360  0.2990
 8402SOL    HW233374   3.191   1.413   5.997  0.6403  1.2198 -0.3253
 8402SOL    HW333375   3.098   1.531   6.019  0.8000  1.2064  0.4252
 8402SOL    MW433376   3.164   1.480   6.046 -0.2691  0.2771 -0.0434
 8403SOL     OW33377   1.919   0.757   4.314 -0.3743  0.4384 -0.3164
 8403SOL    HW233378   1.934   0.841   4.358 -1.8842 -0.0261  1.1908
 8403SOL    HW333379   1.964   0.693   4.369  0.4200  0.1715 -1.2347
 8403SOL    MW433380   1.927   0.760   4.327  0.7056 -0.2837 -0.1947
 8404SOL     OW33381   4.415   3.003   1.852  0.0830  0.4095 -0.0406
 8404SOL    HW233382   4.468   3.079   1.874  0.7027  0.0695 -0.3284
 8404SOL    HW333383   4.333   3.039   1.820  1.1996  1.0661 -2.4180
 8404SOL    MW433384   4.411   3.018   1.851 -0.3485  0.1530 -0.3342
 8405SOL     OW33385   1.503   4.848   5.037  0.0681 -0.5189 -0.3195
 8405SOL    HW233386   1.445   4.882   5.104  0.4712  0.6979 -0.5733
 8405SOL    HW333387   1.456   4.773   5.000 -0.1473 -1.2176  1.3131
 8405SOL    MW433388   1.489   4.842   5.041 -0.0676 -0.7240 -0.5636
 8406SOL     OW33389   2.086   5.949   5.057  0.4368 -0.2361  0.2667
 8406SOL    HW233390   2.100   5.922   4.966  0.1733 -0.3271  0.2547
 8406SOL    HW333391   2.022   6.020   5.051 -0.3809 -0.9477  0.4756
 8406SOL    MW433392   2.079   5.955   5.044 -0.0636 -0.3569 -0.7309
 8407SOL     OW33393   2.344   4.110   5.148 -0.7075  0.0950  0.3948
 8407SOL    HW233394   2.311   4.103   5.237 -4.4025  2.1498 -0.6071
 8407SOL    HW333395   2.307   4.034   5.103 -0.3346  0.0140  0.2223
 8407SOL    MW433396   2.335   4.099   5.154 -0.4178 -0.6229 -0.0237
 8408SOL     OW33397   5.590   5.005   0.734 -0.6223  0.0341  0.2857
 8408SOL    HW233398   5.607   4.913   0.713 -2.1036 -0.1804 -0.1365
 8408SOL    HW333399   5.657   5.053   0.685  0.8079 -0.8309  1.3074
 8408SOL    MW433400   5.601   4.999   0.724  0.3764  0.3619  0.5579
 8409SOL     OW33401   2.286   0.144   5.381 -0.2626  0.5648 -0.0372
 8409SOL    HW233402   2.283   0.048   5.385  0.3286  0.5272 -0.4977
 8409SOL    HW333403   2.289   0.171   5.473  1.1813  0.0851  0.0726
 8409SOL    MW433404   2.286   0.135   5.394  0.1775  0.0644  0.4776
 8410SOL     OW33405   0.632   0.457   3.334  0.0824 -0.3316 -0.3758
 8410SOL    HW233406   0.683   0.436   3.256 -0.4258 -2.5816 -0.1921
 8410SOL    HW333407   0.584   0.537   3.312  1.5682  0.2746 -1.5464
 8410SOL    MW433408   0.632   0.465   3.321  0.1928 -0.0399 -0.2311
 8411SOL     OW33409   1.846   6.300   5.997 -0.1697  0.2078  0.6993
 8411SOL    HW233410   1.778   6.268   5.938  0.3325 -4.3973  2.2805
 8411SOL    HW333411   1.927   6.261   5.964  1.0014  1.7305  1.6001
 8411SOL    MW433412   1.848   6.291   5.985  0.2792 -0.1058  0.1190
 8412SOL     OW33413   3.578   1.909   5.509 -0.0001  0.0117 -0.5669
 8412SOL    HW233414   3.488   1.937   5.493 -0.1379 -0.1129 -0.0005
 8412SOL    HW333415   3.626   1.938   5.430 -0.5076  0.1713 -0.8207
 8412SOL    MW433416   3.573   1.917   5.496 -0.2363 -0.3643 -1.0220
 8413SOL     OW33417   6.118   5.540   1.984  0.3524  0.1755 -0.4128
 8413SOL    HW233418   6.036   5.546   1.934  0.3408  0.6290 -0.3480
 8413SOL    HW333419   6.134   5.446   1.994  0.0771  0.0845 -0.8157
 8413SOL    MW433420   6.109   5.528   1.979 -0.8066 -0.1772  0.0803
 8414SOL     OW33421   4.166   5.947   2.902 -0.1357  0.0019 -0.3994
 8414SOL    HW233422   4.154   6.035   2.868  0.0332  0.2429  0.1495
 8414SOL    HW333423   4.147   5.889   2.828  0.0385  0.5059 -0.8431
 8414SOL    MW433424   4.162   5.951   2.888 -0.1376  0.2590 -0.3094
 8415SOL     OW33425   3.384   0.118   1.285  0.5394  0.4900  0.1007
 8415SOL    HW233426   3.384   0.068   1.366  0.0359 -0.1820 -0.3066
 8415SOL    HW333427   3.351   0.204   1.310 -0.8499 -0.1087  0.3831
 8415SOL    MW433428   3.380   0.123   1.299 -0.2733 -0.1259 -0.2108
 8416SOL     OW33429   5.142   6.209   5.511 -0.2048 -0.2584  0.2448
 8416SOL    HW233430   5.171   6.273   5.445 -0.0494 -0.0188  0.5418
 8416SOL    HW333431   5.135   6.127   5.463  0.1110 -0.1299 -0.0281
 8416SOL    MW433432   5.145   6.207   5.496  0.2657 -1.1321  0.5816
 8417SOL     OW33433   5.012   4.961   4.565 -0.1336  0.2012 -0.1379
 8417SOL    HW233434   4.949   4.914   4.509  0.3911 -0.9976  0.2456
 8417SOL    HW333435   5.075   4.894   4.591  1.6496  1.4863 -0.9781
 8417SOL    MW433436   5.012   4.946   4.561  0.2881  0.6430 -0.1213
 8418SOL     OW33437   6.119   4.395   1.841  0.4106  0.7592 -0.0889
 8418SOL    HW233438   6.036   4.427   1.875  0.2486  0.7135 -0.4387
 8418SOL    HW333439   6.105   4.387   1.747 -0.6803 -3.5079  0.2190
 8418SOL    MW433440   6.107   4.398   1.833 -0.2820 -0.1493  0.0683
 8419SOL     OW33441   0.393   3.945   2.593  0.2138 -0.0827  0.3979
 8419SOL    HW233442   0.306   3.905   2.603  1.0227 -2.2983 -0.7281
 8419SOL    HW333443   0.449   3.895   2.652  0.8958  0.7572  0.4728
 8419SOL    MW433444   0.389   3.933   2.602  0.4308 -0.4794  0.3355
 8420SOL     OW33445   3.069   2.735   3.149 -0.4804  0.0658  0.3792
 8420SOL    HW233446   3.052   2.756   3.240 -0.1169  0.8719  0.2675
 8420SOL    HW333447   3.072   2.639   3.146 -0.2718  0.0439  1.2495
 8420SOL    MW433448   3.067   2.725   3.160  0.6050 -0.0287 -0.6228
 8421SOL     OW33449   1.996   2.835   6.373 -0.1476 -0.0264  0.2612
 8421SOL    HW233450   1.967   2.917   6.333 -1.3925  0.0425  1.2562
 8421SOL    HW333451   1.936   2.822   6.447  1.9347 -0.2501  2.0065
 8421SOL    MW433452   1.984   2.844   6.377 -0.2342 -0.7322 -0.3014
 8422SOL     OW33453   2.798   5.313   4.139  1.2582 -0.2769  0.0020
 8422SOL    HW233454   2.891   5.305   4.159  1.2607 -1.9450 -0.5311
 8422SOL    HW333455   2.793   5.309   4.044  0.6595  0.0010  0.0176
 8422SOL    MW433456   2.809   5.311   4.129 -0.3324 -0.4031 -0.4667
 8423SOL     OW33457   2.910   2.990   0.813  0.5333 -0.1053 -0.1960
 8423SOL    HW233458   2.975   2.921   0.801 -0.0426 -0.9441  1.2409
 8423SOL    HW333459   2.959   3.071   0.803  1.1722 -0.6694 -2.2319
 8423SOL    MW433460   2.925   2.991   0.810 -0.3794 -0.6635 -0.0013
 8424SOL     OW33461   2.641   5.742   6.089 -0.5148  0.2388 -0.2269
 8424SOL    HW233462   2.611   5.703   6.171  1.4960  2.0741  1.4812
 8424SOL    HW333463   2.621   5.835   6.097 -0.0574  0.4899 -1.6960
 8424SOL    MW433464   2.635   5.749   6.101 -0.5238 -0.2834  0.5459
 8425SOL     OW33465   1.472   0.022   5.921 -0.1286  0.0863  0.4047
 8425SOL    HW233466   1.524   0.054   5.847  0.0390  0.3340  0.6283
 8425SOL    HW333467   1.513   0.062   5.998  1.0116 -1.8144  0.8505
 8425SOL    MW433468   1.485   0.031   5.921  0.1500 -0.3025 -0.2864
 8426SOL     OW33469   3.487   2.264   1.296  0.1832 -0.0797 -0.2469
 8426SOL    HW233470   3.512   2.255   1.388  1.3974 -0.6928 -0.6157
 8426SOL    HW333471   3.518   2.183   1.254  2.0632  1.2852 -1.6950
 8426SOL    MW433472   3.494   2.252   1.302  0.4580 -0.5830  0.2290
 8427SOL     OW33473   2.628   0.374   1.628  0.4803  0.0241 -0.0971
 8427SOL    HW233474   2.611   0.284   1.655  3.3615 -0.5843  0.0245
 8427SOL    HW333475   2.674   0.366   1.545  0.9328  1.3539  0.0004
 8427SOL    MW433476   2.632   0.361   1.621 -0.2294 -0.0832  0.7490
 8428SOL     OW33477   0.882   5.340   4.373  0.3420 -0.2482  0.7740
 8428SOL    HW233478   0.863   5.247   4.361 -1.6957  0.3049 -0.8555
 8428SOL    HW333479   0.940   5.362   4.300 -0.0740 -0.0317  0.5018
 8428SOL    MW433480   0.887   5.331   4.362 -0.0683  0.4883 -0.1737
 8429SOL     OW33481   5.810   4.391   4.746  0.5438 -0.0225  0.2187
 8429SOL    HW233482   5.792   4.418   4.836  0.1200 -1.9574  0.7716
 8429SOL    HW333483   5.850   4.467   4.705 -0.9589  1.5330  1.4986
 8429SOL    MW433484   5.813   4.404   4.752  0.7408 -0.1697 -0.1705
 8430SOL     OW33485   1.377   4.468   0.626 -0.0510  0.6104  0.2561
 8430SOL    HW233486   1.422   4.393   0.587  0.2230  0.0625  1.5778
 8430SOL    HW333487   1.366   4.444   0.718 -2.8594  0.7955  0.0524
 8430SOL    MW433488   1.381   4.455   0.633 -0.5140  0.2455 -0.0743
 8431SOL     OW33489   1.352   6.171   4.672  0.7142  0.2777  0.1119
 8431SOL    HW233490   1.430   6.195   4.723  1.2759  1.6093 -1.3074
 8431SOL    HW333491   1.383   6.102   4.614  0.4324 -0.2581  0.5922
 8431SOL    MW433492   1.367   6.165   4.671 -0.4277 -0.1045 -0.0548
 8432SOL     OW33493   4.011   3.509   5.195 -0.2506  0.0892  0.3403
 8432SOL    HW233494   4.024   3.593   5.150 -0.1526 -0.1250 -0.0334
 8432SOL    HW333495   4.078   3.452   5.158  0.7179  0.2823  1.7180
 8432SOL    MW433496   4.022   3.513   5.184  0.2981 -0.2347  0.2827
 8433SOL     OW33497   2.485   0.759   3.850  0.2743  0.1137  0.6873
 8433SOL    HW233498   2.541   0.835   3.837  2.4908 -1.6898 -1.2722
 8433SOL    HW333499   2.429   0.782   3.924  0.1804  3.9517 -0.3918
 8433SOL    MW433500   2.485   0.772   3.858  0.7606  0.1206  0.0725
 8434SOL     OW33501   6.236   5.664   0.840 -0.0900  0.0823  0.1652
 8434SOL    HW233502   6.319   5.679   0.795 -0.7916  1.3450 -0.7799
 8434SOL    HW333503   6.193   5.595   0.789  1.2965 -2.3065  2.0026
 8434SOL    MW433504   6.242   5.657   0.828  0.2034 -0.0941  0.2046
 8435SOL     OW33505   0.906   3.784   0.099  0.1778 -0.1664  0.1682
 8435SOL    HW233506   0.838   3.755   0.159 -0.4318  1.5734  0.3791
 8435SOL    HW333507   0.890   3.735   0.019 -1.1347 -0.0251  0.3236
 8435SOL    MW433508   0.895   3.774   0.097  0.2465 -0.6291 -0.3581
 8436SOL     OW33509   0.301   0.389   3.477 -0.0273  0.0950  0.7616
 8436SOL    HW233510   0.361   0.382   3.402  0.0194  1.3931  0.6646
 8436SOL    HW333511   0.220   0.425   3.441 -0.9090 -1.6480  0.8956
 8436SOL    MW433512   0.298   0.393   3.463  0.2781  0.1809 -0.3848
 8437SOL     OW33513   2.424   3.734   2.016 -0.5071  0.6983 -0.8100
 8437SOL    HW233514   2.493   3.676   1.984 -0.5566  0.2373 -0.1122
 8437SOL    HW333515   2.468   3.793   2.076 -0.8811 -0.3235  0.5161
 8437SOL    MW433516   2.439   3.734   2.019 -0.2163  0.4975  0.4389
 8438SOL     OW33517   1.684   5.042   4.954 -0.3928 -0.1310  0.1774
 8438SOL    HW233518   1.703   5.027   4.861 -0.3901 -1.8242  0.4070
 8438SOL    HW333519   1.621   4.973   4.976 -1.7582  1.3116  1.0357
 8438SOL    MW433520   1.678   5.031   4.945 -0.8894 -0.1529  0.0044
 8439SOL     OW33521   5.469   5.900   1.868  0.2492  0.4592 -0.1034
 8439SOL    HW233522   5.538   5.966   1.879  1.9434 -0.7194 -2.6598
 8439SOL    HW333523   5.493   5.830   1.929 -0.6455  1.4156  1.4264
 8439SOL    MW433524   5.481   5.899   1.878  0.3130  0.0411 -0.3995
 8440SOL     OW33525   1.691   3.999   3.211  0.1081  0.0383 -0.1388
 8440SOL    HW233526   1.604   4.027   3.240 -0.6181 -2.4812  0.3846
 8440SOL    HW333527   1.730   4.077   3.172 -2.5815  1.1408 -0.8347
 8440SOL    MW433528   1.684   4.013   3.210  0.1024 -0.3044 -0.3862
 8441SOL     OW33529   3.951   5.622   3.987 -0.5050  0.0378  0.2950
 8441SOL    HW233530   3.926   5.714   3.994  2.0943  0.8081  0.6660
 8441SOL    HW333531   3.928   5.598   3.897  1.0597  1.9002 -0.6964
 8441SOL    MW433532   3.945   5.631   3.976  0.5470 -0.2954 -0.3039
 8442SOL     OW33533   0.492   0.276   2.343 -0.0370 -0.2414 -0.0229
 8442SOL    HW233534   0.579   0.239   2.333 -0.5966 -1.3651 -0.9868
 8442SOL    HW333535   0.465   0.299   2.255 -0.9162 -0.4147  0.1893
 8442SOL    MW433536   0.500   0.274   2.330 -0.3184 -0.5358  0.7610
 8443SOL     OW33537   3.729   1.035   4.529 -0.1626 -0.2405  0.2422
 8443SOL    HW233538   3.777   0.961   4.492 -0.5160 -0.5749  0.4517
 8443SOL    HW333539   3.676   1.069   4.457 -0.5936 -0.6801  0.3507
 8443SOL    MW433540   3.729   1.030   4.515  0.7504  0.4808  0.4434
 8444SOL     OW33541   4.498   4.706   3.784 -0.3679 -0.2617  0.2210
 8444SOL    HW233542   4.553   4.746   3.716  0.3194 -0.4317  0.6690
 8444SOL    HW333543   4.514   4.759   3.862 -0.3335 -0.7014  0.5184
 8444SOL    MW433544   4.508   4.718   3.785 -0.5334 -0.1743  0.2312
 8445SOL     OW33545   5.397   1.122   5.092 -0.1236 -0.3985  0.3823
 8445SOL    HW233546   5.452   1.067   5.038  0.9976 -0.5730  1.6336
 8445SOL    HW333547   5.316   1.073   5.103  0.1240 -0.9174 -0.0983
 8445SOL    MW433548   5.393   1.108   5.087 -0.3222  0.5287 -0.0168
 8446SOL     OW33549   2.778   4.730   1.794 -0.0064 -0.6437 -0.1585
 8446SOL    HW233550   2.741   4.731   1.883  0.2733  0.5268 -0.0434
 8446SOL    HW333551   2.739   4.805   1.751  1.3486 -0.0608 -0.3950
 8446SOL    MW433552   2.768   4.740   1.800 -0.4790 -0.8967  0.8022
 8447SOL     OW33553   6.245   2.531   2.050  0.2753  0.5992 -0.1822
 8447SOL    HW233554   6.281   2.490   2.129  0.2607  0.7803 -0.0807
 8447SOL    HW333555   6.317   2.528   1.987  0.4435  0.8793 -0.0087
 8447SOL    MW433556   6.259   2.525   2.052  0.3969  0.0448 -0.0484
 8448SOL     OW33557   2.489   0.517   0.309 -0.3134 -0.6841 -0.2350
 8448SOL    HW233558   2.549   0.578   0.266 -1.2018  0.1866 -0.2599
 8448SOL    HW333559   2.544   0.469   0.371  0.0905  1.4287  1.1372
 8448SOL    MW433560   2.504   0.518   0.311  0.1433 -0.3095  0.0225
 8449SOL     OW33561   5.121   3.815   5.889 -0.2612  0.0517  0.1250
 8449SOL    HW233562   5.169   3.799   5.971  0.6958  1.8359 -0.0327
 8449SOL    HW333563   5.123   3.731   5.844  0.4236 -0.6080  1.3222
 8449SOL    MW433564   5.128   3.802   5.894 -0.6192  0.6452 -0.2826
 8450SOL     OW33565   2.110   5.040   3.633  0.1452  0.5929  0.3760
 8450SOL    HW233566   2.039   5.069   3.574  1.0580  0.9449 -0.5846
 8450SOL    HW333567   2.071   5.042   3.720 -0.5862  2.3012  0.0534
 8450SOL    MW433568   2.095   5.044   3.636  0.4381 -0.2873  0.2821
 8451SOL     OW33569   4.475   5.450   1.719  0.0031 -0.0706  0.2298
 8451SOL    HW233570   4.544   5.496   1.672  0.3913  0.3395  1.1746
 8451SOL    HW333571   4.393   5.486   1.685  0.2940  1.7114  1.2897
 8451SOL    MW433572   4.473   5.461   1.709 -0.3187  0.6495  0.4102
 8452SOL     OW33573   4.411   2.993   2.589  0.8818  0.1330 -0.1950
 8452SOL    HW233574   4.360   2.939   2.530  2.2749 -0.7611 -0.6212
 8452SOL    HW333575   4.365   2.989   2.673  1.4875 -2.6192  0.0926
 8452SOL    MW433576   4.398   2.986   2.593  0.6059 -0.1687 -0.0269
 8453SOL     OW33577   5.873   0.157   4.372  0.1524  0.5074 -0.2160
 8453SOL    HW233578   5.958   0.180   4.335  0.5499 -4.2676 -3.1002
 8453SOL    HW333579   5.810   0.199   4.314  0.5899  1.0293 -0.3232
 8453SOL    MW433580   5.876   0.165   4.359 -0.3932 -0.3947 -0.0760
 8454SOL     OW33581   4.967   4.000   2.908  0.0791  0.4674  0.4997
 8454SOL    HW233582   4.954   4.029   2.818  0.7739 -0.4227  0.0902
 8454SOL    HW333583   5.057   4.025   2.929  0.3308 -0.4068  0.5042
 8454SOL    MW433584   4.977   4.007   2.899  0.5996 -0.3407  0.0183
 8455SOL     OW33585   3.308   0.682   1.429  0.1122  0.0448 -0.2797
 8455SOL    HW233586   3.272   0.766   1.458  0.8897 -0.3165  1.9872
 8455SOL    HW333587   3.329   0.636   1.511 -1.2333 -2.8069 -1.4017
 8455SOL    MW433588   3.306   0.687   1.444  0.0202 -0.3577  0.4651
 8456SOL     OW33589   4.818   4.878   4.776 -0.2443 -0.6686 -0.1586
 8456SOL    HW233590   4.837   4.789   4.750 -0.8802 -1.0605  0.6600
 8456SOL    HW333591   4.878   4.932   4.725  0.7831 -1.6260  0.0092
 8456SOL    MW433592   4.828   4.874   4.766  0.1017  0.0937 -0.1815
 8457SOL     OW33593   4.175   6.147   5.477 -0.3423 -0.5197 -0.2146
 8457SOL    HW233594   4.223   6.078   5.431  2.7557 -1.1611  3.4805
 8457SOL    HW333595   4.206   6.229   5.438  2.6144 -1.0138  0.8402
 8457SOL    MW433596   4.185   6.149   5.466 -0.2052 -0.0408  0.9413
 8458SOL     OW33597   0.152   4.949   4.843 -0.2014 -0.3395 -0.3529
 8458SOL    HW233598   0.240   4.912   4.843  0.1757  0.4100  1.5261
 8458SOL    HW333599   0.123   4.941   4.934 -1.3667  1.0462 -0.5674
 8458SOL    MW433600   0.160   4.943   4.855 -0.3204 -0.4308 -0.1232
 8459SOL     OW33601   0.108   6.148   2.424  0.4767 -0.2156  0.1114
 8459SOL    HW233602   0.092   6.220   2.363  0.7752  0.1868  0.4956
 8459SOL    HW333603   0.069   6.178   2.506  0.3706 -0.6076  0.2031
 8459SOL    MW433604   0.101   6.162   2.427  0.1809  0.0567 -0.0544
 8460SOL     OW33605   1.107   2.708   3.471 -0.6619 -0.5111  0.0993
 8460SOL    HW233606   1.159   2.628   3.455  0.4888  0.2470 -0.0782
 8460SOL    HW333607   1.097   2.747   3.384 -1.3801 -0.5458  0.1638
 8460SOL    MW433608   1.113   2.702   3.457  0.1957  0.0780  0.0311
 8461SOL     OW33609   2.077   3.102   3.338 -0.8434  0.1380 -0.2887
 8461SOL    HW233610   2.153   3.159   3.322 -1.8720  1.2003 -1.7161
 8461SOL    HW333611   2.052   3.072   3.251 -0.7708 -1.9807  0.3744
 8461SOL    MW433612   2.084   3.106   3.324  0.0569 -0.0224 -0.3450
 8462SOL     OW33613   2.068   2.497   3.178  0.3273  0.9130  0.7311
 8462SOL    HW233614   2.059   2.573   3.235  0.0377 -0.9039  3.3457
 8462SOL    HW333615   2.113   2.432   3.233  1.3104 -0.5455 -1.6454
 8462SOL    MW433616   2.073   2.498   3.193 -0.0423  0.4744 -0.1085
 8463SOL     OW33617   1.030   3.151   1.230  0.2318 -0.0813 -0.0015
 8463SOL    HW233618   1.077   3.077   1.190  0.1054  0.1093 -0.5090
 8463SOL    HW333619   1.085   3.178   1.303  0.7249 -0.1084 -0.3587
 8463SOL    MW433620   1.043   3.145   1.234  0.4757  0.1742  0.0122
 8464SOL     OW33621   1.303   6.014   6.389 -0.3361  1.2550  0.2541
 8464SOL    HW233622   1.265   6.101   6.401 -0.3842  1.1475  0.9330
 8464SOL    HW333623   1.252   5.975   6.318 -0.5639  1.6382  0.2039
 8464SOL    MW433624   1.291   6.020   6.381  0.5470  0.3259 -0.6534
 8465SOL     OW33625   3.299   1.232   5.311  0.1418  0.8972 -0.0097
 8465SOL    HW233626   3.371   1.195   5.362 -0.2183  0.2482  0.0385
 8465SOL    HW333627   3.220   1.199   5.354 -0.1705  0.0873 -1.1636
 8465SOL    MW433628   3.298   1.223   5.324  0.0283 -0.1228 -0.0639
 8466SOL     OW33629   6.172   6.146   3.056 -0.4160  0.1136  0.3247
 8466SOL    HW233630   6.132   6.211   2.999 -1.5552 -0.4690  0.4300
 8466SOL    HW333631   6.222   6.090   2.996 -0.6021  0.2341  0.0535
 8466SOL    MW433632   6.173   6.147   3.041 -0.1601 -0.5143 -0.2613
 8467SOL     OW33633   2.149   1.070   2.289 -0.0661  0.8262 -0.4678
 8467SOL    HW233634   2.151   1.163   2.313 -1.9362  1.1882 -1.5792
 8467SOL    HW333635   2.104   1.067   2.205 -1.3712 -1.2150  0.2185
 8467SOL    MW433636   2.143   1.082   2.281  1.0380  0.0257  0.9014
 8468SOL     OW33637   1.213   0.256   4.288  0.1505 -0.0932  0.2469
 8468SOL    HW233638   1.137   0.237   4.342 -0.1799  1.3045  0.3131
 8468SOL    HW333639   1.257   0.328   4.333  0.0462  0.8896 -1.1487
 8468SOL    MW433640   1.209   0.263   4.301 -0.2472 -0.3432  0.0514
 8469SOL     OW33641   0.476   2.417   5.121 -0.0178  0.1096 -0.0343
 8469SOL    HW233642   0.385   2.435   5.099 -0.2922 -0.1317  0.8446
 8469SOL    HW333643   0.518   2.503   5.119 -0.4761  0.3550  0.4547
 8469SOL    MW433644   0.469   2.431   5.118 -0.1900  0.2990  0.4755
 8470SOL     OW33645   3.401   2.583   1.552  0.1720  0.0882  0.0462
 8470SOL    HW233646   3.349   2.662   1.538 -0.3240  0.0605  1.5454
 8470SOL    HW333647   3.336   2.512   1.552  0.5411 -0.2588 -0.6663
 8470SOL    MW433648   3.385   2.584   1.550  0.2006 -0.1510 -0.4830
 8471SOL     OW33649   0.308   4.275   0.136  0.2649  0.5327 -0.1601
 8471SOL    HW233650   0.342   4.194   0.174  2.1164 -0.0231 -2.6517
 8471SOL    HW333651   0.238   4.302   0.195  1.2632 -1.4868  2.1534
 8471SOL    MW433652   0.304   4.268   0.148  0.1416 -0.1986 -0.9004
 8472SOL     OW33653   0.432   4.107   5.415  0.0665  0.7242  0.3879
 8472SOL    HW233654   0.479   4.174   5.366 -0.6031  1.8522  1.2556
 8472SOL    HW333655   0.384   4.058   5.348  1.6516  0.1766 -0.4041
 8472SOL    MW433656   0.432   4.109   5.400  0.7376 -0.4813  0.8143
 8473SOL     OW33657   2.060   5.432   0.510  0.2079 -0.4055  0.4054
 8473SOL    HW233658   2.088   5.425   0.601 -0.2779  0.0668  0.5978
 8473SOL    HW333659   1.965   5.416   0.513  0.3470 -1.4626 -0.1626
 8473SOL    MW433660   2.051   5.429   0.522  0.6498  0.0688 -0.0062
 8474SOL     OW33661   4.271   3.378   5.035  0.3683  0.0525  0.0739
 8474SOL    HW233662   4.225   3.408   4.956 -1.9962 -1.4361  0.8237
 8474SOL    HW333663   4.295   3.288   5.016  1.6280  0.3090  0.3287
 8474SOL    MW433664   4.268   3.370   5.022 -0.5141  0.6558  0.0727
 8475SOL     OW33665   0.226   5.710   1.986 -0.2423 -0.5017 -0.2576
 8475SOL    HW233666   0.160   5.652   2.026 -0.0715 -0.6950 -0.2529
 8475SOL    HW333667   0.201   5.798   2.015 -2.5484 -0.1171 -3.0589
 8475SOL    MW433668   0.214   5.714   1.995  0.2889 -0.0098  0.1557
 8476SOL     OW33669   2.890   2.468   3.625  0.1665  0.9678 -0.0744
 8476SOL    HW233670   2.840   2.500   3.550 -0.1425 -2.1250 -1.3249
 8476SOL    HW333671   2.916   2.379   3.600  1.6061  0.4848  2.7862
 8476SOL    MW433672   2.887   2.460   3.612 -0.2485  0.1467 -0.0227
 8477SOL     OW33673   5.475   3.063   1.025 -0.0192 -0.1609 -0.2830
 8477SOL    HW233674   5.494   3.145   0.981 -0.5599  0.4792  0.6437
 8477SOL    HW333675   5.490   2.996   0.959  0.7072  0.6555 -0.9696
 8477SOL    MW433676   5.480   3.065   1.011 -0.6409 -0.4237  0.6015
 8478SOL     OW33677   6.414   5.534   4.089  0.0434  0.5969 -0.0131
 8478SOL    HW233678   6.474   5.607   4.101  1.1076 -0.2735  0.0789
 8478SOL    HW333679   6.338   5.556   4.143 -0.0302  2.0331 -0.6780
 8478SOL    MW433680   6.412   5.546   4.098  0.0392 -0.5681 -0.4129
 8479SOL     OW33681   0.058   5.461   3.257 -0.0956 -0.2613 -0.0081
 8479SOL    HW233682   0.097   5.534   3.207 -1.4739 -0.3832 -1.3341
 8479SOL    HW333683   0.132   5.405   3.277  0.7556  0.6555 -0.4528
 8479SOL    MW433684   0.073   5.464   3.253 -0.2615  0.6370 -0.5251
 8480SOL     OW33685   5.009   6.095   0.520 -0.2418  0.0926 -0.0218
 8480SOL    HW233686   5.070   6.059   0.584 -0.5941 -0.2767  0.1031
 8480SOL    HW333687   4.957   6.158   0.569  0.9246  1.4209 -0.4119
 8480SOL    MW433688   5.010   6.099   0.535 -0.5857  0.4983  0.0234
 8481SOL     OW33689   6.227   2.509   1.661  0.1171  0.0309 -0.2442
 8481SOL    HW233690   6.161   2.460   1.711 -0.1707  0.7484  0.0994
 8481SOL    HW333691   6.308   2.499   1.711  0.4492 -1.4150 -1.0200
 8481SOL    MW433692   6.229   2.501   1.675 -0.1607 -0.3806 -0.6472
 8482SOL     OW33693   0.317   0.445   6.028 -0.4804  0.0520 -0.0169
 8482SOL    HW233694   0.371   0.389   6.083 -0.0230  1.0280  0.5636
 8482SOL    HW333695   0.377   0.481   5.963 -0.6099  0.4326  0.0680
 8482SOL    MW433696   0.332   0.442   6.027  0.6937  0.9178 -0.8875
 8483SOL     OW33697   2.381   4.875   2.807  0.2155  0.1623 -0.1555
 8483SOL    HW233698   2.451   4.813   2.787  1.7908  1.5820  0.6821
 8483SOL    HW333699   2.321   4.869   2.733  1.0834 -1.2789 -0.7764
 8483SOL    MW433700   2.382   4.866   2.795 -0.2414  0.5794 -0.4944
 8484SOL     OW33701   2.642   0.545   3.907 -0.3225 -0.4701  0.3533
 8484SOL    HW233702   2.620   0.477   3.970 -0.9540 -2.6613 -2.0245
 8484SOL    HW333703   2.564   0.599   3.901 -0.8306 -1.1900  0.3419
 8484SOL    MW433704   2.629   0.543   3.914  0.1218  0.0538 -0.5030
 8485SOL     OW33705   0.286   5.435   0.998 -0.1899  0.1561  0.0860
 8485SOL    HW233706   0.198   5.418   0.965 -0.0719  2.5457 -1.7347
 8485SOL    HW333707   0.272   5.496   1.071 -0.1044 -0.4798  0.6384
 8485SOL    MW433708   0.273   5.441   1.004 -0.4778 -0.0124  0.1467
 8486SOL     OW33709   2.957   1.342   2.734 -0.0395 -0.4300  0.0071
 8486SOL    HW233710   2.893   1.370   2.669  1.4495  2.2617 -0.4048
 8486SOL    HW333711   2.964   1.415   2.795  1.3440 -1.3750  1.0535
 8486SOL    MW433712   2.950   1.355   2.733 -0.1489 -0.1155 -0.1240
 8487SOL     OW33713   0.838   4.048   5.232 -0.5928 -0.4897 -0.0056
 8487SOL    HW233714   0.811   3.985   5.299 -0.2881 -1.6691 -0.9547
 8487SOL    HW333715   0.771   4.042   5.164  0.2609 -0.9752 -0.8305
 8487SOL    MW433716   0.826   4.039   5.232  0.3519  0.5645 -0.2906
 8488SOL     OW33717   2.762   3.335   5.856 -0.3270 -0.3525  0.2252
 8488SOL    HW233718   2.819   3.355   5.930 -1.5183 -2.1772  1.7174
 8488SOL    HW333719   2.724   3.250   5.877 -2.5337  0.1606 -1.3538
 8488SOL    MW433720   2.764   3.326   5.868 -0.3090  0.1552  0.5102
 8489SOL     OW33721   6.254   1.526   3.882 -0.4924 -0.2192  0.1924
 8489SOL    HW233722   6.205   1.607   3.895  1.1931  0.9113 -0.0747
 8489SOL    HW333723   6.188   1.462   3.855 -1.8086  1.1945 -0.1045
 8489SOL    MW433724   6.239   1.528   3.880 -0.2258 -0.7294 -0.6207
 8490SOL     OW33725   4.590   4.680   5.638 -0.5980 -0.1238  0.0735
 8490SOL    HW233726   4.559   4.627   5.565  0.0207 -2.0367  1.1260
 8490SOL    HW333727   4.680   4.650   5.653  0.5087  2.5977 -0.4903
 8490SOL    MW433728   4.598   4.669   5.630 -0.0697 -0.2087 -0.3553
 8491SOL     OW33729   3.940   0.090   2.158  0.6572  0.2009 -0.4965
 8491SOL    HW233730   3.996   0.163   2.186 -1.6544  1.8592  0.2075
 8491SOL    HW333731   3.883   0.074   2.233 -1.8394  0.7520 -2.1439
 8491SOL    MW433732   3.939   0.098   2.171 -0.4934 -0.3313  0.5014
 8492SOL     OW33733   2.708   3.323   0.737 -0.6299  0.5065  0.9043
 8492SOL    HW233734   2.666   3.270   0.806 -3.2265 -0.0652 -0.9795
 8492SOL    HW333735   2.792   3.280   0.723  0.1405  0.8173  3.8359
 8492SOL    MW433736   2.714   3.310   0.745  0.0827  1.1277 -0.7241
 8493SOL     OW33737   5.622   2.278   4.368  0.4836  0.3746 -0.6543
 8493SOL    HW233738   5.546   2.279   4.426  0.6071  0.4889 -0.4930
 8493SOL    HW333739   5.645   2.371   4.356  1.3082  0.2968  0.2371
 8493SOL    MW433740   5.615   2.291   4.374  0.0153  0.3054  0.3185
 8494SOL     OW33741   2.682   0.250   0.088  0.2460  0.1782  0.4864
 8494SOL    HW233742   2.592   0.231   0.061  0.3151 -0.6616  0.7991
 8494SOL    HW333743   2.729   0.266   0.007 -0.6962  3.1326  0.4298
 8494SOL    MW433744   2.677   0.249   0.074  0.3897 -0.1831  0.1847
 8495SOL     OW33745   2.757   2.395   5.706 -0.4831  0.3644  0.2931
 8495SOL    HW233746   2.810   2.392   5.626 -0.0691  0.1560  0.5725
 8495SOL    HW333747   2.684   2.336   5.688 -1.7419  2.1579 -0.8619
 8495SOL    MW433748   2.754   2.387   5.693 -0.2966 -0.0263 -0.1132
 8496SOL     OW33749   4.808   2.078   5.302  0.3090  0.0802  0.6279
 8496SOL    HW233750   4.867   2.129   5.246 -1.6158  0.3385 -1.3080
 8496SOL    HW333751   4.832   1.986   5.285  1.1527  0.2063  1.0745
 8496SOL    MW433752   4.819   2.072   5.292  0.2785  0.4023  0.2077
 8497SOL     OW33753   2.113   2.065   0.407 -0.2293 -0.4978 -0.6003
 8497SOL    HW233754   2.133   1.979   0.445 -1.1308 -0.0309  1.0437
 8497SOL    HW333755   2.023   2.056   0.375  0.2928 -0.6768 -2.0998
 8497SOL    MW433756   2.104   2.052   0.408  0.2293 -0.4198 -0.2266
 8498SOL     OW33757   5.356   3.213   3.244 -0.2211  0.7774  0.2115
 8498SOL    HW233758   5.268   3.197   3.209  0.8498  0.2776 -2.5015
 8498SOL    HW333759   5.354   3.305   3.270 -1.5823  0.7418  0.3352
 8498SOL    MW433760   5.344   3.223   3.242 -0.3577  0.0351  0.5338
 8499SOL     OW33761   2.326   5.644   3.681  0.2004 -0.2533  0.2854
 8499SOL    HW233762   2.391   5.685   3.623 -1.0136  1.7197  0.2228
 8499SOL    HW333763   2.285   5.577   3.628 -2.5194  3.0061 -2.1594
 8499SOL    MW433764   2.329   5.641   3.667 -0.2423 -0.3625  0.1215
 8500SOL     OW33765   1.388   5.467   3.661 -0.0199  0.4155  0.0563
 8500SOL    HW233766   1.438   5.387   3.645 -0.9207 -0.0226 -0.6837
 8500SOL    HW333767   1.318   5.439   3.721 -0.2740  0.6775 -0.1180
 8500SOL    MW433768   1.385   5.453   3.667 -0.9613  0.5107  0.1626
 8501SOL     OW33769   5.427   5.705   6.134 -0.3173  0.4511  0.2189
 8501SOL    HW233770   5.448   5.612   6.131  0.3345  0.5754  0.7113
 8501SOL    HW333771   5.331   5.708   6.128 -0.2868 -0.1876 -0.8370
 8501SOL    MW433772   5.417   5.693   6.133 -0.2813 -0.0343  0.0408
 8502SOL     OW33773   5.478   1.877   3.739  0.0890  0.2035 -0.1187
 8502SOL    HW233774   5.552   1.818   3.752  0.0983  0.5428  1.6735
 8502SOL    HW333775   5.460   1.873   3.645  1.3577 -1.0963 -0.3441
 8502SOL    MW433776   5.485   1.868   3.728  0.4182 -0.1982  0.6843
 8503SOL     OW33777   4.807   4.225   0.236  0.2474 -0.5527  0.1713
 8503SOL    HW233778   4.875   4.211   0.170 -0.7485  0.4836 -1.1492
 8503SOL    HW333779   4.851   4.216   0.320  2.1293  0.6274 -0.6409
 8503SOL    MW433780   4.822   4.222   0.238  0.3507 -0.2270  0.1647
 8504SOL     OW33781   2.206   4.544   0.879  0.1797  0.5668 -0.0662
 8504SOL    HW233782   2.160   4.561   0.962  0.2606  1.5273 -0.2051
 8504SOL    HW333783   2.211   4.630   0.837  1.1276  0.2769 -0.5645
 8504SOL    MW433784   2.200   4.558   0.885  0.0019  0.3670 -0.9882
 8505SOL     OW33785   2.098   2.262   1.757  0.2789 -0.5561 -0.5173
 8505SOL    HW233786   2.186   2.242   1.788  0.7808  0.9210 -0.9513
 8505SOL    HW333787   2.056   2.305   1.832  0.9909  1.6105 -1.2893
 8505SOL    MW433788   2.104   2.265   1.771  0.5748 -0.1109  0.5970
 8506SOL     OW33789   2.643   4.921   4.168  0.1668 -0.1509 -0.7285
 8506SOL    HW233790   2.686   4.914   4.253 -0.2340 -1.7852 -0.6201
 8506SOL    HW333791   2.711   4.894   4.105  0.1441 -0.0002 -0.8167
 8506SOL    MW433792   2.658   4.916   4.171  0.2688  0.0269  0.0895
 8507SOL     OW33793   2.896   0.297   0.385 -0.4407 -0.3897  1.0252
 8507SOL    HW233794   2.876   0.222   0.330 -0.0766 -0.0605  0.4355
 8507SOL    HW333795   2.813   0.344   0.393 -0.5255 -0.5139  0.8735
 8507SOL    MW433796   2.883   0.293   0.379  0.3220  0.2753  0.1290
 8508SOL     OW33797   4.800   4.805   4.398 -1.1186 -0.8143 -0.4467
 8508SOL    HW233798   4.750   4.885   4.382 -0.4022 -0.2839 -0.1075
 8508SOL    HW333799   4.740   4.748   4.445 -1.2479  0.0246  0.4419
 8508SOL    MW433800   4.786   4.808   4.402  0.0381 -0.0667 -0.3850
 8509SOL     OW33801   0.651   2.721   6.016  0.1782 -0.4776 -0.2541
 8509SOL    HW233802   0.598   2.656   5.972  2.0572 -1.3806 -1.3029
 8509SOL    HW333803   0.696   2.768   5.946  1.7441 -0.6302  0.5951
 8509SOL    MW433804   0.650   2.719   6.001 -0.4176  0.0565 -0.2763
 8510SOL     OW33805   6.178   2.249   5.944 -0.8632 -0.1956  0.0423
 8510SOL    HW233806   6.083   2.240   5.941 -0.9449  0.2221  1.2603
 8510SOL    HW333807   6.210   2.159   5.943 -1.2983 -0.3589  0.4307
 8510SOL    MW433808   6.170   2.236   5.943  0.0001 -0.0794 -0.3860
 8511SOL     OW33809   6.144   2.192   6.216  0.2853  0.1169  0.1995
 8511SOL    HW233810   6.172   2.222   6.130 -0.5810 -0.8817 -0.4645
 8511SOL    HW333811   6.069   2.135   6.198 -0.2157  0.2611  1.6544
 8511SOL    MW433812   6.138   2.189   6.203 -0.4290  0.0993  0.2586
 8512SOL     OW33813   0.643   2.802   1.584  0.3916  0.1381 -0.3731
 8512SOL    HW233814   0.711   2.735   1.585 -1.2842 -1.6889 -1.7312
 8512SOL    HW333815   0.651   2.846   1.669  3.0569 -0.1733 -0.3975
 8512SOL    MW433816   0.653   2.799   1.596  0.1316 -0.4650  0.0283
 8513SOL     OW33817   2.816   1.905   2.884 -0.0283  0.2223  0.1386
 8513SOL    HW233818   2.736   1.860   2.856 -0.0141 -0.3533  1.0003
 8513SOL    HW333819   2.872   1.904   2.806 -0.5819  0.0093 -0.2665
 8513SOL    MW433820   2.813   1.899   2.870 -0.3859  0.5467  0.4610
 8514SOL     OW33821   3.479   4.073   3.245  0.1068 -0.2924 -0.1572
 8514SOL    HW233822   3.412   4.085   3.178  1.3154 -0.4711 -1.4626
 8514SOL    HW333823   3.431   4.045   3.323 -1.2586 -1.0912 -1.2356
 8514SOL    MW433824   3.464   4.071   3.246 -0.2274  0.3180  0.5168
 8515SOL     OW33825   2.473   2.501   5.955  0.5048  0.4055 -0.2071
 8515SOL    HW233826   2.540   2.553   5.998 -0.1364  1.2682 -0.2159
 8515SOL    HW333827   2.458   2.546   5.871 -2.7935  2.5972  1.3395
 8515SOL    MW433828   2.480   2.514   5.949  0.4205  0.3829 -0.4453
 8516SOL     OW33829   2.121   4.231   6.040 -0.1252  0.0910  0.2630
 8516SOL    HW233830   2.163   4.270   6.116  0.6678 -0.2589  0.0206
 8516SOL    HW333831   2.183   4.247   5.968 -1.1792  1.0515 -0.4689
 8516SOL    MW433832   2.135   4.238   6.040  0.7884  0.7539  0.3739
 8517SOL     OW33833   4.881   2.929   5.343 -0.6261  0.6799 -1.0009
 8517SOL    HW233834   4.809   2.924   5.405 -0.3440 -0.2262 -0.7315
 8517SOL    HW333835   4.883   3.021   5.316 -2.1424  0.6465 -1.3399
 8517SOL    MW433836   4.872   2.941   5.347 -0.2338 -0.6306  0.2740
 8518SOL     OW33837   5.191   2.519   1.490 -0.4116 -0.1236  0.4463
 8518SOL    HW233838   5.221   2.596   1.539  1.2063 -1.0371  0.9624
 8518SOL    HW333839   5.144   2.466   1.555 -0.6753 -0.0450  0.3233
 8518SOL    MW433840   5.189   2.522   1.505  0.1016 -0.0996 -0.4136
 8519SOL     OW33841   0.667   4.598   1.336 -0.2926 -0.1115 -0.0056
 8519SOL    HW233842   0.699   4.587   1.425  1.1814 -0.3118 -0.5289
 8519SOL    HW333843   0.607   4.525   1.323  0.4174 -0.7835  0.4255
 8519SOL    MW433844   0.663   4.587   1.346  0.3044  0.4596 -0.3348
 8520SOL     OW33845   1.763   2.907   0.136 -0.8547 -0.2124 -0.0683
 8520SOL    HW233846   1.679   2.873   0.167 -1.4814  1.4257  0.1328
 8520SOL    HW333847   1.745   2.941   0.049 -0.1094 -0.8929 -0.5011
 8520SOL    MW433848   1.750   2.907   0.129  0.3503 -0.2546  0.7426
 8521SOL     OW33849   5.965   2.847   2.094  0.2227  0.0732 -0.6983
 8521SOL    HW233850   6.056   2.876   2.086 -0.1946  1.7751  0.1187
 8521SOL    HW333851   5.914   2.927   2.082 -1.2060 -0.9434 -1.6328
 8521SOL    MW433852   5.970   2.862   2.092  0.1446  0.4579  0.6605
 8522SOL     OW33853   1.883   0.605   1.176 -0.4230 -0.1562  0.7095
 8522SOL    HW233854   1.934   0.582   1.098 -0.6372 -0.0832  0.5488
 8522SOL    HW333855   1.805   0.648   1.142 -0.7839 -0.6240  0.9344
 8522SOL    MW433856   1.880   0.607   1.161 -0.2594 -0.1404 -0.8158
 8523SOL     OW33857   0.254   1.393   1.324  0.5657  0.2195 -0.1451
 8523SOL    HW233858   0.255   1.319   1.264 -0.9286 -0.2803  0.4028
 8523SOL    HW333859   0.325   1.376   1.385  1.8169  0.5129 -1.4780
 8523SOL    MW433860   0.263   1.381   1.325 -0.3512  0.0234  0.1098
 8524SOL     OW33861   0.613   3.154   4.223 -0.7506  0.0604  0.1963
 8524SOL    HW233862   0.682   3.088   4.218 -0.3665  0.2982  1.7169
 8524SOL    HW333863   0.623   3.191   4.311 -0.7740  2.3390 -0.7070
 8524SOL    MW433864   0.624   3.150   4.234 -0.3506 -0.1860  0.5813
 8525SOL     OW33865   4.562   5.555   3.403  0.2321  0.1355 -0.0142
 8525SOL    HW233866   4.645   5.511   3.385  0.2505  0.5402 -1.0419
 8525SOL    HW333867   4.508   5.535   3.326 -1.2434 -1.5069  1.3754
 8525SOL    MW433868   4.566   5.547   3.390  0.6512 -0.2948 -0.2899
 8526SOL     OW33869   5.773   1.179   1.787  0.2242  0.1802 -0.5499
 8526SOL    HW233870   5.727   1.231   1.853  1.4514  2.1614 -1.1621
 8526SOL    HW333871   5.713   1.176   1.713 -0.1110  0.1515 -0.2844
 8526SOL    MW433872   5.759   1.186   1.786  0.8610  0.2638 -0.1789
 8527SOL     OW33873   2.436   4.916   0.532  0.6129 -0.2582  0.4247
 8527SOL    HW233874   2.410   4.851   0.597 -1.7080 -0.7429 -0.8513
 8527SOL    HW333875   2.481   4.865   0.464 -0.5610 -0.4764 -0.2255
 8527SOL    MW433876   2.438   4.900   0.531  0.2721 -0.5819  0.4646
 8528SOL     OW33877   0.252   2.638   0.248  0.3524 -0.2956  0.2626
 8528SOL    HW233878   0.320   2.704   0.261 -0.2539  0.3118  0.4020
 8528SOL    HW333879   0.267   2.605   0.159  2.2198 -1.8219  1.0716
 8528SOL    MW433880   0.263   2.642   0.238 -0.0991  0.0624 -0.4794
 8529SOL     OW33881   1.553   5.081   1.089  0.4832 -0.2010 -0.3220
 8529SOL    HW233882   1.633   5.028   1.097  1.1352  0.2271 -3.0195
 8529SOL    HW333883   1.487   5.031   1.136  1.2111 -3.1579 -2.1326
 8529SOL    MW433884   1.555   5.067   1.096 -0.2764  0.4594 -0.5291
 8530SOL     OW33885   2.782   3.100   3.279 -0.2064  0.0142 -0.0534
 8530SOL    HW233886   2.772   3.194   3.261  1.3513  0.2575  0.2129
 8530SOL    HW333887   2.844   3.070   3.213 -0.9028 -0.9201 -0.3140
 8530SOL    MW433888   2.789   3.109   3.268  0.1609 -0.6889 -0.4397
 8531SOL     OW33889   4.341   0.172   4.876 -0.3337  0.4946  0.1141
 8531SOL    HW233890   4.338   0.177   4.781 -0.7008 -1.8936 -0.0859
 8531SOL    HW333891   4.253   0.197   4.904  0.1890  2.6290 -0.0136
 8531SOL    MW433892   4.329   0.176   4.867  0.1039  0.0327  0.5444
 8532SOL     OW33893   0.781   0.033   4.540 -0.0132 -0.4671  0.6886
 8532SOL    HW233894   0.871   0.062   4.526  0.4537 -1.5871  1.3138
 8532SOL    HW333895   0.763  -0.028   4.469 -0.3053 -0.2240  0.5469
 8532SOL    MW433896   0.790   0.029   4.529 -0.0296  0.0931  0.1715
 8533SOL     OW33897   1.530   1.696   4.816  0.1399 -0.1767 -0.1629
 8533SOL    HW233898   1.625   1.702   4.805  0.4797 -1.8574  1.4499
 8533SOL    HW333899   1.495   1.711   4.728  1.9124 -0.0388 -0.8887
 8533SOL    MW433900   1.538   1.699   4.803  0.5952  0.0978 -0.9445
 8534SOL     OW33901   2.090   5.203   0.353  0.1152  0.2835 -0.2109
 8534SOL    HW233902   2.182   5.188   0.332  0.2235  0.9295 -0.2269
 8534SOL    HW333903   2.089   5.285   0.402 -0.3457 -0.2553  0.7017
 8534SOL    MW433904   2.102   5.212   0.356  0.0570  0.3916  0.0425
 8535SOL     OW33905   0.266   2.840   4.739 -0.1799 -0.1749  0.6148
 8535SOL    HW233906   0.268   2.921   4.791 -0.3095  0.8602 -0.9166
 8535SOL    HW333907   0.328   2.856   4.668 -0.2372 -1.4257  0.2617
 8535SOL    MW433908   0.274   2.853   4.736 -0.1461  0.0963 -0.3063
 8536SOL     OW33909   5.239   2.609   5.332  0.1147  0.6580 -0.0153
 8536SOL    HW233910   5.212   2.523   5.363 -0.0502  0.4088 -0.8140
 8536SOL    HW333911   5.193   2.671   5.388 -1.8350  0.2419 -1.0628
 8536SOL    MW433912   5.229   2.606   5.343 -0.5468 -0.5527 -0.2327
 8537SOL     OW33913   0.722   2.246   5.616  0.1119 -0.2605  0.5476
 8537SOL    HW233914   0.733   2.151   5.619  2.7782  0.0003  1.1775
 8537SOL    HW333915   0.660   2.260   5.545  0.6398 -2.4210 -0.4290
 8537SOL    MW433916   0.715   2.235   5.607 -0.0933 -0.1928  0.1781
 8538SOL     OW33917   0.547   5.431   6.188  0.2592  0.0931  0.2760
 8538SOL    HW233918   0.453   5.432   6.174  0.2706 -0.2939  0.1740
 8538SOL    HW333919   0.558   5.420   6.282  0.1616  3.9614  0.9256
 8538SOL    MW433920   0.536   5.430   6.198  0.3999 -0.4160  0.0867
 8539SOL     OW33921   3.748   1.264   3.130 -0.4168  0.1554  0.8257
 8539SOL    HW233922   3.783   1.236   3.214  1.7548 -0.1301 -0.1259
 8539SOL    HW333923   3.676   1.204   3.113 -1.2232  0.5103  2.6549
 8539SOL    MW433924   3.743   1.253   3.139 -0.7238 -0.1784  0.7038
 8540SOL     OW33925   0.308   4.058   2.951 -0.2440 -0.1923 -0.1124
 8540SOL    HW233926   0.319   4.115   2.875  0.2633 -0.3375 -0.1531
 8540SOL    HW333927   0.386   4.003   2.951 -0.0408  0.0778  0.7450
 8540SOL    MW433928   0.320   4.058   2.941  0.5153  0.5149  0.7083
 8541SOL     OW33929   6.337   1.483   4.150  0.4686  0.0749 -0.7179
 8541SOL    HW233930   6.308   1.503   4.061  1.8770  2.1404 -0.7864
 8541SOL    HW333931   6.396   1.408   4.139 -0.8550 -0.9306 -1.2248
 8541SOL    MW433932   6.341   1.475   4.137  0.0234 -0.2848  0.6244
 8542SOL     OW33933   2.487   2.896   4.494 -0.1559 -0.1464  0.0576
 8542SOL    HW233934   2.441   2.937   4.421 -0.9298 -1.3310 -0.1562
 8542SOL    HW333935   2.437   2.816   4.511  0.9507 -0.6981  0.8287
 8542SOL    MW433936   2.474   2.891   4.486 -0.2844  0.4806 -0.2084
 8543SOL     OW33937   0.862   6.384   5.833 -0.9603 -0.2142  0.1466
 8543SOL    HW233938   0.949   6.347   5.850 -1.2961 -0.6373  0.9690
 8543SOL    HW333939   0.809   6.356   5.907 -1.8131  0.0214 -0.3669
 8543SOL    MW433940   0.867   6.375   5.845  0.2859 -0.6915 -0.2821
 8544SOL     OW33941   2.634   4.793   5.894  0.5385  0.0729  0.2040
 8544SOL    HW233942   2.659   4.702   5.913  0.3709  0.1318  0.7411
 8544SOL    HW333943   2.698   4.845   5.942  0.9885  0.2509 -0.5745
 8544SOL    MW433944   2.645   4.788   5.903 -0.1368 -0.0655 -0.5450
 8545SOL     OW33945   5.460   2.181   2.602 -0.2541 -0.4449 -0.2946
 8545SOL    HW233946   5.448   2.219   2.515 -2.3324 -0.0205  0.1177
 8545SOL    HW333947   5.456   2.256   2.662 -1.4831 -0.9724  0.3242
 8545SOL    MW433948   5.458   2.196   2.599  0.1271 -0.2986  0.6042
 8546SOL     OW33949   1.784   3.108   6.049 -0.1225  0.4329  0.8033
 8546SOL    HW233950   1.791   3.127   6.143  0.8601  0.9191  0.6353
 8546SOL    HW333951   1.741   3.185   6.012 -2.1086 -0.4704  1.0814
 8546SOL    MW433952   1.779   3.121   6.057 -0.2552  0.0948  0.2016
 8547SOL     OW33953   1.026   3.945   0.929 -0.3919  0.0112 -0.1878
 8547SOL    HW233954   1.059   4.017   0.875  1.1910  1.0320  1.9819
 8547SOL    HW333955   1.097   3.926   0.990 -1.6813 -1.7946  0.8685
 8547SOL    MW433956   1.040   3.952   0.930  0.2414  0.3924 -0.1741
 8548SOL     OW33957   2.338   2.350   2.138  0.5093  0.1068 -0.5583
 8548SOL    HW233958   2.363   2.384   2.052  2.3368 -1.2049 -0.6231
 8548SOL    HW333959   2.262   2.295   2.121 -0.2362  1.2527 -1.0239
 8548SOL    MW433960   2.331   2.347   2.124  0.4593  0.4767 -0.5809
 8549SOL     OW33961   5.134   5.946   2.060 -0.2241  0.1714 -0.0816
 8549SOL    HW233962   5.213   5.965   2.111  0.0688  1.0757 -0.8697
 8549SOL    HW333963   5.093   6.031   2.047 -0.9484 -0.2112 -0.3106
 8549SOL    MW433964   5.139   5.959   2.065  0.0753  0.0467 -0.2910
 8550SOL     OW33965   5.407   4.095   6.323  0.3209  0.4694 -0.4292
 8550SOL    HW233966   5.467   4.036   6.277  2.4663  0.9706  1.5447
 8550SOL    HW333967   5.403   4.060   6.412  0.3574  2.3824  0.3607
 8550SOL    MW433968   5.414   4.083   6.329 -0.0451 -0.4468 -0.1166
 8551SOL     OW33969   6.340   2.523   5.126 -0.2135 -0.1018  0.0249
 8551SOL    HW233970   6.312   2.551   5.039 -2.2620  0.6816  0.8591
 8551SOL    HW333971   6.434   2.509   5.118 -0.2327  0.6316 -2.1246
 8551SOL    MW433972   6.349   2.525   5.113  0.3941  0.7832 -0.1674
 8552SOL     OW33973   5.957   3.725   6.236  0.6843 -0.2315 -0.0232
 8552SOL    HW233974   5.923   3.807   6.201 -0.3861 -0.4480  0.4668
 8552SOL    HW333975   6.047   3.720   6.203  0.0496  0.0260 -1.9607
 8552SOL    MW433976   5.964   3.735   6.227 -0.3295  0.2501 -0.1121
 8553SOL     OW33977   2.868   1.960   0.106  0.1347  0.3072  0.5778
 8553SOL    HW233978   2.954   1.982   0.069  0.6054 -1.0075  0.8115
 8553SOL    HW333979   2.806   1.981   0.036  1.0941 -3.3183 -1.6527
 8553SOL    MW433980   2.871   1.966   0.092  0.7300 -0.7644 -0.7435
 8554SOL     OW33981   1.113   2.900   2.778  0.8031  0.4893  0.0771
 8554SOL    HW233982   1.046   2.832   2.782  0.0644  0.7720 -3.5409
 8554SOL    HW333983   1.091   2.960   2.849 -2.4422  0.2167 -0.5505
 8554SOL    MW433984   1.101   2.899   2.788  0.2213 -0.2259  0.4144
 8555SOL     OW33985   4.837   3.655   2.987  0.3873 -0.2210  0.5088
 8555SOL    HW233986   4.883   3.701   2.917  0.5188 -0.4890  0.4177
 8555SOL    HW333987   4.893   3.666   3.063  0.1779  0.1877  0.6099
 8555SOL    MW433988   4.850   3.663   2.988 -0.5377  0.5436  0.1339
 8556SOL     OW33989   2.205   5.035   5.871 -0.2883  0.0567 -0.1637
 8556SOL    HW233990   2.262   4.966   5.838  0.2916  0.2202  0.4956
 8556SOL    HW333991   2.176   5.004   5.957 -0.2092  0.5305  0.0348
 8556SOL    MW433992   2.209   5.022   5.878 -0.1026 -1.2370  0.0166
 8557SOL     OW33993   3.498   5.799   3.211 -0.4031 -0.2886  0.0440
 8557SOL    HW233994   3.503   5.836   3.299 -0.3695 -1.2033  0.4319
 8557SOL    HW333995   3.445   5.862   3.162  0.5078  0.8070  0.4048
 8557SOL    MW433996   3.492   5.812   3.216 -0.3024  0.1077 -0.5219
 8558SOL     OW33997   1.419   6.236   3.917 -0.0859 -0.2899 -0.0313
 8558SOL    HW233998   1.384   6.324   3.929  1.4162  0.2068  1.0003
 8558SOL    HW333999   1.444   6.208   4.004 -1.3430 -2.1377 -0.2051
 8558SOL    MW434000   1.418   6.244   3.930  0.1860  0.0110  0.3853
 8559SOL     OW34001   4.412   1.896   4.905  0.4105  0.1977  0.4453
 8559SOL    HW234002   4.339   1.958   4.907  1.2553  1.3471 -1.5987
 8559SOL    HW334003   4.386   1.832   4.838  1.5494  1.0500 -0.8627
 8559SOL    MW434004   4.399   1.896   4.896 -0.5996  0.5935  0.1625
 8560SOL     OW34005   2.785   0.900   3.238  0.0256 -0.0779  0.4583
 8560SOL    HW234006   2.744   0.882   3.153  0.6020  3.9398 -0.9051
 8560SOL    HW334007   2.854   0.835   3.246 -1.5915 -2.1082 -0.8908
 8560SOL    MW434008   2.789   0.889   3.228 -0.8200 -0.4133 -0.0819
 8561SOL     OW34009   2.481   2.434   1.888  0.8031 -0.0705 -0.3671
 8561SOL    HW234010   2.445   2.373   1.823  1.1601 -1.0687  0.3597
 8561SOL    HW334011   2.426   2.511   1.881 -0.2945 -0.8564 -0.5982
 8561SOL    MW434012   2.469   2.436   1.878 -0.0505  0.3218 -0.3389
 8562SOL     OW34013   0.214   2.304   3.330  0.0815  0.3112 -0.2824
 8562SOL    HW234014   0.219   2.344   3.243  2.5231 -0.5338 -0.6052
 8562SOL    HW334015   0.279   2.234   3.329 -1.9118 -1.7454  1.2688
 8562SOL    MW434016   0.223   2.300   3.319  0.0368 -0.3007 -0.2640
 8563SOL     OW34017   3.673   0.027   6.378  0.1789 -0.0016  0.0327
 8563SOL    HW234018   3.705   0.021   6.468  0.0487 -0.1177  0.0715
 8563SOL    HW334019   3.688  -0.059   6.341  0.7568  0.2108 -0.2347
 8563SOL    MW434020   3.679   0.015   6.385 -0.0033  0.6875  0.1558
 8564SOL     OW34021   3.766   4.137   3.866 -0.0530 -0.5254  0.2742
 8564SOL    HW234022   3.844   4.192   3.865  1.1904 -2.2073 -0.0962
 8564SOL    HW334023   3.714   4.167   3.791 -1.4039  2.7208  2.3015
 8564SOL    MW434024   3.769   4.148   3.856 -0.0830  0.1947 -0.1124
 8565SOL     OW34025   6.274   1.045   5.153  0.6010 -0.0685 -0.1233
 8565SOL    HW234026   6.247   1.115   5.093 -1.1181 -0.2790  0.3485
 8565SOL    HW334027   6.264   0.965   5.101 -0.0689 -0.1773  0.1627
 8565SOL    MW434028   6.269   1.043   5.138 -0.2533  0.3766 -0.3820
 8566SOL     OW34029   1.405   2.583   3.589  0.4732  0.4768 -0.1259
 8566SOL    HW234030   1.401   2.679   3.586 -1.6361  0.4726  0.5849
 8566SOL    HW334031   1.378   2.555   3.502 -0.2533  0.5484  0.0670
 8566SOL    MW434032   1.401   2.592   3.577  0.4155 -0.2539 -0.1341
 8567SOL     OW34033   3.970   6.346   2.508  0.0162  0.5083  0.1744
 8567SOL    HW234034   3.939   6.257   2.528  0.2774  0.4674  0.4107
 8567SOL    HW334035   4.034   6.334   2.438  1.2489  0.3160  1.2904
 8567SOL    MW434036   3.974   6.332   2.501  0.2502  0.4311 -0.1298
 8568SOL     OW34037   5.760   3.332   2.240 -0.5368 -1.2552 -0.2191
 8568SOL    HW234038   5.769   3.420   2.277 -0.9529 -1.2928 -0.0236
 8568SOL    HW334039   5.850   3.304   2.223 -0.3593 -1.0898  0.4232
 8568SOL    MW434040   5.773   3.340   2.243  0.1456 -0.0950 -0.1847
 8569SOL     OW34041   0.710   5.997   1.381 -0.1656  0.1340  0.4361
 8569SOL    HW234042   0.782   6.040   1.335  0.4718 -0.4853  0.8377
 8569SOL    HW334043   0.718   5.905   1.357  0.5329 -0.3103  2.2131
 8569SOL    MW434044   0.720   5.990   1.372 -0.2204 -0.2848 -0.2722
 8570SOL     OW34045   4.657   0.826   1.215  0.2032 -0.3678 -0.2455
 8570SOL    HW234046   4.692   0.805   1.302 -1.2960  0.4738  0.6085
 8570SOL    HW334047   4.715   0.780   1.154  1.7758 -0.3329  1.1463
 8570SOL    MW434048   4.670   0.817   1.219  0.2726  0.4174 -0.4442
 8571SOL     OW34049   1.724   2.842   5.554 -0.3906 -0.4602  0.1261
 8571SOL    HW234050   1.760   2.822   5.641 -0.6656 -1.8555 -0.0635
 8571SOL    HW334051   1.774   2.787   5.494  0.6623  1.3983 -0.8053
 8571SOL    MW434052   1.736   2.832   5.558  0.2514  0.3235  0.1217
 8572SOL     OW34053   3.560   3.971   5.472 -0.7933 -0.1455 -0.2576
 8572SOL    HW234054   3.607   3.914   5.411 -0.4016 -1.1706  0.9558
 8572SOL    HW334055   3.629   4.028   5.508 -1.0746  0.6746 -0.9698
 8572SOL    MW434056   3.576   3.971   5.469 -0.2290  0.1155 -0.5473
 8573SOL     OW34057   3.900   0.264   0.693 -0.0251  0.8139  0.3417
 8573SOL    HW234058   3.895   0.194   0.758  2.9303 -0.8343 -1.0418
 8573SOL    HW334059   3.827   0.248   0.634  0.2272 -0.7188  0.4204
 8573SOL    MW434060   3.889   0.253   0.694  0.0420  0.1095 -0.4518
 8574SOL     OW34061   0.458   0.450   0.300 -0.4989  0.0412  0.6288
 8574SOL    HW234062   0.430   0.522   0.357 -0.4250  0.3197  0.3173
 8574SOL    HW334063   0.538   0.482   0.259  1.0579 -1.2594  2.5240
 8574SOL    MW434064   0.465   0.464   0.302  0.3971  0.0064  0.1701
 8575SOL     OW34065   2.798   1.494   2.263  0.1025  0.4262 -0.0194
 8575SOL    HW234066   2.831   1.408   2.290  0.9125  0.4718 -0.8247
 8575SOL    HW334067   2.866   1.555   2.290 -0.6616  0.8770  0.9281
 8575SOL    MW434068   2.811   1.491   2.270  0.9563 -0.2831 -0.5265
 8576SOL     OW34069   2.273   0.609   1.081 -0.2112  0.0781  0.3662
 8576SOL    HW234070   2.187   0.568   1.072  1.0838 -3.0073  0.9209
 8576SOL    HW334071   2.294   0.599   1.174  0.7412  0.8539  0.2441
 8576SOL    MW434072   2.264   0.603   1.092 -0.2875 -0.3651 -0.5984
 8577SOL     OW34073   4.377   3.108   0.408 -0.2864 -0.4605  0.1511
 8577SOL    HW234074   4.445   3.176   0.406 -1.4168  0.6977 -0.4462
 8577SOL    HW334075   4.411   3.039   0.351 -0.3309  0.8746 -1.5961
 8577SOL    MW434076   4.391   3.108   0.400 -1.0976 -0.1114  0.4454
 8578SOL     OW34077   1.360   4.813   3.583  0.1581  0.2182  0.2631
 8578SOL    HW234078   1.387   4.775   3.499 -0.5476 -0.0069  0.1335
 8578SOL    HW334079   1.330   4.901   3.561  1.6575  0.8258  0.5429
 8578SOL    MW434080   1.359   4.819   3.569  0.4726 -0.4949 -0.3114
 8579SOL     OW34081   3.782   3.732   3.684 -0.5258 -0.2073  0.4425
 8579SOL    HW234082   3.699   3.688   3.701 -1.3115  1.0230 -0.0581
 8579SOL    HW334083   3.823   3.741   3.770 -0.7590 -1.0859  0.6563
 8579SOL    MW434084   3.777   3.727   3.697  0.4897  0.6320  0.0309
 8580SOL     OW34085   3.420   2.350   5.626  0.5619 -0.1518  0.2474
 8580SOL    HW234086   3.462   2.278   5.672  0.8888  0.6842  1.2779
 8580SOL    HW334087   3.409   2.419   5.691  0.0141  0.6506 -0.6477
 8580SOL    MW434088   3.424   2.350   5.640 -0.7847 -0.3332 -0.3804
 8581SOL     OW34089   1.455   3.810   4.362 -0.2896  0.4812  0.6986
 8581SOL    HW234090   1.537   3.768   4.390 -0.5400 -0.3449  0.2256
 8581SOL    HW334091   1.387   3.747   4.385 -0.5197 -0.1597 -1.5408
 8581SOL    MW434092   1.457   3.796   4.369 -0.3337  0.1569 -0.3905
 8582SOL     OW34093   5.388   4.124   3.606 -0.3975 -0.2221 -0.5358
 8582SOL    HW234094   5.362   4.147   3.695 -2.5669 -1.4230 -0.7703
 8582SOL    HW334095   5.433   4.040   3.615 -2.3437 -1.3664 -0.6474
 8582SOL    MW434096   5.390   4.116   3.619 -0.5154  0.4595  0.8034
 8583SOL     OW34097   5.547   4.921   2.163 -0.1973 -0.5212  0.0164
 8583SOL    HW234098   5.635   4.889   2.143 -0.9762 -2.2219 -0.9380
 8583SOL    HW334099   5.509   4.941   2.078  0.3459  3.5551  0.5482
 8583SOL    MW434100   5.554   4.919   2.149 -0.4790  0.9707 -0.1445
 8584SOL     OW34101   4.591   3.904   3.728  0.2684  0.8153 -0.0871
 8584SOL    HW234102   4.667   3.946   3.687  0.4405 -0.2639 -0.8951
 8584SOL    HW334103   4.551   3.852   3.659 -0.1619 -0.0562  0.7884
 8584SOL    MW434104   4.596   3.903   3.713 -0.3058 -0.4432  0.2783
 8585SOL     OW34105   1.789   2.525   5.156 -0.2310  0.3100 -0.2770
 8585SOL    HW234106   1.704   2.556   5.126  0.3137  0.3677 -1.8727
 8585SOL    HW334107   1.800   2.440   5.114  0.4465  0.2564 -0.0091
 8585SOL    MW434108   1.779   2.518   5.147  0.1562 -0.5355 -0.2012
 8586SOL     OW34109   0.520   2.639   2.505  0.1889  0.1521 -0.6309
 8586SOL    HW234110   0.584   2.707   2.486  0.0788  0.7564  1.0357
 8586SOL    HW334111   0.570   2.558   2.505  0.7023  0.4652 -0.6381
 8586SOL    MW434112   0.535   2.638   2.502  0.0587  0.2757  0.1373
 8587SOL     OW34113   0.645   0.082   3.750  0.0407 -0.6202  0.2357
 8587SOL    HW234114   0.633   0.089   3.844 -0.0153 -1.2935  0.2835
 8587SOL    HW334115   0.704   0.154   3.728  1.0641 -1.1970  0.9804
 8587SOL    MW434116   0.651   0.093   3.759  0.1091  0.0276 -0.5480
 8588SOL     OW34117   5.564   3.121   5.971 -0.0295 -0.3994  0.2644
 8588SOL    HW234118   5.573   3.131   5.876 -1.1002  0.5692  0.2468
 8588SOL    HW334119   5.622   3.187   6.007 -0.9237  0.4194  0.2448
 8588SOL    MW434120   5.573   3.131   5.963  0.0199 -0.3263  0.4135
 8589SOL     OW34121   5.754   3.293   4.057  0.0978  0.1008 -0.6085
 8589SOL    HW234122   5.739   3.235   4.132  1.4901  0.2960 -0.1539
 8589SOL    HW334123   5.694   3.366   4.071 -1.3090 -0.9502 -0.9142
 8589SOL    MW434124   5.744   3.295   4.069 -0.3384  0.1609  0.8178
 8590SOL     OW34125   1.589   4.511   1.474  0.1044  0.2081  0.1124
 8590SOL    HW234126   1.632   4.425   1.473 -1.7704 -0.9161  2.9463
 8590SOL    HW334127   1.660   4.574   1.459  1.7320 -1.7605 -0.8936
 8590SOL    MW434128   1.604   4.508   1.472  0.2726 -0.0513 -0.0200
 8591SOL     OW34129   0.585   4.145   3.125  0.7570  0.0561 -0.0861
 8591SOL    HW234130   0.638   4.205   3.178  0.1989  0.6915 -0.2440
 8591SOL    HW334131   0.621   4.058   3.145  2.3249  0.5271 -0.7209
 8591SOL    MW434132   0.597   4.141   3.135  0.5016 -0.8174 -0.2201
 8592SOL     OW34133   1.063   1.664   5.468  0.0954  0.1693 -0.6381
 8592SOL    HW234134   1.132   1.605   5.498 -0.0164 -0.3816 -1.4331
 8592SOL    HW334135   1.065   1.736   5.530  0.4780 -0.4935  0.1411
 8592SOL    MW434136   1.072   1.666   5.480  0.5783 -0.3594 -0.4846
 8593SOL     OW34137   3.161   4.576   5.392 -0.2654  0.3050 -0.0920
 8593SOL    HW234138   3.216   4.517   5.340  1.0035  0.2014  1.2953
 8593SOL    HW334139   3.112   4.517   5.450  0.5116  0.5479  0.8363
 8593SOL    MW434140   3.162   4.560   5.393 -0.3997 -0.1152  0.1118
 8594SOL     OW34141   5.181   6.179   2.388  0.2193 -0.0699 -0.2438
 8594SOL    HW234142   5.213   6.105   2.441  0.4696 -0.6508 -1.1836
 8594SOL    HW334143   5.190   6.255   2.446  1.3905 -0.5399  0.2267
 8594SOL    MW434144   5.187   6.179   2.403  0.1636 -0.3939 -0.3233
 8595SOL     OW34145   5.297   2.901   2.922 -0.0220  0.3912  0.4667
 8595SOL    HW234146   5.357   2.892   2.848  1.2067 -2.1294  1.6345
 8595SOL    HW334147   5.231   2.833   2.908 -0.3348  0.5334  1.1877
 8595SOL    MW434148   5.296   2.891   2.911  0.4986 -0.2633  0.8196
 8596SOL     OW34149   1.110   0.949   5.395  0.0053  0.2229  0.2908
 8596SOL    HW234150   1.161   0.942   5.476  1.0098  3.2488  0.0353
 8596SOL    HW334151   1.027   0.987   5.421 -0.1541  0.0670  0.0266
 8596SOL    MW434152   1.106   0.953   5.409  0.2151 -0.1154  0.2436
 8597SOL     OW34153   2.228   4.545   5.961  0.6755  0.2977 -0.4651
 8597SOL    HW234154   2.210   4.545   5.867  0.5928 -0.8981 -0.4653
 8597SOL    HW334155   2.151   4.584   6.000  0.2527 -0.1444 -0.8335
 8597SOL    MW434156   2.216   4.550   5.954  0.0309 -0.0620  0.4682
 8598SOL     OW34157   2.801   4.298   5.359 -0.1910  0.1598 -0.4854
 8598SOL    HW234158   2.734   4.338   5.415 -0.1451 -1.7317  1.0183
 8598SOL    HW334159   2.884   4.323   5.399 -0.1747 -1.9599  0.9464
 8598SOL    MW434160   2.803   4.307   5.371  0.3135  0.1915  0.3696
 8599SOL     OW34161   0.224   2.067   5.030 -0.1978  1.1502 -0.1242
 8599SOL    HW234162   0.183   1.985   5.055 -2.2274  1.5540 -1.9111
 8599SOL    HW334163   0.156   2.116   4.983  1.9046  2.4638 -2.0219
 8599SOL    MW434164   0.210   2.063   5.027 -0.4459  0.0838 -0.3198
 8600SOL     OW34165   5.380   3.713   6.339 -0.0486 -0.2845 -0.2990
 8600SOL    HW234166   5.470   3.683   6.327  0.1387 -0.2699  0.8908
 8600SOL    HW334167   5.345   3.724   6.251  1.0232 -0.5757 -0.7652
 8600SOL    MW434168   5.387   3.710   6.326 -0.1290  0.0361  0.2470
 8601SOL     OW34169   4.789   4.890   1.844  0.7049  0.2852  0.5200
 8601SOL    HW234170   4.764   4.801   1.868  0.5251  0.1184 -0.2584
 8601SOL    HW334171   4.818   4.883   1.753 -0.9424  1.3185 -0.1182
 8601SOL    MW434172   4.790   4.877   1.836 -0.1209  0.0572 -0.1556
 8602SOL     OW34173   1.827   1.953   3.585 -0.3199  0.2362 -0.0648
 8602SOL    HW234174   1.851   2.034   3.629 -0.7717  0.0809  0.4895
 8602SOL    HW334175   1.733   1.944   3.602  0.0898 -1.4424  1.6685
 8602SOL    MW434176   1.818   1.962   3.593 -0.0450  0.3531  0.5627
 8603SOL     OW34177   5.753   1.994   5.098 -0.3726 -0.1578 -0.1888
 8603SOL    HW234178   5.818   2.043   5.047  1.2991 -1.7931  0.2566
 8603SOL    HW334179   5.680   1.982   5.038  0.9496 -0.7734 -1.7644
 8603SOL    MW434180   5.752   1.999   5.084  0.5641  0.2261  0.4563
 8604SOL     OW34181   5.917   0.877   0.861 -0.2793 -0.2212  0.3380
 8604SOL    HW234182   6.005   0.888   0.823  0.2246  1.4432  1.8438
 8604SOL    HW334183   5.932   0.878   0.955 -1.7033 -2.2919  0.6472
 8604SOL    MW434184   5.931   0.879   0.868 -0.7555  0.2529 -0.0975
 8605SOL     OW34185   1.238   5.667   1.167  0.1207 -0.0449 -0.3800
 8605SOL    HW234186   1.308   5.691   1.228  2.2947  0.8681 -3.0237
 8605SOL    HW334187   1.235   5.571   1.171  1.1608 -0.0715  0.1941
 8605SOL    MW434188   1.247   5.658   1.175  0.0125  0.9045  0.0347
 8606SOL     OW34189   5.912   4.644   4.709 -0.2670  1.0813 -0.2971
 8606SOL    HW234190   5.987   4.668   4.654 -0.8868  0.7392 -1.3264
 8606SOL    HW334191   5.865   4.726   4.723  0.2236  1.2755  0.2486
 8606SOL    MW434192   5.916   4.658   4.703  0.1922  0.3496 -0.0020
 8607SOL     OW34193   4.477   2.810   1.113 -0.2735  0.6288  0.2029
 8607SOL    HW234194   4.473   2.736   1.052 -0.5220 -0.0912  1.0690
 8607SOL    HW334195   4.559   2.797   1.162 -1.0074  0.0973  1.3453
 8607SOL    MW434196   4.487   2.798   1.111  0.0131 -0.4772 -0.0918
 8608SOL     OW34197   6.280   5.348   4.898 -0.5352 -0.0348 -0.1718
 8608SOL    HW234198   6.283   5.430   4.946  0.9820 -1.9549  3.3684
 8608SOL    HW334199   6.346   5.357   4.830  0.4653  1.2826  0.9314
 8608SOL    MW434200   6.289   5.360   4.895  0.4883 -0.1586  0.6707
 8609SOL     OW34201   5.037   3.795   1.889  0.5284 -0.1733  0.2918
 8609SOL    HW234202   5.129   3.822   1.883  0.3319  0.1705 -2.9707
 8609SOL    HW334203   5.033   3.713   1.840 -0.9401 -0.1006  0.2337
 8609SOL    MW434204   5.049   3.787   1.882  0.1393  0.0062  0.4774
 8610SOL     OW34205   2.860   4.437   1.289  0.3464 -0.2588  0.0886
 8610SOL    HW234206   2.863   4.518   1.238 -0.1616 -0.4234 -0.2011
 8610SOL    HW334207   2.791   4.452   1.354  0.4711 -0.3390  0.2404
 8610SOL    MW434208   2.851   4.450   1.291  0.2648  0.2063  0.1952
 8611SOL     OW34209   0.380   2.824   4.248  0.0640  0.2292  0.0445
 8611SOL    HW234210   0.332   2.744   4.226  1.4011 -0.7539  0.5688
 8611SOL    HW334211   0.449   2.795   4.307 -0.6284  2.0983  1.8802
 8611SOL    MW434212   0.383   2.810   4.253 -0.3026 -0.1844  0.2485
 8612SOL     OW34213   4.602   1.542   5.441 -0.1831 -0.1904  0.5540
 8612SOL    HW234214   4.691   1.507   5.449 -0.5818 -1.1208  1.1171
 8612SOL    HW334215   4.547   1.475   5.481 -1.0576  0.7451  0.9622
 8612SOL    MW434216   4.607   1.528   5.447  0.4455  0.1360 -0.5744
 8613SOL     OW34217   5.710   2.864   0.127 -0.3412 -0.5169 -0.7354
 8613SOL    HW234218   5.677   2.799   0.189 -1.1082 -0.8790 -1.5002
 8613SOL    HW334219   5.776   2.817   0.075 -0.6103 -0.5703 -1.0285
 8613SOL    MW434220   5.715   2.849   0.128 -0.7677 -0.3107 -0.2749
 8614SOL     OW34221   0.879   6.113   2.068  0.5814  0.2727 -0.0847
 8614SOL    HW234222   0.947   6.180   2.061  0.8729  0.1099  0.9900
 8614SOL    HW334223   0.926   6.033   2.089  0.3642 -0.5856 -2.5330
 8614SOL    MW434224   0.894   6.111   2.070 -0.2025  0.3996 -0.2392
 8615SOL     OW34225   4.452   1.683   3.410  0.2017  0.2218  0.8596
 8615SOL    HW234226   4.421   1.597   3.439  0.1784  0.4197  1.4515
 8615SOL    HW334227   4.548   1.675   3.408  0.3538  0.7777  3.0050
 8615SOL    MW434228   4.461   1.671   3.414  0.0534 -0.1865  0.4553
 8616SOL     OW34229   5.758   5.591   3.497  0.5997 -0.1315  0.2523
 8616SOL    HW234230   5.828   5.554   3.551 -0.5353 -2.3129  0.3150
 8616SOL    HW334231   5.784   5.573   3.407  0.8796  0.5335  0.1909
 8616SOL    MW434232   5.771   5.584   3.493 -0.8199  0.1106 -0.0041
 8617SOL     OW34233   2.700   0.268   4.814  0.2390  1.1309  0.5309
 8617SOL    HW234234   2.607   0.288   4.804  0.1909  0.2481 -1.0805
 8617SOL    HW334235   2.737   0.279   4.727  1.0926 -1.1369  0.5423
 8617SOL    MW434236   2.693   0.272   4.801 -0.2904 -0.1444 -0.1063
 8618SOL     OW34237   2.946   1.350   5.173  0.3815  0.2356 -0.7552
 8618SOL    HW234238   2.871   1.380   5.122  0.9967  1.4753 -0.9581
 8618SOL    HW334239   2.970   1.267   5.133 -1.7783 -0.9629  0.2345
 8618SOL    MW434240   2.939   1.343   5.161  0.0483 -0.0644 -0.4484
 8619SOL     OW34241   5.715   4.917   1.462 -0.4877  0.0228 -0.6790
 8619SOL    HW234242   5.750   4.999   1.427  1.9871 -0.1506  1.1990
 8619SOL    HW334243   5.671   4.877   1.387  0.8969  1.6380 -2.4618
 8619SOL    MW434244   5.714   4.922   1.447 -0.2066  0.4820 -0.1406
 8620SOL     OW34245   5.280   3.725   6.086 -0.7056  0.4820  0.3573
 8620SOL    HW234246   5.345   3.677   6.035 -0.8962  1.1570 -0.5409
 8620SOL    HW334247   5.218   3.658   6.115 -0.1864 -0.0132  0.3496
 8620SOL    MW434248   5.281   3.710   6.083 -0.1855  0.7348  0.1371
 8621SOL     OW34249   3.153   2.667   0.239 -0.1679 -0.1730 -0.3121
 8621SOL    HW234250   3.231   2.692   0.190 -0.3135  0.4050 -0.2617
 8621SOL    HW334251   3.080   2.694   0.183 -0.3380  0.9452  0.4218
 8621SOL    MW434252   3.153   2.674   0.225  0.0170 -0.1899  0.0544
 8622SOL     OW34253   2.549   0.677   3.413 -0.0683 -0.4784 -0.2439
 8622SOL    HW234254   2.499   0.631   3.481 -0.0430 -1.7392 -1.0434
 8622SOL    HW334255   2.520   0.638   3.331  0.3466  0.5925 -0.9231
 8622SOL    MW434256   2.539   0.666   3.411 -0.0426  0.1412 -0.4482
 8623SOL     OW34257   5.915   4.698   0.672 -0.1472 -0.0381 -1.2238
 8623SOL    HW234258   5.874   4.689   0.759  0.2232  1.5136 -0.8651
 8623SOL    HW334259   5.923   4.608   0.641  0.0369 -0.6716  0.5112
 8623SOL    MW434260   5.910   4.685   0.680  0.2347 -0.0866  0.2023
 8624SOL     OW34261   0.381   6.156   3.193  0.8670 -0.3647 -0.4138
 8624SOL    HW234262   0.377   6.066   3.159  1.8219 -0.2391 -0.8971
 8624SOL    HW334263   0.308   6.162   3.254  0.2441 -1.1909 -1.0612
 8624SOL    MW434264   0.371   6.145   3.197  0.1807  0.4176  0.4161
 8625SOL     OW34265   1.530   3.453   2.483  0.5631  0.3165 -0.1973
 8625SOL    HW234266   1.457   3.439   2.545 -0.4682  0.4709 -1.3368
 8625SOL    HW334267   1.597   3.497   2.535  0.6899 -1.6180  1.4265
 8625SOL    MW434268   1.529   3.457   2.498 -0.2223  0.5644  1.1089
 8626SOL     OW34269   2.480   2.848   2.532  0.3693  0.2839  0.3708
 8626SOL    HW234270   2.386   2.868   2.529  0.3156  0.0441  0.3877
 8626SOL    HW334271   2.483   2.757   2.562  0.5322 -0.3600 -1.5252
 8626SOL    MW434272   2.468   2.838   2.536  0.6001  0.0522 -0.2631
 8627SOL     OW34273   3.195   0.662   0.585  0.5105  0.6253 -0.3742
 8627SOL    HW234274   3.216   0.614   0.665 -2.4781  1.4178  1.0533
 8627SOL    HW334275   3.179   0.594   0.520 -1.9677 -0.3944  1.1490
 8627SOL    MW434276   3.195   0.647   0.587  0.2656 -0.0365 -0.3284
 8628SOL     OW34277   0.958   5.763   4.769 -0.3299  0.0588 -0.0267
 8628SOL    HW234278   0.896   5.825   4.732 -0.2589  0.1554  0.0145
 8628SOL    HW334279   1.019   5.743   4.698 -0.2244  0.2036  0.0242
 8628SOL    MW434280   0.958   5.768   4.755 -0.7852 -0.5090  0.9061
 8629SOL     OW34281   2.209   5.962   1.051 -0.5759  0.3522 -0.6326
 8629SOL    HW234282   2.221   5.944   0.958  0.8958  0.2111 -0.4335
 8629SOL    HW334283   2.117   5.987   1.058 -0.8408 -0.1138 -2.0407
 8629SOL    MW434284   2.198   5.963   1.039 -0.0424  0.4270 -0.1151
 8630SOL     OW34285   2.249   4.341   0.511 -0.5031 -0.0520 -0.1272
 8630SOL    HW234286   2.210   4.428   0.520 -1.5217 -0.4659 -0.3829
 8630SOL    HW334287   2.175   4.284   0.492  0.3784 -0.6794 -1.8747
 8630SOL    MW434288   2.234   4.345   0.510 -0.0939 -0.1787 -0.7364
 8631SOL     OW34289   3.011   6.198   2.243  0.7078 -0.1043  0.0271
 8631SOL    HW234290   2.995   6.139   2.317  2.0808  1.5589  1.7303
 8631SOL    HW334291   2.954   6.273   2.260 -0.1555 -0.3800 -1.4942
 8631SOL    MW434292   3.001   6.200   2.255  0.2281 -0.3313 -0.1344
 8632SOL     OW34293   2.122   3.851   0.336 -0.5058  0.0630 -0.3800
 8632SOL    HW234294   2.175   3.875   0.260 -1.4342  2.4249 -0.3728
 8632SOL    HW334295   2.162   3.898   0.410 -0.0546 -1.6177  0.4816
 8632SOL    MW434296   2.134   3.861   0.336 -0.1960  0.5687  0.2043
 8633SOL     OW34297   0.163   2.030   4.545  0.2040  0.1722  0.2529
 8633SOL    HW234298   0.118   1.947   4.530  1.0360 -0.5558  1.5716
 8633SOL    HW334299   0.094   2.091   4.570 -0.4138 -0.1152 -0.6857
 8633SOL    MW434300   0.148   2.027   4.546 -0.1804 -1.0208 -0.1233
 8634SOL     OW34301   4.718   1.359   0.733  0.3582  1.0828  0.0461
 8634SOL    HW234302   4.774   1.333   0.806 -0.8505  0.3214  0.7255
 8634SOL    HW334303   4.768   1.336   0.655  1.0916  0.6363  0.6360
 8634SOL    MW434304   4.732   1.353   0.732 -0.2297 -0.5089 -0.8284
 8635SOL     OW34305   2.394   0.207   5.744  0.9156  0.2041  0.0770
 8635SOL    HW234306   2.453   0.220   5.669  0.4981 -3.3246 -1.0303
 8635SOL    HW334307   2.453   0.192   5.818  1.3262  2.6160  0.3114
 8635SOL    MW434308   2.410   0.207   5.744  0.1217 -0.2739 -0.0061
 8636SOL     OW34309   0.739   2.283   2.304  0.3037  0.3118 -0.2255
 8636SOL    HW234310   0.745   2.371   2.266  0.5576  0.2566 -0.3134
 8636SOL    HW334311   0.645   2.267   2.312  0.2204  1.2577  1.3275
 8636SOL    MW434312   0.728   2.292   2.300  0.4840 -0.0742 -0.6912
 8637SOL     OW34313   2.868   2.451   3.131  0.0799  0.2190  0.3444
 8637SOL    HW234314   2.791   2.492   3.092  0.3341  0.2131 -0.1765
 8637SOL    HW334315   2.941   2.480   3.076  0.3638 -0.2910  0.4458
 8637SOL    MW434316   2.868   2.460   3.118 -0.4611  0.0827 -0.4121
 8638SOL     OW34317   1.616   1.839   5.486  0.3120  0.0705 -0.1292
 8638SOL    HW234318   1.688   1.798   5.533  2.8779  3.1055 -1.0472
 8638SOL    HW334319   1.587   1.772   5.423  0.9698 -1.8840  1.5406
 8638SOL    MW434320   1.622   1.825   5.484 -0.1733  0.6809  0.3230
 8639SOL     OW34321   6.026   4.049   2.986 -0.6779 -0.2805  0.2168
 8639SOL    HW234322   6.088   3.976   2.987  0.7665  0.8970  0.6204
 8639SOL    HW334323   6.037   4.089   2.900 -1.5408 -0.5780 -0.0442
 8639SOL    MW434324   6.036   4.045   2.975  0.4104  0.1584  0.4825
 8640SOL     OW34325   3.632   0.143   3.061  0.3551  0.7763  0.3973
 8640SOL    HW234326   3.558   0.099   3.018 -0.6280  0.8669  1.9059
 8640SOL    HW334327   3.662   0.208   2.997 -0.3317  0.1651 -0.5701
 8640SOL    MW434328   3.626   0.146   3.047  0.3703  0.4288  0.6521
 8641SOL     OW34329   5.229   0.685   1.669  0.3342  0.0188 -0.0998
 8641SOL    HW234330   5.173   0.675   1.746  1.5896 -0.1719  0.8146
 8641SOL    HW334331   5.171   0.668   1.595 -0.9728  0.5184  0.7759
 8641SOL    MW434332   5.214   0.681   1.669 -0.5889  0.3157  0.3858
 8642SOL     OW34333   2.382   2.319   3.758 -0.1301  0.1840  0.2310
 8642SOL    HW234334   2.405   2.263   3.832  1.9275  0.5998 -0.0266
 8642SOL    HW334335   2.288   2.309   3.748 -0.1106 -1.6240  1.4754
 8642SOL    MW434336   2.373   2.310   3.767  0.8076  0.0536 -0.8976
 8643SOL     OW34337   4.558   1.365   2.128  0.0896  0.2235  0.2468
 8643SOL    HW234338   4.639   1.417   2.125  0.3586 -0.1956  0.1222
 8643SOL    HW334339   4.533   1.354   2.037  0.9824 -1.3122  0.1622
 8643SOL    MW434340   4.566   1.371   2.116 -0.1707  0.5797 -0.5458
 8644SOL     OW34341   3.829   1.066   3.607 -0.1917  0.0119 -0.1372
 8644SOL    HW234342   3.756   1.127   3.614 -1.7500 -1.7697 -0.1231
 8644SOL    HW334343   3.827   1.016   3.689  3.0576  1.9251  1.3528
 8644SOL    MW434344   3.819   1.067   3.619 -0.1292  0.1366  0.5667
 8645SOL     OW34345   3.107   1.376   3.583 -0.0535 -0.0815 -0.0010
 8645SOL    HW234346   3.117   1.449   3.643 -1.6129 -0.0436  0.2353
 8645SOL    HW334347   3.084   1.302   3.639  0.7159 -0.5884 -0.3285
 8645SOL    MW434348   3.106   1.376   3.598 -0.0665  0.3881  0.7891
 8646SOL     OW34349   1.851   2.671   5.386  0.5145 -0.4568  0.2919
 8646SOL    HW234350   1.805   2.609   5.330  1.1435 -1.7785  1.2044
 8646SOL    HW334351   1.897   2.728   5.325  0.7967 -1.5588 -0.5516
 8646SOL    MW434352   1.851   2.671   5.371  0.0609  0.1807 -0.5695
 8647SOL     OW34353   1.649   3.722   3.281  0.0800 -0.0220  0.4721
 8647SOL    HW234354   1.669   3.815   3.270 -0.4651 -0.0305 -0.8001
 8647SOL    HW334355   1.553   3.719   3.286  0.0190 -0.6266 -0.8258
 8647SOL    MW434356   1.639   3.734   3.280  0.0216  0.0291 -0.3530
 8648SOL     OW34357   3.274   5.094   1.980 -0.5440  0.6613  0.2078
 8648SOL    HW234358   3.361   5.128   2.002 -0.2500  0.8836 -1.1620
 8648SOL    HW334359   3.253   5.033   2.051  1.2912 -0.3375 -0.0395
 8648SOL    MW434360   3.283   5.090   1.992 -0.0263 -1.1352  0.1652
 8649SOL     OW34361   1.385   2.544   5.602 -0.1770 -0.3832 -0.5804
 8649SOL    HW234362   1.326   2.600   5.652 -0.2510 -0.1255 -0.9458
 8649SOL    HW334363   1.326   2.495   5.544 -0.1630 -1.2496  0.1233
 8649SOL    MW434364   1.369   2.545   5.601  0.5108 -0.1570  0.0136
 8650SOL     OW34365   5.979   2.357   2.434 -0.1384  0.8211 -0.2947
 8650SOL    HW234366   6.027   2.308   2.501 -2.2517 -0.0491  0.6675
 8650SOL    HW334367   5.975   2.297   2.359 -0.3993  0.5799 -0.0895
 8650SOL    MW434368   5.985   2.342   2.433  0.0647 -0.2748 -0.1009
 8651SOL     OW34369   5.941   5.512   3.713 -0.3325  0.2875  0.3276
 8651SOL    HW234370   6.026   5.468   3.711  0.8757  2.4657  0.2844
 8651SOL    HW334371   5.946   5.571   3.788 -1.8413  0.4461  0.3376
 8651SOL    MW434372   5.953   5.514   3.722  0.2486 -0.1132 -0.4632
 8652SOL     OW34373   2.621   1.033   2.814  0.2381 -0.0211 -0.0546
 8652SOL    HW234374   2.714   1.036   2.834 -0.1526 -0.0492  1.9967
 8652SOL    HW334375   2.617   1.019   2.719  2.2924  1.0598 -0.3492
 8652SOL    MW434376   2.632   1.031   2.804 -0.1223  0.0792  0.7290
 8653SOL     OW34377   5.528   3.633   2.123  0.1637  0.0622 -0.0397
 8653SOL    HW234378   5.468   3.563   2.145  0.4992  0.3889  2.1452
 8653SOL    HW334379   5.607   3.589   2.092  0.0928 -0.5151  0.5817
 8653SOL    MW434380   5.531   3.618   2.122  0.4674 -0.2589  0.0263
 8654SOL     OW34381   1.769   0.848   0.944 -0.1752 -0.3186  0.1711
 8654SOL    HW234382   1.798   0.936   0.920 -0.1839 -0.0940  0.9583
 8654SOL    HW334383   1.776   0.798   0.863  0.8062  0.1512 -0.0578
 8654SOL    MW434384   1.774   0.853   0.930 -0.8958 -0.3642 -0.7062
 8655SOL     OW34385   1.094   6.092   2.803  0.6398  0.0884 -0.5033
 8655SOL    HW234386   1.001   6.089   2.823  0.9334 -0.2236  0.9011
 8655SOL    HW334387   1.137   6.090   2.888  1.9365  0.1069 -1.1358
 8655SOL    MW434388   1.087   6.091   2.817  0.6035  0.5030  0.4930
 8656SOL     OW34389   6.144   3.599   1.361  0.3329 -0.2832 -0.4011
 8656SOL    HW234390   6.074   3.559   1.310 -1.4375  1.7774  0.2895
 8656SOL    HW334391   6.188   3.658   1.300 -1.6227  1.9866  0.2182
 8656SOL    MW434392   6.141   3.602   1.346  0.4047  0.1943 -0.2048
 8657SOL     OW34393   0.326   4.200   0.585 -0.3081  0.1268  0.0808
 8657SOL    HW234394   0.277   4.207   0.503  0.3735 -0.4116 -0.3745
 8657SOL    HW334395   0.336   4.106   0.600 -0.7162  0.2074  0.9655
 8657SOL    MW434396   0.321   4.189   0.576 -0.1632 -0.1655 -0.9353
 8658SOL     OW34397   2.880   2.773   0.115  0.2859  0.3722 -0.2569
 8658SOL    HW234398   2.882   2.866   0.140 -0.9852 -0.0709  1.7432
 8658SOL    HW334399   2.789   2.758   0.087  0.2542 -0.4544  0.2769
 8658SOL    MW434400   2.868   2.783   0.115 -0.0750  0.1633  0.0778
 8659SOL     OW34401   4.710   1.695   3.402 -0.3829  0.1639 -0.1324
 8659SOL    HW234402   4.742   1.606   3.415 -1.5414 -0.1467  0.7546
 8659SOL    HW334403   4.736   1.742   3.482  0.1087  0.5962 -0.5380
 8659SOL    MW434404   4.718   1.690   3.415 -0.3061  0.4529  0.2659
 8660SOL     OW34405   2.984   0.296   5.664  0.3767 -0.4237 -0.0871
 8660SOL    HW234406   2.984   0.284   5.569  1.7147 -2.9410  0.1169
 8660SOL    HW334407   3.006   0.388   5.677 -0.2322  0.0739 -2.2053
 8660SOL    MW434408   2.987   0.306   5.653 -0.4713 -0.3121  0.5657
 8661SOL     OW34409   0.174   5.895   5.604 -0.2935  0.1319  0.3956
 8661SOL    HW234410   0.123   5.875   5.526 -1.3866  1.6000  0.6912
 8661SOL    HW334411   0.263   5.909   5.573 -0.7560  0.9000 -0.6249
 8661SOL    MW434412   0.179   5.894   5.590 -0.2707  0.5617 -0.1240
 8662SOL     OW34413   5.394   0.471   5.231  0.4096  0.4776  0.0115
 8662SOL    HW234414   5.469   0.527   5.249  0.9656 -0.2445 -0.0190
 8662SOL    HW334415   5.398   0.403   5.297  0.0074  0.2054 -0.2388
 8662SOL    MW434416   5.404   0.470   5.242  0.6348  0.3481  0.0279
 8663SOL     OW34417   2.719   2.575   1.818  0.3355 -0.3552 -0.3495
 8663SOL    HW234418   2.773   2.581   1.896  0.0596  1.6051 -0.2764
 8663SOL    HW334419   2.662   2.500   1.835  0.5502 -0.2119  1.1466
 8663SOL    MW434420   2.719   2.566   1.830  0.9858 -0.4457 -0.5050
 8664SOL     OW34421   5.896   1.071   2.510  0.3221 -0.0891  0.3880
 8664SOL    HW234422   5.873   1.006   2.444  1.2096  0.7551 -0.8029
 8664SOL    HW334423   5.976   1.038   2.550  0.5151  0.0296  0.1066
 8664SOL    MW434424   5.903   1.058   2.507 -0.0638 -0.2368  0.4640
 8665SOL     OW34425   1.647   1.883   0.302  0.3646  0.2063  0.2921
 8665SOL    HW234426   1.658   1.910   0.211  1.6623  1.6199  0.8270
 8665SOL    HW334427   1.577   1.938   0.336 -0.5945 -0.7930 -0.0008
 8665SOL    MW434428   1.639   1.894   0.295 -0.2376  0.2501 -0.4286
 8666SOL     OW34429   5.491   5.264   5.679  0.4655  0.6217  0.6207
 8666SOL    HW234430   5.413   5.318   5.691 -0.4985 -0.9543  1.8452
 8666SOL    HW334431   5.483   5.228   5.590  0.6499  1.7041  0.1469
 8666SOL    MW434432   5.480   5.266   5.669 -0.2524 -0.3415  0.0157
 8667SOL     OW34433   3.113   1.862   0.755  0.1335 -0.2104  0.0171
 8667SOL    HW234434   3.084   1.938   0.704  0.2145 -0.2338 -0.0650
 8667SOL    HW334435   3.198   1.887   0.789 -0.3280  0.1617  0.9192
 8667SOL    MW434436   3.120   1.875   0.753 -0.2431  0.2188 -0.7006
 8668SOL     OW34437   3.797   0.744   2.246 -0.5189  0.0874  0.3209
 8668SOL    HW234438   3.780   0.797   2.169 -1.3033 -0.1392  0.3238
 8668SOL    HW334439   3.710   0.722   2.280 -0.1952 -0.2137  0.9940
 8668SOL    MW434440   3.783   0.748   2.241  0.2169 -0.4630  0.1666
 8669SOL     OW34441   6.342   2.397   0.982 -0.0215 -0.4174 -0.1980
 8669SOL    HW234442   6.251   2.424   0.968  0.1102  0.0062 -0.2648
 8669SOL    HW334443   6.338   2.336   1.056 -0.4092 -0.7221 -0.4659
 8669SOL    MW434444   6.330   2.393   0.990  0.1697  0.3244 -0.0610
 8670SOL     OW34445   0.775   5.284   1.955  0.4238  0.4848 -0.0672
 8670SOL    HW234446   0.696   5.327   1.990  0.5049  1.4366 -0.9849
 8670SOL    HW334447   0.847   5.325   2.003  0.4051  0.1030  0.2916
 8670SOL    MW434448   0.774   5.295   1.966 -0.5952 -0.2338 -0.2433
 8671SOL     OW34449   5.416   1.928   5.603 -0.1176  0.3098 -0.5897
 8671SOL    HW234450   5.361   1.928   5.525  0.1044 -2.7991 -0.8643
 8671SOL    HW334451   5.503   1.953   5.572 -0.4950  1.3147 -0.8747
 8671SOL    MW434452   5.421   1.931   5.589  0.0642  0.0316 -0.2943
 8672SOL     OW34453   1.895   2.592   6.105 -0.2937  0.1707 -0.1499
 8672SOL    HW234454   1.913   2.620   6.015  0.6552 -2.1433 -0.7589
 8672SOL    HW334455   1.812   2.544   6.099  0.4377 -1.1655 -0.1260
 8672SOL    MW434456   1.886   2.589   6.092  0.2677  0.0335  0.2948
 8673SOL     OW34457   4.024   2.884   5.773  0.1048  0.2388  0.4836
 8673SOL    HW234458   3.949   2.940   5.756 -0.2121 -0.3361 -0.1038
 8673SOL    HW334459   3.999   2.831   5.849 -1.3064 -1.9542 -1.3705
 8673SOL    MW434460   4.011   2.884   5.781  0.7867 -0.1235  0.1468
 8674SOL     OW34461   1.722   1.237   1.969  0.1381  0.0027 -0.3223
 8674SOL    HW234462   1.738   1.321   1.925  0.8121 -1.2265 -2.5435
 8674SOL    HW334463   1.626   1.233   1.979  0.0919  0.9759 -0.2539
 8674SOL    MW434464   1.711   1.248   1.965 -0.6119 -0.4075  0.5836
 8675SOL     OW34465   6.164   0.809   0.718  0.5760  0.0137 -0.0857
 8675SOL    HW234466   6.242   0.804   0.662  0.5149 -0.9900 -0.0970
 8675SOL    HW334467   6.160   0.724   0.761 -0.1909  0.2680  0.3643
 8675SOL    MW434468   6.174   0.797   0.716 -0.1841 -0.0174  0.3824
 8676SOL     OW34469   5.627   3.220   5.428  1.0639 -0.6302 -0.3952
 8676SOL    HW234470   5.615   3.179   5.513  2.3270  1.3593  0.8432
 8676SOL    HW334471   5.567   3.295   5.429  0.1361 -1.2977 -1.8358
 8676SOL    MW434472   5.618   3.225   5.439 -0.3519 -0.5346 -0.7274
 8677SOL     OW34473   1.475   1.586   3.477 -0.4731  0.1066 -0.5302
 8677SOL    HW234474   1.537   1.564   3.547 -0.7512 -2.3082 -0.9603
 8677SOL    HW334475   1.393   1.605   3.522  0.2155  2.1925 -0.0348
 8677SOL    MW434476   1.472   1.586   3.492 -0.0015  0.1345 -0.4843
 8678SOL     OW34477   6.202   2.926   1.276 -0.7483 -0.0650  0.5159
 8678SOL    HW234478   6.252   2.956   1.352 -0.7829  3.9447 -0.8144
 8678SOL    HW334479   6.120   2.892   1.313  0.3112 -0.7708  2.3497
 8678SOL    MW434480   6.197   2.925   1.291 -0.0359  0.1652 -0.0656
 8679SOL     OW34481   3.853   6.051   0.661 -0.1810 -0.1183  0.4376
 8679SOL    HW234482   3.853   6.006   0.577 -0.6287  0.4604  0.1224
 8679SOL    HW334483   3.765   6.038   0.696 -0.1312  0.0062  0.6151
 8679SOL    MW434484   3.842   6.044   0.654  0.5765 -0.7126 -0.1147
 8680SOL     OW34485   5.117   3.971   2.521 -0.0160 -0.0954 -0.1900
 8680SOL    HW234486   5.085   3.986   2.432 -0.5066 -0.4897 -0.0859
 8680SOL    HW334487   5.037   3.964   2.574  0.2356 -1.0721  0.0859
 8680SOL    MW434488   5.102   3.972   2.516 -0.1220  0.5637  0.1938
 8681SOL     OW34489   0.891   1.217   4.556 -1.0503  0.0617 -0.6082
 8681SOL    HW234490   0.841   1.136   4.568 -2.8328  1.4187  2.6260
 8681SOL    HW334491   0.861   1.251   4.473 -3.2591 -0.7382 -0.2129
 8681SOL    MW434492   0.880   1.211   4.547 -0.2573 -0.1807 -0.0767
 8682SOL     OW34493   2.877   3.691   5.747  0.7789  0.0441 -0.1749
 8682SOL    HW234494   2.920   3.684   5.832  0.1526 -0.0631  0.1363
 8682SOL    HW334495   2.925   3.631   5.691  0.6518 -0.5383  0.3334
 8682SOL    MW434496   2.889   3.682   5.751 -0.4307  0.1442  0.1428
 8683SOL     OW34497   4.233   4.232   2.288 -0.3035 -0.5718  0.3287
 8683SOL    HW234498   4.184   4.275   2.359 -0.0489 -0.7611  0.6238
 8683SOL    HW334499   4.318   4.210   2.328 -0.4838 -1.4821  0.2329
 8683SOL    MW434500   4.238   4.235   2.303 -0.1434 -0.2321 -0.1450
 8684SOL     OW34501   4.673   0.382   2.785 -0.0348 -0.3912  0.9544
 8684SOL    HW234502   4.585   0.347   2.777 -0.7517  1.5196 -0.3801
 8684SOL    HW334503   4.683   0.403   2.878  0.1717 -3.2737  1.6650
 8684SOL    MW434504   4.663   0.380   2.796  0.1262  0.5809  0.1693
 8685SOL     OW34505   4.434   4.442   5.770 -0.1159  0.2301 -0.1285
 8685SOL    HW234506   4.413   4.349   5.771  1.4015 -0.1332  0.3128
 8685SOL    HW334507   4.471   4.457   5.683 -0.7943  0.5403 -0.3721
 8685SOL    MW434508   4.436   4.432   5.759  0.2323  0.1070 -0.2519
 8686SOL     OW34509   3.078   2.911   5.234 -0.3757 -0.0565 -0.4383
 8686SOL    HW234510   3.128   2.878   5.159 -2.8421 -0.5802 -1.9852
 8686SOL    HW334511   3.039   2.993   5.202  0.5557  1.0916  1.2033
 8686SOL    MW434512   3.080   2.918   5.220  0.2229 -0.0061  0.4327
 8687SOL     OW34513   2.450   1.413   3.250 -0.0894  0.4204  0.1645
 8687SOL    HW234514   2.457   1.508   3.253 -0.7103  0.4929 -0.5037
 8687SOL    HW334515   2.381   1.395   3.187  0.6171 -0.5018 -0.3809
 8687SOL    MW434516   2.442   1.423   3.242 -0.1398 -0.7539 -0.6207
 8688SOL     OW34517   5.234   6.391   2.566 -0.3553  0.5309  0.1585
 8688SOL    HW234518   5.266   6.477   2.540 -0.9097  1.0959  1.2603
 8688SOL    HW334519   5.299   6.359   2.628 -0.6291  0.5743  0.4695
 8688SOL    MW434520   5.247   6.398   2.570  0.2657 -0.2965 -0.3594
 8689SOL     OW34521   1.448   1.192   1.989 -0.7052  0.3182  0.3364
 8689SOL    HW234522   1.449   1.122   2.054  0.9384 -0.3663 -0.3915
 8689SOL    HW334523   1.454   1.147   1.905 -0.3034  1.3101 -0.1780
 8689SOL    MW434524   1.449   1.177   1.987  0.2337 -0.4320 -0.2412
 8690SOL     OW34525   1.920   1.635   1.979 -0.1531 -0.3672  0.2943
 8690SOL    HW234526   1.869   1.625   2.060  0.1840  0.5369  0.6232
 8690SOL    HW334527   1.877   1.706   1.932  0.7891  0.4007  0.5706
 8690SOL    MW434528   1.907   1.643   1.983  0.1656  0.1814 -0.1176
 8691SOL     OW34529   1.347   3.013   4.992 -0.1479  0.4185 -0.0656
 8691SOL    HW234530   1.267   2.973   5.024  0.4479  0.1934  1.1920
 8691SOL    HW334531   1.318   3.073   4.923 -1.5956  1.5716  1.4765
 8691SOL    MW434532   1.333   3.016   4.987  0.1449  0.7297  0.8364
 8692SOL     OW34533   1.544   2.209   2.098  0.2642 -0.0869  0.2436
 8692SOL    HW234534   1.493   2.160   2.034 -1.4803  0.3957  1.1916
 8692SOL    HW334535   1.629   2.223   2.056 -0.7799  0.1383 -1.8932
 8692SOL    MW434536   1.549   2.204   2.084  0.1062  0.0130 -0.1111
 8693SOL     OW34537   5.282   5.043   3.273  0.2324  0.5993  0.0176
 8693SOL    HW234538   5.238   5.117   3.315 -0.4339  0.6801 -0.8070
 8693SOL    HW334539   5.353   5.020   3.334  0.3630  1.8176  0.3527
 8693SOL    MW434540   5.286   5.050   3.287 -0.6543  0.0565  0.0176
 8694SOL     OW34541   4.573   2.511   0.655  0.0402 -0.1562 -0.0042
 8694SOL    HW234542   4.638   2.491   0.588 -0.6551 -0.4473 -0.6020
 8694SOL    HW334543   4.515   2.576   0.614  1.7362  2.5711  1.5913
 8694SOL    MW434544   4.574   2.517   0.641 -0.3682 -0.0558  0.1146
 8695SOL     OW34545   1.443   0.559   3.787 -0.3030 -0.1876 -0.5150
 8695SOL    HW234546   1.392   0.489   3.827  0.5252 -0.7214 -0.3706
 8695SOL    HW334547   1.469   0.614   3.861  0.1859 -0.4849 -0.4639
 8695SOL    MW434548   1.439   0.557   3.802  0.0424 -0.9335 -0.1012
 8696SOL     OW34549   5.189   6.035   2.775 -0.5617  0.0396  0.3039
 8696SOL    HW234550   5.243   6.016   2.698  1.3065  1.8058  1.0848
 8696SOL    HW334551   5.185   5.952   2.822 -0.8427 -0.8007 -1.1361
 8696SOL    MW434552   5.195   6.022   2.771 -0.1738 -0.3946  0.0351
 8697SOL     OW34553   4.255   1.254   5.332  0.0270  0.1657 -0.3332
 8697SOL    HW234554   4.209   1.176   5.366 -0.2354 -0.5021 -2.1275
 8697SOL    HW334555   4.256   1.314   5.406 -0.3703 -1.2782  0.9106
 8697SOL    MW434556   4.249   1.251   5.347  0.0283 -0.3381 -0.6102
 8698SOL     OW34557   2.257   6.099   2.810  0.5032 -0.3115  0.0947
 8698SOL    HW234558   2.258   6.193   2.828 -0.2016 -0.5411  1.4509
 8698SOL    HW334559   2.313   6.089   2.733 -1.7912  1.5534 -1.9839
 8698SOL    MW434560   2.265   6.110   2.802 -0.1488 -0.4566 -0.0005
 8699SOL     OW34561   2.572   1.027   3.375 -0.2896  0.1207  0.1190
 8699SOL    HW234562   2.531   0.954   3.422 -0.6709 -0.0189 -0.4134
 8699SOL    HW334563   2.643   0.986   3.325 -0.0758  0.2219  0.3378
 8699SOL    MW434564   2.576   1.012   3.374  0.4737  0.1594 -0.3717
 8700SOL     OW34565   3.921   6.242   0.278 -0.0670 -0.1109 -0.6580
 8700SOL    HW234566   3.828   6.224   0.282 -0.1744  0.5920  0.1757
 8700SOL    HW334567   3.932   6.294   0.198  0.0791 -2.6808 -2.4393
 8700SOL    MW434568   3.910   6.246   0.268 -0.2580 -0.5269 -0.4359
 8701SOL     OW34569   3.019   2.821   6.290 -0.2527 -0.1644 -0.1098
 8701SOL    HW234570   2.969   2.802   6.370 -0.5359 -2.0437 -0.6910
 8701SOL    HW334571   2.978   2.900   6.255  1.1643  1.9655  2.6070
 8701SOL    MW434572   3.007   2.829   6.296  0.1282 -1.0523 -0.1080
 8702SOL     OW34573   2.105   4.148   3.667 -0.2336  0.4177 -0.7371
 8702SOL    HW234574   2.140   4.182   3.750  0.7908 -1.1074 -0.5164
 8702SOL    HW334575   2.105   4.224   3.609  1.2599  1.0038 -0.0321
 8702SOL    MW434576   2.110   4.163   3.670  0.5189  0.1928  0.0682
 8703SOL     OW34577   5.752   4.595   0.345 -0.4743 -0.0927  0.3629
 8703SOL    HW234578   5.661   4.623   0.352 -0.3516  0.7174 -0.9590
 8703SOL    HW334579   5.803   4.675   0.358 -0.0157 -0.2171 -0.5867
 8703SOL    MW434580   5.746   4.609   0.348  0.2018  0.3893 -0.6496
 8704SOL     OW34581   4.593   5.274   1.244  0.4437 -0.3252 -0.7940
 8704SOL    HW234582   4.625   5.201   1.191 -0.1337 -0.3417 -1.1378
 8704SOL    HW334583   4.515   5.239   1.287 -1.0364  0.6349 -2.5277
 8704SOL    MW434584   4.587   5.260   1.242  0.1553  0.0003 -0.1492
 8705SOL     OW34585   3.315   1.991   5.494 -0.2201  0.5757 -0.2655
 8705SOL    HW234586   3.250   1.947   5.440 -1.5746  2.5912 -0.3780
 8705SOL    HW334587   3.265   2.033   5.563  1.2903 -0.1968  1.3904
 8705SOL    MW434588   3.300   1.991   5.496  0.1519  0.1494 -0.6957
 8706SOL     OW34589   1.843   0.577   1.755 -0.1107 -0.3853 -0.3918
 8706SOL    HW234590   1.768   0.593   1.812  1.2446  0.6073  1.2133
 8706SOL    HW334591   1.817   0.614   1.670 -1.4407 -0.1152  0.1095
 8706SOL    MW434592   1.830   0.584   1.751 -0.6484 -0.0731  0.1514
 8707SOL     OW34593   0.852   4.421   6.213 -0.0635 -0.0033  0.0744
 8707SOL    HW234594   0.874   4.329   6.200 -0.2408 -0.1538  0.7778
 8707SOL    HW334595   0.868   4.436   6.306 -2.1744  0.0753  0.4765
 8707SOL    MW434596   0.857   4.411   6.224 -0.1782 -0.5313 -0.6527
 8708SOL     OW34597   3.770   3.621   1.705 -0.0331  0.3366 -0.1121
 8708SOL    HW234598   3.692   3.566   1.697  0.5704 -0.3347 -2.0029
 8708SOL    HW334599   3.809   3.595   1.789 -1.1170 -0.2867  0.2208
 8708SOL    MW434600   3.765   3.610   1.715  0.5297 -0.2440 -0.4557
 8709SOL     OW34601   2.740   1.455   2.583 -0.0953 -0.5723  0.4433
 8709SOL    HW234602   2.686   1.405   2.644  0.4052 -1.9807 -0.2220
 8709SOL    HW334603   2.697   1.443   2.498  1.1095 -1.5358 -0.0568
 8709SOL    MW434604   2.727   1.447   2.580  0.2796 -0.0903 -0.0499
 8710SOL     OW34605   4.085   3.829   3.827  0.0407 -0.0524  0.7422
 8710SOL    HW234606   4.173   3.792   3.822 -0.0919 -0.6819  2.5304
 8710SOL    HW334607   4.041   3.779   3.895 -2.1191 -0.5333 -0.8743
 8710SOL    MW434608   4.090   3.818   3.835 -0.2027  0.1302  0.5273
 8711SOL     OW34609   4.845   3.401   3.094 -0.0835 -0.4480  0.4606
 8711SOL    HW234610   4.847   3.478   3.037  1.5520 -0.4787  0.4332
 8711SOL    HW334611   4.907   3.421   3.163 -0.6898 -1.1819  1.2331
 8711SOL    MW434612   4.853   3.414   3.095 -0.0005 -0.0926  0.5197
 8712SOL     OW34613   5.850   4.850   0.387 -0.1384  0.0419  0.4870
 8712SOL    HW234614   5.798   4.873   0.311 -1.4524  0.1086  1.3689
 8712SOL    HW334615   5.823   4.912   0.455  1.1046  0.0798  0.9785
 8712SOL    MW434616   5.840   4.861   0.386  0.4062  0.4916  0.4261
 8713SOL     OW34617   5.685   1.823   2.026 -0.8059 -0.3780  0.3269
 8713SOL    HW234618   5.694   1.912   2.059  0.8699  0.1443 -1.3883
 8713SOL    HW334619   5.756   1.774   2.069 -0.3000 -0.3198 -0.4167
 8713SOL    MW434620   5.696   1.828   2.036 -0.5397 -0.4086 -0.4617
 8714SOL     OW34621   4.546   1.714   2.640 -0.6296 -0.7647  0.1578
 8714SOL    HW234622   4.632   1.736   2.676 -0.6743  0.7403 -0.5481
 8714SOL    HW334623   4.565   1.687   2.550 -0.7299 -2.2953  0.5782
 8714SOL    MW434624   4.560   1.713   2.633 -0.5528 -0.3160  0.5287
 8715SOL     OW34625   3.059   2.671   4.996 -0.2763  0.4456 -0.4086
 8715SOL    HW234626   3.101   2.610   5.057 -1.3546 -1.0926 -1.1490
 8715SOL    HW334627   3.123   2.743   4.987  0.6778 -0.1592  1.1048
 8715SOL    MW434628   3.073   2.673   5.003  0.2578 -0.1731 -0.1939
 8716SOL     OW34629   3.372   0.300   2.158  0.2589  0.4803 -0.4063
 8716SOL    HW234630   3.289   0.333   2.191  0.8101 -0.2060  1.8707
 8716SOL    HW334631   3.351   0.261   2.073 -1.7198  0.4239  0.0648
 8716SOL    MW434632   3.359   0.299   2.152  0.0321  0.4088  0.0601
 8717SOL     OW34633   3.736   6.196   4.600 -0.0362 -0.9468 -0.3038
 8717SOL    HW234634   3.773   6.220   4.515  1.1231  0.1607  0.4633
 8717SOL    HW334635   3.812   6.174   4.654 -0.4202  1.2770  1.2946
 8717SOL    MW434636   3.751   6.196   4.596 -0.5202 -0.1614  0.4841
 8718SOL     OW34637   2.527   1.163   5.981 -0.2272  0.0404 -0.2495
 8718SOL    HW234638   2.433   1.177   5.981  0.0415  2.3810 -1.2218
 8718SOL    HW334639   2.551   1.159   5.888  0.6885 -0.0123 -0.0253
 8718SOL    MW434640   2.518   1.164   5.968  0.7989  0.1165  0.3957
 8719SOL     OW34641   1.913   6.330   0.445 -0.0762 -0.5495 -0.0578
 8719SOL    HW234642   1.975   6.262   0.416 -0.0492 -0.1266 -1.0209
 8719SOL    HW334643   1.968   6.407   0.461  0.1992 -1.2267  2.9747
 8719SOL    MW434644   1.929   6.331   0.443  0.0382 -0.2204  0.4542
 8720SOL     OW34645   1.754   5.991   4.660 -0.3985  0.5067 -0.2241
 8720SOL    HW234646   1.842   5.979   4.625 -1.2038 -0.7577 -1.9937
 8720SOL    HW334647   1.713   6.051   4.598 -1.4803 -0.7691 -0.7911
 8720SOL    MW434648   1.760   5.998   4.647  0.1877  0.1953  0.1458
 8721SOL     OW34649   1.117   0.249   5.062 -0.1954 -0.3882  0.5367
 8721SOL    HW234650   1.188   0.223   5.004  1.0532  2.4681  0.6011
 8721SOL    HW334651   1.139   0.209   5.147  0.2102 -1.1894  0.0605
 8721SOL    MW434652   1.129   0.240   5.066  0.4062 -0.0747  0.2285
 8722SOL     OW34653   0.832   6.103   0.052  0.1363  0.0849 -0.4512
 8722SOL    HW234654   0.871   6.140  -0.027  0.9463 -0.1298 -0.1651
 8722SOL    HW334655   0.882   6.143   0.124  0.0190 -0.4217 -0.0846
 8722SOL    MW434656   0.844   6.113   0.051 -0.0921 -0.5898 -0.5158
 8723SOL     OW34657   0.165   1.449   0.727 -0.0264  0.3105 -0.2012
 8723SOL    HW234658   0.144   1.402   0.808  0.0154  0.5372 -0.0593
 8723SOL    HW334659   0.087   1.501   0.708 -0.0472  0.2366 -0.3242
 8723SOL    MW434660   0.152   1.450   0.735 -0.4159  0.3275  0.2290
 8724SOL     OW34661   1.502   2.086   1.262 -0.0175 -0.0874  0.0311
 8724SOL    HW234662   1.588   2.094   1.303 -0.0312  1.2904 -0.1748
 8724SOL    HW334663   1.456   2.168   1.283 -1.3795 -0.8953  0.3426
 8724SOL    MW434664   1.507   2.098   1.270 -0.8872 -0.0871 -0.5458
 8725SOL     OW34665   0.468   0.300   1.462 -0.3370  0.0690  0.3725
 8725SOL    HW234666   0.444   0.390   1.482 -0.2784 -0.0111  0.8273
 8725SOL    HW334667   0.431   0.283   1.376 -0.2065  0.5817  0.2148
 8725SOL    MW434668   0.460   0.310   1.453 -0.0275  0.5762 -0.2363
 8726SOL     OW34669   2.945   1.461   4.663  0.2459 -0.0662  0.4378
 8726SOL    HW234670   2.952   1.555   4.643  0.0393  0.1509  1.3368
 8726SOL    HW334671   2.995   1.418   4.594  1.9033  0.8247  1.0063
 8726SOL    MW434672   2.953   1.468   4.651 -0.0022  0.4543 -0.0261
 8727SOL     OW34673   2.200   2.519   4.347  0.9069 -0.4272  0.2733
 8727SOL    HW234674   2.202   2.497   4.440  1.1223  0.2535  0.4330
 8727SOL    HW334675   2.107   2.535   4.328  0.8825 -0.4219  0.3995
 8727SOL    MW434676   2.188   2.518   4.357  0.3071  0.2689  0.4671
 8728SOL     OW34677   5.394   0.506   4.965  0.3222 -0.0734  0.1693
 8728SOL    HW234678   5.359   0.587   4.928  0.7860  0.8017  1.5295
 8728SOL    HW334679   5.376   0.513   5.059 -0.0182 -1.7749  0.2625
 8728SOL    MW434680   5.387   0.518   4.972 -0.2902  0.3129 -0.4912
 8729SOL     OW34681   1.788   3.770   6.020 -0.0559 -0.0880  0.1004
 8729SOL    HW234682   1.736   3.850   6.009  0.1477 -0.0025 -0.2417
 8729SOL    HW334683   1.755   3.731   6.102  0.8363  1.1219  1.0829
 8729SOL    MW434684   1.777   3.776   6.030 -0.6893 -0.1375  1.0683
 8730SOL     OW34685   1.971   5.901   0.243 -0.0677  0.2664 -0.9855
 8730SOL    HW234686   1.881   5.893   0.275  0.3254  1.5833  0.5632
 8730SOL    HW334687   1.979   5.833   0.176 -1.4274 -1.6591  0.6807
 8730SOL    MW434688   1.960   5.891   0.238  0.1350  0.2184  0.1087
 8731SOL     OW34689   3.144   5.635   4.169 -0.1204  0.1324  0.1316
 8731SOL    HW234690   3.119   5.603   4.256  0.0197  0.0710  0.1506
 8731SOL    HW334691   3.067   5.621   4.115 -0.6821  1.4317  0.5672
 8731SOL    MW434692   3.131   5.629   4.174 -0.1957  0.1546  0.3426
 8732SOL     OW34693   2.949   0.350   3.882  0.2952  0.1535 -0.2654
 8732SOL    HW234694   2.998   0.290   3.938 -0.5270 -1.1426 -0.9023
 8732SOL    HW334695   2.922   0.421   3.941  3.5401  1.3646 -0.0283
 8732SOL    MW434696   2.952   0.351   3.897 -0.4253 -0.0314 -0.2751
 8733SOL     OW34697   5.850   3.969   0.539  0.0343 -0.3584 -0.0344
 8733SOL    HW234698   5.929   3.988   0.589 -0.8859  4.9911 -0.0417
 8733SOL    HW334699   5.882   3.933   0.456  2.5346  1.5572 -0.0156
 8733SOL    MW434700   5.864   3.967   0.535  0.2051  0.0954  0.2957
 8734SOL     OW34701   6.403   5.171   3.962 -0.1722  0.0865 -0.4123
 8734SOL    HW234702   6.473   5.231   3.934  0.0333 -0.3307 -0.8119
 8734SOL    HW334703   6.447   5.088   3.975 -0.7319 -0.3965 -1.4975
 8734SOL    MW434704   6.418   5.168   3.960 -0.9321  0.0436 -0.6396
 8735SOL     OW34705   4.634   2.258   4.389 -0.1547 -0.4068 -0.2959
 8735SOL    HW234706   4.557   2.294   4.345  0.4094  0.9651 -0.2055
 8735SOL    HW334707   4.616   2.270   4.483 -0.1101 -0.7042 -0.2465
 8735SOL    MW434708   4.622   2.264   4.396  1.0446 -0.0845  0.4484
 8736SOL     OW34709   2.405   5.653   3.154  0.2986 -0.2921  0.1140
 8736SOL    HW234710   2.353   5.694   3.223 -0.0019  2.0584 -1.3949
 8736SOL    HW334711   2.492   5.693   3.162  0.6329 -0.9598 -0.0890
 8736SOL    MW434712   2.410   5.664   3.164  0.0880 -0.7187  0.1589
 8737SOL     OW34713   0.825   2.983   1.929  0.0971  0.8225 -0.5788
 8737SOL    HW234714   0.867   2.916   1.983 -1.8025  0.1144  0.0916
 8737SOL    HW334715   0.752   2.938   1.887 -0.7982  2.3065 -0.6893
 8737SOL    MW434716   0.821   2.968   1.931  0.2776 -0.3001 -0.0847
 8738SOL     OW34717   5.971   3.011   3.996  0.5383  0.1120  0.0401
 8738SOL    HW234718   5.922   3.039   3.918  0.6634 -1.9837 -0.8433
 8738SOL    HW334719   6.042   3.074   4.002 -2.0025  3.1437  1.2394
 8738SOL    MW434720   5.974   3.023   3.986  0.1030 -0.5956 -0.4953
 8739SOL     OW34721   2.192   1.816   2.680  0.4887  0.2483  0.1923
 8739SOL    HW234722   2.202   1.803   2.586  0.1293 -0.9624  0.2945
 8739SOL    HW334723   2.109   1.773   2.701  0.6776  0.3074  1.0981
 8739SOL    MW434724   2.183   1.808   2.671  0.0190 -0.6701  0.7784
 8740SOL     OW34725   3.404   3.457   3.374 -0.0753 -0.4462 -0.0996
 8740SOL    HW234726   3.435   3.448   3.464  0.6443 -0.4281 -0.3374
 8740SOL    HW334727   3.377   3.369   3.350 -1.9652 -0.1326  0.7140
 8740SOL    MW434728   3.405   3.444   3.383  0.2677 -0.0902 -0.4275
 8741SOL     OW34729   3.095   2.332   3.932  0.2068  0.3657  0.3750
 8741SOL    HW234730   3.169   2.278   3.904 -0.2017  0.1775 -0.3924
 8741SOL    HW334731   3.040   2.273   3.983  0.6015  0.5188  0.9881
 8741SOL    MW434732   3.097   2.317   3.935 -0.0358  0.3319 -0.5610
 8742SOL     OW34733   3.876   3.253   4.557 -0.9213 -0.0521  0.3912
 8742SOL    HW234734   3.793   3.214   4.585 -0.8631  0.2661  1.0272
 8742SOL    HW334735   3.941   3.215   4.617 -0.4904 -0.8317 -0.5394
 8742SOL    MW434736   3.873   3.243   4.569 -0.4311  0.0363 -0.2129
 8743SOL     OW34737   5.914   6.273   3.180  0.1859  0.6476 -0.1413
 8743SOL    HW234738   5.851   6.263   3.251  1.9163 -0.6688  1.3076
 8743SOL    HW334739   5.943   6.184   3.161 -0.0424  0.9877 -2.3819
 8743SOL    MW434740   5.909   6.260   3.187 -0.0962 -0.1294 -0.0837
 8744SOL     OW34741   4.443   6.177   3.208 -0.5474  0.3300 -0.0831
 8744SOL    HW234742   4.416   6.183   3.116  0.2193 -1.3088 -0.4668
 8744SOL    HW334743   4.537   6.160   3.203 -0.6309 -0.5556  0.9636
 8744SOL    MW434744   4.452   6.175   3.195 -0.1823  0.4146 -0.6305
 8745SOL     OW34745   2.292   5.754   3.932  0.3633 -0.0623 -0.1691
 8745SOL    HW234746   2.334   5.694   3.870  0.8156  0.5634 -0.4810
 8745SOL    HW334747   2.199   5.747   3.912  0.4147 -0.6239 -0.2352
 8745SOL    MW434748   2.285   5.745   3.921 -0.2739  0.4317  0.2301
 8746SOL     OW34749   3.064   4.395   1.453 -0.3251  0.4034  0.1549
 8746SOL    HW234750   3.097   4.485   1.458  0.0418  0.2675  0.1807
 8746SOL    HW334751   2.985   4.402   1.399  0.4196  0.5425 -0.9339
 8746SOL    MW434752   3.058   4.408   1.447  0.1916  0.6987  0.6820
 8747SOL     OW34753   3.451   0.733   5.926  0.3296  0.2307  0.6746
 8747SOL    HW234754   3.489   0.723   5.838  0.1699  0.2846  0.5984
 8747SOL    HW334755   3.363   0.767   5.910  0.6791  1.2681  0.9022
 8747SOL    MW434756   3.444   0.736   5.912 -0.3379  0.3173 -0.5313
 8748SOL     OW34757   4.174   4.224   2.897  0.2820  0.4009 -0.3620
 8748SOL    HW234758   4.262   4.227   2.936 -0.1293  0.3442  0.5792
 8748SOL    HW334759   4.134   4.146   2.935  0.2121 -0.2084 -1.6505
 8748SOL    MW434760   4.181   4.214   2.907  0.0434  0.3117 -0.1416
 8749SOL     OW34761   6.332   3.803   1.932 -0.1645 -0.3619 -0.1836
 8749SOL    HW234762   6.332   3.884   1.881  2.5162  0.9495  1.6186
 8749SOL    HW334763   6.347   3.734   1.868  1.0710  0.9903 -1.4221
 8749SOL    MW434764   6.334   3.804   1.917  0.2195 -0.0941 -0.1792
 8750SOL     OW34765   5.395   4.358   2.193 -0.5014  0.2759 -0.5285
 8750SOL    HW234766   5.371   4.266   2.208  0.3730  0.0004 -0.7872
 8750SOL    HW334767   5.311   4.405   2.198 -1.0683 -0.6253 -1.1558
 8750SOL    MW434768   5.381   4.352   2.196  0.0991 -0.1855 -0.7251
 8751SOL     OW34769   2.773   3.380   3.245  0.6581 -0.3409  0.1840
 8751SOL    HW234770   2.689   3.384   3.198  1.3083  0.4632 -0.9806
 8751SOL    HW334771   2.813   3.465   3.228  2.3119 -1.1999 -0.4467
 8751SOL    MW434772   2.767   3.392   3.236  0.3596 -0.2382 -0.0346
 8752SOL     OW34773   3.988   5.760   1.626 -0.5461  0.3987  0.1054
 8752SOL    HW234774   3.952   5.687   1.677 -0.8766 -0.0269 -0.7304
 8752SOL    HW334775   3.960   5.839   1.674  0.0056 -0.0098  1.1400
 8752SOL    MW434776   3.980   5.761   1.639  0.8086  0.0600  0.0809
 8753SOL     OW34777   1.628   0.915   5.037  0.3871  0.1685  0.4490
 8753SOL    HW234778   1.616   0.838   4.982  0.3207  0.1079  0.5484
 8753SOL    HW334779   1.562   0.907   5.106 -1.2537  1.5335 -0.8799
 8753SOL    MW434780   1.618   0.904   5.039  0.1740 -0.1352 -0.1991
 8754SOL     OW34781   4.376   6.388   1.878 -0.1221 -0.2864 -0.4315
 8754SOL    HW234782   4.455   6.442   1.887  0.0515 -0.2714 -1.7831
 8754SOL    HW334783   4.350   6.399   1.787 -1.3976 -0.7092 -0.1355
 8754SOL    MW434784   4.383   6.396   1.867 -0.0372 -0.3272  0.1098
 8755SOL     OW34785   3.736   1.153   2.691  0.0651  0.0011 -0.2673
 8755SOL    HW234786   3.641   1.141   2.689 -0.4165  2.9694  0.3298
 8755SOL    HW334787   3.764   1.112   2.773 -0.5627 -1.4169 -0.7329
 8755SOL    MW434788   3.728   1.146   2.702  0.0613 -0.6579  0.0100
 8756SOL     OW34789   4.203   0.932   0.675 -0.2373 -0.4746  0.0690
 8756SOL    HW234790   4.205   0.851   0.624 -0.9060 -0.3110 -0.2234
 8756SOL    HW334791   4.113   0.938   0.707  0.4884 -1.3515  2.5515
 8756SOL    MW434792   4.191   0.922   0.673 -0.9417  0.1801 -0.1731
 8757SOL     OW34793   0.209   0.209   3.666  0.2722  0.0358  0.6047
 8757SOL    HW234794   0.257   0.267   3.606  0.1472  0.2787  0.7387
 8757SOL    HW334795   0.117   0.230   3.651  0.2732  1.6267  2.3700
 8757SOL    MW434796   0.203   0.219   3.656 -0.7777 -0.4751  0.5906
 8758SOL     OW34797   4.515   2.938   5.776 -0.1778 -0.3788 -0.4128
 8758SOL    HW234798   4.460   2.859   5.773 -0.7557 -0.0532  0.9659
 8758SOL    HW334799   4.461   3.006   5.736 -1.8858  0.5137  3.0019
 8758SOL    MW434800   4.501   2.937   5.770  0.1330 -0.3818  0.1216
 8759SOL     OW34801   6.219   2.587   2.888 -0.0456  0.3147 -0.2444
 8759SOL    HW234802   6.290   2.538   2.846 -0.3576 -0.8789  0.5952
 8759SOL    HW334803   6.261   2.638   2.957  0.2551  1.1385 -1.0152
 8759SOL    MW434804   6.234   2.587   2.891  0.9588  0.3500  0.3880
 8760SOL     OW34805   5.197   4.077   0.849  0.1467  0.0691 -0.3607
 8760SOL    HW234806   5.195   4.162   0.893 -0.4241  0.2555 -0.7438
 8760SOL    HW334807   5.162   4.016   0.913  1.2419 -0.0164  0.1891
 8760SOL    MW434808   5.192   4.081   0.863 -0.3433  0.2883  0.0241
 8761SOL     OW34809   4.296   2.783   2.435  0.4051  0.9822  0.6667
 8761SOL    HW234810   4.330   2.829   2.358  0.6037 -1.4671 -0.8233
 8761SOL    HW334811   4.201   2.790   2.426  0.4315  1.2298  0.5539
 8761SOL    MW434812   4.288   2.790   2.424 -0.0358 -0.6611 -0.4039
 8762SOL     OW34813   5.489   4.201   5.928  0.2709 -0.2387 -0.0747
 8762SOL    HW234814   5.459   4.269   5.868  0.0132  0.5261  0.9010
 8762SOL    HW334815   5.415   4.183   5.985  1.3097  1.0508  1.7996
 8762SOL    MW434816   5.475   4.208   5.928  0.2066  0.2562 -0.1870
 8763SOL     OW34817   4.471   2.042   3.207  0.1060 -0.0385  0.6845
 8763SOL    HW234818   4.537   2.088   3.259  0.8534 -1.7389  1.3141
 8763SOL    HW334819   4.514   1.962   3.178 -0.1138  1.0013 -3.0204
 8763SOL    MW434820   4.485   2.038   3.210  0.1839 -0.4789  0.3324
 8764SOL     OW34821   4.052   1.081   5.459  0.0853 -0.1779  0.0440
 8764SOL    HW234822   4.046   0.993   5.421  0.8289  0.1743 -0.9343
 8764SOL    HW334823   3.977   1.128   5.421 -0.6395 -0.5171  0.9955
 8764SOL    MW434824   4.041   1.075   5.449  0.0015 -0.3665 -0.0369
 8765SOL     OW34825   2.377   1.919   1.611  0.0760  0.3615  0.3122
 8765SOL    HW234826   2.444   1.938   1.545  0.5009 -0.1493  0.5868
 8765SOL    HW334827   2.309   1.984   1.596  1.2162  1.7242  0.8540
 8765SOL    MW434828   2.377   1.930   1.601 -0.2672  0.5339 -0.4140
 8766SOL     OW34829   5.079   5.894   5.676 -0.0502  0.2720  0.3524
 8766SOL    HW234830   5.136   5.898   5.599  0.1904 -2.9347  0.2022
 8766SOL    HW334831   4.990   5.901   5.641  0.0901 -0.4236 -0.1800
 8766SOL    MW434832   5.075   5.895   5.662 -0.6089 -0.5166 -0.1059
 8767SOL     OW34833   2.565   2.656   2.741 -0.4028  0.4170 -0.6189
 8767SOL    HW234834   2.643   2.620   2.699 -1.1056  1.0453 -2.5211
 8767SOL    HW334835   2.586   2.748   2.756  0.3429 -0.0533  1.7363
 8767SOL    MW434836   2.578   2.663   2.738 -0.1241 -0.3924 -0.4155
 8768SOL     OW34837   1.964   1.030   5.639 -0.3355 -0.1844 -0.1719
 8768SOL    HW234838   2.054   1.061   5.631 -0.5425  0.5698  0.3392
 8768SOL    HW334839   1.941   1.044   5.731 -1.5893  1.4237 -0.6788
 8768SOL    MW434840   1.973   1.036   5.650 -0.0499 -0.5844 -0.3268
 8769SOL     OW34841   4.586   4.265   4.848 -0.0388 -0.8771 -0.1811
 8769SOL    HW234842   4.601   4.310   4.765 -2.3677  0.5956  0.1017
 8769SOL    HW334843   4.585   4.335   4.914 -1.4194 -1.5879  0.6090
 8769SOL    MW434844   4.588   4.280   4.846  0.2718  0.4923 -0.6298
 8770SOL     OW34845   0.171   3.307   2.758  0.2646 -0.2219 -0.1427
 8770SOL    HW234846   0.243   3.368   2.774  0.0973 -0.0044 -0.2193
 8770SOL    HW334847   0.114   3.352   2.697  0.2872 -0.5751 -0.4311
 8770SOL    MW434848   0.173   3.321   2.752 -0.2513 -0.7667  0.2567
 8771SOL     OW34849   2.573   3.562   3.903 -0.1902  0.4336 -0.1013
 8771SOL    HW234850   2.492   3.605   3.933  0.4659  1.5592  0.1265
 8771SOL    HW334851   2.615   3.532   3.984  1.0685  2.5390  0.0946
 8771SOL    MW434852   2.568   3.564   3.918 -0.3572 -0.0945  0.6283
 8772SOL     OW34853   1.527   4.302   1.963 -0.5694  0.2499 -0.5260
 8772SOL    HW234854   1.475   4.236   1.917  1.6421 -1.0548 -1.2705
 8772SOL    HW334855   1.565   4.356   1.894  0.8067 -0.1906 -0.1430
 8772SOL    MW434856   1.525   4.300   1.948  0.1230 -0.4031 -0.2787
 8773SOL     OW34857   3.596   4.387   5.742  0.0707 -0.4536 -0.2608
 8773SOL    HW234858   3.650   4.437   5.804  0.9580 -0.1270 -1.2563
 8773SOL    HW334859   3.513   4.434   5.739 -0.1165 -0.6633  0.9118
 8773SOL    MW434860   3.592   4.400   5.750 -0.1064  0.0791  0.1418
 8774SOL     OW34861   3.394   5.597   0.221  0.1587 -0.2128 -0.1887
 8774SOL    HW234862   3.355   5.677   0.185 -0.6609 -0.9585 -1.0124
 8774SOL    HW334863   3.416   5.620   0.311 -1.8417  0.3974  0.2061
 8774SOL    MW434864   3.392   5.611   0.228  0.1375  0.0566  0.0905
 8775SOL     OW34865   4.898   4.303   3.449  0.5951 -0.0641  0.2832
 8775SOL    HW234866   4.876   4.210   3.439  3.0877 -0.6789 -0.2467
 8775SOL    HW334867   4.818   4.343   3.483 -0.1941 -2.6170  1.7111
 8775SOL    MW434868   4.885   4.296   3.452  0.5648 -0.2837  0.0553
 8776SOL     OW34869   0.028   1.760   2.893 -0.6374 -0.0120  0.3701
 8776SOL    HW234870  -0.034   1.719   2.955 -0.4357 -0.1354  0.4913
 8776SOL    HW334871   0.031   1.699   2.819 -3.4585  1.7002 -1.3352
 8776SOL    MW434872   0.020   1.747   2.892  0.1545  0.1176 -0.3122
 8777SOL     OW34873   4.924   5.920   4.461 -0.2229  0.2814  0.0246
 8777SOL    HW234874   4.993   5.901   4.398  0.9121  1.2685  0.9188
 8777SOL    HW334875   4.862   5.847   4.452  1.2899 -1.0132 -0.2939
 8777SOL    MW434876   4.925   5.908   4.452 -0.5240  0.1980  0.3150
 8778SOL     OW34877   5.379   6.177   6.424  0.0490 -0.5889 -0.3568
 8778SOL    HW234878   5.331   6.114   6.478  2.1756 -0.2623  2.1202
 8778SOL    HW334879   5.311   6.232   6.386 -1.6267 -1.0563  1.7624
 8778SOL    MW434880   5.363   6.176   6.426  0.4340  0.6323 -0.0012
 8779SOL     OW34881   1.313   5.130   1.666  0.6396  0.7580  0.3475
 8779SOL    HW234882   1.344   5.209   1.621  0.5628  1.2493  1.1342
 8779SOL    HW334883   1.249   5.092   1.607 -0.1136  1.8781  0.4026
 8779SOL    MW434884   1.309   5.135   1.653  0.2873  0.0082  0.1472
 8780SOL     OW34885   0.852   5.603   5.244  0.4429 -0.4442  0.0331
 8780SOL    HW234886   0.774   5.593   5.297  2.0732 -0.7249  2.5697
 8780SOL    HW334887   0.824   5.582   5.155 -2.2146 -0.9929  0.9162
 8780SOL    MW434888   0.838   5.599   5.239 -0.6719  0.0092  0.0837
 8781SOL     OW34889   4.476   3.485   1.978 -0.4784  0.1685  0.1955
 8781SOL    HW234890   4.491   3.571   1.940 -0.9720  0.4926  0.7113
 8781SOL    HW334891   4.384   3.466   1.959 -0.7442  0.3574  1.2284
 8781SOL    MW434892   4.466   3.494   1.971 -0.3915 -0.4832 -0.0215
 8782SOL     OW34893   0.001   5.586   1.051  0.8061 -0.0831  0.3845
 8782SOL    HW234894  -0.016   5.518   1.115  0.8602  1.9364  2.6899
 8782SOL    HW334895  -0.080   5.592   1.000  0.3469 -0.9796  0.9840
 8782SOL    MW434896  -0.012   5.578   1.053  0.5716 -0.2684 -0.1198
 8783SOL     OW34897   4.856   2.213   1.888  0.4861  0.1073 -0.7378
 8783SOL    HW234898   4.859   2.306   1.867  0.1475  0.0460 -1.0726
 8783SOL    HW334899   4.886   2.207   1.978 -0.9045  0.7098 -0.2084
 8783SOL    MW434900   4.860   2.224   1.897  0.1777 -0.4149  0.1072
 8784SOL     OW34901   1.101   3.743   3.088  0.1522 -0.2449  0.0859
 8784SOL    HW234902   1.090   3.668   3.147 -1.0194  0.9999  1.5384
 8784SOL    HW334903   1.022   3.796   3.101  2.1654  2.7629  1.3998
 8784SOL    MW434904   1.089   3.740   3.098  0.4897 -0.2687 -0.1002
 8785SOL     OW34905   1.115   2.007   4.036 -0.3044  0.3692 -0.5908
 8785SOL    HW234906   1.030   1.996   3.993 -0.6800  0.6072  0.0673
 8785SOL    HW334907   1.120   2.102   4.053 -0.9717  0.1014  1.4460
 8785SOL    MW434908   1.104   2.018   4.033 -0.1627 -0.1190 -0.0503
 8786SOL     OW34909   2.472   5.992   5.784  0.0259  0.2219  0.1696
 8786SOL    HW234910   2.501   5.958   5.869  0.0901 -0.5623 -0.1608
 8786SOL    HW334911   2.464   6.087   5.798 -1.6372 -0.0669  1.5511
 8786SOL    MW434912   2.475   6.000   5.797 -0.4493 -0.2736  0.0173
 8787SOL     OW34913   0.554   6.026   5.920  0.2986  0.3653  0.5615
 8787SOL    HW234914   0.531   5.933   5.920  0.4780  0.3141  1.2114
 8787SOL    HW334915   0.528   6.058   5.834  0.6301 -0.3868  0.1765
 8787SOL    MW434916   0.548   6.018   5.909 -0.2376 -0.2755  0.4596
 8788SOL     OW34917   5.406   2.998   1.698 -0.1605 -0.0877  0.1836
 8788SOL    HW234918   5.419   2.915   1.652 -0.0514 -0.9465  1.6844
 8788SOL    HW334919   5.334   2.980   1.759 -2.1199  1.7812 -1.3894
 8788SOL    MW434920   5.398   2.985   1.700 -0.2412 -0.1383  0.0668
 8789SOL     OW34921   4.535   0.720   0.014  0.1103  0.7465  0.3085
 8789SOL    HW234922   4.463   0.756   0.067 -2.1693 -2.4888 -0.2510
 8789SOL    HW334923   4.592   0.677   0.078 -0.0705  0.8154  0.5194
 8789SOL    MW434924   4.533   0.719   0.030 -0.1856  0.6367 -0.0291
 8790SOL     OW34925   2.479   1.192   0.402 -0.7727 -0.1669  0.6595
 8790SOL    HW234926   2.475   1.132   0.327  1.8560  1.9247 -1.3865
 8790SOL    HW334927   2.485   1.134   0.478 -1.2461 -2.4439 -0.9111
 8790SOL    MW434928   2.480   1.176   0.402 -0.2181 -0.5601  0.0424
 8791SOL     OW34929   0.887   4.852   1.121 -0.1023 -0.2126  0.0529
 8791SOL    HW234930   0.804   4.859   1.075  0.2597 -0.8974 -0.7498
 8791SOL    HW334931   0.893   4.759   1.144  0.7871 -0.3322 -0.6050
 8791SOL    MW434932   0.877   4.840   1.118 -0.1238 -0.6639 -0.2734
 8792SOL     OW34933   6.001   0.642   1.126  0.3110  0.0170 -0.3008
 8792SOL    HW234934   5.975   0.566   1.074  0.0077  0.7618 -1.2691
 8792SOL    HW334935   6.096   0.645   1.118  0.1914  0.8157 -1.8632
 8792SOL    MW434936   6.010   0.633   1.118 -0.1809 -0.5119 -0.5469
 8793SOL     OW34937   0.419   1.951   6.215 -0.7331  0.1621  0.6031
 8793SOL    HW234938   0.439   2.030   6.266  2.7583  0.3948 -0.8191
 8793SOL    HW334939   0.361   1.981   6.145  1.1829  1.8012 -0.4109
 8793SOL    MW434940   0.414   1.965   6.212  0.3590  0.2222  0.3320
 8794SOL     OW34941   3.075   2.051   1.765 -0.3122 -0.1396  0.4500
 8794SOL    HW234942   3.042   2.012   1.685  0.6321 -1.0993  0.5009
 8794SOL    HW334943   2.999   2.095   1.804 -1.4428 -1.9643  0.3984
 8794SOL    MW434944   3.060   2.052   1.760  0.9045  0.6188  0.4461
 8795SOL     OW34945   1.858   1.346   4.048 -0.3947 -0.0660 -0.4052
 8795SOL    HW234946   1.938   1.309   4.009 -0.9232 -1.3431 -0.3364
 8795SOL    HW334947   1.879   1.438   4.063  0.8577 -0.2408 -0.9400
 8795SOL    MW434948   1.872   1.353   4.044  0.4257  0.1949 -0.2241
 8796SOL     OW34949   6.179   5.260   1.914 -0.4458 -0.5983  0.5878
 8796SOL    HW234950   6.104   5.225   1.962 -0.3421 -0.9291  0.5112
 8796SOL    HW334951   6.151   5.258   1.822  0.2524 -2.2750  0.3790
 8796SOL    MW434952   6.165   5.255   1.908  0.2866  0.2783  0.7073
 8797SOL     OW34953   2.150   4.544   1.163 -0.3914  0.0986 -0.1594
 8797SOL    HW234954   2.228   4.506   1.204 -0.6424 -0.5776 -0.3038
 8797SOL    HW334955   2.089   4.471   1.155 -0.1547  0.0824 -2.2171
 8797SOL    MW434956   2.153   4.530   1.168  0.3563  0.7482 -0.1375
 8798SOL     OW34957   4.902   0.313   5.850  0.8521 -0.1775  0.0288
 8798SOL    HW234958   4.859   0.314   5.935  0.2472 -1.4112 -0.2378
 8798SOL    HW334959   4.843   0.362   5.793  0.9740  0.1514  0.1797
 8798SOL    MW434960   4.889   0.320   5.854  0.1671 -0.0407  0.1751
 8799SOL     OW34961   4.914   2.921   0.756 -0.3423 -0.4125 -0.1280
 8799SOL    HW234962   4.932   2.830   0.732  1.1774 -0.0760 -0.3594
 8799SOL    HW334963   4.995   2.951   0.797 -0.7186  0.9354 -0.3409
 8799SOL    MW434964   4.927   2.913   0.758 -0.3005  0.2484 -0.5639
 8800SOL     OW34965   3.838   5.788   2.872  0.1818  0.2882 -0.2921
 8800SOL    HW234966   3.837   5.882   2.886  0.1434  0.2036  0.3375
 8800SOL    HW334967   3.754   5.758   2.908  0.2269  0.0058 -0.4163
 8800SOL    MW434968   3.826   5.796   2.879 -0.0697 -0.2575 -0.0100
 8801SOL     OW34969   0.334   3.539   0.929  0.2942 -0.2657  0.1138
 8801SOL    HW234970   0.279   3.483   0.875 -0.3254  2.1478 -1.9488
 8801SOL    HW334971   0.312   3.515   1.019 -2.6447 -0.8121 -0.6435
 8801SOL    MW434972   0.324   3.529   0.934 -0.3177 -0.4319  0.1153
 8802SOL     OW34973   1.286   4.368   2.957 -0.1240 -0.5765 -0.1338
 8802SOL    HW234974   1.335   4.379   3.039 -2.1091  0.1793  1.0211
 8802SOL    HW334975   1.354   4.370   2.889  1.4732  0.1917  1.3801
 8802SOL    MW434976   1.302   4.370   2.959  0.4382 -0.0087 -0.4874
 8803SOL     OW34977   0.310   1.533   1.982  0.0898  0.1647 -0.1645
 8803SOL    HW234978   0.279   1.450   2.017 -0.2743  0.6099  0.5829
 8803SOL    HW334979   0.237   1.594   1.994  0.6453  0.7983  0.0579
 8803SOL    MW434980   0.297   1.530   1.988 -0.0383  0.1300 -0.0195
 8804SOL     OW34981   6.182   3.481   5.759  0.3115  0.6350  0.1917
 8804SOL    HW234982   6.236   3.449   5.831  1.5370  1.3504 -0.3699
 8804SOL    HW334983   6.187   3.577   5.767 -0.2294  0.7103 -0.3320
 8804SOL    MW434984   6.190   3.490   5.769 -0.6722 -0.2999  0.0855
 8805SOL     OW34985   1.554   1.306   4.499  0.2934 -0.1038  0.2885
 8805SOL    HW234986   1.506   1.362   4.438  0.6279  1.4933  1.4161
 8805SOL    HW334987   1.631   1.276   4.449  0.7872  1.5176  0.0118
 8805SOL    MW434988   1.558   1.309   4.484 -0.2042  0.6932 -0.1969
 8806SOL     OW34989   2.375   3.425   5.770 -0.1818 -0.4023 -0.1829
 8806SOL    HW234990   2.309   3.492   5.752 -1.1445 -1.5774 -1.1785
 8806SOL    HW334991   2.455   3.459   5.728 -0.8027 -0.1312 -1.2009
 8806SOL    MW434992   2.377   3.439   5.762 -0.0896 -0.0754 -0.3905
 8807SOL     OW34993   3.060   1.230   5.431  0.2885  0.1315 -0.4067
 8807SOL    HW234994   3.096   1.270   5.511  0.8045 -0.2534 -0.4413
 8807SOL    HW334995   3.041   1.304   5.374 -0.4800  0.4429  0.2297
 8807SOL    MW434996   3.063   1.245   5.434  0.3966  0.8181  1.0006
 8808SOL     OW34997   5.119   1.001   4.337 -0.1332 -0.4171  0.7734
 8808SOL    HW234998   5.049   1.061   4.363 -0.5193 -0.5767  0.1213
 8808SOL    HW334999   5.076   0.915   4.333 -0.0853 -0.3984 -0.3552
 8808SOL    MW435000   5.104   0.998   4.340 -0.5265 -0.0453  0.0478
 8809SOL     OW35001   2.392   1.982   4.285 -0.1474 -0.0362  0.0364
 8809SOL    HW235002   2.462   1.916   4.289  0.6291  0.8359  1.2188
 8809SOL    HW335003   2.338   1.964   4.362  0.5019  1.1595  0.7954
 8809SOL    MW435004   2.394   1.971   4.296 -0.0823  0.2356 -0.0938
 8810SOL     OW35005   0.407   5.310   1.471  0.4612 -0.3431  0.3391
 8810SOL    HW235006   0.344   5.307   1.543 -0.3373  0.0038 -0.3318
 8810SOL    HW335007   0.449   5.224   1.473  0.4005 -0.3664  1.1689
 8810SOL    MW435008   0.404   5.298   1.481 -0.1715 -0.1668 -0.0027
 8811SOL     OW35009   2.150   6.282   6.120  0.5064  0.1556 -0.5342
 8811SOL    HW235010   2.137   6.189   6.140  0.2375  0.1694 -0.6337
 8811SOL    HW335011   2.119   6.291   6.029  1.0324  0.2360 -0.7109
 8811SOL    MW435012   2.144   6.271   6.110 -0.2433  0.1957 -0.3862
 8812SOL     OW35013   5.461   2.646   0.520  0.1244 -0.0205  0.0097
 8812SOL    HW235014   5.393   2.661   0.586  0.2306 -1.1201  0.3902
 8812SOL    HW335015   5.538   2.690   0.555 -0.2955  0.9368 -0.2560
 8812SOL    MW435016   5.462   2.654   0.534 -0.3112  0.2163  0.4911
 8813SOL     OW35017   1.826   6.324   0.725 -1.0771  0.2015  0.0651
 8813SOL    HW235018   1.750   6.272   0.751 -0.8688  0.4398  1.1773
 8813SOL    HW335019   1.832   6.311   0.630 -0.4181 -2.6153  0.4141
 8813SOL    MW435020   1.817   6.315   0.716 -0.3396  0.0545  0.3825
 8814SOL     OW35021   2.212   5.968   0.759 -0.2698 -0.0034 -0.2310
 8814SOL    HW235022   2.147   5.899   0.743 -1.2128  0.7037  0.4259
 8814SOL    HW335023   2.160   6.049   0.763  0.7743  0.7133 -0.6677
 8814SOL    MW435024   2.196   5.970   0.757 -0.0257  0.1552  0.0045
 8815SOL     OW35025   4.266   0.130   0.132 -0.5681 -0.1286  0.1963
 8815SOL    HW235026   4.253   0.209   0.079  0.7404 -1.7584 -2.8565
 8815SOL    HW335027   4.182   0.116   0.175 -2.2904  0.6374 -2.6343
 8815SOL    MW435028   4.253   0.139   0.131 -0.2625  0.5248  0.3482
 8816SOL     OW35029   4.592   1.440   3.737  0.2151  0.0542  0.6171
 8816SOL    HW235030   4.682   1.440   3.704  0.1856  0.0219  0.5364
 8816SOL    HW335031   4.578   1.351   3.767 -1.0391 -1.0708 -2.7979
 8816SOL    MW435032   4.602   1.429   3.737 -0.3703 -0.5301  0.2217
 8817SOL     OW35033   5.182   5.485   0.571  1.0048  0.4770  0.0407
 8817SOL    HW235034   5.225   5.571   0.570 -2.7402  2.5582 -0.4356
 8817SOL    HW335035   5.115   5.492   0.638 -0.1238 -1.7214 -0.7421
 8817SOL    MW435036   5.179   5.497   0.579  0.2143  0.4535  0.2961
 8818SOL     OW35037   4.785   4.723   2.196 -0.1521 -0.5748 -0.8994
 8818SOL    HW235038   4.720   4.652   2.188  0.0731 -0.7031 -1.6443
 8818SOL    HW335039   4.820   4.713   2.285 -2.4147  0.5949  0.2125
 8818SOL    MW435040   4.781   4.712   2.207  0.1346  0.0776  0.1145
 8819SOL     OW35041   6.248   0.323   1.775 -0.0104 -0.5663 -0.4131
 8819SOL    HW235042   6.243   0.230   1.797 -0.5266 -0.4959 -0.1961
 8819SOL    HW335043   6.318   0.329   1.710 -1.0183 -1.3391 -1.6226
 8819SOL    MW435044   6.256   0.311   1.769 -0.3291  0.0990 -0.1464
 8820SOL     OW35045   3.260   3.008   0.683 -0.0023 -0.1735 -0.1207
 8820SOL    HW235046   3.210   2.934   0.717  0.4689 -0.6923 -0.5415
 8820SOL    HW335047   3.218   3.085   0.722  0.2851 -0.7174  1.3231
 8820SOL    MW435048   3.248   3.008   0.693 -0.0834 -0.5496  0.2808
 8821SOL     OW35049   1.861   5.972   6.282 -0.3375  0.4663  0.2163
 8821SOL    HW235050   1.801   5.958   6.209 -1.5918  1.6270  0.9839
 8821SOL    HW335051   1.834   6.055   6.320  0.5779  0.1153  1.7294
 8821SOL    MW435052   1.850   5.981   6.277  0.2253  0.0828  0.4356
 8822SOL     OW35053   6.233   2.422   2.308 -0.1309 -0.4140 -0.1997
 8822SOL    HW235054   6.277   2.363   2.369  0.6845  0.8079  0.4175
 8822SOL    HW335055   6.140   2.402   2.320  0.1524 -2.5650 -1.0510
 8822SOL    MW435056   6.226   2.412   2.317 -0.2248 -0.4002  0.2502
 8823SOL     OW35057   1.329   5.342   1.999 -0.6205  0.5973  0.6029
 8823SOL    HW235058   1.332   5.247   1.998  1.2218  0.6283  0.0864
 8823SOL    HW335059   1.412   5.369   2.037 -1.7133  2.0223  2.1181
 8823SOL    MW435060   1.340   5.333   2.004  0.2391 -0.1516 -0.6186
 8824SOL     OW35061   6.050   0.790   3.685  0.2205  0.6283 -0.2014
 8824SOL    HW235062   5.986   0.729   3.649  2.8905 -1.1945 -2.1555
 8824SOL    HW335063   6.050   0.772   3.779 -0.0011 -1.4926 -0.5673
 8824SOL    MW435064   6.042   0.780   3.693  0.4471 -0.1159 -0.6937
 8825SOL     OW35065   2.477   3.976   1.856  0.4444  0.0422 -0.1424
 8825SOL    HW235066   2.424   3.986   1.776  1.2571 -0.2607 -0.7300
 8825SOL    HW335067   2.446   3.893   1.894 -0.6346  0.6693  0.4074
 8825SOL    MW435068   2.466   3.966   1.850  0.2332 -0.2035 -0.5214
 8826SOL     OW35069   2.824   2.976   4.897 -0.4173 -0.3744 -0.1833
 8826SOL    HW235070   2.862   2.932   4.821 -0.0722  0.3770 -0.4590
 8826SOL    HW335071   2.737   2.938   4.906 -0.8397  0.2007 -1.5645
 8826SOL    MW435072   2.817   2.965   4.888 -0.7098  0.8442  0.7561
 8827SOL     OW35073   3.488   0.895   0.647 -0.2272 -0.4952  0.0618
 8827SOL    HW235074   3.566   0.944   0.619 -0.8630 -0.3425 -1.5690
 8827SOL    HW335075   3.516   0.848   0.725  1.1241  0.5590  0.2474
 8827SOL    MW435076   3.502   0.895   0.653 -0.6152 -0.3059 -0.0540
 8828SOL     OW35077   4.119   1.214   2.473 -0.0200 -0.2372  0.4889
 8828SOL    HW235078   4.141   1.123   2.450  1.0214 -0.2824  1.5746
 8828SOL    HW335079   4.030   1.226   2.440 -1.6563 -2.8517  3.4301
 8828SOL    MW435080   4.110   1.203   2.465 -0.0204 -0.3801 -0.1913
 8829SOL     OW35081   4.763   5.964   0.460  0.5582 -0.0435 -0.7533
 8829SOL    HW235082   4.755   5.997   0.549 -1.6529 -2.1644 -0.0908
 8829SOL    HW335083   4.858   5.960   0.445  0.9598  2.2050  0.7172
 8829SOL    MW435084   4.775   5.968   0.470 -0.1098 -0.0115  0.6226
 8830SOL     OW35085   0.908   1.460   0.228  0.2407 -0.2020  0.5115
 8830SOL    HW235086   0.983   1.503   0.186  0.9593 -1.7772  0.1170
 8830SOL    HW335087   0.835   1.519   0.209  0.4457 -0.8929 -3.3015
 8830SOL    MW435088   0.908   1.474   0.220  0.3570 -0.8013 -0.1581
 8831SOL     OW35089   0.999   5.234   4.956 -0.0974  1.0261  0.2522
 8831SOL    HW235090   1.008   5.203   4.865  1.1398  0.7887  0.4317
 8831SOL    HW335091   1.018   5.327   4.952  2.0638  0.6613  0.5179
 8831SOL    MW435092   1.003   5.242   4.943  0.1688 -0.2220 -0.0500
 8832SOL     OW35093   5.032   2.108   2.737  0.3276 -0.3714 -0.1199
 8832SOL    HW235094   4.976   2.094   2.660 -1.5675  0.9470  0.9496
 8832SOL    HW335095   5.039   2.203   2.745  0.6287 -0.4886  1.2567
 8832SOL    MW435096   5.026   2.119   2.728 -0.0645 -0.1301  0.2752
 8833SOL     OW35097   3.821   2.380   2.619  0.4279 -0.1878  0.4486
 8833SOL    HW235098   3.789   2.294   2.592 -3.6177  1.8020 -2.1496
 8833SOL    HW335099   3.907   2.388   2.578 -0.8626 -1.5643 -2.9061
 8833SOL    MW435100   3.828   2.370   2.610  0.0773  0.9391 -0.4662
 8834SOL     OW35101   3.741   2.643   3.129 -1.0581 -0.1932 -0.5439
 8834SOL    HW235102   3.823   2.690   3.146 -1.0025  0.3026 -2.0427
 8834SOL    HW335103   3.765   2.577   3.063 -1.7216 -0.4963 -0.4842
 8834SOL    MW435104   3.755   2.641   3.122 -0.0630  0.2830  0.0886
 8835SOL     OW35105   2.772   2.158   5.191  0.1306 -0.3514 -0.3244
 8835SOL    HW235106   2.716   2.225   5.231 -0.9105 -1.1852 -0.3342
 8835SOL    HW335107   2.861   2.193   5.199 -0.4036  1.1324 -0.5431
 8835SOL    MW435108   2.776   2.171   5.198  0.2023 -0.4854  0.5179
 8836SOL     OW35109   2.428   5.026   0.209 -0.5407  0.4803  0.3485
 8836SOL    HW235110   2.384   5.061   0.132 -1.1603  0.0420  0.4921
 8836SOL    HW335111   2.365   4.963   0.246  0.3146 -0.3722  0.3963
 8836SOL    MW435112   2.414   5.022   0.204  0.5658  0.3470  0.0215
 8837SOL     OW35113   6.146   1.612   5.402 -0.3116 -0.1159  0.0031
 8837SOL    HW235114   6.107   1.696   5.425  0.3183 -0.1342  1.1717
 8837SOL    HW335115   6.239   1.631   5.394 -0.3683 -0.3295 -1.5879
 8837SOL    MW435116   6.153   1.626   5.404 -0.0805  0.2683 -0.1406
 8838SOL     OW35117   0.729   4.862   6.417 -0.0350 -0.5754  0.4150
 8838SOL    HW235118   0.664   4.931   6.412  1.4155  0.8491  0.3004
 8838SOL    HW335119   0.799   4.890   6.358  1.4658 -1.1727  1.8302
 8838SOL    MW435120   0.730   4.875   6.408 -0.7822 -0.0032  0.1216
 8839SOL     OW35121   3.593   0.422   1.538 -0.2497 -0.1505 -0.4061
 8839SOL    HW235122   3.668   0.377   1.577 -1.6634 -2.4205 -0.1186
 8839SOL    HW335123   3.617   0.434   1.446  0.3807 -1.0634 -0.3746
 8839SOL    MW435124   3.606   0.418   1.531 -0.3824  0.2092 -0.2302
 8840SOL     OW35125   4.709   4.634   3.138 -0.4215  0.1450  0.7286
 8840SOL    HW235126   4.728   4.657   3.048  1.0243  1.2354  1.2827
 8840SOL    HW335127   4.759   4.554   3.154 -1.4368 -0.5943  0.3055
 8840SOL    MW435128   4.718   4.626   3.129 -0.4591  0.1058 -0.4906
 8841SOL     OW35129   1.203   4.712   1.746 -0.1917  0.2441 -0.0621
 8841SOL    HW235130   1.268   4.715   1.676  1.8449  0.4643  1.7301
 8841SOL    HW335131   1.122   4.740   1.704  1.4229  2.7793 -1.8196
 8841SOL    MW435132   1.201   4.716   1.731  0.4297  0.3984  0.1115
 8842SOL     OW35133   3.575   3.468   1.989  0.7643 -0.1272  0.0347
 8842SOL    HW235134   3.545   3.423   1.909  2.0458 -0.0443 -0.5220
 8842SOL    HW335135   3.537   3.556   1.982 -0.9592 -0.7921  0.6457
 8842SOL    MW435136   3.566   3.474   1.977  0.0710 -0.0709  0.1427
 8843SOL     OW35137   2.661   3.389   2.215 -0.4893  0.1181  0.6162
 8843SOL    HW235138   2.606   3.336   2.157 -1.6547  0.0720  1.7224
 8843SOL    HW335139   2.672   3.334   2.293 -2.0607  1.5857  1.9652
 8843SOL    MW435140   2.655   3.375   2.218  0.3663 -0.0082  0.2483
 8844SOL     OW35141   4.757   0.604   2.643  0.2372  0.6926  0.1672
 8844SOL    HW235142   4.721   0.532   2.695 -0.5702  0.6647 -0.3975
 8844SOL    HW335143   4.831   0.636   2.693 -0.7813  0.9621  1.5615
 8844SOL    MW435144   4.762   0.599   2.656 -0.3699  0.3589  0.4934
 8845SOL     OW35145   5.167   4.839   5.095  0.3828 -0.1525 -0.2152
 8845SOL    HW235146   5.227   4.796   5.156  0.0881  0.0746  0.2406
 8845SOL    HW335147   5.088   4.855   5.146  0.5867  1.1908 -0.2629
 8845SOL    MW435148   5.164   4.836   5.110  0.2672 -0.2315 -0.3841
 8846SOL     OW35149   4.080   0.358   4.015  0.2476 -0.5902  0.5517
 8846SOL    HW235150   4.141   0.416   3.970  1.2166 -2.3854 -0.5952
 8846SOL    HW335151   4.009   0.346   3.951 -0.1125 -0.4055  0.9167
 8846SOL    MW435152   4.078   0.364   4.000  0.9063  0.1626 -0.2581
 8847SOL     OW35153   5.850   2.521   0.713  0.0656 -0.3674  0.8784
 8847SOL    HW235154   5.799   2.441   0.727 -0.9771  0.0012 -0.5331
 8847SOL    HW335155   5.784   2.589   0.699  0.8966  0.1487 -0.8934
 8847SOL    MW435156   5.834   2.519   0.713 -0.0124  0.1617 -0.3725
 8848SOL     OW35157   4.449   1.039   5.596 -0.3890  0.5588 -0.3221
 8848SOL    HW235158   4.369   1.031   5.649  0.1227 -1.6159  0.2292
 8848SOL    HW335159   4.449   0.960   5.542  1.3457  0.5557 -0.3640
 8848SOL    MW435160   4.438   1.027   5.596 -0.0254  0.0302 -0.5613
 8849SOL     OW35161   4.520   2.752   1.782  0.3454 -0.5393 -0.3960
 8849SOL    HW235162   4.549   2.725   1.869  0.4532  0.0411 -0.2444
 8849SOL    HW335163   4.495   2.844   1.793  1.5046 -0.0935 -1.2396
 8849SOL    MW435164   4.520   2.761   1.795 -0.8559  0.4231 -0.3904
 8850SOL     OW35165   4.043   3.126   6.179 -0.3012  0.0631 -0.9047
 8850SOL    HW235166   4.107   3.056   6.191  1.0000  1.1698 -1.1324
 8850SOL    HW335167   4.040   3.141   6.085  0.9862  1.6418 -0.7476
 8850SOL    MW435168   4.051   3.119   6.168 -0.2715 -0.1364  0.3055
 8851SOL     OW35169   3.845   3.909   0.869 -0.4531  0.6156  0.0926
 8851SOL    HW235170   3.849   4.004   0.873 -0.2595  0.5838  0.6329
 8851SOL    HW335171   3.843   3.880   0.960  1.8550 -0.0019  0.0182
 8851SOL    MW435172   3.845   3.917   0.881  0.2663  0.7388  0.1263
 8852SOL     OW35173   4.510   5.858   2.576  0.0298  0.5186  0.0015
 8852SOL    HW235174   4.554   5.906   2.647  0.2850 -2.0277  1.7158
 8852SOL    HW335175   4.504   5.768   2.609 -1.8380 -0.3156 -2.3611
 8852SOL    MW435176   4.515   5.852   2.590  0.3343  0.2724 -0.6622
 8853SOL     OW35177   5.894   5.101   6.250  0.2992 -0.0706 -0.3264
 8853SOL    HW235178   5.947   5.179   6.234 -0.6844  0.5048 -0.8954
 8853SOL    HW335179   5.842   5.123   6.328 -0.5668  0.1771 -0.9555
 8853SOL    MW435180   5.894   5.114   6.258 -0.5216  0.1331  0.2652
 8854SOL     OW35181   3.582   5.350   5.562 -0.1015 -0.3537  0.6735
 8854SOL    HW235182   3.501   5.328   5.607  0.0772 -2.9476 -0.1038
 8854SOL    HW335183   3.648   5.293   5.604  1.2564  1.3815  0.9999
 8854SOL    MW435184   3.580   5.339   5.574 -0.7697 -0.1639  0.2864
 8855SOL     OW35185   2.780   0.554   4.715 -0.0317 -0.1843 -0.7614
 8855SOL    HW235186   2.843   0.538   4.786  1.4670  0.1645 -1.9630
 8855SOL    HW335187   2.707   0.598   4.758  0.3074 -1.0338  0.7722
 8855SOL    MW435188   2.779   0.557   4.730 -0.3968  0.4223  0.0876
 8856SOL     OW35189   6.014   5.309   3.359  0.1379 -0.3299 -0.8621
 8856SOL    HW235190   5.969   5.228   3.383 -0.0703  0.3254  1.1037
 8856SOL    HW335191   5.967   5.340   3.282 -1.2660 -0.9001 -0.2699
 8856SOL    MW435192   6.002   5.302   3.352  0.2967  0.0870  0.4867
 8857SOL     OW35193   0.628   2.701   3.066  0.6076 -0.1677 -0.8387
 8857SOL    HW235194   0.653   2.761   3.136 -0.7411 -0.1951 -0.3076
 8857SOL    HW335195   0.625   2.755   2.988 -0.2975  0.3944 -0.4227
 8857SOL    MW435196   0.631   2.716   3.065  0.4044  0.5293 -0.1985
 8858SOL     OW35197   0.031   2.271   0.152  0.1431  0.2845  0.8581
 8858SOL    HW235198  -0.009   2.195   0.110  1.0548  1.0729 -1.5737
 8858SOL    HW335199  -0.042   2.319   0.191 -0.8276 -0.2457 -0.2577
 8858SOL    MW435200   0.016   2.267   0.152 -0.4846 -0.3804 -0.5235
 8859SOL     OW35201   6.156   3.230   4.042 -0.5307 -0.5483 -0.2694
 8859SOL    HW235202   6.095   3.300   4.065 -0.1296  0.5248 -2.2472
 8859SOL    HW335203   6.240   3.275   4.028 -0.2016 -1.4327 -1.3090
 8859SOL    MW435204   6.159   3.245   4.043 -1.1294 -0.4129  0.2006
 8860SOL     OW35205   4.922   1.497   4.673  0.3195  0.2156  0.1898
 8860SOL    HW235206   4.920   1.510   4.579  0.5227 -1.6468 -0.1048
 8860SOL    HW335207   4.849   1.438   4.691  0.4285  0.3580  1.1583
 8860SOL    MW435208   4.912   1.491   4.663 -0.2396  0.0303  0.4859
 8861SOL     OW35209   1.377   2.316   1.353 -0.4300  0.3911  0.0334
 8861SOL    HW235210   1.396   2.406   1.327 -2.1143  0.3205 -1.6286
 8861SOL    HW335211   1.433   2.301   1.429  1.7705  1.9973 -1.1387
 8861SOL    MW435212   1.387   2.326   1.359  0.1100  0.7857  0.3499
 8862SOL     OW35213   2.338   4.368   0.161 -0.3093 -0.5818  0.2091
 8862SOL    HW235214   2.389   4.383   0.241  1.2915  0.4800 -0.9269
 8862SOL    HW335215   2.260   4.421   0.173 -1.1133 -2.0417  1.8950
 8862SOL    MW435216   2.335   4.377   0.173 -0.3769  0.4709  0.1308
 8863SOL     OW35217   6.021   0.924   4.958  0.0815  0.7548  0.2758
 8863SOL    HW235218   6.096   0.936   4.900 -1.3320 -1.1800 -2.1574
 8863SOL    HW335219   5.945   0.928   4.901 -1.3772 -2.0978  1.7584
 8863SOL    MW435220   6.021   0.926   4.943  0.2048 -0.1443 -0.0118
 8864SOL     OW35221   5.830   6.196   4.660 -0.2242 -0.0584  0.5146
 8864SOL    HW235222   5.896   6.184   4.728  0.2761 -1.2395 -0.1474
 8864SOL    HW335223   5.777   6.270   4.691 -0.4769 -1.0205  2.5297
 8864SOL    MW435224   5.832   6.205   4.673  0.0298 -0.2278  0.5384
 8865SOL     OW35225   2.661   2.928   2.768  0.2109 -0.4002  0.4247
 8865SOL    HW235226   2.659   3.009   2.718 -1.9204  0.4476  1.7386
 8865SOL    HW335227   2.752   2.899   2.763  0.8385  1.5829 -0.8281
 8865SOL    MW435228   2.673   2.935   2.761 -0.2106 -0.1273 -0.1254
 8866SOL     OW35229   6.170   1.113   5.431  0.0787  0.1614 -0.7020
 8866SOL    HW235230   6.156   1.078   5.344 -1.3972  0.0199 -0.4235
 8866SOL    HW335231   6.112   1.189   5.437  1.3483  1.1514 -0.3897
 8866SOL    MW435232   6.161   1.119   5.421 -0.5858 -0.0500  0.1650
 8867SOL     OW35233   1.002   4.735   1.553  0.0451 -0.3447  0.1287
 8867SOL    HW235234   0.954   4.798   1.499  1.4067  0.3840 -0.2747
 8867SOL    HW335235   1.045   4.677   1.490  1.1700  0.1569  0.4028
 8867SOL    MW435236   1.001   4.736   1.538 -0.2149 -0.3523  0.7252
 8868SOL     OW35237   1.804   4.190   6.028  0.8154 -0.4240  0.4320
 8868SOL    HW235238   1.894   4.162   6.047  1.2519  1.3222  1.2598
 8868SOL    HW335239   1.810   4.236   5.944  0.6456 -0.5714  0.3401
 8868SOL    MW435240   1.817   4.193   6.020  0.0770  0.1533  0.0237
 8869SOL     OW35241   5.880   0.661   5.426  0.3011 -0.0885  0.1107
 8869SOL    HW235242   5.884   0.748   5.467  1.2942  0.2212 -0.6218
 8869SOL    HW335243   5.878   0.601   5.500  0.6422  0.5196  0.6297
 8869SOL    MW435244   5.880   0.665   5.441  0.0135 -0.0976  0.1635
 8870SOL     OW35245   4.321   5.302   6.291 -0.0124 -0.0855 -0.1560
 8870SOL    HW235246   4.275   5.226   6.325  1.0043 -1.3472 -1.4763
 8870SOL    HW335247   4.405   5.267   6.260  0.5644  1.6101 -0.6186
 8870SOL    MW435248   4.326   5.287   6.291 -0.4908  0.1502  0.3628
 8871SOL     OW35249   2.458   4.237   3.840  0.2350 -0.1796 -0.4716
 8871SOL    HW235250   2.472   4.143   3.826 -0.8661 -0.3422 -0.5754
 8871SOL    HW335251   2.367   4.244   3.868  0.6315  0.7607  0.6664
 8871SOL    MW435252   2.448   4.225   3.842 -0.2508  0.3100 -0.5970
 8872SOL     OW35253   3.752   0.790   6.395 -0.2955  0.7948  0.1496
 8872SOL    HW235254   3.782   0.881   6.389 -0.0986  0.8476  1.5198
 8872SOL    HW335255   3.786   0.759   6.479 -2.1584  0.1501  0.7279
 8872SOL    MW435256   3.760   0.798   6.405  0.2256  0.5395 -0.4253
 8873SOL     OW35257   6.332   5.782   6.007  0.3194 -0.1264  0.4462
 8873SOL    HW235258   6.405   5.723   5.985  0.0434 -0.5699  0.7151
 8873SOL    HW335259   6.266   5.764   5.940  1.4261  2.1449 -1.4591
 8873SOL    MW435260   6.333   5.772   5.995 -0.0703  0.0329 -0.2725
 8874SOL     OW35261   2.395   0.923   3.567 -0.5066  0.0271  0.1726
 8874SOL    HW235262   2.333   0.884   3.506  0.9474 -1.3966 -0.4545
 8874SOL    HW335263   2.390   0.869   3.646 -0.3817  0.1801  0.2882
 8874SOL    MW435264   2.387   0.911   3.570 -0.0907 -0.3633 -0.0012
 8875SOL     OW35265   5.711   3.272   4.548  0.7327 -0.0041  0.1957
 8875SOL    HW235266   5.681   3.181   4.558 -1.6460  0.5720 -0.9657
 8875SOL    HW335267   5.655   3.308   4.479  2.7846  1.8735 -0.5868
 8875SOL    MW435268   5.699   3.265   4.540  0.0495 -0.4337  0.7996
 8876SOL     OW35269   3.545   4.272   4.035  0.4273  0.2448 -0.0927
 8876SOL    HW235270   3.633   4.262   3.998 -0.6410  1.9125 -3.4844
 8876SOL    HW335271   3.495   4.201   3.995 -0.1297  0.2426  0.6009
 8876SOL    MW435272   3.550   4.261   4.025  0.5462  0.5191  0.4798
 8877SOL     OW35273   0.740   3.623   0.272  0.6477 -0.0072  0.0329
 8877SOL    HW235274   0.728   3.629   0.367  2.0256  0.8539  0.1737
 8877SOL    HW335275   0.696   3.542   0.248 -1.2068  0.6052  1.1497
 8877SOL    MW435276   0.733   3.613   0.281  0.2628 -0.4955 -0.1725
 8878SOL     OW35277   2.669   4.999   5.184 -0.5401  0.6406 -0.0884
 8878SOL    HW235278   2.641   5.039   5.267  0.0112  1.4978 -0.3015
 8878SOL    HW335279   2.587   4.980   5.138 -0.8334  0.8915  0.3156
 8878SOL    MW435280   2.654   5.002   5.189 -0.5867  0.4635  0.1074
 8879SOL     OW35281   2.381   2.677   4.620  0.0956 -0.3515  0.1101
 8879SOL    HW235282   2.367   2.635   4.705  1.0958 -1.3273 -0.1922
 8879SOL    HW335283   2.417   2.608   4.564  0.6142  0.5884 -0.7545
 8879SOL    MW435284   2.384   2.663   4.624  0.3669 -0.6087  0.1029
 8880SOL     OW35285   5.312   5.852   1.032  0.9085 -0.2412  0.2706
 8880SOL    HW235286   5.259   5.775   1.008  1.1940 -0.7996  1.3812
 8880SOL    HW335287   5.394   5.840   0.984  1.0149 -0.7226  0.5612
 8880SOL    MW435288   5.316   5.840   1.022 -0.0910 -0.2362  0.3280
 8881SOL     OW35289   0.708   1.329   4.784 -0.5254 -0.1623  0.2118
 8881SOL    HW235290   0.674   1.313   4.696  0.4238 -0.0206 -0.1915
 8881SOL    HW335291   0.803   1.323   4.775 -0.4031  0.0457  1.1908
 8881SOL    MW435292   0.716   1.326   4.771  0.0828  0.1682  0.0062
 8882SOL     OW35293   3.562   6.137   2.026 -0.0162  0.2401 -0.0685
 8882SOL    HW235294   3.565   6.204   2.095 -1.2394  0.7738 -0.5090
 8882SOL    HW335295   3.560   6.187   1.945 -2.4983 -0.2198 -0.3744
 8882SOL    MW435296   3.562   6.153   2.025 -0.1187 -0.2979 -0.5398
 8883SOL     OW35297   1.266   3.930   3.226 -0.1066  1.2697  0.3431
 8883SOL    HW235298   1.225   3.939   3.312 -0.6920  0.0380  0.2118
 8883SOL    HW335299   1.202   3.882   3.173  1.6639 -1.2036  0.2759
 8883SOL    MW435300   1.252   3.925   3.230  0.4432  0.3118  0.1287
 8884SOL     OW35301   3.566   3.391   3.616 -0.8494  0.2867  0.4468
 8884SOL    HW235302   3.661   3.391   3.620 -0.7038  3.3444 -0.5612
 8884SOL    HW335303   3.541   3.300   3.629  2.1970 -0.6073  0.6461
 8884SOL    MW435304   3.575   3.379   3.618  0.1361 -0.7260  0.4687
 8885SOL     OW35305   0.784   1.009   4.987  0.1561 -0.4327 -0.5702
 8885SOL    HW235306   0.809   0.980   5.075  0.9050  2.8816  0.4577
 8885SOL    HW335307   0.856   0.980   4.931  1.2654  0.1143  0.5232
 8885SOL    MW435308   0.797   1.001   4.991 -0.4713  0.1889  0.4691
 8886NA      NA35309   0.086   2.426   3.791 -0.1483  0.2673 -0.0754
 8887NA      NA35310   5.091   4.010   5.698  0.4595  0.2513 -0.0661
 8888NA      NA35311   2.064   2.073   3.457  0.4776 -0.1613  0.2558
 8889NA      NA35312   5.330   5.521   4.766  0.3814 -0.0319  0.7061
 8890NA      NA35313   6.065   6.234   5.430 -0.2326  0.0021 -0.2031
 8891NA      NA35314   5.870   2.603   2.494 -0.3677  0.0947 -0.0766
 8892NA      NA35315   4.491   6.041   1.286 -0.0326 -0.3266  0.2633
   6.42900   6.42900   6.42900
