A-SYNC WITH FASUDIL
35315
  121NASP     N    1   2.545   5.021   1.920  0.1328 -0.4783  0.1493
  121NASP    H1    2   2.584   5.108   1.954  0.2898 -0.2433 -0.6124
  121NASP    H2    3   2.477   5.041   1.848 -0.1110  0.2552  0.5730
  121NASP    H3    4   2.625   4.974   1.881  0.5810 -0.7241  1.3150
  121NASP    CA    5   2.491   4.943   2.035  0.0617 -0.9334 -0.2157
  121NASP    HA    6   2.561   4.954   2.118  0.8739  2.7669 -1.1911
  121NASP    CB    7   2.353   5.010   2.084  0.1150  0.2543 -0.3260
  121NASP   HB1    8   2.317   4.967   2.178 -0.6440  1.7071  0.0669
  121NASP   HB2    9   2.276   4.992   2.009 -1.6212  0.7751  1.2714
  121NASP    CG   10   2.367   5.158   2.125  0.7454  0.0038 -0.0664
  121NASP   OD1   11   2.269   5.219   2.168  0.9606 -0.3964 -0.0914
  121NASP   OD2   12   2.477   5.212   2.113  0.4306  0.0947 -0.0172
  121NASP     C   13   2.479   4.796   2.007  1.1834  1.1434 -0.0997
  121NASP     O   14   2.384   4.759   1.937 -0.1182  0.0920 -0.4539
  122ASN      N   15   2.556   4.703   2.063 -0.5780 -0.5221 -0.1108
  122ASN      H   16   2.628   4.741   2.122 -1.9595 -1.5309  2.3487
  122ASN     CA   17   2.550   4.559   2.026 -0.2828  0.3182 -0.7219
  122ASN     HA   18   2.544   4.556   1.917  0.5568  0.3669 -0.7783
  122ASN     CB   19   2.671   4.485   2.080 -0.1552 -0.1775  0.4548
  122ASN    HB1   20   2.670   4.378   2.056 -1.4714 -0.3266  1.0571
  122ASN    HB2   21   2.680   4.510   2.185  3.3056  1.3091 -0.0621
  122ASN     CG   22   2.797   4.537   2.010  0.2807 -0.6813  0.3121
  122ASN    OD1   23   2.805   4.554   1.886  0.0223 -0.2825  0.7249
  122ASN    ND2   24   2.890   4.576   2.091 -0.4464 -0.1045  0.4256
  122ASN   HD21   25   2.980   4.606   2.055 -0.6215 -0.2321 -0.1260
  122ASN   HD22   26   2.878   4.571   2.191  2.1028  1.6278  0.9309
  122ASN      C   27   2.423   4.492   2.083  0.6435 -0.1056  0.5779
  122ASN      O   28   2.374   4.525   2.187 -0.2317 -0.0100 -0.1680
  123GLU      N   29   2.374   4.389   2.016  0.2706 -0.1894 -0.2287
  123GLU      H   30   2.434   4.346   1.947  1.2478 -0.7966  0.9697
  123GLU     CA   31   2.258   4.307   2.068  0.2641 -0.2146  0.1644
  123GLU     HA   32   2.229   4.335   2.169  3.3793 -2.9677  2.0047
  123GLU     CB   33   2.142   4.317   1.969  0.2903  0.4840  0.0862
  123GLU    HB1   34   2.073   4.235   1.990  1.8200 -0.8547  0.1013
  123GLU    HB2   35   2.181   4.299   1.869 -1.0610  0.6089 -0.4828
  123GLU     CG   36   2.076   4.458   1.968  0.0176 -0.4395 -0.4558
  123GLU    HG1   37   2.144   4.541   1.949 -0.1799  0.3552  1.9742
  123GLU    HG2   38   2.035   4.476   2.067 -1.1337 -0.6155 -0.8784
  123GLU     CD   39   1.959   4.476   1.870 -0.3198  0.4127 -0.7769
  123GLU    OE1   40   1.880   4.564   1.897 -0.2153 -0.7941 -0.6173
  123GLU    OE2   41   1.945   4.408   1.769 -0.6918  0.0684  0.3664
  123GLU      C   42   2.286   4.160   2.090 -0.5688 -0.1220  0.1992
  123GLU      O   43   2.216   4.089   2.162 -0.0237 -0.1360 -0.2293
  124ALA      N   44   2.390   4.104   2.027  0.3949 -0.4046 -0.2573
  124ALA      H   45   2.435   4.157   1.954  0.9720 -1.2386 -0.5280
  124ALA     CA   46   2.444   3.969   2.045 -0.4256 -0.2276  0.1596
  124ALA     HA   47   2.380   3.894   1.998  1.9215 -2.2807  0.0290
  124ALA     CB   48   2.582   3.969   1.963  0.1371 -0.5141  0.0034
  124ALA    HB1   49   2.564   3.975   1.855 -0.0788  1.5063  0.1188
  124ALA    HB2   50   2.645   3.887   1.996  0.7005 -0.2172 -0.3136
  124ALA    HB3   51   2.635   4.059   1.992 -0.6891  0.4904 -1.4669
  124ALA      C   52   2.461   3.934   2.194 -0.7703 -0.3758 -0.1511
  124ALA      O   53   2.533   4.003   2.270  0.2912  0.1470  0.3895
  125TYR      N   54   2.387   3.834   2.243 -0.8486  0.9343  0.0790
  125TYR      H   55   2.332   3.788   2.172  0.5854  0.0889 -0.5214
  125TYR     CA   56   2.401   3.773   2.374 -0.0728  0.8728 -0.0440
  125TYR     HA   57   2.390   3.850   2.450 -0.9790  0.6998  0.0065
  125TYR     CB   58   2.299   3.656   2.388 -0.4051 -1.1188  0.3495
  125TYR    HB1   59   2.322   3.619   2.488  3.0405  1.9929  0.9731
  125TYR    HB2   60   2.311   3.580   2.312  0.1380 -0.0159 -0.7125
  125TYR     CG   61   2.158   3.718   2.392 -0.8764 -0.1216  0.4353
  125TYR    CD1   62   2.089   3.749   2.273  0.2207 -0.4005  0.0903
  125TYR    HD1   63   2.142   3.730   2.181  0.0285  0.0493 -0.1176
  125TYR    CE1   64   1.948   3.763   2.279 -0.4865 -0.1335  0.2588
  125TYR    HE1   65   1.885   3.788   2.195  0.5404  1.5037 -0.0810
  125TYR     CZ   66   1.883   3.765   2.404  0.5734  0.4723  0.2091
  125TYR     OH   67   1.748   3.797   2.419 -0.0799  0.7744 -0.0970
  125TYR     HH   68   1.706   3.793   2.333  1.9647  4.2453 -1.4747
  125TYR    CE2   69   1.950   3.736   2.518  0.1885  0.0252 -0.5901
  125TYR    HE2   70   1.898   3.722   2.612 -0.4195  2.1838 -0.5546
  125TYR    CD2   71   2.089   3.716   2.514 -0.1976  0.3286 -0.4785
  125TYR    HD2   72   2.140   3.681   2.602  0.3582  1.1451 -0.4703
  125TYR      C   73   2.538   3.712   2.390  0.1154 -0.1667  0.1637
  125TYR      O   74   2.595   3.653   2.297 -0.2564  0.2791  0.3118
  126GLU      N   75   2.588   3.719   2.510  0.2141 -0.2674  0.3553
  126GLU      H   76   2.522   3.738   2.584 -0.8934  0.2816 -0.7430
  126GLU     CA   77   2.725   3.669   2.544  0.5850  0.4109  0.1960
  126GLU     HA   78   2.771   3.612   2.463  1.2016  2.5285 -1.0358
  126GLU     CB   79   2.817   3.794   2.563 -0.7202 -0.3225 -0.6124
  126GLU    HB1   80   2.918   3.757   2.575 -0.9434 -0.3567  1.4462
  126GLU    HB2   81   2.778   3.831   2.658  0.0606  1.2104 -0.8510
  126GLU     CG   82   2.790   3.906   2.461  0.7429  0.7514  1.0073
  126GLU    HG1   83   2.700   3.958   2.493  1.0601  1.7561  0.3330
  126GLU    HG2   84   2.787   3.872   2.357  0.1901  1.2521  0.8540
  126GLU     CD   85   2.902   4.008   2.444  1.0185 -0.1300 -0.4511
  126GLU    OE1   86   3.006   3.967   2.391 -0.3804  0.1157 -1.1626
  126GLU    OE2   87   2.879   4.129   2.470  0.4513  0.0195  0.3135
  126GLU      C   88   2.728   3.568   2.657  0.0156 -0.4252 -0.0301
  126GLU      O   89   2.832   3.547   2.721 -0.0538  0.1220 -0.0456
  127MET      N   90   2.613   3.504   2.687 -0.1608 -0.7011 -0.1602
  127MET      H   91   2.535   3.527   2.627  0.7310 -0.4488 -1.2724
  127MET     CA   92   2.600   3.395   2.791  0.3477 -0.2712 -0.0081
  127MET     HA   93   2.611   3.436   2.892 -1.0578 -0.1122  0.0974
  127MET     CB   94   2.469   3.325   2.781  0.3506  0.6781  0.2337
  127MET    HB1   95   2.472   3.243   2.853  0.2406  0.0193 -0.5101
  127MET    HB2   96   2.458   3.280   2.683 -0.1985  0.4779  0.3836
  127MET     CG   97   2.348   3.417   2.815 -0.1966 -0.4253 -0.0557
  127MET    HG1   98   2.269   3.345   2.796  1.2518 -2.3370  0.8094
  127MET    HG2   99   2.331   3.504   2.752 -0.4127 -0.9503 -0.7392
  127MET     SD  100   2.344   3.482   2.988  0.0159 -0.0909 -0.0869
  127MET     CE  101   2.298   3.332   3.084  0.0565 -0.5898  0.3147
  127MET    HE1  102   2.211   3.285   3.038  0.8889 -1.5274 -0.3383
  127MET    HE2  103   2.283   3.354   3.190  0.7892 -0.8705  0.4813
  127MET    HE3  104   2.371   3.252   3.073 -0.3688 -0.6476 -2.7565
  127MET      C  105   2.720   3.298   2.771 -0.0827  0.3130 -0.2593
  127MET      O  106   2.760   3.269   2.660  0.1098  0.3161 -0.1907
  128PRO      N  107   2.772   3.232   2.881  0.2744  0.6153  0.0460
  128PRO     CD  108   2.733   3.254   3.019  0.9105  0.0164 -0.3125
  128PRO    HD1  109   2.642   3.201   3.048  0.8890 -0.7344 -1.6859
  128PRO    HD2  110   2.708   3.359   3.036  0.0471 -0.3559  0.8891
  128PRO     CG  111   2.855   3.232   3.103 -0.7646  0.6400 -0.2702
  128PRO    HG1  112   2.834   3.197   3.204 -1.1030  0.6957 -0.3219
  128PRO    HG2  113   2.897   3.332   3.117 -0.1273  0.1127  2.0813
  128PRO     CB  114   2.943   3.135   3.018 -0.7233  0.8764 -0.4901
  128PRO    HB1  115   3.047   3.149   3.046 -0.8077  1.8203 -0.6144
  128PRO    HB2  116   2.907   3.034   3.034  0.7675  0.5344  0.9066
  128PRO     CA  117   2.900   3.167   2.878 -0.2997  0.5544  0.9683
  128PRO     HA  118   2.970   3.240   2.837  0.1099  0.7299  1.9400
  128PRO      C  119   2.920   3.058   2.774  0.4618 -0.7773  0.0870
  128PRO      O  120   2.841   2.971   2.758 -0.1069  0.2148 -0.1803
  129SER      N  121   3.033   3.059   2.702  0.0259  0.0036  0.2872
  129SER      H  122   3.093   3.140   2.710  0.6225 -0.4723  0.8241
  129SER     CA  123   3.080   2.955   2.607  0.6598 -0.1758  0.1603
  129SER     HA  124   2.992   2.925   2.549  0.9810  1.5167 -1.2910
  129SER     CB  125   3.197   3.012   2.530 -0.7994 -0.7025  0.6079
  129SER    HB1  126   3.217   2.947   2.445 -0.9696  1.2967 -1.0451
  129SER    HB2  127   3.280   3.022   2.600 -0.8408  1.1206  0.4570
  129SER     OG  128   3.172   3.132   2.458 -0.1250 -0.5360  0.1639
  129SER    HG1  129   3.176   3.111   2.365  2.5029 -2.6654  0.6409
  129SER      C  130   3.123   2.831   2.693  0.1338 -0.1032 -0.0140
  129SER      O  131   3.188   2.848   2.802  0.3447  0.3286  0.2367
  130GLU      N  132   3.091   2.709   2.644  0.6382  0.5001 -0.1904
  130GLU      H  133   3.036   2.697   2.560 -3.9553 -2.1918  2.7598
  130GLU     CA  134   3.158   2.577   2.694  0.1484 -0.7041 -0.6561
  130GLU     HA  135   3.168   2.581   2.803 -1.0064 -0.8175 -0.5293
  130GLU     CB  136   3.060   2.462   2.663  0.1501 -1.0652 -0.1006
  130GLU    HB1  137   3.106   2.368   2.694  0.7370 -0.7514 -0.0208
  130GLU    HB2  138   3.048   2.467   2.554 -1.5277 -0.0121  0.0972
  130GLU     CG  139   2.921   2.477   2.730 -0.1004  0.8051 -0.4679
  130GLU    HG1  140   2.881   2.566   2.681 -0.5619  0.4951 -0.6595
  130GLU    HG2  141   2.933   2.490   2.837 -1.4127 -0.7800 -0.0919
  130GLU     CD  142   2.835   2.354   2.711  0.1102 -0.8811 -0.1059
  130GLU    OE1  143   2.776   2.318   2.815  0.5354 -0.0848 -0.2574
  130GLU    OE2  144   2.835   2.293   2.600  0.2819  0.1403  0.5262
  130GLU      C  145   3.301   2.552   2.652 -0.3838  0.3570  0.2980
  130GLU      O  146   3.345   2.569   2.541 -0.4428  0.2259  0.0100
  131GLU      N  147   3.384   2.513   2.754 -0.1247 -0.6136 -0.5922
  131GLU      H  148   3.348   2.479   2.842  0.1608 -0.8068 -0.5453
  131GLU     CA  149   3.534   2.514   2.745  0.2835  0.1106 -0.4991
  131GLU     HA  150   3.562   2.600   2.684  1.2724  0.1718  0.0254
  131GLU     CB  151   3.586   2.537   2.890 -0.7235 -0.3178  0.7638
  131GLU    HB1  152   3.694   2.523   2.893 -0.6536  0.2746  1.1343
  131GLU    HB2  153   3.534   2.469   2.958 -1.9138  1.1095  1.3137
  131GLU     CG  154   3.564   2.684   2.942  0.2185  0.1406  0.3528
  131GLU    HG1  155   3.610   2.697   3.040 -0.8457  1.7805  0.6730
  131GLU    HG2  156   3.457   2.701   2.950  0.3488  0.5533  1.3243
  131GLU     CD  157   3.623   2.790   2.859 -0.0408  0.4118  0.0283
  131GLU    OE1  158   3.720   2.769   2.780  0.3767 -0.5610 -0.2738
  131GLU    OE2  159   3.577   2.904   2.871  0.2111 -0.6108  0.1033
  131GLU      C  160   3.590   2.388   2.670  0.2327 -0.4730  0.4997
  131GLU      O  161   3.680   2.407   2.586 -0.1916 -0.1497 -0.4788
  132GLY      N  162   3.521   2.272   2.677 -0.3867 -0.5011 -0.4654
  132GLY      H  163   3.447   2.279   2.745 -0.5641  2.1303 -0.8239
  132GLY     CA  164   3.538   2.162   2.583 -0.2983  0.0402  0.3356
  132GLY    HA1  165   3.529   2.072   2.644  0.8853  1.7199  3.1977
  132GLY    HA2  166   3.632   2.166   2.527 -0.9747  0.9813 -0.7723
  132GLY      C  167   3.427   2.156   2.477  0.3841 -0.6675 -0.7092
  132GLY      O  168   3.311   2.191   2.510 -0.3927 -0.5467  0.1359
  133TYR      N  169   3.454   2.114   2.353  0.4715 -0.1666 -0.1956
  133TYR      H  170   3.550   2.089   2.338  0.8051  1.6277 -1.3639
  133TYR     CA  171   3.354   2.077   2.254  0.0251  0.1316  0.2541
  133TYR     HA  172   3.272   2.148   2.265  0.7736  0.9870  0.4471
  133TYR     CB  173   3.420   2.101   2.116  0.7529  0.0274 -0.3402
  133TYR    HB1  174   3.482   2.012   2.100 -2.7063 -2.8287  0.8848
  133TYR    HB2  175   3.476   2.194   2.110 -0.0215  0.5815  0.8043
  133TYR     CG  176   3.326   2.111   1.999 -0.4927 -0.7578 -0.5405
  133TYR    CD1  177   3.233   2.218   1.984 -0.4213  0.2666 -0.6001
  133TYR    HD1  178   3.225   2.296   2.058 -0.4693  0.9254 -1.2882
  133TYR    CE1  179   3.149   2.226   1.872  0.1701 -0.0451  0.1591
  133TYR    HE1  180   3.093   2.318   1.863 -0.8022 -0.7601 -1.8957
  133TYR     CZ  181   3.161   2.128   1.771  0.0198 -1.3809  0.1788
  133TYR     OH  182   3.083   2.143   1.662  0.3939 -0.3237  0.2858
  133TYR     HH  183   3.025   2.219   1.666  0.4325 -0.2783  0.0331
  133TYR    CE2  184   3.251   2.026   1.779  0.3824  0.4614 -0.0253
  133TYR    HE2  185   3.255   1.951   1.702  0.7345  0.9220 -0.4558
  133TYR    CD2  186   3.340   2.024   1.890 -0.3271  0.4997 -0.1616
  133TYR    HD2  187   3.405   1.939   1.903  1.1283  1.8842  2.3566
  133TYR      C  188   3.298   1.936   2.279  0.4262 -0.0184  0.5633
  133TYR      O  189   3.362   1.853   2.348  0.1474  0.4815 -0.2851
  134GLN      N  190   3.188   1.905   2.209 -0.5252 -0.5665  0.2506
  134GLN      H  191   3.151   1.973   2.144 -0.5552 -2.4028 -1.7762
  134GLN     CA  192   3.133   1.775   2.199  0.1756 -0.3588 -0.0654
  134GLN     HA  193   3.099   1.744   2.298 -1.7150  2.7396  0.3785
  134GLN     CB  194   3.011   1.775   2.102  0.2399  0.3401 -0.8268
  134GLN    HB1  195   2.982   1.672   2.082 -0.9675  0.6096 -0.5133
  134GLN    HB2  196   3.052   1.811   2.008  3.6911  1.7986  1.0282
  134GLN     CG  197   2.887   1.844   2.152 -0.3028 -0.5496 -0.0993
  134GLN    HG1  198   2.864   1.804   2.251  1.7727 -0.6671  0.3818
  134GLN    HG2  199   2.807   1.812   2.085  0.3854 -0.4254 -0.9957
  134GLN     CD  200   2.908   1.996   2.152 -0.1914  0.1586 -0.5774
  134GLN    OE1  201   2.973   2.063   2.073 -0.2477 -0.3778  0.3769
  134GLN    NE2  202   2.853   2.065   2.248  0.2167  0.7017 -0.5889
  134GLN   HE21  203   2.873   2.164   2.246  5.2695 -0.0629 -2.0303
  134GLN   HE22  204   2.802   2.008   2.315 -2.5336  2.6563 -0.8717
  134GLN      C  205   3.245   1.675   2.146  0.1261 -0.1031  0.3229
  134GLN      O  206   3.321   1.711   2.060 -0.2661 -0.3795  0.6414
  135ASP      N  207   3.239   1.546   2.181  0.0326  0.7976  0.8471
  135ASP      H  208   3.175   1.519   2.254 -0.0539  0.9299  0.8211
  135ASP     CA  209   3.305   1.428   2.121  0.2218 -0.0681 -0.3970
  135ASP     HA  210   3.409   1.453   2.104 -0.0860  1.7874  0.2587
  135ASP     CB  211   3.301   1.314   2.224  0.5544 -0.6194 -0.2101
  135ASP    HB1  212   3.365   1.238   2.178  0.0146 -0.9385 -0.4391
  135ASP    HB2  213   3.200   1.275   2.226  0.1691  0.3756  0.6835
  135ASP     CG  214   3.343   1.349   2.362  0.2427 -0.3209 -0.2107
  135ASP    OD1  215   3.445   1.417   2.368 -0.2959  0.1736 -0.3203
  135ASP    OD2  216   3.270   1.324   2.458  0.6173  0.0393  0.0229
  135ASP      C  217   3.240   1.378   1.987  0.9213 -0.8871  0.1184
  135ASP      O  218   3.273   1.273   1.942  0.2529  0.1689  0.1153
  136TYR      N  219   3.144   1.456   1.933  0.6260  0.9043 -0.8733
  136TYR      H  220   3.105   1.532   1.987 -1.5725 -0.7461  0.0028
  136TYR     CA  221   3.098   1.416   1.801  0.0837  0.2230 -0.6130
  136TYR     HA  222   3.075   1.310   1.800 -2.8896  0.7431  0.7347
  136TYR     CB  223   2.969   1.489   1.773  0.0891 -0.2978  0.6160
  136TYR    HB1  224   2.992   1.593   1.753  2.1996  0.0383  4.0076
  136TYR    HB2  225   2.916   1.508   1.866 -0.1824 -1.3197  0.6858
  136TYR     CG  226   2.873   1.413   1.685  1.5827  0.0648  0.2812
  136TYR    CD1  227   2.786   1.316   1.745 -0.1272  0.7663  0.3310
  136TYR    HD1  228   2.796   1.301   1.851  1.7933  0.8017  0.1962
  136TYR    CE1  229   2.706   1.236   1.664 -0.0678  0.7037  0.3704
  136TYR    HE1  230   2.659   1.145   1.700  0.1613 -0.1240 -1.3116
  136TYR     CZ  231   2.692   1.266   1.530  0.0433 -0.0531 -0.5406
  136TYR     OH  232   2.600   1.194   1.461  0.1789 -0.6012  0.2022
  136TYR     HH  233   2.581   1.230   1.374  1.9249  0.1568  0.0958
  136TYR    CE2  234   2.760   1.381   1.474  0.1648  0.1720  0.3010
  136TYR    HE2  235   2.739   1.409   1.372  1.1044  0.6852  0.2386
  136TYR    CD2  236   2.851   1.453   1.552  0.8263  0.4860  0.5311
  136TYR    HD2  237   2.899   1.539   1.509 -0.2114  1.7357  1.7862
  136TYR      C  238   3.192   1.455   1.686 -0.2359 -0.0680  0.4153
  136TYR      O  239   3.249   1.561   1.684  0.7072  0.1309  0.3736
  137GLU      N  240   3.204   1.362   1.601  0.0787  0.6969 -0.0061
  137GLU      H  241   3.152   1.280   1.629  1.7983  0.3156  2.3213
  137GLU     CA  242   3.299   1.355   1.488 -0.3349  0.2115 -0.3930
  137GLU     HA  243   3.376   1.430   1.509  0.5153 -0.8317  0.3292
  137GLU     CB  244   3.370   1.217   1.491  0.3498 -0.9256  0.1312
  137GLU    HB1  245   3.429   1.200   1.401 -0.6423  1.3344 -1.0182
  137GLU    HB2  246   3.290   1.143   1.493 -0.5742  0.0860  1.4163
  137GLU     CG  247   3.458   1.203   1.613 -0.0265  0.0346 -0.0177
  137GLU    HG1  248   3.408   1.236   1.704 -0.8441  2.4044 -1.2416
  137GLU    HG2  249   3.545   1.267   1.598 -1.5732  1.9253 -1.5507
  137GLU     CD  250   3.519   1.065   1.627  1.2376 -0.1509  0.1972
  137GLU    OE1  251   3.457   0.975   1.567 -0.3513 -0.0006 -0.1114
  137GLU    OE2  252   3.611   1.049   1.709  0.4987  0.0613 -0.0481
  137GLU      C  253   3.243   1.383   1.352 -0.4621 -0.9894  0.2615
  137GLU      O  254   3.127   1.358   1.328 -0.3335 -0.2430 -0.4719
  138PRO      N  255   3.324   1.428   1.253  0.1070 -0.1065 -0.0032
  138PRO     CD  256   3.467   1.451   1.264  0.0314 -0.7129  0.6570
  138PRO    HD1  257   3.526   1.360   1.268  0.2039 -0.7314 -1.3219
  138PRO    HD2  258   3.505   1.519   1.341  1.3704  0.1379 -0.6991
  138PRO     CG  259   3.499   1.530   1.141  0.3650  1.0666  0.0628
  138PRO    HG1  260   3.588   1.482   1.102 -0.5645  0.0872 -0.9107
  138PRO    HG2  261   3.510   1.634   1.171  2.8687  0.6045  0.9593
  138PRO     CB  262   3.383   1.515   1.034  0.2265  0.4438  0.1668
  138PRO    HB1  263   3.347   1.617   1.022  0.3838  0.3646 -1.0431
  138PRO    HB2  264   3.409   1.463   0.942  1.0226  1.0294  0.0556
  138PRO     CA  265   3.276   1.439   1.114  0.1048  0.4251 -0.5338
  138PRO     HA  266   3.185   1.500   1.118 -1.4048 -1.6153 -1.6792
  138PRO      C  267   3.243   1.300   1.054 -0.2922 -0.4700 -0.3297
  138PRO      O  268   3.314   1.203   1.077  0.4499  0.0228 -0.1565
  139GLU      N  269   3.134   1.287   0.979 -0.6924 -0.3087 -0.5223
  139GLU      H  270   3.081   1.371   0.961  0.5492  0.8254  0.8840
  139GLU     CA  271   3.106   1.166   0.898  0.4283  0.4724  0.6453
  139GLU     HA  272   3.111   1.074   0.957  2.1462 -0.6084 -1.0517
  139GLU     CB  273   2.968   1.188   0.824  0.3299 -0.0153  0.3381
  139GLU    HB1  274   2.957   1.129   0.732 -1.2262  1.9462 -0.8081
  139GLU    HB2  275   2.959   1.293   0.796 -0.8874 -0.2429 -0.1873
  139GLU     CG  276   2.851   1.147   0.915 -0.1481  0.2650 -0.0566
  139GLU    HG1  277   2.863   1.197   1.011 -0.4027  0.5789 -0.1871
  139GLU    HG2  278   2.868   1.043   0.946 -1.6901  0.7501  2.7721
  139GLU     CD  279   2.711   1.166   0.869  0.3543 -0.6641  0.2836
  139GLU    OE1  280   2.619   1.161   0.951  0.8549 -0.6430  0.4490
  139GLU    OE2  281   2.687   1.165   0.745 -0.2907  0.4446  0.0222
  139GLU      C  282   3.208   1.148   0.791 -0.8596 -0.6119  0.1405
  139GLU      O  283   3.253   1.245   0.730 -0.1114 -0.3103 -0.0059
  140CALA     N  284   3.254   1.024   0.767 -0.0550 -0.4617 -0.2217
  140CALA     H  285   3.224   0.948   0.826 -1.2982 -0.4019 -0.7530
  140CALA    CA  286   3.341   0.984   0.659  0.3167  0.0494  0.1635
  140CALA    HA  287   3.411   1.064   0.637  2.7170 -1.9309  0.1382
  140CALA    CB  288   3.431   0.865   0.705  0.7828 -0.3897  0.4586
  140CALA   HB1  289   3.494   0.833   0.622 -0.2109 -2.3120  0.4036
  140CALA   HB2  290   3.371   0.779   0.733  0.3770  0.5298  2.6302
  140CALA   HB3  291   3.489   0.904   0.788  0.5349  3.1386 -0.8474
  140CALA     C  292   3.257   0.965   0.534  0.1467 -0.0599  0.0463
  140CALA   OC1  293   3.161   0.887   0.541  0.1669  0.3145  0.4195
  140CALA   OC2  294   3.284   1.030   0.430  0.0382 -0.3395  0.5284
  141FAS      C  295   2.145   3.183   1.795  0.5819  0.4857 -0.1888
  141FAS     C1  296   2.154   3.028   1.793  0.4069 -0.0911 -0.4716
  141FAS      N  297   2.049   2.976   1.895  0.2779  0.0982  0.1875
  141FAS     C2  298   2.088   2.995   2.038 -0.7941 -0.1147 -0.5118
  141FAS     C3  299   2.043   3.131   2.099  0.4772  0.1536  0.6332
  141FAS     N1  300   2.074   3.252   2.017  0.2659  0.7670 -0.4561
  141FAS     C4  301   2.187   3.251   1.927 -0.5302 -0.4759 -0.1072
  141FAS      S  302   2.033   3.401   2.070  0.2294 -0.2130  0.3413
  141FAS      O  303   2.148   3.471   2.126  0.4269 -0.2386  0.1843
  141FAS     O1  304   1.947   3.472   1.969 -0.4717  0.2742  0.3974
  141FAS     C5  305   1.922   3.370   2.213  0.2251 -0.5904 -0.5270
  141FAS     C6  306   1.783   3.378   2.187  0.2198  0.0164 -0.5926
  141FAS     C7  307   1.692   3.385   2.295  0.1744 -0.0386 -0.8626
  141FAS     C8  308   1.741   3.354   2.432 -0.2101  0.1867  1.3118
  141FAS     C9  309   1.876   3.329   2.452  0.4491  0.7025 -0.2704
  141FAS    C10  310   1.970   3.340   2.346 -0.0143  0.0583  0.2236
  141FAS    C11  311   2.108   3.324   2.378  0.1631 -0.1277 -0.3675
  141FAS    C12  312   2.146   3.299   2.511 -0.0852  0.1749  0.5729
  141FAS     N2  313   2.053   3.277   2.606 -0.4797 -0.1216 -0.0672
  141FAS    C13  314   1.924   3.289   2.582  0.0431  0.0112  0.1193
  141FAS      H  315   2.044   3.206   1.758  0.5844 -0.7233 -1.0434
  141FAS     H1  316   2.211   3.216   1.713  0.4914  0.9787 -0.0621
  141FAS     H2  317   2.254   2.996   1.822 -0.6205 -1.6971  1.6056
  141FAS     H3  318   2.130   2.991   1.694 -1.5498  0.2258 -0.1545
  141FAS     H4  319   1.951   2.998   1.871 -0.5214 -1.6649  1.6487
  141FAS     H5  320   2.197   2.993   2.035 -0.7278  0.7952  0.5558
  141FAS     H6  321   2.047   2.912   2.095  1.0753 -0.7902 -0.0762
  141FAS     H7  322   2.097   3.139   2.195  4.1365 -0.4383 -1.1892
  141FAS     H8  323   1.936   3.124   2.123  0.5725  0.8442  1.3057
  141FAS     H9  324   2.282   3.221   1.973  0.0763  0.4830 -0.7044
  141FAS    H10  325   2.210   3.356   1.902 -1.1401 -0.1469  0.6541
  141FAS    H11  326   1.746   3.401   2.088 -1.1807  0.2724 -0.0441
  141FAS    H12  327   1.586   3.400   2.276 -0.1953 -2.2602 -0.7727
  141FAS    H13  328   1.671   3.347   2.514  0.8782 -0.5452  2.2027
  141FAS    H14  329   2.192   3.349   2.314 -0.8911  1.0605 -1.3424
  141FAS    H15  330   2.250   3.276   2.532  0.1695  0.5673 -0.1946
  141FAS    H16  331   1.855   3.268   2.663 -1.8486 -0.7529 -1.6231
  141FAS    H17  332   2.049   2.875   1.873  0.0825  0.2221 -0.4000
  142SOL     OW  333   3.105   1.630   5.383 -0.0183 -0.5551 -0.3981
  142SOL    HW2  334   3.058   1.587   5.311  0.3015 -0.4588 -0.6702
  142SOL    HW3  335   3.140   1.710   5.343  0.7193 -0.8277 -0.3130
  142SOL    MW4  336   3.104   1.635   5.368 -0.8810  0.3201 -0.8077
  143SOL     OW  337   1.709   1.990   4.383 -0.0885 -0.6577 -0.5295
  143SOL    HW2  338   1.694   1.934   4.460 -1.3525 -1.5546 -1.3958
  143SOL    HW3  339   1.802   2.013   4.389  0.1668 -1.8030  0.5497
  143SOL    MW4  340   1.719   1.985   4.394  0.1326 -0.9877  0.2857
  144SOL     OW  341   0.428   1.870   2.341 -0.3069 -0.2215  0.6594
  144SOL    HW2  342   0.400   1.813   2.413 -0.3574  0.0521  0.8567
  144SOL    HW3  343   0.371   1.846   2.268 -1.6111  0.8866  1.2862
  144SOL    MW4  344   0.417   1.859   2.341 -0.1851 -0.0535 -0.0545
  145SOL     OW  345   5.816   3.434   5.005  0.9111 -0.3579 -0.1492
  145SOL    HW2  346   5.739   3.446   4.949  1.0613 -0.6491 -0.4235
  145SOL    HW3  347   5.798   3.487   5.082  1.1887  0.9444 -0.9543
  145SOL    MW4  348   5.804   3.443   5.008 -0.5661 -0.7878  0.3766
  146SOL     OW  349   1.959   1.214   2.270  0.4922  0.2698  0.5583
  146SOL    HW2  350   1.898   1.177   2.334 -1.2575 -0.4440 -1.4293
  146SOL    HW3  351   2.028   1.149   2.262 -0.8765 -1.1255 -0.4968
  146SOL    MW4  352   1.960   1.201   2.277  0.1723  0.1519  0.3527
  147SOL     OW  353   4.038   1.015   5.441  0.1276 -0.2641  0.0571
  147SOL    HW2  354   4.111   0.954   5.446 -1.1031 -1.8884 -0.6211
  147SOL    HW3  355   4.024   1.044   5.531  2.9745  1.9027 -0.0600
  147SOL    MW4  356   4.045   1.011   5.454 -0.2652  0.6420  0.3210
  148SOL     OW  357   6.311   5.557   3.423 -0.2754 -0.1329 -0.3048
  148SOL    HW2  358   6.248   5.520   3.485 -1.3070  0.2608 -1.0862
  148SOL    HW3  359   6.259   5.576   3.345  0.3321  2.2415 -0.2143
  148SOL    MW4  360   6.296   5.555   3.421  0.1404  0.3004 -0.2775
  149SOL     OW  361   5.374   2.998   6.298  0.1897  0.3885 -0.3432
  149SOL    HW2  362   5.323   3.041   6.366 -1.3432 -1.3218 -0.3390
  149SOL    HW3  363   5.349   3.041   6.217  0.9297  1.4529 -0.0320
  149SOL    MW4  364   5.364   3.009   6.297 -0.1427  0.4009 -0.2532
  150SOL     OW  365   0.101   2.196   5.123  0.6781  0.2989 -0.0405
  150SOL    HW2  366   0.099   2.271   5.183 -1.4651 -2.3826  3.6484
  150SOL    HW3  367   0.020   2.204   5.072 -0.1445 -0.0373  1.1769
  150SOL    MW4  368   0.090   2.207   5.124 -0.0807  0.4205  0.3633
  151SOL     OW  369   3.833   2.797   1.017 -0.7436  0.1057  0.2758
  151SOL    HW2  370   3.798   2.707   1.015  0.7455 -0.4790 -0.5844
  151SOL    HW3  371   3.829   2.826   0.926 -1.7328  1.1489  0.6291
  151SOL    MW4  372   3.828   2.789   1.005 -0.0704 -1.0365  0.0737
  152SOL     OW  373   3.207   4.143   3.907  0.3382 -0.1615  0.5440
  152SOL    HW2  374   3.197   4.235   3.880  0.5598 -0.3289 -0.1324
  152SOL    HW3  375   3.124   4.122   3.951 -0.9251 -0.4812 -1.8345
  152SOL    MW4  376   3.194   4.153   3.909 -0.4880  0.3074 -0.1592
  153SOL     OW  377   0.030   2.469   2.406 -0.4778 -0.3867  0.3214
  153SOL    HW2  378   0.055   2.534   2.472  0.5374  1.2387 -1.5739
  153SOL    HW3  379  -0.007   2.397   2.457  0.4632  0.6845  2.6802
  153SOL    MW4  380   0.029   2.468   2.422  0.1522  0.5771  0.1759
  154SOL     OW  381   0.163   4.171   1.606  0.4376  0.2489 -0.1433
  154SOL    HW2  382   0.217   4.094   1.625 -0.5879 -0.0422  1.8658
  154SOL    HW3  383   0.221   4.245   1.625  0.6640 -0.0520  0.3806
  154SOL    MW4  384   0.178   4.171   1.611 -0.4095  0.5354 -0.6241
  155SOL     OW  385   1.098   5.350   0.908  0.0633 -0.6762 -0.3782
  155SOL    HW2  386   1.135   5.416   0.849  2.5604 -2.1451 -0.5767
  155SOL    HW3  387   1.009   5.336   0.875  0.0096  1.4219 -1.2768
  155SOL    MW4  388   1.091   5.357   0.896  0.4261 -0.2740 -0.2320
  156SOL     OW  389   5.819   5.227   0.134 -0.5216 -0.1026 -0.2984
  156SOL    HW2  390   5.846   5.188   0.218  2.6325  2.0669 -0.1154
  156SOL    HW3  391   5.835   5.158   0.070  1.5148 -0.3671  0.4131
  156SOL    MW4  392   5.825   5.213   0.137 -0.4714  0.1381 -0.1324
  157SOL     OW  393   4.898   4.852   4.602  0.3257  0.9622  0.4703
  157SOL    HW2  394   4.807   4.855   4.572  0.9155  0.1915 -1.6095
  157SOL    HW3  395   4.892   4.832   4.695 -1.6327  1.6622  0.5488
  157SOL    MW4  396   4.885   4.850   4.610 -0.0382  0.0843 -0.0829
  158SOL     OW  397   4.655   3.596   3.462  0.1050  0.3028  0.1468
  158SOL    HW2  398   4.609   3.675   3.433  2.5857  1.5635 -0.5865
  158SOL    HW3  399   4.585   3.532   3.475 -1.8929  2.2332 -0.4117
  158SOL    MW4  400   4.639   3.598   3.460  0.6935  0.1410  0.2793
  159SOL     OW  401   5.834   2.833   5.865  0.2074  0.0931 -0.3927
  159SOL    HW2  402   5.877   2.789   5.791 -0.5556 -1.4066  0.0100
  159SOL    HW3  403   5.856   2.778   5.941  0.3832  1.2120  0.3936
  159SOL    MW4  404   5.843   2.820   5.866  0.4137  0.2977 -0.2603
  160SOL     OW  405   2.134   0.174   4.878 -0.4194  0.5661  0.8132
  160SOL    HW2  406   2.214   0.219   4.851 -0.7353  1.5402  1.4491
  160SOL    HW3  407   2.155   0.138   4.964  0.2202 -1.5817 -0.1568
  160SOL    MW4  408   2.148   0.175   4.886 -0.0447 -0.4310 -0.0790
  161SOL     OW  409   1.649   0.068   3.890 -0.5144  0.1245  0.0822
  161SOL    HW2  410   1.729   0.092   3.937  0.5082 -0.1525 -1.4604
  161SOL    HW3  411   1.622  -0.015   3.930  0.1765  0.0230  0.3576
  161SOL    MW4  412   1.656   0.060   3.902 -0.4364 -0.1835  0.1096
  162SOL     OW  413   2.537   1.612   3.403 -0.8725  0.3017 -0.7679
  162SOL    HW2  414   2.562   1.641   3.490  2.0802 -1.3309 -0.9491
  162SOL    HW3  415   2.449   1.575   3.414 -1.0282  1.1562  1.2436
  162SOL    MW4  416   2.529   1.611   3.416  0.5476 -0.7125  0.5460
  163SOL     OW  417   0.125   4.547   4.388 -0.1455 -0.2575  0.1096
  163SOL    HW2  418   0.118   4.580   4.478 -0.3697  1.0675 -0.3792
  163SOL    HW3  419   0.184   4.608   4.344  1.0875 -1.6965 -0.3029
  163SOL    MW4  420   0.132   4.559   4.394  0.3763 -0.4027 -0.4010
  164SOL     OW  421   1.280   3.604   3.136  0.4404  0.4710  0.5370
  164SOL    HW2  422   1.270   3.635   3.046  0.7898  0.8176  0.6100
  164SOL    HW3  423   1.195   3.568   3.160 -0.0258  1.4978  0.4826
  164SOL    MW4  424   1.268   3.603   3.127 -0.6235 -0.2236 -0.4397
  165SOL     OW  425   0.861   3.059   0.573 -0.1383 -0.5026  0.2863
  165SOL    HW2  426   0.867   3.151   0.544 -1.7050 -0.1027  1.0956
  165SOL    HW3  427   0.948   3.038   0.604  0.1315  0.8889  0.5425
  165SOL    MW4  428   0.873   3.069   0.573 -0.8484 -0.3718 -0.1144
  166SOL     OW  429   3.397   5.677   5.371  0.2622  0.0482  0.1270
  166SOL    HW2  430   3.343   5.618   5.423 -0.3514 -1.1670 -1.7524
  166SOL    HW3  431   3.351   5.761   5.375 -0.5273 -0.3837  0.4210
  166SOL    MW4  432   3.383   5.680   5.378  0.0044  0.5379  0.2355
  167SOL     OW  433   3.406   2.134   4.258 -0.5432 -0.4120 -0.5076
  167SOL    HW2  434   3.373   2.071   4.322  0.1363 -1.1200 -0.8410
  167SOL    HW3  435   3.465   2.191   4.307 -2.7285  1.3320  0.2628
  167SOL    MW4  436   3.409   2.133   4.273  0.0204 -0.1751 -0.4088
  168SOL     OW  437   6.286   6.065   5.880  0.2803 -0.4527  0.2927
  168SOL    HW2  438   6.333   6.107   5.952  0.0807 -0.8804  0.6791
  168SOL    HW3  439   6.339   5.988   5.858 -0.3596 -1.0817  0.9056
  168SOL    MW4  440   6.299   6.060   5.887  0.3223 -0.3732  0.4076
  169SOL     OW  441   0.955   6.356   2.341  0.2172  0.5073  0.2621
  169SOL    HW2  442   0.954   6.448   2.317 -0.2376 -0.1745 -2.6720
  169SOL    HW3  443   0.993   6.311   2.265  1.0880 -1.6790  1.8670
  169SOL    MW4  444   0.960   6.362   2.328 -0.5355 -0.4578  0.2664
  170SOL     OW  445   3.783   0.253   0.103 -0.2191 -0.0410 -0.3468
  170SOL    HW2  446   3.821   0.228   0.187 -1.3746  1.1282  0.5624
  170SOL    HW3  447   3.689   0.239   0.114 -0.5666  1.6700 -0.8489
  170SOL    MW4  448   3.776   0.248   0.115 -0.0962  0.0146  0.1230
  171SOL     OW  449   1.468   3.371   5.773  0.2574 -0.6735 -0.2616
  171SOL    HW2  450   1.429   3.305   5.832 -0.0292 -1.5422 -1.3897
  171SOL    HW3  451   1.514   3.319   5.707 -0.6397  0.2221 -1.6269
  171SOL    MW4  452   1.469   3.355   5.772  0.0242  0.6400  0.1262
  172SOL     OW  453   5.369   2.052   4.506 -0.2187  0.0792  0.4225
  172SOL    HW2  454   5.435   2.084   4.444 -0.2114  0.4548  0.6153
  172SOL    HW3  455   5.351   1.963   4.479  0.7426 -0.2033  0.6594
  172SOL    MW4  456   5.376   2.045   4.495  0.5190 -0.5166  0.0573
  173SOL     OW  457   0.416   3.164   2.291 -0.1778  0.6695 -0.1480
  173SOL    HW2  458   0.494   3.206   2.329  0.0810 -1.4320  1.8629
  173SOL    HW3  459   0.426   3.071   2.313 -1.8613 -0.1173 -2.3777
  173SOL    MW4  460   0.428   3.157   2.299  0.0662  0.5410  0.0013
  174SOL     OW  461   5.023   2.659   4.310 -0.2697  0.1470  0.0130
  174SOL    HW2  462   5.100   2.707   4.278  0.1216  1.2470  2.3709
  174SOL    HW3  463   5.049   2.628   4.396 -2.4353  0.4459  0.8217
  174SOL    MW4  464   5.037   2.662   4.317 -0.0792 -0.5237  0.4506
  175SOL     OW  465   2.403   0.309   3.477  0.0960 -0.5980  0.2257
  175SOL    HW2  466   2.478   0.264   3.438  0.0609  0.3662 -1.0323
  175SOL    HW3  467   2.331   0.293   3.416 -0.1981  0.1888  0.3444
  175SOL    MW4  468   2.404   0.301   3.464 -0.2730 -0.2940 -0.3170
  176SOL     OW  469   3.836   4.277   3.446 -0.6542 -0.1118 -0.0195
  176SOL    HW2  470   3.869   4.306   3.361  0.3429  0.4376  0.5333
  176SOL    HW3  471   3.889   4.325   3.510 -0.8654 -1.0845  0.9193
  176SOL    MW4  472   3.847   4.287   3.443 -0.3251  0.0296  0.7362
  177SOL     OW  473   0.115   5.513   3.581  0.2676 -0.3208  0.4898
  177SOL    HW2  474   0.042   5.520   3.520  0.6241 -0.6014  0.0256
  177SOL    HW3  475   0.075   5.518   3.668 -0.2546 -0.0481  0.2341
  177SOL    MW4  476   0.100   5.515   3.584  0.1295 -0.2258  0.2369
  178SOL     OW  477   4.738   3.689   6.326  0.4289 -0.3075 -0.2853
  178SOL    HW2  478   4.794   3.644   6.263  0.5042 -2.3071  1.1067
  178SOL    HW3  479   4.654   3.697   6.281 -0.3246 -4.0898  0.1254
  178SOL    MW4  480   4.734   3.684   6.312 -0.2017  0.1063 -0.4255
  179SOL     OW  481   1.960   3.614   2.875  0.4017 -0.5256  0.0849
  179SOL    HW2  482   1.903   3.569   2.812 -1.9171 -0.5631  2.0772
  179SOL    HW3  483   1.971   3.552   2.947 -0.0841  0.8378  1.3769
  179SOL    MW4  484   1.954   3.600   2.876  0.2179 -0.4193 -0.3558
  180SOL     OW  485   5.190   5.875   3.469 -0.2710 -0.1552  0.0089
  180SOL    HW2  486   5.232   5.957   3.442 -1.2727  0.4049  0.1189
  180SOL    HW3  487   5.177   5.827   3.387  1.9096 -1.0147  0.1034
  180SOL    MW4  488   5.194   5.879   3.455 -0.2156 -0.2316  0.5375
  181SOL     OW  489   0.852   4.045   1.959  0.1133 -0.3440 -0.1096
  181SOL    HW2  490   0.827   4.124   1.911  3.3759  3.3707  3.4721
  181SOL    HW3  491   0.794   4.044   2.035 -0.7143 -2.2598 -0.7177
  181SOL    MW4  492   0.841   4.055   1.963  0.5379 -0.2927 -0.2901
  182SOL     OW  493   1.052   1.917   2.291 -0.3733  0.2985  0.1314
  182SOL    HW2  494   1.009   1.840   2.330 -1.4866  0.2915 -1.0193
  182SOL    HW3  495   1.056   1.896   2.197  1.6773  0.5635  0.1143
  182SOL    MW4  496   1.047   1.904   2.284 -0.0681 -0.0673  0.0076
  183SOL     OW  497   4.376   5.008   2.991  0.2873  0.0791 -0.2224
  183SOL    HW2  498   4.376   5.040   2.901  1.1607  0.4277 -0.1126
  183SOL    HW3  499   4.405   4.917   2.985 -3.0186 -1.0841 -0.6254
  183SOL    MW4  500   4.380   5.001   2.978  0.1052 -0.3932 -0.2816
  184SOL     OW  501   0.770   2.900   1.529  0.6884  0.3881  0.7188
  184SOL    HW2  502   0.755   2.979   1.479 -1.7463 -0.0577  0.6100
  184SOL    HW3  503   0.851   2.863   1.493  1.3706  2.3205  0.1711
  184SOL    MW4  504   0.779   2.905   1.518  0.0989  0.2303 -0.5331
  185SOL     OW  505   0.037   5.096   5.872 -0.0341  0.7272  0.4291
  185SOL    HW2  506  -0.019   5.151   5.928  0.7245  0.0330  1.9479
  185SOL    HW3  507   0.033   5.009   5.913  1.8576  0.5746  0.3841
  185SOL    MW4  508   0.029   5.092   5.885  0.3041 -0.0037  0.8451
  186SOL     OW  509   0.487   1.327   2.740 -0.7139  0.2013 -0.2579
  186SOL    HW2  510   0.527   1.414   2.739  0.3680 -0.0614  3.7835
  186SOL    HW3  511   0.410   1.337   2.796 -0.5823 -1.3987  0.2563
  186SOL    MW4  512   0.482   1.340   2.747 -0.0869  0.3361  0.4018
  187SOL     OW  513   1.658   1.043   6.089 -0.3053 -0.4600  0.3956
  187SOL    HW2  514   1.594   1.014   6.024  0.2692  1.4030 -1.1318
  187SOL    HW3  515   1.697   0.963   6.123  0.0244 -1.5455 -2.2975
  187SOL    MW4  516   1.655   1.029   6.085  0.0071  0.6779 -0.1426
  188SOL     OW  517   0.365   1.467   6.305  0.4389  0.1427 -0.2004
  188SOL    HW2  518   0.368   1.372   6.297 -1.6496 -0.0915  0.8795
  188SOL    HW3  519   0.379   1.500   6.216  1.7228 -1.1252 -0.4907
  188SOL    MW4  520   0.367   1.459   6.293  0.1108 -0.2239 -0.4257
  189SOL     OW  521   6.123   3.185   1.229 -0.1662 -0.3904  0.4653
  189SOL    HW2  522   6.082   3.102   1.252 -1.6024  0.4365  1.0563
  189SOL    HW3  523   6.054   3.234   1.183  0.2923  0.8467  1.0359
  189SOL    MW4  524   6.108   3.181   1.226 -0.1133  0.3492 -0.0192
  190SOL     OW  525   6.347   3.129   3.835  0.1855  0.1598 -0.8146
  190SOL    HW2  526   6.359   3.218   3.802  1.0556  0.6492  0.7162
  190SOL    HW3  527   6.393   3.128   3.919 -4.7103  0.0802  2.2741
  190SOL    MW4  528   6.354   3.141   3.842  0.3059 -0.1664 -0.4633
  191SOL     OW  529   3.723   2.549   4.926  0.1039  0.1476  0.3396
  191SOL    HW2  530   3.696   2.492   4.854  1.0702 -3.1923  2.3961
  191SOL    HW3  531   3.803   2.591   4.895 -0.1302 -0.3025 -0.9550
  191SOL    MW4  532   3.730   2.547   4.913  0.2541 -0.4393  0.8640
  192SOL     OW  533   1.285   3.676   1.450 -0.7594 -0.4631  0.1679
  192SOL    HW2  534   1.263   3.607   1.388 -1.2785  1.4400 -1.8760
  192SOL    HW3  535   1.368   3.712   1.419 -0.4021 -0.2477  1.3029
  192SOL    MW4  536   1.293   3.672   1.438 -0.3208  0.5292  0.2736
  193SOL     OW  537   4.496   0.328   2.069 -0.2304  0.3262 -0.0011
  193SOL    HW2  538   4.418   0.349   2.121 -0.3495 -0.8994  0.3547
  193SOL    HW3  539   4.484   0.376   1.987 -0.1848  2.0514  0.9640
  193SOL    MW4  540   4.484   0.337   2.065 -0.1969 -0.1978  0.1368
  194SOL     OW  541   4.741   3.065   2.346 -0.1883 -0.2638 -0.1461
  194SOL    HW2  542   4.791   2.995   2.390  0.2583 -0.4240 -0.8844
  194SOL    HW3  543   4.796   3.090   2.271  0.2648  1.7706  0.7979
  194SOL    MW4  544   4.755   3.059   2.342  0.1507 -0.1288  0.1332
  195SOL     OW  545   4.577   4.143   5.953 -0.1736  0.1849 -0.2419
  195SOL    HW2  546   4.531   4.163   5.872 -2.1053  0.2328  0.8063
  195SOL    HW3  547   4.517   4.169   6.023  1.6031  0.5991  1.2466
  195SOL    MW4  548   4.563   4.149   5.952  0.2636  0.5169 -0.1452
  196SOL     OW  549   2.744   4.135   5.249 -1.1029 -0.2338  0.1280
  196SOL    HW2  550   2.770   4.182   5.328 -2.2161 -0.1871  0.4875
  196SOL    HW3  551   2.685   4.067   5.280 -1.8000 -0.0207 -0.6901
  196SOL    MW4  552   2.739   4.132   5.263  0.0718  0.0666 -0.2087
  197SOL     OW  553   5.275   0.305   2.705 -0.2847  0.5064  0.2161
  197SOL    HW2  554   5.363   0.316   2.740  0.2754 -0.2979 -0.8637
  197SOL    HW3  555   5.240   0.229   2.752  0.3974 -0.4616 -0.7958
  197SOL    MW4  556   5.282   0.296   2.716  0.7151 -0.1166 -0.4925
  198SOL     OW  557   4.373   0.238   2.424 -0.0214  0.2813  0.4306
  198SOL    HW2  558   4.398   0.151   2.394  2.1053  0.3447  1.7519
  198SOL    HW3  559   4.297   0.262   2.371 -0.8577 -2.4749  0.2647
  198SOL    MW4  560   4.367   0.230   2.413 -0.3462 -0.1452 -0.4789
  199SOL     OW  561   0.817   0.605   3.895  0.2294  1.0405 -0.0621
  199SOL    HW2  562   0.906   0.578   3.915 -0.2795  0.7249  2.0111
  199SOL    HW3  563   0.771   0.523   3.874  0.9576  1.4227 -3.9530
  199SOL    MW4  564   0.822   0.590   3.895  0.0571 -0.3991 -0.5269
  200SOL     OW  565   0.939   4.907   0.138 -0.1740  0.1011  0.4357
  200SOL    HW2  566   0.993   4.899   0.217 -0.5382 -0.1312  0.6623
  200SOL    HW3  567   0.853   4.932   0.170 -0.3770 -0.1963  0.1288
  200SOL    MW4  568   0.935   4.909   0.153 -0.2809  0.4770 -0.0684
  201SOL     OW  569   1.920   2.645   2.409  0.2976 -0.0354  0.1374
  201SOL    HW2  570   1.860   2.595   2.354 -0.3663  1.6478 -0.7316
  201SOL    HW3  571   1.982   2.580   2.442 -2.0388 -1.8899  1.1825
  201SOL    MW4  572   1.920   2.629   2.406  0.2010  0.1615  1.2789
  202SOL     OW  573   1.835   0.899   4.886 -0.0243  0.3728 -0.0832
  202SOL    HW2  574   1.791   0.828   4.839 -0.5457  0.5987  0.0587
  202SOL    HW3  575   1.895   0.936   4.821 -1.4466  1.3282 -0.9120
  202SOL    MW4  576   1.837   0.895   4.871  0.2658  0.1078 -0.2315
  203SOL     OW  577   0.746   4.747   4.194  0.4192  0.9172 -0.2721
  203SOL    HW2  578   0.704   4.816   4.143  2.1802  1.8615 -0.5237
  203SOL    HW3  579   0.832   4.783   4.217  0.8045 -0.6263  0.8649
  203SOL    MW4  580   0.752   4.761   4.191  0.2758 -0.2548 -0.1951
  204SOL     OW  581   3.658   5.657   5.492  0.0696 -0.3271 -0.4155
  204SOL    HW2  582   3.657   5.717   5.566  1.2019 -0.8741  0.0652
  204SOL    HW3  583   3.574   5.673   5.447  0.4901  1.8556 -0.5279
  204SOL    MW4  584   3.646   5.667   5.496  0.5717  0.0446 -0.0661
  205SOL     OW  585   1.592   5.993   3.845 -0.0009 -0.3156  0.5655
  205SOL    HW2  586   1.591   5.909   3.890 -1.5764  0.9148  2.9900
  205SOL    HW3  587   1.675   6.034   3.872  0.6065 -0.9082 -0.3481
  205SOL    MW4  588   1.603   5.988   3.854 -0.3034  0.2619  0.3190
  206SOL     OW  589   4.396   1.312   4.749 -1.3801  0.1376 -0.1157
  206SOL    HW2  590   4.468   1.257   4.718 -0.7889 -0.2561  1.7928
  206SOL    HW3  591   4.322   1.252   4.759 -1.2409  0.0227  0.2727
  206SOL    MW4  592   4.396   1.297   4.747 -0.3238 -0.1507  0.3645
  207SOL     OW  593   1.148   0.437   6.398 -0.1593 -0.3815  0.0929
  207SOL    HW2  594   1.164   0.526   6.367 -1.8075  0.9300  2.7105
  207SOL    HW3  595   1.236   0.399   6.404  0.5560  0.8648 -1.4632
  207SOL    MW4  596   1.162   0.444   6.395 -0.0771 -0.5680  0.3571
  208SOL     OW  597   1.945   3.547   5.259  0.2720 -0.7043 -0.4855
  208SOL    HW2  598   1.886   3.491   5.209 -0.4275  0.1657 -0.6555
  208SOL    HW3  599   1.998   3.486   5.311 -2.2694 -1.4644  1.4037
  208SOL    MW4  600   1.944   3.532   5.259  0.2199  0.6406 -0.0217
  209SOL     OW  601   2.688   4.471   0.788 -0.4899 -0.3321 -0.3225
  209SOL    HW2  602   2.646   4.421   0.858 -1.4269 -2.3527 -2.1803
  209SOL    HW3  603   2.749   4.409   0.748 -0.4253  0.5595 -1.6633
  209SOL    MW4  604   2.690   4.456   0.792  0.3291 -0.2733 -0.1621
  210SOL     OW  605   4.596   1.075   0.221  0.5635 -0.0667  0.2878
  210SOL    HW2  606   4.688   1.102   0.215  0.2793  0.8449 -0.2410
  210SOL    HW3  607   4.581   1.060   0.314  0.6124  2.2138  0.7172
  210SOL    MW4  608   4.606   1.077   0.233 -0.8718 -0.2450 -0.1034
  211SOL     OW  609   3.462   4.782   3.120 -0.3259  0.1988  0.3330
  211SOL    HW2  610   3.556   4.789   3.102  0.7999  0.5639  5.0703
  211SOL    HW3  611   3.438   4.695   3.090  1.4262  0.2164 -1.2793
  211SOL    MW4  612   3.471   4.771   3.114 -0.1608  0.4977 -0.3274
  212SOL     OW  613   4.090   5.115   2.753 -0.4911  0.3383  0.5380
  212SOL    HW2  614   4.157   5.165   2.799  0.5574  3.6530 -3.8423
  212SOL    HW3  615   4.013   5.172   2.754 -0.3272  0.7176 -1.7516
  212SOL    MW4  616   4.089   5.129   2.759 -0.5023 -0.1726  0.5680
  213SOL     OW  617   3.517   2.445   5.126 -0.0019  0.0719 -0.4420
  213SOL    HW2  618   3.447   2.509   5.132 -0.6286 -0.7138  1.0511
  213SOL    HW3  619   3.583   2.487   5.071  0.3480  2.7228  1.7600
  213SOL    MW4  620   3.517   2.459   5.120 -0.1934 -0.1463 -0.7628
  214SOL     OW  621   0.936   1.605   0.096 -0.5244  0.0830 -0.7112
  214SOL    HW2  622   0.981   1.619   0.179 -0.0556 -0.4245 -0.8733
  214SOL    HW3  623   0.850   1.570   0.121  0.0308 -1.1723 -0.4554
  214SOL    MW4  624   0.931   1.602   0.110 -0.1374  0.2759 -0.1388
  215SOL     OW  625   4.843   4.371   5.665  0.5077  0.3460  0.5728
  215SOL    HW2  626   4.823   4.354   5.757 -4.4539 -1.6588 -0.5579
  215SOL    HW3  627   4.821   4.463   5.652  0.5951  0.4627  1.2045
  215SOL    MW4  628   4.838   4.381   5.675  0.0487  0.0814 -0.2130
  216SOL     OW  629   5.955   2.133   1.299  0.1650 -0.1988 -0.3642
  216SOL    HW2  630   6.039   2.169   1.272  1.1649 -2.2658 -0.1954
  216SOL    HW3  631   5.925   2.082   1.224 -0.6486  0.0057 -0.1928
  216SOL    MW4  632   5.962   2.131   1.286  0.7844 -0.2946  0.4330
  217SOL     OW  633   1.072   2.027   3.574 -0.4364 -0.0464 -0.4165
  217SOL    HW2  634   1.012   1.953   3.576  0.3998 -0.7427  0.5629
  217SOL    HW3  635   1.016   2.104   3.567 -1.3087 -0.7715 -1.8735
  217SOL    MW4  636   1.057   2.028   3.573  0.3877 -0.2682  0.7881
  218SOL     OW  637   6.115   2.465   0.314 -0.2496 -0.1805 -0.0036
  218SOL    HW2  638   6.128   2.371   0.327  0.7893  0.2552  2.7741
  218SOL    HW3  639   6.153   2.506   0.392 -0.6601  2.5703 -1.1189
  218SOL    MW4  640   6.122   2.458   0.326  0.2613 -0.0964 -0.8644
  219SOL     OW  641   1.168   3.362   1.722 -0.5866 -0.2857  0.3157
  219SOL    HW2  642   1.101   3.412   1.676 -1.4510 -0.1949  1.6313
  219SOL    HW3  643   1.176   3.281   1.672 -0.1481  0.5657 -1.0528
  219SOL    MW4  644   1.160   3.358   1.710  0.4894 -0.2985  0.3399
  220SOL     OW  645   4.915   3.817   0.956  0.0824  0.3390 -0.9370
  220SOL    HW2  646   4.841   3.798   1.014 -0.7060  1.1898 -1.6354
  220SOL    HW3  647   4.895   3.769   0.875  0.6279  0.0495 -0.9076
  220SOL    MW4  648   4.903   3.808   0.953  0.6373 -0.2743  0.1841
  221SOL     OW  649   3.080   0.705   0.260  0.0246 -0.3780 -0.3834
  221SOL    HW2  650   3.163   0.745   0.233  2.1062 -3.8436  0.1973
  221SOL    HW3  651   3.061   0.642   0.191 -0.9186 -1.1569  0.5668
  221SOL    MW4  652   3.089   0.702   0.248  0.5543  0.5471  0.0381
  222SOL     OW  653   5.368   2.601   2.291 -0.5741  0.5148 -0.1984
  222SOL    HW2  654   5.413   2.572   2.371 -1.2564  0.8441  0.3105
  222SOL    HW3  655   5.439   2.625   2.231 -0.0049  3.4993  1.4892
  222SOL    MW4  656   5.383   2.600   2.294  0.3618 -0.3127  0.1945
  223SOL     OW  657   2.729   3.839   1.007  0.0959 -0.3044  0.1178
  223SOL    HW2  658   2.756   3.783   0.935 -0.4440  0.0117 -0.3428
  223SOL    HW3  659   2.762   3.926   0.983  0.2545 -0.2722  0.4447
  223SOL    MW4  660   2.737   3.843   0.994 -0.0631 -0.0278 -0.2121
  224SOL     OW  661   1.198   6.076   0.312  0.2993 -0.5051 -0.6422
  224SOL    HW2  662   1.289   6.102   0.297  0.1503  2.4589  2.4629
  224SOL    HW3  663   1.204   6.004   0.374  0.5318 -0.5055 -0.6626
  224SOL    MW4  664   1.211   6.070   0.318  1.1379  0.2773  0.4787
  225SOL     OW  665   2.126   5.188   5.160 -0.5435  0.0162 -0.0287
  225SOL    HW2  666   2.084   5.102   5.151 -1.9176  0.5264  1.0476
  225SOL    HW3  667   2.095   5.220   5.245  0.1581  1.4575 -0.2971
  225SOL    MW4  668   2.116   5.181   5.170  0.9595 -0.1783 -0.2449
  226SOL     OW  669   5.051   2.751   2.036  0.0231  0.7589 -0.4254
  226SOL    HW2  670   4.970   2.729   1.989 -0.2585 -0.9474  0.7658
  226SOL    HW3  671   5.088   2.825   1.987 -1.9256  1.1783 -1.3665
  226SOL    MW4  672   5.045   2.758   2.023 -0.0857  0.5643  0.3857
  227SOL     OW  673   1.940   6.049   0.639 -0.1546 -0.0035 -0.2376
  227SOL    HW2  674   1.857   6.039   0.686 -0.2663  0.8001 -0.2541
  227SOL    HW3  675   1.914   6.055   0.547  0.0167 -0.9010 -0.3588
  227SOL    MW4  676   1.925   6.048   0.633  0.3033  0.3099  0.5507
  228SOL     OW  677   4.994   3.833   5.260 -0.5133 -0.5281 -0.0612
  228SOL    HW2  678   4.977   3.886   5.339 -0.8143  0.1760 -0.5825
  228SOL    HW3  679   5.058   3.884   5.211  0.3783 -1.4140  0.1538
  228SOL    MW4  680   5.000   3.847   5.264  0.8546  0.8936  0.0554
  229SOL     OW  681   2.194   2.837   3.577 -0.0225  0.1493  0.0640
  229SOL    HW2  682   2.285   2.865   3.591  0.6703 -2.0376  0.4298
  229SOL    HW3  683   2.195   2.794   3.491 -0.3685 -1.0228  0.6214
  229SOL    MW4  684   2.207   2.835   3.568  0.0456 -0.4605 -0.0024
  230SOL     OW  685   0.466   2.588   1.576  0.1711  0.9547  0.5206
  230SOL    HW2  686   0.457   2.642   1.497  0.6141  2.7326  1.6359
  230SOL    HW3  687   0.559   2.590   1.595 -0.0202  1.1014  1.4662
  230SOL    MW4  688   0.477   2.595   1.568  0.0867  0.3161  0.2031
  231SOL     OW  689   1.072   2.340   0.020  0.1624 -0.4356 -0.2404
  231SOL    HW2  690   1.004   2.406   0.009 -0.2187 -0.7441  0.2246
  231SOL    HW3  691   1.032   2.273   0.076  1.2273 -0.0495  1.0268
  231SOL    MW4  692   1.058   2.339   0.026  0.0959  0.0026  0.3372
  232SOL     OW  693   6.048   5.669   4.713 -0.3513 -0.1088 -0.5016
  232SOL    HW2  694   6.070   5.600   4.650  2.3869 -0.2786  0.5090
  232SOL    HW3  695   5.954   5.660   4.727 -0.4092 -2.3493 -1.8987
  232SOL    MW4  696   6.039   5.659   4.707 -0.0655  0.4538 -0.6331
  233SOL     OW  697   5.654   5.794   0.023  0.0176  0.0557 -0.9224
  233SOL    HW2  698   5.643   5.726  -0.044  0.3731  0.4626 -1.3955
  233SOL    HW3  699   5.582   5.855   0.008 -0.5921 -0.4489 -0.1902
  233SOL    MW4  700   5.643   5.793   0.012  0.0952  0.1936 -0.0225
  234SOL     OW  701   5.074   6.276   5.123  0.0002  0.2353 -0.3554
  234SOL    HW2  702   5.132   6.346   5.152 -0.9968  0.6080  0.8476
  234SOL    HW3  703   5.004   6.321   5.077 -1.1979  0.1986  1.3246
  234SOL    MW4  704   5.073   6.291   5.121  0.4536  0.0734 -0.5459
  235SOL     OW  705   5.716   0.425   3.664 -0.3306 -0.1758 -0.1125
  235SOL    HW2  706   5.727   0.364   3.591  0.0217 -1.1415  0.7227
  235SOL    HW3  707   5.635   0.471   3.645 -1.0841 -1.5481 -0.3425
  235SOL    MW4  708   5.707   0.423   3.652  0.0157  0.2086 -0.1057
  236SOL     OW  709   1.877   3.631   5.559  0.1955 -0.2197  0.2130
  236SOL    HW2  710   1.787   3.655   5.537  0.0559 -0.8059  0.1263
  236SOL    HW3  711   1.919   3.615   5.474  0.0492 -1.1023  0.3002
  236SOL    MW4  712   1.871   3.632   5.545 -0.1805  0.0405 -0.3154
  237SOL     OW  713   4.224   2.860   2.425 -0.2627 -0.2471  0.1378
  237SOL    HW2  714   4.242   2.953   2.418 -3.0208  0.3758  0.1079
  237SOL    HW3  715   4.256   2.836   2.512  0.2472  0.7695  0.2450
  237SOL    MW4  716   4.230   2.869   2.436 -0.6030 -0.9900  0.0075
  238SOL     OW  717   3.439   1.239   5.834 -0.0478 -0.3616  0.0486
  238SOL    HW2  718   3.467   1.290   5.910  0.6573 -1.3315  0.4568
  238SOL    HW3  719   3.520   1.215   5.789 -0.4266 -0.2901 -0.6888
  238SOL    MW4  720   3.453   1.242   5.838 -0.4324 -0.0945  0.0423
  239SOL     OW  721   2.051   5.635   4.251 -0.5184  0.2537 -0.2218
  239SOL    HW2  722   1.995   5.569   4.291  0.5264  0.0872  1.0382
  239SOL    HW3  723   2.025   5.717   4.293 -0.9971  0.4727 -0.9191
  239SOL    MW4  724   2.040   5.637   4.262  0.0702 -0.2771  0.1195
  240SOL     OW  725   4.513   5.794   1.803 -0.2054 -0.6965  0.2955
  240SOL    HW2  726   4.512   5.729   1.873 -0.5029 -1.2155 -0.1779
  240SOL    HW3  727   4.479   5.873   1.844  0.8757 -0.6154  1.0799
  240SOL    MW4  728   4.508   5.795   1.818 -0.1650 -0.1770 -0.5299
  241SOL     OW  729   5.904   4.120   1.897 -0.1980  0.3884 -0.1716
  241SOL    HW2  730   5.820   4.108   1.941  0.1782  1.3206  0.8631
  241SOL    HW3  731   5.925   4.213   1.911  1.4523 -0.0326  0.4444
  241SOL    MW4  732   5.896   4.131   1.905  0.0203  0.3868  0.7480
  242SOL     OW  733   1.747   4.348   4.986 -0.5531 -0.3593  0.1278
  242SOL    HW2  734   1.772   4.260   5.011  1.2782  0.0147 -0.2418
  242SOL    HW3  735   1.781   4.404   5.057 -0.1930  0.1884 -0.4644
  242SOL    MW4  736   1.755   4.344   4.999  0.1916 -0.0020  0.1872
  243SOL     OW  737   0.933   1.545   3.375 -0.0396  0.4076 -0.6261
  243SOL    HW2  738   0.950   1.451   3.368 -1.8532 -0.1307  1.0873
  243SOL    HW3  739   1.012   1.580   3.417  0.3180 -0.5154 -0.4896
  243SOL    MW4  740   0.946   1.537   3.380  0.4141 -0.7124 -0.7101
  244SOL     OW  741   1.097   0.749   1.526 -0.1295  0.0088 -0.1409
  244SOL    HW2  742   1.021   0.797   1.495 -1.1315 -2.1733 -1.3117
  244SOL    HW3  743   1.070   0.714   1.611  0.2658  0.7124  0.2867
  244SOL    MW4  744   1.083   0.751   1.533 -0.3880  0.6342 -0.5860
  245SOL     OW  745   4.020   5.935   4.562  0.1094 -0.2365  0.2069
  245SOL    HW2  746   4.110   5.926   4.530 -0.5594 -0.8348 -1.6447
  245SOL    HW3  747   3.969   5.959   4.484 -1.5048 -0.9512  0.9899
  245SOL    MW4  748   4.025   5.937   4.547  0.5272  0.7100 -0.2925
  246SOL     OW  749   2.996   4.839   1.924  0.0875  0.1749 -0.3977
  246SOL    HW2  750   3.042   4.756   1.932  1.9863  1.1128 -0.9576
  246SOL    HW3  751   3.016   4.869   1.835  0.6401  1.8712  0.2497
  246SOL    MW4  752   3.005   4.832   1.913 -0.6842  0.4102  0.4306
  247SOL     OW  753   0.892   1.365   4.584 -0.3322 -0.2663  0.0329
  247SOL    HW2  754   0.894   1.331   4.673  2.1797  0.2546  0.2476
  247SOL    HW3  755   0.812   1.418   4.581 -0.8494 -0.8700  1.7238
  247SOL    MW4  756   0.882   1.367   4.595  0.4228 -0.7705 -0.2868
  248SOL     OW  757   1.458   0.406   3.674  0.5573 -0.0359 -0.4670
  248SOL    HW2  758   1.392   0.468   3.644  0.3055  1.1904  2.3003
  248SOL    HW3  759   1.445   0.402   3.769  3.3893 -1.0412 -0.0356
  248SOL    MW4  760   1.447   0.414   3.683  0.1034  0.1444 -0.1653
  249SOL     OW  761   6.158   2.492   0.591  0.2336  0.0073  0.3182
  249SOL    HW2  762   6.069   2.504   0.624  0.3370  1.0083  0.2433
  249SOL    HW3  763   6.212   2.547   0.646  0.7057  0.0032 -0.1317
  249SOL    MW4  764   6.153   2.501   0.602  0.9156  0.2535 -0.7481
  250SOL     OW  765   4.867   1.620   6.207 -0.5150  0.9239  0.1535
  250SOL    HW2  766   4.829   1.537   6.237 -0.4620  1.5467  2.1530
  250SOL    HW3  767   4.950   1.627   6.255 -0.1599  1.7763 -0.5537
  250SOL    MW4  768   4.873   1.610   6.218  0.0292  0.0718  0.0529
  251SOL     OW  769   2.653   0.539   1.816 -0.1642 -0.4426 -0.1209
  251SOL    HW2  770   2.648   0.630   1.788 -0.0192 -0.1003  0.9018
  251SOL    HW3  771   2.589   0.533   1.887 -1.3515 -1.5677 -1.2371
  251SOL    MW4  772   2.644   0.550   1.822 -0.0518  0.8125  0.7754
  252SOL     OW  773   6.051   5.209   5.965  0.8212 -0.0851  0.1353
  252SOL    HW2  774   6.142   5.239   5.964  0.7926  0.4243  3.1295
  252SOL    HW3  775   6.002   5.281   5.925  1.6651 -0.2565 -1.2743
  252SOL    MW4  776   6.056   5.222   5.959 -0.3965 -0.5614 -0.2297
  253SOL     OW  777   0.902   1.301   4.840 -0.5064  0.3064 -0.5437
  253SOL    HW2  778   0.930   1.219   4.882 -0.8056  0.4074 -0.1367
  253SOL    HW3  779   0.896   1.364   4.913  0.0690  0.7905 -0.9005
  253SOL    MW4  780   0.905   1.299   4.855 -0.3665  0.1816  0.8309
  254SOL     OW  781   4.478   2.023   0.972 -0.0744  0.2487  0.6364
  254SOL    HW2  782   4.477   1.930   0.997 -1.4150  0.0393 -0.1307
  254SOL    HW3  783   4.431   2.067   1.043  1.4463  0.5208  1.5282
  254SOL    MW4  784   4.472   2.016   0.985  0.4098 -0.6192  0.4020
  255SOL     OW  785   0.303   0.093   3.784  0.2158  0.0643 -0.9166
  255SOL    HW2  786   0.350   0.019   3.823 -0.5786 -0.4453 -0.8928
  255SOL    HW3  787   0.332   0.169   3.834  1.3401 -0.1658 -1.1907
  255SOL    MW4  788   0.313   0.093   3.795 -0.4573  0.0307  0.6279
  256SOL     OW  789   5.858   3.243   0.442  0.1582 -0.0485 -0.1558
  256SOL    HW2  790   5.924   3.192   0.489  1.1908  2.3047  1.1117
  256SOL    HW3  791   5.780   3.187   0.442  0.9051 -1.2232  2.0662
  256SOL    MW4  792   5.857   3.229   0.448  0.0379  0.0833 -0.3551
  257SOL     OW  793   0.428   0.783   5.562  0.1992  0.4602  0.2353
  257SOL    HW2  794   0.408   0.834   5.483  0.5556 -0.0958 -0.2202
  257SOL    HW3  795   0.345   0.745   5.588  0.0588  0.7368  0.1936
  257SOL    MW4  796   0.415   0.785   5.555 -0.2256  0.1925  0.1536
  258SOL     OW  797   3.581   4.714   2.768  0.3442  0.0712  0.3835
  258SOL    HW2  798   3.620   4.731   2.683 -1.1520 -1.5655 -0.7009
  258SOL    HW3  799   3.602   4.623   2.787  0.2251  0.2660  1.5224
  258SOL    MW4  800   3.589   4.704   2.759  0.5841 -0.0541 -0.2137
  259SOL     OW  801   6.407   2.697   5.628 -0.3733  0.5028  0.6280
  259SOL    HW2  802   6.356   2.666   5.554  0.6854  2.1526 -0.8700
  259SOL    HW3  803   6.422   2.789   5.610  0.7427  0.7133  2.4216
  259SOL    MW4  804   6.403   2.705   5.616  0.1219  0.0119  0.0452
  260SOL     OW  805   0.021   4.682   3.637  0.2002  0.0454 -0.3152
  260SOL    HW2  806   0.026   4.608   3.576 -0.4382 -1.2608  1.1430
  260SOL    HW3  807  -0.068   4.679   3.671  0.0864  1.6618 -0.4036
  260SOL    MW4  808   0.010   4.671   3.633  0.0431 -0.0849  0.0373
  261SOL     OW  809   4.633   1.183   0.969 -0.1834 -0.0096 -0.7364
  261SOL    HW2  810   4.648   1.143   1.055 -1.4379 -1.4627 -1.1265
  261SOL    HW3  811   4.716   1.175   0.923  0.2540 -0.0101  0.0450
  261SOL    MW4  812   4.646   1.176   0.974 -0.0319 -0.1144 -0.2145
  262SOL     OW  813   1.727   4.974   1.100 -0.2438  0.8175  0.1545
  262SOL    HW2  814   1.772   4.924   1.032  2.5591  0.4114  2.1242
  262SOL    HW3  815   1.768   5.061   1.097 -1.7944  1.5679 -0.2040
  262SOL    MW4  816   1.739   4.979   1.091 -0.2116 -0.1460 -0.6787
  263SOL     OW  817   0.215   0.207   1.729  0.0712  0.3410  0.4073
  263SOL    HW2  818   0.212   0.116   1.700 -0.7015  0.5154 -0.0906
  263SOL    HW3  819   0.233   0.201   1.823  2.4965 -0.2272 -0.0253
  263SOL    MW4  820   0.217   0.194   1.738  0.3201 -0.1318  0.3257
  264SOL     OW  821   2.480   3.736   1.053  0.4937  0.1136  0.1118
  264SOL    HW2  822   2.465   3.739   0.959 -0.9006 -1.5008  0.2139
  264SOL    HW3  823   2.556   3.792   1.068  1.5380 -0.5858 -2.1238
  264SOL    MW4  824   2.488   3.744   1.043 -0.2514 -0.2114 -0.5359
  265SOL     OW  825   1.592   0.566   0.772 -0.3314  0.4687 -0.2019
  265SOL    HW2  826   1.541   0.647   0.771 -0.3244  0.4743 -0.1448
  265SOL    HW3  827   1.565   0.522   0.854 -0.3888  0.3793 -0.2678
  265SOL    MW4  828   1.582   0.571   0.783 -0.2118  0.5595 -0.1696
  266SOL     OW  829   2.705   5.098   4.681  0.1873 -0.7267  0.7969
  266SOL    HW2  830   2.767   5.068   4.615 -0.6105 -2.4667  0.7649
  266SOL    HW3  831   2.623   5.053   4.659 -0.7296  0.4661  1.6189
  266SOL    MW4  832   2.702   5.088   4.669 -0.0428  0.3274 -0.0129
  267SOL     OW  833   5.138   1.938   5.638  0.0630  0.4225 -0.0096
  267SOL    HW2  834   5.185   2.011   5.679  0.7614  1.0866 -1.8896
  267SOL    HW3  835   5.047   1.949   5.667  0.8614 -0.5882  3.2878
  267SOL    MW4  836   5.132   1.949   5.648  0.3672  0.1988  0.2855
  268SOL     OW  837   2.238   2.638   5.936 -0.0587 -0.0438 -0.4919
  268SOL    HW2  838   2.240   2.542   5.945 -0.8907 -0.1191 -1.0566
  268SOL    HW3  839   2.261   2.670   6.023 -1.0186 -0.7565  0.0474
  268SOL    MW4  840   2.242   2.629   5.948  0.3441 -0.3711  0.2498
  269SOL     OW  841   0.852   4.477   4.398 -0.0581  0.1995 -0.3375
  269SOL    HW2  842   0.797   4.399   4.392 -0.3047  0.3882 -0.5324
  269SOL    HW3  843   0.896   4.482   4.313 -1.1330  1.0752 -0.8638
  269SOL    MW4  844   0.850   4.467   4.386  0.2939 -0.4965  0.1371
  270SOL     OW  845   0.514   0.990   3.267  0.5831  0.2137 -0.7470
  270SOL    HW2  846   0.547   1.079   3.276  0.5951  0.3372 -1.8417
  270SOL    HW3  847   0.530   0.950   3.352 -2.2438  2.1591  0.8729
  270SOL    MW4  848   0.521   0.996   3.280  0.2303 -0.3117  0.1509
  271SOL     OW  849   2.138   1.781   2.410 -0.1317 -0.4623 -0.3849
  271SOL    HW2  850   2.224   1.746   2.388  0.4033 -0.7445  1.8870
  271SOL    HW3  851   2.076   1.721   2.368  0.7620 -0.5437 -1.6349
  271SOL    MW4  852   2.141   1.768   2.401 -0.4127 -0.4116 -0.6255
  272SOL     OW  853   1.366   4.347   2.074 -0.1082 -0.1347 -0.2777
  272SOL    HW2  854   1.434   4.296   2.030  0.0754 -0.7040  0.6323
  272SOL    HW3  855   1.367   4.432   2.029 -0.0709 -0.7504 -1.4810
  272SOL    MW4  856   1.375   4.352   2.062 -0.4711  0.3456  0.2539
  273SOL     OW  857   5.610   4.056   3.508  0.3976 -0.4244 -0.1022
  273SOL    HW2  858   5.667   4.108   3.451 -2.0224  2.7585  0.1244
  273SOL    HW3  859   5.563   3.998   3.449  0.6454  0.1215 -0.8486
  273SOL    MW4  860   5.612   4.055   3.493  0.0825 -0.3181  0.7497
  274SOL     OW  861   1.668   6.207   5.335 -0.4578  0.6968 -0.4326
  274SOL    HW2  862   1.619   6.125   5.345 -1.0133  1.3247  3.4738
  274SOL    HW3  863   1.610   6.264   5.284 -0.9342 -0.6206 -1.4148
  274SOL    MW4  864   1.654   6.204   5.329 -0.4953  0.4241 -0.1038
  275SOL     OW  865   4.642   1.807   4.329  0.0544  0.0005 -0.3233
  275SOL    HW2  866   4.682   1.844   4.250 -0.3625  0.3846 -0.3554
  275SOL    HW3  867   4.548   1.816   4.315 -0.0186  0.5236  0.4241
  275SOL    MW4  868   4.635   1.813   4.317  0.2885 -0.2830  0.3250
  276SOL     OW  869   0.782   6.209   3.553 -0.3460 -0.0686  0.0028
  276SOL    HW2  870   0.845   6.153   3.509 -0.5199 -1.5843  1.5767
  276SOL    HW3  871   0.708   6.215   3.493 -0.3183 -1.5442 -0.1960
  276SOL    MW4  872   0.780   6.203   3.539 -0.1239  0.2663 -0.0348
  277SOL     OW  873   2.166   0.081   5.126 -0.2211 -0.3061  0.3473
  277SOL    HW2  874   2.129   0.018   5.189  0.6204 -0.3366  0.8209
  277SOL    HW3  875   2.163   0.165   5.171  0.6583 -0.3780  0.5408
  277SOL    MW4  876   2.160   0.083   5.140  0.3327 -0.6462 -0.1557
  278SOL     OW  877   1.144   0.845   3.075  0.1922  0.3700 -0.3231
  278SOL    HW2  878   1.091   0.865   3.153  0.5744  0.2090 -0.0163
  278SOL    HW3  879   1.233   0.869   3.100  0.0603  2.0599 -1.3600
  278SOL    MW4  880   1.149   0.851   3.089 -0.0591 -0.2280 -0.3003
  279SOL     OW  881   0.871   3.609   2.546  0.6659  0.1186 -0.4994
  279SOL    HW2  882   0.833   3.521   2.554  0.5689  0.1316 -0.8014
  279SOL    HW3  883   0.795   3.666   2.535  0.6014  0.4648  1.4224
  279SOL    MW4  884   0.856   3.605   2.546  0.3489  0.2117 -0.6847
  280SOL     OW  885   3.212   0.942   6.331  0.5331  0.4481  0.4149
  280SOL    HW2  886   3.123   0.913   6.312  1.3133 -1.5250 -0.4277
  280SOL    HW3  887   3.215   0.948   6.427  0.0906 -1.5621  0.5916
  280SOL    MW4  888   3.201   0.939   6.341 -0.3128 -0.6103 -0.1592
  281SOL     OW  889   4.135   1.680   4.866 -0.6103  0.1572  0.3026
  281SOL    HW2  890   4.084   1.674   4.947 -2.4911  0.8454 -0.7519
  281SOL    HW3  891   4.070   1.668   4.796  0.8889 -0.0589 -1.1171
  281SOL    MW4  892   4.120   1.678   4.867 -0.5838  0.1651 -0.1242
  282SOL     OW  893   3.307   2.961   5.444 -0.5686 -0.3778  0.8661
  282SOL    HW2  894   3.332   2.868   5.442  0.7301 -0.0744 -1.9932
  282SOL    HW3  895   3.369   3.001   5.504  0.5494 -1.0015  0.1733
  282SOL    MW4  896   3.318   2.954   5.451 -0.2544  0.4378  0.1034
  283SOL     OW  897   2.786   4.774   6.422 -0.0816 -0.0097 -0.2245
  283SOL    HW2  898   2.752   4.861   6.444 -0.2078 -0.1159  0.0018
  283SOL    HW3  899   2.720   4.736   6.364 -0.6339 -0.4374  0.6652
  283SOL    MW4  900   2.773   4.780   6.417 -0.2419 -0.3209 -0.6993
  284SOL     OW  901   4.267   2.569   5.548 -0.3347  0.0072 -0.3845
  284SOL    HW2  902   4.333   2.566   5.478  0.0801  0.0942  0.0042
  284SOL    HW3  903   4.315   2.598   5.625 -0.2540 -2.4656  0.5760
  284SOL    MW4  904   4.282   2.573   5.549 -0.4544 -0.3082 -0.0071
  285SOL     OW  905   4.387   5.488   4.693  0.1055 -0.2368 -0.4558
  285SOL    HW2  906   4.426   5.491   4.780 -0.1731 -2.4522 -0.1973
  285SOL    HW3  907   4.381   5.580   4.666  1.0169  0.4410  1.4681
  285SOL    MW4  908   4.391   5.501   4.701 -0.3809  0.1302 -0.1716
  286SOL     OW  909   2.931   2.304   5.409 -0.2810  0.0177 -0.0614
  286SOL    HW2  910   2.963   2.227   5.363  2.0600  0.7502  0.1953
  286SOL    HW3  911   2.986   2.309   5.488  0.1172  2.2831 -0.4103
  286SOL    MW4  912   2.943   2.295   5.413 -0.6282 -0.4065 -0.2612
  287SOL     OW  913   2.026   0.581   4.964 -0.2200 -0.3965  0.4230
  287SOL    HW2  914   2.002   0.651   5.024  0.1420  0.1917 -0.1117
  287SOL    HW3  915   2.026   0.622   4.878  1.6946 -0.5952  0.2778
  287SOL    MW4  916   2.023   0.595   4.961 -0.1125  0.3985  0.2359
  288SOL     OW  917   4.243   3.631   0.363  0.0212 -0.0872  0.5130
  288SOL    HW2  918   4.308   3.583   0.415 -2.4574 -1.8249  2.2579
  288SOL    HW3  919   4.205   3.566   0.305  1.4220  1.4455 -2.3474
  288SOL    MW4  920   4.247   3.616   0.362 -0.1797 -0.0178 -0.2497
  289SOL     OW  921   5.950   0.835   0.008 -0.2380 -0.0713  0.1535
  289SOL    HW2  922   6.043   0.816   0.013 -0.3108 -0.3423  0.5801
  289SOL    HW3  923   5.912   0.759  -0.036 -0.8682 -2.2523  4.0045
  289SOL    MW4  924   5.957   0.822   0.003 -0.0673  0.8625 -0.1836
  290SOL     OW  925   0.711   3.261   6.008  0.3674 -0.4297  0.5168
  290SOL    HW2  926   0.759   3.210   5.942 -0.3939 -0.1732 -0.2633
  290SOL    HW3  927   0.646   3.200   6.043  1.0287 -0.6811  1.3321
  290SOL    MW4  928   0.709   3.246   6.004 -0.2444 -0.2746  0.4985
  291SOL     OW  929   2.003   2.626   5.619 -0.1013 -0.2117 -0.3151
  291SOL    HW2  930   2.091   2.652   5.645 -0.3385 -0.1509  0.4707
  291SOL    HW3  931   1.961   2.707   5.590 -0.0783 -0.1402 -0.1485
  291SOL    MW4  932   2.009   2.640   5.619  0.2739 -0.4142 -0.4829
  292SOL     OW  933   5.356   3.409   1.923  0.1107 -0.6050  0.2991
  292SOL    HW2  934   5.354   3.415   1.828  0.8169  2.8546  0.3576
  292SOL    HW3  935   5.265   3.391   1.948 -0.3714 -0.0759 -0.9872
  292SOL    MW4  936   5.344   3.408   1.914  0.1461 -0.5218 -0.2624
  293SOL     OW  937   1.960   0.909   2.609  0.3250 -0.3248 -0.4608
  293SOL    HW2  938   1.974   1.003   2.598  1.9591 -0.1905  1.8824
  293SOL    HW3  939   1.866   0.901   2.628 -0.6810  0.2863 -4.3496
  293SOL    MW4  940   1.949   0.920   2.610  0.0105  0.5610 -0.2369
  294SOL     OW  941   5.607   0.781   4.780  0.1319  0.2041 -0.1175
  294SOL    HW2  942   5.638   0.819   4.698  1.5497 -0.8197 -0.0770
  294SOL    HW3  943   5.612   0.687   4.767  0.6960  0.0191  1.2653
  294SOL    MW4  944   5.612   0.774   4.768  0.0183  0.3078 -0.5375
  295SOL     OW  945   3.465   4.417   2.627 -0.3405 -0.4295 -0.4339
  295SOL    HW2  946   3.400   4.463   2.680  0.2732 -1.8330  1.6963
  295SOL    HW3  947   3.424   4.333   2.607  0.3456 -0.8596 -0.0876
  295SOL    MW4  948   3.451   4.412   2.631  0.1952 -0.1029  0.3302
  296SOL     OW  949   2.161   1.207   1.927 -0.0340  0.6223 -0.1676
  296SOL    HW2  950   2.132   1.288   1.969 -1.1648  0.3475 -0.3625
  296SOL    HW3  951   2.090   1.186   1.866 -0.7572 -1.5500  1.2769
  296SOL    MW4  952   2.148   1.215   1.925 -0.0952  0.5203 -0.3053
  297SOL     OW  953   4.555   1.758   2.525  0.2996 -0.0958 -0.0489
  297SOL    HW2  954   4.543   1.680   2.580 -0.7859  0.1309  0.0466
  297SOL    HW3  955   4.467   1.785   2.502  0.6328  1.5377  0.4960
  297SOL    MW4  956   4.542   1.751   2.529  0.4701  0.1644 -0.5466
  298SOL     OW  957   5.846   3.742   4.323  0.2432  0.3114 -0.1069
  298SOL    HW2  958   5.763   3.753   4.369  0.0622 -0.5491 -0.2046
  298SOL    HW3  959   5.859   3.825   4.277 -0.4061  0.5722  0.1639
  298SOL    MW4  960   5.836   3.754   4.323  1.0599 -0.2968  0.3265
  299SOL     OW  961   1.915   6.090   3.635 -0.5945 -0.5979  0.0920
  299SOL    HW2  962   1.873   6.115   3.718  0.7275  0.6371  0.4346
  299SOL    HW3  963   1.963   6.010   3.656  0.2314  0.0436  0.7127
  299SOL    MW4  964   1.916   6.083   3.649 -0.3406  0.0131  0.4839
  300SOL     OW  965  -0.003   3.363   1.611 -0.3320  0.5551 -0.1668
  300SOL    HW2  966   0.025   3.296   1.673  2.8019  2.0720  0.2486
  300SOL    HW3  967  -0.062   3.317   1.551  0.3041 -2.1067  1.1054
  300SOL    MW4  968  -0.007   3.348   1.611  0.3428  0.2908 -0.6071
  301SOL     OW  969   3.307   2.972   1.168  0.6467  0.1604 -0.4062
  301SOL    HW2  970   3.385   2.946   1.119  0.6881  0.7866 -0.6697
  301SOL    HW3  971   3.273   3.048   1.121 -0.4705 -0.4754 -0.6522
  301SOL    MW4  972   3.313   2.978   1.155  0.3640 -0.4571  0.0712
  302SOL     OW  973   2.917   5.723   2.421  0.0632  0.0522  0.0923
  302SOL    HW2  974   2.894   5.689   2.334 -1.9188 -0.5494  0.8137
  302SOL    HW3  975   2.972   5.654   2.459 -0.0673 -0.2382 -0.2347
  302SOL    MW4  976   2.921   5.709   2.414  0.4019  0.2369  0.2942
  303SOL     OW  977   1.040   3.820   6.240  0.8012 -0.0244  0.2395
  303SOL    HW2  978   1.110   3.884   6.252  0.2940  0.1883  2.5121
  303SOL    HW3  979   1.044   3.765   6.319  0.5036 -2.1182 -1.1199
  303SOL    MW4  980   1.049   3.821   6.252 -0.5273  0.2267 -0.2897
  304SOL     OW  981   6.023   4.682   0.478  0.4668 -0.4255  0.4419
  304SOL    HW2  982   5.950   4.621   0.472 -0.1064  0.3342 -0.5618
  304SOL    HW3  983   6.016   4.736   0.399  1.0290  0.8600  1.2421
  304SOL    MW4  984   6.013   4.681   0.467 -0.2149  0.1360 -0.6030
  305SOL     OW  985   1.254   4.182   0.621 -0.6182 -0.1716 -0.1600
  305SOL    HW2  986   1.282   4.215   0.706  1.2122 -0.0139 -0.7796
  305SOL    HW3  987   1.233   4.090   0.636  1.4669 -0.6409  0.1512
  305SOL    MW4  988   1.255   4.174   0.634  0.2347  0.0867  0.2829
  306SOL     OW  989   3.993   1.960   0.058 -0.5972  0.1833 -0.5552
  306SOL    HW2  990   3.971   2.028   0.122  0.0439  0.4657 -0.6363
  306SOL    HW3  991   3.914   1.951   0.005 -1.0561  0.1135  0.1244
  306SOL    MW4  992   3.979   1.968   0.060 -0.4527 -0.3341 -0.3564
  307SOL     OW  993   4.948   1.924   3.643 -0.1852  0.4692 -0.1893
  307SOL    HW2  994   4.865   1.969   3.626 -0.6315 -0.9249 -1.9170
  307SOL    HW3  995   4.981   1.965   3.723 -2.1382  1.6072  0.0933
  307SOL    MW4  996   4.942   1.935   3.651  0.0873  0.6811  0.0689
  308SOL     OW  997   3.572   5.736   2.896 -0.3120  0.0559  0.2909
  308SOL    HW2  998   3.540   5.790   2.825  1.4857  1.9384  0.8336
  308SOL    HW3  999   3.666   5.730   2.882 -0.1371 -0.8598  1.6279
  308SOL    MW4 1000   3.580   5.742   2.885  0.3137 -0.0193 -0.0710
  309SOL     OW 1001   2.840   1.063   5.490  0.3310  0.1565  0.0475
  309SOL    HW2 1002   2.818   0.981   5.533  0.3792  0.2956  0.3384
  309SOL    HW3 1003   2.899   1.038   5.418 -0.8246 -0.2330 -0.7979
  309SOL    MW4 1004   2.845   1.049   5.486  0.3234 -0.5137 -0.0049
  310SOL     OW 1005   3.011   4.191   4.734  0.3593  0.4223 -0.2231
  310SOL    HW2 1006   3.012   4.273   4.783  1.8530 -0.0023  0.5244
  310SOL    HW3 1007   2.957   4.209   4.657 -1.4752  1.3157  1.1890
  310SOL    MW4 1008   3.004   4.204   4.731 -0.1393 -0.3168  0.0082
  311SOL     OW 1009   2.675   4.456   5.943 -0.0989 -0.1764 -0.0749
  311SOL    HW2 1010   2.640   4.472   5.855 -0.0277 -0.1737 -0.1033
  311SOL    HW3 1011   2.723   4.374   5.935 -1.8812 -1.3336  0.4754
  311SOL    MW4 1012   2.677   4.448   5.930  0.3504  0.0909  0.0410
  312SOL     OW 1013   5.484   5.571   3.376  0.2836 -0.6207 -0.7564
  312SOL    HW2 1014   5.498   5.634   3.306  0.4332 -0.8727 -0.9551
  312SOL    HW3 1015   5.526   5.491   3.345 -1.1556 -1.2553 -1.1561
  312SOL    MW4 1016   5.492   5.569   3.363 -0.2615  0.1553  0.6136
  313SOL     OW 1017   1.110   6.203   4.838 -0.4280  0.6954  0.4536
  313SOL    HW2 1018   1.074   6.147   4.906 -0.2195  1.3182  1.0811
  313SOL    HW3 1019   1.081   6.291   4.860  1.3340  1.2076  0.9060
  313SOL    MW4 1020   1.102   6.207   4.850 -0.1703 -0.2093 -0.5544
  314SOL     OW 1021   4.747   5.286   1.165 -0.0549 -0.4687  0.3919
  314SOL    HW2 1022   4.803   5.294   1.087 -0.3628  2.8925  0.3778
  314SOL    HW3 1023   4.802   5.240   1.228  1.8790  0.5812 -0.4103
  314SOL    MW4 1024   4.762   5.281   1.163 -0.0814 -0.0335 -0.8074
  315SOL     OW 1025   1.858   1.659   4.589  0.1457  0.2756  0.5680
  315SOL    HW2 1026   1.900   1.628   4.669  0.5780 -0.5592  0.0302
  315SOL    HW3 1027   1.790   1.595   4.570  2.0516 -1.3430 -1.3979
  315SOL    MW4 1028   1.855   1.647   4.597  0.2187  0.2188 -0.7268
  316SOL     OW 1029   2.934   0.884   3.209 -0.2878 -0.2983  0.6251
  316SOL    HW2 1030   3.027   0.863   3.203 -0.5369 -1.0938 -1.4558
  316SOL    HW3 1031   2.893   0.805   3.242 -0.4600 -0.8468 -0.8112
  316SOL    MW4 1032   2.941   0.871   3.212  0.2601  0.1998 -0.3661
  317SOL     OW 1033   0.069   1.739   3.742  0.1259  0.2959  0.4321
  317SOL    HW2 1034   0.054   1.717   3.833 -0.6978  0.3176  0.3110
  317SOL    HW3 1035   0.117   1.665   3.706  0.3682  0.2467  0.8565
  317SOL    MW4 1036   0.073   1.727   3.749 -0.5296  0.3609 -0.1064
  318SOL     OW 1037   6.328   1.582   0.046  0.1704  0.0201 -0.5653
  318SOL    HW2 1038   6.396   1.589   0.114  1.4609 -0.8212 -1.7213
  318SOL    HW3 1039   6.280   1.502   0.069  1.7750 -1.3011 -1.6089
  318SOL    MW4 1040   6.331   1.572   0.058 -0.1864 -0.0452  0.3621
  319SOL     OW 1041   3.285   5.299   4.058  0.4644  0.2396  0.3751
  319SOL    HW2 1042   3.377   5.310   4.036  0.8826 -1.9375  0.8703
  319SOL    HW3 1043   3.241   5.370   4.010  2.4709  2.0748  1.0794
  319SOL    MW4 1044   3.291   5.310   4.049 -0.5240 -0.0189 -0.1989
  320SOL     OW 1045   5.510   5.229   4.210 -0.1863  0.0172  0.7282
  320SOL    HW2 1046   5.572   5.158   4.191 -1.0089 -1.1974  2.2766
  320SOL    HW3 1047   5.463   5.242   4.128 -0.6855 -1.9499  0.6374
  320SOL    MW4 1048   5.512   5.221   4.197  0.3290  0.3306 -0.9483
  321SOL     OW 1049   3.738   4.122   2.930  0.0152  0.5571  0.2753
  321SOL    HW2 1050   3.768   4.193   2.988 -1.4660  0.9813  0.5552
  321SOL    HW3 1051   3.783   4.044   2.963 -0.6767  0.8098  1.9320
  321SOL    MW4 1052   3.748   4.121   2.942 -0.1775  0.0748 -0.2146
  322SOL     OW 1053   5.069   5.442   4.844 -0.0869  0.3118 -0.2076
  322SOL    HW2 1054   5.014   5.439   4.765 -0.3517  2.4691 -0.1558
  322SOL    HW3 1055   5.021   5.390   4.909 -0.8980  0.2364 -0.8535
  322SOL    MW4 1056   5.056   5.435   4.842 -0.1284  0.3095  0.3477
  323SOL     OW 1057   3.413   1.974   4.035  0.6222  0.0688  0.4146
  323SOL    HW2 1058   3.404   1.885   4.069 -0.8436  0.0913  0.1478
  323SOL    HW3 1059   3.431   2.027   4.112 -0.6763 -0.1643  0.9034
  323SOL    MW4 1060   3.414   1.969   4.050  0.6546  0.0607 -0.0695
  324SOL     OW 1061   2.895   0.107   4.242  0.6277  0.3867  0.3538
  324SOL    HW2 1062   2.882   0.197   4.212  0.3463 -0.1481 -1.2896
  324SOL    HW3 1063   2.814   0.086   4.288  0.6628  0.9548  0.6774
  324SOL    MW4 1064   2.882   0.116   4.244  0.1428 -0.3256 -0.5125
  325SOL     OW 1065   4.125   6.409   3.806 -0.2003  0.2401  0.1681
  325SOL    HW2 1066   4.212   6.380   3.779 -0.6648 -0.8568 -0.2115
  325SOL    HW3 1067   4.133   6.504   3.814  1.5614 -0.0006  2.1072
  325SOL    MW4 1068   4.137   6.418   3.804 -0.4697 -0.1793  0.3444
  326SOL     OW 1069   1.531   1.691   5.552 -0.6689 -0.0959 -0.0955
  326SOL    HW2 1070   1.445   1.651   5.564 -1.0736  1.0686  1.2250
  326SOL    HW3 1071   1.515   1.785   5.564  0.6885  0.1868 -0.4102
  326SOL    MW4 1072   1.517   1.698   5.555 -0.6089  0.2073  0.3266
  327SOL     OW 1073   5.586   4.720   3.454  0.7058 -0.2079  0.1095
  327SOL    HW2 1074   5.608   4.728   3.547  4.4052 -0.4169 -0.5792
  327SOL    HW3 1075   5.554   4.631   3.444 -0.4533  0.0471  1.2377
  327SOL    MW4 1076   5.585   4.709   3.465 -0.1022  0.2392  0.5010
  328SOL     OW 1077   4.670   4.008   5.370 -0.2930 -0.6472  0.3564
  328SOL    HW2 1078   4.673   3.930   5.315 -0.7039 -0.3420 -0.1133
  328SOL    HW3 1079   4.594   3.995   5.426 -1.4673  0.2146 -0.9755
  328SOL    MW4 1080   4.660   3.996   5.370 -0.3306 -0.2136 -0.0628
  329SOL     OW 1081   0.055   4.878   3.390 -0.5247  0.3707  0.2143
  329SOL    HW2 1082   0.090   4.948   3.336  0.9686 -0.3021  0.2494
  329SOL    HW3 1083   0.105   4.883   3.471  0.3547 -1.3475 -0.1678
  329SOL    MW4 1084   0.066   4.888   3.394 -0.1153  0.2912 -0.1458
  330SOL     OW 1085   1.698   5.733   2.656 -0.3537  0.5297 -0.4337
  330SOL    HW2 1086   1.682   5.812   2.603  1.2586  1.5766  0.5372
  330SOL    HW3 1087   1.754   5.764   2.727  0.5517 -1.5759 -0.1765
  330SOL    MW4 1088   1.703   5.748   2.658 -0.4804 -0.1625 -0.3940
  331SOL     OW 1089   1.230   5.843   5.491  0.5568 -0.5258  0.4323
  331SOL    HW2 1090   1.304   5.882   5.445  0.1781 -1.7305 -1.2975
  331SOL    HW3 1091   1.269   5.776   5.546  0.7848 -1.2115 -0.5335
  331SOL    MW4 1092   1.245   5.839   5.492 -0.6119 -0.2988  0.0078
  332SOL     OW 1093   2.557   2.357   5.583 -0.0263 -0.1486 -0.0417
  332SOL    HW2 1094   2.558   2.453   5.588  2.2724 -0.1123 -0.3461
  332SOL    HW3 1095   2.570   2.338   5.490  2.4634 -0.6902  0.3432
  332SOL    MW4 1096   2.559   2.367   5.571  0.1561 -0.1313 -0.5446
  333SOL     OW 1097   3.246   3.607   3.255 -0.5773  0.3433 -0.2847
  333SOL    HW2 1098   3.264   3.697   3.227 -0.2642 -0.3396 -2.4893
  333SOL    HW3 1099   3.165   3.614   3.306  0.2493  2.0446  0.9131
  333SOL    MW4 1100   3.238   3.620   3.258  0.0416  0.5846 -0.7984
  334SOL     OW 1101   2.756   3.197   0.022  0.3388  0.6676  0.0164
  334SOL    HW2 1102   2.814   3.145  -0.032 -0.6459 -0.8160  0.3041
  334SOL    HW3 1103   2.812   3.233   0.091  0.7174 -2.2539  1.4041
  334SOL    MW4 1104   2.771   3.195   0.024 -0.2658  0.9267  0.2832
  335SOL     OW 1105   5.424   5.995   4.918  0.1877 -0.2870  0.1887
  335SOL    HW2 1106   5.402   6.077   4.962  0.9947 -0.7387  1.4868
  335SOL    HW3 1107   5.340   5.958   4.892 -0.2477  0.4384  0.5300
  335SOL    MW4 1108   5.410   6.001   4.920  0.3599  0.1052  0.1443
  336SOL     OW 1109   6.072   0.296   6.023  0.2194  0.4760  0.1492
  336SOL    HW2 1110   6.110   0.232   5.962  0.5165 -0.5966  1.3995
  336SOL    HW3 1111   6.148   0.344   6.056  0.6310 -1.6925  2.6769
  336SOL    MW4 1112   6.087   0.294   6.019 -0.0006 -0.5381  0.8485
  337SOL     OW 1113   2.899   2.575   5.336  0.1574 -0.3094 -0.1519
  337SOL    HW2 1114   2.898   2.486   5.370 -0.9413 -0.4527 -0.5284
  337SOL    HW3 1115   2.865   2.628   5.408  1.8995 -0.0052  0.4994
  337SOL    MW4 1116   2.894   2.570   5.350 -0.2256  0.0493  0.3118
  338SOL     OW 1117   0.958   5.219   2.513  0.1308 -0.1601  0.1318
  338SOL    HW2 1118   0.984   5.148   2.571 -0.6648 -0.4745  0.1117
  338SOL    HW3 1119   0.950   5.296   2.569 -0.4135 -0.4120  0.4038
  338SOL    MW4 1120   0.961   5.220   2.528 -0.4144  0.1511  0.3608
  339SOL     OW 1121   0.718   4.399   1.190 -0.1918  0.1152  0.2175
  339SOL    HW2 1122   0.699   4.361   1.104 -0.1773 -0.0187  0.2728
  339SOL    HW3 1123   0.643   4.374   1.244 -1.6126  2.5735 -0.4788
  339SOL    MW4 1124   0.705   4.391   1.186  0.1004 -0.4282  0.0710
  340SOL     OW 1125   1.804   5.163   4.476  0.0503  0.1383 -0.2394
  340SOL    HW2 1126   1.727   5.219   4.481 -0.2331 -0.2748  0.0618
  340SOL    HW3 1127   1.824   5.141   4.567  1.3046  1.2950 -0.1970
  340SOL    MW4 1128   1.797   5.168   4.489  0.1548 -0.4259 -0.1440
  341SOL     OW 1129   6.120   4.741   2.947 -0.2235 -0.2294 -0.1221
  341SOL    HW2 1130   6.068   4.662   2.937 -0.3423 -0.1281 -0.3091
  341SOL    HW3 1131   6.210   4.710   2.957 -0.0852 -0.3362 -1.5511
  341SOL    MW4 1132   6.125   4.727   2.947  0.4079  0.0089 -0.1431
  342SOL     OW 1133   1.007   3.135   4.122  0.2790  0.1956 -0.2606
  342SOL    HW2 1134   0.947   3.080   4.071 -0.2407 -0.0469  0.5866
  342SOL    HW3 1135   0.958   3.216   4.137  0.5800  0.4170 -0.4861
  342SOL    MW4 1136   0.992   3.138   4.117 -0.0912  0.1014  0.3757
  343SOL     OW 1137   5.754   2.715   2.269  0.1570 -0.1417  0.5298
  343SOL    HW2 1138   5.718   2.678   2.349  0.7303 -2.3657 -0.1793
  343SOL    HW3 1139   5.848   2.698   2.274  0.1484 -0.6821 -0.7693
  343SOL    MW4 1140   5.761   2.708   2.280 -0.1570 -0.4616  0.3855
  344SOL     OW 1141   0.445   0.712   1.428 -0.0908  0.1361 -0.8253
  344SOL    HW2 1142   0.516   0.768   1.459  0.0861 -0.0296 -0.9278
  344SOL    HW3 1143   0.371   0.733   1.485  1.0530 -2.3669  1.8657
  344SOL    MW4 1144   0.445   0.722   1.440  0.5478 -0.1975 -0.2153
  345SOL     OW 1145   4.774   5.376   1.611  0.6006  0.0459 -0.3375
  345SOL    HW2 1146   4.815   5.308   1.559  1.5782  0.7020 -0.4548
  345SOL    HW3 1147   4.834   5.391   1.684 -1.4575 -1.9770  1.9918
  345SOL    MW4 1148   4.787   5.369   1.614 -0.1781  0.3925 -0.2156
  346SOL     OW 1149   1.319   3.244   3.502  0.0138 -0.2056  0.1854
  346SOL    HW2 1150   1.396   3.188   3.517  0.8393  0.3670 -1.6529
  346SOL    HW3 1151   1.283   3.213   3.419 -0.0938  1.3399 -0.3628
  346SOL    MW4 1152   1.324   3.232   3.493 -0.5072  0.0756  0.0100
  347SOL     OW 1153   2.172   3.785   2.945  0.3361 -0.7802  0.2103
  347SOL    HW2 1154   2.112   3.724   2.902  1.3146 -0.8989 -1.0476
  347SOL    HW3 1155   2.254   3.776   2.896  0.7357  0.9643  0.5028
  347SOL    MW4 1156   2.175   3.776   2.933 -0.3437  0.1457 -0.1419
  348SOL     OW 1157   0.281   0.232   0.683  0.1946 -0.0818 -0.2861
  348SOL    HW2 1158   0.242   0.145   0.669  1.5792 -1.0261  1.3134
  348SOL    HW3 1159   0.206   0.289   0.702 -0.6607 -1.1350 -0.3947
  348SOL    MW4 1160   0.266   0.228   0.684  0.1460 -0.6920 -0.5303
  349SOL     OW 1161   3.808   2.167   0.527 -0.1660 -0.5645  0.3757
  349SOL    HW2 1162   3.724   2.120   0.528 -0.9856  0.7828 -0.8225
  349SOL    HW3 1163   3.850   2.141   0.609 -1.4073 -1.8687  0.6616
  349SOL    MW4 1164   3.802   2.157   0.538  0.2390  0.1602  0.3743
  350SOL     OW 1165   1.000   1.601   1.457 -0.1308 -0.1955  0.5144
  350SOL    HW2 1166   0.923   1.575   1.407 -0.8806 -0.4348  1.7635
  350SOL    HW3 1167   0.972   1.676   1.509  0.3894 -0.4629  1.2014
  350SOL    MW4 1168   0.986   1.607   1.458 -0.1362  0.2549 -0.5353
  351SOL     OW 1169   2.588   0.249   6.076 -0.0668 -0.4827 -0.0679
  351SOL    HW2 1170   2.514   0.241   6.016  0.0165 -1.8641 -0.0257
  351SOL    HW3 1171   2.592   0.164   6.120  0.9418 -0.0859  0.6332
  351SOL    MW4 1172   2.579   0.237   6.074 -0.0226  0.6210  0.2413
  352SOL     OW 1173   1.347   0.682   0.436 -0.0264  0.2952  0.1879
  352SOL    HW2 1174   1.308   0.608   0.389  0.5085  0.8796 -1.2298
  352SOL    HW3 1175   1.423   0.707   0.383  0.6627  0.9445  1.4166
  352SOL    MW4 1176   1.352   0.675   0.423  0.3430 -0.0946  0.4813
  353SOL     OW 1177   1.379   6.161   4.751 -0.2562 -0.4395  0.7465
  353SOL    HW2 1178   1.292   6.195   4.773 -0.8701 -1.9123  0.7311
  353SOL    HW3 1179   1.362   6.075   4.713  1.0126  0.5069 -2.2526
  353SOL    MW4 1180   1.365   6.154   4.749  0.0017 -0.0600 -0.0455
  354SOL     OW 1181   2.798   1.316   5.266 -0.1847  0.3824 -0.6437
  354SOL    HW2 1182   2.851   1.254   5.216 -0.3186 -0.1216 -0.1798
  354SOL    HW3 1183   2.765   1.264   5.340  0.0040  1.0948 -0.0411
  354SOL    MW4 1184   2.801   1.301   5.269  0.0243  0.2787  0.4295
  355SOL     OW 1185   0.674   5.601   6.170 -0.3459 -0.1845  0.0530
  355SOL    HW2 1186   0.689   5.682   6.120  0.4988 -0.1653  0.3267
  355SOL    HW3 1187   0.673   5.629   6.261  1.7832 -0.7081  0.2841
  355SOL    MW4 1188   0.676   5.615   6.175 -0.5009 -0.0607 -0.0949
  356SOL     OW 1189   0.955   3.675   0.566 -0.0913 -0.8636 -0.4587
  356SOL    HW2 1190   0.898   3.599   0.581 -2.6983  0.7393 -1.6863
  356SOL    HW3 1191   1.042   3.636   0.551 -1.1756 -3.5578 -0.4185
  356SOL    MW4 1192   0.959   3.660   0.566  0.1291  0.4690 -0.2741
  357SOL     OW 1193   3.364   4.793   1.136 -0.0961  0.2405 -0.3703
  357SOL    HW2 1194   3.456   4.815   1.125 -0.4393  0.8917 -2.3746
  357SOL    HW3 1195   3.324   4.816   1.052 -2.2887  1.0155  0.8106
  357SOL    MW4 1196   3.371   4.799   1.124 -0.1221 -0.1284  0.1587
  358SOL     OW 1197   3.978   4.687   4.201  0.5354 -0.5034  0.7167
  358SOL    HW2 1198   4.073   4.675   4.212  0.8158  0.2771 -0.6567
  358SOL    HW3 1199   3.967   4.701   4.107 -0.8645  0.1771  0.9736
  358SOL    MW4 1200   3.989   4.687   4.190 -0.4446 -0.4343 -0.4879
  359SOL     OW 1201   3.662   0.161   3.415  0.0942 -0.2040  0.1498
  359SOL    HW2 1202   3.693   0.245   3.380 -1.1822  0.1760 -0.1203
  359SOL    HW3 1203   3.624   0.182   3.500  1.8315 -0.8969  1.1506
  359SOL    MW4 1204   3.661   0.175   3.422  0.2843  0.2802 -0.8991
  360SOL     OW 1205   4.089   4.454   6.412  0.5768 -0.0927  0.1044
  360SOL    HW2 1206   4.003   4.429   6.377 -0.3185 -0.4956  2.4009
  360SOL    HW3 1207   4.137   4.372   6.419  1.0288  0.0787 -0.7648
  360SOL    MW4 1208   4.084   4.440   6.408 -0.5392 -0.3479  0.3120
  361SOL     OW 1209   4.542   5.925   0.739  0.0613  0.5121 -0.4188
  361SOL    HW2 1210   4.560   5.927   0.645 -0.0878 -0.7792 -0.4873
  361SOL    HW3 1211   4.623   5.896   0.779 -0.2770 -0.2262 -0.2648
  361SOL    MW4 1212   4.555   5.922   0.731  0.2038 -0.0590  0.3699
  362SOL     OW 1213   3.983   4.923   5.528 -0.1351  0.0616  0.3876
  362SOL    HW2 1214   3.962   4.972   5.449  0.0646  0.6966  0.7200
  362SOL    HW3 1215   4.015   4.839   5.496  0.5091  0.5276 -0.2283
  362SOL    MW4 1216   3.984   4.919   5.513 -0.2609  0.1111 -0.1273
  363SOL     OW 1217   0.220   0.621   5.654 -0.4262  0.4256  0.5396
  363SOL    HW2 1218   0.150   0.559   5.675 -0.4780  0.3664  0.1919
  363SOL    HW3 1219   0.290   0.600   5.715  0.2365 -1.1321 -0.7001
  363SOL    MW4 1220   0.220   0.610   5.665 -0.1229  0.2016  0.3863
  364SOL     OW 1221   5.930   1.165   4.184  0.1863 -0.6019 -0.7294
  364SOL    HW2 1222   6.011   1.113   4.174 -0.0784 -1.3338  0.7507
  364SOL    HW3 1223   5.885   1.126   4.258  0.0003  1.8129  0.5244
  364SOL    MW4 1224   5.935   1.153   4.192 -0.1599  0.4861 -0.6998
  365SOL     OW 1225   1.849   3.866   2.978  0.4847 -0.0779  0.2885
  365SOL    HW2 1226   1.887   3.921   2.909 -0.7590 -0.6294 -0.8969
  365SOL    HW3 1227   1.875   3.777   2.954 -1.4411 -0.4662 -0.5457
  365SOL    MW4 1228   1.858   3.862   2.966 -0.3769  0.4847  0.3564
  366SOL     OW 1229   2.813   1.221   4.267 -0.2639  0.0797  0.0576
  366SOL    HW2 1230   2.879   1.210   4.336  0.7268 -1.3250 -1.0382
  366SOL    HW3 1231   2.753   1.147   4.280  0.2077 -0.4808 -0.8427
  366SOL    MW4 1232   2.814   1.210   4.278  0.3669 -0.7274 -0.1468
  367SOL     OW 1233   5.819   1.081   3.924 -0.1160 -0.2588  0.2017
  367SOL    HW2 1234   5.904   1.061   3.886 -0.6234  0.6551 -1.5289
  367SOL    HW3 1235   5.837   1.100   4.016  1.4842 -0.4544 -0.0504
  367SOL    MW4 1236   5.833   1.081   3.931  0.5716  0.0665 -0.0535
  368SOL     OW 1237   3.490   0.339   2.237 -0.0355  0.3064 -0.7879
  368SOL    HW2 1238   3.470   0.304   2.150  3.3124  0.4473 -1.7841
  368SOL    HW3 1239   3.487   0.434   2.224  2.8295  0.3939 -1.5730
  368SOL    MW4 1240   3.487   0.347   2.224  0.7887  0.1502  0.5004
  369SOL     OW 1241   4.273   2.370   3.650 -0.0295  0.1605  0.4485
  369SOL    HW2 1242   4.267   2.283   3.689  0.2456 -0.2127 -0.3077
  369SOL    HW3 1243   4.366   2.378   3.626  0.3099  1.3518  2.0308
  369SOL    MW4 1244   4.285   2.359   3.652 -0.0114  0.1485  0.0853
  370SOL     OW 1245   3.652   0.020   1.349  0.4772 -0.0333  0.1900
  370SOL    HW2 1246   3.593   0.063   1.287  0.1760  1.1965  1.2814
  370SOL    HW3 1247   3.597  -0.001   1.424  0.7689 -1.7847 -0.0432
  370SOL    MW4 1248   3.637   0.023   1.351 -0.0999 -0.3166  0.2956
  371SOL     OW 1249   2.946   4.158   1.840  0.0836  0.2173 -0.6035
  371SOL    HW2 1250   2.909   4.088   1.786 -1.1374  0.4221 -0.0881
  371SOL    HW3 1251   2.910   4.141   1.928  1.0294  0.5936 -0.1330
  371SOL    MW4 1252   2.936   4.146   1.845 -0.0466 -0.2517  0.1613
  372SOL     OW 1253   4.040   1.888   5.386 -0.1707  0.0130 -0.6254
  372SOL    HW2 1254   3.979   1.923   5.321 -0.9701 -0.3450 -0.0869
  372SOL    HW3 1255   4.009   1.924   5.469 -0.3231 -1.0462 -0.2072
  372SOL    MW4 1256   4.027   1.897   5.388  0.4403 -0.0878  0.3791
  373SOL     OW 1257   2.057   0.317   1.829 -0.5342 -0.6195  0.0401
  373SOL    HW2 1258   2.015   0.239   1.794  1.1721 -1.0874 -1.1173
  373SOL    HW3 1259   2.052   0.381   1.757  0.2566 -0.5237  0.0615
  373SOL    MW4 1260   2.051   0.315   1.815 -0.0678  0.3713  0.0465
  374SOL     OW 1261   4.393   3.148   3.448 -0.8463 -0.5640  0.2694
  374SOL    HW2 1262   4.317   3.148   3.391 -1.3662 -1.3558  0.9360
  374SOL    HW3 1263   4.444   3.072   3.420 -0.9133 -0.7362  0.6119
  374SOL    MW4 1264   4.390   3.138   3.437  0.0848 -0.5469  0.0944
  375SOL     OW 1265   1.214   5.442   3.621  0.2367  0.2989  0.7469
  375SOL    HW2 1266   1.187   5.519   3.570  1.2090  1.1524  1.4698
  375SOL    HW3 1267   1.280   5.399   3.567 -0.7360 -0.3813  0.0780
  375SOL    MW4 1268   1.219   5.446   3.608  0.0973 -0.2422  0.0958
  376SOL     OW 1269   2.356   3.307   3.473  0.4812 -0.2657  0.3411
  376SOL    HW2 1270   2.302   3.281   3.548 -0.7029 -0.0627 -0.4150
  376SOL    HW3 1271   2.446   3.306   3.507 -0.1224  1.3786  2.2099
  376SOL    MW4 1272   2.361   3.303   3.488  0.1540  1.1164  0.2562
  377SOL     OW 1273   5.423   5.879   1.197 -0.1466  0.0537  0.1646
  377SOL    HW2 1274   5.353   5.944   1.196  0.1870  0.4636  1.4754
  377SOL    HW3 1275   5.393   5.809   1.139 -1.2366  0.6321  0.0231
  377SOL    MW4 1276   5.410   5.878   1.189 -0.1955  0.1077  0.1421
  378SOL     OW 1277   2.108   2.096   1.817  0.1032  0.0135 -0.2024
  378SOL    HW2 1278   2.177   2.031   1.818  1.1365  0.9655 -2.5664
  378SOL    HW3 1279   2.036   2.056   1.865  0.6115 -2.9549 -1.7217
  378SOL    MW4 1280   2.107   2.082   1.824 -0.2892  0.2926 -0.7365
  379SOL     OW 1281   5.382   1.391   1.481 -0.0700  0.3625 -0.1280
  379SOL    HW2 1282   5.464   1.440   1.480  1.2258 -1.6751 -0.1571
  379SOL    HW3 1283   5.355   1.391   1.573 -0.3136  1.4732 -0.1967
  379SOL    MW4 1284   5.390   1.397   1.493  0.3055  0.0588  0.0218
  380SOL     OW 1285   0.004   6.269   3.334 -0.1317 -0.3110 -0.0724
  380SOL    HW2 1286   0.023   6.337   3.398 -1.4548 -0.9054  0.9765
  380SOL    HW3 1287  -0.029   6.316   3.258  0.2892  0.3079  0.1204
  380SOL    MW4 1288   0.002   6.284   3.332  0.0492 -0.0761  0.4831
  381SOL     OW 1289   3.577   4.677   5.646 -0.6296 -0.0308 -0.2920
  381SOL    HW2 1290   3.630   4.753   5.623 -1.8335  1.1855  0.7631
  381SOL    HW3 1291   3.547   4.642   5.562  2.3779 -1.2600 -1.0056
  381SOL    MW4 1292   3.580   4.682   5.632 -0.5760  0.3469 -0.0636
  382SOL     OW 1293   5.744   5.068   0.771  0.0903 -0.2968  0.1616
  382SOL    HW2 1294   5.770   5.121   0.695 -2.2451 -1.2512 -1.4029
  382SOL    HW3 1295   5.746   5.130   0.844  0.1403  1.2670 -1.0977
  382SOL    MW4 1296   5.748   5.083   0.771  0.1007  0.3887 -0.2004
  383SOL     OW 1297   3.556   5.034   4.781 -0.6676 -0.0700  0.0856
  383SOL    HW2 1298   3.556   5.043   4.877  0.3719 -4.2937  0.6885
  383SOL    HW3 1299   3.498   4.960   4.764  0.5872 -0.5809 -2.3511
  383SOL    MW4 1300   3.549   5.026   4.791  0.1777 -0.6469 -0.8945
  384SOL     OW 1301   1.649   5.594   3.473 -0.3647 -0.2456 -0.2368
  384SOL    HW2 1302   1.625   5.656   3.542 -0.1287  0.5846 -0.8709
  384SOL    HW3 1303   1.621   5.637   3.392 -1.4188 -1.5764 -0.6187
  384SOL    MW4 1304   1.642   5.608   3.471  0.5851 -0.0535  0.5637
  385SOL     OW 1305   0.084   1.368   2.047  0.1044  0.1741 -0.2140
  385SOL    HW2 1306   0.110   1.439   1.988 -2.0083  0.8940 -0.3803
  385SOL    HW3 1307   0.060   1.296   1.989  0.8786 -0.1834 -0.0987
  385SOL    MW4 1308   0.084   1.368   2.031 -0.2307 -0.5036  0.5187
  386SOL     OW 1309   4.676   6.175   5.642 -0.5773 -0.0388 -0.3730
  386SOL    HW2 1310   4.635   6.260   5.625 -1.0970 -0.3193 -0.5820
  386SOL    HW3 1311   4.654   6.122   5.565 -0.4006 -0.4113 -0.1734
  386SOL    MW4 1312   4.667   6.179   5.629  0.5379  0.5641 -0.0355
  387SOL     OW 1313   3.866   0.434   1.601  0.3754 -0.8295  0.2743
  387SOL    HW2 1314   3.959   0.431   1.580  0.2335  0.1227 -0.5652
  387SOL    HW3 1315   3.827   0.367   1.544  0.1638  0.8752 -1.7039
  387SOL    MW4 1316   3.873   0.424   1.591  0.3570  0.0138  0.0888
  388SOL     OW 1317   3.729   1.742   4.081 -0.3890 -0.6908 -0.2795
  388SOL    HW2 1318   3.676   1.673   4.041  0.6763 -0.9672 -1.2789
  388SOL    HW3 1319   3.746   1.803   4.009  1.1193 -0.9179 -0.1366
  388SOL    MW4 1320   3.724   1.741   4.066 -0.5330  0.7128  0.1748
  389SOL     OW 1321   6.133   5.384   0.382 -0.0453 -0.1308 -0.4147
  389SOL    HW2 1322   6.181   5.381   0.465  1.5379  0.6599 -1.2599
  389SOL    HW3 1323   6.055   5.436   0.401 -0.4958 -1.2390  0.9391
  389SOL    MW4 1324   6.129   5.390   0.396 -0.1772  0.0053 -0.1889
  390SOL     OW 1325   3.190   5.255   3.345  0.4384  0.2484  0.0881
  390SOL    HW2 1326   3.189   5.261   3.441  1.2937  0.9699  0.0611
  390SOL    HW3 1327   3.123   5.316   3.316  1.9841  2.0853  0.1674
  390SOL    MW4 1328   3.181   5.264   3.354 -0.4103  0.6298 -0.0097
  391SOL     OW 1329   1.468   1.200   4.417 -0.0931  0.1070 -0.6757
  391SOL    HW2 1330   1.402   1.266   4.394 -0.3761 -0.7213 -2.3785
  391SOL    HW3 1331   1.547   1.230   4.373  0.1817  0.0934 -0.1990
  391SOL    MW4 1332   1.470   1.213   4.408 -0.2722 -0.3004  0.1155
  392SOL     OW 1333   6.348   2.597   2.977  0.6030 -0.3514  0.2285
  392SOL    HW2 1334   6.339   2.559   2.889 -0.1279  1.1462 -0.3773
  392SOL    HW3 1335   6.304   2.534   3.034 -0.4437 -0.5217 -0.7277
  392SOL    MW4 1336   6.341   2.583   2.973 -0.5609 -0.6279  0.2284
  393SOL     OW 1337   2.548   5.577   1.224 -0.3561  0.1589  1.0314
  393SOL    HW2 1338   2.496   5.631   1.164 -0.0240  0.5951  1.1228
  393SOL    HW3 1339   2.639   5.592   1.197 -0.2679 -0.4774  0.9670
  393SOL    MW4 1340   2.553   5.586   1.213  0.5990  0.0555 -0.7517
  394SOL     OW 1341   1.621   0.476   0.357  0.3451 -0.0632  0.2358
  394SOL    HW2 1342   1.654   0.400   0.309 -0.6011 -0.3106 -0.0416
  394SOL    HW3 1343   1.554   0.441   0.416  0.5812  0.4236  0.8074
  394SOL    MW4 1344   1.616   0.461   0.358  0.0253 -0.2465  0.2468
  395SOL     OW 1345   0.335   5.975   0.770 -0.5682 -0.2520  0.1615
  395SOL    HW2 1346   0.382   6.030   0.707 -0.0369  0.8707  1.5049
  395SOL    HW3 1347   0.246   6.008   0.769 -0.3997  0.2173  0.4954
  395SOL    MW4 1348   0.330   5.986   0.761  0.2941 -0.6180 -0.0689
  396SOL     OW 1349   2.539   6.238   4.067  0.3676  0.0911 -0.3113
  396SOL    HW2 1350   2.516   6.291   3.990 -2.3702 -1.7363 -0.8850
  396SOL    HW3 1351   2.571   6.155   4.031 -0.7693 -0.7214  0.4885
  396SOL    MW4 1352   2.540   6.234   4.052 -0.1590 -0.3532 -0.2656
  397SOL     OW 1353   6.407   1.454   3.256 -0.7948  0.6101 -0.9121
  397SOL    HW2 1354   6.488   1.456   3.306 -1.7845 -1.1712  0.9142
  397SOL    HW3 1355   6.406   1.366   3.216 -1.3994  0.9454 -1.6672
  397SOL    MW4 1356   6.417   1.442   3.257 -0.2863 -0.5796 -0.1529
  398SOL     OW 1357   2.289   0.594   2.244  0.0518  0.0128 -0.3998
  398SOL    HW2 1358   2.362   0.572   2.186 -0.1446  0.7003 -0.9205
  398SOL    HW3 1359   2.211   0.578   2.192 -0.1066  1.5803 -0.6858
  398SOL    MW4 1360   2.289   0.589   2.230 -0.0623 -0.0610 -0.1763
  399SOL     OW 1361   1.445   2.423   1.648 -0.0876  0.4257 -0.1104
  399SOL    HW2 1362   1.451   2.344   1.594  0.2172  0.1115  0.3760
  399SOL    HW3 1363   1.533   2.462   1.644  0.8554 -1.2077  2.5505
  399SOL    MW4 1364   1.457   2.418   1.640  0.1432 -0.5739 -0.1551
  400SOL     OW 1365   1.332   3.818   3.331  0.1447  0.3343 -0.1809
  400SOL    HW2 1366   1.424   3.846   3.331  0.3821 -0.3531  1.0937
  400SOL    HW3 1367   1.330   3.745   3.269  1.3372 -2.1020  2.4123
  400SOL    MW4 1368   1.344   3.812   3.323  0.4674  0.3145 -0.6564
  401SOL     OW 1369   6.131   1.953   5.884  0.0377  0.1830 -0.6878
  401SOL    HW2 1370   6.161   1.902   5.960 -2.5237 -2.5880 -1.3089
  401SOL    HW3 1371   6.209   1.963   5.830  1.3528 -0.1785  1.0495
  401SOL    MW4 1372   6.145   1.947   5.887 -0.2622  0.3181 -0.3133
  402SOL     OW 1373   5.689   1.064   5.582  0.2688  0.0189 -0.1815
  402SOL    HW2 1374   5.733   0.982   5.559 -0.0080 -1.0325  2.6425
  402SOL    HW3 1375   5.627   1.079   5.511 -0.4458 -2.8514 -0.2805
  402SOL    MW4 1376   5.686   1.055   5.570 -0.0988 -0.0496 -0.1397
  403SOL     OW 1377   5.369   3.545   1.282 -0.1129  0.1801 -0.0721
  403SOL    HW2 1378   5.364   3.570   1.374 -0.9046 -0.9501  0.2077
  403SOL    HW3 1379   5.459   3.564   1.257  0.2827 -0.0737  1.1037
  403SOL    MW4 1380   5.380   3.551   1.291 -0.9258  0.3345  0.7295
  404SOL     OW 1381   5.258   1.976   0.656  0.0249  0.2444  0.5094
  404SOL    HW2 1382   5.181   2.031   0.669 -0.7943 -0.8385  0.3863
  404SOL    HW3 1383   5.263   1.924   0.736 -0.2248 -0.7037 -0.0810
  404SOL    MW4 1384   5.248   1.977   0.668 -0.1527  0.4260  0.0394
  405SOL     OW 1385   0.140   1.242   3.807 -0.0689  0.3595 -0.5744
  405SOL    HW2 1386   0.053   1.228   3.769  0.4889  0.6288 -1.9886
  405SOL    HW3 1387   0.185   1.159   3.796 -1.0084 -0.7468  2.7168
  405SOL    MW4 1388   0.134   1.229   3.801 -0.5908  0.0321  0.1139
  406SOL     OW 1389   3.886   5.658   2.546  0.3082 -0.1041  0.1470
  406SOL    HW2 1390   3.897   5.668   2.641  1.5859 -0.8001  0.0953
  406SOL    HW3 1391   3.835   5.578   2.536  0.0765  0.0294  0.2446
  406SOL    MW4 1392   3.881   5.649   2.558  0.3708 -0.7170 -0.2511
  407SOL     OW 1393   0.839   1.156   5.212 -0.1336  0.2074  0.1299
  407SOL    HW2 1394   0.851   1.246   5.242 -0.6233  0.3580 -0.1100
  407SOL    HW3 1395   0.762   1.160   5.155 -0.7349 -0.5400  0.8615
  407SOL    MW4 1396   0.830   1.168   5.208 -0.1654  0.0863  0.2914
  408SOL     OW 1397   2.990   2.728   0.908 -0.1371 -0.1107 -0.1586
  408SOL    HW2 1398   3.038   2.810   0.903 -1.7323  0.9054  0.4331
  408SOL    HW3 1399   2.973   2.715   1.001 -1.1029 -0.3754 -0.3615
  408SOL    MW4 1400   2.994   2.737   0.919  0.5590 -0.2606 -0.1874
  409SOL     OW 1401   5.371   3.800   1.009  0.0739  0.1245  0.4114
  409SOL    HW2 1402   5.449   3.764   0.967  0.6558  0.4070  1.2221
  409SOL    HW3 1403   5.298   3.757   0.965  0.5835  1.2845 -1.7305
  409SOL    MW4 1404   5.371   3.790   0.998  0.5312 -0.0948 -0.4328
  410SOL     OW 1405   0.194   1.440   0.926  0.2229 -0.1301 -0.2900
  410SOL    HW2 1406   0.199   1.427   0.832 -1.0060  0.9274 -0.5338
  410SOL    HW3 1407   0.282   1.467   0.952  0.8695 -1.5739 -0.9219
  410SOL    MW4 1408   0.206   1.442   0.917 -0.4463 -0.8801  0.0642
  411SOL     OW 1409   6.274   2.534   1.335  0.3345  0.2219 -0.0699
  411SOL    HW2 1410   6.185   2.517   1.304  0.6505 -3.6798  0.5776
  411SOL    HW3 1411   6.329   2.523   1.258  0.4045  0.2135 -0.0189
  411SOL    MW4 1412   6.269   2.530   1.321 -0.1809  1.1746  0.2133
  412SOL     OW 1413   3.530   0.713   3.506  0.3084  0.4850 -0.4599
  412SOL    HW2 1414   3.492   0.795   3.538 -1.6812  0.0225 -1.4810
  412SOL    HW3 1415   3.521   0.653   3.580  0.8203  0.8829 -0.0610
  412SOL    MW4 1416   3.523   0.716   3.520  0.0329  0.8073  0.2440
  413SOL     OW 1417   5.081   3.327   2.538  0.0273  0.0682 -0.0188
  413SOL    HW2 1418   5.071   3.232   2.545 -1.1695  0.1028 -0.8688
  413SOL    HW3 1419   5.143   3.340   2.467 -1.4363 -0.0928 -1.3928
  413SOL    MW4 1420   5.088   3.316   2.530  0.6214 -0.4742  0.2731
  414SOL     OW 1421   6.280   0.875   5.542  0.6169  0.2435 -0.1196
  414SOL    HW2 1422   6.328   0.885   5.460 -1.7894  0.7724 -1.5603
  414SOL    HW3 1423   6.279   0.780   5.558  0.2717  0.0386 -1.2732
  414SOL    MW4 1424   6.286   0.863   5.534  0.0963 -0.9261 -0.0305
  415SOL     OW 1425   0.273   2.785   3.761  0.2673  0.1408  0.2440
  415SOL    HW2 1426   0.201   2.793   3.824 -0.6640  0.3708 -0.8336
  415SOL    HW3 1427   0.232   2.757   3.680  1.5909 -1.1935 -0.0124
  415SOL    MW4 1428   0.258   2.783   3.759  0.2330 -0.1598  0.0202
  416SOL     OW 1429   4.809   0.987   5.182 -0.1723 -0.4563  0.4022
  416SOL    HW2 1430   4.786   1.013   5.093 -2.6703  0.4152  1.2169
  416SOL    HW3 1431   4.801   1.067   5.233 -1.3800 -1.4257  1.8235
  416SOL    MW4 1432   4.805   1.001   5.177  0.3390 -0.0279 -1.1946
  417SOL     OW 1433   1.595   3.796   5.868 -0.8019 -0.0498 -0.2151
  417SOL    HW2 1434   1.543   3.859   5.818  1.9554  1.8994 -0.8927
  417SOL    HW3 1435   1.581   3.821   5.960 -0.5896  0.8845 -0.4235
  417SOL    MW4 1436   1.587   3.808   5.874  0.3180 -0.0621  0.6787
  418SOL     OW 1437   4.243   2.287   2.826 -0.0400  0.0992 -0.0628
  418SOL    HW2 1438   4.208   2.199   2.842  0.2517 -0.3023 -1.5347
  418SOL    HW3 1439   4.166   2.343   2.818 -0.3473 -0.5150 -1.7767
  418SOL    MW4 1440   4.229   2.283   2.827  0.8800  0.0693  0.0606
  419SOL     OW 1441   4.853   1.882   4.130 -0.2483  0.2747  0.1211
  419SOL    HW2 1442   4.909   1.868   4.053 -1.7536  0.8822 -1.1426
  419SOL    HW3 1443   4.912   1.918   4.196  0.4272  3.6978 -2.0670
  419SOL    MW4 1444   4.868   1.885   4.129  0.1490 -0.1207  0.8634
  420SOL     OW 1445   4.474   1.267   1.729  0.4977 -0.4238  0.1591
  420SOL    HW2 1446   4.409   1.331   1.757  1.9468  1.2301 -0.0713
  420SOL    HW3 1447   4.424   1.199   1.684 -1.0830  0.5870  0.3305
  420SOL    MW4 1448   4.459   1.266   1.727 -0.1932 -0.5276 -0.1385
  421SOL     OW 1449   1.947   0.050   3.344 -0.4347  0.4429 -0.0152
  421SOL    HW2 1450   1.916  -0.036   3.369 -0.8769  1.2776  2.5340
  421SOL    HW3 1451   1.941   0.103   3.423  0.7523  2.5763 -1.2332
  421SOL    MW4 1452   1.942   0.046   3.357  0.3716  0.0348 -0.2803
  422SOL     OW 1453   4.276   1.002   2.285  0.0373 -0.3188 -0.0280
  422SOL    HW2 1454   4.186   1.034   2.273 -0.8238 -2.2635  0.8753
  422SOL    HW3 1455   4.290   0.943   2.211  0.7445  0.2735 -0.3814
  422SOL    MW4 1456   4.266   0.999   2.274 -0.3050  0.0415 -0.7557
  423SOL     OW 1457   5.474   5.277   0.954  0.1070  0.0310  0.3814
  423SOL    HW2 1458   5.558   5.318   0.976  0.3650 -0.6542  0.7112
  423SOL    HW3 1459   5.473   5.196   1.005 -1.1785  0.4815  1.1245
  423SOL    MW4 1460   5.485   5.272   0.964 -0.0111  0.1665 -0.6859
  424SOL     OW 1461   0.442   4.741   0.942  0.4759  0.0360  0.3913
  424SOL    HW2 1462   0.474   4.715   1.029 -0.3831 -1.1436  0.3688
  424SOL    HW3 1463   0.355   4.702   0.935  0.5914 -0.0172 -1.0642
  424SOL    MW4 1464   0.435   4.732   0.953 -0.2952 -0.3333 -0.1575
  425SOL     OW 1465   4.481   0.328   5.125  0.4145 -0.2750 -0.1915
  425SOL    HW2 1466   4.562   0.377   5.116 -0.9714  2.2295  0.0755
  425SOL    HW3 1467   4.493   0.274   5.203  2.4399 -1.3721 -1.1894
  425SOL    MW4 1468   4.493   0.328   5.134 -0.4662 -0.1232 -0.1939
  426SOL     OW 1469   2.071   6.105   6.308 -0.0344 -0.0235 -0.0990
  426SOL    HW2 1470   2.045   6.182   6.257  0.6120  0.2031 -0.0992
  426SOL    HW3 1471   2.160   6.086   6.278 -0.2870 -0.9500 -0.3083
  426SOL    MW4 1472   2.079   6.113   6.297  0.4522  0.4790  0.2407
  427SOL     OW 1473   5.455   2.714   0.075 -0.5324 -0.0952 -0.5805
  427SOL    HW2 1474   5.523   2.677   0.131  0.9145  0.1806 -2.0762
  427SOL    HW3 1475   5.498   2.786   0.029 -1.9973  0.4391 -1.1996
  427SOL    MW4 1476   5.469   2.719   0.076 -0.3554  0.3320  0.0573
  428SOL     OW 1477   4.318   4.854   0.435  0.0099  0.1149 -0.7741
  428SOL    HW2 1478   4.275   4.776   0.470 -0.0441  0.8514  0.9391
  428SOL    HW3 1479   4.410   4.842   0.458  0.0415  0.4210 -0.7360
  428SOL    MW4 1480   4.325   4.842   0.443 -0.3739  0.4221  0.0231
  429SOL     OW 1481   2.379   5.729   0.390 -0.1339  0.1561  0.0834
  429SOL    HW2 1482   2.388   5.814   0.347 -0.7493 -0.2412 -0.8674
  429SOL    HW3 1483   2.296   5.735   0.438 -1.2451 -0.5886 -1.6657
  429SOL    MW4 1484   2.369   5.741   0.391  0.2908  0.6595 -0.2308
  430SOL     OW 1485   6.015   0.941   5.589 -0.2000  0.7890  0.2804
  430SOL    HW2 1486   6.109   0.937   5.570 -0.2077  1.2657  0.1277
  430SOL    HW3 1487   5.996   1.035   5.595 -0.7776  0.7129 -0.2681
  430SOL    MW4 1488   6.025   0.953   5.587 -0.2194  0.1852 -0.7583
  431SOL     OW 1489   5.680   6.264   6.163  0.4513 -0.1871  0.0663
  431SOL    HW2 1490   5.623   6.269   6.239 -0.5825  0.1244 -0.7087
  431SOL    HW3 1491   5.673   6.350   6.122 -0.2587 -0.8323 -1.2445
  431SOL    MW4 1492   5.672   6.276   6.167 -0.0404 -0.1867 -0.0879
  432SOL     OW 1493   2.664   4.593   2.504  0.1673 -0.1260 -0.1701
  432SOL    HW2 1494   2.692   4.650   2.432  0.6325 -0.7364 -0.4812
  432SOL    HW3 1495   2.594   4.642   2.548  1.7812  1.5239  0.7149
  432SOL    MW4 1496   2.659   4.607   2.500 -0.3359  0.3236 -0.3706
  433SOL     OW 1497   2.981   5.527   1.940 -0.4135  0.1539  0.1876
  433SOL    HW2 1498   2.909   5.479   1.898  0.0052 -0.1314 -0.2313
  433SOL    HW3 1499   2.958   5.530   2.032  0.0941 -1.9367  0.4469
  433SOL    MW4 1500   2.969   5.521   1.946 -0.2637 -0.1214 -0.0978
  434SOL     OW 1501   0.420   5.409   2.468 -0.3916  0.0152 -0.0179
  434SOL    HW2 1502   0.503   5.451   2.446 -0.9799  0.0019 -2.6204
  434SOL    HW3 1503   0.356   5.479   2.465 -0.9451 -0.5158 -1.4828
  434SOL    MW4 1504   0.423   5.424   2.465  0.0371 -0.1301 -0.2744
  435SOL     OW 1505   2.261   2.962   2.488  0.3655 -0.6990  0.0842
  435SOL    HW2 1506   2.219   2.909   2.420 -2.2935  1.5423 -0.2196
  435SOL    HW3 1507   2.194   2.971   2.556  2.3733 -1.4846  2.2942
  435SOL    MW4 1508   2.247   2.956   2.488  0.7486  0.0906  0.0261
  436SOL     OW 1509   4.581   1.058   1.438 -0.1425 -0.6474  0.1163
  436SOL    HW2 1510   4.598   1.043   1.531 -0.8645  0.4075  0.4342
  436SOL    HW3 1511   4.594   1.152   1.426 -1.4446 -0.5278 -0.5336
  436SOL    MW4 1512   4.585   1.068   1.448 -0.6692  0.2360 -0.1010
  437SOL     OW 1513   6.420   0.202   6.165 -0.6761 -0.3529  0.4293
  437SOL    HW2 1514   6.485   0.144   6.126 -0.1801 -0.0101  0.7389
  437SOL    HW3 1515   6.418   0.278   6.107 -0.0398  0.0950  0.9732
  437SOL    MW4 1516   6.428   0.204   6.152 -0.1749 -0.6295  0.1758
  438SOL     OW 1517   0.702   1.770   2.906  0.0242 -0.0914 -0.1766
  438SOL    HW2 1518   0.649   1.839   2.867  1.9832  0.6106 -1.8016
  438SOL    HW3 1519   0.669   1.689   2.867 -0.7475  0.1735 -0.0806
  438SOL    MW4 1520   0.691   1.768   2.896  0.8956  0.5329 -0.6171
  439SOL     OW 1521   0.793   1.611   0.992 -0.1079  0.0841  0.5298
  439SOL    HW2 1522   0.780   1.516   1.000 -0.3294  0.1747  1.2505
  439SOL    HW3 1523   0.835   1.622   0.906 -0.1201 -0.6611  0.4240
  439SOL    MW4 1524   0.797   1.600   0.982  0.2554 -0.1440  0.1318
  440SOL     OW 1525   0.743   0.793   4.636 -0.4402 -0.2116  0.1310
  440SOL    HW2 1526   0.762   0.876   4.592  0.6193 -0.4084  0.1903
  440SOL    HW3 1527   0.824   0.743   4.629 -1.7245 -2.2125 -1.9964
  440SOL    MW4 1528   0.756   0.797   4.629 -0.5919 -0.4645 -0.4953
  441SOL     OW 1529   1.153   0.268   1.545  0.0871  0.5394 -0.5217
  441SOL    HW2 1530   1.230   0.313   1.509  0.0789  1.0921  0.1310
  441SOL    HW3 1531   1.152   0.184   1.500  1.6436  0.1255  0.1244
  441SOL    MW4 1532   1.163   0.263   1.535 -0.2148  0.5461  0.1132
  442SOL     OW 1533   3.791   4.541   5.787 -0.0501  0.0530 -0.7857
  442SOL    HW2 1534   3.804   4.447   5.792 -0.2976  0.0828  0.6480
  442SOL    HW3 1535   3.701   4.552   5.756  0.3398 -0.1567 -2.0556
  442SOL    MW4 1536   3.781   4.530   5.783 -0.0888 -0.0146  1.1108
  443SOL     OW 1537   1.423   2.225   6.334 -0.1297  0.4957  0.3413
  443SOL    HW2 1538   1.356   2.277   6.290  0.3105  0.1344 -0.7956
  443SOL    HW3 1539   1.376   2.154   6.377 -0.3840 -0.7519 -1.8581
  443SOL    MW4 1540   1.408   2.223   6.334  0.3930 -0.2009  0.4053
  444SOL     OW 1541   1.220   6.096   6.077 -0.0212 -0.3071  0.1989
  444SOL    HW2 1542   1.270   6.097   6.158 -1.3586  0.1349  1.0474
  444SOL    HW3 1543   1.224   6.186   6.045  0.0602 -0.3619  0.0521
  444SOL    MW4 1544   1.227   6.108   6.083 -0.1312  0.0051  0.1477
  445SOL     OW 1545   4.159   6.338   1.210  0.0757  0.5523  0.6006
  445SOL    HW2 1546   4.118   6.416   1.173 -2.5205 -1.5682 -1.3971
  445SOL    HW3 1547   4.106   6.317   1.287  2.3669  2.0908  2.7341
  445SOL    MW4 1548   4.147   6.345   1.215 -0.8151  0.2502 -0.4938
  446SOL     OW 1549   0.087   0.756   5.120 -0.0545 -0.4578 -0.4694
  446SOL    HW2 1550   0.072   0.686   5.183  1.0050  0.4633  0.8688
  446SOL    HW3 1551   0.066   0.716   5.035  1.5205 -2.7309  0.1077
  446SOL    MW4 1552   0.082   0.741   5.117 -0.2202  0.0444 -0.4950
  447SOL     OW 1553   1.691   4.432   0.350 -0.4211  0.2556 -0.2283
  447SOL    HW2 1554   1.632   4.467   0.417  0.1382  0.9124 -0.0708
  447SOL    HW3 1555   1.658   4.467   0.267  0.6967  1.9862  0.0173
  447SOL    MW4 1556   1.678   4.441   0.348  0.0065  0.5339  0.5534
  448SOL     OW 1557   1.281   6.064   3.020  0.7006 -0.0796  0.5003
  448SOL    HW2 1558   1.231   6.139   2.986 -0.3662 -0.3727  1.3385
  448SOL    HW3 1559   1.263   5.993   2.958  2.5329  0.5791 -0.8661
  448SOL    MW4 1560   1.272   6.065   3.007  0.2324 -0.0234 -0.3184
  449SOL     OW 1561   5.614   0.888   2.936  0.1960 -0.3354 -0.4887
  449SOL    HW2 1562   5.621   0.906   2.842 -0.7906 -1.2169 -0.7615
  449SOL    HW3 1563   5.635   0.795   2.944 -0.6319 -0.4905  0.0219
  449SOL    MW4 1564   5.617   0.878   2.925  0.0144 -0.2603 -0.8331
  450SOL     OW 1565   2.921   5.260   4.750  0.2033 -0.3495 -0.2005
  450SOL    HW2 1566   2.975   5.182   4.741 -0.5967 -0.7752 -1.5568
  450SOL    HW3 1567   2.836   5.234   4.715 -0.5825  0.6301  0.9040
  450SOL    MW4 1568   2.917   5.246   4.744  0.0308 -0.6101 -0.3483
  451SOL     OW 1569   1.174   0.880   2.375 -0.2801  0.2077  0.4217
  451SOL    HW2 1570   1.208   0.795   2.347 -0.8331  0.0150  0.3305
  451SOL    HW3 1571   1.160   0.871   2.469 -1.3423 -0.1531  0.2368
  451SOL    MW4 1572   1.177   0.867   2.384 -0.8420 -0.2386 -0.3700
  452SOL     OW 1573   1.509   2.616   3.458 -0.5334  0.1967 -0.9959
  452SOL    HW2 1574   1.591   2.606   3.408  0.6340  0.5095  0.7557
  452SOL    HW3 1575   1.442   2.578   3.402  0.9120 -0.6274 -2.2482
  452SOL    MW4 1576   1.511   2.610   3.444  0.1642 -0.2375  0.1427
  453SOL     OW 1577   6.171   3.639   5.208  0.4163 -0.0723  0.4507
  453SOL    HW2 1578   6.131   3.568   5.158  2.2484 -0.7365 -0.1906
  453SOL    HW3 1579   6.169   3.715   5.150 -2.0061  0.5986  1.3261
  453SOL    MW4 1580   6.166   3.640   5.194 -0.0537 -0.3318  0.5152
  454SOL     OW 1581   5.841   4.333   2.449  0.3242 -0.3667 -0.4511
  454SOL    HW2 1582   5.848   4.429   2.448  0.9189 -0.3834  0.7154
  454SOL    HW3 1583   5.909   4.305   2.387  1.6287 -0.0692  0.7764
  454SOL    MW4 1584   5.851   4.342   2.440 -0.5925 -0.3199 -0.3724
  455SOL     OW 1585   5.826   2.305   2.036 -0.2608 -0.3716 -0.0865
  455SOL    HW2 1586   5.920   2.301   2.049 -0.2251 -1.8628 -0.6103
  455SOL    HW3 1587   5.807   2.234   1.975 -1.6377  0.3330 -0.5285
  455SOL    MW4 1588   5.836   2.295   2.030 -0.0387  0.6436  0.5871
  456SOL     OW 1589   2.976   5.810   1.931 -0.5878 -0.2157  0.4781
  456SOL    HW2 1590   2.982   5.714   1.937  2.0778 -0.0626  1.2929
  456SOL    HW3 1591   3.056   5.842   1.972 -0.3916  2.3382 -1.6207
  456SOL    MW4 1592   2.987   5.801   1.937 -0.8313  0.1572 -0.5375
  457SOL     OW 1593   2.360   3.152   5.001  0.3416  0.0679  0.8453
  457SOL    HW2 1594   2.282   3.195   5.037  0.0081 -2.0662  2.8703
  457SOL    HW3 1595   2.326   3.070   4.964  1.2187  0.5849 -1.2236
  457SOL    MW4 1596   2.345   3.147   5.001  0.1883  0.1633 -0.1064
  458SOL     OW 1597   4.292   5.037   4.442  0.3228  0.6872 -0.4980
  458SOL    HW2 1598   4.374   5.087   4.444  0.7520 -0.0158  0.4023
  458SOL    HW3 1599   4.315   4.953   4.481 -0.7631  0.3605 -0.5303
  458SOL    MW4 1600   4.306   5.032   4.447  0.1866 -0.7583 -0.3315
  459SOL     OW 1601   6.123   3.674   6.202 -0.4215  0.3052  0.6816
  459SOL    HW2 1602   6.064   3.665   6.277 -1.6721 -1.1493 -0.4124
  459SOL    HW3 1603   6.065   3.699   6.130  0.0733 -2.0338 -0.6234
  459SOL    MW4 1604   6.107   3.676   6.203 -0.7532  0.3980 -0.9214
  460SOL     OW 1605   5.244   0.634   2.773  0.7440 -0.3547 -0.6692
  460SOL    HW2 1606   5.296   0.666   2.699  3.3751  2.7359  2.1698
  460SOL    HW3 1607   5.185   0.707   2.793 -1.1073 -1.7932 -0.6237
  460SOL    MW4 1608   5.243   0.648   2.766  0.0489  0.1593 -0.5114
  461SOL     OW 1609   5.374   5.331   5.983  0.4655 -0.3063  0.3656
  461SOL    HW2 1610   5.373   5.300   6.074 -4.0039  0.6603  0.8690
  461SOL    HW3 1611   5.345   5.256   5.932  0.7535 -0.1862  0.0195
  461SOL    MW4 1612   5.370   5.317   5.988  0.2386 -0.3261  0.0886
  462SOL     OW 1613   5.299   5.913   3.125 -0.2325 -0.7369 -0.0928
  462SOL    HW2 1614   5.360   5.846   3.156 -0.7216 -0.4883  1.5147
  462SOL    HW3 1615   5.224   5.864   3.091  1.0360 -1.0660 -2.6519
  462SOL    MW4 1616   5.297   5.898   3.125 -0.5156  0.6472  1.2601
  463SOL     OW 1617   5.721   3.218   2.410  0.2261 -0.3850  0.2655
  463SOL    HW2 1618   5.643   3.207   2.355  0.9682  1.2833 -1.2544
  463SOL    HW3 1619   5.771   3.137   2.399 -1.2695 -1.4807  1.2799
  463SOL    MW4 1620   5.717   3.206   2.401 -0.1156  0.3279  0.6276
  464SOL     OW 1621   3.429   2.684   2.182  0.0126 -0.0217 -0.4105
  464SOL    HW2 1622   3.503   2.630   2.155 -0.9988  0.2416 -4.3178
  464SOL    HW3 1623   3.372   2.625   2.230  3.1199  0.0584  3.8959
  464SOL    MW4 1624   3.432   2.669   2.184  0.2180  0.8319 -0.7636
  465SOL     OW 1625   4.596   5.919   6.291  0.2408  0.2181 -0.2696
  465SOL    HW2 1626   4.549   5.869   6.225  0.7167  1.4572 -1.5779
  465SOL    HW3 1627   4.559   6.007   6.286  1.6192  0.8276 -0.2665
  465SOL    MW4 1628   4.585   5.924   6.282  0.2432  0.6516 -0.3286
  466SOL     OW 1629   5.578   5.362   0.077 -0.2414  0.4705  0.4563
  466SOL    HW2 1630   5.492   5.336   0.109 -0.8260  1.8610  0.0919
  466SOL    HW3 1631   5.632   5.284   0.088 -1.6703 -0.5955  0.2183
  466SOL    MW4 1632   5.574   5.348   0.083 -0.1002 -0.2044 -0.5370
  467SOL     OW 1633   2.022   1.039   4.698  0.0694 -0.2799  0.4526
  467SOL    HW2 1634   2.035   1.106   4.765  0.2845 -1.2492  1.4070
  467SOL    HW3 1635   2.064   1.075   4.620  0.5349  0.5320  1.0634
  467SOL    MW4 1636   2.029   1.052   4.696 -0.1975 -0.1025 -0.0532
  468SOL     OW 1637   2.411   0.418   3.113  0.0784 -0.1201 -0.0889
  468SOL    HW2 1638   2.330   0.466   3.128  0.0280 -0.2863  0.1685
  468SOL    HW3 1639   2.386   0.343   3.059 -0.1342 -0.7909  0.9264
  468SOL    MW4 1640   2.397   0.414   3.108 -0.2512  0.1679  0.0188
  469SOL     OW 1641   2.545   3.053   5.353 -0.3651  0.2823  0.1907
  469SOL    HW2 1642   2.596   2.973   5.364 -0.9451 -0.0097  0.8341
  469SOL    HW3 1643   2.553   3.075   5.261 -1.1111 -1.1365 -0.2434
  469SOL    MW4 1644   2.553   3.046   5.343 -0.1347  0.3291 -0.6177
  470SOL     OW 1645   1.261   0.980   2.054 -0.0998 -0.2881 -0.3121
  470SOL    HW2 1646   1.309   0.984   1.972  0.7216 -1.8217  0.0461
  470SOL    HW3 1647   1.329   0.987   2.122 -0.7843  1.1722  0.2540
  470SOL    MW4 1648   1.276   0.981   2.052 -0.1336 -0.0062  0.0292
  471SOL     OW 1649   4.484   0.155   4.898  0.0997 -0.4527 -0.2217
  471SOL    HW2 1650   4.543   0.199   4.837 -0.3827  0.1468 -0.2624
  471SOL    HW3 1651   4.494   0.204   4.980 -1.0542  0.2635 -0.4925
  471SOL    MW4 1652   4.493   0.167   4.901 -0.2661  0.1222  0.3509
  472SOL     OW 1653   5.936   0.842   1.533 -0.0520 -0.4253  0.4857
  472SOL    HW2 1654   5.946   0.873   1.443  0.5573 -1.4833  0.1659
  472SOL    HW3 1655   5.842   0.828   1.544 -0.0458 -1.1227 -0.2831
  472SOL    MW4 1656   5.925   0.844   1.522 -0.1464 -0.3717  0.1451
  473SOL     OW 1657   4.949   4.412   6.141 -0.7352  0.2358 -0.5637
  473SOL    HW2 1658   4.927   4.325   6.107 -0.0153 -0.3691  0.4527
  473SOL    HW3 1659   4.988   4.395   6.227  2.5350  1.2775 -1.6666
  473SOL    MW4 1660   4.951   4.398   6.148 -0.1725  0.1848  0.7975
  474SOL     OW 1661   5.539   6.356   6.380  0.1052  0.2583  0.1181
  474SOL    HW2 1662   5.451   6.390   6.363 -0.3945 -0.6608  0.8393
  474SOL    HW3 1663   5.593   6.435   6.388 -0.9808  0.8977  1.4748
  474SOL    MW4 1664   5.535   6.371   6.379  0.0963  0.0152  0.3892
  475SOL     OW 1665   2.925   1.906   1.680  0.2618  0.0467  0.2417
  475SOL    HW2 1666   2.942   2.000   1.685 -1.3016  0.4352 -1.0197
  475SOL    HW3 1667   2.993   1.872   1.622  0.4347  0.5075  0.1697
  475SOL    MW4 1668   2.936   1.914   1.673 -0.6366  0.0515 -0.4145
  476SOL     OW 1669   5.016   0.083   5.717  0.5480  0.0638  0.1442
  476SOL    HW2 1670   5.030   0.160   5.663  1.1096 -1.1402 -1.5301
  476SOL    HW3 1671   4.983   0.016   5.657  0.1119 -1.0329  1.5188
  476SOL    MW4 1672   5.014   0.084   5.702 -0.5231 -0.1149  0.0315
  477SOL     OW 1673   6.246   2.917   0.374  0.2704  0.2286 -0.2413
  477SOL    HW2 1674   6.281   2.973   0.443  1.6793  1.5895 -1.9707
  477SOL    HW3 1675   6.311   2.848   0.363  0.5767  0.6055 -0.8786
  477SOL    MW4 1676   6.259   2.915   0.382 -0.6913 -0.4256  0.0878
  478SOL     OW 1677   6.215   5.899   2.869 -0.2207 -0.1229  0.2351
  478SOL    HW2 1678   6.245   5.879   2.781  0.9138 -1.0941  0.8123
  478SOL    HW3 1679   6.150   5.831   2.888  1.0816 -1.2337  0.8992
  478SOL    MW4 1680   6.210   5.887   2.860  0.0766  0.2925  0.4692
  479SOL     OW 1681   1.365   2.049   1.864  0.1744 -0.5739  0.2745
  479SOL    HW2 1682   1.428   1.990   1.905  0.0777 -1.9050 -1.3950
  479SOL    HW3 1683   1.415   2.095   1.797 -0.5071 -1.4152 -0.8504
  479SOL    MW4 1684   1.380   2.047   1.861  0.0406 -0.0131  0.0364
  480SOL     OW 1685   1.916   1.595   1.958  0.2154  0.3537 -0.4921
  480SOL    HW2 1686   1.955   1.584   2.045  1.2369 -0.1910 -1.0010
  480SOL    HW3 1687   1.851   1.525   1.952 -0.3653  0.8301  0.0938
  480SOL    MW4 1688   1.912   1.584   1.969 -0.1779 -0.4029  0.4980
  481SOL     OW 1689   5.841   0.868   0.708 -0.4329  0.5987  0.0012
  481SOL    HW2 1690   5.898   0.792   0.694 -1.4853 -0.0418 -0.9980
  481SOL    HW3 1691   5.752   0.833   0.705 -0.9205  1.7219  0.5705
  481SOL    MW4 1692   5.837   0.853   0.705 -0.4041 -0.0349  0.1144
  482SOL     OW 1693   2.305   1.196   3.579 -0.6235  0.2081 -0.5422
  482SOL    HW2 1694   2.247   1.170   3.650  2.3608  0.8447  2.3675
  482SOL    HW3 1695   2.268   1.278   3.547 -2.6277 -0.6334 -0.5408
  482SOL    MW4 1696   2.293   1.203   3.584  0.4152  0.2150 -0.2350
  483SOL     OW 1697   0.145   4.013   0.259 -0.0268 -0.3597  0.1051
  483SOL    HW2 1698   0.185   4.067   0.191 -1.6943  0.4470 -0.2867
  483SOL    HW3 1699   0.116   4.075   0.325 -3.9369 -0.3558 -1.3386
  483SOL    MW4 1700   0.146   4.028   0.259  0.1176  0.3839 -0.3245
  484SOL     OW 1701   0.336   6.105   4.316  0.1027  0.0987 -0.0428
  484SOL    HW2 1702   0.260   6.157   4.341 -1.6048 -2.7701  1.2243
  484SOL    HW3 1703   0.355   6.052   4.393  1.9028 -0.9656 -1.1615
  484SOL    MW4 1704   0.328   6.105   4.329  0.2874 -0.2839 -0.1071
  485SOL     OW 1705   5.716   0.617   2.602 -0.0779 -0.0710 -0.1174
  485SOL    HW2 1706   5.744   0.632   2.512  0.0589 -1.1355 -0.2628
  485SOL    HW3 1707   5.621   0.609   2.597  0.0889 -2.7659 -0.6196
  485SOL    MW4 1708   5.707   0.618   2.590 -0.4688  0.5259  0.0583
  486SOL     OW 1709   1.302   3.349   4.368 -0.8648  0.0094 -0.0134
  486SOL    HW2 1710   1.297   3.363   4.274 -1.2162 -0.2104 -0.0280
  486SOL    HW3 1711   1.376   3.402   4.397 -0.3778 -0.3948 -0.5042
  486SOL    MW4 1712   1.311   3.358   4.360  0.2088  0.2392  0.5237
  487SOL     OW 1713   4.422   2.979   1.419  0.3394 -0.1799 -0.4512
  487SOL    HW2 1714   4.436   3.049   1.355 -1.4195 -0.3036 -1.0373
  487SOL    HW3 1715   4.381   2.909   1.369 -0.2222 -0.6460  0.6239
  487SOL    MW4 1716   4.418   2.979   1.404 -0.0530  0.0125  0.2718
  488SOL     OW 1717   3.040   5.313   1.433 -0.0310 -0.6122  0.0295
  488SOL    HW2 1718   3.049   5.282   1.523 -0.1058  0.7120  0.5196
  488SOL    HW3 1719   2.992   5.396   1.441  0.7894  0.0112 -1.1297
  488SOL    MW4 1720   3.035   5.320   1.445 -0.2588  0.1751 -0.2153
  489SOL     OW 1721   0.616   5.390   6.395  0.0471 -0.4507 -0.3316
  489SOL    HW2 1722   0.656   5.476   6.407 -2.0252  0.8627 -2.0758
  489SOL    HW3 1723   0.528   5.399   6.431 -0.0734 -2.0100 -0.1513
  489SOL    MW4 1724   0.610   5.402   6.401 -0.3248  0.5235 -0.4092
  490SOL     OW 1725   5.656   6.119   0.190  0.1917  0.4179 -0.5323
  490SOL    HW2 1726   5.693   6.196   0.146  0.5283  0.1262 -0.7663
  490SOL    HW3 1727   5.583   6.154   0.241 -0.7408  0.6528 -1.9562
  490SOL    MW4 1728   5.651   6.134   0.191  0.0491 -0.2911 -0.2087
  491SOL     OW 1729   0.415   1.221   5.689 -0.2780  0.4646  0.7127
  491SOL    HW2 1730   0.356   1.296   5.700 -1.5779 -0.4922  0.5079
  491SOL    HW3 1731   0.376   1.152   5.743  1.2168  0.0896  1.3666
  491SOL    MW4 1732   0.402   1.222   5.698 -0.1043 -0.4831 -0.1208
  492SOL     OW 1733   4.407   1.819   1.335 -0.0207 -0.4215  0.6244
  492SOL    HW2 1734   4.407   1.736   1.383  1.3532 -0.1428  1.1700
  492SOL    HW3 1735   4.453   1.880   1.393  0.0889  0.3944 -0.2913
  492SOL    MW4 1736   4.413   1.816   1.349  0.1631 -0.5446 -0.1502
  493SOL     OW 1737   4.259   3.400   0.698  0.1463 -0.5921 -0.3464
  493SOL    HW2 1738   4.323   3.329   0.690  0.2364 -0.6416  0.6534
  493SOL    HW3 1739   4.190   3.378   0.636  0.0813 -1.6505  0.0907
  493SOL    MW4 1740   4.259   3.388   0.689 -0.4492 -0.1722  0.3974
  494SOL     OW 1741   1.720   4.724   3.776  0.3445 -0.8170 -0.3902
  494SOL    HW2 1742   1.802   4.773   3.770 -1.0168  1.7142  0.3230
  494SOL    HW3 1743   1.671   4.752   3.699 -1.0621  0.2315  0.8228
  494SOL    MW4 1744   1.724   4.734   3.765 -0.8070 -0.3682 -0.5670
  495SOL     OW 1745   4.321   0.819   5.482  0.3817  0.2374 -0.2111
  495SOL    HW2 1746   4.310   0.738   5.532 -2.2194 -0.3129 -1.5254
  495SOL    HW3 1747   4.325   0.887   5.549 -3.0142 -0.4687  0.9131
  495SOL    MW4 1748   4.320   0.817   5.497 -0.7692 -0.1503 -0.1840
  496SOL     OW 1749   2.771   4.678   6.058 -0.0017 -0.0291 -0.1395
  496SOL    HW2 1750   2.735   4.614   5.996  1.3475 -1.8144  0.8467
  496SOL    HW3 1751   2.705   4.685   6.127 -0.8089  0.7978 -0.9646
  496SOL    MW4 1752   2.757   4.671   6.059 -0.6842 -0.1968 -0.4408
  497SOL     OW 1753   6.213   0.776   6.363 -0.0101 -0.3768  0.1489
  497SOL    HW2 1754   6.234   0.856   6.315  0.1704 -1.2482 -1.2481
  497SOL    HW3 1755   6.297   0.739   6.388 -0.0553 -0.7823 -0.2954
  497SOL    MW4 1756   6.227   0.782   6.360  0.0152  0.2935 -0.0927
  498SOL     OW 1757   5.004   0.087   1.460  0.3473 -0.1357 -0.5892
  498SOL    HW2 1758   5.035   0.134   1.383 -0.7611  0.3373 -0.7588
  498SOL    HW3 1759   5.062   0.117   1.531  1.0917 -0.2486 -1.1402
  498SOL    MW4 1760   5.016   0.098   1.459 -0.3087 -0.0609 -0.4411
  499SOL     OW 1761   4.060   2.767   1.423 -0.4255 -0.5162  0.5691
  499SOL    HW2 1762   4.134   2.708   1.407 -0.0916  0.5769 -2.8240
  499SOL    HW3 1763   3.982   2.713   1.409 -0.2044 -0.9132  0.8604
  499SOL    MW4 1764   4.059   2.752   1.419 -0.4903 -0.2223 -0.1421
  500SOL     OW 1765   2.711   1.646   6.348  0.0607 -0.3458 -0.2924
  500SOL    HW2 1766   2.626   1.651   6.390 -0.1328 -0.7546 -0.6232
  500SOL    HW3 1767   2.774   1.650   6.420 -0.2790 -3.5861  0.3748
  500SOL    MW4 1768   2.708   1.647   6.363 -0.3946  0.0058 -0.0129
  501SOL     OW 1769   4.065   6.007   0.535  0.4339 -0.3029 -0.6652
  501SOL    HW2 1770   4.009   6.085   0.531  0.9113  0.0140 -1.3147
  501SOL    HW3 1771   4.150   6.040   0.564  0.5852 -0.6068 -0.7626
  501SOL    MW4 1772   4.069   6.022   0.538  0.0352 -0.7302  0.6136
  502SOL     OW 1773   1.007   4.207   4.219 -0.1293 -0.6911 -0.1582
  502SOL    HW2 1774   1.082   4.194   4.276 -0.7247 -1.2057  0.5217
  502SOL    HW3 1775   1.017   4.296   4.186  0.2250 -0.3888  0.7445
  502SOL    MW4 1776   1.018   4.217   4.222 -0.2381 -0.3640 -0.3073
  503SOL     OW 1777   0.210   1.926   4.918 -0.2672  0.4240 -0.4021
  503SOL    HW2 1778   0.235   1.870   4.991  1.0067  1.7562  0.2290
  503SOL    HW3 1779   0.264   1.895   4.845 -0.0963  0.3699 -0.2532
  503SOL    MW4 1780   0.220   1.914   4.918 -0.0657  0.1959 -0.9997
  504SOL     OW 1781   0.942   0.657   0.423  0.4690 -0.2489  0.5988
  504SOL    HW2 1782   0.924   0.566   0.400  0.4060 -0.4722  1.5102
  504SOL    HW3 1783   0.871   0.681   0.482  0.3719  0.4638  0.1997
  504SOL    MW4 1784   0.930   0.648   0.427  0.5380  0.2648 -0.3845
  505SOL     OW 1785   5.565   3.976   4.919  0.2251  0.3295  1.0734
  505SOL    HW2 1786   5.643   3.947   4.872 -0.3621 -1.3531  1.0700
  505SOL    HW3 1787   5.583   3.957   5.011  0.2066  0.8528  1.1856
  505SOL    MW4 1788   5.578   3.969   4.925 -0.5332  0.0615 -0.4178
  506SOL     OW 1789   3.837   4.232   1.280  0.3420 -0.2131 -0.6051
  506SOL    HW2 1790   3.852   4.164   1.214 -0.1562  0.3151 -1.2810
  506SOL    HW3 1791   3.744   4.251   1.274  0.7021  1.4979 -1.4162
  506SOL    MW4 1792   3.827   4.226   1.270  0.2959 -0.0054  0.1076
  507SOL     OW 1793   0.029   5.631   0.974  0.7253 -0.1379  0.4039
  507SOL    HW2 1794  -0.018   5.665   0.898  1.5830  1.7012  0.6324
  507SOL    HW3 1795   0.044   5.708   1.029  0.1323 -1.4000  2.4716
  507SOL    MW4 1796   0.025   5.646   0.971  0.1046  0.3450 -0.2140
  508SOL     OW 1797   5.994   1.689   2.804  0.3408 -0.3644  0.2975
  508SOL    HW2 1798   5.920   1.749   2.793 -0.2247 -0.8494  1.3468
  508SOL    HW3 1799   6.034   1.685   2.717  0.1689  1.2297  0.1075
  508SOL    MW4 1800   5.990   1.697   2.791 -0.3810  0.4898 -0.4509
  509SOL     OW 1801   4.965   4.120   5.689 -0.2520 -0.0499 -0.1683
  509SOL    HW2 1802   5.056   4.141   5.708  0.1104  0.9232 -2.5594
  509SOL    HW3 1803   4.922   4.205   5.678  0.0284 -0.2255 -4.8414
  509SOL    MW4 1804   4.971   4.134   5.690  0.1930 -0.2554 -0.1358
  510SOL     OW 1805   1.367   3.679   3.593 -0.1267 -0.2455 -0.6446
  510SOL    HW2 1806   1.447   3.719   3.628 -0.8606  0.8068 -0.0994
  510SOL    HW3 1807   1.356   3.718   3.506 -0.3719  0.1033 -0.4631
  510SOL    MW4 1808   1.376   3.689   3.586  0.2429  0.1721 -0.3642
  511SOL     OW 1809   3.127   4.421   0.082  0.3013  0.2489 -0.2947
  511SOL    HW2 1810   3.189   4.468   0.025 -0.4393  0.2038 -1.1679
  511SOL    HW3 1811   3.043   4.464   0.066 -0.4087 -1.3660 -1.1508
  511SOL    MW4 1812   3.124   4.433   0.072 -0.1429 -0.8284 -0.4452
  512SOL     OW 1813   2.431   4.012   5.572  0.0910  0.1245  0.0708
  512SOL    HW2 1814   2.338   4.026   5.554 -0.4434  1.9973  3.4306
  512SOL    HW3 1815   2.436   3.923   5.605 -0.8277  0.4233  1.1031
  512SOL    MW4 1816   2.419   4.002   5.574  0.0833  0.2439  0.5551
  513SOL     OW 1817   1.373   1.368   0.101  0.1723  0.1082 -0.2627
  513SOL    HW2 1818   1.361   1.276   0.125  1.6779  0.1624  0.8099
  513SOL    HW3 1819   1.380   1.413   0.185 -2.3153  1.5158 -0.7092
  513SOL    MW4 1820   1.372   1.361   0.115 -0.1526 -0.1629  0.2393
  514SOL     OW 1821   3.571   2.035   0.489  0.1767  0.1139  0.1924
  514SOL    HW2 1822   3.508   2.098   0.452  0.3603  0.4766  0.4979
  514SOL    HW3 1823   3.555   1.954   0.440 -0.1638  0.3556 -0.0994
  514SOL    MW4 1824   3.561   2.032   0.477  0.0759 -0.0306 -0.9951
  515SOL     OW 1825   3.041   1.391   0.543  0.6371 -0.0269  0.1053
  515SOL    HW2 1826   3.114   1.380   0.605  0.4601 -0.6844  0.2090
  515SOL    HW3 1827   3.019   1.301   0.518 -0.3828  0.1486  0.3577
  515SOL    MW4 1828   3.048   1.378   0.548  0.3146 -0.1521  0.3963
  516SOL     OW 1829   1.973   4.698   2.883  0.2775  0.2117  0.4529
  516SOL    HW2 1830   2.059   4.676   2.920  0.7995  2.3720  0.6604
  516SOL    HW3 1831   1.994   4.736   2.797 -0.4032  1.3858  0.7899
  516SOL    MW4 1832   1.987   4.700   2.876  0.0247  0.1666  0.3470
  517SOL     OW 1833   0.385   1.504   6.013  0.3292 -0.1264 -0.5911
  517SOL    HW2 1834   0.442   1.428   5.997 -0.6638 -1.0443  0.1449
  517SOL    HW3 1835   0.442   1.579   5.997  1.8062 -1.0138  0.2454
  517SOL    MW4 1836   0.400   1.504   6.009 -0.1086 -0.3085 -0.3974
  518SOL     OW 1837   3.609   5.191   3.545  0.4815  0.1301 -0.1964
  518SOL    HW2 1838   3.562   5.257   3.597 -0.1102 -0.3373 -0.1368
  518SOL    HW3 1839   3.541   5.142   3.500  0.8475 -1.1934  0.6448
  518SOL    MW4 1840   3.594   5.193   3.546  0.9443 -0.4564  0.1624
  519SOL     OW 1841   3.662   1.295   4.474 -0.3450  0.3705  0.3756
  519SOL    HW2 1842   3.693   1.240   4.546 -1.0690 -1.1250 -0.3890
  519SOL    HW3 1843   3.727   1.365   4.467  1.6511 -1.3808  0.2556
  519SOL    MW4 1844   3.675   1.297   4.483 -0.0811  0.0642  0.2442
  520SOL     OW 1845   4.795   4.294   1.589  0.6079 -0.4658 -0.0359
  520SOL    HW2 1846   4.787   4.340   1.672  1.3415  1.2905 -0.8938
  520SOL    HW3 1847   4.740   4.217   1.599 -0.1758  0.2698  1.6777
  520SOL    MW4 1848   4.787   4.290   1.601 -0.6904 -0.3707 -0.0936
  521SOL     OW 1849   2.810   5.162   0.373 -0.0474  0.1726  0.3174
  521SOL    HW2 1850   2.880   5.227   0.363 -0.1164  0.2864  0.5706
  521SOL    HW3 1851   2.738   5.210   0.413 -0.5438  0.2361 -0.6340
  521SOL    MW4 1852   2.810   5.177   0.377  0.0560 -0.1516  0.0490
  522SOL     OW 1853   2.151   5.378   0.230 -0.2443  0.0316  0.2944
  522SOL    HW2 1854   2.071   5.327   0.213 -0.3308  0.2191  0.1332
  522SOL    HW3 1855   2.125   5.468   0.212  0.0642  0.0690  0.0390
  522SOL    MW4 1856   2.137   5.383   0.226 -0.0018  0.0348  0.4036
  523SOL     OW 1857   4.874   0.731   5.988  0.4574 -0.2459  0.0961
  523SOL    HW2 1858   4.874   0.670   6.062  2.8550  0.8498  1.1045
  523SOL    HW3 1859   4.873   0.818   6.029  0.0673  0.3865 -1.2265
  523SOL    MW4 1860   4.874   0.734   6.003 -0.5389 -0.0162  0.4249
  524SOL     OW 1861   1.977   0.559  -0.004 -0.0767 -0.1912 -0.5055
  524SOL    HW2 1862   1.900   0.509  -0.031 -0.2344 -0.5384  0.5527
  524SOL    HW3 1863   1.947   0.650   0.002 -0.6553 -0.4557  0.8054
  524SOL    MW4 1864   1.963   0.564  -0.007  0.7795 -0.5964  0.4785
  525SOL     OW 1865   0.624   2.509   2.220 -0.0150 -0.0034  0.6245
  525SOL    HW2 1866   0.687   2.578   2.199  0.9140 -0.8398  0.6170
  525SOL    HW3 1867   0.561   2.511   2.148  1.7125 -1.1573 -0.9845
  525SOL    MW4 1868   0.624   2.518   2.208 -0.0313  0.3714  0.1161
  526SOL     OW 1869   1.399   0.814   5.045  0.4255 -0.1238 -0.0159
  526SOL    HW2 1870   1.473   0.754   5.034 -0.7340 -1.7719  0.6629
  526SOL    HW3 1871   1.337   0.788   4.977 -0.4285 -0.2235  0.7895
  526SOL    MW4 1872   1.401   0.803   5.035 -0.1599  0.4826  0.5517
  527SOL     OW 1873   1.222   1.878   3.376 -0.1794 -0.1598 -0.2809
  527SOL    HW2 1874   1.153   1.928   3.419  0.3092 -0.8451  1.3972
  527SOL    HW3 1875   1.303   1.912   3.413  0.3017 -0.4574 -1.0338
  527SOL    MW4 1876   1.224   1.889   3.386  0.6522  0.4273  0.0876
  528SOL     OW 1877   3.189   5.343   0.963 -0.1197 -0.4307  0.1736
  528SOL    HW2 1878   3.262   5.284   0.981  0.5186  0.6792  1.3799
  528SOL    HW3 1879   3.218   5.396   0.889  0.5553  0.4172  1.0366
  528SOL    MW4 1880   3.202   5.342   0.956  0.0418  0.0204  0.4987
  529SOL     OW 1881   3.125   2.491   4.678  0.0296 -0.6000 -1.2309
  529SOL    HW2 1882   3.163   2.570   4.715  2.2914 -2.1458  0.0220
  529SOL    HW3 1883   3.032   2.510   4.668 -0.0605  1.1680  1.9326
  529SOL    MW4 1884   3.117   2.504   4.682  0.1762  0.5624 -0.2464
  530SOL     OW 1885   1.723   3.889   0.805  0.1220  0.6218 -0.3713
  530SOL    HW2 1886   1.656   3.823   0.787  0.6959  0.1245 -0.7123
  530SOL    HW3 1887   1.792   3.871   0.742  0.7968  0.8250  0.2895
  530SOL    MW4 1888   1.723   3.878   0.794 -0.0211  0.1140  0.2372
  531SOL     OW 1889   3.453   2.542   1.778 -0.3740  0.6384  0.4199
  531SOL    HW2 1890   3.495   2.476   1.834  1.1395  1.2078  0.0229
  531SOL    HW3 1891   3.522   2.567   1.716 -1.7253  0.6801 -1.1379
  531SOL    MW4 1892   3.468   2.536   1.777  0.3444  0.2815  0.2945
  532SOL     OW 1893   2.417   5.985   5.455 -0.4674 -0.2964 -0.4238
  532SOL    HW2 1894   2.400   5.917   5.390 -0.9935 -0.4654 -0.1155
  532SOL    HW3 1895   2.512   5.993   5.457 -0.4643  0.4621 -1.9767
  532SOL    MW4 1896   2.427   5.977   5.447  0.5827 -0.2921 -0.4509
  533SOL     OW 1897   4.393   1.016   4.540  0.0845  0.5716  0.5503
  533SOL    HW2 1898   4.345   1.030   4.458  0.6835 -3.5311 -0.6966
  533SOL    HW3 1899   4.325   0.995   4.604 -0.1841  1.1808  0.4789
  533SOL    MW4 1900   4.377   1.015   4.538  0.4243  0.3119  0.0897
  534SOL     OW 1901   5.510   5.670   4.247 -0.0947 -0.1865 -0.1508
  534SOL    HW2 1902   5.561   5.612   4.192  0.7030  1.6617 -1.4825
  534SOL    HW3 1903   5.530   5.642   4.337  1.0771 -1.2583 -0.7161
  534SOL    MW4 1904   5.520   5.659   4.252  0.0045 -0.0352 -0.3264
  535SOL     OW 1905   2.950   3.587   4.164 -0.6706  0.6379 -0.1186
  535SOL    HW2 1906   2.855   3.602   4.169 -0.9591 -0.2832 -1.7892
  535SOL    HW3 1907   2.959   3.517   4.098  1.1172  0.1001  0.6375
  535SOL    MW4 1908   2.938   3.579   4.156  0.0074 -0.2263  0.1147
  536SOL     OW 1909   6.057   1.432   5.654  0.2752  0.8233 -0.2706
  536SOL    HW2 1910   6.031   1.449   5.745  0.5687  0.3267 -0.0870
  536SOL    HW3 1911   5.997   1.363   5.625  0.4578  0.6822 -0.3136
  536SOL    MW4 1912   6.046   1.425   5.662 -0.2770 -0.0187 -0.0718
  537SOL     OW 1913   4.472   4.461   0.386 -0.0458  0.2978 -0.2836
  537SOL    HW2 1914   4.421   4.458   0.304  1.0408  1.8604 -1.0750
  537SOL    HW3 1915   4.563   4.448   0.358  0.5719  2.7047  0.3620
  537SOL    MW4 1916   4.477   4.459   0.371  0.0566  0.2530  0.1050
  538SOL     OW 1917   0.127   5.340   4.738  0.0779 -0.1660  0.1919
  538SOL    HW2 1918   0.161   5.327   4.649 -0.9354  0.4102 -0.2915
  538SOL    HW3 1919   0.167   5.422   4.767 -0.5944  0.3295 -0.2454
  538SOL    MW4 1920   0.137   5.349   4.730 -0.1698  0.3548  0.1844
  539SOL     OW 1921   3.312   1.822   3.678  0.7614  0.0897 -0.1007
  539SOL    HW2 1922   3.247   1.833   3.747  1.5657 -0.1974  0.7241
  539SOL    HW3 1923   3.301   1.731   3.649  0.2333  0.2940 -0.5637
  539SOL    MW4 1924   3.302   1.811   3.684  0.5570 -0.9033 -0.0242
  540SOL     OW 1925   3.185   0.364   6.356  0.3937  0.8264 -0.1579
  540SOL    HW2 1926   3.170   0.270   6.367  0.1711  0.8202 -0.5029
  540SOL    HW3 1927   3.247   0.386   6.425  1.4084  0.1788 -0.8349
  540SOL    MW4 1928   3.191   0.354   6.367 -0.2524  0.4096 -0.4447
  541SOL     OW 1929   2.888   0.782   2.103  0.7445 -0.3264  0.2624
  541SOL    HW2 1930   2.913   0.716   2.039 -0.2462 -0.4480 -0.0056
  541SOL    HW3 1931   2.814   0.828   2.064 -0.2564 -0.7788  1.5446
  541SOL    MW4 1932   2.882   0.779   2.090 -0.3448  0.1399 -0.3974
  542SOL     OW 1933   0.835   4.972   1.340  0.2161 -0.1441 -0.1274
  542SOL    HW2 1934   0.929   4.955   1.338  0.5820  1.7097 -1.4698
  542SOL    HW3 1935   0.827   5.062   1.369 -1.1833 -0.3728  0.2853
  542SOL    MW4 1936   0.846   4.981   1.344  0.2981 -0.0325 -0.3595
  543SOL     OW 1937   5.812   4.903   4.501  0.1526  0.5137  0.3270
  543SOL    HW2 1938   5.801   4.846   4.425  0.3007 -0.3854  0.9600
  543SOL    HW3 1939   5.734   4.886   4.555  0.7659  0.0037  1.0804
  543SOL    MW4 1940   5.800   4.893   4.498  0.0002 -0.1737 -0.0121
  544SOL     OW 1941   1.775   4.141   0.907  0.4888  0.4928  0.1026
  544SOL    HW2 1942   1.739   4.054   0.891  1.1436  0.5562 -2.0449
  544SOL    HW3 1943   1.845   4.127   0.971 -0.3502 -0.3008  0.8799
  544SOL    MW4 1944   1.779   4.128   0.913  0.4703 -0.6920 -0.6953
  545SOL     OW 1945   2.466   6.413   3.849 -0.2984  0.5513 -0.0038
  545SOL    HW2 1946   2.479   6.348   3.780 -0.6892 -0.0989  0.5175
  545SOL    HW3 1947   2.407   6.478   3.811 -0.2203  0.3879 -0.4042
  545SOL    MW4 1948   2.460   6.413   3.835  0.7227 -0.4251  0.1026
  546SOL     OW 1949   3.103   2.056   3.310  0.4134  0.0268 -0.5153
  546SOL    HW2 1950   3.127   2.071   3.219 -0.7327 -1.0311 -1.0192
  546SOL    HW3 1951   3.148   1.975   3.334  1.0165  0.4998  0.0004
  546SOL    MW4 1952   3.112   2.048   3.301 -0.1745  0.0086 -0.4729
  547SOL     OW 1953   1.245   1.718   4.561  0.3962 -0.2111  0.0308
  547SOL    HW2 1954   1.238   1.623   4.549  0.7318 -0.2632  0.2305
  547SOL    HW3 1955   1.264   1.728   4.654 -0.1545  0.0801  0.1157
  547SOL    MW4 1956   1.246   1.707   4.572  0.2001 -0.1782  0.4783
  548SOL     OW 1957   3.735   5.428   1.529  0.0319  0.1604 -0.2842
  548SOL    HW2 1958   3.763   5.357   1.587  0.8278 -0.7032 -1.6432
  548SOL    HW3 1959   3.640   5.433   1.540 -0.2451 -2.0709 -1.1241
  548SOL    MW4 1960   3.726   5.419   1.538  0.2439 -0.3143 -0.4532
  549SOL     OW 1961   0.590   2.552   1.914  0.2518 -0.0276 -0.7154
  549SOL    HW2 1962   0.674   2.506   1.921  0.6471  0.7096 -0.4676
  549SOL    HW3 1963   0.535   2.494   1.863  0.5725 -1.0054  0.0173
  549SOL    MW4 1964   0.594   2.539   1.908 -0.0270 -0.1669  0.2662
  550SOL     OW 1965   2.844   1.750   3.820  0.1493  0.3011 -0.3003
  550SOL    HW2 1966   2.815   1.803   3.894  1.9437  0.0813  0.6072
  550SOL    HW3 1967   2.878   1.670   3.859 -0.0733 -0.3871 -1.4700
  550SOL    MW4 1968   2.845   1.747   3.835  0.4897  0.1816 -0.2018
  551SOL     OW 1969   5.678   0.197   0.562  0.7540 -0.5620  0.0722
  551SOL    HW2 1970   5.673   0.292   0.555 -0.9147 -0.7426 -2.0454
  551SOL    HW3 1971   5.707   0.182   0.652 -0.5912  1.9047  1.0220
  551SOL    MW4 1972   5.681   0.208   0.573 -0.3653 -0.3231 -0.0168
  552SOL     OW 1973   2.648   3.089   4.634 -0.9090 -0.6872  0.0920
  552SOL    HW2 1974   2.633   3.168   4.581 -0.4389 -0.6377  0.0344
  552SOL    HW3 1975   2.700   3.032   4.578 -1.3238 -1.0830  0.0977
  552SOL    MW4 1976   2.653   3.092   4.619 -0.2087 -0.2811 -0.3814
  553SOL     OW 1977   0.303   0.758   0.383  0.0516  0.0010  0.5104
  553SOL    HW2 1978   0.217   0.801   0.385  0.4096  0.7149  0.9427
  553SOL    HW3 1979   0.294   0.686   0.446  0.1088  0.7683  1.4268
  553SOL    MW4 1980   0.290   0.754   0.392  0.6213  0.0995  0.1312
  554SOL     OW 1981   1.310   3.448   0.224  0.1413  0.1250 -0.2427
  554SOL    HW2 1982   1.254   3.370   0.220 -0.9127  0.6415  2.2744
  554SOL    HW3 1983   1.397   3.415   0.241 -0.3387 -0.5248  1.0379
  554SOL    MW4 1984   1.314   3.433   0.226 -0.3493 -0.2070  0.2492
  555SOL     OW 1985   3.072   4.601   2.591 -0.1584  0.3910 -0.4410
  555SOL    HW2 1986   3.048   4.513   2.563  1.0786  0.0443 -0.4980
  555SOL    HW3 1987   3.002   4.628   2.651  0.8940 -1.8740  2.0109
  555SOL    MW4 1988   3.060   4.593   2.595 -0.0074 -0.3598 -0.0515
  556SOL     OW 1989   1.198   4.443   5.539  0.0193 -0.0373  0.1283
  556SOL    HW2 1990   1.110   4.409   5.520  0.3253 -1.2160  0.6775
  556SOL    HW3 1991   1.245   4.435   5.457  0.2652 -1.6047  0.3885
  556SOL    MW4 1992   1.192   4.437   5.526 -0.6295  0.1240  0.0279
  557SOL     OW 1993   4.114   5.080   3.064 -0.2076 -0.0258  0.4444
  557SOL    HW2 1994   4.050   5.016   3.032 -0.0953  0.0718  0.0193
  557SOL    HW3 1995   4.199   5.041   3.045 -0.1272 -0.4039  1.5098
  557SOL    MW4 1996   4.117   5.066   3.058  0.0997  0.3441 -0.2338
  558SOL     OW 1997   3.567   4.796   1.410 -0.4073  0.2940 -0.5102
  558SOL    HW2 1998   3.531   4.874   1.366 -1.0018 -0.3891 -1.2839
  558SOL    HW3 1999   3.490   4.748   1.440 -0.0536 -0.0828 -0.1921
  558SOL    MW4 2000   3.552   4.800   1.408 -0.0040  0.1394 -0.3053
  559SOL     OW 2001   2.570   3.936   5.340  0.4822 -0.5305 -0.0120
  559SOL    HW2 2002   2.520   3.969   5.415 -0.4976  0.3090 -1.0012
  559SOL    HW3 2003   2.611   3.856   5.372  0.9108  0.3364  1.7253
  559SOL    MW4 2004   2.569   3.930   5.354  0.2998  0.2398  0.0063
  560SOL     OW 2005   2.592   3.290   4.448  0.0493 -0.5128  0.0751
  560SOL    HW2 2006   2.505   3.322   4.422 -0.0423 -1.2749 -0.5941
  560SOL    HW3 2007   2.637   3.274   4.365  0.3953 -1.2619  0.4016
  560SOL    MW4 2008   2.586   3.292   4.434  0.4000  0.0401  0.3618
  561SOL     OW 2009   2.388   4.908   6.340 -0.0283 -0.1376 -0.4529
  561SOL    HW2 2010   2.427   4.993   6.360 -2.4901  1.1083 -0.5702
  561SOL    HW3 2011   2.397   4.898   6.245  0.2494 -0.0100 -0.4394
  561SOL    MW4 2012   2.395   4.918   6.330 -0.1208  0.0372  0.2301
  562SOL     OW 2013   1.893   1.129   4.119 -0.5811 -0.0743  0.1287
  562SOL    HW2 2014   1.871   1.041   4.089 -2.3167  0.8701 -1.5804
  562SOL    HW3 2015   1.810   1.165   4.151 -0.2985  1.5246 -0.8246
  562SOL    MW4 2016   1.879   1.122   4.119  0.0416 -0.4335  0.4399
  563SOL     OW 2017   0.656   1.818   3.628 -0.5623 -0.3110  0.0588
  563SOL    HW2 2018   0.714   1.861   3.566 -0.9740 -0.7122 -0.6173
  563SOL    HW3 2019   0.715   1.786   3.697 -0.2812  1.5711  0.7526
  563SOL    MW4 2020   0.672   1.819   3.629  0.0014 -0.5609 -0.0166
  564SOL     OW 2021   0.030   5.781   3.356 -0.3235  0.0456 -0.6884
  564SOL    HW2 2022  -0.027   5.726   3.409  1.7253 -1.0035  0.5688
  564SOL    HW3 2023  -0.028   5.847   3.317 -2.0667  0.3514  2.1901
  564SOL    MW4 2024   0.015   5.782   3.358  0.3605 -0.1469 -0.0196
  565SOL     OW 2025   0.768   4.131   6.360  0.3682  0.1008  0.2597
  565SOL    HW2 2026   0.680   4.097   6.375 -0.8047  3.1260  0.9800
  565SOL    HW3 2027   0.758   4.226   6.366  3.2158  0.7016 -2.2779
  565SOL    MW4 2028   0.755   4.139   6.363  0.1231 -0.1322 -0.2513
  566SOL     OW 2029   2.014   4.070   5.908 -0.6598  0.1387  0.0277
  566SOL    HW2 2030   1.972   4.064   5.994  1.2599  1.4964  1.1407
  566SOL    HW3 2031   2.055   4.157   5.907 -1.6203  0.6906 -2.7906
  566SOL    MW4 2032   2.014   4.081   5.919 -0.1156 -0.3303 -0.2249
  567SOL     OW 2033   0.676   5.636   0.859 -0.5055 -0.0535  0.0318
  567SOL    HW2 2034   0.675   5.702   0.928  0.2993 -0.3345  0.3353
  567SOL    HW3 2035   0.652   5.683   0.780  0.5822  0.7381  0.1455
  567SOL    MW4 2036   0.673   5.651   0.858 -0.0926  0.0580  0.5679
  568SOL     OW 2037   6.248   3.539   1.184  0.4522  0.0144 -0.1434
  568SOL    HW2 2038   6.218   3.532   1.093 -0.4130  1.2736  0.0079
  568SOL    HW3 2039   6.183   3.490   1.234 -0.6400  1.5712  0.0397
  568SOL    MW4 2040   6.235   3.532   1.179  0.5059  0.2014  0.0438
  569SOL     OW 2041   1.487   6.403   1.957  0.4218 -0.1928  0.1107
  569SOL    HW2 2042   1.522   6.487   1.929 -0.1860 -0.0870 -0.3653
  569SOL    HW3 2043   1.427   6.377   1.887  0.4468 -0.9252  0.3468
  569SOL    MW4 2044   1.483   6.411   1.944  0.0473 -0.2735 -0.6637
  570SOL     OW 2045   1.952   4.324   3.430  0.1039 -0.0309  0.0935
  570SOL    HW2 2046   1.884   4.385   3.458 -0.0281 -0.5906  1.0287
  570SOL    HW3 2047   2.025   4.380   3.404  0.1064  0.5370  1.2458
  570SOL    MW4 2048   1.952   4.340   3.430  0.0014  0.2551  0.5252
  571SOL     OW 2049   5.231   5.442   0.991  0.1344  0.3765 -0.0071
  571SOL    HW2 2050   5.301   5.377   0.992 -0.7154 -0.5727  0.9766
  571SOL    HW3 2051   5.203   5.447   0.899  0.1982 -0.6834 -0.0955
  571SOL    MW4 2052   5.236   5.434   0.979 -0.4897 -0.5012 -0.2949
  572SOL     OW 2053   0.186   1.790   1.806 -0.5185  0.1351  0.1459
  572SOL    HW2 2054   0.187   1.814   1.713  1.3889 -1.4913 -0.3146
  572SOL    HW3 2055   0.093   1.777   1.826 -1.0005  0.9914 -1.3976
  572SOL    MW4 2056   0.174   1.791   1.796  0.5048  0.2611  0.5543
  573SOL     OW 2057   5.797   3.956   3.002 -0.6169  0.4443 -0.3787
  573SOL    HW2 2058   5.803   3.978   2.909 -0.1904  0.4393 -0.3548
  573SOL    HW3 2059   5.708   3.923   3.014 -1.2540  2.0435 -0.4486
  573SOL    MW4 2060   5.786   3.955   2.992 -0.1401 -0.1770 -0.2350
  574SOL     OW 2061   5.773   2.320   3.909 -0.0049  0.1353  0.0975
  574SOL    HW2 2062   5.761   2.302   4.003  0.8464  0.1709  0.2207
  574SOL    HW3 2063   5.720   2.253   3.866 -3.0632  2.0450  0.5729
  574SOL    MW4 2064   5.765   2.308   3.916 -0.7713 -0.2919  1.1143
  575SOL     OW 2065   0.863   6.026   2.100  0.2957  0.0213  0.4959
  575SOL    HW2 2066   0.851   5.933   2.080 -0.3978 -0.3204  2.3434
  575SOL    HW3 2067   0.832   6.035   2.190 -0.4355  2.2155  0.0597
  575SOL    MW4 2068   0.857   6.015   2.109 -0.0620 -0.5608 -0.6866
  576SOL     OW 2069   5.406   2.263   3.265  0.2935 -0.4086 -0.2936
  576SOL    HW2 2070   5.365   2.276   3.350 -0.2571  2.0192 -0.8413
  576SOL    HW3 2071   5.492   2.305   3.274  1.0991 -1.9683 -0.3555
  576SOL    MW4 2072   5.412   2.271   3.277 -0.1657  0.5355 -0.4982
  577SOL     OW 2073   4.728   5.642   3.595 -0.1745 -0.0157 -0.0102
  577SOL    HW2 2074   4.777   5.661   3.515 -0.2473 -1.3733 -0.4135
  577SOL    HW3 2075   4.650   5.596   3.565 -0.7621  0.4448  0.7736
  577SOL    MW4 2076   4.724   5.638   3.581  0.3513 -0.4077 -0.0178
  578SOL     OW 2077   4.119   2.046   2.898 -0.7468 -0.3371 -0.1307
  578SOL    HW2 2078   4.165   1.972   2.857  0.0872  1.1027 -1.9131
  578SOL    HW3 2079   4.044   2.061   2.841 -0.4735  0.6904 -0.2261
  578SOL    MW4 2080   4.115   2.038   2.885  0.5263 -0.0253  0.0619
  579SOL     OW 2081   1.888   4.086   6.164 -0.0418 -0.7828 -0.1320
  579SOL    HW2 2082   1.923   4.127   6.243 -0.3512 -2.3292  0.8588
  579SOL    HW3 2083   1.805   4.132   6.148 -0.3406 -0.9463  0.8926
  579SOL    MW4 2084   1.881   4.098   6.172 -0.1162 -0.5671  0.2387
  580SOL     OW 2085   6.370   3.974   5.905 -0.2641 -0.2697 -0.2354
  580SOL    HW2 2086   6.447   3.935   5.947 -0.0167  0.3788 -0.0839
  580SOL    HW3 2087   6.320   4.014   5.976 -0.3505 -0.0251 -0.4308
  580SOL    MW4 2088   6.374   3.974   5.920  0.5090  0.6061 -0.6497
  581SOL     OW 2089   0.328   1.947   2.973 -0.4412  0.4120 -0.2798
  581SOL    HW2 2090   0.298   1.864   3.010  0.1913 -0.2962 -1.2998
  581SOL    HW3 2091   0.248   1.992   2.946 -0.7251 -0.5306 -1.0714
  581SOL    MW4 2092   0.313   1.942   2.974  0.1719 -0.1974 -0.0726
  582SOL     OW 2093   3.741   3.548   2.723 -0.2770 -0.0752 -0.2105
  582SOL    HW2 2094   3.691   3.585   2.795  1.1101  1.0063  0.2640
  582SOL    HW3 2095   3.712   3.596   2.646  0.1234  0.6567  0.0860
  582SOL    MW4 2096   3.731   3.559   2.722  0.0596 -0.1789  0.0992
  583SOL     OW 2097   0.665   2.293   1.465 -0.0100  0.3677 -0.1446
  583SOL    HW2 2098   0.712   2.368   1.502 -0.7048  0.2990  0.9292
  583SOL    HW3 2099   0.670   2.226   1.533 -0.6768 -0.0290 -0.4803
  583SOL    MW4 2100   0.672   2.294   1.479  0.0682  0.0302 -0.2021
  584SOL     OW 2101   1.114   4.634   4.513 -0.3392 -0.3231 -0.1340
  584SOL    HW2 2102   1.032   4.655   4.559 -1.1424 -0.2095 -1.5616
  584SOL    HW3 2103   1.163   4.580   4.575 -1.7697 -0.9151  0.5193
  584SOL    MW4 2104   1.110   4.630   4.527 -0.0384 -0.3912 -0.5291
  585SOL     OW 2105   1.892   0.150   3.978 -0.0584 -0.8485  0.0349
  585SOL    HW2 2106   1.971   0.123   3.930  0.0810 -1.5803  0.6624
  585SOL    HW3 2107   1.891   0.095   4.056 -1.2053 -0.8584  0.0298
  585SOL    MW4 2108   1.902   0.139   3.982 -0.3315 -0.2258 -0.3435
  586SOL     OW 2109   1.363   5.864   4.322  0.0800  0.1257  0.0429
  586SOL    HW2 2110   1.431   5.796   4.323  0.9337  0.9626  0.5107
  586SOL    HW3 2111   1.356   5.890   4.230 -0.5014 -0.8223 -0.1938
  586SOL    MW4 2112   1.371   5.858   4.310  0.1709  0.6579  0.3227
  587SOL     OW 2113   1.366   3.071   4.396  0.7641 -0.4113  0.3266
  587SOL    HW2 2114   1.340   3.163   4.389  1.5855 -0.1851  0.1433
  587SOL    HW3 2115   1.353   3.049   4.488 -0.6743 -0.5041  0.1249
  587SOL    MW4 2116   1.361   3.080   4.407 -0.0840 -0.0492 -0.1476
  588SOL     OW 2117   3.002   4.935   0.332 -0.4336 -0.0869 -0.1222
  588SOL    HW2 2118   2.959   5.019   0.316  0.6582  0.7213  1.0046
  588SOL    HW3 2119   2.995   4.922   0.427  0.5750 -0.6120 -0.1108
  588SOL    MW4 2120   2.995   4.944   0.342 -0.1657 -0.2527 -0.0856
  589SOL     OW 2121   1.116   1.413   6.425  0.6694 -0.1087  0.3130
  589SOL    HW2 2122   1.084   1.500   6.451  0.7922  1.1988 -3.2668
  589SOL    HW3 2123   1.197   1.401   6.474  0.6694  1.8450  0.8660
  589SOL    MW4 2124   1.122   1.423   6.435 -0.5725  0.7268 -0.1161
  590SOL     OW 2125   4.081   3.429   5.513  0.2639  0.3658 -0.1327
  590SOL    HW2 2126   4.041   3.496   5.458 -3.0321 -2.1816 -1.2174
  590SOL    HW3 2127   4.097   3.356   5.454 -1.6617 -1.8024  1.7938
  590SOL    MW4 2128   4.078   3.428   5.498 -0.3700 -0.0574 -0.0220
  591SOL     OW 2129   0.695   1.097   1.200 -0.3196 -0.1423  0.0779
  591SOL    HW2 2130   0.751   1.053   1.137 -0.0612  0.0970  0.1383
  591SOL    HW3 2131   0.684   1.186   1.165  0.7457  0.3515  0.9313
  591SOL    MW4 2132   0.701   1.103   1.187  0.1312 -0.6572 -0.2527
  592SOL     OW 2133   1.468   0.777   4.608  0.4244 -0.1163 -0.1342
  592SOL    HW2 2134   1.419   0.714   4.556  3.2977 -0.9419 -2.0292
  592SOL    HW3 2135   1.413   0.856   4.608 -2.0979 -1.7499  0.2060
  592SOL    MW4 2136   1.454   0.779   4.601 -0.2062  0.4507 -0.3603
  593SOL     OW 2137   5.315   1.881   1.208  0.3971 -0.6119 -0.1694
  593SOL    HW2 2138   5.366   1.816   1.255  0.1518 -0.7036 -0.0265
  593SOL    HW3 2139   5.230   1.881   1.251  1.0995  1.5062  1.3594
  593SOL    MW4 2140   5.310   1.872   1.220 -0.0986 -0.5308 -0.7561
  594SOL     OW 2141   4.165   6.363   2.015 -0.5149 -0.4265 -0.4471
  594SOL    HW2 2142   4.258   6.342   2.020 -0.3017  0.5534 -0.1561
  594SOL    HW3 2143   4.140   6.384   2.105 -1.1031 -1.0103 -0.4637
  594SOL    MW4 2144   4.174   6.363   2.028  0.3438  0.6734  0.0281
  595SOL     OW 2145   1.998   1.190   2.647 -0.0088  0.3429  0.4255
  595SOL    HW2 2146   1.907   1.213   2.662 -0.1488 -0.7982  1.5546
  595SOL    HW3 2147   2.036   1.184   2.735  0.8574 -0.2706  0.0293
  595SOL    MW4 2148   1.991   1.192   2.661 -0.2982  0.2743 -0.7741
  596SOL     OW 2149   1.248   5.626   2.993  0.8203  0.3722 -0.3238
  596SOL    HW2 2150   1.214   5.701   2.945  0.5135 -0.9468 -2.3086
  596SOL    HW3 2151   1.326   5.599   2.943  1.2090 -0.3324  0.6288
  596SOL    MW4 2152   1.254   5.632   2.980 -0.3163 -0.4167 -0.7740
  597SOL     OW 2153   1.015   4.277   3.016  0.2630 -0.3286 -0.0946
  597SOL    HW2 2154   1.102   4.308   2.993 -0.1364  0.9597  0.0457
  597SOL    HW3 2155   1.021   4.181   3.012  1.5191 -0.2394 -0.6358
  597SOL    MW4 2156   1.027   4.268   3.013 -0.5535  0.3836  0.4861
  598SOL     OW 2157   1.423   3.106   2.817 -0.4728 -0.0189  0.4759
  598SOL    HW2 2158   1.451   3.019   2.845  0.3933  0.4061  0.9969
  598SOL    HW3 2159   1.504   3.158   2.817 -0.3898  0.0607 -2.8112
  598SOL    MW4 2160   1.437   3.101   2.821 -0.7133  0.3208 -0.0700
  599SOL     OW 2161   5.609   4.406   1.117  0.1246 -0.4535 -0.3089
  599SOL    HW2 2162   5.518   4.421   1.090  0.2089 -1.1678 -1.0416
  599SOL    HW3 2163   5.658   4.409   1.035  0.8909  0.7172  0.1660
  599SOL    MW4 2164   5.603   4.409   1.102  0.1715  0.3723  0.7884
  600SOL     OW 2165   5.936   0.014   4.859 -0.0990 -0.2807  0.0138
  600SOL    HW2 2166   6.000  -0.005   4.927  0.8303  1.1424 -0.4099
  600SOL    HW3 2167   5.886   0.088   4.894 -0.9390 -0.8128 -0.0325
  600SOL    MW4 2168   5.938   0.022   4.872 -0.4160  0.4870 -0.1710
  601SOL     OW 2169   1.278   3.766   0.860  0.4558 -0.7080  0.3489
  601SOL    HW2 2170   1.218   3.836   0.886  0.5742 -0.1448 -0.7978
  601SOL    HW3 2171   1.277   3.704   0.932 -0.0655  0.2248  1.1591
  601SOL    MW4 2172   1.270   3.767   0.873  0.5199  0.1078 -0.7688
  602SOL     OW 2173   0.549   0.455   0.914 -0.1103 -0.0620  0.5072
  602SOL    HW2 2174   0.510   0.478   0.999  0.3126 -1.0060  0.9787
  602SOL    HW3 2175   0.643   0.458   0.929  0.0403 -3.3203  1.0529
  602SOL    MW4 2176   0.556   0.458   0.928  0.3028  0.7675 -0.0623
  603SOL     OW 2177   2.519   0.523   0.935 -0.1038 -0.0723  0.0911
  603SOL    HW2 2178   2.432   0.502   0.903  1.1747 -0.9967 -3.2251
  603SOL    HW3 2179   2.556   0.438   0.962  0.9140 -0.3516 -1.9504
  603SOL    MW4 2180   2.512   0.509   0.935  0.1926  0.0399 -0.4601
  604SOL     OW 2181   0.181   5.819   6.411 -0.1267  0.2058  0.2282
  604SOL    HW2 2182   0.250   5.753   6.418 -0.1060  0.1899 -0.0955
  604SOL    HW3 2183   0.204   5.885   6.476 -0.0168  0.0098  0.3888
  604SOL    MW4 2184   0.193   5.819   6.420 -0.1679  0.2163 -0.1974
  605SOL     OW 2185   4.070   4.471   1.642  0.2133  0.5347  0.1855
  605SOL    HW2 2186   4.054   4.437   1.554  2.6585 -0.1061 -0.0844
  605SOL    HW3 2187   4.112   4.398   1.689  3.4093  2.2865  0.3214
  605SOL    MW4 2188   4.074   4.457   1.637  0.6164  0.0159  0.7483
  606SOL     OW 2189   6.157   4.101   1.257 -0.1798  0.5565  0.2272
  606SOL    HW2 2190   6.250   4.113   1.235 -0.0594 -1.8591 -0.9683
  606SOL    HW3 2191   6.110   4.157   1.195  0.4579  0.7512 -0.0870
  606SOL    MW4 2192   6.163   4.110   1.246 -0.3122  0.9026  0.0439
  607SOL     OW 2193   0.403   5.539   6.162 -0.0735 -0.1690  0.6967
  607SOL    HW2 2194   0.379   5.591   6.085  0.8266 -1.4599 -0.5088
  607SOL    HW3 2195   0.498   5.546   6.167 -0.0006 -1.1692  0.8855
  607SOL    MW4 2196   0.413   5.547   6.153  0.2454 -0.0808 -0.0314
  608SOL     OW 2197   1.574   2.002   0.075 -0.6166 -0.4734 -0.0588
  608SOL    HW2 2198   1.595   1.949  -0.002 -2.6902  1.7164 -2.3050
  608SOL    HW3 2199   1.479   1.995   0.083 -0.7385  1.4429  0.6249
  608SOL    MW4 2200   1.564   1.994   0.066  0.0269  0.4576  0.2925
  609SOL     OW 2201   6.198   0.393   0.333 -0.0810 -0.1827 -0.3625
  609SOL    HW2 2202   6.107   0.365   0.338 -0.0790 -0.1326 -0.0362
  609SOL    HW3 2203   6.249   0.313   0.343 -0.0816 -0.1241  0.1418
  609SOL    MW4 2204   6.193   0.379   0.335 -0.0902 -0.0427 -0.0484
  610SOL     OW 2205   0.003   4.277   4.963  0.2419  0.1863  0.1550
  610SOL    HW2 2206  -0.048   4.317   4.893  1.1840  1.9499  0.4250
  610SOL    HW3 2207  -0.022   4.324   5.042 -0.2956 -1.3182  0.9211
  610SOL    MW4 2208  -0.007   4.288   4.964 -0.2218 -0.1152  0.5024
  611SOL     OW 2209   5.028   2.489   6.099 -0.4857  0.1539 -0.0010
  611SOL    HW2 2210   4.967   2.531   6.159  0.9335  1.4839  0.5750
  611SOL    HW3 2211   4.975   2.466   6.023 -1.4644  2.3229 -0.0287
  611SOL    MW4 2212   5.013   2.491   6.097  0.1876 -0.2689 -0.3643
  612SOL     OW 2213   0.569   0.660   3.315 -0.3618  0.3337  0.1943
  612SOL    HW2 2214   0.548   0.658   3.409  0.7204  2.3045  0.5305
  612SOL    HW3 2215   0.629   0.586   3.302 -2.8911 -1.9328  0.3280
  612SOL    MW4 2216   0.574   0.650   3.326 -0.3059 -0.4152 -0.2897
  613SOL     OW 2217   4.930   4.631   2.266 -0.6095 -0.4264  0.8228
  613SOL    HW2 2218   4.840   4.616   2.239 -0.0644  1.7051 -3.0163
  613SOL    HW3 2219   4.926   4.708   2.323 -1.2881 -1.3393  2.0556
  613SOL    MW4 2220   4.918   4.639   2.270 -0.1927  0.3823 -0.1790
  614SOL     OW 2221   6.043   2.407   5.300  0.2583 -0.2652 -0.2291
  614SOL    HW2 2222   6.078   2.331   5.253  1.2229 -0.1477  0.2691
  614SOL    HW3 2223   6.058   2.386   5.393  0.9421  0.7259 -0.1108
  614SOL    MW4 2224   6.050   2.394   5.306  0.0911  0.3198  0.5405
  615SOL     OW 2225   1.268   1.985   4.225 -0.1248 -0.5951 -0.4279
  615SOL    HW2 2226   1.286   1.999   4.318  1.0802 -0.5855 -0.6440
  615SOL    HW3 2227   1.191   1.929   4.223 -2.2508  2.1025  0.5263
  615SOL    MW4 2228   1.260   1.979   4.237  0.3741  0.4772 -0.3687
  616SOL     OW 2229   3.660   1.384   2.515 -0.2927  0.5600  0.3434
  616SOL    HW2 2230   3.738   1.413   2.468 -0.5872  0.2756 -0.3374
  616SOL    HW3 2231   3.587   1.404   2.456 -0.6470 -0.0387  0.5672
  616SOL    MW4 2232   3.660   1.390   2.501  0.2104  0.8908 -0.0187
  617SOL     OW 2233   0.485   4.676   1.848 -0.5016 -0.0337 -0.1430
  617SOL    HW2 2234   0.407   4.731   1.857  0.3132  1.4159 -1.4047
  617SOL    HW3 2235   0.530   4.684   1.933 -0.3341  1.4001 -0.3383
  617SOL    MW4 2236   0.481   4.685   1.861  0.3625  0.1927 -0.2050
  618SOL     OW 2237   1.717   2.834   2.885  0.0614 -0.1073 -0.1108
  618SOL    HW2 2238   1.647   2.770   2.892  0.6576 -0.8568 -0.7634
  618SOL    HW3 2239   1.705   2.891   2.961 -0.7657 -0.7016  0.2257
  618SOL    MW4 2240   1.706   2.833   2.896 -0.6060  1.1185  0.9547
  619SOL     OW 2241   0.856   0.994   2.033  0.1639 -0.4251  0.3313
  619SOL    HW2 2242   0.883   0.939   2.106  1.5392  1.2942  1.1899
  619SOL    HW3 2243   0.860   1.083   2.067 -2.4054  0.2482 -0.8624
  619SOL    MW4 2244   0.860   0.999   2.047 -0.0292  0.1722 -0.1385
  620SOL     OW 2245   2.744   3.007   4.880  0.0785  0.2770  0.6521
  620SOL    HW2 2246   2.759   2.913   4.872 -0.7419  0.0778  1.2441
  620SOL    HW3 2247   2.730   3.037   4.790 -0.1466 -0.2622  0.5028
  620SOL    MW4 2248   2.744   2.999   4.867 -0.1238  0.5718 -0.7314
  621SOL     OW 2249   2.377   3.470   3.951 -0.2745 -0.0002  0.5204
  621SOL    HW2 2250   2.404   3.399   3.894 -3.0386  0.1708 -1.1655
  621SOL    HW3 2251   2.423   3.547   3.917  0.0170 -0.3471  0.1183
  621SOL    MW4 2252   2.387   3.471   3.939  0.2585  0.5074  0.3100
  622SOL     OW 2253   2.833   3.030   0.687  0.4509 -0.2781 -0.1126
  622SOL    HW2 2254   2.783   3.047   0.607  1.6265 -0.8661 -1.0036
  622SOL    HW3 2255   2.816   2.937   0.705  0.6134 -0.2815  0.0193
  622SOL    MW4 2256   2.824   3.020   0.679 -0.4079  0.2881 -0.3616
  623SOL     OW 2257   2.606   1.290   6.152 -0.2544 -0.3400  0.1570
  623SOL    HW2 2258   2.550   1.330   6.219  1.0793  0.0566  1.0632
  623SOL    HW3 2259   2.670   1.358   6.130 -0.4639 -0.5802 -1.3002
  623SOL    MW4 2260   2.607   1.304   6.158  0.5834  0.2938  0.2933
  624SOL     OW 2261   5.900   2.470   4.592  0.3524 -0.3144 -0.3154
  624SOL    HW2 2262   5.866   2.382   4.575  0.8844 -0.6110  0.0912
  624SOL    HW3 2263   5.995   2.461   4.579  0.4660  0.0683  0.2200
  624SOL    MW4 2264   5.908   2.457   4.588 -0.4663 -0.3483  0.1604
  625SOL     OW 2265   5.120   1.134   5.060 -0.1599 -0.3361  0.1743
  625SOL    HW2 2266   5.057   1.179   5.004 -0.6623 -2.3906 -1.0295
  625SOL    HW3 2267   5.204   1.143   5.015 -0.4547 -1.4619 -0.6488
  625SOL    MW4 2268   5.123   1.141   5.047  0.5933 -0.5411  0.4690
  626SOL     OW 2269   3.169   2.716   5.258 -0.5728 -0.1441 -0.5805
  626SOL    HW2 2270   3.258   2.739   5.230  0.1820 -2.2378 -0.0823
  626SOL    HW3 2271   3.174   2.623   5.281 -2.7377 -0.1419  0.1487
  626SOL    MW4 2272   3.181   2.707   5.257 -0.0215 -0.1746  0.0521
  627SOL     OW 2273   3.852   0.182   4.309 -0.1610 -0.0575  0.0950
  627SOL    HW2 2274   3.903   0.259   4.335 -1.5070  1.2047 -0.8218
  627SOL    HW3 2275   3.780   0.218   4.257 -1.5291 -1.8484  0.6627
  627SOL    MW4 2276   3.849   0.197   4.305  0.0968  0.4179  0.5276
  628SOL     OW 2277   5.477   6.185   1.011  0.1591  0.8260 -0.0320
  628SOL    HW2 2278   5.381   6.180   1.003  0.1634  1.3402 -0.4783
  628SOL    HW3 2279   5.508   6.107   0.966 -0.0243  1.1181 -0.6802
  628SOL    MW4 2280   5.468   6.174   1.004  0.6059 -0.1704  0.2126
  629SOL     OW 2281   0.864   0.607   1.235 -0.1696  0.2128 -0.0907
  629SOL    HW2 2282   0.844   0.538   1.298  0.6365  1.2202  1.3133
  629SOL    HW3 2283   0.779   0.640   1.208 -0.5404 -0.7013 -0.0900
  629SOL    MW4 2284   0.850   0.602   1.240 -0.4865 -0.5541 -0.1430
  630SOL     OW 2285   6.404   2.004   3.689  0.1707 -0.5657  0.0754
  630SOL    HW2 2286   6.347   2.012   3.613 -1.3523 -1.6237  1.0454
  630SOL    HW3 2287   6.449   1.921   3.678  1.5769  0.2661 -0.6861
  630SOL    MW4 2288   6.403   1.994   3.678 -0.0369 -0.1590  0.0986
  631SOL     OW 2289   4.216   5.522   1.858 -0.6112 -0.5918  0.7441
  631SOL    HW2 2290   4.222   5.546   1.950  0.3929  1.8937  0.1042
  631SOL    HW3 2291   4.297   5.474   1.841  0.5883  1.3751  0.5774
  631SOL    MW4 2292   4.228   5.519   1.868 -0.0511 -0.3690 -0.0849
  632SOL     OW 2293   1.430   4.491   3.800  0.0022  0.0918 -0.4631
  632SOL    HW2 2294   1.505   4.468   3.745 -1.5356 -0.8448 -2.2975
  632SOL    HW3 2295   1.354   4.472   3.746 -1.6256 -0.1833  1.7607
  632SOL    MW4 2296   1.430   4.485   3.786 -0.0709  0.2532  0.1370
  633SOL     OW 2297   0.485   4.666   4.571  0.1937 -0.6840 -0.1908
  633SOL    HW2 2298   0.517   4.629   4.489 -0.2641  0.6115 -0.9723
  633SOL    HW3 2299   0.439   4.746   4.546  0.1541 -0.1860  1.3360
  633SOL    MW4 2300   0.483   4.672   4.557 -0.1193  0.5115 -0.3559
  634SOL     OW 2301   3.563   6.088   3.338  0.3798 -0.2745  0.4627
  634SOL    HW2 2302   3.551   6.081   3.433  2.7005  0.2325  0.8463
  634SOL    HW3 2303   3.618   6.014   3.315 -0.3440 -0.5187 -0.5512
  634SOL    MW4 2304   3.569   6.078   3.348 -0.5268 -0.0888  0.5432
  635SOL     OW 2305   4.891   3.194   5.919  0.0716  0.0510  0.1337
  635SOL    HW2 2306   4.920   3.134   5.850  2.5408  0.6979  0.5143
  635SOL    HW3 2307   4.928   3.279   5.894 -1.3698  0.9164  0.8323
  635SOL    MW4 2308   4.900   3.197   5.907 -0.0163 -0.6168 -0.2343
  636SOL     OW 2309   1.086   3.325   0.726  0.0876 -0.2709  0.3056
  636SOL    HW2 2310   1.001   3.368   0.736 -0.1705 -0.9765  1.2802
  636SOL    HW3 2311   1.134   3.346   0.806  0.9978  0.4486 -0.4047
  636SOL    MW4 2312   1.081   3.333   0.738  0.0916 -0.3862 -0.2982
  637SOL     OW 2313   1.938   1.979   4.076 -0.0008  0.0585 -0.3213
  637SOL    HW2 2314   2.026   2.015   4.066  0.1435 -0.1801  0.1096
  637SOL    HW3 2315   1.881   2.056   4.071  0.2564  0.2602 -0.1855
  637SOL    MW4 2316   1.942   1.994   4.074  0.3246 -0.4970 -0.1258
  638SOL     OW 2317   0.946   0.441   5.361 -0.5950  0.6942  0.1300
  638SOL    HW2 2318   1.017   0.424   5.299  0.8876  1.2966  1.5861
  638SOL    HW3 2319   0.949   0.536   5.375  0.6183  0.3436  2.7850
  638SOL    MW4 2320   0.956   0.452   5.355  0.4173 -0.1622  0.3700
  639SOL     OW 2321   0.424   5.981   2.613 -0.2876 -0.3003  0.3511
  639SOL    HW2 2322   0.410   6.020   2.527 -2.2920 -0.2605  0.6341
  639SOL    HW3 2323   0.338   5.948   2.639  0.3843 -0.8506  2.0897
  639SOL    MW4 2324   0.411   5.982   2.605 -0.2124  0.3283  0.0259
  640SOL     OW 2325   3.039   1.241   3.057  0.4424 -0.5929  0.4410
  640SOL    HW2 2326   3.061   1.199   3.140  0.2284  0.4961  1.0685
  640SOL    HW3 2327   2.947   1.266   3.066  0.6407  0.2588  0.2091
  640SOL    MW4 2328   3.030   1.239   3.069 -0.4728  0.4195  0.4246
  641SOL     OW 2329   0.546   2.159   1.699 -0.0903  0.3027  0.7456
  641SOL    HW2 2330   0.502   2.108   1.767 -1.3444 -0.0137 -0.2613
  641SOL    HW3 2331   0.516   2.249   1.714 -1.0712  0.0965  0.0966
  641SOL    MW4 2332   0.536   2.164   1.710 -0.2202  0.3344  0.4048
  642SOL     OW 2333   2.513   3.254   4.113  0.3324  0.4243  0.0177
  642SOL    HW2 2334   2.601   3.256   4.151  0.6251 -0.5539 -0.5736
  642SOL    HW3 2335   2.503   3.339   4.070  1.5884  0.0043 -1.1798
  642SOL    MW4 2336   2.523   3.265   4.112  0.2886  0.8630  0.0173
  643SOL     OW 2337   0.326   2.071   5.471 -0.3850  0.4105 -0.1050
  643SOL    HW2 2338   0.296   2.158   5.496  1.9739  2.2262 -2.8693
  643SOL    HW3 2339   0.408   2.059   5.521 -0.0623  0.3385 -0.6460
  643SOL    MW4 2340   0.333   2.081   5.481  0.0328 -1.0578  0.1598
  644SOL     OW 2341   0.086   2.765   2.578  0.5615  0.6174 -0.2200
  644SOL    HW2 2342   0.071   2.781   2.485  1.6860  1.0574 -0.3430
  644SOL    HW3 2343   0.011   2.806   2.622  1.3061  2.7275 -0.8013
  644SOL    MW4 2344   0.074   2.773   2.572 -0.2647  0.8014 -0.6343
  645SOL     OW 2345   3.497   1.363   6.090 -0.6049  0.5904 -0.4961
  645SOL    HW2 2346   3.410   1.400   6.103 -0.9275 -0.5770  0.9103
  645SOL    HW3 2347   3.516   1.318   6.172  1.0033  0.1644 -1.0760
  645SOL    MW4 2348   3.488   1.362   6.102 -0.1010 -0.3598  0.3448
  646SOL     OW 2349   0.120   4.180   0.787 -0.3333  0.0858  0.3324
  646SOL    HW2 2350   0.045   4.134   0.824 -1.4931  0.9142 -0.9112
  646SOL    HW3 2351   0.188   4.112   0.779 -1.2235 -0.8718  0.6889
  646SOL    MW4 2352   0.119   4.165   0.791 -0.1184  0.2046  0.4359
  647SOL     OW 2353   2.230   3.139   0.420  0.5182 -0.6681 -0.4541
  647SOL    HW2 2354   2.237   3.060   0.367  0.6338  0.6613 -2.5287
  647SOL    HW3 2355   2.306   3.192   0.396  0.0013  0.4429  0.2565
  647SOL    MW4 2356   2.241   3.135   0.410  0.1314  0.1024  0.7311
  648SOL     OW 2357   4.576   1.957   1.916 -0.4272 -0.0954 -0.5097
  648SOL    HW2 2358   4.668   1.977   1.900 -0.4396 -1.3580 -2.5263
  648SOL    HW3 2359   4.576   1.903   1.994  0.6511 -0.7458 -0.9431
  648SOL    MW4 2360   4.588   1.953   1.924  0.2309  0.3328  0.3182
  649SOL     OW 2361   6.144   0.151   1.295 -0.1066  0.5474  0.2809
  649SOL    HW2 2362   6.157   0.245   1.298  0.9296  0.4578 -0.7777
  649SOL    HW3 2363   6.169   0.126   1.206  1.6953 -1.0046  1.1557
  649SOL    MW4 2364   6.149   0.160   1.283  0.5953  0.1629 -0.0712
  650SOL     OW 2365   2.656   3.910   3.466  0.0004  0.1893 -0.0906
  650SOL    HW2 2366   2.682   3.993   3.505  0.4385 -0.0111  0.0455
  650SOL    HW3 2367   2.562   3.906   3.479 -0.1180  0.9399 -0.6181
  650SOL    MW4 2368   2.647   3.920   3.473  0.2797 -0.3961 -0.0097
  651SOL     OW 2369   4.415   6.226   1.580 -0.3262 -0.2645 -0.1415
  651SOL    HW2 2370   4.320   6.240   1.575 -0.3110 -0.5730 -1.8759
  651SOL    HW3 2371   4.447   6.247   1.493  1.3581  0.7259  0.6699
  651SOL    MW4 2372   4.407   6.230   1.568 -0.1228  0.0497  0.6211
  652SOL     OW 2373   2.327   0.863   1.570 -0.2111  0.0556  0.0331
  652SOL    HW2 2374   2.264   0.909   1.626 -2.1196 -1.0113 -1.1365
  652SOL    HW3 2375   2.283   0.780   1.549  2.5648 -1.8164  1.0671
  652SOL    MW4 2376   2.313   0.858   1.575  0.2805 -0.2540  0.5401
  653SOL     OW 2377   0.420   0.987   1.806 -0.2779  0.2079 -0.1561
  653SOL    HW2 2378   0.417   0.892   1.818  0.4969  0.3674  1.4403
  653SOL    HW3 2379   0.512   1.007   1.793 -0.4973  0.6964 -1.0274
  653SOL    MW4 2380   0.432   0.977   1.806  0.0273 -0.8303  0.1150
  654SOL     OW 2381   4.484   3.396   5.407  0.8645  0.5109  0.3802
  654SOL    HW2 2382   4.427   3.468   5.435  1.0989  1.1969 -0.8797
  654SOL    HW3 2383   4.562   3.439   5.372  1.7689 -0.4034  1.2063
  654SOL    MW4 2384   4.487   3.411   5.406  0.8185  0.3441 -1.2081
  655SOL     OW 2385   5.552   5.122   5.762 -0.6130 -0.6451  0.6320
  655SOL    HW2 2386   5.611   5.088   5.829 -0.3089 -0.6216  0.3806
  655SOL    HW3 2387   5.562   5.217   5.767  1.4319 -0.6628 -1.1866
  655SOL    MW4 2388   5.561   5.130   5.771  0.0094  0.5343  0.0649
  656SOL     OW 2389   1.269   4.756   2.665 -0.1502 -0.7857 -0.2360
  656SOL    HW2 2390   1.262   4.679   2.607  0.3622 -0.7439 -0.3562
  656SOL    HW3 2391   1.362   4.778   2.664 -0.1301 -0.7917  0.6206
  656SOL    MW4 2392   1.280   4.749   2.657 -0.1395 -0.2691 -0.5805
  657SOL     OW 2393   1.006   0.203   1.269 -0.3722 -0.1040 -0.0580
  657SOL    HW2 2394   0.944   0.273   1.288  2.3151  2.4237  0.1035
  657SOL    HW3 2395   1.000   0.144   1.344 -2.5189  0.0225 -0.0731
  657SOL    MW4 2396   0.997   0.204   1.282  1.0060 -0.0928  0.2549
  658SOL     OW 2397   4.588   2.980   5.186 -0.3965 -0.0435  0.1749
  658SOL    HW2 2398   4.529   3.048   5.219  0.7220  1.6303 -1.1171
  658SOL    HW3 2399   4.660   3.028   5.144  1.2581 -2.0199  0.5864
  658SOL    MW4 2400   4.589   2.996   5.185 -0.0231  0.1958 -0.9307
  659SOL     OW 2401   2.774   1.065   6.207 -0.8344  0.1098 -0.3345
  659SOL    HW2 2402   2.807   1.117   6.280 -0.9633  1.3114 -1.1040
  659SOL    HW3 2403   2.697   1.113   6.177 -3.2410 -2.4643  1.2439
  659SOL    MW4 2404   2.768   1.078   6.213 -0.5058  0.0794 -0.0319
  660SOL     OW 2405   5.592   4.510   4.895  0.1095  0.5021  0.2645
  660SOL    HW2 2406   5.644   4.538   4.820  0.4720 -1.4296 -0.2609
  660SOL    HW3 2407   5.652   4.514   4.969  0.5396 -0.1036 -0.0393
  660SOL    MW4 2408   5.606   4.515   4.895  0.3780  0.4276 -0.6359
  661SOL     OW 2409   0.649   6.190   2.906 -0.1964 -0.3357  0.7898
  661SOL    HW2 2410   0.659   6.285   2.916 -2.2587 -0.2227  3.0969
  661SOL    HW3 2411   0.567   6.180   2.857 -0.2591 -0.9100  1.0065
  661SOL    MW4 2412   0.639   6.201   2.901  0.0005  0.0769 -0.3039
  662SOL     OW 2413   1.701   5.603   2.137  0.2094 -0.3740  0.3046
  662SOL    HW2 2414   1.723   5.643   2.052 -0.0645  2.0404  1.2693
  662SOL    HW3 2415   1.785   5.571   2.171  0.4431 -0.6971 -0.5526
  662SOL    MW4 2416   1.715   5.604   2.130 -0.1615 -0.3424 -0.7879
  663SOL     OW 2417   2.546   0.072   4.734 -0.4052 -0.0209  0.0975
  663SOL    HW2 2418   2.492   0.084   4.812 -1.8170 -3.2121 -0.2413
  663SOL    HW3 2419   2.632   0.106   4.759 -1.6160  2.0221  1.8484
  663SOL    MW4 2420   2.550   0.078   4.748  0.1751 -0.4264  0.2945
  664SOL     OW 2421   0.433   1.837   3.804 -0.0398 -0.0689  0.2940
  664SOL    HW2 2422   0.505   1.852   3.743  0.2335  0.0847  0.6539
  664SOL    HW3 2423   0.357   1.821   3.748  0.3723 -0.7329 -0.0920
  664SOL    MW4 2424   0.433   1.837   3.789 -0.0431  0.3337  0.2916
  665SOL     OW 2425   3.156   4.548   1.720 -0.5488  0.4930 -0.7610
  665SOL    HW2 2426   3.227   4.603   1.687 -1.5517  1.6196 -1.1388
  665SOL    HW3 2427   3.076   4.591   1.688 -1.4200 -0.3896  0.1506
  665SOL    MW4 2428   3.155   4.561   1.712 -0.7160 -0.1803  0.9361
  666SOL     OW 2429   6.375   2.948   6.296  0.2725 -0.1099 -0.5552
  666SOL    HW2 2430   6.415   2.955   6.383 -1.9989 -0.6821  0.6383
  666SOL    HW3 2431   6.364   2.854   6.283  1.2817 -0.0693 -1.8436
  666SOL    MW4 2432   6.379   2.937   6.306  0.1324 -0.0489 -0.2331
  667SOL     OW 2433   2.699   2.035   4.286  0.2110 -0.3085 -0.2139
  667SOL    HW2 2434   2.624   2.090   4.264  0.6721 -0.0659 -1.2361
  667SOL    HW3 2435   2.679   2.001   4.373 -0.4082  0.9143  0.1427
  667SOL    MW4 2436   2.686   2.038   4.295 -0.1347  0.3910  0.5330
  668SOL     OW 2437   4.716   0.777   5.327  0.0654  0.2615  0.0619
  668SOL    HW2 2438   4.759   0.852   5.288  0.3399  1.1451  1.9318
  668SOL    HW3 2439   4.622   0.793   5.312  0.1679  0.4920 -0.3532
  668SOL    MW4 2440   4.709   0.789   5.320  0.5359  0.2826 -0.1180
  669SOL     OW 2441   0.143   3.034   6.093 -0.1561  0.1012  0.2490
  669SOL    HW2 2442   0.078   3.042   6.163  0.2508 -3.2193  1.1370
  669SOL    HW3 2443   0.226   3.018   6.138  0.5344  0.0988 -0.9735
  669SOL    MW4 2444   0.145   3.033   6.108  0.1102  0.1681 -0.6592
  670SOL     OW 2445   0.811   4.593   6.183 -0.1106 -0.0876 -0.6576
  670SOL    HW2 2446   0.884   4.619   6.127  0.2395 -1.0694 -0.6808
  670SOL    HW3 2447   0.794   4.670   6.237  0.8453  0.2132 -0.7556
  670SOL    MW4 2448   0.819   4.606   6.183  0.1287  0.5540  0.0423
  671SOL     OW 2449   1.172   5.908   1.470 -0.1983 -0.1228 -0.0571
  671SOL    HW2 2450   1.182   5.987   1.416  0.9313 -0.0988  0.1605
  671SOL    HW3 2451   1.117   5.850   1.419  1.2173 -0.2869 -1.4649
  671SOL    MW4 2452   1.166   5.911   1.456  0.0668  0.0277 -1.2248
  672SOL     OW 2453   4.541   4.405   4.386 -0.1463 -0.5973  0.3749
  672SOL    HW2 2454   4.486   4.393   4.463  2.0192  2.1087  2.5734
  672SOL    HW3 2455   4.628   4.377   4.414  0.4136 -1.1573 -1.7182
  672SOL    MW4 2456   4.545   4.400   4.400  0.4078 -0.4294 -0.0058
  673SOL     OW 2457   4.349   0.450   5.852  0.3542 -0.1181 -0.2239
  673SOL    HW2 2458   4.321   0.468   5.763  0.3352  0.5928 -0.0823
  673SOL    HW3 2459   4.311   0.521   5.904  0.9906 -0.0943  0.2316
  673SOL    MW4 2460   4.341   0.462   5.847  0.5742  0.1419 -0.5552
  674SOL     OW 2461   3.198   2.943   4.789 -0.4778 -0.3833 -0.2383
  674SOL    HW2 2462   3.138   2.986   4.849  0.8138  2.3869 -0.7927
  674SOL    HW3 2463   3.285   2.953   4.829  0.0697 -1.0427 -1.1977
  674SOL    MW4 2464   3.202   2.950   4.802  0.4893  0.3782  0.1257
  675SOL     OW 2465   3.069   3.352   2.169  0.1620  0.2043  0.0433
  675SOL    HW2 2466   3.020   3.369   2.249  0.1331  1.3602 -0.1935
  675SOL    HW3 2467   3.074   3.257   2.162 -2.0701  0.0487  0.0539
  675SOL    MW4 2468   3.063   3.342   2.178 -0.0007  0.0727  0.0369
  676SOL     OW 2469   5.423   5.136   2.031  0.1038 -0.7071 -0.7904
  676SOL    HW2 2470   5.463   5.157   2.116 -0.5123 -1.7193 -0.2308
  676SOL    HW3 2471   5.396   5.220   1.996  0.2840 -0.2789  0.0574
  676SOL    MW4 2472   5.425   5.150   2.038  0.2704 -0.3635 -0.1145
  677SOL     OW 2473   4.062   5.010   4.837 -0.1127  0.6134  0.1646
  677SOL    HW2 2474   4.097   4.921   4.835 -0.1674  0.5951  0.0029
  677SOL    HW3 2475   4.137   5.065   4.814  0.0076  0.6371  0.6093
  677SOL    MW4 2476   4.077   5.005   4.834 -0.4138 -0.1681  0.3765
  678SOL     OW 2477   3.702   4.523   6.059  0.2125 -0.1441 -0.1730
  678SOL    HW2 2478   3.737   4.558   5.978  2.1189  0.6897  0.9514
  678SOL    HW3 2479   3.638   4.589   6.088  1.2172  0.7041  0.1555
  678SOL    MW4 2480   3.698   4.536   6.052 -0.3531  0.0315  0.1854
  679SOL     OW 2481   5.490   3.938   3.292 -0.1520 -0.4234  0.0866
  679SOL    HW2 2482   5.405   3.982   3.300 -0.0042  0.3924 -2.1008
  679SOL    HW3 2483   5.485   3.891   3.208  1.8904  0.4784 -0.6053
  679SOL    MW4 2484   5.478   3.938   3.282  0.1961  0.2124  0.3888
  680SOL     OW 2485   4.540   1.206   6.014 -0.3422  0.0482 -0.0490
  680SOL    HW2 2486   4.468   1.177   6.070  0.7365  0.3163  1.5415
  680SOL    HW3 2487   4.520   1.298   5.995 -0.6743 -0.0206 -0.0392
  680SOL    MW4 2488   4.528   1.215   6.019  0.2981  0.2305 -0.3263
  681SOL     OW 2489   6.236   2.254   5.960  0.2930 -0.0310 -0.3172
  681SOL    HW2 2490   6.189   2.174   5.937  0.1311 -0.0712  0.1430
  681SOL    HW3 2491   6.286   2.276   5.882  2.0499 -1.7896  0.2209
  681SOL    MW4 2492   6.236   2.247   5.947 -0.0953  0.8014 -0.1199
  682SOL     OW 2493   2.170   5.689   3.993  0.1696  0.1805 -0.5387
  682SOL    HW2 2494   2.090   5.689   3.941 -0.7729 -2.6829  0.7191
  682SOL    HW3 2495   2.141   5.710   4.082  0.9470 -0.0390 -0.2257
  682SOL    MW4 2496   2.156   5.692   3.998 -0.4036  0.1818  0.0560
  683SOL     OW 2497   1.420   0.459   5.177 -0.6051 -0.1888  0.0179
  683SOL    HW2 2498   1.449   0.485   5.264  1.8474  0.7682 -0.9836
  683SOL    HW3 2499   1.453   0.370   5.166 -0.2014 -0.0195 -0.1905
  683SOL    MW4 2500   1.428   0.451   5.187 -0.3826  0.5372  0.1818
  684SOL     OW 2501   1.212   5.321   1.164 -0.6137  0.2172  0.1749
  684SOL    HW2 2502   1.166   5.379   1.224 -0.2676  1.1018 -0.3878
  684SOL    HW3 2503   1.191   5.355   1.077 -0.1293 -0.2965 -0.1500
  684SOL    MW4 2504   1.203   5.334   1.161 -0.6137 -0.3958  0.1763
  685SOL     OW 2505   1.613   5.346   2.205  0.0189  0.1454  0.0732
  685SOL    HW2 2506   1.647   5.428   2.169  1.1768 -0.7481 -0.9551
  685SOL    HW3 2507   1.535   5.328   2.152 -0.4254  0.7393  0.5190
  685SOL    MW4 2508   1.607   5.354   2.193  0.6085  0.2813  0.4297
  686SOL     OW 2509   5.682   0.701   1.576 -0.6077 -0.0200  0.0456
  686SOL    HW2 2510   5.600   0.700   1.625 -0.8903 -0.7701 -0.4261
  686SOL    HW3 2511   5.736   0.633   1.617 -0.0481  0.7528  0.6230
  686SOL    MW4 2512   5.678   0.692   1.588 -0.0453  0.0426  0.1047
  687SOL     OW 2513   4.501   3.753   4.045  0.1025 -0.2101 -0.0318
  687SOL    HW2 2514   4.559   3.718   4.113 -1.2122  0.0148  1.2603
  687SOL    HW3 2515   4.500   3.685   3.978  0.5967 -0.9366  0.6744
  687SOL    MW4 2516   4.509   3.739   4.045 -0.7612  0.0165 -0.1720
  688SOL     OW 2517   4.468   0.259   0.125 -0.0383  0.6981  0.2383
  688SOL    HW2 2518   4.375   0.245   0.112 -0.4008  2.6271  0.4168
  688SOL    HW3 2519   4.485   0.345   0.085  2.2557 -0.8181 -2.4501
  688SOL    MW4 2520   4.458   0.269   0.118  0.1098 -0.6537  0.0807
  689SOL     OW 2521   2.054   6.019   3.971 -0.0358  0.1370 -0.2142
  689SOL    HW2 2522   2.107   6.004   4.049  2.3228  2.1093 -1.2772
  689SOL    HW3 2523   2.095   5.965   3.904 -0.1845  0.6805 -0.7511
  689SOL    MW4 2524   2.066   6.010   3.972 -0.2864  0.2152 -0.5834
  690SOL     OW 2525   5.047   0.113   0.327 -0.3589 -0.2341 -0.2160
  690SOL    HW2 2526   5.067   0.115   0.234  0.2430 -1.2172 -0.1182
  690SOL    HW3 2527   5.012   0.201   0.346  1.3824  0.6658 -0.9515
  690SOL    MW4 2528   5.045   0.125   0.318  0.4686 -0.8847  0.3717
  691SOL     OW 2529   4.218   0.420   2.203  0.1821 -0.1359 -0.1070
  691SOL    HW2 2530   4.125   0.433   2.186  0.1218 -1.5394 -0.9787
  691SOL    HW3 2531   4.249   0.505   2.234 -1.1040  0.7266 -1.0977
  691SOL    MW4 2532   4.210   0.433   2.205 -0.1803  0.3833  0.2097
  692SOL     OW 2533   3.640   0.182   0.491  0.0212  0.2039  0.1075
  692SOL    HW2 2534   3.629   0.099   0.538 -1.1030 -0.6319 -1.5167
  692SOL    HW3 2535   3.572   0.239   0.527 -0.1984 -0.0995  0.1812
  692SOL    MW4 2536   3.630   0.178   0.502 -0.4537 -0.2575 -0.6600
  693SOL     OW 2537   6.260   2.189   1.535 -0.0497  0.4242 -0.0400
  693SOL    HW2 2538   6.302   2.266   1.573  0.0264 -0.7857  2.5520
  693SOL    HW3 2539   6.181   2.176   1.588 -0.7211 -0.5575 -1.2263
  693SOL    MW4 2540   6.255   2.197   1.547  0.1238  0.1465  0.0181
  694SOL     OW 2541   1.933   1.489   4.369 -0.1027  0.5136 -0.2523
  694SOL    HW2 2542   1.922   1.583   4.386 -0.7751  0.4998 -0.5876
  694SOL    HW3 2543   1.966   1.454   4.452 -1.3801  0.7891  0.3985
  694SOL    MW4 2544   1.936   1.497   4.382 -0.3766 -0.4107  0.6450
  695SOL     OW 2545   2.888   2.496   5.069 -0.4197 -0.0793  0.2027
  695SOL    HW2 2546   2.874   2.520   5.161 -0.4583 -0.4090  0.2873
  695SOL    HW3 2547   2.950   2.561   5.036  0.2831 -0.4758  0.7144
  695SOL    MW4 2548   2.894   2.507   5.077 -0.8765 -0.7463 -0.3248
  696SOL     OW 2549   3.851   1.231   4.945  0.4432  0.3537 -0.6641
  696SOL    HW2 2550   3.847   1.296   5.016 -0.2985 -0.7575  0.3459
  696SOL    HW3 2551   3.933   1.250   4.900  1.9134 -0.0889  1.6702
  696SOL    MW4 2552   3.861   1.242   4.949  0.3392 -0.1025  0.1167
  697SOL     OW 2553   6.117   5.498   4.502  0.4949  0.2169 -0.1684
  697SOL    HW2 2554   6.117   5.404   4.520  1.3847  0.5557  1.8930
  697SOL    HW3 2555   6.210   5.522   4.501  0.2833  1.0574 -0.8805
  697SOL    MW4 2556   6.129   5.489   4.504  0.0530 -0.2573  0.3014
  698SOL     OW 2557   1.932   4.922   4.366  0.8358 -0.0817  0.1265
  698SOL    HW2 2558   1.868   4.986   4.398 -0.1851 -0.6168 -0.7847
  698SOL    HW3 2559   1.967   4.962   4.286 -0.6090 -1.0981 -1.0590
  698SOL    MW4 2560   1.928   4.936   4.360 -0.8596  0.2922  0.5048
  699SOL     OW 2561   5.820   3.504   4.181  0.1414  0.3197 -0.2699
  699SOL    HW2 2562   5.833   3.598   4.194  2.0296  0.0027  0.6161
  699SOL    HW3 2563   5.860   3.464   4.259 -0.3197 -1.2314 -0.7977
  699SOL    MW4 2564   5.827   3.511   4.193  0.0895 -0.2178 -0.7537
  700SOL     OW 2565   6.056   0.735   4.101 -0.3873  0.2139  0.2436
  700SOL    HW2 2566   6.086   0.768   4.186 -0.1432 -0.2197  0.3282
  700SOL    HW3 2567   5.966   0.767   4.094 -1.0034 -1.1126  1.4267
  700SOL    MW4 2568   6.048   0.743   4.112  0.3952 -0.1830 -0.0579
  701SOL     OW 2569   3.043   5.331   5.857 -0.0277  0.0439  0.2825
  701SOL    HW2 2570   2.950   5.309   5.852  0.4031 -1.7313 -1.0128
  701SOL    HW3 2571   3.069   5.302   5.945 -0.3758 -0.9683  0.0709
  701SOL    MW4 2572   3.034   5.324   5.868 -0.0615  0.9296 -0.4531
  702SOL     OW 2573   2.388   3.636   0.061  0.4164 -0.2378  0.2588
  702SOL    HW2 2574   2.356   3.651  -0.028 -0.0102  3.0149  0.8495
  702SOL    HW3 2575   2.482   3.653   0.056  0.1163  1.8823  0.6921
  702SOL    MW4 2576   2.396   3.640   0.048  0.6546  1.1893  0.2136
  703SOL     OW 2577   6.148   0.476   0.997 -0.2553 -0.1302 -0.5848
  703SOL    HW2 2578   6.077   0.413   1.007 -0.5147  0.0722 -1.0947
  703SOL    HW3 2579   6.111   0.545   0.942  0.1860  0.2137 -0.4601
  703SOL    MW4 2580   6.134   0.477   0.991  0.1220 -0.0287 -0.4159
  704SOL     OW 2581   0.868   1.034   0.994  0.1963 -0.1206 -0.1421
  704SOL    HW2 2582   0.789   1.055   0.945 -1.3581 -0.0454  2.2436
  704SOL    HW3 2583   0.909   1.119   1.011 -0.2288  0.0247  0.1829
  704SOL    MW4 2584   0.863   1.048   0.990  0.3038  0.1059 -0.0422
  705SOL     OW 2585   1.728   3.708   0.059 -0.4434 -0.8813 -0.1705
  705SOL    HW2 2586   1.792   3.729  -0.008  1.2416 -0.5608  1.4438
  705SOL    HW3 2587   1.704   3.617   0.042 -0.2612 -0.7137 -1.3608
  705SOL    MW4 2588   1.733   3.699   0.048 -0.1475  0.1706 -0.4844
  706SOL     OW 2589   2.504   5.995   4.974  0.3009  0.0482 -0.1909
  706SOL    HW2 2590   2.514   6.026   4.884  0.9967  0.6500  0.0859
  706SOL    HW3 2591   2.486   6.074   5.026 -2.9394 -0.5596 -0.1484
  706SOL    MW4 2592   2.503   6.009   4.969 -0.2804  0.9640 -0.1928
  707SOL     OW 2593   2.298   2.521   4.214 -0.0400  0.1368  0.2559
  707SOL    HW2 2594   2.387   2.516   4.180  0.3664 -2.5830  1.4906
  707SOL    HW3 2595   2.302   2.478   4.299 -2.5183  0.0874  0.4246
  707SOL    MW4 2596   2.311   2.515   4.221  0.2811  0.6093  0.4680
  708SOL     OW 2597   5.782   5.971   5.313 -0.4813  0.2081  0.3844
  708SOL    HW2 2598   5.830   5.901   5.270  1.0604  0.9986  0.7646
  708SOL    HW3 2599   5.696   5.933   5.331  0.4800 -1.7607  1.0738
  708SOL    MW4 2600   5.777   5.957   5.309 -0.5147 -0.2009 -0.3278
  709SOL     OW 2601   3.162   4.637   2.008 -0.0916  0.1348  0.2459
  709SOL    HW2 2602   3.155   4.567   2.073 -1.0231  0.1467  0.1828
  709SOL    HW3 2603   3.183   4.592   1.927  0.4659  0.0541  0.4333
  709SOL    MW4 2604   3.164   4.622   2.006 -0.1615 -0.3456 -0.7141
  710SOL     OW 2605   0.150   5.378   5.272 -0.1183  0.2522  0.1549
  710SOL    HW2 2606   0.242   5.354   5.260 -0.0472  0.3547  0.4914
  710SOL    HW3 2607   0.134   5.368   5.365 -0.8967 -1.3006 -0.1076
  710SOL    MW4 2608   0.160   5.374   5.282 -0.4229  0.6502 -0.0660
  711SOL     OW 2609   0.166   0.387   3.047 -0.1176 -0.4100 -0.4805
  711SOL    HW2 2610   0.253   0.380   3.087 -0.2136 -0.0219 -0.1979
  711SOL    HW3 2611   0.147   0.481   3.047 -0.8034 -0.5398  0.0498
  711SOL    MW4 2612   0.175   0.398   3.052 -0.0869 -0.7653 -0.6744
  712SOL     OW 2613   3.919   6.164   5.251  0.1161 -0.1886  0.0257
  712SOL    HW2 2614   3.995   6.115   5.218  0.0170  0.7711 -1.7431
  712SOL    HW3 2615   3.948   6.255   5.252 -0.8528  0.1316 -0.2191
  712SOL    MW4 2616   3.933   6.169   5.247  0.0881 -0.7630  0.0114
  713SOL     OW 2617   2.479   3.253   6.131 -0.1384 -0.0418  0.3600
  713SOL    HW2 2618   2.503   3.306   6.207  0.1666 -1.6092  1.4002
  713SOL    HW3 2619   2.553   3.263   6.070  1.2474 -1.4006  1.7190
  713SOL    MW4 2620   2.492   3.261   6.133 -0.1875  0.3221  0.1845
  714SOL     OW 2621   5.753   1.841   2.764 -0.3271  1.1180  0.3980
  714SOL    HW2 2622   5.694   1.784   2.715  1.4507 -0.2240 -0.3431
  714SOL    HW3 2623   5.730   1.827   2.856 -0.0477 -0.7521  0.2347
  714SOL    MW4 2624   5.743   1.831   2.769  0.4846  0.1942 -0.2517
  715SOL     OW 2625   2.203   5.922   4.203 -0.5900  0.3568 -0.2557
  715SOL    HW2 2626   2.280   5.866   4.217  0.0657  1.5561  1.2417
  715SOL    HW3 2627   2.158   5.923   4.288 -0.2048  2.5943 -0.0062
  715SOL    MW4 2628   2.207   5.915   4.216  0.4071 -1.3306 -0.2609
  716SOL     OW 2629   4.455   2.144   4.258 -0.4048 -0.5435  0.1829
  716SOL    HW2 2630   4.383   2.175   4.202 -1.1268 -1.4239  0.5810
  716SOL    HW3 2631   4.534   2.169   4.211 -0.9804 -0.1598 -0.6203
  716SOL    MW4 2632   4.456   2.151   4.244 -0.0540  0.6251  0.3335
  717SOL     OW 2633   5.915   3.860   6.060  0.2434  0.5966 -0.7648
  717SOL    HW2 2634   5.988   3.922   6.064 -1.2733  2.4171  0.1959
  717SOL    HW3 2635   5.873   3.867   6.146 -1.3183 -0.0695 -1.4385
  717SOL    MW4 2636   5.919   3.869   6.072  0.7974 -0.1356 -0.0977
  718SOL     OW 2637   1.916   3.049   1.512  0.1883 -0.3765 -0.2304
  718SOL    HW2 2638   1.880   3.040   1.424  0.6672  0.9625 -0.5787
  718SOL    HW3 2639   2.010   3.040   1.501  0.1289 -2.5976  0.5097
  718SOL    MW4 2640   1.924   3.046   1.499  0.1482 -0.2731  0.3022
  719SOL     OW 2641   1.321   1.583   0.588  0.4157  0.6735  0.0595
  719SOL    HW2 2642   1.259   1.655   0.576  1.0640  1.2837  0.2903
  719SOL    HW3 2643   1.377   1.587   0.510  0.1209  0.0803 -0.1846
  719SOL    MW4 2644   1.320   1.593   0.576 -0.1179 -0.4398 -0.4771
  720SOL     OW 2645   2.194   2.712   3.345  0.3100 -0.6753  0.2605
  720SOL    HW2 2646   2.281   2.716   3.306 -0.1571 -3.0575 -1.1947
  720SOL    HW3 2647   2.189   2.626   3.385 -0.9800 -0.1095  1.3869
  720SOL    MW4 2648   2.205   2.701   3.345  0.1169  0.4553 -0.9218
  721SOL     OW 2649   1.544   0.837   3.586 -0.1542  0.7433 -0.4550
  721SOL    HW2 2650   1.484   0.820   3.659  0.5676  0.2987  0.0503
  721SOL    HW3 2651   1.510   0.916   3.545 -0.1667  1.4319  0.8153
  721SOL    MW4 2652   1.532   0.845   3.590 -0.1486 -0.5233  0.2758
  722SOL     OW 2653   1.517   4.524   2.716  0.1414 -0.0772 -0.2916
  722SOL    HW2 2654   1.433   4.478   2.715 -0.6374  1.2972 -1.2902
  722SOL    HW3 2655   1.495   4.616   2.702  1.8021  0.3673 -0.2910
  722SOL    MW4 2656   1.503   4.530   2.714 -0.0179  0.1016 -0.0798
  723SOL     OW 2657   3.927   3.638   4.688 -0.3160  0.4596  0.1263
  723SOL    HW2 2658   3.859   3.654   4.753  0.2312  0.6591  0.6617
  723SOL    HW3 2659   3.959   3.725   4.664 -1.3521  0.4701 -1.3442
  723SOL    MW4 2660   3.922   3.652   4.693 -1.2754  0.5116 -0.1399
  724SOL     OW 2661   2.553   2.995   6.205 -0.3904  0.1523 -0.1958
  724SOL    HW2 2662   2.470   2.962   6.240 -1.7018 -0.3503 -3.3540
  724SOL    HW3 2663   2.538   3.089   6.194  0.1157  0.3550  0.8424
  724SOL    MW4 2664   2.540   3.003   6.208 -0.2132  0.1864  0.0224
  725SOL     OW 2665   2.021   2.238   5.123  0.2232 -0.2126 -0.1127
  725SOL    HW2 2666   1.991   2.328   5.111  1.2291  0.0480 -0.8000
  725SOL    HW3 2667   2.081   2.223   5.050  0.7966 -1.1215  0.5253
  725SOL    MW4 2668   2.025   2.248   5.111  0.2756  0.2047  0.0128
  726SOL     OW 2669   1.401   2.070   3.493  0.4084  0.0989  0.1775
  726SOL    HW2 2670   1.461   2.002   3.465  2.3513  2.2988 -1.3929
  726SOL    HW3 2671   1.457   2.138   3.531 -1.2286  1.5458  0.1621
  726SOL    MW4 2672   1.416   2.070   3.494 -0.5811  0.0177 -0.3621
  727SOL     OW 2673   3.049   2.700   5.002 -0.5752 -0.3526  0.2076
  727SOL    HW2 2674   3.135   2.679   4.964 -0.3485 -2.3419  1.6650
  727SOL    HW3 2675   3.070   2.730   5.091 -1.3751 -0.9979  0.6234
  727SOL    MW4 2676   3.063   2.701   5.009 -0.6589  0.4160  0.3151
  728SOL     OW 2677   3.242   2.411   3.003 -0.0800  0.4321  0.5098
  728SOL    HW2 2678   3.313   2.422   3.066  0.6161  1.6810 -0.4533
  728SOL    HW3 2679   3.175   2.473   3.032  0.2801  1.0771 -0.0068
  728SOL    MW4 2680   3.243   2.421   3.015  0.1751 -0.1468  0.0346
  729SOL     OW 2681   4.340   1.892   4.290  0.3073  0.4925  0.3940
  729SOL    HW2 2682   4.376   1.870   4.205 -1.6341  1.2054 -0.6625
  729SOL    HW3 2683   4.366   1.983   4.305 -0.3078  0.7287  0.0349
  729SOL    MW4 2684   4.348   1.901   4.281  0.1690 -0.4550  0.5819
  730SOL     OW 2685   0.986   1.821   2.965 -0.2392  0.2169  0.8825
  730SOL    HW2 2686   1.017   1.890   2.906  1.4076 -1.1489  0.0523
  730SOL    HW3 2687   0.898   1.802   2.935  0.7536 -0.8533 -1.6522
  730SOL    MW4 2688   0.979   1.827   2.953  0.2114 -0.0826 -0.2173
  731SOL     OW 2689   3.075   4.805   3.121 -0.4626  0.3211 -0.9788
  731SOL    HW2 2690   3.143   4.793   3.188  0.4435  1.1190 -1.7141
  731SOL    HW3 2691   3.025   4.881   3.152  0.1748  0.9102 -1.3519
  731SOL    MW4 2692   3.078   4.814   3.134 -0.0914 -0.0723  0.1597
  732SOL     OW 2693   1.483   6.080   0.314  0.6005  0.1594 -0.2876
  732SOL    HW2 2694   1.494   6.048   0.403  1.0942 -1.9681 -1.0684
  732SOL    HW3 2695   1.516   6.010   0.258 -1.8382  0.4385 -2.2526
  732SOL    MW4 2696   1.489   6.067   0.318  0.1723  0.3795  0.1985
  733SOL     OW 2697   2.672   2.133   0.458  0.2025  0.0350  0.4029
  733SOL    HW2 2698   2.701   2.110   0.369 -2.3648  0.4304 -0.6313
  733SOL    HW3 2699   2.662   2.228   0.456 -0.0622  0.0204  1.0734
  733SOL    MW4 2700   2.675   2.142   0.446  0.3367 -0.1884 -0.3155
  734SOL     OW 2701   6.202   2.083   3.865 -0.4254  0.2134 -0.8223
  734SOL    HW2 2702   6.282   2.076   3.812  0.7181 -0.8484  0.9563
  734SOL    HW3 2703   6.232   2.108   3.952 -2.1665  0.8789 -0.3585
  734SOL    MW4 2704   6.216   2.085   3.869  0.5698  0.0354 -0.2887
  735SOL     OW 2705   1.093   5.070   5.099  0.2964  0.2875  0.0158
  735SOL    HW2 2706   1.060   5.094   5.185 -2.4860  0.8885 -1.1092
  735SOL    HW3 2707   1.112   5.154   5.057  0.8448  0.0340 -0.2494
  735SOL    MW4 2708   1.091   5.085   5.105 -0.2106 -0.1618 -0.0709
  736SOL     OW 2709   3.778   5.689   3.515  0.7532  0.4070  0.2750
  736SOL    HW2 2710   3.863   5.693   3.561  0.7366 -0.6546  0.4120
  736SOL    HW3 2711   3.800   5.659   3.427  0.6128  1.0059  0.0307
  736SOL    MW4 2712   3.792   5.686   3.509  0.0489 -0.2626 -0.5570
  737SOL     OW 2713   2.735   4.685   2.995  0.4257  0.0511 -0.0196
  737SOL    HW2 2714   2.779   4.658   3.075  1.2303  1.0432 -0.1110
  737SOL    HW3 2715   2.698   4.771   3.015 -0.3374 -0.1771 -0.3732
  737SOL    MW4 2716   2.736   4.693   3.008 -0.1997 -0.1309 -0.0587
  738SOL     OW 2717   3.896   2.685   2.243  0.5397  0.4773 -0.2239
  738SOL    HW2 2718   3.954   2.705   2.169  1.7469  2.9505  1.2847
  738SOL    HW3 2719   3.953   2.644   2.308 -0.1572 -0.1488  0.0161
  738SOL    MW4 2720   3.911   2.682   2.242  0.1272 -0.2317 -0.2161
  739SOL     OW 2721   5.328   2.140   1.289  0.2766  0.0425 -0.7875
  739SOL    HW2 2722   5.419   2.162   1.310  0.9823 -0.0296 -3.4764
  739SOL    HW3 2723   5.332   2.052   1.252 -0.7296  0.4431 -1.8950
  739SOL    MW4 2724   5.340   2.132   1.287 -0.3305 -0.4796  0.6529
  740SOL     OW 2725   4.049   2.493   3.782  0.0330 -0.5200 -0.2200
  740SOL    HW2 2726   3.973   2.516   3.729  0.2136  0.1221 -0.2068
  740SOL    HW3 2727   4.111   2.455   3.720  1.0155  1.9466 -0.8803
  740SOL    MW4 2728   4.047   2.491   3.767 -0.2243 -0.2407  0.3897
  741SOL     OW 2729   3.158   1.782   4.291 -0.2162  0.0286  0.9778
  741SOL    HW2 2730   3.183   1.788   4.383  2.0015 -2.2523  0.6173
  741SOL    HW3 2731   3.104   1.703   4.285  1.4259 -1.0766  0.0430
  741SOL    MW4 2732   3.154   1.773   4.302 -0.3779  0.0021 -0.0896
  742SOL     OW 2733   4.617   5.755   4.032  0.5638 -0.3097 -1.2460
  742SOL    HW2 2734   4.575   5.833   3.998  1.0531  0.6810  0.3223
  742SOL    HW3 2735   4.654   5.782   4.116  0.4867 -2.3016 -0.5175
  742SOL    MW4 2736   4.616   5.769   4.038  0.7788 -0.4550  0.1888
  743SOL     OW 2737   4.155   4.795   5.858 -0.6938 -0.0038  0.1628
  743SOL    HW2 2738   4.140   4.728   5.791  1.6681 -1.5643  1.0483
  743SOL    HW3 2739   4.127   4.755   5.940 -2.9116  1.6348  0.2929
  743SOL    MW4 2740   4.150   4.781   5.860 -0.6812  0.2003 -0.3863
  744SOL     OW 2741   3.257   0.973   5.601  0.3291  0.1028  0.8065
  744SOL    HW2 2742   3.215   0.971   5.687  1.5247  0.2875  1.4071
  744SOL    HW3 2743   3.342   1.013   5.616  0.7771 -0.3541 -0.3764
  744SOL    MW4 2744   3.263   0.978   5.614  0.4950 -0.2205 -0.8075
  745SOL     OW 2745   5.987   5.971   5.947 -0.0931  0.3899  0.4779
  745SOL    HW2 2746   6.072   5.990   5.909  0.2159 -0.6408  0.6144
  745SOL    HW3 2747   5.926   5.969   5.873  0.4779 -1.4768 -0.0030
  745SOL    MW4 2748   5.990   5.973   5.933 -0.4024  0.2203 -1.5388
  746SOL     OW 2749   6.403   0.351   6.376 -0.1049  0.0665 -0.2119
  746SOL    HW2 2750   6.308   0.360   6.378 -0.2074 -1.1306  1.3010
  746SOL    HW3 2751   6.420   0.295   6.301 -0.6165 -0.0081 -0.2765
  746SOL    MW4 2752   6.393   0.345   6.366  0.3457 -0.2795 -0.4614
  747SOL     OW 2753   4.207   3.874   2.705  0.5545  0.7617  0.2220
  747SOL    HW2 2754   4.143   3.802   2.703  0.6228  0.6270  1.7104
  747SOL    HW3 2755   4.167   3.943   2.653 -0.2556  0.2399  0.1298
  747SOL    MW4 2756   4.193   3.873   2.698 -0.2565 -0.3584  0.0994
  748SOL     OW 2757   1.706   2.921   1.659  0.2360  0.3197  0.5475
  748SOL    HW2 2758   1.715   2.987   1.728  0.7736  0.7271  0.0952
  748SOL    HW3 2759   1.772   2.944   1.594 -1.3805  0.9710 -0.9595
  748SOL    MW4 2760   1.716   2.932   1.660 -0.2544 -0.1824  0.5404
  749SOL     OW 2761   3.526   3.105   1.794  0.2584  0.1667  0.1694
  749SOL    HW2 2762   3.563   3.040   1.854 -0.5770 -0.7482 -0.2852
  749SOL    HW3 2763   3.462   3.153   1.847 -0.4729 -0.6351  0.0360
  749SOL    MW4 2764   3.522   3.103   1.809  0.0840  0.2244  0.0789
  750SOL     OW 2765   4.241   1.722   5.315 -0.2486  0.5500  0.3320
  750SOL    HW2 2766   4.171   1.780   5.345 -0.4023  2.0188 -2.5098
  750SOL    HW3 2767   4.310   1.782   5.286  1.0537 -0.8202  0.4783
  750SOL    MW4 2768   4.241   1.738   5.315  0.0074  0.0191 -0.4315
  751SOL     OW 2769   1.298   0.102   3.157  0.0825 -0.1810  0.5445
  751SOL    HW2 2770   1.220   0.073   3.204  0.6422  2.2739  3.2391
  751SOL    HW3 2771   1.284   0.195   3.141  1.1484 -0.3338 -1.8615
  751SOL    MW4 2772   1.286   0.110   3.161 -0.1954 -0.5750  0.3666
  752SOL     OW 2773   0.450   5.772   5.635  0.2403 -0.0791  0.0545
  752SOL    HW2 2774   0.362   5.773   5.599  0.0699 -1.5105  0.3870
  752SOL    HW3 2775   0.502   5.722   5.572  0.4147 -0.7536  0.7212
  752SOL    MW4 2776   0.445   5.766   5.622  0.2617  0.6740 -0.1906
  753SOL     OW 2777   5.835   6.292   4.187  0.3129  0.0928 -1.2079
  753SOL    HW2 2778   5.783   6.214   4.166  0.1418  0.4736 -2.2729
  753SOL    HW3 2779   5.784   6.365   4.151  1.9589  0.4141 -3.1331
  753SOL    MW4 2780   5.821   6.291   4.179  0.0855  0.4412  0.1364
  754SOL     OW 2781   3.697   3.509   5.539 -0.0591 -0.1671 -0.3234
  754SOL    HW2 2782   3.734   3.451   5.473 -0.4345 -0.1098 -0.5920
  754SOL    HW3 2783   3.693   3.595   5.496  1.4104  0.3002  0.3916
  754SOL    MW4 2784   3.701   3.513   5.525 -0.1364  0.2672  0.0828
  755SOL     OW 2785   0.086   0.398   5.085  0.3381 -0.1484  0.2555
  755SOL    HW2 2786   0.135   0.381   5.004  1.6286  0.4884  0.8647
  755SOL    HW3 2787   0.028   0.322   5.094  1.6445 -1.2498 -0.1996
  755SOL    MW4 2788   0.085   0.385   5.075  0.7224  0.4079 -0.0772
  756SOL     OW 2789   4.337   6.351   6.321  0.6188 -0.3310  0.1594
  756SOL    HW2 2790   4.297   6.405   6.252  1.2584  0.4909  0.4111
  756SOL    HW3 2791   4.276   6.359   6.395  0.2526 -0.7031 -0.0946
  756SOL    MW4 2792   4.323   6.359   6.321  0.0342  0.2159  0.1455
  757SOL     OW 2793   1.244   4.504   6.190 -0.1254 -0.1587 -0.4153
  757SOL    HW2 2794   1.224   4.595   6.213  0.7882 -0.3345  1.2318
  757SOL    HW3 2795   1.314   4.512   6.125  0.4668  0.3356  0.2573
  757SOL    MW4 2796   1.251   4.517   6.185 -0.1875 -0.9815 -0.1536
  758SOL     OW 2797   1.675   3.207   2.818 -0.4876  0.1160 -0.2817
  758SOL    HW2 2798   1.744   3.202   2.884  1.1341  2.9003 -1.6140
  758SOL    HW3 2799   1.698   3.139   2.754  0.0141 -0.1418  0.1706
  758SOL    MW4 2800   1.687   3.197   2.818 -0.1312  0.7343 -0.1242
  759SOL     OW 2801   3.874   5.472   2.994  0.0248  0.3589  0.4173
  759SOL    HW2 2802   3.809   5.421   3.042 -0.0977 -1.0651 -1.1569
  759SOL    HW3 2803   3.957   5.430   3.015  0.2122  0.9633  0.9036
  759SOL    MW4 2804   3.876   5.460   3.003  0.0010 -0.0761 -0.6239
  760SOL     OW 2805   0.554   5.859   1.283 -0.0111  0.7562  0.2993
  760SOL    HW2 2806   0.544   5.891   1.193  0.5080  0.0652 -0.0142
  760SOL    HW3 2807   0.493   5.785   1.288  1.4572 -0.5315 -0.1597
  760SOL    MW4 2808   0.545   5.853   1.272 -0.3734  0.6206 -0.3957
  761SOL     OW 2809   3.218   5.286   0.617  0.5230 -0.1839 -0.1575
  761SOL    HW2 2810   3.256   5.201   0.638  0.3715  0.2401  2.0847
  761SOL    HW3 2811   3.292   5.347   0.620  0.2331  0.1356  0.8488
  761SOL    MW4 2812   3.233   5.283   0.620  0.4789  0.0495 -0.3080
  762SOL     OW 2813   0.382   4.220   0.486  0.4072 -0.6798 -0.0755
  762SOL    HW2 2814   0.426   4.297   0.523  0.3612 -1.0282  0.7026
  762SOL    HW3 2815   0.412   4.217   0.395 -0.6190  1.0402 -0.5212
  762SOL    MW4 2816   0.392   4.230   0.479 -0.1578 -0.1484 -0.1310
  763SOL     OW 2817   0.346   0.579   2.024 -0.4748 -0.1907 -0.3757
  763SOL    HW2 2818   0.256   0.552   2.006 -0.5335 -0.6130  0.5098
  763SOL    HW3 2819   0.339   0.631   2.104  0.3135 -1.8730  0.8311
  763SOL    MW4 2820   0.333   0.583   2.032  0.3571  0.4775  0.2037
  764SOL     OW 2821   3.638   0.736   6.176  0.3589  0.3942  0.4733
  764SOL    HW2 2822   3.552   0.760   6.211  0.8875  0.4088  1.8425
  764SOL    HW3 2823   3.697   0.801   6.214  0.6287  2.3214 -2.8784
  764SOL    MW4 2824   3.634   0.748   6.186  0.0687  0.3590  0.3731
  765SOL     OW 2825   0.786   3.801   2.847 -0.3432  0.3241  0.5982
  765SOL    HW2 2826   0.770   3.895   2.837  1.1319  0.4304 -1.9156
  765SOL    HW3 2827   0.881   3.792   2.836 -0.1754 -1.3008  2.8192
  765SOL    MW4 2828   0.796   3.812   2.844 -0.3958 -0.3274  0.7316
  766SOL     OW 2829   1.429   6.143   1.066  0.4370 -0.0389 -0.0722
  766SOL    HW2 2830   1.372   6.128   0.990  0.6925 -2.2922  0.1252
  766SOL    HW3 2831   1.453   6.236   1.059 -0.2339  0.0408 -2.2468
  766SOL    MW4 2832   1.425   6.153   1.055 -0.4645 -0.1776  0.0013
  767SOL     OW 2833   0.325   2.659   2.647  0.0914  0.2885  0.1416
  767SOL    HW2 2834   0.321   2.563   2.649 -1.3558  0.3288  0.5873
  767SOL    HW3 2835   0.236   2.686   2.624 -0.2650  1.5634  2.6657
  767SOL    MW4 2836   0.313   2.650   2.644 -0.4771 -0.8099 -0.5303
  768SOL     OW 2837   1.359   1.676   2.135 -0.1747  0.2756 -0.3385
  768SOL    HW2 2838   1.417   1.682   2.059 -1.4299 -0.6225 -1.4079
  768SOL    HW3 2839   1.345   1.767   2.161 -0.9203  0.7111 -2.1324
  768SOL    MW4 2840   1.365   1.689   2.128 -0.4916  0.5816  1.0811
  769SOL     OW 2841   0.829   4.639   1.300 -0.4505 -0.0974  0.3220
  769SOL    HW2 2842   0.813   4.555   1.258 -2.1916  0.2164  0.3194
  769SOL    HW3 2843   0.915   4.629   1.341  0.4525 -1.0549 -1.6672
  769SOL    MW4 2844   0.839   4.627   1.300 -0.2996  0.1565 -1.0117
  770SOL     OW 2845   6.260   0.872   1.553 -0.4705 -0.3469  0.0706
  770SOL    HW2 2846   6.207   0.800   1.520 -0.0467 -0.4545 -0.3927
  770SOL    HW3 2847   6.198   0.930   1.597 -1.0611 -0.1919 -0.9317
  770SOL    MW4 2848   6.245   0.870   1.555 -0.3064  0.5865  0.4212
  771SOL     OW 2849   0.093   2.423   5.345  0.2544 -0.0422 -0.0993
  771SOL    HW2 2850   0.147   2.502   5.348  0.0398  0.1418 -0.9354
  771SOL    HW3 2851   0.007   2.452   5.375  0.7508 -0.4922  1.9804
  771SOL    MW4 2852   0.089   2.437   5.350 -0.4818  0.4359  0.0110
  772SOL     OW 2853   0.444   3.244   5.730 -0.4314 -0.5439  0.2941
  772SOL    HW2 2854   0.434   3.292   5.812  0.2164 -0.2575  0.2151
  772SOL    HW3 2855   0.364   3.263   5.681 -1.3247 -1.5887  1.2846
  772SOL    MW4 2856   0.432   3.253   5.734 -0.4810 -0.0711 -0.5114
  773SOL     OW 2857   5.556   3.767   4.104 -0.1695 -0.1640  0.2313
  773SOL    HW2 2858   5.511   3.778   4.020  0.9488 -1.7939 -0.6465
  773SOL    HW3 2859   5.496   3.714   4.156 -0.3301 -0.2270 -0.0152
  773SOL    MW4 2860   5.542   3.761   4.100  0.0432 -0.0538  0.3498
  774SOL     OW 2861   3.603   0.680   0.951  0.7350 -0.8256  0.2341
  774SOL    HW2 2862   3.641   0.646   0.869  1.7632 -1.5541  0.9853
  774SOL    HW3 2863   3.647   0.764   0.963  1.4679 -1.2508  0.6257
  774SOL    MW4 2864   3.614   0.686   0.942 -0.0997 -0.0653 -0.2235
  775SOL     OW 2865   1.435   0.896   3.115 -0.5254 -0.4139 -0.7052
  775SOL    HW2 2866   1.462   0.825   3.173 -1.1339 -0.8583 -0.9544
  775SOL    HW3 2867   1.505   0.961   3.122  0.2723 -1.2437 -0.8391
  775SOL    MW4 2868   1.447   0.895   3.124  0.6693 -1.1357 -0.4339
  776SOL     OW 2869   3.425   3.603   0.996  0.6396  0.6079 -0.1195
  776SOL    HW2 2870   3.455   3.671   0.934 -0.9492  0.1201 -1.4901
  776SOL    HW3 2871   3.356   3.646   1.047  0.9174  0.5623  0.2971
  776SOL    MW4 2872   3.420   3.618   0.994  0.6320 -0.0647  0.6949
  777SOL     OW 2873   4.673   4.515   6.170 -0.2969  0.1752 -0.0019
  777SOL    HW2 2874   4.690   4.586   6.108 -3.6239  1.6456  0.5821
  777SOL    HW3 2875   4.748   4.456   6.159  1.1579  2.2664 -2.6216
  777SOL    MW4 2876   4.685   4.517   6.160 -0.0679  0.0723 -0.1387
  778SOL     OW 2877   4.765   5.466   6.287  0.4552  0.0085  0.0984
  778SOL    HW2 2878   4.679   5.484   6.249  0.8012 -0.0953 -0.7618
  778SOL    HW3 2879   4.824   5.527   6.242  0.4739  1.7934  2.3846
  778SOL    MW4 2880   4.761   5.477   6.276 -0.1592  0.1655 -0.6089
  779SOL     OW 2881   1.436   1.605   0.314  0.4298 -0.3968 -0.2890
  779SOL    HW2 2882   1.446   1.665   0.241 -0.9127  1.1540  0.7586
  779SOL    HW3 2883   1.525   1.573   0.330  1.0046  0.5031 -1.5100
  779SOL    MW4 2884   1.449   1.608   0.306 -0.2126  0.1673 -0.2494
  780SOL     OW 2885   1.028   3.994   3.909 -1.0691  0.7639 -0.2098
  780SOL    HW2 2886   1.010   3.943   3.830 -0.1565 -0.2385  0.2061
  780SOL    HW3 2887   1.075   4.071   3.879  2.7176 -1.3879 -0.3925
  780SOL    MW4 2888   1.032   3.997   3.895  0.0693  0.0254 -0.3441
  781SOL     OW 2889   1.083   2.885   0.696  0.1321 -0.6825 -0.0256
  781SOL    HW2 2890   1.143   2.896   0.622 -0.6426  0.8144 -0.4647
  781SOL    HW3 2891   1.130   2.921   0.771 -0.8045  2.1796 -0.6923
  781SOL    MW4 2892   1.097   2.891   0.696 -0.3576  0.6819  0.1258
  782SOL     OW 2893   3.143   3.351   0.194  0.2090 -0.2211 -0.1794
  782SOL    HW2 2894   3.135   3.282   0.129  1.1885 -0.7995  0.2792
  782SOL    HW3 2895   3.136   3.306   0.278  1.6677  0.0790  0.1399
  782SOL    MW4 2896   3.141   3.336   0.197  0.3439  0.6843 -0.3875
  783SOL     OW 2897   4.749   6.356   0.289 -0.4352  0.2301  0.5928
  783SOL    HW2 2898   4.705   6.439   0.273 -0.9526 -0.6423 -3.7577
  783SOL    HW3 2899   4.840   6.371   0.265 -0.3324 -0.2671  0.6492
  783SOL    MW4 2900   4.755   6.369   0.284 -0.3928 -0.3707  0.2062
  784SOL     OW 2901   2.631   1.574   2.824 -0.1909 -0.2980  0.0854
  784SOL    HW2 2902   2.610   1.486   2.793 -1.1044 -0.3781  0.8917
  784SOL    HW3 2903   2.714   1.565   2.870  0.5174 -0.4237 -1.1709
  784SOL    MW4 2904   2.639   1.561   2.826 -0.2825 -0.2679 -0.0055
  785SOL     OW 2905   5.107   3.396   5.952  0.0733 -0.0739  0.3252
  785SOL    HW2 2906   5.189   3.388   6.001  0.1670 -1.4043 -0.0117
  785SOL    HW3 2907   5.125   3.464   5.887  1.1914 -0.8913 -0.2556
  785SOL    MW4 2908   5.120   3.404   5.950  0.0791 -0.4429  0.0962
  786SOL     OW 2909   2.815   0.094   5.613 -0.1256 -0.6509 -0.6166
  786SOL    HW2 2910   2.855   0.045   5.541  0.0753 -0.1483 -0.8475
  786SOL    HW3 2911   2.777   0.026   5.669  0.4342 -1.0953 -0.7622
  786SOL    MW4 2912   2.815   0.079   5.611 -0.0826  0.4189  0.3749
  787SOL     OW 2913   6.342   5.911   1.480  0.4128  0.1013 -0.2100
  787SOL    HW2 2914   6.267   5.857   1.503  1.3479 -0.9349  0.5287
  787SOL    HW3 2915   6.316   5.956   1.399 -1.6999  1.2543  1.0352
  787SOL    MW4 2916   6.329   5.910   1.472  0.2408 -0.2806  0.0207
  788SOL     OW 2917   1.108   1.088   5.813  0.0214 -0.0253  0.0278
  788SOL    HW2 2918   1.070   1.019   5.759 -0.9916  0.7779 -0.3245
  788SOL    HW3 2919   1.186   1.049   5.851  1.3038 -0.3533 -2.7184
  788SOL    MW4 2920   1.113   1.074   5.811  0.8491  0.3843 -0.1689
  789SOL     OW 2921   2.741   6.099   0.762  0.3550  0.3127 -0.0600
  789SOL    HW2 2922   2.656   6.063   0.737 -1.0689  1.4240  2.6904
  789SOL    HW3 2923   2.769   6.150   0.686 -1.7199  0.3495 -0.8655
  789SOL    MW4 2924   2.734   6.101   0.748 -0.4756  0.4807  0.0570
  790SOL     OW 2925   1.338   2.241   5.439  0.2038  0.2552 -0.1107
  790SOL    HW2 2926   1.323   2.153   5.404  0.9298  0.3115 -0.5942
  790SOL    HW3 2927   1.429   2.239   5.468 -0.2957  0.3114  1.5225
  790SOL    MW4 2928   1.348   2.229   5.438 -0.2893  0.3362  0.0539
  791SOL     OW 2929   2.569   6.320   0.809 -0.1459  1.1085 -0.3354
  791SOL    HW2 2930   2.647   6.269   0.790 -0.8625 -0.0607 -0.2604
  791SOL    HW3 2931   2.512   6.260   0.856 -0.7399  2.2075  0.3978
  791SOL    MW4 2932   2.572   6.305   0.813 -0.0908  0.0181 -0.1874
  792SOL     OW 2933   6.028   2.253   0.056  0.0969 -0.1834 -0.0643
  792SOL    HW2 2934   6.110   2.204   0.050  0.3657  0.2642 -0.1146
  792SOL    HW3 2935   6.021   2.298  -0.028  1.4821  2.3743  1.0631
  792SOL    MW4 2936   6.038   2.252   0.044 -0.1321 -0.0046 -0.1019
  793SOL     OW 2937   4.564   4.771   1.101 -0.1680  0.1265 -0.3551
  793SOL    HW2 2938   4.604   4.845   1.054 -0.2583 -0.2972 -1.1264
  793SOL    HW3 2939   4.543   4.708   1.032  1.7661 -1.5109  0.4436
  793SOL    MW4 2940   4.567   4.772   1.085 -0.3294  0.0672 -0.1038
  794SOL     OW 2941   5.096   1.269   4.283 -0.5328 -0.3283  0.2695
  794SOL    HW2 2942   5.015   1.293   4.239 -1.1437 -0.2643  1.3956
  794SOL    HW3 2943   5.071   1.199   4.343  0.5459 -1.3659 -0.4427
  794SOL    MW4 2944   5.082   1.263   4.285  0.2180  0.2726  0.3588
  795SOL     OW 2945   3.168   1.185   4.469 -0.9972  0.2897  0.3081
  795SOL    HW2 2946   3.223   1.224   4.402 -0.6677  0.1667  0.5032
  795SOL    HW3 2947   3.191   1.231   4.550  0.5481 -1.3263  0.8593
  795SOL    MW4 2948   3.178   1.196   4.471 -0.6679  0.0019  0.4735
  796SOL     OW 2949   5.601   5.928   0.468  0.3465  0.0205  0.6324
  796SOL    HW2 2950   5.567   6.011   0.433  0.0993 -0.2642  0.1928
  796SOL    HW3 2951   5.681   5.953   0.514  0.5440  0.4330  0.0773
  796SOL    MW4 2952   5.607   5.942   0.470  0.2168 -0.2938  0.8036
  797SOL     OW 2953   6.090   6.393   3.465 -0.4499 -0.1946  0.3593
  797SOL    HW2 2954   6.139   6.315   3.438  1.0117  0.3819  1.2854
  797SOL    HW3 2955   6.094   6.451   3.389  0.5620 -0.0392  0.5247
  797SOL    MW4 2956   6.097   6.390   3.451 -0.0498  0.8449 -0.2856
  798SOL     OW 2957   0.560   5.186   0.870 -0.4574 -0.2761  0.0667
  798SOL    HW2 2958   0.625   5.117   0.880  2.2580  2.2021  0.8738
  798SOL    HW3 2959   0.535   5.209   0.959 -0.8155  0.2759 -0.1711
  798SOL    MW4 2960   0.565   5.180   0.883 -0.4975  0.2917 -0.7081
  799SOL     OW 2961   0.423   2.609   4.999 -0.1182  0.5915  0.5212
  799SOL    HW2 2962   0.467   2.680   4.952  0.4587 -0.2465 -0.2574
  799SOL    HW3 2963   0.446   2.530   4.950  0.0336 -0.2621  1.9042
  799SOL    MW4 2964   0.432   2.608   4.986  0.8905  0.0953 -0.7238
  800SOL     OW 2965   5.809   0.412   5.096  0.2521 -0.1967  0.1012
  800SOL    HW2 2966   5.764   0.337   5.058  2.3503 -2.4475  1.6962
  800SOL    HW3 2967   5.881   0.430   5.035  0.3742 -0.2050  0.2413
  800SOL    MW4 2968   5.813   0.404   5.083  0.4673 -0.0588 -0.0976
  801SOL     OW 2969   0.852   5.461   3.083 -0.1348  0.5343  0.7306
  801SOL    HW2 2970   0.789   5.441   3.014 -0.1039  1.3848  0.4528
  801SOL    HW3 2971   0.872   5.554   3.073 -1.4445  1.1293  2.9536
  801SOL    MW4 2972   0.847   5.470   3.073 -0.7070  0.0607  0.0251
  802SOL     OW 2973   4.611   5.107   0.064  0.3727  0.3654 -0.1548
  802SOL    HW2 2974   4.692   5.122   0.015  2.7968 -1.7461  2.8252
  802SOL    HW3 2975   4.621   5.158   0.144 -1.0792 -0.2520  0.4633
  802SOL    MW4 2976   4.623   5.116   0.068 -0.1702 -0.4718 -0.6918
  803SOL     OW 2977   4.282   1.203   0.714 -0.0151 -0.1895  0.0119
  803SOL    HW2 2978   4.240   1.147   0.649  1.4522 -0.1127 -1.0326
  803SOL    HW3 2979   4.361   1.156   0.739  0.4602  0.7177  0.2479
  803SOL    MW4 2980   4.287   1.190   0.709  0.0474 -0.0636 -0.5123
  804SOL     OW 2981   1.030   0.868   5.629  0.8789 -0.5681 -0.7814
  804SOL    HW2 2982   0.948   0.818   5.637  0.4792  0.0322 -1.0686
  804SOL    HW3 2983   1.009   0.940   5.570  1.0578  0.7326  0.6746
  804SOL    MW4 2984   1.016   0.871   5.623 -0.3120  0.8893 -0.4353
  805SOL     OW 2985   5.257   6.086   0.802 -0.2403 -0.4041  0.0094
  805SOL    HW2 2986   5.165   6.105   0.821 -0.4224 -0.2210 -1.0025
  805SOL    HW3 2987   5.266   6.100   0.708  1.1977  1.1566  0.3220
  805SOL    MW4 2988   5.246   6.090   0.792  0.1970  0.5973 -0.3648
  806SOL     OW 2989   2.358   1.642   2.345 -0.0952  0.4252 -0.4668
  806SOL    HW2 2990   2.355   1.676   2.256  1.3622  1.0094 -0.3216
  806SOL    HW3 2991   2.321   1.554   2.339  1.2962 -0.0991 -1.9149
  806SOL    MW4 2992   2.353   1.635   2.333 -0.3194 -0.2617 -0.1056
  807SOL     OW 2993   4.298   3.713   5.049  0.2038  0.2698 -0.4225
  807SOL    HW2 2994   4.257   3.651   4.989  0.4546 -0.6047  0.2876
  807SOL    HW3 2995   4.388   3.722   5.017  0.5847 -0.8389  0.2768
  807SOL    MW4 2996   4.304   3.706   5.037 -0.4296  0.0329 -0.3620
  808SOL     OW 2997   0.839   2.510   3.688 -0.2323  0.6361  0.2173
  808SOL    HW2 2998   0.808   2.600   3.684 -1.1165  0.3896  1.0592
  808SOL    HW3 2999   0.920   2.515   3.738  1.8713  1.4438 -2.9756
  808SOL    MW4 3000   0.846   2.523   3.694  0.5558  0.5722 -0.1628
  809SOL     OW 3001   5.855   1.807   4.768  0.6764 -0.0426 -0.3514
  809SOL    HW2 3002   5.946   1.825   4.743  0.3451  0.7687 -1.0325
  809SOL    HW3 3003   5.862   1.754   4.848  1.7413  0.0330 -0.3771
  809SOL    MW4 3004   5.868   1.802   4.775 -0.2288 -0.1988 -0.1476
  810SOL     OW 3005   5.888   4.470   3.224 -1.0653  0.2762  0.2910
  810SOL    HW2 3006   5.826   4.487   3.295 -1.4951 -0.9331  0.2314
  810SOL    HW3 3007   5.864   4.383   3.192 -0.6071  0.6167 -1.0546
  810SOL    MW4 3008   5.876   4.461   3.229  0.3010  0.0876  0.2217
  811SOL     OW 3009   2.220   0.839   4.924 -0.5379 -0.0502 -0.6489
  811SOL    HW2 3010   2.295   0.873   4.973 -0.4731 -0.1406 -0.6833
  811SOL    HW3 3011   2.259   0.777   4.862 -0.7883 -1.2100  0.3256
  811SOL    MW4 3012   2.235   0.835   4.922  0.6724 -0.5921  0.0465
  812SOL     OW 3013   3.184   3.734   1.129  0.6208  0.1781 -0.0005
  812SOL    HW2 3014   3.204   3.767   1.217 -1.9677  2.1184 -0.0150
  812SOL    HW3 3015   3.127   3.659   1.145 -1.0570  1.3945  0.0867
  812SOL    MW4 3016   3.179   3.729   1.143 -0.0058  0.0694  0.1226
  813SOL     OW 3017   3.102   5.760   5.681  0.1106  0.1400 -0.3713
  813SOL    HW2 3018   3.115   5.836   5.737  1.4722 -0.2671 -0.1005
  813SOL    HW3 3019   3.079   5.797   5.596  0.9714  0.8769 -0.3011
  813SOL    MW4 3020   3.101   5.775   5.677 -0.3306  0.3654 -0.2041
  814SOL     OW 3021   3.746   6.365   5.959  0.4859 -0.6986 -0.1614
  814SOL    HW2 3022   3.723   6.282   5.919 -1.7110 -0.9002  1.3209
  814SOL    HW3 3023   3.677   6.426   5.931  1.1104  0.1743  0.1373
  814SOL    MW4 3024   3.734   6.362   5.950 -0.1057  0.0437  0.1645
  815SOL     OW 3025   4.919   5.398   5.647  0.3698 -0.1904 -0.3951
  815SOL    HW2 3026   4.885   5.311   5.665 -3.0833  0.7678 -1.4205
  815SOL    HW3 3027   4.909   5.445   5.730  0.8623 -0.3729 -0.2304
  815SOL    MW4 3028   4.913   5.393   5.660 -0.6480 -0.0743 -0.6628
  816SOL     OW 3029   1.417   4.731   1.200  0.4523 -0.4091 -0.5553
  816SOL    HW2 3030   1.471   4.800   1.237  0.1651  0.1137 -1.0901
  816SOL    HW3 3031   1.439   4.653   1.251  1.3672 -0.1073 -0.4660
  816SOL    MW4 3032   1.427   4.730   1.212 -0.1362  0.4806  0.2940
  817SOL     OW 3033   0.787   3.029   3.138  0.1803 -0.4606 -0.1019
  817SOL    HW2 3034   0.843   3.098   3.172  2.2431 -2.7794  1.4590
  817SOL    HW3 3035   0.698   3.057   3.161  0.6932  2.5035 -1.2039
  817SOL    MW4 3036   0.782   3.042   3.145  0.1031  0.3338 -0.4704
  818SOL     OW 3037   5.350   4.455   2.256  0.5606  0.1960 -0.8775
  818SOL    HW2 3038   5.329   4.516   2.185 -1.8490 -0.3445 -0.7302
  818SOL    HW3 3039   5.357   4.370   2.213 -1.4473 -0.2252 -0.4992
  818SOL    MW4 3040   5.348   4.452   2.241 -0.5003  0.2632  0.4411
  819SOL     OW 3041   4.095   2.919   3.231 -0.0849  0.1050 -0.3654
  819SOL    HW2 3042   4.009   2.881   3.212 -0.3245  1.3428 -2.0464
  819SOL    HW3 3043   4.090   2.947   3.322 -1.0468 -0.8444 -0.1071
  819SOL    MW4 3044   4.083   2.918   3.241 -0.5438  0.7047  0.1891
  820SOL     OW 3045   0.300   1.844   4.439  0.0743 -0.1644 -0.0859
  820SOL    HW2 3046   0.216   1.808   4.466 -0.7040  0.6182 -1.3566
  820SOL    HW3 3047   0.351   1.849   4.520 -1.3211 -0.0729  0.8289
  820SOL    MW4 3048   0.296   1.840   4.454  0.1630 -0.4003  0.2353
  821SOL     OW 3049   6.154   1.498   4.767  0.4115  0.1088 -0.3614
  821SOL    HW2 3050   6.207   1.543   4.833  0.3905  0.1279 -0.3575
  821SOL    HW3 3051   6.179   1.406   4.776 -0.8103 -0.1457  0.8302
  821SOL    MW4 3052   6.165   1.492   4.777  0.1246  0.0756 -0.3970
  822SOL     OW 3053   4.324   5.225   5.088 -0.1503 -0.1265  0.3432
  822SOL    HW2 3054   4.285   5.139   5.107  0.2203 -0.4004 -0.1260
  822SOL    HW3 3055   4.253   5.287   5.101  0.1684 -0.2221  3.1658
  822SOL    MW4 3056   4.310   5.222   5.092  0.4019 -0.2429 -0.1384
  823SOL     OW 3057   0.003   2.712   0.511 -0.6938  0.8103  0.1805
  823SOL    HW2 3058  -0.006   2.708   0.606 -0.8362  1.4609  0.2031
  823SOL    HW3 3059  -0.028   2.628   0.479  0.3994  0.1633  0.7880
  823SOL    MW4 3060  -0.002   2.701   0.519  0.5093 -0.0182 -0.1120
  824SOL     OW 3061   5.077   5.131   2.264 -0.3530  0.0002 -0.3429
  824SOL    HW2 3062   5.122   5.086   2.192  0.9775  0.5929  0.0810
  824SOL    HW3 3063   4.984   5.122   2.244 -0.0295 -0.5844 -1.6831
  824SOL    MW4 3064   5.071   5.124   2.252 -0.1057 -0.1501  0.5076
  825SOL     OW 3065   0.302   3.065   3.019 -0.4069 -0.1263  0.1308
  825SOL    HW2 3066   0.265   2.981   2.990 -2.3096  0.3308  1.0363
  825SOL    HW3 3067   0.308   3.118   2.940 -3.1966  0.2665  0.0603
  825SOL    MW4 3068   0.298   3.061   3.005 -0.7868 -0.1486 -0.3155
  826SOL     OW 3069   2.576   3.449   5.455 -0.3165  0.5641 -0.2200
  826SOL    HW2 3070   2.646   3.396   5.492  0.8859  2.1890 -0.0576
  826SOL    HW3 3071   2.498   3.425   5.506  0.5113  0.0202  0.8207
  826SOL    MW4 3072   2.575   3.439   5.467 -0.0123 -0.6524 -0.4109
  827SOL     OW 3073   5.219   0.426   3.375  0.2104  0.1212  0.2051
  827SOL    HW2 3074   5.279   0.418   3.301  0.8454  0.5131  0.6662
  827SOL    HW3 3075   5.164   0.501   3.352  1.2539  1.0710  0.6891
  827SOL    MW4 3076   5.220   0.435   3.362 -0.2114 -0.4293  0.1784
  828SOL     OW 3077   3.189   5.554   3.916  0.2327  0.2676 -0.3203
  828SOL    HW2 3078   3.155   5.603   3.990  2.2691  1.8258 -0.3408
  828SOL    HW3 3079   3.254   5.612   3.876  0.8923 -1.4568 -1.9064
  828SOL    MW4 3080   3.193   5.568   3.920  0.4148  0.1652  0.1608
  829SOL     OW 3081   2.809   1.910   2.860  0.6015  0.0105  0.1826
  829SOL    HW2 3082   2.741   1.888   2.923  1.0445 -1.0040  0.3240
  829SOL    HW3 3083   2.848   1.826   2.836  0.7915  0.4274 -1.0533
  829SOL    MW4 3084   2.805   1.896   2.865 -0.6072  0.2562 -0.1574
  830SOL     OW 3085   1.967   0.466   2.446  0.8685 -0.3890 -0.3237
  830SOL    HW2 3086   1.981   0.559   2.424 -1.4478  0.4208  1.2354
  830SOL    HW3 3087   1.961   0.423   2.361 -1.0556  1.4696 -1.2439
  830SOL    MW4 3088   1.968   0.473   2.432  0.2044  0.1714  0.9320
  831SOL     OW 3089   2.267   1.290   5.069 -0.1643  0.3888  0.7016
  831SOL    HW2 3090   2.214   1.363   5.099 -0.7302  0.1949  0.1773
  831SOL    HW3 3091   2.344   1.291   5.126  0.5140  2.2508 -0.1905
  831SOL    MW4 3092   2.271   1.299   5.080  0.1571 -0.4474  0.0972
  832SOL     OW 3093   1.810   3.556   0.482  0.1584 -0.9050  0.3049
  832SOL    HW2 3094   1.797   3.614   0.407 -2.1931 -1.5580  0.1320
  832SOL    HW3 3095   1.887   3.504   0.458  1.0283  0.6511 -0.4577
  832SOL    MW4 3096   1.818   3.557   0.469 -0.2235 -0.1858  0.0904
  833SOL     OW 3097   4.948   5.331   4.072  0.5340  0.5327  0.3344
  833SOL    HW2 3098   4.866   5.378   4.054  0.9018  0.9672 -0.2647
  833SOL    HW3 3099   4.921   5.240   4.087 -0.0789  0.7141  0.3525
  833SOL    MW4 3100   4.934   5.325   4.071 -0.0404 -0.4300  0.1565
  834SOL     OW 3101   0.514   5.847   4.870  0.4584 -0.5227 -0.0760
  834SOL    HW2 3102   0.475   5.926   4.907 -0.1675 -0.4526 -0.8523
  834SOL    HW3 3103   0.585   5.825   4.930  1.7160  1.5501 -0.6872
  834SOL    MW4 3104   0.519   5.855   4.883 -1.4296 -0.3468  0.5035
  835SOL     OW 3105   0.339   5.141   3.351  0.2629 -0.0982 -0.8370
  835SOL    HW2 3106   0.343   5.210   3.418  1.0938  2.1960 -3.1070
  835SOL    HW3 3107   0.377   5.065   3.394  0.0457  1.0429  1.5468
  835SOL    MW4 3108   0.345   5.140   3.366  0.3222 -0.5573 -0.2265
  836SOL     OW 3109   1.763   5.309   1.429 -0.9009  0.1481 -0.7101
  836SOL    HW2 3110   1.672   5.338   1.442 -0.4013  0.6185  2.3085
  836SOL    HW3 3111   1.816   5.376   1.473  0.6983 -1.7471  0.3627
  836SOL    MW4 3112   1.758   5.322   1.436 -0.0001 -0.2484  1.3088
  837SOL     OW 3113   3.846   1.701   5.076  0.5152 -0.0959 -0.5170
  837SOL    HW2 3114   3.807   1.634   5.020 -1.0366  0.7120 -0.4653
  837SOL    HW3 3115   3.927   1.661   5.107 -0.5662 -2.1666 -0.0960
  837SOL    MW4 3116   3.851   1.687   5.073  0.1164 -0.2916 -0.0794
  838SOL     OW 3117   2.913   0.493   0.594 -0.0519  1.1635  0.4676
  838SOL    HW2 3118   2.885   0.461   0.508  1.2978 -0.7831  0.7054
  838SOL    HW3 3119   2.831   0.513   0.640 -1.0313 -2.0255  0.2954
  838SOL    MW4 3120   2.899   0.492   0.588  0.7489  0.0839 -0.2422
  839SOL     OW 3121   5.040   1.776   5.995 -0.0519  0.6916 -0.1737
  839SOL    HW2 3122   5.016   1.868   5.983  0.4988  0.9243  0.4256
  839SOL    HW3 3123   4.965   1.736   6.039  0.2202  1.1634  0.7389
  839SOL    MW4 3124   5.027   1.783   5.999 -0.0994  0.2903 -0.7442
  840SOL     OW 3125   1.597   5.505   2.495 -0.0343  0.2300 -0.7022
  840SOL    HW2 3126   1.635   5.554   2.567  0.4079 -1.2550  0.1054
  840SOL    HW3 3127   1.672   5.483   2.439 -0.2242  0.4583 -1.0473
  840SOL    MW4 3128   1.612   5.509   2.497  0.1057  0.0428  0.2977
  841SOL     OW 3129   5.044   3.005   0.132  0.5162 -0.0257  0.3592
  841SOL    HW2 3130   5.001   2.998   0.047 -0.8306 -2.0883  1.1252
  841SOL    HW3 3131   4.991   3.068   0.181  1.1535  0.9819 -0.2094
  841SOL    MW4 3132   5.032   3.012   0.128  0.2708  0.0659  0.4333
  842SOL     OW 3133   2.150   5.076   3.909 -0.1494 -0.4238  0.2459
  842SOL    HW2 3134   2.162   5.170   3.900 -1.8078 -0.3190 -1.5716
  842SOL    HW3 3135   2.085   5.066   3.978 -0.6172 -0.1639 -0.1493
  842SOL    MW4 3136   2.143   5.087   3.917  0.1768 -0.1691  0.1207
  843SOL     OW 3137   2.093   6.308   5.327  0.1451  0.2197 -0.2379
  843SOL    HW2 3138   2.180   6.284   5.359 -0.1123 -0.6690 -0.1686
  843SOL    HW3 3139   2.059   6.367   5.393  0.8046  0.7996 -0.4044
  843SOL    MW4 3140   2.100   6.312   5.340  0.0392 -0.0153  0.3024
  844SOL     OW 3141   2.994   3.675   4.916 -0.3712  0.4529  0.5269
  844SOL    HW2 3142   2.937   3.751   4.906 -0.0826  0.5711 -0.3571
  844SOL    HW3 3143   3.020   3.653   4.826 -0.6813 -0.8770  0.7407
  844SOL    MW4 3144   2.990   3.682   4.902  0.2778 -0.4164  0.4011
  845SOL     OW 3145   2.385   2.841   0.743  0.2519  0.1980 -0.3369
  845SOL    HW2 3146   2.299   2.841   0.700 -0.4242 -0.7995  0.9107
  845SOL    HW3 3147   2.392   2.927   0.783  1.2760  1.4816 -3.0419
  845SOL    MW4 3148   2.375   2.852   0.742  0.0019 -0.1840  0.0625
  846SOL     OW 3149   1.795   4.368   5.471  0.1286 -0.1485  0.3506
  846SOL    HW2 3150   1.879   4.401   5.440  0.4095 -0.2286  1.0168
  846SOL    HW3 3151   1.817   4.288   5.518 -0.5134 -1.1636 -1.0179
  846SOL    MW4 3152   1.809   4.362   5.473  0.7370  0.3786 -0.3501
  847SOL     OW 3153   2.021   0.820   5.115 -0.2379 -0.7528 -0.2004
  847SOL    HW2 3154   1.949   0.862   5.068 -0.5122 -0.9292  0.0499
  847SOL    HW3 3155   2.096   0.828   5.057  0.2462  1.8945  0.6842
  847SOL    MW4 3156   2.021   0.827   5.101  0.5014  0.2290 -0.0153
  848SOL     OW 3157   4.340   6.042   6.093  0.0505  0.1987 -0.0918
  848SOL    HW2 3158   4.246   6.033   6.075  0.2613 -1.6407 -0.4950
  848SOL    HW3 3159   4.349   6.020   6.185  0.0101  1.0782  0.1264
  848SOL    MW4 3160   4.329   6.038   6.103  0.1374 -0.6540  0.1530
  849SOL     OW 3161   6.321   5.303   5.991  0.2224 -0.1464  0.7616
  849SOL    HW2 3162   6.377   5.358   5.937  0.3155 -0.2175  0.7840
  849SOL    HW3 3163   6.343   5.328   6.081 -0.5992  0.6243  0.7492
  849SOL    MW4 3164   6.332   5.313   5.996  0.2210 -0.2431  0.1118
  850SOL     OW 3165   4.071   2.233   5.019  0.5555 -0.2393 -0.0659
  850SOL    HW2 3166   4.075   2.295   4.947 -1.7397  1.4460  1.1176
  850SOL    HW3 3167   4.045   2.150   4.978 -1.9658  0.9607 -1.1568
  850SOL    MW4 3168   4.068   2.230   5.004 -0.0585  0.5192 -0.2095
  851SOL     OW 3169   5.653   3.279   3.152  0.2602  0.3172 -0.0901
  851SOL    HW2 3170   5.712   3.295   3.079  0.0978 -1.6936 -0.7446
  851SOL    HW3 3171   5.572   3.324   3.128  0.7694  1.1461 -0.2853
  851SOL    MW4 3172   5.650   3.287   3.139 -0.2688  0.3283  0.1572
  852SOL     OW 3173   4.487   2.754   3.680  0.0828  0.1572  0.1193
  852SOL    HW2 3174   4.509   2.701   3.757  1.8403 -1.3382 -1.3183
  852SOL    HW3 3175   4.484   2.692   3.608  0.3618  1.7647 -1.3489
  852SOL    MW4 3176   4.489   2.739   3.681 -0.3838  0.6082  0.3579
  853SOL     OW 3177   4.835   5.390   3.658  0.9497  0.4857 -0.4332
  853SOL    HW2 3178   4.799   5.479   3.652 -0.4479 -0.1305 -1.8263
  853SOL    HW3 3179   4.771   5.342   3.711  1.1561  0.0652 -0.5621
  853SOL    MW4 3180   4.822   5.396   3.664 -0.2651  0.0582 -0.7413
  854SOL     OW 3181   3.839   1.792   0.558 -0.0155 -0.8227 -0.6877
  854SOL    HW2 3182   3.863   1.756   0.473 -0.8530 -1.0259 -0.8473
  854SOL    HW3 3183   3.905   1.859   0.575 -0.3924 -0.1042 -1.9517
  854SOL    MW4 3184   3.851   1.796   0.549  0.0384 -0.2223  0.1464
  855SOL     OW 3185   2.032   2.728   1.762  0.0255  0.4213 -0.0193
  855SOL    HW2 3186   1.956   2.673   1.785 -1.1137  1.8233 -0.2555
  855SOL    HW3 3187   2.108   2.673   1.781 -1.0553 -1.2808 -0.3998
  855SOL    MW4 3188   2.032   2.713   1.768  0.4079  0.2098 -0.2259
  856SOL     OW 3189   6.184   1.332   0.095 -0.1779 -0.7918  0.1239
  856SOL    HW2 3190   6.157   1.240   0.097 -0.6464 -0.6527  0.5394
  856SOL    HW3 3191   6.126   1.374   0.158  0.5462 -0.3478  0.4991
  856SOL    MW4 3192   6.173   1.325   0.103 -0.2866 -0.3180  0.1142
  857SOL     OW 3193   1.610   3.748   2.176  0.2241  0.6251 -0.1010
  857SOL    HW2 3194   1.679   3.795   2.129  0.6593 -0.0800 -0.1849
  857SOL    HW3 3195   1.564   3.699   2.108  1.6808 -1.4457  0.2949
  857SOL    MW4 3196   1.613   3.748   2.160 -0.5279 -0.3727  0.2364
  858SOL     OW 3197   5.564   1.878   5.070 -0.0546 -0.1135  0.2131
  858SOL    HW2 3198   5.566   1.907   4.979  0.0558  0.2587  0.3319
  858SOL    HW3 3199   5.516   1.795   5.068  1.0851 -0.7935 -0.3765
  858SOL    MW4 3200   5.558   1.870   5.058  0.7843 -0.0917 -0.7355
  859SOL     OW 3201   5.225   3.311   3.533 -0.0576  0.1159 -0.0949
  859SOL    HW2 3202   5.175   3.389   3.554  0.3986  1.5875 -3.6717
  859SOL    HW3 3203   5.161   3.240   3.535 -0.9284  0.9056  1.2294
  859SOL    MW4 3204   5.210   3.312   3.536 -0.4123 -0.0047 -0.1736
  860SOL     OW 3205   3.413   3.048   4.945  0.3967  0.4846 -0.5187
  860SOL    HW2 3206   3.508   3.044   4.955  0.4820 -0.5492 -1.5136
  860SOL    HW3 3207   3.379   3.037   5.034  1.1994  2.4585  0.0881
  860SOL    MW4 3208   3.421   3.046   4.958 -0.5669  0.1657  0.5200
  861SOL     OW 3209   2.790   2.388   2.358 -0.0499  0.1784 -0.6575
  861SOL    HW2 3210   2.803   2.363   2.449 -0.7409  0.4913 -0.4649
  861SOL    HW3 3211   2.879   2.397   2.322  0.2459  1.0232  0.2604
  861SOL    MW4 3212   2.804   2.386   2.365  0.0526  0.6255  0.2880
  862SOL     OW 3213   3.105   2.831   3.153 -0.3283  0.5914  0.0246
  862SOL    HW2 3214   3.186   2.841   3.103  0.8336 -1.2707  1.4142
  862SOL    HW3 3215   3.076   2.742   3.133  0.1263 -0.1872  2.5272
  862SOL    MW4 3216   3.112   2.820   3.144 -0.0603 -0.4277 -0.1727
  863SOL     OW 3217   1.474   5.155   1.554  0.2653  0.0250 -0.3229
  863SOL    HW2 3218   1.531   5.079   1.563 -0.1546 -0.3311 -0.6275
  863SOL    HW3 3219   1.438   5.148   1.465  1.8221  1.7055 -1.1633
  863SOL    MW4 3220   1.476   5.144   1.543 -0.0172 -0.1404 -0.2760
  864SOL     OW 3221   1.556   6.159   5.823 -0.1703  0.1649  0.0226
  864SOL    HW2 3222   1.642   6.152   5.864 -0.4169 -0.2300  0.4750
  864SOL    HW3 3223   1.503   6.093   5.866 -0.6001  0.1447 -0.5232
  864SOL    MW4 3224   1.561   6.149   5.834  0.0661  0.0644  0.1410
  865SOL     OW 3225   4.514   2.634   1.063 -0.5183  0.2150 -0.1631
  865SOL    HW2 3226   4.554   2.701   1.007  1.2884  0.6423  1.5005
  865SOL    HW3 3227   4.489   2.564   1.003 -0.5990  1.5221 -1.7149
  865SOL    MW4 3228   4.516   2.634   1.048  0.0176 -0.4372  0.4731
  866SOL     OW 3229   4.085   2.060   5.606  0.2532  0.5614 -0.1058
  866SOL    HW2 3230   4.013   2.087   5.662 -1.4390  0.0556 -1.9308
  866SOL    HW3 3231   4.117   2.142   5.566 -0.8766  0.5636 -1.0480
  866SOL    MW4 3232   4.080   2.075   5.608  0.2032  0.0795  0.0980
  867SOL     OW 3233   3.193   2.836   3.432  0.3135  0.5079 -0.8002
  867SOL    HW2 3234   3.245   2.917   3.436  0.9096  0.3016 -3.1463
  867SOL    HW3 3235   3.171   2.825   3.340 -3.3276  0.1360 -0.0439
  867SOL    MW4 3236   3.197   2.845   3.420  0.4778  0.2720  0.1232
  868SOL     OW 3237   1.110   4.667   4.236 -0.4883 -0.2112  0.4820
  868SOL    HW2 3238   1.124   4.628   4.322 -1.4530 -1.4913  0.1019
  868SOL    HW3 3239   1.194   4.655   4.191  1.2260  3.5567  2.2765
  868SOL    MW4 3240   1.123   4.660   4.241  0.2879 -0.5446 -0.1343
  869SOL     OW 3241   4.923   6.065   3.985  0.2762 -0.6095 -0.1907
  869SOL    HW2 3242   4.992   6.015   4.029  0.8762  0.3460 -0.0034
  869SOL    HW3 3243   4.963   6.150   3.968 -0.4256 -0.4749 -1.2879
  869SOL    MW4 3244   4.938   6.070   3.988 -0.1127  0.3130  0.4937
  870SOL     OW 3245   5.342   4.744   6.378 -0.1665  0.2948  0.2292
  870SOL    HW2 3246   5.281   4.817   6.368 -0.0811  0.3803  0.3388
  870SOL    HW3 3247   5.403   4.772   6.446  0.3745  0.4586 -0.3184
  870SOL    MW4 3248   5.342   4.757   6.386  0.5020  0.1200 -0.4639
  871SOL     OW 3249   6.391   2.229   2.575  0.0596  0.0126 -0.2823
  871SOL    HW2 3250   6.425   2.196   2.658  1.2500 -1.0742 -1.1672
  871SOL    HW3 3251   6.320   2.168   2.554  0.6523 -0.5445 -0.7117
  871SOL    MW4 3252   6.386   2.216   2.583  0.0619  0.0305  0.3226
  872SOL     OW 3253   3.935   3.174   1.287  0.0103  0.8009 -0.5379
  872SOL    HW2 3254   3.966   3.100   1.235 -0.1228 -0.0522  0.5558
  872SOL    HW3 3255   3.862   3.138   1.338  2.3627  0.4851  2.9856
  872SOL    MW4 3256   3.929   3.159   1.287  0.0815  0.6518  0.0807
  873SOL     OW 3257   3.594   5.798   3.164 -0.3116  0.1893  0.4206
  873SOL    HW2 3258   3.562   5.714   3.196  1.0244 -0.6350 -0.3108
  873SOL    HW3 3259   3.585   5.792   3.068  1.3091  0.2018  0.2469
  873SOL    MW4 3260   3.589   5.786   3.155  0.3554 -0.2523  0.3353
  874SOL     OW 3261   2.759   0.747   3.702 -0.7625  0.3493 -0.2966
  874SOL    HW2 3262   2.831   0.757   3.640  0.4672 -0.9126  0.8507
  874SOL    HW3 3263   2.722   0.834   3.711  1.4858  1.3129  0.1012
  874SOL    MW4 3264   2.764   0.760   3.695 -0.2301  0.5853 -0.4549
  875SOL     OW 3265   5.545   4.679   1.086 -0.1812 -0.8507  0.5489
  875SOL    HW2 3266   5.472   4.682   1.024  0.5374  0.1846 -0.2878
  875SOL    HW3 3267   5.587   4.594   1.068 -1.1445 -1.4556  1.0391
  875SOL    MW4 3268   5.541   4.668   1.075 -0.2219 -0.8218  0.0472
  876SOL     OW 3269   0.188   6.288   2.334  0.1096  0.2801 -0.6095
  876SOL    HW2 3270   0.150   6.204   2.308 -0.9476  0.2006  1.0501
  876SOL    HW3 3271   0.156   6.350   2.268 -0.7179 -0.2837 -0.7522
  876SOL    MW4 3272   0.178   6.285   2.322  0.4034 -0.0190  0.0406
  877SOL     OW 3273   1.084   5.795   4.359  0.2793 -0.5415 -0.3012
  877SOL    HW2 3274   1.176   5.820   4.346 -0.6165  2.0693 -2.5547
  877SOL    HW3 3275   1.039   5.828   4.282 -2.5531 -2.0946  0.5474
  877SOL    MW4 3276   1.090   5.803   4.347  0.1348 -0.3268  0.0485
  878SOL     OW 3277   0.256   0.264   1.444 -0.0531 -0.1611 -0.6172
  878SOL    HW2 3278   0.343   0.305   1.436  0.5791 -1.0175  1.1831
  878SOL    HW3 3279   0.232   0.279   1.536 -1.9296  0.2253 -1.1370
  878SOL    MW4 3280   0.265   0.271   1.455 -0.0457 -0.4623  0.0036
  879SOL     OW 3281   2.611   1.390   0.371  0.3008 -0.2043  0.3937
  879SOL    HW2 3282   2.638   1.412   0.461 -0.0457 -0.6050  0.5962
  879SOL    HW3 3283   2.553   1.462   0.345  2.2587  1.1927 -0.3978
  879SOL    MW4 3284   2.607   1.403   0.380  0.1332 -0.0001  0.0540
  880SOL     OW 3285   0.850   4.744   4.551 -0.6878 -0.2276  0.6578
  880SOL    HW2 3286   0.803   4.723   4.632 -0.6488 -0.1414  0.7018
  880SOL    HW3 3287   0.841   4.665   4.498  0.2885 -0.7281  1.2135
  880SOL    MW4 3288   0.842   4.731   4.555 -0.1274  0.2593 -0.2284
  881SOL     OW 3289   1.484   4.490   6.037  0.1657  0.3193  0.2605
  881SOL    HW2 3290   1.490   4.502   5.942 -1.1121  1.9191  0.3454
  881SOL    HW3 3291   1.533   4.564   6.074  1.4589 -0.8098  0.8715
  881SOL    MW4 3292   1.491   4.501   6.030 -0.0637  0.1803  0.0863
  882SOL     OW 3293   6.383   0.753   1.826  0.3616 -0.6521  0.1691
  882SOL    HW2 3294   6.382   0.741   1.921 -0.2475 -1.5150  0.0716
  882SOL    HW3 3295   6.290   0.750   1.801  0.5130 -0.2987 -0.4338
  882SOL    MW4 3296   6.370   0.751   1.836 -0.1507  0.2098  0.0798
  883SOL     OW 3297   4.221   3.567   1.384 -0.0890 -0.3897 -0.4408
  883SOL    HW2 3298   4.179   3.592   1.466 -1.5277  0.0930 -1.2841
  883SOL    HW3 3299   4.243   3.474   1.396  0.9681  0.0109  0.9624
  883SOL    MW4 3300   4.219   3.558   1.396  0.0886  0.0268  0.0528
  884SOL     OW 3301   2.171   3.526   5.802 -0.3084 -0.2524  0.1471
  884SOL    HW2 3302   2.087   3.480   5.794 -0.4108  0.0677 -0.7801
  884SOL    HW3 3303   2.152   3.615   5.773  0.5681 -0.4477 -1.1151
  884SOL    MW4 3304   2.157   3.531   5.797 -0.0282  0.0124 -0.2076
  885SOL     OW 3305   2.176   5.755   2.574  0.3963  0.3911 -0.0462
  885SOL    HW2 3306   2.221   5.671   2.572  1.0907  0.7356  0.5944
  885SOL    HW3 3307   2.246   5.820   2.565  0.6470  1.1092  4.6632
  885SOL    MW4 3308   2.191   5.753   2.573  0.2075 -0.4667 -0.3000
  886SOL     OW 3309   3.618   4.160   1.831 -0.3954  0.1458 -0.1778
  886SOL    HW2 3310   3.567   4.080   1.815 -0.4095 -0.1573  1.2916
  886SOL    HW3 3311   3.552   4.228   1.842 -0.3776  0.6095 -2.3786
  886SOL    MW4 3312   3.603   4.158   1.830  0.1499 -0.2350 -0.1326
  887SOL     OW 3313   2.324   2.194   1.172  0.5009  0.4986  0.4543
  887SOL    HW2 3314   2.371   2.135   1.112 -0.9464 -0.4493  0.2062
  887SOL    HW3 3315   2.241   2.150   1.189  0.2994  1.4223  2.0727
  887SOL    MW4 3316   2.319   2.180   1.166  0.5500 -0.4860 -0.0331
  888SOL     OW 3317   3.914   1.404   2.394 -0.4788 -0.1410 -0.6646
  888SOL    HW2 3318   3.926   1.311   2.372 -1.5734 -0.3586 -0.4100
  888SOL    HW3 3319   3.904   1.447   2.309 -0.2494 -0.2944 -0.7720
  888SOL    MW4 3320   3.914   1.397   2.380  0.5980 -0.4187  0.3391
  889SOL     OW 3321   2.231   2.783   5.693 -0.2170  0.2963 -0.8950
  889SOL    HW2 3322   2.180   2.859   5.719 -1.4417 -1.1477  1.2047
  889SOL    HW3 3323   2.244   2.734   5.774 -0.7120 -2.4272 -2.3432
  889SOL    MW4 3324   2.226   2.786   5.707  0.2853  0.4758  0.2506
  890SOL     OW 3325   0.182   4.854   1.436 -0.6382 -0.4528  0.3811
  890SOL    HW2 3326   0.264   4.885   1.477 -0.9768 -1.0917  1.5903
  890SOL    HW3 3327   0.113   4.888   1.493 -1.3343  1.1519 -1.3153
  890SOL    MW4 3328   0.184   4.863   1.449  0.3592  0.3086 -0.1305
  891SOL     OW 3329   0.497   0.327   0.009  0.6316 -0.4309  0.1792
  891SOL    HW2 3330   0.430   0.326   0.078  0.8995 -0.1337  0.4479
  891SOL    HW3 3331   0.452   0.294  -0.068  0.3625 -0.8965  0.5299
  891SOL    MW4 3332   0.482   0.323   0.008  0.2516 -0.1888 -0.1625
  892SOL     OW 3333   3.790   4.105   5.197  0.1943  0.1650  0.0303
  892SOL    HW2 3334   3.801   4.042   5.126 -1.4625  1.2628 -1.2714
  892SOL    HW3 3335   3.851   4.175   5.176  2.4099 -1.1083  1.7470
  892SOL    MW4 3336   3.800   4.106   5.185 -0.1832 -0.1972  0.1533
  893SOL     OW 3337   6.322   0.447   3.805 -0.8466  0.1073  0.2277
  893SOL    HW2 3338   6.349   0.356   3.821  2.2715  1.0541  0.9185
  893SOL    HW3 3339   6.290   0.477   3.890  0.0228  0.2416  0.5094
  893SOL    MW4 3340   6.321   0.439   3.818  0.4242 -0.8628 -0.0992
  894SOL     OW 3341   3.005   5.990   3.857  0.3506 -0.1180  0.4793
  894SOL    HW2 3342   3.018   5.895   3.854  0.1385 -0.1621  0.8581
  894SOL    HW3 3343   3.052   6.019   3.935 -1.5582 -0.2606  1.7509
  894SOL    MW4 3344   3.013   5.981   3.867  0.0621  0.0796 -0.0590
  895SOL     OW 3345   0.719   0.820   0.267 -0.0339 -0.2361  0.1974
  895SOL    HW2 3346   0.627   0.843   0.281  0.0403 -0.3343  0.8464
  895SOL    HW3 3347   0.717   0.731   0.233 -0.2669  0.3360 -1.3732
  895SOL    MW4 3348   0.706   0.811   0.264 -0.3337 -0.0782 -0.3814
  896SOL     OW 3349   4.232   4.548   1.166  0.0287  0.3604 -0.1769
  896SOL    HW2 3350   4.257   4.608   1.237 -0.8726 -0.2645  0.6838
  896SOL    HW3 3351   4.315   4.527   1.123  0.4731  1.4924  0.0868
  896SOL    MW4 3352   4.246   4.553   1.170  0.4434  0.3967  0.5989
  897SOL     OW 3353   0.990   2.211   5.320 -0.2010 -0.3709 -1.1615
  897SOL    HW2 3354   1.042   2.244   5.393 -0.7017 -0.8589 -0.5645
  897SOL    HW3 3355   0.960   2.289   5.275 -1.3397  0.0205  0.1988
  897SOL    MW4 3356   0.993   2.226   5.324 -0.0888  0.0080  0.2480
  898SOL     OW 3357   4.692   6.017   5.411 -0.0030  0.1019  0.7152
  898SOL    HW2 3358   4.708   6.085   5.346  0.1542 -1.9598 -1.5562
  898SOL    HW3 3359   4.759   5.951   5.394 -0.4641 -0.9069  2.4746
  898SOL    MW4 3360   4.703   6.017   5.400  0.6597 -0.2730  0.0227
  899SOL     OW 3361   3.664   4.514   5.033  0.3145  0.1763  0.1641
  899SOL    HW2 3362   3.627   4.473   5.111 -1.1234  1.3629  0.1488
  899SOL    HW3 3363   3.606   4.487   4.962  2.2365 -1.8199 -0.7759
  899SOL    MW4 3364   3.652   4.505   5.034 -0.0437  0.3560 -0.5733
  900SOL     OW 3365   3.714   2.038   2.229  0.0057  0.1179  0.4431
  900SOL    HW2 3366   3.722   2.053   2.135 -1.8645 -2.3360 -0.2362
  900SOL    HW3 3367   3.728   2.124   2.268 -1.1181  1.6654 -2.2204
  900SOL    MW4 3368   3.717   2.051   2.221 -0.2828  0.0130  0.0165
  901SOL     OW 3369   2.715   3.526   3.896  1.0366  1.1544 -0.1303
  901SOL    HW2 3370   2.735   3.484   3.812 -0.4001  0.6566 -0.2489
  901SOL    HW3 3371   2.713   3.620   3.877  1.1008  1.0682 -0.5636
  901SOL    MW4 3372   2.718   3.533   3.883 -0.1224  0.5601  0.0931
  902SOL     OW 3373   5.296   6.025   2.126  0.1157  0.3878 -0.1935
  902SOL    HW2 3374   5.302   6.084   2.051  2.4020 -0.5557 -0.8358
  902SOL    HW3 3375   5.330   5.942   2.093 -1.2747 -0.7846  1.2071
  902SOL    MW4 3376   5.301   6.022   2.112  0.0183 -0.0276  0.3168
  903SOL     OW 3377   1.261   2.555   1.824 -0.2682  0.2159 -0.3482
  903SOL    HW2 3378   1.199   2.485   1.844 -0.0212 -0.5131 -1.9784
  903SOL    HW3 3379   1.325   2.514   1.765  1.5445  1.0514  0.9281
  903SOL    MW4 3380   1.261   2.540   1.819  0.4212  0.2627  0.2513
  904SOL     OW 3381   1.735   5.280   1.128  0.1547 -0.0755  0.1795
  904SOL    HW2 3382   1.746   5.278   1.223  1.2235  0.8467  0.0936
  904SOL    HW3 3383   1.821   5.305   1.094  0.0295 -1.2336 -1.0932
  904SOL    MW4 3384   1.748   5.283   1.136  0.1366 -0.0377  0.0248
  905SOL     OW 3385   3.976   1.707   5.741  1.1743 -0.0884  0.0154
  905SOL    HW2 3386   3.939   1.693   5.829 -1.8640  0.2800 -1.0668
  905SOL    HW3 3387   4.034   1.782   5.751  1.8622 -0.7975  1.9046
  905SOL    MW4 3388   3.978   1.715   5.754  0.3074 -0.6694  0.2615
  906SOL     OW 3389   5.455   3.224   5.750  0.6840 -0.0184  0.0488
  906SOL    HW2 3390   5.487   3.139   5.721  0.0490  0.7276 -3.1844
  906SOL    HW3 3391   5.375   3.205   5.798  1.4882 -1.3281  0.9275
  906SOL    MW4 3392   5.449   3.211   5.752 -0.2713  0.5868 -0.4785
  907SOL     OW 3393   4.979   1.097   4.469  0.7493  0.1705 -0.0466
  907SOL    HW2 3394   4.885   1.109   4.453  0.6192  0.4937  0.9228
  907SOL    HW3 3395   4.998   1.155   4.542  1.9664  1.0208 -0.9953
  907SOL    MW4 3396   4.969   1.106   4.476 -0.6442  0.5402 -0.0709
  908SOL     OW 3397   2.667   1.648   5.822 -0.0051  0.2473 -0.5587
  908SOL    HW2 3398   2.654   1.601   5.905 -2.2686 -1.1098 -1.5833
  908SOL    HW3 3399   2.584   1.691   5.805  0.9847  1.9787 -1.3074
  908SOL    MW4 3400   2.655   1.647   5.831  0.2402 -0.5611 -0.8534
  909SOL     OW 3401   2.419   0.316   5.458  0.4059  0.2354 -0.0041
  909SOL    HW2 3402   2.408   0.410   5.475 -0.1798  0.2661 -0.5402
  909SOL    HW3 3403   2.514   0.304   5.452  0.4553  1.0030 -1.0649
  909SOL    MW4 3404   2.430   0.327   5.460 -0.3378  0.1548 -0.5814
  910SOL     OW 3405   1.051   5.234   5.359 -0.3035 -0.6241 -0.2265
  910SOL    HW2 3406   0.958   5.223   5.379  0.0986 -1.0401  1.5693
  910SOL    HW3 3407   1.075   5.316   5.401 -0.2478  0.5091 -2.3242
  910SOL    MW4 3408   1.042   5.243   5.367 -0.2325 -0.0593 -0.1908
  911SOL     OW 3409   6.215   0.427   1.291 -0.1257 -0.7767  0.0754
  911SOL    HW2 3410   6.199   0.453   1.200 -0.8089 -2.4532 -0.3307
  911SOL    HW3 3411   6.308   0.441   1.304 -0.1111 -0.0362 -0.7204
  911SOL    MW4 3412   6.225   0.432   1.280 -0.1979 -0.3030  0.2364
  912SOL     OW 3413   5.453   1.568   6.233 -0.8598 -0.4287 -0.0902
  912SOL    HW2 3414   5.409   1.548   6.316  0.0448 -0.3411  0.4248
  912SOL    HW3 3415   5.383   1.568   6.168 -1.7476  0.4643  0.8287
  912SOL    MW4 3416   5.438   1.566   6.236  0.3261 -0.4939 -0.3212
  913SOL     OW 3417   5.535   4.873   5.615 -0.6747  0.4993 -0.3349
  913SOL    HW2 3418   5.509   4.815   5.686 -0.1242  0.6224 -0.0315
  913SOL    HW3 3419   5.529   4.961   5.651 -2.0151  0.6886 -0.9509
  913SOL    MW4 3420   5.531   4.877   5.629  0.8569 -0.4687 -0.3210
  914SOL     OW 3421   4.888   4.878   0.277  0.5835 -0.1977  0.0379
  914SOL    HW2 3422   4.810   4.823   0.284  0.1798  0.3981  0.3081
  914SOL    HW3 3423   4.950   4.840   0.340  0.0215  0.1081  0.7976
  914SOL    MW4 3424   4.886   4.866   0.286  0.6815  0.7134  0.5750
  915SOL     OW 3425   3.571   0.990   3.505  0.3808 -0.3457  0.1966
  915SOL    HW2 3426   3.526   0.984   3.420  1.1327 -1.7185 -0.1356
  915SOL    HW3 3427   3.656   0.949   3.491  0.4839 -0.6995  1.6400
  915SOL    MW4 3428   3.576   0.984   3.492  0.1422  0.0620  0.0391
  916SOL     OW 3429   4.483   6.105   2.230 -0.0315  0.6945 -0.0612
  916SOL    HW2 3430   4.579   6.106   2.231  0.0545 -1.6021 -1.0488
  916SOL    HW3 3431   4.459   6.069   2.315  0.0732 -0.6404 -0.5837
  916SOL    MW4 3432   4.493   6.101   2.242 -0.2389 -0.8742  0.1683
  917SOL     OW 3433   1.928   1.155   1.773  0.2282  0.4263  0.4413
  917SOL    HW2 3434   1.873   1.091   1.729  0.7357  0.0451  0.3462
  917SOL    HW3 3435   1.930   1.230   1.714  1.0638 -0.1573 -0.2910
  917SOL    MW4 3436   1.921   1.156   1.760 -0.2007 -0.2745  0.3228
  918SOL     OW 3437   1.113   5.666   3.490  0.6068  0.3431 -0.4189
  918SOL    HW2 3438   1.167   5.675   3.412  1.8544  0.3904  0.4246
  918SOL    HW3 3439   1.137   5.740   3.545  1.5871 -1.0273  1.0732
  918SOL    MW4 3440   1.123   5.677   3.487  0.2527 -0.4539  0.2201
  919SOL     OW 3441   2.157   5.213   3.325 -0.1272  0.0725 -0.3713
  919SOL    HW2 3442   2.213   5.144   3.361 -1.3028 -0.3710  0.6561
  919SOL    HW3 3443   2.069   5.192   3.357 -0.9418  0.6079 -2.1609
  919SOL    MW4 3444   2.153   5.201   3.334 -0.0130  0.5420 -0.1054
  920SOL     OW 3445   3.448   3.396   1.165  0.0283  0.1958  0.2404
  920SOL    HW2 3446   3.455   3.481   1.122  0.2609  0.1374  0.1646
  920SOL    HW3 3447   3.532   3.383   1.209 -0.8898  1.1727  2.4279
  920SOL    MW4 3448   3.460   3.405   1.165 -0.0022  0.0502  0.0223
  921SOL     OW 3449   2.170   2.662   3.819 -0.3799 -0.5419 -0.2496
  921SOL    HW2 3450   2.230   2.603   3.774 -0.1053  0.3441 -1.0836
  921SOL    HW3 3451   2.174   2.744   3.769 -0.4452  0.3262  1.1003
  921SOL    MW4 3452   2.178   2.665   3.807 -0.4338  0.2282 -0.1722
  922SOL     OW 3453   0.672   0.163   3.444  0.3507  0.2617 -0.5167
  922SOL    HW2 3454   0.597   0.216   3.469 -1.8072 -2.9808  0.6036
  922SOL    HW3 3455   0.685   0.104   3.519  1.3209 -2.0263 -2.3692
  922SOL    MW4 3456   0.664   0.162   3.457  0.9189 -0.3752 -0.1126
  923SOL     OW 3457   0.122   1.290   4.919 -0.6243  0.2287 -0.3150
  923SOL    HW2 3458   0.183   1.226   4.881 -3.0622 -0.9756 -2.4432
  923SOL    HW3 3459   0.054   1.236   4.960 -0.6389  1.5482  1.5434
  923SOL    MW4 3460   0.121   1.274   4.920 -0.0425  0.3266 -0.0197
  924SOL     OW 3461   3.659   1.328   2.175  0.3493  0.6955  0.0449
  924SOL    HW2 3462   3.577   1.366   2.206 -0.9249 -1.2410 -0.8200
  924SOL    HW3 3463   3.633   1.260   2.113  2.4534 -1.8486  1.7261
  924SOL    MW4 3464   3.645   1.324   2.171  0.1040 -0.1827 -0.4973
  925SOL     OW 3465   1.239   2.472   0.217 -0.2252 -0.4284 -0.2621
  925SOL    HW2 3466   1.195   2.439   0.138 -0.8975 -0.5304  0.1545
  925SOL    HW3 3467   1.294   2.399   0.245 -0.2171 -0.5003 -0.4589
  925SOL    MW4 3468   1.241   2.458   0.210  0.2694 -0.1939  0.3644
  926SOL     OW 3469   3.642   2.387   0.498 -0.0628  0.4147  0.2124
  926SOL    HW2 3470   3.682   2.472   0.516 -1.2839  0.7523  1.4873
  926SOL    HW3 3471   3.712   2.324   0.516  0.3342  1.0583  1.0233
  926SOL    MW4 3472   3.656   2.390   0.503 -0.0454  0.2274 -0.0008
  927SOL     OW 3473   5.277   5.189   0.681  0.6736 -0.1508  0.0439
  927SOL    HW2 3474   5.352   5.147   0.722 -0.0480 -1.8998 -0.3744
  927SOL    HW3 3475   5.268   5.146   0.596 -0.7915  0.0194  0.0806
  927SOL    MW4 3476   5.286   5.178   0.676 -0.3531  0.9727  0.5285
  928SOL     OW 3477   2.596   2.260   2.169 -0.6197  0.3055 -0.0084
  928SOL    HW2 3478   2.631   2.325   2.229 -0.9999  0.4579  0.0528
  928SOL    HW3 3479   2.663   2.250   2.102  0.1042 -0.3548  0.7948
  928SOL    MW4 3480   2.609   2.267   2.168  0.0568  0.3881  0.1267
  929SOL     OW 3481   0.985   1.068   2.660  0.3174  0.2013  0.2908
  929SOL    HW2 3482   1.049   0.999   2.678 -1.1800 -0.9362  1.5353
  929SOL    HW3 3483   0.992   1.082   2.565  0.8201 -1.5367  0.0271
  929SOL    MW4 3484   0.994   1.060   2.650  0.4492 -0.3600 -0.5199
  930SOL     OW 3485   5.956   0.980   1.291 -0.3745  0.4548  0.8535
  930SOL    HW2 3486   5.980   0.927   1.215  2.0719 -0.6097  2.2758
  930SOL    HW3 3487   5.873   1.021   1.265 -0.9109 -1.7655 -1.4249
  930SOL    MW4 3488   5.948   0.978   1.278 -0.2248 -0.0528 -0.6333
  931SOL     OW 3489   6.099   3.566   2.940 -0.0201  0.3858  0.1507
  931SOL    HW2 3490   6.059   3.618   3.010 -0.2334  1.2113 -0.5741
  931SOL    HW3 3491   6.027   3.543   2.882 -0.0121 -1.1389  0.6870
  931SOL    MW4 3492   6.084   3.569   2.942  0.0515  0.6731 -0.1125
  932SOL     OW 3493   2.931   2.109   5.039 -0.4164  0.3677  0.0969
  932SOL    HW2 3494   2.954   2.032   4.987 -1.2969  0.3124 -0.2174
  932SOL    HW3 3495   2.836   2.115   5.034 -0.4190  1.0614  0.7171
  932SOL    MW4 3496   2.922   2.100   5.032  0.0780 -0.0855 -0.3465
  933SOL     OW 3497   2.820   2.293   2.016 -0.3499 -0.3213  0.7236
  933SOL    HW2 3498   2.882   2.224   2.038 -1.5003 -0.8593  2.5208
  933SOL    HW3 3499   2.821   2.298   1.920  1.0222 -1.6232  0.6518
  933SOL    MW4 3500   2.828   2.285   2.006  0.1956  0.9778  0.9771
  934SOL     OW 3501   1.432   1.710   0.049  0.5871 -0.2243 -0.1973
  934SOL    HW2 3502   1.350   1.756   0.065  0.9712 -0.0264  1.4071
  934SOL    HW3 3503   1.438   1.702  -0.046 -0.8039  0.6213 -0.3716
  934SOL    MW4 3504   1.422   1.715   0.039  0.0486 -0.4930  0.1099
  935SOL     OW 3505   3.998   1.136   2.320  0.2907 -0.8956  0.0768
  935SOL    HW2 3506   3.925   1.087   2.281 -0.9238  1.1059 -0.2982
  935SOL    HW3 3507   4.033   1.188   2.247  1.3529 -0.9507  0.5309
  935SOL    MW4 3508   3.993   1.136   2.305  0.0861  0.1328 -0.1031
  936SOL     OW 3509   1.146   3.889   1.213 -0.2120 -0.0812  0.5157
  936SOL    HW2 3510   1.138   3.899   1.118  0.3535 -0.3460  0.4366
  936SOL    HW3 3511   1.224   3.939   1.236 -1.6080  1.9098  1.1787
  936SOL    MW4 3512   1.156   3.897   1.204  0.3702  0.1007  0.1704
  937SOL     OW 3513   0.388   4.074   4.865  0.2396 -0.1292 -0.3583
  937SOL    HW2 3514   0.317   4.131   4.834  1.0241  0.3829 -1.2481
  937SOL    HW3 3515   0.402   4.100   4.956 -1.2504 -0.7968  0.0992
  937SOL    MW4 3516   0.380   4.085   4.873 -0.0007  0.1058 -0.3535
  938SOL     OW 3517   2.074   0.659   0.747 -0.2324  0.3977 -0.3048
  938SOL    HW2 3518   2.088   0.703   0.663  0.8780  0.6219 -0.0156
  938SOL    HW3 3519   2.150   0.600   0.757 -1.5960 -1.5272 -0.6199
  938SOL    MW4 3520   2.086   0.657   0.737 -0.0761  0.1869  0.5934
  939SOL     OW 3521   3.945   4.119   4.366 -0.1902 -0.1211 -0.1452
  939SOL    HW2 3522   3.869   4.112   4.423  0.2035 -0.1739  0.3805
  939SOL    HW3 3523   3.967   4.028   4.345 -0.8999 -0.0739 -1.1535
  939SOL    MW4 3524   3.938   4.106   4.371  0.4271 -0.7299 -0.3836
  940SOL     OW 3525   5.584   1.431   2.667  0.0080 -0.3514  0.0983
  940SOL    HW2 3526   5.561   1.470   2.751 -1.5313 -0.5491 -0.2132
  940SOL    HW3 3527   5.651   1.365   2.689 -1.1381 -1.1494  1.3298
  940SOL    MW4 3528   5.590   1.427   2.681  0.5188  0.2496 -0.5897
  941SOL     OW 3529   3.471   3.131   2.737 -0.0872  0.1072  0.2486
  941SOL    HW2 3530   3.512   3.070   2.798 -0.3069  0.7026  0.9945
  941SOL    HW3 3531   3.540   3.196   2.719 -0.4829  0.7642  1.0288
  941SOL    MW4 3532   3.486   3.132   2.742  0.0536 -0.0551 -0.4700
  942SOL     OW 3533   0.608   2.236   5.317 -0.3845 -0.5639  0.6204
  942SOL    HW2 3534   0.517   2.219   5.343  0.3636 -0.5220  3.5633
  942SOL    HW3 3535   0.655   2.156   5.342  0.7736  0.3238  1.3526
  942SOL    MW4 3536   0.602   2.223   5.324  0.3639 -0.8217  0.2321
  943SOL     OW 3537   2.517   0.283   1.609  0.0041  0.5139 -0.4734
  943SOL    HW2 3538   2.587   0.267   1.545 -0.2794 -2.5656 -0.1620
  943SOL    HW3 3539   2.449   0.221   1.587 -1.3159  1.2852  1.1684
  943SOL    MW4 3540   2.517   0.273   1.598  0.0685  0.6883  0.4259
  944SOL     OW 3541   5.078   2.824   3.276 -0.4832  0.0506  0.3652
  944SOL    HW2 3542   5.084   2.748   3.218 -2.0126 -0.8324  1.2976
  944SOL    HW3 3543   5.029   2.889   3.226 -1.6613 -0.6475  0.5829
  944SOL    MW4 3544   5.072   2.822   3.262 -0.4544  0.2112  0.3007
  945SOL     OW 3545   5.077   0.174   6.180 -0.3859  0.0563  0.7354
  945SOL    HW2 3546   5.019   0.138   6.113  0.7475 -0.6356  0.0758
  945SOL    HW3 3547   5.161   0.185   6.134 -0.0951  1.4116  1.5355
  945SOL    MW4 3548   5.081   0.171   6.165  0.2464 -0.0419  0.1302
  946SOL     OW 3549   1.499   4.053   2.244  0.5265  0.2079 -0.1482
  946SOL    HW2 3550   1.561   4.082   2.311  1.6779 -0.4488 -0.9041
  946SOL    HW3 3551   1.551   4.043   2.165 -0.4026 -1.0414 -0.6440
  946SOL    MW4 3552   1.514   4.056   2.242 -0.6171 -0.2694 -0.1310
  947SOL     OW 3553   5.227   1.967   4.133  0.2577  0.1589 -0.3152
  947SOL    HW2 3554   5.246   2.061   4.138 -1.2509  0.4814 -0.4099
  947SOL    HW3 3555   5.195   1.944   4.220 -1.4231  0.2184 -0.8862
  947SOL    MW4 3556   5.226   1.976   4.145 -0.2576 -0.1754  0.1029
  948SOL     OW 3557   4.798   5.060   4.003  0.6549 -0.4943  0.7977
  948SOL    HW2 3558   4.747   5.003   3.946  0.4854 -0.0249  0.4690
  948SOL    HW3 3559   4.812   5.009   4.082 -1.8207 -0.0422  1.6366
  948SOL    MW4 3560   4.793   5.046   4.006  1.0690  0.2798 -0.5629
  949SOL     OW 3561   1.583   4.933   1.345  0.1382 -0.6028  0.3765
  949SOL    HW2 3562   1.628   4.987   1.410 -1.1071  0.6684  0.2061
  949SOL    HW3 3563   1.637   4.941   1.266  0.3135 -0.1571  0.5406
  949SOL    MW4 3564   1.596   4.941   1.343 -0.8592  0.8181 -0.7956
  950SOL     OW 3565   4.548   3.643   1.468  0.1658 -0.1687 -0.0554
  950SOL    HW2 3566   4.458   3.631   1.496  0.4050 -1.1636  0.3041
  950SOL    HW3 3567   4.542   3.654   1.373 -0.2792 -0.7942 -0.1022
  950SOL    MW4 3568   4.535   3.643   1.459 -0.1017  0.3555 -0.0091
  951SOL     OW 3569   2.979   3.513   2.378 -0.2614  0.1762  0.4146
  951SOL    HW2 3570   3.042   3.492   2.446 -1.2403 -0.2531  1.2018
  951SOL    HW3 3571   2.908   3.450   2.389  0.0618 -0.6630 -1.7174
  951SOL    MW4 3572   2.978   3.502   2.388 -0.3218  0.1388  0.7833
  952SOL     OW 3573   1.073   4.163   2.102 -0.0177 -0.0542 -0.0225
  952SOL    HW2 3574   1.144   4.196   2.047 -0.9847  1.6384 -0.3291
  952SOL    HW3 3575   1.015   4.117   2.041  0.8687 -1.6117  0.2596
  952SOL    MW4 3576   1.074   4.162   2.087 -0.8874  0.5099 -0.3443
  953SOL     OW 3577   3.884   0.202   1.375 -0.3954  0.2060  0.5252
  953SOL    HW2 3578   3.927   0.233   1.295 -0.5125  2.0536  1.1234
  953SOL    HW3 3579   3.823   0.135   1.346 -1.1276  1.5093 -1.0879
  953SOL    MW4 3580   3.882   0.197   1.361 -0.1377  0.5929  0.3933
  954SOL     OW 3581   6.205   0.994   5.929 -0.1069  0.2890 -0.0137
  954SOL    HW2 3582   6.287   0.960   5.894 -0.9555 -0.4903 -1.3185
  954SOL    HW3 3583   6.218   1.088   5.932  0.6484  0.2241 -0.7103
  954SOL    MW4 3584   6.218   1.002   5.925  0.5041  0.0931 -0.2403
  955SOL     OW 3585   1.710   3.245   4.887 -0.5035  0.8547 -0.3684
  955SOL    HW2 3586   1.716   3.310   4.957  0.9666 -0.4861  0.8301
  955SOL    HW3 3587   1.654   3.176   4.922  2.3474 -1.1056  0.6954
  955SOL    MW4 3588   1.703   3.244   4.900  0.0764 -0.2166 -0.0383
  956SOL     OW 3589   3.556   1.029   0.094  0.0491 -0.3162 -0.2260
  956SOL    HW2 3590   3.641   1.061   0.125  1.1123 -2.0310 -1.2116
  956SOL    HW3 3591   3.504   1.108   0.080  1.8400  0.8456 -0.6019
  956SOL    MW4 3592   3.560   1.044   0.096  0.1841  0.7635 -0.2685
  957SOL     OW 3593   4.856   5.218   4.948 -0.3188  0.7465 -0.1254
  957SOL    HW2 3594   4.818   5.260   5.025 -1.2758 -1.4027  0.6327
  957SOL    HW3 3595   4.780   5.190   4.896  0.2763 -0.3885 -0.4011
  957SOL    MW4 3596   4.841   5.220   4.951 -0.7840 -0.7837  0.2321
  958SOL     OW 3597   2.454   4.805   4.954  0.0180 -0.1847  0.1647
  958SOL    HW2 3598   2.526   4.868   4.952  0.2156 -0.4174 -0.7862
  958SOL    HW3 3599   2.390   4.841   4.892 -0.6696 -0.0108  0.9575
  958SOL    MW4 3600   2.455   4.818   4.945  0.0215  0.1304 -0.3074
  959SOL     OW 3601   1.712   1.316   4.353  0.2470 -0.3873 -0.2265
  959SOL    HW2 3602   1.747   1.238   4.397  1.0454  0.2359  0.2901
  959SOL    HW3 3603   1.785   1.378   4.355 -0.1877  0.1641 -1.1577
  959SOL    MW4 3604   1.727   1.314   4.359 -0.2153  0.6214  0.2988
  960SOL     OW 3605   3.478   3.442   2.605 -0.3913 -0.5672 -0.0577
  960SOL    HW2 3606   3.462   3.495   2.683 -0.7073 -0.9497  0.1424
  960SOL    HW3 3607   3.395   3.397   2.589 -1.3452  1.8004 -2.4128
  960SOL    MW4 3608   3.465   3.443   2.614 -0.3063  0.0862 -0.1167
  961SOL     OW 3609   4.857   1.284   4.127 -0.0583  0.4711  0.6754
  961SOL    HW2 3610   4.830   1.216   4.189  1.4798 -0.6437  0.2056
  961SOL    HW3 3611   4.849   1.366   4.176 -1.3742 -0.0926  1.4614
  961SOL    MW4 3612   4.852   1.286   4.142 -0.2232  0.1696  0.0470
  962SOL     OW 3613   5.331   2.936   3.822 -0.0080 -0.0910 -0.1472
  962SOL    HW2 3614   5.346   2.970   3.734  0.4856  0.5558  0.1741
  962SOL    HW3 3615   5.409   2.885   3.841  0.9105  1.5648  0.7328
  962SOL    MW4 3616   5.343   2.934   3.813 -1.0860 -0.0378 -0.2722
  963SOL     OW 3617   5.298   5.620   5.718 -0.4442  0.2821 -0.4130
  963SOL    HW2 3618   5.223   5.665   5.756 -0.2760 -0.5364  0.9837
  963SOL    HW3 3619   5.286   5.528   5.743  0.2576 -0.1132 -1.4492
  963SOL    MW4 3620   5.287   5.614   5.726  0.4831 -0.1079 -0.1807
  964SOL     OW 3621   4.358   0.518   4.856 -0.5156 -0.4800 -0.5437
  964SOL    HW2 3622   4.343   0.519   4.761 -1.2671 -0.4602 -0.4353
  964SOL    HW3 3623   4.274   0.490   4.893  0.1641 -1.8051  0.0597
  964SOL    MW4 3624   4.345   0.515   4.848  0.0862  0.3263  0.8593
  965SOL     OW 3625   2.788   0.219   5.206 -0.2932  0.1204  0.2873
  965SOL    HW2 3626   2.739   0.137   5.207  0.0014 -0.0933 -1.1218
  965SOL    HW3 3627   2.743   0.274   5.270 -1.9214 -0.3277 -0.4236
  965SOL    MW4 3628   2.775   0.215   5.215 -0.5064 -0.1952  0.0167
  966SOL     OW 3629   0.577   5.087   4.232 -0.0472 -0.3817  0.9313
  966SOL    HW2 3630   0.550   5.029   4.161  1.2381  0.4853 -0.3247
  966SOL    HW3 3631   0.518   5.162   4.226 -0.3817 -0.6179  1.2327
  966SOL    MW4 3632   0.566   5.089   4.222  0.4216  0.3677  0.6067
  967SOL     OW 3633   0.414   2.875   2.197 -0.5480 -0.0128 -0.5108
  967SOL    HW2 3634   0.401   2.868   2.292  0.5215 -1.2623 -0.4281
  967SOL    HW3 3635   0.328   2.902   2.164 -1.2623 -0.6857  0.6986
  967SOL    MW4 3636   0.401   2.878   2.205  0.3875 -0.4165 -0.3592
  968SOL     OW 3637   2.433   4.200   4.232 -0.5338 -0.2176  0.0129
  968SOL    HW2 3638   2.391   4.122   4.269 -0.0021 -1.3138 -1.5563
  968SOL    HW3 3639   2.411   4.196   4.139  0.5098  0.8689 -0.2970
  968SOL    MW4 3640   2.424   4.189   4.224  0.1632 -0.1072 -0.0057
  969SOL     OW 3641   4.480   5.080   4.095  0.0210  0.1372  0.0509
  969SOL    HW2 3642   4.575   5.064   4.092  0.3910  2.1687 -0.5457
  969SOL    HW3 3643   4.443   5.015   4.036  1.2964  0.7052 -1.4534
  969SOL    MW4 3644   4.488   5.069   4.087 -0.5199  0.8463 -0.0316
  970SOL     OW 3645   5.516   2.901   0.353  0.1326 -0.3529 -0.0327
  970SOL    HW2 3646   5.521   2.818   0.400  1.8559 -0.9471 -1.1446
  970SOL    HW3 3647   5.427   2.905   0.319 -0.1037 -1.5365  0.4183
  970SOL    MW4 3648   5.505   2.891   0.355 -0.1374 -0.3055 -0.7507
  971SOL     OW 3649   1.644   4.425   1.856  0.2145  0.8978 -0.2982
  971SOL    HW2 3650   1.602   4.460   1.777  0.0046  1.8964  0.2356
  971SOL    HW3 3651   1.730   4.467   1.858  1.0305 -0.6442 -1.0382
  971SOL    MW4 3652   1.650   4.435   1.846  0.6129  0.1493  0.5207
  972SOL     OW 3653   1.004   4.828   3.532  0.2036  0.3654  0.5299
  972SOL    HW2 3654   1.091   4.789   3.543  0.2751  0.6528  1.0356
  972SOL    HW3 3655   0.982   4.813   3.440 -0.4611 -2.3182  1.0218
  972SOL    MW4 3656   1.013   4.821   3.522  0.6961  0.1277  0.1426
  973SOL     OW 3657   3.632   4.881   0.287  0.2723  0.4488 -0.3654
  973SOL    HW2 3658   3.691   4.827   0.340 -0.3396  1.5475  1.5276
  973SOL    HW3 3659   3.685   4.908   0.212  1.2885 -0.8867 -0.1667
  973SOL    MW4 3660   3.647   4.877   0.284 -0.4856  0.1305  0.5110
  974SOL     OW 3661   5.587   5.863   5.519  0.2240  0.1563  0.3678
  974SOL    HW2 3662   5.678   5.833   5.516 -0.1249 -0.8680 -1.0287
  974SOL    HW3 3663   5.537   5.790   5.484 -1.1493  0.7454  1.0228
  974SOL    MW4 3664   5.592   5.850   5.514  0.0296  0.1254 -0.2013
  975SOL     OW 3665   5.800   0.238   5.872 -0.4423  0.3726  0.2250
  975SOL    HW2 3666   5.868   0.259   5.936 -1.3634  0.1482  1.2930
  975SOL    HW3 3667   5.728   0.298   5.893 -0.4918  0.8089 -1.0751
  975SOL    MW4 3668   5.800   0.249   5.883  0.0223 -0.4225  0.3585
  976SOL     OW 3669   0.902   4.116   1.576 -0.3749 -0.0644 -0.2646
  976SOL    HW2 3670   0.971   4.161   1.625 -0.0091  0.3341 -1.1374
  976SOL    HW3 3671   0.834   4.183   1.564 -0.2039  0.0109 -0.8167
  976SOL    MW4 3672   0.902   4.131   1.581 -0.2069  0.1836  0.3530
  977SOL     OW 3673   2.327   4.053   0.871 -0.6315 -0.4491  0.3265
  977SOL    HW2 3674   2.267   4.013   0.807 -1.3967 -0.0219  0.7552
  977SOL    HW3 3675   2.295   4.022   0.956 -0.6189  0.2729  0.5991
  977SOL    MW4 3676   2.315   4.043   0.874  0.0127  0.3107 -0.3217
  978SOL     OW 3677   3.069   5.602   0.331  0.0906  0.5197  0.2016
  978SOL    HW2 3678   3.117   5.628   0.252 -0.7775 -0.5416 -0.7261
  978SOL    HW3 3679   3.137   5.592   0.398  0.9836  0.5508 -0.6610
  978SOL    MW4 3680   3.085   5.604   0.329 -0.1414  0.1111  0.1327
  979SOL     OW 3681   3.568   1.035   5.571  0.0194 -0.0843 -0.0828
  979SOL    HW2 3682   3.606   0.988   5.497 -0.0353 -0.8353  0.3526
  979SOL    HW3 3683   3.601   0.989   5.648 -1.0433 -0.1986  0.3232
  979SOL    MW4 3684   3.577   1.023   5.572 -0.5137  0.2700  0.1861
  980SOL     OW 3685   2.055   3.935   2.013 -0.2711  0.1252 -0.7129
  980SOL    HW2 3686   2.116   3.971   2.077  2.7665 -0.3264 -3.0785
  980SOL    HW3 3687   2.074   3.984   1.933 -0.1858 -2.6353 -2.5277
  980SOL    MW4 3688   2.066   3.946   2.011  0.5685  0.4872 -0.3991
  981SOL     OW 3689   5.233   5.217   3.075  0.0978  0.0709 -0.0502
  981SOL    HW2 3690   5.286   5.141   3.098 -0.1741 -0.5236 -1.3535
  981SOL    HW3 3691   5.143   5.185   3.072 -0.2071  0.7745  0.7787
  981SOL    MW4 3692   5.228   5.203   3.078 -0.4397  0.5716  0.3217
  982SOL     OW 3693   2.599   0.741   5.317 -0.2455 -0.0905  0.0453
  982SOL    HW2 3694   2.527   0.727   5.255 -0.7221  0.8108  0.3785
  982SOL    HW3 3695   2.564   0.713   5.401  0.4276 -1.3876 -0.0812
  982SOL    MW4 3696   2.585   0.735   5.320  0.3360  0.2085 -0.0251
  983SOL     OW 3697   3.359   4.417   1.186 -0.4124  0.0608 -0.3232
  983SOL    HW2 3698   3.343   4.329   1.153  0.3632 -0.5642  0.8981
  983SOL    HW3 3699   3.297   4.428   1.257  1.1568 -0.5257  1.2236
  983SOL    MW4 3700   3.349   4.407   1.191 -0.6781  0.6234 -0.0019
  984SOL     OW 3701   1.677   1.241   4.707 -0.5324  0.8546 -0.4593
  984SOL    HW2 3702   1.727   1.198   4.637 -1.0433  0.3791 -0.5395
  984SOL    HW3 3703   1.641   1.320   4.665 -0.7400  0.6326 -0.7022
  984SOL    MW4 3704   1.679   1.246   4.692 -0.0727  0.5003 -0.0228
  985SOL     OW 3705   4.906   3.580   6.100 -0.5445 -0.4507  0.0195
  985SOL    HW2 3706   4.833   3.560   6.041 -2.7416 -1.6317  2.9010
  985SOL    HW3 3707   4.970   3.511   6.084 -2.0945 -2.0468  0.4927
  985SOL    MW4 3708   4.905   3.569   6.090  0.8104  0.1855 -0.4703
  986SOL     OW 3709   3.654   5.402   6.023  0.0218  0.2591 -0.2859
  986SOL    HW2 3710   3.732   5.412   6.077 -0.6909  0.4199  0.7564
  986SOL    HW3 3711   3.624   5.312   6.040  0.6638 -0.2251 -1.6444
  986SOL    MW4 3712   3.660   5.392   6.033 -0.4355  0.2082  0.4341
  987SOL     OW 3713   3.296   5.016   0.653 -0.3190 -0.1571  0.3214
  987SOL    HW2 3714   3.288   4.979   0.741  1.1005  0.6287  0.8062
  987SOL    HW3 3715   3.242   4.959   0.598  1.5347 -2.8139  1.0571
  987SOL    MW4 3716   3.288   5.004   0.657  0.6263 -0.9266 -0.0807
  988SOL     OW 3717   0.547   1.957   2.771  0.2281  0.5187 -0.0526
  988SOL    HW2 3718   0.570   2.048   2.755  2.4506  0.0299  0.1337
  988SOL    HW3 3719   0.465   1.962   2.821  0.2913  2.3807 -0.0634
  988SOL    MW4 3720   0.539   1.969   2.775 -0.1356 -0.2004 -0.3158
  989SOL     OW 3721   2.228   1.870   0.046  0.2469 -0.3475 -0.4709
  989SOL    HW2 3722   2.278   1.793   0.020  3.0070  1.0839  0.2025
  989SOL    HW3 3723   2.235   1.929  -0.029 -1.8023 -0.6559 -0.9660
  989SOL    MW4 3724   2.236   1.868   0.033 -0.4114  0.7471 -0.2419
  990SOL     OW 3725   2.391   0.933   6.366 -0.7337  0.7288  0.0582
  990SOL    HW2 3726   2.412   0.842   6.344 -1.3919  0.0809  1.8847
  990SOL    HW3 3727   2.392   0.979   6.282 -1.0764 -1.1017 -1.0139
  990SOL    MW4 3728   2.394   0.927   6.352  0.2986 -0.2027 -0.0344
  991SOL     OW 3729   5.790   3.679   5.643  0.0273  0.2867 -0.0364
  991SOL    HW2 3730   5.716   3.623   5.668  0.6350 -0.2583  0.6248
  991SOL    HW3 3731   5.838   3.627   5.579 -0.4731  0.8821 -0.9009
  991SOL    MW4 3732   5.787   3.665   5.638  0.0776  0.1726 -0.1899
  992SOL     OW 3733   2.728   3.204   5.570  0.2518  0.0173  0.0518
  992SOL    HW2 3734   2.792   3.136   5.590  0.9607  0.8780  0.7557
  992SOL    HW3 3735   2.707   3.191   5.477  0.7441 -0.8405  0.0537
  992SOL    MW4 3736   2.734   3.193   5.561 -0.2888 -0.0186 -0.2585
  993SOL     OW 3737   0.059   2.205   6.386 -0.7107 -0.2057 -0.1080
  993SOL    HW2 3738   0.017   2.185   6.302 -0.5568 -0.3450 -0.1538
  993SOL    HW3 3739   0.048   2.299   6.398 -2.7382 -0.5135  0.8038
  993SOL    MW4 3740   0.052   2.215   6.377 -0.1994  0.5484 -0.0476
  994SOL     OW 3741   1.943   5.588   5.241 -0.1103  0.5146  0.0604
  994SOL    HW2 3742   2.005   5.640   5.190  1.5509  0.1427  1.5698
  994SOL    HW3 3743   1.947   5.501   5.201 -1.6945  1.1169 -1.4806
  994SOL    MW4 3744   1.952   5.583   5.229 -0.2006  0.2859  0.0306
  995SOL     OW 3745   1.666   2.421   1.309 -0.0382  0.2949  0.3046
  995SOL    HW2 3746   1.662   2.465   1.393  1.3250 -0.2491  0.6757
  995SOL    HW3 3747   1.636   2.486   1.246 -2.6701  0.2221  1.3278
  995SOL    MW4 3748   1.661   2.435   1.312 -0.0458  0.5592  0.1400
  996SOL     OW 3749   0.496   1.653   0.041  0.0608  0.2558 -0.6096
  996SOL    HW2 3750   0.461   1.588  -0.021  0.7212  0.0858 -0.8071
  996SOL    HW3 3751   0.583   1.674   0.007  1.6090 -1.8542  1.7185
  996SOL    MW4 3752   0.503   1.647   0.028  0.0496 -0.4692  0.4150
  997SOL     OW 3753   3.818   0.853   6.371  0.5671 -0.4673 -0.1648
  997SOL    HW2 3754   3.881   0.923   6.352 -0.7089  0.6908 -0.3465
  997SOL    HW3 3755   3.803   0.859   6.465  0.9024 -0.8943 -0.0838
  997SOL    MW4 3756   3.824   0.863   6.381 -0.0254 -0.0475  0.2245
  998SOL     OW 3757   4.873   0.210   5.218 -0.1351  0.1152  0.4986
  998SOL    HW2 3758   4.919   0.291   5.241  0.0449  0.5695 -1.2806
  998SOL    HW3 3759   4.850   0.222   5.126 -1.1111 -1.4042  0.5174
  998SOL    MW4 3760   4.876   0.222   5.209 -0.6531 -0.2520  0.2405
  999SOL     OW 3761   5.886   2.657   1.023  0.2727  0.2025  0.8238
  999SOL    HW2 3762   5.793   2.636   1.011  0.3058 -0.4155  1.5359
  999SOL    HW3 3763   5.887   2.734   1.079  0.1856  0.5561  0.3436
  999SOL    MW4 3764   5.874   2.664   1.029 -0.5132  0.2043  0.3907
 1000SOL     OW 3765   5.103   4.236   0.694  0.5420  0.1116 -0.1887
 1000SOL    HW2 3766   5.094   4.263   0.785 -0.0148  0.9922 -0.4918
 1000SOL    HW3 3767   5.021   4.192   0.673  1.2759 -1.5095  0.1748
 1000SOL    MW4 3768   5.091   4.234   0.703 -0.4243  0.1094  0.2816
 1001SOL     OW 3769   3.433   6.234   2.782  0.0992  0.6246  0.0827
 1001SOL    HW2 3770   3.509   6.204   2.832  0.0167  1.1650  0.5408
 1001SOL    HW3 3771   3.404   6.313   2.827 -0.7818  0.3861 -0.0435
 1001SOL    MW4 3772   3.440   6.240   2.794  0.1014  0.1781  0.4572
 1002SOL     OW 3773   0.065   1.316   2.714  0.8923 -0.2897 -0.2950
 1002SOL    HW2 3774   0.009   1.375   2.664  0.0329  0.0806  1.0504
 1002SOL    HW3 3775   0.011   1.238   2.730 -0.8369  1.4987  4.1942
 1002SOL    MW4 3776   0.051   1.313   2.710 -0.5132  0.1039 -0.0317
 1003SOL     OW 3777   1.531   4.401   1.571  0.6827  0.0770  0.7206
 1003SOL    HW2 3778   1.626   4.406   1.560  0.5484 -0.7377 -1.1022
 1003SOL    HW3 3779   1.508   4.313   1.541 -0.8086  0.7609 -0.2764
 1003SOL    MW4 3780   1.540   4.390   1.566  0.6221 -0.6688  0.7360
 1004SOL     OW 3781   0.382   5.407   5.570 -0.2036 -0.3988 -0.2097
 1004SOL    HW2 3782   0.424   5.333   5.527 -0.3744 -0.4641 -0.2626
 1004SOL    HW3 3783   0.363   5.377   5.659 -0.1349 -0.3672 -0.1843
 1004SOL    MW4 3784   0.385   5.394   5.576 -0.2598 -0.1437 -0.8324
 1005SOL     OW 3785   1.307   0.389   3.118 -0.4348 -0.1721 -0.0609
 1005SOL    HW2 3786   1.402   0.377   3.127 -0.0943  2.4892  0.8563
 1005SOL    HW3 3787   1.297   0.431   3.032 -1.0172 -1.9255 -0.9022
 1005SOL    MW4 3788   1.318   0.393   3.108  0.2991 -0.0808 -0.2738
 1006SOL     OW 3789   0.578   4.366   5.756  0.6862 -0.3756 -0.3399
 1006SOL    HW2 3790   0.619   4.399   5.835 -1.4492  3.1425 -0.4634
 1006SOL    HW3 3791   0.494   4.331   5.786  0.7247 -0.9103 -0.8439
 1006SOL    MW4 3792   0.572   4.365   5.770  0.5345 -0.1257  0.1688
 1007SOL     OW 3793   0.377   4.347   0.948 -0.0002 -0.0678 -0.0605
 1007SOL    HW2 3794   0.344   4.413   1.008  0.1978 -1.4517  1.6378
 1007SOL    HW3 3795   0.300   4.322   0.896 -0.5519  0.0440  0.6909
 1007SOL    MW4 3796   0.362   4.352   0.949  0.0197 -0.2963 -0.2931
 1008SOL     OW 3797   2.451   2.888   0.083  0.3476  0.2038  0.3595
 1008SOL    HW2 3798   2.458   2.983   0.091 -0.3457  0.5100 -2.0192
 1008SOL    HW3 3799   2.361   2.873   0.053  1.7139 -0.7514 -3.8806
 1008SOL    MW4 3800   2.440   2.898   0.080 -0.0535 -0.1186  0.0536
 1009SOL     OW 3801   5.703   4.134   2.342  0.0800 -0.2525  0.1131
 1009SOL    HW2 3802   5.744   4.201   2.397 -0.3818  0.1016  0.0283
 1009SOL    HW3 3803   5.621   4.113   2.385 -0.1146 -0.2379 -0.2430
 1009SOL    MW4 3804   5.698   4.140   2.355  0.4293 -0.3567 -0.1537
 1010SOL     OW 3805   5.111   5.550   0.003  0.6207  0.1495  0.6820
 1010SOL    HW2 3806   5.195   5.595   0.011  1.8470 -2.0277  0.9226
 1010SOL    HW3 3807   5.132   5.470  -0.046 -1.7660  0.5928 -1.2410
 1010SOL    MW4 3808   5.125   5.545  -0.003 -0.1056 -0.0119 -0.1985
 1011SOL     OW 3809   2.162   1.754   4.130 -0.2781 -0.3883 -0.0459
 1011SOL    HW2 3810   2.083   1.718   4.169  0.7444 -1.6365  0.9653
 1011SOL    HW3 3811   2.172   1.706   4.047 -1.6777  1.2633 -1.2394
 1011SOL    MW4 3812   2.153   1.743   4.124 -0.0660 -0.2062  0.7091
 1012SOL     OW 3813   3.832   0.345   4.993 -0.7663 -0.2445  0.0760
 1012SOL    HW2 3814   3.921   0.354   4.959 -1.0782  1.3507 -0.3905
 1012SOL    HW3 3815   3.845   0.309   5.081  0.0333 -4.6184 -1.5968
 1012SOL    MW4 3816   3.846   0.342   5.000 -0.0440  0.2242 -0.2437
 1013SOL     OW 3817   3.585   2.093   1.053  0.4969 -0.0814  0.9426
 1013SOL    HW2 3818   3.617   2.047   0.975 -0.5064 -0.7477  0.9153
 1013SOL    HW3 3819   3.663   2.104   1.107  0.3791 -4.7594  2.5038
 1013SOL    MW4 3820   3.600   2.089   1.050 -0.4522 -0.1939 -0.1463
 1014SOL     OW 3821   1.275   4.460   1.074  0.3360  0.1293 -0.3966
 1014SOL    HW2 3822   1.333   4.451   1.150 -1.4040  0.3009  0.9987
 1014SOL    HW3 3823   1.194   4.418   1.100 -0.3704  0.3424 -2.1185
 1014SOL    MW4 3824   1.272   4.453   1.087 -0.6496 -0.3783 -0.0983
 1015SOL     OW 3825   4.462   4.725   3.525  0.4430  0.3535 -0.1155
 1015SOL    HW2 3826   4.384   4.744   3.472  0.2187  1.0118  0.4383
 1015SOL    HW3 3827   4.535   4.731   3.463  0.0964  0.1016 -0.5608
 1015SOL    MW4 3828   4.461   4.728   3.510 -0.8307  0.5602  0.1387
 1016SOL     OW 3829   4.092   1.917   0.639  0.4002  0.1527  0.7095
 1016SOL    HW2 3830   4.171   1.955   0.603 -0.3068  1.3177  0.3315
 1016SOL    HW3 3831   4.120   1.834   0.678  1.1628 -1.3696 -2.7802
 1016SOL    MW4 3832   4.106   1.911   0.640  0.4265  0.3492  0.4695
 1017SOL     OW 3833   0.040   3.263   6.310 -0.0190  0.2798 -0.0282
 1017SOL    HW2 3834  -0.027   3.216   6.359  1.8381  0.6282  3.0665
 1017SOL    HW3 3835  -0.001   3.347   6.289 -1.3132 -0.3863 -0.3146
 1017SOL    MW4 3836   0.026   3.268   6.314  0.1082  0.4968 -0.1259
 1018SOL     OW 3837   6.410   4.495   4.140 -0.1412 -0.2570  0.0073
 1018SOL    HW2 3838   6.438   4.532   4.224 -1.5486  0.6339  0.1159
 1018SOL    HW3 3839   6.412   4.569   4.080 -1.0931 -0.4382 -0.2552
 1018SOL    MW4 3840   6.414   4.509   4.143  0.4975  0.1649  0.3437
 1019SOL     OW 3841   3.645   4.515   2.442 -0.7057  0.0487  0.1662
 1019SOL    HW2 3842   3.602   4.577   2.384 -0.3099  1.7994  1.6512
 1019SOL    HW3 3843   3.575   4.482   2.498 -0.8212 -0.4849 -0.2751
 1019SOL    MW4 3844   3.630   4.519   2.442  0.8806 -0.0534 -0.0119
 1020SOL     OW 3845   6.282   5.338   2.224 -0.2498 -0.3647  0.0688
 1020SOL    HW2 3846   6.326   5.264   2.182  0.3938 -1.3131  2.2938
 1020SOL    HW3 3847   6.256   5.306   2.310  1.9379  2.5351  2.0233
 1020SOL    MW4 3848   6.285   5.324   2.229  0.3693 -0.0286  0.0915
 1021SOL     OW 3849   0.440   2.781   4.248 -0.2337  0.0303  0.0183
 1021SOL    HW2 3850   0.418   2.784   4.155  2.8990  0.5699 -0.8312
 1021SOL    HW3 3851   0.467   2.691   4.263 -1.1230 -0.1624  0.5599
 1021SOL    MW4 3852   0.441   2.770   4.238  0.5031 -0.5251  0.7374
 1022SOL     OW 3853   4.806   1.206   5.347  0.0678  0.1193  0.0247
 1022SOL    HW2 3854   4.793   1.150   5.424  0.0330  1.3707  0.9691
 1022SOL    HW3 3855   4.899   1.198   5.327 -0.0418 -0.6885 -0.1946
 1022SOL    MW4 3856   4.816   1.198   5.355  0.1781  0.4978  0.3165
 1023SOL     OW 3857   3.710   6.160   5.416 -0.0765  0.1425 -0.1549
 1023SOL    HW2 3858   3.744   6.084   5.463  1.0505  0.4854 -0.3780
 1023SOL    HW3 3859   3.768   6.168   5.339  0.1799  1.5403  0.1525
 1023SOL    MW4 3860   3.722   6.151   5.412 -0.0972 -0.0964 -0.4145
 1024SOL     OW 3861   0.374   3.400   4.497  0.1281 -0.0218 -0.1968
 1024SOL    HW2 3862   0.381   3.461   4.571 -0.8934 -0.3877  0.2315
 1024SOL    HW3 3863   0.423   3.322   4.525  0.4330  0.1542 -0.2451
 1024SOL    MW4 3864   0.381   3.398   4.511  0.3760  0.2518 -0.1832
 1025SOL     OW 3865   4.754   4.788   6.392  0.6200  0.3561  0.0821
 1025SOL    HW2 3866   4.734   4.823   6.479  1.3637  0.2855  0.2899
 1025SOL    HW3 3867   4.751   4.693   6.404 -0.3030  0.3383 -0.2214
 1025SOL    MW4 3868   4.751   4.780   6.405 -0.4040 -0.1829  0.3096
 1026SOL     OW 3869   1.511   2.269   5.067  0.6013 -0.6616 -0.0917
 1026SOL    HW2 3870   1.592   2.236   5.104  0.8577  1.4097  1.3801
 1026SOL    HW3 3871   1.450   2.196   5.072  1.6867 -1.5142  1.0820
 1026SOL    MW4 3872   1.514   2.255   5.072 -0.4112  0.3585 -0.1446
 1027SOL     OW 3873   6.335   3.162   1.406  0.0402 -0.0356  0.0711
 1027SOL    HW2 3874   6.309   3.099   1.473  1.0064 -0.3736  0.1556
 1027SOL    HW3 3875   6.277   3.146   1.333 -1.0074  0.3068  0.8018
 1027SOL    MW4 3876   6.324   3.152   1.406  0.1702  0.4307 -0.4944
 1028SOL     OW 3877   1.661   5.409   0.669  0.2233 -1.0768 -0.2315
 1028SOL    HW2 3878   1.613   5.475   0.720 -0.3204  1.1844 -3.3569
 1028SOL    HW3 3879   1.632   5.325   0.704 -1.2984  0.2912  2.0345
 1028SOL    MW4 3880   1.651   5.407   0.680 -0.2692 -0.6784 -0.0379
 1029SOL     OW 3881   2.280   4.393   4.953 -0.0406 -0.8717 -0.6584
 1029SOL    HW2 3882   2.343   4.342   5.005 -0.7008  0.5820  1.7147
 1029SOL    HW3 3883   2.335   4.446   4.895  0.8060 -1.4882 -0.4454
 1029SOL    MW4 3884   2.296   4.393   4.952  0.2299 -0.3999 -0.3196
 1030SOL     OW 3885   1.518   5.590   1.636 -0.5149  0.4096  0.6830
 1030SOL    HW2 3886   1.599   5.635   1.612 -1.0144  0.3220 -1.4118
 1030SOL    HW3 3887   1.451   5.659   1.634 -0.7726  0.1606  0.6338
 1030SOL    MW4 3888   1.520   5.605   1.632 -0.2455  0.2782  0.1412
 1031SOL     OW 3889   5.151   4.039   3.975  0.2416  0.2858  0.6767
 1031SOL    HW2 3890   5.089   4.021   4.045 -0.2810 -0.6441 -0.0007
 1031SOL    HW3 3891   5.200   3.957   3.965  0.1150  0.3109 -0.2187
 1031SOL    MW4 3892   5.149   4.026   3.983  0.2552 -0.0587 -0.3267
 1032SOL     OW 3893   2.804   0.311   1.846  0.3859 -0.2931  0.3242
 1032SOL    HW2 3894   2.760   0.394   1.824  0.0721 -0.6857 -0.5489
 1032SOL    HW3 3895   2.743   0.266   1.904  0.1924 -0.2850  0.1247
 1032SOL    MW4 3896   2.790   0.316   1.851 -0.1057  0.5980  0.3354
 1033SOL     OW 3897   5.676   1.542   5.592 -0.5606 -0.3231 -0.0306
 1033SOL    HW2 3898   5.688   1.634   5.617  1.4461 -0.6835  0.5684
 1033SOL    HW3 3899   5.747   1.525   5.529 -0.4372 -1.6502  0.4297
 1033SOL    MW4 3900   5.687   1.552   5.587  0.3081  0.0579 -0.0114
 1034SOL     OW 3901   0.646   2.440   3.859  0.0630  0.0494  0.3053
 1034SOL    HW2 3902   0.576   2.480   3.806 -0.3977 -0.7640  0.2766
 1034SOL    HW3 3903   0.724   2.448   3.805 -0.1355  0.4296  0.0705
 1034SOL    MW4 3904   0.647   2.446   3.845 -0.7971 -0.3029  0.0805
 1035SOL     OW 3905   3.056   2.803   5.520 -0.3451  0.1137 -0.7501
 1035SOL    HW2 3906   3.076   2.776   5.430  0.3788 -1.9652 -0.0134
 1035SOL    HW3 3907   3.124   2.763   5.573 -0.3096  1.9473  0.6943
 1035SOL    MW4 3908   3.068   2.794   5.515  0.2162 -0.0140 -0.0048
 1036SOL     OW 3909   2.269   0.139   2.466  0.0471 -0.2865 -0.3930
 1036SOL    HW2 3910   2.244   0.129   2.374  0.6383  1.5468 -0.7889
 1036SOL    HW3 3911   2.186   0.152   2.512 -0.1730 -0.0997 -0.8378
 1036SOL    MW4 3912   2.255   0.140   2.460 -0.7536  0.9051 -0.0517
 1037SOL     OW 3913   3.838   2.131   5.714  0.0532 -0.0996  0.0117
 1037SOL    HW2 3914   3.812   2.122   5.806  0.2040 -1.5657 -0.0593
 1037SOL    HW3 3915   3.800   2.213   5.686 -2.1188 -0.8099  0.6938
 1037SOL    MW4 3916   3.830   2.140   5.723 -0.9154 -0.5027 -0.0409
 1038SOL     OW 3917   5.007   1.980   2.013 -0.0939  0.0151  0.0701
 1038SOL    HW2 3918   5.027   2.060   2.062  2.7463 -0.5573  0.0386
 1038SOL    HW3 3919   5.002   2.008   1.922 -0.6496  0.3715  0.2063
 1038SOL    MW4 3920   5.009   1.995   2.007 -0.3050  0.4181 -0.1174
 1039SOL     OW 3921   4.503   2.173   1.645  0.1507 -0.0806 -0.1145
 1039SOL    HW2 3922   4.549   2.155   1.563  1.6800  2.6237  0.0264
 1039SOL    HW3 3923   4.476   2.087   1.677  0.8947 -1.3502 -2.6360
 1039SOL    MW4 3924   4.506   2.159   1.639 -0.2334  0.1020  0.2637
 1040SOL     OW 3925   6.013   4.496   0.865 -0.0569  0.3457 -0.2643
 1040SOL    HW2 3926   6.049   4.441   0.795  0.2588 -0.5676  0.5878
 1040SOL    HW3 3927   6.015   4.585   0.829 -1.1562 -0.2455 -1.9018
 1040SOL    MW4 3928   6.018   4.501   0.851 -0.0754  0.3472  0.4492
 1041SOL     OW 3929   5.562   0.234   2.383  1.0492  0.9639  0.1781
 1041SOL    HW2 3930   5.512   0.191   2.452  1.2756  0.4123  0.0077
 1041SOL    HW3 3931   5.648   0.250   2.422  0.7159  2.0277  0.5133
 1041SOL    MW4 3932   5.567   0.230   2.397  1.1254  0.0235 -0.3030
 1042SOL     OW 3933   3.250   4.607   4.837  0.1521 -0.1475  0.1830
 1042SOL    HW2 3934   3.259   4.670   4.908  0.5193 -0.4492  0.4082
 1042SOL    HW3 3935   3.158   4.580   4.840  0.0668  0.1534  0.2747
 1042SOL    MW4 3936   3.239   4.612   4.846  0.8328 -0.4040  0.1323
 1043SOL     OW 3937   2.100   1.132   4.413  0.6664  0.1967 -0.0336
 1043SOL    HW2 3938   2.084   1.180   4.332 -1.5845 -0.5493 -0.1042
 1043SOL    HW3 3939   2.168   1.182   4.458 -0.4037  2.5127 -0.8347
 1043SOL    MW4 3940   2.107   1.145   4.408 -0.2697 -0.3891  0.5815
 1044SOL     OW 3941   4.449   4.596   0.929 -0.0355  0.0718  0.0003
 1044SOL    HW2 3942   4.464   4.610   0.835 -0.9993 -0.7115 -0.2797
 1044SOL    HW3 3943   4.448   4.501   0.939  0.4597  0.1524  0.8826
 1044SOL    MW4 3944   4.451   4.586   0.918 -0.5687  0.3936 -0.3489
 1045SOL     OW 3945   2.232   0.604   3.217 -1.0956 -0.4688  0.5072
 1045SOL    HW2 3946   2.166   0.552   3.170 -0.7590 -1.8960  1.5515
 1045SOL    HW3 3947   2.242   0.684   3.164 -0.9158 -1.8761 -1.6984
 1045SOL    MW4 3948   2.224   0.608   3.204 -1.0181  0.7330 -0.1509
 1046SOL     OW 3949   3.507   6.413   5.401  0.5812  0.3358 -0.4945
 1046SOL    HW2 3950   3.556   6.477   5.454  0.2380 -0.3487  0.6895
 1046SOL    HW3 3951   3.564   6.336   5.399  0.7974  0.5152 -1.5379
 1046SOL    MW4 3952   3.521   6.411   5.408 -0.4608  0.4191 -0.1249
 1047SOL     OW 3953   1.808   1.241   5.003  0.0492  0.6626 -0.1795
 1047SOL    HW2 3954   1.808   1.337   5.004 -1.2880  0.6844  0.3079
 1047SOL    HW3 3955   1.760   1.218   4.923  2.0136  0.3447 -1.3263
 1047SOL    MW4 3956   1.802   1.251   4.993 -0.1373 -0.0939  0.3379
 1048SOL     OW 3957   3.112   3.503   6.210 -0.7966 -0.7410  0.3791
 1048SOL    HW2 3958   3.082   3.413   6.214 -0.7297 -0.7796  0.0873
 1048SOL    HW3 3959   3.175   3.512   6.281 -0.4629 -1.0550  0.1251
 1048SOL    MW4 3960   3.116   3.493   6.220 -0.6229  0.6161  1.3240
 1049SOL     OW 3961   1.819   3.812   6.193 -0.0840 -0.1557 -0.2486
 1049SOL    HW2 3962   1.871   3.892   6.200 -1.6985  1.0403 -1.2800
 1049SOL    HW3 3963   1.851   3.769   6.114  0.3115 -0.1694 -0.0819
 1049SOL    MW4 3964   1.830   3.817   6.184 -0.5995  0.4477 -0.0612
 1050SOL     OW 3965   4.218   2.445   3.076 -0.3461  0.1150 -0.3786
 1050SOL    HW2 3966   4.233   2.487   3.160  2.5828  0.9277 -1.1931
 1050SOL    HW3 3967   4.230   2.352   3.093  0.1559  0.2681  0.1151
 1050SOL    MW4 3968   4.221   2.438   3.089  0.0523  0.7525  0.2875
 1051SOL     OW 3969   3.876   0.853   1.116 -0.3529 -0.1096  0.6106
 1051SOL    HW2 3970   3.831   0.924   1.070  2.6684  1.6735  0.0684
 1051SOL    HW3 3971   3.920   0.897   1.189 -0.1366 -1.8371  1.5659
 1051SOL    MW4 3972   3.876   0.868   1.120  0.0177 -0.4480  0.1223
 1052SOL     OW 3973   2.415   0.782   0.303 -0.3478  0.2380 -0.6112
 1052SOL    HW2 3974   2.479   0.843   0.267 -0.9362  0.3221 -1.5496
 1052SOL    HW3 3975   2.442   0.696   0.272 -0.9485  0.3292 -1.4253
 1052SOL    MW4 3976   2.427   0.779   0.294  0.4957  0.3444 -0.3017
 1053SOL     OW 3977   1.097   2.539   3.794  0.2867 -0.2508  0.6267
 1053SOL    HW2 3978   1.163   2.494   3.743  1.5515  1.5985  0.5308
 1053SOL    HW3 3979   1.145   2.581   3.865 -1.2540 -1.6587  2.6490
 1053SOL    MW4 3980   1.112   2.539   3.797 -0.8138  0.6174  0.0140
 1054SOL     OW 3981   1.277   6.011   3.290 -0.5983  0.5963 -0.0167
 1054SOL    HW2 3982   1.267   5.916   3.292  0.0939  0.5069 -0.5727
 1054SOL    HW3 3983   1.290   6.032   3.197  0.4570  1.1040  0.2331
 1054SOL    MW4 3984   1.277   6.001   3.278  0.1704 -0.1532  0.0369
 1055SOL     OW 3985   3.672   2.375   0.828  0.7011 -0.0804  0.0558
 1055SOL    HW2 3986   3.640   2.290   0.796  2.2010 -0.3374 -0.8287
 1055SOL    HW3 3987   3.753   2.354   0.875  0.1307  0.6675  1.4302
 1055SOL    MW4 3988   3.678   2.361   0.830 -0.5275 -0.0723 -0.0706
 1056SOL     OW 3989   3.691   3.947   3.255  0.4030 -0.6584 -0.1112
 1056SOL    HW2 3990   3.741   3.920   3.179  0.6766 -0.3184 -0.0528
 1056SOL    HW3 3991   3.756   3.962   3.323  0.2638  0.1573 -0.1464
 1056SOL    MW4 3992   3.706   3.945   3.254  0.1343  0.1453 -0.4352
 1057SOL     OW 3993   3.088   3.685   4.658  0.1178  0.1076  0.7298
 1057SOL    HW2 3994   3.124   3.604   4.621 -0.8640  0.5739 -1.3843
 1057SOL    HW3 3995   3.133   3.754   4.610 -0.4912  0.7720  1.1139
 1057SOL    MW4 3996   3.099   3.683   4.647  0.1594 -0.7629 -0.0395
 1058SOL     OW 3997   1.891   2.482   5.079 -0.0858  0.0483  0.3530
 1058SOL    HW2 3998   1.821   2.478   5.014  0.2052  1.1258 -0.0479
 1058SOL    HW3 3999   1.860   2.547   5.143  0.7582  0.9266 -0.1037
 1058SOL    MW4 4000   1.878   2.490   5.079  0.5616 -0.6779 -0.3446
 1059SOL     OW 4001   5.909   0.179   5.645 -0.4632  0.2898  0.1692
 1059SOL    HW2 4002   5.890   0.207   5.735  1.6071 -0.4274  0.8787
 1059SOL    HW3 4003   6.003   0.163   5.644 -1.0048 -4.0563 -0.8885
 1059SOL    MW4 4004   5.919   0.181   5.657  0.2387  0.3759 -0.2412
 1060SOL     OW 4005   4.240   1.106   1.637  0.0957 -0.1236  0.1190
 1060SOL    HW2 4006   4.153   1.091   1.600  1.1480 -0.8108 -2.2726
 1060SOL    HW3 4007   4.258   1.027   1.687  0.5187 -1.4117 -1.9418
 1060SOL    MW4 4008   4.231   1.094   1.639 -0.2313 -0.2775  0.0882
 1061SOL     OW 4009   0.318   4.417   1.640 -0.4441  0.0434 -0.8386
 1061SOL    HW2 4010   0.400   4.466   1.635 -1.1235  1.1121 -1.7990
 1061SOL    HW3 4011   0.262   4.455   1.573 -1.5731 -0.9888 -0.5284
 1061SOL    MW4 4012   0.321   4.429   1.631 -0.1227 -0.0911  0.1173
 1062SOL     OW 4013   0.136   3.893   0.927  0.2291  0.1439 -0.6326
 1062SOL    HW2 4014   0.194   3.949   0.979  0.2518  0.0340 -0.5403
 1062SOL    HW3 4015   0.177   3.807   0.928 -0.4408 -0.1809  0.2720
 1062SOL    MW4 4016   0.149   3.889   0.934 -0.0073 -0.6818 -0.6321
 1063SOL     OW 4017   5.421   4.854   0.589  0.1468 -0.0390  0.6635
 1063SOL    HW2 4018   5.423   4.905   0.670 -0.5294  0.0439  0.6370
 1063SOL    HW3 4019   5.341   4.883   0.545  1.6863  1.7084 -1.2221
 1063SOL    MW4 4020   5.411   4.865   0.594 -0.2131  0.3051  0.1544
 1064SOL     OW 4021   6.140   2.921   4.781  0.3430  0.1290 -0.2941
 1064SOL    HW2 4022   6.191   2.843   4.760 -0.4778 -0.2105 -1.1223
 1064SOL    HW3 4023   6.080   2.931   4.706  0.2829  1.4214 -0.0957
 1064SOL    MW4 4024   6.139   2.912   4.768 -0.0884  0.3414  0.1857
 1065SOL     OW 4025   0.239   3.536   0.506  0.2080  0.0166 -0.2795
 1065SOL    HW2 4026   0.212   3.577   0.589  0.7394  2.0031 -1.0149
 1065SOL    HW3 4027   0.331   3.561   0.497  0.3214 -0.6952 -1.1890
 1065SOL    MW4 4028   0.248   3.545   0.516  0.2466 -0.3775 -0.1085
 1066SOL     OW 4029   3.843   1.127   0.806  0.6677 -0.0091  0.2425
 1066SOL    HW2 4030   3.826   1.100   0.716 -0.5326 -0.7071  0.6638
 1066SOL    HW3 4031   3.827   1.221   0.806 -0.6843 -0.2272  0.0328
 1066SOL    MW4 4032   3.839   1.136   0.794 -0.0837 -0.1382  0.5113
 1067SOL     OW 4033   0.287   4.446   2.882 -0.3413 -0.0274 -0.0334
 1067SOL    HW2 4034   0.254   4.420   2.796 -1.0881 -0.6016  0.4130
 1067SOL    HW3 4035   0.382   4.438   2.874 -0.4350 -0.8417 -0.5762
 1067SOL    MW4 4036   0.295   4.441   2.869 -0.6124 -0.0785  0.0093
 1068SOL     OW 4037   3.663   4.544   3.489 -0.0476 -0.0596 -0.3470
 1068SOL    HW2 4038   3.734   4.495   3.446  1.4905  1.3664  0.4632
 1068SOL    HW3 4039   3.680   4.534   3.583  0.1168  1.7223 -0.1535
 1068SOL    MW4 4040   3.675   4.536   3.496 -0.0764 -0.2555 -0.0075
 1069SOL     OW 4041   5.516   5.550   4.511  0.4148 -0.2261  0.2053
 1069SOL    HW2 4042   5.599   5.594   4.494 -0.2264  1.0947  0.3579
 1069SOL    HW3 4043   5.506   5.553   4.606 -0.1604  0.3413  0.1391
 1069SOL    MW4 4044   5.526   5.556   4.521 -0.6544  0.3429 -0.4498
 1070SOL     OW 4045   0.804   3.307   0.485  0.7881 -0.9441 -0.0882
 1070SOL    HW2 4046   0.718   3.281   0.452  1.4999 -1.2197 -1.8396
 1070SOL    HW3 4047   0.837   3.368   0.419  1.2610  0.4840  1.4142
 1070SOL    MW4 4048   0.797   3.311   0.472 -0.5877  0.3613  0.7186
 1071SOL     OW 4049   1.799   2.905   2.205  0.2470  0.6291  0.5201
 1071SOL    HW2 4050   1.861   2.858   2.260  0.1845  1.2464  1.1375
 1071SOL    HW3 4051   1.764   2.839   2.146  3.3966  0.6927 -1.6667
 1071SOL    MW4 4052   1.802   2.890   2.205  0.1568  0.1962  0.4532
 1072SOL     OW 4053   5.119   4.614   4.665 -0.7954 -0.0172 -0.0972
 1072SOL    HW2 4054   5.207   4.616   4.703 -0.9154  0.3630  0.1772
 1072SOL    HW3 4055   5.068   4.674   4.720 -0.9384  0.6667 -0.9535
 1072SOL    MW4 4056   5.124   4.623   4.677 -0.1428 -0.0800 -0.1551
 1073SOL     OW 4057   4.927   1.558   1.689 -0.4655  0.1827  0.4109
 1073SOL    HW2 4058   4.912   1.574   1.596  2.1306 -3.3871 -0.8467
 1073SOL    HW3 4059   5.015   1.594   1.706 -1.0681  1.1641  1.6571
 1073SOL    MW4 4060   4.937   1.565   1.679 -0.1899  0.1002 -0.0905
 1074SOL     OW 4061   0.775   5.835   5.011  0.5329  0.1202 -0.1771
 1074SOL    HW2 4062   0.863   5.800   5.021  0.1207 -0.6693  0.8806
 1074SOL    HW3 4063   0.785   5.910   4.952  1.8758 -0.0497 -0.1870
 1074SOL    MW4 4064   0.788   5.840   5.005  0.5801 -0.0004 -0.1038
 1075SOL     OW 4065   1.062   0.073   4.241 -0.5596  0.0880  0.4767
 1075SOL    HW2 4066   1.132   0.038   4.296  0.1959 -0.7744 -0.9901
 1075SOL    HW3 4067   0.985   0.073   4.298  0.4797  0.4678  1.9254
 1075SOL    MW4 4068   1.061   0.068   4.256  0.5367  0.5169  0.2781
 1076SOL     OW 4069   5.354   4.343   3.399  0.1129  0.3637 -0.4939
 1076SOL    HW2 4070   5.371   4.428   3.359 -0.8102  0.8759  0.1634
 1076SOL    HW3 4071   5.380   4.279   3.332 -0.9745  1.1895 -1.7677
 1076SOL    MW4 4072   5.359   4.346   3.385  0.0323 -0.0141 -0.5748
 1077SOL     OW 4073   3.364   3.205   0.743  0.3029  0.2674  0.3823
 1077SOL    HW2 4074   3.314   3.159   0.676  0.7450  1.2580 -0.6457
 1077SOL    HW3 4075   3.299   3.228   0.810 -0.4793  0.8325 -0.5503
 1077SOL    MW4 4076   3.349   3.202   0.743 -0.1523 -0.2579 -0.7583
 1078SOL     OW 4077   4.332   2.014   0.532  0.0386 -0.3586 -0.5479
 1078SOL    HW2 4078   4.405   2.011   0.593 -0.0899 -1.1265 -0.4181
 1078SOL    HW3 4079   4.347   1.941   0.473 -0.5717 -0.4737 -0.5726
 1078SOL    MW4 4080   4.343   2.004   0.532 -0.0726 -0.4734 -0.1964
 1079SOL     OW 4081   0.208   2.207   0.502 -0.3757 -0.7267  0.2824
 1079SOL    HW2 4082   0.245   2.256   0.429 -0.5329 -1.2113 -0.1273
 1079SOL    HW3 4083   0.193   2.273   0.571 -1.6035  0.0044 -0.6415
 1079SOL    MW4 4084   0.211   2.222   0.502  0.3379  0.5182 -1.0128
 1080SOL     OW 4085   0.754   2.930   0.044 -0.2806  0.2503 -0.2199
 1080SOL    HW2 4086   0.815   3.001   0.022  0.0240 -0.1079 -0.5669
 1080SOL    HW3 4087   0.738   2.940   0.138  1.4855 -0.5134  0.2094
 1080SOL    MW4 4088   0.760   2.941   0.054  0.3309 -0.1009 -0.1681
 1081SOL     OW 4089   1.449   5.097   4.751 -0.0172 -0.3457 -0.1269
 1081SOL    HW2 4090   1.393   5.021   4.734 -1.2769  0.1512  1.5949
 1081SOL    HW3 4091   1.521   5.087   4.688  0.0088 -3.0832  0.1923
 1081SOL    MW4 4092   1.451   5.085   4.740  0.1464  0.0949  0.2016
 1082SOL     OW 4093   1.760   4.517   4.497 -0.1036 -0.3063 -0.3727
 1082SOL    HW2 4094   1.856   4.520   4.497 -0.0274 -1.7337 -1.1203
 1082SOL    HW3 4095   1.734   4.586   4.437  0.5322 -0.9263 -1.3883
 1082SOL    MW4 4096   1.769   4.526   4.489  0.4322 -0.5442  0.1821
 1083SOL     OW 4097   2.185   0.902   0.240 -0.2091  0.0310  1.0881
 1083SOL    HW2 4098   2.274   0.871   0.257  0.3914  1.1379  0.1027
 1083SOL    HW3 4099   2.192   0.997   0.236 -0.7916  0.0393 -2.2264
 1083SOL    MW4 4100   2.197   0.910   0.242  0.2197  0.0667 -0.0597
 1084SOL     OW 4101   0.413   4.110   2.385  0.0013  0.4167  0.0141
 1084SOL    HW2 4102   0.329   4.078   2.418 -0.1777  0.1703 -0.6560
 1084SOL    HW3 4103   0.479   4.064   2.436 -0.2688  0.7568  0.6805
 1084SOL    MW4 4104   0.410   4.100   2.396  0.5335 -0.1693  0.3986
 1085SOL     OW 4105   0.994   3.539   5.786  0.5293 -0.3305 -0.0959
 1085SOL    HW2 4106   1.045   3.620   5.773 -0.1052  0.0750 -0.0664
 1085SOL    HW3 4107   0.929   3.562   5.852 -0.6450 -0.4087 -1.1975
 1085SOL    MW4 4108   0.992   3.553   5.793 -0.2043 -0.4509 -0.1050
 1086SOL     OW 4109   6.354   5.756   0.739 -0.1201  0.2742  0.0072
 1086SOL    HW2 4110   6.322   5.839   0.773 -0.3362  1.1648 -2.2298
 1086SOL    HW3 4111   6.347   5.764   0.644 -1.2950 -2.7430 -0.2807
 1086SOL    MW4 4112   6.348   5.768   0.731 -0.2607  0.3021  0.0683
 1087SOL     OW 4113   4.180   6.183   0.950  0.3181  0.0106 -0.3770
 1087SOL    HW2 4114   4.184   6.243   0.875 -0.3157 -0.1037 -0.5078
 1087SOL    HW3 4115   4.182   6.240   1.027  1.8635  0.0918 -0.4438
 1087SOL    MW4 4116   4.181   6.199   0.950  0.5099 -0.3578  0.2379
 1088SOL     OW 4117   2.054   3.802   4.555  0.2222  0.6043  0.4550
 1088SOL    HW2 4118   1.968   3.760   4.563  0.9349 -1.2014 -0.6312
 1088SOL    HW3 4119   2.067   3.848   4.638 -1.8969  1.1641  0.5224
 1088SOL    MW4 4120   2.044   3.802   4.567 -0.1326 -0.2357 -0.0779
 1089SOL     OW 4121   6.002   3.655   0.868 -0.3246 -0.2140  0.3411
 1089SOL    HW2 4122   6.008   3.748   0.887 -1.9433 -0.0081 -0.0107
 1089SOL    HW3 4123   5.926   3.646   0.811 -0.5841 -1.8236  0.8685
 1089SOL    MW4 4124   5.993   3.666   0.863 -0.1394  0.4635  0.0472
 1090SOL     OW 4125   3.081   5.479   4.742 -0.0333  0.2984 -0.0473
 1090SOL    HW2 4126   3.123   5.473   4.656  1.0400  0.1294  0.4715
 1090SOL    HW3 4127   3.010   5.415   4.738  0.2795 -0.0243 -0.6564
 1090SOL    MW4 4128   3.077   5.470   4.730 -0.5594  0.4189 -0.0968
 1091SOL     OW 4129   2.011   6.329   0.655  0.0491  0.4730 -0.0302
 1091SOL    HW2 4130   1.951   6.370   0.718  0.9725 -1.6419  2.4414
 1091SOL    HW3 4131   1.974   6.243   0.640  0.3768  0.5987 -1.6973
 1091SOL    MW4 4132   1.999   6.323   0.661  0.5041 -0.0936 -0.5079
 1092SOL     OW 4133   1.547   0.251   1.336  0.1127 -0.1785  0.6120
 1092SOL    HW2 4134   1.515   0.317   1.397 -0.8614 -0.0853  0.0330
 1092SOL    HW3 4135   1.468   0.223   1.288  0.9130  0.1447 -0.9638
 1092SOL    MW4 4136   1.532   0.256   1.337 -0.2858 -0.3341  0.4209
 1093SOL     OW 4137   5.915   3.231   5.927  0.0890  0.0802 -0.1712
 1093SOL    HW2 4138   5.946   3.258   6.014 -0.2331 -1.0987  0.3318
 1093SOL    HW3 4139   5.828   3.270   5.919 -0.7521 -1.4352  0.9250
 1093SOL    MW4 4140   5.908   3.239   5.937  0.6070 -0.2638 -0.5405
 1094SOL     OW 4141   4.943   2.416   5.202  0.5085 -0.6379  0.5867
 1094SOL    HW2 4142   4.911   2.460   5.123  1.4512 -1.2424 -0.1505
 1094SOL    HW3 4143   5.031   2.451   5.216  0.0849 -0.0046  1.8017
 1094SOL    MW4 4144   4.950   2.427   5.194  0.2567 -0.2321  0.3407
 1095SOL     OW 4145   0.104   0.289   4.097  0.2335 -0.1896 -0.4277
 1095SOL    HW2 4146   0.026   0.321   4.142  0.3604  0.5863 -0.7368
 1095SOL    HW3 4147   0.092   0.194   4.091 -0.4926 -0.1210 -0.1148
 1095SOL    MW4 4148   0.092   0.281   4.102  0.2143  0.1850  0.0250
 1096SOL     OW 4149   2.162   6.344   2.026  0.7056  0.0515 -0.1918
 1096SOL    HW2 4150   2.212   6.394   1.962  1.9174  0.0630  0.7227
 1096SOL    HW3 4151   2.228   6.313   2.089  0.0332 -2.6829 -0.6908
 1096SOL    MW4 4152   2.178   6.346   2.026 -0.1704  0.2502  0.2874
 1097SOL     OW 4153   0.145   1.656   5.300  0.1319 -0.1649 -0.8304
 1097SOL    HW2 4154   0.192   1.591   5.248  1.1560  0.1277 -0.3146
 1097SOL    HW3 4155   0.183   1.740   5.273 -1.5714  0.3121 -1.9095
 1097SOL    MW4 4156   0.157   1.659   5.289 -0.0354  0.0535  0.8690
 1098SOL     OW 4157   2.016   5.439   0.839  0.2477  0.0556 -0.0214
 1098SOL    HW2 4158   2.095   5.462   0.789 -1.0587  0.3081 -2.0881
 1098SOL    HW3 4159   1.962   5.391   0.776 -1.6574  0.7217  1.0517
 1098SOL    MW4 4160   2.020   5.435   0.824 -0.1017  0.0923 -0.1996
 1099SOL     OW 4161   2.076   1.171   5.929 -0.1989  0.1055 -0.2911
 1099SOL    HW2 4162   2.111   1.225   5.858  0.3354 -0.9551 -0.8690
 1099SOL    HW3 4163   1.994   1.214   5.953  1.2877  2.4925  0.8984
 1099SOL    MW4 4164   2.069   1.184   5.922  0.1432  0.3457  0.1851
 1100SOL     OW 4165   5.221   1.153   4.054 -0.2347  0.1648 -0.1862
 1100SOL    HW2 4166   5.274   1.205   3.994  0.8775  1.9463  2.1692
 1100SOL    HW3 4167   5.163   1.217   4.095 -2.2928 -1.3027 -0.6338
 1100SOL    MW4 4168   5.220   1.168   4.051 -0.1362 -0.1320 -0.3047
 1101SOL     OW 4169   3.645   1.433   6.409 -0.1916 -0.4539 -0.4887
 1101SOL    HW2 4170   3.661   1.523   6.381  1.0884 -1.0540 -1.7622
 1101SOL    HW3 4171   3.607   1.443   6.497  1.2767  1.2846  0.0156
 1101SOL    MW4 4172   3.642   1.446   6.417 -1.0622 -0.4034  0.0033
 1102SOL     OW 4173   1.389   0.737   5.888 -0.5534  0.7330 -0.6171
 1102SOL    HW2 4174   1.322   0.715   5.953  1.1823 -0.7577  0.7964
 1102SOL    HW3 4175   1.347   0.724   5.804 -1.9862 -0.3006  0.2235
 1102SOL    MW4 4176   1.375   0.733   5.886  0.1035 -0.1487  1.0059
 1103SOL     OW 4177   1.944   3.265   4.094  0.4371 -0.6241  0.1734
 1103SOL    HW2 4178   1.993   3.198   4.141 -0.3684 -0.0165  1.9872
 1103SOL    HW3 4179   1.900   3.218   4.023 -0.6613 -2.1941  1.8197
 1103SOL    MW4 4180   1.944   3.250   4.091 -0.4017 -0.0236  0.5875
 1104SOL     OW 4181   1.371   2.086   3.158  0.3441  0.2035  0.0962
 1104SOL    HW2 4182   1.380   2.061   3.250 -1.8340 -0.1703  0.2702
 1104SOL    HW3 4183   1.277   2.101   3.147  0.8852  3.4148 -1.2802
 1104SOL    MW4 4184   1.360   2.084   3.169  0.1040  0.0194  0.4215
 1105SOL     OW 4185   4.876   3.483   1.113  0.1317  0.6050 -0.2641
 1105SOL    HW2 4186   4.895   3.493   1.020 -0.4776 -0.7142 -0.5572
 1105SOL    HW3 4187   4.780   3.484   1.118  0.1222 -0.6418  0.1673
 1105SOL    MW4 4188   4.866   3.484   1.102 -0.1919 -0.0240 -0.2352
 1106SOL     OW 4189   4.452   2.954   4.612  0.2044  0.0538  0.1512
 1106SOL    HW2 4190   4.448   2.859   4.625  3.7761 -0.3135 -0.3804
 1106SOL    HW3 4191   4.432   2.967   4.519 -3.4152  0.3110  0.8088
 1106SOL    MW4 4192   4.449   2.943   4.601  0.9333 -0.1362  0.2718
 1107SOL     OW 4193   3.527   1.774   2.897 -0.5298  0.2390 -0.0609
 1107SOL    HW2 4194   3.473   1.699   2.922 -0.0032  0.1460  0.8384
 1107SOL    HW3 4195   3.557   1.754   2.808 -1.9454  0.2903 -0.5867
 1107SOL    MW4 4196   3.524   1.762   2.888 -0.1156  0.3721  0.3617
 1108SOL     OW 4197   4.490   1.142   2.047 -0.0040 -0.6809 -0.1021
 1108SOL    HW2 4198   4.501   1.214   2.109  0.4704 -1.4836  0.7767
 1108SOL    HW3 4199   4.574   1.135   2.003  1.1075 -2.7122  2.0975
 1108SOL    MW4 4200   4.502   1.151   2.049 -0.3766 -0.2129  0.7463
 1109SOL     OW 4201   1.393   2.164   1.547 -0.3657 -0.5965 -0.3842
 1109SOL    HW2 4202   1.479   2.124   1.534  0.2999 -0.1498  2.0881
 1109SOL    HW3 4203   1.370   2.199   1.461  0.4609 -3.3999 -1.8893
 1109SOL    MW4 4204   1.402   2.163   1.534  0.2362  0.2315  0.0525
 1110SOL     OW 4205   2.233   0.369   3.953 -0.0369  0.2216  0.0452
 1110SOL    HW2 4206   2.242   0.300   4.018  1.5716  1.5763  1.3454
 1110SOL    HW3 4207   2.141   0.394   3.957 -0.1726 -0.4029  1.1017
 1110SOL    MW4 4208   2.222   0.363   3.962 -0.1313  0.0986  0.1505
 1111SOL     OW 4209   4.883   4.878   4.201  0.2488  0.1653 -0.5283
 1111SOL    HW2 4210   4.936   4.831   4.137  2.6767 -0.2531  1.6193
 1111SOL    HW3 4211   4.856   4.810   4.264  0.3749  0.9722  0.4227
 1111SOL    MW4 4212   4.886   4.863   4.201  0.1286  0.0363 -0.2229
 1112SOL     OW 4213   5.956   0.333   4.765 -0.1550  0.1628 -0.2068
 1112SOL    HW2 4214   5.986   0.381   4.843 -1.2149  1.0516 -0.3177
 1112SOL    HW3 4215   6.027   0.273   4.745  0.7112  0.8688  0.6589
 1112SOL    MW4 4216   5.969   0.332   4.773 -0.0022  0.4164  0.2053
 1113SOL     OW 4217   3.487   4.005   2.982  0.1215 -0.1272 -0.0655
 1113SOL    HW2 4218   3.494   3.939   2.913 -1.1237 -0.6301  0.2605
 1113SOL    HW3 4219   3.570   4.053   2.978  0.6289 -1.0432 -0.9857
 1113SOL    MW4 4220   3.499   4.003   2.973 -0.2590 -0.1788 -0.2265
 1114SOL     OW 4221   0.139   5.144   1.053  0.1472  0.0254  0.1375
 1114SOL    HW2 4222   0.219   5.115   1.011 -0.2438  0.5460 -1.0200
 1114SOL    HW3 4223   0.168   5.207   1.119  0.7977 -1.0715  0.9208
 1114SOL    MW4 4224   0.153   5.149   1.056 -0.2938 -0.3059 -0.3639
 1115SOL     OW 4225   4.931   2.560   1.832 -0.1306 -0.4873  0.0806
 1115SOL    HW2 4226   4.996   2.515   1.885  0.3594 -1.1193 -1.0324
 1115SOL    HW3 4227   4.980   2.595   1.758 -0.8162  0.3135 -0.0084
 1115SOL    MW4 4228   4.946   2.559   1.829 -0.2116  0.5756  0.2421
 1116SOL     OW 4229   6.268   3.552   4.376  0.2876 -0.3204  0.0374
 1116SOL    HW2 4230   6.277   3.516   4.464 -0.5902 -0.0012  0.2695
 1116SOL    HW3 4231   6.211   3.628   4.387  0.2607 -0.2107 -0.7906
 1116SOL    MW4 4232   6.261   3.557   4.389  0.1378 -1.2418 -0.1362
 1117SOL     OW 4233   3.850   4.831   2.330 -0.2681 -0.6585  0.1967
 1117SOL    HW2 4234   3.822   4.774   2.258 -1.8086 -0.3728  0.5411
 1117SOL    HW3 4235   3.788   4.904   2.329  2.4510  1.8362 -1.1043
 1117SOL    MW4 4236   3.838   4.833   2.320 -0.1510  0.0952 -0.6860
 1118SOL     OW 4237   2.191   0.397   4.590  0.2737  0.3096  0.4669
 1118SOL    HW2 4238   2.265   0.338   4.575  0.9263  1.1943  0.0864
 1118SOL    HW3 4239   2.157   0.414   4.502 -2.0139 -2.0446  0.7669
 1118SOL    MW4 4240   2.197   0.391   4.576 -0.4033 -0.3625 -0.4217
 1119SOL     OW 4241   0.027   3.593   4.190 -0.2960  0.2258  0.2079
 1119SOL    HW2 4242   0.094   3.581   4.257 -0.1343 -0.3674 -0.0507
 1119SOL    HW3 4243  -0.056   3.573   4.235 -0.2710  0.6498  0.4448
 1119SOL    MW4 4244   0.025   3.589   4.205 -0.0018  0.5095  1.0308
 1120SOL     OW 4245   3.246   4.911   5.407  0.0761  0.7015 -0.2729
 1120SOL    HW2 4246   3.261   4.961   5.488 -0.4665  0.5321 -0.0601
 1120SOL    HW3 4247   3.157   4.877   5.416  1.2081 -2.3592  0.6918
 1120SOL    MW4 4248   3.236   4.913   5.419 -0.0812  0.2374  0.1922
 1121SOL     OW 4249   1.251   3.442   1.314 -0.4338  0.0633 -0.2585
 1121SOL    HW2 4250   1.342   3.411   1.318  0.2965  2.0683  2.7959
 1121SOL    HW3 4251   1.199   3.368   1.346  0.3180 -0.5470 -0.4148
 1121SOL    MW4 4252   1.256   3.428   1.319  0.1654 -0.1544 -0.5535
 1122SOL     OW 4253   2.699   0.361   2.596  0.2390 -0.1514  0.4186
 1122SOL    HW2 4254   2.681   0.446   2.555 -1.5055 -1.3444 -1.5153
 1122SOL    HW3 4255   2.731   0.383   2.683  0.5288  2.4956 -0.2511
 1122SOL    MW4 4256   2.701   0.375   2.602  0.0800  0.0882  0.9610
 1123SOL     OW 4257   1.136   5.073   3.587 -0.5372  0.1398 -0.4461
 1123SOL    HW2 4258   1.083   5.152   3.582 -0.1959  0.5649  1.6863
 1123SOL    HW3 4259   1.074   5.002   3.573 -1.5936  0.6585  1.2732
 1123SOL    MW4 4260   1.121   5.074   3.585  0.0571  0.1872 -0.2173
 1124SOL     OW 4261   5.709   4.988   5.980 -0.5755 -0.3724  0.7268
 1124SOL    HW2 4262   5.754   5.021   6.058 -0.1101  2.2280 -0.5211
 1124SOL    HW3 4263   5.771   4.928   5.941  0.2990  0.3234  1.0059
 1124SOL    MW4 4264   5.723   4.985   5.985 -0.6685  0.5660  0.1436
 1125SOL     OW 4265   5.354   5.279   4.443  0.2626 -0.1151 -0.2513
 1125SOL    HW2 4266   5.332   5.366   4.478 -0.4654 -0.6358  0.6356
 1125SOL    HW3 4267   5.407   5.297   4.365  0.1261  1.1208 -0.0795
 1125SOL    MW4 4268   5.358   5.293   4.437  0.1246  0.0582  0.5388
 1126SOL     OW 4269   5.511   0.296   5.820 -0.2856  0.5520  0.3933
 1126SOL    HW2 4270   5.496   0.379   5.775  0.3997 -0.3817 -1.7095
 1126SOL    HW3 4271   5.425   0.271   5.854 -1.1482  0.7289 -1.5308
 1126SOL    MW4 4272   5.498   0.303   5.818  0.2249  0.1043 -0.1622
 1127SOL     OW 4273   0.698   0.368   0.560 -0.7957 -0.6672  0.3856
 1127SOL    HW2 4274   0.777   0.376   0.506 -1.1662 -0.9426 -0.2121
 1127SOL    HW3 4275   0.730   0.335   0.644 -0.0215  1.1645  0.8588
 1127SOL    MW4 4276   0.712   0.365   0.564 -0.1161  0.4376 -0.4552
 1128SOL     OW 4277   0.234   1.083   4.083 -0.2035 -0.1878 -0.2566
 1128SOL    HW2 4278   0.300   1.019   4.109  1.0788  0.8772 -0.8026
 1128SOL    HW3 4279   0.284   1.159   4.054 -1.6617  1.3501  1.0152
 1128SOL    MW4 4280   0.249   1.085   4.083 -0.5344 -0.1388 -0.2170
 1129SOL     OW 4281   3.838   1.459   1.113  0.6760  0.6270 -0.2296
 1129SOL    HW2 4282   3.787   1.401   1.170  0.9438  0.7102  0.0937
 1129SOL    HW3 4283   3.825   1.424   1.025 -0.7972  1.2542 -0.2969
 1129SOL    MW4 4284   3.829   1.447   1.109  0.0726  0.2284  0.4720
 1130SOL     OW 4285   2.288   4.146   6.163 -0.4818 -0.6502 -0.3837
 1130SOL    HW2 4286   2.370   4.192   6.147 -0.0033 -1.2332  0.3286
 1130SOL    HW3 4287   2.292   4.068   6.107 -0.5914 -0.6361 -0.4122
 1130SOL    MW4 4288   2.299   4.142   6.154 -0.2185 -0.0140  0.3866
 1131SOL     OW 4289   0.262   4.472   4.101  0.1640 -0.2320 -0.8109
 1131SOL    HW2 4290   0.172   4.488   4.130  0.0832 -0.9248 -0.6519
 1131SOL    HW3 4291   0.281   4.383   4.131 -0.3637 -1.5311 -3.9478
 1131SOL    MW4 4292   0.252   4.462   4.109 -0.4696  0.3403 -0.2206
 1132SOL     OW 4293   1.992   2.899   5.851  0.6329 -0.6532 -0.3378
 1132SOL    HW2 4294   1.905   2.876   5.885  0.2160 -0.5000 -1.2833
 1132SOL    HW3 4295   1.988   2.994   5.840  1.3025 -0.5004  0.6511
 1132SOL    MW4 4296   1.980   2.909   5.854 -0.5573  0.4547 -0.4491
 1133SOL     OW 4297   6.048   0.558   2.172  0.3060  0.2450  0.9279
 1133SOL    HW2 4298   6.071   0.651   2.179 -0.4790  0.3554  2.4644
 1133SOL    HW3 4299   6.125   0.518   2.133  0.5529  1.5807 -0.0329
 1133SOL    MW4 4300   6.061   0.565   2.168  0.0592 -0.0635  0.0485
 1134SOL     OW 4301   2.040   2.595   0.139  0.2231 -0.1251 -0.5028
 1134SOL    HW2 4302   2.135   2.591   0.142  0.2209  0.1200 -0.0254
 1134SOL    HW3 4303   2.018   2.570   0.049  0.6660 -1.6101 -0.2329
 1134SOL    MW4 4304   2.050   2.591   0.127 -0.1878  0.0649 -0.6089
 1135SOL     OW 4305   5.119   4.139   2.472 -0.3171 -0.7723  0.0575
 1135SOL    HW2 4306   5.212   4.121   2.461 -0.2592  0.6188 -2.5202
 1135SOL    HW3 4307   5.116   4.228   2.507 -0.6925 -0.6892 -0.1890
 1135SOL    MW4 4308   5.131   4.148   2.475  0.3440 -0.5368 -0.0403
 1136SOL     OW 4309   1.006   2.195   2.109 -0.3583 -0.3014 -0.0474
 1136SOL    HW2 4310   1.016   2.106   2.143  0.8127 -0.6236 -1.2010
 1136SOL    HW3 4311   0.919   2.195   2.068 -0.5636 -0.7626  0.3758
 1136SOL    MW4 4312   0.996   2.183   2.108 -0.8370 -0.2006  0.3958
 1137SOL     OW 4313   1.016   1.269   0.673 -0.0237 -0.3250  0.6452
 1137SOL    HW2 4314   1.017   1.181   0.709  0.2999  0.5078  2.8211
 1137SOL    HW3 4315   1.079   1.267   0.601 -1.0027 -2.1717 -0.2276
 1137SOL    MW4 4316   1.024   1.257   0.668 -0.3839  0.4616  0.1906
 1138SOL     OW 4317   5.080   2.202   6.238 -0.3461  0.6067 -0.0544
 1138SOL    HW2 4318   5.069   2.122   6.187 -1.2044  0.4368  0.3799
 1138SOL    HW3 4319   5.034   2.269   6.187  0.1836  0.7869 -0.3061
 1138SOL    MW4 4320   5.072   2.200   6.224  0.9187 -0.4093 -0.1056
 1139SOL     OW 4321   4.733   3.180   3.506  0.4391 -0.1519 -0.0265
 1139SOL    HW2 4322   4.703   3.115   3.570  0.9450 -1.7475 -1.3160
 1139SOL    HW3 4323   4.667   3.249   3.509  0.2672 -0.3366  1.9181
 1139SOL    MW4 4324   4.720   3.180   3.515 -0.6145  0.1388  0.3027
 1140SOL     OW 4325   5.926   5.925   4.952  0.4713  0.0593  0.1212
 1140SOL    HW2 4326   5.866   5.936   4.878  0.0402  0.8047  0.5703
 1140SOL    HW3 4327   5.920   6.008   5.000  2.4101  0.4431 -0.2128
 1140SOL    MW4 4328   5.917   5.937   4.948 -0.3950  0.0317  0.1907
 1141SOL     OW 4329   4.724   3.495   5.898  0.4816 -0.4222  0.0343
 1141SOL    HW2 4330   4.646   3.550   5.898 -0.6202 -1.8977  0.1663
 1141SOL    HW3 4331   4.739   3.476   5.805 -0.0158 -1.0367  0.0694
 1141SOL    MW4 4332   4.716   3.500   5.886  0.1532 -0.0083 -0.5050
 1142SOL     OW 4333   1.175   4.730   5.504 -0.9390 -0.2150 -0.3418
 1142SOL    HW2 4334   1.162   4.636   5.520  0.0240  0.0870  3.0647
 1142SOL    HW3 4335   1.100   4.756   5.450 -2.1219 -2.6267 -0.0046
 1142SOL    MW4 4336   1.163   4.721   5.499 -0.0544 -0.0523 -0.0766
 1143SOL     OW 4337   3.996   2.000   1.410  0.0816  0.1938 -0.1544
 1143SOL    HW2 4338   4.015   1.989   1.503  1.5623  2.3334 -0.1270
 1143SOL    HW3 4339   4.065   1.950   1.366  1.2122  1.5944 -0.0496
 1143SOL    MW4 4340   4.008   1.992   1.416 -0.4653 -0.0268 -0.2219
 1144SOL     OW 4341   5.836   6.283   0.033 -0.7154 -0.4108 -0.6929
 1144SOL    HW2 4342   5.929   6.303   0.045 -0.0479 -3.4668 -0.1034
 1144SOL    HW3 4343   5.819   6.304  -0.059 -0.0300  2.0370 -0.3374
 1144SOL    MW4 4344   5.846   6.289   0.023 -0.0214 -0.3097  0.2283
 1145SOL     OW 4345   0.482   4.409   1.360 -0.3380  0.5693  0.3810
 1145SOL    HW2 4346   0.414   4.365   1.308  1.6497 -2.1623 -0.1673
 1145SOL    HW3 4347   0.462   4.383   1.450  0.6509 -1.4405  0.0908
 1145SOL    MW4 4348   0.471   4.400   1.365 -0.0711 -0.0928  0.5077
 1146SOL     OW 4349   3.079   0.198   3.106  0.6068 -0.1959  0.3796
 1146SOL    HW2 4350   3.050   0.285   3.076 -0.1993  0.2588  2.3205
 1146SOL    HW3 4351   3.020   0.137   3.061  0.0244  0.3872  0.3280
 1146SOL    MW4 4352   3.067   0.202   3.096 -0.0306  0.1005  0.1199
 1147SOL     OW 4353   3.254   6.238   2.183 -1.0474  1.0400 -0.0350
 1147SOL    HW2 4354   3.291   6.326   2.179 -0.7210  0.8555 -2.0172
 1147SOL    HW3 4355   3.315   6.188   2.236 -0.3194  1.6034 -0.3300
 1147SOL    MW4 4356   3.267   6.243   2.189 -0.0429  0.6161 -0.0466
 1148SOL     OW 4357   6.417   0.894   1.294 -1.0470  0.0148  0.1184
 1148SOL    HW2 4358   6.370   0.880   1.376  0.2367  1.0662  1.0887
 1148SOL    HW3 4359   6.424   0.989   1.286  1.8242 -0.0387  0.6495
 1148SOL    MW4 4360   6.412   0.905   1.304 -0.4717  0.6750 -0.0590
 1149SOL     OW 4361   4.404   2.840   6.380  0.2769 -0.3117  0.2960
 1149SOL    HW2 4362   4.433   2.919   6.335 -0.7655  0.6643  1.2780
 1149SOL    HW3 4363   4.412   2.770   6.315 -0.4345  0.9014 -1.1354
 1149SOL    MW4 4364   4.409   2.841   6.366  0.1858  0.2560  0.5165
 1150SOL     OW 4365   2.941   5.818   0.024  0.3399 -0.0095 -0.1571
 1150SOL    HW2 4366   2.920   5.814  -0.069 -1.3562 -0.7170  0.2341
 1150SOL    HW3 4367   2.888   5.749   0.064  1.4829 -0.1102  1.2703
 1150SOL    MW4 4368   2.931   5.808   0.017  0.1287 -1.0656 -0.3739
 1151SOL     OW 4369   3.430   2.861   5.809  0.0909 -0.2314  0.1547
 1151SOL    HW2 4370   3.445   2.951   5.779 -0.5703  0.2843  1.2839
 1151SOL    HW3 4371   3.468   2.858   5.897 -3.0883  0.1181  1.7022
 1151SOL    MW4 4372   3.437   2.873   5.817  0.0564 -0.0392 -0.0923
 1152SOL     OW 4373   1.317   0.301   1.818 -0.0974  0.0622  0.0437
 1152SOL    HW2 4374   1.324   0.396   1.826 -0.5418  0.0116  1.1035
 1152SOL    HW3 4375   1.281   0.287   1.730 -2.7185  1.0098  0.8813
 1152SOL    MW4 4376   1.313   0.312   1.807  0.2271  0.5828  0.8676
 1153SOL     OW 4377   2.292   1.716   0.826 -0.0744  0.1030 -0.3628
 1153SOL    HW2 4378   2.249   1.732   0.909 -0.0032  1.6641 -0.6064
 1153SOL    HW3 4379   2.297   1.802   0.784  0.6425 -0.5200 -1.6084
 1153SOL    MW4 4380   2.287   1.729   0.831  0.0953 -0.1384  0.5604
 1154SOL     OW 4381   1.862   0.650   4.491  0.0443  0.0732 -0.5869
 1154SOL    HW2 4382   1.798   0.678   4.556  0.8199  1.8350 -0.5322
 1154SOL    HW3 4383   1.830   0.564   4.461 -1.4911  0.2210  0.5257
 1154SOL    MW4 4384   1.849   0.642   4.495 -0.4252 -0.1399 -0.1423
 1155SOL     OW 4385   6.288   6.014   1.216  0.1603  0.6014 -0.1587
 1155SOL    HW2 4386   6.362   5.982   1.163 -0.2528 -1.4798  0.4435
 1155SOL    HW3 4387   6.213   5.966   1.184 -0.9620  2.5105 -0.5716
 1155SOL    MW4 4388   6.288   6.004   1.205 -0.5032  0.0640 -0.3580
 1156SOL     OW 4389   6.201   0.051   1.024 -0.6290  0.0895  0.3224
 1156SOL    HW2 4390   6.290   0.058   0.990 -0.9967 -1.3352 -1.0688
 1156SOL    HW3 4391   6.147   0.094   0.957 -1.1881 -1.0380  0.0365
 1156SOL    MW4 4392   6.205   0.058   1.010  0.3536  0.6888  0.2411
 1157SOL     OW 4393   2.405   4.616   4.602 -0.1053 -0.1461  0.3832
 1157SOL    HW2 4394   2.359   4.551   4.548  1.6788 -1.1821  0.0250
 1157SOL    HW3 4395   2.469   4.656   4.543  1.3994 -0.7880  1.5010
 1157SOL    MW4 4396   2.408   4.613   4.587  0.1472 -0.4362  0.1610
 1158SOL     OW 4397   3.977   5.411   3.412 -0.5672 -0.2284  0.0112
 1158SOL    HW2 4398   4.038   5.423   3.484 -1.2518  0.8025  0.4432
 1158SOL    HW3 4399   4.003   5.328   3.372  0.2811 -0.4553  0.9907
 1158SOL    MW4 4400   3.988   5.402   3.416  0.2960  0.4096 -0.3722
 1159SOL     OW 4401   0.099   3.825   1.772  0.1367 -0.0754 -0.6459
 1159SOL    HW2 4402   0.160   3.879   1.722  0.9825 -0.2540  0.1636
 1159SOL    HW3 4403   0.062   3.765   1.708  0.9953 -0.1207 -1.1191
 1159SOL    MW4 4404   0.102   3.824   1.757  0.3980 -0.0315 -0.1355
 1160SOL     OW 4405   3.468   2.372   5.797  0.1092  0.2261  0.5177
 1160SOL    HW2 4406   3.445   2.280   5.790 -0.3818  0.2172  1.8584
 1160SOL    HW3 4407   3.433   2.412   5.718  0.7503 -0.7939 -0.3199
 1160SOL    MW4 4408   3.461   2.365   5.786  0.0434  0.7103 -0.5776
 1161SOL     OW 4409   4.407   5.992   1.958 -0.2501  0.1332 -0.1492
 1161SOL    HW2 4410   4.313   5.977   1.964 -0.2469  0.2492  0.2533
 1161SOL    HW3 4411   4.434   6.011   2.048  0.1082  0.3946 -0.3076
 1161SOL    MW4 4412   4.398   5.993   1.971 -0.2921  0.0997 -0.3047
 1162SOL     OW 4413   0.446   1.291   4.961  0.1681  0.5636  0.1035
 1162SOL    HW2 4414   0.380   1.223   4.973  0.6150  0.0122 -0.5240
 1162SOL    HW3 4415   0.529   1.245   4.961  0.3970  0.8831 -1.8914
 1162SOL    MW4 4416   0.448   1.276   4.963 -0.6654 -0.1807 -0.2763
 1163SOL     OW 4417   3.936   5.667   4.618 -0.2601  0.3098  0.8446
 1163SOL    HW2 4418   3.990   5.673   4.697  2.3502 -0.4779 -0.7386
 1163SOL    HW3 4419   3.927   5.757   4.588 -1.0569  0.5886  1.8781
 1163SOL    MW4 4420   3.942   5.679   4.624  0.5109  0.0824  0.4495
 1164SOL     OW 4421   4.329   0.797   2.937 -0.2556 -0.0048 -0.3473
 1164SOL    HW2 4422   4.390   0.788   3.010 -1.5684 -0.2180  0.7599
 1164SOL    HW3 4423   4.380   0.770   2.860  0.5716 -1.7933  0.7599
 1164SOL    MW4 4424   4.344   0.792   2.936  0.4886  0.2531  0.5727
 1165SOL     OW 4425   0.929   2.731   0.120  0.7033  0.0193 -0.2107
 1165SOL    HW2 4426   0.922   2.705   0.212 -0.5683  1.7541  0.2454
 1165SOL    HW3 4427   0.873   2.808   0.113 -1.6943 -1.7751 -3.1423
 1165SOL    MW4 4428   0.921   2.738   0.132 -0.8338  0.0593 -0.0561
 1166SOL     OW 4429   5.126   3.547   4.771 -0.4396 -0.8034 -0.0240
 1166SOL    HW2 4430   5.052   3.526   4.714  0.0265 -0.1167 -0.9232
 1166SOL    HW3 4431   5.134   3.473   4.830 -1.1930 -1.3548 -0.6045
 1166SOL    MW4 4432   5.117   3.535   4.771 -0.0230 -0.0459 -0.3464
 1167SOL     OW 4433   0.760   4.902   2.634  0.1458 -0.6722  0.0896
 1167SOL    HW2 4434   0.695   4.873   2.570 -1.8259 -1.3226  2.2331
 1167SOL    HW3 4435   0.781   4.823   2.684  1.6142 -0.1884  0.2709
 1167SOL    MW4 4436   0.754   4.887   2.632 -0.0090  0.4806 -0.0039
 1168SOL     OW 4437   3.649   0.210   1.739  0.1438 -0.2209 -0.2896
 1168SOL    HW2 4438   3.725   0.256   1.773 -0.3528  0.5895 -0.2619
 1168SOL    HW3 4439   3.676   0.118   1.738  1.2363  0.0841 -0.6002
 1168SOL    MW4 4440   3.663   0.204   1.743 -0.5940 -0.5642 -0.2496
 1169SOL     OW 4441   1.934   6.362   5.812  0.4707 -0.4873 -0.4396
 1169SOL    HW2 4442   1.884   6.363   5.731  0.2282  0.1624 -0.2961
 1169SOL    HW3 4443   1.915   6.277   5.851 -1.0672 -0.0161 -0.0783
 1169SOL    MW4 4444   1.925   6.351   5.807 -0.2392 -0.4853  0.0016
 1170SOL     OW 4445   4.637   1.182   3.085  0.3744 -0.3998 -0.1993
 1170SOL    HW2 4446   4.618   1.268   3.121 -2.4424 -1.2012  0.5014
 1170SOL    HW3 4447   4.694   1.141   3.151  0.7643  0.4899  0.0295
 1170SOL    MW4 4448   4.642   1.188   3.099  0.0103 -0.8184 -0.6527
 1171SOL     OW 4449   5.431   2.910   0.650  0.3223  0.4934 -0.3052
 1171SOL    HW2 4450   5.417   2.816   0.656 -0.4872  0.6659  0.6889
 1171SOL    HW3 4451   5.424   2.942   0.740  0.8576  1.4717 -0.5915
 1171SOL    MW4 4452   5.428   2.902   0.662 -0.9075  0.3475 -0.0296
 1172SOL     OW 4453   3.154   0.394   0.351  0.3019  1.0795 -0.3503
 1172SOL    HW2 4454   3.210   0.380   0.274 -0.1106 -1.7308 -0.2412
 1172SOL    HW3 4455   3.065   0.389   0.318  0.1094 -1.0201  0.3857
 1172SOL    MW4 4456   3.150   0.392   0.337 -0.0027 -0.3257 -0.7262
 1173SOL     OW 4457   0.722   2.758   3.082  0.7360  0.1002 -0.3268
 1173SOL    HW2 4458   0.639   2.709   3.076  0.6803  0.3244 -1.9710
 1173SOL    HW3 4459   0.700   2.846   3.053  1.1121  0.8075  1.4065
 1173SOL    MW4 4460   0.708   2.763   3.077  0.1601  0.2935  0.6637
 1174SOL     OW 4461   6.144   0.074   3.226 -0.6136  0.1592  0.3224
 1174SOL    HW2 4462   6.234   0.101   3.209  0.2310 -2.5673 -0.0575
 1174SOL    HW3 4463   6.091   0.131   3.171  1.0956  0.2603 -1.3299
 1174SOL    MW4 4464   6.149   0.085   3.216 -0.5245  0.1045 -0.0365
 1175SOL     OW 4465   3.698   6.257   4.111  0.3268  0.1825  0.1575
 1175SOL    HW2 4466   3.775   6.283   4.163 -0.3588  1.9138  0.3755
 1175SOL    HW3 4467   3.624   6.273   4.169 -0.3003 -0.2584 -0.5039
 1175SOL    MW4 4468   3.699   6.262   4.126  0.5874 -0.1552 -0.0363
 1176SOL     OW 4469   4.929   5.877   5.377 -0.1917  0.2244 -0.0298
 1176SOL    HW2 4470   4.910   5.871   5.471 -0.0305  0.6666  0.0312
 1176SOL    HW3 4471   4.973   5.961   5.366  1.6076 -0.6666 -0.1834
 1176SOL    MW4 4472   4.932   5.887   5.388  0.2702  0.5520 -0.0711
 1177SOL     OW 4473   4.819   1.640   2.793 -0.2378  0.1707 -0.4543
 1177SOL    HW2 4474   4.843   1.719   2.745 -1.8315  2.0807  1.6318
 1177SOL    HW3 4475   4.895   1.619   2.847 -0.0846  0.7902 -0.4310
 1177SOL    MW4 4476   4.832   1.648   2.794 -0.2095 -0.5700 -0.8495
 1178SOL     OW 4477   6.288   3.541   4.825  0.5385  0.2040  0.4698
 1178SOL    HW2 4478   6.346   3.510   4.896 -0.6503  0.7967  1.7464
 1178SOL    HW3 4479   6.309   3.634   4.816 -0.6819  0.5986  1.4521
 1178SOL    MW4 4480   6.299   3.549   4.833  0.7844  0.0334 -0.8570
 1179SOL     OW 4481   3.695   4.468   3.746 -0.0597 -0.2462 -0.2960
 1179SOL    HW2 4482   3.755   4.398   3.774 -0.4027 -0.8580 -1.0435
 1179SOL    HW3 4483   3.681   4.521   3.825 -1.1670 -2.0288  0.7983
 1179SOL    MW4 4484   3.701   4.466   3.761 -0.2727 -0.2705 -0.3968
 1180SOL     OW 4485   2.069   0.123   3.768  0.1063  0.0162 -0.4204
 1180SOL    HW2 4486   2.066   0.034   3.732 -1.8744  0.3952 -1.3368
 1180SOL    HW3 4487   2.162   0.141   3.781  0.5508 -2.0784 -0.4869
 1180SOL    MW4 4488   2.081   0.114   3.765 -0.0353  0.0778 -0.4294
 1181SOL     OW 4489   1.202   0.268   2.479  0.0669  0.0696 -0.1476
 1181SOL    HW2 4490   1.267   0.206   2.445 -0.2335 -0.4857  0.2736
 1181SOL    HW3 4491   1.226   0.281   2.570  0.6225  1.2393 -0.4430
 1181SOL    MW4 4492   1.214   0.262   2.486 -0.9346 -0.8130 -0.6420
 1182SOL     OW 4493   1.016   2.082   0.118  0.7849  0.1866 -0.4521
 1182SOL    HW2 4494   0.990   2.057   0.029  1.3141  0.1388 -0.5959
 1182SOL    HW3 4495   0.945   2.050   0.173  1.3008 -1.3841 -0.6580
 1182SOL    MW4 4496   1.003   2.074   0.113  0.4037 -0.6817 -0.1289
 1183SOL     OW 4497   4.050   0.788   2.147 -0.0389 -0.3100  0.5574
 1183SOL    HW2 4498   4.054   0.740   2.065  1.0177 -0.2257  0.5422
 1183SOL    HW3 4499   4.019   0.725   2.211  1.8916 -1.2382  0.6588
 1183SOL    MW4 4500   4.047   0.774   2.145  0.2684  0.5638  0.4274
 1184SOL     OW 4501   6.382   3.788   0.586  0.1021  0.4514  0.3868
 1184SOL    HW2 4502   6.476   3.789   0.600 -0.0285 -1.1971  1.6426
 1184SOL    HW3 4503   6.353   3.877   0.609  1.3636  1.1431 -0.5226
 1184SOL    MW4 4504   6.391   3.800   0.591  0.1868 -0.7794  0.7290
 1185SOL     OW 4505   4.402   1.327   1.063 -0.0097  0.3018  0.5068
 1185SOL    HW2 4506   4.465   1.297   0.997  1.8765  2.5502  1.1271
 1185SOL    HW3 4507   4.444   1.306   1.147 -0.6357  0.7808  0.9424
 1185SOL    MW4 4508   4.416   1.320   1.065  0.2159  0.6248 -0.0744
 1186SOL     OW 4509   2.616   2.488   4.956  0.4530  0.3098  0.2299
 1186SOL    HW2 4510   2.695   2.532   4.988  1.3185 -0.0719 -1.2755
 1186SOL    HW3 4511   2.577   2.550   4.895 -0.9013  0.8255  1.5464
 1186SOL    MW4 4512   2.621   2.502   4.952  0.3602  0.2545 -0.5633
 1187SOL     OW 4513   2.436   3.338   1.170 -0.8519  0.0642 -0.1642
 1187SOL    HW2 4514   2.463   3.255   1.130 -2.2783 -0.1586 -0.7095
 1187SOL    HW3 4515   2.503   3.400   1.142 -0.1244 -0.7604 -0.3024
 1187SOL    MW4 4516   2.449   3.335   1.161  0.2437 -0.5220  0.3688
 1188SOL     OW 4517   2.145   5.765   0.532  0.2713 -0.3046 -0.1480
 1188SOL    HW2 4518   2.155   5.858   0.549  1.7689 -0.4760  0.0759
 1188SOL    HW3 4519   2.088   5.760   0.455  0.9844  0.8366 -0.7712
 1188SOL    MW4 4520   2.139   5.776   0.524 -0.0039  0.6448  0.1774
 1189SOL     OW 4521   1.708   4.116   4.642 -0.1850 -0.6840 -0.5211
 1189SOL    HW2 4522   1.656   4.062   4.582  0.9625 -1.4041 -0.9136
 1189SOL    HW3 4523   1.656   4.195   4.655 -1.4786 -1.4686 -0.7027
 1189SOL    MW4 4524   1.695   4.119   4.636  0.6247 -0.4249  0.0743
 1190SOL     OW 4525   5.549   1.065   1.642  0.0060  0.4565  0.4632
 1190SOL    HW2 4526   5.611   1.007   1.687 -0.2815 -1.7339 -1.7381
 1190SOL    HW3 4527   5.480   1.081   1.706  3.2928  4.2118  3.5688
 1190SOL    MW4 4528   5.548   1.059   1.656 -0.3334  0.3605  0.6912
 1191SOL     OW 4529   0.871   4.600   5.556  0.4076 -0.4204 -0.1932
 1191SOL    HW2 4530   0.841   4.575   5.468 -1.1405 -0.1828  0.2390
 1191SOL    HW3 4531   0.843   4.691   5.566 -0.2013 -0.7023  0.8490
 1191SOL    MW4 4532   0.863   4.608   5.546 -0.3595  0.4730  0.3527
 1192SOL     OW 4533   2.349   2.698   0.469 -0.4736 -0.7559  0.2906
 1192SOL    HW2 4534   2.267   2.650   0.454  0.0829 -1.3118 -1.2479
 1192SOL    HW3 4535   2.387   2.656   0.546 -1.9929  0.0460  1.5280
 1192SOL    MW4 4536   2.343   2.686   0.477 -0.1545 -0.1108 -0.9466
 1193SOL     OW 4537   0.411   5.177   4.493 -0.1612  0.2058 -0.1509
 1193SOL    HW2 4538   0.483   5.239   4.506  0.2567 -0.0686 -1.0502
 1193SOL    HW3 4539   0.386   5.150   4.581  0.2788  0.9436  0.2072
 1193SOL    MW4 4540   0.417   5.181   4.506  0.3842  0.0444  0.2672
 1194SOL     OW 4541   3.683   4.425   4.145  0.0601  0.5419 -0.2780
 1194SOL    HW2 4542   3.667   4.487   4.075  1.3156  1.0394 -0.1452
 1194SOL    HW3 4543   3.615   4.358   4.134 -1.7457  2.2520 -0.0085
 1194SOL    MW4 4544   3.672   4.424   4.134  0.3577  0.3235  0.2773
 1195SOL     OW 4545   2.910   3.867   3.729  0.1960  0.6480 -0.5592
 1195SOL    HW2 4546   2.948   3.897   3.646  1.4164  1.5261  0.2776
 1195SOL    HW3 4547   2.856   3.792   3.705  1.3503  0.2300 -2.0303
 1195SOL    MW4 4548   2.908   3.861   3.715 -0.4353 -0.0201 -0.5938
 1196SOL     OW 4549   2.758   0.946   4.201  0.6991  0.1998 -0.2294
 1196SOL    HW2 4550   2.743   0.872   4.260 -1.9727  0.6444 -0.2226
 1196SOL    HW3 4551   2.843   0.980   4.228  1.3084 -1.9026  0.7996
 1196SOL    MW4 4552   2.767   0.941   4.213  0.6076 -0.2682  0.2827
 1197SOL     OW 4553   3.886   1.678   4.701  0.3837 -0.0837  0.1146
 1197SOL    HW2 4554   3.872   1.630   4.620 -0.0844 -2.3742  1.4552
 1197SOL    HW3 4555   3.864   1.768   4.680  0.2513 -0.6076 -2.2687
 1197SOL    MW4 4556   3.882   1.683   4.688 -0.5805  0.0455 -0.2052
 1198SOL     OW 4557   5.761   4.628   1.834  0.3308  0.2975  0.7206
 1198SOL    HW2 4558   5.726   4.682   1.764  0.9982  0.4455  0.4902
 1198SOL    HW3 4559   5.694   4.629   1.903 -1.7466 -2.2571 -1.0446
 1198SOL    MW4 4560   5.748   4.635   1.834  1.0251  0.2205 -0.3457
 1199SOL     OW 4561   3.200   3.378   1.344 -0.0474 -0.3332  0.3378
 1199SOL    HW2 4562   3.282   3.382   1.294  0.0332 -0.2383  0.4764
 1199SOL    HW3 4563   3.180   3.285   1.350 -0.1172 -0.3375  0.0298
 1199SOL    MW4 4564   3.208   3.366   1.338 -0.3460  0.2390  0.1451
 1200SOL     OW 4565   0.347   3.036   1.579  0.0285 -0.0801  0.2146
 1200SOL    HW2 4566   0.317   3.024   1.669  0.9527  1.9684  0.8414
 1200SOL    HW3 4567   0.301   3.114   1.549  1.5857  0.7215 -0.2011
 1200SOL    MW4 4568   0.337   3.045   1.587  0.5593 -0.0700  0.5287
 1201SOL     OW 4569   5.437   1.213   0.053  0.5064 -0.0087 -0.3583
 1201SOL    HW2 4570   5.527   1.205   0.087 -0.2516 -3.6948  1.2527
 1201SOL    HW3 4571   5.435   1.156  -0.024 -0.4011  0.2702 -0.5555
 1201SOL    MW4 4572   5.449   1.204   0.047 -0.5032 -0.6969 -0.3892
 1202SOL     OW 4573   6.370   3.768   1.997 -0.1542  0.0333  0.4354
 1202SOL    HW2 4574   6.427   3.786   1.921 -0.1152  1.0700  0.6887
 1202SOL    HW3 4575   6.288   3.740   1.958 -0.8449  2.5528 -0.1396
 1202SOL    MW4 4576   6.367   3.767   1.982 -0.0962 -0.2649 -0.4302
 1203SOL     OW 4577   5.860   1.447   5.355  0.8561  0.1824  0.2950
 1203SOL    HW2 4578   5.881   1.361   5.318 -1.0868  0.6835 -2.2220
 1203SOL    HW3 4579   5.942   1.496   5.349  1.6261 -1.0308  0.4931
 1203SOL    MW4 4580   5.874   1.442   5.349  0.3456 -0.8478 -0.0021
 1204SOL     OW 4581   3.504   4.677   6.219  0.1521 -0.0549 -0.6347
 1204SOL    HW2 4582   3.434   4.691   6.155 -0.2692 -0.2988 -0.2378
 1204SOL    HW3 4583   3.527   4.765   6.249  1.5836  0.2215 -2.3838
 1204SOL    MW4 4584   3.498   4.690   6.215 -0.5786  0.0595 -0.3623
 1205SOL     OW 4585   1.925   0.945   3.455 -0.3299 -0.3765 -0.1681
 1205SOL    HW2 4586   1.879   0.908   3.379 -0.4934  0.6061 -0.5721
 1205SOL    HW3 4587   2.004   0.984   3.419 -1.7468  2.6048 -0.3528
 1205SOL    MW4 4588   1.929   0.945   3.440 -0.0086 -0.0479 -0.4744
 1206SOL     OW 4589   3.778   1.465   1.474  0.0225 -0.0997 -0.0110
 1206SOL    HW2 4590   3.794   1.448   1.567  0.5130 -0.3543 -0.1415
 1206SOL    HW3 4591   3.785   1.379   1.432 -0.5948 -0.0476 -0.2299
 1206SOL    MW4 4592   3.781   1.451   1.481 -0.4682  0.4807  0.1053
 1207SOL     OW 4593   5.075   2.859   4.907 -0.0975  0.4713 -0.4228
 1207SOL    HW2 4594   5.058   2.940   4.955  0.0549  0.9448 -1.1492
 1207SOL    HW3 4595   5.017   2.863   4.831 -1.1864 -0.8237  0.3018
 1207SOL    MW4 4596   5.065   2.870   4.903  0.1402  0.2575  0.0519
 1208SOL     OW 4597   2.775   5.621   4.918  0.2158 -0.3973  0.3505
 1208SOL    HW2 4598   2.701   5.637   4.860  0.9517  0.4762 -0.3846
 1208SOL    HW3 4599   2.850   5.660   4.873  0.7066  0.8862  2.1452
 1208SOL    MW4 4600   2.776   5.628   4.905  0.0783  0.1827  0.0811
 1209SOL     OW 4601   2.553   0.162   2.490  0.6744  0.1320  0.2472
 1209SOL    HW2 4602   2.584   0.245   2.527  1.3293  0.6038 -1.3006
 1209SOL    HW3 4603   2.459   0.163   2.506  0.8564  0.5551  1.4124
 1209SOL    MW4 4604   2.545   0.173   2.497  0.1107  0.0613  0.4940
 1210SOL     OW 4605   5.211   3.376   6.326 -0.2858  0.5043  0.2956
 1210SOL    HW2 4606   5.294   3.421   6.343  0.2292 -0.6330  0.8283
 1210SOL    HW3 4607   5.148   3.420   6.384  0.7822 -1.1936  2.8711
 1210SOL    MW4 4608   5.213   3.388   6.336  0.0645  0.1313 -0.5773
 1211SOL     OW 4609   3.836   0.016   2.074 -0.1701  0.0414 -0.6964
 1211SOL    HW2 4610   3.895  -0.010   2.145 -0.3973 -3.0526 -1.4911
 1211SOL    HW3 4611   3.751   0.027   2.116 -0.2913 -1.7128 -0.4085
 1211SOL    MW4 4612   3.833   0.014   2.089  0.4505  0.6284 -0.1446
 1212SOL     OW 4613   2.380   5.814   5.228  0.9625  0.4310  0.5984
 1212SOL    HW2 4614   2.424   5.729   5.231 -1.0219 -0.7194 -0.3631
 1212SOL    HW3 4615   2.430   5.865   5.165  1.1570 -0.6973 -0.1899
 1212SOL    MW4 4616   2.392   5.810   5.220 -0.3505  0.1060  0.3070
 1213SOL     OW 4617   0.241   4.780   2.001  0.0462  0.4873  0.0559
 1213SOL    HW2 4618   0.224   4.741   2.087  0.8528  0.8373  0.3941
 1213SOL    HW3 4619   0.293   4.858   2.021  0.5952  0.3459 -0.7772
 1213SOL    MW4 4620   0.246   4.786   2.015 -0.7123  0.5811  0.8499
 1214SOL     OW 4621   3.641   1.204   4.742  0.3628  0.2559 -0.1494
 1214SOL    HW2 4622   3.566   1.183   4.798  1.1587 -0.1189  0.8122
 1214SOL    HW3 4623   3.695   1.261   4.797  0.7169  0.6320 -0.8835
 1214SOL    MW4 4624   3.638   1.209   4.757  0.0348  0.1072 -0.0727
 1215SOL     OW 4625   3.407   0.524   3.688  0.1119  0.2136 -0.2271
 1215SOL    HW2 4626   3.324   0.561   3.658 -0.5259 -0.5414  0.5909
 1215SOL    HW3 4627   3.402   0.526   3.783  1.0129  0.1074 -0.1664
 1215SOL    MW4 4628   3.395   0.529   3.696 -0.2203  0.0997 -0.0265
 1216SOL     OW 4629   1.538   5.340   3.171  0.4294 -0.0714 -0.2030
 1216SOL    HW2 4630   1.552   5.256   3.214 -0.0534 -0.1803 -0.2474
 1216SOL    HW3 4631   1.617   5.391   3.190  0.7270 -0.5349 -0.1821
 1216SOL    MW4 4632   1.550   5.335   3.179 -0.1935  0.6985  0.4819
 1217SOL     OW 4633   3.841   0.991   2.113 -0.0338  0.3262 -0.6409
 1217SOL    HW2 4634   3.771   0.933   2.082 -1.3295  1.1882  0.5556
 1217SOL    HW3 4635   3.911   0.932   2.138 -0.5081 -0.6003 -1.4230
 1217SOL    MW4 4636   3.841   0.976   2.112 -0.3253 -0.6627  0.1618
 1218SOL     OW 4637   3.365   1.777   0.035  0.1912 -0.3687 -0.6013
 1218SOL    HW2 4638   3.285   1.829   0.045  0.1968 -0.6108  0.9852
 1218SOL    HW3 4639   3.343   1.692   0.074  1.1077 -0.5594 -0.4861
 1218SOL    MW4 4640   3.351   1.772   0.042 -0.0773 -0.3100 -0.1009
 1219SOL     OW 4641   2.131   2.953   0.618 -0.3128 -0.2065 -0.2102
 1219SOL    HW2 4642   2.089   2.908   0.545  0.9123 -1.2719 -0.2957
 1219SOL    HW3 4643   2.172   3.030   0.579  1.0537 -1.2153 -0.8283
 1219SOL    MW4 4644   2.131   2.957   0.603 -0.7097 -0.0286  0.2923
 1220SOL     OW 4645   1.197   3.319   2.828  0.4685  0.1398 -0.8197
 1220SOL    HW2 4646   1.222   3.376   2.756 -1.3230  0.0853 -1.5284
 1220SOL    HW3 4647   1.271   3.258   2.837  2.4812  2.5353  0.0318
 1220SOL    MW4 4648   1.210   3.318   2.820  0.0160  0.6188 -0.1685
 1221SOL     OW 4649   4.959   2.912   2.458 -0.0970  0.2787 -0.0369
 1221SOL    HW2 4650   5.015   2.851   2.411  0.5310 -0.0062  1.0490
 1221SOL    HW3 4651   4.915   2.858   2.524 -0.8376  0.7015 -0.1666
 1221SOL    MW4 4652   4.961   2.897   2.461 -0.2112  0.2402 -0.6668
 1222SOL     OW 4653   5.597   4.294   5.198 -0.6938 -0.0896 -0.1936
 1222SOL    HW2 4654   5.543   4.339   5.263 -0.6607 -1.2338  0.6665
 1222SOL    HW3 4655   5.681   4.281   5.242 -0.6268 -0.7719 -0.5155
 1222SOL    MW4 4656   5.601   4.298   5.212  0.3114  0.0267  0.2193
 1223SOL     OW 4657   0.254   5.943   4.548  0.2055 -0.2493  0.1789
 1223SOL    HW2 4658   0.201   5.926   4.470  0.8930  1.6527 -0.7855
 1223SOL    HW3 4659   0.204   5.905   4.620 -0.9619 -1.1483 -1.0544
 1223SOL    MW4 4660   0.240   5.936   4.547 -0.1554 -0.2098 -0.2875
 1224SOL     OW 4661   3.900   1.495   2.108  0.7879  0.2453  0.3944
 1224SOL    HW2 4662   3.908   1.578   2.061  3.3941 -0.3248 -0.3880
 1224SOL    HW3 4663   3.812   1.464   2.089  0.3054  2.0921 -0.5840
 1224SOL    MW4 4664   3.890   1.502   2.100 -0.6825  0.2105 -0.6464
 1225SOL     OW 4665   6.166   3.799   5.855 -0.3201  0.2915 -0.0673
 1225SOL    HW2 4666   6.237   3.859   5.877 -0.2891  0.3096 -0.2179
 1225SOL    HW3 4667   6.107   3.850   5.800  0.7989 -0.4259 -2.0236
 1225SOL    MW4 4668   6.168   3.813   5.851 -0.5482  0.0201 -0.4873
 1226SOL     OW 4669   6.234   5.232   1.489 -0.1143 -0.3039  0.2680
 1226SOL    HW2 4670   6.207   5.230   1.580  0.0643 -0.7200  0.3119
 1226SOL    HW3 4671   6.158   5.201   1.440 -0.7702  1.3947  0.1314
 1226SOL    MW4 4672   6.221   5.228   1.494 -0.1930  0.1293  0.0188
 1227SOL     OW 4673   3.501   3.071   5.627  0.2083  0.0082 -0.2369
 1227SOL    HW2 4674   3.566   3.133   5.660  0.3878 -0.7198  0.8564
 1227SOL    HW3 4675   3.419   3.120   5.626  0.6088  0.6694 -0.7435
 1227SOL    MW4 4676   3.499   3.085   5.631 -0.3133 -0.0775  0.4442
 1228SOL     OW 4677   5.919   4.242   4.699 -0.5102  0.2599  0.1495
 1228SOL    HW2 4678   5.861   4.259   4.773  0.3226  0.6307  0.7359
 1228SOL    HW3 4679   5.872   4.178   4.645 -1.4383  0.5339  0.6218
 1228SOL    MW4 4680   5.905   4.236   4.701  0.1553 -1.1652  0.0849
 1229SOL     OW 4681   4.933   1.667   2.094  0.1859 -0.2622 -0.1014
 1229SOL    HW2 4682   4.874   1.670   2.019  0.4304 -2.5821 -0.4688
 1229SOL    HW3 4683   4.879   1.630   2.165  0.1899  1.1372  0.6671
 1229SOL    MW4 4684   4.918   1.662   2.094 -0.2728  0.4423  0.1974
 1230SOL     OW 4685   1.277   3.824   0.398  0.1014  0.6297  0.6679
 1230SOL    HW2 4686   1.237   3.860   0.477 -0.1775  0.1962  0.7260
 1230SOL    HW3 4687   1.370   3.814   0.421 -0.0895 -0.0711  1.1521
 1230SOL    MW4 4688   1.284   3.827   0.412 -0.0159 -0.1137  0.2015
 1231SOL     OW 4689   3.254   1.876   1.103 -0.3646  0.2042 -0.2173
 1231SOL    HW2 4690   3.328   1.856   1.159 -0.5334  1.1681  0.3543
 1231SOL    HW3 4691   3.234   1.968   1.119 -2.1593 -0.2112  0.2185
 1231SOL    MW4 4692   3.261   1.885   1.112  0.0923 -0.6552  0.1934
 1232SOL     OW 4693   5.140   1.598   0.560  0.0428 -0.5675 -0.4050
 1232SOL    HW2 4694   5.191   1.615   0.481 -0.7444 -2.0229 -1.2741
 1232SOL    HW3 4695   5.150   1.504   0.576 -0.9569 -0.5648  0.3837
 1232SOL    MW4 4696   5.148   1.588   0.551  0.1972 -0.0055 -0.1070
 1233SOL     OW 4697   3.647   6.258   4.479 -0.5189 -0.0402 -0.0489
 1233SOL    HW2 4698   3.617   6.210   4.556  1.5119  0.8978  1.3987
 1233SOL    HW3 4699   3.678   6.342   4.514  0.0469  0.5897 -1.9643
 1233SOL    MW4 4700   3.647   6.263   4.494  0.0618 -0.7247  0.0775
 1234SOL     OW 4701   3.754   0.801   0.615  0.3435 -0.9310  0.2496
 1234SOL    HW2 4702   3.788   0.766   0.697 -1.4680 -1.2207  0.9206
 1234SOL    HW3 4703   3.713   0.726   0.572  1.0054 -0.7163 -0.7974
 1234SOL    MW4 4704   3.753   0.786   0.620 -0.5326  0.1031  0.4985
 1235SOL     OW 4705   0.832   2.981   3.978 -0.5557 -0.4508  0.2786
 1235SOL    HW2 4706   0.769   3.004   4.046  0.1673 -1.8184  1.4649
 1235SOL    HW3 4707   0.801   3.027   3.900 -2.0031  0.3183  1.2582
 1235SOL    MW4 4708   0.820   2.990   3.977  0.2165  0.1750 -0.3630
 1236SOL     OW 4709   1.450   4.876   0.682  0.2891  0.0862 -0.4672
 1236SOL    HW2 4710   1.430   4.783   0.697 -2.6960  0.3587 -2.0287
 1236SOL    HW3 4711   1.384   4.923   0.733  1.2510  1.3452 -0.3528
 1236SOL    MW4 4712   1.439   4.870   0.691  0.7032  0.2099 -0.0252
 1237SOL     OW 4713   0.474   6.087   2.095  0.3144 -0.7947 -0.5944
 1237SOL    HW2 4714   0.497   6.080   2.188  1.6262 -0.9951 -0.9140
 1237SOL    HW3 4715   0.402   6.026   2.084  1.1551 -1.9363 -0.0146
 1237SOL    MW4 4716   0.468   6.078   2.106 -0.1344  1.1439  0.0308
 1238SOL     OW 4717   3.410   5.161   0.981 -0.1374  0.1513 -0.0647
 1238SOL    HW2 4718   3.440   5.098   0.916  1.2953 -0.1300  0.8200
 1238SOL    HW3 4719   3.482   5.224   0.989 -0.8570  0.9632  0.2739
 1238SOL    MW4 4720   3.423   5.161   0.973  0.1751  0.3532 -0.4595
 1239SOL     OW 4721   1.228   3.577   0.537 -0.4159  0.6930 -0.5500
 1239SOL    HW2 4722   1.243   3.527   0.458  2.3846 -0.7357  0.7542
 1239SOL    HW3 4723   1.268   3.662   0.520  1.1655  0.0158 -0.3437
 1239SOL    MW4 4724   1.235   3.582   0.525  0.0702  0.0361 -0.0177
 1240SOL     OW 4725   5.525   0.291   5.176 -0.1645 -0.1556 -0.5207
 1240SOL    HW2 4726   5.596   0.230   5.194 -0.4286 -0.4713 -0.5541
 1240SOL    HW3 4727   5.555   0.374   5.214  0.9296  0.1369 -1.9466
 1240SOL    MW4 4728   5.539   0.294   5.183 -0.3574 -0.3352 -0.2463
 1241SOL     OW 4729   1.617   3.080   2.132 -0.0100  0.5395 -0.7421
 1241SOL    HW2 4730   1.679   3.018   2.172 -1.3679 -1.0934 -1.0444
 1241SOL    HW3 4731   1.563   3.111   2.204 -0.1295  0.4102 -0.7763
 1241SOL    MW4 4732   1.618   3.076   2.146 -0.0799  0.2074  0.3359
 1242SOL     OW 4733   1.430   2.367   4.343  0.1491  0.1965  0.3079
 1242SOL    HW2 4734   1.499   2.318   4.389 -1.6907 -1.3820  1.5071
 1242SOL    HW3 4735   1.375   2.402   4.413  0.3148  2.4266 -0.6026
 1242SOL    MW4 4736   1.432   2.365   4.358  0.3719  0.1928  0.5393
 1243SOL     OW 4737   4.336   5.930   1.563  0.1041 -0.4109  0.6527
 1243SOL    HW2 4738   4.337   6.025   1.555  2.2694 -0.5199 -1.8670
 1243SOL    HW3 4739   4.281   5.901   1.490  0.4977 -1.1204  0.6305
 1243SOL    MW4 4740   4.329   5.938   1.552 -0.3125 -0.0526  0.3220
 1244SOL     OW 4741   5.453   1.784   4.647  0.5925  0.4959  0.1694
 1244SOL    HW2 4742   5.381   1.809   4.705 -0.9753  0.3382 -1.6152
 1244SOL    HW3 4743   5.474   1.694   4.671 -1.0812 -0.1051 -0.4453
 1244SOL    MW4 4744   5.446   1.776   4.657  0.7085 -0.5278 -0.2603
 1245SOL     OW 4745   5.982   2.044   2.134  0.2136 -0.5819  0.3279
 1245SOL    HW2 4746   5.999   1.951   2.118  0.0827 -0.7025  0.8546
 1245SOL    HW3 4747   5.992   2.054   2.229 -1.8454 -0.5046  0.5882
 1245SOL    MW4 4748   5.986   2.033   2.145 -0.2878  1.3043  0.2866
 1246SOL     OW 4749   3.080   3.427   1.020 -0.0294  0.5525  0.1819
 1246SOL    HW2 4750   3.114   3.476   0.945  0.5753  0.5533  0.4529
 1246SOL    HW3 4751   2.991   3.404   0.995 -0.4078  1.9940  0.1474
 1246SOL    MW4 4752   3.073   3.430   1.006  0.0109 -1.0816 -0.6966
 1247SOL     OW 4753   1.886   6.222   3.396  0.3604  0.1295 -0.2948
 1247SOL    HW2 4754   1.884   6.183   3.483  0.1860  0.8555  0.0357
 1247SOL    HW3 4755   1.974   6.205   3.364  0.6512  0.4599  0.3129
 1247SOL    MW4 4756   1.897   6.215   3.403  0.2737  0.1214 -0.4421
 1248SOL     OW 4757   0.477   6.003   1.055  0.4260 -0.0534  0.4651
 1248SOL    HW2 4758   0.443   6.002   0.966  0.7193 -0.8882  0.3566
 1248SOL    HW3 4759   0.430   6.075   1.097 -1.8577 -1.4097  0.4567
 1248SOL    MW4 4760   0.466   6.012   1.049 -0.3060  0.3243  0.5540
 1249SOL     OW 4761   5.783   2.483   3.627  0.0619 -0.3011 -0.1642
 1249SOL    HW2 4762   5.732   2.426   3.683  1.7398 -3.1301 -1.2912
 1249SOL    HW3 4763   5.718   2.539   3.584 -1.5211 -0.2823  2.0967
 1249SOL    MW4 4764   5.768   2.483   3.628  0.8592 -0.6180  0.4827
 1250SOL     OW 4765   0.064   0.268   2.803  0.1162  0.0880  0.4480
 1250SOL    HW2 4766   0.058   0.332   2.733 -0.1384 -1.7481 -1.2822
 1250SOL    HW3 4767   0.112   0.314   2.873  1.2075  1.6800 -1.2510
 1250SOL    MW4 4768   0.069   0.282   2.803 -0.2941 -0.4257 -0.5458
 1251SOL     OW 4769   0.445   2.590   0.609 -0.5656  0.1926 -0.4950
 1251SOL    HW2 4770   0.422   2.578   0.701  1.4585  1.3401  0.2208
 1251SOL    HW3 4771   0.368   2.632   0.570 -1.4766 -0.3765  0.6336
 1251SOL    MW4 4772   0.432   2.594   0.616  0.9259  0.0151  0.7951
 1252SOL     OW 4773   4.420   5.959   5.836  0.1333 -0.3061 -0.9634
 1252SOL    HW2 4774   4.500   5.999   5.800 -0.3742 -0.6464 -2.5553
 1252SOL    HW3 4775   4.415   5.991   5.926  2.1680 -0.4358 -0.7575
 1252SOL    MW4 4776   4.430   5.968   5.843  0.0381  0.0346 -0.0701
 1253SOL     OW 4777   4.793   6.342   1.778  0.7540  0.5840 -0.2426
 1253SOL    HW2 4778   4.796   6.324   1.684 -0.2247 -1.3072  0.0284
 1253SOL    HW3 4779   4.711   6.302   1.808  1.4493  0.3751  1.5442
 1253SOL    MW4 4780   4.783   6.334   1.770 -0.4880  0.4370  0.3874
 1254SOL     OW 4781   3.897   0.033   2.932  0.5774 -0.3835  0.2848
 1254SOL    HW2 4782   3.909  -0.061   2.923 -0.9384 -0.6701  0.9512
 1254SOL    HW3 4783   3.823   0.054   2.875  0.0230  0.1570  1.1760
 1254SOL    MW4 4784   3.889   0.024   2.923  0.0379 -0.2889  0.6506
 1255SOL     OW 4785   1.791   0.605   5.255  0.2788  0.2033  0.2869
 1255SOL    HW2 4786   1.755   0.554   5.328  2.3276  0.0206  1.2314
 1255SOL    HW3 4787   1.790   0.695   5.287 -0.8947  0.4460 -0.3688
 1255SOL    MW4 4788   1.786   0.610   5.269 -0.4442 -0.1250  0.3202
 1256SOL     OW 4789   3.793   1.130   0.209 -0.1239  0.2600  0.1941
 1256SOL    HW2 4790   3.740   1.189   0.264  0.5659 -0.9795  2.3273
 1256SOL    HW3 4791   3.882   1.167   0.213  0.2271 -0.6303  1.1985
 1256SOL    MW4 4792   3.798   1.143   0.217  0.1018 -0.1134 -0.3538
 1257SOL     OW 4793   2.949   0.499   5.776  0.1846 -0.7007  0.4431
 1257SOL    HW2 4794   2.959   0.413   5.818  2.2200 -0.4890  0.5262
 1257SOL    HW3 4795   2.957   0.562   5.847 -3.2720 -0.3679  0.7044
 1257SOL    MW4 4796   2.952   0.496   5.791  0.3248 -0.5408 -0.2997
 1258SOL     OW 4797   0.834   4.448   3.174  0.2300 -0.6381 -0.5097
 1258SOL    HW2 4798   0.797   4.532   3.148 -2.4612 -1.0939  1.4161
 1258SOL    HW3 4799   0.896   4.426   3.105 -2.0165  0.9886 -3.2127
 1258SOL    MW4 4800   0.838   4.456   3.162 -0.0643 -0.0858 -0.0585
 1259SOL     OW 4801   6.168   0.648   2.827 -0.7458 -0.1713  0.2272
 1259SOL    HW2 4802   6.149   0.637   2.734  0.1154 -0.4602  0.0785
 1259SOL    HW3 4803   6.170   0.559   2.862 -1.0341 -0.0645  0.5115
 1259SOL    MW4 4804   6.166   0.635   2.819  0.5273  0.0839 -0.8828
 1260SOL     OW 4805   5.627   0.922   3.783  0.3763 -0.5832 -0.1408
 1260SOL    HW2 4806   5.685   0.964   3.847 -0.7877 -0.2243  0.7097
 1260SOL    HW3 4807   5.631   0.829   3.806  1.8833 -0.8055 -1.1536
 1260SOL    MW4 4808   5.635   0.915   3.794  0.1087  0.1870 -0.0045
 1261SOL     OW 4809   5.785   5.114   3.806  0.5455 -0.0997  0.2385
 1261SOL    HW2 4810   5.730   5.061   3.748 -1.9660  1.6119  0.8766
 1261SOL    HW3 4811   5.770   5.204   3.777 -0.8152  0.8439  3.4016
 1261SOL    MW4 4812   5.775   5.119   3.794  0.0046  0.2778 -0.0600
 1262SOL     OW 4813   3.689   0.585   2.099  0.1041 -0.4894 -0.0417
 1262SOL    HW2 4814   3.700   0.570   2.006 -0.3518 -2.5887  0.2098
 1262SOL    HW3 4815   3.658   0.676   2.105 -0.4036 -0.5081 -1.9507
 1262SOL    MW4 4816   3.686   0.595   2.088 -0.3622 -0.9031 -0.2690
 1263SOL     OW 4817   1.465   3.509   5.037 -0.0328 -0.1331 -0.2099
 1263SOL    HW2 4818   1.439   3.417   5.029  0.2859 -0.4048  1.4955
 1263SOL    HW3 4819   1.389   3.558   5.005 -0.6431 -0.9691 -0.0816
 1263SOL    MW4 4820   1.451   3.503   5.031  0.3724  0.3232 -1.1074
 1264SOL     OW 4821   2.457   2.123   1.431  0.0414 -0.3587 -0.2707
 1264SOL    HW2 4822   2.423   2.160   1.349  0.8008 -0.1808 -0.5095
 1264SOL    HW3 4823   2.473   2.200   1.486 -1.0744 -0.5093  0.3004
 1264SOL    MW4 4824   2.454   2.138   1.427  0.6933 -0.2065 -0.0457
 1265SOL     OW 4825   6.189   4.939   6.275  0.1475  0.5493 -0.0822
 1265SOL    HW2 4826   6.139   5.020   6.270 -0.1867  0.4543  1.3587
 1265SOL    HW3 4827   6.279   4.965   6.255 -0.2066  0.9852 -1.1741
 1265SOL    MW4 4828   6.194   4.953   6.272 -0.3086 -0.1891  0.0526
 1266SOL     OW 4829   1.582   1.909   2.356 -0.4076 -0.2337  0.0493
 1266SOL    HW2 4830   1.612   1.826   2.319  0.4307  0.1674 -0.1989
 1266SOL    HW3 4831   1.658   1.943   2.403 -1.1191 -0.1880  1.1861
 1266SOL    MW4 4832   1.596   1.903   2.357 -0.6164 -0.3265 -0.2123
 1267SOL     OW 4833   4.515   4.341   4.103  0.3062  0.0467 -0.3998
 1267SOL    HW2 4834   4.504   4.433   4.081  0.4370 -0.0857 -1.0309
 1267SOL    HW3 4835   4.530   4.341   4.198 -1.5183  0.5275 -0.0702
 1267SOL    MW4 4836   4.516   4.353   4.113 -0.3189 -0.6337  0.9432
 1268SOL     OW 4837   4.390   1.963   2.978 -0.0491 -0.4026  0.3068
 1268SOL    HW2 4838   4.441   2.040   3.001 -1.7766  0.5251  1.2448
 1268SOL    HW3 4839   4.392   1.959   2.883  0.7410  0.3181  0.2877
 1268SOL    MW4 4840   4.397   1.972   2.969  0.3575  0.2322 -0.1559
 1269SOL     OW 4841   2.183   5.420   3.498 -0.0591 -0.0359  0.5471
 1269SOL    HW2 4842   2.193   5.355   3.429  1.4360 -0.2100  0.9043
 1269SOL    HW3 4843   2.088   5.437   3.501 -0.4677 -2.1192  0.4156
 1269SOL    MW4 4844   2.172   5.414   3.489 -0.0885  0.5618  0.2105
 1270SOL     OW 4845   1.516   0.527   1.064 -0.1174 -0.6412  0.0034
 1270SOL    HW2 4846   1.495   0.616   1.091  0.0032 -0.6910  0.2663
 1270SOL    HW3 4847   1.595   0.505   1.114  0.2268 -0.6606 -0.5411
 1270SOL    MW4 4848   1.524   0.535   1.074 -0.6384  0.2279  0.6608
 1271SOL     OW 4849   1.910   3.650   5.972  0.4947 -0.1367 -0.5326
 1271SOL    HW2 4850   1.951   3.708   5.908  0.2658  1.3040  0.5920
 1271SOL    HW3 4851   1.856   3.591   5.920 -1.6847  2.5709 -1.5871
 1271SOL    MW4 4852   1.908   3.650   5.957  0.2556 -0.5786 -0.4530
 1272SOL     OW 4853   3.139   6.394   4.228 -0.1341 -0.1309  0.4533
 1272SOL    HW2 4854   3.164   6.343   4.305  0.4822  1.1688  1.1399
 1272SOL    HW3 4855   3.052   6.427   4.248 -0.4670 -0.7682  0.0771
 1272SOL    MW4 4856   3.131   6.391   4.241 -0.3241 -0.1042 -0.9643
 1273SOL     OW 4857   5.209   5.081   5.910  0.6370 -0.1273  0.2208
 1273SOL    HW2 4858   5.176   5.068   5.821  1.1032  1.2698 -0.1899
 1273SOL    HW3 4859   5.216   4.993   5.947  0.8701 -0.7589 -1.2733
 1273SOL    MW4 4860   5.205   5.068   5.903 -0.8313  0.0426 -0.2275
 1274SOL     OW 4861   0.737   0.726   1.679 -0.5384 -0.2159 -0.2482
 1274SOL    HW2 4862   0.769   0.816   1.668 -0.0056 -0.1325  1.6582
 1274SOL    HW3 4863   0.815   0.677   1.705 -1.0261 -1.0362 -0.3220
 1274SOL    MW4 4864   0.752   0.732   1.681 -0.0451  0.1090 -0.7622
 1275SOL     OW 4865   3.185   5.200   2.187 -0.0974  0.0998 -0.6451
 1275SOL    HW2 4866   3.240   5.124   2.165  0.1831  0.5777 -1.6389
 1275SOL    HW3 4867   3.104   5.161   2.221  0.8349 -0.6199  0.8828
 1275SOL    MW4 4868   3.182   5.185   2.189  0.2504 -0.5011  0.3749
 1276SOL     OW 4869   2.592   3.547   3.388 -0.1869  0.0982 -0.6224
 1276SOL    HW2 4870   2.662   3.538   3.324  0.7547 -0.0463  0.3868
 1276SOL    HW3 4871   2.521   3.590   3.341  0.1787 -0.7074 -1.9507
 1276SOL    MW4 4872   2.592   3.552   3.373 -0.2204 -0.2262  0.4016
 1277SOL     OW 4873   4.266   3.893   4.020  0.1869 -0.5551  0.2231
 1277SOL    HW2 4874   4.278   3.963   4.085 -0.2267 -0.5449  0.2890
 1277SOL    HW3 4875   4.351   3.848   4.018  0.3898 -0.1873  0.3376
 1277SOL    MW4 4876   4.279   3.897   4.028 -0.2034  0.3865  0.2427
 1278SOL     OW 4877   5.071   3.264   0.333  0.0636 -0.0029 -0.3894
 1278SOL    HW2 4878   5.124   3.199   0.379  2.5571  2.2221  0.0988
 1278SOL    HW3 4879   4.992   3.272   0.388  1.9461  0.9466  2.4079
 1278SOL    MW4 4880   5.068   3.256   0.346 -0.0411  0.2420 -0.0517
 1279SOL     OW 4881   0.981   1.275   1.083  0.1459  0.1380 -0.0864
 1279SOL    HW2 4882   0.929   1.339   1.132 -1.4837  0.3666 -2.0147
 1279SOL    HW3 4883   1.070   1.311   1.083 -0.5120  1.8516 -0.2092
 1279SOL    MW4 4884   0.986   1.288   1.090 -0.8367 -0.3202 -0.1362
 1280SOL     OW 4885   3.203   2.705   0.703 -0.6010 -0.5107 -0.1898
 1280SOL    HW2 4886   3.218   2.614   0.727  0.1561 -0.4841 -0.5197
 1280SOL    HW3 4887   3.149   2.740   0.774  0.3030 -0.8375  0.6857
 1280SOL    MW4 4888   3.198   2.698   0.716  0.1589 -0.1646 -0.4724
 1281SOL     OW 4889   5.671   5.034   2.415  0.1264 -1.0501  0.7154
 1281SOL    HW2 4890   5.685   5.061   2.505 -0.4097 -1.4956  0.9448
 1281SOL    HW3 4891   5.756   5.004   2.384 -0.2965 -4.4497  2.3131
 1281SOL    MW4 4892   5.684   5.033   2.423 -0.5930 -0.2662  0.4930
 1282SOL     OW 4893   3.111   4.680   0.219  0.5772  0.5152 -0.0454
 1282SOL    HW2 4894   3.201   4.659   0.245  0.6396  0.1601 -0.5167
 1282SOL    HW3 4895   3.091   4.763   0.262  0.9150  0.2890  0.5554
 1282SOL    MW4 4896   3.120   4.688   0.228 -0.4532 -0.5040  0.3842
 1283SOL     OW 4897   1.322   3.511   5.352  0.4924  0.4096 -0.2888
 1283SOL    HW2 4898   1.415   3.507   5.332  0.7461 -1.3698  1.0146
 1283SOL    HW3 4899   1.287   3.428   5.321 -0.8180  1.2931 -1.3144
 1283SOL    MW4 4900   1.329   3.500   5.345  0.2915 -0.0821  0.1935
 1284SOL     OW 4901   0.232   4.647   1.239  0.5255 -0.1047 -0.3036
 1284SOL    HW2 4902   0.170   4.667   1.168 -1.5148 -1.3490  1.0294
 1284SOL    HW3 4903   0.210   4.710   1.308 -0.2241 -1.4316  0.7008
 1284SOL    MW4 4904   0.220   4.658   1.239 -0.1376 -0.2632 -0.4859
 1285SOL     OW 4905   4.478   3.669   2.478 -0.1861 -0.1486 -0.4864
 1285SOL    HW2 4906   4.423   3.634   2.408 -1.7438  0.6357  0.2976
 1285SOL    HW3 4907   4.445   3.757   2.493  1.1413  0.2579  0.1942
 1285SOL    MW4 4908   4.467   3.676   2.471  0.0625  0.2530 -0.2021
 1286SOL     OW 4909   0.351   2.606   4.539 -0.2258  0.1578  0.2765
 1286SOL    HW2 4910   0.312   2.580   4.456  1.2347 -1.2463 -0.0212
 1286SOL    HW3 4911   0.407   2.533   4.564 -0.3353  0.6948  2.3326
 1286SOL    MW4 4912   0.354   2.593   4.531 -0.0248 -0.0621  0.2069
 1287SOL     OW 4913   5.221   4.815   0.242 -0.1340  0.3089 -0.3787
 1287SOL    HW2 4914   5.186   4.746   0.298  1.4932 -0.1170  0.1536
 1287SOL    HW3 4915   5.154   4.827   0.175 -0.5748 -1.6058 -0.3324
 1287SOL    MW4 4916   5.207   4.807   0.240 -0.6259 -0.8109  0.2216
 1288SOL     OW 4917   1.520   3.828   4.087  0.7282  0.0983  0.3489
 1288SOL    HW2 4918   1.564   3.756   4.042  0.2927  1.1466 -1.8651
 1288SOL    HW3 4919   1.428   3.819   4.063  0.5457  0.9452  0.6746
 1288SOL    MW4 4920   1.514   3.817   4.078  0.0188 -0.0876 -0.4157
 1289SOL     OW 4921   2.124   4.441   4.177  0.3648 -0.0280  0.6653
 1289SOL    HW2 4922   2.082   4.520   4.145  2.2081  1.7288  2.3123
 1289SOL    HW3 4923   2.192   4.472   4.237  2.8269 -2.7374 -0.4740
 1289SOL    MW4 4924   2.128   4.455   4.181  0.3999 -0.0491  0.4004
 1290SOL     OW 4925   5.051   0.450   0.428 -0.2849  0.0358 -0.3063
 1290SOL    HW2 4926   5.060   0.519   0.362 -1.2577 -0.3263 -0.8404
 1290SOL    HW3 4927   5.022   0.496   0.507 -1.2076  0.2311 -0.7343
 1290SOL    MW4 4928   5.048   0.465   0.430  0.2628  0.1601 -0.0259
 1291SOL     OW 4929   1.314   4.440   5.287 -0.1038 -0.0693  0.5614
 1291SOL    HW2 4930   1.395   4.405   5.326 -0.1660  0.2238  0.9593
 1291SOL    HW3 4931   1.268   4.363   5.255 -0.7781 -0.5081  2.4542
 1291SOL    MW4 4932   1.319   4.425   5.288 -0.2196 -0.0047 -0.3743
 1292SOL     OW 4933   4.950   4.359   4.152 -0.1101 -0.3947  0.1170
 1292SOL    HW2 4934   4.889   4.350   4.079 -0.0788 -2.6368  0.3156
 1292SOL    HW3 4935   5.017   4.420   4.120 -0.5962 -0.6170 -1.3853
 1292SOL    MW4 4936   4.951   4.366   4.139 -0.0160 -0.6833 -0.1856
 1293SOL     OW 4937   3.448   4.557   5.236 -0.3678  0.1189  0.5080
 1293SOL    HW2 4938   3.391   4.509   5.176 -0.6731  2.7806 -1.5173
 1293SOL    HW3 4939   3.441   4.648   5.208  4.6273  0.7158  0.2889
 1293SOL    MW4 4940   3.439   4.562   5.224 -0.3541  0.2506  0.2733
 1294SOL     OW 4941   2.053   1.374   5.651  0.0492  0.0485  0.2166
 1294SOL    HW2 4942   2.054   1.450   5.709  0.0932  0.9170 -0.8824
 1294SOL    HW3 4943   2.145   1.359   5.630 -0.1132  1.3590 -1.6340
 1294SOL    MW4 4944   2.065   1.382   5.656 -0.0838  0.0001  0.2475
 1295SOL     OW 4945   1.709   2.443   5.810  0.0480  0.0464  0.4263
 1295SOL    HW2 4946   1.720   2.412   5.900 -2.1835 -0.0779  0.7126
 1295SOL    HW3 4947   1.614   2.442   5.796  0.3764 -1.1962 -2.3622
 1295SOL    MW4 4948   1.698   2.438   5.820 -0.2645  0.8009  0.0059
 1296SOL     OW 4949   0.315   0.186   2.733  0.7204 -0.0375 -0.1805
 1296SOL    HW2 4950   0.310   0.101   2.690 -1.4358 -0.4185  0.6561
 1296SOL    HW3 4951   0.225   0.201   2.764  1.5506  1.5335  1.5984
 1296SOL    MW4 4952   0.302   0.177   2.731  0.2825 -0.2420  0.2773
 1297SOL     OW 4953   3.946   6.159   3.371  0.2424  0.2272  0.0545
 1297SOL    HW2 4954   3.905   6.089   3.320 -0.8715  2.4683 -2.3578
 1297SOL    HW3 4955   3.900   6.157   3.455 -1.7304 -0.2209 -0.9649
 1297SOL    MW4 4956   3.935   6.150   3.375  0.0025  0.4926 -0.5389
 1298SOL     OW 4957   0.838   1.947   0.295  0.4959 -0.1268  0.3829
 1298SOL    HW2 4958   0.866   1.861   0.325 -1.2571 -1.3812 -1.3323
 1298SOL    HW3 4959   0.743   1.948   0.308  0.0959  0.4718 -1.9871
 1298SOL    MW4 4960   0.829   1.936   0.300 -0.6436  0.2957  0.4851
 1299SOL     OW 4961   3.206   1.745   2.544  0.0039  0.4031 -0.5737
 1299SOL    HW2 4962   3.223   1.802   2.619 -0.4697  0.6538 -0.6521
 1299SOL    HW3 4963   3.272   1.770   2.479 -1.0232  1.8365 -1.1349
 1299SOL    MW4 4964   3.217   1.756   2.545  0.2452 -0.5189  0.0568
 1300SOL     OW 4965   0.768   6.034   4.783  0.7396  0.1056  0.3166
 1300SOL    HW2 4966   0.676   6.007   4.785  0.6219  0.5030  0.3366
 1300SOL    HW3 4967   0.801   6.000   4.700  0.8910 -1.0501  0.8334
 1300SOL    MW4 4968   0.760   6.026   4.772  0.3716 -0.2210  0.0169
 1301SOL     OW 4969   1.755   6.012   1.602 -0.0943  0.2835 -0.3201
 1301SOL    HW2 4970   1.777   6.020   1.695  1.4349 -1.1433 -0.5125
 1301SOL    HW3 4971   1.737   5.918   1.589  0.6222  0.2965 -1.6289
 1301SOL    MW4 4972   1.756   6.000   1.612 -0.1367 -0.1506 -0.7951
 1302SOL     OW 4973   0.457   3.791   5.759  0.3708 -0.3641  0.3394
 1302SOL    HW2 4974   0.444   3.773   5.852 -0.7219  0.5767  0.3929
 1302SOL    HW3 4975   0.462   3.704   5.718  1.1424 -0.7905  1.2920
 1302SOL    MW4 4976   0.456   3.777   5.766  0.7062 -0.0862  0.4149
 1303SOL     OW 4977   5.159   4.552   2.022 -0.4124  0.0786 -0.3161
 1303SOL    HW2 4978   5.066   4.573   2.016 -0.7938 -0.9320  1.3186
 1303SOL    HW3 4979   5.171   4.479   1.962 -1.2524 -1.3765  1.1931
 1303SOL    MW4 4980   5.148   4.545   2.014 -0.2594 -0.3411  0.1913
 1304SOL     OW 4981   2.287   6.346   0.621  0.0536  0.0142 -0.4806
 1304SOL    HW2 4982   2.274   6.333   0.715 -0.7907  1.1466 -0.4247
 1304SOL    HW3 4983   2.216   6.404   0.594  0.7061  0.3031 -1.6760
 1304SOL    MW4 4984   2.276   6.352   0.630  0.2739  0.0783 -0.4846
 1305SOL     OW 4985   2.717   4.841   1.782 -0.1057 -0.2004  0.2298
 1305SOL    HW2 4986   2.792   4.840   1.842 -0.1569 -1.1153  0.2961
 1305SOL    HW3 4987   2.719   4.754   1.740  0.2261  0.5911 -1.4759
 1305SOL    MW4 4988   2.727   4.829   1.784  0.1471 -0.3300  0.1394
 1306SOL     OW 4989   4.189   1.842   3.197  0.2713  0.0297  0.4005
 1306SOL    HW2 4990   4.241   1.871   3.122 -0.3730 -0.2223 -0.1582
 1306SOL    HW3 4991   4.226   1.889   3.271  1.5735 -0.4625  0.1024
 1306SOL    MW4 4992   4.201   1.852   3.197 -0.2624  0.2592 -0.0229
 1307SOL     OW 4993   3.904   5.614   3.240 -0.3371 -0.6228 -0.4476
 1307SOL    HW2 4994   3.937   5.541   3.292 -1.0412  0.2259  1.2545
 1307SOL    HW3 4995   3.886   5.576   3.154  0.1423 -2.2451  0.1365
 1307SOL    MW4 4996   3.906   5.599   3.235  0.1708 -0.0903 -0.0666
 1308SOL     OW 4997   6.035   4.793   0.754  0.0080 -0.4204  0.2252
 1308SOL    HW2 4998   5.942   4.805   0.773  0.3594  1.4112  1.0571
 1308SOL    HW3 4999   6.038   4.747   0.670 -1.6447  0.6217 -0.4414
 1308SOL    MW4 5000   6.023   4.789   0.746 -0.6987  0.2306 -0.1442
 1309SOL     OW 5001   4.293   5.312   1.473 -0.2535 -0.3282 -0.0624
 1309SOL    HW2 5002   4.234   5.382   1.502 -0.3235 -0.0468 -0.8610
 1309SOL    HW3 5003   4.299   5.323   1.378  1.5733  0.0344  0.0575
 1309SOL    MW4 5004   4.286   5.323   1.464 -0.1763 -0.3063  0.3184
 1310SOL     OW 5005   1.367   4.094   4.279  0.5726  0.3333 -0.1361
 1310SOL    HW2 5006   1.315   4.154   4.333 -0.1653 -1.5138  1.3471
 1310SOL    HW3 5007   1.315   4.013   4.277  1.4736 -0.2567 -2.1422
 1310SOL    MW4 5008   1.353   4.091   4.286  0.9532 -0.7053  0.0124
 1311SOL     OW 5009   0.362   5.625   0.009 -0.0701  0.7582  0.0463
 1311SOL    HW2 5010   0.376   5.604  -0.083  0.2092 -0.5042  0.3607
 1311SOL    HW3 5011   0.444   5.668   0.036 -1.1679  3.7751 -0.9593
 1311SOL    MW4 5012   0.375   5.628   0.000 -0.2457 -0.3746  0.0137
 1312SOL     OW 5013   5.182   2.238   1.937 -0.6487  0.3692  0.7460
 1312SOL    HW2 5014   5.215   2.205   2.021  2.9551  3.2305  0.7240
 1312SOL    HW3 5015   5.140   2.321   1.959 -0.4188  0.7344 -0.1872
 1312SOL    MW4 5016   5.181   2.245   1.951  0.2079 -0.4754 -0.3612
 1313SOL     OW 5017   5.109   5.914   4.135 -0.0067 -0.2676  0.1691
 1313SOL    HW2 5018   5.085   5.821   4.134 -1.4473  0.0735  0.2739
 1313SOL    HW3 5019   5.202   5.915   4.115  0.2342 -1.7975  1.0296
 1313SOL    MW4 5020   5.118   5.902   4.132 -0.5079 -0.3231  0.0401
 1314SOL     OW 5021   0.935   3.029   2.925  0.1120 -0.1289  0.1176
 1314SOL    HW2 5022   1.015   2.982   2.948 -0.3550 -0.5241  0.9728
 1314SOL    HW3 5023   0.875   3.012   2.997  0.0799  2.1947  0.7261
 1314SOL    MW4 5024   0.938   3.021   2.937  0.2235 -0.1918 -0.2051
 1315SOL     OW 5025   4.110   5.647   4.846  0.0530  0.8825 -0.0103
 1315SOL    HW2 5026   4.074   5.703   4.914  0.3776  2.6653 -1.2258
 1315SOL    HW3 5027   4.127   5.564   4.889  1.3240  2.2820  2.3981
 1315SOL    MW4 5028   4.108   5.644   4.860 -1.0655 -0.6895  0.4518
 1316SOL     OW 5029   2.978   5.114   5.625 -0.5102  0.4761 -0.3308
 1316SOL    HW2 5030   2.958   5.029   5.664  1.3879  0.2816  0.3037
 1316SOL    HW3 5031   2.918   5.175   5.668  0.4409  0.0040  1.7869
 1316SOL    MW4 5032   2.967   5.111   5.636  0.1021  0.1592 -0.3866
 1317SOL     OW 5033   5.451   0.511   1.937  0.1071  0.0207 -0.1423
 1317SOL    HW2 5034   5.501   0.497   2.018 -0.2075 -1.2928 -0.1455
 1317SOL    HW3 5035   5.359   0.509   1.964 -0.0111 -0.8648 -0.5802
 1317SOL    MW4 5036   5.446   0.509   1.951  0.1777  0.8210  0.8443
 1318SOL     OW 5037   4.137   3.532   4.873 -0.8702 -0.4188 -0.4386
 1318SOL    HW2 5038   4.106   3.456   4.921 -0.5239  0.4447  1.2610
 1318SOL    HW3 5039   4.058   3.576   4.843 -1.0821 -1.2017 -1.0462
 1318SOL    MW4 5040   4.123   3.528   4.876  0.2264  0.2733 -0.3015
 1319SOL     OW 5041   4.304   5.320   2.882  0.0221 -0.3210  0.1850
 1319SOL    HW2 5042   4.398   5.331   2.892 -0.0361 -1.3112  2.5143
 1319SOL    HW3 5043   4.271   5.407   2.862  1.3502  0.1503 -0.0628
 1319SOL    MW4 5044   4.312   5.333   2.880 -0.1113 -0.5996 -0.2341
 1320SOL     OW 5045   2.739   0.580   5.630 -0.2517  0.0315 -0.0657
 1320SOL    HW2 5046   2.676   0.592   5.702 -0.9467 -2.9151 -0.0590
 1320SOL    HW3 5047   2.819   0.549   5.673 -0.1560 -0.2095 -0.4096
 1320SOL    MW4 5048   2.741   0.577   5.645 -0.5749  0.2033 -0.0862
 1321SOL     OW 5049   2.114   1.187   0.214 -0.0973 -0.2620 -0.3494
 1321SOL    HW2 5050   2.150   1.269   0.248 -0.9781 -0.1523  0.3539
 1321SOL    HW3 5051   2.142   1.185   0.122  0.2806  0.6222 -0.2666
 1321SOL    MW4 5052   2.122   1.198   0.206 -0.0863 -0.6466 -0.1876
 1322SOL     OW 5053   3.467   6.339   1.895  0.3670 -0.4478  0.2390
 1322SOL    HW2 5054   3.428   6.252   1.883 -2.2566  0.4575  1.2662
 1322SOL    HW3 5055   3.447   6.361   1.986  1.6519  0.9393  0.2240
 1322SOL    MW4 5056   3.459   6.330   1.906 -0.2073  0.1183 -0.0908
 1323SOL     OW 5057   5.348   1.800   1.575 -0.1613 -0.1706 -0.1971
 1323SOL    HW2 5058   5.298   1.752   1.641 -1.1866 -0.1081 -0.8938
 1323SOL    HW3 5059   5.373   1.734   1.510 -0.5968  0.0286 -0.5798
 1323SOL    MW4 5060   5.344   1.785   1.575  0.1260 -0.4278  0.7007
 1324SOL     OW 5061   2.705   4.758   3.590 -0.0681  0.2676  0.4897
 1324SOL    HW2 5062   2.676   4.729   3.677 -0.0320 -0.5318  0.2463
 1324SOL    HW3 5063   2.755   4.684   3.556  2.2866  1.5712  0.8912
 1324SOL    MW4 5064   2.708   4.744   3.597  0.6574 -0.2267 -0.2480
 1325SOL     OW 5065   1.232   1.877   1.198 -0.8256 -0.6567 -0.1653
 1325SOL    HW2 5066   1.235   1.964   1.158 -0.5564  0.9777  3.0643
 1325SOL    HW3 5067   1.148   1.876   1.245  0.0352 -1.3061  1.4254
 1325SOL    MW4 5068   1.221   1.889   1.199 -0.8391 -0.1141  0.2140
 1326SOL     OW 5069   4.121   6.003   5.141  0.0619  0.2611  0.1151
 1326SOL    HW2 5070   4.201   6.011   5.193 -0.2774 -0.8003  0.8352
 1326SOL    HW3 5071   4.150   6.016   5.050  0.5503  2.9177  0.5655
 1326SOL    MW4 5072   4.135   6.006   5.136 -0.9662  0.3562  0.8602
 1327SOL     OW 5073   0.285   1.705   3.114 -0.1195 -0.3057  0.2969
 1327SOL    HW2 5074   0.222   1.725   3.184  0.7050 -0.0119  0.9695
 1327SOL    HW3 5075   0.353   1.653   3.158 -0.4309 -1.5644 -0.6579
 1327SOL    MW4 5076   0.286   1.701   3.129 -0.0179 -0.2290  0.1354
 1328SOL     OW 5077   2.765   5.636   0.196 -0.4026 -0.0980 -0.3372
 1328SOL    HW2 5078   2.825   5.564   0.213 -0.9923 -0.0611  2.5554
 1328SOL    HW3 5079   2.678   5.599   0.212 -0.9642  0.5508 -1.6996
 1328SOL    MW4 5080   2.761   5.622   0.201  0.6374 -0.0733 -0.3067
 1329SOL     OW 5081   4.014   4.975   1.467  0.3200  0.6293 -0.3447
 1329SOL    HW2 5082   4.091   5.000   1.417 -0.1788 -1.1421 -2.1709
 1329SOL    HW3 5083   3.942   5.021   1.425 -0.1765 -1.2768 -1.7265
 1329SOL    MW4 5084   4.014   4.984   1.455 -0.4959 -0.0934 -0.0230
 1330SOL     OW 5085   0.789   5.742   3.104  0.0679 -0.3338  0.0009
 1330SOL    HW2 5086   0.780   5.807   3.034  0.3492  0.6599  0.8612
 1330SOL    HW3 5087   0.712   5.686   3.095  0.0920 -0.2027 -1.0835
 1330SOL    MW4 5088   0.778   5.744   3.094  0.0270  0.4699 -0.3945
 1331SOL     OW 5089   2.539   2.717   4.456  0.4277 -0.2547 -0.1627
 1331SOL    HW2 5090   2.526   2.725   4.550  1.3641 -0.3362 -0.0147
 1331SOL    HW3 5091   2.464   2.762   4.417  0.3707  0.3452  0.6240
 1331SOL    MW4 5092   2.528   2.724   4.463  0.1534 -0.0976  0.3602
 1332SOL     OW 5093   0.971   4.726   3.024  0.3411 -0.0985 -0.9127
 1332SOL    HW2 5094   0.906   4.702   2.957 -0.9789 -0.8912  0.6013
 1332SOL    HW3 5095   1.053   4.688   2.992 -0.5063 -1.5439 -1.4933
 1332SOL    MW4 5096   0.973   4.718   3.011 -0.0868 -0.4176 -0.7763
 1333SOL     OW 5097   4.091   3.149   0.058  0.7017  1.1677 -0.4719
 1333SOL    HW2 5098   4.092   3.055   0.076 -1.2006  1.0559 -0.7295
 1333SOL    HW3 5099   4.008   3.180   0.093  1.2877  2.7721 -0.3867
 1333SOL    MW4 5100   4.080   3.141   0.065  0.5227  0.0823 -0.5715
 1334SOL     OW 5101   5.302   5.430   1.951  0.0536  0.6108  0.5200
 1334SOL    HW2 5102   5.260   5.416   2.036  1.1656  0.2368  1.0162
 1334SOL    HW3 5103   5.367   5.498   1.967 -0.1251  0.9584 -0.1763
 1334SOL    MW4 5104   5.305   5.437   1.964  0.5342 -0.5079  0.2634
 1335SOL     OW 5105   1.906   3.696   4.269  0.3999  0.1048  0.3165
 1335SOL    HW2 5106   1.873   3.632   4.207  0.8052  1.4076 -1.3158
 1335SOL    HW3 5107   1.921   3.775   4.217  1.0460  1.1675  2.0147
 1335SOL    MW4 5108   1.904   3.698   4.254 -0.3760  0.3837 -0.3282
 1336SOL     OW 5109   1.606   3.366   4.639 -0.6814 -0.0662 -0.1136
 1336SOL    HW2 5110   1.601   3.293   4.577 -1.4274  0.1775 -0.3603
 1336SOL    HW3 5111   1.633   3.327   4.722  0.8173 -0.3271 -0.7021
 1336SOL    MW4 5112   1.609   3.352   4.642  0.0774 -0.4062 -0.1068
 1337SOL     OW 5113   4.544   5.148   4.348  0.2076 -0.6158 -0.1058
 1337SOL    HW2 5114   4.501   5.108   4.272 -2.5061 -0.6369  1.3215
 1337SOL    HW3 5115   4.588   5.075   4.392 -0.5987 -1.1505 -0.1625
 1337SOL    MW4 5116   4.545   5.133   4.344  0.4700  0.4030 -0.0626
 1338SOL     OW 5117   1.062   2.629   5.929 -0.4677 -0.2217  0.3105
 1338SOL    HW2 5118   1.084   2.721   5.914 -0.2371 -0.3650 -0.2658
 1338SOL    HW3 5119   1.081   2.586   5.846  0.4240 -0.9750  0.8880
 1338SOL    MW4 5120   1.067   2.636   5.916  0.4211 -0.2917 -0.2647
 1339SOL     OW 5121   6.362   0.177   3.846 -0.1491 -0.4877  0.2417
 1339SOL    HW2 5122   6.363   0.095   3.798 -0.1080 -1.1219  1.3039
 1339SOL    HW3 5123   6.297   0.164   3.915  2.6263 -1.1207  2.9105
 1339SOL    MW4 5124   6.353   0.165   3.849 -0.0448 -0.0033 -0.6584
 1340SOL     OW 5125   4.226   1.453   0.582  0.1412  0.6795 -0.4139
 1340SOL    HW2 5126   4.238   1.363   0.612 -0.2594  0.5070 -0.7541
 1340SOL    HW3 5127   4.190   1.444   0.494  2.2235  1.1660 -1.3823
 1340SOL    MW4 5128   4.223   1.440   0.575  0.2325 -0.2024  0.2831
 1341SOL     OW 5129   0.282   0.500   2.464  0.0062  0.0906 -0.6236
 1341SOL    HW2 5130   0.255   0.422   2.415  0.1929 -0.7076  0.5044
 1341SOL    HW3 5131   0.377   0.504   2.453 -0.1539  0.9870 -1.8423
 1341SOL    MW4 5132   0.291   0.490   2.456 -0.0460  0.2099  0.0400
 1342SOL     OW 5133   3.430   5.391   1.595  0.8786 -0.0444  0.2930
 1342SOL    HW2 5134   3.380   5.317   1.630  1.5878  0.0115  1.4968
 1342SOL    HW3 5135   3.459   5.438   1.673  0.7067  1.3317 -0.4536
 1342SOL    MW4 5136   3.427   5.387   1.610  0.1145  0.2132  0.0607
 1343SOL     OW 5137   6.025   4.769   5.002  0.1220 -0.5678  0.5169
 1343SOL    HW2 5138   5.952   4.708   4.996 -0.6941  0.3481  0.7603
 1343SOL    HW3 5139   5.994   4.848   4.958  0.3597  0.3772  1.9572
 1343SOL    MW4 5140   6.011   4.772   4.995 -0.4266  0.7824 -0.2090
 1344SOL     OW 5141   1.616   3.871   3.282 -0.7022 -0.2356 -0.0796
 1344SOL    HW2 5142   1.703   3.863   3.320 -0.6773  1.3541  0.2861
 1344SOL    HW3 5143   1.620   3.951   3.230 -2.0617  0.1064  0.3081
 1344SOL    MW4 5144   1.628   3.881   3.280  0.5938  0.4023  0.2083
 1345SOL     OW 5145   3.212   6.356   2.467 -0.4484 -0.3590 -0.3837
 1345SOL    HW2 5146   3.299   6.319   2.448 -1.6077 -2.2830 -2.5246
 1345SOL    HW3 5147   3.187   6.317   2.550 -0.2448 -1.8673 -0.9870
 1345SOL    MW4 5148   3.220   6.346   2.475  0.1549  0.0371  0.0063
 1346SOL     OW 5149   1.821   4.621   1.312  0.0422 -0.0121 -0.4501
 1346SOL    HW2 5150   1.789   4.613   1.222  0.5176 -1.5140 -0.5118
 1346SOL    HW3 5151   1.771   4.555   1.361  0.4274  0.1704  0.1984
 1346SOL    MW4 5152   1.810   4.611   1.306  0.0576 -0.1188 -0.0865
 1347SOL     OW 5153   3.114   2.304   5.889 -0.0354  0.1627 -0.2447
 1347SOL    HW2 5154   3.021   2.307   5.911  0.0942 -1.6258  0.7006
 1347SOL    HW3 5155   3.154   2.371   5.944 -0.5780 -0.0721  0.4576
 1347SOL    MW4 5156   3.107   2.313   5.899  0.4582 -0.3366 -0.1173
 1348SOL     OW 5157   4.901   5.412   2.900 -0.6373  0.1886 -0.2532
 1348SOL    HW2 5158   4.825   5.452   2.859 -0.5392  0.4602 -0.1699
 1348SOL    HW3 5159   4.894   5.436   2.992  0.0104  0.9439 -0.3938
 1348SOL    MW4 5160   4.890   5.420   2.906 -0.2277 -0.0407 -0.2540
 1349SOL     OW 5161   5.145   6.351   4.263  0.0761 -0.3737  0.2550
 1349SOL    HW2 5162   5.176   6.267   4.298 -2.0546 -1.0774  0.5938
 1349SOL    HW3 5163   5.106   6.329   4.179 -1.0131  0.1646  0.6071
 1349SOL    MW4 5164   5.144   6.337   4.257 -0.3099 -0.2054  0.5991
 1350SOL     OW 5165   0.074   5.582   5.116  0.1442  0.2002 -0.0303
 1350SOL    HW2 5166   0.011   5.545   5.054  0.6116 -0.4142 -0.1399
 1350SOL    HW3 5167   0.109   5.507   5.163  0.9618  0.5209 -0.1158
 1350SOL    MW4 5168   0.070   5.567   5.114 -0.1228 -0.0025 -0.4515
 1351SOL     OW 5169   2.910   3.156   3.464  0.8830  0.4246 -0.3915
 1351SOL    HW2 5170   2.833   3.211   3.450  0.4085  0.4744  2.0125
 1351SOL    HW3 5171   2.887   3.072   3.423 -0.8577  0.1476  1.0246
 1351SOL    MW4 5172   2.897   3.152   3.457  0.1579  0.7250 -0.1510
 1352SOL     OW 5173   6.085   0.056   1.855 -0.6772 -0.2872  0.0445
 1352SOL    HW2 5174   6.052   0.104   1.932  1.0682  1.3791 -0.1625
 1352SOL    HW3 5175   6.029   0.085   1.783 -1.9910 -1.4586  0.5656
 1352SOL    MW4 5176   6.073   0.066   1.856  0.1139 -0.0673 -0.4707
 1353SOL     OW 5177   3.020   4.849   1.257 -0.4782 -0.2950 -0.3686
 1353SOL    HW2 5178   3.090   4.888   1.205  1.4786 -0.8216  1.7181
 1353SOL    HW3 5179   2.956   4.919   1.269 -0.2408  0.2629 -2.1288
 1353SOL    MW4 5180   3.021   4.863   1.252  0.0321 -0.2189  0.2502
 1354SOL     OW 5181   4.267   1.715   6.219  0.3593  0.0897 -0.2198
 1354SOL    HW2 5182   4.296   1.682   6.304  1.2569 -0.1481 -0.6097
 1354SOL    HW3 5183   4.171   1.707   6.223  0.4669 -1.6256  0.1062
 1354SOL    MW4 5184   4.258   1.709   6.231 -0.2678  0.0248  0.1145
 1355SOL     OW 5185   3.634   5.702   6.333  0.4602  0.2789  0.0341
 1355SOL    HW2 5186   3.573   5.663   6.271  1.3863 -0.3695 -0.5006
 1355SOL    HW3 5187   3.715   5.715   6.282  1.2371 -0.2619  1.0879
 1355SOL    MW4 5188   3.637   5.698   6.318 -0.9102 -0.2082 -0.4670
 1356SOL     OW 5189   4.408   1.785   0.391 -0.5363 -0.3369 -0.5624
 1356SOL    HW2 5190   4.478   1.826   0.340 -0.3015  0.5194  0.4064
 1356SOL    HW3 5191   4.341   1.761   0.327 -0.8628  1.9449 -1.1454
 1356SOL    MW4 5192   4.408   1.787   0.376 -0.2538 -0.7508  0.4142
 1357SOL     OW 5193   4.470   1.846   5.206  0.2270 -0.0522 -0.2768
 1357SOL    HW2 5194   4.429   1.875   5.124 -2.3898  0.1361  1.0090
 1357SOL    HW3 5195   4.468   1.924   5.262  2.0889 -0.1540 -0.0208
 1357SOL    MW4 5196   4.464   1.860   5.203 -0.5382  0.0170  0.0653
 1358SOL     OW 5197   5.743   1.605   5.161  0.0427  0.4663  0.2118
 1358SOL    HW2 5198   5.778   1.542   5.224  0.0599  0.5623  0.2978
 1358SOL    HW3 5199   5.785   1.582   5.078 -0.8927 -0.4304 -0.0253
 1358SOL    MW4 5200   5.753   1.594   5.159 -0.1309 -0.4688  0.2245
 1359SOL     OW 5201   3.090   5.956   0.908  0.0971 -0.4620 -0.4624
 1359SOL    HW2 5202   3.111   6.043   0.940  0.7759 -1.1409  1.0193
 1359SOL    HW3 5203   3.157   5.939   0.842 -0.0124  0.1078 -0.7277
 1359SOL    MW4 5204   3.102   5.965   0.903  0.2725  1.0112 -0.1373
 1360SOL     OW 5205   0.946   3.481   5.533 -0.4157  0.3937  0.7944
 1360SOL    HW2 5206   0.952   3.490   5.628 -0.9715 -0.9189  0.9806
 1360SOL    HW3 5207   0.974   3.391   5.516 -1.3609  0.2647 -0.1697
 1360SOL    MW4 5208   0.950   3.470   5.544 -0.2757 -0.4596 -0.9621
 1361SOL     OW 5209   3.846   5.913   1.352 -0.2398 -0.2445  0.5092
 1361SOL    HW2 5210   3.827   5.853   1.424 -0.6069  0.1699  0.7637
 1361SOL    HW3 5211   3.787   5.886   1.282 -0.1477 -0.4060  0.4916
 1361SOL    MW4 5212   3.836   5.902   1.352  0.0778  0.0947  0.2151
 1362SOL     OW 5213   0.126   4.502   3.392 -0.0690  0.2868  0.0288
 1362SOL    HW2 5214   0.081   4.423   3.362  0.1556 -0.2024  0.9497
 1362SOL    HW3 5215   0.173   4.534   3.315  1.6431 -1.7140  0.1477
 1362SOL    MW4 5216   0.126   4.496   3.378 -0.1938 -0.1303  0.0591
 1363SOL     OW 5217   0.469   0.591   3.547  0.0283 -0.0499  0.8505
 1363SOL    HW2 5218   0.479   0.633   3.632  0.1963 -0.6103  1.1158
 1363SOL    HW3 5219   0.471   0.497   3.567 -1.1161 -0.1870  0.3626
 1363SOL    MW4 5220   0.471   0.584   3.561  0.2311 -0.0084 -0.1575
 1364SOL     OW 5221   0.517   3.673   4.212 -0.3478  0.3700  0.1914
 1364SOL    HW2 5222   0.444   3.712   4.259  0.4415  0.1055  1.7115
 1364SOL    HW3 5223   0.594   3.691   4.267  0.5792 -0.1895 -0.8691
 1364SOL    MW4 5224   0.518   3.681   4.225  0.6445 -0.1864 -0.4683
 1365SOL     OW 5225   6.404   6.080   5.494  0.2963  0.6157  0.1013
 1365SOL    HW2 5226   6.341   6.115   5.431 -0.2341 -1.3256 -0.4978
 1365SOL    HW3 5227   6.483   6.064   5.442  0.1813 -0.0579  0.1254
 1365SOL    MW4 5228   6.406   6.083   5.478  0.6391 -0.3836 -0.5555
 1366SOL     OW 5229   0.438   4.645   3.546 -0.0938 -0.0490  0.8776
 1366SOL    HW2 5230   0.393   4.728   3.561 -0.6575 -0.5255  1.8540
 1366SOL    HW3 5231   0.402   4.585   3.610  0.1519 -1.1306  0.0438
 1366SOL    MW4 5232   0.428   4.648   3.556  0.6678  0.2748  0.6490
 1367SOL     OW 5233   6.393   5.727   2.425  0.2879 -0.1485 -0.0209
 1367SOL    HW2 5234   6.328   5.661   2.449  0.8916 -0.2463  1.4977
 1367SOL    HW3 5235   6.378   5.744   2.332 -0.6942 -1.5007 -0.1315
 1367SOL    MW4 5236   6.383   5.721   2.416  0.0425  0.1384 -0.8190
 1368SOL     OW 5237   5.561   5.312   2.599 -0.2456  0.2639 -0.4750
 1368SOL    HW2 5238   5.630   5.355   2.649  0.3545 -2.0229  0.8072
 1368SOL    HW3 5239   5.487   5.308   2.660  0.6908 -3.1017  0.6217
 1368SOL    MW4 5240   5.560   5.317   2.614 -0.0540 -0.4382  0.1004
 1369SOL     OW 5241   3.912   2.841   5.056  0.1505 -0.2884  0.2539
 1369SOL    HW2 5242   3.846   2.907   5.034 -0.0053 -0.8893 -1.1439
 1369SOL    HW3 5243   3.872   2.790   5.126 -0.4128  0.0415  0.1788
 1369SOL    MW4 5244   3.898   2.843   5.062  0.1627  0.1612  0.2430
 1370SOL     OW 5245   1.102   1.516   0.770 -0.1235  1.1053  0.4082
 1370SOL    HW2 5246   1.080   1.424   0.755 -0.0010  1.0914  0.3082
 1370SOL    HW3 5247   1.182   1.530   0.719 -0.1245  1.2590  0.4480
 1370SOL    MW4 5248   1.110   1.506   0.761 -0.2792  0.4564  0.4401
 1371SOL     OW 5249   5.094   5.080   5.031 -0.2546  0.4484 -0.7476
 1371SOL    HW2 5250   5.151   5.017   4.986  0.0272  1.0479 -1.2441
 1371SOL    HW3 5251   5.029   5.104   4.965 -1.8465 -1.1422  0.1707
 1371SOL    MW4 5252   5.093   5.075   5.016 -0.0073 -0.3668 -0.3476
 1372SOL     OW 5253   3.406   3.604   0.589 -0.0521 -0.1926 -0.2917
 1372SOL    HW2 5254   3.470   3.560   0.646  1.2265  0.1075 -1.4455
 1372SOL    HW3 5255   3.379   3.536   0.527  0.7456  0.2165 -1.1048
 1372SOL    MW4 5256   3.411   3.589   0.589  0.6962 -0.4555  0.0568
 1373SOL     OW 5257   6.169   0.137   4.045  0.0199 -0.0709 -0.2985
 1373SOL    HW2 5258   6.141   0.102   4.129  0.8632 -0.1398 -0.0385
 1373SOL    HW3 5259   6.099   0.198   4.020  0.9342  1.9784  1.7214
 1373SOL    MW4 5260   6.156   0.141   4.053  0.3414  0.0613 -0.3810
 1374SOL     OW 5261   1.699   4.606   3.145 -0.0008 -0.3375  0.3434
 1374SOL    HW2 5262   1.722   4.692   3.110 -1.6036  0.0938  0.3148
 1374SOL    HW3 5263   1.777   4.553   3.128  0.1542  0.4621 -1.7887
 1374SOL    MW4 5264   1.713   4.610   3.138 -0.2717 -0.0836 -0.5976
 1375SOL     OW 5265   3.953   3.000   5.523  0.5404  0.3385  0.6375
 1375SOL    HW2 5266   3.887   2.990   5.454  2.2140  0.9760 -1.1351
 1375SOL    HW3 5267   3.976   2.911   5.547  0.2405  0.0954  0.0572
 1375SOL    MW4 5268   3.947   2.987   5.517 -0.3187 -0.3740 -0.2622
 1376SOL     OW 5269   1.075   3.389   5.090 -0.3963 -0.1866  0.2774
 1376SOL    HW2 5270   1.027   3.403   5.009 -1.0398 -4.1457 -0.2425
 1376SOL    HW3 5271   1.144   3.455   5.089 -2.5636  2.2523 -1.5863
 1376SOL    MW4 5272   1.078   3.399   5.079 -0.3389  0.1979 -0.3286
 1377SOL     OW 5273   5.128   2.768   2.300  0.3402  0.5202  0.0391
 1377SOL    HW2 5274   5.131   2.768   2.205 -1.5246 -1.3513 -0.1149
 1377SOL    HW3 5275   5.207   2.720   2.327 -1.4597 -3.3767 -0.9207
 1377SOL    MW4 5276   5.139   2.761   2.291  0.0192  0.0257 -0.1342
 1378SOL     OW 5277   1.844   2.265   1.525 -0.0232  0.2282  0.1631
 1378SOL    HW2 5278   1.901   2.189   1.519 -0.1314  0.1732 -0.1362
 1378SOL    HW3 5279   1.903   2.340   1.520  0.0503  0.1690  0.1492
 1378SOL    MW4 5280   1.859   2.265   1.524 -0.1619 -1.0512  0.0200
 1379SOL     OW 5281   1.375   3.308   1.918 -0.1355  0.1227 -0.1944
 1379SOL    HW2 5282   1.440   3.245   1.948 -1.3612 -1.1152 -0.0298
 1379SOL    HW3 5283   1.340   3.270   1.837 -1.4163  0.1830  0.2948
 1379SOL    MW4 5284   1.379   3.295   1.911  0.2488 -0.2580 -0.1809
 1380SOL     OW 5285   2.960   2.348   3.275 -0.3906  0.0008 -0.5749
 1380SOL    HW2 5286   3.032   2.287   3.289 -0.9437 -0.5813 -0.2395
 1380SOL    HW3 5287   2.911   2.311   3.202 -0.7352  0.0378 -0.3629
 1380SOL    MW4 5288   2.963   2.335   3.267 -0.5439  0.1896  0.3630
 1381SOL     OW 5289   4.033   3.632   2.697 -0.0157 -0.3517  0.0743
 1381SOL    HW2 5290   3.938   3.622   2.701 -0.2084  0.7500 -1.1536
 1381SOL    HW3 5291   4.067   3.543   2.708 -1.2591 -1.0106 -1.1411
 1381SOL    MW4 5292   4.025   3.619   2.699 -0.2505 -0.3095 -0.0386
 1382SOL     OW 5293   2.694   2.065   2.656 -0.5246  0.6059  0.3205
 1382SOL    HW2 5294   2.741   2.005   2.714  0.5916  2.0288  0.9612
 1382SOL    HW3 5295   2.748   2.145   2.656 -0.1944  0.5227 -3.0573
 1382SOL    MW4 5296   2.708   2.068   2.664 -0.1345  0.1137  0.0931
 1383SOL     OW 5297   2.314   0.189   2.949  0.3780 -0.3346 -0.3684
 1383SOL    HW2 5298   2.251   0.135   2.997  1.0447 -0.4473  0.4076
 1383SOL    HW3 5299   2.261   0.237   2.886 -0.6476  0.3727  0.9726
 1383SOL    MW4 5300   2.298   0.188   2.947 -0.3292 -0.6352  0.4486
 1384SOL     OW 5301   1.420   3.176   2.320  0.2528 -0.1288 -0.0605
 1384SOL    HW2 5302   1.415   3.269   2.299  1.4084 -0.3086 -1.2604
 1384SOL    HW3 5303   1.408   3.172   2.415 -0.4526  1.1712 -0.0742
 1384SOL    MW4 5304   1.418   3.188   2.330 -0.0209  0.6374 -0.2955
 1385SOL     OW 5305   2.271   3.883   1.616  0.6372  0.3397  0.4078
 1385SOL    HW2 5306   2.367   3.885   1.606  0.5518 -0.8918 -1.0721
 1385SOL    HW3 5307   2.254   3.799   1.658  0.1674  0.3401  0.2192
 1385SOL    MW4 5308   2.282   3.872   1.620 -0.8345  1.1664 -0.1057
 1386SOL     OW 5309   0.780   0.444   2.970  0.3803  0.9246 -0.0982
 1386SOL    HW2 5310   0.719   0.504   2.927  0.8613  0.9312 -0.7826
 1386SOL    HW3 5311   0.863   0.490   2.970  0.1663  1.3708  1.8225
 1386SOL    MW4 5312   0.783   0.458   2.964 -0.5199 -0.0907  0.1154
 1387SOL     OW 5313   5.372   0.545   5.016 -0.0074  0.2188 -0.0243
 1387SOL    HW2 5314   5.336   0.634   5.019  0.5255  0.4334  2.9136
 1387SOL    HW3 5315   5.447   0.548   5.074  0.3945 -2.0254 -0.3658
 1387SOL    MW4 5316   5.377   0.557   5.024 -0.1799 -0.4654 -0.1135
 1388SOL     OW 5317   5.313   1.822   0.912 -0.5075 -0.0728 -0.2065
 1388SOL    HW2 5318   5.384   1.808   0.974 -1.0817 -1.2373  0.2127
 1388SOL    HW3 5319   5.247   1.870   0.962 -0.9210 -0.9103  0.0813
 1388SOL    MW4 5320   5.314   1.826   0.927  0.2763  0.3657  0.2116
 1389SOL     OW 5321   3.068   4.471   4.395 -0.1087  0.9293  0.3691
 1389SOL    HW2 5322   3.037   4.554   4.359 -0.7981  0.7418  0.5155
 1389SOL    HW3 5323   3.138   4.443   4.336 -0.2795  1.3178 -0.0209
 1389SOL    MW4 5324   3.073   4.478   4.383  0.4643 -0.0623 -0.3202
 1390SOL     OW 5325   2.280   6.215   0.889  0.4789 -0.5118 -0.0323
 1390SOL    HW2 5326   2.330   6.240   0.967  1.5816  0.3153 -0.9507
 1390SOL    HW3 5327   2.189   6.236   0.910  0.9545  1.2498  0.4592
 1390SOL    MW4 5328   2.275   6.221   0.902  0.3928 -0.0873  0.3027
 1391SOL     OW 5329   1.233   5.530   0.726 -0.1354 -0.3658  0.1822
 1391SOL    HW2 5330   1.240   5.502   0.635 -0.6174 -0.2839  0.1187
 1391SOL    HW3 5331   1.323   5.537   0.756  0.0742  0.9213 -0.6813
 1391SOL    MW4 5332   1.246   5.527   0.718 -0.0754 -0.4587 -0.1472
 1392SOL     OW 5333   4.514   0.554   5.469 -0.9940 -0.5301 -0.0639
 1392SOL    HW2 5334   4.587   0.613   5.449 -2.2376  0.5142 -1.7707
 1392SOL    HW3 5335   4.549   0.467   5.452  0.1807 -0.1373  0.2291
 1392SOL    MW4 5336   4.528   0.550   5.464  0.0104  0.3107  0.5574
 1393SOL     OW 5337   4.985   5.065   3.021  0.0798  0.6750  0.4668
 1393SOL    HW2 5338   5.035   5.000   2.971 -2.4684 -1.3933  0.4024
 1393SOL    HW3 5339   4.943   5.015   3.091 -1.9683  2.2425  0.4563
 1393SOL    MW4 5340   4.986   5.050   3.024  0.4579  0.0894  0.1148
 1394SOL     OW 5341   2.197   3.629   1.741  0.3047  0.0883 -0.4547
 1394SOL    HW2 5342   2.110   3.665   1.756 -0.2211 -0.2485 -2.3933
 1394SOL    HW3 5343   2.243   3.641   1.824 -1.6624  0.0089  0.7088
 1394SOL    MW4 5344   2.192   3.635   1.754 -0.7823  0.1700 -0.0317
 1395SOL     OW 5345   5.620   0.596   5.148  0.0514  0.0353 -1.1426
 1395SOL    HW2 5346   5.695   0.541   5.123 -1.0172 -1.5092 -1.1327
 1395SOL    HW3 5347   5.649   0.641   5.227  0.7155 -1.1838 -0.6518
 1395SOL    MW4 5348   5.634   0.594   5.155 -0.5844  0.4139  0.1742
 1396SOL     OW 5349   2.805   2.640   1.765 -0.6641  0.1153 -0.1971
 1396SOL    HW2 5350   2.877   2.667   1.822  0.4658 -2.4649 -0.2941
 1396SOL    HW3 5351   2.814   2.696   1.687  2.5469 -1.4163 -1.0778
 1396SOL    MW4 5352   2.816   2.651   1.762 -0.2249  0.8614  0.0555
 1397SOL     OW 5353   6.321   0.148   0.388  0.1006 -0.1917  0.2001
 1397SOL    HW2 5354   6.324   0.178   0.479  1.1805 -0.1099  0.1519
 1397SOL    HW3 5355   6.293   0.057   0.394  2.5450 -0.9901  0.8733
 1397SOL    MW4 5356   6.318   0.140   0.401  0.1171  0.3703  0.0257
 1398SOL     OW 5357   2.523   1.506   4.702  0.2696  0.6514  0.7703
 1398SOL    HW2 5358   2.498   1.588   4.660 -0.7712  0.2984  0.6585
 1398SOL    HW3 5359   2.571   1.458   4.635  0.5195  0.9948  0.7029
 1398SOL    MW4 5360   2.526   1.510   4.688 -0.5749  0.2059 -0.3093
 1399SOL     OW 5361   5.830   5.745   5.546 -0.3412 -0.3566  0.0059
 1399SOL    HW2 5362   5.847   5.703   5.630 -1.2631  0.3732  0.5843
 1399SOL    HW3 5363   5.916   5.756   5.507  0.4488  1.6858  2.0494
 1399SOL    MW4 5364   5.843   5.741   5.552  0.1531  0.8158 -0.4243
 1400SOL     OW 5365   0.824   0.124   2.052  0.3885  0.0024  0.4305
 1400SOL    HW2 5366   0.918   0.135   2.046  0.7043 -0.2657  3.4485
 1400SOL    HW3 5367   0.809   0.032   2.029  0.7617  0.1465 -0.4519
 1400SOL    MW4 5368   0.834   0.113   2.048  0.1406  0.0583  0.7535
 1401SOL     OW 5369   3.321   4.761   5.048  0.2726  0.1016  0.0435
 1401SOL    HW2 5370   3.233   4.795   5.065  0.1068 -0.1675 -0.2725
 1401SOL    HW3 5371   3.380   4.828   5.083 -0.0501  0.6707 -0.4817
 1401SOL    MW4 5372   3.317   4.774   5.055 -0.5845 -0.5424 -0.5299
 1402SOL     OW 5373   0.335   1.876   2.034 -0.5479 -0.1119 -0.3724
 1402SOL    HW2 5374   0.265   1.886   2.098 -0.4013 -0.4916 -0.1445
 1402SOL    HW3 5375   0.291   1.865   1.950 -0.7789 -0.7716 -0.1726
 1402SOL    MW4 5376   0.320   1.876   2.032  0.3030 -0.5265 -0.0636
 1403SOL     OW 5377   6.286   1.594   6.204  0.1006 -0.2753  0.4165
 1403SOL    HW2 5378   6.370   1.572   6.165  0.5267 -1.1380  1.7422
 1403SOL    HW3 5379   6.304   1.602   6.298 -1.3108 -0.6762  0.7563
 1403SOL    MW4 5380   6.299   1.592   6.211  0.0321 -0.0707 -0.5216
 1404SOL     OW 5381   0.121   0.891   0.144 -0.3607 -0.2676 -0.8762
 1404SOL    HW2 5382   0.077   0.834   0.207  1.1705 -0.6527 -0.0779
 1404SOL    HW3 5383   0.086   0.978   0.161  0.7048 -0.1863  1.2582
 1404SOL    MW4 5384   0.111   0.895   0.155 -0.1657  0.1167 -0.0791
 1405SOL     OW 5385   1.635   4.788   0.159  0.0126  0.5793 -0.0147
 1405SOL    HW2 5386   1.566   4.815   0.098  1.1408  1.0672 -1.1464
 1405SOL    HW3 5387   1.633   4.692   0.157 -0.5599  0.5910 -0.1267
 1405SOL    MW4 5388   1.626   4.779   0.151  0.6569 -0.1436  0.7027
 1406SOL     OW 5389   1.635   2.245   0.222 -0.4466 -0.1987  0.1358
 1406SOL    HW2 5390   1.618   2.154   0.196  2.4745 -1.2529  1.4394
 1406SOL    HW3 5391   1.671   2.286   0.144  0.0289 -0.7430  0.0617
 1406SOL    MW4 5392   1.637   2.238   0.209  0.1195  0.1170 -0.3585
 1407SOL     OW 5393   4.081   5.785   6.216 -0.2324 -0.3759  0.4298
 1407SOL    HW2 5394   4.103   5.694   6.238 -0.4436 -0.3580  0.7234
 1407SOL    HW3 5395   4.118   5.798   6.129  0.4753 -0.5063  0.7026
 1407SOL    MW4 5396   4.089   5.775   6.208 -0.2665 -0.1463 -0.2724
 1408SOL     OW 5397   4.897   4.799   2.498 -0.5283 -0.0576  0.1637
 1408SOL    HW2 5398   4.856   4.884   2.478 -0.8952 -0.5363 -1.2797
 1408SOL    HW3 5399   4.991   4.818   2.500 -0.5653  0.2956 -0.7593
 1408SOL    MW4 5400   4.904   4.813   2.495  0.3961  0.1977  0.2361
 1409SOL     OW 5401   0.680   0.720   2.306 -0.0179 -0.1289 -0.3911
 1409SOL    HW2 5402   0.702   0.628   2.303 -1.1929 -0.5300  1.3462
 1409SOL    HW3 5403   0.632   0.737   2.225  0.2045 -1.0370 -0.7142
 1409SOL    MW4 5404   0.676   0.710   2.295 -0.7980  0.3427  0.2271
 1410SOL     OW 5405   2.036   2.406   3.098  0.3410  0.1223  0.3133
 1410SOL    HW2 5406   1.958   2.401   3.042  1.0114 -1.4542 -0.5562
 1410SOL    HW3 5407   2.008   2.456   3.174 -1.1106  0.8050 -0.6254
 1410SOL    MW4 5408   2.022   2.412   3.100 -0.3325 -0.2568 -0.0849
 1411SOL     OW 5409   4.046   0.675   6.382  0.5795 -0.9504 -0.4536
 1411SOL    HW2 5410   4.121   0.720   6.345  0.8434 -0.6516  0.4261
 1411SOL    HW3 5411   3.973   0.736   6.370  0.6929 -0.7956 -0.3606
 1411SOL    MW4 5412   4.046   0.689   6.376  0.3216 -0.1783 -0.0970
 1412SOL     OW 5413   2.610   2.529   0.969  0.4113  0.0075 -0.4479
 1412SOL    HW2 5414   2.597   2.516   0.875  2.7729  0.2422 -0.8693
 1412SOL    HW3 5415   2.640   2.444   1.001  1.1278  0.3238 -0.2456
 1412SOL    MW4 5416   2.612   2.516   0.961 -0.3607 -0.1839 -0.3548
 1413SOL     OW 5417   3.512   4.986   3.902 -0.0531 -0.0839 -0.2206
 1413SOL    HW2 5418   3.443   4.936   3.945  1.3218 -1.7490  0.1207
 1413SOL    HW3 5419   3.498   4.971   3.808 -1.2051  1.0837 -0.2778
 1413SOL    MW4 5420   3.501   4.978   3.895 -0.2481  0.1342  0.1688
 1414SOL     OW 5421   0.998   2.199   1.074  0.1929  0.1690 -0.1613
 1414SOL    HW2 5422   0.958   2.234   1.153 -0.8292 -0.8947 -0.1791
 1414SOL    HW3 5423   0.958   2.113   1.063  1.1194 -0.1474 -1.2402
 1414SOL    MW4 5424   0.987   2.193   1.083  0.5802 -0.5092  0.3205
 1415SOL     OW 5425   5.891   0.523   5.499  0.1245  0.0483  0.1316
 1415SOL    HW2 5426   5.854   0.463   5.434  1.9526  0.1114 -1.0468
 1415SOL    HW3 5427   5.920   0.465   5.570  0.6748 -0.3607 -0.4084
 1415SOL    MW4 5428   5.890   0.507   5.500 -0.0247 -0.6564 -0.0931
 1416SOL     OW 5429   2.531   4.837   3.368  0.3353  0.0728  0.1059
 1416SOL    HW2 5430   2.561   4.816   3.457 -0.9352  0.6014  0.6830
 1416SOL    HW3 5431   2.447   4.881   3.381 -0.5840 -1.1460 -1.4491
 1416SOL    MW4 5432   2.524   4.840   3.382  0.0272 -0.4935  0.0035
 1417SOL     OW 5433   0.005   1.695   1.317 -0.2694 -0.3991  0.3507
 1417SOL    HW2 5434   0.067   1.662   1.382 -2.1829 -0.0046  2.4966
 1417SOL    HW3 5435  -0.038   1.769   1.359 -0.7997  0.6171 -1.8286
 1417SOL    MW4 5436   0.007   1.700   1.331 -0.2005 -0.1461 -0.0210
 1418SOL     OW 5437   3.870   1.479   4.480  0.1954 -0.0311  0.0507
 1418SOL    HW2 5438   3.883   1.504   4.388  0.1310  0.9812  0.2994
 1418SOL    HW3 5439   3.948   1.427   4.502  0.5247  0.2659 -0.3978
 1418SOL    MW4 5440   3.882   1.476   4.471 -0.3326  0.3448  0.1341
 1419SOL     OW 5441   3.344   3.183   4.370 -0.1538 -0.2560 -0.0001
 1419SOL    HW2 5442   3.355   3.278   4.382  0.8488 -0.2827 -0.5754
 1419SOL    HW3 5443   3.299   3.154   4.449 -1.8427  0.9162 -0.4518
 1419SOL    MW4 5444   3.339   3.192   4.382  0.3421 -0.0508  0.2691
 1420SOL     OW 5445   1.221   2.794   2.213  0.1746 -0.2890  0.5855
 1420SOL    HW2 5446   1.141   2.777   2.264 -0.2514  0.7066  0.2871
 1420SOL    HW3 5447   1.207   2.747   2.131  0.2552 -0.7737  0.8447
 1420SOL    MW4 5448   1.209   2.786   2.209  0.1856  0.2169 -0.4077
 1421SOL     OW 5449   0.725   0.613   4.988  0.3204 -0.8000  0.3071
 1421SOL    HW2 5450   0.759   0.589   5.074 -1.9861  1.6082  2.0439
 1421SOL    HW3 5451   0.639   0.571   4.984 -0.6537  1.0981  0.3201
 1421SOL    MW4 5452   0.718   0.605   4.999  0.0001 -0.2781  0.1284
 1422SOL     OW 5453   4.089   3.236   5.744  0.1439  0.4257 -0.0367
 1422SOL    HW2 5454   4.069   3.307   5.683  0.4739 -0.4290 -1.1867
 1422SOL    HW3 5455   4.010   3.182   5.745  0.2570  0.2578  0.0125
 1422SOL    MW4 5456   4.076   3.238   5.736  0.2771  0.5733  0.3124
 1423SOL     OW 5457   4.241   4.318   3.142 -0.0719  0.6995 -0.2909
 1423SOL    HW2 5458   4.180   4.247   3.159 -0.0878  0.6429 -0.5738
 1423SOL    HW3 5459   4.253   4.317   3.047  0.6804  0.4503 -0.2028
 1423SOL    MW4 5460   4.234   4.309   3.132  0.2262  0.3989  0.4413
 1424SOL     OW 5461   2.869   2.928   1.332  0.3001 -0.4093 -0.0110
 1424SOL    HW2 5462   2.875   3.017   1.368 -0.0413  0.5989 -2.2612
 1424SOL    HW3 5463   2.954   2.888   1.352  0.6143  0.5764  0.6731
 1424SOL    MW4 5464   2.881   2.935   1.339  0.3342 -0.0201  0.6175
 1425SOL     OW 5465   4.454   3.215   2.680  0.3166 -0.3074  0.7342
 1425SOL    HW2 5466   4.515   3.143   2.665 -1.1068 -1.1795 -1.1413
 1425SOL    HW3 5467   4.381   3.176   2.727  0.8257  0.5939  2.3648
 1425SOL    MW4 5468   4.453   3.201   2.684 -0.0945 -0.1047 -0.2483
 1426SOL     OW 5469   6.354   2.215   1.936  0.2198  0.0845 -0.6594
 1426SOL    HW2 5470   6.442   2.211   1.973  0.4108 -0.2613 -1.1341
 1426SOL    HW3 5471   6.361   2.276   1.863  0.1585 -0.2344 -0.9343
 1426SOL    MW4 5472   6.366   2.222   1.931  0.0342 -0.0482 -0.4338
 1427SOL     OW 5473   0.792   4.936   5.142 -0.0756 -0.1472  0.2724
 1427SOL    HW2 5474   0.709   4.890   5.157  0.5361 -1.2186  0.4099
 1427SOL    HW3 5475   0.814   4.918   5.051 -0.9885  1.8189 -0.4034
 1427SOL    MW4 5476   0.784   4.928   5.132  0.7211 -0.1327  0.0290
 1428SOL     OW 5477   5.099   3.539   3.641  0.0007  0.3246  0.1835
 1428SOL    HW2 5478   5.129   3.543   3.732 -1.2057 -0.2570  0.6268
 1428SOL    HW3 5479   5.126   3.623   3.603  0.7735  0.4543  0.9843
 1428SOL    MW4 5480   5.106   3.551   3.648  0.0087  0.3951 -0.0966
 1429SOL     OW 5481   5.884   1.638   5.984 -0.5302 -0.5805 -0.0060
 1429SOL    HW2 5482   5.877   1.630   6.079 -3.7081 -2.8941 -0.2782
 1429SOL    HW3 5483   5.971   1.603   5.964  0.2375  0.0100  2.0211
 1429SOL    MW4 5484   5.894   1.632   5.994  0.3022 -0.0649 -0.3517
 1430SOL     OW 5485   3.792   2.738   4.600  0.0343  0.3905  0.0044
 1430SOL    HW2 5486   3.854   2.781   4.541  0.7922 -0.4400  0.1653
 1430SOL    HW3 5487   3.843   2.722   4.679 -0.9053  1.2911  0.8270
 1430SOL    MW4 5488   3.807   2.742   4.603 -0.3855 -0.0505 -0.2200
 1431SOL     OW 5489   5.734   2.072   2.609  0.5148  1.0341  0.4333
 1431SOL    HW2 5490   5.743   1.988   2.654 -0.4641  1.2684  1.0863
 1431SOL    HW3 5491   5.704   2.133   2.676 -2.5406  1.0587 -0.7919
 1431SOL    MW4 5492   5.732   2.069   2.624 -0.3782 -0.1480  0.6280
 1432SOL     OW 5493   0.465   3.729   1.078 -0.5209  0.1040  0.2871
 1432SOL    HW2 5494   0.532   3.667   1.107  0.8537 -0.3032 -3.2720
 1432SOL    HW3 5495   0.393   3.674   1.047 -0.9880  0.4336  0.7752
 1432SOL    MW4 5496   0.465   3.713   1.078 -0.1746 -0.0558 -0.1189
 1433SOL     OW 5497   1.194   0.323   4.501 -0.9768  0.4062  0.5588
 1433SOL    HW2 5498   1.255   0.346   4.571 -1.5214 -0.0340  1.1931
 1433SOL    HW3 5499   1.249   0.308   4.424 -0.3565  0.7067  0.9374
 1433SOL    MW4 5500   1.209   0.324   4.500  0.5575  0.1082 -0.3998
 1434SOL     OW 5501   6.049   4.288   0.663  0.1817 -0.0170  0.3706
 1434SOL    HW2 5502   5.973   4.300   0.607  0.7461  0.5845 -0.2864
 1434SOL    HW3 5503   6.098   4.217   0.621 -0.0755 -0.4906  0.8618
 1434SOL    MW4 5504   6.046   4.280   0.650  0.1802 -0.5009 -0.4526
 1435SOL     OW 5505   3.993   2.206   2.396 -0.2325 -0.0223  0.3690
 1435SOL    HW2 5506   3.973   2.137   2.459  0.6659 -0.9217 -0.2986
 1435SOL    HW3 5507   3.908   2.239   2.368 -0.7243 -1.4984  0.0161
 1435SOL    MW4 5508   3.979   2.201   2.401  0.3166 -0.6643 -0.4027
 1436SOL     OW 5509   6.135   3.429   3.216 -0.1687  0.2964 -0.4520
 1436SOL    HW2 5510   6.200   3.496   3.238 -0.6705  0.5012  0.4707
 1436SOL    HW3 5511   6.127   3.434   3.121 -1.5226  2.8681 -0.3002
 1436SOL    MW4 5512   6.142   3.439   3.207 -0.0740 -0.3097 -0.2897
 1437SOL     OW 5513   6.069   5.199   6.257 -0.4264 -0.6586 -0.2401
 1437SOL    HW2 5514   6.055   5.205   6.162 -1.3503  0.5807 -0.0538
 1437SOL    HW3 5515   6.141   5.260   6.274 -2.0164  1.2313  0.1486
 1437SOL    MW4 5516   6.076   5.208   6.246 -0.1504 -0.8344  0.6463
 1438SOL     OW 5517   5.489   2.803   3.219 -0.2394  0.0827  0.0978
 1438SOL    HW2 5518   5.450   2.720   3.190 -1.4812  1.0842 -1.2248
 1438SOL    HW3 5519   5.584   2.789   3.211 -0.4603 -0.8373 -1.1724
 1438SOL    MW4 5520   5.497   2.790   3.214 -0.5701  0.2228  0.5397
 1439SOL     OW 5521   2.472   0.911   1.351 -0.0012 -0.0995  0.2179
 1439SOL    HW2 5522   2.557   0.955   1.358  0.1924 -0.6216  1.5317
 1439SOL    HW3 5523   2.446   0.896   1.442 -2.7977  2.4299 -0.0026
 1439SOL    MW4 5524   2.480   0.915   1.364  0.4686  0.2405  0.2773
 1440SOL     OW 5525   2.796   5.516   3.057 -0.5879 -0.4322 -0.2111
 1440SOL    HW2 5526   2.807   5.572   2.979 -2.2356 -0.2996 -0.3824
 1440SOL    HW3 5527   2.706   5.532   3.085 -1.1124 -2.9676 -0.2303
 1440SOL    MW4 5528   2.786   5.526   3.050  0.1609 -0.7314 -0.3465
 1441SOL     OW 5529   1.066   4.171   3.413 -0.3808 -0.0124 -0.3060
 1441SOL    HW2 5530   1.056   4.266   3.403 -0.6331 -0.0844 -0.7621
 1441SOL    HW3 5531   1.106   4.143   3.330 -4.0247 -0.8544 -2.0050
 1441SOL    MW4 5532   1.070   4.180   3.400  0.1987  0.1663 -0.3601
 1442SOL     OW 5533   2.926   5.372   1.047  0.4758  0.3013  0.0734
 1442SOL    HW2 5534   2.858   5.390   0.982 -0.1465  0.9451  0.8670
 1442SOL    HW3 5535   3.005   5.358   0.996 -0.3931 -1.2857 -0.9278
 1442SOL    MW4 5536   2.927   5.373   1.032  0.0691 -0.1931  0.1820
 1443SOL     OW 5537   5.622   1.671   2.556 -0.0685 -0.7272  0.4564
 1443SOL    HW2 5538   5.686   1.682   2.486 -1.5067  1.3393 -0.6350
 1443SOL    HW3 5539   5.625   1.578   2.577  1.9728 -1.0091 -0.7970
 1443SOL    MW4 5540   5.631   1.661   2.550  0.1596 -0.4740 -0.3457
 1444SOL     OW 5541   1.507   3.593   2.457 -0.3641  0.2931 -0.6861
 1444SOL    HW2 5542   1.474   3.672   2.500 -0.9637 -0.9111  1.2258
 1444SOL    HW3 5543   1.599   3.611   2.441 -0.5515  1.4720 -0.5233
 1444SOL    MW4 5544   1.515   3.606   2.461  0.3122 -0.1191 -0.0419
 1445SOL     OW 5545   6.014   3.200   2.609  0.2135 -0.5166 -0.3532
 1445SOL    HW2 5546   5.929   3.244   2.606 -0.8631 -2.4836 -0.2038
 1445SOL    HW3 5547   6.027   3.166   2.521  0.4930 -0.8392 -0.1902
 1445SOL    MW4 5548   6.004   3.201   2.597  0.3396  0.4336 -0.2542
 1446SOL     OW 5549   6.280   6.219   4.317 -0.1644 -0.0185 -0.0548
 1446SOL    HW2 5550   6.242   6.146   4.367  1.5607  0.3647  1.9226
 1446SOL    HW3 5551   6.217   6.290   4.328  0.2021  0.0813  1.7103
 1446SOL    MW4 5552   6.266   6.218   4.325  0.4030  0.2778 -0.6937
 1447SOL     OW 5553   1.526   0.191   5.139 -0.7140 -0.0777  0.0058
 1447SOL    HW2 5554   1.526   0.175   5.045  1.1252  0.1180 -0.0648
 1447SOL    HW3 5555   1.495   0.109   5.177 -0.9597 -0.3441 -0.7570
 1447SOL    MW4 5556   1.522   0.178   5.132 -0.1493  0.5176 -0.2433
 1448SOL     OW 5557   0.777   2.054   5.445  0.0051  0.2782  0.2079
 1448SOL    HW2 5558   0.856   2.086   5.400  2.3961 -2.8149  1.7664
 1448SOL    HW3 5559   0.748   1.980   5.391 -1.5707  1.0489 -0.0465
 1448SOL    MW4 5560   0.784   2.048   5.432 -0.2166 -0.1465 -0.7611
 1449SOL     OW 5561   4.388   0.318   1.616 -0.0870 -0.0141  0.7888
 1449SOL    HW2 5562   4.463   0.374   1.638 -0.6860  0.6332  1.2067
 1449SOL    HW3 5563   4.382   0.256   1.689  2.4444 -2.6851 -1.0463
 1449SOL    MW4 5564   4.397   0.317   1.629 -0.3519 -0.2298  0.3792
 1450SOL     OW 5565   6.210   6.411   5.517 -0.1162  0.1092 -0.2797
 1450SOL    HW2 5566   6.209   6.347   5.445 -0.4866  1.1384 -1.2232
 1450SOL    HW3 5567   6.178   6.362   5.593  0.8080 -1.1557 -0.6733
 1450SOL    MW4 5568   6.205   6.396   5.517  0.5345  0.2813 -0.5785
 1451SOL     OW 5569   4.596   2.828   0.877 -0.7362 -0.5953 -0.1596
 1451SOL    HW2 5570   4.578   2.814   0.784  0.7474  0.8158 -0.7050
 1451SOL    HW3 5571   4.691   2.821   0.885 -0.8554 -0.8304  1.2784
 1451SOL    MW4 5572   4.606   2.826   0.865  0.9922 -0.0603  0.1688
 1452SOL     OW 5573   2.090   1.389   3.902  0.2294  0.3060 -0.0937
 1452SOL    HW2 5574   2.113   1.388   3.995  1.5877 -1.5640 -0.4006
 1452SOL    HW3 5575   2.128   1.471   3.869  1.3379  0.1239  0.6594
 1452SOL    MW4 5576   2.098   1.400   3.910 -0.0024  0.0399  0.3159
 1453SOL     OW 5577   0.875   4.261   2.292 -0.6917 -0.3472  0.8560
 1453SOL    HW2 5578   0.939   4.256   2.220 -0.5745  1.0815  0.8301
 1453SOL    HW3 5579   0.832   4.346   2.280 -0.4018  0.1074  2.6919
 1453SOL    MW4 5580   0.878   4.272   2.281 -0.1436 -0.3491 -0.2806
 1454SOL     OW 5581   3.934   2.413   5.373  0.4241 -0.2771  0.7042
 1454SOL    HW2 5582   3.870   2.387   5.307 -2.4557  4.1048  1.3856
 1454SOL    HW3 5583   3.900   2.378   5.455  0.1412  0.1462  0.7683
 1454SOL    MW4 5584   3.921   2.405   5.375  0.1571 -0.3495  0.1418
 1455SOL     OW 5585   5.942   4.221   3.731  0.0029 -0.1620  0.0183
 1455SOL    HW2 5586   6.003   4.149   3.750  0.1929  0.6341  2.8501
 1455SOL    HW3 5587   5.993   4.282   3.679  0.4119 -1.2324 -0.8815
 1455SOL    MW4 5588   5.957   4.219   3.727  0.2145  0.5190 -0.9011
 1456SOL     OW 5589   1.525   6.226   3.065 -0.0882  0.4576  0.1203
 1456SOL    HW2 5590   1.539   6.265   2.979  2.5750  0.0334  0.2918
 1456SOL    HW3 5591   1.444   6.175   3.055 -0.3197  1.1476 -1.8449
 1456SOL    MW4 5592   1.516   6.224   3.052 -0.2011 -0.3627  0.4971
 1457SOL     OW 5593   5.004   2.573   4.944 -0.5951 -0.2437 -0.0162
 1457SOL    HW2 5594   5.082   2.521   4.965 -0.7753 -0.6271 -0.2863
 1457SOL    HW3 5595   5.033   2.664   4.951  0.0047 -0.3823 -0.5679
 1457SOL    MW4 5596   5.018   2.578   4.948 -0.2185  0.2615 -0.1009
 1458SOL     OW 5597   0.113   4.816   2.511 -0.1437  0.5375  0.0457
 1458SOL    HW2 5598   0.177   4.798   2.579  1.5538 -0.9479 -1.7987
 1458SOL    HW3 5599   0.137   4.903   2.478  0.8169  0.1013 -0.4593
 1458SOL    MW4 5600   0.125   4.825   2.515 -0.5444 -0.4873  1.0588
 1459SOL     OW 5601   6.311   1.479   5.575  0.3113 -0.2551  0.3514
 1459SOL    HW2 5602   6.222   1.449   5.592  0.1354 -1.1253 -1.7818
 1459SOL    HW3 5603   6.321   1.556   5.631 -1.1939 -1.0661  1.8224
 1459SOL    MW4 5604   6.301   1.485   5.584  0.4382  0.5202  0.5370
 1460SOL     OW 5605   0.334   6.302   5.629 -0.0769 -0.3486  0.1554
 1460SOL    HW2 5606   0.251   6.259   5.649 -0.2830  0.1344  0.3647
 1460SOL    HW3 5607   0.343   6.370   5.696  0.8989 -0.9314  0.6300
 1460SOL    MW4 5608   0.324   6.306   5.640 -0.9184  0.2926  0.5378
 1461SOL     OW 5609   6.171   1.434   3.749  0.0980 -0.1113 -0.0650
 1461SOL    HW2 5610   6.192   1.504   3.687  1.1243 -1.8043 -1.7318
 1461SOL    HW3 5611   6.236   1.367   3.732 -2.7102 -2.8745 -0.8322
 1461SOL    MW4 5612   6.182   1.434   3.738  0.9227 -0.3863 -0.0764
 1462SOL     OW 5613   2.980   5.449   3.251 -0.1509  0.0244  0.1230
 1462SOL    HW2 5614   2.906   5.469   3.192  0.0266 -0.1852 -0.1737
 1462SOL    HW3 5615   2.956   5.491   3.334  0.0502  1.1821 -0.3818
 1462SOL    MW4 5616   2.967   5.457   3.254 -0.1921 -0.0690  0.1877
 1463SOL     OW 5617   0.627   4.895   1.173  0.2626 -0.1931 -0.2460
 1463SOL    HW2 5618   0.614   4.805   1.204  0.4391 -0.3312 -0.5741
 1463SOL    HW3 5619   0.696   4.929   1.229  1.0898 -0.6809 -0.9548
 1463SOL    MW4 5620   0.634   4.888   1.185 -0.4412 -0.1233 -0.6813
 1464SOL     OW 5621   0.901   3.924   5.181  0.8372 -0.1334  0.3235
 1464SOL    HW2 5622   0.930   3.833   5.191  0.0676 -0.4186  0.0251
 1464SOL    HW3 5623   0.841   3.922   5.106 -1.4844  0.0327  2.0482
 1464SOL    MW4 5624   0.897   3.912   5.173 -0.1132 -0.5681  0.1505
 1465SOL     OW 5625   5.921   3.255   3.289  0.6630 -1.0539 -0.5033
 1465SOL    HW2 5626   5.842   3.290   3.248  0.4696 -1.2349 -0.2848
 1465SOL    HW3 5627   5.982   3.329   3.291 -0.0313 -0.4987  0.6990
 1465SOL    MW4 5628   5.919   3.269   3.284  0.0526  0.0923  0.2443
 1466SOL     OW 5629   0.470   1.435   0.559 -0.8790  0.0237 -0.3198
 1466SOL    HW2 5630   0.506   1.470   0.640 -1.7513 -1.0009  0.5518
 1466SOL    HW3 5631   0.474   1.508   0.497 -0.0220  0.7715  0.5791
 1466SOL    MW4 5632   0.475   1.449   0.562 -0.0587 -0.0627 -0.1248
 1467SOL     OW 5633   5.319   1.032   3.272 -0.3064  0.6678  0.0204
 1467SOL    HW2 5634   5.245   1.044   3.212 -0.8015 -0.0587  0.4606
 1467SOL    HW3 5635   5.375   0.968   3.228 -0.2906  0.6975 -0.0025
 1467SOL    MW4 5636   5.316   1.025   3.259 -0.4975  0.8062 -0.6493
 1468SOL     OW 5637   5.411   5.658   1.009  0.8690  0.1149 -0.4732
 1468SOL    HW2 5638   5.342   5.593   1.000 -0.7970  1.9485 -1.7794
 1468SOL    HW3 5639   5.485   5.621   0.960  0.2228 -1.1154 -0.5559
 1468SOL    MW4 5640   5.412   5.645   1.001  0.3798 -0.2965 -0.2391
 1469SOL     OW 5641   2.818   1.352   3.150  0.0166  0.0304 -0.5979
 1469SOL    HW2 5642   2.833   1.441   3.116 -0.6832  0.1037 -0.7355
 1469SOL    HW3 5643   2.808   1.364   3.244  0.1136  0.0724 -0.5925
 1469SOL    MW4 5644   2.819   1.365   3.158  0.1565  0.3398  0.1220
 1470SOL     OW 5645   3.402   0.785   5.219  0.3814 -0.1578  0.0619
 1470SOL    HW2 5646   3.452   0.747   5.291  0.6439  1.0264  0.5336
 1470SOL    HW3 5647   3.381   0.711   5.162  0.0502 -1.1457  1.4183
 1470SOL    MW4 5648   3.406   0.771   5.221  0.4224 -0.1161 -0.1974
 1471SOL     OW 5649   3.480   6.410   1.559 -0.3325 -0.1977  0.2112
 1471SOL    HW2 5650   3.536   6.375   1.628  1.8798  2.0136 -0.3313
 1471SOL    HW3 5651   3.430   6.480   1.601  0.6113  0.7820 -0.2563
 1471SOL    MW4 5652   3.481   6.415   1.574  0.4005 -0.1574 -0.5603
 1472SOL     OW 5653   5.293   4.826   5.997 -0.8734  0.3722 -0.1456
 1472SOL    HW2 5654   5.214   4.773   6.010 -0.9542  0.1633 -1.4348
 1472SOL    HW3 5655   5.350   4.802   6.071 -2.1768  0.8641  1.0647
 1472SOL    MW4 5656   5.290   4.816   6.009 -0.1327  0.1107  0.4619
 1473SOL     OW 5657   0.913   0.269   3.367  0.6753  0.4403  0.1789
 1473SOL    HW2 5658   0.959   0.310   3.441 -0.4356  2.1762 -0.0072
 1473SOL    HW3 5659   0.833   0.233   3.406  1.6483 -1.6258  0.3350
 1473SOL    MW4 5660   0.908   0.270   3.382  0.0996 -0.2808  0.0565
 1474SOL     OW 5661   0.664   1.613   6.131  0.1530 -0.0877 -0.0507
 1474SOL    HW2 5662   0.664   1.523   6.164 -0.0967 -0.6979 -1.6607
 1474SOL    HW3 5663   0.661   1.667   6.210 -0.4140 -1.4899  0.9194
 1474SOL    MW4 5664   0.664   1.608   6.146  0.0854 -0.2300 -0.4924
 1475SOL     OW 5665   6.418   0.482   0.973  0.0639 -0.0608 -0.3079
 1475SOL    HW2 5666   6.441   0.556   1.028  0.5358  0.5967 -1.3568
 1475SOL    HW3 5667   6.322   0.482   0.971  0.0511  1.1270 -1.0477
 1475SOL    MW4 5668   6.408   0.492   0.980 -0.7406 -0.2948 -0.1585
 1476SOL     OW 5669   2.190   0.175   3.322 -0.2862 -0.1522 -0.1342
 1476SOL    HW2 5670   2.108   0.125   3.318 -0.8916  0.7592  0.5289
 1476SOL    HW3 5671   2.259   0.110   3.307 -1.0302 -1.2324  0.9561
 1476SOL    MW4 5672   2.188   0.160   3.319 -0.4204  0.3919  1.0510
 1477SOL     OW 5673   3.050   0.156   5.138  0.0572  0.0384 -0.4531
 1477SOL    HW2 5674   3.046   0.074   5.089 -2.3398  0.2638 -0.7745
 1477SOL    HW3 5675   2.966   0.199   5.120 -0.0094  1.1650  2.0589
 1477SOL    MW4 5676   3.038   0.151   5.129 -0.0775 -0.3294  0.0518
 1478SOL     OW 5677   0.592   3.459   6.359  0.0187  0.0413  0.0127
 1478SOL    HW2 5678   0.615   3.546   6.391 -1.4672 -0.1450  1.8055
 1478SOL    HW3 5679   0.506   3.470   6.319  0.0523 -0.5125 -0.2208
 1478SOL    MW4 5680   0.584   3.472   6.358  0.0323 -0.0805  0.3403
 1479SOL     OW 5681   1.031   0.059   3.211 -0.6159  0.2999 -0.2170
 1479SOL    HW2 5682   1.033  -0.020   3.265 -0.4433 -0.3764 -1.1822
 1479SOL    HW3 5683   1.004   0.129   3.271 -1.4862 -0.6153  0.4869
 1479SOL    MW4 5684   1.028   0.058   3.226 -0.5545  0.4250 -0.2780
 1480SOL     OW 5685   0.866   3.366   6.234  0.4166  0.0351 -0.1902
 1480SOL    HW2 5686   0.795   3.346   6.173  0.5101  0.1102 -0.3215
 1480SOL    HW3 5687   0.853   3.458   6.257  1.6399  0.6262 -1.7437
 1480SOL    MW4 5688   0.855   3.375   6.229 -0.2383  0.2334  0.4619
 1481SOL     OW 5689   3.683   0.970   0.962 -0.7738  0.1456  0.0005
 1481SOL    HW2 5690   3.737   1.027   0.907 -1.5376  0.2170 -0.6916
 1481SOL    HW3 5691   3.612   1.028   0.993 -1.3766 -0.3366 -0.4502
 1481SOL    MW4 5692   3.680   0.985   0.959  0.0739 -0.0875  0.1396
 1482SOL     OW 5693   2.284   3.628   5.436  0.0411 -0.0783  0.3623
 1482SOL    HW2 5694   2.298   3.566   5.365 -0.2057 -0.2618  0.4693
 1482SOL    HW3 5695   2.274   3.713   5.393  0.6420 -0.0659  0.2308
 1482SOL    MW4 5696   2.285   3.631   5.421 -0.7580  0.4019 -0.4714
 1483SOL     OW 5697   2.990   5.877   5.457 -0.5709 -0.0511 -0.2925
 1483SOL    HW2 5698   2.957   5.948   5.513 -1.8930 -0.6006 -0.3495
 1483SOL    HW3 5699   2.913   5.844   5.412  0.5753  1.1094 -3.3659
 1483SOL    MW4 5700   2.976   5.882   5.459 -0.3192 -0.3723 -0.0526
 1484SOL     OW 5701   1.666   0.095   3.620  0.5132  0.2551 -0.1192
 1484SOL    HW2 5702   1.745   0.147   3.631  0.7495 -0.4005  1.5996
 1484SOL    HW3 5703   1.638   0.074   3.709 -1.5839  0.4298 -0.6750
 1484SOL    MW4 5704   1.673   0.099   3.633  0.1638 -0.2730 -0.4326
 1485SOL     OW 5705   3.195   3.451   4.533 -0.0095 -0.1061  0.3436
 1485SOL    HW2 5706   3.131   3.447   4.462  1.0154 -0.9732 -0.5746
 1485SOL    HW3 5707   3.200   3.361   4.565  1.0366 -0.1307  0.1316
 1485SOL    MW4 5708   3.187   3.438   4.528 -0.1590 -0.2232 -0.9838
 1486SOL     OW 5709   3.240   0.108   4.755  0.2923 -0.4849  0.6271
 1486SOL    HW2 5710   3.256   0.140   4.844  0.4513 -0.5125  0.6094
 1486SOL    HW3 5711   3.256   0.014   4.760  0.2384 -0.4968  0.5838
 1486SOL    MW4 5712   3.244   0.100   4.767 -0.4528  0.0094 -0.1654
 1487SOL     OW 5713   3.330   4.976   0.341  0.3961  0.3082  0.0412
 1487SOL    HW2 5714   3.377   4.920   0.279  0.3696 -2.0999  2.0336
 1487SOL    HW3 5715   3.307   4.917   0.414 -0.9276  2.6303  1.6313
 1487SOL    MW4 5716   3.333   4.961   0.343  0.2733 -0.1085  0.2019
 1488SOL     OW 5717   4.291   0.859   1.772  0.4104  0.2774 -0.3933
 1488SOL    HW2 5718   4.311   0.845   1.864 -0.0832 -0.6222 -0.4215
 1488SOL    HW3 5719   4.196   0.870   1.769  0.3301 -0.4875 -0.8826
 1488SOL    MW4 5720   4.281   0.859   1.784  0.2509  0.0126 -0.4387
 1489SOL     OW 5721   2.255   0.780   3.577 -0.6738  0.3742 -0.0882
 1489SOL    HW2 5722   2.168   0.753   3.548 -0.4851 -0.1989 -0.1447
 1489SOL    HW3 5723   2.315   0.721   3.530 -0.2853  0.4327  0.3243
 1489SOL    MW4 5724   2.252   0.768   3.567  0.3690 -0.1717 -0.0893
 1490SOL     OW 5725   4.037   0.859   1.723  0.2203 -0.1934  0.3053
 1490SOL    HW2 5726   4.021   0.780   1.774 -1.1338 -0.8882 -1.0845
 1490SOL    HW3 5727   3.975   0.924   1.758  1.0017  0.1106  1.1351
 1490SOL    MW4 5728   4.027   0.857   1.734  0.2891  0.5494  0.0419
 1491SOL     OW 5729   4.698   4.327   1.051  0.2386 -0.0932  0.1197
 1491SOL    HW2 5730   4.749   4.364   0.979  2.1767 -1.6677  0.5937
 1491SOL    HW3 5731   4.720   4.381   1.127  1.1034 -0.6580  0.2833
 1491SOL    MW4 5732   4.707   4.339   1.052 -0.0745 -0.2364 -0.1848
 1492SOL     OW 5733   2.243   5.212   5.744  0.6473  0.1652  0.0932
 1492SOL    HW2 5734   2.180   5.238   5.677 -0.4408  1.3722  1.5322
 1492SOL    HW3 5735   2.191   5.167   5.810  1.1999  1.3893  1.4260
 1492SOL    MW4 5736   2.228   5.209   5.744 -0.2470  0.1558  0.0897
 1493SOL     OW 5737   0.979   1.266   3.392 -0.2149 -0.0518 -0.3228
 1493SOL    HW2 5738   1.072   1.285   3.388  0.0651 -1.1686  0.4902
 1493SOL    HW3 5739   0.969   1.180   3.350 -0.9526  0.2796 -0.8599
 1493SOL    MW4 5740   0.990   1.257   3.386  0.2230 -0.2801  0.0448
 1494SOL     OW 5741   3.457   6.074   1.613 -0.0608 -0.0814  0.3220
 1494SOL    HW2 5742   3.530   6.110   1.563 -0.5426  0.2199 -0.1714
 1494SOL    HW3 5743   3.386   6.067   1.550  0.2426 -2.7490  0.1437
 1494SOL    MW4 5744   3.457   6.078   1.598 -0.1592  0.2794 -0.5808
 1495SOL     OW 5745   4.001   3.294   3.671 -0.5472 -0.2657  0.2683
 1495SOL    HW2 5746   4.071   3.245   3.713  0.8806  0.8604 -0.6813
 1495SOL    HW3 5747   4.046   3.362   3.620 -2.2726 -0.1567 -1.2424
 1495SOL    MW4 5748   4.016   3.297   3.670 -0.3295 -0.4318 -0.1686
 1496SOL     OW 5749   1.800   6.122   2.109 -0.3863 -0.1326  0.3246
 1496SOL    HW2 5750   1.847   6.040   2.125  0.8798  0.3833 -0.5546
 1496SOL    HW3 5751   1.709   6.097   2.101  0.1032 -1.6097 -1.0072
 1496SOL    MW4 5752   1.794   6.108   2.110  0.5026 -0.3189  0.3001
 1497SOL     OW 5753   2.150   3.162   4.662  0.4675 -0.0220  0.3348
 1497SOL    HW2 5754   2.082   3.106   4.699 -0.5881  0.1141 -1.3009
 1497SOL    HW3 5755   2.225   3.104   4.649 -0.4285 -0.9465 -0.8375
 1497SOL    MW4 5756   2.151   3.147   4.665 -0.0513 -0.1043 -0.1118
 1498SOL     OW 5757   1.535   5.334   0.141 -0.1963 -0.5198  0.3234
 1498SOL    HW2 5758   1.513   5.415   0.095 -0.4561 -0.0750  1.1923
 1498SOL    HW3 5759   1.517   5.354   0.233  1.0020 -1.1313  0.7137
 1498SOL    MW4 5760   1.530   5.348   0.147 -0.2431 -0.0292  0.5181
 1499SOL     OW 5761   4.118   2.606   1.153 -0.3856 -0.1365  0.0333
 1499SOL    HW2 5762   4.176   2.545   1.107 -0.5700 -0.8772  0.7595
 1499SOL    HW3 5763   4.030   2.583   1.124 -0.3742  0.7406 -0.7781
 1499SOL    MW4 5764   4.114   2.595   1.143  0.0349 -0.3109 -0.4954
 1500SOL     OW 5765   3.864   5.949   6.279  0.2449  0.2971  0.7058
 1500SOL    HW2 5766   3.915   6.020   6.319  1.9442 -1.1545  1.2680
 1500SOL    HW3 5767   3.930   5.889   6.245 -1.1090  0.5215 -2.7423
 1500SOL    MW4 5768   3.880   5.950   6.280 -0.1760 -0.4598  0.8662
 1501SOL     OW 5769   5.252   0.894   1.525 -0.0369 -0.4412 -0.0001
 1501SOL    HW2 5770   5.274   0.959   1.591  0.9565 -0.1336 -0.6103
 1501SOL    HW3 5771   5.169   0.925   1.487  1.5260  1.7969 -1.8669
 1501SOL    MW4 5772   5.244   0.907   1.529  0.2039 -0.6488  0.5344
 1502SOL     OW 5773   5.799   3.045   4.190 -0.1528  0.0103 -0.1600
 1502SOL    HW2 5774   5.804   2.957   4.225 -1.1304  0.0639  0.1453
 1502SOL    HW3 5775   5.753   3.095   4.257 -0.8129  0.4321 -0.9050
 1502SOL    MW4 5776   5.794   3.040   4.204 -0.3143 -0.2583 -0.0067
 1503SOL     OW 5777   5.886   0.754   3.769 -0.2453  0.6088 -0.6440
 1503SOL    HW2 5778   5.928   0.735   3.685  0.3345  0.8292 -0.4094
 1503SOL    HW3 5779   5.809   0.806   3.745 -0.8326 -0.4525 -1.1372
 1503SOL    MW4 5780   5.882   0.759   3.755  0.5324  0.5590 -0.0228
 1504SOL     OW 5781   6.367   2.705   0.150 -0.1186 -0.0576 -0.7574
 1504SOL    HW2 5782   6.414   2.788   0.154 -0.0800 -0.0844 -0.6451
 1504SOL    HW3 5783   6.275   2.728   0.163 -0.0305 -0.1082  0.0029
 1504SOL    MW4 5784   6.361   2.719   0.153 -0.3931 -0.1986  0.3973
 1505SOL     OW 5785   5.004   0.115   0.066 -0.0396  0.4779  0.1232
 1505SOL    HW2 5786   4.978   0.026   0.042  0.7220  0.2861 -0.0213
 1505SOL    HW3 5787   4.929   0.169   0.040 -1.1594 -0.2835  1.6213
 1505SOL    MW4 5788   4.990   0.110   0.059 -0.3794 -0.5833  0.1905
 1506SOL     OW 5789   5.237   3.330   3.066 -0.4150 -0.1229 -0.4012
 1506SOL    HW2 5790   5.191   3.391   3.124 -0.5217  0.8217 -1.4473
 1506SOL    HW3 5791   5.184   3.327   2.986  0.9871  0.5192 -1.3941
 1506SOL    MW4 5792   5.224   3.338   3.063  0.2715 -0.1545  0.2674
 1507SOL     OW 5793   1.698   1.756   5.121 -0.4860 -0.0768 -0.3939
 1507SOL    HW2 5794   1.635   1.768   5.192  0.1769 -0.6848  0.3144
 1507SOL    HW3 5795   1.678   1.827   5.060 -1.4535  0.1095  0.1096
 1507SOL    MW4 5796   1.687   1.767   5.123  0.5763  0.3617 -0.3671
 1508SOL     OW 5797   0.827   2.990   5.994 -0.5962 -0.0301  0.3815
 1508SOL    HW2 5798   0.742   2.946   5.999  0.0827 -1.5231 -0.4170
 1508SOL    HW3 5799   0.869   2.968   6.077 -0.2698 -0.9136 -0.0033
 1508SOL    MW4 5800   0.821   2.981   6.006  0.5373  0.2879 -0.7970
 1509SOL     OW 5801   4.554   5.084   1.217  0.3891 -0.2898 -0.1087
 1509SOL    HW2 5802   4.574   5.176   1.203 -0.3413  0.1337  1.4072
 1509SOL    HW3 5803   4.491   5.062   1.148 -0.1911  0.6274  0.1170
 1509SOL    MW4 5804   4.548   5.093   1.206 -0.1606  0.0427 -0.5824
 1510SOL     OW 5805   4.648   5.259   3.821 -0.1206 -0.4064 -0.2506
 1510SOL    HW2 5806   4.681   5.197   3.886  0.2246  0.8867  0.8592
 1510SOL    HW3 5807   4.628   5.338   3.871  0.6144  0.8103 -1.7608
 1510SOL    MW4 5808   4.650   5.261   3.836  0.7393  0.0983 -0.4741
 1511SOL     OW 5809   4.485   3.615   0.742  0.3022 -0.1425 -0.3069
 1511SOL    HW2 5810   4.567   3.592   0.698  0.2043  2.0852 -1.8018
 1511SOL    HW3 5811   4.424   3.546   0.714  1.0419 -0.4810 -1.1485
 1511SOL    MW4 5812   4.488   3.603   0.732  0.1974  0.0296 -0.4788
 1512SOL     OW 5813   3.583   4.295   5.954  0.5978  0.3034 -0.0161
 1512SOL    HW2 5814   3.624   4.371   5.996  0.6859 -0.0685  0.5811
 1512SOL    HW3 5815   3.656   4.249   5.912  0.8170 -0.3684  1.0628
 1512SOL    MW4 5816   3.598   4.299   5.954 -0.1737  0.0551 -0.3468
 1513SOL     OW 5817   4.003   5.945   0.259  0.0566  0.3592  0.4084
 1513SOL    HW2 5818   3.967   5.856   0.263  2.5278 -0.7367 -0.0639
 1513SOL    HW3 5819   4.025   5.966   0.349 -1.1667  0.8268  0.6240
 1513SOL    MW4 5820   4.001   5.936   0.271 -0.6176 -0.3702 -0.3136
 1514SOL     OW 5821   1.797   1.646   3.679  0.2228 -0.0041  0.0355
 1514SOL    HW2 5822   1.795   1.591   3.758 -2.4244  0.1417  0.1589
 1514SOL    HW3 5823   1.730   1.607   3.622  1.1762  0.6786 -1.5937
 1514SOL    MW4 5824   1.788   1.633   3.682  0.0844 -0.0141 -0.0503
 1515SOL     OW 5825   1.348   1.958   0.849  0.0532 -0.6575 -0.0569
 1515SOL    HW2 5826   1.389   1.893   0.906  0.3233 -0.5116 -0.0830
 1515SOL    HW3 5827   1.287   1.907   0.796  0.0994 -0.8567  0.0766
 1515SOL    MW4 5828   1.345   1.943   0.850  0.0850  0.0291 -0.4030
 1516SOL     OW 5829   1.411   5.152   5.559  0.0364  0.3524 -0.4652
 1516SOL    HW2 5830   1.437   5.199   5.638 -0.2880  1.0031 -0.7439
 1516SOL    HW3 5831   1.389   5.220   5.496 -0.5881 -0.1715 -0.8263
 1516SOL    MW4 5832   1.412   5.167   5.561  0.4139 -0.0578 -0.0497
 1517SOL     OW 5833   0.170   4.678   2.255 -0.5681  0.4829 -0.5152
 1517SOL    HW2 5834   0.114   4.601   2.267 -0.3728 -0.0089 -2.4699
 1517SOL    HW3 5835   0.128   4.747   2.307 -1.6763 -0.5000 -0.0723
 1517SOL    MW4 5836   0.157   4.677   2.264  0.3416 -0.0664 -0.5358
 1518SOL     OW 5837   5.301   3.263   0.908 -0.1773  0.5671 -0.4664
 1518SOL    HW2 5838   5.293   3.277   1.003  1.1024 -1.2522 -0.0252
 1518SOL    HW3 5839   5.370   3.323   0.881  0.0326  0.5122 -0.0667
 1518SOL    MW4 5840   5.309   3.273   0.917 -0.2823  0.7234 -0.2910
 1519SOL     OW 5841   5.863   6.177   2.960 -0.3343  0.5564 -0.2834
 1519SOL    HW2 5842   5.838   6.184   3.052  0.4686  1.3186 -0.1054
 1519SOL    HW3 5843   5.959   6.178   2.961 -0.2823  3.2011 -1.2730
 1519SOL    MW4 5844   5.872   6.178   2.972 -0.5728 -0.4434  0.1222
 1520SOL     OW 5845   2.250   1.919   2.002  0.1628  0.2072 -0.2008
 1520SOL    HW2 5846   2.163   1.925   2.041 -0.1926 -2.5819 -0.3958
 1520SOL    HW3 5847   2.305   1.973   2.058 -1.7448  2.5471 -0.4342
 1520SOL    MW4 5848   2.246   1.927   2.015 -0.2023  0.3466 -0.3774
 1521SOL     OW 5849   6.267   4.229   0.356 -0.5433  0.5377  0.1260
 1521SOL    HW2 5850   6.265   4.320   0.327 -2.2531  0.2230 -0.8299
 1521SOL    HW3 5851   6.287   4.179   0.277 -1.1036 -0.0181  0.3263
 1521SOL    MW4 5852   6.270   4.235   0.342  0.4356  0.1164 -0.4139
 1522SOL     OW 5853   4.658   4.070   4.346 -0.1896 -0.7180 -0.3046
 1522SOL    HW2 5854   4.678   3.992   4.398 -2.4207 -1.9607 -1.1799
 1522SOL    HW3 5855   4.671   4.042   4.256 -0.7211  0.0247 -0.6176
 1522SOL    MW4 5856   4.662   4.056   4.341  0.2183 -0.2313 -0.4423
 1523SOL     OW 5857   0.423   4.878   5.714 -0.6037  0.5859  0.2379
 1523SOL    HW2 5858   0.332   4.874   5.686 -0.7648  0.7517  0.7380
 1523SOL    HW3 5859   0.473   4.869   5.633 -0.9557 -3.3819  0.2490
 1523SOL    MW4 5860   0.418   4.876   5.700 -0.5413  0.1880 -0.1023
 1524SOL     OW 5861   3.256   1.555   3.622  0.1688  0.5326  0.3215
 1524SOL    HW2 5862   3.267   1.521   3.711  0.4328 -1.2715 -0.3494
 1524SOL    HW3 5863   3.162   1.546   3.606  0.0603  1.2264  0.5438
 1524SOL    MW4 5864   3.245   1.549   3.632 -0.1795  0.1102 -0.0362
 1525SOL     OW 5865   2.788   3.299   4.233 -0.4085 -0.2087  0.3793
 1525SOL    HW2 5866   2.850   3.263   4.169 -0.0822 -1.0215  1.1319
 1525SOL    HW3 5867   2.836   3.372   4.273 -0.2926 -0.2429  0.3052
 1525SOL    MW4 5868   2.803   3.304   4.230 -0.2498 -0.5386  0.1146
 1526SOL     OW 5869   3.793   3.397   5.788 -0.0456 -0.4080  0.2495
 1526SOL    HW2 5870   3.771   3.305   5.778 -0.5474 -0.5407  2.1318
 1526SOL    HW3 5871   3.759   3.439   5.710 -0.7832 -1.6565 -0.1249
 1526SOL    MW4 5872   3.786   3.390   5.776 -0.2711  0.4580  0.1106
 1527SOL     OW 5873   0.569   4.331   2.352  0.1394 -0.4277 -0.0861
 1527SOL    HW2 5874   0.510   4.405   2.367 -0.7441 -0.7300 -1.8002
 1527SOL    HW3 5875   0.515   4.254   2.371  0.8854 -0.6639  1.1517
 1527SOL    MW4 5876   0.554   4.330   2.357 -0.1358  0.7353  0.2398
 1528SOL     OW 5877   0.893   4.807   3.798  0.2157 -0.4490  0.0707
 1528SOL    HW2 5878   0.872   4.899   3.816  2.5569 -0.1140  1.4883
 1528SOL    HW3 5879   0.913   4.805   3.704  2.9209  1.1750  0.5178
 1528SOL    MW4 5880   0.892   4.819   3.788  0.8390 -0.0256  0.3435
 1529SOL     OW 5881   0.556   5.085   0.462 -0.4888 -0.3208 -0.1725
 1529SOL    HW2 5882   0.468   5.110   0.433 -0.4672  0.2548  0.2154
 1529SOL    HW3 5883   0.541   5.021   0.531 -0.6461  0.3283  0.4140
 1529SOL    MW4 5884   0.542   5.080   0.468 -0.0864  0.1151  0.4916
 1530SOL     OW 5885   4.829   1.966   4.677  0.3626 -0.1174 -0.4798
 1530SOL    HW2 5886   4.873   2.019   4.743  0.6562 -1.2563  0.2740
 1530SOL    HW3 5887   4.761   1.920   4.726  1.0712 -1.5515 -0.7926
 1530SOL    MW4 5888   4.826   1.967   4.692 -0.1681 -0.4399 -0.3460
 1531SOL     OW 5889   2.427   1.168   2.383 -0.1919  0.3652  0.8711
 1531SOL    HW2 5890   2.378   1.101   2.431  0.3207  0.4085  1.4748
 1531SOL    HW3 5891   2.519   1.141   2.393 -0.0467  0.6277  0.2924
 1531SOL    MW4 5892   2.433   1.155   2.390  0.1742  0.5733  0.3587
 1532SOL     OW 5893   1.836   3.037   1.247  0.6317 -0.2629 -0.0644
 1532SOL    HW2 5894   1.876   3.107   1.195  0.8993  1.4742  2.3234
 1532SOL    HW3 5895   1.890   2.960   1.229  0.1309 -0.0603 -3.0293
 1532SOL    MW4 5896   1.849   3.036   1.238  0.0147 -0.3193 -0.5188
 1533SOL     OW 5897   6.360   2.455   6.421  0.0736  0.0333 -0.7995
 1533SOL    HW2 5898   6.389   2.531   6.472  0.7321  0.3783 -1.6721
 1533SOL    HW3 5899   6.368   2.482   6.330 -0.0814 -0.9453 -1.1172
 1533SOL    MW4 5900   6.365   2.469   6.416 -0.0186  0.2902 -0.3154
 1534SOL     OW 5901   2.835   4.227   5.496  0.1424 -0.7269  0.2107
 1534SOL    HW2 5902   2.848   4.300   5.557  0.9863 -0.4269 -0.3079
 1534SOL    HW3 5903   2.903   4.163   5.521  0.5260 -0.5797 -0.4373
 1534SOL    MW4 5904   2.846   4.228   5.507 -0.1187  0.5480 -0.0525
 1535SOL     OW 5905   0.834   1.310   2.705  0.0355 -0.5372 -0.0001
 1535SOL    HW2 5906   0.901   1.244   2.686  1.0012  0.3910  0.0816
 1535SOL    HW3 5907   0.806   1.291   2.795  1.4982  0.1364  0.6330
 1535SOL    MW4 5908   0.839   1.298   2.714  0.1773 -0.1613  0.0383
 1536SOL     OW 5909   4.013   5.796   2.159  0.2169  0.2322 -0.3202
 1536SOL    HW2 5910   4.065   5.716   2.152  0.6327  0.5909 -1.6170
 1536SOL    HW3 5911   4.041   5.850   2.085 -2.3548  0.2460 -1.3696
 1536SOL    MW4 5912   4.024   5.793   2.148 -0.0950 -0.3988  0.0566
 1537SOL     OW 5913   3.422   6.047   1.919 -0.1575 -0.4649  0.5944
 1537SOL    HW2 5914   3.507   6.024   1.959  0.0846 -1.7338 -0.5843
 1537SOL    HW3 5915   3.436   6.038   1.825 -2.1687 -2.9309  0.4176
 1537SOL    MW4 5916   3.435   6.043   1.912  0.6660 -0.0928 -0.3463
 1538SOL     OW 5917   4.028   0.572   3.140  0.1248 -0.3683 -0.1953
 1538SOL    HW2 5918   4.092   0.560   3.070  0.2474 -2.9302  0.2564
 1538SOL    HW3 5919   3.945   0.541   3.102  0.2740 -2.1749  0.8516
 1538SOL    MW4 5920   4.025   0.566   3.126  0.2773  0.5550 -0.0199
 1539SOL     OW 5921   6.129   4.469   4.453  0.0118  0.2070 -0.0762
 1539SOL    HW2 5922   6.158   4.396   4.398 -1.8818 -0.7873  0.1718
 1539SOL    HW3 5923   6.183   4.543   4.424  0.2961 -0.7039 -2.0562
 1539SOL    MW4 5924   6.140   4.469   4.442 -0.1396  0.4953  0.5319
 1540SOL     OW 5925   1.385   5.285   4.238  0.9914  0.1695  0.3990
 1540SOL    HW2 5926   1.405   5.265   4.146  1.2482 -1.1702  0.7262
 1540SOL    HW3 5927   1.305   5.236   4.256  0.4714  1.0980  0.6713
 1540SOL    MW4 5928   1.377   5.276   4.228  0.3206  0.5493  0.2382
 1541SOL     OW 5929   2.292   6.231   3.029  0.0512 -0.7515 -0.2261
 1541SOL    HW2 5930   2.374   6.248   3.076  0.6904 -2.5112 -0.6386
 1541SOL    HW3 5931   2.310   6.258   2.939 -0.0476 -0.5246 -0.1782
 1541SOL    MW4 5932   2.306   6.237   3.024  0.1223 -0.0123 -0.1235
 1542SOL     OW 5933   6.152   5.761   1.791  0.5334 -0.7236  0.1852
 1542SOL    HW2 5934   6.100   5.805   1.857 -1.4255 -0.2351 -1.5750
 1542SOL    HW3 5935   6.241   5.793   1.806 -0.4261  2.1748  0.4014
 1542SOL    MW4 5936   6.157   5.771   1.801 -0.0781  0.1062 -0.5900
 1543SOL     OW 5937   3.518   0.649   0.090  0.3390 -0.1932  0.0572
 1543SOL    HW2 5938   3.596   0.597   0.074 -0.0930 -1.3018  1.3661
 1543SOL    HW3 5939   3.518   0.665   0.185 -0.8664  0.0054  0.0455
 1543SOL    MW4 5940   3.528   0.644   0.101 -0.9683  0.0292  0.2646
 1544SOL     OW 5941   2.661   4.576   1.187 -0.2158 -0.1157  0.2350
 1544SOL    HW2 5942   2.624   4.664   1.175 -0.6785 -0.1579  1.2451
 1544SOL    HW3 5943   2.749   4.582   1.152 -0.2857  0.7225  0.1814
 1544SOL    MW4 5944   2.667   4.589   1.181 -0.2108  0.1663 -0.5749
 1545SOL     OW 5945   1.528   4.149   3.609  0.3202  0.1376 -0.3612
 1545SOL    HW2 5946   1.452   4.125   3.662  0.4136 -0.1282 -0.3474
 1545SOL    HW3 5947   1.601   4.104   3.651  0.3912 -0.1016 -0.7334
 1545SOL    MW4 5948   1.528   4.140   3.621 -0.2267  0.3004  0.6506
 1546SOL     OW 5949   1.039   0.033   3.954  0.6920  0.1001  0.0209
 1546SOL    HW2 5950   1.072   0.098   3.892  0.6787  1.9163  1.7916
 1546SOL    HW3 5951   1.068   0.066   4.039 -1.0400 -1.1744  1.1529
 1546SOL    MW4 5952   1.047   0.046   3.957 -0.5633 -0.2218 -0.3394
 1547SOL     OW 5953   0.035   1.156   0.144  0.1303  0.1709  0.2355
 1547SOL    HW2 5954   0.090   1.175   0.220  0.1649 -0.7293  0.4483
 1547SOL    HW3 5955   0.038   1.236   0.091  1.8063  0.0688  0.1399
 1547SOL    MW4 5956   0.042   1.169   0.147 -0.4785  0.2504 -0.1854
 1548SOL     OW 5957   4.392   1.196   3.496  0.4897 -0.2364 -0.1962
 1548SOL    HW2 5958   4.424   1.250   3.568 -1.1722  0.1497  0.2948
 1548SOL    HW3 5959   4.429   1.236   3.417 -0.5788  1.5582  0.1702
 1548SOL    MW4 5960   4.401   1.208   3.495  0.0490 -0.1232 -0.5207
 1549SOL     OW 5961   4.813   1.646   3.435 -0.9110 -0.4188  0.0645
 1549SOL    HW2 5962   4.907   1.661   3.429 -1.2162  1.5303 -0.3912
 1549SOL    HW3 5963   4.793   1.585   3.364 -0.2424  0.5580 -0.9905
 1549SOL    MW4 5964   4.822   1.640   3.425 -0.2379 -0.2433  0.4382
 1550SOL     OW 5965   3.438   5.854   6.409 -0.0802  0.1217 -0.2697
 1550SOL    HW2 5966   3.509   5.799   6.376 -0.8220 -0.2758 -1.2738
 1550SOL    HW3 5967   3.413   5.909   6.334  1.1170  2.3966  0.8940
 1550SOL    MW4 5968   3.444   5.854   6.394  0.0219 -0.0072 -0.0200
 1551SOL     OW 5969   0.724   1.906   1.805 -0.2431  0.0383 -0.6754
 1551SOL    HW2 5970   0.631   1.889   1.788 -0.5169  0.7599  0.0499
 1551SOL    HW3 5971   0.736   1.887   1.898  0.3058  0.0848 -0.7327
 1551SOL    MW4 5972   0.714   1.902   1.815  0.1827 -0.1531  0.4853
 1552SOL     OW 5973   4.521   2.922   5.826 -0.0089 -0.2228  0.4747
 1552SOL    HW2 5974   4.529   2.837   5.870 -0.7461  0.0898  1.2290
 1552SOL    HW3 5975   4.427   2.931   5.809  0.2558 -0.3624 -1.2496
 1552SOL    MW4 5976   4.510   2.912   5.829 -0.5957 -0.2811  0.5925
 1553SOL     OW 5977   0.339   1.787   3.526 -0.3891 -0.5217  0.5015
 1553SOL    HW2 5978   0.417   1.793   3.472  0.6452  0.3678  2.0042
 1553SOL    HW3 5979   0.266   1.796   3.465  0.7060  3.3058 -0.5049
 1553SOL    MW4 5980   0.339   1.789   3.511  0.0306 -0.1513  0.2746
 1554SOL     OW 5981   1.894   1.180   1.023 -0.0580  0.1973 -0.0791
 1554SOL    HW2 5982   1.975   1.179   0.972 -0.9359  1.2450 -1.6239
 1554SOL    HW3 5983   1.916   1.226   1.104  1.1339 -0.5477  0.0325
 1554SOL    MW4 5984   1.907   1.186   1.027  0.2730 -0.1774  0.2135
 1555SOL     OW 5985   5.692   5.450   1.123 -0.7899 -0.4037  0.4477
 1555SOL    HW2 5986   5.754   5.506   1.077 -1.2775 -2.3203 -2.8127
 1555SOL    HW3 5987   5.668   5.501   1.201  4.7296  0.4918  2.0442
 1555SOL    MW4 5988   5.697   5.464   1.128 -0.2549 -0.4297  0.1380
 1556SOL     OW 5989   4.854   3.708   0.715  0.4176  0.1236 -0.7324
 1556SOL    HW2 5990   4.778   3.764   0.699 -0.3436 -0.6444  0.0753
 1556SOL    HW3 5991   4.898   3.703   0.631 -0.6306  0.2994 -1.3088
 1556SOL    MW4 5992   4.850   3.715   0.702 -0.0079  0.1143  0.0309
 1557SOL     OW 5993   4.888   1.656   0.542  0.0870 -0.2430 -0.3262
 1557SOL    HW2 5994   4.982   1.640   0.545  0.1459  0.3235  2.1139
 1557SOL    HW3 5995   4.849   1.582   0.588 -0.5898  0.1496 -0.2525
 1557SOL    MW4 5996   4.895   1.644   0.548  0.1666  0.6460 -0.0125
 1558SOL     OW 5997   1.453   5.992   4.079  0.2179  0.9656  0.1540
 1558SOL    HW2 5998   1.493   6.031   4.001 -0.4709  0.5158 -0.4362
 1558SOL    HW3 5999   1.524   5.986   4.143  1.5306 -1.2172 -1.3764
 1558SOL    MW4 6000   1.467   5.996   4.077 -0.5633 -0.3261 -0.2224
 1559SOL     OW 6001   5.723   3.819   4.697  0.8607 -0.2266  0.3307
 1559SOL    HW2 6002   5.714   3.883   4.627 -2.3981  0.1073  0.8844
 1559SOL    HW3 6003   5.712   3.734   4.654 -1.3515 -0.0107  0.3675
 1559SOL    MW4 6004   5.720   3.816   4.682  0.1897 -0.0179  0.2482
 1560SOL     OW 6005   3.178   3.002   4.249 -0.0807 -0.7007  0.5065
 1560SOL    HW2 6006   3.234   3.078   4.262 -1.3672  0.4016 -0.1624
 1560SOL    HW3 6007   3.098   3.037   4.209  0.0430 -2.6289 -1.6751
 1560SOL    MW4 6008   3.175   3.017   4.245 -0.0592  0.1448 -0.7550
 1561SOL     OW 6009   5.482   3.287   4.781  0.0546  0.3465  0.0530
 1561SOL    HW2 6010   5.486   3.381   4.795 -1.2169  0.2000  1.7016
 1561SOL    HW3 6011   5.482   3.249   4.869  2.0791 -1.3102 -0.5773
 1561SOL    MW4 6012   5.483   3.294   4.794  0.1377 -0.6607  0.4025
 1562SOL     OW 6013   4.813   4.195   2.080 -0.7515  0.4748 -0.1717
 1562SOL    HW2 6014   4.758   4.135   2.030  0.1858  0.0175 -0.6785
 1562SOL    HW3 6015   4.898   4.193   2.035 -0.0768  0.5398  1.0608
 1562SOL    MW4 6016   4.817   4.186   2.067  0.4564  0.3469  0.1930
 1563SOL     OW 6017   0.850   4.331   6.098 -0.4197 -0.3622  0.4805
 1563SOL    HW2 6018   0.810   4.418   6.109 -0.2540 -0.0869 -0.9240
 1563SOL    HW3 6019   0.786   4.282   6.046  0.2046 -0.5632 -0.1020
 1563SOL    MW4 6020   0.836   4.336   6.093 -0.0794  0.4110  0.1637
 1564SOL     OW 6021   5.217   2.921   2.917  0.1650  0.2304  0.2315
 1564SOL    HW2 6022   5.222   2.953   3.007 -0.0336 -0.8024  0.6244
 1564SOL    HW3 6023   5.181   2.833   2.925 -0.2107  0.2724 -0.8994
 1564SOL    MW4 6024   5.213   2.914   2.930 -0.4226  0.1242  0.0920
 1565SOL     OW 6025   1.837   3.166   0.795 -0.2329 -0.4635  0.2500
 1565SOL    HW2 6026   1.777   3.189   0.865 -0.2051 -2.0519  0.8503
 1565SOL    HW3 6027   1.851   3.072   0.806  1.2257 -0.4000 -0.7694
 1565SOL    MW4 6028   1.831   3.156   0.805  0.4533 -0.4009 -0.0061
 1566SOL     OW 6029   2.244   1.495   1.698  0.0634 -0.1716  0.1403
 1566SOL    HW2 6030   2.224   1.472   1.788  0.9796 -0.2785  0.3262
 1566SOL    HW3 6031   2.339   1.505   1.696 -0.0337  0.7540 -0.5995
 1566SOL    MW4 6032   2.254   1.493   1.710  0.1018 -0.6966  0.4532
 1567SOL     OW 6033   0.010   5.064   1.567 -0.0365 -0.1319 -0.7574
 1567SOL    HW2 6034  -0.060   5.119   1.533 -0.8026 -1.0274 -0.6579
 1567SOL    HW3 6035  -0.034   5.004   1.627  0.2409 -2.9614 -3.1858
 1567SOL    MW4 6036  -0.005   5.064   1.571 -0.0731  0.7425  0.1461
 1568SOL     OW 6037   4.913   4.000   3.809  0.4029  0.0286  0.1029
 1568SOL    HW2 6038   4.928   3.907   3.827 -0.9917 -0.1395  0.4618
 1568SOL    HW3 6039   4.897   4.038   3.896  1.1264  0.6442 -0.0264
 1568SOL    MW4 6040   4.913   3.992   3.823 -0.0058 -0.3669  0.2563
 1569SOL     OW 6041   0.939   1.632   5.973 -0.5993 -0.0783 -0.6059
 1569SOL    HW2 6042   1.003   1.561   5.961  1.8109  1.4891  1.6984
 1569SOL    HW3 6043   0.925   1.635   6.068 -1.3616  1.8938 -0.7491
 1569SOL    MW4 6044   0.946   1.623   5.984 -0.5482 -0.4889  0.8939
 1570SOL     OW 6045   3.942   2.451   5.877 -0.2689  0.7533  0.4986
 1570SOL    HW2 6046   4.035   2.433   5.863  0.0569  1.9651  1.0140
 1570SOL    HW3 6047   3.899   2.420   5.797  0.6034  0.4309  0.1454
 1570SOL    MW4 6048   3.949   2.444   5.864  0.1986  0.1047 -0.7080
 1571SOL     OW 6049   1.265   1.298   3.366  0.0997 -0.1057 -0.0174
 1571SOL    HW2 6050   1.339   1.358   3.381  1.3314 -1.3275 -0.9747
 1571SOL    HW3 6051   1.263   1.286   3.271 -1.4572  0.0133 -0.0216
 1571SOL    MW4 6052   1.274   1.304   3.355  0.2798 -0.0852  0.3493
 1572SOL     OW 6053   5.312   6.175   1.878  0.3891  0.0625 -0.7703
 1572SOL    HW2 6054   5.407   6.163   1.883  0.5009  1.2488  0.9285
 1572SOL    HW3 6055   5.289   6.150   1.788  2.3618  0.1518 -1.3486
 1572SOL    MW4 6056   5.322   6.170   1.867 -0.3708 -0.0908 -0.1579
 1573SOL     OW 6057   5.735   0.205   4.914 -0.6148 -0.3087  0.0230
 1573SOL    HW2 6058   5.783   0.242   4.841  0.4829 -2.6515 -0.5539
 1573SOL    HW3 6059   5.644   0.201   4.884 -0.0662 -1.9582 -1.6113
 1573SOL    MW4 6060   5.729   0.209   4.901 -0.4190 -0.0025  0.3481
 1574SOL     OW 6061   5.834   1.904   0.247  0.6120  0.1321  0.7507
 1574SOL    HW2 6062   5.762   1.883   0.187 -0.8340  2.7324  1.4094
 1574SOL    HW3 6063   5.815   1.853   0.326 -1.4878  1.8401  1.4750
 1574SOL    MW4 6064   5.822   1.895   0.250 -0.1255 -0.0965  0.1056
 1575SOL     OW 6065   3.681   2.137   5.036  0.1340 -0.2473 -0.6580
 1575SOL    HW2 6066   3.710   2.226   5.056  2.3540 -0.9886 -0.2896
 1575SOL    HW3 6067   3.628   2.146   4.957 -2.6791  1.8105  1.2462
 1575SOL    MW4 6068   3.678   2.150   5.028  0.3189 -0.0299 -0.6061
 1576SOL     OW 6069   2.799   0.846   5.662  0.1011  0.2561 -0.0045
 1576SOL    HW2 6070   2.776   0.755   5.643  0.2431  0.1088  0.5033
 1576SOL    HW3 6071   2.715   0.891   5.667 -0.0962 -0.2182  1.5446
 1576SOL    MW4 6072   2.785   0.840   5.660  0.2723  0.3886  0.1269
 1577SOL     OW 6073   2.233   3.176   4.112  0.0642  0.2445  0.1839
 1577SOL    HW2 6074   2.327   3.193   4.104  0.4995 -2.0870 -0.5637
 1577SOL    HW3 6075   2.209   3.213   4.197  1.4557  1.6084  0.0373
 1577SOL    MW4 6076   2.242   3.183   4.122  0.0140  0.6186 -0.9323
 1578SOL     OW 6077   0.229   5.628   2.535  0.1533 -0.7682 -0.3832
 1578SOL    HW2 6078   0.145   5.659   2.502 -0.0001 -1.1497 -0.3529
 1578SOL    HW3 6079   0.266   5.703   2.581 -0.0526 -0.5188 -0.6204
 1578SOL    MW4 6080   0.223   5.642   2.536 -0.3976  0.4883 -0.6935
 1579SOL     OW 6081   2.239   4.130   1.275  0.7187  0.1950 -0.0996
 1579SOL    HW2 6082   2.246   4.051   1.223  0.0360  0.6211 -0.8479
 1579SOL    HW3 6083   2.313   4.125   1.335  0.6900 -1.0019 -0.1336
 1579SOL    MW4 6084   2.250   4.119   1.276 -0.3814  0.2903  0.5794
 1580SOL     OW 6085   4.014   4.201   5.561  0.2598  0.0143  0.0064
 1580SOL    HW2 6086   3.984   4.126   5.510  0.2812  0.2336 -0.3315
 1580SOL    HW3 6087   3.994   4.277   5.506  0.1052  0.2664  0.4080
 1580SOL    MW4 6088   4.007   4.201   5.547  0.0868 -0.0779 -0.5282
 1581SOL     OW 6089   3.560   4.956   0.591 -0.5579  0.2513  0.4879
 1581SOL    HW2 6090   3.467   4.975   0.609 -0.7127  1.2984 -1.2130
 1581SOL    HW3 6091   3.563   4.938   0.497  0.9745  0.2806  0.5072
 1581SOL    MW4 6092   3.548   4.957   0.581  0.8857 -0.1545 -0.5491
 1582SOL     OW 6093   0.116   2.757   6.063 -0.4422 -0.1354  0.9003
 1582SOL    HW2 6094   0.190   2.711   6.104  0.9415  0.2279 -1.0518
 1582SOL    HW3 6095   0.138   2.850   6.070 -0.1688 -0.0602 -0.5742
 1582SOL    MW4 6096   0.128   2.763   6.069  0.3957  0.1781 -0.7269
 1583SOL     OW 6097   1.293   4.980   1.119  0.0539 -0.3993  0.3677
 1583SOL    HW2 6098   1.339   4.896   1.118  2.5736  0.8895 -0.6506
 1583SOL    HW3 6099   1.279   5.001   1.027  0.6236  0.8478  0.5427
 1583SOL    MW4 6100   1.297   4.972   1.107 -0.4720  0.0083  0.2792
 1584SOL     OW 6101   1.939   4.095   0.673  0.4042 -0.2725  0.4128
 1584SOL    HW2 6102   1.887   4.067   0.748  1.7710 -2.1896  0.7235
 1584SOL    HW3 6103   1.961   4.187   0.691 -0.3016 -0.3413  1.7435
 1584SOL    MW4 6104   1.935   4.103   0.685  0.2728 -0.1578 -0.7467
 1585SOL     OW 6105   2.236  -0.007   6.411 -0.6556 -0.6422  0.0778
 1585SOL    HW2 6106   2.200   0.068   6.460  0.3598 -0.2918  0.3218
 1585SOL    HW3 6107   2.180  -0.014   6.334 -0.8419  0.2995  0.1090
 1585SOL    MW4 6108   2.224   0.002   6.408  0.6759 -0.4586  0.4068
 1586SOL     OW 6109   3.511   0.575   5.395 -0.1339 -0.4242  0.4807
 1586SOL    HW2 6110   3.496   0.504   5.333  0.8676 -1.3861  1.3037
 1586SOL    HW3 6111   3.475   0.543   5.478 -2.5510  1.3208  0.1987
 1586SOL    MW4 6112   3.505   0.562   5.398 -0.3927  0.0942  0.1560
 1587SOL     OW 6113   2.734   5.253   3.034  0.9641 -0.4292 -0.0714
 1587SOL    HW2 6114   2.742   5.347   3.054  1.5947 -0.8627  2.0352
 1587SOL    HW3 6115   2.825   5.223   3.029  0.7615 -0.9241 -0.7913
 1587SOL    MW4 6116   2.747   5.262   3.036  0.8422  0.0262  0.3251
 1588SOL     OW 6117   1.884   4.635   5.967 -0.0614 -0.1252 -0.0010
 1588SOL    HW2 6118   1.838   4.720   5.974 -1.2139 -0.5798 -1.4348
 1588SOL    HW3 6119   1.967   4.649   6.012 -1.0469  1.1569  1.5569
 1588SOL    MW4 6120   1.889   4.648   5.974  0.6516  0.1858  0.0156
 1589SOL     OW 6121   5.569   1.480   0.505  0.0162 -0.0320 -0.0966
 1589SOL    HW2 6122   5.511   1.504   0.433 -1.9344 -1.0110  1.0665
 1589SOL    HW3 6123   5.532   1.523   0.582  0.7461 -0.7961  0.7113
 1589SOL    MW4 6124   5.556   1.489   0.506  0.1580 -0.4357  0.8144
 1590SOL     OW 6125   3.461   4.025   2.101 -0.3407  0.3889  0.2476
 1590SOL    HW2 6126   3.393   3.960   2.112  1.0408 -1.0764  0.5558
 1590SOL    HW3 6127   3.537   3.976   2.071  0.5819  1.9589 -0.1266
 1590SOL    MW4 6128   3.462   4.010   2.099  0.5597 -0.1051 -0.4185
 1591SOL     OW 6129   2.863   4.093   3.141  0.1055 -0.0281 -0.0974
 1591SOL    HW2 6130   2.804   4.019   3.130  0.5221 -0.2092 -1.2265
 1591SOL    HW3 6131   2.899   4.108   3.054  2.5368 -0.5989  0.7323
 1591SOL    MW4 6132   2.860   4.085   3.128  0.0578 -0.7061 -0.1493
 1592SOL     OW 6133   0.329   4.720   0.504 -0.3788  0.5492 -0.2937
 1592SOL    HW2 6134   0.362   4.745   0.418  0.6306 -1.4230 -0.5229
 1592SOL    HW3 6135   0.241   4.687   0.487 -1.3734  2.8947 -0.1048
 1592SOL    MW4 6136   0.322   4.719   0.491 -0.3542 -0.0285 -0.1306
 1593SOL     OW 6137   3.744   1.063   5.964  0.4765 -0.4165 -0.2571
 1593SOL    HW2 6138   3.713   1.071   6.054  3.2080 -0.4481  0.7688
 1593SOL    HW3 6139   3.692   0.991   5.928  0.6709 -1.7887  1.9638
 1593SOL    MW4 6140   3.733   1.054   5.971 -0.0851 -0.0874  0.1137
 1594SOL     OW 6141   4.471   4.463   5.023 -0.0170  0.4084  0.2297
 1594SOL    HW2 6142   4.526   4.526   5.070  0.8272 -1.0357  1.2695
 1594SOL    HW3 6143   4.531   4.393   4.999 -1.2540 -0.8473  0.6925
 1594SOL    MW4 6144   4.486   4.462   5.026 -0.1373 -0.8629 -0.7054
 1595SOL     OW 6145   3.745   6.158   0.981  0.1262  0.2567  0.4285
 1595SOL    HW2 6146   3.669   6.142   0.925  0.5593  0.5462 -0.2562
 1595SOL    HW3 6147   3.710   6.203   1.058 -0.4629 -0.0713  0.3566
 1595SOL    MW4 6148   3.730   6.162   0.984  0.5032  0.4821  0.2059
 1596SOL     OW 6149   0.088   6.019   4.131  0.8438  0.5428  0.4913
 1596SOL    HW2 6150   0.044   6.098   4.100  1.7101  1.1034  0.6595
 1596SOL    HW3 6151   0.170   6.016   4.081 -0.6492 -2.1471 -2.1169
 1596SOL    MW4 6152   0.093   6.029   4.120 -0.5485 -0.5743  0.2072
 1597SOL     OW 6153   1.050   1.906   4.481  0.3708 -0.2888 -0.0470
 1597SOL    HW2 6154   0.997   1.856   4.419 -0.6203 -0.8548  1.2000
 1597SOL    HW3 6155   1.120   1.846   4.508  0.5051 -0.2181 -0.2379
 1597SOL    MW4 6156   1.052   1.891   4.476  0.0347  0.1476 -0.4238
 1598SOL     OW 6157   6.116   4.509   2.474  0.7091 -0.0382 -0.0881
 1598SOL    HW2 6158   6.170   4.580   2.508  0.4512  0.9854 -1.6996
 1598SOL    HW3 6159   6.178   4.440   2.450  0.8676 -0.9760  2.7150
 1598SOL    MW4 6160   6.131   4.509   2.475 -0.0611  0.0106 -0.0453
 1599SOL     OW 6161   1.977   0.389   3.239  0.1290  0.0441 -0.1903
 1599SOL    HW2 6162   2.052   0.363   3.292 -0.8475 -0.5069  0.9749
 1599SOL    HW3 6163   2.010   0.387   3.149  2.1808  2.2244  0.4151
 1599SOL    MW4 6164   1.991   0.385   3.234  0.6537  0.1309 -0.4692
 1600SOL     OW 6165   6.360   1.038   4.369 -0.2178 -0.2302  0.5425
 1600SOL    HW2 6166   6.314   0.955   4.381  1.4840 -1.4889 -1.1248
 1600SOL    HW3 6167   6.437   1.016   4.316 -0.5762  2.6504 -1.4236
 1600SOL    MW4 6168   6.364   1.024   4.363  0.2916  0.5210  0.4825
 1601SOL     OW 6169   4.816   2.617   3.740  0.0705  0.3667  0.2216
 1601SOL    HW2 6170   4.840   2.600   3.648 -0.2827  1.0949 -0.0103
 1601SOL    HW3 6171   4.887   2.672   3.773 -0.0257  0.4687  0.2578
 1601SOL    MW4 6172   4.829   2.622   3.732 -0.2419 -1.0297 -0.9305
 1602SOL     OW 6173   4.059   3.757   5.721 -0.2279  0.4026 -0.4232
 1602SOL    HW2 6174   4.135   3.702   5.738 -1.3200 -1.0644 -0.0641
 1602SOL    HW3 6175   4.034   3.737   5.631 -0.8884 -0.0275 -0.1487
 1602SOL    MW4 6176   4.066   3.747   5.712  0.1364  0.1737  0.2996
 1603SOL     OW 6177   3.379   0.778   2.879  0.4821  0.2329 -0.4232
 1603SOL    HW2 6178   3.452   0.741   2.929  0.8888 -0.7194 -1.6638
 1603SOL    HW3 6179   3.386   0.873   2.893  0.9436  0.0423  0.7976
 1603SOL    MW4 6180   3.389   0.786   2.888  0.7816 -0.3422  0.4341
 1604SOL     OW 6181   5.569   0.511   2.194 -0.1663 -0.1057 -0.3669
 1604SOL    HW2 6182   5.609   0.430   2.162 -0.7023  0.3485 -2.3072
 1604SOL    HW3 6183   5.504   0.481   2.258  0.0630 -1.1599 -0.5966
 1604SOL    MW4 6184   5.566   0.496   2.198 -0.5190 -0.1176  0.2211
 1605SOL     OW 6185   2.453   5.551   3.466 -0.0762 -0.0915 -0.2404
 1605SOL    HW2 6186   2.526   5.497   3.495 -0.1827  0.0611  0.3171
 1605SOL    HW3 6187   2.376   5.495   3.476 -0.4139  0.6500  1.8813
 1605SOL    MW4 6188   2.452   5.537   3.471 -0.8913 -1.2506  0.4180
 1606SOL     OW 6189   5.225   5.078   2.708 -0.4727 -0.4399 -0.2285
 1606SOL    HW2 6190   5.245   5.159   2.754 -0.4820 -0.8509  0.5201
 1606SOL    HW3 6191   5.234   5.100   2.616 -1.5690  0.6908 -0.0878
 1606SOL    MW4 6192   5.229   5.091   2.702 -0.2015 -0.8264  0.2917
 1607SOL     OW 6193   2.324   6.086   6.224 -0.2832  0.1014 -0.1070
 1607SOL    HW2 6194   2.343   5.993   6.219 -1.2281 -0.0565 -1.1833
 1607SOL    HW3 6195   2.408   6.129   6.206 -0.0203 -0.5371 -0.4321
 1607SOL    MW4 6196   2.338   6.080   6.221 -0.3423  0.0405  0.6647
 1608SOL     OW 6197   6.168   5.178   2.424  0.6762 -0.1590  0.6603
 1608SOL    HW2 6198   6.165   5.094   2.379  1.5542  0.2880 -0.2749
 1608SOL    HW3 6199   6.229   5.164   2.496  1.1044 -0.2348  0.2899
 1608SOL    MW4 6200   6.176   5.165   2.428 -0.8625 -0.5069 -0.3003
 1609SOL     OW 6201   4.878   3.471   2.390 -0.1648  0.2646 -0.0293
 1609SOL    HW2 6202   4.962   3.445   2.429 -0.2336 -0.0597 -0.0947
 1609SOL    HW3 6203   4.839   3.529   2.455  0.1232  0.4447 -0.0117
 1609SOL    MW4 6204   4.884   3.475   2.404 -0.2253 -0.2481 -0.0370
 1610SOL     OW 6205   4.279   3.536   2.308  0.1707 -0.1263  0.3355
 1610SOL    HW2 6206   4.190   3.556   2.336 -0.1813 -1.9235  0.6301
 1610SOL    HW3 6207   4.270   3.506   2.218  0.3942 -0.8634  0.5528
 1610SOL    MW4 6208   4.266   3.535   2.300  0.0522 -0.0548  0.2137
 1611SOL     OW 6209   2.192   4.774   5.725  0.6284  0.4832  0.6380
 1611SOL    HW2 6210   2.275   4.793   5.683  0.6886 -1.7881 -0.4330
 1611SOL    HW3 6211   2.169   4.686   5.695 -1.2368  0.2830  2.3808
 1611SOL    MW4 6212   2.200   4.765   5.716 -0.1331  0.1324  0.5077
 1612SOL     OW 6213   4.734   5.513   1.356  0.5942  0.5257  0.0594
 1612SOL    HW2 6214   4.714   5.471   1.440 -0.8570  3.6176  1.4181
 1612SOL    HW3 6215   4.748   5.440   1.296 -3.8808 -2.0449  1.6181
 1612SOL    MW4 6216   4.733   5.498   1.359 -0.3823  0.2155  0.4062
 1613SOL     OW 6217   4.460   2.472   5.765  0.2705 -0.1765  0.7659
 1613SOL    HW2 6218   4.480   2.510   5.680 -2.5321 -0.1135  0.0202
 1613SOL    HW3 6219   4.486   2.380   5.757 -0.0551 -0.1964 -0.2430
 1613SOL    MW4 6220   4.466   2.465   5.753 -0.3713 -0.0935 -0.7028
 1614SOL     OW 6221   2.125   1.136   3.776 -0.4632 -0.4825 -0.4201
 1614SOL    HW2 6222   2.150   1.085   3.853  1.2572  0.4409 -0.3172
 1614SOL    HW3 6223   2.105   1.223   3.810  0.1840 -0.1036 -0.9861
 1614SOL    MW4 6224   2.126   1.141   3.790  0.3210 -0.6045 -0.3727
 1615SOL     OW 6225   2.113   4.616   1.637 -0.6890  0.3026 -0.5456
 1615SOL    HW2 6226   2.068   4.543   1.679 -0.5303  0.5433  0.0490
 1615SOL    HW3 6227   2.114   4.685   1.703  0.6647  0.2613 -0.4933
 1615SOL    MW4 6228   2.107   4.616   1.651  0.3268 -0.1972 -0.3583
 1616SOL     OW 6229   6.208   3.742   0.071 -0.0504 -0.2065  0.1741
 1616SOL    HW2 6230   6.280   3.749   0.134  0.2541  1.5456 -0.2978
 1616SOL    HW3 6231   6.137   3.701   0.120  0.6245 -0.1498  1.2406
 1616SOL    MW4 6232   6.208   3.738   0.086 -0.1142  0.1056 -0.1976
 1617SOL     OW 6233   1.928   4.585   5.086 -0.0773 -0.3432  0.3712
 1617SOL    HW2 6234   1.951   4.558   5.175 -0.3231  0.6079  0.7349
 1617SOL    HW3 6235   1.995   4.648   5.061 -0.8274  0.5291  0.4733
 1617SOL    MW4 6236   1.940   4.590   5.094 -0.1107  0.0960 -0.4937
 1618SOL     OW 6237   2.971   4.605   0.534  0.3752  0.1861  0.2589
 1618SOL    HW2 6238   2.929   4.650   0.608  1.8542  2.4148 -0.1726
 1618SOL    HW3 6239   3.041   4.554   0.574  2.3315  2.7603  0.3901
 1618SOL    MW4 6240   2.975   4.604   0.549  0.4061  0.9287 -0.4259
 1619SOL     OW 6241   1.653   2.092   2.127 -0.0842  0.3124 -0.5396
 1619SOL    HW2 6242   1.621   2.020   2.183 -0.9044  1.2975  0.3041
 1619SOL    HW3 6243   1.690   2.048   2.051 -1.5963 -0.9840 -0.5830
 1619SOL    MW4 6244   1.653   2.077   2.125  0.0227 -0.3073  0.4877
 1620SOL     OW 6245   6.174   5.844   0.000 -0.1425  0.4886 -0.6312
 1620SOL    HW2 6246   6.161   5.898  -0.078  0.6121 -0.5606 -1.5315
 1620SOL    HW3 6247   6.106   5.777  -0.006 -0.7672  1.0360  0.2121
 1620SOL    MW4 6248   6.163   5.842  -0.011  0.2252 -0.4350  0.5645
 1621SOL     OW 6249   0.268   3.336   3.281  0.2619 -0.2035 -0.0884
 1621SOL    HW2 6250   0.208   3.298   3.216 -0.0287  0.2870 -0.1106
 1621SOL    HW3 6251   0.270   3.272   3.352 -0.0728 -0.3485 -0.2082
 1621SOL    MW4 6252   0.260   3.322   3.282  0.0476 -0.3440 -0.1051
 1622SOL     OW 6253   0.581   6.169   4.573  0.1048  0.1365 -0.1434
 1622SOL    HW2 6254   0.602   6.097   4.515  0.9144  0.6054 -0.4421
 1622SOL    HW3 6255   0.569   6.244   4.515  0.2040  0.4483  0.2358
 1622SOL    MW4 6256   0.582   6.170   4.558 -0.3818 -0.2600 -0.0780
 1623SOL     OW 6257   1.704   1.646   2.300  0.1578  0.0412 -0.1866
 1623SOL    HW2 6258   1.657   1.583   2.246 -3.8908  2.8056 -0.3175
 1623SOL    HW3 6259   1.710   1.604   2.386 -3.1505 -0.3810 -0.0411
 1623SOL    MW4 6260   1.699   1.632   2.304 -0.0486  0.3754 -0.4430
 1624SOL     OW 6261   4.858   5.834   0.224 -0.0547  0.1249  0.5848
 1624SOL    HW2 6262   4.840   5.878   0.308  0.1360  2.3610 -0.4773
 1624SOL    HW3 6263   4.875   5.906   0.163 -0.9964 -1.3969 -1.5827
 1624SOL    MW4 6264   4.858   5.850   0.227  0.0646 -0.1815  0.6512
 1625SOL     OW 6265   5.376   1.850   3.738 -0.1400 -0.1346  0.4221
 1625SOL    HW2 6266   5.355   1.943   3.742 -1.4632 -0.4221  0.5287
 1625SOL    HW3 6267   5.470   1.848   3.721 -0.1533  1.2175  0.0378
 1625SOL    MW4 6268   5.386   1.862   3.736  0.2973 -0.7870 -0.4075
 1626SOL     OW 6269   5.109   4.924   0.000  0.0982 -0.2363 -0.2274
 1626SOL    HW2 6270   5.038   4.921  -0.064  0.1040  2.0867 -0.4403
 1626SOL    HW3 6271   5.119   5.017   0.020  0.5127 -0.8124  2.7243
 1626SOL    MW4 6272   5.101   4.936  -0.005  0.4185  0.7135 -0.9082
 1627SOL     OW 6273   2.279   1.282   1.288 -0.3008  0.3993  0.1760
 1627SOL    HW2 6274   2.293   1.262   1.380  1.5008  0.3610 -0.0768
 1627SOL    HW3 6275   2.184   1.287   1.279 -0.5179  0.1200  1.9628
 1627SOL    MW4 6276   2.268   1.280   1.299 -0.5232  0.5077  0.0778
 1628SOL     OW 6277   1.888   5.883   6.240  0.5839  0.3366  0.0013
 1628SOL    HW2 6278   1.920   5.909   6.154  0.0347 -1.4280 -0.7723
 1628SOL    HW3 6279   1.927   5.947   6.300  2.2529  0.6604 -1.3529
 1628SOL    MW4 6280   1.897   5.895   6.237 -0.6227 -0.4014 -0.4075
 1629SOL     OW 6281   0.691   4.972   3.598  0.0251  0.2979 -0.4756
 1629SOL    HW2 6282   0.712   4.880   3.617 -0.0498  0.3089 -0.3395
 1629SOL    HW3 6283   0.656   4.971   3.509  1.4393  0.3962 -1.0619
 1629SOL    MW4 6284   0.690   4.960   3.589 -0.1338  0.6159 -0.6955
 1630SOL     OW 6285   5.887   4.715   6.272 -0.7643 -0.1501  0.1589
 1630SOL    HW2 6286   5.945   4.680   6.340 -0.1348 -0.6296 -0.6045
 1630SOL    HW3 6287   5.947   4.750   6.205 -1.3685  0.0336 -0.2997
 1630SOL    MW4 6288   5.903   4.715   6.272 -0.4889  0.0824  0.1093
 1631SOL     OW 6289   1.441   5.099   2.721 -0.5624  0.6920 -0.2417
 1631SOL    HW2 6290   1.516   5.102   2.781 -0.4603  0.7220 -0.3700
 1631SOL    HW3 6291   1.411   5.189   2.715 -0.6822  0.6612 -0.0973
 1631SOL    MW4 6292   1.447   5.111   2.728  0.8687  0.1166  0.1472
 1632SOL     OW 6293   5.560   4.916   4.871 -0.0921  0.3645 -0.2238
 1632SOL    HW2 6294   5.588   5.007   4.856 -1.2457  0.8018  0.1760
 1632SOL    HW3 6295   5.564   4.906   4.966  2.6895 -0.9172 -0.3767
 1632SOL    MW4 6296   5.565   4.927   4.881 -0.4578  0.3743  0.3464
 1633SOL     OW 6297   4.966   4.618   4.394  0.5525  0.1375  0.1916
 1633SOL    HW2 6298   4.987   4.557   4.465 -0.8189  0.7022  1.1087
 1633SOL    HW3 6299   5.001   4.702   4.423  1.3032  0.0744 -0.4924
 1633SOL    MW4 6300   4.973   4.621   4.407 -0.1986  0.5657 -0.1692
 1634SOL     OW 6301   3.083   4.410   1.040  0.3032  0.2153 -0.4625
 1634SOL    HW2 6302   3.068   4.466   0.964  0.3397 -1.2267 -1.5845
 1634SOL    HW3 6303   3.169   4.437   1.073 -0.9028  2.7898  0.8712
 1634SOL    MW4 6304   3.092   4.421   1.035  0.2474 -0.5874  0.2296
 1635SOL     OW 6305   2.712   5.421   2.388 -0.0999 -0.2334 -0.2472
 1635SOL    HW2 6306   2.711   5.327   2.369  0.1083 -0.0539 -1.1629
 1635SOL    HW3 6307   2.688   5.426   2.481  0.4705 -1.2240 -0.0278
 1635SOL    MW4 6308   2.708   5.409   2.398  0.8074  0.7306  0.5755
 1636SOL     OW 6309   4.743   5.169   2.795  0.7287  0.1881 -0.5063
 1636SOL    HW2 6310   4.675   5.236   2.803  0.8974  0.4829 -1.4000
 1636SOL    HW3 6311   4.802   5.186   2.869 -0.6342 -0.6467  0.8165
 1636SOL    MW4 6312   4.742   5.180   2.806  0.6063  0.0766 -0.4235
 1637SOL     OW 6313   3.574   2.714   3.636 -0.0774 -0.5047 -0.0940
 1637SOL    HW2 6314   3.583   2.808   3.652 -0.4587 -0.6169  0.8544
 1637SOL    HW3 6315   3.479   2.698   3.640 -0.1107 -0.7425 -1.4223
 1637SOL    MW4 6316   3.562   2.724   3.639  0.2886  0.1410  0.1277
 1638SOL     OW 6317   3.810   3.997   0.802  0.5524  0.1654 -0.4718
 1638SOL    HW2 6318   3.783   3.912   0.765  0.7424  0.1323 -0.5374
 1638SOL    HW3 6319   3.728   4.040   0.825  0.4545 -0.0499 -0.4080
 1638SOL    MW4 6320   3.795   3.991   0.800 -0.0567  0.2158 -0.2978
 1639SOL     OW 6321   0.619   3.754   0.708 -0.4095  0.7195 -0.3434
 1639SOL    HW2 6322   0.581   3.817   0.769 -0.1704  0.4826  0.0539
 1639SOL    HW3 6323   0.713   3.755   0.726 -0.4631 -0.1307  0.0337
 1639SOL    MW4 6324   0.626   3.762   0.718  0.6130  0.2174 -0.1617
 1640SOL     OW 6325   1.001   0.402   3.608 -0.1493  0.1449  0.3386
 1640SOL    HW2 6326   0.917   0.447   3.614 -0.3994 -0.1890 -0.6184
 1640SOL    HW3 6327   1.065   0.473   3.603 -0.4827  0.4046 -0.3273
 1640SOL    MW4 6328   0.999   0.418   3.608  0.2012 -0.3336  0.1883
 1641SOL     OW 6329   0.819   4.225   3.735 -0.2600  0.4608 -0.4268
 1641SOL    HW2 6330   0.824   4.186   3.648  2.8264 -1.0871  0.2999
 1641SOL    HW3 6331   0.859   4.312   3.724 -0.4533  0.5216 -0.6633
 1641SOL    MW4 6332   0.825   4.232   3.722 -0.1223 -0.2203 -0.0594
 1642SOL     OW 6333   4.713   2.509   4.189 -0.3407  0.0934 -0.5358
 1642SOL    HW2 6334   4.780   2.455   4.146 -1.1761 -1.1497 -0.3218
 1642SOL    HW3 6335   4.684   2.456   4.264 -0.6429  1.1775  0.1367
 1642SOL    MW4 6336   4.718   2.495   4.193 -0.0872 -0.3347  0.4052
 1643SOL     OW 6337   6.135   2.379   0.957  0.1093 -0.2152  0.3091
 1643SOL    HW2 6338   6.110   2.463   0.917 -1.6230 -0.1288  1.4942
 1643SOL    HW3 6339   6.096   2.313   0.900 -2.1991 -0.0965  1.6653
 1643SOL    MW4 6340   6.127   2.382   0.944  0.1411  0.2073  0.8000
 1644SOL     OW 6341   0.866   2.756   1.817 -0.3950 -0.2541  0.2067
 1644SOL    HW2 6342   0.865   2.664   1.792 -1.3989 -0.4967  1.0187
 1644SOL    HW3 6343   0.958   2.778   1.828  0.1446 -0.1216 -3.5055
 1644SOL    MW4 6344   0.878   2.747   1.815 -0.2821 -0.3138 -0.3579
 1645SOL     OW 6345   2.595   2.936   2.132  0.2801 -0.0886  0.0381
 1645SOL    HW2 6346   2.626   2.992   2.060  3.3432 -1.3342  0.2331
 1645SOL    HW3 6347   2.528   2.989   2.176  0.1065  1.7217 -2.2043
 1645SOL    MW4 6348   2.590   2.951   2.128  0.1147  0.1408  0.3039
 1646SOL     OW 6349   0.719   2.413   0.985 -0.3649  0.6294  0.1003
 1646SOL    HW2 6350   0.729   2.335   1.039 -1.1789  1.6587  1.7851
 1646SOL    HW3 6351   0.744   2.384   0.897 -1.3751 -1.7267  0.5177
 1646SOL    MW4 6352   0.723   2.399   0.980 -0.2298 -0.3879 -0.6507
 1647SOL     OW 6353   6.245   4.054   0.608 -0.0771  0.3318 -0.8905
 1647SOL    HW2 6354   6.287   4.096   0.532 -0.6807  1.1592 -0.7804
 1647SOL    HW3 6355   6.193   3.983   0.570  0.9564 -0.3467 -1.0799
 1647SOL    MW4 6356   6.244   4.050   0.593  0.4558 -0.2727  0.5271
 1648SOL     OW 6357   0.181   5.165   1.758 -0.0387 -1.0810  0.2411
 1648SOL    HW2 6358   0.119   5.147   1.687 -0.5613  0.7337  0.1779
 1648SOL    HW3 6359   0.141   5.124   1.835 -0.9870 -0.5526  0.0534
 1648SOL    MW4 6360   0.167   5.158   1.759  0.6566  0.3272 -0.3442
 1649SOL     OW 6361   3.610   2.360   4.314  0.1021 -0.0146 -0.5611
 1649SOL    HW2 6362   3.609   2.444   4.361 -0.9401 -0.1589 -0.3148
 1649SOL    HW3 6363   3.604   2.384   4.222  3.2605  0.3347 -0.8022
 1649SOL    MW4 6364   3.609   2.375   4.308  0.0810  0.4829  0.0658
 1650SOL     OW 6365   4.852   0.498   5.542 -0.5277  0.1673 -0.8597
 1650SOL    HW2 6366   4.875   0.559   5.612  1.4106 -1.9673  0.5100
 1650SOL    HW3 6367   4.795   0.434   5.584  2.7667 -2.6942 -0.2493
 1650SOL    MW4 6368   4.847   0.498   5.557  0.5699  0.0910 -0.3187
 1651SOL     OW 6369   4.065   0.212   4.658  0.3433 -0.1091  0.6706
 1651SOL    HW2 6370   4.020   0.145   4.710  0.1179 -0.9113 -0.5301
 1651SOL    HW3 6371   4.158   0.192   4.668  0.3280  0.0394  1.1488
 1651SOL    MW4 6372   4.071   0.201   4.666  0.4859  0.2543 -0.4590
 1652SOL     OW 6373   1.523   3.276   1.586 -0.2774 -0.1765 -0.0227
 1652SOL    HW2 6374   1.615   3.272   1.613 -0.5170 -0.3781  0.8079
 1652SOL    HW3 6375   1.490   3.357   1.626 -0.5991 -0.3914  0.1539
 1652SOL    MW4 6376   1.531   3.286   1.595  0.1384 -0.3032  0.5966
 1653SOL     OW 6377   5.690   6.330   5.409  0.1111  0.1431  0.0709
 1653SOL    HW2 6378   5.623   6.270   5.442  0.5278 -1.1588 -1.3610
 1653SOL    HW3 6379   5.747   6.347   5.484  0.3986 -1.8566  0.3517
 1653SOL    MW4 6380   5.689   6.324   5.423  0.6410  0.3662  0.3833
 1654SOL     OW 6381   5.667   1.760   2.090  0.1057  0.2874  0.0737
 1654SOL    HW2 6382   5.668   1.855   2.098 -0.3865  0.3294 -0.2846
 1654SOL    HW3 6383   5.575   1.736   2.104  0.0393 -0.0339 -0.8418
 1654SOL    MW4 6384   5.655   1.769   2.093 -0.3002 -0.1119 -0.1115
 1655SOL     OW 6385   0.051   1.668   0.918 -0.0890  0.7207 -0.5210
 1655SOL    HW2 6386   0.097   1.585   0.931 -0.4591  0.8367  2.2216
 1655SOL    HW3 6387  -0.041   1.642   0.907 -0.2020  0.7389  0.3182
 1655SOL    MW4 6388   0.045   1.654   0.918  0.6767 -0.1346 -0.0719
 1656SOL     OW 6389   0.693   3.056   4.212  0.0096 -0.1806 -0.1399
 1656SOL    HW2 6390   0.717   3.105   4.290 -0.1249 -2.5153  1.4441
 1656SOL    HW3 6391   0.600   3.077   4.198 -0.1299 -0.2110  0.6935
 1656SOL    MW4 6392   0.684   3.065   4.220 -0.2471  0.0513 -0.3294
 1657SOL     OW 6393   2.592   3.397   6.344 -0.0295  0.0269 -0.3569
 1657SOL    HW2 6394   2.668   3.428   6.294  1.9483 -0.9277  1.8597
 1657SOL    HW3 6395   2.623   3.319   6.389 -1.1886  1.4415  3.2942
 1657SOL    MW4 6396   2.607   3.391   6.343 -0.3104 -0.6450  0.3022
 1658SOL     OW 6397   5.416   3.643   5.082 -0.1785 -0.0742 -0.4481
 1658SOL    HW2 6398   5.404   3.548   5.086  0.2419 -0.0844  1.6126
 1658SOL    HW3 6399   5.511   3.655   5.084 -0.2281  0.3820  1.3437
 1658SOL    MW4 6400   5.427   3.632   5.083 -0.0731  0.4058 -0.1777
 1659SOL     OW 6401   0.843   2.085   0.535 -0.1184  0.2864  0.0269
 1659SOL    HW2 6402   0.914   2.054   0.591 -1.2721  0.3717  1.6196
 1659SOL    HW3 6403   0.859   2.044   0.450 -0.0131 -2.4294  1.2487
 1659SOL    MW4 6404   0.854   2.076   0.531 -0.0340 -0.1934  0.4576
 1660SOL     OW 6405   5.923   5.940   2.404 -0.8591 -0.2815 -0.0245
 1660SOL    HW2 6406   5.923   5.864   2.462 -0.8593 -0.1780  0.1108
 1660SOL    HW3 6407   5.846   5.928   2.348 -1.2725 -0.0144  0.4759
 1660SOL    MW4 6408   5.913   5.928   2.404 -0.3287 -0.4064  0.2183
 1661SOL     OW 6409   0.625   5.599   2.087 -0.3913 -0.6484 -0.3312
 1661SOL    HW2 6410   0.693   5.665   2.076 -0.6990  0.2200  2.3204
 1661SOL    HW3 6411   0.544   5.643   2.060 -0.4247 -0.2981  0.3045
 1661SOL    MW4 6412   0.623   5.613   2.082  1.1741  0.1169 -0.0076
 1662SOL     OW 6413   5.594   1.831   3.022 -0.0294  0.0265 -0.0879
 1662SOL    HW2 6414   5.578   1.924   3.007  0.1217 -0.0507 -0.7298
 1662SOL    HW3 6415   5.611   1.825   3.116 -1.6592  0.4035  0.2648
 1662SOL    MW4 6416   5.594   1.843   3.033  0.6389  0.1173  0.1901
 1663SOL     OW 6417   2.143   5.727   5.088  0.0475  0.4709 -0.3159
 1663SOL    HW2 6418   2.103   5.812   5.070  1.9588  1.2630 -1.0609
 1663SOL    HW3 6419   2.225   5.748   5.132  0.2185 -1.0472  0.1565
 1663SOL    MW4 6420   2.148   5.741   5.092  0.1486 -0.4084  0.0076
 1664SOL     OW 6421   2.334   5.561   3.815  0.1789  0.1688  0.2463
 1664SOL    HW2 6422   2.368   5.620   3.749  1.0041  0.0056  0.5152
 1664SOL    HW3 6423   2.276   5.616   3.869  0.7638  0.6860  0.3613
 1664SOL    MW4 6424   2.331   5.576   3.814  0.5996 -0.0424  0.4525
 1665SOL     OW 6425   5.973   3.144   4.582 -1.2990 -0.6001  0.2981
 1665SOL    HW2 6426   5.949   3.208   4.515 -0.3197 -0.0684  0.4292
 1665SOL    HW3 6427   5.915   3.163   4.656 -3.2226 -1.9729 -0.7856
 1665SOL    MW4 6428   5.962   3.155   4.583 -0.9779  0.0908 -0.5433
 1666SOL     OW 6429   0.700   0.959   5.447  0.1354 -0.2069 -0.6677
 1666SOL    HW2 6430   0.783   1.007   5.453  0.7113 -1.1446 -0.9245
 1666SOL    HW3 6431   0.709   0.887   5.510 -0.5888 -0.1671 -0.5134
 1666SOL    MW4 6432   0.713   0.956   5.456 -0.3478  0.0520 -0.2759
 1667SOL     OW 6433   5.258   1.572   0.308  0.3261  0.4015 -0.2275
 1667SOL    HW2 6434   5.262   1.482   0.277  0.2475  0.4101 -0.2632
 1667SOL    HW3 6435   5.342   1.610   0.282  0.2982  0.3816 -0.3480
 1667SOL    MW4 6436   5.270   1.565   0.300 -0.2907  0.5089  0.1324
 1668SOL     OW 6437   4.394   3.336   0.281  0.1370  0.2216 -0.1468
 1668SOL    HW2 6438   4.435   3.388   0.349  3.7579 -0.0477 -1.9277
 1668SOL    HW3 6439   4.397   3.246   0.315  1.1963  0.1919 -0.2873
 1668SOL    MW4 6440   4.400   3.331   0.294 -0.6500  0.4180 -0.1930
 1669SOL     OW 6441   5.225   0.951   2.180  0.3461 -0.0396  0.0063
 1669SOL    HW2 6442   5.174   0.925   2.103 -1.3269 -0.0323  1.0638
 1669SOL    HW3 6443   5.308   0.982   2.144 -0.3034 -0.2397 -1.7754
 1669SOL    MW4 6444   5.229   0.952   2.165 -0.1069  0.0608  0.0940
 1670SOL     OW 6445   3.828   0.734   4.389  0.4574 -0.4109 -0.0585
 1670SOL    HW2 6446   3.853   0.823   4.364  0.4882  0.1685  1.8504
 1670SOL    HW3 6447   3.906   0.699   4.432 -0.4230 -0.3305  1.6706
 1670SOL    MW4 6448   3.841   0.741   4.391 -0.2499  0.2519  0.3573
 1671SOL     OW 6449   1.319   1.001   3.976  0.0174  0.5597 -0.4530
 1671SOL    HW2 6450   1.401   1.038   3.943 -0.3900  2.1890  0.2424
 1671SOL    HW3 6451   1.259   1.076   3.980 -0.6172  0.0034  1.8574
 1671SOL    MW4 6452   1.322   1.016   3.972 -0.1389 -0.3293  0.3493
 1672SOL     OW 6453   3.828   1.499   0.442  0.1199 -0.1858 -0.0838
 1672SOL    HW2 6454   3.886   1.425   0.460  1.7620  1.0513 -0.0372
 1672SOL    HW3 6455   3.771   1.504   0.518  2.7008  1.0411  1.9125
 1672SOL    MW4 6456   3.828   1.490   0.454 -0.5132  0.2958  0.4253
 1673SOL     OW 6457   1.004   1.137   1.346  0.0727  0.4666  0.5776
 1673SOL    HW2 6458   0.971   1.187   1.272  1.4804  0.9345  0.2311
 1673SOL    HW3 6459   1.001   1.046   1.318 -0.2496  0.5647  0.2978
 1673SOL    MW4 6460   1.000   1.132   1.333  0.1987  0.5345 -0.1464
 1674SOL     OW 6461   6.023   3.239   1.495 -0.0404 -0.0470 -0.3175
 1674SOL    HW2 6462   5.929   3.227   1.482 -0.1490 -0.0968  0.4395
 1674SOL    HW3 6463   6.062   3.218   1.410 -0.5126 -2.2458 -0.0435
 1674SOL    MW4 6464   6.015   3.235   1.482  0.1969 -0.1865  0.2594
 1675SOL     OW 6465   0.674   5.458   5.650  0.0152  0.3827 -0.5238
 1675SOL    HW2 6466   0.579   5.453   5.660  0.1240 -0.6929  0.1755
 1675SOL    HW3 6467   0.708   5.398   5.717  1.1381 -0.2381 -1.6199
 1675SOL    MW4 6468   0.666   5.449   5.661 -0.1853  0.5527  0.0275
 1676SOL     OW 6469   1.875   0.170   4.648 -0.2442 -0.0310  0.2735
 1676SOL    HW2 6470   1.897   0.093   4.701  0.0523 -0.5424 -0.5827
 1676SOL    HW3 6471   1.935   0.166   4.574 -0.2151  1.0417  0.2276
 1676SOL    MW4 6472   1.886   0.159   4.645  0.7973 -0.4770  0.3030
 1677SOL     OW 6473   0.786   3.927   1.135 -0.5693 -0.4073  0.2201
 1677SOL    HW2 6474   0.849   3.975   1.190  2.0049 -1.6828 -1.4032
 1677SOL    HW3 6475   0.714   3.905   1.194  0.2934  1.4894  2.1065
 1677SOL    MW4 6476   0.785   3.930   1.150  0.8461 -0.0345 -0.2931
 1678SOL     OW 6477   3.830   0.743   2.730  0.0431 -0.1087 -0.1466
 1678SOL    HW2 6478   3.734   0.742   2.723  0.0962 -0.7134 -0.8674
 1678SOL    HW3 6479   3.855   0.650   2.729  0.5015 -0.0709  2.1435
 1678SOL    MW4 6480   3.820   0.730   2.729  0.0703  0.0303  0.3699
 1679SOL     OW 6481   3.250   5.924   3.673 -0.2566 -0.0577  0.1973
 1679SOL    HW2 6482   3.310   5.998   3.665  0.9575 -0.6065  3.1352
 1679SOL    HW3 6483   3.168   5.964   3.702  0.1655  0.2219  1.0240
 1679SOL    MW4 6484   3.247   5.939   3.675  0.7140 -0.1155 -0.1298
 1680SOL     OW 6485   3.266   6.247   4.783 -0.1800  0.1525 -0.3920
 1680SOL    HW2 6486   3.340   6.195   4.752  0.4612  0.9904 -0.3082
 1680SOL    HW3 6487   3.190   6.190   4.773  0.8535 -1.8912  2.4167
 1680SOL    MW4 6488   3.266   6.233   4.777 -0.2219 -0.0494 -0.0279
 1681SOL     OW 6489   0.484   5.789   0.273  0.2882  0.1563  0.1582
 1681SOL    HW2 6490   0.560   5.781   0.330  0.0918  2.0379  0.7398
 1681SOL    HW3 6491   0.417   5.831   0.327 -1.0966 -1.2114 -0.4207
 1681SOL    MW4 6492   0.485   5.793   0.287 -0.1926 -0.8277 -0.4876
 1682SOL     OW 6493   2.628   1.785   4.819 -0.8032  0.2350  1.0610
 1682SOL    HW2 6494   2.592   1.700   4.792 -0.0425 -0.0881  1.0346
 1682SOL    HW3 6495   2.624   1.838   4.740 -1.7607  0.4000  1.2074
 1682SOL    MW4 6496   2.623   1.781   4.805  0.2648 -0.2035 -0.2703
 1683SOL     OW 6497   4.513   5.517   0.450  0.6874 -0.1181 -0.2145
 1683SOL    HW2 6498   4.496   5.523   0.356  0.7323 -0.5706 -0.2496
 1683SOL    HW3 6499   4.434   5.552   0.491  0.5478 -0.2005 -0.4156
 1683SOL    MW4 6500   4.501   5.523   0.443 -0.1360 -0.6700  0.5329
 1684SOL     OW 6501   0.610   5.519   3.499  0.4080 -0.7056 -0.6830
 1684SOL    HW2 6502   0.659   5.592   3.536  2.0286 -1.1983 -1.7666
 1684SOL    HW3 6503   0.674   5.470   3.448 -1.2137 -1.3739 -2.2041
 1684SOL    MW4 6504   0.625   5.522   3.497 -0.0293 -0.1128 -0.2165
 1685SOL     OW 6505   3.294   3.118   5.213  0.2148 -0.6062 -0.2313
 1685SOL    HW2 6506   3.266   3.201   5.252 -1.8267 -1.7552  0.8951
 1685SOL    HW3 6507   3.319   3.064   5.288  0.8821 -1.2590 -0.9119
 1685SOL    MW4 6508   3.294   3.122   5.228 -0.2280  0.4583 -0.3013
 1686SOL     OW 6509   4.286   4.220   1.462 -0.9123 -0.3178  0.3705
 1686SOL    HW2 6510   4.360   4.214   1.402 -0.0375  0.1266  1.3794
 1686SOL    HW3 6511   4.230   4.288   1.425 -0.9796 -0.8455 -0.5465
 1686SOL    MW4 6512   4.288   4.228   1.449 -0.0279 -0.1977 -0.3991
 1687SOL     OW 6513   4.401   4.430   5.928 -0.3810  0.3251 -0.3164
 1687SOL    HW2 6514   4.446   4.514   5.934 -0.2949  0.2319  0.4157
 1687SOL    HW3 6515   4.442   4.387   5.852 -0.4197  0.9277 -0.6909
 1687SOL    MW4 6516   4.412   4.435   5.918 -0.1682  0.1965  0.2574
 1688SOL     OW 6517   0.589   1.580   1.625 -0.1936 -0.0481  0.0978
 1688SOL    HW2 6518   0.674   1.551   1.657  0.2040  0.6655 -0.3063
 1688SOL    HW3 6519   0.576   1.666   1.665  0.7034  1.2668 -2.2409
 1688SOL    MW4 6520   0.598   1.587   1.635 -1.1300 -0.1436  0.1684
 1689SOL     OW 6521   4.900   5.537   4.387  0.2770  0.5402  0.4621
 1689SOL    HW2 6522   4.894   5.519   4.481 -0.5402  1.3138  0.5774
 1689SOL    HW3 6523   4.952   5.465   4.352  1.6873  0.9267  1.6949
 1689SOL    MW4 6524   4.906   5.525   4.395 -0.2957  0.3152 -0.6305
 1690SOL     OW 6525   0.274   4.016   5.796 -0.7188  0.8011  0.1578
 1690SOL    HW2 6526   0.355   3.967   5.778  0.5564  2.9386 -0.2156
 1690SOL    HW3 6527   0.254   3.996   5.887  0.3330  0.3533  0.3098
 1690SOL    MW4 6528   0.282   4.007   5.805 -0.0352 -0.0397  0.6942
 1691SOL     OW 6529   5.260   1.899   4.805  0.5743 -0.3360 -0.4132
 1691SOL    HW2 6530   5.188   1.880   4.745 -0.2980 -0.0899  0.5130
 1691SOL    HW3 6531   5.268   1.994   4.805  0.1630 -0.2882  0.2815
 1691SOL    MW4 6532   5.252   1.909   4.797 -0.2356 -0.0328  0.4207
 1692SOL     OW 6533   5.595   5.316   3.311 -0.6915 -0.3808 -0.4805
 1692SOL    HW2 6534   5.595   5.284   3.221  1.9415 -1.3373 -0.2193
 1692SOL    HW3 6535   5.549   5.248   3.360  0.0127 -1.0739 -0.7609
 1692SOL    MW4 6536   5.589   5.303   3.306  0.3118 -0.3321  0.3780
 1693SOL     OW 6537   0.040   5.407   1.809  0.3295  0.4615  0.0320
 1693SOL    HW2 6538  -0.047   5.368   1.796  0.0518  1.4507 -1.2608
 1693SOL    HW3 6539   0.101   5.335   1.792 -0.2064 -0.2487  0.9658
 1693SOL    MW4 6540   0.037   5.392   1.805 -0.4002  0.3323  0.2783
 1694SOL     OW 6541   2.024   0.226   4.389  0.3401 -0.4015 -0.8497
 1694SOL    HW2 6542   2.033   0.314   4.352 -0.3841 -0.5666 -1.4670
 1694SOL    HW3 6543   1.981   0.176   4.319 -1.0589 -0.7409  0.2075
 1694SOL    MW4 6544   2.019   0.231   4.375 -0.2335 -0.0794  0.2299
 1695SOL     OW 6545   1.009   2.990   4.363  0.7443  0.7793 -0.1855
 1695SOL    HW2 6546   1.011   3.037   4.280 -0.4645 -0.6621 -1.0677
 1695SOL    HW3 6547   1.054   2.907   4.345 -2.1132 -0.8738 -0.3426
 1695SOL    MW4 6548   1.015   2.985   4.350  0.7419 -0.5800 -0.0024
 1696SOL     OW 6549   5.131   4.709   1.561  0.5929 -0.3727 -0.4834
 1696SOL    HW2 6550   5.063   4.689   1.625 -0.6790 -0.6262 -1.8712
 1696SOL    HW3 6551   5.207   4.659   1.591 -0.6448 -2.2965 -0.3811
 1696SOL    MW4 6552   5.132   4.700   1.573  0.5473  0.2465 -0.0440
 1697SOL     OW 6553   3.885   2.940   2.361  0.5967 -0.4784 -0.1085
 1697SOL    HW2 6554   3.875   2.850   2.329 -2.1041  0.0278 -1.0022
 1697SOL    HW3 6555   3.795   2.974   2.364  1.4992  2.0706  0.5875
 1697SOL    MW4 6556   3.872   2.933   2.357  0.6459 -0.7174  0.1407
 1698SOL     OW 6557   2.314   0.745   2.485  0.0962  0.0551  0.5491
 1698SOL    HW2 6558   2.408   0.730   2.498  0.1501  0.4541  0.6354
 1698SOL    HW3 6559   2.292   0.689   2.410  0.4617  0.1527  0.3607
 1698SOL    MW4 6560   2.324   0.736   2.477 -0.5574 -0.5528  0.1281
 1699SOL     OW 6561   1.109   4.610   1.377  0.1339 -0.2995 -0.2985
 1699SOL    HW2 6562   1.119   4.607   1.472 -0.0640 -0.9585 -0.2926
 1699SOL    HW3 6563   1.150   4.529   1.346 -0.9803 -0.7495 -0.6588
 1699SOL    MW4 6564   1.116   4.599   1.385  0.3937 -0.0811  0.5808
 1700SOL     OW 6565   2.955   0.803   1.259 -0.2763  0.0047  0.8340
 1700SOL    HW2 6566   2.964   0.784   1.352  1.2537 -0.3642  0.6352
 1700SOL    HW3 6567   2.884   0.868   1.255 -0.3538  0.0453  2.2498
 1700SOL    MW4 6568   2.947   0.809   1.271  0.6723 -0.1751  0.9167
 1701SOL     OW 6569   0.638   5.068   1.847  0.2257 -0.3807 -0.6609
 1701SOL    HW2 6570   0.677   4.997   1.795  0.2069 -0.1871 -0.9400
 1701SOL    HW3 6571   0.572   5.024   1.901 -0.1531 -0.4999 -1.2121
 1701SOL    MW4 6572   0.635   5.053   1.848 -0.7815 -0.2811  0.0562
 1702SOL     OW 6573   0.514   2.029   6.186  0.0653 -0.3551  0.2416
 1702SOL    HW2 6574   0.430   2.022   6.142  0.2139  0.0828 -0.1144
 1702SOL    HW3 6575   0.493   2.024   6.279 -0.5747  1.5710  0.2494
 1702SOL    MW4 6576   0.500   2.028   6.193  0.6853  0.5834  0.1073
 1703SOL     OW 6577   5.608   5.215   5.062 -0.4623  0.3989 -0.1695
 1703SOL    HW2 6578   5.688   5.241   5.108 -0.7353 -0.8600  1.1059
 1703SOL    HW3 6579   5.547   5.288   5.076  0.1351  0.9314 -0.3055
 1703SOL    MW4 6580   5.610   5.228   5.070 -0.0790 -0.4716  0.2599
 1704SOL     OW 6581   2.337   0.523   2.766 -0.1534  0.3746 -0.0650
 1704SOL    HW2 6582   2.279   0.598   2.776  0.9623  1.1265  1.1334
 1704SOL    HW3 6583   2.337   0.505   2.672  1.4390  3.4790 -0.8112
 1704SOL    MW4 6584   2.330   0.530   2.755  0.0971 -0.5779 -0.0535
 1705SOL     OW 6585   6.299   2.848   5.305  0.4170  0.4854  0.5610
 1705SOL    HW2 6586   6.211   2.888   5.306  0.6216  0.9443  1.0525
 1705SOL    HW3 6587   6.336   2.872   5.220  0.8572  2.0895  1.1679
 1705SOL    MW4 6588   6.292   2.857   5.294  0.2956 -0.2537  0.2687
 1706SOL     OW 6589   4.305   0.124   2.693  0.3860 -1.0192 -0.1562
 1706SOL    HW2 6590   4.356   0.044   2.711  2.7521  0.4728  0.2358
 1706SOL    HW3 6591   4.302   0.129   2.598  2.8303 -0.1620 -0.2788
 1706SOL    MW4 6592   4.312   0.114   2.683  0.4290 -0.3068 -0.0168
 1707SOL     OW 6593   0.372   5.200   5.185  0.1308  0.1366 -0.5693
 1707SOL    HW2 6594   0.463   5.185   5.161  0.3984  0.5324  0.1650
 1707SOL    HW3 6595   0.328   5.220   5.102  0.2803 -2.0134 -1.2138
 1707SOL    MW4 6596   0.378   5.201   5.171 -0.2900 -0.0976  1.2114
 1708SOL     OW 6597   2.255   2.036   5.153  0.3640 -0.4547 -0.6134
 1708SOL    HW2 6598   2.268   2.073   5.240 -0.3644 -1.1061 -0.2055
 1708SOL    HW3 6599   2.343   2.026   5.117  0.6854 -0.3440  0.1259
 1708SOL    MW4 6600   2.268   2.040   5.160 -1.1497 -0.3891  0.0029
 1709SOL     OW 6601   5.051   2.291   3.443 -0.1101  0.1838  0.1241
 1709SOL    HW2 6602   5.010   2.286   3.529 -0.8702 -0.2020 -0.2467
 1709SOL    HW3 6603   5.060   2.200   3.415  0.6190  0.2818  0.0102
 1709SOL    MW4 6604   5.047   2.279   3.451  0.3211 -0.2201  0.4281
 1710SOL     OW 6605   3.285   4.921   6.220 -0.0406  0.2837  0.6117
 1710SOL    HW2 6606   3.370   4.935   6.261 -0.4255 -0.0988  1.5642
 1710SOL    HW3 6607   3.238   4.864   6.281  0.0620 -1.9575 -1.2789
 1710SOL    MW4 6608   3.290   4.915   6.234 -0.0762  0.1101  0.3190
 1711SOL     OW 6609   5.130   1.600   6.335 -0.2229 -0.1428  0.2079
 1711SOL    HW2 6610   5.175   1.669   6.286 -1.2053  0.2428 -0.1753
 1711SOL    HW3 6611   5.152   1.520   6.287  0.0510  0.0331  0.0287
 1711SOL    MW4 6612   5.139   1.599   6.322 -0.3919  0.1349  0.5443
 1712SOL     OW 6613   4.578   5.846   1.460 -0.3377 -0.1260 -0.0079
 1712SOL    HW2 6614   4.499   5.890   1.492  0.3570  1.3939 -0.3066
 1712SOL    HW3 6615   4.569   5.756   1.491 -1.2630  0.4754  1.6018
 1712SOL    MW4 6616   4.566   5.840   1.468  0.4199 -0.3921 -0.5969
 1713SOL     OW 6617   5.710   3.164   1.788  0.1054 -0.2317  0.2028
 1713SOL    HW2 6618   5.727   3.073   1.811  0.1429 -0.3321 -0.2128
 1713SOL    HW3 6619   5.615   3.168   1.775 -0.3880  0.4988  3.2640
 1713SOL    MW4 6620   5.700   3.153   1.789  0.3987 -0.1323 -0.1952
 1714SOL     OW 6621   4.139   1.432   2.574 -0.0825 -0.2051  0.2575
 1714SOL    HW2 6622   4.080   1.404   2.504 -0.9745 -1.9582  1.6249
 1714SOL    HW3 6623   4.111   1.382   2.651  1.9464  0.3712  1.4559
 1714SOL    MW4 6624   4.128   1.422   2.575 -0.5281 -0.0637  0.2522
 1715SOL     OW 6625   6.281   1.457   1.223  0.5447 -0.2157 -0.6773
 1715SOL    HW2 6626   6.357   1.511   1.245 -0.9356  1.9582 -0.5337
 1715SOL    HW3 6627   6.237   1.443   1.307 -0.8957  1.3318 -1.1260
 1715SOL    MW4 6628   6.285   1.462   1.237 -0.3842 -0.5359  0.6862
 1716SOL     OW 6629   0.526   2.944   5.429  0.2227 -0.2197 -0.5337
 1716SOL    HW2 6630   0.431   2.951   5.440 -0.1726  0.8925 -3.6137
 1716SOL    HW3 6631   0.538   2.860   5.385  0.6163 -0.1338 -0.5899
 1716SOL    MW4 6632   0.515   2.934   5.425 -0.1433 -0.6315 -0.1825
 1717SOL     OW 6633   1.492   3.944   4.945 -0.0948  0.0052 -0.0379
 1717SOL    HW2 6634   1.484   4.038   4.959 -1.9855  0.1845 -1.8141
 1717SOL    HW3 6635   1.580   3.932   4.908  0.3805  0.9658  0.7356
 1717SOL    MW4 6636   1.503   3.954   4.942 -0.2959 -0.1902 -0.0165
 1718SOL     OW 6637   1.293   4.726   2.249 -0.4570 -0.3109 -0.4455
 1718SOL    HW2 6638   1.346   4.674   2.189  0.4049  0.2334 -0.1672
 1718SOL    HW3 6639   1.336   4.811   2.251 -0.3844 -0.3629  1.0617
 1718SOL    MW4 6640   1.305   4.730   2.241 -0.5030  0.0488 -0.1551
 1719SOL     OW 6641   3.006   5.438   5.440 -0.4043 -0.7900  0.2708
 1719SOL    HW2 6642   3.024   5.376   5.369 -0.4341 -0.7382  0.2179
 1719SOL    HW3 6643   2.925   5.482   5.413 -0.8900 -1.3715  0.7512
 1719SOL    MW4 6644   2.998   5.436   5.427  0.5657  1.1161 -0.0433
 1720SOL     OW 6645   1.235   6.396   4.435  0.4074  0.1902 -0.4571
 1720SOL    HW2 6646   1.174   6.361   4.499 -0.4698  1.5750 -0.4940
 1720SOL    HW3 6647   1.314   6.417   4.486  0.7599 -1.2877 -0.3527
 1720SOL    MW4 6648   1.238   6.395   4.450 -0.0618  0.8151 -0.5233
 1721SOL     OW 6649   0.516   5.233   3.159 -0.0221  0.8694 -0.4216
 1721SOL    HW2 6650   0.454   5.228   3.231  0.1420  1.1439 -0.2575
 1721SOL    HW3 6651   0.462   5.228   3.080 -0.1422 -0.1845 -0.2899
 1721SOL    MW4 6652   0.501   5.232   3.158 -0.4879  0.4749 -0.2933
 1722SOL     OW 6653   3.048   5.534   6.406  0.6082 -0.5248  0.5200
 1722SOL    HW2 6654   3.063   5.550   6.313  0.5458  0.0712  0.6090
 1722SOL    HW3 6655   3.125   5.486   6.436 -0.2019 -2.4127 -0.2518
 1722SOL    MW4 6656   3.060   5.529   6.398 -0.1528  0.1861 -0.1500
 1723SOL     OW 6657   5.010   4.734   3.728  0.3545 -0.2561  0.1500
 1723SOL    HW2 6658   5.040   4.733   3.637 -1.6944 -1.1025 -0.5761
 1723SOL    HW3 6659   5.001   4.642   3.751  0.3751 -0.0373  1.0478
 1723SOL    MW4 6660   5.013   4.722   3.719  0.5151  0.2279  0.4851
 1724SOL     OW 6661   5.387   2.464   0.879  0.2280 -0.1236 -0.4092
 1724SOL    HW2 6662   5.367   2.375   0.907  1.9674 -0.8137 -1.2119
 1724SOL    HW3 6663   5.461   2.491   0.934 -0.7495  1.1278  0.3349
 1724SOL    MW4 6664   5.394   2.456   0.890  0.3035 -0.0272 -0.2851
 1725SOL     OW 6665   2.445   4.273   5.135 -0.3667  0.5006 -0.8010
 1725SOL    HW2 6666   2.422   4.180   5.144  0.6895  0.3816  1.2892
 1725SOL    HW3 6667   2.530   4.271   5.090 -0.2382  0.4357 -0.5576
 1725SOL    MW4 6668   2.453   4.260   5.130  0.1420  0.3964 -0.4312
 1726SOL     OW 6669   0.227   5.996   3.878  0.3660  0.2871  0.5800
 1726SOL    HW2 6670   0.285   5.923   3.857  1.7654  0.7187  2.6779
 1726SOL    HW3 6671   0.245   6.060   3.809  0.3602 -0.6416 -0.3245
 1726SOL    MW4 6672   0.237   5.995   3.866  0.2860 -0.0062 -0.5681
 1727SOL     OW 6673   3.591   5.849   5.697 -0.0805 -0.2825 -0.1548
 1727SOL    HW2 6674   3.546   5.913   5.643 -0.3093 -0.9307 -0.7474
 1727SOL    HW3 6675   3.524   5.786   5.723  0.3394 -0.8775 -0.4745
 1727SOL    MW4 6676   3.576   5.849   5.694  0.0179  0.0534 -0.1811
 1728SOL     OW 6677   2.290   4.319   4.560  0.3365 -0.3153 -0.0627
 1728SOL    HW2 6678   2.359   4.324   4.627 -0.9725  1.2429  1.2355
 1728SOL    HW3 6679   2.307   4.236   4.515  1.5040 -1.2168  1.9258
 1728SOL    MW4 6680   2.302   4.309   4.563 -0.3712 -0.6218  0.2113
 1729SOL     OW 6681   1.603   3.595   3.220  0.3671 -0.1603  1.0423
 1729SOL    HW2 6682   1.587   3.538   3.294 -2.9524 -1.0952 -0.2102
 1729SOL    HW3 6683   1.587   3.683   3.254 -0.7578 -0.5476  1.5745
 1729SOL    MW4 6684   1.599   3.599   3.234  0.3755 -0.2348 -0.0830
 1730SOL     OW 6685   4.313   5.760   3.153 -0.3888  0.3938 -0.8071
 1730SOL    HW2 6686   4.330   5.835   3.096 -0.3158  0.6038 -0.5123
 1730SOL    HW3 6687   4.242   5.713   3.111  0.0275  0.2518 -1.3534
 1730SOL    MW4 6688   4.306   5.764   3.140  0.5532  0.3509 -0.3775
 1731SOL     OW 6689   1.830   5.424   0.022  0.3422  0.6521 -0.0437
 1731SOL    HW2 6690   1.912   5.435  -0.025  0.1665 -0.2801 -0.5877
 1731SOL    HW3 6691   1.846   5.350   0.081  0.2417  1.1770  0.6562
 1731SOL    MW4 6692   1.843   5.416   0.024 -0.3716  0.4407  0.8333
 1732SOL     OW 6693   3.821   2.357   1.611  0.0624 -0.1878  0.4191
 1732SOL    HW2 6694   3.749   2.294   1.613 -0.9329  0.9153  2.1040
 1732SOL    HW3 6695   3.898   2.307   1.637 -0.9030 -0.5313  2.8563
 1732SOL    MW4 6696   3.822   2.342   1.615  0.6536  0.0848 -0.2017
 1733SOL     OW 6697   4.971   6.137   1.757 -0.4241 -0.3298 -0.4659
 1733SOL    HW2 6698   4.913   6.084   1.704 -1.3492  0.4886 -0.3053
 1733SOL    HW3 6699   4.924   6.219   1.769  0.1648 -0.1630  0.8471
 1733SOL    MW4 6700   4.957   6.141   1.752  0.4668 -0.1009 -0.2483
 1734SOL     OW 6701   0.555   1.126   4.648  0.0297 -0.1732  0.3895
 1734SOL    HW2 6702   0.488   1.077   4.600  0.4435 -0.1790 -0.1909
 1734SOL    HW3 6703   0.514   1.210   4.667  0.3003  0.3337 -1.1451
 1734SOL    MW4 6704   0.541   1.131   4.644  0.3751  0.1080  1.0500
 1735SOL     OW 6705   2.803   3.914   4.184 -0.0024 -0.1394 -0.3610
 1735SOL    HW2 6706   2.834   3.917   4.275  0.1492 -0.0048 -0.4157
 1735SOL    HW3 6707   2.752   3.833   4.178 -1.2283  0.5567  0.2266
 1735SOL    MW4 6708   2.800   3.903   4.195 -0.1631  0.2398 -0.1914
 1736SOL     OW 6709   0.402   1.886   4.702  0.3298  0.5241 -0.3440
 1736SOL    HW2 6710   0.420   1.968   4.656  0.5237 -0.5628 -2.3248
 1736SOL    HW3 6711   0.486   1.839   4.701  0.1932  0.2393  0.6615
 1736SOL    MW4 6712   0.416   1.890   4.696 -0.4501 -0.2350  0.1487
 1737SOL     OW 6713   2.493   3.066   5.722  0.2937 -0.5136 -0.1464
 1737SOL    HW2 6714   2.569   3.114   5.689  0.3305 -0.7361 -0.3806
 1737SOL    HW3 6715   2.529   3.012   5.793  0.3940 -0.7915 -0.4103
 1737SOL    MW4 6716   2.508   3.066   5.727 -0.1286 -0.0528  0.1208
 1738SOL     OW 6717   5.889   4.863   1.483 -0.3289 -0.3389 -0.3286
 1738SOL    HW2 6718   5.804   4.900   1.462  0.6619  1.5832 -1.1872
 1738SOL    HW3 6719   5.876   4.768   1.474 -2.3467 -0.1000 -0.4602
 1738SOL    MW4 6720   5.876   4.855   1.479 -0.6165  0.3661  0.7130
 1739SOL     OW 6721   1.396   1.494   2.597 -0.2639  0.3591 -0.6221
 1739SOL    HW2 6722   1.366   1.473   2.509  2.2613 -0.6961 -1.3217
 1739SOL    HW3 6723   1.424   1.585   2.593  0.0334  0.2530 -0.9784
 1739SOL    MW4 6724   1.395   1.503   2.585  0.1071  0.4329  0.0708
 1740SOL     OW 6725   2.965   6.072   3.016 -0.2424 -0.2668 -0.3213
 1740SOL    HW2 6726   2.964   6.028   3.101 -1.0336 -1.5925 -0.9699
 1740SOL    HW3 6727   3.001   6.007   2.956  1.7871  1.1864 -0.7635
 1740SOL    MW4 6728   2.969   6.057   3.019  0.1557 -0.2113  0.1266
 1741SOL     OW 6729   6.344   4.715   1.569 -0.1614  0.0527  0.2273
 1741SOL    HW2 6730   6.439   4.704   1.561  0.0281  1.7422 -0.2698
 1741SOL    HW3 6731   6.317   4.648   1.632  1.3903 -0.2954  0.5617
 1741SOL    MW4 6732   6.353   4.705   1.576 -0.1570  0.0966 -0.2498
 1742SOL     OW 6733   1.496   1.425   5.207  0.0095 -0.6526  0.3620
 1742SOL    HW2 6734   1.582   1.436   5.248 -0.4537  0.0871  1.1575
 1742SOL    HW3 6735   1.515   1.414   5.114  1.0039 -1.1417  0.6069
 1742SOL    MW4 6736   1.510   1.425   5.200  0.6374 -0.2290  0.2151
 1743SOL     OW 6737   0.293   5.290   5.810  0.2905 -0.1772 -0.0377
 1743SOL    HW2 6738   0.215   5.239   5.831  0.1750  0.5382  1.4352
 1743SOL    HW3 6739   0.343   5.292   5.892  0.6156  1.4738 -0.2397
 1743SOL    MW4 6740   0.289   5.284   5.824 -0.1130 -0.3997  0.0597
 1744SOL     OW 6741   4.792   2.529   0.790  0.6629  0.2248  0.0887
 1744SOL    HW2 6742   4.779   2.572   0.705 -3.1921  1.7610  1.2336
 1744SOL    HW3 6743   4.830   2.597   0.846 -0.1948  0.3920  0.4817
 1744SOL    MW4 6744   4.795   2.544   0.786 -0.5653 -0.4960 -0.4908
 1745SOL     OW 6745   0.081   3.276   1.206 -0.4058 -0.3175  0.0372
 1745SOL    HW2 6746   0.164   3.236   1.234  0.0474  0.0908 -0.6928
 1745SOL    HW3 6747   0.016   3.242   1.268  0.2743 -0.7809  0.5140
 1745SOL    MW4 6748   0.083   3.266   1.218  0.3908 -0.0850 -0.2498
 1746SOL     OW 6749   5.054   6.092   2.995  0.1621 -0.4392  0.4523
 1746SOL    HW2 6750   4.993   6.166   2.999 -0.8466 -1.1999 -0.2034
 1746SOL    HW3 6751   5.085   6.081   3.085  0.2272  0.6880  0.5788
 1746SOL    MW4 6752   5.050   6.100   3.007  0.2418  0.3110  0.6468
 1747SOL     OW 6753   0.833   3.856   1.519  0.0681 -0.2439  0.2298
 1747SOL    HW2 6754   0.894   3.802   1.468  1.7818  1.8167 -0.0553
 1747SOL    HW3 6755   0.877   3.941   1.527 -2.3281  1.0253  0.9740
 1747SOL    MW4 6756   0.847   3.860   1.513 -0.2268 -0.0734  0.5283
 1748SOL     OW 6757   1.134   1.215   1.735  0.0573 -0.4435  0.2424
 1748SOL    HW2 6758   1.157   1.257   1.652  0.6611 -1.6146 -0.2087
 1748SOL    HW3 6759   1.170   1.272   1.802 -0.7521  0.7091 -0.2806
 1748SOL    MW4 6760   1.142   1.228   1.733 -0.3751 -0.2214 -0.4383
 1749SOL     OW 6761   2.868   2.296   4.830  0.0666 -0.3248 -0.4486
 1749SOL    HW2 6762   2.887   2.241   4.907  0.1863  0.8648  0.3949
 1749SOL    HW3 6763   2.918   2.376   4.845  0.4315 -0.2369 -1.9894
 1749SOL    MW4 6764   2.877   2.299   4.842  0.2042 -0.1634 -0.1761
 1750SOL     OW 6765   4.831   0.125   3.399 -0.1926 -0.6298 -0.1225
 1750SOL    HW2 6766   4.750   0.175   3.402  0.0637 -0.1135 -1.3921
 1750SOL    HW3 6767   4.804   0.038   3.368 -0.4148 -0.8247  0.5963
 1750SOL    MW4 6768   4.816   0.120   3.396  0.1151 -0.4001 -0.5413
 1751SOL     OW 6769   6.238   5.009   5.444 -0.3440 -0.3687  0.7880
 1751SOL    HW2 6770   6.292   4.932   5.423  0.4615  0.3943 -0.0591
 1751SOL    HW3 6771   6.280   5.047   5.521 -0.5007 -0.5597  0.9661
 1751SOL    MW4 6772   6.251   5.004   5.451  0.2100  0.0902  0.2029
 1752SOL     OW 6773   5.722   1.510   3.724 -0.3877  0.3750 -0.5044
 1752SOL    HW2 6774   5.718   1.553   3.810  1.3855 -1.6420  0.6833
 1752SOL    HW3 6775   5.808   1.468   3.722 -0.8411 -0.6017 -2.8282
 1752SOL    MW4 6776   5.733   1.510   3.735 -0.1767  0.0635  0.2636
 1753SOL     OW 6777   1.423   4.906   4.213 -0.1784  0.3728 -0.0701
 1753SOL    HW2 6778   1.429   4.856   4.294  1.4036  1.6831  0.6649
 1753SOL    HW3 6779   1.428   4.839   4.144  1.3279 -0.5602  0.8802
 1753SOL    MW4 6780   1.425   4.890   4.214 -0.2026  0.2339 -0.0184
 1754SOL     OW 6781   5.072   0.853   2.801  0.1701 -0.2088 -0.3351
 1754SOL    HW2 6782   4.981   0.844   2.829  0.7921  0.1536  1.9632
 1754SOL    HW3 6783   5.111   0.913   2.864  1.6422  0.9532 -2.2284
 1754SOL    MW4 6784   5.065   0.860   2.813 -0.0771 -0.0968  0.3456
 1755SOL     OW 6785   1.402   5.198   5.120 -0.8031  0.3540  0.5033
 1755SOL    HW2 6786   1.384   5.229   5.031  0.3921  1.6554  0.6722
 1755SOL    HW3 6787   1.428   5.107   5.109  0.0470  0.7056 -0.5985
 1755SOL    MW4 6788   1.403   5.190   5.107 -0.7145 -0.3430  0.2400
 1756SOL     OW 6789   1.562   0.273   3.263 -0.0188 -0.0873  0.4001
 1756SOL    HW2 6790   1.520   0.272   3.349  0.5952 -2.2222  0.7288
 1756SOL    HW3 6791   1.628   0.342   3.270 -1.5940  1.4827  0.7532
 1756SOL    MW4 6792   1.565   0.282   3.275 -0.0718 -0.0999  0.2495
 1757SOL     OW 6793   0.408   3.845   4.429  0.2019  0.5194 -0.1882
 1757SOL    HW2 6794   0.473   3.867   4.495 -0.5319 -0.9472  1.0897
 1757SOL    HW3 6795   0.395   3.926   4.380  0.4638  1.7888  1.7339
 1757SOL    MW4 6796   0.415   3.858   4.431  0.9539 -0.1644 -0.5576
 1758SOL     OW 6797   0.141   5.444   4.169 -0.3151  0.1427 -0.0209
 1758SOL    HW2 6798   0.128   5.373   4.232 -1.3078  1.1739  0.9603
 1758SOL    HW3 6799   0.053   5.478   4.152  0.1380  1.0717 -0.5658
 1758SOL    MW4 6800   0.128   5.439   4.175  0.5006 -0.1502  0.2448
 1759SOL     OW 6801   4.894   3.709   2.031 -0.0539  0.2969  0.5192
 1759SOL    HW2 6802   4.945   3.709   1.950 -0.2751 -0.7848  0.3757
 1759SOL    HW3 6803   4.946   3.761   2.092  0.7377  0.0405  0.0721
 1759SOL    MW4 6804   4.908   3.716   2.029  0.0640 -0.1122 -0.0340
 1760SOL     OW 6805   1.239   2.278   2.855  0.1239 -0.7038  0.4968
 1760SOL    HW2 6806   1.221   2.318   2.940 -1.7534 -0.1290 -0.1285
 1760SOL    HW3 6807   1.206   2.188   2.863 -0.8822 -0.3782  0.1099
 1760SOL    MW4 6808   1.232   2.271   2.868 -0.3097  0.1561  0.0148
 1761SOL     OW 6809   1.257   5.346   5.927 -0.3107 -0.5978  0.1819
 1761SOL    HW2 6810   1.271   5.308   6.013 -0.7965 -1.6309 -0.1893
 1761SOL    HW3 6811   1.223   5.275   5.873 -0.6110  0.1837 -0.7040
 1761SOL    MW4 6812   1.254   5.332   5.931  0.5108 -0.7233  0.0089
 1762SOL     OW 6813   5.746   0.371   2.729 -0.0580 -0.3367  0.2850
 1762SOL    HW2 6814   5.659   0.356   2.767 -1.6657  0.8190 -2.6063
 1762SOL    HW3 6815   5.739   0.456   2.687  1.3055 -1.6229 -2.8624
 1762SOL    MW4 6816   5.733   0.380   2.728 -0.0543 -0.5185 -0.0268
 1763SOL     OW 6817   4.289   0.663   6.097 -0.4699  0.0388 -0.0142
 1763SOL    HW2 6818   4.206   0.619   6.079 -1.3369  1.5718  0.1593
 1763SOL    HW3 6819   4.295   0.666   6.192  0.0866 -0.5705 -0.0164
 1763SOL    MW4 6820   4.279   0.657   6.107  0.1773  0.1048 -0.1122
 1764SOL     OW 6821   4.100   2.400   4.796  0.3007 -0.5053  0.1811
 1764SOL    HW2 6822   4.017   2.358   4.772 -0.8728  1.3250  0.8332
 1764SOL    HW3 6823   4.087   2.492   4.774  3.1336 -0.5000 -2.1239
 1764SOL    MW4 6824   4.087   2.407   4.790  0.4546  0.2491 -0.4928
 1765SOL     OW 6825   0.612   4.174   5.979  0.6937 -0.3765 -0.3696
 1765SOL    HW2 6826   0.670   4.103   6.005 -1.0133 -1.9087 -0.5359
 1765SOL    HW3 6827   0.602   4.163   5.884 -0.1533 -0.4000 -0.2866
 1765SOL    MW4 6828   0.618   4.163   5.970  0.7852 -0.4030  0.1524
 1766SOL     OW 6829   2.616   4.279   2.745  0.4417  0.0816 -0.0192
 1766SOL    HW2 6830   2.614   4.350   2.809  0.9857  0.1575 -0.0796
 1766SOL    HW3 6831   2.567   4.312   2.670 -0.3642 -0.0806  0.4270
 1766SOL    MW4 6832   2.610   4.292   2.744  0.3275 -0.0859  0.6193
 1767SOL     OW 6833   2.998   4.486   5.407 -0.2142  0.6675 -0.3926
 1767SOL    HW2 6834   3.060   4.428   5.451  0.7062  1.1723 -1.0094
 1767SOL    HW3 6835   2.923   4.489   5.467 -0.5978 -1.6983 -0.6695
 1767SOL    MW4 6836   2.996   4.479   5.421 -0.1545  0.3113 -0.2259
 1768SOL     OW 6837   2.152   3.986   4.790  0.0344  0.2032 -0.7214
 1768SOL    HW2 6838   2.090   4.056   4.768  1.2160  0.8960 -1.9874
 1768SOL    HW3 6839   2.238   4.028   4.788  0.5830 -0.7006  1.1733
 1768SOL    MW4 6840   2.155   4.000   4.787 -0.0208  0.5068  0.5202
 1769SOL     OW 6841   4.551   2.481   2.499  0.5581 -0.0330 -0.7239
 1769SOL    HW2 6842   4.461   2.469   2.529  0.2438 -1.0575 -1.9810
 1769SOL    HW3 6843   4.604   2.429   2.559  0.3923  1.0130  0.3555
 1769SOL    MW4 6844   4.546   2.473   2.511  0.1351 -0.2316  0.0189
 1770SOL     OW 6845   3.891   5.435   6.184  0.5823  0.5004 -0.1875
 1770SOL    HW2 6846   3.894   5.342   6.205  0.6431  0.4537 -0.3988
 1770SOL    HW3 6847   3.908   5.479   6.267  0.7096  0.3199 -0.1170
 1770SOL    MW4 6848   3.894   5.428   6.198 -0.7319 -0.0134 -0.9490
 1771SOL     OW 6849   4.391   5.307   6.396  0.2312  0.0233  0.0496
 1771SOL    HW2 6850   4.466   5.251   6.419 -0.2172 -0.9540 -0.8090
 1771SOL    HW3 6851   4.419   5.354   6.318 -0.0854 -0.4160 -0.3290
 1771SOL    MW4 6852   4.405   5.306   6.389  0.0338 -0.4058  0.2547
 1772SOL     OW 6853   5.953   1.588   4.950 -0.3432 -0.1264  0.5412
 1772SOL    HW2 6854   6.013   1.570   4.877 -0.4882  1.1267  0.0900
 1772SOL    HW3 6855   6.003   1.646   5.008 -0.5196 -0.4623  1.0295
 1772SOL    MW4 6856   5.968   1.594   4.948 -0.0872 -0.4850 -0.6055
 1773SOL     OW 6857   0.061   4.310   5.523 -0.9100  0.5549  0.3527
 1773SOL    HW2 6858   0.138   4.295   5.578 -0.9839  0.3877  0.4124
 1773SOL    HW3 6859  -0.012   4.281   5.577 -1.1644  2.0766  0.8662
 1773SOL    MW4 6860   0.062   4.304   5.538  0.4844  0.4564  0.1459
 1774SOL     OW 6861   0.697   3.375   3.840 -0.1030 -0.5620 -0.5816
 1774SOL    HW2 6862   0.666   3.368   3.930 -0.5708 -1.4361 -0.7889
 1774SOL    HW3 6863   0.753   3.452   3.839 -1.3076  0.3585  0.1055
 1774SOL    MW4 6864   0.700   3.384   3.852 -0.4248  0.7812 -0.3186
 1775SOL     OW 6865   5.901   4.373   6.369 -0.3466  0.4757  0.3461
 1775SOL    HW2 6866   5.953   4.450   6.391 -0.9056  0.7395  0.7786
 1775SOL    HW3 6867   5.824   4.379   6.426  0.6579 -1.6053  2.0927
 1775SOL    MW4 6868   5.897   4.384   6.380 -0.3685  0.2725  0.1652
 1776SOL     OW 6869   3.248   6.038   4.019  0.1079 -0.2429  0.0714
 1776SOL    HW2 6870   3.343   6.039   4.007  0.0418 -1.0440 -0.6091
 1776SOL    HW3 6871   3.234   5.979   4.093  0.1206 -0.3788 -0.0346
 1776SOL    MW4 6872   3.258   6.030   4.027 -0.1300 -0.3738  0.0494
 1777SOL     OW 6873   5.860   2.774   4.227  0.1354  0.0951  0.2599
 1777SOL    HW2 6874   5.779   2.735   4.258  1.7613 -2.4935  1.6200
 1777SOL    HW3 6875   5.847   2.788   4.133 -2.7793  2.4187  0.8539
 1777SOL    MW4 6876   5.848   2.771   4.219 -0.3221  0.7705 -0.2671
 1778SOL     OW 6877   0.420   1.141   0.566  0.7359  0.1645  0.5364
 1778SOL    HW2 6878   0.460   1.091   0.495 -0.2702 -0.9106  0.6862
 1778SOL    HW3 6879   0.460   1.228   0.560  1.9014 -0.4002 -0.2790
 1778SOL    MW4 6880   0.430   1.146   0.556 -0.2273  0.2045 -0.7413
 1779SOL     OW 6881   1.799   5.807   5.086  0.4132 -0.0981 -0.2024
 1779SOL    HW2 6882   1.821   5.729   5.136 -0.7000  0.4870  1.2756
 1779SOL    HW3 6883   1.877   5.863   5.093  1.0901 -0.9178 -0.9989
 1779SOL    MW4 6884   1.812   5.804   5.093 -0.2189  0.5144  0.3561
 1780SOL     OW 6885   1.158   4.222   4.780 -0.0214  0.5400 -0.3448
 1780SOL    HW2 6886   1.199   4.135   4.776 -0.9837 -0.0641  1.8488
 1780SOL    HW3 6887   1.084   4.217   4.719  0.4113  0.1260 -0.8493
 1780SOL    MW4 6888   1.154   4.210   4.771 -0.3917 -0.1281  0.2053
 1781SOL     OW 6889   6.071   3.053   4.196 -0.1620 -0.0937 -0.1887
 1781SOL    HW2 6890   5.975   3.049   4.201 -0.3014  0.8569 -1.4886
 1781SOL    HW3 6891   6.097   2.968   4.160 -0.4879 -0.4655  0.4404
 1781SOL    MW4 6892   6.062   3.042   4.192 -0.2255 -0.4049  0.7380
 1782SOL     OW 6893   5.644   2.177   0.096  0.5568  0.1440  0.2036
 1782SOL    HW2 6894   5.726   2.179   0.145 -0.0476  1.2463  1.2221
 1782SOL    HW3 6895   5.638   2.264   0.055 -0.0008 -0.0019 -0.0337
 1782SOL    MW4 6896   5.654   2.189   0.097 -0.1985 -0.1940  0.5093
 1783SOL     OW 6897   4.562   2.960   5.559 -0.5268  0.3055 -0.0919
 1783SOL    HW2 6898   4.540   2.952   5.651 -1.1567  1.3543 -0.1440
 1783SOL    HW3 6899   4.478   2.968   5.514 -0.1724  2.4429 -0.4717
 1783SOL    MW4 6900   4.548   2.960   5.565  0.1205 -0.3264 -0.0628
 1784SOL     OW 6901   2.773   5.058   1.600 -0.1251  0.6902  0.2035
 1784SOL    HW2 6902   2.739   4.976   1.636 -0.1678  1.5512  2.2586
 1784SOL    HW3 6903   2.719   5.126   1.640 -0.1265  1.7467 -1.5084
 1784SOL    MW4 6904   2.762   5.056   1.610  0.7486  0.0123 -0.1849
 1785SOL     OW 6905   3.271   5.623   0.532  0.4933 -0.2165  0.1450
 1785SOL    HW2 6906   3.323   5.702   0.520  0.2452  0.0009  0.4842
 1785SOL    HW3 6907   3.263   5.614   0.627 -0.9797  0.3418  0.0922
 1785SOL    MW4 6908   3.277   5.632   0.543  0.6254  0.3120  0.3931
 1786SOL     OW 6909   5.886   3.346   5.653 -0.3929  0.3644  0.1532
 1786SOL    HW2 6910   5.958   3.361   5.714 -1.1705  2.7576  0.6266
 1786SOL    HW3 6911   5.928   3.338   5.567  0.5651 -0.8450  0.7024
 1786SOL    MW4 6912   5.901   3.347   5.650 -0.3991 -0.4476  0.1250
 1787SOL     OW 6913   2.370   1.360   4.373  0.2660  0.1395 -0.1065
 1787SOL    HW2 6914   2.338   1.307   4.301  0.4697  1.0823 -0.9121
 1787SOL    HW3 6915   2.387   1.446   4.334  0.5751  0.6065  1.0168
 1787SOL    MW4 6916   2.368   1.365   4.359 -0.6482  0.5910  0.5139
 1788SOL     OW 6917   2.920   3.013   1.057  1.0030 -0.3661 -0.1037
 1788SOL    HW2 6918   2.934   2.976   1.144 -1.1826 -2.7732 -0.6579
 1788SOL    HW3 6919   2.998   2.989   1.008  1.4378 -0.5859  0.6758
 1788SOL    MW4 6920   2.932   3.005   1.062  0.0745  0.1584  0.1505
 1789SOL     OW 6921   2.878   2.663   2.424  0.1778 -0.3411 -0.4119
 1789SOL    HW2 6922   2.840   2.584   2.385  0.8399 -0.8761  0.0100
 1789SOL    HW3 6923   2.803   2.713   2.455 -0.2152 -1.1341 -0.0640
 1789SOL    MW4 6924   2.863   2.659   2.423 -0.2371  0.0962 -0.2309
 1790SOL     OW 6925   4.693   4.556   3.872 -0.1530  0.0975  0.3668
 1790SOL    HW2 6926   4.647   4.579   3.952 -1.5821 -0.5953 -0.2214
 1790SOL    HW3 6927   4.779   4.526   3.901  0.3249  2.3023  1.4193
 1790SOL    MW4 6928   4.698   4.555   3.886 -0.1260 -0.1519 -0.2433
 1791SOL     OW 6929   4.287   2.412   1.000 -0.0184 -0.0473  0.3879
 1791SOL    HW2 6930   4.231   2.351   0.953 -0.6707  1.8348 -1.4519
 1791SOL    HW3 6931   4.374   2.400   0.961 -0.0597 -0.0848  0.3061
 1791SOL    MW4 6932   4.291   2.403   0.988  0.2585 -0.1799  0.2503
 1792SOL     OW 6933   0.652   3.352   3.131  0.0266 -0.1051  0.6746
 1792SOL    HW2 6934   0.617   3.264   3.144  0.4631 -0.4744 -0.5145
 1792SOL    HW3 6935   0.580   3.401   3.091  0.6750 -0.7658 -1.4326
 1792SOL    MW4 6936   0.638   3.347   3.127  0.1706  0.3206 -0.3783
 1793SOL     OW 6937   4.057   0.093   4.048 -0.1965  0.3232  0.0241
 1793SOL    HW2 6938   4.010   0.037   4.109 -0.9832 -0.2165 -1.0538
 1793SOL    HW3 6939   4.075   0.037   3.972 -1.2562  1.5724 -1.2010
 1793SOL    MW4 6940   4.053   0.078   4.046  0.3055  0.1564  0.0765
 1794SOL     OW 6941   1.032   3.880   1.818 -0.3005  0.0675 -0.0330
 1794SOL    HW2 6942   0.957   3.917   1.865  0.9610  1.4452  1.0027
 1794SOL    HW3 6943   1.072   3.820   1.880  0.6359  0.9325  0.2353
 1794SOL    MW4 6944   1.027   3.877   1.832 -0.2481 -0.3664 -0.1155
 1795SOL     OW 6945   4.210   0.548   2.942 -0.0839  0.5876 -0.0727
 1795SOL    HW2 6946   4.284   0.489   2.929 -0.0264  0.4721  0.7719
 1795SOL    HW3 6947   4.246   0.635   2.923 -0.2830  0.3436 -1.7798
 1795SOL    MW4 6948   4.225   0.552   2.938  0.4482 -0.0655  0.8597
 1796SOL     OW 6949   5.827   2.213   5.026  0.3585 -0.1181 -0.7595
 1796SOL    HW2 6950   5.789   2.142   5.078  0.7074 -0.1313 -0.5160
 1796SOL    HW3 6951   5.795   2.292   5.068 -2.6127 -0.0326 -2.8604
 1796SOL    MW4 6952   5.818   2.214   5.038 -0.0262 -0.6372  0.1686
 1797SOL     OW 6953   5.292   1.445   4.442  0.3187  0.0749 -0.0945
 1797SOL    HW2 6954   5.358   1.452   4.511  1.1065  0.8749 -0.9066
 1797SOL    HW3 6955   5.286   1.352   4.423  0.2271 -0.1317  0.9225
 1797SOL    MW4 6956   5.300   1.434   4.448  0.1295 -0.2498  0.2934
 1798SOL     OW 6957   0.490   0.441   1.470  0.1617 -0.3424  0.1200
 1798SOL    HW2 6958   0.492   0.403   1.558 -0.8315  0.6500  0.6066
 1798SOL    HW3 6959   0.484   0.535   1.485  0.0244 -0.1558 -1.0100
 1798SOL    MW4 6960   0.489   0.448   1.484 -0.5178 -0.7087 -0.1690
 1799SOL     OW 6961   5.866   5.155   2.903  0.2272  0.2517 -0.2462
 1799SOL    HW2 6962   5.904   5.080   2.948 -0.2900  1.1882  1.8424
 1799SOL    HW3 6963   5.817   5.117   2.830 -0.8540 -1.5281  1.3275
 1799SOL    MW4 6964   5.865   5.140   2.899  0.3864 -0.2870 -0.5754
 1800SOL     OW 6965   2.404   2.155   4.883  0.1752  0.4191 -0.2783
 1800SOL    HW2 6966   2.473   2.194   4.830 -1.2574  2.1058 -1.0410
 1800SOL    HW3 6967   2.449   2.095   4.942  2.3338  1.7875 -0.4185
 1800SOL    MW4 6968   2.419   2.152   4.884 -0.7857  0.1197  0.3165
 1801SOL     OW 6969   3.347   5.809   1.374  0.4978 -0.7112 -0.1598
 1801SOL    HW2 6970   3.376   5.841   1.289 -0.6492 -0.2299 -0.3870
 1801SOL    HW3 6971   3.289   5.877   1.407  1.8175 -0.3243  1.5560
 1801SOL    MW4 6972   3.343   5.822   1.367 -0.5848  0.1802 -0.0951
 1802SOL     OW 6973   1.972   3.714   1.862 -0.1486 -0.4881  0.0081
 1802SOL    HW2 6974   2.024   3.764   1.926  2.4942 -1.1721 -1.4357
 1802SOL    HW3 6975   1.952   3.632   1.907 -0.2413 -0.0988  0.6926
 1802SOL    MW4 6976   1.976   3.710   1.877 -0.4591  0.1713 -0.2124
 1803SOL     OW 6977   3.591   0.911   1.348  0.3143  0.1350 -0.2193
 1803SOL    HW2 6978   3.557   0.828   1.314 -0.9192  1.4936 -2.5563
 1803SOL    HW3 6979   3.526   0.938   1.413  0.4677 -0.4734  0.2009
 1803SOL    MW4 6980   3.578   0.903   1.352  0.4587 -0.1485 -0.0982
 1804SOL     OW 6981   3.446   0.080   4.301  0.0319  0.3819 -0.2308
 1804SOL    HW2 6982   3.510   0.137   4.258  0.1102  1.1186  0.8404
 1804SOL    HW3 6983   3.361   0.108   4.266  0.0578  1.2592  0.4036
 1804SOL    MW4 6984   3.443   0.091   4.290  0.2041  0.1623 -0.0389
 1805SOL     OW 6985   0.288   0.166   3.368 -0.5363 -0.2949 -0.6341
 1805SOL    HW2 6986   0.320   0.250   3.337  3.0971 -1.3271 -0.0904
 1805SOL    HW3 6987   0.317   0.103   3.301 -1.4057 -1.3637 -0.0390
 1805SOL    MW4 6988   0.296   0.169   3.355 -0.3466  0.4293  0.2306
 1806SOL     OW 6989   1.132   3.112   5.717 -0.1665 -0.4646 -0.1240
 1806SOL    HW2 6990   1.108   3.038   5.772  0.9734 -0.3017  0.6305
 1806SOL    HW3 6991   1.221   3.094   5.688 -0.0432  0.3811 -0.3222
 1806SOL    MW4 6992   1.140   3.100   5.720  0.3437  0.2850  0.2142
 1807SOL     OW 6993   6.338   3.042   0.828  0.2486  0.5759  0.0664
 1807SOL    HW2 6994   6.264   3.098   0.806  0.4208  0.8560  0.1870
 1807SOL    HW3 6995   6.299   2.958   0.851  0.0845  0.2103 -1.4934
 1807SOL    MW4 6996   6.323   3.039   0.828 -0.0404 -0.0788 -0.1167
 1808SOL     OW 6997   2.901   3.671   6.293  0.7312 -0.0759 -0.2396
 1808SOL    HW2 6998   2.917   3.759   6.261 -0.1617 -0.2233 -1.1368
 1808SOL    HW3 6999   2.984   3.626   6.283  1.0361  0.4967 -0.3242
 1808SOL    MW4 7000   2.914   3.677   6.288 -0.3674  0.8962  0.1550
 1809SOL     OW 7001   0.648   0.112   6.171  0.2127 -0.4165  0.2526
 1809SOL    HW2 7002   0.646   0.104   6.076  1.9129  0.1239  0.1422
 1809SOL    HW3 7003   0.640   0.206   6.187  1.5371 -0.3328  0.5426
 1809SOL    MW4 7004   0.647   0.124   6.161 -0.1904  0.8226 -0.0348
 1810SOL     OW 7005   2.348   0.950   2.869 -0.0846 -0.5129  0.1489
 1810SOL    HW2 7006   2.288   0.879   2.848  0.4925 -0.6160 -1.2006
 1810SOL    HW3 7007   2.431   0.907   2.889 -0.0855 -0.2866  0.6737
 1810SOL    MW4 7008   2.351   0.935   2.869 -0.1239  0.1568 -0.1883
 1811SOL     OW 7009   4.324   5.262   3.965  0.8205 -0.0220 -0.2352
 1811SOL    HW2 7010   4.367   5.201   4.024 -0.0813  1.7373  2.4115
 1811SOL    HW3 7011   4.392   5.325   3.941  0.6874  0.4949  0.7190
 1811SOL    MW4 7012   4.339   5.262   3.969  0.0063 -0.3254 -0.2481
 1812SOL     OW 7013   0.927   6.191   3.205 -0.3291 -0.1786 -0.5562
 1812SOL    HW2 7014   0.876   6.111   3.192  1.6669 -1.8545  1.1218
 1812SOL    HW3 7015   0.967   6.208   3.120 -1.7711 -0.1857 -1.2661
 1812SOL    MW4 7016   0.925   6.183   3.192 -0.2870 -0.6217 -0.5252
 1813SOL     OW 7017   5.622   6.265   2.490 -0.4299  0.2069  0.0865
 1813SOL    HW2 7018   5.553   6.243   2.427  1.8388  1.3807 -3.0966
 1813SOL    HW3 7019   5.666   6.183   2.508 -0.2554  0.0304 -1.0531
 1813SOL    MW4 7020   5.619   6.252   2.484  0.0913  0.5747 -0.2103
 1814SOL     OW 7021   4.906   2.106   1.135 -0.5554 -0.0214 -0.1740
 1814SOL    HW2 7022   4.946   2.188   1.166  0.4599 -0.5543 -0.0390
 1814SOL    HW3 7023   4.834   2.135   1.079 -0.0623  0.9714 -0.3299
 1814SOL    MW4 7024   4.902   2.121   1.132 -0.1081 -0.1369  0.2047
 1815SOL     OW 7025   4.048   0.480   5.389  0.0667 -0.1121  0.5337
 1815SOL    HW2 7026   3.987   0.413   5.421 -1.1404  1.2616  1.2444
 1815SOL    HW3 7027   3.999   0.527   5.322  1.7986 -1.5074 -1.8311
 1815SOL    MW4 7028   4.033   0.477   5.385  0.4662 -0.3204 -0.3894
 1816SOL     OW 7029   2.868   1.566   0.707 -0.4548  0.5644 -0.1003
 1816SOL    HW2 7030   2.923   1.501   0.663  0.2568  0.5244  0.8061
 1816SOL    HW3 7031   2.853   1.529   0.794 -0.4682  1.3668  0.2499
 1816SOL    MW4 7032   2.874   1.552   0.712  0.2309  0.0494 -0.5119
 1817SOL     OW 7033   0.598   2.364   0.528  0.5396 -0.0864 -0.0825
 1817SOL    HW2 7034   0.651   2.329   0.599  0.6198 -0.1204 -0.1578
 1817SOL    HW3 7035   0.556   2.441   0.565  0.3669 -0.2591  0.0833
 1817SOL    MW4 7036   0.600   2.369   0.542 -0.0198 -0.1517  0.0875
 1818SOL     OW 7037   2.627   4.224   0.279 -0.2431  0.5586  0.5294
 1818SOL    HW2 7038   2.592   4.268   0.201 -1.0373  0.3467  0.7577
 1818SOL    HW3 7039   2.705   4.274   0.302 -0.0551  0.6848 -0.3424
 1818SOL    MW4 7040   2.633   4.236   0.272  0.1925 -0.1136 -0.0820
 1819SOL     OW 7041   4.953   4.466   3.806 -0.6460 -0.4632 -0.1977
 1819SOL    HW2 7042   5.034   4.443   3.850 -0.8581 -0.6119  0.1182
 1819SOL    HW3 7043   4.963   4.432   3.717 -0.7033 -1.2213  0.0858
 1819SOL    MW4 7044   4.965   4.459   3.800 -0.0502  0.5863 -0.0145
 1820SOL     OW 7045   5.746   5.952   3.314 -0.0307 -0.5056  0.1068
 1820SOL    HW2 7046   5.740   6.037   3.269  2.1340 -0.7789 -0.8709
 1820SOL    HW3 7047   5.736   5.973   3.407 -0.3999  0.6903 -0.1844
 1820SOL    MW4 7048   5.744   5.966   3.320 -0.9155 -0.2597  0.0235
 1821SOL     OW 7049   2.824   1.637   5.475  0.3001 -0.2259 -0.8449
 1821SOL    HW2 7050   2.917   1.661   5.473  0.0563  0.9635  0.4684
 1821SOL    HW3 7051   2.821   1.560   5.533  0.5414 -0.7796 -1.5447
 1821SOL    MW4 7052   2.836   1.630   5.483 -0.0046  0.3857  0.1168
 1822SOL     OW 7053   0.452   2.900   3.401  0.1398  0.0840 -0.2056
 1822SOL    HW2 7054   0.533   2.850   3.395 -0.3911 -0.8605  0.2808
 1822SOL    HW3 7055   0.473   2.985   3.361  1.8929  0.5190  1.4867
 1822SOL    MW4 7056   0.466   2.905   3.395 -0.6238  0.3664 -0.6146
 1823SOL     OW 7057   3.215   6.308   1.564 -0.2148  0.5326 -0.3319
 1823SOL    HW2 7058   3.311   6.308   1.569 -0.1973  1.3482 -0.5049
 1823SOL    HW3 7059   3.186   6.289   1.653  0.0960 -1.0161 -0.5334
 1823SOL    MW4 7060   3.224   6.305   1.576  0.0720  0.1744  0.0600
 1824SOL     OW 7061   3.207   4.047   4.282 -0.1411 -0.2498 -0.2785
 1824SOL    HW2 7062   3.144   4.100   4.232 -0.7176  0.3354  0.9983
 1824SOL    HW3 7063   3.224   3.971   4.227 -0.4640  0.5382 -1.5091
 1824SOL    MW4 7064   3.201   4.044   4.268 -0.5702  0.0893  0.1729
 1825SOL     OW 7065   1.540   5.363   1.801 -0.3504 -0.1556  0.1811
 1825SOL    HW2 7066   1.519   5.452   1.774  0.1241  0.6435  2.2528
 1825SOL    HW3 7067   1.522   5.309   1.724  1.2647  1.9499 -1.8129
 1825SOL    MW4 7068   1.535   5.367   1.788  0.0768 -0.0264  0.3627
 1826SOL     OW 7069   1.788   4.919   3.272  0.2830  0.3660 -0.4316
 1826SOL    HW2 7070   1.780   4.882   3.184  2.1843  0.5799 -0.7246
 1826SOL    HW3 7071   1.821   4.846   3.325  1.3593  0.8641 -0.4067
 1826SOL    MW4 7072   1.791   4.904   3.268 -0.2474  0.3763 -0.1869
 1827SOL     OW 7073   5.335   1.202   0.521 -0.4626 -0.1989 -0.1546
 1827SOL    HW2 7074   5.430   1.202   0.517 -0.3490  0.3681  1.6662
 1827SOL    HW3 7075   5.309   1.112   0.502  0.4342 -0.4018 -0.4361
 1827SOL    MW4 7076   5.344   1.190   0.518  0.2929  0.5070 -0.1870
 1828SOL     OW 7077   2.505   4.819   1.162 -0.2089  0.2556 -0.1647
 1828SOL    HW2 7078   2.453   4.869   1.225  0.1436  0.2128  0.1706
 1828SOL    HW3 7079   2.504   4.871   1.082  0.2591  0.8748  0.2201
 1828SOL    MW4 7080   2.498   4.832   1.160  0.7452 -0.0518  0.7663
 1829SOL     OW 7081   2.230   5.844   4.647 -0.2027  0.1479 -0.4821
 1829SOL    HW2 7082   2.261   5.784   4.580 -0.5630  0.7434 -1.1939
 1829SOL    HW3 7083   2.251   5.801   4.730  0.6339 -0.3980 -0.9704
 1829SOL    MW4 7084   2.237   5.831   4.649 -0.4417  0.0344 -0.4520
 1830SOL     OW 7085   0.873   1.664   0.707  0.5090 -0.2041  0.2052
 1830SOL    HW2 7086   0.884   1.759   0.706 -0.8141  0.1102 -3.9972
 1830SOL    HW3 7087   0.962   1.629   0.710  1.0859  1.2048  0.1352
 1830SOL    MW4 7088   0.886   1.672   0.707  0.6043  0.1012  0.1771
 1831SOL     OW 7089   0.326   1.401   2.524  0.4553 -0.2244  0.0625
 1831SOL    HW2 7090   0.390   1.387   2.594 -1.1683 -0.6852  1.5127
 1831SOL    HW3 7091   0.242   1.379   2.563 -1.1506  3.8649 -0.6328
 1831SOL    MW4 7092   0.323   1.396   2.538 -0.4072 -0.0210 -0.0889
 1832SOL     OW 7093   5.382   3.124   4.292 -0.0793 -0.4407 -0.0954
 1832SOL    HW2 7094   5.397   3.033   4.318  0.0545 -0.4164 -0.0900
 1832SOL    HW3 7095   5.405   3.127   4.199  1.6376 -0.0061  0.3116
 1832SOL    MW4 7096   5.387   3.112   4.283  0.2825 -0.0133  0.4192
 1833SOL     OW 7097   0.080   6.358   2.606  0.2986  0.7593  0.2534
 1833SOL    HW2 7098   0.122   6.340   2.521 -0.7904 -0.7581 -0.0076
 1833SOL    HW3 7099   0.003   6.410   2.584  0.4989  1.1271  0.4168
 1833SOL    MW4 7100   0.075   6.363   2.592 -0.6178  0.2084 -0.2777
 1834SOL     OW 7101   1.571   0.224   1.874 -0.4482 -0.6548  0.2209
 1834SOL    HW2 7102   1.606   0.211   1.786  0.0322  1.8158 -0.0291
 1834SOL    HW3 7103   1.481   0.252   1.860  0.0573  1.2017  0.3584
 1834SOL    MW4 7104   1.564   0.226   1.860  0.4506  0.1329  0.3318
 1835SOL     OW 7105   1.599   2.033   3.913  0.4248 -0.6792 -0.2365
 1835SOL    HW2 7106   1.530   2.099   3.908  0.0809 -1.0745 -0.7322
 1835SOL    HW3 7107   1.584   1.989   3.997  0.1993 -0.6200 -0.2442
 1835SOL    MW4 7108   1.588   2.036   3.924  0.0303 -0.3852 -0.3998
 1836SOL     OW 7109   1.497   2.176   6.029  0.0609 -0.5424  0.5471
 1836SOL    HW2 7110   1.490   2.181   5.934 -0.6737 -0.9505  0.5766
 1836SOL    HW3 7111   1.489   2.267   6.059 -0.9605 -0.5420  0.2981
 1836SOL    MW4 7112   1.495   2.189   6.020  0.3929 -0.2488 -0.3768
 1837SOL     OW 7113   3.088   6.273   3.994  0.0757  0.2247 -0.5416
 1837SOL    HW2 7114   3.154   6.203   3.991  1.3382  1.3125  0.3002
 1837SOL    HW3 7115   3.102   6.315   4.080 -1.4802  0.7261 -0.5078
 1837SOL    MW4 7116   3.099   6.269   4.005 -0.3095 -0.2222 -0.5024
 1838SOL     OW 7117   4.897   4.930   6.216  0.5616  0.1556 -0.1515
 1838SOL    HW2 7118   4.887   5.014   6.261 -1.1664  0.6018 -1.2657
 1838SOL    HW3 7119   4.845   4.869   6.268  0.8502  0.0287 -0.0072
 1838SOL    MW4 7120   4.889   4.933   6.229 -0.2275 -0.4980  0.2136
 1839SOL     OW 7121   6.295   4.909   1.756 -0.2147  0.1233  0.3054
 1839SOL    HW2 7122   6.325   4.826   1.718  2.6021  1.3505 -0.4105
 1839SOL    HW3 7123   6.216   4.930   1.705 -0.0555 -1.2973 -0.6232
 1839SOL    MW4 7124   6.288   4.901   1.744  0.2324  0.0290  0.0560
 1840SOL     OW 7125   6.073   1.623   5.337 -0.2593 -0.2730  0.1541
 1840SOL    HW2 7126   6.034   1.681   5.271 -4.1932 -1.8048  0.8751
 1840SOL    HW3 7127   6.091   1.680   5.412  2.6644  1.1569 -1.4569
 1840SOL    MW4 7128   6.070   1.638   5.338 -0.4791 -0.5678 -0.0868
 1841SOL     OW 7129   1.534   1.558   4.783 -0.2503 -0.1833  0.4326
 1841SOL    HW2 7130   1.540   1.539   4.689 -1.2855 -3.2791  0.8632
 1841SOL    HW3 7131   1.624   1.570   4.811  0.0545  1.2172 -0.9663
 1841SOL    MW4 7132   1.546   1.557   4.774  0.3193 -0.0393 -0.0100
 1842SOL     OW 7133   6.011   4.377   1.898  0.1238  0.0244  0.8369
 1842SOL    HW2 7134   5.989   4.429   1.820 -0.1450 -0.3125  0.6850
 1842SOL    HW3 7135   5.986   4.433   1.972  2.6749  1.4012  0.7640
 1842SOL    MW4 7136   6.005   4.391   1.897 -0.2978  0.3056 -0.4105
 1843SOL     OW 7137   1.857   0.755   1.796  0.1378  0.1187  0.3049
 1843SOL    HW2 7138   1.885   0.668   1.765 -0.6652 -0.2834  0.6708
 1843SOL    HW3 7139   1.869   0.751   1.891 -1.7689 -0.3220  0.5639
 1843SOL    MW4 7140   1.862   0.743   1.805  0.1982 -0.4001  0.9038
 1844SOL     OW 7141   4.315   2.823   2.683 -0.0493  0.4059 -0.2439
 1844SOL    HW2 7142   4.293   2.743   2.730  3.4648 -0.0151  0.9903
 1844SOL    HW3 7143   4.283   2.894   2.740 -0.7914 -0.1111 -0.0119
 1844SOL    MW4 7144   4.308   2.822   2.697  0.0827 -0.1584  0.2239
 1845SOL     OW 7145   6.038   1.423   1.117 -0.4095 -0.5435 -0.0709
 1845SOL    HW2 7146   6.122   1.437   1.161  0.2962  0.5121 -1.6484
 1845SOL    HW3 7147   6.044   1.333   1.083 -0.3444 -0.8210  0.6575
 1845SOL    MW4 7148   6.050   1.413   1.118 -0.0694 -0.6246 -0.6378
 1846SOL     OW 7149   0.548   5.018   2.275  0.1552  0.3784  0.3778
 1846SOL    HW2 7150   0.622   5.079   2.282  0.9869 -0.1096 -2.7801
 1846SOL    HW3 7151   0.471   5.071   2.296  1.0200  2.0565 -0.4995
 1846SOL    MW4 7152   0.548   5.033   2.279 -0.0639  0.0379 -0.4510
 1847SOL     OW 7153   4.921   6.028   0.484  0.3414  0.3417  0.7639
 1847SOL    HW2 7154   4.916   6.123   0.483 -1.4416  0.3198  2.3312
 1847SOL    HW3 7155   4.833   5.999   0.459  0.7069 -0.8872  0.8286
 1847SOL    MW4 7156   4.909   6.037   0.481 -0.4096  0.4745  0.6298
 1848SOL     OW 7157   3.505   2.844   3.943 -0.2589 -0.0688 -0.4111
 1848SOL    HW2 7158   3.489   2.906   4.014 -0.4855 -2.6332  1.9561
 1848SOL    HW3 7159   3.597   2.820   3.952 -0.7854 -1.9717  0.4670
 1848SOL    MW4 7160   3.515   2.849   3.953 -0.2628 -0.0631  0.4600
 1849SOL     OW 7161   6.325   5.385   3.911 -0.2693  0.1805  0.2972
 1849SOL    HW2 7162   6.394   5.448   3.890  0.3233  0.1297  1.9540
 1849SOL    HW3 7163   6.372   5.308   3.944 -1.0609 -0.4551 -0.0358
 1849SOL    MW4 7164   6.341   5.383   3.913  0.4120 -0.2992  0.2104
 1850SOL     OW 7165   5.222   4.482   4.372  0.0098  0.1989  0.2605
 1850SOL    HW2 7166   5.246   4.535   4.449 -2.7005  0.7455  0.8147
 1850SOL    HW3 7167   5.166   4.538   4.320  1.2896 -0.3981 -1.8669
 1850SOL    MW4 7168   5.218   4.496   4.376 -0.3950 -0.5362 -0.5393
 1851SOL     OW 7169   4.301   5.541   5.151  0.0912 -0.2790  0.1521
 1851SOL    HW2 7170   4.239   5.614   5.155 -0.1422 -0.5169  1.3345
 1851SOL    HW3 7171   4.316   5.527   5.058 -1.3164  0.0531 -0.1520
 1851SOL    MW4 7172   4.295   5.549   5.139 -0.1067 -0.0036  0.0770
 1852SOL     OW 7173   2.730   0.195   1.451 -0.1540 -0.2039 -0.2965
 1852SOL    HW2 7174   2.797   0.243   1.402 -0.2555 -0.1464 -0.3765
 1852SOL    HW3 7175   2.778   0.159   1.526 -0.3182  1.0391  0.4287
 1852SOL    MW4 7176   2.745   0.196   1.455 -0.2929 -0.1131  0.0524
 1853SOL     OW 7177   3.268   4.802   3.317  0.5884  0.2771 -0.4563
 1853SOL    HW2 7178   3.262   4.709   3.338 -1.0380  0.6291  0.8164
 1853SOL    HW3 7179   3.340   4.808   3.254  1.1723 -1.7375 -0.0324
 1853SOL    MW4 7180   3.277   4.791   3.311 -0.3302  0.0879  0.0784
 1854SOL     OW 7181   0.414   5.520   5.280  0.6562  0.4107 -0.4189
 1854SOL    HW2 7182   0.453   5.546   5.364  1.2675  0.9443 -0.8564
 1854SOL    HW3 7183   0.481   5.542   5.215 -0.0600  0.5811 -1.1076
 1854SOL    MW4 7184   0.428   5.527   5.283  0.3386  0.3108 -0.0316
 1855SOL     OW 7185   6.088   3.075   5.773 -0.0315 -0.3036  0.1095
 1855SOL    HW2 7186   6.022   3.128   5.818 -0.5494  0.1409 -1.1061
 1855SOL    HW3 7187   6.147   3.045   5.842 -0.9497  0.1070  1.0966
 1855SOL    MW4 7188   6.087   3.078   5.788  0.6172 -0.4731 -0.5919
 1856SOL     OW 7189   5.696   4.377   1.709 -1.0820  0.1520  0.6939
 1856SOL    HW2 7190   5.720   4.458   1.752 -1.0538 -0.1689  1.2919
 1856SOL    HW3 7191   5.657   4.404   1.626 -1.3467  0.7832  1.0221
 1856SOL    MW4 7192   5.694   4.391   1.704 -0.3255  0.1668  0.2420
 1857SOL     OW 7193   4.157   3.114   6.220 -0.5087  0.4360 -0.5310
 1857SOL    HW2 7194   4.171   3.139   6.311 -2.0459  1.6067 -0.5791
 1857SOL    HW3 7195   4.201   3.182   6.169  0.4078 -0.2531 -0.6961
 1857SOL    MW4 7196   4.165   3.126   6.225  0.1072 -0.3012  0.1306
 1858SOL     OW 7197   1.474   4.016   1.762 -0.2606 -0.3356 -0.2425
 1858SOL    HW2 7198   1.489   3.928   1.797  0.4288 -1.3688 -2.8831
 1858SOL    HW3 7199   1.532   4.073   1.812 -0.1495 -1.4983  0.9948
 1858SOL    MW4 7200   1.484   4.012   1.773 -0.1688  0.3645  0.6340
 1859SOL     OW 7201   1.683   5.688   3.012 -0.1284 -0.1190 -0.1553
 1859SOL    HW2 7202   1.607   5.715   2.960 -0.9575  0.7513  1.4476
 1859SOL    HW3 7203   1.748   5.756   2.996 -0.2425 -0.0478 -0.3207
 1859SOL    MW4 7204   1.682   5.701   3.003  0.0589  0.4029 -0.6760
 1860SOL     OW 7205   5.650   2.143   1.205  0.7067 -0.4800 -0.0753
 1860SOL    HW2 7206   5.662   2.123   1.112 -0.9278 -2.9092  0.1295
 1860SOL    HW3 7207   5.711   2.214   1.223  3.2712 -1.9333 -2.3131
 1860SOL    MW4 7208   5.659   2.150   1.195 -0.2836  1.0559  0.0332
 1861SOL     OW 7209   1.623   5.679   5.510 -0.2350 -0.0672  0.1217
 1861SOL    HW2 7210   1.531   5.675   5.537 -0.7530 -2.1527 -1.6636
 1861SOL    HW3 7211   1.653   5.588   5.514  1.6641  0.5174  0.2783
 1861SOL    MW4 7212   1.615   5.666   5.514  0.3305  0.2212  0.2570
 1862SOL     OW 7213   2.557   3.098   3.276 -0.4930 -0.7367  0.4148
 1862SOL    HW2 7214   2.575   3.030   3.212 -1.2145 -1.2394  0.7394
 1862SOL    HW3 7215   2.463   3.092   3.293 -0.8133  1.0750 -0.3893
 1862SOL    MW4 7216   2.547   3.088   3.270  0.2675  0.1628 -0.2454
 1863SOL     OW 7217   3.264   5.624   1.588  0.1343  0.1675  0.5964
 1863SOL    HW2 7218   3.293   5.539   1.556  0.5341  0.9189 -1.1223
 1863SOL    HW3 7219   3.259   5.679   1.510 -1.6147  1.3093  1.4402
 1863SOL    MW4 7220   3.267   5.620   1.574 -0.2431 -0.0917 -0.0993
 1864SOL     OW 7221   3.305   1.593   3.067 -0.2532 -0.0694  0.6702
 1864SOL    HW2 7222   3.259   1.607   2.984 -0.6538 -2.2144  0.4910
 1864SOL    HW3 7223   3.237   1.568   3.129 -0.0445  2.0410  1.8737
 1864SOL    MW4 7224   3.290   1.592   3.064  0.2856 -0.1233 -0.0611
 1865SOL     OW 7225   6.301   4.306   3.811  0.0011 -0.2226 -0.2463
 1865SOL    HW2 7226   6.390   4.339   3.820 -0.0662 -0.3331  1.1385
 1865SOL    HW3 7227   6.298   4.266   3.724  0.5692  1.9094 -1.2917
 1865SOL    MW4 7228   6.312   4.305   3.801  0.4226  0.2055 -0.1178
 1866SOL     OW 7229   6.395   5.300   3.192  0.0570 -0.1194 -0.1481
 1866SOL    HW2 7230   6.307   5.298   3.231  0.9755 -1.0426  2.0719
 1866SOL    HW3 7231   6.423   5.391   3.202  0.5963 -0.4808  2.3380
 1866SOL    MW4 7232   6.387   5.312   3.199  0.3361 -0.6332 -0.1176
 1867SOL     OW 7233   4.111   5.439   3.645  0.4813  0.4707  0.4210
 1867SOL    HW2 7234   4.046   5.461   3.711 -1.2890 -0.2228 -1.0059
 1867SOL    HW3 7235   4.148   5.356   3.676 -0.3987  0.1000  0.5157
 1867SOL    MW4 7236   4.107   5.431   3.658  0.4372 -0.3348  0.2844
 1868SOL     OW 7237   5.066   4.838   3.990 -0.5387 -0.1176  0.0632
 1868SOL    HW2 7238   5.120   4.911   3.961  0.3563 -0.7444  0.1121
 1868SOL    HW3 7239   5.043   4.791   3.910 -1.0301  0.1559  0.0412
 1868SOL    MW4 7240   5.070   4.841   3.976  0.6169 -0.5191  0.0736
 1869SOL     OW 7241   2.936   4.593   3.204 -0.0206  0.1896  0.5012
 1869SOL    HW2 7242   2.970   4.682   3.210  2.3420 -0.7143  3.3171
 1869SOL    HW3 7243   2.974   4.557   3.124 -3.1688  2.3308 -2.2149
 1869SOL    MW4 7244   2.946   4.600   3.195  0.4449 -0.5166  0.8371
 1870SOL     OW 7245   5.086   5.727   3.088  0.1314  0.0553  0.2724
 1870SOL    HW2 7246   4.992   5.727   3.071  0.3693 -1.5152 -1.3376
 1870SOL    HW3 7247   5.101   5.649   3.142  0.3656  1.0890  1.7714
 1870SOL    MW4 7248   5.075   5.717   3.093 -0.1809 -0.2361  0.8124
 1871SOL     OW 7249   3.658   3.960   4.236  0.0200 -0.2004 -0.0695
 1871SOL    HW2 7250   3.685   4.022   4.303 -1.4396  2.0647 -1.4329
 1871SOL    HW3 7251   3.588   3.908   4.277 -1.5020  1.7785 -0.0241
 1871SOL    MW4 7252   3.652   3.961   4.250 -0.1141  0.0417  0.1526
 1872SOL     OW 7253   2.165   1.969   5.626 -0.1973  0.1102  0.1970
 1872SOL    HW2 7254   2.222   2.006   5.558  0.9836 -0.0725  1.0574
 1872SOL    HW3 7255   2.099   1.919   5.578  2.1782 -2.3151 -0.8145
 1872SOL    MW4 7256   2.164   1.967   5.611 -0.3002  0.1117 -0.0208
 1873SOL     OW 7257   4.371   1.599   2.962  0.3936 -0.3059 -0.3639
 1873SOL    HW2 7258   4.358   1.508   2.937 -0.9458 -0.5462  1.0207
 1873SOL    HW3 7259   4.457   1.601   3.004  1.1856 -0.5502 -1.8983
 1873SOL    MW4 7260   4.380   1.587   2.964  0.1276  0.2668  0.2794
 1874SOL     OW 7261   6.059   4.792   6.065 -0.4498 -0.6188 -0.2607
 1874SOL    HW2 7262   6.076   4.834   5.981 -0.5613  1.5079  0.7111
 1874SOL    HW3 7263   6.116   4.838   6.127 -1.0541 -1.4929  0.9968
 1874SOL    MW4 7264   6.069   4.804   6.062  0.2092 -0.0748  0.8566
 1875SOL     OW 7265   4.036   0.194   3.527 -0.3637 -0.1865  0.3921
 1875SOL    HW2 7266   4.088   0.213   3.605 -0.8672 -1.4215  1.0656
 1875SOL    HW3 7267   3.983   0.118   3.552  1.5193 -2.4985 -2.0655
 1875SOL    MW4 7268   4.036   0.186   3.541 -0.4152 -0.6324  0.2738
 1876SOL     OW 7269   1.623   4.100   0.516  0.2022 -0.6068 -0.2637
 1876SOL    HW2 7270   1.556   4.150   0.470  1.8599 -0.4390 -2.6382
 1876SOL    HW3 7271   1.660   4.161   0.580 -0.1216  0.1167 -0.7572
 1876SOL    MW4 7272   1.619   4.114   0.519 -0.5344 -0.2501 -0.7240
 1877SOL     OW 7273   2.942   3.676   5.528 -0.1975 -0.4652  0.6044
 1877SOL    HW2 7274   2.947   3.586   5.559 -0.9506 -0.9213 -0.5262
 1877SOL    HW3 7275   3.007   3.681   5.458 -0.3225 -0.2049  0.5033
 1877SOL    MW4 7276   2.951   3.665   5.523 -0.3178 -0.1292  0.0718
 1878SOL     OW 7277   5.657   3.152   3.422  0.2122 -0.5598  0.0270
 1878SOL    HW2 7278   5.696   3.176   3.338 -0.1389 -1.4380 -0.4081
 1878SOL    HW3 7279   5.570   3.120   3.399 -0.2596  0.1276  0.8400
 1878SOL    MW4 7280   5.651   3.151   3.408 -0.4382 -0.4393  0.5029
 1879SOL     OW 7281   2.225   2.570   4.671  0.9164  0.4842  0.5301
 1879SOL    HW2 7282   2.166   2.629   4.624  1.1555 -0.3144 -0.8262
 1879SOL    HW3 7283   2.180   2.552   4.754 -1.0325 -0.5428 -0.6850
 1879SOL    MW4 7284   2.211   2.576   4.676 -0.3968 -1.3707 -0.7615
 1880SOL     OW 7285   5.787   0.612   5.880 -0.3604 -0.0139  0.2859
 1880SOL    HW2 7286   5.831   0.624   5.796  0.5820 -1.1251  0.6086
 1880SOL    HW3 7287   5.694   0.611   5.857 -0.2153  1.3706 -0.5194
 1880SOL    MW4 7288   5.780   0.614   5.866  0.3025 -0.1323 -0.0475
 1881SOL     OW 7289   4.495   0.249   3.113 -0.3653  0.3621 -0.3536
 1881SOL    HW2 7290   4.404   0.229   3.092 -0.9020  1.0016  1.2666
 1881SOL    HW3 7291   4.496   0.263   3.207  2.0153 -2.8152  0.2777
 1881SOL    MW4 7292   4.484   0.248   3.123  0.7279  0.1045 -0.5649
 1882SOL     OW 7293   2.235   2.613   2.758  0.6881 -0.3220 -0.2270
 1882SOL    HW2 7294   2.246   2.535   2.813  0.4727 -0.2804 -0.1220
 1882SOL    HW3 7295   2.156   2.655   2.793 -0.1956 -0.9724 -1.3888
 1882SOL    MW4 7296   2.226   2.608   2.770  0.3964 -0.1030 -0.1090
 1883SOL     OW 7297   0.330   5.281   6.094 -0.1691 -0.0996 -0.0604
 1883SOL    HW2 7298   0.269   5.254   6.163 -0.5750  0.0272 -0.3612
 1883SOL    HW3 7299   0.357   5.369   6.118  0.8635 -0.6114  0.7251
 1883SOL    MW4 7300   0.325   5.289   6.106  0.9034 -0.1089  0.4684
 1884SOL     OW 7301   3.637   3.599   0.171  0.2580  0.3651 -0.6055
 1884SOL    HW2 7302   3.639   3.649   0.090  2.4061 -1.1453 -1.5821
 1884SOL    HW3 7303   3.697   3.646   0.230 -1.3294  1.4829  0.1816
 1884SOL    MW4 7304   3.645   3.612   0.168 -0.0619 -0.4658 -0.4060
 1885SOL     OW 7305   4.746   1.256   1.244 -0.0624 -0.1089  0.4432
 1885SOL    HW2 7306   4.804   1.259   1.168  1.4235 -1.5466  1.4355
 1885SOL    HW3 7307   4.798   1.211   1.311 -2.0528 -0.7230  1.6466
 1885SOL    MW4 7308   4.761   1.250   1.243 -0.4177  0.0435 -0.0071
 1886SOL     OW 7309   3.976   1.742   3.789  0.2834 -0.7187 -0.5834
 1886SOL    HW2 7310   3.923   1.664   3.771 -0.2432 -1.1759  2.4582
 1886SOL    HW3 7311   3.912   1.810   3.811  0.8620 -0.3351 -0.0619
 1886SOL    MW4 7312   3.961   1.741   3.789  0.9403  0.2427 -0.7559
 1887SOL     OW 7313   5.287   3.662   5.329  0.0252  1.3380 -0.0990
 1887SOL    HW2 7314   5.264   3.752   5.352  1.3372  1.3669  1.2745
 1887SOL    HW3 7315   5.331   3.669   5.245  0.9618  2.1327  0.4349
 1887SOL    MW4 7316   5.290   3.675   5.321 -0.4376  0.0172  0.2398
 1888SOL     OW 7317   0.110   5.058   2.396  0.0464 -0.3116 -0.0077
 1888SOL    HW2 7318   0.194   5.101   2.379  1.2055 -2.7991 -1.1799
 1888SOL    HW3 7319   0.059   5.072   2.317 -0.3095  0.4314  0.3454
 1888SOL    MW4 7320   0.114   5.065   2.383 -0.0419 -0.6579  0.8621
 1889SOL     OW 7321   4.030   3.006   4.216  0.6861  0.4984  0.0429
 1889SOL    HW2 7322   4.031   3.102   4.206  0.6459  0.4982  0.0400
 1889SOL    HW3 7323   4.101   2.976   4.159 -0.0969  0.4252 -0.9058
 1889SOL    MW4 7324   4.040   3.015   4.207  0.5950  0.0622 -1.1541
 1890SOL     OW 7325   0.276   1.945   5.231 -0.0210 -0.1720  0.1521
 1890SOL    HW2 7326   0.225   2.017   5.194  0.4531  0.6762  1.1055
 1890SOL    HW3 7327   0.289   1.968   5.323  2.0526 -0.3541 -0.0371
 1890SOL    MW4 7328   0.271   1.957   5.238 -0.4992 -0.0434 -0.0547
 1891SOL     OW 7329   2.613   0.934   4.756 -0.1108 -0.1020 -0.5895
 1891SOL    HW2 7330   2.549   0.991   4.800 -0.3731 -0.5827 -0.3393
 1891SOL    HW3 7331   2.559   0.877   4.701  0.2254  0.6301 -1.7145
 1891SOL    MW4 7332   2.597   0.934   4.754 -0.0196 -0.7388  0.0549
 1892SOL     OW 7333   0.254   1.444   3.414  0.2027 -0.0401  0.0334
 1892SOL    HW2 7334   0.269   1.350   3.405 -2.0946 -0.5646  0.7917
 1892SOL    HW3 7335   0.241   1.457   3.508 -3.1000  0.3018 -0.3541
 1892SOL    MW4 7336   0.254   1.433   3.425  0.9353  0.1690 -0.0877
 1893SOL     OW 7337   2.923   2.693   3.607 -0.1915 -0.1895  0.1822
 1893SOL    HW2 7338   2.952   2.602   3.613 -0.2246 -0.1756  0.5240
 1893SOL    HW3 7339   2.994   2.737   3.561 -0.1323 -0.3676  0.1014
 1893SOL    MW4 7340   2.936   2.686   3.601  0.2273 -0.3338  0.1649
 1894SOL     OW 7341   0.594   5.397   4.500 -0.1198 -0.0759  0.0119
 1894SOL    HW2 7342   0.549   5.473   4.538 -0.2333 -0.7739  1.2913
 1894SOL    HW3 7343   0.648   5.435   4.430 -0.7108  1.0942  0.1524
 1894SOL    MW4 7344   0.595   5.412   4.496  0.2099  0.5911  0.4525
 1895SOL     OW 7345   4.536   0.674   1.137  0.1743  0.2027 -0.9187
 1895SOL    HW2 7346   4.500   0.619   1.206 -0.4820 -0.2148 -1.5867
 1895SOL    HW3 7347   4.623   0.637   1.120  1.2084  1.5314  1.0556
 1895SOL    MW4 7348   4.543   0.662   1.144  0.4844  0.2129  0.2190
 1896SOL     OW 7349   5.906   3.921   3.430 -0.2763  0.3011 -0.3558
 1896SOL    HW2 7350   5.996   3.923   3.462 -0.0554  3.3921 -0.8479
 1896SOL    HW3 7351   5.854   3.894   3.506  0.8792  0.5224  0.5438
 1896SOL    MW4 7352   5.911   3.918   3.444 -0.7689  0.4662 -0.9447
 1897SOL     OW 7353   3.685   0.412   5.687 -0.0637  0.7910 -0.1743
 1897SOL    HW2 7354   3.678   0.379   5.776  0.4303 -0.2080 -0.4970
 1897SOL    HW3 7355   3.698   0.507   5.698 -1.7069  0.9489  0.7513
 1897SOL    MW4 7356   3.686   0.420   5.700 -0.2399  0.0140  0.4158
 1898SOL     OW 7357   2.256   3.114   5.607 -0.4779 -0.1948 -0.1913
 1898SOL    HW2 7358   2.343   3.095   5.643 -1.2790 -1.3879  1.2372
 1898SOL    HW3 7359   2.269   3.112   5.513  1.5105  2.0691 -0.0772
 1898SOL    MW4 7360   2.269   3.111   5.600 -0.1556 -0.5495  0.6615
 1899SOL     OW 7361   5.152   1.225   2.686  0.2048 -0.2402  0.6033
 1899SOL    HW2 7362   5.227   1.166   2.689  0.7404  0.4360  0.6627
 1899SOL    HW3 7363   5.190   1.311   2.671 -0.5860  0.0604  0.2892
 1899SOL    MW4 7364   5.167   1.228   2.684  0.0410  0.2104 -0.2189
 1900SOL     OW 7365   3.013   1.474   5.974  0.0727 -0.4505  0.4687
 1900SOL    HW2 7366   2.992   1.548   5.916 -0.9728 -2.3105 -1.6962
 1900SOL    HW3 7367   3.083   1.427   5.928  0.8414 -0.7553  1.8910
 1900SOL    MW4 7368   3.019   1.478   5.960  0.0552  0.0757  0.4264
 1901SOL     OW 7369   6.344   2.030   0.726 -0.0343 -0.0824 -0.2571
 1901SOL    HW2 7370   6.352   2.058   0.817 -0.9380 -0.3244 -0.0949
 1901SOL    HW3 7371   6.273   1.966   0.726  2.2579 -2.8038 -0.5359
 1901SOL    MW4 7372   6.336   2.025   0.738 -0.3647  0.2145 -0.0122
 1902SOL     OW 7373   4.986   5.939   1.945 -0.1118 -0.0899 -0.8547
 1902SOL    HW2 7374   5.029   5.981   2.019 -1.1843  0.2827 -0.4235
 1902SOL    HW3 7375   4.975   6.008   1.880 -2.4404  0.5473  0.0984
 1902SOL    MW4 7376   4.990   5.954   1.947  0.0186 -0.3630 -0.1495
 1903SOL     OW 7377   2.956   1.028   3.487  0.2335  0.3360 -0.3602
 1903SOL    HW2 7378   3.006   1.076   3.553  1.9935 -1.6625 -0.1531
 1903SOL    HW3 7379   2.964   0.936   3.513 -0.6992 -0.3271 -2.2602
 1903SOL    MW4 7380   2.964   1.022   3.499  0.2562 -0.1187  0.1658
 1904SOL     OW 7381   2.826   4.978   2.081  0.1757 -0.0572 -0.3729
 1904SOL    HW2 7382   2.839   5.071   2.063  1.5244 -0.1470  0.0224
 1904SOL    HW3 7383   2.897   4.935   2.033  0.8669 -0.6908  1.1567
 1904SOL    MW4 7384   2.837   4.985   2.072  0.3318 -0.0980 -0.4223
 1905SOL     OW 7385   5.587   3.530   4.831 -0.1284  0.0475  0.2866
 1905SOL    HW2 7386   5.536   3.602   4.795  0.8493  0.4477 -0.3606
 1905SOL    HW3 7387   5.664   3.524   4.774 -0.8406 -2.4478 -0.5452
 1905SOL    MW4 7388   5.591   3.539   4.819  0.1670 -0.0571 -0.5152
 1906SOL     OW 7389   5.180   4.107   0.208  0.3072  0.2039 -0.0035
 1906SOL    HW2 7390   5.085   4.099   0.209  0.2537  0.8195  0.3152
 1906SOL    HW3 7391   5.211   4.021   0.238 -0.1554  0.1590  0.3625
 1906SOL    MW4 7392   5.171   4.094   0.212 -0.4087 -0.1558  0.0031
 1907SOL     OW 7393   2.007   0.578   5.881  0.7048 -0.0051 -0.7065
 1907SOL    HW2 7394   2.082   0.600   5.825  1.3146  0.4092  0.2607
 1907SOL    HW3 7395   2.040   0.584   5.970 -0.2926 -0.5486 -0.2800
 1907SOL    MW4 7396   2.021   0.581   5.885 -0.5849  0.4066  0.0637
 1908SOL     OW 7397   0.266   4.282   5.720  0.0768  0.1291 -0.0260
 1908SOL    HW2 7398   0.265   4.191   5.747  0.1887  0.4687  1.1815
 1908SOL    HW3 7399   0.232   4.330   5.795 -2.9887  0.8504 -1.6639
 1908SOL    MW4 7400   0.261   4.277   5.733 -0.1332  0.2910  0.7961
 1909SOL     OW 7401   1.284   2.985   1.167  0.2827  0.1601 -0.2935
 1909SOL    HW2 7402   1.372   3.024   1.165  0.1972  0.3445 -1.4473
 1909SOL    HW3 7403   1.230   3.048   1.214 -0.0898  2.0668 -3.0199
 1909SOL    MW4 7404   1.289   2.999   1.173 -0.0380 -0.7647 -0.6881
 1910SOL     OW 7405   3.965   4.607   0.992 -0.6531 -0.0445 -0.3987
 1910SOL    HW2 7406   3.918   4.664   1.052 -0.4467 -1.2189  0.9397
 1910SOL    HW3 7407   4.048   4.587   1.036 -0.0740 -0.1903 -1.5016
 1910SOL    MW4 7408   3.970   4.612   1.006  1.0211  0.0791  0.2089
 1911SOL     OW 7409   4.728   0.567   2.660 -0.7703  0.1702  0.1086
 1911SOL    HW2 7410   4.811   0.543   2.700 -0.6480  1.0729  0.4130
 1911SOL    HW3 7411   4.750   0.629   2.591 -1.1475  0.0227 -0.1513
 1911SOL    MW4 7412   4.742   0.572   2.656  0.8065 -0.3762 -0.3994
 1912SOL     OW 7413   5.845   1.418   1.314 -0.4283  0.1825  0.4633
 1912SOL    HW2 7414   5.900   1.412   1.392 -0.3777 -1.1082  0.3541
 1912SOL    HW3 7415   5.906   1.426   1.241 -0.4837  1.7423  0.5606
 1912SOL    MW4 7416   5.860   1.418   1.314  0.6888  0.2833 -0.1126
 1913SOL     OW 7417   1.081   5.486   4.583 -0.0918  0.5201 -0.6154
 1913SOL    HW2 7418   1.088   5.501   4.489 -2.3839 -0.7798 -1.0567
 1913SOL    HW3 7419   1.157   5.433   4.605 -0.5533 -0.8472 -2.1433
 1913SOL    MW4 7420   1.092   5.481   4.574 -0.2961  0.8380  0.3572
 1914SOL     OW 7421   1.948   4.650   0.693 -0.2998 -0.6251 -0.4293
 1914SOL    HW2 7422   2.016   4.666   0.628 -0.6022 -0.4135 -0.6982
 1914SOL    HW3 7423   1.866   4.656   0.644 -0.6957  2.0727  0.3934
 1914SOL    MW4 7424   1.946   4.653   0.678 -0.2221  0.3555  0.2214
 1915SOL     OW 7425   3.439   3.868   0.438  0.2331  0.5690 -0.6450
 1915SOL    HW2 7426   3.430   3.779   0.474  1.9918  0.0528 -1.3995
 1915SOL    HW3 7427   3.386   3.866   0.358 -0.0574  0.3312 -0.4530
 1915SOL    MW4 7428   3.431   3.856   0.432  0.1652  0.6133 -0.3216
 1916SOL     OW 7429   2.567   6.223   3.100 -0.6044  0.0468 -0.4924
 1916SOL    HW2 7430   2.623   6.289   3.140  0.5685 -0.5444 -1.0997
 1916SOL    HW3 7431   2.626   6.151   3.079 -1.2054  0.1593 -2.9040
 1916SOL    MW4 7432   2.582   6.222   3.103 -0.0060 -0.5906  0.1303
 1917SOL     OW 7433   3.438   2.232   6.341  0.3324  0.3344 -0.0551
 1917SOL    HW2 7434   3.466   2.141   6.346  0.6560  0.4048 -0.4988
 1917SOL    HW3 7435   3.475   2.264   6.258 -2.0164  0.1096 -1.2923
 1917SOL    MW4 7436   3.447   2.225   6.330  0.0913  0.8205 -0.4384
 1918SOL     OW 7437   3.033   0.929   5.827 -0.0426 -0.0529  0.2154
 1918SOL    HW2 7438   2.946   0.911   5.792 -0.4079  0.1031  0.9998
 1918SOL    HW3 7439   3.016   0.980   5.906  0.8183  0.9492 -0.2281
 1918SOL    MW4 7440   3.020   0.933   5.833 -0.4608 -0.3357  0.3025
 1919SOL     OW 7441   5.489   6.133   4.270 -0.0219  0.4395  0.6904
 1919SOL    HW2 7442   5.458   6.124   4.360 -1.1267  1.9696  0.4942
 1919SOL    HW3 7443   5.513   6.225   4.262 -0.6094  0.4865 -0.7813
 1919SOL    MW4 7444   5.488   6.144   4.281 -0.0974 -0.5921 -0.3930
 1920SOL     OW 7445   5.751   3.761   3.612  0.0561  0.0384  0.0267
 1920SOL    HW2 7446   5.694   3.781   3.686 -1.0410  2.0287 -1.2652
 1920SOL    HW3 7447   5.691   3.738   3.541  0.7329  2.4771 -1.4650
 1920SOL    MW4 7448   5.736   3.760   3.613  0.2362  0.2031  0.2535
 1921SOL     OW 7449   6.215   6.000   4.480  0.1465 -0.3114 -0.3325
 1921SOL    HW2 7450   6.162   5.921   4.467 -0.6307  0.0568  0.5009
 1921SOL    HW3 7451   6.259   5.986   4.564  0.4845 -0.1158 -0.4724
 1921SOL    MW4 7452   6.214   5.988   4.490  0.1009 -0.7261  0.4810
 1922SOL     OW 7453   4.693   3.776   2.226 -0.3915 -0.2340 -0.1027
 1922SOL    HW2 7454   4.682   3.706   2.291 -2.0429 -0.8980 -1.0551
 1922SOL    HW3 7455   4.743   3.736   2.155 -0.6599 -0.2039 -0.3069
 1922SOL    MW4 7456   4.698   3.762   2.226 -0.3500 -0.7447 -0.5821
 1923SOL     OW 7457   3.855   5.509   1.919  0.0810 -0.1303  0.2237
 1923SOL    HW2 7458   3.893   5.423   1.901 -0.4049 -0.4573  0.7252
 1923SOL    HW3 7459   3.881   5.563   1.844  1.6027 -0.3113  0.5831
 1923SOL    MW4 7460   3.863   5.505   1.907 -1.1474 -0.1199 -0.3954
 1924SOL     OW 7461   4.135   5.935   1.957  0.5387 -0.0055 -0.2477
 1924SOL    HW2 7462   4.136   5.882   1.877  0.8542 -0.0230 -0.2339
 1924SOL    HW3 7463   4.109   6.022   1.927 -1.4925 -0.4957 -0.0551
 1924SOL    MW4 7464   4.132   5.939   1.943 -0.1084 -0.0164  0.5694
 1925SOL     OW 7465   5.547   2.638   0.507  0.1459  0.2370 -0.2509
 1925SOL    HW2 7466   5.629   2.679   0.537  0.9453 -0.7582 -0.9950
 1925SOL    HW3 7467   5.571   2.596   0.424 -1.1260 -0.0908 -0.4616
 1925SOL    MW4 7468   5.561   2.638   0.500  0.2067 -0.5380 -0.0487
 1926SOL     OW 7469   5.007   6.348   0.523 -0.3469 -0.2348  0.2424
 1926SOL    HW2 7470   5.089   6.298   0.530  0.1862  0.4755 -0.7555
 1926SOL    HW3 7471   5.020   6.406   0.449 -1.9967 -0.5351 -0.3420
 1926SOL    MW4 7472   5.019   6.349   0.514  0.0036  0.1536 -0.0578
 1927SOL     OW 7473   4.198   1.037   0.038 -0.5691 -0.0651 -0.5538
 1927SOL    HW2 7474   4.206   0.959   0.093  0.8663 -0.5889 -1.4697
 1927SOL    HW3 7475   4.210   1.110   0.099  1.2381 -0.6420 -0.1636
 1927SOL    MW4 7476   4.200   1.037   0.054  0.1289 -0.0576  0.0272
 1928SOL     OW 7477   6.217   1.213   4.774 -0.1927  0.5918  0.1094
 1928SOL    HW2 7478   6.248   1.192   4.862  1.6475  2.8168  0.0853
 1928SOL    HW3 7479   6.293   1.199   4.718 -0.8429  0.8650 -0.8735
 1928SOL    MW4 7480   6.231   1.208   4.778  0.1181 -0.2984  0.7655
 1929SOL     OW 7481   2.173   0.619   1.462 -0.0786 -0.4108  0.4464
 1929SOL    HW2 7482   2.178   0.614   1.366 -0.2570 -0.2258  0.4271
 1929SOL    HW3 7483   2.245   0.564   1.492  1.3426  1.2062  0.1861
 1929SOL    MW4 7484   2.183   0.611   1.453  0.3047 -0.6482 -0.5709
 1930SOL     OW 7485   0.754   0.005   3.201 -0.7236  0.1016 -0.3916
 1930SOL    HW2 7486   0.846  -0.016   3.222 -1.0740 -1.8568 -0.5907
 1930SOL    HW3 7487   0.728   0.067   3.268 -0.1046 -1.6222  1.5680
 1930SOL    MW4 7488   0.763   0.010   3.212  0.4151  0.2998 -1.0098
 1931SOL     OW 7489   1.709   2.641   3.233  0.0736 -0.2272 -0.3350
 1931SOL    HW2 7490   1.743   2.730   3.237 -1.3889  0.3239  1.1167
 1931SOL    HW3 7491   1.781   2.586   3.262  1.4443  0.2966 -2.5683
 1931SOL    MW4 7492   1.723   2.645   3.237  0.2965 -0.1885 -0.2487
 1932SOL     OW 7493   4.685   5.735   4.741 -0.0557 -0.0925 -0.5196
 1932SOL    HW2 7494   4.627   5.707   4.670 -0.0933 -0.4967 -0.3313
 1932SOL    HW3 7495   4.773   5.716   4.710 -0.0796 -0.3966 -0.4035
 1932SOL    MW4 7496   4.689   5.729   4.728 -0.3786  0.1565 -0.8521
 1933SOL     OW 7497   5.648   2.995   2.643 -0.2801  0.2966  0.1226
 1933SOL    HW2 7498   5.645   3.028   2.554  3.5114  0.7086  0.0119
 1933SOL    HW3 7499   5.635   3.072   2.698  0.4095  0.5622 -0.0885
 1933SOL    MW4 7500   5.646   3.009   2.639  0.4456  0.1537  0.3617
 1934SOL     OW 7501   6.282   2.527   2.205 -0.5832 -0.5452  0.3227
 1934SOL    HW2 7502   6.332   2.516   2.286 -2.1006  0.7578  1.5013
 1934SOL    HW3 7503   6.344   2.503   2.136  1.5484  0.6134  1.6985
 1934SOL    MW4 7504   6.297   2.523   2.207  0.3399  0.0699 -0.1869
 1935SOL     OW 7505   1.865   1.888   0.281 -0.0834 -0.0170 -0.6880
 1935SOL    HW2 7506   1.819   1.943   0.345  0.5444 -0.5300  0.2224
 1935SOL    HW3 7507   1.798   1.826   0.251 -0.2412 -0.1326 -0.1078
 1935SOL    MW4 7508   1.850   1.887   0.285  0.0919 -0.2388  0.6353
 1936SOL     OW 7509   2.673   3.285   3.449 -0.0002 -0.1314  0.5027
 1936SOL    HW2 7510   2.653   3.376   3.426 -0.8557 -0.0794  1.3717
 1936SOL    HW3 7511   2.628   3.233   3.383  1.9269  0.0674 -1.0514
 1936SOL    MW4 7512   2.664   3.290   3.437 -0.5793  0.7052  0.5647
 1937SOL     OW 7513   1.662   3.548   0.915  0.0982  0.6284  0.4765
 1937SOL    HW2 7514   1.646   3.618   0.979  0.3740 -1.6502  3.2622
 1937SOL    HW3 7515   1.744   3.508   0.944  0.0109 -0.7778 -1.0860
 1937SOL    MW4 7516   1.671   3.552   0.928 -0.2350 -0.1578  0.2441
 1938SOL     OW 7517   1.682   4.515   4.774  0.3629 -0.0370  0.3583
 1938SOL    HW2 7518   1.738   4.542   4.701 -0.0945  0.7475  0.2908
 1938SOL    HW3 7519   1.737   4.458   4.827  1.4244  1.1766  0.6052
 1938SOL    MW4 7520   1.696   4.511   4.771  0.4273 -0.8933  0.1352
 1939SOL     OW 7521   3.430   0.577   5.041 -0.4013 -0.1600  0.0031
 1939SOL    HW2 7522   3.430   0.492   5.086  0.0716 -0.4289 -0.4900
 1939SOL    HW3 7523   3.391   0.559   4.956  0.7524 -0.1362 -0.5482
 1939SOL    MW4 7524   3.425   0.563   5.036  0.0170 -0.6312  0.4308
 1940SOL     OW 7525   3.745   2.715   3.918  0.1949 -0.1447  0.1633
 1940SOL    HW2 7526   3.692   2.642   3.949  2.2764 -1.2003  1.4355
 1940SOL    HW3 7527   3.802   2.737   3.991  2.4391  0.0277 -1.5214
 1940SOL    MW4 7528   3.746   2.708   3.932  0.1921  0.3608  0.3635
 1941SOL     OW 7529   5.342   5.315   2.827  0.2085  0.2044  0.7864
 1941SOL    HW2 7530   5.257   5.357   2.817 -0.1350 -0.8289 -1.4179
 1941SOL    HW3 7531   5.339   5.274   2.913 -0.7520  1.7623  1.5359
 1941SOL    MW4 7532   5.330   5.315   2.837  0.4793 -0.1584  0.6267
 1942SOL     OW 7533   0.110   1.408   4.039 -0.2801  0.0308 -0.1376
 1942SOL    HW2 7534   0.045   1.369   4.098 -0.3312 -1.2830 -1.0166
 1942SOL    HW3 7535   0.111   1.350   3.963  1.3486  0.4758 -0.4908
 1942SOL    MW4 7536   0.101   1.395   4.037  0.9098  0.4749 -0.2496
 1943SOL     OW 7537   1.296   5.326   4.687  0.0164  0.4794 -0.0827
 1943SOL    HW2 7538   1.239   5.255   4.658 -1.2372  0.4944  2.1182
 1943SOL    HW3 7539   1.382   5.286   4.694 -0.1961 -0.1979 -1.0793
 1943SOL    MW4 7540   1.300   5.312   4.684  0.8508  0.2259 -0.5878
 1944SOL     OW 7541   3.315   4.764   5.784 -0.3818 -0.3958  0.0735
 1944SOL    HW2 7542   3.288   4.855   5.779 -0.4723 -0.3456  1.3567
 1944SOL    HW3 7543   3.403   4.764   5.746 -0.2467  0.2900  0.3678
 1944SOL    MW4 7544   3.323   4.776   5.778  0.0132 -0.7459 -0.4218
 1945SOL     OW 7545   3.467   2.719   6.333  0.2671 -0.2149 -0.4857
 1945SOL    HW2 7546   3.472   2.642   6.389  0.6157 -0.3951 -0.7653
 1945SOL    HW3 7547   3.525   2.783   6.375  0.7898 -0.4665 -0.8251
 1945SOL    MW4 7548   3.475   2.718   6.346 -0.2019  0.1939  0.3797
 1946SOL     OW 7549   5.887   4.668   2.493 -0.1745  0.0943 -0.0017
 1946SOL    HW2 7550   5.839   4.631   2.567 -2.5972 -2.2584 -2.4921
 1946SOL    HW3 7551   5.973   4.628   2.497 -0.3447 -0.1762  1.4021
 1946SOL    MW4 7552   5.892   4.658   2.503  0.0214  0.4369  1.2007
 1947SOL     OW 7553   1.095   0.274   0.991 -0.4045 -0.1029  0.0749
 1947SOL    HW2 7554   1.076   0.258   1.084 -0.2297  0.8909  0.2921
 1947SOL    HW3 7555   1.152   0.351   0.991 -0.1489 -0.2810 -0.8449
 1947SOL    MW4 7556   1.100   0.282   1.004 -0.6083 -0.2381 -0.7116
 1948SOL     OW 7557   0.932   1.274   5.897 -0.0781  0.7704  0.1987
 1948SOL    HW2 7558   0.986   1.220   5.840 -0.5479  2.9876 -2.5960
 1948SOL    HW3 7559   0.990   1.300   5.969  0.8085 -1.4293  0.3508
 1948SOL    MW4 7560   0.947   1.270   5.899  0.3613  0.0580  0.0037
 1949SOL     OW 7561   4.911   2.748   0.107 -0.5727  0.1309 -0.2304
 1949SOL    HW2 7562   4.911   2.730   0.013 -0.1758  0.3458 -0.2769
 1949SOL    HW3 7563   4.946   2.837   0.114  0.4498 -0.2826  0.1791
 1949SOL    MW4 7564   4.916   2.757   0.095 -0.3745 -0.0529  0.2582
 1950SOL     OW 7565   4.344   2.718   2.194 -0.1281 -0.8880 -0.1017
 1950SOL    HW2 7566   4.331   2.773   2.271  0.8901 -0.3756 -0.2701
 1950SOL    HW3 7567   4.420   2.756   2.150  0.7977 -2.5810 -0.0697
 1950SOL    MW4 7568   4.353   2.730   2.199  0.8190  0.2174  0.1430
 1951SOL     OW 7569   4.911   1.116   2.578  0.0728 -0.4362  0.4117
 1951SOL    HW2 7570   4.987   1.148   2.628  0.9184  0.4809 -1.3657
 1951SOL    HW3 7571   4.949   1.082   2.497 -1.2495 -1.9502  0.3875
 1951SOL    MW4 7572   4.926   1.116   2.574 -0.1250 -0.0395  0.4384
 1952SOL     OW 7573   3.001   5.022   0.976 -0.0521  0.4177 -0.0936
 1952SOL    HW2 7574   2.922   5.053   1.020 -0.7586 -0.6098 -0.6046
 1952SOL    HW3 7575   3.013   5.082   0.902 -0.6949  0.2146 -0.3629
 1952SOL    MW4 7576   2.992   5.034   0.972 -0.2324  0.0747  0.0380
 1953SOL     OW 7577   4.073   6.181   5.945  0.1904 -0.1422 -0.0467
 1953SOL    HW2 7578   4.053   6.270   5.918  0.1725 -0.1260  0.0196
 1953SOL    HW3 7579   4.065   6.129   5.865  0.4290 -0.0473 -0.1326
 1953SOL    MW4 7580   4.069   6.185   5.931 -0.0844  0.0768 -0.0958
 1954SOL     OW 7581   5.828   4.288   4.194 -0.4206 -0.0571 -0.1184
 1954SOL    HW2 7582   5.833   4.324   4.106 -0.5889  0.7852  0.2074
 1954SOL    HW3 7583   5.902   4.228   4.200 -0.0264  0.3725 -0.6168
 1954SOL    MW4 7584   5.839   4.285   4.183 -0.2436  0.1589  0.1846
 1955SOL     OW 7585   1.006   0.042   5.282 -0.2911 -0.0159 -0.4373
 1955SOL    HW2 7586   0.992   0.117   5.340 -0.4571 -1.0212  0.8617
 1955SOL    HW3 7587   0.923   0.031   5.236 -0.3671  0.3901 -0.4008
 1955SOL    MW4 7588   0.994   0.051   5.283 -0.3498  0.2246 -0.2346
 1956SOL     OW 7589   2.867   0.996   4.859 -0.0613 -0.1857  0.0106
 1956SOL    HW2 7590   2.895   0.921   4.912  1.2721  0.4745  0.2679
 1956SOL    HW3 7591   2.780   0.970   4.826  0.5032 -1.9920 -0.1945
 1956SOL    MW4 7592   2.859   0.982   4.862 -0.2740  0.1177 -0.5071
 1957SOL     OW 7593   0.399   3.589   3.587  0.4901  0.5643 -0.5171
 1957SOL    HW2 7594   0.390   3.662   3.649 -0.1434 -1.0146  1.3735
 1957SOL    HW3 7595   0.327   3.602   3.525 -0.8961  0.5315  0.9884
 1957SOL    MW4 7596   0.388   3.600   3.587 -0.4042  0.2820  0.1838
 1958SOL     OW 7597   5.160   2.686   0.446  0.1938  0.3224 -0.0454
 1958SOL    HW2 7598   5.197   2.755   0.392 -1.1759 -0.4376 -2.0948
 1958SOL    HW3 7599   5.176   2.714   0.536 -0.9441  3.6624 -0.7600
 1958SOL    MW4 7600   5.167   2.699   0.451  0.1299 -0.5262 -0.0231
 1959SOL     OW 7601   0.098   1.792   5.899  0.1631 -0.0227  0.0913
 1959SOL    HW2 7602   0.181   1.809   5.855  0.8052  0.6808  1.5223
 1959SOL    HW3 7603   0.039   1.767   5.828  0.8705  2.0461 -1.3251
 1959SOL    MW4 7604   0.101   1.791   5.884  0.1133 -0.1539  0.1553
 1960SOL     OW 7605   2.765   3.329   3.709  0.2909 -0.1743 -0.4151
 1960SOL    HW2 7606   2.756   3.310   3.616 -0.5650  0.1114 -0.3965
 1960SOL    HW3 7607   2.786   3.244   3.749 -1.9064 -0.8354 -0.5356
 1960SOL    MW4 7608   2.766   3.315   3.702  0.0026 -0.2544 -0.5672
 1961SOL     OW 7609   0.375   1.391   1.682  0.0769  0.2129  0.1391
 1961SOL    HW2 7610   0.459   1.435   1.673  0.8126 -1.3334 -0.9410
 1961SOL    HW3 7611   0.383   1.312   1.629 -2.2033  0.2113 -0.2973
 1961SOL    MW4 7612   0.387   1.386   1.674 -0.6610 -0.8459 -0.1381
 1962SOL     OW 7613   5.605   1.269   4.437 -0.5955  0.1504  0.1571
 1962SOL    HW2 7614   5.640   1.331   4.374  1.2267 -0.2825  0.6881
 1962SOL    HW3 7615   5.547   1.213   4.385 -0.7873  1.1117 -0.6923
 1962SOL    MW4 7616   5.602   1.270   4.422 -0.1072  0.0641  0.1690
 1963SOL     OW 7617   2.262   4.331   3.544 -0.1045 -0.4244 -0.2868
 1963SOL    HW2 7618   2.276   4.237   3.550  0.0867 -0.3463  0.7323
 1963SOL    HW3 7619   2.208   4.352   3.620 -1.9827 -0.0163 -1.6685
 1963SOL    MW4 7620   2.257   4.322   3.555 -0.0673  0.0404  0.3442
 1964SOL     OW 7621   0.815   2.351   0.736  0.0098  0.0379  0.3672
 1964SOL    HW2 7622   0.896   2.306   0.711 -0.5437 -1.6613  1.4564
 1964SOL    HW3 7623   0.829   2.442   0.710  1.8090 -0.4468 -0.5092
 1964SOL    MW4 7624   0.827   2.357   0.730 -0.5844  0.1917 -0.4499
 1965SOL     OW 7625   0.694   5.345   2.871  0.0069  0.0722 -0.1104
 1965SOL    HW2 7626   0.687   5.250   2.874 -0.1488  0.0500 -0.8695
 1965SOL    HW3 7627   0.615   5.373   2.824 -0.4185  0.6517  0.9042
 1965SOL    MW4 7628   0.682   5.336   2.865 -0.5063  0.7857 -0.2073
 1966SOL     OW 7629   1.546   5.903   0.956 -0.2234 -0.2008  0.2316
 1966SOL    HW2 7630   1.602   5.861   1.021 -1.0420 -1.7867 -0.0484
 1966SOL    HW3 7631   1.506   5.977   1.003  1.2101  0.3019  0.7398
 1966SOL    MW4 7632   1.548   5.908   0.971 -0.2341 -0.2486 -0.5881
 1967SOL     OW 7633   0.894   3.609   1.941  0.0252  0.0909 -0.0926
 1967SOL    HW2 7634   0.886   3.534   2.000  0.5926  0.1262  0.0355
 1967SOL    HW3 7635   0.977   3.651   1.966  0.8376 -0.5222 -1.6091
 1967SOL    MW4 7636   0.904   3.605   1.952  0.0373 -0.3205 -0.4863
 1968SOL     OW 7637   1.212   4.926   0.358 -0.3094 -0.2178 -0.2521
 1968SOL    HW2 7638   1.154   4.885   0.423 -0.1814  0.4234  0.2836
 1968SOL    HW3 7639   1.296   4.884   0.372 -0.4786 -0.6581 -0.5559
 1968SOL    MW4 7640   1.215   4.915   0.369  0.0864 -0.5075 -0.0747
 1969SOL     OW 7641   2.566   5.610   6.363 -0.0524  0.0447  0.1359
 1969SOL    HW2 7642   2.496   5.668   6.330 -0.3183 -1.7922 -2.9990
 1969SOL    HW3 7643   2.521   5.528   6.383  1.0499 -1.0953 -1.7125
 1969SOL    MW4 7644   2.550   5.607   6.361 -0.2580 -0.9021  0.4391
 1970SOL     OW 7645   1.630   5.868   2.179 -0.1642  0.7434  0.2060
 1970SOL    HW2 7646   1.549   5.868   2.128  0.1171 -0.5779 -0.2646
 1970SOL    HW3 7647   1.660   5.778   2.177  0.0861  0.7289  2.3834
 1970SOL    MW4 7648   1.623   5.856   2.172 -0.0947  0.3444  0.4934
 1971SOL     OW 7649   3.743   1.996   3.394 -0.2630 -0.3899 -0.0520
 1971SOL    HW2 7650   3.744   1.901   3.399  1.2591 -0.3731  0.4607
 1971SOL    HW3 7651   3.707   2.015   3.307  0.0120 -1.4596 -0.4197
 1971SOL    MW4 7652   3.739   1.986   3.383 -0.0227  1.1921  0.7296
 1972SOL     OW 7653   3.689   0.104   2.781  0.0112 -0.2040  0.7244
 1972SOL    HW2 7654   3.641   0.167   2.835 -0.3438  1.1590 -1.1013
 1972SOL    HW3 7655   3.625   0.070   2.719  1.4208  2.3530 -2.3875
 1972SOL    MW4 7656   3.674   0.108   2.780  0.0151  0.0800  0.1594
 1973SOL     OW 7657   4.934   2.929   6.300  0.3562  0.1799 -0.2631
 1973SOL    HW2 7658   5.020   2.887   6.299  0.8512  0.9419  2.2815
 1973SOL    HW3 7659   4.952   3.021   6.281  0.3510  0.5961  1.5534
 1973SOL    MW4 7660   4.948   2.936   6.297  0.1112  0.1388 -0.0694
 1974SOL     OW 7661   0.289   2.205   4.902  0.5548  0.4997 -0.4045
 1974SOL    HW2 7662   0.298   2.110   4.911 -0.6942  0.3444 -0.5667
 1974SOL    HW3 7663   0.222   2.228   4.967 -0.0279  1.0739 -1.1895
 1974SOL    MW4 7664   0.281   2.195   4.912 -0.1504  0.1510  0.0117
 1975SOL     OW 7665   0.440   3.148   4.132 -0.6318 -0.4129  0.2500
 1975SOL    HW2 7666   0.481   3.231   4.108  1.1989 -1.3500 -0.0799
 1975SOL    HW3 7667   0.401   3.164   4.218  2.0677  0.1042  1.4899
 1975SOL    MW4 7668   0.440   3.161   4.140  0.2622  0.2169  0.0173
 1976SOL     OW 7669   0.061   4.628   4.638 -0.5235 -0.4758  0.4801
 1976SOL    HW2 7670   0.004   4.567   4.684 -0.8343 -0.1957  0.4680
 1976SOL    HW3 7671   0.038   4.714   4.673 -1.2170 -0.1819 -0.6414
 1976SOL    MW4 7672   0.051   4.632   4.649  0.0125 -0.7919  0.2438
 1977SOL     OW 7673   3.955   2.757   2.927 -0.0037  0.1874 -0.7108
 1977SOL    HW2 7674   3.951   2.742   3.021 -1.3905  0.9883 -0.6228
 1977SOL    HW3 7675   3.870   2.727   2.894  0.3437  0.2125 -1.6610
 1977SOL    MW4 7676   3.943   2.751   2.935 -0.0949  0.2406  0.0608
 1978SOL     OW 7677   0.820   2.632   5.342 -0.6418 -0.4035 -0.2234
 1978SOL    HW2 7678   0.752   2.678   5.293  1.6405  2.7889 -0.7724
 1978SOL    HW3 7679   0.825   2.679   5.425  0.1056 -1.3439  0.2852
 1978SOL    MW4 7680   0.812   2.645   5.346  0.0795 -0.4305 -0.3237
 1979SOL     OW 7681   3.589   2.916   1.072 -0.1823  0.1113 -0.4561
 1979SOL    HW2 7682   3.672   2.874   1.048 -0.3802 -0.8929  0.5575
 1979SOL    HW3 7683   3.571   2.886   1.161 -2.1415 -0.5102 -1.0019
 1979SOL    MW4 7684   3.597   2.906   1.080  0.0251 -0.0299 -0.1472
 1980SOL     OW 7685   2.971   0.200   5.845 -0.3557  0.0424 -0.5417
 1980SOL    HW2 7686   2.929   0.183   5.761  0.4063  0.1428 -0.9573
 1980SOL    HW3 7687   3.064   0.180   5.830 -0.3577 -0.9251  0.5538
 1980SOL    MW4 7688   2.978   0.195   5.832 -0.8395 -0.3005  0.1618
 1981SOL     OW 7689   0.255   1.443   5.745  0.2718  0.2244 -0.6824
 1981SOL    HW2 7690   0.253   1.513   5.680  3.1211  0.9078 -0.1608
 1981SOL    HW3 7691   0.300   1.481   5.821  1.4309 -1.9633 -0.1874
 1981SOL    MW4 7692   0.260   1.457   5.747 -0.4939  0.1485 -0.1177
 1982SOL     OW 7693   0.695   2.587   1.213 -1.0168  0.2435 -0.0987
 1982SOL    HW2 7694   0.673   2.535   1.136 -1.5102  2.0845 -1.2629
 1982SOL    HW3 7695   0.758   2.534   1.261 -1.0693 -1.1587 -1.5155
 1982SOL    MW4 7696   0.700   2.573   1.209  0.4111  0.3731 -0.1337
 1983SOL     OW 7697   4.852   5.300   2.577 -0.1930  0.5634 -0.6130
 1983SOL    HW2 7698   4.842   5.253   2.659  0.3293 -0.4363 -1.1005
 1983SOL    HW3 7699   4.926   5.359   2.593 -1.1827  1.6323  0.1676
 1983SOL    MW4 7700   4.861   5.302   2.590  0.2785 -0.7147 -0.7548
 1984SOL     OW 7701   1.119   3.586   4.004  0.0520  0.1523 -0.0700
 1984SOL    HW2 7702   1.193   3.525   4.001  1.3363  1.6555 -0.6636
 1984SOL    HW3 7703   1.078   3.577   3.918 -0.3623 -0.5402  0.1886
 1984SOL    MW4 7704   1.123   3.577   3.992 -0.4560  0.1152  0.4955
 1985SOL     OW 7705   3.608   5.145   2.747  0.0354  0.1233  0.1489
 1985SOL    HW2 7706   3.599   5.059   2.789  0.5421 -0.6936 -1.3594
 1985SOL    HW3 7707   3.533   5.195   2.779  0.6035 -0.3055  2.3243
 1985SOL    MW4 7708   3.597   5.140   2.757  0.7068  0.4038  0.1509
 1986SOL     OW 7709   3.860   4.990   5.043 -0.1112 -0.9290  0.4126
 1986SOL    HW2 7710   3.941   4.983   4.994 -0.4926 -0.1734 -0.3414
 1986SOL    HW3 7711   3.810   4.912   5.019 -0.6962 -0.1087 -1.1859
 1986SOL    MW4 7712   3.864   4.979   5.033  0.0347 -0.1587  0.0508
 1987SOL     OW 7713   2.586   5.257   1.734 -0.1908 -0.2057 -0.5452
 1987SOL    HW2 7714   2.660   5.310   1.762 -0.6821 -0.3160  1.0672
 1987SOL    HW3 7715   2.509   5.305   1.764 -0.6459 -1.8432  1.1599
 1987SOL    MW4 7716   2.586   5.270   1.742  0.5629  0.1933  0.4257
 1988SOL     OW 7717   5.507   3.304   5.464 -0.2666  0.5919  0.1289
 1988SOL    HW2 7718   5.433   3.273   5.411 -0.1015 -0.7056  0.6248
 1988SOL    HW3 7719   5.488   3.271   5.553 -0.3052  2.3271  0.7985
 1988SOL    MW4 7720   5.495   3.296   5.469 -0.0519  0.1649 -1.0611
 1989SOL     OW 7721   5.485   6.418   4.290 -0.4432  0.5357 -0.5402
 1989SOL    HW2 7722   5.406   6.424   4.344 -0.6289  0.4404 -0.8028
 1989SOL    HW3 7723   5.532   6.500   4.308 -0.2284  0.2675  0.1928
 1989SOL    MW4 7724   5.481   6.430   4.300 -0.4508  0.2003 -0.1895
 1990SOL     OW 7725   2.332   3.451   5.185 -0.3641 -0.8824 -1.3590
 1990SOL    HW2 7726   2.427   3.450   5.194 -0.4923  0.6994  0.8995
 1990SOL    HW3 7727   2.313   3.536   5.144 -0.9071  0.0691  0.7525
 1990SOL    MW4 7728   2.342   3.462   5.181  0.2754  0.3571  0.0658
 1991SOL     OW 7729   5.605   4.986   3.622 -0.3181  0.1268 -0.0067
 1991SOL    HW2 7730   5.538   5.044   3.587  1.6949  2.7569  0.1810
 1991SOL    HW3 7731   5.664   4.970   3.549  0.3128  0.0903  0.5055
 1991SOL    MW4 7732   5.604   4.992   3.608 -0.4072 -0.1311  0.2446
 1992SOL     OW 7733   1.097   4.310   1.674 -0.7326  0.0910  0.3445
 1992SOL    HW2 7734   1.138   4.253   1.740 -0.3617  0.9031  0.8330
 1992SOL    HW3 7735   1.033   4.361   1.724 -0.2520  0.9113  0.1418
 1992SOL    MW4 7736   1.094   4.309   1.690 -0.0986 -0.0700 -0.0280
 1993SOL     OW 7737   0.957   2.503   1.835  0.5161 -0.4546 -0.2820
 1993SOL    HW2 7738   0.907   2.428   1.865 -0.2252 -0.0745 -0.5299
 1993SOL    HW3 7739   1.014   2.526   1.908 -1.0903  0.3235  0.7755
 1993SOL    MW4 7740   0.958   2.497   1.848  0.5798 -0.2572 -0.0472
 1994SOL     OW 7741   3.449   1.582   4.411 -0.5392  0.4852  0.0549
 1994SOL    HW2 7742   3.354   1.580   4.423 -0.5760  1.2744 -0.0806
 1994SOL    HW3 7743   3.482   1.522   4.479 -1.2091 -0.9687 -0.8523
 1994SOL    MW4 7744   3.441   1.574   4.422  0.2649  0.0190  0.2370
 1995SOL     OW 7745   1.982   1.609   2.880  0.0583  0.0480  0.1919
 1995SOL    HW2 7746   1.919   1.538   2.888  0.3789 -0.2657 -0.0284
 1995SOL    HW3 7747   1.929   1.689   2.883 -0.4012 -0.2236 -0.4701
 1995SOL    MW4 7748   1.967   1.610   2.881  0.3404 -0.4774 -0.3866
 1996SOL     OW 7749   0.708   1.361   6.241 -0.1889 -0.1445 -0.0146
 1996SOL    HW2 7750   0.724   1.269   6.220 -0.3753 -0.0632 -0.5156
 1996SOL    HW3 7751   0.686   1.361   6.334 -1.5219 -0.7677 -0.3084
 1996SOL    MW4 7752   0.707   1.349   6.250 -0.1892  0.3865  0.1961
 1997SOL     OW 7753   1.872   0.086   2.434  0.3419  0.3659  0.2171
 1997SOL    HW2 7754   1.803   0.145   2.404 -0.2864 -0.7958 -0.7432
 1997SOL    HW3 7755   1.831   0.037   2.505  0.8763  1.0940  1.0432
 1997SOL    MW4 7756   1.857   0.087   2.439  0.3039  0.4659 -0.3454
 1998SOL     OW 7757   0.448   1.354   1.959  0.2417 -0.1271 -0.7907
 1998SOL    HW2 7758   0.435   1.346   1.865 -0.1064 -0.7711 -0.6944
 1998SOL    HW3 7759   0.383   1.295   1.998  1.6420 -1.3574 -0.2139
 1998SOL    MW4 7760   0.438   1.345   1.952 -0.1685  0.0671  0.1285
 1999SOL     OW 7761   5.018   1.962   4.339 -0.1433 -0.0374  0.2099
 1999SOL    HW2 7762   4.994   2.048   4.373 -0.6271 -0.2797  0.4929
 1999SOL    HW3 7763   5.031   1.908   4.417 -0.4053 -0.3746  0.0221
 1999SOL    MW4 7764   5.017   1.966   4.354 -0.8528  0.5631  0.1728
 2000SOL     OW 7765   6.107   2.496   6.003 -0.2027 -0.1804  0.4743
 2000SOL    HW2 7766   6.149   2.550   5.936  0.4606  0.1357  1.1227
 2000SOL    HW3 7767   6.142   2.408   5.989  2.2833  0.4177  2.1940
 2000SOL    MW4 7768   6.117   2.491   5.992 -0.3957  0.0788 -0.0119
 2001SOL     OW 7769   4.687   5.226   3.393 -0.6145 -0.0323 -0.1238
 2001SOL    HW2 7770   4.646   5.185   3.317 -1.8392  1.5004 -0.3464
 2001SOL    HW3 7771   4.636   5.196   3.468 -0.1103 -0.6593 -0.0274
 2001SOL    MW4 7772   4.675   5.217   3.393 -0.2849 -0.8007  0.0114
 2002SOL     OW 7773   5.690   6.159   3.501  0.1351  1.0976  0.1677
 2002SOL    HW2 7774   5.732   6.182   3.583 -0.0384  0.5548  0.4150
 2002SOL    HW3 7775   5.614   6.106   3.527  0.2598  0.6493 -0.3509
 2002SOL    MW4 7776   5.685   6.155   3.515 -0.2337  0.0754  0.1533
 2003SOL     OW 7777   1.272   2.273   5.745  0.7041 -0.2547  0.0377
 2003SOL    HW2 7778   1.297   2.258   5.653 -2.4758  0.1381 -1.0112
 2003SOL    HW3 7779   1.276   2.186   5.785 -1.5861 -1.2069 -1.5906
 2003SOL    MW4 7780   1.276   2.259   5.738  0.0143  0.0575 -0.4142
 2004SOL     OW 7781   0.467   2.020   0.963  0.2778  0.0817 -0.1110
 2004SOL    HW2 7782   0.465   2.106   0.920  1.3152 -0.7641 -1.9722
 2004SOL    HW3 7783   0.433   1.960   0.897  1.1992 -1.1801  0.5334
 2004SOL    MW4 7784   0.462   2.023   0.948  0.3337 -0.1326  0.1850
 2005SOL     OW 7785   5.917   2.644   2.978  0.1887 -0.7063 -0.6796
 2005SOL    HW2 7786   5.833   2.690   2.969 -0.3259 -1.7599 -1.5381
 2005SOL    HW3 7787   5.974   2.707   3.022 -0.2424  1.0844 -2.4973
 2005SOL    MW4 7788   5.914   2.659   2.983 -0.1970  0.1419 -0.4689
 2006SOL     OW 7789   4.027   5.396   0.270  0.2041  0.5319 -0.0008
 2006SOL    HW2 7790   3.954   5.347   0.307 -1.0666  2.7993  0.7203
 2006SOL    HW3 7791   4.078   5.332   0.220 -2.4781 -1.0696 -0.8397
 2006SOL    MW4 7792   4.024   5.381   0.268  0.0054  0.2289 -0.4205
 2007SOL     OW 7793   1.952   2.079   4.466  0.1556  0.2445  0.2409
 2007SOL    HW2 7794   2.026   2.044   4.417 -1.1561 -0.4291 -1.3539
 2007SOL    HW3 7795   1.959   2.174   4.457  1.7060  0.3081  1.5314
 2007SOL    MW4 7796   1.963   2.087   4.459  0.6174 -0.2511 -0.0276
 2008SOL     OW 7797   4.200   4.064   2.474 -0.3202  0.3785 -0.5544
 2008SOL    HW2 7798   4.262   4.123   2.430 -1.2803  2.1626  0.3323
 2008SOL    HW3 7799   4.143   4.033   2.405  0.5261  0.0533 -1.1234
 2008SOL    MW4 7800   4.201   4.068   2.459  0.0613 -0.3409  0.2525
 2009SOL     OW 7801   2.199   5.456   0.501 -0.5107 -0.0716  0.8347
 2009SOL    HW2 7802   2.108   5.475   0.526 -0.8504  0.0336 -0.4043
 2009SOL    HW3 7803   2.192   5.419   0.414  0.5908 -0.8319  1.0519
 2009SOL    MW4 7804   2.186   5.454   0.493  0.8285 -0.0314  0.1719
 2010SOL     OW 7805   4.671   1.692   1.510 -0.2026 -0.2413 -0.4387
 2010SOL    HW2 7806   4.672   1.728   1.421 -1.0313 -0.1368 -0.4149
 2010SOL    HW3 7807   4.618   1.613   1.504  0.6445 -0.8351 -0.2482
 2010SOL    MW4 7808   4.664   1.686   1.497 -0.0728 -0.0847  0.0918
 2011SOL     OW 7809   3.295   1.345   5.060  0.0499  0.0522  0.2499
 2011SOL    HW2 7810   3.206   1.355   5.026  0.2878 -1.4660 -0.9320
 2011SOL    HW3 7811   3.325   1.435   5.074 -2.0195  0.5765  1.7104
 2011SOL    MW4 7812   3.288   1.358   5.057 -0.3176  0.5948  0.5006
 2012SOL     OW 7813   2.602   0.033   6.265  0.3314 -0.2369  0.4821
 2012SOL    HW2 7814   2.535   0.082   6.313 -0.5237  0.1392 -1.0038
 2012SOL    HW3 7815   2.685   0.066   6.299 -0.2467  0.7915  0.9464
 2012SOL    MW4 7816   2.604   0.044   6.276 -0.0593  0.6211  0.0203
 2013SOL     OW 7817   6.162   3.211   5.221 -0.2374 -0.0497  0.8861
 2013SOL    HW2 7818   6.138   3.250   5.138  0.3940  0.1383  0.7859
 2013SOL    HW3 7819   6.133   3.120   5.215 -0.4730  0.0472  0.5836
 2013SOL    MW4 7820   6.155   3.204   5.210 -0.1188  0.3785 -0.7748
 2014SOL     OW 7821   4.306   1.785   2.032 -0.3229 -0.2287 -0.2351
 2014SOL    HW2 7822   4.293   1.809   1.940 -2.7037 -2.0265 -0.4604
 2014SOL    HW3 7823   4.253   1.848   2.081  0.6379  0.4867 -0.0823
 2014SOL    MW4 7824   4.297   1.797   2.026  0.6087  0.2886 -0.0512
 2015SOL     OW 7825   4.667   2.367   2.727 -0.1063 -0.3650  0.5042
 2015SOL    HW2 7826   4.686   2.282   2.765 -3.0994 -0.8653  1.2024
 2015SOL    HW3 7827   4.724   2.428   2.773  0.7942 -1.7510  1.2896
 2015SOL    MW4 7828   4.677   2.364   2.738 -0.0001  0.2274 -0.2668
 2016SOL     OW 7829   0.656   4.681   2.094  0.0122 -0.5302 -0.5826
 2016SOL    HW2 7830   0.603   4.605   2.118  0.4663  0.0108  2.5926
 2016SOL    HW3 7831   0.746   4.653   2.110  0.1892  0.5946  0.5278
 2016SOL    MW4 7832   0.661   4.668   2.100  0.0591  0.2809  0.3936
 2017SOL     OW 7833   4.009   3.460   1.201 -0.1952 -0.0373  1.0741
 2017SOL    HW2 7834   4.028   3.498   1.286 -0.5139  0.0302  1.1166
 2017SOL    HW3 7835   3.961   3.379   1.221  0.1973 -0.3006  0.9743
 2017SOL    MW4 7836   4.005   3.454   1.215 -0.5268 -0.2575  0.2681
 2018SOL     OW 7837   5.361   6.016   4.502 -0.4086 -0.0382 -0.0916
 2018SOL    HW2 7838   5.354   5.926   4.470 -0.2972  0.1857 -0.7560
 2018SOL    HW3 7839   5.437   6.014   4.561 -0.7988 -0.5203  0.4042
 2018SOL    MW4 7840   5.370   6.004   4.505 -0.1678  0.1194 -0.0714
 2019SOL     OW 7841   4.890   3.650   0.237  0.3305  0.6395 -0.4444
 2019SOL    HW2 7842   4.945   3.579   0.204 -0.5506  0.6873 -2.1192
 2019SOL    HW3 7843   4.899   3.720   0.172 -1.7354  0.6228 -0.8057
 2019SOL    MW4 7844   4.898   3.650   0.224  0.0051 -0.3969 -0.2409
 2020SOL     OW 7845   3.835   4.745   0.402  0.0595  0.3056  0.2138
 2020SOL    HW2 7846   3.878   4.828   0.424  2.0560 -0.3805 -0.7856
 2020SOL    HW3 7847   3.891   4.707   0.333  0.0380 -2.5066  1.5971
 2020SOL    MW4 7848   3.848   4.751   0.396 -0.5743 -0.4260  0.3491
 2021SOL     OW 7849   6.397   4.787   5.370 -0.3648 -0.3770  0.5165
 2021SOL    HW2 7850   6.477   4.734   5.372  0.0405  0.1995  0.0728
 2021SOL    HW3 7851   6.371   4.787   5.278 -1.7707 -1.8360  0.8664
 2021SOL    MW4 7852   6.404   4.780   5.358  0.4688 -0.2790  0.0404
 2022SOL     OW 7853   0.474   3.619   5.991 -0.3382  0.1102 -0.1572
 2022SOL    HW2 7854   0.556   3.571   5.975 -1.2258 -1.4456 -0.1552
 2022SOL    HW3 7855   0.488   3.662   6.075  1.8429  2.9096 -1.7698
 2022SOL    MW4 7856   0.487   3.618   6.000 -0.3486 -0.2361  0.2210
 2023SOL     OW 7857   1.437   3.995   1.033  0.2304  0.1593  0.3579
 2023SOL    HW2 7858   1.417   4.031   0.946  1.3694 -0.4896 -0.1963
 2023SOL    HW3 7859   1.510   4.049   1.065 -0.8286  1.0392  1.3637
 2023SOL    MW4 7860   1.444   4.007   1.026 -0.1296 -0.3146  0.1835
 2024SOL     OW 7861   5.933   4.631   3.892  0.2834  0.0677  0.2647
 2024SOL    HW2 7862   6.028   4.621   3.890  0.6750  2.9808 -0.2987
 2024SOL    HW3 7863   5.915   4.681   3.972 -0.8333 -0.6449  0.4907
 2024SOL    MW4 7864   5.943   4.636   3.902 -0.3502  0.3878  0.3648
 2025SOL     OW 7865   5.985   1.202   4.628 -0.0410  0.0384 -0.0161
 2025SOL    HW2 7866   5.941   1.154   4.698 -0.7036  1.6320  0.7232
 2025SOL    HW3 7867   6.071   1.223   4.664  0.5857 -1.3245 -0.6797
 2025SOL    MW4 7868   5.991   1.199   4.642  0.3838  0.4441 -0.0174
 2026SOL     OW 7869   0.918   2.037   6.301 -0.2352 -0.1993  0.4766
 2026SOL    HW2 7870   0.900   2.125   6.269 -1.2832  0.0708  1.7394
 2026SOL    HW3 7871   0.887   1.979   6.230  0.6912  0.4205 -0.4630
 2026SOL    MW4 7872   0.911   2.041   6.287  0.3319 -0.2701  0.0623
 2027SOL     OW 7873   0.909   6.132   6.390 -0.3560 -0.6126 -0.3870
 2027SOL    HW2 7874   0.943   6.056   6.342 -0.5584 -0.3325 -0.9945
 2027SOL    HW3 7875   0.939   6.208   6.338 -3.8936 -0.3735 -2.4139
 2027SOL    MW4 7876   0.918   6.132   6.377 -0.9084  0.1780  0.0944
 2028SOL     OW 7877   4.341   4.601   5.301 -0.0046  0.4007  0.0979
 2028SOL    HW2 7878   4.434   4.617   5.311 -0.1116  2.3517 -1.4449
 2028SOL    HW3 7879   4.302   4.631   5.383  0.6415  0.2311  0.4763
 2028SOL    MW4 7880   4.348   4.607   5.313  0.1318 -0.0645  0.4528
 2029SOL     OW 7881   3.386   0.323   6.140 -0.3939  0.3966 -0.1788
 2029SOL    HW2 7882   3.472   0.313   6.180 -0.0797  0.8938 -0.7051
 2029SOL    HW3 7883   3.324   0.297   6.208  0.2122 -2.7772 -0.6565
 2029SOL    MW4 7884   3.389   0.318   6.154 -0.3377  0.1941 -0.6022
 2030SOL     OW 7885   5.101   4.385   3.548 -0.2854 -0.1606  0.1965
 2030SOL    HW2 7886   5.098   4.298   3.587  0.7898 -0.1653  0.2754
 2030SOL    HW3 7887   5.189   4.394   3.513 -1.4047 -0.4647 -2.9941
 2030SOL    MW4 7888   5.112   4.375   3.548  0.1917  0.2731 -0.2235
 2031SOL     OW 7889   4.329   3.539   6.209 -0.5650 -0.1462 -0.0601
 2031SOL    HW2 7890   4.339   3.528   6.303 -0.0736  0.5571 -0.0246
 2031SOL    HW3 7891   4.246   3.585   6.199 -0.6287 -0.2423  0.0254
 2031SOL    MW4 7892   4.319   3.544   6.220  0.2743  0.0420 -0.0578
 2032SOL     OW 7893   2.989   3.566   1.254 -0.3382 -0.4921 -0.2892
 2032SOL    HW2 7894   3.012   3.508   1.181 -1.0663 -2.4647  0.9841
 2032SOL    HW3 7895   2.924   3.626   1.217  0.1824 -0.6668 -1.5575
 2032SOL    MW4 7896   2.983   3.567   1.239 -0.4933  0.3348  0.0240
 2033SOL     OW 7897   5.454   0.580   4.408  0.5071  0.0231  0.3289
 2033SOL    HW2 7898   5.445   0.538   4.322  0.8076 -1.0947  0.8170
 2033SOL    HW3 7899   5.517   0.525   4.454  1.1221  1.2030  0.9102
 2033SOL    MW4 7900   5.461   0.567   4.402 -0.6169 -0.3199 -0.0196
 2034SOL     OW 7901   2.752   5.777   6.244  0.4436 -0.6445  0.0386
 2034SOL    HW2 7902   2.691   5.734   6.304  0.2442  0.1381  0.4078
 2034SOL    HW3 7903   2.763   5.715   6.172  0.7740 -1.6542  0.9256
 2034SOL    MW4 7904   2.746   5.763   6.243 -0.0822  0.1242  0.2667
 2035SOL     OW 7905   3.200   2.692   5.749 -0.4028  0.3503  0.1902
 2035SOL    HW2 7906   3.284   2.662   5.785 -0.1634  0.9082  0.1172
 2035SOL    HW3 7907   3.137   2.627   5.778 -0.4178  1.3138  2.5930
 2035SOL    MW4 7908   3.203   2.680   5.758 -0.3565  0.5100  0.0454
 2036SOL     OW 7909   0.728   3.149   4.932  0.2471 -0.4285 -0.5446
 2036SOL    HW2 7910   0.734   3.180   5.022 -0.0151 -0.2989 -0.5695
 2036SOL    HW3 7911   0.634   3.149   4.913  0.3571  0.7689 -1.2302
 2036SOL    MW4 7912   0.717   3.153   4.941  0.4279 -0.0627  0.0944
 2037SOL     OW 7913   2.855   0.583   1.089  0.1629  0.7991  0.1522
 2037SOL    HW2 7914   2.803   0.620   1.018 -0.9117 -0.9007  0.0142
 2037SOL    HW3 7915   2.871   0.657   1.148 -3.2502  1.2512  0.7092
 2037SOL    MW4 7916   2.851   0.598   1.087  0.4380 -0.2526 -0.7327
 2038SOL     OW 7917   6.139   4.006   2.137 -0.0234  0.2424  0.5789
 2038SOL    HW2 7918   6.160   3.916   2.160 -1.4766 -0.4606 -0.6498
 2038SOL    HW3 7919   6.145   4.008   2.041 -2.0719  0.8381  0.4070
 2038SOL    MW4 7920   6.142   3.994   2.127  0.1142  0.1597 -0.0417
 2039SOL     OW 7921   1.379   0.010   1.062 -0.4552  0.0532 -0.7084
 2039SOL    HW2 7922   1.315   0.013   0.991 -1.6442 -3.1774  0.0438
 2039SOL    HW3 7923   1.441   0.080   1.042 -2.7710  1.6528 -2.8730
 2039SOL    MW4 7924   1.379   0.019   1.050 -0.4499 -0.2183  0.5010
 2040SOL     OW 7925   4.669   4.373   0.775  0.2551 -0.1203  0.2031
 2040SOL    HW2 7926   4.592   4.423   0.750 -0.7101 -1.2066  0.8971
 2040SOL    HW3 7927   4.654   4.286   0.737  0.6370 -0.6454  1.2225
 2040SOL    MW4 7928   4.657   4.368   0.766 -0.0677  0.1470 -0.0506
 2041SOL     OW 7929   5.260   2.425   2.847 -0.1604 -0.3621  0.7937
 2041SOL    HW2 7930   5.256   2.494   2.781  1.2647 -1.2525 -0.2796
 2041SOL    HW3 7931   5.204   2.355   2.813  3.2382 -2.3152 -1.4439
 2041SOL    MW4 7932   5.252   2.425   2.834  0.3703 -0.6850  0.7112
 2042SOL     OW 7933   2.251   2.134   2.368 -0.0225  0.6390 -0.5928
 2042SOL    HW2 7934   2.300   2.108   2.445 -0.9561 -0.0410 -0.2088
 2042SOL    HW3 7935   2.303   2.102   2.294 -0.5353 -1.3292 -0.1593
 2042SOL    MW4 7936   2.264   2.127   2.368 -0.2915  0.1065  0.2762
 2043SOL     OW 7937   4.333   2.153   1.148 -0.1118  0.3342  0.3268
 2043SOL    HW2 7938   4.287   2.202   1.080  0.0471  0.8387  0.5728
 2043SOL    HW3 7939   4.336   2.214   1.223 -0.1937 -0.1715  0.7450
 2043SOL    MW4 7940   4.328   2.168   1.149  0.1445 -0.4060 -0.4387
 2044SOL     OW 7941   6.113   3.726   4.073  0.0081  0.4516 -0.1697
 2044SOL    HW2 7942   6.196   3.771   4.085  0.4144  0.2736 -1.9880
 2044SOL    HW3 7943   6.064   3.743   4.154  1.9291  0.2458  1.0868
 2044SOL    MW4 7944   6.117   3.735   4.085 -0.0021  0.1593  0.1961
 2045SOL     OW 7945   5.591   1.567   2.917  0.0994 -0.4967  0.7123
 2045SOL    HW2 7946   5.562   1.657   2.934 -0.6119 -0.8341  1.3395
 2045SOL    HW3 7947   5.641   1.543   2.994  1.4745 -0.1749 -0.0542
 2045SOL    MW4 7948   5.594   1.576   2.929  0.4603 -0.3662 -0.2649
 2046SOL     OW 7949   4.703   2.400   1.796  0.9443  0.4004 -0.1502
 2046SOL    HW2 7950   4.766   2.472   1.802  1.2590  0.1612 -0.6171
 2046SOL    HW3 7951   4.729   2.351   1.718 -0.3494  0.8213 -0.8888
 2046SOL    MW4 7952   4.715   2.403   1.787 -0.6072  0.0877 -0.1541
 2047SOL     OW 7953   6.089   1.079   1.635  0.1624  0.1239 -0.2493
 2047SOL    HW2 7954   6.111   1.131   1.558 -0.6237  0.9677  0.0787
 2047SOL    HW3 7955   5.998   1.052   1.621 -0.1877  0.7844  0.6453
 2047SOL    MW4 7956   6.080   1.082   1.623  0.8801 -0.1983  0.3154
 2048SOL     OW 7957   1.787   2.065   0.503 -0.2704 -0.1352 -0.8541
 2048SOL    HW2 7958   1.808   2.157   0.490  1.3356 -0.4107 -0.4079
 2048SOL    HW3 7959   1.697   2.065   0.536 -0.8298  1.1587 -2.2333
 2048SOL    MW4 7960   1.778   2.077   0.505  0.2003  0.0668 -0.7506
 2049SOL     OW 7961   5.687   4.639   5.531 -0.2220  0.6280 -0.7669
 2049SOL    HW2 7962   5.703   4.665   5.440 -1.7942  1.7797 -0.7560
 2049SOL    HW3 7963   5.617   4.696   5.560 -0.7071 -0.6693  0.7528
 2049SOL    MW4 7964   5.680   4.650   5.523 -0.2004 -0.1640 -0.2484
 2050SOL     OW 7965   4.504   5.571   1.993  0.5451  0.3832 -0.2007
 2050SOL    HW2 7966   4.562   5.626   2.046 -1.0726  0.2995  1.7558
 2050SOL    HW3 7967   4.519   5.482   2.024  0.0576  0.2473 -0.3376
 2050SOL    MW4 7968   4.514   5.566   2.004 -0.1162 -0.5414 -0.1031
 2051SOL     OW 7969   4.915   5.999   2.717 -0.5493 -0.0822 -0.2003
 2051SOL    HW2 7970   4.826   6.031   2.698  0.8093  3.1417 -1.9027
 2051SOL    HW3 7971   4.947   6.058   2.785  1.0880  0.4655 -1.3831
 2051SOL    MW4 7972   4.907   6.011   2.723 -0.0724 -0.2068  0.0742
 2052SOL     OW 7973   3.214   3.378   5.303 -0.5123 -0.3249  0.3894
 2052SOL    HW2 7974   3.135   3.391   5.250 -0.4982 -1.8238 -0.0551
 2052SOL    HW3 7975   3.280   3.433   5.262 -0.9350 -0.2266 -0.1697
 2052SOL    MW4 7976   3.212   3.387   5.290  0.3879 -0.3604  0.0815
 2053SOL     OW 7977   4.071   5.860   2.852  0.5997 -0.1461  0.2292
 2053SOL    HW2 7978   4.000   5.913   2.889  0.6728 -0.2549  0.5312
 2053SOL    HW3 7979   4.114   5.917   2.789 -0.0398 -0.2257 -0.2923
 2053SOL    MW4 7980   4.067   5.874   2.849 -0.5476 -0.0823  0.2884
 2054SOL     OW 7981   6.214   1.049   0.100  0.2426 -0.0401 -0.1257
 2054SOL    HW2 7982   6.282   1.110   0.126  0.1791  1.2110 -2.5813
 2054SOL    HW3 7983   6.231   1.031   0.007 -2.1874 -0.4230 -0.5875
 2054SOL    MW4 7984   6.225   1.055   0.091  0.0820 -0.6837 -0.7607
 2055SOL     OW 7985   2.883   0.899   2.935  0.0856  0.2993  0.1430
 2055SOL    HW2 7986   2.918   0.897   3.024  1.2565  0.4959 -0.2909
 2055SOL    HW3 7987   2.916   0.981   2.899  1.5539 -0.8159 -1.1964
 2055SOL    MW4 7988   2.892   0.909   2.942  0.5883 -0.0447 -0.3935
 2056SOL     OW 7989   4.605   3.917   5.760  0.0934  0.2853  0.0813
 2056SOL    HW2 7990   4.640   3.974   5.829 -2.7035  0.7138  1.2741
 2056SOL    HW3 7991   4.568   3.843   5.807 -3.3569  1.3624 -0.6508
 2056SOL    MW4 7992   4.605   3.915   5.775  0.6726  0.2159 -0.2496
 2057SOL     OW 7993   1.502   4.660   0.929  0.0958  0.1193  0.3063
 2057SOL    HW2 7994   1.459   4.672   1.014 -2.0737 -0.1071 -0.6838
 2057SOL    HW3 7995   1.571   4.726   0.928 -0.2998  0.6124  1.9555
 2057SOL    MW4 7996   1.505   4.670   0.940 -0.1964  0.7323  0.1814
 2058SOL     OW 7997   1.940   5.337   4.245  0.1708 -0.4429 -0.4788
 2058SOL    HW2 7998   1.919   5.283   4.320  0.4686 -0.4538 -0.4058
 2058SOL    HW3 7999   1.854   5.355   4.204 -0.0533  0.0531  0.1944
 2058SOL    MW4 8000   1.926   5.332   4.249 -0.1187  0.1879  0.3959
 2059SOL     OW 8001   4.664   1.896   3.397 -0.1533 -0.6184  0.6346
 2059SOL    HW2 8002   4.697   1.807   3.407 -1.9022 -1.8300 -2.6094
 2059SOL    HW3 8003   4.714   1.932   3.324 -0.0982  0.7289  1.3147
 2059SOL    MW4 8004   4.675   1.889   3.389 -0.1703 -0.3601  0.8042
 2060SOL     OW 8005   4.067   5.552   5.962 -0.6603  0.1035  0.1107
 2060SOL    HW2 8006   4.097   5.474   5.916  1.4270 -0.3853  2.1257
 2060SOL    HW3 8007   4.033   5.520   6.045 -2.7892  1.1112 -0.2910
 2060SOL    MW4 8008   4.067   5.538   5.967  0.9215  0.3894  0.3216
 2061SOL     OW 8009   0.562   1.207   5.465 -0.3699  0.6691  0.1005
 2061SOL    HW2 8010   0.616   1.129   5.465 -0.2921  0.7196 -0.3059
 2061SOL    HW3 8011   0.501   1.194   5.537  2.3633  2.1727  2.8967
 2061SOL    MW4 8012   0.561   1.195   5.474  0.0412  0.1398  0.0904
 2062SOL     OW 8013   2.985  -0.001   0.489  0.2134 -0.4614 -0.1919
 2062SOL    HW2 8014   3.024   0.085   0.500 -0.3083 -0.1819 -0.4446
 2062SOL    HW3 8015   3.042  -0.061   0.537 -0.8615  0.3882  2.3375
 2062SOL    MW4 8016   2.997   0.002   0.497 -0.3153 -0.3256 -0.4688
 2063SOL     OW 8017   6.323   2.060   2.268 -0.6160  0.2670  0.2867
 2063SOL    HW2 8018   6.276   2.143   2.273 -0.0894  0.5156  1.5887
 2063SOL    HW3 8019   6.316   2.033   2.176  0.3991  2.4582 -0.4975
 2063SOL    MW4 8020   6.316   2.067   2.257 -0.0911  0.1904 -0.2588
 2064SOL     OW 8021   5.031   1.437   1.223 -0.1481  0.3420 -0.2124
 2064SOL    HW2 8022   5.050   1.350   1.256 -1.3465 -0.1328 -0.7385
 2064SOL    HW3 8023   4.987   1.481   1.296  1.0295  0.7546  0.2828
 2064SOL    MW4 8024   5.028   1.432   1.237  0.1824 -0.0968  0.1873
 2065SOL     OW 8025   4.756   5.051   2.455 -0.3304 -0.2808 -0.1400
 2065SOL    HW2 8026   4.767   5.111   2.529  1.7621 -1.1646  0.3460
 2065SOL    HW3 8027   4.663   5.054   2.435 -0.7569  0.8562  1.7897
 2065SOL    MW4 8028   4.746   5.060   2.462 -0.4093  0.3494  0.2196
 2066SOL     OW 8029   1.210   3.270   5.295  0.2789  0.3145  0.6389
 2066SOL    HW2 8030   1.150   3.240   5.363 -1.1081  0.8396 -0.3168
 2066SOL    HW3 8031   1.153   3.299   5.223  1.6548  1.2726 -0.1145
 2066SOL    MW4 8032   1.195   3.270   5.295 -0.0265 -0.2859  0.3946
 2067SOL     OW 8033   6.041   6.155   0.755 -0.0540  0.8509  0.8235
 2067SOL    HW2 8034   6.046   6.178   0.848  0.1485  0.2864  0.9578
 2067SOL    HW3 8035   5.976   6.215   0.719  1.0567  2.1920  0.9833
 2067SOL    MW4 8036   6.033   6.166   0.763 -0.4541  0.2372  0.2554
 2068SOL     OW 8037   0.073   3.771   6.280  0.5382  0.3865  0.4772
 2068SOL    HW2 8038   0.028   3.689   6.256  2.4415 -0.3134 -0.9942
 2068SOL    HW3 8039   0.011   3.817   6.336 -1.4473 -1.1126 -0.3642
 2068SOL    MW4 8040   0.059   3.766   6.284 -0.4081  0.0719 -0.2677
 2069SOL     OW 8041   3.791   0.988   4.653  0.4325  0.3422  0.0652
 2069SOL    HW2 8042   3.750   0.902   4.656  0.2139  0.2773 -2.7334
 2069SOL    HW3 8043   3.732   1.046   4.701  0.5672 -0.9970  1.9455
 2069SOL    MW4 8044   3.778   0.985   4.660 -0.4757 -0.3760  0.1131
 2070SOL     OW 8045   4.265   2.264   5.510 -0.8790 -0.5433  0.2396
 2070SOL    HW2 8046   4.230   2.353   5.505 -1.2904 -0.6255  1.3511
 2070SOL    HW3 8047   4.358   2.274   5.492 -0.6086  0.3676  1.9363
 2070SOL    MW4 8048   4.272   2.277   5.507 -0.2705  0.1395  0.0363
 2071SOL     OW 8049   0.433   6.389   4.936  0.3133  0.0541 -0.0024
 2071SOL    HW2 8050   0.407   6.472   4.976  1.8035  0.4078  0.3139
 2071SOL    HW3 8051   0.449   6.330   5.010 -0.6586 -0.5015 -0.2245
 2071SOL    MW4 8052   0.432   6.392   4.951 -0.3360  0.0710  0.4723
 2072SOL     OW 8053   5.900   1.596   4.118  0.1398  0.7132  0.4677
 2072SOL    HW2 8054   5.973   1.594   4.056 -0.5133 -2.6969 -0.3979
 2072SOL    HW3 8055   5.938   1.632   4.198  2.7927 -0.7402 -0.0170
 2072SOL    MW4 8056   5.915   1.601   4.121  0.2538  0.1334  0.1776
 2073SOL     OW 8057   2.928   1.048   4.562  0.4921 -0.1804  0.0290
 2073SOL    HW2 8058   2.918   1.010   4.649 -0.7045  1.4290  0.6606
 2073SOL    HW3 8059   3.016   1.085   4.561  1.1664 -1.7255 -0.1196
 2073SOL    MW4 8060   2.938   1.048   4.573 -0.3006 -0.3506 -0.3786
 2074SOL     OW 8061   4.991   5.162   5.443 -0.2992 -0.1261 -0.4132
 2074SOL    HW2 8062   5.001   5.083   5.390 -1.4643 -0.2645 -0.4412
 2074SOL    HW3 8063   4.897   5.169   5.459 -0.3145  1.6386 -1.0066
 2074SOL    MW4 8064   4.980   5.153   5.438  0.0447 -0.4024 -0.0784
 2075SOL     OW 8065   3.665   4.726   4.660 -0.2211 -0.1299 -0.4021
 2075SOL    HW2 8066   3.708   4.660   4.606 -0.0724  0.1737 -0.6524
 2075SOL    HW3 8067   3.706   4.809   4.636 -0.0024 -0.0173  0.3241
 2075SOL    MW4 8068   3.676   4.728   4.650 -0.5283 -0.0844 -0.0284
 2076SOL     OW 8069   0.945   0.157   0.312  0.7332 -0.2734  0.3234
 2076SOL    HW2 8070   0.862   0.112   0.326  2.4800 -3.1136  2.9639
 2076SOL    HW3 8071   0.994   0.099   0.253  1.7605 -0.0199  0.8947
 2076SOL    MW4 8072   0.941   0.143   0.306 -0.4938 -0.1496 -0.4933
 2077SOL     OW 8073   1.048   2.869   3.706  0.1179 -0.6835  0.1879
 2077SOL    HW2 8074   1.113   2.908   3.765  1.2429 -1.6645 -0.3657
 2077SOL    HW3 8075   1.018   2.943   3.652  2.3864 -0.5546 -1.0147
 2077SOL    MW4 8076   1.053   2.884   3.706 -0.4947  0.1669 -0.2648
 2078SOL     OW 8077   4.919   0.134   1.936 -0.0326 -0.0246 -0.2594
 2078SOL    HW2 8078   4.863   0.141   2.013 -0.6629  0.2868 -0.7304
 2078SOL    HW3 8079   4.882   0.062   1.885 -1.4430  1.5778 -1.6711
 2078SOL    MW4 8080   4.907   0.126   1.939  0.1618  0.3542 -0.3617
 2079SOL     OW 8081   2.930   1.389   2.215  0.2777 -0.1381 -0.2350
 2079SOL    HW2 8082   2.931   1.295   2.231  0.4132  0.1722  1.8579
 2079SOL    HW3 8083   2.983   1.426   2.287 -0.5858  1.6040 -0.4465
 2079SOL    MW4 8084   2.937   1.382   2.227 -0.3073  0.5558  0.0716
 2080SOL     OW 8085   4.894   5.395   4.641  0.6234 -0.3202  0.2229
 2080SOL    HW2 8086   4.805   5.362   4.632  1.0366 -1.3987 -0.1548
 2080SOL    HW3 8087   4.944   5.348   4.574  2.0702 -2.0080  2.3219
 2080SOL    MW4 8088   4.889   5.384   4.631 -0.4712  0.5850  0.0006
 2081SOL     OW 8089   2.112   4.813   1.844  0.2619 -0.1978  0.2469
 2081SOL    HW2 8090   2.191   4.790   1.892 -0.9487  0.6023  2.7798
 2081SOL    HW3 8091   2.041   4.768   1.889 -0.8885 -0.0396 -1.2924
 2081SOL    MW4 8092   2.113   4.804   1.856  0.5633 -0.0168  0.3252
 2082SOL     OW 8093   0.460   4.274   4.485  0.2637  0.1255 -0.7889
 2082SOL    HW2 8094   0.535   4.304   4.433  0.9434  0.4662  0.3455
 2082SOL    HW3 8095   0.429   4.354   4.528 -0.1363 -0.1924 -0.4909
 2082SOL    MW4 8096   0.466   4.289   4.484  0.0866  0.4229  0.4553
 2083SOL     OW 8097   0.215   0.861   1.512 -0.3823  0.0084  0.1068
 2083SOL    HW2 8098   0.204   0.934   1.573 -1.0094 -0.4293  0.5297
 2083SOL    HW3 8099   0.152   0.879   1.442  0.1672  0.3860 -0.2932
 2083SOL    MW4 8100   0.205   0.873   1.511  0.6584  0.3040  0.5075
 2084SOL     OW 8101   4.207   1.105   3.762  0.0515  0.0823  0.2431
 2084SOL    HW2 8102   4.152   1.159   3.705 -0.6907 -1.7580 -0.9022
 2084SOL    HW3 8103   4.181   1.015   3.742  0.8128 -0.7154  2.4693
 2084SOL    MW4 8104   4.196   1.100   3.752 -0.2863 -0.1016 -0.5106
 2085SOL     OW 8105   2.558   1.223   5.885 -0.4822 -0.3775 -0.2978
 2085SOL    HW2 8106   2.645   1.236   5.848 -0.9089  0.6502 -0.9927
 2085SOL    HW3 8107   2.565   1.255   5.975 -0.4687  0.9864 -0.7635
 2085SOL    MW4 8108   2.570   1.229   5.892 -0.1615 -0.8211 -0.1509
 2086SOL     OW 8109   1.921   1.841   1.777  0.5927  0.6465  0.5517
 2086SOL    HW2 8110   2.010   1.817   1.749  0.3949  0.3544  0.1676
 2086SOL    HW3 8111   1.907   1.791   1.857  0.4507  0.0088  0.1416
 2086SOL    MW4 8112   1.931   1.831   1.784  0.2218 -0.3041 -0.1159
 2087SOL     OW 8113   0.326   5.851   3.193 -0.6216  0.1076  0.0254
 2087SOL    HW2 8114   0.273   5.914   3.241 -0.2596  1.3002 -1.0876
 2087SOL    HW3 8115   0.369   5.902   3.125 -2.1626 -1.6728 -2.4957
 2087SOL    MW4 8116   0.324   5.866   3.191  0.2668  0.3890 -0.4214
 2088SOL     OW 8117   0.790   2.786   1.029 -0.5999 -0.6299 -0.5290
 2088SOL    HW2 8118   0.749   2.739   1.102 -0.0902 -0.0331  0.1568
 2088SOL    HW3 8119   0.719   2.798   0.965 -0.7318 -2.3092 -0.7286
 2088SOL    MW4 8120   0.775   2.782   1.030 -0.1202 -0.8026 -0.8081
 2089SOL     OW 8121   4.483   0.522   0.048 -0.1663  0.1744 -0.1804
 2089SOL    HW2 8122   4.412   0.532   0.112 -0.6226  0.4263 -0.7174
 2089SOL    HW3 8123   4.561   0.553   0.095 -0.2289 -0.9237  0.7121
 2089SOL    MW4 8124   4.484   0.528   0.063 -0.3779 -0.1732  0.5174
 2090SOL     OW 8125   6.066   2.029   2.755 -0.3044 -0.1124  0.0515
 2090SOL    HW2 8126   6.092   2.005   2.666 -2.0250  0.4594 -0.6365
 2090SOL    HW3 8127   6.149   2.048   2.800  0.7142 -1.9143 -0.9464
 2090SOL    MW4 8128   6.081   2.028   2.749 -0.0663 -0.3703 -0.0687
 2091SOL     OW 8129   0.387   0.214   5.048  0.4312  0.2112 -0.2139
 2091SOL    HW2 8130   0.473   0.191   5.083  0.8953 -0.8675 -1.9597
 2091SOL    HW3 8131   0.325   0.186   5.116  1.4296  1.0008  1.0608
 2091SOL    MW4 8132   0.390   0.207   5.062  0.3342 -0.7194  0.5117
 2092SOL     OW 8133   4.387   1.326   2.285  0.3495 -0.2062 -0.2911
 2092SOL    HW2 8134   4.305   1.315   2.237 -1.1795  0.5040  1.9944
 2092SOL    HW3 8135   4.403   1.421   2.285 -1.2768  0.2189  2.8421
 2092SOL    MW4 8136   4.379   1.337   2.279 -0.5934  0.3880 -0.4636
 2093SOL     OW 8137   3.759   5.162   2.313  0.4946 -0.3127  0.3129
 2093SOL    HW2 8138   3.730   5.246   2.277 -0.5827 -0.3414  1.0440
 2093SOL    HW3 8139   3.847   5.150   2.278  0.3416  0.7066 -0.4988
 2093SOL    MW4 8140   3.766   5.172   2.303 -0.0995 -0.3662 -0.4630
 2094SOL     OW 8141   1.042   3.487   4.452 -0.1851  0.0377 -0.0390
 2094SOL    HW2 8142   1.048   3.446   4.539  4.0837  2.4676  1.1494
 2094SOL    HW3 8143   1.124   3.463   4.409  0.2113  2.9925 -1.2228
 2094SOL    MW4 8144   1.054   3.479   4.458  0.7567  0.3001  0.4221
 2095SOL     OW 8145   5.974   2.671   3.758 -0.5124  0.1618  0.2126
 2095SOL    HW2 8146   5.905   2.614   3.726 -0.7222  0.8345 -0.5504
 2095SOL    HW3 8147   6.029   2.614   3.812 -0.4272 -0.8802 -0.9481
 2095SOL    MW4 8148   5.972   2.656   3.761  0.0213 -0.4920 -0.5738
 2096SOL     OW 8149   6.394   3.780   0.288 -0.4056  0.3111 -0.7552
 2096SOL    HW2 8150   6.438   3.859   0.256  0.4609 -0.4718 -1.5931
 2096SOL    HW3 8151   6.387   3.792   0.382 -1.1011  1.7652 -0.9643
 2096SOL    MW4 8152   6.399   3.792   0.296  0.3725 -0.3968  0.5475
 2097SOL     OW 8153   5.708   4.732   4.308  0.6057 -0.8151 -0.2909
 2097SOL    HW2 8154   5.731   4.641   4.325 -1.0697 -1.4482 -1.1707
 2097SOL    HW3 8155   5.612   4.732   4.303  0.6206  0.8050 -1.2708
 2097SOL    MW4 8156   5.698   4.720   4.309 -0.0176 -0.4475 -0.3350
 2098SOL     OW 8157   4.446   4.498   0.674 -0.0783  0.0937 -0.6302
 2098SOL    HW2 8158   4.447   4.493   0.579 -2.0359 -0.7864 -0.6561
 2098SOL    HW3 8159   4.356   4.475   0.698  0.2197  0.8714  1.4016
 2098SOL    MW4 8160   4.434   4.494   0.665 -0.0824  0.3961  0.1108
 2099SOL     OW 8161   3.518   2.653   3.353  0.0996 -0.1516  0.2458
 2099SOL    HW2 8162   3.551   2.672   3.441 -0.7242 -1.3139  0.8432
 2099SOL    HW3 8163   3.513   2.738   3.310 -1.7257  0.8184  2.1406
 2099SOL    MW4 8164   3.522   2.667   3.359 -0.3908 -0.2003  0.0996
 2100SOL     OW 8165   1.812   6.146   3.924  0.2859  0.2651 -0.3448
 2100SOL    HW2 8166   1.888   6.094   3.950 -1.0531 -1.4559  0.3114
 2100SOL    HW3 8167   1.790   6.196   4.002 -0.7390 -1.1625  0.3300
 2100SOL    MW4 8168   1.819   6.145   3.937 -0.3300 -0.1711 -0.6514
 2101SOL     OW 8169   5.271   0.422   1.295  0.3685 -0.5268  0.1409
 2101SOL    HW2 8170   5.204   0.358   1.273 -0.1112  0.1293 -0.3715
 2101SOL    HW3 8171   5.269   0.428   1.391 -1.4489  0.6347  0.0863
 2101SOL    MW4 8172   5.262   0.414   1.305 -0.2723  0.0666  0.4516
 2102SOL     OW 8173   6.407   3.327   5.491  0.1963  0.2206 -0.0277
 2102SOL    HW2 8174   6.351   3.400   5.465  0.2189  0.3321  0.2260
 2102SOL    HW3 8175   6.400   3.264   5.420  0.3002  0.5403 -0.3266
 2102SOL    MW4 8176   6.399   3.329   5.479 -0.8947 -1.0823 -0.2024
 2103SOL     OW 8177   3.026   5.506   6.125 -0.0390 -0.0119  0.6986
 2103SOL    HW2 8178   3.049   5.414   6.115 -1.1955 -0.1609 -1.1596
 2103SOL    HW3 8179   3.103   5.553   6.093  0.8786 -0.2785  2.4272
 2103SOL    MW4 8180   3.039   5.500   6.120  0.6979 -0.2272 -0.3104
 2104SOL     OW 8181   0.178   3.532   2.710 -0.2096  0.2782  0.1799
 2104SOL    HW2 8182   0.169   3.527   2.805 -0.7312  0.0929  0.1256
 2104SOL    HW3 8183   0.099   3.578   2.680  0.3505  1.0699 -0.0965
 2104SOL    MW4 8184   0.166   3.537   2.718  0.0358  0.2422 -0.4717
 2105SOL     OW 8185   1.975   0.417   3.973  0.0016 -0.1160  0.1784
 2105SOL    HW2 8186   1.925   0.470   3.911 -2.3426 -1.0034  1.1740
 2105SOL    HW3 8187   1.936   0.329   3.966  1.0545 -0.7221  1.4494
 2105SOL    MW4 8188   1.963   0.412   3.964  0.0589  0.5553  0.1617
 2106SOL     OW 8189   6.349   5.869   3.610  0.0654  0.4307 -0.2404
 2106SOL    HW2 8190   6.366   5.830   3.696 -0.1663 -3.0133 -1.6207
 2106SOL    HW3 8191   6.259   5.846   3.589 -0.3710  2.4535 -0.8978
 2106SOL    MW4 8192   6.340   5.861   3.618 -0.3058 -0.3195 -0.1838
 2107SOL     OW 8193   0.043   4.219   6.073 -0.8071 -0.2085  0.5195
 2107SOL    HW2 8194  -0.018   4.232   6.146 -1.1877  2.2798 -0.1517
 2107SOL    HW3 8195  -0.007   4.243   5.995  0.6838  0.8182 -0.1731
 2107SOL    MW4 8196   0.028   4.224   6.072 -0.3287  0.2741  0.3943
 2108SOL     OW 8197   3.388   2.282   1.323  0.1228  0.1284  0.1611
 2108SOL    HW2 8198   3.378   2.376   1.310  1.8223  0.7494  2.4985
 2108SOL    HW3 8199   3.450   2.275   1.396 -1.0798 -2.7918  1.0423
 2108SOL    MW4 8200   3.395   2.293   1.331  0.3064  0.1648  0.3254
 2109SOL     OW 8201   0.406   4.831   0.271 -0.1958 -0.4950  0.4960
 2109SOL    HW2 8202   0.363   4.915   0.276 -0.5523 -0.6810  0.5680
 2109SOL    HW3 8203   0.346   4.776   0.221  0.2538 -0.5695  0.0365
 2109SOL    MW4 8204   0.393   4.834   0.265  0.0501  0.0161 -0.1817
 2110SOL     OW 8205   4.619   3.215   1.891  0.0306  0.2522  0.4919
 2110SOL    HW2 8206   4.551   3.155   1.923 -1.7795  2.7402  1.6392
 2110SOL    HW3 8207   4.617   3.288   1.952  4.0125  0.3782  0.7125
 2110SOL    MW4 8208   4.609   3.217   1.903  0.4996 -0.6286 -0.5041
 2111SOL     OW 8209   3.318   1.768   5.857  0.3020  0.4782 -0.3040
 2111SOL    HW2 8210   3.360   1.724   5.783  2.9336  1.8280  0.2840
 2111SOL    HW3 8211   3.263   1.836   5.816  1.0042  0.6143 -1.0457
 2111SOL    MW4 8212   3.316   1.771   5.842  0.0189  0.3938  0.4381
 2112SOL     OW 8213   4.345   6.316   5.888 -0.1923 -0.2786 -0.0735
 2112SOL    HW2 8214   4.435   6.295   5.913  0.2034  0.9703 -0.3436
 2112SOL    HW3 8215   4.293   6.246   5.925  0.6837 -0.0010  1.8329
 2112SOL    MW4 8216   4.350   6.304   5.896  0.2658 -0.2205 -0.4956
 2113SOL     OW 8217   4.143   6.285   1.598  0.4136 -0.2345  0.0892
 2113SOL    HW2 8218   4.090   6.247   1.528  0.2087  0.8540 -0.3638
 2113SOL    HW3 8219   4.109   6.374   1.608  1.6703  0.2483  0.2781
 2113SOL    MW4 8220   4.132   6.292   1.590  0.0499  0.1466 -0.0245
 2114SOL     OW 8221   0.514   5.518   4.862 -0.6902 -0.0779  0.4470
 2114SOL    HW2 8222   0.565   5.564   4.929 -0.2582  1.8260 -1.1062
 2114SOL    HW3 8223   0.564   5.438   4.845 -0.4415 -0.2520  1.8750
 2114SOL    MW4 8224   0.528   5.514   4.869 -0.0670  0.0227  0.0584
 2115SOL     OW 8225   4.334   6.110   4.651 -0.0920  0.6477  0.3751
 2115SOL    HW2 8226   4.340   6.201   4.622 -0.3110 -0.0474 -2.1100
 2115SOL    HW3 8227   4.424   6.076   4.643 -0.0107  0.6199  1.2869
 2115SOL    MW4 8228   4.347   6.117   4.646 -0.0407 -0.8166 -0.3463
 2116SOL     OW 8229   1.839   2.745   3.524  0.1351 -0.0728  0.3052
 2116SOL    HW2 8230   1.881   2.814   3.576  1.2768  0.5486 -1.3390
 2116SOL    HW3 8231   1.841   2.778   3.434 -2.6600 -0.6570 -0.0822
 2116SOL    MW4 8232   1.845   2.758   3.519 -0.2981  0.2149  0.6006
 2117SOL     OW 8233   4.224   3.297   1.400  0.1817 -0.5281  0.1855
 2117SOL    HW2 8234   4.269   3.230   1.452 -0.9084 -2.3771 -1.1139
 2117SOL    HW3 8235   4.174   3.247   1.335 -2.0064  1.5031  0.1666
 2117SOL    MW4 8236   4.223   3.281   1.398  0.1676  0.4043 -0.1512
 2118SOL     OW 8237   0.237   5.586   4.870  0.5666 -0.9570 -0.1996
 2118SOL    HW2 8238   0.331   5.603   4.874  0.2738  0.8652 -0.4347
 2118SOL    HW3 8239   0.200   5.636   4.943 -0.3698 -0.4502 -0.9884
 2118SOL    MW4 8240   0.244   5.595   4.880  0.4498 -0.1973 -0.7373
 2119SOL     OW 8241   4.760   2.795   6.061  0.3790 -0.2350  0.4344
 2119SOL    HW2 8242   4.685   2.766   6.009  0.2879  1.0647 -0.2139
 2119SOL    HW3 8243   4.752   2.891   6.063  0.9252 -0.1915  2.0458
 2119SOL    MW4 8244   4.749   2.804   6.054  0.1980  0.4292 -1.0092
 2120SOL     OW 8245   1.549   2.712   6.240 -0.1505  0.2195  0.1331
 2120SOL    HW2 8246   1.559   2.627   6.196  1.8001  0.8254 -0.7179
 2120SOL    HW3 8247   1.526   2.773   6.169 -1.4120  0.4397  0.7175
 2120SOL    MW4 8248   1.547   2.709   6.225 -0.4035  0.1807  0.4256
 2121SOL     OW 8249   5.343   1.242   5.664  0.4055  0.3589  0.2494
 2121SOL    HW2 8250   5.392   1.301   5.607 -0.8166 -0.4223 -1.6859
 2121SOL    HW3 8251   5.262   1.288   5.683 -0.6074 -0.6624 -1.3669
 2121SOL    MW4 8252   5.339   1.256   5.659  0.1049  0.2872  0.3409
 2122SOL     OW 8253   1.830   3.632   4.815  0.5313  0.4987  0.1230
 2122SOL    HW2 8254   1.816   3.588   4.731  0.3657 -1.5807  1.1791
 2122SOL    HW3 8255   1.783   3.716   4.806  0.7262  0.4462 -1.9074
 2122SOL    MW4 8256   1.822   3.638   4.802  0.1175  0.1255 -0.4880
 2123SOL     OW 8257   5.615   5.238   3.033 -0.0252 -0.1065  0.1041
 2123SOL    HW2 8258   5.567   5.158   3.013 -0.5482  0.0078  0.8548
 2123SOL    HW3 8259   5.707   5.214   3.022 -0.1969 -0.6714 -0.1563
 2123SOL    MW4 8260   5.621   5.224   3.029  0.0616 -0.2189 -0.0682
 2124SOL     OW 8261   5.174   4.446   0.534  0.0137 -0.3210 -0.7484
 2124SOL    HW2 8262   5.230   4.412   0.464  0.3420 -0.8838 -0.2145
 2124SOL    HW3 8263   5.137   4.368   0.576  0.1073  0.0052 -0.0537
 2124SOL    MW4 8264   5.176   4.431   0.530 -0.0205  0.2377 -0.4070
 2125SOL     OW 8265   1.870   6.178   0.399 -0.4332 -0.3204 -0.5747
 2125SOL    HW2 8266   1.930   6.241   0.358 -1.8833  0.3447 -1.7755
 2125SOL    HW3 8267   1.788   6.226   0.407 -0.7280 -1.0522  1.4909
 2125SOL    MW4 8268   1.867   6.193   0.395 -0.2193 -0.0722 -0.3811
 2126SOL     OW 8269   1.595   4.482   0.076  0.1581  0.1230  0.3222
 2126SOL    HW2 8270   1.674   4.480   0.022  0.1011 -1.4514  0.2710
 2126SOL    HW3 8271   1.534   4.424   0.032 -0.2638 -0.3680  1.5075
 2126SOL    MW4 8272   1.598   4.474   0.063 -0.1740  0.5523  0.1207
 2127SOL     OW 8273   6.253   3.414   0.242 -0.5161 -0.5564 -0.1995
 2127SOL    HW2 8274   6.345   3.440   0.235 -0.4751 -0.6931 -0.1855
 2127SOL    HW3 8275   6.211   3.454   0.166 -0.6332  0.2761  0.2924
 2127SOL    MW4 8276   6.259   3.423   0.231  0.0255  0.0372 -0.2672
 2128SOL     OW 8277   1.487   6.013   0.587  0.0992  0.1179  0.0374
 2128SOL    HW2 8278   1.462   5.921   0.587  1.0489 -0.1673 -1.0301
 2128SOL    HW3 8279   1.435   6.052   0.657 -0.4199 -1.1950  0.4199
 2128SOL    MW4 8280   1.477   6.006   0.596 -0.4092 -0.0259  0.0655
 2129SOL     OW 8281   4.089   3.382   0.259  0.0277  0.1483  0.0041
 2129SOL    HW2 8282   4.002   3.398   0.222 -0.2863  0.3910  0.8119
 2129SOL    HW3 8283   4.124   3.309   0.209 -0.7639 -0.1394 -0.1441
 2129SOL    MW4 8284   4.082   3.374   0.248  0.0186 -0.2453 -0.0430
 2130SOL     OW 8285   4.740   2.228   0.654  0.0011 -0.2875 -0.0664
 2130SOL    HW2 8286   4.670   2.165   0.673 -0.4504  0.3602  0.4469
 2130SOL    HW3 8287   4.818   2.174   0.639 -0.2027 -0.9407  1.1302
 2130SOL    MW4 8288   4.741   2.213   0.655  0.2029 -0.1424 -0.1880
 2131SOL     OW 8289   0.138   4.972   0.086  0.2126 -0.2469  0.2468
 2131SOL    HW2 8290   0.100   5.014   0.163  0.2989 -1.3156  0.8791
 2131SOL    HW3 8291   0.210   5.031   0.061  0.9717 -0.5034  1.7226
 2131SOL    MW4 8292   0.142   4.986   0.093  0.2292 -0.0730 -0.5277
 2132SOL     OW 8293   4.084   4.381   1.347  0.0595  0.1771 -0.1985
 2132SOL    HW2 8294   4.119   4.414   1.264 -2.7328  2.3000 -0.6915
 2132SOL    HW3 8295   4.003   4.337   1.322  1.3487 -3.2603  1.0341
 2132SOL    MW4 8296   4.078   4.379   1.332  0.3066 -0.0701 -0.1809
 2133SOL     OW 8297   6.083   0.714   5.791 -0.5231 -0.3383 -0.6986
 2133SOL    HW2 8298   6.102   0.746   5.879  0.7057 -1.4798 -0.5253
 2133SOL    HW3 8299   6.100   0.789   5.734 -2.4862  0.7890  0.0878
 2133SOL    MW4 8300   6.088   0.728   5.795 -0.3281  0.3139 -0.1948
 2134SOL     OW 8301   0.752   5.513   4.303  0.0332  0.1232  0.5654
 2134SOL    HW2 8302   0.847   5.522   4.307  0.0151  0.2280  0.7989
 2134SOL    HW3 8303   0.724   5.581   4.241  0.2359 -0.8685 -0.6449
 2134SOL    MW4 8304   0.761   5.523   4.296 -0.6189 -0.2792 -0.0111
 2135SOL     OW 8305   1.746   5.040   1.526 -0.2142  0.4436  0.0083
 2135SOL    HW2 8306   1.822   5.012   1.475 -0.5483  1.9072 -1.3662
 2135SOL    HW3 8307   1.744   5.135   1.517 -1.8845  0.4941  0.4920
 2135SOL    MW4 8308   1.756   5.049   1.518 -0.3748 -0.0864 -0.0213
 2136SOL     OW 8309   1.903   3.476   6.175  0.2732 -0.3870  0.1637
 2136SOL    HW2 8310   1.811   3.492   6.196  0.1749  0.7789 -0.9848
 2136SOL    HW3 8311   1.918   3.525   6.094  1.4704 -1.9175 -0.5936
 2136SOL    MW4 8312   1.893   3.485   6.167  0.0498 -0.1198  0.1918
 2137SOL     OW 8313   3.927   0.377   4.507 -0.2064 -0.3219 -0.1866
 2137SOL    HW2 8314   3.837   0.372   4.537  0.1895  0.2784  1.1793
 2137SOL    HW3 8315   3.976   0.320   4.567  0.1320 -1.9191 -1.8754
 2137SOL    MW4 8316   3.922   0.369   4.519 -0.2355  0.2417  0.0693
 2138SOL     OW 8317   2.924   3.430   0.709 -0.4011 -0.3273 -0.7016
 2138SOL    HW2 8318   2.851   3.405   0.653 -2.2318  1.9843  0.4971
 2138SOL    HW3 8319   2.983   3.478   0.651 -2.1715  1.8607 -0.8427
 2138SOL    MW4 8320   2.922   3.433   0.694  0.6753  0.0329 -0.7546
 2139SOL     OW 8321   2.408   6.406   3.326  0.0478  0.6124  0.3978
 2139SOL    HW2 8322   2.462   6.371   3.255  0.1422  2.2779 -0.3797
 2139SOL    HW3 8323   2.468   6.459   3.378 -0.2390  0.1865  1.1807
 2139SOL    MW4 8324   2.423   6.408   3.324  0.1707 -0.2946  0.3231
 2140SOL     OW 8325   1.206   0.974   3.421  0.2128  0.0528 -1.5343
 2140SOL    HW2 8326   1.177   0.981   3.512  2.1739  0.1790 -0.8843
 2140SOL    HW3 8327   1.135   1.014   3.370 -0.1494  1.5824  0.0866
 2140SOL    MW4 8328   1.192   0.980   3.426  0.5685 -0.1486  0.0772
 2141SOL     OW 8329   6.300   1.612   4.965  0.1033 -0.5113 -0.2154
 2141SOL    HW2 8330   6.391   1.598   4.936  1.2880  4.3392  0.2827
 2141SOL    HW3 8331   6.292   1.560   5.045  1.8892 -2.1767 -1.0282
 2141SOL    MW4 8332   6.311   1.603   4.971 -0.1943 -0.3958 -0.1191
 2142SOL     OW 8333   1.133   2.715   4.306  0.8011 -0.6218  0.5745
 2142SOL    HW2 8334   1.136   2.620   4.319 -0.1466 -0.9432 -1.2323
 2142SOL    HW3 8335   1.122   2.726   4.212 -1.5915  1.2055  0.9563
 2142SOL    MW4 8336   1.132   2.704   4.295 -0.3538 -0.0198 -0.1330
 2143SOL     OW 8337   0.930   4.208   5.156  0.1185  0.2727 -0.6319
 2143SOL    HW2 8338   0.923   4.116   5.184 -0.1867  0.6026  0.3858
 2143SOL    HW3 8339   0.860   4.218   5.092 -0.3924  0.0184 -0.1252
 2143SOL    MW4 8340   0.920   4.197   5.151 -0.7242  0.2320  0.6063
 2144SOL     OW 8341   3.513   2.949   2.192  0.3896  0.1915  0.0498
 2144SOL    HW2 8342   3.543   2.997   2.269 -0.7909  0.0062  0.6442
 2144SOL    HW3 8343   3.487   2.863   2.225  0.7016 -0.2086 -0.7084
 2144SOL    MW4 8344   3.514   2.944   2.206  0.4342  0.1693  0.0122
 2145SOL     OW 8345   5.944   4.817   4.102 -0.1518 -0.9193  0.2870
 2145SOL    HW2 8346   5.953   4.893   4.043 -0.2015 -0.9754  0.2069
 2145SOL    HW3 8347   5.876   4.843   4.164  0.5437 -0.5020  0.8815
 2145SOL    MW4 8348   5.936   4.831   4.102  0.3135 -0.1149 -0.2737
 2146SOL     OW 8349   5.587   6.019   6.107  0.0307  0.4194  0.1323
 2146SOL    HW2 8350   5.628   6.102   6.131 -0.7939 -0.0578  3.7652
 2146SOL    HW3 8351   5.655   5.953   6.122 -0.6285  0.0697  1.8826
 2146SOL    MW4 8352   5.601   6.021   6.112  0.3457  0.4257 -0.3975
 2147SOL     OW 8353   4.735   5.841   0.918 -0.0246  0.0707 -0.0294
 2147SOL    HW2 8354   4.822   5.819   0.951  0.1736  0.2643 -0.4261
 2147SOL    HW3 8355   4.685   5.862   0.997  0.6162  1.1451  0.1145
 2147SOL    MW4 8356   4.740   5.841   0.933 -0.1140  0.9131 -0.1462
 2148SOL     OW 8357   2.212   4.863   2.486 -0.2412 -0.2934 -0.3525
 2148SOL    HW2 8358   2.187   4.799   2.420  0.2146 -0.1061 -0.7145
 2148SOL    HW3 8359   2.291   4.827   2.526  0.4676  0.3834 -1.0859
 2148SOL    MW4 8360   2.219   4.850   2.483  1.2953 -0.5034  0.5479
 2149SOL     OW 8361   5.141   0.157   4.117  0.1014  0.4701  0.1915
 2149SOL    HW2 8362   5.229   0.147   4.080  0.3363 -0.1796  0.9066
 2149SOL    HW3 8363   5.137   0.092   4.187 -0.9346  0.5345  0.1974
 2149SOL    MW4 8364   5.152   0.147   4.122  0.3872  0.0944  0.4317
 2150SOL     OW 8365   2.178   3.020   2.906 -0.3121  0.3125 -0.1427
 2150SOL    HW2 8366   2.273   3.018   2.896 -0.2156 -1.2826  0.8120
 2150SOL    HW3 8367   2.144   2.990   2.822  0.0829 -0.2494 -0.1084
 2150SOL    MW4 8368   2.186   3.016   2.894 -0.0401 -0.7756 -0.2933
 2151SOL     OW 8369   4.096   5.726   5.145 -0.3096  0.1919  0.2710
 2151SOL    HW2 8370   4.084   5.820   5.149  0.2990  0.2576  0.6332
 2151SOL    HW3 8371   4.008   5.690   5.157 -0.8426  0.7366 -1.6456
 2151SOL    MW4 8372   4.083   5.733   5.147 -0.2782  0.6751 -0.1098
 2152SOL     OW 8373   3.187   4.699   4.525  0.7761  0.1484 -0.6087
 2152SOL    HW2 8374   3.152   4.714   4.613  0.9026 -1.7779 -0.1836
 2152SOL    HW3 8375   3.162   4.609   4.505  2.6412 -0.1690 -1.6701
 2152SOL    MW4 8376   3.179   4.689   4.534 -0.1715 -0.0299  0.2954
 2153SOL     OW 8377   5.923   3.974   5.262 -0.0750 -0.1009 -0.4939
 2153SOL    HW2 8378   5.976   4.026   5.322 -0.8192  1.4046 -1.0888
 2153SOL    HW3 8379   5.974   3.973   5.181  0.0644 -0.5567 -0.4039
 2153SOL    MW4 8380   5.937   3.981   5.259  0.2238  0.2087  0.1157
 2154SOL     OW 8381   5.769   2.941   0.773  0.4893 -0.7297 -0.4132
 2154SOL    HW2 8382   5.738   3.026   0.742 -1.0188 -0.6969  1.0711
 2154SOL    HW3 8383   5.786   2.891   0.692 -0.2491  0.3975 -1.2890
 2154SOL    MW4 8384   5.767   2.945   0.758 -0.2185  0.3991  0.4477
 2155SOL     OW 8385   6.330   0.858   2.605  0.0009  0.8631  0.1557
 2155SOL    HW2 8386   6.342   0.934   2.663  4.0901 -0.1210  0.9046
 2155SOL    HW3 8387   6.368   0.785   2.653  0.9724 -0.5873 -2.6167
 2155SOL    MW4 8388   6.337   0.858   2.619  0.0582  0.1001 -0.1457
 2156SOL     OW 8389   5.263   6.385   6.311 -0.0444 -0.0822 -0.1348
 2156SOL    HW2 8390   5.204   6.461   6.311  0.2946  0.1919  0.6275
 2156SOL    HW3 8391   5.243   6.339   6.229 -1.8940 -0.4701  0.4986
 2156SOL    MW4 8392   5.253   6.389   6.300 -0.4139  0.0279  0.6351
 2157SOL     OW 8393   3.119   0.093  -0.004  0.2638 -0.3655 -0.2385
 2157SOL    HW2 8394   3.024   0.103  -0.005  0.2452 -0.5920 -1.2993
 2157SOL    HW3 8395   3.136   0.038   0.073 -0.5201 -0.8373 -0.3862
 2157SOL    MW4 8396   3.108   0.087   0.006  0.0324  0.2359  0.2319
 2158SOL     OW 8397   3.899   5.502   4.399  0.2351 -0.6980  0.5096
 2158SOL    HW2 8398   3.877   5.411   4.416 -0.2287 -0.4426  1.3689
 2158SOL    HW3 8399   3.928   5.536   4.484 -0.5104  0.2002  0.4249
 2158SOL    MW4 8400   3.900   5.495   4.412 -0.4231  0.3274  0.7424
 2159SOL     OW 8401   2.601   1.701   3.654 -0.5382  0.3035  0.0824
 2159SOL    HW2 8402   2.673   1.711   3.716 -0.0518  0.2846 -0.4752
 2159SOL    HW3 8403   2.558   1.786   3.652  0.0077  0.5716 -0.2471
 2159SOL    MW4 8404   2.605   1.713   3.662  0.1939 -0.3340  0.0893
 2160SOL     OW 8405   3.923   5.163   6.275 -0.2024 -0.1033  0.0266
 2160SOL    HW2 8406   3.910   5.160   6.370 -3.0249 -1.0694 -0.2845
 2160SOL    HW3 8407   3.989   5.097   6.257  0.6862  0.3924  1.3380
 2160SOL    MW4 8408   3.930   5.154   6.285 -0.3668 -0.4457 -0.0617
 2161SOL     OW 8409   6.342   3.014   2.039 -0.7034  0.9279 -0.3971
 2161SOL    HW2 8410   6.359   3.106   2.023 -2.3661  1.3511  0.0781
 2161SOL    HW3 8411   6.247   3.008   2.051 -0.5642 -0.7386  0.2465
 2161SOL    MW4 8412   6.332   3.025   2.038  0.1318 -0.0137 -0.1444
 2162SOL     OW 8413   5.487   4.239   3.143 -0.2102  0.3806  0.1227
 2162SOL    HW2 8414   5.475   4.333   3.130 -1.0192  0.0547 -1.9468
 2162SOL    HW3 8415   5.444   4.199   3.067  1.5517 -1.6033  0.0840
 2162SOL    MW4 8416   5.480   4.246   3.131  0.3678  0.6088 -0.5328
 2163SOL     OW 8417   3.789   3.677   0.396 -0.0115  0.1805  0.1365
 2163SOL    HW2 8418   3.719   3.708   0.453 -0.9811 -0.3483 -0.7360
 2163SOL    HW3 8419   3.868   3.684   0.449 -0.9903 -1.1381  1.8440
 2163SOL    MW4 8420   3.790   3.682   0.410  0.2555 -0.2020 -0.2494
 2164SOL     OW 8421   6.087   1.399   4.260  0.2067  0.1614  0.0916
 2164SOL    HW2 8422   6.084   1.467   4.193  0.5559 -0.4586 -0.5703
 2164SOL    HW3 8423   6.034   1.327   4.225 -0.8117  0.3781  1.1283
 2164SOL    MW4 8424   6.080   1.398   4.246 -0.4876  0.1452  0.2390
 2165SOL     OW 8425   2.236   0.321   5.667  0.0032  0.3952  0.5381
 2165SOL    HW2 8426   2.319   0.299   5.624 -1.0331 -1.6285 -0.5790
 2165SOL    HW3 8427   2.252   0.303   5.760  0.9713  0.5772  0.4223
 2165SOL    MW4 8428   2.249   0.315   5.674 -0.0671 -0.4157 -0.0753
 2166SOL     OW 8429   2.332   6.279   2.232 -0.4197 -0.1940  0.5062
 2166SOL    HW2 8430   2.420   6.313   2.249 -0.2521  0.1528 -0.8993
 2166SOL    HW3 8431   2.296   6.261   2.319  1.4624 -1.4661  1.0953
 2166SOL    MW4 8432   2.339   6.281   2.246 -0.5267 -0.0775  0.9568
 2167SOL     OW 8433   2.173   0.838   4.556 -0.1426  0.1205 -0.1070
 2167SOL    HW2 8434   2.142   0.903   4.619 -0.8494 -0.5318  0.2336
 2167SOL    HW3 8435   2.150   0.754   4.595 -0.8833 -0.2923 -1.3846
 2167SOL    MW4 8436   2.166   0.836   4.570  0.2040  0.2199 -0.3884
 2168SOL     OW 8437   1.105   1.583   3.823 -0.0433  0.1325 -0.0454
 2168SOL    HW2 8438   1.159   1.571   3.745 -1.9286  1.3437 -1.5986
 2168SOL    HW3 8439   1.162   1.631   3.884  2.1435 -2.5541  0.2109
 2168SOL    MW4 8440   1.120   1.588   3.821 -0.2899  0.0337  0.1621
 2169SOL     OW 8441   6.141   0.105   5.818 -0.2287  0.4472  0.0590
 2169SOL    HW2 8442   6.093   0.024   5.802  1.9813 -1.3170  1.7308
 2169SOL    HW3 8443   6.210   0.106   5.753  0.1869  0.6010  0.4929
 2169SOL    MW4 8444   6.143   0.095   5.808  0.4924 -0.0609 -0.2522
 2170SOL     OW 8445   2.392   2.488   3.736  0.1662 -0.5995 -0.1039
 2170SOL    HW2 8446   2.384   2.393   3.732  0.0795 -0.5804 -0.4270
 2170SOL    HW3 8447   2.433   2.512   3.653 -1.1166 -0.2251 -0.6611
 2170SOL    MW4 8448   2.396   2.479   3.725 -0.1877  0.0987  0.1770
 2171SOL     OW 8449   1.158   0.854   2.659 -0.1943 -0.5480 -0.2648
 2171SOL    HW2 8450   1.116   0.777   2.697 -0.5689 -0.4610 -0.4972
 2171SOL    HW3 8451   1.252   0.835   2.663 -0.1327 -0.0389  1.8185
 2171SOL    MW4 8452   1.165   0.841   2.665  0.1511  0.0989 -0.1567
 2172SOL     OW 8453   2.639   0.156   0.768  0.4156  0.1365  0.0844
 2172SOL    HW2 8454   2.733   0.173   0.760  0.6253  0.1722  2.0351
 2172SOL    HW3 8455   2.630   0.061   0.759  0.8817 -0.0638  1.4794
 2172SOL    MW4 8456   2.650   0.146   0.766  0.3846  0.3258  0.0821
 2173SOL     OW 8457   0.713   3.104   3.762  0.0509  0.2452 -0.1739
 2173SOL    HW2 8458   0.716   3.197   3.784 -0.2770 -0.5267  3.9710
 2173SOL    HW3 8459   0.620   3.085   3.754  0.0931  0.1526 -0.4451
 2173SOL    MW4 8460   0.701   3.114   3.763 -0.1857 -0.1776 -0.2582
 2174SOL     OW 8461   0.431   2.390   1.773  0.0699  0.0618  0.4019
 2174SOL    HW2 8462   0.432   2.444   1.694  2.2384  1.6462  1.4098
 2174SOL    HW3 8463   0.348   2.413   1.815  0.0182  1.0973 -0.2103
 2174SOL    MW4 8464   0.420   2.400   1.768 -0.3678  0.3709 -0.2234
 2175SOL     OW 8465   4.376   5.101   6.210 -0.1500  0.0664 -0.2762
 2175SOL    HW2 8466   4.382   5.131   6.301  1.7271 -1.4086  0.1627
 2175SOL    HW3 8467   4.292   5.056   6.205  0.3567 -1.1076  1.1771
 2175SOL    MW4 8468   4.366   5.099   6.221  0.1607  0.4098 -0.5062
 2176SOL     OW 8469   2.598   0.811   1.714  0.0623 -0.2609  0.0334
 2176SOL    HW2 8470   2.676   0.855   1.681  0.2832 -1.0785 -0.5930
 2176SOL    HW3 8471   2.525   0.859   1.674  0.3108 -0.7716 -1.0839
 2176SOL    MW4 8472   2.598   0.823   1.704  0.2537 -0.1784  0.3040
 2177SOL     OW 8473   4.537   3.173   1.243 -0.3647 -0.7576 -0.4655
 2177SOL    HW2 8474   4.632   3.168   1.231 -0.0888  0.9051  0.6797
 2177SOL    HW3 8475   4.501   3.158   1.156  0.9585 -1.1034 -0.9797
 2177SOL    MW4 8476   4.545   3.171   1.230  0.0838  0.2551  0.4884
 2178SOL     OW 8477   1.937   4.032   0.357 -0.1506  0.3681 -0.3257
 2178SOL    HW2 8478   1.923   3.948   0.315 -0.1803  0.2616 -0.1023
 2178SOL    HW3 8479   1.930   4.014   0.451 -3.0563  1.1073 -0.2999
 2178SOL    MW4 8480   1.934   4.019   0.364 -0.4356  0.7097  0.9220
 2179SOL     OW 8481   4.187   3.763   1.028  0.4446 -0.3159  0.5425
 2179SOL    HW2 8482   4.142   3.746   1.110  0.3561  1.9561  1.0216
 2179SOL    HW3 8483   4.265   3.709   1.031  0.3061 -0.4552  2.0008
 2179SOL    MW4 8484   4.191   3.754   1.039 -0.1915  0.1106 -0.4986
 2180SOL     OW 8485   3.835   4.304   2.462 -0.9127  0.3144 -0.2094
 2180SOL    HW2 8486   3.808   4.395   2.450 -3.4006 -0.3341 -0.1000
 2180SOL    HW3 8487   3.769   4.253   2.414  0.2362 -1.4597 -0.0037
 2180SOL    MW4 8488   3.822   4.309   2.454 -0.4665  0.4946 -0.0456
 2181SOL     OW 8489   6.054   4.199   2.963  0.3963 -0.4102 -0.1347
 2181SOL    HW2 8490   6.062   4.278   2.909 -0.3057 -0.5708 -0.4995
 2181SOL    HW3 8491   5.970   4.211   3.008 -1.0012 -2.0562 -2.1058
 2181SOL    MW4 8492   6.044   4.211   2.962 -0.1443  0.1069 -0.1867
 2182SOL     OW 8493   5.356   3.610   1.538  0.3773  0.4944 -0.1397
 2182SOL    HW2 8494   5.343   3.520   1.569 -0.0701  0.5490 -0.1645
 2182SOL    HW3 8495   5.433   3.641   1.586  1.1503 -0.2417 -0.8580
 2182SOL    MW4 8496   5.364   3.602   1.548  0.0928  0.2756 -0.1594
 2183SOL     OW 8497   1.904   0.306   1.403 -0.2882 -0.2804  0.1463
 2183SOL    HW2 8498   1.994   0.289   1.377 -0.8240 -0.1873 -1.9501
 2183SOL    HW3 8499   1.861   0.220   1.399 -0.6445 -0.0808 -0.3851
 2183SOL    MW4 8500   1.910   0.292   1.399  0.6051 -0.4666 -0.0272
 2184SOL     OW 8501   3.797   3.649   3.759 -0.1984  0.5478  0.1124
 2184SOL    HW2 8502   3.797   3.554   3.765 -0.9212  0.5087 -0.3752
 2184SOL    HW3 8503   3.888   3.674   3.779 -0.3029 -0.1289  1.5622
 2184SOL    MW4 8504   3.809   3.640   3.762 -0.5171  0.1438  0.2343
 2185SOL     OW 8505   3.916   1.341   3.999  0.2348  0.3237 -0.1868
 2185SOL    HW2 8506   3.885   1.281   4.066  1.4183 -0.3131 -0.1766
 2185SOL    HW3 8507   4.006   1.314   3.982 -0.2968 -0.1627 -2.7374
 2185SOL    MW4 8508   3.924   1.330   4.005 -0.1878  0.2262  0.0099
 2186SOL     OW 8509   1.469   3.354   0.618  0.7413 -0.0053  0.7084
 2186SOL    HW2 8510   1.421   3.329   0.696  0.7015  0.0355  0.6968
 2186SOL    HW3 8511   1.432   3.438   0.592 -2.0444 -1.7750 -1.6574
 2186SOL    MW4 8512   1.458   3.362   0.625 -0.3839 -0.3428  0.0862
 2187SOL     OW 8513   0.082   2.931   0.131 -0.2418 -0.4653  0.0585
 2187SOL    HW2 8514   0.176   2.912   0.134 -0.6888 -2.8739  0.5100
 2187SOL    HW3 8515   0.072   3.012   0.181  1.4306 -0.9327  1.2171
 2187SOL    MW4 8516   0.093   2.939   0.138  0.4143 -0.4590 -0.5180
 2188SOL     OW 8517   2.443   1.682   6.420  0.5823 -0.4080  0.1513
 2188SOL    HW2 8518   2.454   1.668   6.514 -0.2424 -0.2816  0.2699
 2188SOL    HW3 8519   2.409   1.599   6.387  3.0974 -1.2982 -0.4563
 2188SOL    MW4 8520   2.440   1.669   6.428  0.0877 -0.0177  0.0014
 2189SOL     OW 8521   5.829   4.292   0.450  0.1950 -0.4472 -0.0215
 2189SOL    HW2 8522   5.742   4.270   0.419 -0.1122  0.9797 -0.2697
 2189SOL    HW3 8523   5.888   4.253   0.386 -0.3117 -0.4919 -0.4680
 2189SOL    MW4 8524   5.826   4.284   0.437  0.1285 -0.1993 -0.2702
 2190SOL     OW 8525   1.495   2.586   3.899  0.4209  1.2098  0.4617
 2190SOL    HW2 8526   1.474   2.534   3.821  2.0359 -0.9971  1.3899
 2190SOL    HW3 8527   1.500   2.676   3.867 -2.6878  0.9365 -1.1928
 2190SOL    MW4 8528   1.493   2.591   3.884 -0.2949  0.0390  0.5969
 2191SOL     OW 8529   1.474   2.935   6.045  0.2545 -0.7427  0.3767
 2191SOL    HW2 8530   1.464   2.912   5.952  0.9881  1.5498 -0.3388
 2191SOL    HW3 8531   1.566   2.959   6.054 -0.4806  2.3725  0.7965
 2191SOL    MW4 8532   1.485   2.935   6.034 -0.0519 -0.2541  0.2439
 2192SOL     OW 8533   4.177   4.070   3.402  0.5419  0.0006 -0.2768
 2192SOL    HW2 8534   4.237   3.995   3.393 -0.3493 -0.5640 -1.9229
 2192SOL    HW3 8535   4.228   4.136   3.449  1.3258 -1.6581  1.3395
 2192SOL    MW4 8536   4.192   4.069   3.407 -0.0712 -0.3972 -0.1158
 2193SOL     OW 8537   0.577   3.581   5.552  0.3890  0.0224 -0.1697
 2193SOL    HW2 8538   0.606   3.495   5.584  0.2663  0.0910  0.1287
 2193SOL    HW3 8539   0.645   3.641   5.580 -0.2329  0.2531  0.9084
 2193SOL    MW4 8540   0.589   3.577   5.560  0.0021 -0.6202 -0.5671
 2194SOL     OW 8541   5.864   4.213   1.575  0.8215 -0.3198  0.2887
 2194SOL    HW2 8542   5.863   4.120   1.598 -4.2316 -0.5600  0.1549
 2194SOL    HW3 8543   5.817   4.256   1.646 -0.6413  1.4406 -1.6252
 2194SOL    MW4 8544   5.858   4.206   1.588 -0.2649  0.0197  0.4676
 2195SOL     OW 8545   3.620   3.346   3.081  0.4038  1.1456 -0.7314
 2195SOL    HW2 8546   3.596   3.298   3.160  0.3817  2.4886  0.0889
 2195SOL    HW3 8547   3.663   3.280   3.026  1.0839  0.3567  0.6922
 2195SOL    MW4 8548   3.622   3.331   3.084  0.6686 -0.5925 -0.5779
 2196SOL     OW 8549   5.852   1.536   2.033  0.3036  0.5042  0.4184
 2196SOL    HW2 8550   5.788   1.607   2.027  0.9150  1.1775  1.5426
 2196SOL    HW3 8551   5.869   1.511   1.942 -0.9582  0.8445  0.0723
 2196SOL    MW4 8552   5.846   1.542   2.020 -0.4389  0.2190 -0.8256
 2197SOL     OW 8553   3.142   4.959   4.398  0.5380 -0.5881  0.1963
 2197SOL    HW2 8554   3.165   4.982   4.308 -0.2156 -1.1814 -0.1646
 2197SOL    HW3 8555   3.147   4.863   4.400  0.1492 -0.6054  0.6754
 2197SOL    MW4 8556   3.146   4.949   4.387  0.4723  0.1473 -0.1869
 2198SOL     OW 8557   1.188   3.165   3.249 -0.3548 -0.2016  0.0900
 2198SOL    HW2 8558   1.221   3.240   3.199  0.6502 -1.5476 -1.3578
 2198SOL    HW3 8559   1.094   3.181   3.258 -0.2868  0.8299 -0.8834
 2198SOL    MW4 8560   1.180   3.177   3.244  0.6845 -0.6064 -0.2138
 2199SOL     OW 8561   6.421   1.158   4.614  0.2168  0.0969 -0.4578
 2199SOL    HW2 8562   6.506   1.203   4.613  1.2206 -1.6085 -2.6340
 2199SOL    HW3 8563   6.403   1.140   4.521 -1.8698 -0.8091  0.0650
 2199SOL    MW4 8564   6.430   1.162   4.602  0.1967 -0.1690 -0.6856
 2200SOL     OW 8565   4.218   5.567   4.055  0.1172  0.1553  0.3696
 2200SOL    HW2 8566   4.279   5.500   4.025 -1.0648 -0.1209 -1.5927
 2200SOL    HW3 8567   4.152   5.519   4.105  0.2801  0.1200  0.5496
 2200SOL    MW4 8568   4.217   5.552   4.057  0.1522 -0.1523  0.0083
 2201SOL     OW 8569   2.982   5.687   3.758  0.3305  0.0827 -0.2302
 2201SOL    HW2 8570   3.046   5.629   3.800 -0.4586 -1.9096 -1.6325
 2201SOL    HW3 8571   3.015   5.697   3.668 -0.8372 -0.3049 -0.7282
 2201SOL    MW4 8572   2.995   5.680   3.751  0.1216 -0.0185 -0.3727
 2202SOL     OW 8573   3.884   5.906   3.265  0.2163  0.0896 -0.1533
 2202SOL    HW2 8574   3.976   5.882   3.267  0.9361  2.6062  0.2147
 2202SOL    HW3 8575   3.837   5.823   3.275  2.3684 -1.4479 -1.9374
 2202SOL    MW4 8576   3.890   5.892   3.267  0.0987  0.3733 -0.0226
 2203SOL     OW 8577   0.993   0.615   1.739 -0.2161  0.1317  0.1864
 2203SOL    HW2 8578   1.080   0.616   1.779  0.2616  0.7931 -0.8408
 2203SOL    HW3 8579   0.979   0.523   1.715  0.6765  0.2082 -0.6611
 2203SOL    MW4 8580   1.003   0.603   1.741  0.0652  0.4507  0.1130
 2204SOL     OW 8581   1.603   4.015   4.406  0.5158  0.1611  0.2227
 2204SOL    HW2 8582   1.660   4.088   4.384 -0.6385  0.1492 -3.5090
 2204SOL    HW3 8583   1.520   4.036   4.363 -0.0459 -3.0000 -0.4706
 2204SOL    MW4 8584   1.599   4.028   4.398  0.2831  0.4469  0.0550
 2205SOL     OW 8585   4.208   3.199   2.162 -0.3464 -0.0637 -0.5161
 2205SOL    HW2 8586   4.155   3.200   2.242  1.1173 -0.1975  0.4823
 2205SOL    HW3 8587   4.197   3.286   2.125 -1.2588 -0.0873 -0.3428
 2205SOL    MW4 8588   4.199   3.210   2.168  0.2181 -0.0702  0.5255
 2206SOL     OW 8589   4.712   3.796   5.193 -0.4820  0.1722 -0.0186
 2206SOL    HW2 8590   4.806   3.787   5.178 -0.6666 -0.8674 -0.6585
 2206SOL    HW3 8591   4.689   3.720   5.247 -0.9421  0.4433  0.1754
 2206SOL    MW4 8592   4.721   3.784   5.198 -0.3100 -0.1517 -0.1313
 2207SOL     OW 8593   2.999   4.734   4.243 -0.4939  0.9252 -0.3756
 2207SOL    HW2 8594   3.058   4.685   4.185  1.2566  0.7025  1.4808
 2207SOL    HW3 8595   2.991   4.820   4.202  2.3041  1.4324 -0.0448
 2207SOL    MW4 8596   3.006   4.739   4.230  0.0274  0.0470 -0.0937
 2208SOL     OW 8597   3.315   3.172   6.028 -0.3158  0.7424  0.0520
 2208SOL    HW2 8598   3.294   3.227   5.953  0.6895 -2.4678 -2.8320
 2208SOL    HW3 8599   3.264   3.092   6.015  1.1991 -0.6302  1.8301
 2208SOL    MW4 8600   3.306   3.169   6.017  0.2995  0.1212  0.4567
 2209SOL     OW 8601   4.634   6.414   0.919 -0.1314  0.4014  0.0387
 2209SOL    HW2 8602   4.640   6.323   0.888 -0.2662  0.1696  0.6851
 2209SOL    HW3 8603   4.703   6.460   0.870 -0.5853  0.1290 -0.8902
 2209SOL    MW4 8604   4.644   6.408   0.908  0.2297 -0.7580  0.2869
 2210SOL     OW 8605   0.453   4.220   1.870  0.2029 -0.4868 -0.2164
 2210SOL    HW2 8606   0.420   4.215   1.960  2.3078  2.2374  0.8221
 2210SOL    HW3 8607   0.386   4.268   1.823  0.1480  0.1540  0.4982
 2210SOL    MW4 8608   0.440   4.225   1.876 -0.3325  0.2501  0.6238
 2211SOL     OW 8609   4.174   1.162   5.921  0.3038 -1.1854  0.4826
 2211SOL    HW2 8610   4.139   1.238   5.967 -2.5468 -0.6587 -2.2559
 2211SOL    HW3 8611   4.130   1.087   5.960 -2.2744 -0.7236 -1.2937
 2211SOL    MW4 8612   4.164   1.163   5.932  0.0171 -0.0209  0.4167
 2212SOL     OW 8613   1.487   3.573   4.466  0.3617  0.5040  0.3281
 2212SOL    HW2 8614   1.548   3.630   4.419  0.0077 -0.1959 -0.9996
 2212SOL    HW3 8615   1.543   3.513   4.515  0.7604 -0.3899 -1.1909
 2212SOL    MW4 8616   1.503   3.573   4.467 -0.3556  0.0226  0.1313
 2213SOL     OW 8617   6.226   4.246   2.428  0.5138 -0.0429  0.2126
 2213SOL    HW2 8618   6.229   4.201   2.513  0.3572  0.2667  0.3875
 2213SOL    HW3 8619   6.298   4.208   2.378 -0.5428 -1.5638 -0.2024
 2213SOL    MW4 8620   6.236   4.235   2.433 -0.3687 -0.7367  0.0691
 2214SOL     OW 8621   5.617   4.655   0.689  0.8248  0.1307  0.2087
 2214SOL    HW2 8622   5.544   4.701   0.648 -0.4049 -0.2867  1.8196
 2214SOL    HW3 8623   5.654   4.718   0.750 -0.7598 -0.8335  2.2981
 2214SOL    MW4 8624   5.612   4.669   0.691 -0.1939  0.3557 -0.5956
 2215SOL     OW 8625   1.215   0.038   3.589  0.3921 -0.6221  0.3355
 2215SOL    HW2 8626   1.293   0.090   3.567  0.4282 -1.0925 -0.6867
 2215SOL    HW3 8627   1.208  -0.026   3.518 -0.3528 -1.2342  0.9460
 2215SOL    MW4 8628   1.225   0.036   3.577  0.0387  0.0492 -0.0122
 2216SOL     OW 8629   2.664   6.393   5.136  0.2529  0.2936 -0.0830
 2216SOL    HW2 8630   2.687   6.369   5.047  0.3539  0.2819 -0.0538
 2216SOL    HW3 8631   2.591   6.335   5.159 -1.7355  2.2071 -1.1879
 2216SOL    MW4 8632   2.658   6.382   5.128  0.1192  0.1781  0.4786
 2217SOL     OW 8633   0.132   5.854   1.638  0.2670  0.4675  0.4345
 2217SOL    HW2 8634   0.063   5.864   1.572 -1.8800 -0.0582  2.4650
 2217SOL    HW3 8635   0.156   5.761   1.632 -0.0123  0.3912  0.4664
 2217SOL    MW4 8636   0.126   5.843   1.629  0.8655 -0.0187 -0.0337
 2218SOL     OW 8637   2.131   5.429   2.120 -0.6325  0.2917 -0.0951
 2218SOL    HW2 8638   2.189   5.353   2.134 -0.8780  0.1641  0.2443
 2218SOL    HW3 8639   2.111   5.427   2.026 -1.3756 -0.6006  0.0684
 2218SOL    MW4 8640   2.136   5.418   2.109 -0.0049 -0.0401 -0.0910
 2219SOL     OW 8641   1.695   6.000   4.650  0.1021  0.0811 -0.2809
 2219SOL    HW2 8642   1.677   5.923   4.596 -0.9260  0.1429 -0.0373
 2219SOL    HW3 8643   1.742   6.060   4.591 -3.0176  1.1454 -1.9255
 2219SOL    MW4 8644   1.699   5.998   4.635 -0.2169  1.3173  0.0094
 2220SOL     OW 8645   5.011   3.641   0.484  0.2428  0.0649  0.0629
 2220SOL    HW2 8646   4.950   3.635   0.410  0.8018  1.1286 -0.5162
 2220SOL    HW3 8647   5.083   3.584   0.459  0.0864 -0.1646  0.1343
 2220SOL    MW4 8648   5.012   3.633   0.471  0.7023  0.3926  0.0253
 2221SOL     OW 8649   5.728   3.204   1.513 -0.9184  0.8053 -0.3183
 2221SOL    HW2 8650   5.694   3.194   1.602 -1.3682  0.7054 -0.4986
 2221SOL    HW3 8651   5.738   3.298   1.502 -1.1870  0.8387 -0.2813
 2221SOL    MW4 8652   5.725   3.215   1.524 -0.3109 -0.0055 -0.1697
 2222SOL     OW 8653   4.913   3.112   3.820 -0.4825  0.6047 -0.2405
 2222SOL    HW2 8654   4.849   3.183   3.817 -1.6262 -0.4040 -0.8756
 2222SOL    HW3 8655   4.866   3.037   3.783  0.8490 -0.3517 -0.0419
 2222SOL    MW4 8656   4.898   3.111   3.815 -0.5442  0.2064  0.5733
 2223SOL     OW 8657   0.821   4.742   3.290  0.5570  0.2482  0.1678
 2223SOL    HW2 8658   0.883   4.720   3.220 -0.7152 -0.4127 -0.7922
 2223SOL    HW3 8659   0.812   4.837   3.284  2.4048  0.5187  1.1505
 2223SOL    MW4 8660   0.828   4.752   3.280 -0.1954 -0.0435  0.0934
 2224SOL     OW 8661   4.079   1.530   1.185  0.3260 -0.4383 -0.2507
 2224SOL    HW2 8662   4.043   1.606   1.230 -1.0036 -0.6849 -0.8229
 2224SOL    HW3 8663   4.001   1.482   1.155  1.1495 -1.3670 -0.9598
 2224SOL    MW4 8664   4.064   1.534   1.187 -0.5599 -0.4536  0.3038
 2225SOL     OW 8665   2.930   4.941   3.818  0.0701 -0.2040  0.3588
 2225SOL    HW2 8666   2.862   4.953   3.752 -0.6739  0.9132  1.2919
 2225SOL    HW3 8667   3.004   4.992   3.785  0.4509 -1.2821 -0.5708
 2225SOL    MW4 8668   2.931   4.949   3.805 -0.6501  0.2842 -0.2032
 2226SOL     OW 8669   1.413   5.580   4.294  0.0863  0.0475  0.0796
 2226SOL    HW2 8670   1.408   5.486   4.274  2.1670 -0.5482  1.9382
 2226SOL    HW3 8671   1.382   5.587   4.385 -0.9044  1.3195 -0.3321
 2226SOL    MW4 8672   1.408   5.568   4.304  0.9319  0.4080 -0.0009
 2227SOL     OW 8673   2.617   0.529   3.597  0.6585 -0.3163 -0.3098
 2227SOL    HW2 8674   2.552   0.519   3.667  0.2159 -0.0320 -0.6730
 2227SOL    HW3 8675   2.676   0.598   3.628  0.1558  0.1802 -0.4380
 2227SOL    MW4 8676   2.616   0.537   3.610  0.3690  0.5809 -0.5631
 2228SOL     OW 8677   1.504   4.483   1.303  0.6104  0.3524  0.5274
 2228SOL    HW2 8678   1.476   4.458   1.391 -0.8461 -1.8813 -0.4964
 2228SOL    HW3 8679   1.537   4.402   1.264  0.1497  1.0275 -1.3826
 2228SOL    MW4 8680   1.505   4.469   1.309  0.0856 -0.0486  0.1197
 2229SOL     OW 8681   1.159   3.919   4.299 -0.1006  0.6948 -0.0802
 2229SOL    HW2 8682   1.169   3.857   4.227  0.3625  0.0023  0.5673
 2229SOL    HW3 8683   1.095   3.879   4.358  2.3909 -0.7007  1.8704
 2229SOL    MW4 8684   1.152   3.906   4.298  0.6077  0.6965  0.0341
 2230SOL     OW 8685   2.443   1.180   4.843 -0.1154 -0.0655  0.2071
 2230SOL    HW2 8686   2.501   1.249   4.874 -0.9450  1.9923 -2.4576
 2230SOL    HW3 8687   2.379   1.170   4.914  1.2632  0.2954  1.5661
 2230SOL    MW4 8688   2.442   1.188   4.857  0.1967  0.2639  0.4079
 2231SOL     OW 8689   4.472   4.085   0.450  0.2054  0.1068 -0.0360
 2231SOL    HW2 8690   4.455   4.008   0.396  1.1193  1.0577 -1.7435
 2231SOL    HW3 8691   4.387   4.129   0.456 -0.3891 -1.1238  1.1838
 2231SOL    MW4 8692   4.459   4.081   0.444 -0.2422  0.1348  0.6723
 2232SOL     OW 8693   3.767   3.006   1.399  0.5546 -0.4202 -0.3281
 2232SOL    HW2 8694   3.814   2.970   1.474 -0.0585  0.4940  0.5311
 2232SOL    HW3 8695   3.700   2.941   1.379  1.8025 -1.4778 -1.2190
 2232SOL    MW4 8696   3.764   2.993   1.406 -0.0010  0.3293  0.7173
 2233SOL     OW 8697   0.265   1.128   3.112  0.3901  0.3497  0.5061
 2233SOL    HW2 8698   0.250   1.204   3.056 -0.2465  0.6085  1.0254
 2233SOL    HW3 8699   0.189   1.072   3.097  0.1496  0.4801  1.2041
 2233SOL    MW4 8700   0.253   1.131   3.102 -0.8077 -0.4286  0.7233
 2234SOL     OW 8701   0.334   5.009   0.906  0.2795  0.2037  0.1471
 2234SOL    HW2 8702   0.360   4.919   0.926 -1.4418  0.0962  2.2191
 2234SOL    HW3 8703   0.407   5.044   0.855  2.8385 -1.1459  2.5921
 2234SOL    MW4 8704   0.347   5.002   0.902  0.2052 -0.3700  0.3809
 2235SOL     OW 8705   3.767   4.760   3.101  0.2405 -0.4473 -0.3666
 2235SOL    HW2 8706   3.836   4.802   3.051  1.2033  0.3505  1.5238
 2235SOL    HW3 8707   3.812   4.693   3.153 -0.9351 -2.2814 -1.6062
 2235SOL    MW4 8708   3.782   4.757   3.102 -0.0475  0.5358  0.3849
 2236SOL     OW 8709   5.804   1.714   2.334  0.1033 -0.0157 -0.1766
 2236SOL    HW2 8710   5.743   1.726   2.260 -0.1692 -1.0642 -0.1354
 2236SOL    HW3 8711   5.818   1.620   2.338  1.3051  0.1680  0.1722
 2236SOL    MW4 8712   5.798   1.703   2.324  0.1495  0.5834 -0.5258
 2237SOL     OW 8713   3.549   3.416   3.697  0.2510 -0.0611  0.2229
 2237SOL    HW2 8714   3.519   3.426   3.787  2.9876  2.3482  1.0031
 2237SOL    HW3 8715   3.619   3.352   3.702  0.3696  0.0305 -0.2260
 2237SOL    MW4 8716   3.554   3.409   3.710 -0.1872 -0.1671  0.0755
 2238SOL     OW 8717   0.382   3.935   3.513 -0.1932  0.0380  0.5200
 2238SOL    HW2 8718   0.339   3.918   3.597 -0.5896 -0.4162  0.2291
 2238SOL    HW3 8719   0.413   4.025   3.521 -2.2773  0.8352  0.2907
 2238SOL    MW4 8720   0.380   3.945   3.525 -0.7473 -0.6176 -0.4021
 2239SOL     OW 8721   0.364   4.381   5.220  0.2080  0.0320  0.1053
 2239SOL    HW2 8722   0.385   4.355   5.310 -1.6269  0.5605  0.7376
 2239SOL    HW3 8723   0.305   4.456   5.230  0.7262  0.7103 -1.5754
 2239SOL    MW4 8724   0.359   4.388   5.233  0.1547 -0.3808 -0.7938
 2240SOL     OW 8725   5.986   4.473   5.294  0.3943 -0.5195 -0.6271
 2240SOL    HW2 8726   5.928   4.406   5.329 -0.7491  1.2615  1.1083
 2240SOL    HW3 8727   6.034   4.506   5.370  2.4988 -0.7863 -1.7695
 2240SOL    MW4 8728   5.985   4.469   5.308 -0.5981 -0.4377  0.1167
 2241SOL     OW 8729   2.092   5.296   1.543 -0.0620  0.3230  0.1000
 2241SOL    HW2 8730   2.162   5.359   1.560 -0.0159  0.1536  0.5708
 2241SOL    HW3 8731   2.121   5.247   1.466  1.3517 -1.1520  1.4771
 2241SOL    MW4 8732   2.105   5.298   1.535  0.6089 -0.0807 -0.5214
 2242SOL     OW 8733   3.818   4.797   3.637 -0.5104  0.3103 -0.3091
 2242SOL    HW2 8734   3.855   4.775   3.722  0.8077  0.7442 -0.7289
 2242SOL    HW3 8735   3.808   4.892   3.638  1.8657  0.6677 -1.4415
 2242SOL    MW4 8736   3.822   4.806   3.648 -0.3306 -0.3288  0.4561
 2243SOL     OW 8737   1.169   5.318   4.954 -0.2062 -0.0662  0.8604
 2243SOL    HW2 8738   1.206   5.313   4.866  0.1041 -0.4465  1.0071
 2243SOL    HW3 8739   1.194   5.405   4.985 -1.4355  0.5775  0.0919
 2243SOL    MW4 8740   1.177   5.329   4.946 -0.6053 -0.5751 -0.0676
 2244SOL     OW 8741   2.754   1.433   3.412 -1.2260  0.9022  0.7246
 2244SOL    HW2 8742   2.733   1.356   3.464 -1.0302  0.5963  0.3570
 2244SOL    HW3 8743   2.685   1.495   3.432 -0.3168  1.4078  2.5941
 2244SOL    MW4 8744   2.742   1.431   3.422 -0.1128 -0.1922  0.0564
 2245SOL     OW 8745   1.137   3.934   0.124 -0.8800  0.2012 -0.3445
 2245SOL    HW2 8746   1.184   3.915   0.043 -0.2051  1.4489 -0.2760
 2245SOL    HW3 8747   1.202   3.927   0.193 -1.4970 -1.0476  0.1373
 2245SOL    MW4 8748   1.152   3.931   0.123  0.4944 -0.2608 -0.6105
 2246SOL     OW 8749   3.151   5.305   1.933  0.1476  0.4600 -0.0280
 2246SOL    HW2 8750   3.092   5.380   1.930  0.8181  0.9689 -1.2808
 2246SOL    HW3 8751   3.133   5.262   2.017 -2.6333  0.0693 -0.7511
 2246SOL    MW4 8752   3.141   5.309   1.944  0.0177 -0.2764 -0.0660
 2247SOL     OW 8753   1.975   0.341   2.174  0.3344  0.6705 -0.4346
 2247SOL    HW2 8754   2.041   0.272   2.172 -0.2997  0.0806 -2.1519
 2247SOL    HW3 8755   1.896   0.301   2.138 -1.1606  1.2235  1.9662
 2247SOL    MW4 8756   1.973   0.327   2.169  0.5236 -0.4262 -0.0823
 2248SOL     OW 8757   3.048   1.100   1.652  0.2213  0.1299 -0.0965
 2248SOL    HW2 8758   3.118   1.038   1.674  0.5045  0.2583 -0.6166
 2248SOL    HW3 8759   3.048   1.102   1.556 -1.4409 -0.9427 -0.1658
 2248SOL    MW4 8760   3.057   1.092   1.642  0.2354  0.0741  0.0921
 2249SOL     OW 8761   3.313   1.955   5.051  0.3310  0.4472 -0.0078
 2249SOL    HW2 8762   3.379   1.975   5.117  1.8049  0.8410 -1.5235
 2249SOL    HW3 8763   3.344   1.874   5.010 -1.7777 -1.0998  1.2413
 2249SOL    MW4 8764   3.326   1.947   5.054  0.5654 -0.2420 -0.5556
 2250SOL     OW 8765   4.222   3.293   1.796  0.5158 -0.3224  0.8911
 2250SOL    HW2 8766   4.286   3.353   1.758 -0.7080  0.5241  0.1214
 2250SOL    HW3 8767   4.253   3.206   1.770  0.9729  0.1083 -0.0672
 2250SOL    MW4 8768   4.235   3.289   1.788 -0.6280  0.1252  0.1652
 2251SOL     OW 8769   4.826   4.456   0.547 -0.6981 -0.3613 -0.0623
 2251SOL    HW2 8770   4.920   4.472   0.558 -0.7814  0.8885 -1.0580
 2251SOL    HW3 8771   4.795   4.437   0.636 -0.0751  2.4950  0.8811
 2251SOL    MW4 8772   4.834   4.455   0.560 -0.4426 -0.0635  0.2127
 2252SOL     OW 8773   2.081   3.057   6.341  0.1249  0.2350 -0.0602
 2252SOL    HW2 8774   2.143   3.130   6.332  0.2898 -0.1064 -2.2653
 2252SOL    HW3 8775   2.012   3.076   6.277  0.6704 -1.9588 -1.4343
 2252SOL    MW4 8776   2.080   3.069   6.331  0.0664 -0.0567  0.2476
 2253SOL     OW 8777   4.371   0.124   1.065  0.3251  0.3535  0.2321
 2253SOL    HW2 8778   4.447   0.066   1.066 -0.4933 -0.7677  1.7772
 2253SOL    HW3 8779   4.335   0.118   1.153 -1.6116  0.7831 -0.4782
 2253SOL    MW4 8780   4.377   0.116   1.076 -0.5340 -0.1361  0.3989
 2254SOL     OW 8781   0.030   0.080   3.454  0.2682 -0.7096 -0.0931
 2254SOL    HW2 8782   0.087   0.153   3.430 -0.9283 -0.1124 -1.2412
 2254SOL    HW3 8783  -0.044   0.122   3.498 -1.0983 -1.0409 -1.9643
 2254SOL    MW4 8784   0.027   0.095   3.457 -0.9406 -0.0315 -0.9033
 2255SOL     OW 8785   2.381   3.112   2.223  0.0821 -0.3156  0.0585
 2255SOL    HW2 8786   2.405   3.192   2.178 -1.8436  0.2434 -0.0434
 2255SOL    HW3 8787   2.414   3.124   2.313  0.7237  0.1014 -0.2241
 2255SOL    MW4 8788   2.389   3.124   2.229  0.1702  0.4677  0.1169
 2256SOL     OW 8789   3.754   0.261   2.327 -0.2031  0.6116  0.1301
 2256SOL    HW2 8790   3.821   0.308   2.277  0.6688 -0.7994 -0.0834
 2256SOL    HW3 8791   3.671   0.296   2.294  0.3894  2.8598  0.8676
 2256SOL    MW4 8792   3.752   0.271   2.316 -0.1670  0.4500 -0.1561
 2257SOL     OW 8793   1.491   1.839   5.286  0.1688 -0.4479  0.0869
 2257SOL    HW2 8794   1.506   1.888   5.366  0.0072 -0.2099 -0.0298
 2257SOL    HW3 8795   1.446   1.759   5.315  1.8542 -1.3004  0.4779
 2257SOL    MW4 8796   1.487   1.835   5.300  0.4325 -0.7486  0.6084
 2258SOL     OW 8797   2.007   1.907   5.148 -0.1023  0.7077  0.2353
 2258SOL    HW2 8798   1.935   1.970   5.153 -0.9381 -0.1948 -0.1388
 2258SOL    HW3 8799   2.085   1.960   5.161 -0.7533  1.8966 -0.4773
 2258SOL    MW4 8800   2.007   1.922   5.150  0.0197  0.2856  0.1000
 2259SOL     OW 8801   5.022   5.773   2.623 -0.6522 -0.3892 -0.2244
 2259SOL    HW2 8802   5.087   5.754   2.690  1.8811 -0.4768 -2.5208
 2259SOL    HW3 8803   4.987   5.859   2.647  2.0233  0.7582 -0.0496
 2259SOL    MW4 8804   5.026   5.782   2.635 -0.1993  0.5796  0.0746
 2260SOL     OW 8805   5.872   1.314   4.955 -0.0921 -0.1064  0.3400
 2260SOL    HW2 8806   5.878   1.399   4.913 -0.5882 -0.0342  0.4126
 2260SOL    HW3 8807   5.953   1.306   5.005  1.5105 -1.0254 -2.1489
 2260SOL    MW4 8808   5.884   1.324   4.956  0.2483  0.1975  0.0667
 2261SOL     OW 8809   4.229   2.931   5.794 -0.5178 -0.5130 -0.4729
 2261SOL    HW2 8810   4.218   3.024   5.776 -2.8414 -0.6740 -0.2640
 2261SOL    HW3 8811   4.202   2.921   5.886 -1.9236 -1.5685 -0.9572
 2261SOL    MW4 8812   4.224   2.942   5.804  0.3768 -0.2607  0.5868
 2262SOL     OW 8813   0.329   2.832   0.727 -0.0007 -0.6629  0.2463
 2262SOL    HW2 8814   0.420   2.834   0.759 -0.3814 -0.8289  1.3686
 2262SOL    HW3 8815   0.330   2.889   0.650  1.2131 -1.2388 -0.1847
 2262SOL    MW4 8816   0.341   2.840   0.721 -0.2860 -0.2892  0.4027
 2263SOL     OW 8817   5.366   4.524   5.649  0.1672  0.2410 -0.0050
 2263SOL    HW2 8818   5.369   4.469   5.571 -1.8143  1.5340 -1.0705
 2263SOL    HW3 8819   5.297   4.485   5.703 -1.9109  2.0708 -1.1859
 2263SOL    MW4 8820   5.357   4.511   5.646 -0.2412  0.0038 -0.2890
 2264SOL     OW 8821   4.596   2.341   4.410 -0.2399 -0.9109 -0.4987
 2264SOL    HW2 8822   4.548   2.265   4.377 -2.1594 -1.3095  2.7123
 2264SOL    HW3 8823   4.643   2.308   4.486 -0.0982  0.8491  0.2259
 2264SOL    MW4 8824   4.596   2.327   4.416 -0.3453  0.0617 -0.2920
 2265SOL     OW 8825   0.416   4.692   5.906  0.1035  0.3532 -0.3875
 2265SOL    HW2 8826   0.424   4.736   5.821 -0.4445 -0.2457 -0.7583
 2265SOL    HW3 8827   0.494   4.637   5.912  0.3184  0.6621 -0.3446
 2265SOL    MW4 8828   0.427   4.691   5.896 -0.1950  0.1368  0.6720
 2266SOL     OW 8829   0.908   2.143   2.773 -0.2960  0.3863 -0.0723
 2266SOL    HW2 8830   0.953   2.226   2.757 -2.0303  1.2449 -0.6962
 2266SOL    HW3 8831   0.895   2.106   2.686 -0.9959  0.2783  0.0719
 2266SOL    MW4 8832   0.912   2.149   2.760  0.0968  0.4737 -0.3448
 2267SOL     OW 8833   0.839   6.216   5.942 -0.0933 -0.5498 -0.7734
 2267SOL    HW2 8834   0.884   6.239   5.861 -1.2797  0.4526 -1.1743
 2267SOL    HW3 8835   0.795   6.133   5.922 -2.6948  1.0510 -2.1516
 2267SOL    MW4 8836   0.839   6.208   5.928  0.3805 -0.5088  0.1871
 2268SOL     OW 8837   2.133   6.186   3.265 -0.2284 -0.1863 -0.0701
 2268SOL    HW2 8838   2.200   6.189   3.333 -0.0459 -0.9527 -0.2104
 2268SOL    HW3 8839   2.174   6.225   3.188 -0.9910  2.3293  0.6897
 2268SOL    MW4 8840   2.147   6.191   3.264  0.3142 -0.7935 -0.2490
 2269SOL     OW 8841   5.418   2.410   0.600  0.2376 -0.4622 -0.1282
 2269SOL    HW2 8842   5.403   2.429   0.692  1.8650 -1.9952  0.5186
 2269SOL    HW3 8843   5.438   2.494   0.560 -1.8366  0.4255  0.5880
 2269SOL    MW4 8844   5.419   2.423   0.607  0.7944 -0.5340 -0.1580
 2270SOL     OW 8845   4.481   1.272   5.143 -0.1422 -0.0339 -0.0429
 2270SOL    HW2 8846   4.442   1.202   5.195  0.2793 -2.5432 -2.8595
 2270SOL    HW3 8847   4.408   1.310   5.095 -0.4805  2.0787  1.9524
 2270SOL    MW4 8848   4.466   1.268   5.143  0.2119  0.4619  0.4166
 2271SOL     OW 8849   5.258   5.356   3.611 -0.0715 -0.3781 -0.4234
 2271SOL    HW2 8850   5.182   5.336   3.666 -0.0871  0.7992  0.0135
 2271SOL    HW3 8851   5.221   5.371   3.524 -0.0811 -1.9472 -0.7106
 2271SOL    MW4 8852   5.243   5.355   3.607 -0.2098 -0.2864  0.5177
 2272SOL     OW 8853   4.851   3.765   5.664  0.4701 -0.5310 -0.2075
 2272SOL    HW2 8854   4.770   3.813   5.680  1.5747  0.9447  1.2095
 2272SOL    HW3 8855   4.822   3.678   5.634 -1.5814  0.8333 -2.5041
 2272SOL    MW4 8856   4.836   3.760   5.662 -0.4770  0.6976 -0.1418
 2273SOL     OW 8857   2.636   1.412   0.670  0.6096 -0.2104  0.6607
 2273SOL    HW2 8858   2.712   1.464   0.697  1.9419 -1.5536 -0.2706
 2273SOL    HW3 8859   2.655   1.324   0.702 -0.5164 -0.5978  0.3035
 2273SOL    MW4 8860   2.649   1.407   0.678  0.2292  0.4898 -0.2658
 2274SOL     OW 8861   1.870   1.485   0.432 -0.3175  0.6373  0.1670
 2274SOL    HW2 8862   1.936   1.540   0.390 -0.8764  1.1241 -0.0970
 2274SOL    HW3 8863   1.905   1.396   0.425  0.1426  0.8472 -0.2883
 2274SOL    MW4 8864   1.883   1.480   0.425 -0.7084 -0.1346  0.5096
 2275SOL     OW 8865   2.486   4.462   4.252  0.0311 -0.1294  0.3427
 2275SOL    HW2 8866   2.413   4.507   4.294 -0.7837 -0.3157 -0.8268
 2275SOL    HW3 8867   2.458   4.371   4.244  0.6740 -0.3493  0.4980
 2275SOL    MW4 8868   2.473   4.456   4.256  0.0966 -0.2904 -0.1632
 2276SOL     OW 8869   3.308   3.916   6.161 -0.3053  0.2176  0.2780
 2276SOL    HW2 8870   3.303   3.877   6.074  0.1622  0.4809  0.1268
 2276SOL    HW3 8871   3.374   3.985   6.152  0.0678 -0.0464  0.9518
 2276SOL    MW4 8872   3.316   3.920   6.148  0.3868  0.4818 -0.2283
 2277SOL     OW 8873   5.631   5.677   5.021 -0.2242  0.1549 -0.2836
 2277SOL    HW2 8874   5.582   5.599   5.047 -1.1179  0.2078 -1.6635
 2277SOL    HW3 8875   5.581   5.750   5.057  0.2502  0.1289  0.4479
 2277SOL    MW4 8876   5.618   5.676   5.029 -0.1400 -0.1760 -0.2097
 2278SOL     OW 8877   6.415   3.013   3.598 -0.5070 -0.1051  0.5259
 2278SOL    HW2 8878   6.423   3.068   3.676  1.6558 -0.7103  0.7790
 2278SOL    HW3 8879   6.335   3.045   3.555 -0.0565  2.3739  1.3378
 2278SOL    MW4 8880   6.406   3.025   3.602  1.0963  1.2655 -0.1695
 2279SOL     OW 8881   4.099   4.986   3.596  0.1268 -0.3569  0.2576
 2279SOL    HW2 8882   4.092   5.010   3.504  1.3200 -1.6120 -0.2077
 2279SOL    HW3 8883   4.012   5.002   3.632 -0.3099  0.3265 -1.0393
 2279SOL    MW4 8884   4.087   4.991   3.589  0.0426 -0.6062 -0.3743
 2280SOL     OW 8885   2.959   2.175   1.166  0.6596  0.2857  0.0135
 2280SOL    HW2 8886   2.876   2.165   1.214 -0.1037 -2.1012 -1.6002
 2280SOL    HW3 8887   3.026   2.153   1.230  0.0111  1.3090  1.0943
 2280SOL    MW4 8888   2.957   2.171   1.181  0.1041  0.0911 -0.4208
 2281SOL     OW 8889   5.297   1.657   5.362 -0.4298 -0.2825 -0.0295
 2281SOL    HW2 8890   5.311   1.693   5.449 -1.2503 -1.2026  0.5099
 2281SOL    HW3 8891   5.243   1.723   5.317 -1.0930 -0.3756  0.6092
 2281SOL    MW4 8892   5.292   1.670   5.368  0.2686  0.0463  0.2381
 2282SOL     OW 8893   2.135   5.076   1.103  1.0146 -0.4776  0.2873
 2282SOL    HW2 8894   2.163   5.098   1.192  0.4522  1.8681 -0.0509
 2282SOL    HW3 8895   2.114   4.983   1.107  1.7753 -0.6225  2.3886
 2282SOL    MW4 8896   2.136   5.067   1.115 -0.4485  0.6860 -0.2660
 2283SOL     OW 8897   2.984   6.099   6.212  1.4490 -0.2592 -0.1962
 2283SOL    HW2 8898   2.981   6.191   6.186  1.7252  1.1356  4.0889
 2283SOL    HW3 8899   3.054   6.094   6.277  0.2881 -3.1460  1.0041
 2283SOL    MW4 8900   2.993   6.110   6.217 -0.9513  0.1804  0.0965
 2284SOL     OW 8901   4.958   3.325   5.567  0.2685 -0.3909  0.2904
 2284SOL    HW2 8902   5.044   3.356   5.595  0.4190  0.0546 -0.6339
 2284SOL    HW3 8903   4.953   3.235   5.600 -0.2829  0.6086  3.2599
 2284SOL    MW4 8904   4.969   3.317   5.575 -0.5416 -0.2871  0.1061
 2285SOL     OW 8905   2.922   2.103   6.379  0.0747  0.5231 -0.2327
 2285SOL    HW2 8906   2.870   2.088   6.300 -2.0848  3.4763  0.4273
 2285SOL    HW3 8907   3.004   2.140   6.348 -0.1005  0.1436 -1.1619
 2285SOL    MW4 8908   2.926   2.106   6.365 -0.1160  0.3242 -0.3881
 2286SOL     OW 8909   6.106   4.218   5.052 -0.4927 -0.7871 -0.0180
 2286SOL    HW2 8910   6.138   4.307   5.069  0.4407 -0.7854 -1.5736
 2286SOL    HW3 8911   6.171   4.161   5.093  1.0644 -0.7657 -2.2925
 2286SOL    MW4 8912   6.119   4.223   5.060 -0.1084  0.1843 -1.0119
 2287SOL     OW 8913   4.077   4.574   5.739  0.5208 -0.2170 -0.3424
 2287SOL    HW2 8914   3.983   4.578   5.721  0.5674  0.9477 -0.4313
 2287SOL    HW3 8915   4.091   4.488   5.778 -0.1746 -1.4250 -2.6100
 2287SOL    MW4 8916   4.067   4.563   5.742 -0.6062  0.0687 -0.3894
 2288SOL     OW 8917   0.433   4.932   1.482 -0.4764 -0.2277 -0.1698
 2288SOL    HW2 8918   0.473   5.011   1.518 -1.7212  0.0239  0.7209
 2288SOL    HW3 8919   0.506   4.870   1.475  0.4089  0.8014 -0.3515
 2288SOL    MW4 8920   0.448   4.934   1.486  0.4654  0.8026  0.0420
 2289SOL     OW 8921   5.480   3.425   2.970 -0.1710  0.2604  0.5783
 2289SOL    HW2 8922   5.403   3.384   3.009 -1.5094 -0.1170 -2.2439
 2289SOL    HW3 8923   5.444   3.492   2.912  1.4258 -1.2610 -2.3751
 2289SOL    MW4 8924   5.465   3.429   2.968  0.0266  0.2183  0.1244
 2290SOL     OW 8925   2.293   2.770   4.339  0.8412 -0.7865 -0.1350
 2290SOL    HW2 8926   2.291   2.697   4.278  1.5096 -2.5824  1.8812
 2290SOL    HW3 8927   2.290   2.848   4.283 -1.1447 -2.3006 -2.3063
 2290SOL    MW4 8928   2.293   2.771   4.323 -0.5982  0.0705  0.0176
 2291SOL     OW 8929   2.162   4.499   3.356  0.2855  0.0901  0.0543
 2291SOL    HW2 8930   2.222   4.480   3.284  0.1320  0.0299 -0.0571
 2291SOL    HW3 8931   2.194   4.447   3.429  1.0468  0.9121  0.3298
 2291SOL    MW4 8932   2.174   4.490   3.356  0.4455  0.0124 -0.3306
 2292SOL     OW 8933   0.892   3.676   3.500  0.4162  0.2305  0.3056
 2292SOL    HW2 8934   0.893   3.596   3.447  0.0318  0.9304 -0.7786
 2292SOL    HW3 8935   0.808   3.717   3.481  0.8298  1.1635  0.4251
 2292SOL    MW4 8936   0.881   3.671   3.490  0.1160 -0.8940  0.0188
 2293SOL     OW 8937   5.645   3.872   1.498  0.3940 -0.7453 -0.5038
 2293SOL    HW2 8938   5.730   3.893   1.537 -0.5812  0.0614  1.3068
 2293SOL    HW3 8939   5.633   3.939   1.431  0.5923 -0.0278  0.1636
 2293SOL    MW4 8940   5.655   3.884   1.494 -0.5159  0.4936 -0.4491
 2294SOL     OW 8941   4.046   4.566   2.031  0.2777 -0.1046 -0.4507
 2294SOL    HW2 8942   3.984   4.494   2.046 -0.9654  1.0092 -0.1072
 2294SOL    HW3 8943   4.129   4.522   2.012 -0.7220 -1.6513 -1.5083
 2294SOL    MW4 8944   4.049   4.550   2.030 -0.2938  0.5896 -0.2785
 2295SOL     OW 8945   3.491   5.313   2.110 -0.6154 -0.3396  0.6122
 2295SOL    HW2 8946   3.480   5.315   2.205 -0.0854 -0.4945  0.6801
 2295SOL    HW3 8947   3.579   5.349   2.096 -1.2657  1.1064  0.0831
 2295SOL    MW4 8948   3.501   5.318   2.121  0.6570 -0.3152 -0.4326
 2296SOL     OW 8949   1.147   1.341   1.493 -0.1304  0.4518 -0.2849
 2296SOL    HW2 8950   1.100   1.425   1.492  1.1780  1.2090 -1.3676
 2296SOL    HW3 8951   1.100   1.287   1.429 -0.4849  0.6395 -0.1888
 2296SOL    MW4 8952   1.135   1.345   1.485  0.0810 -0.5666  0.0369
 2297SOL     OW 8953   2.498   0.678   6.317 -0.3219 -0.3393  0.3791
 2297SOL    HW2 8954   2.429   0.634   6.366  0.1516  0.7299  2.0994
 2297SOL    HW3 8955   2.475   0.664   6.225 -3.3762  0.8033  0.8672
 2297SOL    MW4 8956   2.486   0.670   6.311 -0.1091  0.1604  0.2432
 2298SOL     OW 8957   4.725   0.249   2.639  0.0812  0.0863  0.2882
 2298SOL    HW2 8958   4.700   0.253   2.732  1.5537  2.0340  0.6770
 2298SOL    HW3 8959   4.670   0.315   2.597  0.1037 -0.1060 -0.0419
 2298SOL    MW4 8960   4.715   0.258   2.646 -0.4554  0.9585  0.4086
 2299SOL     OW 8961   3.122   3.852   3.897 -0.0413  0.0004 -0.0157
 2299SOL    HW2 8962   3.094   3.848   3.988 -0.4343  0.4960 -0.1105
 2299SOL    HW3 8963   3.041   3.870   3.848 -0.1194 -1.7412 -0.6214
 2299SOL    MW4 8964   3.107   3.854   3.903 -0.3862 -0.6412 -0.7121
 2300SOL     OW 8965   4.517   5.483   3.466 -0.1805 -0.4094 -0.3271
 2300SOL    HW2 8966   4.592   5.423   3.462  0.1041  0.0077 -1.8180
 2300SOL    HW3 8967   4.450   5.440   3.414 -1.2413 -1.0723  1.5028
 2300SOL    MW4 8968   4.518   5.469   3.459  0.2726 -0.3896  0.5205
 2301SOL     OW 8969   1.133   3.152   1.330  0.0803  0.2345  0.0721
 2301SOL    HW2 8970   1.051   3.132   1.283 -0.3465 -2.8861  1.8485
 2301SOL    HW3 8971   1.118   3.121   1.419  3.5764 -1.6909  0.1759
 2301SOL    MW4 8972   1.120   3.145   1.335 -0.5136  0.1899 -0.5115
 2302SOL     OW 8973   6.369   1.748   2.594 -0.3307  0.2518  0.2485
 2302SOL    HW2 8974   6.300   1.815   2.591 -1.0565 -0.3271  2.1943
 2302SOL    HW3 8975   6.322   1.665   2.595  0.4679 -0.2138  0.0658
 2302SOL    MW4 8976   6.354   1.746   2.594 -0.2388  0.0701  0.1785
 2303SOL     OW 8977   6.017   1.106   2.441  0.4418  0.2771 -0.1656
 2303SOL    HW2 8978   5.978   1.166   2.504 -1.9152 -0.0940 -1.1886
 2303SOL    HW3 8979   6.094   1.153   2.409  0.5661  1.2979  1.4942
 2303SOL    MW4 8980   6.022   1.120   2.445 -0.0570  0.5606 -0.3608
 2304SOL     OW 8981   2.879   0.348   0.252  0.2945 -0.2575  0.4364
 2304SOL    HW2 8982   2.833   0.269   0.280 -0.6074  0.0075 -0.2245
 2304SOL    HW3 8983   2.850   0.360   0.161  0.6163  0.6910  0.4553
 2304SOL    MW4 8984   2.869   0.339   0.243  0.1690 -0.2610 -0.3631
 2305SOL     OW 8985   1.100   0.206   2.024  0.5417 -0.3457 -0.0335
 2305SOL    HW2 8986   1.154   0.140   2.067  0.1896 -0.3028  0.4832
 2305SOL    HW3 8987   1.155   0.240   1.953  0.8073 -1.0278 -0.1583
 2305SOL    MW4 8988   1.115   0.202   2.020  0.0286 -0.0516 -0.3282
 2306SOL     OW 8989   1.920   2.104   2.756 -0.5117  0.1476 -0.3016
 2306SOL    HW2 8990   1.828   2.079   2.753 -0.2664 -0.9487  0.5420
 2306SOL    HW3 8991   1.960   2.042   2.817  0.6586  1.0302 -0.1255
 2306SOL    MW4 8992   1.913   2.093   2.764  0.5428 -0.6770  0.5651
 2307SOL     OW 8993   2.901   5.873   1.410  0.1324  0.0140  0.4745
 2307SOL    HW2 8994   2.816   5.831   1.397 -0.5873  1.0323  1.7384
 2307SOL    HW3 8995   2.927   5.848   1.498  1.1621 -0.2878  0.1010
 2307SOL    MW4 8996   2.893   5.864   1.420  0.5979 -0.5825 -0.4482
 2308SOL     OW 8997   2.889   5.537   2.209 -0.3937  0.3123 -0.1455
 2308SOL    HW2 8998   2.838   5.502   2.282  0.5140 -0.4891  0.1312
 2308SOL    HW3 8999   2.978   5.547   2.244 -0.2853  1.3974 -0.6978
 2308SOL    MW4 9000   2.894   5.534   2.223 -1.2232  0.1646  0.1803
 2309SOL     OW 9001   3.005   5.838   0.450  0.1002 -0.9023 -0.3540
 2309SOL    HW2 9002   3.038   5.767   0.395 -0.0847  0.0464 -1.7310
 2309SOL    HW3 9003   2.932   5.875   0.400 -0.5858 -0.5200  0.8985
 2309SOL    MW4 9004   3.000   5.834   0.436  0.9065  0.4296  0.3920
 2310SOL     OW 9005   1.927   4.106   0.024 -0.2662  0.5326 -0.7700
 2310SOL    HW2 9006   1.966   4.033   0.073  0.3140  1.5891  0.3967
 2310SOL    HW3 9007   1.845   4.125   0.071 -1.1872 -0.3101 -1.9670
 2310SOL    MW4 9008   1.921   4.098   0.037 -0.3913  0.0176 -0.1410
 2311SOL     OW 9009   6.247   1.676   3.641  0.3595 -0.0594 -0.0093
 2311SOL    HW2 9010   6.336   1.682   3.675  0.4735 -1.9816  0.1054
 2311SOL    HW3 9011   6.199   1.743   3.689  0.6338 -2.2224  3.6395
 2311SOL    MW4 9012   6.253   1.686   3.652 -0.3243 -0.5904  0.6234
 2312SOL     OW 9013   0.656   1.571   3.479  0.6269 -0.0404  0.9069
 2312SOL    HW2 9014   0.668   1.656   3.520 -1.8325  1.8100 -1.8047
 2312SOL    HW3 9015   0.738   1.554   3.433  1.3846  0.5150  2.0236
 2312SOL    MW4 9016   0.668   1.580   3.478  0.2084  0.0323 -0.0228
 2313SOL     OW 9017   1.964   6.029   1.141 -0.4425  0.4259  0.2580
 2313SOL    HW2 9018   2.028   5.995   1.204  0.2483  2.8607  0.9940
 2313SOL    HW3 9019   1.883   6.036   1.192 -1.0348 -1.4622 -0.3307
 2313SOL    MW4 9020   1.962   6.025   1.156 -0.8502 -0.4973 -0.6118
 2314SOL     OW 9021   6.265   4.975   0.118  0.2416  0.2353  0.0657
 2314SOL    HW2 9022   6.267   5.071   0.113  2.2566  0.2497  0.2920
 2314SOL    HW3 9023   6.251   4.947   0.027  1.3032  0.7649 -0.2852
 2314SOL    MW4 9024   6.264   4.984   0.105  0.1474 -0.3880 -0.3190
 2315SOL     OW 9025   1.138   3.779   2.399  0.1653  0.7138 -0.5752
 2315SOL    HW2 9026   1.066   3.842   2.393  1.0304  1.8944  0.7697
 2315SOL    HW3 9027   1.202   3.808   2.335  0.1687  0.6473 -0.6024
 2315SOL    MW4 9028   1.137   3.791   2.390 -0.4049 -0.4861  0.0211
 2316SOL     OW 9029   2.119   3.985   3.139 -0.3623 -0.0176 -0.0130
 2316SOL    HW2 9030   2.166   4.062   3.109 -0.3244  0.3704  1.0088
 2316SOL    HW3 9031   2.131   3.920   3.069 -2.1122  1.5441 -1.8763
 2316SOL    MW4 9032   2.127   3.986   3.126  0.4201 -0.0904 -0.2982
 2317SOL     OW 9033   0.806   2.447   4.807 -0.2272  0.5455 -0.0032
 2317SOL    HW2 9034   0.789   2.376   4.869  2.0741 -0.0380  0.0609
 2317SOL    HW3 9035   0.812   2.404   4.722  0.7479  0.7001 -0.0234
 2317SOL    MW4 9036   0.805   2.432   4.804 -0.4466 -0.0925  0.0618
 2318SOL     OW 9037   5.995   5.855   3.260 -0.4472 -0.2780 -0.5589
 2318SOL    HW2 9038   6.039   5.871   3.343 -0.6581  2.0171 -0.8357
 2318SOL    HW3 9039   5.910   5.897   3.269  0.2661  1.8315 -2.5688
 2318SOL    MW4 9040   5.990   5.862   3.272 -0.6645 -0.1483 -0.6999
 2319SOL     OW 9041   4.634   1.760   6.289  0.1413 -0.1360  0.4287
 2319SOL    HW2 9042   4.711   1.716   6.253  0.2431  0.4041 -0.0129
 2319SOL    HW3 9043   4.619   1.715   6.372  2.0373  0.9188  1.4249
 2319SOL    MW4 9044   4.643   1.748   6.295 -0.4660 -0.1845  0.4075
 2320SOL     OW 9045   5.915   5.395   3.028  0.3129 -0.1729  0.1802
 2320SOL    HW2 9046   6.007   5.416   3.010  0.0947  1.2936  0.6139
 2320SOL    HW3 9047   5.903   5.307   2.993  1.6089  0.0231 -0.8274
 2320SOL    MW4 9048   5.925   5.386   3.021  0.0675  0.0644  0.1526
 2321SOL     OW 9049   2.575   2.608   3.916 -0.5611  0.2851  0.6521
 2321SOL    HW2 9050   2.524   2.555   3.855  1.2683 -0.7814 -0.0188
 2321SOL    HW3 9051   2.637   2.655   3.861  0.5855 -0.0689  1.6108
 2321SOL    MW4 9052   2.576   2.608   3.901  0.5980  0.2364  0.0101
 2322SOL     OW 9053   0.552   4.796   5.070  0.2133  0.0842  0.4276
 2322SOL    HW2 9054   0.496   4.797   4.992  0.5010  0.2660  0.2176
 2322SOL    HW3 9055   0.491   4.793   5.143 -0.2292  3.0688  0.3297
 2322SOL    MW4 9056   0.536   4.796   5.069  0.0291  0.5681  0.4604
 2323SOL     OW 9057   1.929   4.665   3.407 -0.1998 -0.0083  0.1396
 2323SOL    HW2 9058   1.998   4.603   3.385 -0.4132 -0.4760  0.7626
 2323SOL    HW3 9059   1.894   4.633   3.490 -1.2866  0.1244 -0.2583
 2323SOL    MW4 9060   1.934   4.653   3.415 -0.0536  0.2245  0.5375
 2324SOL     OW 9061   2.435   4.482   6.136  0.0412 -0.2492  0.0282
 2324SOL    HW2 9062   2.402   4.507   6.049  1.0877 -0.6868 -0.5176
 2324SOL    HW3 9063   2.485   4.402   6.120 -1.0144 -1.2194  1.3027
 2324SOL    MW4 9064   2.437   4.475   6.122 -0.1445  0.2310 -0.1104
 2325SOL     OW 9065   1.060   3.273   0.198  0.0512  0.0921 -0.1660
 2325SOL    HW2 9066   1.095   3.238   0.281  1.1891 -0.0379 -0.6741
 2325SOL    HW3 9067   0.996   3.339   0.225  0.4420  0.0907  0.8266
 2325SOL    MW4 9068   1.056   3.277   0.213 -0.0028 -0.2671 -0.1959
 2326SOL     OW 9069   0.831   3.447   0.738  0.6927  0.6762 -0.2909
 2326SOL    HW2 9070   0.777   3.425   0.814  3.2319  0.6356  1.5863
 2326SOL    HW3 9071   0.802   3.385   0.670 -1.7848  0.8705  0.4692
 2326SOL    MW4 9072   0.820   3.436   0.739  0.3554  0.5049 -0.4647
 2327SOL     OW 9073   0.975   4.256   4.562 -0.2577 -0.1239  0.1890
 2327SOL    HW2 9074   0.933   4.324   4.509  0.5906  0.8973  0.7944
 2327SOL    HW3 9075   0.907   4.189   4.573 -1.1943  0.7247 -0.2239
 2327SOL    MW4 9076   0.960   4.256   4.556  0.2239 -0.1115  0.3490
 2328SOL     OW 9077   5.576   1.201   5.804 -0.0112 -0.2068 -0.5318
 2328SOL    HW2 9078   5.496   1.246   5.775 -0.9800 -1.2106  0.4894
 2328SOL    HW3 9079   5.617   1.171   5.723 -0.5459  0.5038 -1.0842
 2328SOL    MW4 9080   5.571   1.203   5.789 -0.5727 -0.4656  0.0235
 2329SOL     OW 9081   6.351   4.897   4.724  0.1982  0.1625 -0.6579
 2329SOL    HW2 9082   6.274   4.954   4.728  0.2738  0.1575  2.2155
 2329SOL    HW3 9083   6.403   4.920   4.800  1.7730 -1.6422 -1.1139
 2329SOL    MW4 9084   6.347   4.907   4.734 -0.0012  0.5619  0.0515
 2330SOL     OW 9085   2.237   4.846   4.254  0.2697  0.4106  0.0261
 2330SOL    HW2 9086   2.292   4.881   4.185  1.6664 -0.8387  0.4474
 2330SOL    HW3 9087   2.242   4.910   4.325  0.5125  0.6941 -0.2485
 2330SOL    MW4 9088   2.245   4.859   4.254  0.0387 -0.1137 -0.4965
 2331SOL     OW 9089   3.372   0.715   6.279 -0.4996  0.2707 -0.4092
 2331SOL    HW2 9090   3.310   0.783   6.303 -1.5366 -0.9016  0.3670
 2331SOL    HW3 9091   3.418   0.695   6.361 -0.7029 -0.4495 -0.4673
 2331SOL    MW4 9092   3.370   0.721   6.293 -0.1513 -0.3168  0.1978
 2332SOL     OW 9093   5.956   1.838   1.786 -0.5571  0.0719 -0.3853
 2332SOL    HW2 9094   5.904   1.911   1.821 -1.3542 -1.0635  0.8723
 2332SOL    HW3 9095   5.893   1.784   1.740 -0.6143 -1.5049  1.4438
 2332SOL    MW4 9096   5.941   1.841   1.784  0.4518  1.0358  0.1268
 2333SOL     OW 9097   5.443   4.870   2.454 -0.3686  0.1692 -0.5587
 2333SOL    HW2 9098   5.471   4.869   2.546 -1.6539 -0.3882 -0.1422
 2333SOL    HW3 9099   5.518   4.903   2.406  0.3674  0.3733  0.6897
 2333SOL    MW4 9100   5.456   4.875   2.460 -0.4352  0.0998  0.4050
 2334SOL     OW 9101   3.308   0.578   1.751 -0.5876  0.2079  0.3065
 2334SOL    HW2 9102   3.309   0.559   1.657  0.4908  0.9846  0.1473
 2334SOL    HW3 9103   3.277   0.497   1.791  0.4444 -0.6825 -0.6153
 2334SOL    MW4 9104   3.304   0.565   1.744  0.1844 -0.0509  0.1330
 2335SOL     OW 9105   6.419   3.340   3.669 -0.2579  0.1768  0.1515
 2335SOL    HW2 9106   6.487   3.388   3.716  0.3525  0.1579 -0.7020
 2335SOL    HW3 9107   6.370   3.407   3.621  0.4986 -0.0040 -0.9173
 2335SOL    MW4 9108   6.422   3.355   3.669  0.5200 -0.1361 -0.4197
 2336SOL     OW 9109   2.597   2.462   3.140  0.4520 -0.1146  0.1104
 2336SOL    HW2 9110   2.616   2.480   3.048  1.8640 -1.9400 -0.0101
 2336SOL    HW3 9111   2.529   2.526   3.163  1.9460  2.2013 -1.4327
 2336SOL    MW4 9112   2.591   2.473   3.131  0.2243  0.3665  0.0269
 2337SOL     OW 9113   3.442   1.706   1.813  0.0361 -0.1513  0.3521
 2337SOL    HW2 9114   3.380   1.681   1.745  0.3172  0.3513 -0.0943
 2337SOL    HW3 9115   3.396   1.689   1.895 -0.4643 -0.3528  0.0321
 2337SOL    MW4 9116   3.428   1.700   1.815 -0.2847 -0.1854  0.0621
 2338SOL     OW 9117   5.064   4.406   2.344 -0.1071 -0.5625 -0.3515
 2338SOL    HW2 9118   5.039   4.491   2.309 -0.2583 -0.4301  0.0629
 2338SOL    HW3 9119   5.155   4.394   2.318  0.1808  0.1095  0.2985
 2338SOL    MW4 9120   5.073   4.416   2.336 -0.3471 -0.2627 -0.0873
 2339SOL     OW 9121   5.925   5.585   6.194  0.2383 -0.3785  0.0261
 2339SOL    HW2 9122   6.017   5.588   6.169  0.5776 -0.6217  1.1951
 2339SOL    HW3 9123   5.926   5.590   6.289 -0.8270 -2.4084  0.2119
 2339SOL    MW4 9124   5.937   5.586   6.203  0.1472  0.2272  0.1138
 2340SOL     OW 9125   0.605   5.797   2.305  0.0079 -0.7802 -0.0679
 2340SOL    HW2 9126   0.584   5.714   2.262 -2.9576 -0.6505  0.8986
 2340SOL    HW3 9127   0.520   5.841   2.314  1.1444  1.1900  1.7889
 2340SOL    MW4 9128   0.591   5.792   2.301 -0.0031  0.3909 -0.1906
 2341SOL     OW 9129   1.366   4.926   5.124 -0.4524 -0.1515 -0.0224
 2341SOL    HW2 9130   1.368   4.933   5.220 -0.4205 -0.3374 -0.0083
 2341SOL    HW3 9131   1.296   4.986   5.097 -1.0350 -0.7165  0.1819
 2341SOL    MW4 9132   1.357   4.935   5.133 -0.6348  0.0322 -0.0796
 2342SOL     OW 9133   1.674   0.587   3.005 -0.6839 -0.0329 -0.5593
 2342SOL    HW2 9134   1.692   0.505   2.959 -1.2884 -0.1536 -0.5941
 2342SOL    HW3 9135   1.604   0.627   2.953 -0.5898  0.3646 -0.3759
 2342SOL    MW4 9136   1.667   0.581   2.992  0.5149  0.9300  0.1404
 2343SOL     OW 9137   4.895   4.772   1.280  0.1550 -0.1840  0.1430
 2343SOL    HW2 9138   4.928   4.817   1.358  0.4107 -0.0526 -0.0404
 2343SOL    HW3 9139   4.942   4.812   1.207 -0.5557  0.1452 -0.1443
 2343SOL    MW4 9140   4.906   4.783   1.281 -0.2143  0.1531 -0.0225
 2344SOL     OW 9141   1.280   0.640   1.338  0.4697  0.5860 -0.1053
 2344SOL    HW2 9142   1.215   0.674   1.399  0.8670  2.1531 -0.4944
 2344SOL    HW3 9143   1.231   0.620   1.259  0.2072  0.1233  0.1723
 2344SOL    MW4 9144   1.265   0.642   1.336  0.3174  0.4731 -0.0182
 2345SOL     OW 9145   3.938   4.567   3.217 -0.1033  0.5786  0.2005
 2345SOL    HW2 9146   3.960   4.599   3.305  1.1930  1.4704 -0.4083
 2345SOL    HW3 9147   4.015   4.589   3.164  0.1956 -2.1674 -0.6403
 2345SOL    MW4 9148   3.951   4.574   3.221  0.3463  0.3901  0.0779
 2346SOL     OW 9149   2.266   1.338   2.245 -0.3325  0.1202  0.4016
 2346SOL    HW2 9150   2.318   1.278   2.298 -0.2925 -2.0907 -1.9722
 2346SOL    HW3 9151   2.176   1.309   2.255 -0.3265 -0.3299 -0.6658
 2346SOL    MW4 9152   2.261   1.326   2.253  0.0392 -0.2544 -0.2492
 2347SOL     OW 9153   1.506   2.946   0.457  0.2690 -0.6684 -0.4231
 2347SOL    HW2 9154   1.591   2.936   0.500  0.4865 -1.0980 -0.9402
 2347SOL    HW3 9155   1.513   3.030   0.411 -0.0798 -0.0529  0.6208
 2347SOL    MW4 9156   1.518   2.956   0.457 -0.4537  0.1632  0.4383
 2348SOL     OW 9157   0.263   4.843   6.107 -0.5057  0.0516 -0.4163
 2348SOL    HW2 9158   0.319   4.796   6.046  1.6172 -0.2997  1.6744
 2348SOL    HW3 9159   0.249   4.781   6.179 -0.8396  1.2854  0.6162
 2348SOL    MW4 9160   0.268   4.829   6.108 -0.5715  0.1892 -0.3105
 2349SOL     OW 9161   5.451   4.323   2.544 -0.0993  0.0322 -0.3362
 2349SOL    HW2 9162   5.444   4.239   2.499 -0.0484 -0.5248  0.6688
 2349SOL    HW3 9163   5.476   4.385   2.476  0.5999 -0.9095 -0.9536
 2349SOL    MW4 9164   5.454   4.320   2.529 -0.5768  0.5608 -0.3009
 2350SOL     OW 9165   5.875   2.030   2.987  0.3874 -0.0732  0.2643
 2350SOL    HW2 9166   5.928   2.025   2.907 -0.9695  1.0078 -0.7408
 2350SOL    HW3 9167   5.909   2.107   3.033 -2.6265  3.1031 -2.2716
 2350SOL    MW4 9168   5.887   2.040   2.982  0.3691  0.5293 -0.4401
 2351SOL     OW 9169   3.574   4.449   4.537  0.4507  0.0079  0.4232
 2351SOL    HW2 9170   3.564   4.458   4.632 -0.5582  3.2868  0.1284
 2351SOL    HW3 9171   3.668   4.448   4.523  0.6160 -0.5869  1.4522
 2351SOL    MW4 9172   3.585   4.450   4.548 -0.7489 -0.5933 -0.4894
 2352SOL     OW 9173   3.106   5.235   6.099  0.3516 -0.0168  0.6590
 2352SOL    HW2 9174   3.188   5.252   6.145 -0.2657  1.6168  1.2283
 2352SOL    HW3 9175   3.057   5.176   6.156  0.3138  0.6085  1.2831
 2352SOL    MW4 9176   3.111   5.229   6.112 -0.6894 -0.1084 -0.1240
 2353SOL     OW 9177   6.393   2.060   5.315  0.3438  0.0920  0.6567
 2353SOL    HW2 9178   6.448   2.124   5.270  0.1510 -0.1556  0.0704
 2353SOL    HW3 9179   6.353   2.009   5.246  0.6412 -0.7970  1.1236
 2353SOL    MW4 9180   6.395   2.062   5.300 -0.0486  0.0143 -0.0924
 2354SOL     OW 9181   3.947   0.842   3.220 -0.2029 -0.2731  0.3177
 2354SOL    HW2 9182   3.900   0.850   3.302 -2.1402 -0.1626 -0.7350
 2354SOL    HW3 9183   3.968   0.749   3.213 -1.1201 -0.4908  0.3855
 2354SOL    MW4 9184   3.944   0.831   3.230  0.1855 -0.4810 -0.3960
 2355SOL     OW 9185   2.279   5.342   4.276  0.4058  0.2585  0.0601
 2355SOL    HW2 9186   2.332   5.418   4.299 -0.8221  1.0406  0.4004
 2355SOL    HW3 9187   2.233   5.368   4.196  0.1990 -0.2261  0.0199
 2355SOL    MW4 9188   2.280   5.356   4.269  0.0685 -0.3037  0.1792
 2356SOL     OW 9189   3.252   0.468   3.283  0.0739 -0.0387  0.7062
 2356SOL    HW2 9190   3.180   0.407   3.293  0.8931 -1.5381 -1.6824
 2356SOL    HW3 9191   3.320   0.418   3.237  1.2717  2.2937 -0.2474
 2356SOL    MW4 9192   3.252   0.454   3.278 -0.0662  0.0708  0.6030
 2357SOL     OW 9193   3.414   3.614   2.830 -0.0635  0.1922 -0.3117
 2357SOL    HW2 9194   3.320   3.598   2.842  0.0117 -0.6582 -0.7846
 2357SOL    HW3 9195   3.418   3.695   2.778 -0.5838 -0.5594 -1.5584
 2357SOL    MW4 9196   3.402   3.623   2.824 -0.0515 -0.2971  0.3939
 2358SOL     OW 9197   5.048   2.279   2.715 -0.4491 -0.2090 -0.3529
 2358SOL    HW2 9198   5.079   2.189   2.724 -2.0499 -0.7203  0.4792
 2358SOL    HW3 9199   5.020   2.286   2.623 -0.6088 -0.6772 -0.3442
 2358SOL    MW4 9200   5.048   2.268   2.704  0.1751  0.5751  0.2332
 2359SOL     OW 9201   6.100   5.825   1.173  0.7842  0.5453 -0.1903
 2359SOL    HW2 9202   6.053   5.839   1.091 -0.5123  1.9404  0.7222
 2359SOL    HW3 9203   6.032   5.830   1.240  1.8874 -0.0342  1.0201
 2359SOL    MW4 9204   6.085   5.828   1.171 -0.4175 -0.1839  0.6321
 2360SOL     OW 9205   4.705   5.094   5.369 -0.4300 -0.1918  0.2234
 2360SOL    HW2 9206   4.769   5.066   5.304 -0.2454 -0.5263  0.5480
 2360SOL    HW3 9207   4.653   5.161   5.324 -0.2617 -0.3727 -0.2442
 2360SOL    MW4 9208   4.707   5.099   5.354 -0.2265  0.7056 -0.5065
 2361SOL     OW 9209   4.859   1.107   0.763 -0.6169  0.1279 -0.3758
 2361SOL    HW2 9210   4.873   1.166   0.690  2.4025  1.2852  0.9583
 2361SOL    HW3 9211   4.886   1.021   0.730  0.0131  0.4942 -0.8306
 2361SOL    MW4 9212   4.864   1.103   0.749 -0.3051  0.0422  0.0714
 2362SOL     OW 9213   4.138   1.410   0.313 -0.3595 -0.4481  0.3130
 2362SOL    HW2 9214   4.077   1.344   0.346  0.9224 -2.4197 -1.0663
 2362SOL    HW3 9215   4.213   1.360   0.280 -0.1638  1.5459 -2.6309
 2362SOL    MW4 9216   4.140   1.394   0.313  0.6872 -0.9713  0.0896
 2363SOL     OW 9217   2.206   2.607   2.143 -0.0001 -0.1036 -0.5637
 2363SOL    HW2 9218   2.257   2.550   2.200 -0.9405  0.0114  0.4245
 2363SOL    HW3 9219   2.122   2.562   2.133 -0.5124  0.7769 -0.3320
 2363SOL    MW4 9220   2.202   2.594   2.149 -0.0244 -0.5320  0.5283
 2364SOL     OW 9221   3.702   1.811   1.833 -0.3099 -0.1534  0.0925
 2364SOL    HW2 9222   3.715   1.851   1.747 -1.5917  0.0200 -0.0400
 2364SOL    HW3 9223   3.610   1.785   1.834 -0.2605 -0.3652  1.3251
 2364SOL    MW4 9224   3.691   1.813   1.822  0.1190 -0.1543 -0.1378
 2365SOL     OW 9225   1.359   5.589   2.036 -0.1327 -0.4574  0.3680
 2365SOL    HW2 9226   1.383   5.619   2.124 -2.4310 -0.7007  1.1442
 2365SOL    HW3 9227   1.292   5.522   2.050 -1.0666 -0.0164 -1.5855
 2365SOL    MW4 9228   1.353   5.584   2.049 -0.0130  0.1631  0.4459
 2366SOL     OW 9229   2.854   2.565   4.657 -0.1830 -0.6257  0.2940
 2366SOL    HW2 9230   2.904   2.641   4.626  1.3999 -1.8008 -0.1718
 2366SOL    HW3 9231   2.794   2.546   4.585  1.4620 -1.5573 -0.9169
 2366SOL    MW4 9232   2.853   2.573   4.643 -0.4875  0.0530  0.2375
 2367SOL     OW 9233   1.783   6.205   4.463 -0.2143  0.6223  0.1778
 2367SOL    HW2 9234   1.731   6.184   4.385 -0.3482 -0.1401  0.4582
 2367SOL    HW3 9235   1.749   6.290   4.493 -0.2176  0.8751 -0.5428
 2367SOL    MW4 9236   1.771   6.213   4.457  0.1808 -0.4228 -1.0433
 2368SOL     OW 9237   2.052   4.801   1.149  0.2033  0.3539  0.1824
 2368SOL    HW2 9238   1.968   4.824   1.190  0.3947 -0.5398  1.1298
 2368SOL    HW3 9239   2.101   4.756   1.218  0.5532 -1.1956 -0.9978
 2368SOL    MW4 9240   2.047   4.798   1.163 -0.4056  0.3460  0.2866
 2369SOL     OW 9241   5.556   0.899   5.868  0.2387 -0.3880 -0.0312
 2369SOL    HW2 9242   5.581   0.831   5.805 -0.6021  0.1812 -0.9926
 2369SOL    HW3 9243   5.558   0.981   5.818 -1.3052 -0.0355  0.4353
 2369SOL    MW4 9244   5.560   0.901   5.853  0.0844  0.0118  0.6510
 2370SOL     OW 9245   4.853   4.653   5.677 -0.0084 -0.0548 -0.1523
 2370SOL    HW2 9246   4.946   4.677   5.673 -0.2071  0.7738 -0.1123
 2370SOL    HW3 9247   4.807   4.729   5.639 -0.7353  0.0307  0.8405
 2370SOL    MW4 9248   4.859   4.666   5.672 -0.7998  0.1199  0.0221
 2371SOL     OW 9249   2.699   5.032   0.661  0.1411 -0.0192 -0.5164
 2371SOL    HW2 9250   2.765   4.974   0.625  0.8766 -1.6630  2.9956
 2371SOL    HW3 9251   2.735   5.120   0.652  2.1149 -0.7462 -0.0847
 2371SOL    MW4 9252   2.712   5.036   0.655 -0.5628 -0.5139 -0.5692
 2372SOL     OW 9253   1.990   6.319   1.459  1.1771  0.3768 -0.4600
 2372SOL    HW2 9254   1.975   6.229   1.488  1.4686  0.8808  1.3717
 2372SOL    HW3 9255   2.002   6.369   1.540  0.2582  2.2133 -1.3856
 2372SOL    MW4 9256   1.990   6.314   1.473  0.5709 -0.0265 -0.0996
 2373SOL     OW 9257   5.807   1.056   4.422  0.1152 -0.4079  0.3835
 2373SOL    HW2 9258   5.729   1.112   4.421 -0.3123 -0.9679  1.2282
 2373SOL    HW3 9259   5.876   1.112   4.457 -0.2156 -0.2723  0.8370
 2373SOL    MW4 9260   5.806   1.071   4.427 -0.2875  0.5815  0.5468
 2374SOL     OW 9261   3.488   3.471   4.736  0.2765 -0.3295 -0.1627
 2374SOL    HW2 9262   3.481   3.566   4.740 -0.9736 -0.3196 -1.9739
 2374SOL    HW3 9263   3.434   3.440   4.809  1.3873  0.3135  0.9896
 2374SOL    MW4 9264   3.480   3.480   4.746  0.4071 -0.1587 -0.4651
 2375SOL     OW 9265   4.277   4.134   5.628  0.0377 -0.1611  0.4114
 2375SOL    HW2 9266   4.189   4.144   5.591  0.5937 -2.2459 -1.7339
 2375SOL    HW3 9267   4.267   4.068   5.697 -0.1627 -0.0167  0.5215
 2375SOL    MW4 9268   4.264   4.127   5.632  0.0908  0.1380 -0.2037
 2376SOL     OW 9269   4.776   2.522   5.745 -0.1740  0.4217 -0.0332
 2376SOL    HW2 9270   4.698   2.538   5.693 -1.2338 -0.2498  1.2859
 2376SOL    HW3 9271   4.839   2.588   5.717 -1.4517  1.3946 -0.6432
 2376SOL    MW4 9272   4.774   2.533   5.735 -0.1171  0.4558  0.2025
 2377SOL     OW 9273   2.914   4.133   2.124 -0.1724  0.0474 -0.2309
 2377SOL    HW2 9274   2.999   4.112   2.161 -0.1967  0.3197 -0.0160
 2377SOL    HW3 9275   2.862   4.163   2.198  0.0545  1.4507 -0.6209
 2377SOL    MW4 9276   2.918   4.134   2.139  0.3880 -0.0611  0.0230
 2378SOL     OW 9277   1.910   2.354   4.493  0.6560  0.1428  0.3756
 2378SOL    HW2 9278   1.925   2.421   4.426  0.6489 -0.2080  0.0217
 2378SOL    HW3 9279   1.929   2.398   4.575  0.6634  0.5796  0.1436
 2378SOL    MW4 9280   1.914   2.369   4.495  0.0976  0.5939 -0.0888
 2379SOL     OW 9281   0.931   2.317   3.961  0.7068 -0.0308 -0.0914
 2379SOL    HW2 9282   0.999   2.384   3.952 -0.4796  1.0705 -1.4133
 2379SOL    HW3 9283   0.894   2.332   4.048  0.3164  1.2030 -0.4493
 2379SOL    MW4 9284   0.935   2.328   3.972  0.2407  0.3230 -0.1226
 2380SOL     OW 9285   5.214   0.581   2.082  0.3037 -0.0881  0.1101
 2380SOL    HW2 9286   5.177   0.666   2.104  1.9796  1.0366 -1.1509
 2380SOL    HW3 9287   5.157   0.518   2.126 -0.1305  1.7149  2.3571
 2380SOL    MW4 9288   5.202   0.584   2.091  0.2944  0.0751  0.1030
 2381SOL     OW 9289   0.604   3.209   0.075 -0.3565  0.1979  0.2172
 2381SOL    HW2 9290   0.582   3.287   0.024 -0.3013 -0.0849 -0.2453
 2381SOL    HW3 9291   0.690   3.182   0.043 -0.9585 -0.8324 -0.5957
 2381SOL    MW4 9292   0.612   3.215   0.064 -0.3298  0.5506 -0.0962
 2382SOL     OW 9293   6.373   0.215   0.654 -0.0934  0.5216 -0.1459
 2382SOL    HW2 9294   6.339   0.169   0.730 -0.9169  0.0066 -0.8097
 2382SOL    HW3 9295   6.388   0.304   0.684 -0.8887  0.4506  0.4820
 2382SOL    MW4 9296   6.371   0.220   0.668 -0.2546  0.4364 -0.9991
 2383SOL     OW 9297   0.880   1.294   1.790 -0.3547  0.5829 -0.3432
 2383SOL    HW2 9298   0.964   1.278   1.747  0.7891  2.0913  1.1827
 2383SOL    HW3 9299   0.879   1.389   1.806 -0.9833  0.2161  2.2914
 2383SOL    MW4 9300   0.891   1.305   1.786 -0.4156  0.3967  0.4071
 2384SOL     OW 9301   1.638   0.183   5.640 -0.2779  0.5338  0.2902
 2384SOL    HW2 9302   1.695   0.106   5.637  1.1418  1.4610  1.5795
 2384SOL    HW3 9303   1.624   0.199   5.734  0.5993  2.6094  0.1250
 2384SOL    MW4 9304   1.644   0.175   5.652 -0.0476 -0.4440 -0.0987
 2385SOL     OW 9305   4.126   3.209   0.922  0.6018  0.6338 -0.1510
 2385SOL    HW2 9306   4.158   3.248   0.841  0.2823 -0.3162 -0.7555
 2385SOL    HW3 9307   4.176   3.251   0.991 -2.0591  4.7909 -0.3655
 2385SOL    MW4 9308   4.137   3.220   0.921  0.6065  0.0409 -0.2147
 2386SOL     OW 9309   0.573   4.772   2.434 -0.8611  0.1067  0.2449
 2386SOL    HW2 9310   0.527   4.696   2.398 -0.1043 -1.2940  2.0941
 2386SOL    HW3 9311   0.550   4.844   2.375 -1.5711 -1.5450 -1.5973
 2386SOL    MW4 9312   0.564   4.771   2.421  0.3806 -0.3993 -0.0835
 2387SOL     OW 9313   0.098   1.490   6.081 -0.7576 -0.0635 -0.3845
 2387SOL    HW2 9314   0.193   1.494   6.075 -0.7069 -0.3380  0.1735
 2387SOL    HW3 9315   0.074   1.414   6.027 -0.7656  0.6748 -1.4555
 2387SOL    MW4 9316   0.107   1.480   6.073 -0.0318 -1.0937  0.1883
 2388SOL     OW 9317   4.645   6.115   0.183  0.3936 -0.1193  0.3084
 2388SOL    HW2 9318   4.636   6.179   0.254 -2.1323  0.7722 -0.7197
 2388SOL    HW3 9319   4.559   6.075   0.175  0.8633 -0.8643 -1.6576
 2388SOL    MW4 9320   4.633   6.118   0.192 -0.3915  0.1539  0.4539
 2389SOL     OW 9321   4.930   0.998   4.798 -0.0120  0.1731  0.6468
 2389SOL    HW2 9322   4.841   0.990   4.832 -0.1509  0.9915  0.5158
 2389SOL    HW3 9323   4.925   0.966   4.708  0.1459 -1.0948  1.0703
 2389SOL    MW4 9324   4.918   0.993   4.791 -0.7193  0.0505  0.1812
 2390SOL     OW 9325   5.351   3.611   5.677  0.6949 -0.1877  0.0707
 2390SOL    HW2 9326   5.402   3.596   5.757  1.4241  3.0880  0.3535
 2390SOL    HW3 9327   5.412   3.594   5.605  0.0032 -3.2648  0.0348
 2390SOL    MW4 9328   5.366   3.607   5.678 -0.4400  0.8714  0.3898
 2391SOL     OW 9329   3.718   2.882   6.329  0.3481  0.4268 -0.0894
 2391SOL    HW2 9330   3.784   2.943   6.295  1.6549 -0.7202  0.3050
 2391SOL    HW3 9331   3.769   2.813   6.371 -1.1567  0.4542  1.9045
 2391SOL    MW4 9332   3.734   2.881   6.330 -0.6687  0.6396  0.4244
 2392SOL     OW 9333   1.128   0.493   5.829  0.6989 -0.3177 -0.2099
 2392SOL    HW2 9334   1.051   0.548   5.839  1.7042  1.1178 -0.0976
 2392SOL    HW3 9335   1.179   0.535   5.760  0.2427 -2.6182 -2.0858
 2392SOL    MW4 9336   1.124   0.506   5.821  0.1185 -0.2119  0.2309
 2393SOL     OW 9337   1.556   4.115   1.510  0.2020  0.0903  0.3240
 2393SOL    HW2 9338   1.644   4.079   1.515  0.5437  1.0904  3.7920
 2393SOL    HW3 9339   1.512   4.082   1.589 -2.2981  0.2737 -0.8864
 2393SOL    MW4 9340   1.561   4.106   1.521  0.2600  0.3136 -0.8446
 2394SOL     OW 9341   0.891   0.610   5.917 -0.2555  0.1507  0.2052
 2394SOL    HW2 9342   0.813   0.665   5.929 -1.1124 -1.0821  0.5008
 2394SOL    HW3 9343   0.860   0.521   5.933  1.6428 -0.2208  2.2362
 2394SOL    MW4 9344   0.876   0.606   5.920  0.3586 -0.0816 -0.6179
 2395SOL     OW 9345   5.779   1.189   2.023  0.1451 -0.4721  0.1133
 2395SOL    HW2 9346   5.780   1.133   2.101 -0.4923 -0.7296 -0.0595
 2395SOL    HW3 9347   5.813   1.273   2.054 -3.3604  0.5771  1.5677
 2395SOL    MW4 9348   5.784   1.193   2.037 -0.7513  0.5397  0.3700
 2396SOL     OW 9349   1.775   1.080   2.414 -0.0028  0.6253 -0.3283
 2396SOL    HW2 9350   1.693   1.130   2.409 -0.4542 -0.1615 -1.2982
 2396SOL    HW3 9351   1.764   1.011   2.349  1.1668  0.0936  0.0164
 2396SOL    MW4 9352   1.762   1.077   2.405 -0.1930  0.2447  0.0245
 2397SOL     OW 9353   4.886   0.449   1.800  0.7693 -0.3038  0.7012
 2397SOL    HW2 9354   4.970   0.403   1.812 -0.1464 -2.5221 -0.7199
 2397SOL    HW3 9355   4.835   0.390   1.745 -0.9436  2.0181 -0.3333
 2397SOL    MW4 9356   4.891   0.435   1.795 -0.2016 -0.5310  0.2973
 2398SOL     OW 9357   3.301   3.330   4.906 -0.2378 -0.0902 -0.3189
 2398SOL    HW2 9358   3.206   3.331   4.897 -0.4156 -1.6625  1.0403
 2398SOL    HW3 9359   3.323   3.239   4.925  1.4495  0.4230  0.3695
 2398SOL    MW4 9360   3.292   3.318   4.907 -0.5454  0.5480  0.3643
 2399SOL     OW 9361   4.801   0.283   4.325  0.8130  0.0571 -0.2920
 2399SOL    HW2 9362   4.725   0.254   4.375  1.6840  0.3161  1.2136
 2399SOL    HW3 9363   4.874   0.233   4.360  1.3534 -0.2293 -1.7618
 2399SOL    MW4 9364   4.801   0.273   4.336  0.5872  0.1990  0.3497
 2400SOL     OW 9365   5.263   2.902   1.150 -0.1395 -0.5982 -0.1793
 2400SOL    HW2 9366   5.260   2.811   1.121 -2.6436 -0.1187 -1.7307
 2400SOL    HW3 9367   5.333   2.904   1.216  0.5412 -3.4294 -0.6822
 2400SOL    MW4 9368   5.272   2.890   1.155 -0.1879 -0.6302  0.2054
 2401SOL     OW 9369   1.255   4.884   4.704  0.3278  0.2260  0.7248
 2401SOL    HW2 9370   1.206   4.957   4.666  0.4618  0.4657  1.0103
 2401SOL    HW3 9371   1.197   4.848   4.770  0.0971 -0.1875  0.3032
 2401SOL    MW4 9372   1.241   4.889   4.708  0.7267 -0.0424 -0.2616
 2402SOL     OW 9373   3.831   3.732   3.477  0.1091 -0.1062 -0.2649
 2402SOL    HW2 9374   3.811   3.706   3.567 -1.3717  0.4636 -0.4009
 2402SOL    HW3 9375   3.834   3.827   3.479 -0.5480 -0.0595 -0.9202
 2402SOL    MW4 9376   3.828   3.741   3.489  0.4563  0.0691 -0.2461
 2403SOL     OW 9377   0.354   2.897   0.302  0.0273  0.1162 -0.0611
 2403SOL    HW2 9378   0.399   2.957   0.242  2.5180 -0.2826  1.3055
 2403SOL    HW3 9379   0.352   2.944   0.385  0.1238 -0.8780  0.5129
 2403SOL    MW4 9380   0.359   2.911   0.305  0.0655  0.1986  0.0689
 2404SOL     OW 9381   4.892   3.337   5.302 -0.2956 -0.0261  0.5875
 2404SOL    HW2 9382   4.913   3.294   5.386 -0.1254  0.8934  1.0253
 2404SOL    HW3 9383   4.965   3.396   5.286 -0.1165 -0.5161 -0.4479
 2404SOL    MW4 9384   4.904   3.339   5.311  0.5051  0.0817  0.0386
 2405SOL     OW 9385   5.826   4.264   5.419 -0.3579 -0.1667  0.3390
 2405SOL    HW2 9386   5.903   4.227   5.463 -0.0389  0.6001  0.4539
 2405SOL    HW3 9387   5.777   4.307   5.489  1.2793  3.0098 -0.2435
 2405SOL    MW4 9388   5.830   4.265   5.434 -0.9975  0.7252  0.0382
 2406SOL     OW 9389   5.884   0.738   2.796  0.1107 -0.3540  0.6621
 2406SOL    HW2 9390   5.975   0.709   2.803  0.0833 -0.3019  1.2931
 2406SOL    HW3 9391   5.847   0.685   2.726  0.2753 -1.2918  1.2620
 2406SOL    MW4 9392   5.891   0.727   2.788 -0.4651 -0.0033 -0.0671
 2407SOL     OW 9393   1.511   4.142   6.208  0.3500  0.1076 -0.6399
 2407SOL    HW2 9394   1.534   4.057   6.171  0.9616 -0.3626  0.7429
 2407SOL    HW3 9395   1.569   4.204   6.164  1.5773 -0.5377  0.0081
 2407SOL    MW4 9396   1.522   4.139   6.198 -0.3504 -0.6746  0.1402
 2408SOL     OW 9397   5.607   2.569   1.020  0.5446  0.3189 -0.4886
 2408SOL    HW2 9398   5.591   2.663   1.020 -1.3206  0.0599  0.5921
 2408SOL    HW3 9399   5.591   2.542   1.111  3.0342 -0.7673 -0.3070
 2408SOL    MW4 9400   5.603   2.578   1.032  0.8455  0.0578  0.5168
 2409SOL     OW 9401   2.944   3.967   5.557 -0.0262  0.2777 -0.4834
 2409SOL    HW2 9402   2.952   3.876   5.529  0.0824  0.1973 -0.1906
 2409SOL    HW3 9403   2.989   3.971   5.642  0.1398  0.6458 -0.5856
 2409SOL    MW4 9404   2.951   3.956   5.565 -0.0795  0.3507 -0.3089
 2410SOL     OW 9405   1.958   2.368   5.714  0.4666  0.9985  0.2460
 2410SOL    HW2 9406   1.961   2.460   5.688 -0.7059  0.1236 -3.6469
 2410SOL    HW3 9407   1.870   2.356   5.749 -0.1710  1.0189 -1.2439
 2410SOL    MW4 9408   1.947   2.378   5.715  0.1100  0.6983 -0.0823
 2411SOL     OW 9409   1.163   6.290   3.373  0.2073  0.4195  0.6531
 2411SOL    HW2 9410   1.117   6.215   3.412 -1.8729  1.9433  1.3026
 2411SOL    HW3 9411   1.226   6.251   3.313 -0.7222 -1.8525  1.0627
 2411SOL    MW4 9412   1.165   6.275   3.370 -0.0454  0.7523 -0.4336
 2412SOL     OW 9413   3.471   5.553   6.172  0.0512 -0.1523 -0.3814
 2412SOL    HW2 9414   3.522   5.493   6.118 -1.1719 -2.9715  1.3931
 2412SOL    HW3 9415   3.395   5.575   6.118  0.1694 -0.7616 -0.8033
 2412SOL    MW4 9416   3.468   5.548   6.157 -0.3393  0.2473  0.1623
 2413SOL     OW 9417   2.458   4.633   5.264  0.0543  0.0205 -0.2277
 2413SOL    HW2 9418   2.382   4.626   5.205 -0.8251 -0.7637  0.9545
 2413SOL    HW3 9419   2.440   4.569   5.333  1.6016  0.1327  0.3052
 2413SOL    MW4 9420   2.446   4.623   5.265 -0.0549 -0.5930 -0.4367
 2414SOL     OW 9421   4.922   3.465   4.622 -0.1236 -0.5584 -0.0905
 2414SOL    HW2 9422   4.973   3.402   4.571  0.0459 -1.3877  1.0719
 2414SOL    HW3 9423   4.836   3.466   4.580  0.0829 -1.0424 -0.5327
 2414SOL    MW4 9424   4.917   3.457   4.610  0.8015 -0.2055  0.1227
 2415SOL     OW 9425   2.793   4.154   3.517 -0.2446 -0.4176 -0.3675
 2415SOL    HW2 9426   2.744   4.204   3.452 -1.9518 -0.3918  0.8669
 2415SOL    HW3 9427   2.769   4.194   3.600  0.3782 -1.6660  0.4329
 2415SOL    MW4 9428   2.783   4.166   3.519  0.6057  0.1793  0.1923
 2416SOL     OW 9429   0.858   4.450   0.593 -0.1803  0.1626 -0.7631
 2416SOL    HW2 9430   0.948   4.462   0.564 -0.3198 -0.1101 -1.3317
 2416SOL    HW3 9431   0.818   4.537   0.584  0.1573  0.4010 -0.0180
 2416SOL    MW4 9432   0.864   4.463   0.588  0.9903  0.1374 -0.6331
 2417SOL     OW 9433   3.829   5.049   4.673 -0.2726  0.3748 -0.2028
 2417SOL    HW2 9434   3.893   5.037   4.743  0.1470 -1.1354 -0.8073
 2417SOL    HW3 9435   3.745   5.033   4.716 -0.2157  1.5931  0.4157
 2417SOL    MW4 9436   3.826   5.046   4.688  0.0334 -0.0105  0.0321
 2418SOL     OW 9437   4.369   3.341   5.820  0.1860 -0.6764 -0.3697
 2418SOL    HW2 9438   4.440   3.301   5.771 -0.6661 -2.6575 -0.1077
 2418SOL    HW3 9439   4.290   3.311   5.776 -0.5233  0.4599  0.0900
 2418SOL    MW4 9440   4.368   3.332   5.808 -0.0180  0.6937 -0.3975
 2419SOL     OW 9441   3.448   0.215   1.264  0.0430  0.5504  0.1638
 2419SOL    HW2 9442   3.424   0.247   1.177 -0.7070  0.5249  0.3596
 2419SOL    HW3 9443   3.477   0.293   1.312  1.4987  0.4125 -0.4341
 2419SOL    MW4 9444   3.449   0.229   1.259 -0.5829  0.3902 -0.2066
 2420SOL     OW 9445   0.980   0.678   3.290 -0.5254 -0.1854 -0.3071
 2420SOL    HW2 9446   0.939   0.599   3.326  0.4167  0.0677  1.4665
 2420SOL    HW3 9447   1.068   0.649   3.263 -0.4546  0.0888 -0.3708
 2420SOL    MW4 9448   0.986   0.664   3.292 -0.4310  0.0229  0.3981
 2421SOL     OW 9449   3.488   4.118   3.318  0.4963  0.4428 -0.0516
 2421SOL    HW2 9450   3.545   4.061   3.267 -0.6531 -1.0599  0.2744
 2421SOL    HW3 9451   3.517   4.107   3.408 -0.5059 -0.6027  0.1578
 2421SOL    MW4 9452   3.499   4.109   3.323 -0.2848  0.3371 -0.4616
 2422SOL     OW 9453   5.307   0.432   1.598 -0.3127  0.4608  0.0445
 2422SOL    HW2 9454   5.395   0.429   1.635  0.1930  0.1479 -1.1263
 2422SOL    HW3 9455   5.270   0.346   1.618 -0.2501  0.5009  0.3270
 2422SOL    MW4 9456   5.314   0.420   1.605 -0.0710  0.2473  0.0734
 2423SOL     OW 9457   4.808   5.623   2.506 -0.0332 -0.0742  0.3267
 2423SOL    HW2 9458   4.886   5.679   2.507  1.6408 -2.2232  1.9837
 2423SOL    HW3 9459   4.831   5.552   2.446 -1.0078 -0.3878  0.3131
 2423SOL    MW4 9460   4.821   5.621   2.498 -0.1105 -0.6785 -0.4989
 2424SOL     OW 9461   6.214   0.533   0.574 -0.3084 -0.1182  0.0536
 2424SOL    HW2 9462   6.157   0.609   0.567 -0.3684 -0.2911 -1.9958
 2424SOL    HW3 9463   6.213   0.493   0.486  0.8412 -1.6601  0.6780
 2424SOL    MW4 9464   6.206   0.537   0.561 -0.2029  0.7624  0.0272
 2425SOL     OW 9465   1.922   3.073   4.833  0.1224 -0.2852 -0.1827
 2425SOL    HW2 9466   1.900   2.997   4.779 -1.5473 -0.4771  0.7008
 2425SOL    HW3 9467   1.847   3.132   4.823  0.7298  0.5845  0.3139
 2425SOL    MW4 9468   1.909   3.071   4.824  0.0205 -0.1562 -0.2802
 2426SOL     OW 9469   0.814   3.374   4.201 -0.1636  0.0122 -0.0997
 2426SOL    HW2 9470   0.782   3.348   4.288 -0.7256  0.1761 -0.2474
 2426SOL    HW3 9471   0.834   3.467   4.210  0.1599 -0.0645 -0.0378
 2426SOL    MW4 9472   0.812   3.382   4.214  0.3359 -0.1282 -0.5295
 2427SOL     OW 9473   1.731   4.007   5.304 -0.3920 -0.2890 -0.3762
 2427SOL    HW2 9474   1.802   3.948   5.278 -0.5947 -0.7689  0.1509
 2427SOL    HW3 9475   1.652   3.956   5.293 -0.4647 -0.6530  1.5533
 2427SOL    MW4 9476   1.730   3.993   5.299 -0.1775  0.1162  0.1590
 2428SOL     OW 9477   4.597   5.149   4.831 -0.4858 -0.3410 -0.0936
 2428SOL    HW2 9478   4.502   5.158   4.838 -0.6187 -1.6472  0.1906
 2428SOL    HW3 9479   4.618   5.181   4.744 -1.1518  0.2433 -0.0441
 2428SOL    MW4 9480   4.587   5.154   4.821 -0.4638 -0.2019  0.2473
 2429SOL     OW 9481   3.650   5.531   0.498 -0.3402  0.1913 -0.2524
 2429SOL    HW2 9482   3.731   5.580   0.481  0.7083 -1.6407 -0.7908
 2429SOL    HW3 9483   3.606   5.528   0.413 -0.9201  1.0337  0.0022
 2429SOL    MW4 9484   3.655   5.537   0.484  0.3541 -0.0896  0.2299
 2430SOL     OW 9485   4.059   1.599   1.720 -0.2935  0.1171 -0.5135
 2430SOL    HW2 9486   4.028   1.618   1.808 -0.5615  0.2910 -0.6445
 2430SOL    HW3 9487   4.005   1.526   1.690 -0.6360  0.4753 -0.7741
 2430SOL    MW4 9488   4.048   1.592   1.728  0.7223  0.2497  0.3752
 2431SOL     OW 9489   1.602   5.926   2.462  0.2141 -0.2718  0.2597
 2431SOL    HW2 9490   1.595   5.898   2.371 -0.9934 -2.4996  0.9699
 2431SOL    HW3 9491   1.523   5.979   2.477 -0.2135 -0.9107  0.3118
 2431SOL    MW4 9492   1.591   5.929   2.452 -0.1557  0.4555 -0.0697
 2432SOL     OW 9493   0.979   2.991   6.237  0.4901  0.5556  0.6225
 2432SOL    HW2 9494   0.954   3.050   6.308  0.6527  0.9849  0.3309
 2432SOL    HW3 9495   1.073   3.008   6.224  0.4215  0.6201  0.1833
 2432SOL    MW4 9496   0.988   3.001   6.245 -0.0134  0.0655  0.1988
 2433SOL     OW 9497   4.562   0.562   6.200  0.4290 -0.0126  0.7470
 2433SOL    HW2 9498   4.541   0.564   6.293 -0.5264  0.4736  0.5398
 2433SOL    HW3 9499   4.483   0.596   6.157  1.3982  1.1996 -0.1423
 2433SOL    MW4 9500   4.549   0.567   6.207 -0.2035  0.0942 -0.0421
 2434SOL     OW 9501   4.920   4.305   2.798 -0.0341 -0.4737 -0.4383
 2434SOL    HW2 9502   4.895   4.215   2.775  0.9975 -0.2979 -2.4664
 2434SOL    HW3 9503   4.837   4.347   2.822 -0.4472 -2.1217  1.3158
 2434SOL    MW4 9504   4.906   4.299   2.798 -0.0016 -0.0993 -0.1202
 2435SOL     OW 9505   5.003   4.361   6.409 -0.3049  0.3483 -0.5852
 2435SOL    HW2 9506   5.078   4.410   6.443 -0.6204  0.3221  0.1538
 2435SOL    HW3 9507   4.930   4.423   6.414 -0.2841  0.4719 -1.5750
 2435SOL    MW4 9508   5.003   4.376   6.414  0.0232 -0.0431  0.4916
 2436SOL     OW 9509   4.143   5.789   4.220  0.2990  0.8174  0.6063
 2436SOL    HW2 9510   4.189   5.731   4.160 -0.2859 -0.1920  1.1172
 2436SOL    HW3 9511   4.194   5.786   4.301  0.7089  1.6550  0.3979
 2436SOL    MW4 9512   4.156   5.781   4.223 -0.1834  0.0763  0.3250
 2437SOL     OW 9513   1.226   4.663   2.915 -0.0623  0.1315  0.1944
 2437SOL    HW2 9514   1.230   4.701   2.827 -0.4830 -1.0191 -0.3397
 2437SOL    HW3 9515   1.290   4.712   2.965  1.7993 -0.6337 -1.3259
 2437SOL    MW4 9516   1.235   4.674   2.910 -0.4447 -0.0201 -0.1566
 2438SOL     OW 9517   0.162   1.016   0.575  0.3742  0.7136  0.5914
 2438SOL    HW2 9518   0.091   1.055   0.627 -1.1440  0.8413 -1.4544
 2438SOL    HW3 9519   0.240   1.064   0.602 -0.7344  2.2758  1.1755
 2438SOL    MW4 9520   0.163   1.027   0.586 -0.0891 -0.1438  0.6134
 2439SOL     OW 9521   5.890   5.272   0.579  0.0364 -0.4345  0.5761
 2439SOL    HW2 9522   5.958   5.269   0.646  1.4289 -2.3985 -0.8175
 2439SOL    HW3 9523   5.902   5.357   0.536  2.0109 -0.9151  0.0464
 2439SOL    MW4 9524   5.900   5.283   0.582 -0.0700  0.0191  0.1710
 2440SOL     OW 9525   1.781   5.718   1.630  0.0540 -0.4135  0.7346
 2440SOL    HW2 9526   1.805   5.712   1.722  0.2772 -1.6517  0.6109
 2440SOL    HW3 9527   1.838   5.655   1.585  0.4490  0.6876 -0.3590
 2440SOL    MW4 9528   1.791   5.709   1.636 -0.7293  0.6910  0.2719
 2441SOL     OW 9529   2.640   2.921   5.949  0.2158  0.3092  0.1157
 2441SOL    HW2 9530   2.611   2.900   6.038  2.4095  0.2278  0.8685
 2441SOL    HW3 9531   2.721   2.872   5.938  1.8422  2.9484 -0.6100
 2441SOL    MW4 9532   2.647   2.912   5.959  0.4946 -0.0952 -0.5312
 2442SOL     OW 9533   5.316   6.014   0.175 -0.3558  0.1737  0.7089
 2442SOL    HW2 9534   5.298   5.922   0.191  1.2028  0.0451  1.9283
 2442SOL    HW3 9535   5.363   6.015   0.091 -3.4572  0.2814 -1.1890
 2442SOL    MW4 9536   5.320   6.002   0.166  0.5554  1.1206 -0.0600
 2443SOL     OW 9537   1.528   4.309   4.683  0.3125 -0.2268  0.2356
 2443SOL    HW2 9538   1.475   4.258   4.745  1.2534 -1.5223  0.0207
 2443SOL    HW3 9539   1.567   4.377   4.737 -0.1561 -0.3467  0.7477
 2443SOL    MW4 9540   1.526   4.311   4.698 -0.4801  0.4443  0.4551
 2444SOL     OW 9541   0.307   5.267   2.069 -0.0476 -0.8337  0.4177
 2444SOL    HW2 9542   0.378   5.316   2.028 -0.4244 -1.0867 -0.5678
 2444SOL    HW3 9543   0.233   5.329   2.071  0.2450 -0.4896  1.6622
 2444SOL    MW4 9544   0.306   5.282   2.064 -0.3245  0.9133 -0.4155
 2445SOL     OW 9545   4.799   6.342   1.507 -0.2718 -0.4401 -0.8684
 2445SOL    HW2 9546   4.872   6.399   1.485 -0.6868  0.0752 -0.9217
 2445SOL    HW3 9547   4.808   6.267   1.449  1.1650 -1.1822  0.2458
 2445SOL    MW4 9548   4.810   6.339   1.497  0.2170  0.1670  0.0310
 2446SOL     OW 9549   0.001   0.946   5.305  0.4214  0.3482 -0.2967
 2446SOL    HW2 9550   0.000   0.874   5.243 -1.9219  0.1439 -0.1362
 2446SOL    HW3 9551   0.089   0.983   5.299  1.3610 -1.8689 -1.1024
 2446SOL    MW4 9552   0.012   0.942   5.296  0.0928 -0.0287 -0.2132
 2447SOL     OW 9553   2.622   0.641   2.486 -0.2840  0.1496  0.1531
 2447SOL    HW2 9554   2.675   0.704   2.438  0.0634 -0.2180  0.0537
 2447SOL    HW3 9555   2.631   0.667   2.578 -0.0511  0.1790  0.1226
 2447SOL    MW4 9556   2.630   0.652   2.492 -0.3335  0.0443  0.5552
 2448SOL     OW 9557   2.038   4.051   4.440 -0.3457 -0.2333 -0.3435
 2448SOL    HW2 9558   2.030   3.962   4.476 -0.3818  0.2773  0.9648
 2448SOL    HW3 9559   2.043   4.107   4.517 -0.5559  0.9303 -1.1575
 2448SOL    MW4 9560   2.038   4.046   4.455 -0.0405  0.0407  0.5769
 2449SOL     OW 9561   0.673   3.318   5.592  0.4490  0.0610 -0.4557
 2449SOL    HW2 9562   0.755   3.290   5.634  1.2406 -2.1664 -3.1848
 2449SOL    HW3 9563   0.604   3.283   5.648  1.3983 -0.8548  0.1802
 2449SOL    MW4 9564   0.675   3.310   5.605 -0.1710 -0.0897  0.5923
 2450SOL     OW 9565   0.043   4.462   0.804 -0.2769  0.0046  0.7580
 2450SOL    HW2 9566  -0.022   4.457   0.875 -0.0202 -0.1539  0.9872
 2450SOL    HW3 9567   0.057   4.370   0.779  1.7979 -0.2454  2.5146
 2450SOL    MW4 9568   0.036   4.449   0.810 -0.3651  0.2372  0.1123
 2451SOL     OW 9569   3.042   3.198   0.694  0.8053  0.4697  0.4002
 2451SOL    HW2 9570   3.010   3.285   0.714 -0.8668  0.1015 -0.4726
 2451SOL    HW3 9571   2.964   3.142   0.697  1.5507 -0.6949 -0.6730
 2451SOL    MW4 9572   3.027   3.202   0.697  0.1407  0.0557  0.6450
 2452SOL     OW 9573   6.148   2.345   2.021  0.8092 -0.7054 -0.2545
 2452SOL    HW2 9574   6.213   2.290   1.977  2.4390  1.9418 -1.3711
 2452SOL    HW3 9575   6.192   2.429   2.035 -1.9614  0.8294  0.0598
 2452SOL    MW4 9576   6.162   2.349   2.017 -0.1364  0.5378 -0.4285
 2453SOL     OW 9577   3.534   5.055   2.040  0.3089 -0.0598 -0.4435
 2453SOL    HW2 9578   3.466   4.997   2.075 -0.8989  0.8981 -1.1091
 2453SOL    HW3 9579   3.502   5.143   2.058  1.6684  0.4116 -0.2728
 2453SOL    MW4 9580   3.521   5.059   2.047 -0.4819  0.1203  0.6231
 2454SOL     OW 9581   3.926   1.733   1.955 -0.0094  0.3720 -0.7532
 2454SOL    HW2 9582   3.936   1.778   2.038  0.9722  0.6352 -0.9936
 2454SOL    HW3 9583   3.842   1.764   1.920 -0.9720 -0.6037  0.6334
 2454SOL    MW4 9584   3.917   1.743   1.961 -0.3612 -0.1719 -0.9594
 2455SOL     OW 9585   1.353   1.355   6.074 -0.2417  0.3139  0.0433
 2455SOL    HW2 9586   1.426   1.381   6.130  0.8098 -1.4351 -0.4247
 2455SOL    HW3 9587   1.394   1.326   5.992 -1.1531 -2.9082  0.5602
 2455SOL    MW4 9588   1.368   1.354   6.070  0.0583 -0.2378 -0.5682
 2456SOL     OW 9589   2.645   5.827   3.227  0.1564  0.4929 -0.0288
 2456SOL    HW2 9590   2.573   5.873   3.269  0.0693  1.6263 -1.3410
 2456SOL    HW3 9591   2.609   5.741   3.204 -0.2963  0.4887  0.6777
 2456SOL    MW4 9592   2.631   5.822   3.229  0.0379 -0.2400  0.7429
 2457SOL     OW 9593   2.405   1.996   4.439 -0.3869 -0.3777  0.3124
 2457SOL    HW2 9594   2.405   1.963   4.529  1.5733 -1.5380 -0.0701
 2457SOL    HW3 9595   2.317   1.976   4.406 -1.2169  0.2846  2.0089
 2457SOL    MW4 9596   2.393   1.989   4.447  0.1148  0.0370  0.6818
 2458SOL     OW 9597   0.600   2.493   6.382  0.2993  0.0319 -0.4248
 2458SOL    HW2 9598   0.546   2.458   6.311 -1.5504 -1.4638  1.5950
 2458SOL    HW3 9599   0.559   2.577   6.403  0.5085  0.2175 -0.7505
 2458SOL    MW4 9600   0.587   2.500   6.375 -0.1741 -0.4909  0.0323
 2459SOL     OW 9601   2.568   0.635   5.856  0.2019  0.1453  0.2531
 2459SOL    HW2 9602   2.496   0.698   5.858  2.2610  2.6985  0.2454
 2459SOL    HW3 9603   2.624   0.661   5.930  0.9304 -2.0209  0.5278
 2459SOL    MW4 9604   2.566   0.647   5.866  0.3795  0.3302 -0.0481
 2460SOL     OW 9605   1.063   2.272   4.925  0.7048 -0.8610  0.4406
 2460SOL    HW2 9606   1.002   2.199   4.940 -1.0271  0.1330 -1.2537
 2460SOL    HW3 9607   1.120   2.240   4.855 -1.2366 -0.0655 -1.6395
 2460SOL    MW4 9608   1.062   2.258   4.917  0.0659  0.7757  0.0114
 2461SOL     OW 9609   6.344   5.510   1.202 -0.1970 -0.0597 -0.5028
 2461SOL    HW2 9610   6.370   5.543   1.116 -0.0689  0.0036 -0.4399
 2461SOL    HW3 9611   6.248   5.517   1.202 -0.3962 -2.0111 -1.4471
 2461SOL    MW4 9612   6.335   5.515   1.190 -0.5005 -0.1586  0.1965
 2462SOL     OW 9613   1.788   2.376   2.950 -0.0911  0.2547  0.7108
 2462SOL    HW2 9614   1.723   2.445   2.967  0.7499  0.9857  0.9860
 2462SOL    HW3 9615   1.788   2.366   2.855  0.0387  0.8860  0.6417
 2462SOL    MW4 9616   1.779   2.384   2.939 -0.3403 -0.3230 -0.1563
 2463SOL     OW 9617   4.097   1.891   4.391  0.3078  0.1219  0.4199
 2463SOL    HW2 9618   4.088   1.853   4.479  0.5051 -0.2269  0.2896
 2463SOL    HW3 9619   4.191   1.894   4.376  0.2334 -0.8818 -0.2446
 2463SOL    MW4 9620   4.108   1.887   4.401  0.0054  0.3095  0.2292
 2464SOL     OW 9621   2.544   5.970   0.402  0.5028 -0.0423 -0.1189
 2464SOL    HW2 9622   2.559   5.921   0.483 -0.8121 -1.1733 -0.5164
 2464SOL    HW3 9623   2.498   6.049   0.430  0.0992 -0.4010  0.2447
 2464SOL    MW4 9624   2.540   5.974   0.417  0.5931 -0.1374  0.8209
 2465SOL     OW 9625   1.402   5.355   5.375 -0.3080  0.1158 -0.0207
 2465SOL    HW2 9626   1.399   5.315   5.288  0.0989 -0.5711  0.2691
 2465SOL    HW3 9627   1.413   5.448   5.359  1.5685 -0.1872 -0.6900
 2465SOL    MW4 9628   1.403   5.362   5.362  0.1536  0.1056  0.1663
 2466SOL     OW 9629   2.169   1.253   4.146 -0.6325 -0.5888  0.2275
 2466SOL    HW2 9630   2.106   1.185   4.123 -0.4168 -1.4054  1.9001
 2466SOL    HW3 9631   2.254   1.216   4.121 -0.6647 -0.0757 -0.7045
 2466SOL    MW4 9632   2.172   1.239   4.139  0.0873  0.0187 -0.1803
 2467SOL     OW 9633   1.081   6.418   0.148  0.2360  0.0431 -0.0015
 2467SOL    HW2 9634   1.021   6.454   0.083 -1.0237  0.7829  1.5114
 2467SOL    HW3 9635   1.038   6.338   0.179  1.4045 -0.9715 -0.9007
 2467SOL    MW4 9636   1.067   6.412   0.144 -0.6130  0.4731 -0.4034
 2468SOL     OW 9637   4.095   0.608   3.964 -0.0439  0.1109 -0.4202
 2468SOL    HW2 9638   4.007   0.608   3.999 -0.1087 -0.0429 -0.5804
 2468SOL    HW3 9639   4.107   0.697   3.929 -0.4114 -0.0919 -1.0752
 2468SOL    MW4 9640   4.085   0.620   3.964 -0.3377 -0.1865  0.1794
 2469SOL     OW 9641   6.402   0.057   5.336  0.3215 -0.7614 -0.5272
 2469SOL    HW2 9642   6.335   0.043   5.404 -0.2191  0.8507 -0.6770
 2469SOL    HW3 9643   6.360   0.117   5.274  1.9109  0.3674 -0.5815
 2469SOL    MW4 9644   6.387   0.063   5.337 -0.4610  0.3854  0.2490
 2470SOL     OW 9645   1.689   1.741   2.854  0.3807  0.3486 -0.0453
 2470SOL    HW2 9646   1.651   1.662   2.893 -0.7949  0.4470 -0.9198
 2470SOL    HW3 9647   1.646   1.814   2.900 -0.6005  0.4620 -1.0946
 2470SOL    MW4 9648   1.678   1.740   2.865 -0.7029 -0.1947 -0.3504
 2471SOL     OW 9649   0.429   6.367   2.429  0.1068  0.0755  0.5235
 2471SOL    HW2 9650   0.345   6.343   2.389  0.3828  0.1469 -0.1223
 2471SOL    HW3 9651   0.424   6.333   2.518 -0.1734 -0.9100  0.1518
 2471SOL    MW4 9652   0.417   6.359   2.435  1.1357  0.1043 -0.6304
 2472SOL     OW 9653   1.407   2.744   1.240  0.7916  0.0777  0.0731
 2472SOL    HW2 9654   1.432   2.755   1.331 -2.1825 -1.0445  1.1588
 2472SOL    HW3 9655   1.353   2.820   1.220  0.8508 -0.0254 -0.5201
 2472SOL    MW4 9656   1.403   2.755   1.249  0.4236  0.6914 -0.2702
 2473SOL     OW 9657   2.761   2.888   5.273 -0.2457 -0.0889 -0.3676
 2473SOL    HW2 9658   2.760   2.800   5.237  0.5051  0.4134 -1.6805
 2473SOL    HW3 9659   2.719   2.942   5.206  2.0086  1.0230 -0.9594
 2473SOL    MW4 9660   2.755   2.884   5.260  0.0868 -0.1281  0.4125
 2474SOL     OW 9661   6.060   2.670   6.243  0.1409  0.2390  0.6902
 2474SOL    HW2 9662   6.104   2.656   6.326 -0.9515 -1.9413  0.9569
 2474SOL    HW3 9663   6.046   2.582   6.207  0.1139  1.0784 -1.5654
 2474SOL    MW4 9664   6.064   2.657   6.249 -0.6615 -0.2591  0.2282
 2475SOL     OW 9665   5.368   3.399   6.058 -0.1268 -0.5586  0.2768
 2475SOL    HW2 9666   5.403   3.399   6.147 -2.2962  0.1338  1.1890
 2475SOL    HW3 9667   5.407   3.476   6.017 -2.2794  1.6328  2.0586
 2475SOL    MW4 9668   5.378   3.409   6.064  0.1308  0.3143 -0.1668
 2476SOL     OW 9669   2.809   2.248   5.968  0.3081  0.1291  0.0479
 2476SOL    HW2 9670   2.815   2.160   6.003 -3.0788 -0.3550 -0.3324
 2476SOL    HW3 9671   2.754   2.296   6.030 -1.0132  0.8702 -1.6165
 2476SOL    MW4 9672   2.803   2.243   5.980 -0.3600 -0.4267 -0.3248
 2477SOL     OW 9673   2.075   5.769   2.883  1.0066 -0.5575  0.5124
 2477SOL    HW2 9674   2.103   5.759   2.792 -1.2029  2.8412 -0.7746
 2477SOL    HW3 9675   2.147   5.814   2.926  0.4909  1.6849 -0.8131
 2477SOL    MW4 9676   2.088   5.774   2.877 -0.0734 -0.3372  0.6767
 2478SOL     OW 9677   3.760   0.685   5.416 -0.1567 -0.5923  0.0803
 2478SOL    HW2 9678   3.676   0.644   5.396 -0.1774 -1.1885  1.2915
 2478SOL    HW3 9679   3.742   0.779   5.413 -1.1337 -0.7181  1.3209
 2478SOL    MW4 9680   3.747   0.692   5.413  0.3761  0.7175 -0.3842
 2479SOL     OW 9681   6.110   5.957   2.175  0.0530  0.4435 -0.6320
 2479SOL    HW2 9682   6.175   5.886   2.175 -0.4994 -0.0750 -0.0954
 2479SOL    HW3 9683   6.065   5.947   2.259 -0.4358  1.0618 -0.8207
 2479SOL    MW4 9684   6.113   5.946   2.186 -0.6529  0.7885  0.2664
 2480SOL     OW 9685   4.260   1.528   3.251 -0.1279 -0.1920  0.1503
 2480SOL    HW2 9686   4.266   1.551   3.158 -0.8299  3.3582  0.8507
 2480SOL    HW3 9687   4.171   1.494   3.262  0.3039 -1.6696 -0.5917
 2480SOL    MW4 9688   4.249   1.527   3.240  0.0042  0.4268  0.4701
 2481SOL     OW 9689   2.147   2.484   2.531 -0.0650  0.0492  0.0461
 2481SOL    HW2 9690   2.117   2.404   2.574  1.6076 -0.8801 -0.4169
 2481SOL    HW3 9691   2.188   2.535   2.602 -2.7638  1.4521  0.7388
 2481SOL    MW4 9692   2.149   2.481   2.546 -0.4854 -0.4719 -0.3623
 2482SOL     OW 9693   0.394   2.903   2.468  0.5015  0.3871 -0.7477
 2482SOL    HW2 9694   0.373   2.821   2.512  0.5271  1.0544  0.5401
 2482SOL    HW3 9695   0.489   2.900   2.456  0.5480  0.3914 -0.3798
 2482SOL    MW4 9696   0.404   2.892   2.472  0.2443  0.3861 -0.3336
 2483SOL     OW 9697   5.095   2.889   4.573 -0.0374  0.4417  0.0661
 2483SOL    HW2 9698   5.159   2.949   4.611  1.3130 -0.8271 -0.1280
 2483SOL    HW3 9699   5.052   2.941   4.505  2.7646  0.5817 -1.7601
 2483SOL    MW4 9700   5.098   2.904   4.569  0.1416 -0.3294  0.0413
 2484SOL     OW 9701   3.120   2.295   5.603 -0.0334  0.4580 -0.1264
 2484SOL    HW2 9702   3.097   2.293   5.696  0.6657  0.0772  0.0436
 2484SOL    HW3 9703   3.203   2.343   5.600  1.2950 -1.7124 -0.2365
 2484SOL    MW4 9704   3.128   2.301   5.615  0.0809 -0.2836  0.4647
 2485SOL     OW 9705   2.093   6.052   2.746  0.2371  0.1214  0.2207
 2485SOL    HW2 9706   2.156   6.009   2.804  0.6523 -0.0489 -0.3475
 2485SOL    HW3 9707   2.101   6.005   2.663  0.4358  1.0528 -0.3048
 2485SOL    MW4 9708   2.102   6.040   2.743 -0.2973  0.0736 -0.5048
 2486SOL     OW 9709   4.646   4.135   0.649 -0.4777  0.7198 -0.7205
 2486SOL    HW2 9710   4.578   4.144   0.582 -1.7871  3.6747  0.8058
 2486SOL    HW3 9711   4.599   4.112   0.729  0.5561  0.8994 -0.0343
 2486SOL    MW4 9712   4.631   4.133   0.650 -0.4238 -0.6138  0.2026
 2487SOL     OW 9713   1.892   3.015   4.554  0.5793  0.1677  0.2704
 2487SOL    HW2 9714   1.882   2.924   4.529 -1.8818  0.2761  0.5794
 2487SOL    HW3 9715   1.806   3.055   4.536  0.7829  1.8040  2.4454
 2487SOL    MW4 9716   1.879   3.008   4.549 -0.5485 -1.0890 -0.7581
 2488SOL     OW 9717   5.958   2.286   2.775 -0.2006  0.3492  0.2563
 2488SOL    HW2 9718   6.000   2.200   2.770  0.4672  0.5962  1.3160
 2488SOL    HW3 9719   5.997   2.327   2.852 -0.8591  1.4218  0.0332
 2488SOL    MW4 9720   5.968   2.280   2.785  0.9076  0.1172 -0.5093
 2489SOL     OW 9721   1.500   0.629   4.033  0.0978 -0.1797  0.3620
 2489SOL    HW2 9722   1.521   0.537   4.022  1.0355 -0.0719  1.0794
 2489SOL    HW3 9723   1.575   0.665   4.081  0.2381  1.1768 -0.8109
 2489SOL    MW4 9724   1.512   0.622   4.038  0.1506 -0.7082 -0.3934
 2490SOL     OW 9725   3.105   3.862   1.812  0.0660  0.4771 -0.6797
 2490SOL    HW2 9726   3.024   3.813   1.818 -0.5879  1.5521 -0.3962
 2490SOL    HW3 9727   3.149   3.847   1.895 -0.4490  0.8996 -0.3251
 2490SOL    MW4 9728   3.100   3.854   1.824  0.4179  0.8337  0.1951
 2491SOL     OW 9729   2.167   1.839   4.886  0.3061  0.1812  0.2598
 2491SOL    HW2 9730   2.125   1.754   4.870  0.7591 -0.4216  2.0204
 2491SOL    HW3 9731   2.124   1.872   4.965 -1.2559  2.5934 -1.4537
 2491SOL    MW4 9732   2.156   1.832   4.894 -0.1649 -0.0365 -0.1341
 2492SOL     OW 9733   5.921   5.425   2.329 -0.8597  0.3331  0.1638
 2492SOL    HW2 9734   5.944   5.356   2.392  1.2485  0.1351 -0.7432
 2492SOL    HW3 9735   5.829   5.444   2.347 -0.2850  0.5434  3.5644
 2492SOL    MW4 9736   5.912   5.419   2.340  0.1784 -0.2534  0.2670
 2493SOL     OW 9737   3.172   5.326   4.532  0.4589  0.1297  0.3806
 2493SOL    HW2 9738   3.233   5.360   4.466  1.7671  0.2095  1.5854
 2493SOL    HW3 9739   3.228   5.281   4.595 -0.8103 -0.3362  1.2072
 2493SOL    MW4 9740   3.187   5.325   4.531  0.0157  0.1229  0.4436
 2494SOL     OW 9741   5.381   3.482   3.356 -0.0328 -0.3633 -0.3547
 2494SOL    HW2 9742   5.318   3.540   3.313  0.1888  0.0292 -0.1614
 2494SOL    HW3 9743   5.329   3.430   3.417 -0.1490  0.0938 -0.0580
 2494SOL    MW4 9744   5.366   3.483   3.359  0.4654  0.3144  0.1028
 2495SOL     OW 9745   1.925   1.385   6.376  0.6797  0.4686 -0.1917
 2495SOL    HW2 9746   1.958   1.472   6.400  0.1003  0.3089  1.2987
 2495SOL    HW3 9747   1.849   1.403   6.321  0.6844  0.9115 -0.0616
 2495SOL    MW4 9748   1.919   1.399   6.372  0.2733  0.7265 -0.4357
 2496SOL     OW 9749   1.610   6.389   3.364 -0.6007 -0.7178 -0.4464
 2496SOL    HW2 9750   1.662   6.421   3.438 -1.1115 -0.9095  0.0040
 2496SOL    HW3 9751   1.569   6.308   3.397 -2.7636  0.4468 -0.0887
 2496SOL    MW4 9752   1.611   6.382   3.378  0.5455 -0.1154 -0.1058
 2497SOL     OW 9753   4.516   0.040   5.517 -0.0955 -0.4784  0.3613
 2497SOL    HW2 9754   4.552   0.096   5.585 -0.3790 -0.4851  0.5217
 2497SOL    HW3 9755   4.587   0.029   5.454 -0.1406  0.3250  0.1595
 2497SOL    MW4 9756   4.530   0.046   5.518  0.5471  0.4725  0.0896
 2498SOL     OW 9757   1.783   1.519   1.103  0.8876 -0.6670  0.0013
 2498SOL    HW2 9758   1.740   1.586   1.050 -1.1181 -1.3744  0.6685
 2498SOL    HW3 9759   1.824   1.567   1.175 -0.5452 -0.1294  0.4876
 2498SOL    MW4 9760   1.783   1.534   1.105 -0.4530  0.3224 -0.6583
 2499SOL     OW 9761   3.797   2.945   5.946  0.3584  0.2316 -0.7896
 2499SOL    HW2 9762   3.710   2.953   5.986  0.3239  0.9402 -0.9908
 2499SOL    HW3 9763   3.828   2.858   5.972 -0.1613  0.2130 -0.2134
 2499SOL    MW4 9764   3.790   2.935   5.955  0.3794  0.3157  0.0927
 2500SOL     OW 9765   4.002   6.006   5.736  0.2668  0.0362  0.2320
 2500SOL    HW2 9766   4.021   5.973   5.649  0.8903 -0.1892  0.4525
 2500SOL    HW3 9767   3.942   5.942   5.775  0.1908  0.0081  0.0662
 2500SOL    MW4 9768   3.997   5.993   5.730  0.2250  0.3609  0.0813
 2501SOL     OW 9769   1.312   2.577   0.664 -0.2051 -0.9938 -0.0681
 2501SOL    HW2 9770   1.266   2.609   0.586 -0.0725 -0.7636 -0.0520
 2501SOL    HW3 9771   1.368   2.507   0.632  0.3208 -0.4747 -0.2852
 2501SOL    MW4 9772   1.313   2.572   0.650 -0.8011 -0.6703 -0.1354
 2502SOL     OW 9773   4.192   4.774   4.848 -0.4458  0.0900 -0.1010
 2502SOL    HW2 9774   4.270   4.723   4.824 -0.1246  0.9053 -0.8445
 2502SOL    HW3 9775   4.192   4.774   4.943  0.5375  0.1760 -0.0901
 2502SOL    MW4 9776   4.202   4.767   4.857  0.1835  0.3191  0.1073
 2503SOL     OW 9777   2.611   2.248   4.723 -0.4982  0.0888  0.0352
 2503SOL    HW2 9778   2.582   2.308   4.655  0.3182 -0.8705 -1.2060
 2503SOL    HW3 9779   2.684   2.292   4.767 -0.0954  0.1335 -0.6734
 2503SOL    MW4 9780   2.617   2.261   4.720  0.0550  0.5055  0.0166
 2504SOL     OW 9781   5.971   0.769   5.351 -0.3808  0.1186  0.2554
 2504SOL    HW2 9782   5.976   0.679   5.383 -2.3100  0.0087  0.3434
 2504SOL    HW3 9783   5.989   0.823   5.428 -0.0698 -0.1799  0.3950
 2504SOL    MW4 9784   5.974   0.764   5.365  0.1820  0.4553  0.2413
 2505SOL     OW 9785   4.158   2.597   6.124  0.2723 -0.0095 -0.0089
 2505SOL    HW2 9786   4.174   2.535   6.052 -1.8084 -0.6245 -0.0344
 2505SOL    HW3 9787   4.117   2.543   6.192 -2.2429  1.3959 -0.3017
 2505SOL    MW4 9788   4.154   2.581   6.123 -0.3020 -0.0695 -0.0675
 2506SOL     OW 9789   2.625   1.359   4.491  0.8694 -0.4295 -0.3743
 2506SOL    HW2 9790   2.544   1.353   4.442 -0.6828  1.6989  1.6996
 2506SOL    HW3 9791   2.646   1.268   4.515  0.1324 -1.1879 -2.4123
 2506SOL    MW4 9792   2.617   1.346   4.488  0.2011 -0.1996 -0.6267
 2507SOL     OW 9793   3.712   5.379   4.141 -0.5188  0.1595  0.6618
 2507SOL    HW2 9794   3.808   5.390   4.144 -0.4128 -0.5443  0.0848
 2507SOL    HW3 9795   3.698   5.292   4.177 -0.8998  0.0302  0.1976
 2507SOL    MW4 9796   3.723   5.369   4.146  0.2777  0.3313  0.2137
 2508SOL     OW 9797   1.528   6.144   2.006 -0.1846 -0.3233  0.2640
 2508SOL    HW2 9798   1.492   6.075   1.949  4.1062 -2.0638 -0.7136
 2508SOL    HW3 9799   1.524   6.223   1.953 -2.3021 -0.4407  0.1756
 2508SOL    MW4 9800   1.523   6.145   1.991  0.3916  0.6541  0.8422
 2509SOL     OW 9801   2.603   3.412   5.171  0.1847 -0.2785  0.0400
 2509SOL    HW2 9802   2.622   3.381   5.259 -0.2920 -1.7289 -0.3367
 2509SOL    HW3 9803   2.625   3.338   5.114 -0.8571  0.1153 -0.9244
 2509SOL    MW4 9804   2.608   3.399   5.175  0.3175  0.3551 -1.1116
 2510SOL     OW 9805   2.936   1.076   1.913 -0.5175  0.0954 -0.6792
 2510SOL    HW2 9806   2.965   1.096   1.824 -1.8830 -0.1817 -1.2076
 2510SOL    HW3 9807   2.850   1.037   1.902 -0.3218 -0.7995  0.7152
 2510SOL    MW4 9808   2.929   1.073   1.900 -0.7058 -0.1143 -0.7040
 2511SOL     OW 9809   5.745   1.794   1.274 -0.2364 -0.0376 -0.7759
 2511SOL    HW2 9810   5.735   1.709   1.317 -0.2552  0.1719 -0.3546
 2511SOL    HW3 9811   5.835   1.794   1.241 -0.0098  0.0399 -0.1818
 2511SOL    MW4 9812   5.756   1.783   1.276  0.1982  0.1724 -0.4016
 2512SOL     OW 9813   4.754   3.997   6.206  0.6269 -0.2700  0.0577
 2512SOL    HW2 9814   4.835   4.028   6.246  0.8070  0.1515 -0.6253
 2512SOL    HW3 9815   4.775   3.987   6.113  0.2699 -1.4223  0.0858
 2512SOL    MW4 9816   4.767   3.999   6.199  0.3156 -0.4764  0.1765
 2513SOL     OW 9817   6.332   4.087   5.649  0.0529  0.2754 -0.4955
 2513SOL    HW2 9818   6.410   4.058   5.601 -0.7578 -1.9614 -0.5575
 2513SOL    HW3 9819   6.340   4.047   5.735 -0.8131  0.4034 -0.3463
 2513SOL    MW4 9820   6.343   4.078   5.654 -0.0365  0.6673  0.2953
 2514SOL     OW 9821   4.795   0.281   3.688 -0.2646 -0.0837 -0.3037
 2514SOL    HW2 9822   4.830   0.365   3.659  0.7506 -0.4878 -0.2969
 2514SOL    HW3 9823   4.838   0.264   3.772 -0.2771 -0.7134 -0.4166
 2514SOL    MW4 9824   4.806   0.290   3.695  0.3554  0.0857 -0.3093
 2515SOL     OW 9825   1.269   2.519   5.279 -0.3054  0.4930  0.1285
 2515SOL    HW2 9826   1.199   2.512   5.215  1.8175 -0.4912 -2.2629
 2515SOL    HW3 9827   1.256   2.445   5.338 -1.0257  0.0725 -0.5443
 2515SOL    MW4 9828   1.258   2.508   5.278  0.0733 -0.2629 -0.0565
 2516SOL     OW 9829   2.032   0.222   2.601  0.5862  0.3041 -0.8189
 2516SOL    HW2 9830   2.017   0.310   2.566  1.0624  1.1403  0.9430
 2516SOL    HW3 9831   1.962   0.169   2.563 -1.6202  2.1207  0.4373
 2516SOL    MW4 9832   2.021   0.227   2.591 -0.2342 -0.0142  0.0433
 2517SOL     OW 9833   0.384   4.954   2.645 -0.2344 -0.2902 -0.3614
 2517SOL    HW2 9834   0.303   4.997   2.672 -1.0697 -0.3652 -2.6229
 2517SOL    HW3 9835   0.444   5.026   2.626 -0.0018 -0.2287  0.5526
 2517SOL    MW4 9836   0.381   4.969   2.646 -0.3993  0.0497 -0.4239
 2518SOL     OW 9837   5.474   5.204   0.446 -0.2085 -0.3148 -0.2281
 2518SOL    HW2 9838   5.534   5.129   0.444 -1.5280 -1.4205  0.0876
 2518SOL    HW3 9839   5.515   5.266   0.507  0.0028 -1.5795  0.9704
 2518SOL    MW4 9840   5.487   5.202   0.454 -0.7010  0.5421  0.0725
 2519SOL     OW 9841   2.050   2.942   2.676  0.2381  0.2042 -0.9157
 2519SOL    HW2 9842   2.026   2.859   2.715  1.7577 -0.0857 -0.5119
 2519SOL    HW3 9843   1.971   2.973   2.632 -0.6837 -0.8560 -0.0426
 2519SOL    MW4 9844   2.037   2.935   2.676  0.6016  0.5153 -0.2684
 2520SOL     OW 9845   1.233   0.720   6.311 -0.1569  0.3977  0.4301
 2520SOL    HW2 9846   1.195   0.764   6.387 -1.6186 -0.2090  0.0835
 2520SOL    HW3 9847   1.195   0.764   6.235 -0.3102 -0.3087  0.0783
 2520SOL    MW4 9848   1.223   0.731   6.311 -0.6382 -0.2004  0.2615
 2521SOL     OW 9849   0.031   6.224   0.202 -0.5458  0.2542  0.6429
 2521SOL    HW2 9850   0.101   6.163   0.222  2.5420  3.3695  0.2312
 2521SOL    HW3 9851   0.006   6.204   0.112 -0.0766 -0.7807  0.7271
 2521SOL    MW4 9852   0.037   6.213   0.193 -0.3307  0.2525  0.7463
 2522SOL     OW 9853   5.216   5.785   2.435  0.0077 -0.1400 -0.2668
 2522SOL    HW2 9854   5.156   5.808   2.506  0.4753  3.0572 -0.7807
 2522SOL    HW3 9855   5.235   5.692   2.450 -1.7974 -0.2116  2.3303
 2522SOL    MW4 9856   5.210   5.775   2.447 -0.4450  0.1375  0.9665
 2523SOL     OW 9857   2.401   2.246   3.223 -0.5291  0.1128 -0.1182
 2523SOL    HW2 9858   2.404   2.213   3.134 -2.5105  1.8035 -0.8955
 2523SOL    HW3 9859   2.456   2.324   3.222 -0.0836 -0.1893  0.3065
 2523SOL    MW4 9860   2.409   2.252   3.211  0.1600 -0.3391  0.1176
 2524SOL     OW 9861   0.672   2.907   2.429 -0.5996 -0.4882  0.2241
 2524SOL    HW2 9862   0.734   2.847   2.389  2.0282  1.9914  0.2312
 2524SOL    HW3 9863   0.705   2.919   2.519  0.3954  2.5153 -0.4033
 2524SOL    MW4 9864   0.685   2.901   2.436 -0.5549 -0.3469  0.4126
 2525SOL     OW 9865   1.783   2.115   2.486 -0.1738 -0.5995  0.3721
 2525SOL    HW2 9866   1.849   2.133   2.419 -0.4851 -2.3613 -0.4627
 2525SOL    HW3 9867   1.812   2.035   2.529 -0.7522 -0.3019  1.3566
 2525SOL    MW4 9868   1.795   2.107   2.483  0.0574 -0.2520  0.2262
 2526SOL     OW 9869   0.748   1.472   5.832  0.0120  0.2006  0.4389
 2526SOL    HW2 9870   0.820   1.409   5.826 -0.8336 -0.8612  1.0311
 2526SOL    HW3 9871   0.766   1.521   5.912 -0.3966 -0.7199  1.1206
 2526SOL    MW4 9872   0.760   1.470   5.842  0.7060 -0.2657 -0.9710
 2527SOL     OW 9873   0.909   5.435   3.695  0.0748  0.4326  0.1641
 2527SOL    HW2 9874   0.906   5.347   3.659 -3.5305  2.1854 -4.8279
 2527SOL    HW3 9875   0.951   5.488   3.627 -1.4733  3.1886  1.1854
 2527SOL    MW4 9876   0.914   5.431   3.682  0.1398  0.0407  0.4023
 2528SOL     OW 9877   3.580   5.400   1.062 -0.9896 -0.2146  0.2057
 2528SOL    HW2 9878   3.548   5.390   1.152 -2.7185 -0.6390 -0.4178
 2528SOL    HW3 9879   3.547   5.485   1.034  0.0566  0.1868  0.1522
 2528SOL    MW4 9880   3.572   5.410   1.070  0.3008  0.1127  0.5219
 2529SOL     OW 9881   4.735   2.748   2.546  0.1208 -0.7069  0.1477
 2529SOL    HW2 9882   4.674   2.676   2.529 -0.6812 -0.3972  1.5254
 2529SOL    HW3 9883   4.683   2.812   2.593  1.0693  0.3727 -0.2387
 2529SOL    MW4 9884   4.720   2.747   2.550  0.6305  0.6817  0.1652
 2530SOL     OW 9885   4.096   2.752   3.826  0.1777 -0.3791  0.4083
 2530SOL    HW2 9886   4.003   2.774   3.815  0.5855  0.8123 -0.9410
 2530SOL    HW3 9887   4.100   2.657   3.815 -0.5065 -0.1441 -2.8821
 2530SOL    MW4 9888   4.084   2.743   3.823  0.4766 -0.0408 -0.4904
 2531SOL     OW 9889   0.414   5.803   3.801  0.0898 -0.0920  0.0822
 2531SOL    HW2 9890   0.486   5.855   3.765  0.5940 -0.5820  0.3631
 2531SOL    HW3 9891   0.366   5.772   3.725  0.1926  0.2182 -0.1104
 2531SOL    MW4 9892   0.417   5.806   3.786 -0.2001  0.4047 -0.0733
 2532SOL     OW 9893   4.049   6.168   6.263 -0.1328 -0.5379  0.4000
 2532SOL    HW2 9894   4.141   6.193   6.253 -0.3947  0.0267 -0.8048
 2532SOL    HW3 9895   4.014   6.170   6.174 -0.8589 -2.6355  0.5735
 2532SOL    MW4 9896   4.057   6.172   6.250 -0.4274 -0.2030 -0.4923
 2533SOL     OW 9897   6.122   4.047   6.079 -0.2835  0.2662  0.6701
 2533SOL    HW2 9898   6.078   4.131   6.092 -2.1524 -0.6444  0.4350
 2533SOL    HW3 9899   6.171   4.033   6.160 -0.1468  1.4561  0.8090
 2533SOL    MW4 9900   6.123   4.056   6.091  0.0630 -0.2803 -0.0413
 2534SOL     OW 9901   4.488   6.332   3.662  0.2183  0.1659  0.2786
 2534SOL    HW2 9902   4.400   6.296   3.646  1.3736 -2.3031 -1.2386
 2534SOL    HW3 9903   4.501   6.323   3.757 -1.8884  2.6555  0.9249
 2534SOL    MW4 9904   4.478   6.326   3.672 -0.2252  0.2247 -0.0750
 2535SOL     OW 9905   2.345   1.035   5.570  0.6847  0.3381 -0.5154
 2535SOL    HW2 9906   2.295   1.107   5.610  2.1742  0.6343  0.9343
 2535SOL    HW3 9907   2.289   0.958   5.581 -0.7546  1.1551 -1.7148
 2535SOL    MW4 9908   2.331   1.034   5.577  0.5557 -0.7251 -0.5022
 2536SOL     OW 9909   0.314   2.366   0.275  0.5159 -0.2114 -0.9243
 2536SOL    HW2 9910   0.353   2.453   0.264  0.3083  0.1327  0.7855
 2536SOL    HW3 9911   0.220   2.381   0.262  0.1819  0.3336  1.6061
 2536SOL    MW4 9912   0.307   2.380   0.272  1.0484  0.4210 -0.2180
 2537SOL     OW 9913   3.862   2.735   3.207  0.3551 -0.4124  0.1043
 2537SOL    HW2 9914   3.897   2.727   3.296  1.0159  2.3474  0.1982
 2537SOL    HW3 9915   3.773   2.768   3.219  0.3430 -0.3173 -0.2299
 2537SOL    MW4 9916   3.855   2.738   3.220 -0.6400 -0.2315 -0.1801
 2538SOL     OW 9917   4.444   2.598   6.210  0.2226  0.0207 -0.0228
 2538SOL    HW2 9918   4.477   2.514   6.240  0.8177 -0.1640 -1.1246
 2538SOL    HW3 9919   4.350   2.584   6.199 -0.0812  0.2013  1.9963
 2538SOL    MW4 9920   4.436   2.585   6.212 -0.5457 -0.5366 -0.0867
 2539SOL     OW 9921   3.378   4.167   1.059 -0.8358 -0.1121  0.5126
 2539SOL    HW2 9922   3.292   4.127   1.064 -0.3040 -1.2904  0.4936
 2539SOL    HW3 9923   3.431   4.118   1.121 -0.4590  1.3713  1.4044
 2539SOL    MW4 9924   3.374   4.155   1.068 -0.2634  0.3845  0.3451
 2540SOL     OW 9925   2.719   2.018   3.452 -0.3611  0.3149  0.0848
 2540SOL    HW2 9926   2.700   1.996   3.361 -0.7743  1.9999 -0.2716
 2540SOL    HW3 9927   2.792   1.961   3.475 -1.7995 -1.8831 -0.4929
 2540SOL    MW4 9928   2.726   2.008   3.443  0.4629 -0.2735  0.1423
 2541SOL     OW 9929   5.407   5.666   5.444  0.0247  0.5480  0.2990
 2541SOL    HW2 9930   5.364   5.665   5.529 -0.5894  0.2522 -0.0107
 2541SOL    HW3 9931   5.463   5.589   5.444  1.3665  1.4766  1.0997
 2541SOL    MW4 9932   5.409   5.656   5.455  0.5541  0.6559 -0.0709
 2542SOL     OW 9933   4.147   4.237   0.234  0.4806  0.4507 -0.3635
 2542SOL    HW2 9934   4.081   4.294   0.273  0.4795  1.7496 -2.1732
 2542SOL    HW3 9935   4.196   4.203   0.309 -0.9534  1.0168  0.8968
 2542SOL    MW4 9936   4.145   4.240   0.249  0.9744  0.1761  0.0721
 2543SOL     OW 9937   3.075   6.278   4.470  0.2069 -0.2838 -0.3838
 2543SOL    HW2 9938   3.077   6.219   4.546  0.6708 -0.9278 -0.8925
 2543SOL    HW3 9939   2.997   6.251   4.421 -0.7255  0.8529  0.4155
 2543SOL    MW4 9940   3.065   6.267   4.474 -0.2811  0.2185  0.4579
 2544SOL     OW 9941   3.146   2.163   1.366  0.5223 -0.4907 -0.0381
 2544SOL    HW2 9942   3.230   2.206   1.349  0.5610 -0.7231 -0.4271
 2544SOL    HW3 9943   3.160   2.117   1.449  0.7468 -0.4498 -0.0509
 2544SOL    MW4 9944   3.159   2.163   1.375  0.2880 -0.4114  0.3858
 2545SOL     OW 9945   1.121   0.607   1.106  0.6947 -0.1516 -0.1904
 2545SOL    HW2 9946   1.033   0.610   1.143  1.4260  2.0178  1.6345
 2545SOL    HW3 9947   1.108   0.595   1.012 -1.4912 -0.7246  0.1408
 2545SOL    MW4 9948   1.108   0.606   1.099  0.2871  0.3914  0.1346
 2546SOL     OW 9949   2.118   5.713   6.207  0.5068  0.0638  0.7509
 2546SOL    HW2 9950   2.110   5.705   6.111 -0.2493 -1.7215  0.9216
 2546SOL    HW3 9951   2.042   5.764   6.233 -0.3731 -1.1144  0.5651
 2546SOL    MW4 9952   2.107   5.718   6.198  0.4873 -0.2537  0.2631
 2547SOL     OW 9953   4.787   3.437   4.048 -0.1005 -0.1983  0.5131
 2547SOL    HW2 9954   4.765   3.397   3.964  1.3487  1.5231 -0.7470
 2547SOL    HW3 9955   4.878   3.411   4.064 -0.1209  0.1053  1.1852
 2547SOL    MW4 9956   4.796   3.428   4.039 -0.0569 -0.5648 -0.4189
 2548SOL     OW 9957   4.698   6.222   5.193  0.1832  0.8754  1.0316
 2548SOL    HW2 9958   4.609   6.256   5.186  0.8721  2.4584 -1.7600
 2548SOL    HW3 9959   4.749   6.293   5.232  0.8151  1.3884 -0.6510
 2548SOL    MW4 9960   4.693   6.235   5.197  0.1531 -0.6817 -0.0160
 2549SOL     OW 9961   4.512   1.340   6.408  0.2804 -0.0175  0.9401
 2549SOL    HW2 9962   4.606   1.361   6.412 -0.0110  1.7228 -0.3463
 2549SOL    HW3 9963   4.509   1.260   6.354  1.0425 -0.2308  1.1980
 2549SOL    MW4 9964   4.524   1.332   6.401  0.7216 -0.3309 -0.2728
 2550SOL     OW 9965   2.181   1.867   6.129 -0.5109 -0.5709 -0.0213
 2550SOL    HW2 9966   2.126   1.897   6.057  0.2853 -0.9044 -0.7888
 2550SOL    HW3 9967   2.268   1.855   6.090  0.0241 -0.4240  1.0702
 2550SOL    MW4 9968   2.186   1.869   6.114  0.3467 -0.3849  0.1849
 2551SOL     OW 9969   2.422   6.167   0.063 -0.1320  0.3260  0.1834
 2551SOL    HW2 9970   2.353   6.180  -0.001  1.4708  0.2796 -1.6268
 2551SOL    HW3 9971   2.386   6.101   0.123 -0.6919 -1.7872 -2.2794
 2551SOL    MW4 9972   2.408   6.160   0.063 -0.3018  0.0849  0.2206
 2552SOL     OW 9973   5.459   5.139   1.668 -0.1426  0.1380 -0.1037
 2552SOL    HW2 9974   5.494   5.186   1.593  0.2086  0.7390  0.4252
 2552SOL    HW3 9975   5.536   5.105   1.713 -0.3847 -0.8641 -0.4149
 2552SOL    MW4 9976   5.473   5.141   1.664 -0.1938  0.6196 -0.3255
 2553SOL     OW 9977   0.922   3.049   1.177  0.1950 -0.7936 -0.3448
 2553SOL    HW2 9978   0.837   3.007   1.165 -0.1383  0.1894 -1.7345
 2553SOL    HW3 9979   0.959   3.052   1.089  0.6431  0.8686 -0.1325
 2553SOL    MW4 9980   0.916   3.044   1.164 -0.0378 -0.2190 -0.5025
 2554SOL     OW 9981   3.594   2.404   4.717 -0.3432 -0.3145 -0.5787
 2554SOL    HW2 9982   3.571   2.437   4.630  1.2191 -1.1347 -1.3526
 2554SOL    HW3 9983   3.554   2.317   4.722  0.2631 -0.6207 -0.8480
 2554SOL    MW4 9984   3.586   2.397   4.706  0.1512  0.8246 -0.2101
 2555SOL     OW 9985   5.335   2.487   3.772 -0.6287 -0.2137  0.2212
 2555SOL    HW2 9986   5.326   2.551   3.701 -1.5070 -0.0606  0.4541
 2555SOL    HW3 9987   5.249   2.487   3.815  0.2475  0.6782  2.1155
 2555SOL    MW4 9988   5.322   2.495   3.768  0.0333  0.3153 -0.3536
 2556SOL     OW 9989   3.655   3.635   4.054  0.1296  0.3636  0.5872
 2556SOL    HW2 9990   3.731   3.646   4.111  1.3355  0.8846 -1.0650
 2556SOL    HW3 9991   3.687   3.655   3.966 -1.6139 -0.6177 -0.3317
 2556SOL    MW4 9992   3.670   3.639   4.050  0.1961  0.2927  0.5648
 2557SOL     OW 9993   6.060   1.309   2.151  0.0789  0.3296  0.4545
 2557SOL    HW2 9994   6.066   1.253   2.073  0.3994  1.0992 -0.0845
 2557SOL    HW3 9995   6.082   1.396   2.119  1.5794  0.4312  1.6795
 2557SOL    MW4 9996   6.063   1.313   2.136  0.6557  0.1887 -0.4443
 2558SOL     OW 9997   1.388   1.958   4.494  0.4733 -0.6451  0.4889
 2558SOL    HW2 9998   1.448   2.004   4.552  0.3669 -0.2552  0.2935
 2558SOL    HW3 9999   1.366   1.877   4.541 -2.1174  1.0595  2.4353
 2558SOL    MW410000   1.393   1.953   4.508  0.3155 -0.1667 -0.1352
 2559SOL     OW10001   1.438   1.390   5.594  0.0977 -0.0455  0.1860
 2559SOL    HW210002   1.367   1.343   5.549  0.9736  0.9123 -2.3721
 2559SOL    HW310003   1.518   1.356   5.554  0.8619  1.7413  0.1353
 2559SOL    MW410004   1.439   1.379   5.583  0.0791 -0.3519 -0.1370
 2560SOL     OW10005   4.954   6.253   1.095  0.6460  0.4996  0.2614
 2560SOL    HW210006   4.880   6.301   1.131  1.0318  2.6683 -1.6228
 2560SOL    HW310007   5.027   6.275   1.153  0.1217 -0.7597  1.4718
 2560SOL    MW410008   4.954   6.262   1.108  0.4027  0.3649 -0.2390
 2561SOL     OW10009   4.065   0.104   1.554  0.5075  0.1619 -0.1773
 2561SOL    HW210010   4.056   0.173   1.619 -2.4663 -0.9720  0.7733
 2561SOL    HW310011   3.987   0.111   1.499  2.3901  0.3843 -3.0425
 2561SOL    MW410012   4.054   0.114   1.555  0.1361  0.4399  0.4216
 2562SOL     OW10013  -0.004   3.413   4.611 -0.6318 -0.1903 -0.5431
 2562SOL    HW210014   0.025   3.503   4.597 -0.8396  0.1528  0.9998
 2562SOL    HW310015  -0.064   3.419   4.686  1.1893 -1.9094  1.1828
 2562SOL    MW410016  -0.009   3.426   4.619  0.1304  0.1052 -0.0439
 2563SOL     OW10017   0.196   0.073   6.039 -0.3286  0.1816  0.2194
 2563SOL    HW210018   0.253   0.079   5.962 -0.1797  1.3352  0.3974
 2563SOL    HW310019   0.220  -0.010   6.080  1.7703  0.9520  0.6759
 2563SOL    MW410020   0.207   0.063   6.034  0.0340  0.9317  0.1664
 2564SOL     OW10021   5.965   3.368   4.393 -0.0300 -0.9284  0.8458
 2564SOL    HW210022   6.003   3.427   4.458 -0.8387  0.3115  0.2252
 2564SOL    HW310023   6.032   3.360   4.325  0.2876 -1.1490  1.1828
 2564SOL    MW410024   5.978   3.375   4.393  0.4018  1.0379  0.0406
 2565SOL     OW10025   5.396   0.217   0.185  0.4259  0.0500 -0.1600
 2565SOL    HW210026   5.392   0.283   0.254 -1.0786 -0.3310  0.1537
 2565SOL    HW310027   5.347   0.255   0.113 -0.4169 -0.6933  0.0074
 2565SOL    MW410028   5.389   0.230   0.185 -0.0283 -0.2964  0.0253
 2566SOL     OW10029   2.470   1.836   6.060 -0.5777  0.0430 -0.0869
 2566SOL    HW210030   2.514   1.856   6.143 -0.0647  0.8976 -0.5595
 2566SOL    HW310031   2.455   1.741   6.064  1.8425 -0.4082 -0.1497
 2566SOL    MW410032   2.474   1.826   6.072  0.0009 -0.1610  0.5428
 2567SOL     OW10033   0.006   4.286   3.031  0.4130 -0.4916  0.1679
 2567SOL    HW210034   0.098   4.307   3.048  0.8634 -1.1016 -1.3423
 2567SOL    HW310035  -0.040   4.311   3.111  1.8378  0.1776  0.8023
 2567SOL    MW410036   0.012   4.292   3.044 -0.1370  0.2750 -0.1369
 2568SOL     OW10037   3.449   0.083   3.254  0.3846  0.2931 -0.0591
 2568SOL    HW210038   3.512   0.135   3.303  1.8121  0.9645 -2.4428
 2568SOL    HW310039   3.500   0.012   3.216 -0.9104 -0.9605  0.4398
 2568SOL    MW410040   3.464   0.080   3.255 -0.5136 -0.0715  0.2033
 2569SOL     OW10041   5.472   3.234   4.041 -0.0622  0.3017 -0.5343
 2569SOL    HW210042   5.567   3.241   4.047  0.0030 -0.5598 -0.4276
 2569SOL    HW310043   5.452   3.260   3.951  0.6875 -3.0498 -1.8075
 2569SOL    MW410044   5.482   3.238   4.030  0.0142  0.5457 -0.4195
 2570SOL     OW10045   0.535   5.551   3.111  0.5445 -0.6813 -0.5794
 2570SOL    HW210046   0.490   5.566   3.194  3.0062 -1.4764  0.9836
 2570SOL    HW310047   0.531   5.456   3.098  1.1633 -0.6837 -0.7782
 2570SOL    MW410048   0.528   5.541   3.120  0.0021  0.2412 -0.2218
 2571SOL     OW10049   0.103   0.661   1.170 -0.5238 -0.4702  0.0145
 2571SOL    HW210050   0.062   0.739   1.208  0.9796 -0.3842  1.5869
 2571SOL    HW310051   0.110   0.599   1.242 -1.1306 -1.8541 -1.0736
 2571SOL    MW410052   0.099   0.663   1.185  0.3558  0.4101 -0.2965
 2572SOL     OW10053   5.174   0.856   0.892  0.1378 -0.2545  0.3795
 2572SOL    HW210054   5.183   0.765   0.920 -0.1583  0.3586  2.7166
 2572SOL    HW310055   5.154   0.903   0.973  0.9386  1.9856 -0.6630
 2572SOL    MW410056   5.172   0.850   0.906 -0.8775 -0.1474 -0.4681
 2573SOL     OW10057   1.217   2.003   5.885 -0.4059  0.2039  0.0347
 2573SOL    HW210058   1.132   1.964   5.865  0.5660 -3.2441  1.7769
 2573SOL    HW310059   1.227   1.994   5.979  1.8387  0.4961 -0.1047
 2573SOL    MW410060   1.207   1.996   5.895 -0.0224  0.1554 -0.1686
 2574SOL     OW10061   1.260   3.078   2.125 -0.0580 -0.1594  0.4494
 2574SOL    HW210062   1.323   3.113   2.188  1.1145 -2.0712  0.4516
 2574SOL    HW310063   1.229   2.997   2.165 -3.2161  1.0949  0.8003
 2574SOL    MW410064   1.265   3.072   2.139 -0.5250  0.2753 -0.4365
 2575SOL     OW10065   5.171   3.736   3.347  0.0579  0.2919 -0.0229
 2575SOL    HW210066   5.205   3.800   3.285  2.1540 -0.6947  0.0412
 2575SOL    HW310067   5.172   3.781   3.432 -1.9259  1.3202 -0.4641
 2575SOL    MW410068   5.175   3.751   3.350  0.2910 -0.8026  0.0719
 2576SOL     OW10069   3.752   4.015   2.430  0.2788  0.0604  1.0644
 2576SOL    HW210070   3.785   4.032   2.519 -1.1573  1.4231  1.3783
 2576SOL    HW310071   3.671   3.966   2.444 -0.4472  1.0944  0.5746
 2576SOL    MW410072   3.746   4.010   2.444 -0.5236 -0.3313 -0.0478
 2577SOL     OW10073   1.102   3.957   0.953  0.9709  0.0618  0.7352
 2577SOL    HW210074   1.008   3.951   0.935  0.5953  1.8277  1.8241
 2577SOL    HW310075   1.119   4.051   0.959  2.8304 -0.2242  0.5494
 2577SOL    MW410076   1.092   3.969   0.951  0.5433 -0.5262  0.3257
 2578SOL     OW10077   4.025   2.523   0.784  0.1143  0.5339  0.3573
 2578SOL    HW210078   4.077   2.603   0.776  0.4886  0.1178 -2.1138
 2578SOL    HW310079   4.089   2.452   0.772 -0.7405 -0.0123 -1.2176
 2578SOL    MW410080   4.041   2.524   0.782 -0.0481  0.4129  0.4468
 2579SOL     OW10081   4.062   4.291   2.769  0.0294  0.3400  0.3374
 2579SOL    HW210082   3.991   4.336   2.816 -0.4169 -0.1571  0.1542
 2579SOL    HW310083   4.017   4.225   2.716  0.5623  0.6002 -0.4533
 2579SOL    MW410084   4.046   4.288   2.769 -0.0016 -0.6525  0.2607
 2580SOL     OW10085   2.658   2.199   5.055  0.1639  0.1053 -0.4789
 2580SOL    HW210086   2.640   2.223   5.146 -0.7009  1.7082 -1.0379
 2580SOL    HW310087   2.666   2.283   5.009 -0.7981 -0.6751 -2.1496
 2580SOL    MW410088   2.657   2.213   5.061  0.3122 -0.2310  0.8473
 2581SOL     OW10089   1.478   6.346   5.170 -0.6388 -1.0026  0.1879
 2581SOL    HW210090   1.516   6.288   5.103  0.5643 -0.9360  0.7913
 2581SOL    HW310091   1.385   6.325   5.169 -0.7113 -0.7594 -1.7622
 2581SOL    MW410092   1.471   6.335   5.161 -0.6468  1.0349 -0.2516
 2582SOL     OW10093   4.977   6.228   2.571  0.0605  0.2398 -0.0123
 2582SOL    HW210094   5.064   6.240   2.531 -0.0830  0.1226 -0.3638
 2582SOL    HW310095   4.985   6.147   2.621  0.3488  0.5764  0.4979
 2582SOL    MW410096   4.990   6.219   2.572 -0.1168 -0.3250 -0.0905
 2583SOL     OW10097   1.856   1.290   3.411  0.1619 -0.1903  0.2723
 2583SOL    HW210098   1.789   1.345   3.453 -1.1022 -1.3981 -0.0913
 2583SOL    HW310099   1.939   1.332   3.435 -0.7496  2.9565 -1.5149
 2583SOL    MW410100   1.858   1.303   3.420  0.4806  0.3118  0.1607
 2584SOL     OW10101   2.945   1.732   5.871  0.2566  0.4697 -0.2877
 2584SOL    HW210102   2.990   1.707   5.791  0.2223  1.5513 -0.6593
 2584SOL    HW310103   2.853   1.731   5.848 -0.0643 -2.5958  0.7082
 2584SOL    MW410104   2.939   1.729   5.858 -0.1587 -0.6117 -0.0042
 2585SOL     OW10105   3.464   6.246   4.279  0.0391  0.4223 -0.7253
 2585SOL    HW210106   3.464   6.340   4.266 -0.0214  0.1852 -2.8149
 2585SOL    HW310107   3.532   6.230   4.344  0.5182  1.8531 -0.8562
 2585SOL    MW410108   3.473   6.256   4.286 -0.5742 -0.1301 -0.6065
 2586SOL     OW10109   5.280   4.884   4.915  0.4036 -1.1883 -0.1879
 2586SOL    HW210110   5.371   4.893   4.886  0.0420 -1.4743 -1.5024
 2586SOL    HW310111   5.262   4.791   4.906  0.1838 -1.2337  0.7190
 2586SOL    MW410112   5.290   4.873   4.910 -0.3492 -0.2334 -0.0804
 2587SOL     OW10113   4.149   4.865   0.091  0.4246  0.0366 -0.0038
 2587SOL    HW210114   4.071   4.817   0.120  0.4343 -0.5848 -0.9456
 2587SOL    HW310115   4.217   4.798   0.085  0.8077  0.4252 -0.0018
 2587SOL    MW410116   4.148   4.850   0.094  0.3656  0.1823  0.0980
 2588SOL     OW10117   1.320   3.569   1.063  0.2965 -0.3045 -0.0712
 2588SOL    HW210118   1.297   3.536   1.150 -1.2474 -1.1867 -0.7790
 2588SOL    HW310119   1.387   3.636   1.080  0.4686 -0.8750  1.7308
 2588SOL    MW410120   1.326   3.574   1.077 -0.5889 -0.1694  0.6732
 2589SOL     OW10121   3.803   6.117   1.787 -0.1368  0.3418  0.4234
 2589SOL    HW210122   3.891   6.142   1.817 -0.8581  2.4620  0.9325
 2589SOL    HW310123   3.755   6.099   1.868 -0.4022 -0.0422  0.1828
 2589SOL    MW410124   3.808   6.118   1.802 -0.3318 -0.0395  0.3533
 2590SOL     OW10125   0.987   5.090   1.094  0.0237  0.0804  0.3151
 2590SOL    HW210126   1.068   5.125   1.131  1.3361 -1.5381 -0.8659
 2590SOL    HW310127   0.925   5.163   1.100  1.5158  1.3481  1.3360
 2590SOL    MW410128   0.989   5.104   1.100 -0.1296 -0.3821  0.0525
 2591SOL     OW10129   1.031   6.294   4.585  0.0721  0.1358  0.3055
 2591SOL    HW210130   1.050   6.255   4.670  0.9206  1.5158  0.7663
 2591SOL    HW310131   1.019   6.218   4.527 -2.7046 -0.9000  2.0392
 2591SOL    MW410132   1.032   6.279   4.589 -0.2836  0.3079 -0.1408
 2592SOL     OW10133   4.656   2.964   4.316 -0.0846 -0.2640 -0.0248
 2592SOL    HW210134   4.706   3.012   4.382  0.0748  0.6016 -0.7662
 2592SOL    HW310135   4.705   2.976   4.235 -0.8820 -0.3667 -0.5310
 2592SOL    MW410136   4.669   2.972   4.314 -0.3500 -0.2403  0.5951
 2593SOL     OW10137   0.323   2.299   3.208  0.1886 -0.0826  0.2104
 2593SOL    HW210138   0.386   2.249   3.156  2.3059  0.0665  2.4723
 2593SOL    HW310139   0.375   2.368   3.250 -1.3318 -0.3114  2.6783
 2593SOL    MW410140   0.338   2.302   3.207  0.8274  0.3952 -0.4433
 2594SOL     OW10141   2.699   5.095   6.189  0.0848  0.0642  0.6743
 2594SOL    HW210142   2.786   5.065   6.215 -0.0917  0.2458  1.4945
 2594SOL    HW310143   2.675   5.038   6.116  1.8586  1.4962 -1.1587
 2594SOL    MW410144   2.707   5.084   6.183 -0.5261  0.0409  0.2549
 2595SOL     OW10145   1.770   3.498   3.528 -0.2567 -0.1436  0.1917
 2595SOL    HW210146   1.795   3.418   3.574  1.1759 -0.0162 -0.3009
 2595SOL    HW310147   1.675   3.493   3.520 -0.5423 -0.3344  2.8388
 2595SOL    MW410148   1.761   3.487   3.533  0.3101 -0.1046  0.4988
 2596SOL     OW10149   0.983   4.332   1.162  0.1086 -0.5357  0.2691
 2596SOL    HW210150   0.892   4.352   1.184  0.5835 -1.2991  3.5039
 2596SOL    HW310151   1.002   4.251   1.210  1.7996 -1.8482 -2.4059
 2596SOL    MW410152   0.974   4.324   1.171 -0.8413  0.9224 -0.1403
 2597SOL     OW10153   2.858   4.601   3.993 -0.8817  0.7623  0.0590
 2597SOL    HW210154   2.788   4.601   3.927  0.8442 -1.8321 -1.9545
 2597SOL    HW310155   2.929   4.651   3.952  1.1247 -2.8975 -1.3573
 2597SOL    MW410156   2.858   4.608   3.979 -0.0603 -0.0866 -0.3723
 2598SOL     OW10157   2.433   1.203   4.099  0.0776  0.2417 -0.5053
 2598SOL    HW210158   2.454   1.115   4.129 -0.8158  0.4300  0.7283
 2598SOL    HW310159   2.426   1.195   4.003  2.2659 -0.5209 -0.6548
 2598SOL    MW410160   2.435   1.190   4.090 -0.2384 -0.1658 -0.0000
 2599SOL     OW10161   3.932   0.424   2.161 -0.3751 -0.6606 -0.2367
 2599SOL    HW210162   3.930   0.379   2.076 -0.7786  1.9604 -1.7109
 2599SOL    HW310163   3.852   0.476   2.163  0.6361  0.9313  0.8197
 2599SOL    MW410164   3.921   0.425   2.150  0.1515  0.4188  0.0708
 2600SOL     OW10165   1.217   6.110   1.286 -0.0766 -0.5520  0.1464
 2600SOL    HW210166   1.145   6.104   1.222 -0.9895 -0.3546  1.1262
 2600SOL    HW310167   1.291   6.141   1.235 -1.4085  2.0066 -0.4192
 2600SOL    MW410168   1.217   6.114   1.271 -0.2964 -0.1999  0.3783
 2601SOL     OW10169   2.192   4.289   0.878 -0.2642  0.0198  0.0165
 2601SOL    HW210170   2.228   4.206   0.849  1.0660  0.7455 -0.4799
 2601SOL    HW310171   2.130   4.314   0.809 -1.2280 -0.8806  0.5236
 2601SOL    MW410172   2.189   4.281   0.865 -0.5047  0.1673 -0.2294
 2602SOL     OW10173   1.443   2.811   0.768 -1.1605 -0.3685  0.0930
 2602SOL    HW210174   1.415   2.726   0.736 -0.0170 -0.5139 -0.5675
 2602SOL    HW310175   1.446   2.866   0.690  1.2851 -0.6254 -0.0529
 2602SOL    MW410176   1.439   2.807   0.753  0.0392 -0.5353 -0.4379
 2603SOL     OW10177   4.134   0.097   5.001  0.5504 -0.8008 -0.2762
 2603SOL    HW210178   4.204   0.091   5.066  0.4615 -0.2336 -0.1157
 2603SOL    HW310179   4.158   0.034   4.934  1.0204 -0.8857 -0.0371
 2603SOL    MW410180   4.146   0.088   5.001 -0.0109 -0.5233  0.3754
 2604SOL     OW10181   1.704   3.210   0.557  0.6901  0.2359  0.6284
 2604SOL    HW210182   1.734   3.178   0.642 -0.9514  0.5256  1.3495
 2604SOL    HW310183   1.613   3.237   0.572 -0.6846 -2.4956 -1.8800
 2604SOL    MW410184   1.696   3.209   0.570 -0.2651 -0.1802 -0.0315
 2605SOL     OW10185   2.436   1.211   1.853  0.5051 -0.0751  0.9888
 2605SOL    HW210186   2.341   1.219   1.849  0.4354 -1.1299 -0.9458
 2605SOL    HW310187   2.454   1.164   1.935 -0.5342  1.0455  1.8850
 2605SOL    MW410188   2.426   1.206   1.863 -0.2936 -0.5483  0.1974
 2606SOL     OW10189   1.836   3.866   5.740 -0.8246 -0.1129  0.4606
 2606SOL    HW210190   1.851   3.801   5.670 -1.9073 -0.5471  0.6048
 2606SOL    HW310191   1.758   3.834   5.785 -2.0805  1.8626 -0.1571
 2606SOL    MW410192   1.828   3.853   5.736  0.0505 -0.2336  0.2260
 2607SOL     OW10193   6.158   3.469   3.951  0.1469 -0.3280 -0.0283
 2607SOL    HW210194   6.147   3.553   3.995 -0.3387  0.1796 -1.0688
 2607SOL    HW310195   6.253   3.461   3.938  0.1029  0.8149 -1.2775
 2607SOL    MW410196   6.169   3.479   3.955 -0.3182  0.4205 -0.2068
 2608SOL     OW10197   4.850   1.320   1.934  0.3738  0.0344 -0.3803
 2608SOL    HW210198   4.797   1.361   2.003  0.5001 -0.9943  0.3580
 2608SOL    HW310199   4.940   1.349   1.953  0.5126 -0.8083  0.3484
 2608SOL    MW410200   4.855   1.329   1.946 -0.4258  0.1947 -0.8421
 2609SOL     OW10201   4.328   5.604   5.732 -0.3735 -0.2776  0.2449
 2609SOL    HW210202   4.366   5.531   5.781  0.0043 -1.8488 -2.2278
 2609SOL    HW310203   4.385   5.678   5.751  0.2561 -1.0491  1.4698
 2609SOL    MW410204   4.340   5.604   5.741 -0.1966  0.1165  0.0863
 2610SOL     OW10205   0.750   2.355   5.846  0.1437 -0.0830 -0.0240
 2610SOL    HW210206   0.760   2.406   5.927 -0.2639 -0.2723  0.1521
 2610SOL    HW310207   0.796   2.405   5.780 -0.6652  0.7736  0.0429
 2610SOL    MW410208   0.757   2.368   5.848 -0.1835 -0.3625  0.1060
 2611SOL     OW10209   1.257   5.449   1.527 -0.1182  0.1171 -0.6454
 2611SOL    HW210210   1.244   5.373   1.583 -2.0170  0.8216 -0.0504
 2611SOL    HW310211   1.268   5.522   1.588 -0.2778  0.6048 -1.1923
 2611SOL    MW410212   1.257   5.449   1.542  0.1453  0.2028  0.1593
 2612SOL     OW10213   2.414   4.056   4.865 -0.1203 -0.4375  0.2362
 2612SOL    HW210214   2.486   3.995   4.848 -0.7485 -0.7734 -1.4115
 2612SOL    HW310215   2.379   4.028   4.950  0.0135 -1.9752 -0.1771
 2612SOL    MW410216   2.419   4.044   4.874 -0.4047  0.3121 -0.3572
 2613SOL     OW10217   6.181   1.875   1.073  0.0721 -0.2066  0.4350
 2613SOL    HW210218   6.187   1.862   1.167 -0.9703  1.2721  0.7548
 2613SOL    HW310219   6.254   1.934   1.052  0.9541 -1.3940  0.1146
 2613SOL    MW410220   6.192   1.881   1.083  0.6291  0.1865 -0.4035
 2614SOL     OW10221   4.537   4.329   6.374 -0.0630 -0.3150  0.1191
 2614SOL    HW210222   4.465   4.353   6.433 -0.1672 -1.1703  0.3440
 2614SOL    HW310223   4.569   4.246   6.408  0.8219 -0.1078 -0.1809
 2614SOL    MW410224   4.532   4.321   6.387  0.1668 -0.1431 -0.4970
 2615SOL     OW10225   4.272   1.570   0.997  0.0495 -0.1338 -0.2524
 2615SOL    HW210226   4.199   1.559   1.058  1.3617  0.7847  1.6019
 2615SOL    HW310227   4.325   1.491   1.008  0.7054  0.3845  0.4521
 2615SOL    MW410228   4.270   1.558   1.006  0.5139 -0.0309  0.4687
 2616SOL     OW10229   6.033   3.002   2.014  0.4643  0.0237 -0.4215
 2616SOL    HW210230   5.947   3.009   2.055  0.2901 -0.7774 -0.6382
 2616SOL    HW310231   6.024   3.046   1.930 -0.5939 -2.4654 -1.7331
 2616SOL    MW410232   6.020   3.008   2.008  0.2476  0.1278 -0.1158
 2617SOL     OW10233   4.716   3.312   4.498 -0.0531 -0.1201  0.6970
 2617SOL    HW210234   4.688   3.301   4.408  2.0786  0.9871 -0.1764
 2617SOL    HW310235   4.756   3.229   4.522  1.2694  0.2633 -0.1324
 2617SOL    MW410236   4.717   3.300   4.489 -0.1140 -0.4397 -0.2391
 2618SOL     OW10237   6.078   3.155   0.692  0.0153 -0.1224  0.2989
 2618SOL    HW210238   6.122   3.223   0.641 -0.2402 -0.4638 -0.3906
 2618SOL    HW310239   6.023   3.203   0.754  1.1882  0.3092  1.0364
 2618SOL    MW410240   6.077   3.170   0.693 -0.1020  0.0960  0.1300
 2619SOL     OW10241   3.053   1.008   4.235 -0.4492 -0.0074  0.3270
 2619SOL    HW210242   3.106   0.929   4.241  0.5932  0.3640 -2.2791
 2619SOL    HW310243   3.078   1.060   4.311  2.9834  0.1081 -0.7217
 2619SOL    MW410244   3.063   1.005   4.245  0.0885 -0.5965 -0.1431
 2620SOL     OW10245   4.115   0.714   5.009 -0.1565 -0.4279 -0.5910
 2620SOL    HW210246   4.031   0.699   5.052 -0.6545  0.4008 -1.2359
 2620SOL    HW310247   4.176   0.653   5.052 -0.7673 -0.0862  0.8252
 2620SOL    MW410248   4.112   0.704   5.020 -0.4083 -0.2889 -0.2684
 2621SOL     OW10249   2.021   2.620   6.261  0.2495 -0.2160 -0.3116
 2621SOL    HW210250   2.002   2.528   6.279 -0.6430 -0.1542 -0.9174
 2621SOL    HW310251   1.945   2.667   6.294 -0.0694  0.1559 -1.5400
 2621SOL    MW410252   2.009   2.614   6.268 -0.0107  0.3529 -0.1516
 2622SOL     OW10253   0.151   5.007   4.597 -0.2311  0.6983 -0.5738
 2622SOL    HW210254   0.077   4.965   4.640  0.7275  0.7773  1.2409
 2622SOL    HW310255   0.219   5.010   4.663  0.5951  2.8295 -1.4099
 2622SOL    MW410256   0.150   5.002   4.611 -0.0228 -0.3155 -0.1574
 2623SOL     OW10257   5.488   4.324   0.635  0.3595  0.4087  0.1746
 2623SOL    HW210258   5.401   4.317   0.674  0.3874 -2.2297 -0.0686
 2623SOL    HW310259   5.546   4.283   0.699  1.2396  1.0410 -0.2099
 2623SOL    MW410260   5.484   4.318   0.648  0.0515  0.3051 -0.3471
 2624SOL     OW10261   3.626   3.776   6.395  0.0609  0.0608  0.2710
 2624SOL    HW210262   3.670   3.737   6.319 -2.4855  1.8114 -2.3475
 2624SOL    HW310263   3.685   3.846   6.424  0.4864  0.2530 -1.0037
 2624SOL    MW410264   3.640   3.780   6.389  0.1654  0.3519 -0.2889
 2625SOL     OW10265   0.377   2.156   2.424 -0.6093 -0.3178  0.3067
 2625SOL    HW210266   0.363   2.073   2.378 -0.0369 -1.2285  1.7290
 2625SOL    HW310267   0.471   2.157   2.442 -0.9404 -0.3795  2.1532
 2625SOL    MW410268   0.387   2.145   2.420 -0.0492 -0.5396  0.3553
 2626SOL     OW10269   0.900   3.276   5.785  0.4945  0.2177  0.6980
 2626SOL    HW210270   0.963   3.206   5.771  0.4093  0.4538 -1.1915
 2626SOL    HW310271   0.953   3.355   5.796  0.6099  0.4505 -1.0887
 2626SOL    MW410272   0.915   3.278   5.784 -0.1803  0.2204 -0.3373
 2627SOL     OW10273   5.822   2.336   1.553 -0.4173 -0.1598  0.2196
 2627SOL    HW210274   5.900   2.355   1.605 -0.7651 -0.9821  1.0729
 2627SOL    HW310275   5.819   2.240   1.549 -1.0504 -0.1235 -0.3086
 2627SOL    MW410276   5.832   2.326   1.559  0.4391 -0.7527 -0.2969
 2628SOL     OW10277   0.421   2.064   1.447 -0.1530 -0.2740  0.3738
 2628SOL    HW210278   0.476   2.060   1.369  0.6006  0.9861  0.8129
 2628SOL    HW310279   0.477   2.102   1.514 -1.5036  0.9202  0.8729
 2628SOL    MW410280   0.435   2.068   1.445 -0.5993  0.2765 -0.9568
 2629SOL     OW10281   5.519   2.260   5.841  0.5856 -0.2390  0.3878
 2629SOL    HW210282   5.581   2.211   5.896 -0.2351 -0.3593  1.2411
 2629SOL    HW310283   5.486   2.329   5.899 -0.2308 -0.3121  0.0161
 2629SOL    MW410284   5.523   2.262   5.856 -0.1156  0.3209 -0.0788
 2630SOL     OW10285   0.175   5.794   5.541  0.2066  0.1925 -0.2479
 2630SOL    HW210286   0.157   5.868   5.598  1.4212 -0.3094  0.8480
 2630SOL    HW310287   0.140   5.820   5.456 -0.4077  1.5357  0.3863
 2630SOL    MW410288   0.168   5.807   5.537  0.0327  0.2995 -0.0768
 2631SOL     OW10289   3.172   2.226   6.333  0.3175  0.2193 -0.7720
 2631SOL    HW210290   3.267   2.220   6.332  0.2889 -1.5898  0.9698
 2631SOL    HW310291   3.154   2.312   6.371  1.2402  0.7214 -1.4460
 2631SOL    MW410292   3.182   2.237   6.338  0.1704  0.1147 -0.5438
 2632SOL     OW10293   4.267   6.162   3.616 -0.1580 -0.1812 -0.1764
 2632SOL    HW210294   4.180   6.125   3.635 -0.5220  0.8713  0.3036
 2632SOL    HW310295   4.322   6.086   3.600 -0.8796 -0.9392  0.7700
 2632SOL    MW410296   4.263   6.147   3.617 -0.3281  0.2072  0.2362
 2633SOL     OW10297   4.498   3.376   3.545 -0.1298  0.0750 -0.2966
 2633SOL    HW210298   4.474   3.290   3.509  4.3514 -1.7942  0.4007
 2633SOL    HW310299   4.455   3.379   3.630  0.6227 -2.2180  0.2467
 2633SOL    MW410300   4.489   3.365   3.552  0.3073  0.2340 -0.1733
 2634SOL     OW10301   4.773   1.696   1.865  0.4327 -0.4143  0.1663
 2634SOL    HW210302   4.808   1.672   1.779  0.2303  1.3155 -0.4348
 2634SOL    HW310303   4.690   1.649   1.872  0.4209 -0.5141 -0.6167
 2634SOL    MW410304   4.767   1.687   1.855  0.6078 -0.2761 -0.1627
 2635SOL     OW10305   3.123   2.988   3.901  0.1341 -0.6028 -0.0753
 2635SOL    HW210306   3.183   3.023   3.967 -1.5715  1.3547  0.5621
 2635SOL    HW310307   3.103   3.062   3.844 -0.6290 -1.5462 -1.0923
 2635SOL    MW410308   3.128   3.002   3.902  0.1845  0.0439 -0.0770
 2636SOL     OW10309   4.300   3.605   5.501  0.0763 -0.0354 -0.2441
 2636SOL    HW210310   4.224   3.547   5.504  0.2375 -0.2523 -0.3475
 2636SOL    HW310311   4.289   3.654   5.419 -0.5208  0.7156  0.2647
 2636SOL    MW410312   4.288   3.604   5.490 -0.0892 -0.7134  0.0209
 2637SOL     OW10313   5.662   0.480   0.992 -0.3369 -0.3829 -0.4947
 2637SOL    HW210314   5.590   0.451   1.049 -0.3896  0.2412 -0.2369
 2637SOL    HW310315   5.713   0.540   1.046  0.3526 -0.7793 -0.6972
 2637SOL    MW410316   5.659   0.484   1.007  0.1397  0.4022 -0.3043
 2638SOL     OW10317   4.511   4.056   2.785  0.1358 -0.3451  0.0604
 2638SOL    HW210318   4.477   4.039   2.697  1.5536 -1.7253 -0.2720
 2638SOL    HW310319   4.448   4.117   2.824 -0.8200 -0.1381 -1.7013
 2638SOL    MW410320   4.498   4.062   2.778  0.5080 -0.5532  0.0998
 2639SOL     OW10321   4.036   6.025   3.718 -0.1697 -0.2715 -0.0253
 2639SOL    HW210322   4.035   5.930   3.702 -3.0608 -0.2766 -0.3221
 2639SOL    HW310323   4.002   6.035   3.806 -1.3695  0.5215 -0.5542
 2639SOL    MW410324   4.031   6.014   3.727  0.2850  0.0514 -0.2693
 2640SOL     OW10325   3.879   4.198   6.080  0.2433 -0.4331  0.0423
 2640SOL    HW210326   3.875   4.129   6.146 -0.1382  1.0751  1.6846
 2640SOL    HW310327   3.952   4.254   6.109 -1.0173  1.1946  0.2113
 2640SOL    MW410328   3.888   4.196   6.093 -0.4203 -0.7524 -0.2961
 2641SOL     OW10329   2.091   2.048   0.430  0.3112  0.0139 -0.1863
 2641SOL    HW210330   2.089   2.094   0.514 -0.5300  1.2940 -0.8824
 2641SOL    HW310331   2.001   2.050   0.400  0.2041 -2.2183 -0.2185
 2641SOL    MW410332   2.079   2.054   0.437 -0.1756  0.0715  1.1350
 2642SOL     OW10333   5.617   3.497   3.764 -0.0014  0.1707  0.6708
 2642SOL    HW210334   5.614   3.592   3.758 -0.3692  0.1604  0.6490
 2642SOL    HW310335   5.668   3.469   3.688 -2.1228  0.2054 -0.8388
 2642SOL    MW410336   5.623   3.506   3.753  0.0662 -0.7276 -0.1080
 2643SOL     OW10337   3.482   4.428   4.824 -0.2709  0.3677 -0.1729
 2643SOL    HW210338   3.399   4.475   4.832 -0.4985 -0.0162 -0.2322
 2643SOL    HW310339   3.463   4.341   4.859  0.0089  0.1620 -0.5341
 2643SOL    MW410340   3.468   4.423   4.830 -0.1198 -0.2455  0.5843
 2644SOL     OW10341   5.099   1.553   2.479  0.2021  0.1181  0.7373
 2644SOL    HW210342   5.027   1.511   2.526  0.4344 -1.7300 -0.4900
 2644SOL    HW310343   5.178   1.510   2.512  0.3623 -1.3420 -1.3627
 2644SOL    MW410344   5.100   1.542   2.490  0.0525 -0.6322 -0.2127
 2645SOL     OW10345   6.048   1.384   2.550 -0.9594  0.1175  0.3037
 2645SOL    HW210346   5.981   1.396   2.483 -0.9995  0.5821  0.4255
 2645SOL    HW310347   6.000   1.389   2.633 -0.3381  4.1618  0.5970
 2645SOL    MW410348   6.033   1.386   2.552  0.2672  0.6510  0.0956
 2646SOL     OW10349   6.002   2.824   3.536 -0.3171 -0.0675  0.1484
 2646SOL    HW210350   5.918   2.870   3.535 -0.6457 -0.6462 -1.1521
 2646SOL    HW310351   5.993   2.760   3.607 -0.2544  1.1222  1.2573
 2646SOL    MW410352   5.990   2.822   3.545  0.3805  0.2976 -0.4492
 2647SOL     OW10353   1.398   3.522   1.648  0.3029 -0.0509  0.2141
 2647SOL    HW210354   1.372   3.569   1.569  1.3964 -2.7504 -1.9129
 2647SOL    HW310355   1.317   3.482   1.680 -0.7031  3.2039  2.2175
 2647SOL    MW410356   1.384   3.523   1.641  0.0480  0.3766 -0.3219
 2648SOL     OW10357   0.886   3.161   0.017 -0.0102  0.1545  0.6324
 2648SOL    HW210358   0.894   3.226  -0.053  0.6894 -1.4633 -0.8621
 2648SOL    HW310359   0.952   3.187   0.081  1.6921 -0.1566 -0.8936
 2648SOL    MW410360   0.896   3.173   0.016 -0.4347 -0.3853 -0.1674
 2649SOL     OW10361   0.765   1.294   0.565  0.0641  0.0951  0.5903
 2649SOL    HW210362   0.755   1.201   0.543  0.6145 -0.1221  1.2253
 2649SOL    HW310363   0.850   1.299   0.609  0.7746  1.1600 -0.8392
 2649SOL    MW410364   0.775   1.282   0.568  0.4567 -0.0391 -0.0129
 2650SOL     OW10365   0.657   1.251   2.273  0.6708  0.1438  0.7999
 2650SOL    HW210366   0.746   1.231   2.303  0.9106 -0.4703 -0.2783
 2650SOL    HW310367   0.622   1.167   2.244  0.5342  0.7355 -0.8288
 2650SOL    MW410368   0.664   1.237   2.273 -0.2544  0.5468 -0.3357
 2651SOL     OW10369   6.168   6.093   4.835  0.2490  0.4237  0.0022
 2651SOL    HW210370   6.086   6.043   4.841  0.0613  0.7502  0.1350
 2651SOL    HW310371   6.199   6.099   4.925 -0.4351  1.7287  0.1628
 2651SOL    MW410372   6.161   6.087   4.848  0.0225  0.1982 -0.6833
 2652SOL     OW10373   2.529   1.682   1.485  0.0823 -0.0292 -0.2113
 2652SOL    HW210374   2.546   1.626   1.561 -0.4851 -0.8096 -0.6326
 2652SOL    HW310375   2.501   1.766   1.523  1.3005  0.1085  0.4345
 2652SOL    MW410376   2.527   1.686   1.500  0.2004 -1.1464 -0.0490
 2653SOL     OW10377   6.087   3.654   2.529  0.0469  0.1587 -0.2487
 2653SOL    HW210378   6.138   3.574   2.544 -0.1765 -0.3490 -1.9243
 2653SOL    HW310379   6.092   3.702   2.611  0.8888 -1.1923  0.5246
 2653SOL    MW410380   6.095   3.650   2.541 -0.9081 -0.0973 -0.2242
 2654SOL     OW10381   2.991   1.582   3.492  0.2572 -0.2598  0.6137
 2654SOL    HW210382   2.968   1.675   3.490  2.2026  0.2656 -1.4569
 2654SOL    HW310383   2.911   1.537   3.467 -0.0536  1.0672 -0.9575
 2654SOL    MW410384   2.977   1.589   3.489  0.8712  0.3393 -0.1250
 2655SOL     OW10385   5.035   6.351   4.682  0.2702 -0.9984  0.3337
 2655SOL    HW210386   5.050   6.305   4.765 -0.1392 -1.5526  0.1120
 2655SOL    HW310387   5.113   6.334   4.630  0.6931 -0.3321  0.7408
 2655SOL    MW410388   5.047   6.342   4.686  0.4151 -0.4614 -0.1802
 2656SOL     OW10389   3.061   2.610   1.877 -0.2840  0.2748  0.6080
 2656SOL    HW210390   3.120   2.678   1.910 -0.5087  0.7500  0.0637
 2656SOL    HW310391   3.015   2.577   1.954 -0.2564  0.8316  0.8646
 2656SOL    MW410392   3.063   2.615   1.891  0.2792  0.5380 -0.0803
 2657SOL     OW10393   3.461   5.286   5.454 -0.1782  0.3833 -0.7030
 2657SOL    HW210394   3.413   5.364   5.479 -0.1081  0.7551 -1.6660
 2657SOL    HW310395   3.407   5.246   5.385 -2.5401 -2.8760  2.6726
 2657SOL    MW410396   3.448   5.291   5.448 -0.5317  0.1586  0.2218
 2658SOL     OW10397   1.480   6.134   3.453  0.4566 -0.3181  0.0008
 2658SOL    HW210398   1.412   6.109   3.391 -0.6065  0.1691  0.9438
 2658SOL    HW310399   1.440   6.124   3.539  2.1119 -1.6222  0.6901
 2658SOL    MW410400   1.466   6.129   3.456  0.2413  0.2954 -0.2272
 2659SOL     OW10401   6.017   2.374   3.044  0.1851 -0.5030 -0.0771
 2659SOL    HW210402   5.961   2.451   3.040 -0.0284 -0.6736 -0.5706
 2659SOL    HW310403   6.094   2.402   3.093 -0.5257 -0.3918  1.0055
 2659SOL    MW410404   6.020   2.388   3.050 -0.2105  0.2507 -0.0172
 2660SOL     OW10405   1.809   6.161   3.066  0.2306 -0.3806 -0.0384
 2660SOL    HW210406   1.838   6.110   3.142 -1.9061 -1.9909 -0.1863
 2660SOL    HW310407   1.714   6.167   3.076  0.0669  0.6873 -1.7987
 2660SOL    MW410408   1.800   6.155   3.077 -0.7660 -0.5475  0.8149
 2661SOL     OW10409   0.314   4.066   4.325  0.1015  0.5230  0.4993
 2661SOL    HW210410   0.355   4.139   4.371 -2.3688 -0.4028  4.6827
 2661SOL    HW310411   0.221   4.088   4.324 -0.5257 -1.8680  0.5893
 2661SOL    MW410412   0.307   4.079   4.331  0.7265 -0.3986 -0.5422
 2662SOL     OW10413   0.338   1.220   4.347 -0.3042 -0.1422  0.3782
 2662SOL    HW210414   0.412   1.276   4.369 -0.3414 -0.7434  2.2101
 2662SOL    HW310415   0.343   1.209   4.252  1.3550  0.6395  0.3466
 2662SOL    MW410416   0.348   1.226   4.337 -0.1253  0.4212  0.4317
 2663SOL     OW10417   2.314   5.494   2.599  0.2920 -0.2106 -0.4368
 2663SOL    HW210418   2.344   5.481   2.509 -1.3109 -1.0126 -0.8897
 2663SOL    HW310419   2.255   5.420   2.616  0.4001  0.0397  1.2045
 2663SOL    MW410420   2.310   5.482   2.589  0.2990 -0.5324  0.2835
 2664SOL     OW10421   0.850   5.533   3.943  0.2947 -0.2820 -0.2622
 2664SOL    HW210422   0.865   5.477   3.866 -0.8890 -0.4658 -0.3765
 2664SOL    HW310423   0.763   5.507   3.975  0.1438  0.8181  0.2658
 2664SOL    MW410424   0.840   5.522   3.937  0.6251 -0.2426 -0.6796
 2665SOL     OW10425   2.607   2.193   1.805 -0.4158  0.0642 -0.1054
 2665SOL    HW210426   2.578   2.223   1.719  0.9115 -0.0895 -0.6399
 2665SOL    HW310427   2.555   2.244   1.867 -1.1621  0.4138 -1.0019
 2665SOL    MW410428   2.596   2.204   1.802 -0.2310 -0.1343 -0.2445
 2666SOL     OW10429   1.426   4.791   3.027 -0.2306  0.0807  0.3831
 2666SOL    HW210430   1.516   4.771   3.000 -0.7802 -2.1749 -0.0041
 2666SOL    HW310431   1.421   4.886   3.026  2.2073  0.2681  0.6133
 2666SOL    MW410432   1.437   4.801   3.023 -0.1128  0.2594  0.2483
 2667SOL     OW10433   3.302   5.028   1.437  0.7780 -0.0034  0.5490
 2667SOL    HW210434   3.254   5.090   1.490  0.8629  0.2923  0.2833
 2667SOL    HW310435   3.265   5.038   1.349  1.5322  0.4585  0.2711
 2667SOL    MW410436   3.291   5.037   1.432  0.2232  0.0913  0.1790
 2668SOL     OW10437   3.785   0.329   3.757 -0.2273  0.6053 -0.0907
 2668SOL    HW210438   3.836   0.331   3.838 -1.1042 -0.5431  0.5326
 2668SOL    HW310439   3.835   0.381   3.695  1.1611  0.3797  0.7985
 2668SOL    MW410440   3.798   0.336   3.760  0.3179  0.0193  0.4779
 2669SOL     OW10441   1.375   5.603   4.567  0.0205 -0.3391  0.1045
 2669SOL    HW210442   1.422   5.654   4.632  1.6181 -0.9763 -0.5029
 2669SOL    HW310443   1.295   5.575   4.611  1.2597 -1.1320  1.9534
 2669SOL    MW410444   1.371   5.606   4.581 -0.0788  0.0963 -0.4215
 2670SOL     OW10445   5.130   1.010   0.212 -0.3722  0.2133 -0.5239
 2670SOL    HW210446   5.080   1.087   0.184  0.9848  0.8383 -1.3031
 2670SOL    HW310447   5.175   0.980   0.133 -0.2515 -0.9164 -0.0497
 2670SOL    MW410448   5.129   1.016   0.198 -0.9110 -0.3244 -0.2918
 2671SOL     OW10449   4.828   3.541   3.702  0.0707 -0.2315  0.4291
 2671SOL    HW210450   4.777   3.569   3.626  0.5807  1.2816  0.6185
 2671SOL    HW310451   4.916   3.529   3.668  0.6158  1.8044  1.0126
 2671SOL    MW410452   4.833   3.543   3.687  0.6903 -0.4586  0.0196
 2672SOL     OW10453   6.253   1.005   1.014  0.4756 -0.2605  0.1183
 2672SOL    HW210454   6.322   1.045   1.067 -0.4986  0.1910  1.0903
 2672SOL    HW310455   6.183   1.071   1.011 -0.2784 -1.0413 -0.0972
 2672SOL    MW410456   6.253   1.019   1.020  0.4313 -0.0802  0.0706
 2673SOL     OW10457   5.983   2.196   0.764 -0.1590 -0.3336  0.2504
 2673SOL    HW210458   5.984   2.157   0.677 -2.9500 -1.1063  0.4504
 2673SOL    HW310459   5.971   2.121   0.823 -0.5273  0.3627  1.0863
 2673SOL    MW410460   5.981   2.181   0.761 -0.1385  0.3139 -0.1721
 2674SOL     OW10461   2.996   1.759   1.312 -0.3148 -0.2249  0.0526
 2674SOL    HW210462   2.991   1.808   1.229  1.2971  1.4684  0.8769
 2674SOL    HW310463   2.913   1.776   1.355 -0.9680 -0.7079 -0.9735
 2674SOL    MW410464   2.984   1.768   1.307  0.7440  0.3946  0.1021
 2675SOL     OW10465   1.853   1.177   0.360 -0.3179 -0.0578  0.3164
 2675SOL    HW210466   1.822   1.094   0.325  0.0465  0.1505 -0.5378
 2675SOL    HW310467   1.921   1.204   0.299 -0.9305  1.2209  0.1704
 2675SOL    MW410468   1.858   1.170   0.347 -0.0755 -0.1374  0.2426
 2676SOL     OW10469   6.272   4.124   0.886 -0.2374  0.0391 -0.4520
 2676SOL    HW210470   6.282   4.045   0.939 -0.8950  1.0570  1.2736
 2676SOL    HW310471   6.231   4.093   0.805 -0.3070 -1.4150  0.1034
 2676SOL    MW410472   6.268   4.109   0.882  0.4781  0.5558 -0.2052
 2677SOL     OW10473   4.094   2.440   0.363 -0.1639  0.1670 -0.4562
 2677SOL    HW210474   4.139   2.414   0.443  1.3466  0.7132 -1.0907
 2677SOL    HW310475   4.047   2.520   0.386 -1.0192 -0.5168  0.2667
 2677SOL    MW410476   4.093   2.447   0.376  0.2281  0.4206 -0.4377
 2678SOL     OW10477   5.517   3.425   6.312 -0.2059 -0.5528  0.2369
 2678SOL    HW210478   5.544   3.516   6.322 -0.7053 -0.4762  0.9552
 2678SOL    HW310479   5.599   3.376   6.305  0.1016 -0.2199  1.3844
 2678SOL    MW410480   5.531   3.431   6.312  0.3438 -0.4512  0.7248
 2679SOL     OW10481   0.986   1.087   0.371 -0.3446  0.0944 -0.3428
 2679SOL    HW210482   1.016   0.997   0.362  1.2123  0.5427 -0.0872
 2679SOL    HW310483   0.973   1.117   0.281  1.8424  0.4135 -0.6215
 2679SOL    MW410484   0.988   1.079   0.357 -0.0654 -0.3473 -0.3838
 2680SOL     OW10485   5.394   4.637   1.690 -0.4639  0.8281  0.4413
 2680SOL    HW210486   5.473   4.688   1.671  0.1462 -0.1194  0.3532
 2680SOL    HW310487   5.361   4.673   1.772 -0.2440  1.5928  0.1958
 2680SOL    MW410488   5.400   4.648   1.699  0.4426  0.1533  0.4609
 2681SOL     OW10489   0.348   3.955   1.653  0.4950 -0.2325 -0.0541
 2681SOL    HW210490   0.381   3.932   1.740  1.2375 -0.3314 -0.3618
 2681SOL    HW310491   0.377   3.885   1.596  2.9875  1.4709 -1.0427
 2681SOL    MW410492   0.356   3.943   1.657  0.2807 -0.6117  0.5038
 2682SOL     OW10493   0.986   4.015   2.680  0.3998 -0.0702  0.1512
 2682SOL    HW210494   1.075   4.003   2.713 -0.3915  1.7877  3.2998
 2682SOL    HW310495   0.992   4.088   2.619  0.9761  0.3176  0.6692
 2682SOL    MW410496   0.998   4.023   2.676 -0.1635  0.2031  0.1113
 2683SOL     OW10497   5.899   3.561   0.582  0.2340 -0.1156  0.3350
 2683SOL    HW210498   5.862   3.534   0.498  0.1807 -0.2597  0.4045
 2683SOL    HW310499   5.989   3.585   0.562  0.5051 -1.0449  0.3951
 2683SOL    MW410500   5.906   3.561   0.568  0.4594 -0.9051 -0.1369
 2684SOL     OW10501   3.420   5.380   3.712  0.2072  0.1906 -0.0701
 2684SOL    HW210502   3.455   5.466   3.688  1.3846 -0.7440 -2.0186
 2684SOL    HW310503   3.464   5.358   3.794 -0.8767  1.8215  1.0079
 2684SOL    MW410504   3.431   5.388   3.720  0.1602  0.2403  0.3439
 2685SOL     OW10505   1.997   4.373   0.661 -0.2470 -0.4849 -0.6757
 2685SOL    HW210506   2.002   4.468   0.672 -0.3415 -0.5915  0.3830
 2685SOL    HW310507   1.975   4.361   0.568 -0.2525  0.5198 -0.8182
 2685SOL    MW410508   1.995   4.384   0.650  0.3567 -0.2968 -0.3895
 2686SOL     OW10509   3.207   1.292   5.319 -0.1616 -0.0222 -0.1344
 2686SOL    HW210510   3.249   1.313   5.236  1.3956  1.9865  1.0669
 2686SOL    HW310511   3.136   1.356   5.328  0.3522  0.4717  0.5288
 2686SOL    MW410512   3.203   1.303   5.309 -0.5876 -0.0953  0.1139
 2687SOL     OW10513   3.190   4.582   4.071 -0.0465  0.2297  0.3732
 2687SOL    HW210514   3.234   4.511   4.118 -0.4402 -1.0744 -1.1269
 2687SOL    HW310515   3.178   4.547   3.982 -0.1371  2.2412 -0.4500
 2687SOL    MW410516   3.194   4.568   4.065  0.1033 -0.4933 -0.3562
 2688SOL     OW10517   2.885   0.448   4.834 -0.2973  0.1809  0.5455
 2688SOL    HW210518   2.890   0.488   4.747 -0.5492 -0.9257  0.0057
 2688SOL    HW310519   2.969   0.470   4.875 -0.2706  0.9116  0.1219
 2688SOL    MW410520   2.897   0.457   4.828 -0.0479 -0.2469 -0.2673
 2689SOL     OW10521   0.787   0.118   1.679  0.3575  0.4802  0.4050
 2689SOL    HW210522   0.825   0.044   1.725  1.4306 -0.4942 -1.9480
 2689SOL    HW310523   0.695   0.094   1.667  0.5040 -0.0847  0.3907
 2689SOL    MW410524   0.780   0.105   1.684  0.2223 -0.2816  0.5171
 2690SOL     OW10525   6.233   2.627   1.872 -0.6856  0.0895  0.3602
 2690SOL    HW210526   6.240   2.609   1.778 -2.5426  1.9992 -0.2219
 2690SOL    HW310527   6.313   2.677   1.892  0.1315 -1.0387  0.0266
 2690SOL    MW410528   6.245   2.631   1.862 -0.7020 -0.0777  0.6174
 2691SOL     OW10529   5.223   6.128   0.531  0.0517 -0.5080 -0.0251
 2691SOL    HW210530   5.287   6.137   0.460  1.8752  0.1603  1.6112
 2691SOL    HW310531   5.197   6.036   0.528  1.8001 -1.0412 -0.2153
 2691SOL    MW410532   5.228   6.117   0.521 -0.0975  0.4005  0.0908
 2692SOL     OW10533   0.002   1.089   3.456  0.1002 -0.7855 -0.1431
 2692SOL    HW210534   0.007   1.002   3.494  0.7592 -0.2826  0.9739
 2692SOL    HW310535   0.094   1.114   3.441 -0.0990 -0.4865 -0.9503
 2692SOL    MW410536   0.015   1.081   3.459 -0.5535  0.0136  0.2414
 2693SOL     OW10537   0.177   5.980   3.547  0.1539  0.1318 -0.3102
 2693SOL    HW210538   0.094   5.934   3.551 -0.0390  0.5149  0.2077
 2693SOL    HW310539   0.178   6.021   3.461  0.2033 -0.5953 -0.6648
 2693SOL    MW410540   0.166   5.979   3.536  0.0893 -0.2633 -0.2822
 2694SOL     OW10541   2.055   6.171   0.147 -0.0854  0.4805  0.3658
 2694SOL    HW210542   2.064   6.157   0.053  1.2031  1.5130  0.3185
 2694SOL    HW310543   1.991   6.105   0.174  0.6257 -0.8336 -0.9749
 2694SOL    MW410544   2.048   6.160   0.138  0.3777 -0.3615  0.3791
 2695SOL     OW10545   4.422   0.247   4.027 -0.3149 -1.1447 -0.0734
 2695SOL    HW210546   4.361   0.213   4.092 -0.0533 -0.8323  0.3421
 2695SOL    HW310547   4.464   0.169   3.989  0.4731 -1.2817  1.0532
 2695SOL    MW410548   4.420   0.232   4.030 -0.4822  0.5153 -0.5668
 2696SOL     OW10549   2.971   5.670   0.688 -0.2325  0.1728  0.4821
 2696SOL    HW210550   2.916   5.599   0.656 -0.2737  0.8344 -0.9925
 2696SOL    HW310551   2.985   5.726   0.612  0.6868  1.1785  1.3521
 2696SOL    MW410552   2.966   5.668   0.674  0.2670 -0.0411 -0.2347
 2697SOL     OW10553   5.264   1.299   0.254 -0.1256  0.0760 -0.1190
 2697SOL    HW210554   5.281   1.245   0.331 -1.1906  0.4612  0.3967
 2697SOL    HW310555   5.315   1.257   0.184 -0.3866 -1.1810  0.4252
 2697SOL    MW410556   5.273   1.286   0.255  0.3442  0.6245  0.5483
 2698SOL     OW10557   3.196   3.169   4.598  0.0529 -0.0178 -0.2341
 2698SOL    HW210558   3.108   3.165   4.560 -0.2705  0.9721  0.3713
 2698SOL    HW310559   3.206   3.086   4.645 -0.6838 -0.0184 -0.0659
 2698SOL    MW410560   3.185   3.157   4.599  0.0171  0.2890 -0.2336
 2699SOL     OW10561   2.899   4.258   4.481 -0.3820  0.1267  0.6754
 2699SOL    HW210562   2.821   4.292   4.437 -1.5048 -0.8349  1.8386
 2699SOL    HW310563   2.966   4.324   4.464 -1.1870  0.5470 -1.0943
 2699SOL    MW410564   2.897   4.272   4.473 -0.2053  0.3697 -0.4071
 2700SOL     OW10565   1.529   3.047   4.963  0.4286  0.1868 -0.8257
 2700SOL    HW210566   1.486   3.041   4.877 -1.2848 -0.9396  0.0703
 2700SOL    HW310567   1.476   3.110   5.012  1.2670  0.6552 -0.5044
 2700SOL    MW410568   1.516   3.054   4.958 -0.8547 -0.3117  0.3452
 2701SOL     OW10569   4.048   0.492   0.926  0.2436  0.0032  0.0133
 2701SOL    HW210570   4.134   0.526   0.951 -0.1571 -0.1973  1.8660
 2701SOL    HW310571   4.015   0.452   1.007 -1.9194  0.7892 -0.4228
 2701SOL    MW410572   4.055   0.491   0.940  0.0926 -0.4798 -0.0552
 2702SOL     OW10573   5.710   4.650   0.212  0.3542  0.1234  0.3210
 2702SOL    HW210574   5.701   4.561   0.178 -0.5999 -0.9302  3.0628
 2702SOL    HW310575   5.747   4.638   0.300  0.4813  2.4761  0.6488
 2702SOL    MW410576   5.714   4.636   0.219 -0.2098 -0.2148 -0.2459
 2703SOL     OW10577   1.332   6.065   6.367  0.0975 -0.3053  0.0214
 2703SOL    HW210578   1.423   6.052   6.395  0.3403  0.6111 -0.2872
 2703SOL    HW310579   1.317   6.159   6.380  0.4254  0.3448 -3.3894
 2703SOL    MW410580   1.342   6.076   6.372 -0.1119 -0.4196  0.3162
 2704SOL     OW10581   2.697   2.422   0.397 -0.4951 -0.3279 -0.4112
 2704SOL    HW210582   2.763   2.389   0.336  0.2207  0.9631 -0.3779
 2704SOL    HW310583   2.634   2.469   0.342 -1.5893 -1.8080 -0.4774
 2704SOL    MW410584   2.698   2.424   0.382  0.6122  0.0037  0.1442
 2705SOL     OW10585   6.250   0.472   5.160 -0.5206  0.1794 -1.0964
 2705SOL    HW210586   6.262   0.564   5.182 -0.3581  0.2206 -1.3568
 2705SOL    HW310587   6.335   0.432   5.178 -0.1944  0.3302 -2.2255
 2705SOL    MW410588   6.263   0.479   5.165  0.8863 -0.1177 -0.1000
 2706SOL     OW10589   5.822   6.315   1.813 -0.2606  0.6164  0.2930
 2706SOL    HW210590   5.899   6.266   1.842  0.2910 -0.0254 -2.0432
 2706SOL    HW310591   5.750   6.281   1.866  0.5785 -0.8341  0.5628
 2706SOL    MW410592   5.823   6.304   1.824 -0.4588 -0.1096 -0.2589
 2707SOL     OW10593   2.721   3.083   1.911  0.1549 -0.2588  0.0963
 2707SOL    HW210594   2.646   3.118   1.863 -1.1092 -1.6828  0.9382
 2707SOL    HW310595   2.779   3.158   1.923 -0.9468  0.8021 -0.9097
 2707SOL    MW410596   2.718   3.098   1.906  0.5547 -0.2954  0.1776
 2708SOL     OW10597   0.096   3.125   1.740  0.0940 -0.1984  0.0213
 2708SOL    HW210598   0.145   3.062   1.793 -0.3203 -0.9299 -0.4471
 2708SOL    HW310599   0.038   3.169   1.802 -1.9353 -2.5344 -0.0785
 2708SOL    MW410600   0.095   3.123   1.755  0.4119  0.0499  0.4519
 2709SOL     OW10601   1.344   4.609   4.078  0.3091  0.2217  0.3309
 2709SOL    HW210602   1.327   4.576   3.990 -1.1893  0.0461  0.6656
 2709SOL    HW310603   1.403   4.545   4.117  0.6175  0.0631 -0.3866
 2709SOL    MW410604   1.350   4.596   4.072 -0.0194  0.2161  0.2379
 2710SOL     OW10605   3.486   5.291   4.516 -0.6070  0.0772 -0.0441
 2710SOL    HW210606   3.467   5.202   4.545 -0.4544  0.3728  1.0039
 2710SOL    HW310607   3.581   5.299   4.523 -0.4680 -0.1339 -1.5219
 2710SOL    MW410608   3.496   5.280   4.521 -0.2817 -0.2501 -0.3937
 2711SOL     OW10609   1.608   1.620   1.666 -0.1649 -0.7162  0.0975
 2711SOL    HW210610   1.576   1.531   1.679 -0.8172 -0.5335 -0.2066
 2711SOL    HW310611   1.530   1.675   1.673  0.3712 -0.0714  1.2551
 2711SOL    MW410612   1.593   1.616   1.668  0.1045  0.1254 -0.1087
 2712SOL     OW10613   1.346   2.683   5.485 -0.4253  0.0448 -0.5731
 2712SOL    HW210614   1.341   2.771   5.450 -0.5934  0.7296  1.0704
 2712SOL    HW310615   1.325   2.626   5.411 -1.7021  1.4359 -1.3261
 2712SOL    MW410616   1.343   2.687   5.471  0.6164 -0.3159 -0.1723
 2713SOL     OW10617   5.124   0.682   1.646  0.4629  0.3125  0.4502
 2713SOL    HW210618   5.190   0.613   1.658 -0.4291 -0.9043 -1.2762
 2713SOL    HW310619   5.171   0.752   1.600  1.6104  1.3423  2.9745
 2713SOL    MW410620   5.139   0.682   1.642 -0.5559 -0.0397  0.6047
 2714SOL     OW10621   2.195   3.311   6.278  0.0518  0.1845 -0.3348
 2714SOL    HW210622   2.126   3.337   6.216  0.2364  1.6266  0.0411
 2714SOL    HW310623   2.277   3.326   6.231  0.1846 -2.9087 -1.3323
 2714SOL    MW410624   2.196   3.316   6.263 -0.9360  0.0239  0.0286
 2715SOL     OW10625   2.751   5.192   3.427 -0.5757  0.4990 -0.1569
 2715SOL    HW210626   2.662   5.185   3.392 -1.0415  1.8275  0.7181
 2715SOL    HW310627   2.760   5.283   3.454  1.3702  0.6182 -1.0298
 2715SOL    MW410628   2.741   5.203   3.426  0.1374  0.3915 -0.3543
 2716SOL     OW10629   3.968   2.457   6.332 -0.6188 -0.0988  0.1830
 2716SOL    HW210630   3.909   2.432   6.261 -0.1556 -1.7603  0.3412
 2716SOL    HW310631   3.932   2.540   6.365 -1.8171 -0.1647 -0.8757
 2716SOL    MW410632   3.955   2.464   6.327  0.1188  0.1228 -0.5648
 2717SOL     OW10633   0.261   3.007   5.167 -0.6654  0.0114  0.1755
 2717SOL    HW210634   0.282   3.093   5.202 -1.1670  0.0241  0.4600
 2717SOL    HW310635   0.338   2.982   5.115 -0.6963  0.8162 -0.2701
 2717SOL    MW410636   0.274   3.015   5.165  0.2975 -0.2050 -0.2928
 2718SOL     OW10637   1.729   4.698   0.532  0.1434 -0.2684 -0.7971
 2718SOL    HW210638   1.645   4.656   0.551  0.5293  0.1199  2.2542
 2718SOL    HW310639   1.711   4.791   0.538  0.8029 -0.1865  0.1457
 2718SOL    MW410640   1.715   4.704   0.535 -0.0755  0.1294 -0.2821
 2719SOL     OW10641   3.543   1.124   1.138  0.1920 -0.1428 -0.0614
 2719SOL    HW210642   3.529   1.054   1.202 -0.5272 -0.5381 -0.6461
 2719SOL    HW310643   3.457   1.141   1.101  0.5839  0.1393 -0.8704
 2719SOL    MW410644   3.530   1.117   1.142 -0.3592  0.1850  0.0212
 2720SOL     OW10645   2.745   1.898   0.599 -0.5100  0.0655 -0.1318
 2720SOL    HW210646   2.730   1.979   0.550  0.1972 -0.2084 -0.8134
 2720SOL    HW310647   2.794   1.926   0.677 -1.6087  0.4937  0.4331
 2720SOL    MW410648   2.749   1.912   0.603 -0.4473 -0.1836  0.4188
 2721SOL     OW10649   2.223   3.533   3.386  0.6063 -0.3496  0.2347
 2721SOL    HW210650   2.257   3.447   3.411 -0.8538 -0.8858  0.4902
 2721SOL    HW310651   2.282   3.564   3.318  1.8729 -0.9960  1.0026
 2721SOL    MW410652   2.235   3.526   3.381  0.4803 -0.4329  0.3735
 2722SOL     OW10653   0.628   0.764   1.999 -0.0839 -0.3531 -0.1309
 2722SOL    HW210654   0.620   0.858   2.016  0.2178 -0.4673  0.6794
 2722SOL    HW310655   0.553   0.743   1.944 -2.5735 -0.4077  2.9748
 2722SOL    MW410656   0.617   0.774   1.994 -0.4040 -0.1323  0.2763
 2723SOL     OW10657   4.657   3.859   3.693  0.5334  0.0364 -0.2903
 2723SOL    HW210658   4.575   3.908   3.698  0.6187  0.1379  0.1295
 2723SOL    HW310659   4.716   3.905   3.752  0.9785  0.1216 -0.7923
 2723SOL    MW410660   4.654   3.872   3.701  0.1745 -0.4941  0.0549
 2724SOL     OW10661   3.128   4.435   3.005 -0.3662  0.3252  0.0500
 2724SOL    HW210662   3.171   4.349   3.010 -0.1714  0.4917  1.9931
 2724SOL    HW310663   3.170   4.479   2.931  0.4981 -0.7454 -0.1243
 2724SOL    MW410664   3.139   4.429   2.996 -0.6720  0.3140  0.0711
 2725SOL     OW10665   0.138   1.106   5.561  0.2485 -0.0994  0.8373
 2725SOL    HW210666   0.043   1.116   5.569  0.4124  2.5315  0.4413
 2725SOL    HW310667   0.171   1.117   5.650  0.2587  0.5942  0.7551
 2725SOL    MW410668   0.130   1.108   5.574 -0.0551  0.4535 -0.4566
 2726SOL     OW10669   1.889   2.602   0.369 -0.1040  0.1168 -0.1400
 2726SOL    HW210670   1.823   2.669   0.349 -0.0632  0.4470  0.7991
 2726SOL    HW310671   1.950   2.606   0.295  1.2758  2.8239  1.0089
 2726SOL    MW410672   1.888   2.611   0.356 -0.0228  0.1188  0.4714
 2727SOL     OW10673   2.781   3.618   0.847 -0.0392 -0.4341 -0.3824
 2727SOL    HW210674   2.833   3.560   0.791  0.6219  0.5171 -0.7809
 2727SOL    HW310675   2.697   3.627   0.801 -0.4062 -1.6145  0.0354
 2727SOL    MW410676   2.777   3.612   0.833  0.2002 -0.2605  0.7455
 2728SOL     OW10677   0.123   3.173   0.951  0.4301  0.2270 -0.2936
 2728SOL    HW210678   0.088   3.220   1.027  0.2887  0.9858 -0.8237
 2728SOL    HW310679   0.046   3.148   0.900  0.6012  1.4358 -1.1865
 2728SOL    MW410680   0.109   3.176   0.954 -0.3319 -0.3821  0.4263
 2729SOL     OW10681   0.115   4.110   3.588  0.0320  0.3122  0.5179
 2729SOL    HW210682   0.144   4.196   3.619 -3.0466  0.8500  2.2572
 2729SOL    HW310683   0.088   4.063   3.667  0.5792 -1.8947 -0.5037
 2729SOL    MW410684   0.115   4.115   3.602  0.5082  0.3321  0.1835
 2730SOL     OW10685   4.257   5.606   0.548 -0.0767 -0.0854 -0.0683
 2730SOL    HW210686   4.300   5.651   0.621 -2.3453  1.4066  0.4507
 2730SOL    HW310687   4.195   5.546   0.590 -0.5938 -0.0563 -0.7680
 2730SOL    MW410688   4.255   5.604   0.563  0.1787 -0.6203  0.1932
 2731SOL     OW10689   5.709   5.478   2.768  0.0389  0.0534 -0.9744
 2731SOL    HW210690   5.790   5.511   2.729 -1.0159  2.3508 -1.3986
 2731SOL    HW310691   5.721   5.491   2.863 -0.4360  2.0971 -1.1333
 2731SOL    MW410692   5.721   5.484   2.776  0.0553  0.4782  0.0390
 2732SOL     OW10693   5.042   2.969   4.132  0.1915 -0.4060  0.2620
 2732SOL    HW210694   5.120   2.914   4.141 -0.6420 -1.6478  0.2404
 2732SOL    HW310695   5.063   3.029   4.061  0.8455 -1.2497 -0.2863
 2732SOL    MW410696   5.055   2.970   4.124 -0.6245  0.5834 -0.0046
 2733SOL     OW10697   5.734   5.369   6.116 -0.0401 -0.2505  0.0281
 2733SOL    HW210698   5.797   5.424   6.163  0.6855 -0.7736 -0.3209
 2733SOL    HW310699   5.755   5.381   6.024 -1.6327  0.9798 -0.2402
 2733SOL    MW410700   5.745   5.378   6.110 -0.0189 -0.0219 -0.5235
 2734SOL     OW10701   0.705   1.061   0.452  0.3384 -0.4817  0.1607
 2734SOL    HW210702   0.673   0.973   0.432  0.7870 -0.9873  1.5379
 2734SOL    HW310703   0.799   1.057   0.436  0.3921 -0.3204  0.4237
 2734SOL    MW410704   0.713   1.049   0.448 -0.4334 -0.6043  0.1927
 2735SOL     OW10705   0.480   4.522   6.323  0.5702 -0.1530 -0.1037
 2735SOL    HW210706   0.564   4.496   6.361  1.4003  3.2782  0.7233
 2735SOL    HW310707   0.443   4.440   6.290  2.4860 -2.4638  2.8537
 2735SOL    MW410708   0.486   4.508   6.324  0.0043 -0.4834 -0.9892
 2736SOL     OW10709   4.072   0.013   0.497  0.0349 -0.3534 -0.7077
 2736SOL    HW210710   4.037   0.097   0.466 -0.4508 -0.7117 -1.1577
 2736SOL    HW310711   4.146  -0.005   0.439  0.4643  0.0146 -0.2756
 2736SOL    MW410712   4.077   0.022   0.485  0.2078  0.4237  0.1891
 2737SOL     OW10713   5.764   4.230   2.715 -0.0423  0.0668 -0.3250
 2737SOL    HW210714   5.787   4.271   2.631 -0.0871 -0.5778 -0.6576
 2737SOL    HW310715   5.845   4.189   2.744 -0.0708  0.1464 -0.1304
 2737SOL    MW410716   5.778   4.230   2.708  0.6704 -0.2650  0.1745
 2738SOL     OW10717   4.763   6.077   1.379  0.4917  0.4284 -0.2141
 2738SOL    HW210718   4.706   6.032   1.441 -2.2741  1.9992 -1.4124
 2738SOL    HW310719   4.706   6.097   1.304  2.4251  2.7409 -1.2126
 2738SOL    MW410720   4.748   6.074   1.378  0.4621  0.3406  0.1234
 2739SOL     OW10721   3.978   6.185   2.225 -0.3048 -0.3813  0.4876
 2739SOL    HW210722   3.890   6.154   2.245 -0.0121 -0.5958  1.4890
 2739SOL    HW310723   3.995   6.154   2.136 -0.8374 -1.2500  0.6795
 2739SOL    MW410724   3.969   6.177   2.216  0.3726  0.2074  0.3995
 2740SOL     OW10725   6.284   6.086   5.077  0.0622  0.6148  0.5036
 2740SOL    HW210726   6.313   5.997   5.058 -0.6468  0.7737 -1.5257
 2740SOL    HW310727   6.364   6.137   5.086  0.5123 -0.3890  2.8126
 2740SOL    MW410728   6.298   6.081   5.076  0.1417 -0.5110 -0.1786
 2741SOL     OW10729   0.744   0.083   2.544  0.5558  0.2375 -0.3091
 2741SOL    HW210730   0.720   0.150   2.609  1.8337 -0.4654  0.9416
 2741SOL    HW310731   0.816   0.122   2.495  0.6523  0.1510 -0.2359
 2741SOL    MW410732   0.750   0.097   2.546 -0.2608 -0.0552 -0.2148
 2742SOL     OW10733   4.363   5.684   0.024 -0.2263  0.3220  0.0550
 2742SOL    HW210734   4.321   5.669   0.108 -0.6554  1.9786  0.1719
 2742SOL    HW310735   4.456   5.683   0.042 -0.3215  0.8433  0.5880
 2742SOL    MW410736   4.370   5.682   0.037  0.2675 -0.3709 -0.2392
 2743SOL     OW10737   6.022   0.343   5.270 -0.0265 -0.3134 -0.1418
 2743SOL    HW210738   6.099   0.384   5.232 -0.4727 -0.9411 -1.8500
 2743SOL    HW310739   5.950   0.371   5.213 -0.6330 -1.7804 -0.1442
 2743SOL    MW410740   6.022   0.352   5.257  0.1887 -0.2158  0.1841
 2744SOL     OW10741   1.201   4.098   1.822 -0.2399 -0.2596  0.0123
 2744SOL    HW210742   1.143   4.022   1.819  0.1204 -0.5746  0.7554
 2744SOL    HW310743   1.289   4.060   1.819 -0.0205  0.0134  1.8018
 2744SOL    MW410744   1.205   4.083   1.821  1.0448 -0.3493  0.2510
 2745SOL     OW10745   3.352   6.124   1.190 -0.2534  0.3399 -0.1553
 2745SOL    HW210746   3.431   6.174   1.169  0.7121 -0.8213  0.5901
 2745SOL    HW310747   3.358   6.045   1.136 -0.3993 -0.2160  0.6177
 2745SOL    MW410748   3.363   6.120   1.180  0.4185  0.1030 -0.1277
 2746SOL     OW10749   0.015   2.780   2.321  0.0071 -0.2704  0.0591
 2746SOL    HW210750   0.029   2.768   2.227  2.8240  1.0695  0.1987
 2746SOL    HW310751  -0.069   2.825   2.327 -1.6747 -2.8865 -1.5325
 2746SOL    MW410752   0.006   2.784   2.309 -0.1622 -0.2351 -0.1402
 2747SOL     OW10753   2.703   4.932   2.733 -0.5245 -0.0455  0.4733
 2747SOL    HW210754   2.753   5.012   2.722 -1.7320  0.8342  1.1818
 2747SOL    HW310755   2.768   4.862   2.724  0.7664  1.0327  1.0267
 2747SOL    MW410756   2.718   4.933   2.730  0.6305 -0.3893  0.1796
 2748SOL     OW10757   5.255   0.554   0.207  0.1066  0.3266  0.0330
 2748SOL    HW210758   5.243   0.482   0.146  0.8069 -0.4970  0.8555
 2748SOL    HW310759   5.176   0.608   0.196 -0.8482 -1.0288  0.0493
 2748SOL    MW410760   5.243   0.552   0.197 -0.7543 -0.3080 -0.0070
 2749SOL     OW10761   5.444   5.724   0.316  0.2001 -0.5090 -0.1067
 2749SOL    HW210762   5.403   5.673   0.386 -1.1108  1.7242  0.8589
 2749SOL    HW310763   5.501   5.786   0.361  0.8495 -0.3208 -1.1490
 2749SOL    MW410764   5.446   5.725   0.331 -0.0608 -0.2049 -0.3358
 2750SOL     OW10765   3.391   1.244   0.038  0.3650 -1.0216  0.0508
 2750SOL    HW210766   3.356   1.220  -0.047  0.6410  0.1626 -0.4192
 2750SOL    HW310767   3.463   1.303   0.019 -0.0747 -0.0966  1.1140
 2750SOL    MW410768   3.396   1.249   0.024 -0.3941 -0.1598 -0.1814
 2751SOL     OW10769   6.140   4.176   3.300  0.1859  0.0996 -0.2594
 2751SOL    HW210770   6.118   4.106   3.238 -0.1880 -0.1015  0.0877
 2751SOL    HW310771   6.062   4.231   3.302  0.2892  0.2434 -0.1573
 2751SOL    MW410772   6.126   4.174   3.292 -0.0957  0.3148 -0.5800
 2752SOL     OW10773   3.924   3.721   1.690 -0.4200 -0.0942  0.4115
 2752SOL    HW210774   4.016   3.696   1.694 -0.3789  0.1290  1.0897
 2752SOL    HW310775   3.893   3.687   1.606  0.6466  1.0983 -0.5002
 2752SOL    MW410776   3.932   3.713   1.679  0.5324 -0.7926 -0.2477
 2753SOL     OW10777   2.418   0.082   5.004  0.5595 -0.0764  0.8722
 2753SOL    HW210778   2.369   0.114   5.079  0.2886 -1.4589  1.3099
 2753SOL    HW310779   2.503   0.056   5.039  0.8438  0.3366  0.4949
 2753SOL    MW410780   2.422   0.083   5.018  0.2153  0.2685  0.0970
 2754SOL     OW10781   3.969   1.969   6.156 -0.4477 -0.7278  0.3012
 2754SOL    HW210782   3.892   1.988   6.211  0.5593  0.1447  1.4572
 2754SOL    HW310783   4.028   2.042   6.172  2.3259 -3.2106  2.5175
 2754SOL    MW410784   3.966   1.981   6.165 -0.2703  0.1626 -0.2992
 2755SOL     OW10785   3.434   4.197   4.068 -0.4741  0.5552  0.5955
 2755SOL    HW210786   3.477   4.112   4.059  0.4058  1.0822 -0.4524
 2755SOL    HW310787   3.353   4.189   4.018  0.3721  0.8065 -0.8749
 2755SOL    MW410788   3.429   4.184   4.060  0.7099  0.0243 -0.2378
 2756SOL     OW10789   0.166   0.670   3.005 -0.1217 -0.3336 -0.7774
 2756SOL    HW210790   0.254   0.691   3.038 -0.3762 -0.9608  0.3757
 2756SOL    HW310791   0.107   0.726   3.055 -0.2954  1.4183 -2.8267
 2756SOL    MW410792   0.170   0.680   3.016 -0.0215 -0.4093 -0.4798
 2757SOL     OW10793   4.952   3.035   4.379  0.0569 -0.1876 -0.3826
 2757SOL    HW210794   5.001   3.024   4.297  1.1182 -2.1304  0.4269
 2757SOL    HW310795   4.984   3.117   4.415 -1.0382  1.1400 -2.2592
 2757SOL    MW410796   4.963   3.044   4.373  0.2403 -0.4960 -0.2008
 2758SOL     OW10797   0.749   5.885   0.338 -0.0603  0.4739 -0.0329
 2758SOL    HW210798   0.835   5.847   0.320  0.4486  1.3281  0.5249
 2758SOL    HW310799   0.718   5.913   0.252  0.5293  0.7948 -0.1495
 2758SOL    MW410800   0.757   5.884   0.324 -0.0132  0.5201 -0.1969
 2759SOL     OW10801   4.272   3.020   4.903 -1.0902  0.0915 -0.2020
 2759SOL    HW210802   4.287   3.113   4.923 -2.3561 -0.0210  1.4384
 2759SOL    HW310803   4.341   2.975   4.951 -1.9965  0.0564  1.1249
 2759SOL    MW410804   4.283   3.027   4.912  0.0092 -0.3480 -0.2896
 2760SOL     OW10805   1.194   2.275   3.448 -0.1924 -0.0920  0.0966
 2760SOL    HW210806   1.249   2.206   3.486  0.3883  0.6322  0.6074
 2760SOL    HW310807   1.158   2.236   3.369  2.1754 -0.1633 -1.0244
 2760SOL    MW410808   1.197   2.261   3.443  0.3840 -0.1735  0.2981
 2761SOL     OW10809   5.328   6.109   3.392  0.5376 -0.2784 -0.0471
 2761SOL    HW210810   5.343   6.175   3.460 -0.0442  0.2214 -0.3959
 2761SOL    HW310811   5.388   6.133   3.321 -0.3866  0.4889 -0.5893
 2761SOL    MW410812   5.338   6.121   3.391  0.4459  0.7754 -0.5994
 2762SOL     OW10813   6.157   4.373   4.038 -0.1248 -0.4947  0.3204
 2762SOL    HW210814   6.173   4.332   3.953 -0.7516  1.6063 -0.8693
 2762SOL    HW310815   6.238   4.420   4.058 -0.9565  1.3658 -0.5375
 2762SOL    MW410816   6.170   4.374   4.030  0.6641 -0.2370  0.4332
 2763SOL     OW10817   1.453   3.232   5.148  0.0920 -0.2563  0.1365
 2763SOL    HW210818   1.379   3.225   5.208  0.6061 -0.7478  0.7191
 2763SOL    HW310819   1.528   3.254   5.204  0.3861  0.2635 -0.4494
 2763SOL    MW410820   1.453   3.234   5.163  0.9552  0.3275 -0.0203
 2764SOL     OW10821   4.175   4.025   0.911 -0.1880 -0.5078 -0.4341
 2764SOL    HW210822   4.189   3.932   0.929 -1.6224 -0.9821 -1.5787
 2764SOL    HW310823   4.135   4.027   0.825 -1.6354  1.0684  0.2268
 2764SOL    MW410824   4.172   4.013   0.902  0.2703  0.1010 -0.6537
 2765SOL     OW10825   1.864   4.517   3.648 -0.0668  0.4349  0.3130
 2765SOL    HW210826   1.788   4.461   3.631  1.3884 -1.4255 -0.5690
 2765SOL    HW310827   1.828   4.599   3.681 -2.4254 -0.4011 -0.0230
 2765SOL    MW410828   1.849   4.520   3.650 -0.1016 -0.0935  0.3064
 2766SOL     OW10829   2.310  -0.000   1.826 -0.0553  0.2379 -0.4635
 2766SOL    HW210830   2.363  -0.079   1.814  1.9337  1.4291 -0.0094
 2766SOL    HW310831   2.372   0.066   1.855 -1.6466  2.0262 -0.9497
 2766SOL    MW410832   2.325  -0.002   1.828  0.0163 -0.5009  0.7250
 2767SOL     OW10833   6.072   5.024   1.655  0.2175  0.2478  0.3739
 2767SOL    HW210834   6.013   4.966   1.607  0.1695  1.2860 -0.8755
 2767SOL    HW310835   6.015   5.067   1.719 -0.1628  0.4006 -0.0581
 2767SOL    MW410836   6.057   5.022   1.657  0.2260 -0.1898  0.2333
 2768SOL     OW10837   4.589   0.956   1.130 -0.3484  0.4072  0.8498
 2768SOL    HW210838   4.581   1.003   1.213 -2.3134 -1.5928  1.9169
 2768SOL    HW310839   4.560   0.867   1.151  1.4342 -0.8189 -1.4615
 2768SOL    MW410840   4.584   0.950   1.144 -0.4365  0.0592 -0.1550
 2769SOL     OW10841   1.310   4.550   2.489 -0.4285 -0.2453 -0.0887
 2769SOL    HW210842   1.243   4.494   2.529 -0.3358  0.2032  0.7106
 2769SOL    HW310843   1.270   4.583   2.409 -1.1214 -0.0754  0.3226
 2769SOL    MW410844   1.296   4.547   2.484  0.1526  0.0840  0.0454
 2770SOL     OW10845   3.982   2.192   3.259  0.2410  0.2220 -0.0756
 2770SOL    HW210846   3.895   2.170   3.227 -0.0800  0.0287  0.8861
 2770SOL    HW310847   3.994   2.135   3.335  1.5320 -0.3261 -0.6607
 2770SOL    MW410848   3.972   2.181   3.265  0.2211 -0.4115  0.0459
 2771SOL     OW10849   1.484   1.506   0.802 -0.4617  0.5857 -0.2714
 2771SOL    HW210850   1.408   1.519   0.747 -1.0707 -1.3786  0.0142
 2771SOL    HW310851   1.559   1.514   0.743 -0.8754  2.2947 -0.5961
 2771SOL    MW410852   1.484   1.509   0.787 -0.4091 -0.5657 -0.2554
 2772SOL     OW10853   3.176   4.387   2.153  0.3193  0.4784  0.1046
 2772SOL    HW210854   3.126   4.363   2.231  1.8518  2.2269  1.7359
 2772SOL    HW310855   3.160   4.315   2.092 -0.2223 -1.4667  2.3535
 2772SOL    MW410856   3.167   4.374   2.156 -0.0588 -0.2030  0.5608
 2773SOL     OW10857   4.085   1.586   5.131 -0.9191 -0.0938  0.0195
 2773SOL    HW210858   4.123   1.518   5.075  1.4118  1.7383 -0.7866
 2773SOL    HW310859   4.159   1.619   5.182 -1.8413  2.1734 -0.0049
 2773SOL    MW410860   4.100   1.581   5.131  0.2016  0.1878  0.1931
 2774SOL     OW10861   5.208   0.383   3.640 -0.1069 -0.2176  0.1614
 2774SOL    HW210862   5.169   0.463   3.677 -1.0591 -0.6229  0.0580
 2774SOL    HW310863   5.217   0.402   3.547 -0.3891 -0.2412  0.1259
 2774SOL    MW410864   5.204   0.396   3.633 -0.3130 -0.0313 -0.4627
 2775SOL     OW10865   2.915   2.416   4.359 -0.1327  0.3677 -0.7394
 2775SOL    HW210866   2.927   2.367   4.279  0.6910  0.0470 -0.4299
 2775SOL    HW310867   2.915   2.350   4.429 -2.3708  0.4731 -0.5627
 2775SOL    MW410868   2.917   2.401   4.358  0.1700  0.2466 -0.3295
 2776SOL     OW10869   4.541   0.795   3.117 -0.3186  0.2165 -0.8935
 2776SOL    HW210870   4.491   0.833   3.189 -0.5489  1.7015 -1.8006
 2776SOL    HW310871   4.526   0.700   3.125  0.4734  0.2250  1.5694
 2776SOL    MW410872   4.533   0.787   3.128 -0.4148 -0.0666  0.0075
 2777SOL     OW10873   1.738   4.782   5.177 -0.2400 -0.0622  0.2139
 2777SOL    HW210874   1.803   4.721   5.143  0.0194 -0.3625  1.2218
 2777SOL    HW310875   1.654   4.737   5.163 -0.0952 -0.4083  0.4351
 2777SOL    MW410876   1.736   4.768   5.170  0.9542  0.7649 -0.1383
 2778SOL     OW10877   0.499   5.060   6.167 -0.1033  0.2703 -0.1271
 2778SOL    HW210878   0.433   4.991   6.179  1.5663 -1.8912 -2.2424
 2778SOL    HW310879   0.449   5.139   6.147 -2.0868 -1.1472 -1.0294
 2778SOL    MW410880   0.484   5.061   6.166 -0.3171  0.1258  0.3423
 2779SOL     OW10881   3.379   1.870   5.505  0.5107  0.4077  0.2659
 2779SOL    HW210882   3.452   1.930   5.486  0.8925 -0.4057 -1.0069
 2779SOL    HW310883   3.320   1.881   5.431  0.3053 -0.3510  0.3119
 2779SOL    MW410884   3.381   1.879   5.493  0.2166 -0.4648  0.1867
 2780SOL     OW10885   5.168   5.618   3.342 -0.2588  0.2058 -0.2714
 2780SOL    HW210886   5.260   5.630   3.321  0.0913 -0.5526  0.7254
 2780SOL    HW310887   5.155   5.524   3.341 -0.4675  0.1748  1.6883
 2780SOL    MW410888   5.178   5.607   3.339  0.5261  0.5762  0.4876
 2781SOL     OW10889   4.222   2.292   1.997  0.0907 -0.3414 -0.0597
 2781SOL    HW210890   4.309   2.253   2.011 -0.6516 -1.7523  0.8581
 2781SOL    HW310891   4.188   2.306   2.085 -1.5219 -1.9741 -0.3648
 2781SOL    MW410892   4.229   2.288   2.011  0.7394  0.2879  0.0080
 2782SOL     OW10893   3.504   2.332   0.159 -0.5171 -0.0676 -0.0800
 2782SOL    HW210894   3.599   2.347   0.165 -0.3229 -1.2507  0.1423
 2782SOL    HW310895   3.492   2.294   0.071 -0.8949  0.7491 -0.3896
 2782SOL    MW410896   3.515   2.329   0.148  0.2729  0.0046  0.1000
 2783SOL     OW10897   0.392   1.674   2.547  0.2087  0.3306 -0.0347
 2783SOL    HW210898   0.309   1.709   2.580  0.5584  2.0960 -0.8851
 2783SOL    HW310899   0.369   1.590   2.507 -0.6138 -0.7336  2.4368
 2783SOL    MW410900   0.378   1.668   2.546 -0.1103 -0.1190 -0.3052
 2784SOL     OW10901   2.874   6.407   5.960  0.1119  0.0432 -0.2659
 2784SOL    HW210902   2.792   6.405   5.912 -0.1190 -1.2054  0.1628
 2784SOL    HW310903   2.919   6.486   5.927 -1.6889  1.3563  0.2785
 2784SOL    MW410904   2.869   6.417   5.950  0.1918  0.2415 -0.3052
 2785SOL     OW10905   2.288   5.513   1.511  0.0744 -0.1934 -0.2209
 2785SOL    HW210906   2.263   5.566   1.435  1.1950 -0.5368 -0.8554
 2785SOL    HW310907   2.355   5.453   1.477  0.6870 -0.2700  1.0611
 2785SOL    MW410908   2.294   5.512   1.496 -0.3355  0.4483 -0.1735
 2786SOL     OW10909   1.655   2.509   0.660  0.3424 -0.7639  0.3618
 2786SOL    HW210910   1.662   2.596   0.622 -2.2346 -1.8023 -3.0280
 2786SOL    HW310911   1.691   2.451   0.593 -1.3165 -2.4826  0.8615
 2786SOL    MW410912   1.660   2.513   0.646  0.0245  0.1164  0.0073
 2787SOL     OW10913   4.526   4.043   4.886  0.1006  0.6474 -0.5575
 2787SOL    HW210914   4.621   4.057   4.880  0.0751  0.5527 -1.2956
 2787SOL    HW310915   4.504   4.065   4.976  0.9869 -0.3611 -0.0756
 2787SOL    MW410916   4.536   4.048   4.897 -0.4508  0.0905  0.4195
 2788SOL     OW10917   1.756   5.811   4.027  0.2508 -0.1295  0.2315
 2788SOL    HW210918   1.738   5.737   4.084  0.4764 -0.3701 -0.0071
 2788SOL    HW310919   1.828   5.782   3.971  2.1517  1.1470  1.8580
 2788SOL    MW410920   1.763   5.797   4.027 -0.4639  0.0830  0.3532
 2789SOL     OW10921   5.300   0.372   5.441 -1.1406  0.0719  0.4127
 2789SOL    HW210922   5.310   0.359   5.347 -1.8186 -0.4586  0.4012
 2789SOL    HW310923   5.358   0.308   5.481 -0.3603  0.7329  0.3664
 2789SOL    MW410924   5.309   0.362   5.434  0.0056 -0.0918 -0.2960
 2790SOL     OW10925   3.529   6.010   5.097  0.0233 -0.2864 -0.3331
 2790SOL    HW210926   3.552   6.102   5.106  0.3940 -0.4199  0.1889
 2790SOL    HW310927   3.612   5.964   5.112 -0.3485 -0.7372  0.4273
 2790SOL    MW410928   3.543   6.016   5.100  0.0311  1.0391  0.3359
 2791SOL     OW10929   3.275   2.951   0.412  0.3751 -0.4087 -0.1303
 2791SOL    HW210930   3.338   2.895   0.457  0.1197  0.3416  1.2088
 2791SOL    HW310931   3.196   2.898   0.407  0.3112 -0.3885  0.5949
 2791SOL    MW410932   3.273   2.937   0.418 -0.7620  0.2072 -0.1205
 2792SOL     OW10933   0.829   6.121   1.762  0.3554  0.4200  0.0965
 2792SOL    HW210934   0.807   6.084   1.847  1.5167  0.2871  0.3571
 2792SOL    HW310935   0.817   6.048   1.701  0.8375  0.1183  0.3502
 2792SOL    MW410936   0.825   6.106   1.765 -0.3902 -0.2133  0.1035
 2793SOL     OW10937   3.315   2.651   3.608  0.0117 -0.0778 -0.3499
 2793SOL    HW210938   3.281   2.662   3.697 -1.3949 -0.6082 -0.7841
 2793SOL    HW310939   3.261   2.710   3.555  1.6151  1.1231 -0.7167
 2793SOL    MW410940   3.303   2.660   3.613  0.5451  0.1486 -0.4030
 2794SOL     OW10941   1.795   2.111   3.135 -0.5143  0.1395  0.0883
 2794SOL    HW210942   1.791   2.170   3.210  0.2118  1.3368 -0.7885
 2794SOL    HW310943   1.794   2.169   3.058 -0.6591 -1.0274 -0.8189
 2794SOL    MW410944   1.794   2.126   3.134 -0.6616  0.3696 -0.0723
 2795SOL     OW10945   0.911   3.492   4.872  0.4633 -0.3181  0.9064
 2795SOL    HW210946   0.936   3.584   4.863 -2.2280  0.4459  0.3851
 2795SOL    HW310947   0.853   3.491   4.948 -0.1465 -1.4361  0.4349
 2795SOL    MW410948   0.907   3.504   4.880 -0.5514  0.4866 -0.6561
 2796SOL     OW10949   4.341   2.018   4.679  0.0021 -0.1070  0.3756
 2796SOL    HW210950   4.301   2.083   4.621  1.1679 -0.8193 -1.2910
 2796SOL    HW310951   4.294   1.937   4.660  2.1551 -0.9695 -1.6590
 2796SOL    MW410952   4.329   2.016   4.669 -0.3711  0.5402  0.7794
 2797SOL     OW10953   4.695   3.411   1.532  0.3960 -0.1621 -0.1575
 2797SOL    HW210954   4.658   3.487   1.486 -0.6552 -1.5638 -1.7475
 2797SOL    HW310955   4.643   3.337   1.501  1.8368 -1.6448  0.8177
 2797SOL    MW410956   4.683   3.411   1.522  0.0994  0.0149 -0.4925
 2798SOL     OW10957   5.707   3.736   0.449 -0.4952  0.6207  0.0609
 2798SOL    HW210958   5.789   3.723   0.497 -0.3091  0.3299 -0.3355
 2798SOL    HW310959   5.667   3.649   0.447  0.0976  0.3452 -1.3985
 2798SOL    MW410960   5.713   3.723   0.455  0.2100 -1.1195 -0.1575
 2799SOL     OW10961   6.123   2.906   0.126  0.2842 -0.2139 -0.2995
 2799SOL    HW210962   6.182   2.972   0.090 -2.8941  2.3887 -1.2674
 2799SOL    HW310963   6.130   2.917   0.221  1.5087 -0.1435 -0.3832
 2799SOL    MW410964   6.132   2.916   0.133 -0.1639  0.3016  0.3916
 2800SOL     OW10965   4.466   3.955   5.527  0.2761 -0.2051 -0.0358
 2800SOL    HW210966   4.405   4.027   5.542 -1.0806 -1.2213 -0.5123
 2800SOL    HW310967   4.506   3.939   5.613 -1.0725 -0.3462  0.5895
 2800SOL    MW410968   4.464   3.962   5.540 -0.5273  0.0076  0.3426
 2801SOL     OW10969   3.015   2.564   3.086  0.2792  0.0648 -0.2015
 2801SOL    HW210970   2.942   2.580   3.026  0.6722  1.4110 -0.3505
 2801SOL    HW310971   2.981   2.500   3.148 -1.4222  1.4803  0.4056
 2801SOL    MW410972   3.001   2.558   3.086  0.2360  0.5401 -0.6756
 2802SOL     OW10973   5.787   3.100   2.112  0.4324 -0.1907  0.1207
 2802SOL    HW210974   5.767   3.162   2.181 -0.0739 -1.0693  0.7808
 2802SOL    HW310975   5.702   3.076   2.075  0.5173 -1.1992  0.5263
 2802SOL    MW410976   5.773   3.105   2.116 -0.4670 -0.1670 -0.0638
 2803SOL     OW10977   4.106   6.051   4.155 -0.5503  0.8079 -0.5692
 2803SOL    HW210978   4.092   6.095   4.239 -2.4477  0.6682 -0.7897
 2803SOL    HW310979   4.127   5.961   4.178  0.7254  1.1590 -0.2204
 2803SOL    MW410980   4.107   6.045   4.169  0.3620  0.3960  0.0600
 2804SOL     OW10981   5.921   4.028   4.293 -0.3604 -0.4390 -0.0896
 2804SOL    HW210982   5.904   4.012   4.200  0.8587 -0.0721 -0.3901
 2804SOL    HW310983   6.015   4.018   4.302  0.0562  2.7957  0.4138
 2804SOL    MW410984   5.931   4.024   4.282 -0.1593  0.6467  0.1275
 2805SOL     OW10985   0.713   1.868   2.563  0.1714 -0.0210 -0.0658
 2805SOL    HW210986   0.760   1.805   2.617 -2.3398 -2.8540 -0.9710
 2805SOL    HW310987   0.652   1.910   2.624 -0.2805 -0.7221 -0.0257
 2805SOL    MW410988   0.711   1.866   2.578 -0.2430  0.1932  0.1019
 2806SOL     OW10989   1.260   5.428   0.452  0.4376  0.3226 -0.7702
 2806SOL    HW210990   1.354   5.443   0.437  0.7777 -0.0669  0.7472
 2806SOL    HW310991   1.244   5.340   0.418  0.8581  0.0042 -0.1669
 2806SOL    MW410992   1.271   5.419   0.446  0.8408  0.6401 -0.4932
 2807SOL     OW10993   2.742   3.971   0.238  0.6795  0.1483  0.2185
 2807SOL    HW210994   2.700   3.918   0.306 -0.6309 -0.9252 -1.3448
 2807SOL    HW310995   2.700   4.057   0.244  1.2988  0.3854  1.3859
 2807SOL    MW410996   2.731   3.975   0.248 -0.0826  0.2604  0.2479
 2808SOL     OW10997   2.045   4.815   4.612  0.0703 -0.4903 -0.5221
 2808SOL    HW210998   1.964   4.806   4.663  0.1259 -2.8153 -0.7102
 2808SOL    HW310999   2.017   4.851   4.528 -0.3314  1.3397  0.3514
 2808SOL    MW411000   2.030   4.818   4.608 -0.1195 -0.4807  0.4300
 2809SOL     OW11001   6.407   3.636   1.610  0.0992  0.1039  0.3408
 2809SOL    HW211002   6.421   3.648   1.516 -1.5426  1.5649  0.2513
 2809SOL    HW311003   6.434   3.546   1.626  2.2222  0.3889 -1.1500
 2809SOL    MW411004   6.413   3.626   1.600 -0.4492  0.2144  0.9307
 2810SOL     OW11005   4.528   3.979   1.453  0.4088  0.0870 -0.4512
 2810SOL    HW211006   4.620   3.954   1.446  0.5056  0.4584 -0.5337
 2810SOL    HW311007   4.483   3.924   1.389  0.3531 -1.1477  0.6036
 2810SOL    MW411008   4.534   3.968   1.444 -0.3558  0.0147  1.0831
 2811SOL     OW11009   5.844   1.298   6.292  0.2888  0.1190 -0.6943
 2811SOL    HW211010   5.797   1.322   6.212 -0.2608  1.4759  0.0076
 2811SOL    HW311011   5.916   1.362   6.297  0.8557 -0.5180 -0.5592
 2811SOL    MW411012   5.847   1.310   6.282  0.0809 -0.0614  0.2678
 2812SOL     OW11013   0.163   1.509   1.787 -0.7275 -0.4300  0.2278
 2812SOL    HW211014   0.248   1.480   1.755 -0.6951  0.8107 -0.9072
 2812SOL    HW311015   0.177   1.600   1.814 -1.5092 -0.4763  0.8533
 2812SOL    MW411016   0.176   1.518   1.787  0.1949  0.3478  0.1147
 2813SOL     OW11017   5.303   6.116   5.339 -0.2516 -0.4265 -0.0708
 2813SOL    HW211018   5.304   6.030   5.299 -0.2372 -0.0495 -0.9027
 2813SOL    HW311019   5.211   6.130   5.363 -1.6330  1.6082 -5.1447
 2813SOL    MW411020   5.291   6.107   5.337  0.4130  0.3490 -0.1030
 2814SOL     OW11021   2.208   4.116   0.279  0.3296 -0.1286  0.4712
 2814SOL    HW211022   2.118   4.089   0.301  0.4066 -0.0159  0.9370
 2814SOL    HW311023   2.263   4.046   0.313  0.6586  1.3159  3.2010
 2814SOL    MW411024   2.203   4.103   0.286  0.2538 -0.3616  0.0769
 2815SOL     OW11025   1.216   4.615   3.378 -0.2348  0.6163 -0.1206
 2815SOL    HW211026   1.279   4.555   3.338  1.1692  0.8232  1.6900
 2815SOL    HW311027   1.225   4.600   3.472 -1.7543  1.8216  0.2559
 2815SOL    MW411028   1.225   4.605   3.385 -0.7972 -0.4249 -0.0157
 2816SOL     OW11029   0.475   4.532   5.563 -0.7734  0.6453  0.1317
 2816SOL    HW211030   0.512   4.530   5.474 -3.7060 -0.5590 -1.1855
 2816SOL    HW311031   0.534   4.477   5.614  0.2275  0.2044 -1.4135
 2816SOL    MW411032   0.488   4.524   5.558  0.4539  0.3013  0.0208
 2817SOL     OW11033   3.100   3.184   1.863 -0.2202 -0.6035 -0.4193
 2817SOL    HW211034   3.073   3.141   1.783  0.7120 -1.4024 -0.3300
 2817SOL    HW311035   3.101   3.114   1.929 -1.1722  0.0794  0.3469
 2817SOL    MW411036   3.097   3.169   1.861  0.7557  0.4873 -0.3104
 2818SOL     OW11037   0.951   1.092   5.449  0.3250  0.3080  0.1058
 2818SOL    HW211038   0.988   1.177   5.471 -1.3665  1.3189 -0.7229
 2818SOL    HW311039   0.935   1.096   5.355 -0.2286 -0.7493  0.1378
 2818SOL    MW411040   0.954   1.104   5.440  0.0160 -0.0720  0.3347
 2819SOL     OW11041   2.024   5.968   6.005 -0.3313  0.2833 -0.0782
 2819SOL    HW211042   2.002   5.906   5.935 -0.5281  0.2801 -0.0127
 2819SOL    HW311043   2.115   5.993   5.987  0.1032 -0.8168  0.4806
 2819SOL    MW411044   2.033   5.963   5.993  0.3948  0.4568  0.0241
 2820SOL     OW11045   6.170   3.974   3.086 -0.4067 -0.0249 -0.9106
 2820SOL    HW211046   6.132   4.044   3.032 -1.5939 -0.5249 -0.7495
 2820SOL    HW311047   6.102   3.907   3.090  0.2625 -0.6764 -0.0743
 2820SOL    MW411048   6.156   3.975   3.080 -0.3840  0.2715  0.0120
 2821SOL     OW11049   6.275   4.816   1.134  0.1987  0.0064 -0.3250
 2821SOL    HW211050   6.329   4.869   1.192  0.3893  0.1635 -0.6437
 2821SOL    HW311051   6.196   4.869   1.120  0.7812  0.6462 -1.3896
 2821SOL    MW411052   6.272   4.830   1.139  0.2698  0.3594  0.1443
 2822SOL     OW11053   0.918   0.330   4.526 -0.3629 -0.5121  0.0264
 2822SOL    HW211054   0.885   0.241   4.514  0.8629 -0.7617 -1.9836
 2822SOL    HW311055   1.008   0.327   4.493 -0.6302  1.7032 -1.1255
 2822SOL    MW411056   0.926   0.318   4.520  0.4702 -0.6040  0.3273
 2823SOL     OW11057   4.808   0.565   4.266 -0.4023 -0.0086 -0.1577
 2823SOL    HW211058   4.809   0.474   4.296 -1.1951  0.5086  1.5397
 2823SOL    HW311059   4.842   0.615   4.340 -0.0912  1.1000 -1.0253
 2823SOL    MW411060   4.813   0.560   4.280  0.9122  0.3981 -0.2725
 2824SOL     OW11061   5.225   5.067   3.868 -0.0584  0.0420  0.0109
 2824SOL    HW211062   5.185   5.130   3.808 -0.6617 -0.3311  0.0109
 2824SOL    HW311063   5.260   4.998   3.811  1.1208  0.6414 -0.0298
 2824SOL    MW411064   5.225   5.066   3.853 -0.0291 -0.0307  0.2281
 2825SOL     OW11065   2.420   0.203   6.385 -0.2120  0.3172  0.3157
 2825SOL    HW211066   2.390   0.251   6.308 -2.2801 -0.7158  0.4106
 2825SOL    HW311067   2.364   0.126   6.388 -0.1702  0.3132  2.8216
 2825SOL    MW411068   2.409   0.199   6.375 -0.1883 -0.6400  0.2803
 2826SOL     OW11069   4.367   5.144   2.184 -0.2699 -0.3007 -0.1018
 2826SOL    HW211070   4.318   5.222   2.208 -0.5788 -1.1507  2.2903
 2826SOL    HW311071   4.375   5.094   2.265 -0.0829 -2.7684 -1.5267
 2826SOL    MW411072   4.362   5.147   2.198 -0.7721 -0.3516  0.5547
 2827SOL     OW11073   0.306   5.534   4.460  0.1534 -0.1095  0.2372
 2827SOL    HW211074   0.331   5.596   4.391  0.6370  0.6097  1.0390
 2827SOL    HW311075   0.212   5.546   4.470  0.3418  0.9905  0.8401
 2827SOL    MW411076   0.297   5.544   4.452  0.0974  0.7490  0.0599
 2828SOL     OW11077   4.465   1.630   3.622  0.4826 -0.2552  0.0656
 2828SOL    HW211078   4.390   1.639   3.564 -0.0833  1.2272  0.9708
 2828SOL    HW311079   4.475   1.536   3.634 -0.7109 -0.5057 -0.7245
 2828SOL    MW411080   4.457   1.619   3.616  0.0041 -0.2372 -0.3233
 2829SOL     OW11081   1.228   1.669   6.175 -0.0401  0.3502  0.5469
 2829SOL    HW211082   1.272   1.744   6.135  0.3206  1.1169  2.2921
 2829SOL    HW311083   1.282   1.594   6.151 -0.2668  0.6517 -1.0156
 2829SOL    MW411084   1.241   1.669   6.167 -0.8517  0.0459  0.0171
 2830SOL     OW11085   6.396   3.365   0.695 -0.1374  0.1743  0.1935
 2830SOL    HW211086   6.350   3.432   0.746  1.2563  1.1742  0.1673
 2830SOL    HW311087   6.344   3.357   0.615 -0.5372  0.9337  0.3626
 2830SOL    MW411088   6.383   3.373   0.691  0.1183 -0.1274  0.1599
 2831SOL     OW11089   4.167   2.882   6.059 -0.0205  0.5566 -0.4249
 2831SOL    HW211090   4.190   2.798   6.098 -0.2960 -0.1471 -1.7254
 2831SOL    HW311091   4.203   2.947   6.120  1.5068 -0.4916 -0.1368
 2831SOL    MW411092   4.175   2.880   6.072 -0.3753 -0.1055  0.2337
 2832SOL     OW11093   2.428   0.531   6.088  0.2951 -0.2077 -0.1371
 2832SOL    HW211094   2.432   0.554   5.995 -0.6168  0.3632 -0.0502
 2832SOL    HW311095   2.436   0.436   6.089 -0.7862 -0.3336 -0.9104
 2832SOL    MW411096   2.429   0.521   6.076 -0.1695 -0.4298 -0.6043
 2833SOL     OW11097   1.345   3.578   5.614  0.0594 -0.1664 -0.1842
 2833SOL    HW211098   1.336   3.500   5.670  0.4116 -0.4229 -0.4800
 2833SOL    HW311099   1.324   3.545   5.526  2.1619 -0.3918 -0.6356
 2833SOL    MW411100   1.341   3.563   5.610 -0.0064 -0.5569  0.0399
 2834SOL     OW11101   1.103   4.244   0.934 -0.4257  0.0365  0.0657
 2834SOL    HW211102   1.049   4.256   0.856  0.8302  0.3657 -0.7707
 2834SOL    HW311103   1.050   4.280   1.005 -1.3823  0.1892 -0.7009
 2834SOL    MW411104   1.089   4.250   0.933 -0.4989 -0.4056  0.5126
 2835SOL     OW11105   1.357   0.772   3.820  0.0255 -0.2108 -0.5213
 2835SOL    HW211106   1.355   0.850   3.875 -0.6220 -0.6232  0.0636
 2835SOL    HW311107   1.399   0.705   3.875 -3.0737 -1.4166  0.6180
 2835SOL    MW411108   1.362   0.773   3.835  0.0905  0.2650 -0.3195
 2836SOL     OW11109   1.501   0.426   4.348 -0.0182 -0.1136 -0.2441
 2836SOL    HW211110   1.480   0.513   4.317 -1.2503 -0.8147 -1.4726
 2836SOL    HW311111   1.573   0.439   4.410 -0.5272  1.8096  0.0012
 2836SOL    MW411112   1.508   0.439   4.352 -0.4373  0.4108  0.3494
 2837SOL     OW11113   5.516   3.602   5.897  0.1343 -0.0691 -0.0357
 2837SOL    HW211114   5.560   3.679   5.934 -0.3129 -0.1837  0.7503
 2837SOL    HW311115   5.583   3.533   5.899  0.0613 -0.1295  0.7596
 2837SOL    MW411116   5.531   3.603   5.902  0.2866 -1.1878  0.1668
 2838SOL     OW11117   5.396   1.674   2.153 -0.1056 -0.3859 -0.3637
 2838SOL    HW211118   5.374   1.661   2.245 -0.4288  0.3351 -0.3293
 2838SOL    HW311119   5.315   1.708   2.115 -0.3661 -1.8225 -1.1847
 2838SOL    MW411120   5.382   1.677   2.160  0.6943  0.4068  0.0532
 2839SOL     OW11121   2.092   3.492   4.786 -0.2181 -0.6732  0.0388
 2839SOL    HW211122   2.099   3.487   4.691 -2.2629 -2.1209 -0.0915
 2839SOL    HW311123   2.016   3.548   4.802  0.8147  0.5339  0.8729
 2839SOL    MW411124   2.083   3.499   4.776  0.6797 -0.1214  0.3296
 2840SOL     OW11125   1.749   5.795   0.622  0.4902  0.0282  0.2137
 2840SOL    HW211126   1.701   5.857   0.677  1.1017  0.3179  0.4243
 2840SOL    HW311127   1.812   5.754   0.681  0.7382 -0.0978 -0.1373
 2840SOL    MW411128   1.751   5.798   0.637 -0.2150 -0.0629 -0.0960
 2841SOL     OW11129   3.849   4.731   1.449  0.7034  0.2785 -0.1416
 2841SOL    HW211130   3.901   4.808   1.476  0.8968 -0.2820  1.1909
 2841SOL    HW311131   3.758   4.760   1.456  0.7215  0.0617  1.6083
 2841SOL    MW411132   3.844   4.745   1.454  0.3919  0.6731  0.3268
 2842SOL     OW11133   1.502   4.228   3.350 -0.7441  0.0350 -0.3408
 2842SOL    HW211134   1.565   4.184   3.293  0.3993  0.8883  0.2166
 2842SOL    HW311135   1.524   4.196   3.438 -0.1117  1.4079  0.0352
 2842SOL    MW411136   1.514   4.218   3.354 -0.4039  0.6449  0.5960
 2843SOL     OW11137   4.767   4.123   3.404  0.0651  1.0189  0.1131
 2843SOL    HW211138   4.674   4.128   3.379  0.7370  0.8574 -2.7899
 2843SOL    HW311139   4.783   4.030   3.419 -0.5478  1.2083  2.1840
 2843SOL    MW411140   4.757   4.111   3.402  0.6052 -0.2333  0.0842
 2844SOL     OW11141   1.470   1.893   6.101 -0.1821  0.1640  0.3018
 2844SOL    HW211142   1.494   1.873   6.010  0.6468 -1.0789  0.7673
 2844SOL    HW311143   1.444   1.985   6.099 -2.3474 -0.3941 -1.6129
 2844SOL    MW411144   1.470   1.903   6.089  0.6606 -0.4855 -0.6035
 2845SOL     OW11145   3.909   1.679   0.795  0.5057 -0.7017  0.2165
 2845SOL    HW211146   3.883   1.713   0.709  2.5329  0.5615  0.0334
 2845SOL    HW311147   4.004   1.664   0.787  0.8717  0.0790  2.4429
 2845SOL    MW411148   3.918   1.681   0.782 -0.2567 -0.0259 -0.2036
 2846SOL     OW11149   1.523   0.171   2.924  0.0044  0.0359  0.0856
 2846SOL    HW211150   1.606   0.212   2.900 -0.0449 -0.9415 -1.9067
 2846SOL    HW311151   1.527   0.083   2.886 -1.7269 -0.2339  0.4209
 2846SOL    MW411152   1.535   0.164   2.916  0.1227  0.9250  0.6736
 2847SOL     OW11153   1.190   6.026   5.704  0.4722  0.1917  0.0001
 2847SOL    HW211154   1.192   5.961   5.634  0.1177 -0.0518  0.2138
 2847SOL    HW311155   1.229   5.980   5.779  3.0328  1.1674 -0.6208
 2847SOL    MW411156   1.196   6.011   5.705  0.3804  0.0740  0.1166
 2848SOL     OW11157   3.232   4.114   0.048 -0.3668 -0.8722  0.2216
 2848SOL    HW211158   3.261   4.048   0.110  1.0130  0.3951  0.9840
 2848SOL    HW311159   3.137   4.103   0.043 -0.3039 -2.0567  1.2876
 2848SOL    MW411160   3.223   4.104   0.055 -0.2370 -0.0604 -0.0940
 2849SOL     OW11161   6.090   1.696   1.445  0.2783 -0.3744  0.2793
 2849SOL    HW211162   6.037   1.774   1.463 -0.3098 -0.5626 -0.5805
 2849SOL    HW311163   6.173   1.713   1.490 -0.3517  0.1049  1.3125
 2849SOL    MW411164   6.094   1.708   1.454 -0.6560  0.3443  0.0373
 2850SOL     OW11165   4.848   3.846   3.501 -0.2677 -0.0457 -0.0202
 2850SOL    HW211166   4.777   3.832   3.564  0.5468  0.8849  1.1433
 2850SOL    HW311167   4.837   3.775   3.437 -1.8688 -0.2771  0.4562
 2850SOL    MW411168   4.837   3.834   3.500  0.3901  0.0462 -0.1637
 2851SOL     OW11169   1.223   5.643   3.851 -0.3442  0.1011  0.1699
 2851SOL    HW211170   1.252   5.586   3.780  1.4735  1.2361 -0.0521
 2851SOL    HW311171   1.201   5.583   3.922  1.7088 -0.9134  0.0317
 2851SOL    MW411172   1.224   5.628   3.851  0.0433  0.1921 -0.4488
 2852SOL     OW11173   0.240   3.181   4.326 -0.2917 -0.0216 -0.0678
 2852SOL    HW211174   0.146   3.192   4.314 -0.1780 -0.7151 -1.8515
 2852SOL    HW311175   0.263   3.245   4.393 -2.1779 -0.5390  1.1397
 2852SOL    MW411176   0.231   3.191   4.333  0.8832  0.2985 -0.5547
 2853SOL     OW11177   0.967   4.482   4.104 -0.8375  0.0038  0.1896
 2853SOL    HW211178   1.007   4.561   4.140  0.4239  0.8166 -2.7372
 2853SOL    HW311179   0.883   4.511   4.069 -0.8353 -0.1928  0.0205
 2853SOL    MW411180   0.962   4.496   4.104 -0.3321 -0.2709 -0.4961
 2854SOL     OW11181   1.118   4.412   0.510  0.0444  0.1896 -0.1103
 2854SOL    HW211182   1.154   4.342   0.565  0.7838  1.3335  0.8993
 2854SOL    HW311183   1.191   4.440   0.456  0.5587  1.9988  1.4143
 2854SOL    MW411184   1.132   4.406   0.510 -0.3844  0.2368  0.5229
 2855SOL     OW11185   3.519   0.195   0.112 -0.2159  0.0466  0.0884
 2855SOL    HW211186   3.507   0.144   0.032  0.1900  0.2653 -0.1121
 2855SOL    HW311187   3.485   0.138   0.182 -1.0866  0.0808 -0.2974
 2855SOL    MW411188   3.513   0.180   0.111 -0.2376 -0.0280 -0.2204
 2856SOL     OW11189   5.888   1.904   4.075  0.0734 -0.5471 -1.0119
 2856SOL    HW211190   5.803   1.936   4.045  0.2213  1.0104  0.0872
 2856SOL    HW311191   5.879   1.809   4.079 -1.3073 -0.4593 -1.7953
 2856SOL    MW411192   5.876   1.896   4.072  0.1622 -0.9299 -0.4595
 2857SOL     OW11193   0.204   3.280   0.592  0.1289 -0.2165  1.2604
 2857SOL    HW211194   0.122   3.301   0.637 -0.3397  0.5510  0.0939
 2857SOL    HW311195   0.220   3.354   0.535  0.7042 -1.1404  0.1787
 2857SOL    MW411196   0.195   3.292   0.590  0.2165 -0.4882  0.1673
 2858SOL     OW11197   4.101   1.058   0.933 -0.3680  0.4458 -0.1057
 2858SOL    HW211198   4.171   1.101   0.884 -1.5836  2.2500 -0.3315
 2858SOL    HW311199   4.023   1.072   0.880 -1.2327  0.0712  1.0432
 2858SOL    MW411200   4.100   1.065   0.919  0.1461 -0.0408  0.5222
 2859SOL     OW11201   6.315   2.276   4.935 -0.1725 -0.5160 -0.4923
 2859SOL    HW211202   6.370   2.315   4.866  0.5473 -1.6617 -0.5879
 2859SOL    HW311203   6.225   2.296   4.908  0.1469  0.8926 -0.6356
 2859SOL    MW411204   6.311   2.284   4.922  0.0562  0.1868 -0.0547
 2860SOL     OW11205   1.604   4.717   6.204 -0.7035  0.3118 -1.0778
 2860SOL    HW211206   1.675   4.679   6.256  2.6149  3.8379 -2.5544
 2860SOL    HW311207   1.551   4.766   6.267 -0.1316 -0.0507 -0.3002
 2860SOL    MW411208   1.606   4.718   6.219  0.5819  0.5695 -0.0646
 2861SOL     OW11209   5.392   6.167   2.355  0.0708  0.3936  0.2367
 2861SOL    HW211210   5.384   6.131   2.267 -0.2374  0.6883  0.1413
 2861SOL    HW311211   5.384   6.092   2.413  0.0551  0.2291  0.0201
 2861SOL    MW411212   5.390   6.153   2.351  0.5192  0.7806  0.7687
 2862SOL     OW11213   6.097   5.249   0.756  0.5798 -0.0853  0.0536
 2862SOL    HW211214   6.136   5.162   0.759  0.2056 -0.2265  1.0267
 2862SOL    HW311215   6.167   5.305   0.720  1.5825 -0.3975  1.4365
 2862SOL    MW411216   6.112   5.245   0.751  0.4081  0.0749 -0.0715
 2863SOL     OW11217   4.321   6.102   0.625 -0.2013 -0.1201  0.6904
 2863SOL    HW211218   4.379   6.068   0.693 -0.3993  1.2088  1.5614
 2863SOL    HW311219   4.275   6.175   0.667  0.6443  1.6330 -1.2320
 2863SOL    MW411220   4.323   6.107   0.640 -0.4473 -0.1191 -0.3949
 2864SOL     OW11221   0.314   3.082   2.686 -0.2874 -0.3981  0.1144
 2864SOL    HW211222   0.325   3.012   2.622  1.2948 -0.2806  0.2082
 2864SOL    HW311223   0.294   3.160   2.634  0.8660 -0.3272 -0.2505
 2864SOL    MW411224   0.313   3.083   2.671 -0.5515  0.1501 -0.1708
 2865SOL     OW11225   5.099   1.448   1.982  0.0876 -0.3628  0.6283
 2865SOL    HW211226   5.127   1.420   2.069  1.6940  2.2421  1.0711
 2865SOL    HW311227   5.048   1.527   1.997  1.5802  0.9576 -0.8119
 2865SOL    MW411228   5.096   1.455   1.995 -0.3115 -0.1930  0.3201
 2866SOL     OW11229   0.559   2.081   3.487 -0.2097  0.3134 -0.0473
 2866SOL    HW211230   0.474   2.068   3.529  0.5533 -1.5114  1.0638
 2866SOL    HW311231   0.570   2.005   3.430  0.6447  0.5580 -0.2338
 2866SOL    MW411232   0.549   2.069   3.485 -0.5833 -0.0017 -0.0816
 2867SOL     OW11233   5.263   0.044   5.190  0.1354 -0.2482 -0.0658
 2867SOL    HW211234   5.295   0.030   5.279 -0.2511 -0.2560  0.0739
 2867SOL    HW311235   5.265   0.139   5.179  0.3103 -0.2557 -0.0955
 2867SOL    MW411236   5.268   0.055   5.201  0.0574 -0.0682  0.6821
 2868SOL     OW11237   1.805   5.366   2.915 -0.3539 -0.7175  0.3065
 2868SOL    HW211238   1.766   5.430   2.855  3.0753  0.0550 -1.3365
 2868SOL    HW311239   1.811   5.413   2.998  0.6079  0.6029 -0.4519
 2868SOL    MW411240   1.800   5.381   2.918 -0.1691 -0.2683  0.0654
 2869SOL     OW11241   3.507   1.447   4.655 -0.2117 -0.2540 -0.0103
 2869SOL    HW211242   3.559   1.391   4.598 -1.6004 -2.4499  0.7673
 2869SOL    HW311243   3.427   1.397   4.671 -0.0906  0.4681  3.5095
 2869SOL    MW411244   3.503   1.433   4.649 -0.8812 -0.2321  0.2961
 2870SOL     OW11245   3.213   2.123   3.030 -0.0882  0.0087  0.1240
 2870SOL    HW211246   3.135   2.093   2.984  0.2187  1.1984 -1.2640
 2870SOL    HW311247   3.226   2.212   2.999  0.2087  0.8672  2.5155
 2870SOL    MW411248   3.205   2.131   3.020 -0.3522  0.7239 -0.2420
 2871SOL     OW11249   5.375   4.422   6.093  0.2007 -0.4907  0.4307
 2871SOL    HW211250   5.282   4.428   6.112 -0.2223  0.1239 -1.6205
 2871SOL    HW311251   5.408   4.512   6.103  0.4076 -0.5593  0.3825
 2871SOL    MW411252   5.367   4.435   6.097 -0.5281  0.0707  0.3561
 2872SOL     OW11253   6.121   4.353   2.740 -0.5091 -0.0716  0.0565
 2872SOL    HW211254   6.213   4.377   2.731 -0.1022 -1.5406 -0.0077
 2872SOL    HW311255   6.082   4.371   2.655  0.1417 -1.0735 -0.4692
 2872SOL    MW411256   6.128   4.359   2.728  0.8606 -0.4068  0.2127
 2873SOL     OW11257   1.399   0.326   0.000 -0.0187 -0.0089  0.3870
 2873SOL    HW211258   1.465   0.390   0.028  1.3381 -2.2053  2.6215
 2873SOL    HW311259   1.447   0.261  -0.050 -1.1862  0.1117 -0.9597
 2873SOL    MW411260   1.414   0.326  -0.003  0.5301  0.0500 -0.1319
 2874SOL     OW11261   4.098   2.636   2.053 -0.1804  0.7096  0.2286
 2874SOL    HW211262   4.129   2.556   2.095 -0.1622 -0.3385 -1.6364
 2874SOL    HW311263   4.155   2.705   2.086  0.0520 -0.1093  1.5911
 2874SOL    MW411264   4.109   2.634   2.063  0.0711  0.3519  0.1431
 2875SOL     OW11265   6.265   6.082   0.547  0.4528  0.1479  0.8547
 2875SOL    HW211266   6.212   6.103   0.624 -1.4462 -0.1151 -0.3339
 2875SOL    HW311267   6.251   6.154   0.487  0.0107 -0.7702 -0.1847
 2875SOL    MW411268   6.256   6.094   0.550 -0.6791  0.4407  0.2289
 2876SOL     OW11269   5.226   0.333   5.128  0.4846 -0.3034 -0.3645
 2876SOL    HW211270   5.152   0.376   5.170 -0.1725 -2.2842  0.6083
 2876SOL    HW311271   5.285   0.405   5.105  0.7673  0.9662  3.6515
 2876SOL    MW411272   5.224   0.348   5.130  0.1808  0.3027 -0.0585
 2877SOL     OW11273   0.631   2.674   4.801 -0.0935  0.0009  0.0081
 2877SOL    HW211274   0.681   2.726   4.864 -0.6392 -0.6555  1.0090
 2877SOL    HW311275   0.680   2.591   4.796 -0.1071  0.0151 -0.3585
 2877SOL    MW411276   0.644   2.670   4.809 -0.0393 -0.0421  0.5055
 2878SOL     OW11277   0.775   2.775   4.237 -0.4573 -0.0376  0.0509
 2878SOL    HW211278   0.696   2.828   4.241 -0.4094 -0.0456  2.4169
 2878SOL    HW311279   0.845   2.837   4.215 -0.5336  0.8031  1.9582
 2878SOL    MW411280   0.774   2.790   4.235  0.0082 -0.0125  0.0656
 2879SOL     OW11281   4.686   4.940   0.910  0.2140  0.1923 -0.1712
 2879SOL    HW211282   4.705   4.866   0.853 -0.1569  0.0930 -0.1684
 2879SOL    HW311283   4.741   5.011   0.877  2.6832 -0.8112  1.5105
 2879SOL    MW411284   4.695   4.940   0.898 -0.0345  0.0179 -0.8833
 2880SOL     OW11285   3.969   0.739   0.855  0.4583  0.3245 -0.0146
 2880SOL    HW211286   3.957   0.798   0.929  0.0387  1.4765 -0.9662
 2880SOL    HW311287   3.990   0.655   0.895 -2.8625  0.0785  1.5533
 2880SOL    MW411288   3.970   0.736   0.870 -0.0690  0.4197  0.1675
 2881SOL     OW11289   3.986   0.497   2.766  0.1880  0.5552  0.0793
 2881SOL    HW211290   4.065   0.515   2.815 -0.3840  0.8192  0.9279
 2881SOL    HW311291   3.988   0.402   2.750  0.6376  0.5542  0.1335
 2881SOL    MW411292   3.996   0.486   2.770 -0.0458  0.2247 -0.5178
 2882SOL     OW11293   4.251   0.174   4.250 -0.4655 -0.1495  0.2008
 2882SOL    HW211294   4.176   0.143   4.200 -1.0906 -1.2217  1.7308
 2882SOL    HW311295   4.230   0.265   4.272 -0.2412  0.2924 -1.3024
 2882SOL    MW411296   4.238   0.182   4.247 -0.1761 -0.8171  0.4950
 2883SOL     OW11297   1.266   1.796   3.104  0.1508 -0.0626 -0.0487
 2883SOL    HW211298   1.247   1.814   3.196  0.7899  0.1409  0.0441
 2883SOL    HW311299   1.181   1.806   3.060  0.0485  0.8933  0.3477
 2883SOL    MW411300   1.252   1.800   3.110 -0.8945 -0.3279 -0.8769
 2884SOL     OW11301   1.402   1.809   1.639 -0.0644  0.4913  0.4659
 2884SOL    HW211302   1.373   1.885   1.691  0.1829  1.8215 -1.2576
 2884SOL    HW311303   1.434   1.847   1.557  1.0535 -1.4196 -0.0373
 2884SOL    MW411304   1.402   1.824   1.635  0.2703  0.4874 -0.1169
 2885SOL     OW11305   6.132   2.306   5.541  0.1113  0.6597  0.4049
 2885SOL    HW211306   6.219   2.324   5.576  0.7714  0.3600 -1.0196
 2885SOL    HW311307   6.074   2.308   5.618  1.6165 -0.9427  1.6488
 2885SOL    MW411308   6.136   2.309   5.556  0.0139  0.1233  0.0762
 2886SOL     OW11309   0.277   3.816   3.750 -0.0533 -0.3510 -0.5284
 2886SOL    HW211310   0.287   3.856   3.836 -0.5426 -2.0790  0.3831
 2886SOL    HW311311   0.186   3.788   3.746  0.0707 -0.6825 -1.4337
 2886SOL    MW411312   0.267   3.817   3.760  0.1365  0.0631  0.0074
 2887SOL     OW11313   0.557   2.465   3.291 -0.7503  0.0642  0.7238
 2887SOL    HW211314   0.594   2.541   3.337 -1.6515  0.2235  1.2010
 2887SOL    HW311315   0.626   2.399   3.297  0.1364  0.8960  0.1204
 2887SOL    MW411316   0.571   2.467   3.298  0.5126  0.6142  0.5445
 2888SOL     OW11317   4.758   4.489   4.642 -0.3761 -0.2621 -0.3171
 2888SOL    HW211318   4.769   4.416   4.582  0.1034 -0.1564 -0.3624
 2888SOL    HW311319   4.754   4.448   4.729  1.3529 -0.2564 -0.2055
 2888SOL    MW411320   4.759   4.474   4.646 -1.0110 -0.0665 -0.1392
 2889SOL     OW11321   6.139   5.400   5.662  0.8965  0.5900 -0.7664
 2889SOL    HW211322   6.047   5.382   5.682  0.2041  1.5300 -2.7645
 2889SOL    HW311323   6.185   5.320   5.686 -0.6491 -0.4113 -0.9533
 2889SOL    MW411324   6.133   5.387   5.668  0.2098 -0.1479 -0.3665
 2890SOL     OW11325   6.228   2.082   3.470 -0.1001 -0.3987 -0.0223
 2890SOL    HW211326   6.154   2.023   3.453 -1.0843  0.9289 -0.5810
 2890SOL    HW311327   6.248   2.120   3.385  0.7082 -0.1508  0.2744
 2890SOL    MW411328   6.221   2.079   3.457  0.3863  0.0934 -0.3178
 2891SOL     OW11329   4.695   4.857   2.045 -0.3904 -0.1438  0.1159
 2891SOL    HW211330   4.726   4.924   2.106  2.1441  1.3503 -2.5658
 2891SOL    HW311331   4.615   4.894   2.007  0.6497  1.1518 -0.8934
 2891SOL    MW411332   4.689   4.870   2.048 -0.1937 -0.1815 -0.1971
 2892SOL     OW11333   0.149   1.920   2.235 -0.0586 -0.4185 -0.4321
 2892SOL    HW211334   0.128   1.849   2.296 -2.3670 -0.5422 -1.2951
 2892SOL    HW311335   0.080   1.984   2.249  0.6602  0.5820 -1.3548
 2892SOL    MW411336   0.137   1.919   2.245 -0.1091  0.0959 -0.0685
 2893SOL     OW11337   1.589   1.501   4.526  0.4792 -0.0802 -0.4531
 2893SOL    HW211338   1.502   1.505   4.487  1.6837  0.9212 -3.2715
 2893SOL    HW311339   1.641   1.450   4.464  2.2496  0.5496  0.4382
 2893SOL    MW411340   1.584   1.495   4.513  0.6347 -0.4855  0.2953
 2894SOL     OW11341   5.989   5.638   0.043 -0.2244 -0.2145  0.0873
 2894SOL    HW211342   6.047   5.562   0.052 -0.7298 -0.7150 -0.7639
 2894SOL    HW311343   5.910   5.615   0.092  0.3376  0.5468  1.4071
 2894SOL    MW411344   5.987   5.625   0.050 -0.0848  0.0128 -0.1369
 2895SOL     OW11345   0.006   0.442   5.729  0.2386  0.3951  0.0016
 2895SOL    HW211346   0.027   0.353   5.701  1.8835  0.6927  0.2233
 2895SOL    HW311347  -0.068   0.468   5.673  0.1478 -0.8648 -0.4963
 2895SOL    MW411348  -0.001   0.434   5.718 -0.3230 -0.2077  0.2795
 2896SOL     OW11349   1.048   2.206   1.401 -0.0669 -0.3291  0.3098
 2896SOL    HW211350   1.029   2.121   1.362  1.3071 -0.3778 -0.3244
 2896SOL    HW311351   1.087   2.186   1.486 -1.4806 -0.2629  1.0006
 2896SOL    MW411352   1.050   2.192   1.407 -0.6083  0.3455 -0.4116
 2897SOL     OW11353   1.141   2.095   1.634  0.6175 -0.1368  0.4679
 2897SOL    HW211354   1.124   2.158   1.704 -1.4297  0.0689 -0.1408
 2897SOL    HW311355   1.230   2.113   1.606  0.4336  1.8235  1.0204
 2897SOL    MW411356   1.150   2.106   1.639  0.5670 -0.1624  0.1943
 2898SOL     OW11357   4.186   4.632   3.125 -0.3085  0.3352  0.1676
 2898SOL    HW211358   4.231   4.661   3.046  0.2143  1.7210  0.9463
 2898SOL    HW311359   4.209   4.539   3.133  1.1584  0.6391 -0.2918
 2898SOL    MW411360   4.195   4.623   3.116  0.0472 -0.2419 -0.1332
 2899SOL     OW11361   3.752   4.689   2.111  0.8026  0.6224  0.1282
 2899SOL    HW211362   3.681   4.625   2.103 -0.0176  1.3415  1.2825
 2899SOL    HW311363   3.756   4.731   2.025  1.6607 -1.2419 -0.7977
 2899SOL    MW411364   3.743   4.686   2.098  0.0318 -0.0134 -0.4007
 2900SOL     OW11365   2.770   6.279   0.548  0.2879 -0.0174  0.4593
 2900SOL    HW211366   2.844   6.338   0.533 -0.0093 -0.0074 -1.1460
 2900SOL    HW311367   2.786   6.205   0.490 -0.3096 -0.6430  1.0663
 2900SOL    MW411368   2.782   6.277   0.538  0.1753 -0.1673  0.3848
 2901SOL     OW11369   1.276   4.983   1.717  0.3218 -0.4953  0.3012
 2901SOL    HW211370   1.341   5.032   1.667 -0.7494  0.3094 -0.3430
 2901SOL    HW311371   1.288   4.892   1.691 -0.1755 -0.1024 -1.4208
 2901SOL    MW411372   1.286   4.977   1.707 -0.5726 -0.6057 -0.0231
 2902SOL     OW11373   0.670   0.039   3.725  0.0767 -1.1556 -0.3014
 2902SOL    HW211374   0.728  -0.035   3.708 -0.6442 -2.1505  1.3529
 2902SOL    HW311375   0.608   0.007   3.791  0.6455  1.3619  1.6206
 2902SOL    MW411376   0.670   0.025   3.731  0.1864 -0.0455 -0.4779
 2903SOL     OW11377   3.539   6.202   5.734 -0.2703 -0.2750  0.2589
 2903SOL    HW211378   3.512   6.143   5.664  1.4438 -1.1225  0.2676
 2903SOL    HW311379   3.634   6.204   5.728 -0.2347  2.2773  0.4522
 2903SOL    MW411380   3.548   6.195   5.724  0.1275  0.1909  0.0310
 2904SOL     OW11381   6.287   0.356   2.463 -0.0823  0.3868 -0.1544
 2904SOL    HW211382   6.287   0.263   2.487  1.8162  0.8059  1.8015
 2904SOL    HW311383   6.198   0.386   2.481 -0.3221 -0.7304  0.5912
 2904SOL    MW411384   6.275   0.348   2.468 -0.3896 -0.0718 -0.1229
 2905SOL     OW11385   0.997   2.876   4.645  0.4475  0.2927  0.1852
 2905SOL    HW211386   0.909   2.837   4.650  0.3237  0.6483  1.1873
 2905SOL    HW311387   1.019   2.875   4.552  0.1720 -1.5407  0.0963
 2905SOL    MW411388   0.988   2.870   4.634  0.0066  0.2239  0.7070
 2906SOL     OW11389   0.483   5.498   0.991 -0.1564 -0.6428 -0.0748
 2906SOL    HW211390   0.514   5.493   1.082  0.6800 -1.8140 -0.4026
 2906SOL    HW311391   0.557   5.535   0.943 -0.5332 -0.1942 -0.3157
 2906SOL    MW411392   0.497   5.502   0.997  0.0999  0.3096  0.5086
 2907SOL     OW11393   2.496   3.016   3.877 -0.3829  0.5063 -0.0657
 2907SOL    HW211394   2.483   2.964   3.956  0.2336 -0.6084 -0.6771
 2907SOL    HW311395   2.590   3.036   3.876 -0.0004 -1.1125 -1.4589
 2907SOL    MW411396   2.507   3.012   3.887  0.7402  0.3640 -0.3906
 2908SOL     OW11397   1.191   1.517   4.899 -0.0834  0.6259  0.0986
 2908SOL    HW211398   1.252   1.590   4.901 -0.7236  1.2018 -0.8321
 2908SOL    HW311399   1.245   1.442   4.874  0.7644  0.5485  2.0016
 2908SOL    MW411400   1.206   1.516   4.896  0.3399  0.2045 -0.5687
 2909SOL     OW11401   4.815   3.142   1.197  0.0893 -0.2422 -0.4569
 2909SOL    HW211402   4.864   3.064   1.223 -1.5249 -1.1489 -0.0608
 2909SOL    HW311403   4.853   3.213   1.250  0.0724 -1.1714  0.8339
 2909SOL    MW411404   4.827   3.141   1.207  0.1298 -1.1028 -0.2386
 2910SOL     OW11405   2.302   0.643   4.159  0.2434  0.1855 -0.0965
 2910SOL    HW211406   2.247   0.645   4.081 -1.0221  0.4133  0.7654
 2910SOL    HW311407   2.336   0.733   4.167  0.9848 -0.0251 -0.7850
 2910SOL    MW411408   2.299   0.655   4.150 -0.8398  0.1865 -1.2143
 2911SOL     OW11409   4.065   5.137   4.215 -0.2158 -0.2390  0.1632
 2911SOL    HW211410   3.999   5.069   4.230  2.4150 -3.3716 -1.2305
 2911SOL    HW311411   4.136   5.115   4.275  0.4047  1.8281  0.2452
 2911SOL    MW411412   4.065   5.125   4.225 -0.4354  0.6097 -0.3459
 2912SOL     OW11413   4.791   0.340   4.960  0.5388  0.0492 -0.1708
 2912SOL    HW211414   4.860   0.349   4.895  0.7741 -2.6690 -0.4055
 2912SOL    HW311415   4.811   0.406   5.026  3.1605 -0.4351 -0.3916
 2912SOL    MW411416   4.802   0.350   4.960  0.2917  0.0164  0.0791
 2913SOL     OW11417   2.543   2.508   3.480 -0.1895  0.2073 -0.1134
 2913SOL    HW211418   2.452   2.491   3.455 -0.0348  0.9315 -1.2363
 2913SOL    HW311419   2.580   2.422   3.498 -1.6096  0.0122  2.3330
 2913SOL    MW411420   2.536   2.495   3.479  0.2408  0.1780  0.5014
 2914SOL     OW11421   5.882   3.352   0.784 -0.3821  0.6227  0.1662
 2914SOL    HW211422   5.876   3.410   0.708  1.0539 -1.2539 -1.4721
 2914SOL    HW311423   5.792   3.324   0.801 -1.0810  3.0633  0.8769
 2914SOL    MW411424   5.869   3.356   0.776 -0.2652 -0.4783 -0.6550
 2915SOL     OW11425   3.560   0.812   4.459  0.3496  0.0875 -0.2427
 2915SOL    HW211426   3.649   0.798   4.427  1.1939  0.6637  1.6881
 2915SOL    HW311427   3.536   0.899   4.428  0.8814  0.3567  0.0845
 2915SOL    MW411428   3.568   0.822   4.451  0.1302 -0.6173 -0.0661
 2916SOL     OW11429   4.521   4.232   1.296 -0.4389 -0.2671  0.5405
 2916SOL    HW211430   4.555   4.156   1.342  2.1356  0.2865 -0.2969
 2916SOL    HW311431   4.590   4.298   1.303 -1.7652  1.3092 -0.4353
 2916SOL    MW411432   4.535   4.230   1.303  0.3025  0.0665  0.1367
 2917SOL     OW11433   4.693   4.893   2.779 -0.8929  0.2044 -0.2471
 2917SOL    HW211434   4.730   4.857   2.699 -0.8469  1.6360 -0.8942
 2917SOL    HW311435   4.736   4.978   2.790 -0.4794 -0.1927  1.6112
 2917SOL    MW411436   4.703   4.899   2.770  0.1822  0.3254  0.3387
 2918SOL     OW11437   0.266   2.669   0.096 -0.7331 -0.1639  0.1026
 2918SOL    HW211438   0.239   2.659   0.187  0.9986 -1.4383  0.5402
 2918SOL    HW311439   0.343   2.725   0.099 -1.1891  0.5379 -0.7058
 2918SOL    MW411440   0.273   2.675   0.109 -0.4383  0.0887  0.3795
 2919SOL     OW11441   4.634   2.018   5.914  0.6688 -0.0433  0.1193
 2919SOL    HW211442   4.683   1.936   5.914 -0.1657 -0.5733  1.3037
 2919SOL    HW311443   4.565   2.005   5.980  0.0556  1.3314 -0.2093
 2919SOL    MW411444   4.631   2.005   5.922 -0.0598 -0.1733  0.1973
 2920SOL     OW11445   4.618   5.036   3.636  0.1689 -0.3389  0.5062
 2920SOL    HW211446   4.713   5.044   3.652  0.2193 -1.3050  0.7551
 2920SOL    HW311447   4.579   5.104   3.692  0.6188 -1.0314  1.7024
 2920SOL    MW411448   4.626   5.046   3.646  0.2277  0.4142 -0.1166
 2921SOL     OW11449   4.294   0.476   4.547  0.3540  0.1535  0.4930
 2921SOL    HW211450   4.216   0.531   4.536  0.2488  0.3583  2.1007
 2921SOL    HW311451   4.367   0.538   4.553  0.4627  0.0295  0.4539
 2921SOL    MW411452   4.293   0.492   4.546 -0.0790  0.2359  0.1474
 2922SOL     OW11453   1.495   4.856   3.907 -0.0691 -0.3878 -0.5436
 2922SOL    HW211454   1.578   4.812   3.891  0.8020  1.2922 -0.9551
 2922SOL    HW311455   1.431   4.786   3.914  1.4298 -1.7495  0.1015
 2922SOL    MW411456   1.498   4.841   3.906  0.4974  0.9517 -0.7554
 2923SOL     OW11457   4.831   5.968   3.320 -0.1243  0.2360 -0.4295
 2923SOL    HW211458   4.772   6.021   3.374  1.2983  0.1313  1.3315
 2923SOL    HW311459   4.792   5.970   3.233 -2.6154  0.3284  0.5860
 2923SOL    MW411460   4.818   5.975   3.316  1.1430  0.5237 -0.1541
 2924SOL     OW11461   3.541   1.573   3.975  0.6101  0.0437 -0.0665
 2924SOL    HW211462   3.457   1.611   3.999  0.5979 -0.0677  0.0646
 2924SOL    HW311463   3.571   1.626   3.900 -1.1882 -2.0293 -2.4203
 2924SOL    MW411464   3.534   1.585   3.968 -0.2956  0.4047 -0.5014
 2925SOL     OW11465   1.166   4.727   0.969  0.3946  0.3300 -0.2393
 2925SOL    HW211466   1.207   4.648   1.003  0.0067  1.0413  2.1068
 2925SOL    HW311467   1.110   4.758   1.041  0.3605  2.5937 -1.1409
 2925SOL    MW411468   1.164   4.721   0.983  0.2763 -0.0533  0.3328
 2926SOL     OW11469   5.102   3.349   2.010  0.1307  0.1945 -0.4779
 2926SOL    HW211470   5.019   3.387   2.036  0.4871  0.4582  0.3051
 2926SOL    HW311471   5.083   3.256   1.996 -0.0187 -0.0403  1.1014
 2926SOL    MW411472   5.089   3.342   2.012 -0.6973 -0.3193  0.6238
 2927SOL     OW11473   0.097   6.192   5.709  0.1940  0.3716 -0.2094
 2927SOL    HW211474   0.155   6.134   5.757 -0.1503 -0.0591 -0.3051
 2927SOL    HW311475   0.065   6.140   5.636 -2.1879 -0.2327  1.1574
 2927SOL    MW411476   0.100   6.178   5.706 -0.1553 -0.1703 -0.0171
 2928SOL     OW11477   6.096   3.417   5.029  0.1420 -0.3979  0.4368
 2928SOL    HW211478   6.160   3.418   4.958  1.3715 -2.8312  1.3706
 2928SOL    HW311479   6.011   3.417   4.985  0.8033  0.7860 -0.9026
 2928SOL    MW411480   6.093   3.417   5.014 -0.2384 -0.0183  0.2207
 2929SOL     OW11481   0.156   5.925   6.140 -0.5774 -0.6513  0.0669
 2929SOL    HW211482   0.182   5.875   6.217 -2.2130 -2.7488 -0.6399
 2929SOL    HW311483   0.062   5.940   6.153  0.0136  3.4681  0.8390
 2929SOL    MW411484   0.147   5.920   6.152  0.3211 -0.1617  0.1464
 2930SOL     OW11485   4.207   2.148   3.817 -0.3130  0.3927  0.4667
 2930SOL    HW211486   4.255   2.075   3.777  1.5392 -0.0288  3.2043
 2930SOL    HW311487   4.263   2.177   3.889 -3.3587  1.1049  2.7570
 2930SOL    MW411488   4.221   2.142   3.821 -0.5001 -0.1989 -0.1698
 2931SOL     OW11489   4.807   3.231   4.818 -0.1688  0.3636 -0.6390
 2931SOL    HW211490   4.880   3.267   4.767  0.1444 -0.5462 -0.8412
 2931SOL    HW311491   4.755   3.181   4.755 -0.2997  0.0066 -0.2535
 2931SOL    MW411492   4.810   3.229   4.803  0.2000 -0.7011  0.8986
 2932SOL     OW11493   4.769   6.411   4.436 -0.2808 -0.6149  0.3760
 2932SOL    HW211494   4.789   6.324   4.472  0.5894 -0.1310  1.1068
 2932SOL    HW311495   4.852   6.458   4.440 -1.5078  1.6323  3.8218
 2932SOL    MW411496   4.783   6.406   4.441 -0.9494 -0.3110  0.4679
 2933SOL     OW11497   4.776   2.128   2.839  0.6623  0.7795  0.2521
 2933SOL    HW211498   4.753   2.069   2.767 -0.6427  0.2411  1.0914
 2933SOL    HW311499   4.864   2.100   2.866 -0.3926 -1.6365  1.4474
 2933SOL    MW411500   4.785   2.117   2.833 -0.3440  0.4227  0.3703
 2934SOL     OW11501   5.639   2.039   4.053  0.0806  0.4043  0.3940
 2934SOL    HW211502   5.567   1.981   4.028 -1.5094  2.6634 -0.6179
 2934SOL    HW311503   5.634   2.046   4.148 -1.9261  1.5008  0.2588
 2934SOL    MW411504   5.629   2.032   4.062 -0.1717  0.6884 -0.6264
 2935SOL     OW11505   4.711   6.312   0.581 -0.0875 -0.1324  0.1628
 2935SOL    HW211506   4.799   6.345   0.598  0.2673 -0.1726 -1.4025
 2935SOL    HW311507   4.721   6.257   0.503 -1.0986 -2.0007  1.2755
 2935SOL    MW411508   4.724   6.309   0.573 -0.1180  0.3917 -0.2299
 2936SOL     OW11509   5.355   3.941   4.730 -0.2403 -0.1198  0.0780
 2936SOL    HW211510   5.344   4.034   4.712  1.8143  0.0601 -0.4831
 2936SOL    HW311511   5.405   3.939   4.812 -1.6578 -0.7836  0.9598
 2936SOL    MW411512   5.361   3.953   4.739 -0.2555  0.1709 -0.6436
 2937SOL     OW11513   4.875   1.248   0.524 -0.4132 -0.5661  0.3982
 2937SOL    HW211514   4.809   1.317   0.513  1.1008  1.2651  2.1013
 2937SOL    HW311515   4.944   1.271   0.461  1.4090  1.2883  2.8605
 2937SOL    MW411516   4.875   1.260   0.514  0.0095  0.2953 -0.0563
 2938SOL     OW11517   2.369   4.979   4.056 -0.2028 -0.0349  0.0929
 2938SOL    HW211518   2.422   4.931   3.993 -0.1482 -0.2262  0.2849
 2938SOL    HW311519   2.291   5.005   4.007  0.5144  1.1385 -0.4854
 2938SOL    MW411520   2.366   4.976   4.042  0.5236 -0.7339  0.5144
 2939SOL     OW11521   3.053   2.422   1.406 -0.4178  0.6166  0.1398
 2939SOL    HW211522   3.063   2.328   1.390 -0.5864  0.7401 -0.7161
 2939SOL    HW311523   3.091   2.435   1.493  1.2143  0.0314 -0.4400
 2939SOL    MW411524   3.060   2.411   1.416  0.0327 -0.5821  0.1324
 2940SOL     OW11525   5.574   3.679   3.410 -0.0374 -0.3643 -0.7518
 2940SOL    HW211526   5.526   3.754   3.373 -1.0049 -1.9145 -2.8451
 2940SOL    HW311527   5.515   3.605   3.398  1.6390 -1.8036 -0.4930
 2940SOL    MW411528   5.560   3.679   3.403 -0.3492  0.1712 -0.0211
 2941SOL     OW11529   6.024   3.921   0.953 -0.1747  0.8209 -0.0242
 2941SOL    HW211530   6.116   3.911   0.976 -0.2096 -1.0774 -0.5374
 2941SOL    HW311531   5.981   3.952   1.033  0.9643  2.2403  0.0708
 2941SOL    MW411532   6.030   3.924   0.966  0.4136  0.1000 -0.2460
 2942SOL     OW11533   1.599   5.166   3.617 -0.1689 -0.4859 -0.4764
 2942SOL    HW211534   1.528   5.109   3.644 -0.5031 -0.1126 -0.5546
 2942SOL    HW311535   1.556   5.237   3.568  0.1052  0.4386  0.5849
 2942SOL    MW411536   1.584   5.168   3.614 -0.2142 -0.2698 -0.0620
 2943SOL     OW11537   4.810   4.265   2.353  0.0641 -0.1442  0.0502
 2943SOL    HW211538   4.899   4.301   2.360  0.5444 -0.9057 -1.5216
 2943SOL    HW311539   4.800   4.245   2.260 -1.9794  0.4224  0.1088
 2943SOL    MW411540   4.821   4.267   2.342 -0.3357 -0.0348 -0.2289
 2944SOL     OW11541   1.504   4.003   5.561 -0.0387 -0.2353  0.5112
 2944SOL    HW211542   1.412   4.023   5.543 -0.3979 -0.8216  1.6005
 2944SOL    HW311543   1.521   4.040   5.647  0.6219 -0.5104  0.5090
 2944SOL    MW411544   1.494   4.010   5.570 -0.6326  0.1258  0.6274
 2945SOL     OW11545   2.421   1.568   6.034 -0.2588 -0.0121 -0.1594
 2945SOL    HW211546   2.380   1.586   5.950  0.7321 -0.1919 -0.6925
 2945SOL    HW311547   2.363   1.503   6.075 -1.3273  0.8820 -0.2144
 2945SOL    MW411548   2.408   1.562   6.029  0.5495 -0.0037 -0.3033
 2946SOL     OW11549   4.032   5.764   3.591  0.3736  0.2216 -0.1000
 2946SOL    HW211550   4.060   5.814   3.514  0.4689 -0.0836 -0.2660
 2946SOL    HW311551   4.112   5.722   3.622  0.3489  0.3894  0.2062
 2946SOL    MW411552   4.047   5.765   3.585  0.2383  0.0614  0.0494
 2947SOL     OW11553   5.006   3.171   6.188  0.2918 -0.2005 -0.2293
 2947SOL    HW211554   4.943   3.218   6.242  1.2790 -0.0490  0.8467
 2947SOL    HW311555   4.991   3.203   6.099 -0.3193  0.7334  0.1958
 2947SOL    MW411556   4.996   3.182   6.184  0.0700 -0.1415 -0.3847
 2948SOL     OW11557   5.396   4.836   3.744  0.4412  0.3377  0.4935
 2948SOL    HW211558   5.422   4.838   3.836  1.6265  1.1814  0.1635
 2948SOL    HW311559   5.476   4.857   3.695 -0.6573  2.3495 -0.5990
 2948SOL    MW411560   5.410   4.839   3.749 -0.1852  0.1585  0.0883
 2949SOL     OW11561   4.270   0.058   5.239  0.4473 -0.3692  0.3548
 2949SOL    HW211562   4.190   0.017   5.271 -1.2092  0.3828 -2.4671
 2949SOL    HW311563   4.285   0.132   5.298 -0.8281 -0.6413  1.0410
 2949SOL    MW411564   4.262   0.062   5.251  0.0579  0.0122 -0.6699
 2950SOL     OW11565   3.988   1.187   1.525  0.0364  0.0719 -0.3641
 2950SOL    HW211566   3.951   1.252   1.583 -1.5311  0.4760 -1.7410
 2950SOL    HW311567   3.924   1.115   1.525  0.7853 -0.6104 -0.3802
 2950SOL    MW411568   3.975   1.186   1.532  0.2307 -0.0094  0.6738
 2951SOL     OW11569   2.362   0.155   0.750 -0.1199  0.0898 -0.2202
 2951SOL    HW211570   2.456   0.169   0.761 -0.4935  2.8851  0.0148
 2951SOL    HW311571   2.355   0.095   0.676  1.8300  0.5788 -0.8519
 2951SOL    MW411572   2.373   0.149   0.742 -0.1932  0.2852 -0.5806
 2952SOL     OW11573   2.413   6.297   5.880  0.6735 -0.2467  0.0465
 2952SOL    HW211574   2.457   6.285   5.965  1.3625 -0.6304 -0.3628
 2952SOL    HW311575   2.371   6.213   5.863  0.2986 -0.0809  0.1296
 2952SOL    MW411576   2.413   6.285   5.889 -0.2361  0.2948 -0.2861
 2953SOL     OW11577   3.118   2.005   4.064  0.2550  0.6696 -0.3255
 2953SOL    HW211578   3.209   2.018   4.038  0.4398 -0.5239 -0.3314
 2953SOL    HW311579   3.123   1.965   4.151 -0.1903 -0.8216 -0.9512
 2953SOL    MW411580   3.131   2.001   4.072  0.3143 -0.5389 -0.3992
 2954SOL     OW11581   2.466   5.752   2.370 -0.4559  0.2169  0.1042
 2954SOL    HW211582   2.516   5.763   2.289 -0.3544  2.8814  0.4415
 2954SOL    HW311583   2.532   5.726   2.435  0.3275  2.3175  0.2265
 2954SOL    MW411584   2.482   5.750   2.368 -0.3668 -0.6183  0.1904
 2955SOL     OW11585   5.388   1.623   3.429 -0.3674 -0.2102  0.0211
 2955SOL    HW211586   5.383   1.548   3.370  0.3081  1.1884 -1.9156
 2955SOL    HW311587   5.482   1.643   3.434 -0.4165 -0.2923  1.5869
 2955SOL    MW411588   5.400   1.616   3.422  0.8872 -0.7211 -0.4345
 2956SOL     OW11589   2.113   4.016   2.425 -0.1761 -0.5264 -0.0205
 2956SOL    HW211590   2.089   3.924   2.409  1.6793 -1.2644  1.0878
 2956SOL    HW311591   2.172   4.038   2.353  0.2767 -0.6008  0.3180
 2956SOL    MW411592   2.118   4.007   2.413  0.0892 -0.3636 -0.5555
 2957SOL     OW11593   3.187   2.535   4.267  0.5182  0.1450  0.2383
 2957SOL    HW211594   3.117   2.508   4.325  0.8713  1.1023  1.1326
 2957SOL    HW311595   3.209   2.624   4.294  0.3138  0.8423 -1.7329
 2957SOL    MW411596   3.181   2.543   4.278  0.1301 -0.0483  0.0223
 2958SOL     OW11597   4.721   0.480   0.809  0.3392  0.7589 -0.0324
 2958SOL    HW211598   4.654   0.429   0.855  1.4219  0.1234  0.8946
 2958SOL    HW311599   4.687   0.569   0.808 -1.7218  0.0515 -1.8952
 2958SOL    MW411600   4.707   0.485   0.815 -0.3638  0.0906  0.3652
 2959SOL     OW11601   2.083   3.012   3.197  0.2459  0.4006  0.4383
 2959SOL    HW211602   2.152   3.033   3.260  1.4641 -1.2535 -0.2793
 2959SOL    HW311603   2.116   3.044   3.113 -1.2244  2.2958  0.4999
 2959SOL    MW411604   2.096   3.019   3.194  0.3098  0.0959 -0.5681
 2960SOL     OW11605   4.054   3.515   3.851 -0.3826 -0.3568 -0.0084
 2960SOL    HW211606   4.125   3.569   3.816  0.7535 -1.0931  1.0649
 2960SOL    HW311607   4.041   3.447   3.786  0.8577 -0.9994  0.3879
 2960SOL    MW411608   4.061   3.513   3.838 -0.8869  0.1133 -0.4222
 2961SOL     OW11609   4.708   0.479   0.449  0.3399  0.1684 -0.2307
 2961SOL    HW211610   4.758   0.404   0.482  0.5583  1.0685  1.6319
 2961SOL    HW311611   4.720   0.546   0.515 -1.1388  1.3359 -1.0883
 2961SOL    MW411612   4.716   0.478   0.462  0.0785 -0.4908  0.5953
 2962SOL     OW11613   4.589   4.049   6.416  0.5419 -0.2126  0.3252
 2962SOL    HW211614   4.499   4.033   6.388 -0.3090  2.0979  1.4630
 2962SOL    HW311615   4.643   4.001   6.353 -1.4541 -1.8153 -0.2850
 2962SOL    MW411616   4.584   4.041   6.404 -0.1917  0.2664 -0.7934
 2963SOL     OW11617   1.192   1.234   2.169  0.0280  0.0296 -0.4432
 2963SOL    HW211618   1.220   1.164   2.110 -0.8540 -0.1169 -0.6986
 2963SOL    HW311619   1.098   1.244   2.153 -0.1998  0.1151  0.8004
 2963SOL    MW411620   1.183   1.226   2.159 -0.6127  0.3513 -0.1509
 2964SOL     OW11621   5.631   2.471   1.743  0.1798 -0.3436  0.8173
 2964SOL    HW211622   5.712   2.505   1.782  0.3925  1.0670 -0.7617
 2964SOL    HW311623   5.660   2.414   1.672 -0.1854  0.7301 -0.2174
 2964SOL    MW411624   5.646   2.468   1.739  0.2310 -0.5261 -0.0126
 2965SOL     OW11625   5.369   3.667   4.640  0.4317  0.3438 -0.0467
 2965SOL    HW211626   5.355   3.759   4.661 -1.1186  0.4457 -1.2605
 2965SOL    HW311627   5.302   3.620   4.691  1.1471 -0.1170  0.4904
 2965SOL    MW411628   5.358   3.673   4.649  0.2744  0.2978 -0.3297
 2966SOL     OW11629   5.919   1.318   5.908  0.1152  1.0944  0.2868
 2966SOL    HW211630   5.997   1.274   5.940  0.3878  1.2462 -0.1694
 2966SOL    HW311631   5.846   1.269   5.947  0.4157  0.4112  0.0047
 2966SOL    MW411632   5.920   1.306   5.918  0.5380  0.0135 -0.4609
 2967SOL     OW11633   1.394   4.772   4.483  0.6861 -0.2203  0.2365
 2967SOL    HW211634   1.383   4.677   4.472  1.7580 -0.3571  0.2631
 2967SOL    HW311635   1.319   4.798   4.537 -1.2998 -0.5392 -2.1776
 2967SOL    MW411636   1.382   4.763   4.489 -0.2354 -0.1613 -0.5252
 2968SOL     OW11637   4.983   2.832   5.904  0.1178  0.1201  0.4666
 2968SOL    HW211638   4.905   2.800   5.950  0.4981 -1.1780  0.2636
 2968SOL    HW311639   5.056   2.793   5.951  0.5496 -0.3494 -0.5573
 2968SOL    MW411640   4.982   2.823   5.916 -0.1345 -0.4212 -0.4839
 2969SOL     OW11641   3.267   1.197   6.216  0.6564  0.0457  0.0779
 2969SOL    HW211642   3.228   1.113   6.237  3.8572 -1.2852  1.3017
 2969SOL    HW311643   3.319   1.181   6.137  0.0896  1.3247 -0.5945
 2969SOL    MW411644   3.268   1.184   6.209  0.1815  0.2276  0.8849
 2970SOL     OW11645   5.256   3.319   2.319  0.0065  0.0062 -0.1539
 2970SOL    HW211646   5.259   3.229   2.286 -0.3209  0.5915 -1.8615
 2970SOL    HW311647   5.203   3.367   2.256  1.3233  1.7158 -0.0473
 2970SOL    MW411648   5.250   3.314   2.307 -0.5197 -0.7551  0.2850
 2971SOL     OW11649   3.920   4.758   1.854  0.1073  0.9422 -0.4225
 2971SOL    HW211650   3.982   4.771   1.782  1.2157 -1.1583  0.0516
 2971SOL    HW311651   3.971   4.710   1.920 -2.0266 -1.0058 -0.0637
 2971SOL    MW411652   3.935   4.753   1.853 -0.3773  0.0279  0.0100
 2972SOL     OW11653   5.481   5.536   4.775  0.0717  0.2177 -0.3312
 2972SOL    HW211654   5.475   5.587   4.855 -1.6476 -0.9827  0.3677
 2972SOL    HW311655   5.406   5.477   4.778 -0.5059  0.6462 -3.2113
 2972SOL    MW411656   5.470   5.535   4.786  0.3795  0.3141  0.6830
 2973SOL     OW11657   4.326   6.387   4.533  0.3087  0.4989  1.0607
 2973SOL    HW211658   4.288   6.475   4.523 -1.1592 -0.0267  1.7146
 2973SOL    HW311659   4.381   6.375   4.456 -3.3811  0.0680 -1.7699
 2973SOL    MW411660   4.329   6.397   4.522  0.3146  0.6067  0.3529
 2974SOL     OW11661   2.575   6.226   1.868  0.8552 -0.4845  0.0197
 2974SOL    HW211662   2.629   6.188   1.799  1.6608 -1.6651  1.2533
 2974SOL    HW311663   2.621   6.204   1.950 -0.5497  0.0673  0.9956
 2974SOL    MW411664   2.588   6.218   1.870 -0.0467  0.1561 -0.7433
 2975SOL     OW11665   5.083   1.226   5.326 -0.6096  0.1127  0.6163
 2975SOL    HW211666   5.102   1.185   5.242 -2.5265 -0.6791  0.5159
 2975SOL    HW311667   5.136   1.177   5.389  0.1281  0.1024  0.0093
 2975SOL    MW411668   5.093   1.214   5.323 -0.2037 -0.1636 -0.0723
 2976SOL     OW11669   4.379   2.996   4.330  0.0423  0.1269 -0.7664
 2976SOL    HW211670   4.472   2.994   4.307  0.6207 -0.2044  1.3514
 2976SOL    HW311671   4.350   2.905   4.321 -0.2743  0.3423 -2.0682
 2976SOL    MW411672   4.388   2.984   4.326 -0.0252  0.2915  0.2154
 2977SOL     OW11673   1.022   3.204   5.474 -0.3073  0.2619 -0.1433
 2977SOL    HW211674   0.965   3.133   5.446 -0.7426 -0.1053  1.5444
 2977SOL    HW311675   1.074   3.166   5.545 -0.2302  1.5029  0.4946
 2977SOL    MW411676   1.022   3.190   5.480  0.9855  0.0389  0.3665
 2978SOL     OW11677   4.160   5.899   3.331 -0.2633  0.4964  0.2892
 2978SOL    HW211678   4.211   5.838   3.278  0.3439  0.2604  1.1270
 2978SOL    HW311679   4.199   5.984   3.315 -0.4941  0.5284 -0.1300
 2978SOL    MW411680   4.172   5.902   3.322 -0.2076  0.0834  0.2808
 2979SOL     OW11681   2.881   3.341   5.356 -0.3987 -0.3921  0.3878
 2979SOL    HW211682   2.898   3.412   5.293  0.5957 -0.2272  0.8265
 2979SOL    HW311683   2.896   3.261   5.307  1.3748 -0.2548  0.6540
 2979SOL    MW411684   2.885   3.340   5.341  0.1597  0.0505 -0.4491
 2980SOL     OW11685   1.932   1.242   3.100 -0.1495  0.0655 -0.0047
 2980SOL    HW211686   1.906   1.237   3.192  0.2306 -2.1008  0.0191
 2980SOL    HW311687   2.025   1.262   3.102 -0.4155  1.4198  0.0174
 2980SOL    MW411688   1.941   1.244   3.112  0.2177 -0.2329  0.0875
 2981SOL     OW11689   5.810   5.976   1.836  0.2207 -0.7246  0.1965
 2981SOL    HW211690   5.844   6.012   1.754  3.4565 -1.2282  1.1611
 2981SOL    HW311691   5.746   5.911   1.809 -0.7794  0.9533 -1.7857
 2981SOL    MW411692   5.806   5.972   1.821 -0.1350 -0.5286 -0.0944
 2982SOL     OW11693   4.469   0.553   1.384 -0.9882 -0.2757  0.1969
 2982SOL    HW211694   4.544   0.557   1.444 -0.4836  1.6609 -0.4868
 2982SOL    HW311695   4.398   0.598   1.430 -0.5246  1.4538 -0.6778
 2982SOL    MW411696   4.469   0.559   1.398 -0.0072 -0.2651 -0.2043
 2983SOL     OW11697   0.236   1.427   5.167  0.4764  0.4592 -0.5562
 2983SOL    HW211698   0.327   1.401   5.182  0.6891  1.0413 -0.8235
 2983SOL    HW311699   0.215   1.394   5.080 -0.4354 -2.0249  0.5207
 2983SOL    MW411700   0.245   1.419   5.158 -0.4076  0.1861 -0.1684
 2984SOL     OW11701   2.751   4.588   4.623 -0.1047 -0.2777 -0.1634
 2984SOL    HW211702   2.726   4.524   4.557  0.9493 -0.1035 -0.7701
 2984SOL    HW311703   2.684   4.582   4.691 -0.1920 -1.7794 -0.3656
 2984SOL    MW411704   2.739   4.579   4.623 -0.5070 -0.6002  0.1712
 2985SOL     OW11705   0.750   3.650   1.710 -0.0205  0.3246  0.3929
 2985SOL    HW211706   0.812   3.643   1.783 -0.6689  0.9854  1.0257
 2985SOL    HW311707   0.757   3.740   1.680 -0.7722  0.4485  0.5671
 2985SOL    MW411708   0.759   3.661   1.716 -0.0739 -0.0722  0.3762
 2986SOL     OW11709   2.151   5.385   4.021  0.0979 -0.4025 -0.2682
 2986SOL    HW211710   2.148   5.480   4.031 -0.9786 -0.6168  2.0755
 2986SOL    HW311711   2.063   5.356   4.046  0.5059 -2.0410 -0.6381
 2986SOL    MW411712   2.139   5.394   4.026 -0.0163  0.3453 -0.2966
 2987SOL     OW11713   0.498   1.442   3.663 -0.1951  0.2083 -0.3039
 2987SOL    HW211714   0.480   1.357   3.624  1.0972  0.0306 -0.5313
 2987SOL    HW311715   0.568   1.479   3.610  2.4369 -0.4932  2.4361
 2987SOL    MW411716   0.505   1.436   3.651  0.3816 -0.6880  0.2186
 2988SOL     OW11717   4.918   5.364   1.871  0.6316  0.3834 -0.1514
 2988SOL    HW211718   4.954   5.425   1.936  0.8971 -0.6290  0.6822
 2988SOL    HW311719   4.941   5.278   1.904  2.8490 -0.1798 -2.7469
 2988SOL    MW411720   4.926   5.361   1.884 -0.1456  0.1654 -0.1884
 2989SOL     OW11721   0.948   1.694   2.655  0.1300 -0.4901  0.0407
 2989SOL    HW211722   0.987   1.614   2.690  0.5287 -0.6364 -0.7227
 2989SOL    HW311723   1.020   1.757   2.652 -0.2197 -0.0404  0.8011
 2989SOL    MW411724   0.963   1.692   2.659 -0.0281 -0.3675 -0.2389
 2990SOL     OW11725   4.709   0.257   0.626 -0.0267 -0.0109  0.0108
 2990SOL    HW211726   4.696   0.333   0.683  0.4424 -1.6315  2.4014
 2990SOL    HW311727   4.788   0.216   0.659 -0.2021 -1.4910 -1.3110
 2990SOL    MW411728   4.718   0.262   0.638  0.1270  0.2053 -0.1760
 2991SOL     OW11729   2.765   3.359   0.478 -0.3057  0.4744 -0.5824
 2991SOL    HW211730   2.800   3.364   0.389  1.7173  0.8542  0.1784
 2991SOL    HW311731   2.730   3.270   0.485 -1.3266  0.7279 -2.0106
 2991SOL    MW411732   2.765   3.348   0.467 -0.4338 -0.2360  0.0781
 2992SOL     OW11733   2.317   1.977   0.783 -0.6425 -0.3363 -0.3764
 2992SOL    HW211734   2.243   2.037   0.779  0.0716  0.5110 -1.9966
 2992SOL    HW311735   2.372   2.002   0.709  1.0433 -1.2302  0.5050
 2992SOL    MW411736   2.315   1.988   0.773  0.3933 -0.7560 -0.4581
 2993SOL     OW11737   1.946   1.675   5.288  0.3974  0.1789 -0.1356
 2993SOL    HW211738   1.853   1.652   5.281 -0.0887  1.7475  0.8147
 2993SOL    HW311739   1.958   1.744   5.223  0.9336 -0.0320 -0.2713
 2993SOL    MW411740   1.935   1.681   5.278  0.1637  0.2646 -0.9191
 2994SOL     OW11741   1.525   5.865   5.129 -0.3663 -0.2547 -0.0376
 2994SOL    HW211742   1.617   5.862   5.104 -0.1374 -2.2402  0.9232
 2994SOL    HW311743   1.524   5.910   5.213 -0.3356  0.1083 -0.2278
 2994SOL    MW411744   1.537   5.871   5.137 -0.4315  0.1825 -0.3751
 2995SOL     OW11745   5.938   5.265   3.500 -0.2677  0.2483 -0.0163
 2995SOL    HW211746   5.866   5.286   3.560  1.2346 -0.1796  2.0198
 2995SOL    HW311747   5.921   5.175   3.473  0.7605 -0.7610  2.4579
 2995SOL    MW411748   5.926   5.256   3.504  0.2140  0.3869 -0.0453
 2996SOL     OW11749   4.840   4.230   3.650  0.9648  0.3085  0.3524
 2996SOL    HW211750   4.895   4.163   3.693  0.9874  0.2538  0.2369
 2996SOL    HW311751   4.826   4.196   3.562 -1.1507 -0.8213  1.0480
 2996SOL    MW411752   4.845   4.217   3.644 -0.0760 -0.2123 -0.1187
 2997SOL     OW11753   5.961   4.527   2.141  0.0311 -0.0120 -0.1542
 2997SOL    HW211754   5.912   4.594   2.189 -0.7930  0.0257 -1.0114
 2997SOL    HW311755   6.052   4.540   2.167  0.0676  2.1892 -1.1807
 2997SOL    MW411756   5.966   4.537   2.151 -0.1373  0.3213 -0.1896
 2998SOL     OW11757   5.167   5.463   0.710 -0.1080  0.0644 -0.1760
 2998SOL    HW211758   5.092   5.474   0.652  1.5267  0.1136 -2.4186
 2998SOL    HW311759   5.195   5.373   0.696  0.7085  0.2782  0.0444
 2998SOL    MW411760   5.161   5.453   0.700 -0.0366 -0.3292 -0.5180
 2999SOL     OW11761   5.798   4.724   2.233 -0.1332  0.0085  0.3496
 2999SOL    HW211762   5.786   4.697   2.324 -1.1470 -1.0304 -0.0727
 2999SOL    HW311763   5.731   4.677   2.184  0.1717  0.8063 -0.9043
 2999SOL    MW411764   5.788   4.715   2.238  0.1061  0.1153 -0.3532
 3000SOL     OW11765   6.045   2.573   4.907 -0.0496 -0.8444 -0.0634
 3000SOL    HW211766   6.096   2.610   4.835  0.7181 -1.7641 -0.0114
 3000SOL    HW311767   6.078   2.618   4.985 -1.5570  0.8616 -0.3505
 3000SOL    MW411768   6.056   2.584   4.908  0.2311  0.2231 -0.1157
 3001SOL     OW11769   5.166   4.566   3.049 -0.2604  0.3279 -0.0528
 3001SOL    HW211770   5.226   4.592   2.979 -1.3736  0.6863 -0.9119
 3001SOL    HW311771   5.139   4.477   3.025  0.0511  0.0969  0.4293
 3001SOL    MW411772   5.170   4.558   3.036  0.0148  0.1262 -0.0629
 3002SOL     OW11773   6.400   3.556   3.201 -0.0787 -0.3867  0.0865
 3002SOL    HW211774   6.476   3.558   3.259  1.2038 -0.8115 -1.4909
 3002SOL    HW311775   6.404   3.639   3.153 -1.0385 -0.0934  0.5019
 3002SOL    MW411776   6.410   3.567   3.202  0.1743 -1.0957  0.2046
 3003SOL     OW11777   4.857   0.963   2.173 -0.4966 -0.2165  0.4935
 3003SOL    HW211778   4.768   0.971   2.209 -0.3968  1.3213  0.4282
 3003SOL    HW311779   4.907   1.032   2.215  0.1561  0.2768 -1.0099
 3003SOL    MW411780   4.852   0.973   2.183 -0.0185  0.8387  0.5083
 3004SOL     OW11781   4.602   3.467   1.202 -0.4387 -0.7757  0.2911
 3004SOL    HW211782   4.557   3.384   1.214 -2.0036 -0.1325 -0.7583
 3004SOL    HW311783   4.540   3.521   1.152  1.1676  0.4721 -0.4562
 3004SOL    MW411784   4.588   3.463   1.197 -0.2291 -0.0815 -0.4700
 3005SOL     OW11785   2.244   2.270   6.422  0.2405 -0.1023 -0.1799
 3005SOL    HW211786   2.302   2.227   6.358  0.2200 -0.0194 -0.2540
 3005SOL    HW311787   2.250   2.215   6.500  0.5995  0.0362 -0.1085
 3005SOL    MW411788   2.252   2.257   6.424 -0.3040 -0.0467  0.5520
 3006SOL     OW11789   3.392   1.029   6.026 -0.6341 -0.1856 -0.1881
 3006SOL    HW211790   3.389   0.937   6.001  3.2476 -0.6055  0.2981
 3006SOL    HW311791   3.430   1.073   5.951  1.4991  0.2408  1.0662
 3006SOL    MW411792   3.396   1.023   6.013  0.3736 -0.1858  0.1513
 3007SOL     OW11793   1.707   4.483   1.043 -0.3867  0.7009  0.5594
 3007SOL    HW211794   1.656   4.529   0.976 -1.1610 -2.5839 -1.3169
 3007SOL    HW311795   1.797   4.516   1.032 -0.5556  0.4809 -1.9310
 3007SOL    MW411796   1.712   4.494   1.033  0.0504  0.2058  0.0119
 3008SOL     OW11797   4.324   1.140   1.336 -0.0233 -0.1299  0.1588
 3008SOL    HW211798   4.372   1.128   1.418 -0.4782  0.1955  0.4790
 3008SOL    HW311799   4.283   1.226   1.344 -0.6239 -0.3810 -0.1246
 3008SOL    MW411800   4.325   1.150   1.348  0.3983  0.0450  0.0498
 3009SOL     OW11801   4.338   0.003   0.342 -0.2936  0.4601  0.0763
 3009SOL    HW211802   4.406   0.068   0.360  0.2438 -0.0282 -0.1714
 3009SOL    HW311803   4.382  -0.081   0.354 -1.1139  0.1337  0.8990
 3009SOL    MW411804   4.353  -0.000   0.346 -0.5757  0.8724 -0.2956
 3010SOL     OW11805   1.921   2.521   3.349  0.0110 -0.1392  0.0809
 3010SOL    HW211806   1.948   2.582   3.417  0.6927  0.8599 -1.0391
 3010SOL    HW311807   1.860   2.462   3.392  0.2673  0.5907  1.4949
 3010SOL    MW411808   1.916   2.521   3.364 -0.1376 -0.5396 -0.1238
 3011SOL     OW11809   2.952   3.408   5.630 -0.5491  0.0374 -0.0891
 3011SOL    HW211810   3.032   3.363   5.657  0.9935  2.7883  0.3509
 3011SOL    HW311811   2.927   3.367   5.548  1.4456 -0.7825 -0.3391
 3011SOL    MW411812   2.959   3.397   5.623  0.6788  0.2600  0.0945
 3012SOL     OW11813   5.311   0.557   0.731  0.3623  0.7065 -0.0489
 3012SOL    HW211814   5.324   0.525   0.642 -0.3049 -0.5063  0.2775
 3012SOL    HW311815   5.311   0.478   0.785  2.7092  1.5080  1.3009
 3012SOL    MW411816   5.313   0.542   0.727 -0.0640  0.0795 -0.1298
 3013SOL     OW11817   4.575   3.833   3.325  0.6991  0.2170  0.4651
 3013SOL    HW211818   4.585   3.843   3.231  1.2219 -0.1762  0.4730
 3013SOL    HW311819   4.482   3.848   3.341  0.7694  1.1787  0.0071
 3013SOL    MW411820   4.564   3.836   3.315  0.0529  0.1338  0.1492
 3014SOL     OW11821   1.562   2.634   4.732  0.0448 -0.0522  0.0647
 3014SOL    HW211822   1.472   2.602   4.729 -0.0587  0.1931  0.4378
 3014SOL    HW311823   1.562   2.709   4.672 -0.4799  1.1007  1.4549
 3014SOL    MW411824   1.550   2.640   4.723 -0.0140  0.4455  0.2314
 3015SOL     OW11825   3.410   4.687   1.774  0.7522  0.7878 -0.0537
 3015SOL    HW211826   3.385   4.776   1.752  0.5710  0.8933  0.5712
 3015SOL    HW311827   3.504   4.692   1.792  1.2335  0.4370 -2.1477
 3015SOL    MW411828   3.419   4.699   1.773 -0.8081  0.0887  0.3679
 3016SOL     OW11829   3.286   5.648   2.575 -0.1560  0.1467  0.6424
 3016SOL    HW211830   3.269   5.696   2.494  0.4556 -0.1865  0.3108
 3016SOL    HW311831   3.381   5.636   2.576 -0.0757  0.7079  1.7333
 3016SOL    MW411832   3.297   5.653   2.564 -0.3507  0.4968  0.2718
 3017SOL     OW11833   4.090   3.663   3.335 -0.5543 -0.1168 -0.0313
 3017SOL    HW211834   4.079   3.639   3.243  2.2226  1.3387 -0.8534
 3017SOL    HW311835   4.003   3.692   3.363 -1.1148  1.1473 -2.7595
 3017SOL    MW411836   4.077   3.664   3.327 -0.0890  0.0105 -0.1583
 3018SOL     OW11837   5.758   1.475   3.141 -0.0235 -0.1306 -0.1020
 3018SOL    HW211838   5.849   1.501   3.127  0.8497 -2.6113  0.3725
 3018SOL    HW311839   5.730   1.524   3.218  0.8264  0.8040 -0.3633
 3018SOL    MW411840   5.767   1.485   3.149  0.1971 -0.4641  0.5473
 3019SOL     OW11841   5.880   5.512   0.450 -0.6605 -0.6095 -0.0110
 3019SOL    HW211842   5.812   5.541   0.390 -0.2576  0.4784  0.0384
 3019SOL    HW311843   5.922   5.593   0.480  0.3230 -1.2315  0.3460
 3019SOL    MW411844   5.876   5.527   0.446 -0.2584  0.5295 -0.0205
 3020SOL     OW11845   5.260   2.113   5.824 -0.3341 -0.3283 -0.5229
 3020SOL    HW211846   5.278   2.062   5.903  0.4745 -1.9095 -1.6637
 3020SOL    HW311847   5.342   2.159   5.806 -0.5486  0.1097 -0.4191
 3020SOL    MW411848   5.273   2.113   5.832 -0.6264 -0.4126 -0.0525
 3021SOL     OW11849   3.895   3.326   4.641 -0.1663  0.2015  0.2199
 3021SOL    HW211850   3.803   3.315   4.664 -1.1129  0.7429 -2.7763
 3021SOL    HW311851   3.909   3.421   4.641  0.6633  0.0953  1.4818
 3021SOL    MW411852   3.884   3.337   4.644 -0.3467 -0.1195 -0.0144
 3022SOL     OW11853   2.805   2.704   5.571 -0.5695 -0.1970  0.3749
 3022SOL    HW211854   2.846   2.656   5.643  0.6849 -0.5317 -0.5146
 3022SOL    HW311855   2.873   2.764   5.541  0.0455 -2.0581 -2.3555
 3022SOL    MW411856   2.820   2.706   5.577  0.5150 -0.4996 -0.1064
 3023SOL     OW11857   6.020   2.548   4.201 -0.6307  0.5182  0.1924
 3023SOL    HW211858   6.077   2.558   4.125 -0.3916  2.0212  0.5402
 3023SOL    HW311859   5.980   2.634   4.212 -0.6724  0.3250  1.7584
 3023SOL    MW411860   6.022   2.561   4.193  0.1224  0.0499 -0.0941
 3024SOL     OW11861   2.800   3.556   5.879 -0.8190 -0.5013  0.0932
 3024SOL    HW211862   2.706   3.575   5.878 -1.2452 -2.3773  0.6422
 3024SOL    HW311863   2.816   3.508   5.798 -0.3465 -0.3054  0.0642
 3024SOL    MW411864   2.790   3.552   5.869  0.8679  0.4825  0.5915
 3025SOL     OW11865   5.676   1.317   3.943  0.4759 -0.5282  0.2410
 3025SOL    HW211866   5.719   1.236   3.916  1.4589 -0.2008  0.7793
 3025SOL    HW311867   5.668   1.368   3.862 -0.4203 -1.2675 -0.1526
 3025SOL    MW411868   5.681   1.313   3.929  0.6581  0.0304  0.5222
 3026SOL     OW11869   6.072   1.993   6.272  0.1933 -0.0342  0.6008
 3026SOL    HW211870   6.125   1.934   6.218  0.2928 -0.3673  1.0575
 3026SOL    HW311871   6.131   2.021   6.342 -0.4009 -0.9341  1.5021
 3026SOL    MW411872   6.086   1.989   6.274  0.0441  0.1500  0.3625
 3027SOL     OW11873   5.505   2.825   2.423  0.0146 -0.5519  0.2459
 3027SOL    HW211874   5.521   2.730   2.425 -2.8607 -1.1043  0.9543
 3027SOL    HW311875   5.475   2.846   2.511  1.6739  1.3170  0.4409
 3027SOL    MW411876   5.503   2.815   2.435  0.3332 -0.4829  0.5598
 3028SOL     OW11877   0.789   0.042   0.992 -0.5906  0.1834  0.4742
 3028SOL    HW211878   0.713  -0.008   0.962  1.1252 -0.7823 -2.7437
 3028SOL    HW311879   0.797   0.113   0.928  0.6276  0.8611  1.3503
 3028SOL    MW411880   0.780   0.045   0.979  0.3913 -0.0847 -0.1297
 3029SOL     OW11881   0.615   2.081   4.162  0.3136 -0.4907  0.5872
 3029SOL    HW211882   0.665   2.089   4.244 -0.0036 -0.9555  0.8272
 3029SOL    HW311883   0.678   2.043   4.100  0.7919  0.5846  0.3875
 3029SOL    MW411884   0.630   2.077   4.164 -0.0083  0.1822 -0.4713
 3030SOL     OW11885   1.444   2.805   4.272  0.2181  0.1736  0.7772
 3030SOL    HW211886   1.374   2.740   4.262  0.1332  0.2751  0.7045
 3030SOL    HW311887   1.404   2.888   4.245  0.3626  0.2352  0.7489
 3030SOL    MW411888   1.429   2.808   4.267  0.2618 -0.4952  0.0605
 3031SOL     OW11889   1.532   5.744   4.789  0.0854 -0.2639 -0.5862
 3031SOL    HW211890   1.615   5.774   4.753 -0.2479  1.9350  0.2899
 3031SOL    HW311891   1.496   5.822   4.833 -1.3392 -1.7643  1.0496
 3031SOL    MW411892   1.538   5.758   4.790  0.4827  0.4822 -0.4820
 3032SOL     OW11893   0.032   3.173   0.278 -0.1261  0.2191  0.1415
 3032SOL    HW211894   0.114   3.224   0.277 -0.5707  0.9464 -0.5292
 3032SOL    HW311895   0.019   3.151   0.370 -0.1184  1.6714  0.5175
 3032SOL    MW411896   0.041   3.177   0.290  0.0528 -0.0212  0.0076
 3033SOL     OW11897   3.823   5.467   0.915 -0.0331  0.4503  0.0643
 3033SOL    HW211898   3.752   5.425   0.964 -0.0048 -0.6720 -0.8098
 3033SOL    HW311899   3.899   5.460   0.973 -0.1001 -0.4557  0.0517
 3033SOL    MW411900   3.824   5.461   0.929  0.6969  0.0880 -0.5663
 3034SOL     OW11901   1.538   6.103   1.398  0.2441  0.7638 -0.6964
 3034SOL    HW211902   1.481   6.028   1.417 -0.7850  1.5017 -0.7637
 3034SOL    HW311903   1.615   6.089   1.453 -0.8418  0.7115  0.9044
 3034SOL    MW411904   1.541   6.091   1.408 -0.8347  0.5536 -0.3927
 3035SOL     OW11905   3.800   3.373   5.339  0.4779  0.0244  0.0811
 3035SOL    HW211906   3.885   3.346   5.306  0.8736 -0.7691  1.6954
 3035SOL    HW311907   3.738   3.344   5.272  1.3112 -1.0005 -0.2628
 3035SOL    MW411908   3.803   3.366   5.326  0.0684 -0.1887 -0.0218
 3036SOL     OW11909   2.157   0.703   3.891 -0.0918 -0.2061 -0.4079
 3036SOL    HW211910   2.184   0.712   3.800 -1.5375  2.8587 -0.6396
 3036SOL    HW311911   2.158   0.792   3.926  0.0870 -1.2327  2.5109
 3036SOL    MW411912   2.161   0.716   3.884  0.1882  0.0321  0.2760
 3037SOL     OW11913   1.757   2.358   0.439  0.4854  0.1743 -0.1246
 3037SOL    HW211914   1.719   2.320   0.360 -1.9768  2.2797 -0.0839
 3037SOL    HW311915   1.808   2.433   0.409  0.4865  0.3051  0.1942
 3037SOL    MW411916   1.759   2.363   0.425 -0.0594 -0.3484  0.0569
 3038SOL     OW11917   3.401   4.523   3.071  0.3420 -0.3641  0.7176
 3038SOL    HW211918   3.418   4.475   3.152 -0.0309 -0.6744  0.6164
 3038SOL    HW311919   3.306   4.512   3.057  0.5899 -1.3258 -0.3898
 3038SOL    MW411920   3.390   4.515   3.080  0.5391 -0.1610 -0.1516
 3039SOL     OW11921   3.896   0.634   5.202 -0.6890 -0.3841  0.2701
 3039SOL    HW211922   3.856   0.655   5.287  0.3543 -1.1692  0.9833
 3039SOL    HW311923   3.821   0.621   5.143 -1.4301  0.4118  1.0043
 3039SOL    MW411924   3.881   0.635   5.206  0.1515 -0.3214  0.0207
 3040SOL     OW11925   2.707   1.891   5.235  0.6952 -0.1337  0.6478
 3040SOL    HW211926   2.654   1.870   5.312  1.3315  0.2112  1.1911
 3040SOL    HW311927   2.768   1.958   5.266  0.7056  0.2895 -0.2574
 3040SOL    MW411928   2.708   1.897   5.250 -0.8018  0.2399 -0.0132
 3041SOL     OW11929   6.359   1.935   1.457 -0.5259  0.1056 -0.4113
 3041SOL    HW211930   6.343   1.888   1.539  1.1158  0.8085  0.3563
 3041SOL    HW311931   6.336   2.025   1.476 -1.4665  0.0331 -1.1707
 3041SOL    MW411932   6.354   1.940   1.470  0.4353  0.5513  0.2373
 3042SOL     OW11933   4.362   3.786   4.302 -0.1931  0.4270 -0.0765
 3042SOL    HW211934   4.387   3.791   4.209  0.1803  0.9737  0.0525
 3042SOL    HW311935   4.373   3.693   4.325 -1.1164  0.1102 -0.8062
 3042SOL    MW411936   4.367   3.774   4.292 -0.0983  0.4009  0.0325
 3043SOL     OW11937   6.236   1.527   0.908 -0.2624  0.2721 -0.0301
 3043SOL    HW211938   6.184   1.498   0.982  0.3798 -1.5301 -0.2302
 3043SOL    HW311939   6.172   1.555   0.842 -0.8492  1.1848  0.9108
 3043SOL    MW411940   6.221   1.527   0.909  0.3949  0.1571  0.1087
 3044SOL     OW11941   4.336   1.014   2.547 -0.2838  0.6711  1.0532
 3044SOL    HW211942   4.249   1.052   2.558 -0.4537  0.2611  1.1304
 3044SOL    HW311943   4.342   0.995   2.454 -0.1371  1.0237  0.9867
 3044SOL    MW411944   4.325   1.017   2.536 -0.3300  0.5289  0.0591
 3045SOL     OW11945   2.796   2.262   5.704  0.0876 -0.1649  0.1401
 3045SOL    HW211946   2.714   2.300   5.672  0.4975  0.0917 -0.6423
 3045SOL    HW311947   2.782   2.251   5.798 -0.9979 -0.5414 -0.0527
 3045SOL    MW411948   2.783   2.266   5.712 -0.2793  0.5865  0.2230
 3046SOL     OW11949   2.636   2.265   0.022 -0.6984 -0.3972 -0.2729
 3046SOL    HW211950   2.723   2.248   0.057 -0.0461 -1.1770 -2.1275
 3046SOL    HW311951   2.586   2.186   0.043 -1.9061  1.1190  3.2529
 3046SOL    MW411952   2.641   2.252   0.030  0.8230 -0.2268 -0.0278
 3047SOL     OW11953   5.178   2.390   2.324  0.3104 -0.1082  0.5973
 3047SOL    HW211954   5.217   2.466   2.282  0.4807 -1.0909 -1.1209
 3047SOL    HW311955   5.099   2.423   2.366  1.2817  1.3139  1.3601
 3047SOL    MW411956   5.173   2.404   2.324  0.1293 -0.3318  0.0779
 3048SOL     OW11957   0.664   4.572   5.935 -0.0442 -0.5959  0.3353
 3048SOL    HW211958   0.721   4.614   5.870 -2.0830  0.6900 -0.7343
 3048SOL    HW311959   0.710   4.583   6.018  2.3828 -1.7877 -0.7288
 3048SOL    MW411960   0.678   4.579   5.937  0.5917 -0.3154 -0.3239
 3049SOL     OW11961   0.838   0.991   5.984  0.1484  0.2203  0.7672
 3049SOL    HW211962   0.867   1.074   5.947  1.6365 -0.4091  0.4782
 3049SOL    HW311963   0.876   0.990   6.072  1.3348 -0.7543  0.2669
 3049SOL    MW411964   0.847   1.002   5.991 -0.1949 -0.7226  0.0061
 3050SOL     OW11965   5.307   0.326   0.464  1.0498 -0.5219 -0.2770
 3050SOL    HW211966   5.344   0.414   0.458  0.5378 -0.0014  2.6250
 3050SOL    HW311967   5.213   0.341   0.478  0.9329 -1.5165  0.0935
 3050SOL    MW411968   5.299   0.340   0.465 -0.0535  0.1366 -0.1095
 3051SOL     OW11969   4.784   5.944   1.672 -0.0898 -0.4354  0.0116
 3051SOL    HW211970   4.817   5.863   1.633 -1.0165 -0.3188 -1.0704
 3051SOL    HW311971   4.690   5.929   1.683 -0.5576  0.9679 -1.5646
 3051SOL    MW411972   4.776   5.932   1.668  0.3736 -0.1543 -0.0605
 3052SOL     OW11973   4.618   5.795   0.101 -0.0635 -0.1521  0.0550
 3052SOL    HW211974   4.614   5.861   0.031 -2.0462  0.4693  0.6815
 3052SOL    HW311975   4.707   5.803   0.135  0.1998  1.2127 -0.8344
 3052SOL    MW411976   4.630   5.805   0.096 -0.1065 -0.1602 -0.3698
 3053SOL     OW11977   4.623   3.868   3.052  0.8094  0.0791  0.1040
 3053SOL    HW211978   4.681   3.800   3.019 -0.5952 -0.9865 -0.2517
 3053SOL    HW311979   4.556   3.878   2.984 -0.2531  0.2220  1.1323
 3053SOL    MW411980   4.622   3.861   3.039 -0.1108 -0.4668 -0.1210
 3054SOL     OW11981   0.538   0.698   3.782  0.0163 -0.7354 -0.4275
 3054SOL    HW211982   0.514   0.639   3.854 -1.0126  1.6688  1.3119
 3054SOL    HW311983   0.632   0.683   3.770  0.2955 -1.0012  1.6482
 3054SOL    MW411984   0.547   0.688   3.790  0.7007 -0.5948  0.0599
 3055SOL     OW11985   6.375   2.451   4.085 -0.3460 -0.3589 -0.6022
 3055SOL    HW211986   6.402   2.480   4.172 -0.6406  1.5989 -1.1213
 3055SOL    HW311987   6.450   2.469   4.029 -0.5598 -0.5740 -0.9618
 3055SOL    MW411988   6.388   2.457   4.089 -0.5492  0.3723 -0.0401
 3056SOL     OW11989   5.194   5.845   0.527  0.0079 -0.2552 -0.3288
 3056SOL    HW211990   5.115   5.838   0.581 -0.4186  2.6575 -0.3946
 3056SOL    HW311991   5.266   5.839   0.590 -0.4790  3.2156  0.8236
 3056SOL    MW411992   5.193   5.844   0.543 -0.2157  0.3612  0.6908
 3057SOL     OW11993   4.522   5.341   3.096 -0.4925 -0.2377 -0.3306
 3057SOL    HW211994   4.453   5.365   3.158  0.0160  1.3368 -0.3277
 3057SOL    HW311995   4.549   5.253   3.123 -0.5211  0.2682  1.4772
 3057SOL    MW411996   4.517   5.333   3.108  0.2945 -0.6570  0.4044
 3058SOL     OW11997   6.248   5.452   5.275  0.3434 -0.6478 -0.2353
 3058SOL    HW211998   6.205   5.384   5.326  0.1477  0.9652  1.8787
 3058SOL    HW311999   6.341   5.430   5.280  0.2005 -1.3611 -0.5501
 3058SOL    MW412000   6.255   5.440   5.282  0.3245  0.0473 -0.0967
 3059SOL     OW12001   0.593   1.936   4.995  0.0477 -0.0763  0.0061
 3059SOL    HW212002   0.593   1.906   5.086 -0.3514 -0.1809 -0.0273
 3059SOL    HW312003   0.576   1.857   4.943  0.0902  0.0139 -0.1469
 3059SOL    MW412004   0.591   1.922   5.000  0.4822  0.4716 -0.7139
 3060SOL     OW12005   4.442   2.455   0.481  0.3466 -0.3003  0.1494
 3060SOL    HW212006   4.449   2.523   0.414  1.2332  0.8641  1.3715
 3060SOL    HW312007   4.532   2.425   0.494  0.4834  0.7158  1.9861
 3060SOL    MW412008   4.455   2.460   0.474  0.1732 -0.1900 -0.9467
 3061SOL     OW12009   1.773   4.826   0.844 -0.1141  0.8502  0.2534
 3061SOL    HW212010   1.785   4.898   0.782  0.9252  0.0796 -0.4823
 3061SOL    HW312011   1.823   4.754   0.806 -0.6238 -0.0701  1.2917
 3061SOL    MW412012   1.781   4.826   0.831 -0.1081  0.1918  0.5070
 3062SOL     OW12013   2.321   6.304   2.773  0.1223  0.6282 -0.0811
 3062SOL    HW212014   2.415   6.317   2.787  0.2682 -2.1712  2.5279
 3062SOL    HW312015   2.314   6.218   2.732 -1.2995  1.9567 -2.8944
 3062SOL    MW412016   2.332   6.295   2.770  0.7403  0.6334  0.7282
 3063SOL     OW12017   1.496   5.735   3.915 -0.6934 -0.1300 -0.0707
 3063SOL    HW212018   1.489   5.767   4.005  0.0069  0.8467 -0.3464
 3063SOL    HW312019   1.408   5.705   3.893 -0.4523 -2.3134  1.6244
 3063SOL    MW412020   1.484   5.735   3.924 -0.0635  0.4583 -0.4642
 3064SOL     OW12021   3.772   0.239   0.978 -0.1450 -0.5243 -0.3907
 3064SOL    HW212022   3.718   0.315   0.998  0.2242 -0.6062  1.0717
 3064SOL    HW312023   3.852   0.253   1.028 -0.1253 -1.9182  0.0222
 3064SOL    MW412024   3.775   0.251   0.987  0.1855  0.0206  0.0501
 3065SOL     OW12025   6.416   2.075   0.417 -0.1778  0.3379 -0.3678
 3065SOL    HW212026   6.487   2.124   0.459  0.9550  0.1904 -2.0191
 3065SOL    HW312027   6.399   2.002   0.477  1.5122  0.0189 -0.2191
 3065SOL    MW412028   6.423   2.072   0.431 -0.1135 -0.3002 -0.1837
 3066SOL     OW12029   5.294   4.383   1.630 -0.3135 -0.1283 -0.4754
 3066SOL    HW212030   5.347   4.455   1.665  0.0228 -1.8723  3.0472
 3066SOL    HW312031   5.359   4.321   1.596 -0.0897 -1.1690  1.6400
 3066SOL    MW412032   5.310   4.384   1.630 -0.4586 -0.2528 -0.4015
 3067SOL     OW12033   3.068   6.285   5.023 -0.2974  0.2171  0.4808
 3067SOL    HW212034   3.154   6.249   5.005 -0.1738  0.2103  1.0857
 3067SOL    HW312035   3.027   6.292   4.936 -1.1618 -3.3552  0.4687
 3067SOL    MW412036   3.074   6.281   5.009  0.4435  0.2279 -0.1170
 3068SOL     OW12037   1.510   2.949   2.537  0.0510  0.3518  0.3801
 3068SOL    HW212038   1.422   2.943   2.574 -0.3741 -1.3028 -0.7658
 3068SOL    HW312039   1.500   2.918   2.447  2.1221 -1.9737  0.8439
 3068SOL    MW412040   1.497   2.944   2.530  0.1654  0.4196  0.3577
 3069SOL     OW12041   3.967   5.191   3.843 -0.1756 -0.6711 -0.3944
 3069SOL    HW212042   3.892   5.161   3.894 -0.0104 -0.2363  0.1076
 3069SOL    HW312043   3.958   5.286   3.840  0.5765 -0.5793  0.0153
 3069SOL    MW412044   3.956   5.200   3.849 -0.0784 -0.1012  0.4617
 3070SOL     OW12045   0.889   0.963   1.545  0.4181  0.1306  0.4321
 3070SOL    HW212046   0.915   1.037   1.490  2.8157 -1.3319 -0.5859
 3070SOL    HW312047   0.943   0.973   1.624  0.1882 -0.1217  0.6212
 3070SOL    MW412048   0.900   0.974   1.548  0.3901 -0.1227  0.2971
 3071SOL     OW12049   2.118   3.921   3.979  0.4211  0.0299 -0.2180
 3071SOL    HW212050   2.175   3.910   4.054  0.1657  0.3743  0.0286
 3071SOL    HW312051   2.164   3.982   3.922 -0.8794  2.5475  1.2362
 3071SOL    MW412052   2.132   3.928   3.981  0.3594 -0.6249  0.2071
 3072SOL     OW12053   3.617   5.117   5.766  0.2565  0.3440  0.3130
 3072SOL    HW212054   3.648   5.195   5.721 -0.2875  0.9735  1.0128
 3072SOL    HW312055   3.529   5.140   5.797 -0.3166 -0.8923 -0.3464
 3072SOL    MW412056   3.609   5.130   5.764  0.2003 -0.2442 -0.5605
 3073SOL     OW12057   0.621   3.448   3.555 -0.1038 -0.4364 -0.3898
 3073SOL    HW212058   0.552   3.514   3.550 -0.1394 -0.5599 -1.6020
 3073SOL    HW312059   0.631   3.432   3.649 -1.9707 -0.6719 -0.1917
 3073SOL    MW412060   0.614   3.454   3.567 -0.4135  0.0919 -0.0003
 3074SOL     OW12061   0.985   5.770   3.849 -0.4519 -0.3819 -0.2977
 3074SOL    HW212062   0.936   5.689   3.862 -1.0024 -0.5866 -3.0513
 3074SOL    HW312063   1.077   5.744   3.853 -0.6263 -1.0828 -0.7371
 3074SOL    MW412064   0.991   5.756   3.851  0.3483  0.0417  0.1385
 3075SOL     OW12065   3.751   3.046   4.126 -0.0436  0.1690  0.1153
 3075SOL    HW212066   3.832   3.044   4.176 -0.1862 -0.9180  0.3253
 3075SOL    HW312067   3.760   3.122   4.068  1.0262  0.1828  0.2844
 3075SOL    MW412068   3.763   3.056   4.125 -0.1474 -0.2632 -0.7434
 3076SOL     OW12069   4.126   0.353   4.888  0.8682 -0.0677  0.0625
 3076SOL    HW212070   4.131   0.263   4.921 -0.7375 -0.7222 -1.2771
 3076SOL    HW312071   4.100   0.343   4.796  2.1693  1.7410 -0.5716
 3076SOL    MW412072   4.123   0.340   4.880 -0.5447 -0.2143  0.4365
 3077SOL     OW12073   2.521   4.554   4.836 -0.0379 -0.2534 -0.3394
 3077SOL    HW212074   2.513   4.637   4.885 -0.9117 -1.0148  0.8717
 3077SOL    HW312075   2.471   4.569   4.756 -1.2759 -0.0117  0.4482
 3077SOL    MW412076   2.513   4.567   4.832  0.0910  0.5208 -0.8901
 3078SOL     OW12077   1.842   5.725   1.905  0.2255 -0.0119  0.4774
 3078SOL    HW212078   1.825   5.812   1.870  0.9328 -0.3155 -0.6569
 3078SOL    HW312079   1.913   5.738   1.968  1.1948  0.0719 -0.5976
 3078SOL    MW412080   1.849   5.738   1.909  0.1544 -0.4858 -0.7649
 3079SOL     OW12081   5.117   3.878   3.577  0.1108 -0.3210 -0.1259
 3079SOL    HW212082   5.021   3.877   3.570 -0.1811 -0.8290  2.8153
 3079SOL    HW312083   5.137   3.960   3.621  0.8162 -1.1556  1.1483
 3079SOL    MW412084   5.107   3.888   3.582 -0.2263 -0.0978 -0.0588
 3080SOL     OW12085   1.510   2.490   0.926 -0.1707  0.1011 -0.5975
 3080SOL    HW212086   1.542   2.507   0.838 -0.2188  1.2828 -0.3967
 3080SOL    HW312087   1.416   2.478   0.916 -0.1172 -0.2108 -0.7552
 3080SOL    MW412088   1.502   2.491   0.913 -0.4356  0.5559 -0.1634
 3081SOL     OW12089   2.478   1.506   3.841  0.0975  0.3389  0.2306
 3081SOL    HW212090   2.497   1.546   3.926 -1.1544  1.9784 -0.2069
 3081SOL    HW312091   2.524   1.560   3.777 -1.3366  0.9338 -0.3463
 3081SOL    MW412092   2.486   1.518   3.844  0.3640 -0.1035  0.0227
 3082SOL     OW12093   5.113   4.374   2.599 -0.4047  0.2540  0.1599
 3082SOL    HW212094   5.080   4.407   2.515 -0.1647 -1.0639 -0.4789
 3082SOL    HW312095   5.035   4.369   2.655 -1.0313 -1.1189 -0.7615
 3082SOL    MW412096   5.098   4.378   2.595  0.3962  0.5966 -0.6399
 3083SOL     OW12097   3.858   4.110   0.319 -0.5903 -0.1824  0.1634
 3083SOL    HW212098   3.899   4.194   0.336  0.0845 -0.7061  1.2558
 3083SOL    HW312099   3.779   4.111   0.373 -0.0484 -0.6350  0.9885
 3083SOL    MW412100   3.853   4.121   0.329 -0.1879  0.0296 -0.4078
 3084SOL     OW12101   5.199   1.662   2.743  0.0556  0.0663 -0.0466
 3084SOL    HW212102   5.112   1.703   2.737 -0.5758 -1.4459 -3.5269
 3084SOL    HW312103   5.258   1.729   2.708 -0.4364 -0.4741 -2.0474
 3084SOL    MW412104   5.195   1.677   2.737  0.0313  0.4895  0.2222
 3085SOL     OW12105   2.397   0.592   5.480 -0.5764  0.1801 -0.1846
 3085SOL    HW212106   2.327   0.618   5.541 -1.9654 -0.2453 -1.5408
 3085SOL    HW312107   2.370   0.627   5.396 -0.0856 -1.5376 -1.0990
 3085SOL    MW412108   2.384   0.600   5.477 -0.2850 -0.7815 -0.1816
 3086SOL     OW12109   4.787   0.558   3.019  0.4669 -0.1051 -0.2874
 3086SOL    HW212110   4.824   0.500   3.086  1.4477 -0.2646 -0.9324
 3086SOL    HW312111   4.808   0.646   3.049  2.3669 -0.2066 -1.1279
 3086SOL    MW412112   4.795   0.562   3.031  0.1708 -0.0557  1.1862
 3087SOL     OW12113   5.679   5.621   1.339 -0.2123  0.2108 -0.2633
 3087SOL    HW212114   5.598   5.658   1.373  0.2502  2.0130 -0.9946
 3087SOL    HW312115   5.728   5.594   1.417 -1.7405 -1.5311  0.1599
 3087SOL    MW412116   5.675   5.623   1.354 -0.4748  0.5094  0.2374
 3088SOL     OW12117   1.450   1.593   3.886  0.2507  0.0819 -0.4406
 3088SOL    HW212118   1.488   1.671   3.845  0.8269  1.0293  1.7173
 3088SOL    HW312119   1.380   1.627   3.942  0.0084 -1.0330 -0.0450
 3088SOL    MW412120   1.446   1.608   3.888  0.3387  0.1672  0.0409
 3089SOL     OW12121   4.053   4.066   1.388 -0.6866  0.6880  0.0670
 3089SOL    HW212122   3.988   4.134   1.373 -2.0559 -0.6213 -0.2148
 3089SOL    HW312123   4.134   4.113   1.408 -1.7998  2.3750  0.8063
 3089SOL    MW412124   4.055   4.081   1.389 -0.5271  0.1327 -0.3509
 3090SOL     OW12125   4.068   1.247   4.277  0.0377 -0.3900  0.2091
 3090SOL    HW212126   4.121   1.227   4.200 -1.6722  0.3719 -1.2629
 3090SOL    HW312127   4.025   1.164   4.299 -2.2962  0.0771 -2.0474
 3090SOL    MW412128   4.069   1.234   4.269  0.1227 -0.6875  0.2428
 3091SOL     OW12129   0.510   3.809   3.004 -0.2127 -0.2143 -0.3599
 3091SOL    HW212130   0.535   3.760   2.925 -0.4495 -0.6185 -0.1844
 3091SOL    HW312131   0.532   3.751   3.076 -0.5991 -0.1050 -0.1539
 3091SOL    MW412132   0.516   3.795   3.003 -0.0432  0.5528 -0.3892
 3092SOL     OW12133   2.019   2.751   4.420  0.8553 -0.3327 -0.1643
 3092SOL    HW212134   1.964   2.714   4.351  0.6026  1.6791 -1.1120
 3092SOL    HW312135   2.101   2.774   4.376  0.0114  2.7880 -0.3937
 3092SOL    MW412136   2.023   2.749   4.405 -0.1894 -0.7330 -0.5876
 3093SOL     OW12137   5.725   3.813   0.185 -0.1312 -0.1501 -0.7123
 3093SOL    HW212138   5.776   3.745   0.140  0.0740 -1.5547  1.4779
 3093SOL    HW312139   5.722   3.784   0.276 -1.9832  1.6634 -0.1188
 3093SOL    MW412140   5.732   3.800   0.191 -0.0005  0.6031 -0.2595
 3094SOL     OW12141   3.114   4.325   0.342  0.4092  0.1095  0.2318
 3094SOL    HW212142   3.019   4.319   0.354  0.7477 -1.6669  2.7524
 3094SOL    HW312143   3.125   4.355   0.252 -2.5429  2.0332  0.3876
 3094SOL    MW412144   3.103   4.328   0.331  0.4291 -0.1381 -0.0990
 3095SOL     OW12145   5.331   5.291   4.816 -0.1881  0.6956 -0.2455
 3095SOL    HW212146   5.332   5.257   4.905  0.4567 -1.7063 -1.0983
 3095SOL    HW312147   5.239   5.289   4.790 -0.2215  0.0289 -0.0947
 3095SOL    MW412148   5.319   5.286   4.824  0.1907  0.3902  0.4279
 3096SOL     OW12149   4.897   2.249   5.638  0.1081 -0.0707 -0.7200
 3096SOL    HW212150   4.869   2.161   5.663  0.6904 -0.0979 -0.1342
 3096SOL    HW312151   4.903   2.296   5.721 -4.0220  1.7357 -1.1746
 3096SOL    MW412152   4.894   2.243   5.652  0.5066  0.4227 -0.1523
 3097SOL     OW12153   4.255   1.831   1.768 -0.1979 -0.6267  0.3183
 3097SOL    HW212154   4.226   1.744   1.742  0.7296 -0.9573  0.3551
 3097SOL    HW312155   4.346   1.836   1.737  0.0551 -0.0228  1.1341
 3097SOL    MW412156   4.263   1.820   1.761  0.0952 -0.2994 -0.0676
 3098SOL     OW12157   4.199   5.000   5.178  0.4211  0.4132  0.1002
 3098SOL    HW212158   4.267   4.991   5.244 -0.4563  0.2708  1.0023
 3098SOL    HW312159   4.184   4.911   5.147  2.1262  0.6631 -1.6821
 3098SOL    MW412160   4.206   4.987   5.182  0.1775  0.3940 -0.1288
 3099SOL     OW12161   0.119   5.055   3.170  0.8459  0.0716 -0.2566
 3099SOL    HW212162   0.204   5.086   3.202  0.9580 -0.2792 -0.2046
 3099SOL    HW312163   0.059   5.127   3.186  1.0327  0.1345  0.1719
 3099SOL    MW412164   0.122   5.068   3.176 -0.1227 -0.1260  0.6866
 3100SOL     OW12165   2.683   0.913   1.949  1.1605  0.0370  0.5411
 3100SOL    HW212166   2.644   0.877   1.869  2.8339  1.0398 -0.7996
 3100SOL    HW312167   2.609   0.929   2.008 -0.5215  2.0360 -1.9190
 3100SOL    MW412168   2.668   0.910   1.946  0.8850 -0.2969 -0.4586
 3101SOL     OW12169   0.856   0.424   0.336  0.4114  0.3134  0.0802
 3101SOL    HW212170   0.891   0.340   0.307 -2.2000 -1.5088  1.8048
 3101SOL    HW312171   0.805   0.455   0.262 -1.1152 -1.2052  0.4424
 3101SOL    MW412172   0.854   0.417   0.323 -0.2351  0.1614 -0.1478
 3102SOL     OW12173   5.167   4.822   2.536 -0.1771 -0.2548  0.2022
 3102SOL    HW212174   5.228   4.862   2.474 -1.3152  0.3090 -0.6033
 3102SOL    HW312175   5.207   4.739   2.560  0.5702 -0.2233 -0.8633
 3102SOL    MW412176   5.180   4.817   2.531 -0.4478  0.3417 -0.8358
 3103SOL     OW12177   5.532   2.412   4.183 -0.8242  0.0381 -0.5978
 3103SOL    HW212178   5.605   2.362   4.219 -1.0623 -1.3827 -1.9513
 3103SOL    HW312179   5.473   2.426   4.257  1.4147  2.5102  0.8905
 3103SOL    MW412180   5.534   2.407   4.197  0.4307  0.5182 -0.5091
 3104SOL     OW12181   6.283   3.337   6.018  0.2294  0.3419 -0.3543
 3104SOL    HW212182   6.241   3.350   5.933  1.0462 -0.1384 -0.8461
 3104SOL    HW312183   6.374   3.316   5.997  0.7735  1.5218  0.6899
 3104SOL    MW412184   6.290   3.336   6.004  0.2463  0.4878  0.3458
 3105SOL     OW12185   0.007   4.406   5.241 -0.3579  0.0243  0.5337
 3105SOL    HW212186   0.014   4.372   5.330  1.5352  2.2978  1.3642
 3105SOL    HW312187  -0.085   4.429   5.231 -0.6610 -0.5740  1.7429
 3105SOL    MW412188  -0.004   4.404   5.251 -0.4776 -0.3569 -0.3394
 3106SOL     OW12189   1.609   2.754   2.037 -0.3723 -0.2251 -0.2929
 3106SOL    HW212190   1.672   2.710   1.979 -0.4378 -1.0774  0.2645
 3106SOL    HW312191   1.541   2.688   2.052 -2.3252  1.2085 -2.2318
 3106SOL    MW412192   1.608   2.739   2.031 -0.4576 -0.1610 -0.0530
 3107SOL     OW12193   1.771   2.525   3.702  0.0463 -0.3710 -0.1269
 3107SOL    HW212194   1.844   2.469   3.677  2.6368  1.5832  2.3306
 3107SOL    HW312195   1.778   2.601   3.643  1.3760  0.7445  1.3922
 3107SOL    MW412196   1.782   2.528   3.691  0.6063 -0.1385  0.5293
 3108SOL     OW12197   0.682   0.308   3.836  0.0810  0.8407  0.6487
 3108SOL    HW212198   0.692   0.296   3.930 -3.5594 -0.4178  1.0470
 3108SOL    HW312199   0.689   0.220   3.800 -0.8468  0.9909  0.0692
 3108SOL    MW412200   0.684   0.295   3.843  0.1680  0.3254  0.4210
 3109SOL     OW12201   3.872   4.619   0.729  0.5776  0.4797  0.0590
 3109SOL    HW212202   3.905   4.633   0.818 -0.6126 -2.1496  0.9963
 3109SOL    HW312203   3.866   4.524   0.720 -2.0601  0.7162 -1.7749
 3109SOL    MW412204   3.876   4.609   0.740 -0.1681 -0.7301  0.3622
 3110SOL     OW12205   3.528   2.851   1.375  0.3209  0.1042  0.2310
 3110SOL    HW212206   3.520   2.774   1.431  0.0603 -0.1317 -0.1225
 3110SOL    HW312207   3.442   2.894   1.381  0.7204  0.8316  1.0777
 3110SOL    MW412208   3.515   2.847   1.383 -0.0549 -0.1896  0.4529
 3111SOL     OW12209   0.196   3.015   2.099  0.6994 -0.3743 -0.0207
 3111SOL    HW212210   0.188   3.108   2.116 -0.2600 -0.4318 -0.0835
 3111SOL    HW312211   0.106   2.985   2.084  1.0804 -1.1181 -0.9824
 3111SOL    MW412212   0.183   3.023   2.099  0.1078 -0.1033 -0.5251
 3112SOL     OW12213   6.127   3.984   1.865  0.1339  0.6033  0.4441
 3112SOL    HW212214   6.198   4.030   1.820  0.4576 -0.6418 -0.3859
 3112SOL    HW312215   6.060   4.050   1.878  1.2290  1.6821  0.7761
 3112SOL    MW412216   6.127   3.998   1.861 -0.1372  0.0486  0.0734
 3113SOL     OW12217   5.342   2.268   6.404 -0.4599  0.0042  0.9053
 3113SOL    HW212218   5.393   2.224   6.336  0.3429 -1.1367  2.1795
 3113SOL    HW312219   5.251   2.246   6.385 -0.2716 -0.0569  0.0533
 3113SOL    MW412220   5.337   2.260   6.392 -0.0724 -0.4106 -0.0986
 3114SOL     OW12221   1.483   1.393   1.077  0.4791  0.5633 -0.0637
 3114SOL    HW212222   1.491   1.400   0.982  0.0958 -0.1960 -0.1609
 3114SOL    HW312223   1.557   1.442   1.112 -0.7060  2.9657 -0.6897
 3114SOL    MW412224   1.493   1.400   1.069  0.3644  0.0414  0.4650
 3115SOL     OW12225   2.824   3.264   0.984  0.1094 -0.1581 -0.8317
 3115SOL    HW212226   2.744   3.236   0.939 -1.0372 -1.0036  1.5676
 3115SOL    HW312227   2.868   3.183   1.008 -0.9019  0.0688  2.1673
 3115SOL    MW412228   2.819   3.250   0.981 -0.0107 -0.1273  0.6595
 3116SOL     OW12229   6.409   3.735   1.337 -0.2139  0.0349  0.0721
 3116SOL    HW212230   6.458   3.673   1.283  0.4551 -1.3029  2.1245
 3116SOL    HW312231   6.317   3.710   1.324 -0.0243 -0.6065 -0.0467
 3116SOL    MW412232   6.403   3.724   1.328  0.1419  0.1933  0.0179
 3117SOL     OW12233   4.781   0.357   2.198  0.2972 -0.0093 -0.6139
 3117SOL    HW212234   4.719   0.344   2.270  2.0658 -1.8347  0.6954
 3117SOL    HW312235   4.726   0.379   2.123 -1.7762  0.1551  0.8653
 3117SOL    MW412236   4.765   0.358   2.198  0.3687 -0.6311  0.2361
 3118SOL     OW12237   6.037   1.752   2.072  0.0358 -0.2776  0.2594
 3118SOL    HW212238   6.018   1.776   1.981  0.3547 -0.0309  0.2538
 3118SOL    HW312239   5.986   1.673   2.088  1.8130 -1.7372 -0.9022
 3118SOL    MW412240   6.028   1.745   2.062  0.3154  0.4994 -0.2041
 3119SOL     OW12241   0.554   5.740   1.725 -0.1305 -0.1018 -0.1698
 3119SOL    HW212242   0.500   5.793   1.668 -0.2403 -0.5410 -0.4745
 3119SOL    HW312243   0.533   5.649   1.702  1.0086 -0.2848 -0.5722
 3119SOL    MW412244   0.544   5.735   1.715  0.3977  0.3099  0.0401
 3120SOL     OW12245   3.871   5.045   1.018  0.6961 -0.2653  0.7883
 3120SOL    HW212246   3.898   5.015   0.931  0.3041  0.3061  0.4636
 3120SOL    HW312247   3.889   5.139   1.018 -0.3755 -0.0462  0.8955
 3120SOL    MW412248   3.877   5.053   1.007 -0.8086  0.0982 -0.1565
 3121SOL     OW12249   4.550   5.502   0.175  0.6317 -0.1725  0.0090
 3121SOL    HW212250   4.635   5.503   0.131  0.2919  2.0213 -0.7079
 3121SOL    HW312251   4.496   5.446   0.120  1.7953 -2.3525  0.9684
 3121SOL    MW412252   4.554   5.495   0.162  0.1571  0.0077  0.4678
 3122SOL     OW12253   3.388   5.420   0.392 -0.0505  0.1733  0.4240
 3122SOL    HW212254   3.339   5.473   0.456 -0.4564  0.4890 -0.1364
 3122SOL    HW312255   3.352   5.447   0.307  0.8594  0.1524  0.0256
 3122SOL    MW412256   3.377   5.431   0.390  0.1495  0.0825 -0.3273
 3123SOL     OW12257   0.890   3.140   1.770  0.4035  0.1365 -0.2082
 3123SOL    HW212258   0.814   3.197   1.782 -0.3465 -0.9183  0.2987
 3123SOL    HW312259   0.952   3.167   1.838  0.5897  1.1448 -0.7596
 3123SOL    MW412260   0.888   3.151   1.780  0.3428 -0.3537 -0.4806
 3124SOL     OW12261   1.502   0.830   1.127  0.9400  0.0780 -0.1774
 3124SOL    HW212262   1.497   0.854   1.220 -1.8984  3.1420 -0.9148
 3124SOL    HW312263   1.567   0.891   1.091 -1.7330  2.7202 -0.9481
 3124SOL    MW412264   1.510   0.841   1.135 -0.5105 -0.2922  0.2564
 3125SOL     OW12265   3.825   5.128   1.317  0.3035 -0.4474 -0.4058
 3125SOL    HW212266   3.733   5.134   1.294  0.0650  1.4091  0.8074
 3125SOL    HW312267   3.869   5.187   1.256  0.7455 -1.4669 -1.1031
 3125SOL    MW412268   3.819   5.137   1.306  0.2562  0.0796  0.1735
 3126SOL     OW12269   0.147   2.687   4.953 -0.3515 -0.0818  0.4716
 3126SOL    HW212270   0.109   2.775   4.959  0.0221  0.1624 -0.6001
 3126SOL    HW312271   0.240   2.699   4.973 -0.1280 -0.0833 -0.5243
 3126SOL    MW412272   0.154   2.700   4.957  0.0319 -0.0866  0.2056
 3127SOL     OW12273   4.349   2.751   1.243 -0.3374  0.0616  0.6505
 3127SOL    HW212274   4.422   2.725   1.187  0.0911 -1.8074  1.9858
 3127SOL    HW312275   4.273   2.708   1.204 -0.1756 -0.5838  1.0389
 3127SOL    MW412276   4.348   2.742   1.230  0.6508 -0.3149 -0.2022
 3128SOL     OW12277   5.058   5.275   3.784 -0.1854  0.2646 -0.3758
 3128SOL    HW212278   4.998   5.326   3.731  0.2599  1.8033  0.5276
 3128SOL    HW312279   5.039   5.301   3.874  1.5338  0.5032 -0.0341
 3128SOL    MW412280   5.048   5.285   3.789 -0.3938 -0.4107 -0.1902
 3129SOL     OW12281   3.651   5.609   4.512 -0.0214  0.3748  0.0546
 3129SOL    HW212282   3.744   5.593   4.499  0.1572  1.0929  0.3906
 3129SOL    HW312283   3.639   5.701   4.489 -0.3455  0.7246  1.5185
 3129SOL    MW412284   3.662   5.619   4.507  0.7057 -0.4236  0.4462
 3130SOL     OW12285   0.200   4.411   2.146 -0.0882 -0.5067 -0.5448
 3130SOL    HW212286   0.232   4.324   2.122  1.4918  0.2858 -1.4621
 3130SOL    HW312287   0.185   4.455   2.063  0.5484  0.5844 -0.0910
 3130SOL    MW412288   0.202   4.405   2.132 -0.7248 -0.7451 -0.7656
 3131SOL     OW12289   1.711   3.763   4.454  0.5348 -0.1264 -0.3928
 3131SOL    HW212290   1.773   3.750   4.382  0.0192 -0.3233 -0.8034
 3131SOL    HW312291   1.670   3.847   4.436 -0.0894 -0.4945 -0.7058
 3131SOL    MW412292   1.714   3.772   4.442 -0.0746  0.3010  0.5037
 3132SOL     OW12293   1.162   1.898   2.609  0.1893  0.0613  0.0295
 3132SOL    HW212294   1.233   1.835   2.602  0.2556  0.3058 -2.9891
 3132SOL    HW312295   1.191   1.972   2.555 -0.9554  1.6077  1.4507
 3132SOL    MW412296   1.175   1.900   2.601  0.8815  0.3894  0.0271
 3133SOL     OW12297   4.685   1.409   0.681  0.0022  0.0375  0.1013
 3133SOL    HW212298   4.602   1.438   0.644  0.0517  0.5076  0.3425
 3133SOL    HW312299   4.669   1.403   0.775  0.3422  0.5110  0.1949
 3133SOL    MW412300   4.672   1.412   0.689 -0.5340  0.1662  0.0643
 3134SOL     OW12301   0.282   2.621   5.444  0.2369 -0.2683  0.2652
 3134SOL    HW212302   0.331   2.639   5.524  2.0096  1.4214 -1.0880
 3134SOL    HW312303   0.241   2.705   5.422 -0.6626 -0.8423 -0.3283
 3134SOL    MW412304   0.283   2.635   5.451  0.6410  0.0340 -0.0963
 3135SOL     OW12305   2.050   3.370   0.435 -0.2830 -0.2048 -0.4704
 3135SOL    HW212306   2.090   3.284   0.418  0.1233  0.0118 -0.6294
 3135SOL    HW312307   2.007   3.359   0.520  0.7958 -0.2243  0.0926
 3135SOL    MW412308   2.050   3.357   0.444  0.7414  0.0485 -0.9321
 3136SOL     OW12309   0.061   2.732   3.575 -0.0220  0.3108 -0.4592
 3136SOL    HW212310   0.025   2.820   3.578 -3.0467 -0.7888 -0.8371
 3136SOL    HW312311   0.044   2.696   3.662  2.1204  0.3574  0.0350
 3136SOL    MW412312   0.054   2.739   3.586 -0.3432  0.4385  0.2413
 3137SOL     OW12313   3.086   2.486   0.014  0.1387 -0.2047 -0.1174
 3137SOL    HW212314   3.009   2.528   0.053 -0.8667 -0.0181 -2.1693
 3137SOL    HW312315   3.160   2.521   0.063 -1.0225  0.2016  1.4084
 3137SOL    MW412316   3.086   2.496   0.025 -0.0065 -0.0632 -0.3016
 3138SOL     OW12317   0.738   6.342   0.391 -0.1965 -0.1015 -0.3269
 3138SOL    HW212318   0.759   6.316   0.481 -1.1644  0.5509  0.1148
 3138SOL    HW312319   0.799   6.293   0.336  0.3202 -0.6123  0.6802
 3138SOL    MW412320   0.749   6.332   0.396 -0.0823  0.1344 -0.3598
 3139SOL     OW12321   5.176   3.062   2.228 -0.0462 -0.2985  0.1817
 3139SOL    HW212322   5.193   2.991   2.289 -1.8974 -0.1971  0.8935
 3139SOL    HW312323   5.080   3.068   2.225  0.0131  0.4499 -1.8659
 3139SOL    MW412324   5.166   3.054   2.236 -0.8342 -0.2127  0.2131
 3140SOL     OW12325   5.076   2.960   0.903 -0.2587 -0.0681  0.4042
 3140SOL    HW212326   5.015   3.033   0.907  0.2977  0.4324 -0.1033
 3140SOL    HW312327   5.133   2.971   0.979 -0.4943 -0.2653  0.6110
 3140SOL    MW412328   5.075   2.971   0.913  0.1720  0.4318  0.1024
 3141SOL     OW12329   6.020   2.678   5.183  0.2708  0.8865 -0.1937
 3141SOL    HW212330   6.104   2.634   5.168  0.7691  2.0218 -0.8130
 3141SOL    HW312331   5.994   2.651   5.271  2.4639  2.3844  0.9790
 3141SOL    MW412332   6.027   2.668   5.192  0.4836 -0.1207 -0.5198
 3142SOL     OW12333   6.077   2.859   5.625  0.4896  0.5874 -0.2379
 3142SOL    HW212334   6.109   2.788   5.682 -1.0826 -0.9564 -1.1900
 3142SOL    HW312335   6.084   2.938   5.679  0.7308 -0.5344  1.4595
 3142SOL    MW412336   6.082   2.860   5.640  0.1230  0.1460  0.1644
 3143SOL     OW12337   1.312   5.925   4.633  0.6458  0.0675  0.6177
 3143SOL    HW212338   1.334   5.899   4.543 -0.2646  0.6021  0.2349
 3143SOL    HW312339   1.234   5.874   4.655  1.9745 -1.5632  1.8571
 3143SOL    MW412340   1.305   5.915   4.624  0.3735 -0.2906 -0.1776
 3144SOL     OW12341   1.954   5.186   0.631 -0.2609 -0.3412  0.6208
 3144SOL    HW212342   2.005   5.110   0.659 -1.1137 -1.2321 -0.1526
 3144SOL    HW312343   1.869   5.150   0.606 -1.0630  1.0171  1.2547
 3144SOL    MW412344   1.950   5.171   0.631 -0.7607 -0.2588  0.1682
 3145SOL     OW12345   5.181   1.189   1.344  0.5764 -0.1323  0.1488
 3145SOL    HW212346   5.102   1.161   1.390 -0.2063 -0.7961 -1.5151
 3145SOL    HW312347   5.231   1.238   1.409 -0.5429 -0.8962  1.6330
 3145SOL    MW412348   5.177   1.192   1.359 -0.1367  0.0942 -0.3605
 3146SOL     OW12349   4.624   3.605   2.936  0.2281 -0.2475  0.1734
 3146SOL    HW212350   4.657   3.533   2.881  0.5454  0.3122 -0.3757
 3146SOL    HW312351   4.557   3.648   2.882 -0.9222 -0.9359  1.0107
 3146SOL    MW412352   4.619   3.601   2.921 -0.4475 -0.1533  0.4067
 3147SOL     OW12353   6.161   5.093   4.797  0.0030  0.2243  0.5658
 3147SOL    HW212354   6.177   5.156   4.867 -3.0504  1.4013  0.3719
 3147SOL    HW312355   6.131   5.147   4.723  0.9464 -1.1749 -0.9078
 3147SOL    MW412356   6.159   5.108   4.796  0.7581  0.7602  0.6677
 3148SOL     OW12357   2.211   1.634   3.872  0.3650 -0.7497  0.4838
 3148SOL    HW212358   2.297   1.613   3.836  0.3308 -0.0612 -0.0292
 3148SOL    HW312359   2.158   1.657   3.795  0.3407  0.9283  0.9644
 3148SOL    MW412360   2.215   1.634   3.857 -0.4799  0.3247  0.4458
 3149SOL     OW12361   4.408   5.498   5.413  0.0932  0.3244  0.2131
 3149SOL    HW212362   4.348   5.447   5.467  1.9238 -1.3246  0.8549
 3149SOL    HW312363   4.364   5.505   5.328 -0.9138 -1.0392  0.5793
 3149SOL    MW412364   4.394   5.492   5.409  0.0220  0.2779  0.5340
 3150SOL     OW12365   4.339   4.689   1.396  0.2305 -0.4460  0.0523
 3150SOL    HW212366   4.427   4.658   1.378 -0.6358 -3.1869 -0.0217
 3150SOL    HW312367   4.347   4.784   1.405  2.7870 -0.3299 -2.2131
 3150SOL    MW412368   4.351   4.697   1.395 -0.0478  0.5213  0.1286
 3151SOL     OW12369   1.481   5.129   0.500  0.5334 -0.4930  0.0842
 3151SOL    HW212370   1.449   5.138   0.411  1.1126 -2.2700 -0.3508
 3151SOL    HW312371   1.404   5.146   0.555  0.3566  1.3829 -0.6975
 3151SOL    MW412372   1.466   5.132   0.496 -0.0827  0.3100  0.6379
 3152SOL     OW12373   3.627   0.099   5.628  0.1354 -0.1467  0.3652
 3152SOL    HW212374   3.607   0.188   5.598  1.9318  0.1320 -0.0947
 3152SOL    HW312375   3.587   0.095   5.716 -0.6984  0.8032  0.0625
 3152SOL    MW412376   3.619   0.110   5.636  0.0731 -0.7553  0.7240
 3153SOL     OW12377   1.532   3.287   6.352 -0.5663 -0.1966 -0.1424
 3153SOL    HW212378   1.571   3.212   6.308  0.5911  0.3099 -0.0139
 3153SOL    HW312379   1.607   3.338   6.384 -1.2672  1.6915 -1.3350
 3153SOL    MW412380   1.547   3.284   6.350 -0.3054  0.2350 -0.5965
 3154SOL     OW12381   5.159   3.148   3.940 -0.2391 -0.1528  0.1510
 3154SOL    HW212382   5.235   3.090   3.933 -0.6563 -0.7646  0.6717
 3154SOL    HW312383   5.107   3.129   3.861  0.4040  0.6541 -0.4837
 3154SOL    MW412384   5.162   3.138   3.928 -0.0797  0.1184  0.3970
 3155SOL     OW12385   0.387   4.801   6.388 -0.0068  0.5303  0.1948
 3155SOL    HW212386   0.304   4.772   6.426  0.3235  0.2347  0.7048
 3155SOL    HW312387   0.434   4.719   6.370  0.6699  0.7166  1.0501
 3155SOL    MW412388   0.382   4.786   6.391  0.3100 -0.2912 -0.0532
 3156SOL     OW12389   2.454   2.897   3.586  0.1806 -0.5115 -0.2090
 3156SOL    HW212390   2.517   2.825   3.580 -0.7723 -1.5375  1.3835
 3156SOL    HW312391   2.492   2.957   3.649 -0.0082 -0.6890  0.0767
 3156SOL    MW412392   2.467   2.895   3.593  0.0044 -0.4408 -0.3382
 3157SOL     OW12393   1.778   6.371   2.634  0.4888 -0.3556 -0.2497
 3157SOL    HW212394   1.838   6.345   2.704 -1.0218  0.4561  1.4284
 3157SOL    HW312395   1.783   6.299   2.570  1.4933 -1.3996  0.9437
 3157SOL    MW412396   1.787   6.358   2.634 -0.2989  0.0749  0.4538
 3158SOL     OW12397   3.502   0.214   1.977  0.0269  0.3511  0.3604
 3158SOL    HW212398   3.427   0.270   1.953 -0.7827 -0.4978  0.8641
 3158SOL    HW312399   3.550   0.204   1.895 -0.9786  0.0748 -0.2213
 3158SOL    MW412400   3.498   0.220   1.963  0.0507 -0.1427  0.2389
 3159SOL     OW12401   6.184   0.326   5.522 -0.3479 -0.0254 -0.1904
 3159SOL    HW212402   6.112   0.316   5.460  0.0863  0.6568 -0.8221
 3159SOL    HW312403   6.141   0.340   5.607 -0.9634  0.3376 -0.5554
 3159SOL    MW412404   6.169   0.327   5.525 -0.0099 -0.7076 -0.0640
 3160SOL     OW12405   2.661   5.213   3.793  0.4558 -0.3942  0.5380
 3160SOL    HW212406   2.724   5.280   3.767 -1.0761  0.3301 -1.6027
 3160SOL    HW312407   2.687   5.135   3.745  1.1694 -0.8578  1.6326
 3160SOL    MW412408   2.673   5.212   3.783  0.0433  0.4082  1.0969
 3161SOL     OW12409   6.164   5.597   0.854 -0.2524 -0.6344 -0.6590
 3161SOL    HW212410   6.210   5.640   0.782 -0.0752  2.0724  0.9455
 3161SOL    HW312411   6.223   5.527   0.882  1.2688  0.4601 -0.9989
 3161SOL    MW412412   6.178   5.593   0.849 -0.1173  0.0429  0.5663
 3162SOL     OW12413   4.859   5.662   1.608 -0.4626  0.1276  0.3865
 3162SOL    HW212414   4.770   5.632   1.589 -0.0299 -1.1116  0.2079
 3162SOL    HW312415   4.865   5.662   1.703 -1.0377  1.4498  0.4452
 3162SOL    MW412416   4.848   5.658   1.618 -0.1487 -0.3998  0.0426
 3163SOL     OW12417   3.512   4.680   2.281 -0.4496 -0.1070  0.0988
 3163SOL    HW212418   3.578   4.729   2.233  1.3389 -1.6495  0.8458
 3163SOL    HW312419   3.488   4.738   2.354  2.7087 -0.7070  1.8393
 3163SOL    MW412420   3.518   4.694   2.285 -0.5109  0.4781  0.4681
 3164SOL     OW12421   3.409   5.120   6.414  0.1913 -0.0092  0.1318
 3164SOL    HW212422   3.483   5.150   6.466 -0.2362 -0.7910  1.2093
 3164SOL    HW312423   3.334   5.125   6.473 -0.4018 -0.4257 -0.5670
 3164SOL    MW412424   3.409   5.125   6.428  0.4272  0.9227 -0.3593
 3165SOL     OW12425   0.557   5.389   1.944  0.0307  0.1039 -0.3419
 3165SOL    HW212426   0.594   5.304   1.968  1.0480  0.4568 -0.5981
 3165SOL    HW312427   0.595   5.450   2.007 -0.1495  0.4675 -0.5834
 3165SOL    MW412428   0.567   5.386   1.955  0.3655 -0.0189 -0.1811
 3166SOL     OW12429   0.723   4.202   2.579 -0.1128 -0.3550 -0.1916
 3166SOL    HW212430   0.765   4.134   2.527  1.9770  2.2451 -2.2514
 3166SOL    HW312431   0.679   4.258   2.514 -0.7081  0.9118  1.2340
 3166SOL    MW412432   0.722   4.201   2.563  0.3261 -0.0518 -0.0654
 3167SOL     OW12433   0.083   2.685   2.060 -0.1095 -0.1344 -0.0209
 3167SOL    HW212434   0.086   2.722   1.971 -1.6133 -0.9082 -0.4370
 3167SOL    HW312435   0.165   2.636   2.069 -0.1092 -0.3672 -1.1391
 3167SOL    MW412436   0.094   2.684   2.049 -0.4443 -0.4002 -0.8043
 3168SOL     OW12437   3.713   4.514   1.549 -0.3487 -0.7850 -0.0844
 3168SOL    HW212438   3.774   4.576   1.509 -1.3630 -0.1136 -0.6403
 3168SOL    HW312439   3.739   4.512   1.641  0.2542 -0.1987 -0.2283
 3168SOL    MW412440   3.725   4.522   1.556 -0.6428  0.3672 -0.1417
 3169SOL     OW12441   4.939   5.569   5.895 -0.6877  0.2787 -0.2494
 3169SOL    HW212442   5.011   5.547   5.954 -0.1765  1.4956 -0.3964
 3169SOL    HW312443   4.876   5.617   5.950 -1.7391 -1.3602  0.0434
 3169SOL    MW412444   4.940   5.572   5.910  0.0667 -0.2627  0.3191
 3170SOL     OW12445   5.609   3.444   4.382  0.0108  0.1492 -0.2212
 3170SOL    HW212446   5.657   3.474   4.305 -1.1686  1.2662 -0.5627
 3170SOL    HW312447   5.539   3.508   4.393 -1.7080 -1.6575 -0.0309
 3170SOL    MW412448   5.606   3.456   4.373 -0.2485 -0.2194 -0.2485
 3171SOL     OW12449   1.622   4.412   3.628 -0.1895 -0.7797 -0.6769
 3171SOL    HW212450   1.573   4.331   3.612  0.7927 -1.2457 -1.4451
 3171SOL    HW312451   1.596   4.470   3.557 -1.9185  0.1019  0.6240
 3171SOL    MW412452   1.612   4.409   3.616  0.2701 -0.1599 -0.2650
 3172SOL     OW12453   1.664   2.351   6.392 -0.3523  0.1930  0.0431
 3172SOL    HW212454   1.629   2.435   6.422 -2.0713 -0.6288  0.4621
 3172SOL    HW312455   1.588   2.303   6.360  0.7224 -0.8924 -1.0119
 3172SOL    MW412456   1.650   2.355   6.392 -0.3459  0.3755 -0.2051
 3173SOL     OW12457   5.164   0.700   3.267 -0.3422  0.1211 -0.1446
 3173SOL    HW212458   5.238   0.730   3.215 -0.2759 -0.8143 -0.6159
 3173SOL    HW312459   5.193   0.707   3.358  1.2219 -2.3462 -0.3653
 3173SOL    MW412460   5.177   0.705   3.273 -0.1523 -0.0749 -0.2223
 3174SOL     OW12461   1.604   0.152   6.327  0.3447 -0.3780 -0.7330
 3174SOL    HW212462   1.630   0.084   6.389 -1.4322 -0.6218 -0.2032
 3174SOL    HW312463   1.569   0.105   6.252 -1.6986 -0.0917 -0.0056
 3174SOL    MW412464   1.603   0.137   6.325  0.2035  0.1136 -0.5544
 3175SOL     OW12465   1.485   5.639   5.287  0.1840  0.2707  0.4250
 3175SOL    HW212466   1.549   5.653   5.356  2.1559 -1.3515 -0.9645
 3175SOL    HW312467   1.489   5.718   5.233 -0.1091  0.8066  1.1815
 3175SOL    MW412468   1.494   5.651   5.289 -0.1686  0.3138  0.6106
 3176SOL     OW12469   0.290   5.860   0.481 -0.2208 -0.4818 -0.1557
 3176SOL    HW212470   0.199   5.886   0.494  0.5179  0.9759  3.0435
 3176SOL    HW312471   0.313   5.814   0.562  1.1218 -3.5007 -2.0825
 3176SOL    MW412472   0.281   5.857   0.493  0.6495  0.0057 -0.5124
 3177SOL     OW12473   1.696   6.016   0.768  0.1422  0.0386 -0.0300
 3177SOL    HW212474   1.635   6.044   0.699  0.5553  4.3973  1.0370
 3177SOL    HW312475   1.640   5.979   0.836 -0.7110 -0.6298 -1.0565
 3177SOL    MW412476   1.680   6.015   0.768 -0.3020 -0.3495 -0.1674
 3178SOL     OW12477   4.819   0.847   4.565  0.3613 -0.4554  0.1782
 3178SOL    HW212478   4.805   0.758   4.597 -0.5029  0.1310  1.5687
 3178SOL    HW312479   4.743   0.865   4.510 -0.5115  0.0650  1.4927
 3178SOL    MW412480   4.807   0.838   4.562  0.4349 -0.1379 -0.1709
 3179SOL     OW12481   5.299   0.223   6.029 -0.4226  0.2329  0.0033
 3179SOL    HW212482   5.246   0.284   5.977  0.3727  1.0325  0.0925
 3179SOL    HW312483   5.298   0.142   5.979  0.5070  1.0448 -1.4083
 3179SOL    MW412484   5.292   0.220   6.015 -0.0197 -0.4072  0.6673
 3180SOL     OW12485   5.870   5.901   4.624 -0.3190  0.2151  0.3224
 3180SOL    HW212486   5.939   5.835   4.630 -0.0613  0.4272 -0.2317
 3180SOL    HW312487   5.906   5.968   4.566 -1.1479  0.1189 -0.3318
 3180SOL    MW412488   5.884   5.901   4.617 -0.7578 -0.0166  0.2941
 3181SOL     OW12489   4.103   2.236   0.906 -0.1315 -0.3974  0.0747
 3181SOL    HW212490   4.118   2.142   0.898 -1.7139 -0.7797  1.1641
 3181SOL    HW312491   4.064   2.247   0.993 -2.8135  0.8673 -1.1650
 3181SOL    MW412492   4.100   2.225   0.916 -0.0905 -0.3695  0.5620
 3182SOL     OW12493   1.779   3.122   3.400  0.5002 -0.4135 -0.5186
 3182SOL    HW212494   1.713   3.158   3.342 -1.4279 -1.3399  0.9781
 3182SOL    HW312495   1.820   3.052   3.349 -0.0932 -0.2204 -1.2710
 3182SOL    MW412496   1.776   3.117   3.385 -1.0740  0.1191  0.0281
 3183SOL     OW12497   4.003   2.965   1.586 -0.6430 -0.3503  0.0059
 3183SOL    HW212498   4.032   2.887   1.539  2.9011  0.2955  0.8067
 3183SOL    HW312499   3.942   2.931   1.653  0.0691 -2.3014 -0.2553
 3183SOL    MW412500   3.999   2.950   1.589 -0.1549  0.1854  0.7622
 3184SOL     OW12501   0.337   4.171   2.126  0.0663 -0.1281  0.4540
 3184SOL    HW212502   0.364   4.166   2.217  0.3266 -0.9107  0.3428
 3184SOL    HW312503   0.323   4.080   2.100  1.4189 -0.0427 -0.7126
 3184SOL    MW412504   0.338   4.158   2.134  0.2128  0.5108  0.4375
 3185SOL     OW12505   2.036   1.940   2.183 -0.2792  0.2369  0.6120
 3185SOL    HW212506   2.005   2.023   2.220  0.9604  0.6906  0.7067
 3185SOL    HW312507   2.063   1.888   2.258 -0.2127  0.1084  0.5005
 3185SOL    MW412508   2.036   1.944   2.198  0.1685  0.1421 -0.3022
 3186SOL     OW12509   3.417   3.429   3.412 -0.2631  1.2281 -0.2244
 3186SOL    HW212510   3.352   3.421   3.481 -1.5529  0.3554 -1.4937
 3186SOL    HW312511   3.389   3.505   3.361  0.7008  1.8888  0.1906
 3186SOL    MW412512   3.405   3.438   3.414 -0.0626  0.8954 -0.1788
 3187SOL     OW12513   4.291   0.859   0.964  0.6515  0.7496  0.2699
 3187SOL    HW212514   4.219   0.922   0.950 -0.1161 -0.2023 -0.1872
 3187SOL    HW312515   4.299   0.854   1.060 -0.6212  0.1049  0.3771
 3187SOL    MW412516   4.282   0.867   0.975 -0.3367  0.2207  0.4781
 3188SOL     OW12517   3.420   4.181   4.915 -0.3379 -0.4562 -0.3581
 3188SOL    HW212518   3.353   4.143   4.858  0.6649  0.4067 -2.1944
 3188SOL    HW312519   3.373   4.207   4.994 -1.5326 -2.9410 -0.1691
 3188SOL    MW412520   3.405   4.179   4.918 -0.3520  0.5619 -0.2171
 3189SOL     OW12521   5.438   2.865   4.375 -0.9109 -0.2335 -0.3429
 3189SOL    HW212522   5.506   2.809   4.338 -1.1676 -1.0517  0.3887
 3189SOL    HW312523   5.439   2.845   4.469 -0.0383  2.0345  0.2084
 3189SOL    MW412524   5.447   2.855   4.382  0.5400 -0.3378  0.3664
 3190SOL     OW12525   3.560   0.039   4.843  0.1444  0.2858  0.1218
 3190SOL    HW212526   3.553  -0.027   4.913 -1.2585  0.1819 -0.0894
 3190SOL    HW312527   3.557  -0.012   4.762  1.2407  0.4492 -0.0294
 3190SOL    MW412528   3.558   0.023   4.842  0.1746  0.3149  0.0587
 3191SOL     OW12529   3.346   0.923   2.167  0.3608 -0.2794 -0.0640
 3191SOL    HW212530   3.309   0.956   2.248 -1.0679 -0.0086 -0.7958
 3191SOL    HW312531   3.271   0.912   2.109  1.2829 -1.0185 -1.1578
 3191SOL    MW412532   3.331   0.926   2.170  0.4912 -0.8374  0.8199
 3192SOL     OW12533   1.923   4.133   2.287 -0.7194 -0.4376  0.1916
 3192SOL    HW212534   1.981   4.083   2.345 -2.3253 -1.3131  1.1120
 3192SOL    HW312535   1.956   4.222   2.291  0.4844 -0.8860  0.7794
 3192SOL    MW412536   1.935   4.138   2.295 -0.8988 -0.2565  0.6157
 3193SOL     OW12537   5.565   6.158   1.422  0.8861 -0.0052  0.8866
 3193SOL    HW212538   5.638   6.214   1.450 -0.0065  1.9305 -0.4078
 3193SOL    HW312539   5.596   6.117   1.342  1.3287 -0.9656  1.5287
 3193SOL    MW412540   5.579   6.160   1.415 -0.1691 -0.5291  1.1060
 3194SOL     OW12541   3.922   6.000   4.884 -0.0184  0.5659 -0.3497
 3194SOL    HW212542   4.013   6.020   4.904  0.1129  0.0890 -0.4490
 3194SOL    HW312543   3.926   5.922   4.828 -0.5439 -0.3308  0.8029
 3194SOL    MW412544   3.934   5.992   4.879 -0.2028  0.4601  0.3852
 3195SOL     OW12545   0.802   4.282   5.644  0.0636 -0.2547  0.0537
 3195SOL    HW212546   0.846   4.354   5.690  1.7293 -0.7090 -0.7368
 3195SOL    HW312547   0.709   4.302   5.652  0.4590  2.1154 -0.3005
 3195SOL    MW412548   0.795   4.294   5.651  0.1766  0.4984 -0.3335
 3196SOL     OW12549   4.545   0.194   4.423 -0.2749 -0.0677  0.0108
 3196SOL    HW212550   4.492   0.200   4.503  0.8417 -0.3773  0.7997
 3196SOL    HW312551   4.548   0.101   4.403 -1.5363  0.0961 -1.1093
 3196SOL    MW412552   4.539   0.183   4.431 -0.1093  0.4282  0.0056
 3197SOL     OW12553   5.583   1.202   5.007 -0.4219 -0.1325  0.1177
 3197SOL    HW212554   5.527   1.275   4.981  0.3739  0.4902  0.1260
 3197SOL    HW312555   5.672   1.230   4.985 -0.0850 -1.0329  0.2693
 3197SOL    MW412556   5.587   1.215   5.001  0.0507  0.2764 -0.0352
 3198SOL     OW12557   0.345   4.043   3.938 -0.6656 -0.0376  0.3477
 3198SOL    HW212558   0.382   4.098   3.868 -2.6601  3.0729  1.5197
 3198SOL    HW312559   0.419   4.028   3.997  0.4885 -0.7297 -1.1824
 3198SOL    MW412560   0.360   4.049   3.936  0.5276 -0.5447  0.9137
 3199SOL     OW12561   0.172   3.855   2.852 -0.3669  0.4658 -0.0667
 3199SOL    HW212562   0.155   3.939   2.810  1.4152  0.5433 -0.7271
 3199SOL    HW312563   0.251   3.869   2.905 -0.5318 -0.5672  0.4948
 3199SOL    MW412564   0.180   3.868   2.853 -0.6030 -0.4778  0.1025
 3200SOL     OW12565   2.820   0.169   0.000 -0.3740  0.1457  0.1296
 3200SOL    HW212566   2.781   0.126   0.077 -1.4609  0.6955 -0.0941
 3200SOL    HW312567   2.763   0.244  -0.016  0.3981  0.5720 -0.6505
 3200SOL    MW412568   2.807   0.173   0.008  0.0941 -0.4048 -0.3742
 3201SOL     OW12569   0.764   0.865   3.194 -0.2120  0.2378  0.3357
 3201SOL    HW212570   0.690   0.850   3.252  0.0314  0.2764  0.6596
 3201SOL    HW312571   0.831   0.803   3.223  0.0700  0.5605  0.3863
 3201SOL    MW412572   0.763   0.855   3.206 -0.3306 -0.4516 -0.0692
 3202SOL     OW12573   6.227   4.923   2.295 -0.0338  0.7651 -0.1774
 3202SOL    HW212574   6.266   4.853   2.347  0.2070  1.0604  0.0473
 3202SOL    HW312575   6.185   4.878   2.221  0.7737  0.4319 -0.4518
 3202SOL    MW412576   6.227   4.908   2.292 -0.2766  0.0890 -0.2891
 3203SOL     OW12577   1.371   1.146   1.322  0.0663 -0.0505  0.2410
 3203SOL    HW212578   1.356   1.240   1.313 -0.7536 -0.2643 -0.8718
 3203SOL    HW312579   1.316   1.106   1.254  0.8600 -1.2989  0.2917
 3203SOL    MW412580   1.361   1.153   1.312  0.2469  0.1883  0.7117
 3204SOL     OW12581   1.879   1.890   3.801  0.2698 -0.8593  0.2637
 3204SOL    HW212582   1.879   1.896   3.897 -0.5428 -1.1715  0.2937
 3204SOL    HW312583   1.817   1.819   3.782 -1.2161  0.5967 -0.5623
 3204SOL    MW412584   1.871   1.881   3.811  0.0475  0.8030 -0.1268
 3205SOL     OW12585   2.385   3.939   0.408  0.3281  0.5123  0.2018
 3205SOL    HW212586   2.341   3.857   0.433 -0.2638  0.4470 -0.9527
 3205SOL    HW312587   2.477   3.924   0.429  0.2883 -0.6007 -0.3277
 3205SOL    MW412588   2.391   3.926   0.414  0.5781 -0.0158  0.2073
 3206SOL     OW12589   3.266   3.826   2.066  0.4629  0.1589 -0.6107
 3206SOL    HW212590   3.329   3.756   2.047  0.6468  0.3219 -0.6003
 3206SOL    HW312591   3.198   3.783   2.118  0.1270 -0.2126 -1.3435
 3206SOL    MW412592   3.265   3.811   2.071 -0.2324 -0.7987  0.2523
 3207SOL     OW12593   1.837   5.890   2.845  0.0187 -0.0682 -0.0349
 3207SOL    HW212594   1.856   5.980   2.820  0.6271 -0.8590 -2.6580
 3207SOL    HW312595   1.922   5.852   2.866 -0.3940  0.3539  2.8302
 3207SOL    MW412596   1.850   5.897   2.845  0.1749  0.0118  0.2030
 3208SOL     OW12597   3.629   2.893   3.223 -0.1326 -0.6848 -0.0738
 3208SOL    HW212598   3.664   2.954   3.159  2.8309 -0.8675  1.1671
 3208SOL    HW312599   3.658   2.927   3.307 -2.9495 -1.0360  1.1569
 3208SOL    MW412600   3.638   2.905   3.226  0.0401 -0.1581 -0.0871
 3209SOL     OW12601   3.905   4.004   3.466  0.4167  0.0314 -0.2687
 3209SOL    HW212602   3.890   4.098   3.463 -1.4155 -0.2610 -1.0885
 3209SOL    HW312603   4.001   3.996   3.463  0.7025  1.8755  1.3315
 3209SOL    MW412604   3.916   4.015   3.465  0.6374  0.2826 -0.0658
 3210SOL     OW12605   5.978   4.898   5.362 -0.0677 -0.3320  0.2739
 3210SOL    HW212606   6.067   4.911   5.393 -0.1292  0.0142  0.3051
 3210SOL    HW312607   5.979   4.929   5.271  0.3957 -2.3787 -0.4776
 3210SOL    MW412608   5.990   4.904   5.354 -0.5226 -0.4590 -0.3464
 3211SOL     OW12609   5.046   1.627   0.826 -0.1756 -0.3020 -0.0892
 3211SOL    HW212610   5.089   1.697   0.875 -0.2939 -0.2960  0.0058
 3211SOL    HW312611   5.106   1.609   0.753 -1.0144  1.1750 -1.1983
 3211SOL    MW412612   5.060   1.634   0.823  0.1236 -0.1540  0.2475
 3212SOL     OW12613   1.912   3.771   0.656 -0.4849  0.2265 -0.2409
 3212SOL    HW212614   1.903   3.719   0.576  1.0338 -1.1387  0.4380
 3212SOL    HW312615   1.951   3.712   0.720  2.3195  2.4140  0.2830
 3212SOL    MW412616   1.916   3.756   0.654 -0.7624 -0.3485  0.0999
 3213SOL     OW12617   2.779   4.844   5.537  0.0765  0.0326 -0.3123
 3213SOL    HW212618   2.731   4.762   5.548 -0.5211  0.5586  1.1677
 3213SOL    HW312619   2.744   4.903   5.604 -0.0467  1.7652 -1.8082
 3213SOL    MW412620   2.768   4.841   5.547 -0.0599  0.1221  0.4988
 3214SOL     OW12621   1.259   0.623   4.500  0.8951  0.2473 -0.5173
 3214SOL    HW212622   1.255   0.529   4.517  0.6894  0.3126 -0.1860
 3214SOL    HW312623   1.263   0.630   4.405 -0.5339 -0.0672 -0.6318
 3214SOL    MW412624   1.259   0.612   4.490 -0.3596  0.5995 -0.2760
 3215SOL     OW12625   1.115   3.644   0.246 -0.2086  0.0046 -0.0940
 3215SOL    HW212626   1.192   3.592   0.224  0.9984  1.4518  0.5882
 3215SOL    HW312627   1.148   3.714   0.302 -1.5534  2.2658 -1.9936
 3215SOL    MW412628   1.129   3.646   0.251  0.3699 -0.0438  0.1009
 3216SOL     OW12629   4.087   1.082   2.590 -0.4970  0.0772 -0.5133
 3216SOL    HW212630   4.061   0.992   2.609 -0.3007 -0.1548 -1.3090
 3216SOL    HW312631   4.041   1.104   2.509  0.5417  0.1938 -1.0955
 3216SOL    MW412632   4.077   1.073   2.582 -0.4446  0.1545  0.5220
 3217SOL     OW12633   0.642   4.749   1.474  0.3961  0.1903  0.3428
 3217SOL    HW212634   0.706   4.715   1.412 -0.4528  0.4099 -0.6620
 3217SOL    HW312635   0.682   4.829   1.507  1.8378 -1.0417  1.7781
 3217SOL    MW412636   0.656   4.755   1.470 -0.2171  0.6003 -0.2125
 3218SOL     OW12637   5.842   5.845   1.280  0.4374  0.6015  0.1662
 3218SOL    HW212638   5.784   5.913   1.248 -0.6652 -0.3865 -0.0021
 3218SOL    HW312639   5.784   5.774   1.306  1.6020 -0.8062 -0.9072
 3218SOL    MW412640   5.827   5.845   1.279 -0.1886  0.4986  0.2087
 3219SOL     OW12641   1.256   0.670   5.647  0.1528  0.0432 -0.3513
 3219SOL    HW212642   1.225   0.752   5.607  0.4499  0.0599 -0.5535
 3219SOL    HW312643   1.303   0.626   5.576  0.7546  0.1075  0.0041
 3219SOL    MW412644   1.258   0.675   5.632 -0.0928 -0.1833  0.7653
 3220SOL     OW12645   6.053   4.300   6.148  0.2670 -0.6955 -0.1908
 3220SOL    HW212646   6.062   4.372   6.086 -0.0167 -0.6994 -0.2362
 3220SOL    HW312647   5.976   4.322   6.200  0.8418 -0.3942  0.5549
 3220SOL    MW412648   6.044   4.312   6.147  0.2473 -0.4508 -0.2809
 3221SOL     OW12649   4.943   5.139   3.447 -0.2005  0.0799 -0.1608
 3221SOL    HW212650   4.936   5.103   3.536  0.6150  1.0959  0.3460
 3221SOL    HW312651   4.860   5.186   3.434 -1.1576 -1.6738 -0.7271
 3221SOL    MW412652   4.931   5.141   3.457  0.1869 -0.4673  0.5336
 3222SOL     OW12653   5.547   2.278   2.228 -0.1769 -0.5275 -0.0627
 3222SOL    HW212654   5.605   2.202   2.231 -0.9018 -1.1172 -0.6913
 3222SOL    HW312655   5.604   2.352   2.249  0.6804 -1.1570 -0.1083
 3222SOL    MW412656   5.562   2.278   2.231 -0.0947 -0.3610 -0.3122
 3223SOL     OW12657   4.078   3.646   3.042  0.1247  0.3466  0.2730
 3223SOL    HW212658   4.008   3.582   3.057 -0.7039  1.0764 -0.3458
 3223SOL    HW312659   4.154   3.593   3.017 -0.5900 -0.3976 -0.3973
 3223SOL    MW412660   4.079   3.631   3.040  0.8104  0.3268 -0.1410
 3224SOL     OW12661   5.433   4.235   3.659  0.0870 -0.4031 -0.0411
 3224SOL    HW212662   5.427   4.263   3.567  2.6289  0.8629  0.0898
 3224SOL    HW312663   5.502   4.168   3.659 -0.9043 -1.4463  0.7634
 3224SOL    MW412664   5.441   4.230   3.647  0.3522 -0.2215  0.3369
 3225SOL     OW12665   3.222   5.283   2.477 -0.4261  0.4105 -0.2920
 3225SOL    HW212666   3.194   5.358   2.425  0.6088  0.0373 -1.4436
 3225SOL    HW312667   3.176   5.208   2.439 -0.1571  0.2233 -0.2564
 3225SOL    MW412668   3.212   5.283   2.465  0.1649  0.5896 -0.0833
 3226SOL     OW12669   3.741   0.076   4.570 -0.0928 -0.0314 -0.0632
 3226SOL    HW212670   3.674   0.140   4.594  0.7811  0.3656  1.4248
 3226SOL    HW312671   3.774   0.106   4.485 -0.7591  0.5988 -0.1117
 3226SOL    MW412672   3.736   0.088   4.562  0.2180 -0.1524 -0.0165
 3227SOL     OW12673   4.325   4.974   1.326  0.1768  0.1110  0.1468
 3227SOL    HW212674   4.271   4.978   1.247 -1.5284  0.1139  1.2640
 3227SOL    HW312675   4.415   4.979   1.294 -0.4386 -0.6766 -1.8446
 3227SOL    MW412676   4.330   4.975   1.311  0.5874  0.2125 -0.1787
 3228SOL     OW12677   5.515   0.306   2.857  0.1775  0.0497  0.1574
 3228SOL    HW212678   5.488   0.240   2.920  0.1981 -0.2865 -0.1833
 3228SOL    HW312679   5.483   0.389   2.894  0.7980 -0.0543  0.9550
 3228SOL    MW412680   5.507   0.309   2.870  0.4418  0.8141  0.4309
 3229SOL     OW12681   4.364   5.982   5.561  0.1425  0.2130  0.0749
 3229SOL    HW212682   4.353   5.993   5.656 -0.1849  0.3685  0.0179
 3229SOL    HW312683   4.424   5.908   5.553 -0.1023 -0.0249  0.3983
 3229SOL    MW412684   4.371   5.974   5.573  0.6619 -0.2030 -0.3298
 3230SOL     OW12685   4.540   0.556   4.152 -0.3194  0.0269  0.5184
 3230SOL    HW212686   4.622   0.556   4.200  0.3871 -0.7548 -0.6383
 3230SOL    HW312687   4.565   0.565   4.060 -1.4672 -0.8125  0.0856
 3230SOL    MW412688   4.554   0.557   4.146 -0.3074 -0.1815 -0.0501
 3231SOL     OW12689   6.228   5.957   0.891 -0.1375 -0.1045 -0.0546
 3231SOL    HW212690   6.203   6.041   0.929  1.3890 -0.7487  2.6524
 3231SOL    HW312691   6.147   5.905   0.892 -0.5822  0.5801  0.4255
 3231SOL    MW412692   6.214   5.961   0.896  0.6604  0.3493  1.0260
 3232SOL     OW12693   1.142   1.600   0.352 -0.2629  0.1077  0.3319
 3232SOL    HW212694   1.236   1.617   0.350 -0.2713  0.2659  1.1302
 3232SOL    HW312695   1.134   1.512   0.388 -0.3846 -0.2997 -0.6503
 3232SOL    MW412696   1.154   1.591   0.356 -0.0442  0.2367 -0.4408
 3233SOL     OW12697   0.000   0.995   2.371  0.0871  0.4985 -0.5367
 3233SOL    HW212698  -0.036   0.949   2.447  0.7926  2.2864  0.9447
 3233SOL    HW312699  -0.052   1.076   2.366  1.0119  1.0713 -1.0612
 3233SOL    MW412700  -0.012   0.999   2.380  0.1206 -0.2489  0.0940
 3234SOL     OW12701   5.603   3.194   0.774 -0.3420  0.0300  0.0553
 3234SOL    HW212702   5.540   3.133   0.813 -0.5557  0.6094  0.6445
 3234SOL    HW312703   5.592   3.183   0.680 -1.3391  0.1238  0.1478
 3234SOL    MW412704   5.593   3.185   0.767 -0.0876 -0.5752  0.0704
 3235SOL     OW12705   6.172   0.188   4.825 -0.6254  0.0476  0.1985
 3235SOL    HW212706   6.114   0.116   4.851 -1.6392  0.0903 -1.7762
 3235SOL    HW312707   6.236   0.147   4.766  0.3545  0.3337  1.0218
 3235SOL    MW412708   6.173   0.173   4.821 -0.0001 -1.0675 -0.8025
 3236SOL     OW12709   3.945   4.379   0.411 -0.0593  0.0118 -0.0597
 3236SOL    HW212710   3.881   4.444   0.382  0.2398  0.5966  0.5558
 3236SOL    HW312711   3.922   4.363   0.503  1.3410  1.0627  0.5094
 3236SOL    MW412712   3.934   4.386   0.419  0.4486  0.2334  0.3894
 3237SOL     OW12713   4.523   3.682   5.897 -0.1256 -0.6480  0.5780
 3237SOL    HW212714   4.500   3.700   5.989  1.7601  1.3523  0.7323
 3237SOL    HW312715   4.439   3.664   5.855 -1.0009 -2.1030  2.7598
 3237SOL    MW412716   4.509   3.682   5.904 -0.3274 -0.4152 -0.1483
 3238SOL     OW12717   4.641   1.852   5.620  0.7333 -0.2381  0.0119
 3238SOL    HW212718   4.559   1.889   5.654  0.6751  0.6119 -0.9843
 3238SOL    HW312719   4.648   1.889   5.532  2.1220 -0.4121  0.0324
 3238SOL    MW412720   4.631   1.862   5.613  0.0583  0.2899 -0.2898
 3239SOL     OW12721   4.148   2.381   2.250 -0.1595 -0.7815  0.0613
 3239SOL    HW212722   4.229   2.385   2.300 -0.1882  0.6831  0.0268
 3239SOL    HW312723   4.093   2.319   2.299 -0.2974  0.7913  2.0659
 3239SOL    MW412724   4.151   2.374   2.263 -0.5758 -0.1116 -0.3636
 3240SOL     OW12725   2.592   4.681   6.264 -0.3034  0.0151  0.1523
 3240SOL    HW212726   2.526   4.734   6.310 -1.7723 -0.8872 -0.8454
 3240SOL    HW312727   2.546   4.601   6.240  1.3499 -0.9097 -0.0471
 3240SOL    MW412728   2.577   4.678   6.267  0.1217 -0.4640  0.4182
 3241SOL     OW12729   5.461   0.971   5.137 -0.0368 -0.1192  0.5849
 3241SOL    HW212730   5.492   1.052   5.098 -2.0785  0.3109 -0.2612
 3241SOL    HW312731   5.407   0.930   5.069 -0.2550 -1.4579  1.5113
 3241SOL    MW412732   5.458   0.976   5.123 -0.3306  0.3080 -0.5615
 3242SOL     OW12733   1.385   2.538   2.083  0.5191  0.4858  0.3202
 3242SOL    HW212734   1.415   2.448   2.099 -1.1241  0.2223  2.2058
 3242SOL    HW312735   1.368   2.540   1.989 -1.2516 -1.8416  0.4777
 3242SOL    MW412736   1.387   2.526   2.072  0.3452  0.5448  0.0212
 3243SOL     OW12737   0.467   1.506   0.989 -0.1726  0.0300  0.0218
 3243SOL    HW212738   0.506   1.556   0.917  0.4779 -0.6858 -0.1359
 3243SOL    HW312739   0.436   1.573   1.050  1.2148  0.6451  0.1039
 3243SOL    MW412740   0.468   1.522   0.987 -0.9176 -0.6416 -0.9375
 3244SOL     OW12741   0.266   1.323   2.914  0.2419  0.1293 -0.3452
 3244SOL    HW212742   0.237   1.409   2.945 -0.2722  0.6248 -2.0844
 3244SOL    HW312743   0.207   1.303   2.841  1.3339 -0.9972 -0.9459
 3244SOL    MW412744   0.254   1.332   2.909 -0.4464 -0.0431 -0.0969
 3245SOL     OW12745   2.245   6.227   4.990  0.2849 -0.1344  0.7001
 3245SOL    HW212746   2.208   6.306   5.030  0.6566  1.6721 -2.1893
 3245SOL    HW312747   2.269   6.255   4.901  0.6688 -3.4747 -0.3755
 3245SOL    MW412748   2.243   6.241   4.984 -0.0445 -0.1265  0.7485
 3246SOL     OW12749   5.775   6.012   4.304  0.2928 -0.5030  0.5652
 3246SOL    HW212750   5.810   6.082   4.360  1.8925 -1.0662  0.3352
 3246SOL    HW312751   5.684   6.037   4.288  0.8824  1.6870  0.2735
 3246SOL    MW412752   5.768   6.025   4.309 -0.5827  0.6758 -0.6028
 3247SOL     OW12753   0.438   6.339   1.964 -0.1599 -0.2946 -0.2556
 3247SOL    HW212754   0.424   6.248   1.990 -1.0466 -0.5602 -1.5602
 3247SOL    HW312755   0.483   6.333   1.879  0.3135  0.5011 -0.0720
 3247SOL    MW412756   0.442   6.326   1.956 -0.3366 -0.0400  0.3708
 3248SOL     OW12757   2.798   3.619   3.216  0.2892  0.6921  0.1321
 3248SOL    HW212758   2.772   3.710   3.226 -1.0877  0.4571 -1.1263
 3248SOL    HW312759   2.818   3.609   3.123 -0.2602 -0.4564  0.1228
 3248SOL    MW412760   2.797   3.629   3.205  0.2637  0.3605  0.4523
 3249SOL     OW12761   1.817   5.706   4.793 -0.0290 -0.1510 -0.1203
 3249SOL    HW212762   1.912   5.692   4.792  0.0719  0.4696 -1.8318
 3249SOL    HW312763   1.799   5.738   4.882  1.3329 -0.3915  0.2766
 3249SOL    MW412764   1.827   5.708   4.805 -0.8418 -0.4046 -0.4576
 3250SOL     OW12765   3.360   4.416   5.865 -0.4125  0.1457  0.4165
 3250SOL    HW212766   3.335   4.498   5.909 -0.2387 -0.2842  1.3506
 3250SOL    HW312767   3.433   4.383   5.917  0.6675  0.2608 -0.9732
 3250SOL    MW412768   3.366   4.423   5.878  0.3224 -0.7353 -0.6091
 3251SOL     OW12769   0.733   3.227   0.943 -0.2161  0.8688 -0.0113
 3251SOL    HW212770   0.684   3.184   1.014 -2.1045  0.7554 -1.3122
 3251SOL    HW312771   0.801   3.163   0.920 -0.1744  0.5051  1.0453
 3251SOL    MW412772   0.736   3.213   0.949  0.3920 -0.5930 -0.5711
 3252SOL     OW12773   0.792   0.228   5.718 -0.0811  0.0889 -0.0081
 3252SOL    HW212774   0.722   0.286   5.688  0.3475  0.7222  0.1697
 3252SOL    HW312775   0.817   0.265   5.803  0.9237  0.2896 -0.3788
 3252SOL    MW412776   0.786   0.241   5.725 -0.1982  0.0292 -0.2778
 3253SOL     OW12777   6.408   1.645   4.004  0.0849 -0.0923 -0.2513
 3253SOL    HW212778   6.457   1.565   4.020 -0.9886 -0.6054  0.5959
 3253SOL    HW312779   6.450   1.710   4.060  0.7444 -0.1272 -0.6881
 3253SOL    MW412780   6.420   1.643   4.013 -0.0223  0.0727 -0.0419
 3254SOL     OW12781   0.720   3.720   4.378 -0.0022 -0.3518 -0.5112
 3254SOL    HW212782   0.790   3.702   4.315 -0.8084 -1.1345 -1.1961
 3254SOL    HW312783   0.694   3.634   4.411  0.4886  0.0474  1.0120
 3254SOL    MW412784   0.726   3.706   4.374 -0.2303 -0.1228 -0.5400
 3255SOL     OW12785   3.085   1.624   5.677 -0.4707  0.3267  0.2449
 3255SOL    HW212786   3.096   1.630   5.582 -3.1869 -3.1110 -0.4574
 3255SOL    HW312787   3.150   1.559   5.704 -0.4229  0.5269  0.6217
 3255SOL    MW412788   3.095   1.617   5.668 -0.4767 -0.2675 -0.3872
 3256SOL     OW12789   4.334   4.260   2.880 -0.0329 -0.0594  0.2670
 3256SOL    HW212790   4.246   4.269   2.843 -1.3517 -0.5996  2.9459
 3256SOL    HW312791   4.390   4.313   2.824 -2.2036  0.8784 -1.1394
 3256SOL    MW412792   4.330   4.268   2.868  0.2315 -0.0158 -0.1248
 3257SOL     OW12793   4.070   2.640   2.457 -0.0134 -0.1681 -0.5048
 3257SOL    HW212794   4.096   2.732   2.454  0.0922 -0.2074 -0.8812
 3257SOL    HW312795   3.993   2.639   2.514 -0.2564  0.2133 -0.8179
 3257SOL    MW412796   4.063   2.652   2.464 -0.0610  0.5470 -0.4540
 3258SOL     OW12797   2.077   0.585   2.069 -0.0074 -0.5476  0.1115
 3258SOL    HW212798   2.037   0.508   2.110  0.6376 -0.0249  1.8016
 3258SOL    HW312799   2.022   0.658   2.097  2.7416  0.4122  3.7665
 3258SOL    MW412800   2.064   0.585   2.078  0.0885 -0.1885 -1.0441
 3259SOL     OW12801   0.544   5.152   1.180  0.3000  0.1155 -0.1084
 3259SOL    HW212802   0.549   5.057   1.192  0.2872  0.0328 -0.7659
 3259SOL    HW312803   0.634   5.180   1.171  0.4149  0.3517  1.3961
 3259SOL    MW412804   0.556   5.143   1.181  0.1876  0.0371  0.2429
 3260SOL     OW12805   5.075   0.930   4.164  0.0405 -0.5252 -0.1799
 3260SOL    HW212806   5.122   1.008   4.135  1.0430 -0.6616  0.9637
 3260SOL    HW312807   5.101   0.920   4.256 -0.1965 -2.1099 -0.2599
 3260SOL    MW412808   5.084   0.939   4.173  0.5406 -0.1965  0.2155
 3261SOL     OW12809   4.204   1.847   5.875  0.2021  0.3296  0.0331
 3261SOL    HW212810   4.244   1.876   5.957 -0.0531  0.2213  0.1940
 3261SOL    HW312811   4.262   1.883   5.807  0.1026  0.8940  0.2416
 3261SOL    MW412812   4.217   1.855   5.877 -0.0923  0.3507  0.0619
 3262SOL     OW12813   4.198   5.619   1.243  0.4034 -0.1583  0.1040
 3262SOL    HW212814   4.137   5.564   1.292 -0.8401  1.5885  0.6005
 3262SOL    HW312815   4.284   5.596   1.277 -0.1856 -1.0233  1.0669
 3262SOL    MW412816   4.201   5.609   1.254  0.4562 -0.5488 -0.0513
 3263SOL     OW12817   0.982   3.315   4.672 -0.4522 -0.0467  0.3705
 3263SOL    HW212818   0.969   3.366   4.753  0.4204 -0.3032  0.6842
 3263SOL    HW312819   0.985   3.224   4.701  1.6761 -0.0352  0.3126
 3263SOL    MW412820   0.981   3.310   4.687 -0.2387  0.1807 -0.0559
 3264SOL     OW12821   2.287   2.754   6.210  0.3898 -0.3489  0.5513
 3264SOL    HW212822   2.286   2.836   6.160 -0.3245  1.1661  2.8668
 3264SOL    HW312823   2.197   2.724   6.210  0.3885 -0.3513  0.8795
 3264SOL    MW412824   2.275   2.761   6.204 -0.4922  0.3996  0.0243
 3265SOL     OW12825   2.476   0.548   2.028 -0.4728  0.3984  0.0609
 3265SOL    HW212826   2.544   0.527   2.093 -0.3791  0.8897  0.1302
 3265SOL    HW312827   2.419   0.472   2.026  0.2343 -0.1306 -0.1893
 3265SOL    MW412828   2.478   0.536   2.036  0.7183  0.5701 -0.1992
 3266SOL     OW12829   2.638   2.296   5.310 -0.3193 -0.4377  0.3623
 3266SOL    HW212830   2.727   2.300   5.344 -0.7561  0.2439  1.4768
 3266SOL    HW312831   2.615   2.388   5.295 -0.3505 -0.6831 -1.2719
 3266SOL    MW412832   2.647   2.309   5.313 -0.8504  0.3791 -0.7644
 3267SOL     OW12833   5.712   1.780   4.309  0.1179  0.2446 -0.5291
 3267SOL    HW212834   5.722   1.732   4.392 -0.6881  0.7675 -0.1182
 3267SOL    HW312835   5.800   1.810   4.289  0.3127  0.1830  0.1890
 3267SOL    MW412836   5.725   1.778   4.318  0.4348 -0.5388  0.6411
 3268SOL     OW12837   1.883   0.865   1.410  0.0919  0.1029  0.1551
 3268SOL    HW212838   1.879   0.868   1.314  2.6820  1.3275  0.0263
 3268SOL    HW312839   1.834   0.786   1.433 -2.0379  0.6605 -2.0201
 3268SOL    MW412840   1.876   0.855   1.400  0.2727  0.0677 -0.3834
 3269SOL     OW12841   3.639   4.199   6.407 -0.3067  0.1511 -0.0101
 3269SOL    HW212842   3.591   4.167   6.331 -1.1773  0.3021  0.4686
 3269SOL    HW312843   3.580   4.261   6.449 -0.5948 -1.2975  1.8419
 3269SOL    MW412844   3.625   4.203   6.402  0.1189 -0.9998 -0.0184
 3270SOL     OW12845   0.308   3.300   6.370  0.4875 -0.6378 -0.1152
 3270SOL    HW212846   0.351   3.241   6.307 -3.1096 -0.8469 -2.7209
 3270SOL    HW312847   0.215   3.276   6.364 -0.2802  0.3846  4.3427
 3270SOL    MW412848   0.301   3.289   6.361  0.1771  0.2686  0.6393
 3271SOL     OW12849   0.345   1.890   5.820  0.1061  0.7065  0.2023
 3271SOL    HW212850   0.422   1.845   5.855  1.1924  1.7604 -0.7434
 3271SOL    HW312851   0.379   1.944   5.748 -1.3145  2.1717  0.5749
 3271SOL    MW412852   0.359   1.891   5.815 -0.5660  0.5245 -0.5593
 3272SOL     OW12853   2.726   0.711   6.073 -0.1171  0.8593  0.0110
 3272SOL    HW212854   2.743   0.629   6.121 -1.3138  1.1157  0.9232
 3272SOL    HW312855   2.812   0.738   6.041  0.2094 -1.1168 -0.9303
 3272SOL    MW412856   2.740   0.704   6.075 -0.0156  0.0358 -0.1083
 3273SOL     OW12857   3.533   1.450   2.994  0.4204 -0.4104  0.3053
 3273SOL    HW212858   3.451   1.493   3.017  0.8639  0.6466 -0.0227
 3273SOL    HW312859   3.531   1.367   3.041 -0.6124 -0.1791  0.6863
 3273SOL    MW412860   3.522   1.445   3.003 -0.0535  0.2731 -0.1430
 3274SOL     OW12861   6.322   4.417   4.728 -0.5017  0.3344  0.1623
 3274SOL    HW212862   6.233   4.432   4.762 -0.0551 -1.3774  2.3182
 3274SOL    HW312863   6.310   4.352   4.659 -0.9313 -0.0225  0.5642
 3274SOL    MW412864   6.308   4.411   4.724  0.7268 -0.1160  0.1041
 3275SOL     OW12865   2.219   0.895   3.152 -0.2902 -0.2804  0.4081
 3275SOL    HW212866   2.310   0.920   3.138 -0.1909  0.0325  1.5260
 3275SOL    HW312867   2.196   0.933   3.237 -1.8081  0.6297 -0.3629
 3275SOL    MW412868   2.228   0.903   3.161  0.5635 -0.0145 -0.5007
 3276SOL     OW12869   6.075   5.505   1.924 -0.5639 -0.3832 -0.1274
 3276SOL    HW212870   6.102   5.527   2.013  1.3929 -1.7416 -0.3046
 3276SOL    HW312871   6.097   5.584   1.873  0.8711 -0.5393  0.1846
 3276SOL    MW412872   6.082   5.519   1.929 -0.1768 -0.5971  0.1394
 3277SOL     OW12873   3.971   3.707   5.438 -0.0878 -0.5600 -0.4799
 3277SOL    HW212874   3.917   3.780   5.407 -1.0819 -0.6783  0.8802
 3277SOL    HW312875   4.061   3.733   5.416 -0.1405  2.1195  1.8121
 3277SOL    MW412876   3.976   3.720   5.431 -0.0939  0.6212  0.0194
 3278SOL     OW12877   2.158   2.239   2.678 -0.0832 -0.4212 -0.5240
 3278SOL    HW212878   2.082   2.183   2.697  0.9058 -1.2695  1.2212
 3278SOL    HW312879   2.211   2.187   2.618  0.1884 -0.8050  0.0390
 3278SOL    MW412880   2.155   2.225   2.673  0.3361 -0.4368 -0.3453
 3279SOL     OW12881   5.836   2.507   5.940 -0.5934 -0.1845  0.4197
 3279SOL    HW212882   5.775   2.529   6.011 -1.9228  2.7507 -1.4140
 3279SOL    HW312883   5.923   2.512   5.980 -1.2276  2.5206  1.6847
 3279SOL    MW412884   5.839   2.511   5.955  0.2153 -0.2271  0.0400
 3280SOL     OW12885   2.196   0.757   2.745 -0.0105 -0.3309  0.2220
 3280SOL    HW212886   2.209   0.739   2.652  0.9444 -0.9483  0.4603
 3280SOL    HW312887   2.103   0.779   2.752 -0.1263 -0.4012 -0.8533
 3280SOL    MW412888   2.185   0.758   2.734  0.6587 -0.1067 -0.6719
 3281SOL     OW12889   3.874   2.385   3.441 -0.7289  0.0221  0.3036
 3281SOL    HW212890   3.916   2.318   3.388 -0.5792  0.3389  0.0199
 3281SOL    HW312891   3.929   2.463   3.430  0.4532 -0.4303  2.5209
 3281SOL    MW412892   3.887   2.387   3.432  1.2390 -0.7590 -0.0004
 3282SOL     OW12893   3.229   2.494   0.914  0.0511  0.3725  0.4164
 3282SOL    HW212894   3.173   2.463   0.985 -0.7854  0.1327 -0.3216
 3282SOL    HW312895   3.248   2.415   0.863 -0.7002  0.7750 -0.5226
 3282SOL    MW412896   3.224   2.479   0.916 -0.9499  0.5884 -0.5921
 3283SOL     OW12897   3.112   3.492   0.519  0.0459 -0.7781  0.2720
 3283SOL    HW212898   3.130   3.571   0.468  0.1172  0.4711  2.1141
 3283SOL    HW312899   3.167   3.425   0.480 -0.7016 -0.1860 -1.9360
 3283SOL    MW412900   3.121   3.494   0.507 -0.0744  0.0299 -0.1421
 3284SOL     OW12901   1.841   5.977   0.191 -0.4290 -0.5065 -0.4349
 3284SOL    HW212902   1.836   6.051   0.251  1.3076  0.7645 -1.7460
 3284SOL    HW312903   1.754   5.975   0.149 -0.4681  0.9314 -0.4998
 3284SOL    MW412904   1.829   5.987   0.193 -0.6697  0.0269  0.1976
 3285SOL     OW12905   2.557   5.931   0.664  0.3514 -0.1787 -0.9875
 3285SOL    HW212906   2.473   5.933   0.708  0.6847  0.8376 -0.3776
 3285SOL    HW312907   2.611   5.873   0.717  0.3436 -0.0262 -0.8146
 3285SOL    MW412908   2.553   5.923   0.677 -0.2515  0.2911  0.0531
 3286SOL     OW12909   5.610   0.981   2.401 -0.4589 -0.0059  0.5002
 3286SOL    HW212910   5.545   0.926   2.357 -1.8294  2.1023 -0.2637
 3286SOL    HW312911   5.671   1.006   2.331  0.9252 -1.5080  1.1014
 3286SOL    MW412912   5.609   0.977   2.386  0.0160 -0.1374  0.3418
 3287SOL     OW12913   6.058   1.843   3.796  0.0683 -0.6624  0.1517
 3287SOL    HW212914   6.100   1.919   3.835 -0.2381 -0.1116 -0.5638
 3287SOL    HW312915   6.064   1.775   3.863 -1.3764  0.5433  1.5934
 3287SOL    MW412916   6.064   1.844   3.810 -0.0643  0.5155 -0.0465
 3288SOL     OW12917   1.197   5.086   4.271  0.3435 -0.7813  0.3293
 3288SOL    HW212918   1.268   5.027   4.248  0.3751 -0.2512 -1.0253
 3288SOL    HW312919   1.118   5.034   4.259  0.4526 -1.0992  0.9561
 3288SOL    MW412920   1.196   5.071   4.266  0.0811  0.5689  0.9795
 3289SOL     OW12921   5.826   3.934   6.293 -0.3690 -0.4222  0.1034
 3289SOL    HW212922   5.895   3.995   6.320  0.0656 -0.0811 -1.6567
 3289SOL    HW312923   5.834   3.860   6.353  1.8259 -0.5837 -0.3097
 3289SOL    MW412924   5.836   3.933   6.304 -0.1034  0.0476  0.6809
 3290SOL     OW12925   4.058   1.228   5.259 -0.3213  0.1692  0.1384
 3290SOL    HW212926   4.067   1.164   5.329  1.1082 -1.0118 -1.0809
 3290SOL    HW312927   3.978   1.276   5.281  0.1065 -0.1258  2.5846
 3290SOL    MW412928   4.048   1.226   5.271  0.0974 -0.4248 -0.1793
 3291SOL     OW12929   5.611   5.600   0.822 -0.0187 -0.3935  0.3271
 3291SOL    HW212930   5.698   5.614   0.859 -0.0677 -0.2760  0.4001
 3291SOL    HW312931   5.592   5.682   0.775  0.5026 -0.9440 -0.8909
 3291SOL    MW412932   5.620   5.613   0.821  0.2568  0.1273  0.2397
 3292SOL     OW12933   3.828   5.071   3.638 -0.3437  0.3698 -0.1695
 3292SOL    HW212934   3.861   5.128   3.707 -0.1896 -0.4497  0.4515
 3292SOL    HW312935   3.752   5.117   3.602 -0.3172  0.8851  0.4244
 3292SOL    MW412936   3.822   5.084   3.642 -0.3036  0.3739 -0.8129
 3293SOL     OW12937   4.323   1.520   1.723  0.0371 -0.0846 -0.0745
 3293SOL    HW212938   4.229   1.537   1.722  0.0220  0.0326  1.3402
 3293SOL    HW312939   4.354   1.552   1.639 -0.8017  2.1750  0.4203
 3293SOL    MW412940   4.315   1.526   1.712 -0.2320 -0.0878 -0.4900
 3294SOL     OW12941   3.974   2.413   2.795  0.5086 -0.3637 -0.1038
 3294SOL    HW212942   3.905   2.352   2.769 -0.8347  1.0303  0.1207
 3294SOL    HW312943   3.946   2.498   2.763  1.5039  0.4593  1.0999
 3294SOL    MW412944   3.961   2.416   2.788 -0.0448 -0.2205 -1.1514
 3295SOL     OW12945   0.508   3.468   1.998  0.1976  0.0397 -0.2880
 3295SOL    HW212946   0.568   3.495   2.068 -0.8946 -2.3036  1.6758
 3295SOL    HW312947   0.493   3.375   2.013 -0.9931 -0.3195 -3.0290
 3295SOL    MW412948   0.514   3.460   2.009 -0.0916 -0.0112 -0.0497
 3296SOL     OW12949   3.272   0.612   0.487 -0.4696 -0.6009  0.3608
 3296SOL    HW212950   3.216   0.689   0.495  0.0570 -0.1194 -0.5341
 3296SOL    HW312951   3.218   0.548   0.441 -0.7100 -0.5690  0.5971
 3296SOL    MW412952   3.257   0.614   0.482 -0.2315 -0.4124 -0.0832
 3297SOL     OW12953   4.621   1.132   4.679 -0.7559 -0.5822 -0.1149
 3297SOL    HW212954   4.635   1.195   4.609 -0.0953 -0.2587  0.2967
 3297SOL    HW312955   4.545   1.080   4.650 -2.5072  1.5703  0.3796
 3297SOL    MW412956   4.613   1.133   4.666  0.3193  0.5827 -0.1273
 3298SOL     OW12957   0.015   0.845   5.774  0.4165 -0.4327  0.1005
 3298SOL    HW212958  -0.011   0.851   5.682  1.5101 -1.4117 -0.2964
 3298SOL    HW312959   0.092   0.902   5.780  0.3119 -0.3252  0.4328
 3298SOL    MW412960   0.022   0.853   5.763 -0.3862  0.3554  0.2700
 3299SOL     OW12961   5.468   4.397   4.259  0.6712  0.1565 -0.2813
 3299SOL    HW212962   5.429   4.320   4.217  1.9393 -1.4484  1.3684
 3299SOL    HW312963   5.396   4.435   4.310  0.0119  0.1818 -1.1819
 3299SOL    MW412964   5.453   4.392   4.260  0.0702 -0.5036 -0.1659
 3300SOL     OW12965   1.523   3.734   1.784 -0.3374  0.3519 -0.0680
 3300SOL    HW212966   1.467   3.683   1.725 -2.2750  1.6304  0.5904
 3300SOL    HW312967   1.612   3.718   1.751 -1.1448 -0.9009 -1.8189
 3300SOL    MW412968   1.528   3.726   1.772  0.1981 -0.2925 -0.4130
 3301SOL     OW12969   0.892   3.779   0.806  0.6247 -0.5880 -0.2245
 3301SOL    HW212970   0.887   3.868   0.770  0.2859 -0.1587  0.8285
 3301SOL    HW312971   0.928   3.726   0.735  1.3158  0.4880 -0.7078
 3301SOL    MW412972   0.897   3.784   0.792  0.2415 -0.0232  0.8072
 3302SOL     OW12973   6.012   0.045   1.517 -0.1374 -0.0992  0.0173
 3302SOL    HW212974   6.069   0.067   1.444 -0.5851 -1.0217 -0.6441
 3302SOL    HW312975   5.944  -0.011   1.477 -1.5802  1.0721  0.7346
 3302SOL    MW412976   6.010   0.040   1.502 -0.5624 -0.6915  0.1150
 3303SOL     OW12977   5.418   5.014   4.499  0.3633 -0.4821  0.3766
 3303SOL    HW212978   5.336   4.966   4.499 -0.2571  0.5461  0.2426
 3303SOL    HW312979   5.393   5.105   4.484  1.3372  0.1480  2.1727
 3303SOL    MW412980   5.404   5.020   4.497 -0.0309  0.1657  0.1501
 3304SOL     OW12981   4.472   5.602   1.296 -0.2218  0.0153 -0.1722
 3304SOL    HW212982   4.542   5.561   1.347 -0.4060 -0.4508 -0.2900
 3304SOL    HW312983   4.510   5.684   1.265  0.1213 -0.0216  0.1375
 3304SOL    MW412984   4.486   5.607   1.299  0.0676  0.2098 -0.1101
 3305SOL     OW12985   1.386   4.830   3.305  0.2787 -0.2055 -0.0365
 3305SOL    HW212986   1.402   4.803   3.214 -0.7545  0.1208 -0.3377
 3305SOL    HW312987   1.313   4.775   3.333 -0.8549  1.1733 -0.1537
 3305SOL    MW412988   1.378   4.819   3.296 -0.4526  0.3720 -0.2700
 3306SOL     OW12989   2.487   0.773   4.559 -0.0730  0.3987 -0.4379
 3306SOL    HW212990   2.408   0.826   4.559  0.2544  0.9559  1.2676
 3306SOL    HW312991   2.459   0.690   4.600 -0.5996 -0.8596 -3.1395
 3306SOL    MW412992   2.473   0.769   4.565 -0.5079 -0.2736  0.4812
 3307SOL     OW12993   2.630   5.292   5.070  0.1762 -0.4921 -0.0022
 3307SOL    HW212994   2.612   5.284   5.163  2.4642  0.8829  0.6435
 3307SOL    HW312995   2.721   5.267   5.060  0.0539 -0.3835 -1.8371
 3307SOL    MW412996   2.639   5.288   5.081  0.0473  0.4603 -0.3455
 3308SOL     OW12997   4.681   2.999   2.937 -0.1062 -0.1700  0.2884
 3308SOL    HW212998   4.747   3.065   2.961 -0.4618  0.3276 -0.0840
 3308SOL    HW312999   4.605   3.021   2.991 -0.4912  0.2052 -0.4012
 3308SOL    MW413000   4.680   3.011   2.948  0.4660  0.2946 -0.5342
 3309SOL     OW13001   2.037   4.698   4.097 -0.4780  0.1302  0.3845
 3309SOL    HW213002   2.084   4.764   4.150  0.7664 -0.9937  0.7281
 3309SOL    HW313003   1.949   4.734   4.087 -0.9331  0.2150  3.6258
 3309SOL    MW413004   2.032   4.712   4.103 -0.4814  0.7336  0.5536
 3310SOL     OW13005   4.761   6.005   5.016  0.2954 -0.7455  0.4047
 3310SOL    HW213006   4.819   5.940   5.054  1.3189 -0.4457 -0.5761
 3310SOL    HW313007   4.744   6.067   5.087  0.8999 -1.0299  0.8027
 3310SOL    MW413008   4.767   6.005   5.030  0.2625 -0.0961 -0.5538
 3311SOL     OW13009   4.867   2.763   4.094  0.3873  0.4262  0.3096
 3311SOL    HW213010   4.923   2.840   4.082  0.7533  0.1746  0.3941
 3311SOL    HW313011   4.888   2.732   4.182  1.4324 -0.7231 -0.3183
 3311SOL    MW413012   4.877   2.769   4.104  0.1673  0.2608  0.3881
 3312SOL     OW13013   2.997   1.136   6.052  0.0482 -0.4689  0.8615
 3312SOL    HW213014   3.034   1.217   6.086 -0.3365  0.9269 -1.7739
 3312SOL    HW313015   2.933   1.109   6.119 -2.0635  3.1217  0.5280
 3312SOL    MW413016   2.993   1.143   6.066  0.2602 -0.0432  0.4825
 3313SOL     OW13017   3.652   1.312   5.563 -0.5961 -0.2024  0.0868
 3313SOL    HW213018   3.644   1.219   5.583 -0.2234 -0.1758  0.3572
 3313SOL    HW313019   3.565   1.337   5.531 -1.1015 -0.3395  1.2966
 3313SOL    MW413020   3.639   1.303   5.562  0.2778 -0.3153  0.4247
 3314SOL     OW13021   2.308   4.520   0.465 -0.5694 -0.0426  0.3378
 3314SOL    HW213022   2.401   4.538   0.476 -0.5756 -0.0728  0.4383
 3314SOL    HW313023   2.303   4.472   0.382 -0.5609  0.4834  0.0335
 3314SOL    MW413024   2.320   4.516   0.455  0.1832  0.4795  0.5799
 3315SOL     OW13025   5.786   4.251   1.307  0.1588 -0.1002 -0.4627
 3315SOL    HW213026   5.706   4.303   1.303  0.1353 -0.1314 -0.3992
 3315SOL    HW313027   5.815   4.259   1.398  0.5302  0.3664 -0.6141
 3315SOL    MW413028   5.780   4.259   1.318 -0.2475 -0.0211  0.2659
 3316SOL     OW13029   2.278   6.047   5.907  0.2083  0.0601  0.3897
 3316SOL    HW213030   2.249   6.007   5.825  1.3915 -0.7222  0.3385
 3316SOL    HW313031   2.338   5.983   5.946  0.7568  1.0206  1.1748
 3316SOL    MW413032   2.282   6.033   5.902 -0.8493  0.3788  0.2758
 3317SOL     OW13033   5.918   3.976   2.737 -0.1498 -0.0810  0.1859
 3317SOL    HW213034   5.980   3.913   2.773  1.0087  0.7984 -0.1916
 3317SOL    HW313035   5.853   3.922   2.692  0.1908 -1.0418  0.8056
 3317SOL    MW413036   5.918   3.960   2.736 -0.4853  0.3708  0.1619
 3318SOL     OW13037   1.232   2.900   4.988 -0.7152 -0.1140  0.4453
 3318SOL    HW213038   1.224   2.872   4.897 -1.8823  0.4492  0.3624
 3318SOL    HW313039   1.197   2.989   4.989 -0.1595  0.1066  1.3391
 3318SOL    MW413040   1.227   2.908   4.976 -0.0894 -0.4944  0.2905
 3319SOL     OW13041   1.559   4.807   4.711  0.2885 -0.4636 -0.3386
 3319SOL    HW213042   1.516   4.754   4.778  0.0260  0.9541  0.6506
 3319SOL    HW313043   1.503   4.798   4.634 -0.9772  0.1421  0.4790
 3319SOL    MW413044   1.546   4.799   4.709  0.5607  0.0779  0.0877
 3320SOL     OW13045   1.274   1.087   5.001  0.0910  0.2083  0.0006
 3320SOL    HW213046   1.341   1.022   5.023 -0.0355  0.8146  2.5364
 3320SOL    HW313047   1.322   1.156   4.955  0.9064 -0.0982  0.3588
 3320SOL    MW413048   1.289   1.087   4.998  0.0992 -0.0669 -0.2581
 3321SOL     OW13049   2.685   6.325   5.779  0.2125 -0.0461 -0.4596
 3321SOL    HW213050   2.590   6.324   5.790  0.3810  2.1919  2.2676
 3321SOL    HW313051   2.711   6.234   5.792 -1.4907 -0.5728 -0.4459
 3321SOL    MW413052   2.676   6.313   5.782 -0.4949 -0.3217  0.1247
 3322SOL     OW13053   0.672   1.785   4.695  0.0513  0.2009 -0.2684
 3322SOL    HW213054   0.739   1.795   4.763 -0.2514 -0.5500  0.1419
 3322SOL    HW313055   0.694   1.853   4.630 -0.0316  1.3609  0.8711
 3322SOL    MW413056   0.684   1.795   4.695 -0.3247  0.2336  0.4116
 3323SOL     OW13057   4.623   4.928   4.486  0.2856  0.1380 -0.0078
 3323SOL    HW213058   4.634   4.847   4.435 -2.9329 -0.3008 -0.2193
 3323SOL    HW313059   4.607   4.898   4.575  1.2853  0.7065  0.3843
 3323SOL    MW413060   4.622   4.913   4.491  0.5186  0.1384  0.1638
 3324SOL     OW13061   3.517   3.674   3.630  0.2600 -0.6785  0.1862
 3324SOL    HW213062   3.549   3.690   3.541  1.9067 -0.7479  0.7398
 3324SOL    HW313063   3.514   3.579   3.638  0.0413 -0.6724  0.1910
 3324SOL    MW413064   3.521   3.664   3.619 -0.0089 -0.5995  0.3139
 3325SOL     OW13065   5.955   0.342   4.432 -0.9342 -0.9679  0.0162
 3325SOL    HW213066   5.905   0.278   4.482 -1.3285 -0.8562 -0.2267
 3325SOL    HW313067   5.923   0.333   4.342 -1.5992  0.1352  0.1189
 3325SOL    MW413068   5.944   0.333   4.427  0.0626 -0.3506  0.1965
 3326SOL     OW13069   2.874   4.690   0.790 -0.1251  0.2427 -0.6155
 3326SOL    HW213070   2.807   4.623   0.802 -1.2087  1.5276  0.7294
 3326SOL    HW313071   2.918   4.696   0.875 -0.6459  1.8606 -0.4395
 3326SOL    MW413072   2.871   4.682   0.803  0.4596  0.4070  0.1875
 3327SOL     OW13073   6.291   1.853   3.217  0.1210 -0.3908 -0.1344
 3327SOL    HW213074   6.229   1.808   3.275 -0.2670  1.3237  0.8527
 3327SOL    HW313075   6.271   1.819   3.130 -1.5690 -0.6166  0.2967
 3327SOL    MW413076   6.280   1.843   3.213  0.2713  0.8567 -0.1431
 3328SOL     OW13077   2.740   2.294   3.510 -0.0896  0.2906 -0.4840
 3328SOL    HW213078   2.736   2.205   3.474  0.2182 -0.6116  1.6091
 3328SOL    HW313079   2.800   2.341   3.452 -0.8433 -0.6217 -2.0672
 3328SOL    MW413080   2.747   2.288   3.497 -0.7280 -0.1007 -0.4359
 3329SOL     OW13081   5.813   0.475   0.127  0.4622 -0.2853  0.2596
 3329SOL    HW213082   5.803   0.520   0.043  2.0860  2.1859  1.2699
 3329SOL    HW313083   5.753   0.400   0.121 -0.8777  0.8408 -2.3580
 3329SOL    MW413084   5.804   0.471   0.115  0.0038 -0.2236 -0.0396
 3330SOL     OW13085   0.823   1.423   1.277 -0.3831  0.3924 -0.1957
 3330SOL    HW213086   0.799   1.388   1.362 -1.2373 -2.7955 -1.5893
 3330SOL    HW313087   0.740   1.431   1.230 -0.1892  4.0464 -0.2297
 3330SOL    MW413088   0.809   1.419   1.282  0.2087 -0.3206  0.2417
 3331SOL     OW13089   3.968   3.020   2.890  0.0205  0.5541  0.2175
 3331SOL    HW213090   3.966   2.927   2.911 -0.1553  0.9255  1.9853
 3331SOL    HW313091   3.954   3.024   2.795  1.3522 -1.2761 -0.1073
 3331SOL    MW413092   3.966   3.008   2.880 -0.5194 -0.2810 -0.5314
 3332SOL     OW13093   3.878   0.219   0.388  0.5499  0.0644 -0.4674
 3332SOL    HW213094   3.792   0.215   0.430  1.4108 -0.3463  1.3549
 3332SOL    HW313095   3.897   0.313   0.382  0.5386  0.1315  0.3919
 3332SOL    MW413096   3.869   0.231   0.393  0.4383  0.5152 -0.3936
 3333SOL     OW13097   2.296   5.645   3.083 -0.0988 -0.0682  0.0229
 3333SOL    HW213098   2.318   5.692   3.002 -2.2467  0.8549 -0.0906
 3333SOL    HW313099   2.290   5.554   3.057 -0.7243  0.2182 -0.8632
 3333SOL    MW413100   2.298   5.639   3.069  0.0067  0.1458  0.3510
 3334SOL     OW13101   1.571   3.612   5.322  0.1007 -0.4042 -0.1257
 3334SOL    HW213102   1.564   3.664   5.402 -1.1850  1.1528 -1.1733
 3334SOL    HW313103   1.547   3.673   5.252  0.0263 -2.0302 -1.5843
 3334SOL    MW413104   1.567   3.627   5.323 -0.6897  0.0879  0.2644
 3335SOL     OW13105   5.141   5.675   1.574 -0.1150  0.0682 -0.7191
 3335SOL    HW213106   5.165   5.594   1.620  0.2212 -0.0381 -1.0741
 3335SOL    HW313107   5.046   5.680   1.583  0.0475  0.7941  1.2179
 3335SOL    MW413108   5.132   5.665   1.581 -0.3352 -0.2245 -0.2044
 3336SOL     OW13109   0.857   2.109   1.677 -0.4009 -0.1217  0.1431
 3336SOL    HW213110   0.939   2.070   1.646  1.3108  1.4164  2.3826
 3336SOL    HW313111   0.815   2.040   1.727 -0.4956 -0.9243 -1.0112
 3336SOL    MW413112   0.862   2.095   1.679  0.1499  0.6157  0.1077
 3337SOL     OW13113   2.070   3.892   0.117 -0.4720 -0.2047  0.0166
 3337SOL    HW213114   2.165   3.900   0.111 -0.3023 -1.5260  0.4757
 3337SOL    HW313115   2.051   3.807   0.076 -1.2170 -0.8859  1.6642
 3337SOL    MW413116   2.080   3.882   0.111 -0.1533  0.6349  0.3831
 3338SOL     OW13117   5.190   0.921   2.512 -0.5277 -0.0596 -0.4013
 3338SOL    HW213118   5.180   0.933   2.606  0.0160 -1.0788 -0.1990
 3338SOL    HW313119   5.145   0.839   2.493  2.2311 -1.6764 -0.4312
 3338SOL    MW413120   5.182   0.912   2.522 -0.5603 -0.0746 -0.2582
 3339SOL     OW13121   3.291   4.591   2.767 -0.0904 -0.1080 -0.4958
 3339SOL    HW213122   3.212   4.592   2.712 -2.0758  0.5431  2.2020
 3339SOL    HW313123   3.300   4.680   2.799  0.5255 -0.6424  0.9053
 3339SOL    MW413124   3.282   4.603   2.764  0.4030  0.6292 -0.0173
 3340SOL     OW13125   4.741   4.441   0.293 -0.1005 -0.0590 -0.0294
 3340SOL    HW213126   4.769   4.454   0.384 -1.0363  0.8021  0.1579
 3340SOL    HW313127   4.738   4.346   0.283 -1.1806 -0.2066  1.2626
 3340SOL    MW413128   4.744   4.430   0.304  0.0222 -0.6515  0.6113
 3341SOL     OW13129   1.507   6.117   4.366 -0.2649 -0.4120  0.2373
 3341SOL    HW213130   1.487   6.061   4.441 -0.7228 -0.5609  0.0092
 3341SOL    HW313131   1.423   6.125   4.320 -0.4391  1.2460  0.7858
 3341SOL    MW413132   1.493   6.111   4.370 -0.6495 -0.1354  0.2272
 3342SOL     OW13133   4.763   3.756   1.637  0.3939  0.2375 -0.2195
 3342SOL    HW213134   4.680   3.767   1.683  0.7822  1.3570  0.2733
 3342SOL    HW313135   4.739   3.734   1.548 -0.4918  1.5972 -0.3521
 3342SOL    MW413136   4.749   3.755   1.632 -0.0850  0.1645  0.2349
 3343SOL     OW13137   5.403   2.834   2.714  0.1822 -0.3967 -0.3028
 3343SOL    HW213138   5.365   2.885   2.786 -1.2259 -1.1079 -0.5061
 3343SOL    HW313139   5.497   2.850   2.720 -0.0086  0.3406  1.0866
 3343SOL    MW413140   5.410   2.843   2.725  0.7426 -0.1800  0.0055
 3344SOL     OW13141   5.198   5.543   6.030  0.3511 -0.2515  0.0276
 3344SOL    HW213142   5.257   5.475   5.995  0.7753  0.3461 -0.4481
 3344SOL    HW313143   5.257   5.613   6.058 -0.0612 -0.2654  0.9382
 3344SOL    MW413144   5.214   5.543   6.029 -0.0330  0.0188  0.4968
 3345SOL     OW13145   5.347   2.315   1.737  0.1904 -0.0172  0.1252
 3345SOL    HW213146   5.391   2.387   1.781  2.4338 -0.0997 -1.7637
 3345SOL    HW313147   5.303   2.267   1.807 -0.5569  2.5785  1.5405
 3345SOL    MW413148   5.347   2.318   1.752  0.0739  0.1166 -0.0403
 3346SOL     OW13149   5.214   3.343   4.304 -0.0726  0.3681  0.2369
 3346SOL    HW213150   5.278   3.273   4.287  1.8517  2.1188 -0.0912
 3346SOL    HW313151   5.264   3.411   4.349 -1.9588  1.4444  0.8164
 3346SOL    MW413152   5.229   3.342   4.308 -0.6758 -0.4243 -0.0512
 3347SOL     OW13153   4.897   1.436   0.258  0.3673  0.0675  0.2999
 3347SOL    HW213154   4.939   1.517   0.228  0.4651 -0.3938 -0.8417
 3347SOL    HW313155   4.807   1.462   0.278  0.3186  0.4072 -0.3380
 3347SOL    MW413156   4.890   1.450   0.257 -0.1856  0.2937 -0.0518
 3348SOL     OW13157   0.242   0.990   3.752 -0.2461  0.1282  0.2325
 3348SOL    HW213158   0.271   0.933   3.823  1.5081  0.2406 -0.3214
 3348SOL    HW313159   0.178   0.938   3.703  0.5432 -0.9883  0.3411
 3348SOL    MW413160   0.238   0.975   3.755  0.2173  0.3585  0.1877
 3349SOL     OW13161   4.277   0.382   1.269 -0.2028 -0.4699  0.1507
 3349SOL    HW213162   4.339   0.445   1.306  0.1318 -0.7548  0.0688
 3349SOL    HW313163   4.286   0.304   1.323  0.0655 -0.7789 -0.3360
 3349SOL    MW413164   4.286   0.380   1.281 -0.3463  0.2783 -0.9799
 3350SOL     OW13165   2.661   2.893   3.118 -0.3695 -0.0232  0.0911
 3350SOL    HW213166   2.715   2.830   3.069  1.1208  1.0172  0.3281
 3350SOL    HW313167   2.720   2.928   3.184 -0.9973  2.0429 -0.3781
 3350SOL    MW413168   2.676   2.889   3.120  0.7795  0.3524 -0.1974
 3351SOL     OW13169   5.354   5.767   2.034  0.8039 -1.0312  0.1459
 3351SOL    HW213170   5.266   5.745   2.066  1.1834  0.6314  2.5857
 3351SOL    HW313171   5.343   5.773   1.939 -1.7711 -0.7508  0.3719
 3351SOL    MW413172   5.341   5.765   2.026 -0.0014  0.2576  0.1169
 3352SOL     OW13173   4.541   2.024   0.706 -0.1439  0.5035  0.1647
 3352SOL    HW213174   4.508   2.034   0.796  0.6622  1.0312  0.4093
 3352SOL    HW313175   4.630   1.991   0.716 -0.1485  0.2895 -0.4511
 3352SOL    MW413176   4.548   2.021   0.719 -0.4454  0.2885  0.7872
 3353SOL     OW13177   3.162   5.532   2.289  0.4230  0.1342 -0.1542
 3353SOL    HW213178   3.208   5.610   2.317  0.1499  0.1197  0.3304
 3353SOL    HW313179   3.195   5.516   2.200  0.7103  0.6132 -0.1367
 3353SOL    MW413180   3.173   5.540   2.281  0.0890  0.0289 -0.5430
 3354SOL     OW13181   0.444   0.826   4.936  0.0437  0.2899 -0.1663
 3354SOL    HW213182   0.426   0.803   5.028 -0.1928  1.8197  0.1995
 3354SOL    HW313183   0.539   0.831   4.931  0.0288  1.9867  0.5050
 3354SOL    MW413184   0.454   0.823   4.948  0.0072  0.4757  0.1500
 3355SOL     OW13185   1.924   3.414   0.690  0.0354 -0.2194  0.3308
 3355SOL    HW213186   1.849   3.468   0.668  1.0537  0.5257 -1.5883
 3355SOL    HW313187   1.888   3.327   0.703 -1.2411  0.2493  0.0655
 3355SOL    MW413188   1.909   3.410   0.689 -0.1905 -0.4087 -0.4107
 3356SOL     OW13189   1.619   0.386   3.964  0.3594 -0.1171  0.0741
 3356SOL    HW213190   1.693   0.386   3.903  0.8325  0.0508  0.6412
 3356SOL    HW313191   1.608   0.294   3.989  0.3630 -0.1437 -0.0210
 3356SOL    MW413192   1.627   0.374   3.959 -0.2633  0.0604 -0.5149
 3357SOL     OW13193   3.613   1.399   3.631  0.3233  0.1433 -0.2030
 3357SOL    HW213194   3.558   1.439   3.563  0.1791 -0.3051 -0.3526
 3357SOL    HW313195   3.675   1.345   3.583 -1.1177 -1.8852  0.0722
 3357SOL    MW413196   3.614   1.398   3.615  0.4439  0.0689 -0.9259
 3358SOL     OW13197   5.482   4.710   5.831 -0.2985  0.0928  0.5134
 3358SOL    HW213198   5.453   4.640   5.773  1.5739 -0.8513  0.6459
 3358SOL    HW313199   5.401   4.748   5.866 -1.3734 -1.2577 -0.4232
 3358SOL    MW413200   5.467   4.706   5.828  0.4021  0.6440  0.1560
 3359SOL     OW13201   3.019   2.783   4.603 -0.3093  0.2162  0.1462
 3359SOL    HW213202   3.067   2.769   4.521 -0.5708  2.0040 -0.3733
 3359SOL    HW313203   3.082   2.828   4.660 -1.1204  2.1367 -0.3714
 3359SOL    MW413204   3.034   2.787   4.600 -0.4681  0.1825 -0.0848
 3360SOL     OW13205   2.885   1.700   0.151  0.0509 -0.2938  0.7185
 3360SOL    HW213206   2.920   1.655   0.228  1.6787 -0.6583 -0.2014
 3360SOL    HW313207   2.959   1.750   0.117 -0.1165 -1.5130 -1.6299
 3360SOL    MW413208   2.900   1.701   0.157  0.2698  0.0750  0.2991
 3361SOL     OW13209   0.360   0.250   5.571  0.1148  0.5696  0.0079
 3361SOL    HW213210   0.454   0.243   5.554  0.1749  0.6138  0.3175
 3361SOL    HW313211   0.328   0.309   5.502  0.5584  1.6835  0.7134
 3361SOL    MW413212   0.369   0.257   5.559 -0.0961 -0.0028  0.1184
 3362SOL     OW13213   4.721   0.563   0.186  0.2076  0.3500  0.2716
 3362SOL    HW213214   4.700   0.544   0.278 -0.1242 -0.0968  0.1079
 3362SOL    HW313215   4.740   0.477   0.148  0.3077  0.5307 -0.0838
 3362SOL    MW413216   4.720   0.549   0.193  0.1068  0.1307 -0.0119
 3363SOL     OW13217   2.282   2.812   4.047  0.9118  0.2912  0.3780
 3363SOL    HW213218   2.270   2.751   3.975  0.9015 -0.3057  0.8757
 3363SOL    HW313219   2.194   2.844   4.068  1.0904  1.8748 -1.0496
 3363SOL    MW413220   2.269   2.808   4.041 -0.0899  0.0199 -0.0979
 3364SOL     OW13221   2.509   3.146   0.163  0.1284  0.0831 -0.3626
 3364SOL    HW213222   2.525   3.180   0.251  0.7964  0.1124 -0.4853
 3364SOL    HW313223   2.594   3.153   0.120 -0.2871  0.4270 -1.1377
 3364SOL    MW413224   2.522   3.151   0.169 -0.1294 -0.2179 -0.0510
 3365SOL     OW13225   2.494   2.227   2.792 -0.0237  0.0909 -0.0054
 3365SOL    HW213226   2.585   2.200   2.787 -0.9931 -3.5762 -0.5363
 3365SOL    HW313227   2.484   2.291   2.721  1.6183 -1.1994 -1.4863
 3365SOL    MW413228   2.505   2.232   2.782  0.3788 -0.2436  0.4465
 3366SOL     OW13229   3.238   1.551   0.159  0.1383 -0.6998 -0.3799
 3366SOL    HW213230   3.187   1.544   0.240 -0.7663  0.2846 -0.8260
 3366SOL    HW313231   3.198   1.488   0.099  0.6284 -1.2283 -0.1585
 3366SOL    MW413232   3.226   1.542   0.162 -0.0231  0.2929 -0.1837
 3367SOL     OW13233   4.259   6.359   5.634 -0.3039  0.0048 -0.1420
 3367SOL    HW213234   4.334   6.396   5.585 -1.3923  0.9874 -1.1423
 3367SOL    HW313235   4.296   6.334   5.718  0.8719  1.8981 -0.0270
 3367SOL    MW413236   4.274   6.361   5.638  0.6080  0.2786 -0.3149
 3368SOL     OW13237   1.542   0.205   0.892 -0.1399 -0.5921  0.6099
 3368SOL    HW213238   1.475   0.273   0.900 -0.1694 -0.7394  1.6586
 3368SOL    HW313239   1.624   0.254   0.884 -0.3796 -0.3996 -1.1526
 3368SOL    MW413240   1.544   0.221   0.892 -0.4787  0.1929 -0.4281
 3369SOL     OW13241   3.511   2.858   0.596 -0.1657  0.3095 -0.0350
 3369SOL    HW213242   3.566   2.936   0.602 -1.0981  0.8565  2.6181
 3369SOL    HW313243   3.550   2.795   0.657 -1.0683 -0.2093  0.0330
 3369SOL    MW413244   3.523   2.860   0.605 -0.3182 -0.1142 -0.4071
 3370SOL     OW13245   6.163   1.832   0.636  0.2218  0.2738 -0.1830
 3370SOL    HW213246   6.119   1.760   0.681  0.5202 -0.4045 -0.9434
 3370SOL    HW313247   6.092   1.890   0.609  0.0289  0.5965  0.9846
 3370SOL    MW413248   6.148   1.830   0.638 -0.0701 -0.0967  0.6570
 3371SOL     OW13249   5.784   2.476   5.177  0.5410 -0.0773  0.5840
 3371SOL    HW213250   5.791   2.569   5.200  2.9879  0.0772 -0.4893
 3371SOL    HW313251   5.858   2.434   5.221  0.1088 -1.3309  0.1543
 3371SOL    MW413252   5.795   2.483   5.186 -0.0550  0.1807 -0.3169
 3372SOL     OW13253   6.224   2.783   3.370 -0.0707  0.4164 -0.0587
 3372SOL    HW213254   6.164   2.776   3.444  1.4855  1.4254  1.3987
 3372SOL    HW313255   6.290   2.715   3.386 -0.5780 -0.4294 -1.4185
 3372SOL    MW413256   6.225   2.773   3.382 -0.0283 -0.3428  0.1359
 3373SOL     OW13257   0.830   0.811   6.423  0.4263  0.0158 -0.2842
 3373SOL    HW213258   0.842   0.885   6.364  0.7004  0.0351 -0.2032
 3373SOL    HW313259   0.804   0.850   6.506 -2.2289 -0.1061 -0.9655
 3373SOL    MW413260   0.828   0.826   6.426  0.1195 -0.3615 -0.5796
 3374SOL     OW13261   5.240   3.866   5.731  0.1766  0.1155 -0.3408
 3374SOL    HW213262   5.166   3.846   5.788  1.2400  2.9664  2.2732
 3374SOL    HW313263   5.285   3.781   5.721 -1.7748 -1.0824  0.4241
 3374SOL    MW413264   5.236   3.852   5.737  0.2272  0.0857  0.6111
 3375SOL     OW13265   0.829   5.828   5.610 -0.3131 -0.1967  0.1557
 3375SOL    HW213266   0.745   5.797   5.579 -0.6383  0.8008 -0.0002
 3375SOL    HW313267   0.878   5.749   5.632 -1.4263 -0.7735  0.6159
 3375SOL    MW413268   0.825   5.814   5.609 -0.2653  0.5609  0.0752
 3376SOL     OW13269   0.887   1.703   2.397 -0.5792  0.0266  0.1347
 3376SOL    HW213270   0.799   1.739   2.393 -0.5110  0.1029 -1.2582
 3376SOL    HW313271   0.903   1.687   2.490 -1.6462  1.0156  0.5035
 3376SOL    MW413272   0.878   1.705   2.409  0.2245  0.3967 -0.1131
 3377SOL     OW13273   4.574   0.087   1.472  0.3150  0.0589 -0.0776
 3377SOL    HW213274   4.601   0.148   1.403  1.2896  0.0893  0.3119
 3377SOL    HW313275   4.636   0.014   1.465  0.0251 -0.2348  0.3552
 3377SOL    MW413276   4.586   0.085   1.462 -0.0400 -0.0809  0.1263
 3378SOL     OW13277   2.468   3.315   0.402  0.1789  0.0851 -0.3739
 3378SOL    HW213278   2.437   3.363   0.326  0.6770  1.4765  0.2696
 3378SOL    HW313279   2.493   3.383   0.465  1.4473 -1.0007  0.3517
 3378SOL    MW413280   2.467   3.330   0.400  0.3358 -0.1157 -0.1371
 3379SOL     OW13281   0.254   1.145   0.321  0.0778 -0.4806  0.2578
 3379SOL    HW213282   0.214   1.131   0.407 -0.4530 -0.7347 -0.0308
 3379SOL    HW313283   0.265   1.240   0.315 -1.7461 -0.2673 -0.2186
 3379SOL    MW413284   0.250   1.156   0.332 -0.3874 -0.2669  0.4617
 3380SOL     OW13285   6.042   1.138   1.917  0.3733  0.2270  0.2345
 3380SOL    HW213286   5.955   1.115   1.950  0.2192  0.4030 -0.0457
 3380SOL    HW313287   6.060   1.073   1.850  0.8206 -0.3215  0.8674
 3380SOL    MW413288   6.033   1.126   1.913  0.1366  0.2338 -0.2317
 3381SOL     OW13289   6.030   2.295   4.855  0.1496 -0.3939  0.2905
 3381SOL    HW213290   5.957   2.267   4.910  0.9770 -0.4457  1.3787
 3381SOL    HW313291   6.040   2.389   4.872  0.1914 -0.3351 -0.0385
 3381SOL    MW413292   6.022   2.304   4.864  0.2263  0.0208  0.1864
 3382SOL     OW13293   1.212   4.332   1.396 -0.2514  0.0282 -0.8695
 3382SOL    HW213294   1.250   4.250   1.366  2.0831  0.5893  0.3365
 3382SOL    HW313295   1.146   4.307   1.461 -0.3752 -0.9066 -1.3500
 3382SOL    MW413296   1.208   4.318   1.400 -0.0003 -0.0115 -0.6620
 3383SOL     OW13297   1.197   2.319   6.210  0.3327 -0.1673 -0.0772
 3383SOL    HW213298   1.234   2.407   6.199  3.2264 -1.0392  1.8642
 3383SOL    HW313299   1.139   2.327   6.286  0.3684  0.1001 -0.0759
 3383SOL    MW413300   1.194   2.332   6.219  0.1535 -0.6290 -0.2340
 3384SOL     OW13301   3.274   0.834   1.450 -0.2320 -0.2541 -0.1354
 3384SOL    HW213302   3.280   0.870   1.362  0.9794 -0.1967 -0.0552
 3384SOL    HW313303   3.337   0.886   1.501 -1.2377  0.0270  0.8827
 3384SOL    MW413304   3.283   0.846   1.445 -0.1151 -0.1399 -0.0236
 3385SOL     OW13305   1.019   4.669   6.020  0.1360 -0.3859 -0.3551
 3385SOL    HW213306   1.097   4.619   5.996  0.7979  1.2013 -1.7008
 3385SOL    HW313307   1.023   4.747   5.965 -1.7729  0.3199  0.4327
 3385SOL    MW413308   1.030   4.672   6.009  0.3961  0.1424 -0.1013
 3386SOL     OW13309   1.736   6.241   0.919  0.0848 -0.2323 -0.1700
 3386SOL    HW213310   1.688   6.210   0.995 -2.9972  0.2766 -1.7554
 3386SOL    HW313311   1.723   6.174   0.852 -0.4651  0.9891 -1.3628
 3386SOL    MW413312   1.728   6.228   0.920 -0.0073 -0.4078  0.0728
 3387SOL     OW13313   3.846   5.704   0.244  0.1548 -0.1626  0.4204
 3387SOL    HW213314   3.768   5.753   0.217  1.7511  3.2372  1.4335
 3387SOL    HW313315   3.884   5.674   0.162 -1.4663 -0.7146 -0.1761
 3387SOL    MW413316   3.841   5.707   0.229 -0.6960  0.5915 -0.2031
 3388SOL     OW13317   3.565   5.610   1.311  0.1359  0.0023 -0.7162
 3388SOL    HW213318   3.538   5.518   1.313 -0.2487  0.0865  2.3693
 3388SOL    HW313319   3.489   5.658   1.344  1.6640  0.9478  1.6502
 3388SOL    MW413320   3.551   5.604   1.316 -0.8220 -0.0157  0.5542
 3389SOL     OW13321   2.641   1.955   5.863 -0.1216  0.1669 -0.4280
 3389SOL    HW213322   2.588   1.922   5.790 -0.4686  0.4116 -0.2844
 3389SOL    HW313323   2.613   1.904   5.939  0.8839 -0.7384 -0.6293
 3389SOL    MW413324   2.631   1.944   5.863 -0.0966 -0.0971 -0.4672
 3390SOL     OW13325   2.454   4.056   6.355  0.3855  0.3031 -0.0608
 3390SOL    HW213326   2.382   4.079   6.296  1.6435 -1.0457 -2.2962
 3390SOL    HW313327   2.415   3.995   6.417 -0.5052 -0.1289 -1.0096
 3390SOL    MW413328   2.440   4.051   6.355  0.0800  0.3576 -0.2319
 3391SOL     OW13329   2.775   5.425   6.399 -0.0947  0.3314 -0.2985
 3391SOL    HW213330   2.709   5.489   6.371 -1.3278 -1.7183 -2.4563
 3391SOL    HW313331   2.859   5.469   6.385 -0.8715  2.8198  1.9710
 3391SOL    MW413332   2.777   5.440   6.394  0.0830 -0.3888 -0.2931
 3392SOL     OW13333   1.932   2.583   6.008 -0.5985 -0.1722  0.2005
 3392SOL    HW213334   1.988   2.615   5.937  0.1370  0.6594  1.1397
 3392SOL    HW313335   1.980   2.603   6.088 -2.1231  0.3250  1.0283
 3392SOL    MW413336   1.946   2.590   6.009  0.3844  0.1255  0.1111
 3393SOL     OW13337   5.161   3.058   2.634  0.4482  0.4029 -0.4994
 3393SOL    HW213338   5.163   3.005   2.714 -0.2317 -0.0796 -0.7909
 3393SOL    HW313339   5.093   3.017   2.580  0.2956  1.2466 -0.9646
 3393SOL    MW413340   5.152   3.045   2.638 -0.0246 -0.4847 -0.1102
 3394SOL     OW13341   2.007   4.912   1.478  0.1858  0.2648  0.1786
 3394SOL    HW213342   2.032   4.946   1.563 -1.3368 -1.7175  1.5097
 3394SOL    HW313343   2.066   4.837   1.464 -2.0116 -1.8210  1.3914
 3394SOL    MW413344   2.018   4.906   1.487  0.2865  0.2259  0.1011
 3395SOL     OW13345   4.235   2.941   1.005  0.1812 -0.1530 -0.0655
 3395SOL    HW213346   4.195   2.903   1.082  0.1469 -1.2462 -0.6061
 3395SOL    HW313347   4.179   3.016   0.982 -0.1461 -0.1948  0.6011
 3395SOL    MW413348   4.223   2.946   1.012 -0.4642 -0.0359 -0.3959
 3396SOL     OW13349   4.013   0.036   5.918 -0.6935  0.0775  0.2859
 3396SOL    HW213350   3.932  -0.000   5.954  0.1067 -3.5114 -1.0948
 3396SOL    HW313351   4.002   0.028   5.823 -0.3102  3.5529 -0.1845
 3396SOL    MW413352   4.001   0.030   5.910  0.2021  0.3155 -0.2244
 3397SOL     OW13353   2.509   2.346   1.578 -0.0272 -0.1757 -0.6221
 3397SOL    HW213354   2.448   2.376   1.644  1.6772 -1.1070  1.4814
 3397SOL    HW313355   2.519   2.420   1.518 -1.1541  0.9019  0.4836
 3397SOL    MW413356   2.502   2.360   1.579  0.1170 -0.4405  0.4132
 3398SOL     OW13357   0.974   5.768   0.230 -0.6984  0.3177  0.1885
 3398SOL    HW213358   1.033   5.746   0.302 -1.0376 -1.9033 -0.1439
 3398SOL    HW313359   1.023   5.831   0.177  0.0072  1.1001  1.7084
 3398SOL    MW413360   0.988   5.774   0.232  0.6998 -0.5522 -0.4964
 3399SOL     OW13361   1.544   3.683   0.711 -0.1795 -0.1881 -0.7095
 3399SOL    HW213362   1.572   3.623   0.781 -1.3182 -1.1889 -1.0684
 3399SOL    HW313363   1.457   3.712   0.739 -0.9119 -1.0681 -1.9583
 3399SOL    MW413364   1.536   3.679   0.724 -0.0517 -0.3348 -0.7310
 3400SOL     OW13365   4.045   4.993   1.950  0.1649  0.0903  0.3593
 3400SOL    HW213366   4.126   4.946   1.974 -0.6869 -0.7951  1.6536
 3400SOL    HW313367   3.984   4.924   1.924 -0.0372  0.7946 -1.1204
 3400SOL    MW413368   4.048   4.978   1.950  0.1911  0.0940  0.5237
 3401SOL     OW13369   0.981   2.732   5.091 -0.0838  0.1439  0.0242
 3401SOL    HW213370   0.957   2.695   5.176 -1.2514 -0.5443 -0.5752
 3401SOL    HW313371   1.043   2.802   5.111 -1.5323  1.0493  1.5703
 3401SOL    MW413372   0.986   2.736   5.105  0.1739 -0.3842  0.4656
 3402SOL     OW13373   5.834   6.406   2.395  0.0358 -0.0344  0.3574
 3402SOL    HW213374   5.753   6.360   2.419 -1.5315  1.7665 -1.1439
 3402SOL    HW313375   5.836   6.482   2.453 -0.7336  1.2535 -1.2178
 3402SOL    MW413376   5.823   6.409   2.406 -0.1901  0.3761 -0.0687
 3403SOL     OW13377   0.382   5.582   3.357  0.2796  0.3866  0.8938
 3403SOL    HW213378   0.334   5.631   3.423 -0.8996 -0.4973  0.7206
 3403SOL    HW313379   0.451   5.537   3.406 -0.5333 -0.1979  1.5363
 3403SOL    MW413380   0.385   5.582   3.372  0.2182 -0.0715  0.6196
 3404SOL     OW13381   2.494   2.580   6.225  0.2466 -0.5495  0.2341
 3404SOL    HW213382   2.438   2.656   6.239 -0.9350 -1.5680  1.2987
 3404SOL    HW313383   2.436   2.515   6.185  1.2515 -0.8829 -0.7182
 3404SOL    MW413384   2.479   2.582   6.222 -0.6924  0.0946  0.3429
 3405SOL     OW13385   3.747   2.096   1.973  0.2960 -0.3213  0.2266
 3405SOL    HW213386   3.718   2.023   1.919 -2.0032 -0.2339  1.2227
 3405SOL    HW313387   3.834   2.117   1.940  0.3736 -2.4458 -1.1489
 3405SOL    MW413388   3.754   2.089   1.962  0.0640 -0.2593 -0.7041
 3406SOL     OW13389   5.659   2.155   3.693  0.4191  0.0198  0.5728
 3406SOL    HW213390   5.585   2.152   3.632  1.4172  0.1019 -0.6886
 3406SOL    HW313391   5.664   2.067   3.729 -0.1490 -0.0443  0.5087
 3406SOL    MW413392   5.650   2.143   3.689 -0.3314  0.1651 -0.0034
 3407SOL     OW13393   0.514   2.793   1.791 -0.5907  0.4406  0.8126
 3407SOL    HW213394   0.525   2.722   1.854 -1.9494  0.3473  0.9831
 3407SOL    HW313395   0.464   2.754   1.719  0.0488  0.8159  0.1529
 3407SOL    MW413396   0.509   2.779   1.790  0.1168  0.4274  0.4694
 3408SOL     OW13397   1.252   3.994   6.263  0.3450  0.0952 -0.3014
 3408SOL    HW213398   1.328   3.983   6.321 -0.4965  0.1164  0.8327
 3408SOL    HW313399   1.264   4.081   6.226  0.5804  0.3401  0.3249
 3408SOL    MW413400   1.264   4.004   6.266  0.1373  0.4971 -0.4305
 3409SOL     OW13401   5.982   5.501   2.658 -0.3216  0.5366  0.3770
 3409SOL    HW213402   6.040   5.478   2.731  0.4916  1.5443  0.0710
 3409SOL    HW313403   5.955   5.417   2.622  2.3752 -0.0323 -0.5855
 3409SOL    MW413404   5.986   5.487   2.663  0.1975 -0.4117 -0.1655
 3410SOL     OW13405   4.088   4.105   3.787  0.0158 -0.3782  0.0169
 3410SOL    HW213406   4.064   4.028   3.839 -2.4136 -0.1168 -0.5899
 3410SOL    HW313407   4.018   4.168   3.804  1.6663  1.5472  0.0845
 3410SOL    MW413408   4.076   4.103   3.796 -0.2812  0.3955  0.3975
 3411SOL     OW13409   0.437   3.609   1.776 -0.2832  0.3424 -0.1553
 3411SOL    HW213410   0.514   3.622   1.722  0.5646 -0.4410  0.8316
 3411SOL    HW313411   0.470   3.572   1.858 -1.8139 -1.2854 -0.2066
 3411SOL    MW413412   0.451   3.606   1.780  0.3355  0.5242 -0.5712
 3412SOL     OW13413   4.465   5.767   6.092  0.4104  0.2111 -0.1157
 3412SOL    HW213414   4.401   5.777   6.021 -1.2359 -0.4917  1.2075
 3412SOL    HW313415   4.548   5.752   6.047 -0.5401  0.0176 -1.8938
 3412SOL    MW413416   4.467   5.766   6.076  0.4705  0.0645 -0.1537
 3413SOL     OW13417   6.296   4.739   5.088  0.3793  0.5472  0.2895
 3413SOL    HW213418   6.346   4.802   5.036 -0.2206 -1.0655 -2.4329
 3413SOL    HW313419   6.204   4.763   5.071  0.1736 -0.2101  0.2960
 3413SOL    MW413420   6.290   4.751   5.079  0.5179 -0.1537  0.1271
 3414SOL     OW13421   5.050   3.352   4.081  0.4041  0.0114  0.6034
 3414SOL    HW213422   5.100   3.354   4.163  4.4471  2.0793 -1.5923
 3414SOL    HW313423   5.092   3.282   4.030  0.0241  0.7526 -0.7724
 3414SOL    MW413424   5.062   3.343   4.085  0.3719  0.0096 -0.2357
 3415SOL     OW13425   2.669   2.878   1.051 -0.2812  0.0093 -0.1347
 3415SOL    HW213426   2.755   2.920   1.043 -0.6429  0.6801 -0.6320
 3415SOL    HW313427   2.688   2.784   1.054  0.6554  0.2118  2.4255
 3415SOL    MW413428   2.683   2.871   1.050 -0.1266  0.2873 -0.6815
 3416SOL     OW13429   1.542   1.080   1.974  0.5023  0.0285  0.2672
 3416SOL    HW213430   1.631   1.077   2.009  0.1739 -0.5707  1.1100
 3416SOL    HW313431   1.549   1.127   1.891  1.9100 -1.6023 -0.5991
 3416SOL    MW413432   1.555   1.086   1.968 -0.5128 -0.3765 -0.2231
 3417SOL     OW13433   2.049   2.879   0.346 -0.3042  0.3710 -0.1036
 3417SOL    HW213434   1.963   2.903   0.313 -0.1117  0.9596 -0.1895
 3417SOL    HW313435   2.104   2.874   0.268  0.2205  2.0500  0.1154
 3417SOL    MW413436   2.045   2.881   0.331  0.3288 -0.0973  0.3223
 3418SOL     OW13437   4.840   3.238   0.494 -0.2748 -0.8951 -0.0182
 3418SOL    HW213438   4.813   3.195   0.413  0.9456 -1.1777 -0.3031
 3418SOL    HW313439   4.865   3.165   0.552  1.1816 -0.6240 -0.2701
 3418SOL    MW413440   4.840   3.222   0.491  0.0765 -0.1663  0.0302
 3419SOL     OW13441   6.333   5.445   4.924 -0.0338 -0.4081 -0.4412
 3419SOL    HW213442   6.400   5.391   4.881 -0.3012 -1.3073  0.2207
 3419SOL    HW313443   6.325   5.523   4.870  2.3619  0.2597  0.0630
 3419SOL    MW413444   6.341   5.448   4.911  0.4655  0.8598  0.0338
 3420SOL     OW13445   3.588   1.081   6.239 -0.2159 -0.1656 -0.0929
 3420SOL    HW213446   3.517   1.038   6.191  1.6027 -2.1243 -1.2208
 3420SOL    HW313447   3.596   1.031   6.320 -0.6687  0.6053  0.4370
 3420SOL    MW413448   3.580   1.068   6.243 -0.6570 -0.5497 -0.2362
 3421SOL     OW13449   4.048   6.178   1.864 -0.2811  0.1803  0.0944
 3421SOL    HW213450   4.079   6.194   1.775  0.8729  0.7046  0.5586
 3421SOL    HW313451   4.083   6.251   1.915 -0.5485 -0.3396  1.0544
 3421SOL    MW413452   4.057   6.190   1.859 -0.0986 -0.6151 -0.1237
 3422SOL     OW13453   1.442   5.202   1.274  0.3860  0.6048 -0.1141
 3422SOL    HW213454   1.457   5.116   1.235  0.6372 -1.0492  3.2623
 3422SOL    HW313455   1.351   5.222   1.252 -0.7987 -2.1641  1.6363
 3422SOL    MW413456   1.432   5.193   1.266 -0.4452  0.1647  0.2111
 3423SOL     OW13457   4.415   3.467   1.707 -0.3982 -0.3638  0.4251
 3423SOL    HW213458   4.493   3.483   1.760 -0.3301  0.3379  0.1305
 3423SOL    HW313459   4.430   3.381   1.668  0.1318 -0.3319  0.5452
 3423SOL    MW413460   4.428   3.458   1.709 -0.4722 -0.1663  0.3253
 3424SOL     OW13461   0.282   0.577   6.115 -0.4094 -0.6367 -0.2465
 3424SOL    HW213462   0.223   0.646   6.085 -1.8503 -0.9230  1.7095
 3424SOL    HW313463   0.328   0.616   6.189 -1.5672 -1.8580  1.1708
 3424SOL    MW413464   0.280   0.591   6.121 -0.7534  1.0065 -0.1730
 3425SOL     OW13465   5.878   2.051   1.547  0.2960  0.4222  0.2442
 3425SOL    HW213466   5.788   2.027   1.528 -0.1548  0.7180  1.8807
 3425SOL    HW313467   5.913   2.082   1.463 -0.6122 -1.1818 -0.7662
 3425SOL    MW413468   5.871   2.052   1.534  0.7925  0.9583  0.2319
 3426SOL     OW13469   5.652   1.865   5.978  0.3782  0.2583 -0.1407
 3426SOL    HW213470   5.675   1.958   5.981 -0.1347  0.5211 -2.4060
 3426SOL    HW313471   5.733   1.821   5.950  0.4555  0.0825  0.3460
 3426SOL    MW413472   5.666   1.871   5.974  0.0622  0.0511 -0.1274
 3427SOL     OW13473   5.739   4.206   4.929 -0.1748  0.6890  0.0355
 3427SOL    HW213474   5.718   4.251   5.011  1.1025 -1.2057  1.5073
 3427SOL    HW313475   5.663   4.150   4.913  0.0288  0.2638  0.5353
 3427SOL    MW413476   5.726   4.204   4.938 -0.0725 -0.1535  0.0553
 3428SOL     OW13477   4.064   2.308   4.369 -0.1053 -0.3444 -0.1847
 3428SOL    HW213478   4.021   2.236   4.323 -0.3927  0.0161 -0.4812
 3428SOL    HW313479   4.076   2.376   4.302 -0.7620  0.2856  0.3307
 3428SOL    MW413480   4.060   2.307   4.354 -0.5799 -0.1090  0.0775
 3429SOL     OW13481   6.199   1.700   4.564 -0.0874 -0.1884 -0.2446
 3429SOL    HW213482   6.160   1.628   4.614  0.2632  0.2609  0.6947
 3429SOL    HW313483   6.163   1.779   4.605 -0.0816  0.1798 -0.9486
 3429SOL    MW413484   6.189   1.701   4.576 -0.5437  0.4313  0.0488
 3430SOL     OW13485   1.971   2.708   2.806  0.4274  0.2717 -0.1195
 3430SOL    HW213486   1.918   2.701   2.886  1.2939 -0.5627  0.4093
 3430SOL    HW313487   1.931   2.645   2.746 -0.4107  1.1161 -0.4701
 3430SOL    MW413488   1.959   2.699   2.809  0.0831 -0.3364 -0.1036
 3431SOL     OW13489   2.312   1.636   5.787 -0.0449  0.4319  0.4804
 3431SOL    HW213490   2.351   1.708   5.738 -1.4617  0.0894 -1.2641
 3431SOL    HW313491   2.220   1.661   5.798 -1.2817 -2.1662 -2.5415
 3431SOL    MW413492   2.305   1.649   5.782 -0.4103  0.1693  0.0209
 3432SOL     OW13493   0.616   0.189   2.257 -0.1367  0.0204 -0.7857
 3432SOL    HW213494   0.585   0.102   2.281 -0.2176 -0.1516 -1.5049
 3432SOL    HW313495   0.678   0.175   2.186 -0.1805  0.5468 -0.9378
 3432SOL    MW413496   0.620   0.176   2.251  0.6181 -0.5194  0.2242
 3433SOL     OW13497   2.635   1.906   1.758  0.1130 -0.4395  0.2477
 3433SOL    HW213498   2.726   1.883   1.735  1.0003  1.0056  2.0632
 3433SOL    HW313499   2.639   1.998   1.781 -1.7809 -0.4409  0.6884
 3433SOL    MW413500   2.648   1.915   1.758  0.0713 -0.1424 -0.1786
 3434SOL     OW13501   1.327   4.237   5.706  0.0241  0.2325 -0.4807
 3434SOL    HW213502   1.273   4.291   5.648 -1.8284 -1.6739 -0.6529
 3434SOL    HW313503   1.267   4.209   5.775  0.7625 -1.9594 -0.6563
 3434SOL    MW413504   1.312   4.241   5.707  0.0609 -0.4398 -0.4833
 3435SOL     OW13505   3.268   5.789   2.318 -0.0609 -0.1768  0.1010
 3435SOL    HW213506   3.288   5.815   2.228 -1.5625 -0.4619 -0.3536
 3435SOL    HW313507   3.206   5.855   2.349 -2.0172 -1.7362 -0.2308
 3435SOL    MW413508   3.262   5.801   2.310 -0.0894  0.5785  0.0433
 3436SOL     OW13509   2.055   1.805   2.658 -0.4000  0.3102 -0.0913
 3436SOL    HW213510   2.101   1.820   2.575 -1.1486  0.3110 -0.5097
 3436SOL    HW313511   2.097   1.727   2.695  0.9582  1.1578  0.2703
 3436SOL    MW413512   2.067   1.797   2.652  0.1656 -0.3321  0.3550
 3437SOL     OW13513   6.135   3.409   5.795 -0.2835  0.0400  0.1987
 3437SOL    HW213514   6.069   3.475   5.814 -1.4530 -0.7700 -0.8436
 3437SOL    HW313515   6.190   3.448   5.728 -0.5083  0.2423  0.1315
 3437SOL    MW413516   6.134   3.423   5.789 -0.0095  0.2853 -0.0357
 3438SOL     OW13517   0.625   5.113   3.802 -0.0128  0.3141 -0.2595
 3438SOL    HW213518   0.614   5.202   3.768 -1.3873 -0.1238 -1.0430
 3438SOL    HW313519   0.649   5.061   3.725  3.1292  0.3433  0.5712
 3438SOL    MW413520   0.627   5.118   3.787 -0.8494  0.3017 -0.5425
 3439SOL     OW13521   4.485   1.548   0.537 -0.3068 -0.0903 -0.0522
 3439SOL    HW213522   4.466   1.631   0.494  0.6199  0.5250  0.7018
 3439SOL    HW313523   4.400   1.504   0.543 -0.6412  0.3236 -1.4225
 3439SOL    MW413524   4.471   1.553   0.532  0.0114 -0.1407  0.1726
 3440SOL     OW13525   0.560   3.395   4.094 -0.6385 -0.4612 -0.0513
 3440SOL    HW213526   0.652   3.390   4.120 -0.2952 -0.5955 -1.2491
 3440SOL    HW313527   0.532   3.483   4.121  0.0138 -0.1930 -0.2515
 3440SOL    MW413528   0.568   3.406   4.101  0.1282  0.2640  0.4160
 3441SOL     OW13529   3.178   4.047   3.647  0.8814  0.5054  0.3925
 3441SOL    HW213530   3.244   3.993   3.605 -1.4292 -1.6485 -0.7538
 3441SOL    HW313531   3.207   4.055   3.737  2.2935 -1.0575  0.1194
 3441SOL    MW413532   3.190   4.041   3.653 -0.0789 -0.1886  0.3486
 3442SOL     OW13533   4.824   4.040   1.399 -0.6968 -0.1638  0.2230
 3442SOL    HW213534   4.884   4.086   1.458  0.9095 -1.2789 -0.4680
 3442SOL    HW313535   4.849   4.070   1.312 -0.8564 -0.9562 -0.1063
 3442SOL    MW413536   4.835   4.050   1.395 -0.4980  0.8080  0.1028
 3443SOL     OW13537   0.392   3.711   2.614 -0.0350  0.1159 -1.0314
 3443SOL    HW213538   0.319   3.680   2.668  1.7105  0.8431  2.0303
 3443SOL    HW313539   0.403   3.644   2.548 -1.0216 -2.0387  0.8422
 3443SOL    MW413540   0.384   3.698   2.613  0.1061 -0.7763  0.2609
 3444SOL     OW13541   4.978   6.068   0.871  0.6746 -0.5885 -0.2140
 3444SOL    HW213542   4.966   6.105   0.958  0.4054 -0.1435 -0.4320
 3444SOL    HW313543   4.890   6.070   0.832  1.0935  1.0115 -1.1818
 3444SOL    MW413544   4.965   6.073   0.877 -0.2710 -0.7175  0.0096
 3445SOL     OW13545   3.924   3.300   3.398  0.1712 -0.1167 -0.7784
 3445SOL    HW213546   3.858   3.368   3.388 -0.9803 -1.0374  0.2435
 3445SOL    HW313547   3.945   3.301   3.492  1.1271 -0.2945 -0.9734
 3445SOL    MW413548   3.918   3.309   3.409  0.2669 -0.1033 -0.1075
 3446SOL     OW13549   5.795   2.772   0.562  0.0364  0.0616 -0.5338
 3446SOL    HW213550   5.870   2.831   0.557 -0.3062  0.5039 -0.4841
 3446SOL    HW313551   5.829   2.693   0.605  1.4456 -1.2752 -3.7607
 3446SOL    MW413552   5.810   2.769   0.567 -0.0260  0.2603 -0.2011
 3447SOL     OW13553   5.130   1.326   0.644  0.4253  0.0249  0.2509
 3447SOL    HW213554   5.195   1.273   0.597  0.2841  0.6364 -0.6450
 3447SOL    HW313555   5.046   1.299   0.607  0.3622  0.9685 -0.3094
 3447SOL    MW413556   5.128   1.315   0.633 -0.0365  0.6045 -0.1466
 3448SOL     OW13557   1.310   2.738   3.156 -0.1133  0.6258  0.1080
 3448SOL    HW213558   1.366   2.812   3.182  0.4476 -0.4456  2.2050
 3448SOL    HW313559   1.327   2.671   3.222 -1.8479 -0.7835 -0.7866
 3448SOL    MW413560   1.320   2.739   3.168  0.2762  0.2188 -0.0699
 3449SOL     OW13561   3.563   4.313   0.616 -0.0087  0.4881 -0.1004
 3449SOL    HW213562   3.568   4.244   0.550  2.4428 -1.2761  1.7232
 3449SOL    HW313563   3.527   4.271   0.693 -0.1417  1.7369  0.5519
 3449SOL    MW413564   3.559   4.299   0.617 -0.1614 -0.2384  0.3869
 3450SOL     OW13565   0.700   5.047   2.877  0.4215  0.3492  0.2357
 3450SOL    HW213566   0.636   4.988   2.916 -1.9171  1.7495 -1.2617
 3450SOL    HW313567   0.715   5.011   2.789  0.5829  0.8316  0.0651
 3450SOL    MW413568   0.694   5.034   2.870 -0.2038 -0.4543  0.0495
 3451SOL     OW13569   4.510   1.526   4.885  0.4105 -0.1249  0.0317
 3451SOL    HW213570   4.452   1.562   4.953  0.1619 -0.6965  0.1250
 3451SOL    HW313571   4.454   1.467   4.835  0.9115 -0.6842  0.1254
 3451SOL    MW413572   4.495   1.523   4.888 -0.0378 -0.2524  0.1015
 3452SOL     OW13573   3.397   1.310   3.220  0.1243 -0.3898 -0.2987
 3452SOL    HW213574   3.368   1.223   3.245  0.0599 -0.6609 -1.2960
 3452SOL    HW313575   3.317   1.361   3.208  0.1754  0.2106  1.6000
 3452SOL    MW413576   3.383   1.305   3.222 -0.1101 -0.1948  1.0237
 3453SOL     OW13577   3.299   3.731   4.977 -0.4862  0.4090 -0.1204
 3453SOL    HW213578   3.315   3.648   5.023  0.6360  0.0952 -1.0409
 3453SOL    HW313579   3.208   3.725   4.948  0.0204 -1.2187 -1.5370
 3453SOL    MW413580   3.289   3.719   4.979 -0.7246  0.1988 -0.5018
 3454SOL     OW13581   1.019   1.044   3.950  0.4636  0.3081 -0.3736
 3454SOL    HW213582   1.006   1.118   4.009  0.4908 -0.5746  0.7846
 3454SOL    HW313583   1.038   1.084   3.865  0.0782  1.6153  0.1278
 3454SOL    MW413584   1.020   1.059   3.946  0.1885 -0.3017 -0.1539
 3455SOL     OW13585   2.265   3.906   1.131  0.2295 -0.4631  0.1938
 3455SOL    HW213586   2.354   3.872   1.125  0.4663  0.1272  0.2343
 3455SOL    HW313587   2.212   3.831   1.156  1.0365 -0.3977  2.3392
 3455SOL    MW413588   2.270   3.892   1.134 -0.1132  0.6973 -0.2625
 3456SOL     OW13589   3.459   3.406   5.623  0.0874  0.4475 -0.4375
 3456SOL    HW213590   3.539   3.428   5.574  0.4548 -1.8257 -0.9821
 3456SOL    HW313591   3.477   3.435   5.713  1.4288  0.2116 -0.6091
 3456SOL    MW413592   3.472   3.413   5.628  0.5880 -0.5017  0.3037
 3457SOL     OW13593  -0.002   2.111   6.134 -0.2578 -0.3143  0.8769
 3457SOL    HW213594  -0.031   2.183   6.079 -1.1679 -2.8472 -2.2468
 3457SOL    HW313595   0.087   2.091   6.104 -0.5760 -1.4120  0.6039
 3457SOL    MW413596   0.006   2.118   6.123 -0.7759 -0.0023 -0.0604
 3458SOL     OW13597   6.015   1.558   3.120  0.4691 -0.0671 -0.0661
 3458SOL    HW213598   6.074   1.561   3.195 -1.1659  0.7127  1.2556
 3458SOL    HW313599   6.050   1.623   3.059  2.2064 -1.1944 -0.3554
 3458SOL    MW413600   6.027   1.567   3.122  0.0323  0.4719 -0.4790
 3459SOL     OW13601   5.186   5.828   0.904 -0.4349 -0.3029  0.1718
 3459SOL    HW213602   5.224   5.903   0.859 -0.0706 -2.0558 -2.6629
 3459SOL    HW313603   5.261   5.774   0.929 -0.7771 -0.7407  0.2713
 3459SOL    MW413604   5.201   5.831   0.901  0.1910  0.0013  0.6301
 3460SOL     OW13605   3.355   4.196   2.503  0.1075  0.1883 -0.1262
 3460SOL    HW213606   3.324   4.107   2.485 -1.0377  0.4464  0.5092
 3460SOL    HW313607   3.382   4.229   2.417 -2.6954  0.4369 -1.0258
 3460SOL    MW413608   3.355   4.189   2.489  0.1603  0.6802 -0.8366
 3461SOL     OW13609   1.244   0.503   2.870  0.2323 -0.6025  0.9948
 3461SOL    HW213610   1.300   0.580   2.873  0.9559 -1.0767  0.1451
 3461SOL    HW313611   1.161   0.533   2.907  0.0662  0.9758 -0.4989
 3461SOL    MW413612   1.240   0.518   2.875  0.2555  0.2159  0.3807
 3462SOL     OW13613   1.573   0.198   5.929 -0.0610 -0.6214  0.3722
 3462SOL    HW213614   1.527   0.217   6.011  0.1737 -3.4077  1.2596
 3462SOL    HW313615   1.665   0.217   5.949 -0.3402  1.8141 -0.3614
 3462SOL    MW413616   1.579   0.203   5.943 -0.0924  0.2830  0.8518
 3463SOL     OW13617   3.554   2.639   0.795 -0.4665 -0.0350  0.2878
 3463SOL    HW213618   3.600   2.555   0.792 -1.0788 -0.3640 -1.5874
 3463SOL    HW313619   3.522   2.647   0.885  0.7689 -1.1441  0.8533
 3463SOL    MW413620   3.556   2.629   0.806  0.1485 -0.2178 -0.1204
 3464SOL     OW13621   0.699   2.220   1.201 -0.3515  0.2478  0.3102
 3464SOL    HW213622   0.634   2.151   1.186 -0.0112  0.0425 -0.2473
 3464SOL    HW313623   0.685   2.246   1.292 -0.6413 -0.3950  0.4581
 3464SOL    MW413624   0.688   2.214   1.211  0.0530 -0.1768 -0.4268
 3465SOL     OW13625   2.264   4.594   4.362 -0.3666 -0.2649 -0.2526
 3465SOL    HW213626   2.188   4.582   4.419  0.3203 -1.2274  0.4956
 3465SOL    HW313627   2.259   4.685   4.334 -0.4137  0.4039  1.8000
 3465SOL    MW413628   2.253   4.604   4.366 -0.0789 -0.1436  0.6070
 3466SOL     OW13629   3.373   0.512   3.958  0.0134 -0.3112 -0.4410
 3466SOL    HW213630   3.406   0.576   4.021 -0.8999 -0.3048  0.0579
 3466SOL    HW313631   3.398   0.427   3.993 -0.5368 -0.3098 -0.0246
 3466SOL    MW413632   3.380   0.510   3.971 -0.0245 -0.1916 -0.4902
 3467SOL     OW13633   1.490   4.118   2.923 -0.1639 -0.5059  0.3730
 3467SOL    HW213634   1.521   4.142   2.835 -0.5556 -1.4860 -0.0491
 3467SOL    HW313635   1.432   4.190   2.948 -1.2920 -0.9456 -0.8528
 3467SOL    MW413636   1.487   4.131   2.914  0.0328 -0.0134 -0.7923
 3468SOL     OW13637   1.753   2.115   5.113  0.3388  0.2854 -0.2194
 3468SOL    HW213638   1.733   2.097   5.205  1.7508 -1.4543 -0.2096
 3468SOL    HW313639   1.832   2.169   5.116  1.3465 -1.1292 -0.3964
 3468SOL    MW413640   1.761   2.120   5.126 -0.2805 -0.5051 -0.4930
 3469SOL     OW13641   0.009   1.302   5.768  0.0985 -0.0521  0.2034
 3469SOL    HW213642   0.100   1.334   5.768 -0.2042  0.8575 -0.3299
 3469SOL    HW313643  -0.036   1.358   5.705 -1.0475  0.1269  1.1411
 3469SOL    MW413644   0.015   1.314   5.760 -0.3902 -0.4895  0.3774
 3470SOL     OW13645   4.890   5.867   5.644  0.5637 -0.0601 -0.0143
 3470SOL    HW213646   4.822   5.906   5.698  0.3093  1.4433 -1.3275
 3470SOL    HW313647   4.958   5.840   5.705  0.8933  2.7782  1.0295
 3470SOL    MW413648   4.890   5.869   5.659  0.1010  0.0318 -0.0687
 3471SOL     OW13649   1.025   2.888   5.841  0.0319 -0.1676  0.4221
 3471SOL    HW213650   0.978   2.866   5.761 -0.7436 -0.8794  1.0533
 3471SOL    HW313651   0.966   2.946   5.889 -0.8320 -2.0869  1.8127
 3471SOL    MW413652   1.011   2.892   5.837 -0.1555 -0.9733 -0.0075
 3472SOL     OW13653   4.380   0.690   3.437 -0.6018 -0.0954 -0.0408
 3472SOL    HW213654   4.451   0.627   3.449 -0.0343  0.5955  0.3431
 3472SOL    HW313655   4.385   0.747   3.514 -3.6095 -1.9378  1.7456
 3472SOL    MW413656   4.390   0.689   3.449 -0.0368 -0.4407  0.3685
 3473SOL     OW13657   4.443   1.337   3.260 -0.8835 -0.3448  0.6199
 3473SOL    HW213658   4.415   1.263   3.204 -0.4329  0.4693 -0.7371
 3473SOL    HW313659   4.377   1.404   3.244  0.3531  0.6386 -0.5683
 3473SOL    MW413660   4.431   1.336   3.250 -0.5695  0.1982 -0.3471
 3474SOL     OW13661   4.456   4.445   3.508 -0.1878  0.8451  0.1219
 3474SOL    HW213662   4.468   4.539   3.521  1.1765  0.6426  0.4777
 3474SOL    HW313663   4.496   4.405   3.585 -0.3762 -0.0470 -0.2366
 3474SOL    MW413664   4.463   4.452   3.520 -0.1056  0.4136  0.3206
 3475SOL     OW13665   2.863   6.222   4.288 -0.2098 -0.0218  0.0312
 3475SOL    HW213666   2.896   6.218   4.199 -0.8028  0.4418 -0.2091
 3475SOL    HW313667   2.805   6.298   4.290  0.0962  0.2119  0.9111
 3475SOL    MW413668   2.860   6.231   4.277  0.7358 -0.4156 -0.0624
 3476SOL     OW13669   1.106   5.901   0.029  0.0633  0.4178 -0.2339
 3476SOL    HW213670   1.076   5.901  -0.062 -2.5921  1.7450  0.5111
 3476SOL    HW313671   1.197   5.930   0.025  0.5204 -1.0768 -2.5389
 3476SOL    MW413672   1.114   5.905   0.017 -0.0730  0.6989  0.2658
 3477SOL     OW13673   2.910   5.438   5.095 -0.3658  0.4137  0.9426
 3477SOL    HW213674   2.996   5.464   5.061 -0.1545 -2.6718 -1.3406
 3477SOL    HW313675   2.847   5.486   5.041 -0.0130 -0.1928 -0.0435
 3477SOL    MW413676   2.913   5.448   5.083  0.3382  0.3699  0.2709
 3478SOL     OW13677   6.050   4.822   0.222  0.3288 -0.5597 -0.4025
 3478SOL    HW213678   6.088   4.908   0.240  0.3866 -1.0133  2.0073
 3478SOL    HW313679   5.956   4.836   0.219  0.3381 -0.4205  0.0131
 3478SOL    MW413680   6.043   4.835   0.224 -0.3135  0.4785 -0.2376
 3479SOL     OW13681   4.078   5.540   1.015 -0.5226  0.4440  0.9410
 3479SOL    HW213682   4.122   5.558   1.098 -0.0743  1.6462  0.4635
 3479SOL    HW313683   4.093   5.619   0.963 -0.6824 -0.3491 -0.3320
 3479SOL    MW413684   4.086   5.553   1.019 -0.1430 -0.3010  0.2509
 3480SOL     OW13685   3.712   5.345   5.611  0.0184 -0.5297 -0.1330
 3480SOL    HW213686   3.648   5.337   5.540 -0.0745 -0.6904 -0.0309
 3480SOL    HW313687   3.791   5.304   5.575  0.3863  0.6079 -0.6510
 3480SOL    MW413688   3.714   5.338   5.597  0.0523 -0.5653  0.6112
 3481SOL     OW13689   4.095   2.041   1.657  0.6911 -0.0460 -0.2556
 3481SOL    HW213690   4.157   1.982   1.701 -0.3888 -0.2286  1.0875
 3481SOL    HW313691   4.144   2.121   1.642  0.9087  0.3339  2.0856
 3481SOL    MW413692   4.110   2.044   1.661 -0.0340  0.0784 -0.3375
 3482SOL     OW13693   3.737   1.727   6.315  0.6111  0.2717  0.4069
 3482SOL    HW213694   3.696   1.709   6.230  1.8501 -0.2374 -0.1083
 3482SOL    HW313695   3.830   1.715   6.299  0.9231  0.9024  1.6737
 3482SOL    MW413696   3.744   1.723   6.302 -0.2638  0.4934  0.4715
 3483SOL     OW13697   5.395   1.149   2.436 -0.5441  0.1170 -0.0921
 3483SOL    HW213698   5.471   1.100   2.468 -0.9144  0.9529  2.3277
 3483SOL    HW313699   5.324   1.085   2.433 -0.6672  0.1373  1.5727
 3483SOL    MW413700   5.396   1.134   2.440 -0.1713 -0.0139 -0.3215
 3484SOL     OW13701   4.447   5.863   0.315  0.3320 -0.5963  0.2086
 3484SOL    HW213702   4.365   5.908   0.294  0.1350 -0.7796  0.5773
 3484SOL    HW313703   4.486   5.844   0.230  0.7424  0.8494  0.0440
 3484SOL    MW413704   4.442   5.867   0.301  0.0808 -0.8009 -0.4196
 3485SOL     OW13705   6.098   6.248   3.150 -0.3068 -0.3494  0.8047
 3485SOL    HW213706   6.143   6.230   3.067  0.0233 -0.9556  1.1078
 3485SOL    HW313707   6.109   6.342   3.163 -0.0127 -0.3194  0.3587
 3485SOL    MW413708   6.105   6.258   3.141 -0.0696 -0.5345 -0.1884
 3486SOL     OW13709   4.191   5.817   5.936 -0.2350 -0.0891  0.2398
 3486SOL    HW213710   4.231   5.860   5.861  0.5516  0.7840  1.1261
 3486SOL    HW313711   4.141   5.745   5.899 -0.6330  0.8927 -1.1909
 3486SOL    MW413712   4.190   5.813   5.921 -0.0658  0.1137  0.6021
 3487SOL     OW13713   5.711   1.439   4.234 -0.5649  0.3820 -0.3979
 3487SOL    HW213714   5.783   1.501   4.220 -1.2838  1.3383 -0.0289
 3487SOL    HW313715   5.719   1.376   4.162  3.3380 -2.3179  2.0493
 3487SOL    MW413716   5.722   1.439   4.222 -0.1134 -0.0923 -0.3812
 3488SOL     OW13717   3.004   2.142   0.681  0.5817  0.2658 -0.1995
 3488SOL    HW213718   3.027   2.213   0.621 -0.3636  1.0253  0.2982
 3488SOL    HW313719   3.033   2.063   0.637  2.7978  1.0374 -0.2140
 3488SOL    MW413720   3.011   2.141   0.667  0.2889  0.3683 -0.5001
 3489SOL     OW13721   4.429   6.265   5.185  0.0017  0.6550  0.6983
 3489SOL    HW213722   4.404   6.351   5.217 -1.8041 -0.1936  1.7453
 3489SOL    HW313723   4.437   6.275   5.090 -0.2137  1.9527  0.8100
 3489SOL    MW413724   4.427   6.277   5.177  0.2536 -0.2532  0.2785
 3490SOL     OW13725   3.596   3.681   5.320  0.8105 -0.6310 -0.7196
 3490SOL    HW213726   3.592   3.766   5.278  1.6598 -0.0427  0.3346
 3490SOL    HW313727   3.508   3.667   5.355  0.4638 -0.5370 -1.5482
 3490SOL    MW413728   3.584   3.690   5.319 -0.1369  0.3805  0.0935
 3491SOL     OW13729   5.488   0.189   5.553 -0.2317 -0.0338 -0.0655
 3491SOL    HW213730   5.493   0.199   5.648  2.4682  1.2173 -0.2336
 3491SOL    HW313731   5.568   0.232   5.520 -1.4194  0.1935 -2.9568
 3491SOL    MW413732   5.499   0.196   5.561  0.2365 -0.1826 -0.0052
 3492SOL     OW13733   5.015   3.442   1.753 -0.4555 -0.1050 -0.4807
 3492SOL    HW213734   4.919   3.441   1.748 -0.6441  1.3309  1.6007
 3492SOL    HW313735   5.034   3.389   1.831  0.4372 -0.2159 -0.7716
 3492SOL    MW413736   5.005   3.435   1.763 -0.9321  0.5926 -0.2966
 3493SOL     OW13737   4.665   5.617   0.760  0.4462 -0.6214  0.3984
 3493SOL    HW213738   4.578   5.653   0.746  0.4809 -0.5573  0.3498
 3493SOL    HW313739   4.709   5.679   0.818  0.3217 -0.8579  0.7507
 3493SOL    MW413740   4.660   5.630   0.766 -0.0363 -0.1065  0.0367
 3494SOL     OW13741   2.448   3.044   4.334 -0.9819  0.0410 -0.1332
 3494SOL    HW213742   2.464   3.138   4.325 -1.8757  0.0729 -1.8955
 3494SOL    HW313743   2.463   3.008   4.246 -1.3334 -1.3540  0.3403
 3494SOL    MW413744   2.452   3.051   4.321  0.3247  0.2404  0.0086
 3495SOL     OW13745   1.725   5.415   5.521 -0.4375  0.3444 -0.0102
 3495SOL    HW213746   1.797   5.396   5.461  1.1019 -0.1667  1.9102
 3495SOL    HW313747   1.688   5.329   5.542 -0.0412  0.3805  0.8577
 3495SOL    MW413748   1.730   5.401   5.516 -0.2964  0.4658  0.4131
 3496SOL     OW13749   3.926   1.208   3.052 -0.0394  0.5418  0.0191
 3496SOL    HW213750   3.985   1.163   3.112 -0.8518 -1.1755 -0.3712
 3496SOL    HW313751   3.842   1.209   3.098 -0.1946  1.0509 -0.2695
 3496SOL    MW413752   3.922   1.202   3.066 -0.2036  0.0367  0.1100
 3497SOL     OW13753   1.048   2.017   0.723  0.1879  0.2451  0.4115
 3497SOL    HW213754   1.096   2.099   0.728  1.5070 -0.5415  1.3078
 3497SOL    HW313755   1.015   2.002   0.812  1.6381 -1.1240  0.7680
 3497SOL    MW413756   1.050   2.026   0.736 -0.1649 -0.3242  0.3070
 3498SOL     OW13757   4.160   4.175   6.375 -0.1922  0.0950 -1.1387
 3498SOL    HW213758   4.077   4.140   6.342 -0.2564 -0.7667 -0.1012
 3498SOL    HW313759   4.197   4.105   6.427  0.0320  1.3020  0.4083
 3498SOL    MW413760   4.154   4.161   6.377 -0.3122 -0.1216  0.0949
 3499SOL     OW13761   0.230   0.873   0.800  0.1196  0.2058 -0.2042
 3499SOL    HW213762   0.201   0.906   0.715  1.9853  0.9450 -0.5927
 3499SOL    HW313763   0.293   0.804   0.779  0.2789  0.0993  0.5936
 3499SOL    MW413764   0.234   0.868   0.786 -0.0668  0.2647  0.7682
 3500SOL     OW13765   0.787   6.234   1.249 -0.0154 -0.0829  0.5601
 3500SOL    HW213766   0.779   6.163   1.312 -1.1106 -1.0020 -0.5798
 3500SOL    HW313767   0.725   6.300   1.278 -0.7182 -0.6237  0.3073
 3500SOL    MW413768   0.778   6.233   1.261 -0.2416  0.9341 -0.3923
 3501SOL     OW13769   4.260   4.241   3.609 -0.5800 -0.4505  0.2104
 3501SOL    HW213770   4.218   4.181   3.670  0.9717 -1.1983  0.5741
 3501SOL    HW313771   4.353   4.223   3.617 -0.2549  0.2630 -1.5204
 3501SOL    MW413772   4.267   4.231   3.618 -0.0084  0.2988 -0.0170
 3502SOL     OW13773   1.179   5.184   5.702 -0.2540  0.5916 -0.2266
 3502SOL    HW213774   1.249   5.133   5.661  0.1006  0.3927  0.5973
 3502SOL    HW313775   1.099   5.139   5.676  0.0089  0.0321 -0.0997
 3502SOL    MW413776   1.178   5.171   5.693 -0.1162 -0.4051  0.2365
 3503SOL     OW13777   0.369   5.763   5.922  0.7241  0.1948  0.5249
 3503SOL    HW213778   0.401   5.758   5.832  1.1546 -0.5883  0.7089
 3503SOL    HW313779   0.432   5.820   5.967  1.0653 -0.2030  0.5541
 3503SOL    MW413780   0.382   5.770   5.916 -0.8161  0.2465  0.2248
 3504SOL     OW13781   4.547   3.790   1.839  0.2046 -0.1964 -0.2567
 3504SOL    HW213782   4.484   3.815   1.772 -1.0289  1.1752  1.3381
 3504SOL    HW313783   4.495   3.749   1.908  0.8848  1.5715  1.3972
 3504SOL    MW413784   4.532   3.788   1.840  0.0121 -0.4509 -0.6271
 3505SOL     OW13785   0.359   4.846   5.275 -0.7842 -0.3853  0.0178
 3505SOL    HW213786   0.295   4.775   5.285 -0.6831 -0.2804  1.7902
 3505SOL    HW313787   0.307   4.926   5.290 -0.4572 -0.2347  0.3528
 3505SOL    MW413788   0.343   4.847   5.279 -0.3609  0.7653  0.3914
 3506SOL     OW13789   0.672   3.775   2.437  0.1635  0.0802  0.0231
 3506SOL    HW213790   0.629   3.844   2.488  0.1571  0.8394 -0.9858
 3506SOL    HW313791   0.603   3.739   2.382  0.1135 -0.9133  0.7107
 3506SOL    MW413792   0.657   3.780   2.437 -0.0929 -0.7349  0.3217
 3507SOL     OW13793   3.610   5.108   5.042  0.3160  0.2827  0.2434
 3507SOL    HW213794   3.601   5.201   5.062  1.3058 -0.1134  2.9693
 3507SOL    HW313795   3.703   5.089   5.058 -0.0227 -1.3259  0.4608
 3507SOL    MW413796   3.621   5.118   5.046  0.6199 -0.4357 -0.7046
 3508SOL     OW13797   1.799   0.742   3.603 -0.0025 -0.2428  0.1775
 3508SOL    HW213798   1.711   0.779   3.606  0.1003 -0.0754  2.1326
 3508SOL    HW313799   1.851   0.809   3.558 -0.7117 -0.0211 -0.3319
 3508SOL    MW413800   1.794   0.756   3.597  0.6324 -0.0081 -0.6064
 3509SOL     OW13801   1.955   4.142   3.657  0.1122  0.5062 -0.7593
 3509SOL    HW213802   1.964   4.209   3.590  0.0897  0.0939 -1.1831
 3509SOL    HW313803   1.949   4.190   3.740  0.1287  1.0177 -1.0549
 3509SOL    MW413804   1.955   4.157   3.659  0.1806 -0.3865  0.2723
 3510SOL     OW13805   4.462   1.871   4.042  0.4301 -0.5777  0.2583
 3510SOL    HW213806   4.377   1.858   4.001 -1.3179  1.9268  2.7103
 3510SOL    HW313807   4.499   1.947   3.998  1.7666 -1.9656 -1.1584
 3510SOL    MW413808   4.456   1.879   4.031  0.6501  0.4100  0.7313
 3511SOL     OW13809   5.664   2.820   1.579 -0.1197  0.1533  0.6499
 3511SOL    HW213810   5.757   2.823   1.598 -0.2318 -0.3895  1.3511
 3511SOL    HW313811   5.622   2.831   1.665 -0.6924  0.2145  0.3663
 3511SOL    MW413812   5.670   2.822   1.593 -0.1229 -0.6566  0.6111
 3512SOL     OW13813   4.342   3.291   5.031 -0.3384 -0.1749 -0.0263
 3512SOL    HW213814   4.353   3.234   5.107  0.7836 -0.1563 -0.1561
 3512SOL    HW313815   4.421   3.345   5.030  0.2390 -0.9678 -1.8626
 3512SOL    MW413816   4.354   3.291   5.041  0.2071  0.3360  0.2851
 3513SOL     OW13817   2.610   3.149   5.099  0.7450  0.1362 -0.0371
 3513SOL    HW213818   2.516   3.154   5.083 -0.0103 -2.7275  2.5298
 3513SOL    HW313819   2.647   3.117   5.017 -0.5332  0.9234 -0.9634
 3513SOL    MW413820   2.602   3.145   5.086  0.6883 -0.4815 -0.5441
 3514SOL     OW13821   2.340   5.649   4.482  0.5526  0.1316  0.0903
 3514SOL    HW213822   2.380   5.571   4.521  1.4727  1.0337  1.0286
 3514SOL    HW313823   2.410   5.686   4.428  0.1497  0.3523 -0.2781
 3514SOL    MW413824   2.355   5.643   4.480 -0.2609 -0.0498  0.4563
 3515SOL     OW13825   0.376   2.523   1.237 -0.2358 -0.1561  0.5899
 3515SOL    HW213826   0.461   2.525   1.282  0.7501 -0.2285 -1.1850
 3515SOL    HW313827   0.337   2.440   1.263  1.2988 -1.2207 -0.3729
 3515SOL    MW413828   0.382   2.512   1.246  0.0438  0.1706 -0.5215
 3516SOL     OW13829   4.961   4.774   1.965 -0.7432  0.1996 -0.5276
 3516SOL    HW213830   5.051   4.776   1.997 -0.9206 -1.3743  0.1562
 3516SOL    HW313831   4.908   4.762   2.043 -1.3984 -0.7980 -1.1051
 3516SOL    MW413832   4.966   4.773   1.980 -0.2848  0.1429  0.3193
 3517SOL     OW13833   4.575   5.636   3.127 -0.2232  0.3409  0.0217
 3517SOL    HW213834   4.570   5.547   3.091  0.7635  0.7900 -1.2873
 3517SOL    HW313835   4.488   5.673   3.112  0.0567  0.3799 -1.5844
 3517SOL    MW413836   4.563   5.629   3.121  0.8439 -0.0602 -0.8323
 3518SOL     OW13837   4.037   3.833   1.263 -0.1991  0.2137 -0.1523
 3518SOL    HW213838   3.946   3.804   1.272 -0.2683  0.8042  1.4472
 3518SOL    HW313839   4.044   3.908   1.322  1.3881  0.0414 -0.0800
 3518SOL    MW413840   4.026   3.839   1.272 -0.0505  0.4376 -0.0719
 3519SOL     OW13841   4.356   1.051   5.273 -0.1647 -0.4373  0.1390
 3519SOL    HW213842   4.296   1.047   5.199  0.4168 -0.1188 -0.3614
 3519SOL    HW313843   4.384   0.961   5.287  0.2068 -0.4171 -0.4427
 3519SOL    MW413844   4.352   1.039   5.265  0.5217  0.1726  0.0349
 3520SOL     OW13845   3.711   6.086   2.299  0.0673 -0.1291  0.1713
 3520SOL    HW213846   3.690   6.138   2.377  0.0511 -0.6082  0.4956
 3520SOL    HW313847   3.745   6.004   2.335  1.8024  0.3364 -0.3297
 3520SOL    MW413848   3.713   6.082   2.314  0.2097 -0.2813 -0.1588
 3521SOL     OW13849   6.314   4.645   6.283  0.3823 -0.1859 -0.1942
 3521SOL    HW213850   6.317   4.740   6.266 -0.0191  0.4570  2.6961
 3521SOL    HW313851   6.404   4.622   6.306  0.0870  0.0604  1.3501
 3521SOL    MW413852   6.326   4.655   6.284  0.0583  0.1887  0.1915
 3522SOL     OW13853   0.771   1.761   1.262  0.2327 -0.1229  0.1216
 3522SOL    HW213854   0.803   1.700   1.196 -1.0004 -0.5720 -0.1037
 3522SOL    HW313855   0.732   1.833   1.213 -0.7392 -0.4850  0.3356
 3522SOL    MW413856   0.770   1.762   1.247 -0.1397  0.6368 -0.4067
 3523SOL     OW13857   2.653   1.350   4.977  0.0573  0.4355  0.2094
 3523SOL    HW213858   2.612   1.392   5.053 -0.0828  0.2511  0.2363
 3523SOL    HW313859   2.698   1.274   5.012  1.0301  1.0340  0.2807
 3523SOL    MW413860   2.653   1.346   4.991  0.1326 -0.2780 -0.1043
 3524SOL     OW13861   3.722   5.664   3.919 -0.4024 -0.1629 -0.2648
 3524SOL    HW213862   3.739   5.662   4.013  1.6589 -1.3350 -0.6092
 3524SOL    HW313863   3.723   5.757   3.896  0.7285  0.0668  0.6247
 3524SOL    MW413864   3.724   5.676   3.929 -0.1026  0.4619  0.1073
 3525SOL     OW13865   1.238   5.856   2.429 -0.5523 -0.7750  0.6081
 3525SOL    HW213866   1.285   5.884   2.508  1.1635  1.7828 -1.1887
 3525SOL    HW313867   1.282   5.775   2.403  0.4439 -0.3879  1.0159
 3525SOL    MW413868   1.250   5.849   2.436  0.3255  0.2192 -0.1956
 3526SOL     OW13869   3.698   4.085   5.652 -0.4922  0.0015 -0.2714
 3526SOL    HW213870   3.743   4.156   5.698 -1.4658 -0.1190  0.9211
 3526SOL    HW313871   3.632   4.129   5.599 -0.5886  0.0287 -0.1280
 3526SOL    MW413872   3.695   4.100   5.651 -0.3262 -0.6122  0.1313
 3527SOL     OW13873   4.906   0.821   3.258  0.1124 -0.2992  0.3379
 3527SOL    HW213874   4.990   0.775   3.254 -1.3093 -3.0178 -0.5129
 3527SOL    HW313875   4.858   0.778   3.328 -0.7897  0.8493  0.4523
 3527SOL    MW413876   4.911   0.809   3.266  0.0322 -0.2824 -0.4572
 3528SOL     OW13877   2.392   2.604   1.141 -0.3850  0.3830 -0.2083
 3528SOL    HW213878   2.464   2.575   1.085  0.1549  1.1162  0.0879
 3528SOL    HW313879   2.320   2.545   1.120 -0.4753  1.1793 -2.3050
 3528SOL    MW413880   2.392   2.593   1.131  0.4378 -0.2448 -0.1476
 3529SOL     OW13881   0.757   2.640   0.654 -0.0250 -0.2132 -0.1274
 3529SOL    HW213882   0.845   2.655   0.620 -0.4570 -1.0321 -1.6780
 3529SOL    HW313883   0.699   2.660   0.580 -1.1631  0.4257  0.8981
 3529SOL    MW413884   0.761   2.645   0.640  0.1712  0.0727  0.5303
 3530SOL     OW13885   1.496   2.840   3.798 -0.0727  0.2018  0.0051
 3530SOL    HW213886   1.583   2.873   3.820  0.2171  0.0713 -0.8886
 3530SOL    HW313887   1.481   2.872   3.709 -0.4517 -0.7547 -0.2872
 3530SOL    MW413888   1.505   2.849   3.789  0.3438  0.3190  0.2780
 3531SOL     OW13889   5.233   3.072   3.154 -0.3789 -0.2123  0.1636
 3531SOL    HW213890   5.214   3.163   3.130 -1.1756 -0.1484  0.9882
 3531SOL    HW313891   5.291   3.079   3.230  1.4519 -0.4155 -1.1435
 3531SOL    MW413892   5.238   3.085   3.161  0.3916 -0.0171 -0.2687
 3532SOL     OW13893   0.477   5.457   1.689 -0.2712 -0.4698  0.3297
 3532SOL    HW213894   0.476   5.381   1.632 -3.4117 -1.3540  1.3685
 3532SOL    HW313895   0.493   5.421   1.776 -1.5803  0.0105  0.7999
 3532SOL    MW413896   0.479   5.443   1.693 -0.2429  0.2779  0.2631
 3533SOL     OW13897   3.337   1.359   0.505  0.1630  0.2314 -0.3121
 3533SOL    HW213898   3.291   1.322   0.429 -0.0627  0.7047 -0.4085
 3533SOL    HW313899   3.321   1.296   0.575  2.2085 -1.3884 -1.1848
 3533SOL    MW413900   3.329   1.346   0.504 -0.1649  0.3237 -0.2152
 3534SOL     OW13901   5.990   3.246   3.575  0.7462  0.4811  0.0459
 3534SOL    HW213902   5.901   3.231   3.606  0.3306  0.8298 -0.9296
 3534SOL    HW313903   5.980   3.265   3.481  1.8798  0.1761 -0.1516
 3534SOL    MW413904   5.977   3.247   3.566  0.0834  0.2764 -0.4145
 3535SOL     OW13905   2.304   3.375   0.914  0.0081 -0.1224 -0.1792
 3535SOL    HW213906   2.327   3.389   1.006 -0.3718  0.6415 -0.1941
 3535SOL    HW313907   2.248   3.296   0.915  0.1277 -0.2033  0.2235
 3535SOL    MW413908   2.299   3.366   0.926 -0.1619  0.5828  0.6382
 3536SOL     OW13909   1.789   4.391   1.545  0.1265  0.1479  0.4757
 3536SOL    HW213910   1.858   4.391   1.611 -0.9906 -2.3275  1.8095
 3536SOL    HW313911   1.810   4.316   1.489 -0.4340  0.5511 -0.2895
 3536SOL    MW413912   1.801   4.381   1.546  0.4571 -0.2860 -0.3575
 3537SOL     OW13913   1.952   2.361   1.256 -0.3381 -0.3147 -0.1639
 3537SOL    HW213914   1.870   2.372   1.305  0.1672  2.4227  0.1824
 3537SOL    HW313915   2.020   2.395   1.314  0.7993 -0.6763 -1.2405
 3537SOL    MW413916   1.950   2.367   1.270 -0.4426 -0.4820  0.3593
 3538SOL     OW13917   6.102   5.467   1.463  0.5511  0.3025 -0.1476
 3538SOL    HW213918   6.181   5.413   1.464  2.3924  2.7925 -1.2959
 3538SOL    HW313919   6.075   5.468   1.372 -1.4861 -1.2859  0.3595
 3538SOL    MW413920   6.109   5.460   1.451  0.5396  0.2887  0.2843
 3539SOL     OW13921   4.694   3.543   5.312  0.7354 -0.0863  0.1579
 3539SOL    HW213922   4.754   3.472   5.287 -0.3186 -0.9302 -0.0699
 3539SOL    HW313923   4.714   3.560   5.404  2.1498  0.5066 -0.2340
 3539SOL    MW413924   4.705   3.536   5.321 -0.5608  0.2341 -0.3900
 3540SOL     OW13925   3.845   4.256   5.801 -0.3550  0.2782  0.0089
 3540SOL    HW213926   3.872   4.236   5.890 -1.4789 -1.6896 -0.0538
 3540SOL    HW313927   3.927   4.261   5.752  0.1385 -2.2455  0.4644
 3540SOL    MW413928   3.860   4.254   5.806 -0.0714  0.0423  0.0152
 3541SOL     OW13929   4.145   1.677   4.213  0.4905  0.5207 -0.2650
 3541SOL    HW213930   4.116   1.747   4.271  1.8762  1.3663 -0.5489
 3541SOL    HW313931   4.071   1.616   4.210 -1.1881  2.4744 -0.8730
 3541SOL    MW413932   4.132   1.678   4.220  0.2779  0.1376  0.4567
 3542SOL     OW13933   6.400   5.208   2.588  0.5194 -0.0662 -0.6266
 3542SOL    HW213934   6.459   5.174   2.521  0.0840  0.3341 -1.2244
 3542SOL    HW313935   6.427   5.299   2.599  1.3127 -0.4243  0.5543
 3542SOL    MW413936   6.411   5.216   2.580  0.2528  0.2240  0.0726
 3543SOL     OW13937   5.457   1.964   1.938  0.2981  0.2295  0.2834
 3543SOL    HW213938   5.474   2.034   1.876  1.2949 -1.5191 -1.5408
 3543SOL    HW313939   5.428   2.008   2.017 -1.9596  2.5329 -1.6743
 3543SOL    MW413940   5.456   1.979   1.940  0.0925  0.3905  0.2988
 3544SOL     OW13941   3.598   1.078   3.873  0.0070 -0.2276 -0.4579
 3544SOL    HW213942   3.545   1.100   3.797 -0.7672  1.9357  0.6172
 3544SOL    HW313943   3.680   1.125   3.861 -0.6005  1.1754  0.5750
 3544SOL    MW413944   3.602   1.087   3.862  0.6115  0.1163  0.2875
 3545SOL     OW13945   3.196   0.615   5.682  0.5037 -0.2538  0.3998
 3545SOL    HW213946   3.201   0.646   5.592  0.6944  2.6107  1.3166
 3545SOL    HW313947   3.107   0.581   5.690  0.3045 -0.0352 -0.7085
 3545SOL    MW413948   3.185   0.614   5.671  0.7952 -0.3671  0.3211
 3546SOL     OW13949   0.499   2.370   4.874 -0.3655 -0.2101 -0.2444
 3546SOL    HW213950   0.419   2.324   4.899 -0.3185 -0.9148 -1.3501
 3546SOL    HW313951   0.547   2.309   4.819 -0.0102  0.9234 -1.2505
 3546SOL    MW413952   0.495   2.356   4.870 -0.1188 -0.1477  0.2538
 3547SOL     OW13953   0.026   5.003   1.259  0.0514 -0.5751  0.0956
 3547SOL    HW213954   0.099   4.958   1.300  0.9430  0.3411 -0.4427
 3547SOL    HW313955   0.066   5.065   1.198 -1.1505  0.2659  0.1049
 3547SOL    MW413956   0.041   5.005   1.256 -0.1549 -0.3336  1.0211
 3548SOL     OW13957   4.508   2.483   2.212 -0.0764  0.1249  0.0548
 3548SOL    HW213958   4.531   2.488   2.305  2.1734  0.6929 -0.4858
 3548SOL    HW313959   4.458   2.562   2.195  1.7519  1.3876  0.2562
 3548SOL    MW413960   4.504   2.494   2.222  0.0308  0.0343 -0.1500
 3549SOL     OW13961   3.826   3.556   0.993 -0.0344 -0.6050  0.1945
 3549SOL    HW213962   3.804   3.469   0.959 -0.3022 -0.0265 -1.1383
 3549SOL    HW313963   3.892   3.538   1.061  0.4217 -1.8059 -0.5215
 3549SOL    MW413964   3.832   3.542   0.998 -0.4702 -0.3741  0.2387
 3550SOL     OW13965   5.841   4.380   3.947  0.3960  0.2197 -0.0805
 3550SOL    HW213966   5.898   4.456   3.938  1.0542 -0.4431 -2.3289
 3550SOL    HW313967   5.861   4.326   3.870 -0.6967 -1.7935  0.9564
 3550SOL    MW413968   5.851   4.383   3.935  0.0343  0.7186  0.6490
 3551SOL     OW13969   1.560   5.110   3.315 -0.3458 -0.8574 -0.7003
 3551SOL    HW213970   1.629   5.048   3.290  0.6034  0.1411 -0.6299
 3551SOL    HW313971   1.594   5.152   3.394 -1.3544 -0.8311 -0.2698
 3551SOL    MW413972   1.574   5.107   3.322 -0.1715  0.4079  0.0329
 3552SOL     OW13973   4.711   1.447   3.255 -0.2652  0.0563 -0.1654
 3552SOL    HW213974   4.631   1.417   3.298  0.0437 -0.1898  0.2365
 3552SOL    HW313975   4.680   1.488   3.174 -0.7408 -0.8083 -0.4310
 3552SOL    MW413976   4.696   1.448   3.250  0.2234 -0.0593 -0.1665
 3553SOL     OW13977   2.897   2.550   2.087  0.4137  0.2449  0.0905
 3553SOL    HW213978   2.871   2.458   2.076  0.4886 -0.0209  1.7861
 3553SOL    HW313979   2.824   2.590   2.134  0.5336  0.9876 -0.3401
 3553SOL    MW413980   2.884   2.543   2.092  0.1010 -0.1954 -0.4482
 3554SOL     OW13981   0.572   4.895   5.447  0.0549  0.1656  0.2425
 3554SOL    HW213982   0.514   4.858   5.380  1.7338 -1.3247 -0.4944
 3554SOL    HW313983   0.561   4.990   5.439 -0.2875  0.0067 -1.7139
 3554SOL    MW413984   0.563   4.902   5.437 -0.3498 -0.3155 -0.4115
 3555SOL     OW13985   4.090   1.701   2.534  0.2507 -0.3833  0.7496
 3555SOL    HW213986   4.095   1.606   2.538  0.3795 -0.4065  0.1006
 3555SOL    HW313987   3.998   1.720   2.511  0.2372 -0.3512  0.8281
 3555SOL    MW413988   4.078   1.691   2.532 -0.1486  0.2748 -0.2537
 3556SOL     OW13989   3.054   3.426   1.580  0.4841 -0.4492  0.2267
 3556SOL    HW213990   3.124   3.456   1.637 -0.1238 -0.6728  1.1155
 3556SOL    HW313991   3.091   3.430   1.492  2.1479 -2.1212  0.8013
 3556SOL    MW413992   3.068   3.430   1.576  0.0458  0.4373 -0.1720
 3557SOL     OW13993   3.589   5.117   1.568  0.5461  0.5671 -0.8145
 3557SOL    HW213994   3.508   5.095   1.522  1.1981 -0.2479 -1.6092
 3557SOL    HW313995   3.658   5.098   1.505  1.6129 -2.2766  1.0337
 3557SOL    MW413996   3.588   5.111   1.553  0.0615  0.5164  0.0210
 3558SOL     OW13997   5.259   3.364   1.632  0.6159 -0.2870  0.3630
 3558SOL    HW213998   5.259   3.320   1.547 -0.2672 -0.1564  0.2806
 3558SOL    HW313999   5.172   3.404   1.638  1.4366  1.5898  0.3746
 3558SOL    MW414000   5.247   3.363   1.622  0.0182  0.1681 -0.3286
 3559SOL     OW14001   1.599   3.222   5.576 -0.1614 -0.3430  0.5041
 3559SOL    HW214002   1.677   3.168   5.593 -0.6218 -0.5116  2.2631
 3559SOL    HW314003   1.623   3.275   5.501  1.3857 -0.9316  0.5413
 3559SOL    MW414004   1.613   3.222   5.568  0.0185  0.1426 -0.0930
 3560SOL     OW14005   3.341   2.752   1.925 -0.0583  0.0003  0.0726
 3560SOL    HW214006   3.381   2.748   2.012 -0.1687 -1.3253  0.0861
 3560SOL    HW314007   3.394   2.693   1.872  0.3791  1.2595 -0.9355
 3560SOL    MW414008   3.353   2.743   1.930  0.0963 -0.4909 -0.2030
 3561SOL     OW14009   3.844   3.264   1.003  0.4304  0.0302 -1.0081
 3561SOL    HW214010   3.932   3.235   0.978  1.1837 -0.4988  1.8443
 3561SOL    HW314011   3.843   3.258   1.099 -2.0357  2.0548 -0.7962
 3561SOL    MW414012   3.855   3.259   1.013  0.2693  0.7837 -0.6466
 3562SOL     OW14013   2.980   3.051   5.609  0.3005  1.2282  0.4735
 3562SOL    HW214014   3.012   2.964   5.583 -0.3803  1.3171 -0.7509
 3562SOL    HW314015   3.006   3.059   5.701 -0.4516 -0.6702  0.9080
 3562SOL    MW414016   2.988   3.041   5.617  0.1518 -0.6629  0.1076
 3563SOL     OW14017   0.576   3.640   2.807 -0.0465 -0.3767 -0.5676
 3563SOL    HW214018   0.655   3.693   2.803 -1.4804  2.2099  1.8847
 3563SOL    HW314019   0.527   3.664   2.729 -0.3831  1.5258  0.1848
 3563SOL    MW414020   0.580   3.650   2.796  0.2270 -0.4842  0.1131
 3564SOL     OW14021   3.918   4.362   5.109  0.2014  0.4446 -0.1938
 3564SOL    HW214022   3.996   4.336   5.060 -2.3783 -3.4868 -2.8425
 3564SOL    HW314023   3.858   4.398   5.043 -1.4805 -0.0229  0.9950
 3564SOL    MW414024   3.920   4.363   5.094 -0.0162 -0.2398 -0.0509
 3565SOL     OW14025   3.795   0.689   4.742 -0.3055  0.1726 -0.1048
 3565SOL    HW214026   3.786   0.685   4.837  1.2611 -0.3189  0.0494
 3565SOL    HW314027   3.750   0.611   4.709  0.6962 -0.6127  0.3714
 3565SOL    MW414028   3.788   0.678   4.750 -0.4337 -0.0041 -0.3271
 3566SOL     OW14029   1.474   2.551   5.051 -0.0318 -0.2776 -0.2248
 3566SOL    HW214030   1.419   2.530   5.127  0.0467  0.3645  0.0183
 3566SOL    HW314031   1.528   2.473   5.039 -1.3356 -1.1205 -0.7844
 3566SOL    MW414032   1.474   2.538   5.060 -0.2579 -0.0468 -0.7967
 3567SOL     OW14033   0.538   3.193   2.787 -0.3524  0.2784  0.5493
 3567SOL    HW214034   0.461   3.148   2.752 -0.3174  1.2649 -0.8886
 3567SOL    HW314035   0.595   3.206   2.711  1.0056  0.0614  1.4874
 3567SOL    MW414036   0.535   3.189   2.773  0.0712  0.2461  0.1062
 3568SOL     OW14037   5.678   5.047   4.077 -0.2356  0.9788 -0.0231
 3568SOL    HW214038   5.613   4.982   4.050 -0.5483  1.6153 -0.8551
 3568SOL    HW314039   5.721   5.073   3.996  1.1711  0.4830  0.5320
 3568SOL    MW414040   5.675   5.042   4.063 -0.0980 -0.1334 -0.0770
 3569SOL     OW14041   2.460   6.208   5.164 -0.0262  0.7910 -0.1777
 3569SOL    HW214042   2.417   6.223   5.248  0.4439  1.3532 -0.0296
 3569SOL    HW314043   2.398   6.242   5.099 -1.3432 -1.5153 -0.2636
 3569SOL    MW414044   2.446   6.215   5.167 -0.0241  0.3549  0.1013
 3570SOL     OW14045   4.677   4.162   0.249  0.0055  0.2223  0.1533
 3570SOL    HW214046   4.617   4.131   0.316  0.4630  1.5924  1.2385
 3570SOL    HW314047   4.659   4.107   0.173 -1.0593 -0.8481  1.1533
 3570SOL    MW414048   4.667   4.151   0.248  0.1571  0.0971  0.0431
 3571SOL     OW14049   6.102   5.847   3.515 -0.2256  0.4560 -0.3428
 3571SOL    HW214050   6.061   5.918   3.565 -0.2243  1.0336 -1.1380
 3571SOL    HW314051   6.045   5.772   3.528 -0.1155  0.5401  0.6882
 3571SOL    MW414052   6.089   5.847   3.523 -0.2362 -0.2846  0.7142
 3572SOL     OW14053   5.200   5.687   2.827  0.3689 -0.0158 -0.1087
 3572SOL    HW214054   5.179   5.702   2.919 -1.1423 -0.8339 -0.2909
 3572SOL    HW314055   5.295   5.696   2.822  0.3542  1.3204  1.2746
 3572SOL    MW414056   5.210   5.690   2.838  0.0424  0.0293 -0.0674
 3573SOL     OW14057   3.571   5.859   0.236 -0.4356 -0.5859  0.2928
 3573SOL    HW214058   3.499   5.839   0.295 -0.4710 -1.2954  0.0138
 3573SOL    HW314059   3.536   5.843   0.148  0.5209 -2.5596  0.2109
 3573SOL    MW414060   3.557   5.854   0.232 -0.0973  0.1414  0.1222
 3574SOL     OW14061   4.470   0.518   1.872 -0.0892 -0.7019 -0.1780
 3574SOL    HW214062   4.526   0.555   1.803 -0.1803  1.2798  0.7590
 3574SOL    HW314063   4.384   0.507   1.831  0.6404 -2.8245 -1.3327
 3574SOL    MW414064   4.466   0.521   1.857  0.5536 -0.0891 -0.0123
 3575SOL     OW14065   0.663   4.969   4.460 -0.1604 -0.3829 -0.0822
 3575SOL    HW214066   0.626   5.016   4.385  0.0899 -0.5582 -0.3166
 3575SOL    HW314067   0.702   4.891   4.422 -0.5883 -0.7910  0.3082
 3575SOL    MW414068   0.663   4.965   4.445  0.0986 -0.3823  0.1123
 3576SOL     OW14069   0.736   2.594   2.781 -0.1880 -0.7864  0.2630
 3576SOL    HW214070   0.759   2.504   2.805 -0.3753 -0.3262  2.4328
 3576SOL    HW314071   0.642   2.599   2.797 -0.4406 -0.5725 -1.2119
 3576SOL    MW414072   0.727   2.583   2.786 -0.6187  0.4892  0.1689
 3577SOL     OW14073   3.451   2.812   4.595  0.0173  0.4620 -0.5565
 3577SOL    HW214074   3.483   2.751   4.529 -0.2621  0.2490 -0.4999
 3577SOL    HW314075   3.502   2.892   4.581  1.1535 -0.1416  0.0844
 3577SOL    MW414076   3.462   2.815   4.584  0.0224  0.4916  0.0587
 3578SOL     OW14077   5.370   3.675   2.813 -0.3029 -0.7755  0.5392
 3578SOL    HW214078   5.371   3.598   2.756 -1.0487  0.3151 -1.0064
 3578SOL    HW314079   5.284   3.714   2.798  0.2358  0.6116  0.9625
 3578SOL    MW414080   5.359   3.670   2.804  0.2059 -0.2451 -0.2769
 3579SOL     OW14081   5.745   0.263   5.446 -0.0449 -0.0869 -0.1030
 3579SOL    HW214082   5.741   0.193   5.380  1.3027 -0.8967  0.6305
 3579SOL    HW314083   5.802   0.228   5.514  0.3757  1.6020  0.4530
 3579SOL    MW414084   5.752   0.249   5.446  0.2978 -0.2581 -0.6654
 3580SOL     OW14085   1.966   4.171   4.707  0.5334 -0.0294 -0.1759
 3580SOL    HW214086   1.972   4.258   4.748 -0.4606 -0.0895  0.1058
 3580SOL    HW314087   1.874   4.160   4.687  0.2254 -1.9509  1.8496
 3580SOL    MW414088   1.955   4.181   4.710 -0.3191 -0.4348 -0.1446
 3581SOL     OW14089   1.568   6.339   2.817 -0.2375 -0.7319  0.0945
 3581SOL    HW214090   1.641   6.350   2.755  0.5110  0.2694  1.1163
 3581SOL    HW314091   1.489   6.352   2.764  0.3578 -0.8298 -0.8330
 3581SOL    MW414092   1.567   6.342   2.802 -0.7573  0.7429  0.0231
 3582SOL     OW14093   3.180   1.911   5.304  0.6969  0.3583  0.0867
 3582SOL    HW214094   3.200   1.923   5.211 -0.1467  3.8241  0.2415
 3582SOL    HW314095   3.202   1.994   5.345 -1.6519 -0.0765  2.5030
 3582SOL    MW414096   3.186   1.923   5.297  0.0329 -1.0376 -0.5101
 3583SOL     OW14097   4.728   2.163   2.414  0.2223  0.7965 -0.2117
 3583SOL    HW214098   4.690   2.109   2.484  0.1665  1.7629  0.5280
 3583SOL    HW314099   4.777   2.101   2.360 -0.6419 -0.1426  0.0477
 3583SOL    MW414100   4.730   2.148   2.416 -0.0451  0.2585 -0.1888
 3584SOL     OW14101   2.293   0.520   0.001 -0.3455  0.7756  0.0067
 3584SOL    HW214102   2.203   0.495   0.024  0.6151 -3.1276  0.1313
 3584SOL    HW314103   2.346   0.488   0.074  1.4495  0.0210 -1.5711
 3584SOL    MW414104   2.288   0.512   0.014 -0.1580 -0.0087 -0.0183
 3585SOL     OW14105   2.043   5.895   4.421 -0.2758 -0.0740 -0.4186
 3585SOL    HW214106   2.045   5.989   4.434 -1.1779 -0.1482  0.3838
 3585SOL    HW314107   2.095   5.859   4.492 -0.0804 -0.1863 -0.6186
 3585SOL    MW414108   2.050   5.903   4.432 -0.1735  0.1441 -0.1364
 3586SOL     OW14109   5.091   2.253   0.318 -0.2320 -0.0494  0.3849
 3586SOL    HW214110   5.096   2.298   0.402 -1.8204  1.3663 -0.2262
 3586SOL    HW314111   5.146   2.305   0.259 -2.5924  1.6127 -0.4881
 3586SOL    MW414112   5.099   2.266   0.321 -0.2070  0.2949  0.2406
 3587SOL     OW14113   5.498   5.636   2.617 -0.4130 -0.5248 -0.3029
 3587SOL    HW214114   5.562   5.594   2.674 -0.3597 -0.9485 -0.6665
 3587SOL    HW314115   5.492   5.726   2.649  0.4887 -0.4330 -0.3655
 3587SOL    MW414116   5.506   5.642   2.629  0.0562 -0.6557 -0.1376
 3588SOL     OW14117   3.019   0.687   5.951  0.3706 -1.0171  0.2511
 3588SOL    HW214118   3.029   0.766   5.898 -0.2020 -0.5664  0.7872
 3588SOL    HW314119   3.107   0.666   5.980  0.4294 -0.0151  0.8679
 3588SOL    MW414120   3.032   0.695   5.948 -0.1177 -0.8303  0.3303
 3589SOL     OW14121   1.446   5.835   1.477  0.3505  0.2330 -0.6001
 3589SOL    HW214122   1.351   5.849   1.480  0.2685 -0.3886  0.0381
 3589SOL    HW314123   1.460   5.792   1.393  0.2335  1.4322 -1.2447
 3589SOL    MW414124   1.435   5.831   1.466 -0.0378 -0.1559  0.0790
 3590SOL     OW14125   1.344   2.561   2.462 -0.5268  0.3830  0.1099
 3590SOL    HW214126   1.416   2.541   2.522 -0.0289 -0.9424 -0.8816
 3590SOL    HW314127   1.385   2.614   2.393 -0.7979  0.7613  0.2396
 3590SOL    MW414128   1.359   2.566   2.461 -0.0430  0.3504  0.3475
 3591SOL     OW14129   2.092   0.499   3.002  0.3238  0.8712  0.4520
 3591SOL    HW214130   2.080   0.442   2.927 -1.6894  0.2313  1.1984
 3591SOL    HW314131   2.056   0.584   2.975 -0.6042  0.5805  0.7304
 3591SOL    MW414132   2.085   0.503   2.989  0.1839  0.5473 -0.0376
 3592SOL     OW14133   0.614   4.006   0.455 -0.0669 -0.7209 -0.4879
 3592SOL    HW214134   0.665   3.928   0.431  2.2109  0.4069  0.4416
 3592SOL    HW314135   0.662   4.079   0.415 -1.3151  0.3634 -0.0757
 3592SOL    MW414136   0.627   4.005   0.446 -1.0827 -0.3009  0.5805
 3593SOL     OW14137   0.605   5.850   6.067  0.4400 -0.3758 -0.7804
 3593SOL    HW214138   0.653   5.879   5.989 -0.4949  0.5769 -1.0384
 3593SOL    HW314139   0.594   5.930   6.119 -1.4943 -0.3763 -1.1061
 3593SOL    MW414140   0.610   5.865   6.063  0.3564  0.2775 -0.2251
 3594SOL     OW14141   6.403   0.115   4.373  0.0772 -0.1245  0.2477
 3594SOL    HW214142   6.364   0.102   4.460 -1.4872 -0.8722 -0.5296
 3594SOL    HW314143   6.443   0.030   4.353 -0.3588 -0.2454 -0.1304
 3594SOL    MW414144   6.403   0.102   4.382 -0.2486  0.3419 -0.1549
 3595SOL     OW14145   0.429   3.405   2.935  0.2466  0.3469 -0.4513
 3595SOL    HW214146   0.480   3.475   2.894 -0.1128  1.0817  0.3234
 3595SOL    HW314147   0.466   3.324   2.899 -0.0224  0.9477 -2.1724
 3595SOL    MW414148   0.441   3.404   2.925  0.6203  0.0274  0.0456
 3596SOL     OW14149   0.412   1.421   4.704  0.4990 -0.7218  0.2305
 3596SOL    HW214150   0.413   1.387   4.793  1.6467  0.0864  0.5460
 3596SOL    HW314151   0.326   1.395   4.669 -0.8839  0.7663  2.2766
 3596SOL    MW414152   0.401   1.413   4.711 -0.5378 -0.2217  0.5504
 3597SOL     OW14153   5.277   6.398   4.533  0.8029 -0.1477 -0.0187
 3597SOL    HW214154   5.267   6.493   4.525 -1.3355 -0.3394 -0.2481
 3597SOL    HW314155   5.327   6.386   4.613 -0.0078  1.1716  0.7292
 3597SOL    MW414156   5.282   6.409   4.543  0.5084  0.4351  0.1619
 3598SOL     OW14157   6.399   5.089   2.162  0.1873 -0.4475 -0.1226
 3598SOL    HW214158   6.341   5.018   2.191  0.6124 -1.2637 -1.2191
 3598SOL    HW314159   6.433   5.059   2.078  1.2412  0.5744 -0.0764
 3598SOL    MW414160   6.395   5.076   2.155  0.6849 -0.6517  0.0086
 3599SOL     OW14161   0.546   2.683   5.254  0.3639 -0.2910  0.3324
 3599SOL    HW214162   0.510   2.682   5.166  0.5189 -1.0351  0.2712
 3599SOL    HW314163   0.477   2.646   5.309 -0.1098  1.0544  0.6866
 3599SOL    MW414164   0.532   2.678   5.250 -0.4344 -0.2328  0.4743
 3600SOL     OW14165   5.054   3.564   5.192  0.8495 -0.2104 -0.0147
 3600SOL    HW214166   5.134   3.565   5.244  0.4860 -0.0220  0.5558
 3600SOL    HW314167   5.029   3.656   5.183  0.1602 -0.3176  0.6732
 3600SOL    MW414168   5.061   3.576   5.198 -0.1270  0.1503  0.5849
 3601SOL     OW14169   3.883   5.310   0.685 -0.4996  0.6827  0.1762
 3601SOL    HW214170   3.866   5.360   0.764  0.1102  0.0767  0.7088
 3601SOL    HW314171   3.979   5.302   0.682 -0.5722 -0.2226 -0.0334
 3601SOL    MW414172   3.894   5.316   0.695 -0.3312  0.7182 -0.1591
 3602SOL     OW14173   5.784   4.063   4.555 -0.2579  0.5477  0.0995
 3602SOL    HW214174   5.851   4.038   4.491 -0.5744  0.7147 -0.2946
 3602SOL    HW314175   5.717   4.108   4.504 -1.6815 -1.4034  0.1400
 3602SOL    MW414176   5.784   4.065   4.540 -0.7493  0.3659 -0.1986
 3603SOL     OW14177   4.059   2.458   4.049 -0.1383  0.2363  0.1289
 3603SOL    HW214178   4.049   2.456   3.954  0.0436  1.7967  0.0619
 3603SOL    HW314179   3.988   2.514   4.079  0.0878  0.1256  0.8828
 3603SOL    MW414180   4.048   2.465   4.040  0.5900  0.3077 -0.2306
 3604SOL     OW14181   5.141   4.905   4.470 -0.4972  0.3141  0.2722
 3604SOL    HW214182   5.067   4.906   4.531 -0.6960  1.0546  0.0283
 3604SOL    HW314183   5.125   4.980   4.412  0.3366  0.3524  0.0859
 3604SOL    MW414184   5.129   4.915   4.471 -0.5070 -0.1291 -0.2449
 3605SOL     OW14185   0.786   3.812   3.941  0.8320  0.2982  0.3275
 3605SOL    HW214186   0.707   3.832   3.990  1.0509  0.7410  0.5072
 3605SOL    HW314187   0.824   3.898   3.919  1.4916  0.0956  0.6313
 3605SOL    MW414188   0.781   3.826   3.945  0.1295 -0.4316  0.4347
 3606SOL     OW14189   3.983   1.083   5.704  0.6145 -0.4589  0.3132
 3606SOL    HW214190   4.028   1.095   5.787 -0.1824  1.0096  0.5813
 3606SOL    HW314191   3.891   1.102   5.724 -0.2404 -3.5511 -0.1640
 3606SOL    MW414192   3.977   1.087   5.718  0.1616 -0.1952 -0.4177
 3607SOL     OW14193   1.238   2.909   3.933 -0.2188  0.0469 -0.0666
 3607SOL    HW214194   1.236   3.004   3.949 -0.6189 -0.1090  0.8680
 3607SOL    HW314195   1.325   2.893   3.896  0.2403  0.6342  0.7334
 3607SOL    MW414196   1.249   2.920   3.930  0.0416  0.0402 -0.2077
 3608SOL     OW14197   6.112   0.410   0.003 -0.3357 -0.0917 -0.0204
 3608SOL    HW214198   6.020   0.438   0.011  0.3472  2.3154  0.2114
 3608SOL    HW314199   6.142   0.401   0.094 -0.1506 -0.2614 -0.0970
 3608SOL    MW414200   6.104   0.412   0.016 -0.0319  0.3628  0.5595
 3609SOL     OW14201   4.737   1.840   1.296  0.3315  0.2794 -0.1696
 3609SOL    HW214202   4.713   1.917   1.347  1.3142  1.2716 -1.1587
 3609SOL    HW314203   4.741   1.870   1.206  1.8706 -0.6227 -0.4447
 3609SOL    MW414204   4.735   1.854   1.291  0.4969 -0.5699 -0.0767
 3610SOL     OW14205   4.878   5.420   2.329 -0.4214  0.3329  0.0078
 3610SOL    HW214206   4.858   5.337   2.372  0.1216  1.2614  2.1721
 3610SOL    HW314207   4.970   5.411   2.304  0.0200  0.7214  1.4051
 3610SOL    MW414208   4.888   5.408   2.331  0.0761 -0.1353 -0.0526
 3611SOL     OW14209   5.966   2.182   3.254 -0.3314  0.0885  0.9379
 3611SOL    HW214210   5.954   2.262   3.203 -1.2298  0.5843  1.8798
 3611SOL    HW314211   5.919   2.199   3.336  2.8151  0.1747  2.8996
 3611SOL    MW414212   5.958   2.195   3.258 -0.1018 -0.2156 -0.3632
 3612SOL     OW14213   0.554   1.274   5.930  0.6074 -0.5358  0.6578
 3612SOL    HW214214   0.504   1.249   5.853  0.6877 -0.4650  0.5836
 3612SOL    HW314215   0.632   1.317   5.896  0.6202 -0.4615  0.7789
 3612SOL    MW414216   0.558   1.276   5.916 -0.0052 -0.7420  0.5398
 3613SOL     OW14217   3.022   1.535   4.199  0.0631 -0.3609 -0.3840
 3613SOL    HW214218   3.013   1.532   4.104  1.7180  0.6746 -0.6175
 3613SOL    HW314219   2.934   1.551   4.231 -0.3904  0.1528 -1.8039
 3613SOL    MW414220   3.009   1.536   4.191  0.4966 -0.1766  0.1333
 3614SOL     OW14221   2.317   4.987   3.427 -0.6344 -0.3711 -0.2675
 3614SOL    HW214222   2.278   4.915   3.478  0.4402  1.1895  3.0114
 3614SOL    HW314223   2.368   5.036   3.490  2.6713  0.5615 -3.3483
 3614SOL    MW414224   2.318   4.984   3.442  0.1443  0.6275  0.5272
 3615SOL     OW14225   3.169   2.110   6.059  0.2506 -0.5849  0.8653
 3615SOL    HW214226   3.144   2.183   6.002 -1.5389 -1.2628  0.7013
 3615SOL    HW314227   3.181   2.151   6.145  0.5399  0.0867  0.5127
 3615SOL    MW414228   3.167   2.125   6.063  0.0439  0.3553 -0.2103
 3616SOL     OW14229   4.343   1.633   5.565  0.3626 -0.3598  0.1457
 3616SOL    HW214230   4.412   1.570   5.546 -0.8598 -1.1155 -2.1363
 3616SOL    HW314231   4.312   1.661   5.479 -0.9349  1.3481  1.1183
 3616SOL    MW414232   4.348   1.628   5.551  0.1218  0.4072  0.7497
 3617SOL     OW14233   3.885   3.680   4.258 -0.2146 -0.4732 -0.3810
 3617SOL    HW214234   3.828   3.660   4.332  0.7891 -0.7620  0.3259
 3617SOL    HW314235   3.936   3.756   4.287 -0.4900  0.0232 -1.1559
 3617SOL    MW414236   3.884   3.688   4.272  0.1750  0.0370 -0.2091
 3618SOL     OW14237   2.780   0.791   0.859  0.1175  0.1573 -0.0715
 3618SOL    HW214238   2.842   0.816   0.790 -2.4456  1.1683 -2.1986
 3618SOL    HW314239   2.730   0.719   0.820 -1.5007  0.8481  0.6384
 3618SOL    MW414240   2.781   0.784   0.845 -0.1684 -1.0749  1.0757
 3619SOL     OW14241   5.242   2.789   4.185 -0.4920 -0.5673 -0.1129
 3619SOL    HW214242   5.295   2.826   4.255  1.9655  0.1722 -2.1674
 3619SOL    HW314243   5.305   2.739   4.132 -1.9162 -0.0724 -2.4450
 3619SOL    MW414244   5.257   2.787   4.187  0.0132  0.2976 -0.0686
 3620SOL     OW14245   4.331   1.102   3.161 -0.6766  0.3346 -0.5211
 3620SOL    HW214246   4.371   1.041   3.223 -2.4941 -1.8666 -1.3902
 3620SOL    HW314247   4.242   1.114   3.193 -0.1135  3.5291  0.2390
 3620SOL    MW414248   4.325   1.095   3.173  0.4685  0.3766  0.0421
 3621SOL     OW14249   3.521   1.963   6.331  0.4825  0.1021 -0.4590
 3621SOL    HW214250   3.476   1.899   6.387 -0.2754  1.6641  0.8046
 3621SOL    HW314251   3.478   1.956   6.246 -0.5152 -0.1421  0.0547
 3621SOL    MW414252   3.509   1.954   6.328 -0.1460  0.7125  0.2036
 3622SOL     OW14253   2.554   5.654   4.735  0.0014 -0.1936  0.2253
 3622SOL    HW214254   2.471   5.663   4.783 -0.4668  1.5792 -0.8088
 3622SOL    HW314255   2.541   5.576   4.681  0.1738 -1.6619  2.1664
 3622SOL    MW414256   2.541   5.645   4.735 -0.6371 -0.2657  0.4343
 3623SOL     OW14257   3.217   5.080   2.934 -0.4133  0.0155 -0.6709
 3623SOL    HW214258   3.283   5.101   3.000 -0.2985 -0.4164 -0.6416
 3623SOL    HW314259   3.236   4.989   2.910  0.6452  0.6671 -2.5434
 3623SOL    MW414260   3.228   5.070   2.939  0.4608  0.2774 -0.0549
 3624SOL     OW14261   3.105   0.416   2.495  0.5589 -0.2294  0.1775
 3624SOL    HW214262   3.182   0.365   2.471  1.2992  2.1881 -3.3781
 3624SOL    HW314263   3.044   0.403   2.423 -2.1061 -1.3043  2.4458
 3624SOL    MW414264   3.107   0.408   2.482  0.3334 -0.1207 -0.7346
 3625SOL     OW14265   4.142   0.809   4.200  0.3017  0.2610 -0.3840
 3625SOL    HW214266   4.230   0.810   4.238  0.2917  0.2139 -0.3600
 3625SOL    HW314267   4.135   0.724   4.157 -0.5274 -0.6734  1.4792
 3625SOL    MW414268   4.153   0.798   4.199 -0.0318 -0.2922 -1.3995
 3626SOL     OW14269   6.420   6.368   5.917  0.3520 -0.1164  0.0554
 3626SOL    HW214270   6.456   6.309   5.851 -0.0695  0.0586 -0.3357
 3626SOL    HW314271   6.497   6.411   5.955  0.5176  1.4566 -1.8819
 3626SOL    MW414272   6.435   6.366   5.914  0.1654  0.2571  0.6598
 3627SOL     OW14273   0.574   3.918   0.931  0.5155  0.5595 -0.0235
 3627SOL    HW214274   0.655   3.947   0.974  1.4372 -0.0309 -1.2615
 3627SOL    HW314275   0.552   3.836   0.975  0.9074  0.4455 -0.0352
 3627SOL    MW414276   0.582   3.911   0.942  0.0563 -0.4058 -0.2810
 3628SOL     OW14277   2.772   3.457   4.825 -0.0286  0.1936  0.1975
 3628SOL    HW214278   2.690   3.408   4.817 -0.3167  0.9583 -2.5634
 3628SOL    HW314279   2.763   3.507   4.906 -1.8788 -0.4972  0.4502
 3628SOL    MW414280   2.760   3.457   4.835 -0.3674  0.6227  0.3531
 3629SOL     OW14281   3.075   0.262   3.967  0.0308  0.4807  0.2537
 3629SOL    HW214282   3.042   0.217   3.890  3.1923  0.6037 -1.3403
 3629SOL    HW314283   3.082   0.354   3.940  1.7240  0.4316  0.3755
 3629SOL    MW414284   3.072   0.268   3.953 -0.0289  0.4345  0.3361
 3630SOL     OW14285   1.779   1.089   4.508 -0.1118 -0.1133  0.1710
 3630SOL    HW214286   1.724   1.020   4.472 -0.8321  1.0391 -1.0173
 3630SOL    HW314287   1.857   1.043   4.541 -0.6825 -1.5011 -0.3508
 3630SOL    MW414288   1.782   1.074   4.507 -0.1037 -0.0477 -0.1405
 3631SOL     OW14289   3.104   3.561   5.934 -0.4595  0.2937  0.0082
 3631SOL    HW214290   3.021   3.526   5.901  0.1100 -0.7608 -0.3732
 3631SOL    HW314291   3.092   3.564   6.029 -0.4787 -1.1653  0.0809
 3631SOL    MW414292   3.091   3.557   5.942  0.2575 -0.0487 -0.0784
 3632SOL     OW14293   2.357   2.406   5.021 -0.2630  0.5770  0.2460
 3632SOL    HW214294   2.367   2.330   4.963 -3.6399 -0.5167  0.8843
 3632SOL    HW314295   2.447   2.437   5.035  0.9953 -1.3591 -2.5204
 3632SOL    MW414296   2.370   2.400   5.015  0.0257 -0.0799 -0.9818
 3633SOL     OW14297   5.450   5.852   2.782  0.6888  0.2802 -0.3096
 3633SOL    HW214298   5.374   5.904   2.809  0.2822  0.3853 -1.5884
 3633SOL    HW314299   5.525   5.895   2.823  0.2034  1.0021 -0.1561
 3633SOL    MW414300   5.450   5.864   2.791  0.6390 -0.1955 -0.4810
 3634SOL     OW14301   5.772   5.618   4.786  0.3173  0.5906  0.2983
 3634SOL    HW214302   5.746   5.528   4.771  1.6422 -0.0059  1.3840
 3634SOL    HW314303   5.709   5.650   4.851  0.1487  0.2916  0.2832
 3634SOL    MW414304   5.760   5.611   4.793 -0.1613  0.7264 -0.7403
 3635SOL     OW14305   1.704   5.338   4.093  0.2423  0.2847 -0.2970
 3635SOL    HW214306   1.682   5.359   4.002  1.2453  0.7313 -0.4551
 3635SOL    HW314307   1.673   5.249   4.105 -1.6180  0.8674 -0.4784
 3635SOL    MW414308   1.697   5.329   4.082 -0.0266 -0.0108  0.3895
 3636SOL     OW14309   6.266   1.504   1.993 -0.4813  0.1848 -0.0387
 3636SOL    HW214310   6.267   1.471   1.903  0.6766  1.2913 -0.4547
 3636SOL    HW314311   6.337   1.457   2.037  0.6465  1.4962 -0.4177
 3636SOL    MW414312   6.275   1.493   1.987 -0.4846 -0.5571 -1.0003
 3637SOL     OW14313   3.600   4.175   0.896  0.0103 -0.0283  0.0544
 3637SOL    HW214314   3.663   4.227   0.946 -0.1551 -1.4449  1.8759
 3637SOL    HW314315   3.515   4.196   0.934 -0.1889 -0.7445  0.0200
 3637SOL    MW414316   3.597   4.184   0.908 -0.4903  0.0570 -0.2049
 3638SOL     OW14317   0.455   4.647   2.679  0.3726 -0.0501  0.2809
 3638SOL    HW214318   0.514   4.705   2.631 -0.2685 -0.8182 -1.5149
 3638SOL    HW314319   0.373   4.696   2.685  0.6855  0.3875  1.4190
 3638SOL    MW414320   0.452   4.661   2.674  0.0163  0.4825  0.2383
 3639SOL     OW14321   2.402   5.991   1.716 -0.4066 -0.0804  0.2501
 3639SOL    HW214322   2.446   5.906   1.712  0.3312  0.3237 -0.3560
 3639SOL    HW314323   2.454   6.048   1.661 -1.4789  0.5189 -0.1783
 3639SOL    MW414324   2.414   5.987   1.709 -0.2330  0.2505  0.8274
 3640SOL     OW14325   4.008   6.202   2.885 -0.5946 -0.7799  0.0630
 3640SOL    HW214326   4.103   6.188   2.884 -0.8040 -2.3668 -0.7046
 3640SOL    HW314327   3.971   6.119   2.916 -1.7372 -0.1089  0.5785
 3640SOL    MW414328   4.016   6.189   2.889  0.0061  0.2799  0.2851
 3641SOL     OW14329   6.065   4.793   4.571 -0.3371  0.3210  0.2052
 3641SOL    HW214330   5.992   4.845   4.536 -0.7808  0.2164  0.9493
 3641SOL    HW314331   6.025   4.739   4.639  0.5658  0.8175  1.1589
 3641SOL    MW414332   6.050   4.793   4.575  0.0990  0.4964  0.1135
 3642SOL     OW14333   4.781   6.130   3.607  0.3282  0.5550  0.8296
 3642SOL    HW214334   4.837   6.201   3.576  0.4462  0.0515 -0.1852
 3642SOL    HW314335   4.835   6.052   3.599 -0.2926  0.1492  0.4666
 3642SOL    MW414336   4.795   6.129   3.601  0.4912 -0.2900  0.6592
 3643SOL     OW14337   1.814   5.463   3.752  0.3096 -0.4691  0.1480
 3643SOL    HW214338   1.826   5.373   3.783 -1.0799 -0.6466  0.2597
 3643SOL    HW314339   1.836   5.459   3.659  1.5517 -0.6118  0.4351
 3643SOL    MW414340   1.818   5.450   3.744  0.2649  0.1548  0.0345
 3644SOL     OW14341   2.118   6.123   1.827 -0.0309  0.4017  0.4812
 3644SOL    HW214342   2.125   6.176   1.906 -1.9569  0.6091  0.5542
 3644SOL    HW314343   2.207   6.091   1.812  0.6987  1.7077  1.7736
 3644SOL    MW414344   2.131   6.126   1.836  0.0793  0.7173  0.1536
 3645SOL     OW14345   5.326   1.920   6.023  0.0812  0.0687  0.3227
 3645SOL    HW214346   5.265   1.846   6.018 -0.4988  0.5707 -0.2196
 3645SOL    HW314347   5.404   1.890   5.976 -1.0325  0.6183 -2.0055
 3645SOL    MW414348   5.328   1.906   6.016  0.1603  0.3404 -0.1160
 3646SOL     OW14349   4.200   1.700   3.475  0.0960 -0.3600  0.3630
 3646SOL    HW214350   4.206   1.793   3.498  0.7113 -0.9387  2.9124
 3646SOL    HW314351   4.202   1.699   3.379 -1.7179  2.3252  0.1790
 3646SOL    MW414352   4.201   1.712   3.466  0.0905 -0.1026  0.8153
 3647SOL     OW14353   2.095   1.242   5.362 -0.3680  0.2575 -0.5216
 3647SOL    HW214354   2.170   1.273   5.413 -0.4898 -1.7628  1.0038
 3647SOL    HW314355   2.127   1.163   5.319 -1.1311  0.3492 -1.2851
 3647SOL    MW414356   2.109   1.236   5.363 -0.2865  0.4913 -0.4446
 3648SOL     OW14357   6.268   4.432   0.082  0.3123 -0.5986 -0.4027
 3648SOL    HW214358   6.318   4.483   0.145  1.0777 -1.3604 -0.3680
 3648SOL    HW314359   6.192   4.486   0.061 -0.0098 -0.3629  1.2307
 3648SOL    MW414360   6.264   4.446   0.087 -0.3233 -0.2061  0.5650
 3649SOL     OW14361   2.579   1.271   2.799  0.6662 -0.8502  0.2159
 3649SOL    HW214362   2.646   1.226   2.749 -0.1593 -2.7453  0.7041
 3649SOL    HW314363   2.591   1.240   2.889  0.3742  0.3250  0.6781
 3649SOL    MW414364   2.589   1.261   2.804  0.6746 -0.6522 -0.1166
 3650SOL     OW14365   1.504   3.299   1.311 -0.2726  0.0319  0.8305
 3650SOL    HW214366   1.519   3.209   1.280 -0.1301  0.5519 -0.6889
 3650SOL    HW314367   1.520   3.294   1.405  0.1880 -1.4441  0.7121
 3650SOL    MW414368   1.508   3.286   1.319 -0.3362  0.5616 -0.4134
 3651SOL     OW14369   6.191   0.858   3.903 -0.4375 -0.6610  0.0565
 3651SOL    HW214370   6.263   0.903   3.947 -0.9021 -0.6580  0.8372
 3651SOL    HW314371   6.139   0.820   3.974 -0.6088 -1.5869 -0.5424
 3651SOL    MW414372   6.194   0.859   3.918 -0.8376 -0.4601  0.0304
 3652SOL     OW14373   4.744   4.508   0.013 -0.3773 -0.2155  0.2858
 3652SOL    HW214374   4.738   4.485   0.106 -0.8048 -0.9836  0.0799
 3652SOL    HW314375   4.672   4.460  -0.028  0.0327 -0.1818 -0.4954
 3652SOL    MW414376   4.734   4.499   0.020 -0.0692 -0.2858 -0.3272
 3653SOL     OW14377   4.542   2.677   5.958  0.4036 -0.4229  0.4681
 3653SOL    HW214378   4.544   2.604   5.896 -1.1343 -1.5524  1.6600
 3653SOL    HW314379   4.508   2.638   6.039 -1.1394  1.7795  0.9453
 3653SOL    MW414380   4.538   2.662   5.961  0.2451 -0.0936  0.1723
 3654SOL     OW14381   1.454   6.369   5.681  0.3755  0.2686 -0.3595
 3654SOL    HW214382   1.520   6.437   5.692  2.1870 -1.0136 -2.5882
 3654SOL    HW314383   1.499   6.287   5.704 -0.3374 -0.6541 -2.0652
 3654SOL    MW414384   1.468   6.367   5.686  0.0632 -0.4320  0.1625
 3655SOL     OW14385   0.324   0.355   3.926  0.2943  0.1455 -0.1042
 3655SOL    HW214386   0.278   0.403   3.857  0.0373  1.3663  0.8701
 3655SOL    HW314387   0.262   0.352   3.999 -0.5843 -3.7024 -0.8131
 3655SOL    MW414388   0.310   0.361   3.927  0.1422 -0.5206 -0.0281
 3656SOL     OW14389   2.916   6.151   5.596  0.3142 -0.3835  0.0613
 3656SOL    HW214390   2.971   6.226   5.573  0.5288 -0.6924 -0.4424
 3656SOL    HW314391   2.909   6.155   5.691  0.9615 -0.1670  0.1049
 3656SOL    MW414392   2.922   6.162   5.605  0.6315 -0.1999  0.0299
 3657SOL     OW14393   4.915   1.438   0.984  0.1804  0.6561  0.1674
 3657SOL    HW214394   4.960   1.442   1.068  0.1483  2.2708  0.1357
 3657SOL    HW314395   4.972   1.485   0.924 -0.0235 -0.0797 -0.6336
 3657SOL    MW414396   4.929   1.444   0.987 -0.3147 -0.0441  0.4729
 3658SOL     OW14397   4.603   0.378   2.403 -0.1876  0.4308  0.1339
 3658SOL    HW214398   4.581   0.467   2.430  1.1089  0.4470  1.2743
 3658SOL    HW314399   4.529   0.325   2.429 -1.1319  1.2111 -0.8738
 3658SOL    MW414400   4.591   0.383   2.410  0.0768 -0.0878  0.4324
 3659SOL     OW14401   6.423   1.379   0.722  0.5238  0.0570  0.0228
 3659SOL    HW214402   6.384   1.423   0.797 -0.0085 -1.3663  0.6275
 3659SOL    HW314403   6.476   1.446   0.679 -1.1013  1.5707  0.2491
 3659SOL    MW414404   6.425   1.394   0.726 -0.4188 -0.0908 -0.3494
 3660SOL     OW14405   1.959   3.563   3.314  0.3143  0.0432  0.5563
 3660SOL    HW214406   1.912   3.519   3.385  1.2770 -2.3083 -0.1697
 3660SOL    HW314407   2.050   3.563   3.341  1.0972 -3.1244 -1.5845
 3660SOL    MW414408   1.965   3.558   3.327 -0.1697  0.3684  0.0239
 3661SOL     OW14409   1.593   2.301   5.513  0.3431  0.1046  0.1279
 3661SOL    HW214410   1.619   2.392   5.494  0.2177  0.5553  1.9260
 3661SOL    HW314411   1.657   2.271   5.578 -1.5808  0.1063  2.1407
 3661SOL    MW414412   1.605   2.309   5.519 -0.1073 -0.3139 -0.4317
 3662SOL     OW14413   2.255   2.427   1.688 -0.0791  0.2916 -0.3762
 3662SOL    HW214414   2.207   2.376   1.753  1.0732 -1.5172 -0.8758
 3662SOL    HW314415   2.273   2.510   1.732 -3.0935  0.8634  0.0200
 3662SOL    MW414416   2.251   2.431   1.703 -0.0823  0.3928  0.2462
 3663SOL     OW14417   3.923   4.933   0.761 -0.0304 -0.0360 -0.4166
 3663SOL    HW214418   3.909   4.975   0.676 -3.1537 -0.0815 -0.0465
 3663SOL    HW314419   3.982   4.860   0.743 -0.5926 -0.0199 -2.5383
 3663SOL    MW414420   3.929   4.929   0.747  0.0317 -0.2937  0.4499
 3664SOL     OW14421   4.526   1.376   3.970  0.1314 -0.6384  0.0088
 3664SOL    HW214422   4.575   1.452   4.003 -1.3760  0.2100  0.3917
 3664SOL    HW314423   4.443   1.413   3.941 -0.9294 -2.2383  0.8698
 3664SOL    MW414424   4.522   1.391   3.971  0.1080  0.4436  0.1381
 3665SOL     OW14425   5.098   0.893   1.934 -0.2158 -0.0607 -0.2315
 3665SOL    HW214426   5.059   0.807   1.948 -3.8546  1.6863  1.8480
 3665SOL    HW314427   5.049   0.930   1.860 -1.6328  1.6169  1.4398
 3665SOL    MW414428   5.086   0.887   1.926 -0.7777 -0.2624 -0.2642
 3666SOL     OW14429   2.951   1.494   4.574  0.2347 -0.1565  0.0355
 3666SOL    HW214430   2.914   1.516   4.660  0.4922  0.4029  0.0067
 3666SOL    HW314431   2.878   1.505   4.513 -0.3161 -1.8473  0.3360
 3666SOL    MW414432   2.936   1.498   4.577  0.1027  0.1716  0.3126
 3667SOL     OW14433   5.266   3.111   0.508  0.3637  0.0919 -0.3028
 3667SOL    HW214434   5.322   3.164   0.451 -0.2160  2.6326  1.3302
 3667SOL    HW314435   5.326   3.048   0.549  1.8617  1.8807  0.4078
 3667SOL    MW414436   5.281   3.109   0.506 -0.5208  0.1921  0.0625
 3668SOL     OW14437   4.971   0.900   1.464 -0.0288 -0.3338  0.1556
 3668SOL    HW214438   4.931   0.828   1.512  0.8876 -0.0973  1.3087
 3668SOL    HW314439   4.985   0.864   1.376 -1.4227 -0.8811  0.1294
 3668SOL    MW414440   4.968   0.886   1.458  0.1151  0.3818  0.7365
 3669SOL     OW14441   5.398   5.902   4.108  0.6494  0.0956 -0.0832
 3669SOL    HW214442   5.428   5.830   4.164  1.2459  2.0025  2.2174
 3669SOL    HW314443   5.428   5.981   4.152 -1.3224  1.8553 -1.6717
 3669SOL    MW414444   5.406   5.903   4.121 -0.4616 -0.5984 -0.0020
 3670SOL     OW14445   3.793   0.813   0.246  0.0199  0.8833  0.0397
 3670SOL    HW214446   3.726   0.751   0.274  1.1596  0.5597  2.2736
 3670SOL    HW314447   3.760   0.898   0.274 -0.6485  1.0748 -1.2721
 3670SOL    MW414448   3.780   0.816   0.253  0.1208  0.1982 -0.2211
 3671SOL     OW14449   3.701   3.488   3.390 -0.5597 -0.1581  0.4136
 3671SOL    HW214450   3.728   3.579   3.402 -0.5231  0.2902 -2.5226
 3671SOL    HW314451   3.608   3.486   3.415 -0.0146  0.0820  2.7251
 3671SOL    MW414452   3.692   3.499   3.395  0.7859 -0.3474  0.7221
 3672SOL     OW14453   3.546   2.148   3.836  0.2046 -0.0129  0.4092
 3672SOL    HW214454   3.530   2.120   3.746  0.3833 -1.2186  0.7357
 3672SOL    HW314455   3.484   2.097   3.888 -0.4260  1.2381  0.9023
 3672SOL    MW414456   3.536   2.137   3.831  0.3732  0.5247 -0.7613
 3673SOL     OW14457   6.261   4.543   0.342 -0.3188 -0.2673 -0.1019
 3673SOL    HW214458   6.190   4.581   0.394 -1.3302 -1.6972 -0.3854
 3673SOL    HW314459   6.334   4.535   0.404 -1.1112 -0.7989  0.7922
 3673SOL    MW414460   6.262   4.547   0.357 -0.2775  0.1367  0.0185
 3674SOL     OW14461   4.257   0.859   3.957  0.0215 -0.8908 -0.3671
 3674SOL    HW214462   4.336   0.817   3.922  1.3104  0.5889  0.5950
 3674SOL    HW314463   4.252   0.829   4.047  0.2792  0.0385 -0.0288
 3674SOL    MW414464   4.267   0.849   3.964 -0.2192  0.2898 -0.3372
 3675SOL     OW14465   2.498   3.015   1.247 -0.6300  0.4896 -0.1526
 3675SOL    HW214466   2.507   2.957   1.322 -0.9209  1.4051  0.5964
 3675SOL    HW314467   2.561   2.980   1.183 -0.6834 -0.5413  0.3411
 3675SOL    MW414468   2.508   3.002   1.248  0.0810  0.4499 -0.6068
 3676SOL     OW14469   3.031   3.095   1.574  0.2234  0.0321  0.1413
 3676SOL    HW214470   3.097   3.076   1.507 -0.4245  0.2267 -0.5675
 3676SOL    HW314471   3.025   3.190   1.575  1.4063  0.1305  1.6606
 3676SOL    MW414472   3.039   3.105   1.565 -0.3462  0.1594 -0.4175
 3677SOL     OW14473   3.480   5.326   2.407 -0.0056  0.0305  0.1672
 3677SOL    HW214474   3.393   5.306   2.442 -0.4663  0.7616 -0.5061
 3677SOL    HW314475   3.482   5.422   2.403  1.1514  0.0565  0.9397
 3677SOL    MW414476   3.468   5.336   2.411  0.3632  0.3166 -0.2759
 3678SOL     OW14477   1.943   5.200   0.147  0.5109 -0.2752 -0.1557
 3678SOL    HW214478   2.005   5.148   0.096 -1.0845 -0.9108 -1.5243
 3678SOL    HW314479   1.893   5.135   0.197  0.3353  0.1658  0.2508
 3678SOL    MW414480   1.945   5.184   0.147 -0.0541 -0.0352  0.3049
 3679SOL     OW14481   2.884   2.778   5.969 -0.2221  0.1089 -0.5328
 3679SOL    HW214482   2.977   2.798   5.974 -0.4465  0.7968  2.7615
 3679SOL    HW314483   2.875   2.692   6.010 -1.1995  0.8419  0.8638
 3679SOL    MW414484   2.895   2.769   5.975 -0.3548 -0.1087 -0.0608
 3680SOL     OW14485   2.052   4.840   0.282 -0.3123 -0.7585 -0.1137
 3680SOL    HW214486   2.109   4.788   0.226 -1.3972 -1.4877 -0.5681
 3680SOL    HW314487   2.108   4.910   0.315  0.2334  0.0486 -2.5859
 3680SOL    MW414488   2.067   4.843   0.279 -0.7947 -0.2251  0.1881
 3681SOL     OW14489   4.222   1.345   5.039  0.3822 -0.3871  0.0917
 3681SOL    HW214490   4.209   1.315   4.949 -2.5336  1.0473 -0.0609
 3681SOL    HW314491   4.171   1.285   5.092  1.0600 -0.4568  0.6791
 3681SOL    MW414492   4.214   1.333   5.034 -0.2609  0.0993 -0.8383
 3682SOL     OW14493   1.603   0.620   5.034  0.5150 -0.0145  0.1841
 3682SOL    HW214494   1.563   0.538   5.064 -0.1045 -0.2546 -1.1888
 3682SOL    HW314495   1.652   0.652   5.109 -0.5266 -0.8318  1.2485
 3682SOL    MW414496   1.604   0.613   5.048 -0.1592  0.3881  0.0269
 3683SOL     OW14497   4.467   5.583   2.297  0.0401  0.7530  0.4594
 3683SOL    HW214498   4.487   5.506   2.350 -1.2785 -0.0205 -0.1346
 3683SOL    HW314499   4.551   5.630   2.291  0.9034 -0.6879  0.7028
 3683SOL    MW414500   4.481   5.579   2.304  0.5424  0.2333 -0.2039
 3684SOL     OW14501   2.053   2.896   4.169  0.4856  0.4299  0.5351
 3684SOL    HW214502   2.066   2.982   4.211  1.2745  1.0013 -0.8223
 3684SOL    HW314503   1.962   2.873   4.190  1.2747 -0.1606  3.9942
 3684SOL    MW414504   2.043   2.905   4.178 -0.0405  0.2049 -0.0061
 3685SOL     OW14505   0.427   4.077   6.154 -0.0712  1.0174 -0.3067
 3685SOL    HW214506   0.377   4.007   6.113  0.0470  1.7520 -1.7467
 3685SOL    HW314507   0.483   4.111   6.084  0.7520  1.7526  0.6772
 3685SOL    MW414508   0.428   4.072   6.139  0.1233 -0.4145  0.1892
 3686SOL     OW14509   3.662   1.105   2.393 -0.1641  0.7153 -0.1510
 3686SOL    HW214510   3.679   1.176   2.455 -0.3940  1.0787 -0.5020
 3686SOL    HW314511   3.652   1.148   2.308 -1.2100  0.3663 -0.2222
 3686SOL    MW414512   3.663   1.120   2.390 -0.5046 -0.9069 -0.5496
 3687SOL     OW14513   2.329   3.884   6.068 -0.0441  0.1548  0.4685
 3687SOL    HW214514   2.287   3.809   6.110  1.6955 -0.3861  1.3371
 3687SOL    HW314515   2.423   3.872   6.086  0.5317  1.1621 -1.5931
 3687SOL    MW414516   2.336   3.872   6.076 -0.5270  0.5662  0.3660
 3688SOL     OW14517   3.832   3.182   0.185  0.2327  0.0268 -0.3903
 3688SOL    HW214518   3.771   3.166   0.113  0.0060 -1.1475  0.0389
 3688SOL    HW314519   3.802   3.264   0.224  1.3110  1.5587 -2.5681
 3688SOL    MW414520   3.820   3.191   0.181 -0.6874  0.4574  0.8494
 3689SOL     OW14521   6.137   3.991   3.792  0.3212 -0.1822 -0.1087
 3689SOL    HW214522   6.152   3.955   3.705  1.5010  0.1238 -0.0437
 3689SOL    HW314523   6.061   3.943   3.825 -1.7397  1.4011 -2.2533
 3689SOL    MW414524   6.129   3.980   3.785 -0.0973 -0.2760 -0.1074
 3690SOL     OW14525   1.430   5.062   3.047 -0.0332 -0.5744 -0.2208
 3690SOL    HW214526   1.358   5.111   3.007  1.1920  0.9180 -0.7066
 3690SOL    HW314527   1.430   5.091   3.138 -0.2550 -0.8463 -0.1319
 3690SOL    MW414528   1.420   5.072   3.054  0.2763 -0.4443  0.7566
 3691SOL     OW14529   2.513   3.855   3.959  1.1360  0.0538  0.3280
 3691SOL    HW214530   2.518   3.795   3.885  0.0128 -0.2527  0.4805
 3691SOL    HW314531   2.585   3.917   3.945  0.9547 -0.0054 -1.0126
 3691SOL    MW414532   2.523   3.856   3.948 -0.1320 -0.6185  0.2502
 3692SOL     OW14533   4.524   3.673   0.123  0.0232  0.1180 -0.2276
 3692SOL    HW214534   4.590   3.690   0.056 -0.1051  0.5072 -0.2633
 3692SOL    HW314535   4.473   3.600   0.089  1.0989 -0.8972  0.3043
 3692SOL    MW414536   4.526   3.666   0.110  0.0105 -0.9412 -0.2797
 3693SOL     OW14537   0.392   6.236   2.698  0.0969  0.0199 -0.0821
 3693SOL    HW214538   0.396   6.151   2.656  3.0704 -0.1971  0.4163
 3693SOL    HW314539   0.354   6.219   2.784 -0.0388 -0.6500 -0.2697
 3693SOL    MW414540   0.387   6.223   2.704  0.5522 -0.4817  0.5886
 3694SOL     OW14541   5.023   3.049   0.619 -0.1086  0.3409 -0.6257
 3694SOL    HW214542   5.112   3.059   0.586  0.2182  1.2126  0.4710
 3694SOL    HW314543   5.014   2.955   0.636  0.1267  0.0535 -1.9818
 3694SOL    MW414544   5.033   3.038   0.617 -0.0190 -0.1838  0.2183
 3695SOL     OW14545   1.234   3.044   2.603  0.3387 -0.1515 -0.0981
 3695SOL    HW214546   1.295   3.061   2.675  0.2584  1.3243 -0.3478
 3695SOL    HW314547   1.220   2.950   2.605  1.6386 -0.3526  0.7664
 3695SOL    MW414548   1.241   3.034   2.613 -0.5399 -0.2836 -0.0939
 3696SOL     OW14549   0.849   1.030   4.282 -0.1140  0.0825 -0.6530
 3696SOL    HW214550   0.851   1.032   4.377  0.5857 -1.0878 -0.6158
 3696SOL    HW314551   0.800   0.950   4.261  0.8833 -0.4008 -1.2373
 3696SOL    MW414552   0.842   1.020   4.292 -0.0621  0.2544  0.2091
 3697SOL     OW14553   3.856   4.155   4.684  0.5952  0.0778  0.0387
 3697SOL    HW214554   3.767   4.133   4.712 -0.1879  0.2170 -2.1473
 3697SOL    HW314555   3.854   4.251   4.676  1.4926  0.2624  1.5613
 3697SOL    MW414556   3.844   4.165   4.687 -0.0344  0.7631 -0.6623
 3698SOL     OW14557   0.177   0.543   3.756 -0.4885  0.5444 -0.5824
 3698SOL    HW214558   0.090   0.525   3.792 -0.6581  0.2734 -1.1171
 3698SOL    HW314559   0.205   0.623   3.801 -1.7814  1.6742 -1.6767
 3698SOL    MW414560   0.169   0.551   3.767  0.1090 -0.0872 -0.5261
 3699SOL     OW14561   1.532   5.303   5.776  0.2720 -0.7598  0.0779
 3699SOL    HW214562   1.462   5.295   5.841  0.0605  1.8107  0.2807
 3699SOL    HW314563   1.610   5.270   5.820 -0.1940 -0.6093  1.0335
 3699SOL    MW414564   1.533   5.298   5.790  0.0773 -0.0795  0.0711
 3700SOL     OW14565   1.189   0.282   5.669 -0.2738  0.2124  0.6239
 3700SOL    HW214566   1.140   0.333   5.733 -0.3088  1.6082 -0.4495
 3700SOL    HW314567   1.123   0.254   5.605 -0.3513 -1.7397  1.5033
 3700SOL    MW414568   1.174   0.285   5.669  0.2607 -0.1200 -0.1927
 3701SOL     OW14569   2.847   4.678   2.720 -0.0194 -0.0691 -0.3536
 3701SOL    HW214570   2.780   4.642   2.662  0.7909 -3.2093  0.4680
 3701SOL    HW314571   2.821   4.651   2.808  0.8345  1.2004  0.3365
 3701SOL    MW414572   2.835   4.670   2.724 -0.6262  0.5134  0.3989
 3702SOL     OW14573   4.446   3.629   1.043 -0.1943 -0.1433  0.1828
 3702SOL    HW214574   4.443   3.610   0.949 -0.2797  0.9058 -0.0393
 3702SOL    HW314575   4.514   3.695   1.052 -0.3875 -0.0246  0.8210
 3702SOL    MW414576   4.454   3.635   1.032 -0.5453  0.3384 -0.1530
 3703SOL     OW14577   4.349   6.033   5.286  0.5925 -0.2241  0.0271
 3703SOL    HW214578   4.355   6.042   5.382 -0.6431 -0.2002  0.1232
 3703SOL    HW314579   4.377   6.118   5.252  1.4142 -0.3594  0.3396
 3703SOL    MW414580   4.353   6.046   5.295 -0.1040  0.0156 -0.0366
 3704SOL     OW14581   3.296   2.179   1.071 -0.4342 -0.3559  0.4864
 3704SOL    HW214582   3.386   2.156   1.051 -0.0003  0.0982  1.7888
 3704SOL    HW314583   3.298   2.207   1.163 -1.7040  0.6861  0.2358
 3704SOL    MW414584   3.308   2.179   1.081  0.4738 -0.0791 -0.0487
 3705SOL     OW14585   5.599   3.716   0.827 -0.0639  0.2403  0.4602
 3705SOL    HW214586   5.578   3.783   0.763 -0.6735 -0.7997 -0.4503
 3705SOL    HW314587   5.572   3.634   0.787  1.0226 -0.6144  1.3841
 3705SOL    MW414588   5.593   3.714   0.814  0.0084 -0.2976  0.2250
 3706SOL     OW14589   3.391   4.490   6.418  0.2243 -0.0218 -0.2894
 3706SOL    HW214590   3.427   4.554   6.356  1.7406 -0.4389  0.1238
 3706SOL    HW314591   3.366   4.416   6.364  0.4478  0.0827 -0.5424
 3706SOL    MW414592   3.393   4.489   6.403 -0.1519  0.3391  0.1522
 3707SOL     OW14593   2.793   2.675   4.317 -0.2693 -0.2805  0.2853
 3707SOL    HW214594   2.702   2.676   4.347 -0.2711 -2.1523  0.4990
 3707SOL    HW314595   2.820   2.583   4.327  2.4059  0.6114  2.5004
 3707SOL    MW414596   2.784   2.663   4.322 -0.3863 -0.1324  0.1881
 3708SOL     OW14597   2.862   3.087   2.277  0.2487 -0.7907  0.3758
 3708SOL    HW214598   2.767   3.077   2.274  0.1552 -0.3999  1.4620
 3708SOL    HW314599   2.897   2.998   2.273 -0.1351 -0.9164 -0.4009
 3708SOL    MW414600   2.854   3.074   2.276  0.2999  0.1584  0.2345
 3709SOL     OW14601   3.980   4.582   4.886 -0.5578  0.4978  0.2561
 3709SOL    HW214602   4.041   4.653   4.908 -0.0736  0.0571  0.3357
 3709SOL    HW314603   3.897   4.610   4.925 -0.0139  0.3114  1.6019
 3709SOL    MW414604   3.977   4.595   4.894  0.6172  0.0650  0.1075
 3710SOL     OW14605   3.540   1.175   1.931  0.2294  0.2579 -0.5157
 3710SOL    HW214606   3.446   1.174   1.949  0.1389 -1.0867 -0.9409
 3710SOL    HW314607   3.549   1.132   1.846  1.3596 -1.4646  0.4096
 3710SOL    MW414608   3.529   1.169   1.923  0.1692  0.0194 -0.1066
 3711SOL     OW14609   5.003   4.376   1.207  0.4527  0.4571  0.7138
 3711SOL    HW214610   5.076   4.422   1.248  0.3249  0.6247  0.7524
 3711SOL    HW314611   4.934   4.377   1.273 -0.1718  1.7553  0.0903
 3711SOL    MW414612   5.003   4.382   1.221 -0.2759  0.5140  0.4423
 3712SOL     OW14613   4.368   2.487   4.536 -0.4882 -0.0691  0.2327
 3712SOL    HW214614   4.310   2.411   4.539 -1.5518  0.5751 -1.7767
 3712SOL    HW314615   4.444   2.458   4.486  0.0589 -0.3530  1.1993
 3712SOL    MW414616   4.370   2.473   4.530  0.6649  0.3294  0.2343
 3713SOL     OW14617   3.579   2.218   1.568 -0.1349  0.4891 -0.2075
 3713SOL    HW214618   3.538   2.247   1.650 -0.1778  0.1782 -0.1163
 3713SOL    HW314619   3.544   2.130   1.554 -1.8183  1.3176 -1.6916
 3713SOL    MW414620   3.569   2.210   1.577 -0.0234  0.6635 -0.5404
 3714SOL     OW14621   5.500   2.111   3.039 -0.0270  0.1382 -0.6995
 3714SOL    HW214622   5.446   2.124   2.961 -0.4013 -1.3226 -0.7101
 3714SOL    HW314623   5.452   2.154   3.109  0.2112  1.2871 -1.2138
 3714SOL    MW414624   5.487   2.118   3.038 -0.1569 -0.4349  0.0662
 3715SOL     OW14625   0.013   0.682   4.434  0.0973 -0.6543 -0.2968
 3715SOL    HW214626   0.044   0.755   4.487  0.5279 -0.7345 -0.4318
 3715SOL    HW314627   0.026   0.605   4.489  0.6922 -0.7564 -0.5680
 3715SOL    MW414628   0.019   0.681   4.448 -0.1161 -0.0548 -0.3820
 3716SOL     OW14629   0.001   3.081   0.549  0.2202 -0.6763  0.0146
 3716SOL    HW214630   0.085   3.126   0.559  0.5369 -0.7891 -1.7926
 3716SOL    HW314631  -0.028   3.063   0.639  0.7882  1.7809  0.7542
 3716SOL    MW414632   0.008   3.084   0.562 -0.0638  0.8312 -0.0754
 3717SOL     OW14633   5.385   1.174   2.893 -0.6156  0.4316  0.8610
 3717SOL    HW214634   5.366   1.267   2.906  1.2749  0.6038  3.2009
 3717SOL    HW314635   5.480   1.170   2.881 -0.8306 -1.1113 -0.8678
 3717SOL    MW414636   5.395   1.186   2.893  0.2639 -0.5526 -0.3735
 3718SOL     OW14637   1.579   2.301   2.414 -0.8070 -0.0294 -0.1407
 3718SOL    HW214638   1.634   2.227   2.440 -1.0618  0.0589  0.6715
 3718SOL    HW314639   1.526   2.267   2.342 -0.3147 -0.3764 -0.3438
 3718SOL    MW414640   1.579   2.287   2.408 -0.1274 -0.1756  0.4180
 3719SOL     OW14641   5.541   2.359   4.534 -0.3212  1.0378  0.2032
 3719SOL    HW214642   5.601   2.285   4.530 -0.3912  1.0283 -1.1284
 3719SOL    HW314643   5.498   2.351   4.619  1.1626  0.7431  0.9592
 3719SOL    MW414644   5.543   2.348   4.545  0.2926 -0.3913  0.0218
 3720SOL     OW14645   5.414   1.675   1.333 -0.3353  0.2253  0.2684
 3720SOL    HW214646   5.496   1.632   1.358 -0.3366  0.1820  0.1981
 3720SOL    HW314647   5.359   1.605   1.299 -0.6683  0.1348  0.9675
 3720SOL    MW414648   5.418   1.660   1.332 -0.1505 -0.8245 -0.6370
 3721SOL     OW14649   5.123   3.048   5.366 -0.0037 -0.1314 -0.5731
 3721SOL    HW214650   5.207   3.014   5.333 -0.3661 -0.1224 -1.5250
 3721SOL    HW314651   5.083   2.973   5.409  0.2795 -0.2629 -0.5328
 3721SOL    MW414652   5.129   3.033   5.368 -0.2919 -0.2484  0.7023
 3722SOL     OW14653   4.492   5.412   1.089  0.0108  0.2492  0.1797
 3722SOL    HW214654   4.501   5.501   1.123 -0.5347 -0.0600  1.1798
 3722SOL    HW314655   4.575   5.369   1.113  0.5217  0.6400 -0.8306
 3722SOL    MW414656   4.504   5.418   1.097 -0.5735  0.2699 -0.0763
 3723SOL     OW14657   4.281   5.871   4.476  0.3490 -0.2334 -0.1958
 3723SOL    HW214658   4.291   5.858   4.570 -0.2638 -1.4639 -0.2860
 3723SOL    HW314659   4.332   5.950   4.457 -1.5474  1.5557  1.5751
 3723SOL    MW414660   4.289   5.880   4.486 -0.3284 -0.6158  0.1949
 3724SOL     OW14661   3.728   5.738   4.937  0.0762  0.5384 -0.0236
 3724SOL    HW214662   3.758   5.794   5.008  0.7366 -0.1387  0.2432
 3724SOL    HW314663   3.654   5.785   4.899 -0.9288  0.4593  1.7297
 3724SOL    MW414664   3.722   5.752   4.941 -0.0713 -0.1533  0.4606
 3725SOL     OW14665   3.982   1.594   5.448  0.1893  0.1247  0.3241
 3725SOL    HW214666   3.973   1.562   5.538  0.9848  0.3911  0.5082
 3725SOL    HW314667   4.048   1.536   5.409 -0.6546 -0.4271 -0.3078
 3725SOL    MW414668   3.990   1.582   5.455 -0.4310 -0.2202 -0.2369
 3726SOL     OW14669   5.780   1.681   1.627  0.3840  0.1083 -0.0118
 3726SOL    HW214670   5.708   1.717   1.678  1.0551  0.7804  0.4712
 3726SOL    HW314671   5.811   1.607   1.679 -1.6448 -1.9012 -1.4760
 3726SOL    MW414672   5.774   1.676   1.640  0.3771 -0.5992  0.1469
 3727SOL     OW14673   1.403   2.855   3.501 -0.5751  0.0495 -0.5178
 3727SOL    HW214674   1.447   2.770   3.492 -0.9915 -0.6316  2.7233
 3727SOL    HW314675   1.312   2.833   3.517 -0.5102  1.0280  1.3428
 3727SOL    MW414676   1.397   2.841   3.502 -0.2804 -0.0266 -0.2451
 3728SOL     OW14677   3.321   3.403   3.070 -0.4155  0.0245 -0.0480
 3728SOL    HW214678   3.283   3.475   3.119 -2.9727 -1.1608 -0.0898
 3728SOL    HW314679   3.415   3.419   3.070 -0.8949  3.4243 -0.2518
 3728SOL    MW414680   3.329   3.414   3.077 -0.1853 -0.2400 -0.0918
 3729SOL     OW14681   2.338   5.979   2.518 -0.0894  0.5866  0.1220
 3729SOL    HW214682   2.357   5.951   2.429  1.3884  1.6116  0.0790
 3729SOL    HW314683   2.310   6.070   2.510 -0.0707  0.6503  0.6925
 3729SOL    MW414684   2.337   5.987   2.505 -0.3601  0.3317 -0.0736
 3730SOL     OW14685   1.761   4.177   5.853 -0.5162  0.2783 -0.0199
 3730SOL    HW214686   1.837   4.118   5.858  0.2071  1.1441 -0.4095
 3730SOL    HW314687   1.797   4.258   5.818 -1.2205  1.4074  1.7341
 3730SOL    MW414688   1.776   4.180   5.849 -0.6189 -0.0480  0.0331
 3731SOL     OW14689   2.224   4.521   6.304 -0.1834  0.2322  0.0250
 3731SOL    HW214690   2.167   4.444   6.307 -2.0801  1.5634  0.0489
 3731SOL    HW314691   2.298   4.494   6.249 -0.8159 -1.5582 -0.0244
 3731SOL    MW414692   2.227   4.507   6.297 -0.0327 -0.6547  0.2502
 3732SOL     OW14693   0.918   5.620   0.526  1.0419  0.1818 -0.5996
 3732SOL    HW214694   0.911   5.527   0.546  1.7425 -0.0193 -1.2248
 3732SOL    HW314695   0.831   5.655   0.542  0.6689 -0.6593 -0.7271
 3732SOL    MW414696   0.906   5.612   0.531  0.1170 -0.3647 -1.0395
 3733SOL     OW14697   1.473  -0.005   4.613 -0.8452  0.8008 -0.2871
 3733SOL    HW214698   1.484  -0.089   4.657 -2.3341  0.8263  0.1704
 3733SOL    HW314699   1.483   0.060   4.683  0.5936  1.0441 -0.6894
 3733SOL    MW414700   1.476  -0.008   4.628  0.3616 -0.0212 -0.0593
 3734SOL     OW14701   3.417   3.523   4.378  0.1882 -0.5364  0.1891
 3734SOL    HW214702   3.486   3.463   4.406  0.5606 -0.7776 -1.1515
 3734SOL    HW314703   3.350   3.517   4.446  1.5045 -0.2475  1.5603
 3734SOL    MW414704   3.418   3.514   4.391 -0.3464 -0.3022 -0.3712
 3735SOL     OW14705   1.006   0.977   4.715 -0.3613  0.5057  0.5104
 3735SOL    HW214706   1.006   1.003   4.807 -1.5100  1.1305  0.3595
 3735SOL    HW314707   1.024   0.883   4.716 -0.1802  0.5452  1.3517
 3735SOL    MW414708   1.008   0.968   4.727 -0.0130 -0.0878  0.0607
 3736SOL     OW14709   1.702   4.949   1.771 -0.9798 -0.3003 -0.7813
 3736SOL    HW214710   1.718   4.864   1.731 -2.2246  0.1557 -2.3270
 3736SOL    HW314711   1.726   5.013   1.704 -0.0563  0.5984  0.3575
 3736SOL    MW414712   1.707   4.946   1.757 -0.0952  0.0352  0.1116
 3737SOL     OW14713   0.476   2.549   5.647 -0.4619  0.0327 -0.2230
 3737SOL    HW214714   0.540   2.509   5.588 -0.0666  0.6919 -0.2392
 3737SOL    HW314715   0.527   2.603   5.706 -0.8191 -0.9065  0.9878
 3737SOL    MW414716   0.491   2.551   5.647  0.3482 -0.4843  0.2388
 3738SOL     OW14717  -0.004   0.954   4.055 -0.5105  0.2830 -0.2262
 3738SOL    HW214718   0.081   0.996   4.045 -1.0495  1.6858  0.8155
 3738SOL    HW314719   0.011   0.883   4.118  0.0706 -0.1148 -0.7984
 3738SOL    MW414720   0.009   0.950   4.062  0.0536 -0.5117  0.0175
 3739SOL     OW14721   5.106   3.856   1.210  0.4619  0.2955 -0.0555
 3739SOL    HW214722   5.027   3.879   1.161 -0.0289 -2.7442 -0.8841
 3739SOL    HW314723   5.178   3.886   1.155 -0.1142  0.1804 -0.8961
 3739SOL    MW414724   5.105   3.863   1.196  0.5122  0.8324 -0.1205
 3740SOL     OW14725   0.597   2.655   6.048 -0.5482 -0.7578  0.1920
 3740SOL    HW214726   0.516   2.606   6.032 -0.6010 -0.4018 -0.6866
 3740SOL    HW314727   0.665   2.589   6.049 -0.5739 -0.8536 -1.3331
 3740SOL    MW414728   0.595   2.640   6.046 -0.0829 -0.1002  0.2429
 3741SOL     OW14729   5.822   5.482   3.274 -0.5902 -0.1999 -0.4555
 3741SOL    HW214730   5.757   5.419   3.305 -1.7778  1.1044 -0.2302
 3741SOL    HW314731   5.857   5.442   3.193 -0.0756 -1.9158  0.5516
 3741SOL    MW414732   5.818   5.468   3.267 -0.3840 -0.3479 -0.6302
 3742SOL     OW14733   5.158   4.069   6.066  0.4467  0.5682 -0.3458
 3742SOL    HW214734   5.226   4.099   6.006  2.3257 -1.1455  0.7891
 3742SOL    HW314735   5.095   4.023   6.011  0.4947  1.6838 -1.3618
 3742SOL    MW414736   5.159   4.067   6.051 -0.5022 -0.5604  0.5056
 3743SOL     OW14737   3.508   1.502   0.211  0.4120 -0.3979  0.0931
 3743SOL    HW214738   3.415   1.521   0.203  0.7499  1.1375 -0.6278
 3743SOL    HW314739   3.551   1.588   0.209  1.8625 -1.0799  0.0957
 3743SOL    MW414740   3.502   1.516   0.210 -0.5277 -0.1944 -0.1339
 3744SOL     OW14741   2.090   3.639   1.367  0.1638 -0.2451  0.0012
 3744SOL    HW214742   2.176   3.614   1.400  0.2555  0.3292  0.2117
 3744SOL    HW314743   2.091   3.611   1.275  0.9822  0.7050 -0.2976
 3744SOL    MW414744   2.102   3.632   1.359  0.3861 -0.2179 -0.3609
 3745SOL     OW14745   4.352   6.011   1.121 -0.3075 -0.6498  0.1608
 3745SOL    HW214746   4.288   5.980   1.186 -1.2582  0.0899 -0.4023
 3745SOL    HW314747   4.301   6.063   1.060  0.9257  0.3977 -0.0251
 3745SOL    MW414748   4.337   6.013   1.122 -0.1972  0.1311 -0.4615
 3746SOL     OW14749   5.713   3.992   1.248 -0.0997 -0.0104  0.4955
 3746SOL    HW214750   5.655   3.973   1.174  2.2909 -0.6091 -1.3782
 3746SOL    HW314751   5.721   4.087   1.247  1.4245 -0.0945 -1.3789
 3746SOL    MW414752   5.706   4.002   1.238 -0.4731 -0.1434 -0.2022
 3747SOL     OW14753   4.348   3.840   1.290 -0.0519  0.0640  0.6610
 3747SOL    HW214754   4.328   3.749   1.315  0.2230 -0.5127 -1.0693
 3747SOL    HW314755   4.262   3.880   1.275 -0.1593 -0.0558  0.9504
 3747SOL    MW414756   4.334   3.833   1.291  0.1153 -0.0665 -0.6727
 3748SOL     OW14757   1.676   2.166   5.754 -0.0356  0.3022  0.2699
 3748SOL    HW214758   1.693   2.255   5.784 -0.2959 -0.2041  2.0357
 3748SOL    HW314759   1.703   2.110   5.827 -0.8446 -1.0080 -0.3896
 3748SOL    MW414760   1.682   2.170   5.767 -0.3015 -0.2500  0.0115
 3749SOL     OW14761   0.263   5.251   3.900  0.1461  0.6341 -0.8822
 3749SOL    HW214762   0.270   5.346   3.901  2.7401  0.5808  1.6750
 3749SOL    HW314763   0.181   5.232   3.945 -0.0301  1.6587 -0.7504
 3749SOL    MW414764   0.253   5.261   3.906  0.1427  0.2340  0.1588
 3750SOL     OW14765   0.533   2.509   0.219 -0.2600  0.4674  0.2073
 3750SOL    HW214766   0.547   2.431   0.274 -2.2284  0.8078  1.3101
 3750SOL    HW314767   0.544   2.477   0.130  1.4774 -0.4667  0.6995
 3750SOL    MW414768   0.536   2.494   0.215  0.7132 -0.2375 -0.5326
 3751SOL     OW14769   1.949   0.085   1.713  0.3513 -0.3588 -0.2316
 3751SOL    HW214770   1.864   0.086   1.669 -0.2375 -1.5212  0.8150
 3751SOL    HW314771   1.938   0.023   1.785  2.1500 -0.6912 -0.1930
 3751SOL    MW414772   1.937   0.077   1.716 -0.3334  0.4065 -0.1760
 3752SOL     OW14773   4.089   4.971   3.999  0.3523 -0.1461  0.0109
 3752SOL    HW214774   4.058   5.038   3.938  1.4359  0.5480  0.1934
 3752SOL    HW314775   4.101   5.017   4.082 -0.0351 -0.8327  0.4544
 3752SOL    MW414776   4.087   4.986   4.002  0.0308 -0.3456  0.0867
 3753SOL     OW14777   4.573   6.183   1.802 -0.0727 -1.0426 -0.0085
 3753SOL    HW214778   4.508   6.135   1.854 -1.0539  1.0114  0.7632
 3753SOL    HW314779   4.531   6.195   1.717  0.8410 -2.8809 -0.7914
 3753SOL    MW414780   4.559   6.178   1.797 -0.7181  0.5877  0.3358
 3754SOL     OW14781   3.377   3.153   3.980 -0.4105  0.5797  0.3189
 3754SOL    HW214782   3.413   3.241   3.992 -1.2732  1.1747 -1.1414
 3754SOL    HW314783   3.386   3.137   3.886  1.0663 -1.5105  0.7731
 3754SOL    MW414784   3.383   3.163   3.969  0.0883  0.5413 -0.3798
 3755SOL     OW14785   4.977   1.130   5.768 -0.2218  0.0954  0.4180
 3755SOL    HW214786   5.030   1.203   5.734 -1.8536  0.5616 -1.2949
 3755SOL    HW314787   4.935   1.166   5.846 -0.0369  0.5677  0.3039
 3755SOL    MW414788   4.978   1.145   5.774  0.4674  0.2460  0.6852
 3756SOL     OW14789   3.657   0.552   4.221  0.5446  0.1454  0.0927
 3756SOL    HW214790   3.708   0.590   4.293 -0.3375  0.2367  0.6838
 3756SOL    HW314791   3.567   0.555   4.252 -0.0973  1.8454 -1.7475
 3756SOL    MW414792   3.652   0.557   4.235 -0.0575  0.5312  0.2936
 3757SOL     OW14793   0.648   2.166   3.784 -0.2761 -0.4945 -0.6380
 3757SOL    HW214794   0.623   2.253   3.816 -0.8862 -0.7640 -0.3755
 3757SOL    HW314795   0.632   2.169   3.690  0.1635 -0.1675 -0.7054
 3757SOL    MW414796   0.643   2.178   3.776  0.4008 -0.2191  0.3173
 3758SOL     OW14797   3.817   2.586   1.400 -0.0999  0.1668  0.4233
 3758SOL    HW214798   3.781   2.559   1.316 -0.1285 -0.2487  0.5650
 3758SOL    HW314799   3.827   2.504   1.449  1.0801  0.2587  0.3732
 3758SOL    MW414800   3.814   2.571   1.395  0.0298 -0.2052  0.3864
 3759SOL     OW14801   0.986   0.997   0.731 -0.0023  0.2074  0.3164
 3759SOL    HW214802   0.938   0.984   0.813 -0.3045 -0.9339 -0.0214
 3759SOL    HW314803   0.945   0.936   0.669  0.3762  0.8747 -0.6206
 3759SOL    MW414804   0.974   0.987   0.734 -0.9422  0.2241 -0.2197
 3760SOL     OW14805   0.428   2.100   1.935 -0.3022  0.3694 -0.1001
 3760SOL    HW214806   0.487   2.160   1.980  1.4777 -1.1663 -0.2764
 3760SOL    HW314807   0.421   2.025   1.993 -0.0036 -0.5540 -1.2019
 3760SOL    MW414808   0.435   2.098   1.948 -0.0915  0.0289 -0.0516
 3761SOL     OW14809   1.249   2.565   6.154 -0.0382 -0.0127 -0.3008
 3761SOL    HW214810   1.200   2.608   6.224 -0.8591 -0.6805 -0.4515
 3761SOL    HW314811   1.216   2.605   6.074  0.1211 -0.0319 -0.3775
 3761SOL    MW414812   1.238   2.576   6.153 -0.9375 -0.0121  0.1817
 3762SOL     OW14813   0.289   5.899   2.323  0.3883  0.0469 -0.5661
 3762SOL    HW214814   0.212   5.954   2.311 -0.2419 -0.2825  1.5046
 3762SOL    HW314815   0.258   5.810   2.308  0.3046 -0.0985  0.3932
 3762SOL    MW414816   0.275   5.894   2.319  0.1523 -0.6658 -0.2509
 3763SOL     OW14817   3.068   2.367   0.516  0.6043 -0.2029 -0.0139
 3763SOL    HW214818   3.112   2.434   0.463 -0.2564  0.4114  0.0389
 3763SOL    HW314819   2.997   2.414   0.560  0.2902 -1.0531  0.4017
 3763SOL    MW414820   3.065   2.382   0.515  0.8696 -0.0191  0.0421
 3764SOL     OW14821   4.275   2.023   3.444 -0.0293  0.1314 -0.2642
 3764SOL    HW214822   4.318   2.088   3.388 -1.1872  2.6058  1.5595
 3764SOL    HW314823   4.186   2.056   3.456 -0.4970 -1.4895  1.2575
 3764SOL    MW414824   4.269   2.036   3.438  0.5333  0.5258 -0.2313
 3765SOL     OW14825   4.427   6.306   4.920 -0.1330 -0.1221 -0.6743
 3765SOL    HW214826   4.437   6.401   4.914 -0.9424  0.0499  0.4265
 3765SOL    HW314827   4.338   6.289   4.889  0.4582 -0.6893 -2.1442
 3765SOL    MW414828   4.417   6.316   4.915  0.5422  0.2451  0.2947
 3766SOL     OW14829   5.838   3.550   6.118  0.2182 -0.5702 -0.5814
 3766SOL    HW214830   5.843   3.457   6.142  3.1362 -0.3086  0.2679
 3766SOL    HW314831   5.864   3.553   6.026  0.6612 -0.5599 -0.4579
 3766SOL    MW414832   5.842   3.538   6.109 -0.9891 -0.5483  0.0197
 3767SOL     OW14833   1.867   3.117   5.561  0.4564 -0.6747  0.2409
 3767SOL    HW214834   1.886   3.131   5.469 -0.5589  0.8254  0.2414
 3767SOL    HW314835   1.941   3.158   5.607  0.3192 -0.2962  0.1228
 3767SOL    MW414836   1.879   3.124   5.555 -0.1019 -0.7080 -0.3136
 3768SOL     OW14837   4.185   5.297   6.150 -0.2407  0.3837  0.0958
 3768SOL    HW214838   4.107   5.259   6.191  0.0777 -1.6976 -1.0604
 3768SOL    HW314839   4.256   5.238   6.175 -0.0002 -0.8888 -3.0926
 3768SOL    MW414840   4.184   5.284   6.158 -0.2026  0.1891  0.0425
 3769SOL     OW14841   6.087   6.367   5.063 -0.4767 -0.3050 -0.5315
 3769SOL    HW214842   6.052   6.278   5.072  0.4160 -0.5668  0.7062
 3769SOL    HW314843   6.080   6.403   5.152 -1.3875  1.0949 -1.1429
 3769SOL    MW414844   6.081   6.360   5.076 -0.1689  0.6695 -0.0004
 3770SOL     OW14845   3.536   0.436   1.397  0.2981  0.1743 -0.4474
 3770SOL    HW214846   3.610   0.494   1.416  0.8344 -0.6703  0.1433
 3770SOL    HW314847   3.459   0.491   1.408  0.8476  1.4261 -2.3684
 3770SOL    MW414848   3.536   0.451   1.401 -0.2096 -0.0999  0.6117
 3771SOL     OW14849   5.751   1.601   0.763  0.3411 -0.0143  0.3159
 3771SOL    HW214850   5.744   1.626   0.671  0.3246 -0.0621  0.3040
 3771SOL    HW314851   5.676   1.543   0.777  1.9923 -2.4913 -0.4398
 3771SOL    MW414852   5.740   1.596   0.753  0.2539 -0.2896  0.3707
 3772SOL     OW14853   1.114   1.746   0.938  0.0504 -0.2786  0.3484
 3772SOL    HW214854   1.189   1.763   0.995 -0.2342  0.6915  0.4448
 3772SOL    HW314855   1.130   1.657   0.904 -0.0350 -1.0975  2.3266
 3772SOL    MW414856   1.126   1.736   0.941 -0.1013  0.3438 -0.3504
 3773SOL     OW14857   2.426   5.740   4.207 -0.5149 -0.2608 -0.3312
 3773SOL    HW214858   2.428   5.676   4.136 -0.1563  0.7757 -1.2846
 3773SOL    HW314859   2.518   5.767   4.217 -0.5688 -0.3694  0.5028
 3773SOL    MW414860   2.439   5.735   4.199 -0.5391 -0.1510 -0.0777
 3774SOL     OW14861   2.526   4.950   2.386 -0.5768  0.0419  0.3021
 3774SOL    HW214862   2.519   4.905   2.471 -0.4593 -1.0531 -0.2553
 3774SOL    HW314863   2.470   5.027   2.395 -1.3764 -0.6090  1.0261
 3774SOL    MW414864   2.518   4.954   2.399 -0.1461 -0.0192 -0.4916
 3775SOL     OW14865   5.008   3.964   4.179  0.1914 -0.1756 -0.1337
 3775SOL    HW214866   4.920   3.925   4.182 -1.5917  3.1307 -2.5543
 3775SOL    HW314867   5.006   4.032   4.247  0.0523  1.2657 -1.5296
 3775SOL    MW414868   4.996   3.968   4.188  0.0524 -0.6396  0.4391
 3776SOL     OW14869   2.631   1.619   2.420 -0.1914 -0.1409 -0.0101
 3776SOL    HW214870   2.536   1.628   2.412 -0.0966  0.5841 -0.3694
 3776SOL    HW314871   2.661   1.605   2.330  0.0532 -0.2656  0.0901
 3776SOL    MW414872   2.623   1.618   2.407 -0.7539  0.2324  0.7021
 3777SOL     OW14873   5.972   4.944   3.055  0.5375  0.0237 -0.1390
 3777SOL    HW214874   6.021   4.871   3.017 -0.2764 -1.6680  1.8094
 3777SOL    HW314875   6.036   4.992   3.107  0.9259  0.2120 -0.7934
 3777SOL    MW414876   5.987   4.941   3.057  0.1323 -0.3199  0.4643
 3778SOL     OW14877   1.493   5.564   6.404  0.4851  0.3808  0.0914
 3778SOL    HW214878   1.555   5.635   6.423 -0.3184  0.7380  1.5074
 3778SOL    HW314879   1.408   5.600   6.427 -0.2137 -0.3111 -1.2899
 3778SOL    MW414880   1.490   5.578   6.409 -0.1961 -0.0321 -0.4672
 3779SOL     OW14881   0.949   1.890   5.904  0.1046 -0.3832  0.5550
 3779SOL    HW214882   0.880   1.917   5.965 -0.9880 -0.4360 -0.6190
 3779SOL    HW314883   0.959   1.796   5.917 -0.2302 -0.4184  0.5476
 3779SOL    MW414884   0.942   1.881   5.914 -0.7091 -0.4393  0.0276
 3780SOL     OW14885   4.711   5.998   3.047  0.3112  0.0516  0.2463
 3780SOL    HW214886   4.732   6.083   3.007  0.1745 -0.6553 -1.4163
 3780SOL    HW314887   4.615   5.994   3.045  0.3052  0.0170  0.6634
 3780SOL    MW414888   4.701   6.009   3.041  0.3199  0.7415  0.2768
 3781SOL     OW14889   2.515   4.332   0.060 -0.3481 -0.1195 -0.1691
 3781SOL    HW214890   2.441   4.366   0.110  0.1956  0.5221  0.2128
 3781SOL    HW314891   2.484   4.249   0.024 -1.3861  0.3521 -0.3691
 3781SOL    MW414892   2.501   4.325   0.062 -0.4048 -0.9022  0.2651
 3782SOL     OW14893   2.755   5.722   3.488 -0.1614  0.2506  0.5074
 3782SOL    HW214894   2.694   5.761   3.550  0.7764  2.7858 -0.0253
 3782SOL    HW314895   2.722   5.748   3.402  0.5876 -0.0190  0.1253
 3782SOL    MW414896   2.743   5.730   3.484  0.0176 -0.2147  0.0333
 3783SOL     OW14897   2.489   1.364   5.213 -0.0555  0.0407  0.3324
 3783SOL    HW214898   2.463   1.453   5.236  0.6978  0.0223  1.3148
 3783SOL    HW314899   2.562   1.344   5.272  0.4539 -0.8546 -0.5755
 3783SOL    MW414900   2.495   1.373   5.224 -0.5158  0.0011 -0.1266
 3784SOL     OW14901   1.645   2.237   4.478  0.7004 -0.4652  0.4565
 3784SOL    HW214902   1.651   2.160   4.422  0.6905  0.7510 -1.2902
 3784SOL    HW314903   1.728   2.283   4.463 -0.7915  1.8008 -1.5730
 3784SOL    MW414904   1.657   2.233   4.469  0.3658  0.2882  0.1824
 3785SOL     OW14905   5.050   1.861   1.337 -0.0238 -0.6821 -0.3391
 3785SOL    HW214906   5.090   1.892   1.418 -1.3750 -0.8454  0.4111
 3785SOL    HW314907   4.986   1.928   1.315  1.7791  0.4872 -2.5014
 3785SOL    MW414908   5.047   1.874   1.345  0.0284 -0.2750  0.4722
 3786SOL     OW14909   5.281   4.209   1.225  0.1237 -0.5201 -0.0163
 3786SOL    HW214910   5.353   4.176   1.170 -0.2370  0.1373 -0.9018
 3786SOL    HW314911   5.218   4.138   1.227  1.6591 -1.9532  2.4925
 3786SOL    MW414912   5.282   4.195   1.218 -0.1148  0.3513 -0.1338
 3787SOL     OW14913   6.164   4.143   4.770  0.0020 -0.4562  0.0399
 3787SOL    HW214914   6.176   4.165   4.863  0.1715 -0.3928  0.0021
 3787SOL    HW314915   6.078   4.180   4.748 -0.6419 -1.6050  0.5190
 3787SOL    MW414916   6.154   4.151   4.780  0.3688 -0.3870 -0.0985
 3788SOL     OW14917   3.575   3.551   5.819  0.4419  0.0584  0.1785
 3788SOL    HW214918   3.659   3.505   5.824 -0.6872 -2.2800 -0.6192
 3788SOL    HW314919   3.596   3.638   5.785  2.4685 -0.6962 -0.6385
 3788SOL    MW414920   3.589   3.556   5.815 -0.1928  0.4650 -0.5110
 3789SOL     OW14921   4.008   3.415   5.977 -0.2557  0.2220 -0.2944
 3789SOL    HW214922   4.088   3.380   5.938 -0.1557 -1.0902  1.0147
 3789SOL    HW314923   3.941   3.401   5.910 -0.1899 -2.3938  0.0740
 3789SOL    MW414924   4.010   3.409   5.963 -0.0649 -0.4831 -0.4078
 3790SOL     OW14925   1.931   5.729   2.446  0.2451  0.4741  0.1553
 3790SOL    HW214926   1.871   5.739   2.519 -0.3914  0.6523 -0.3777
 3790SOL    HW314927   2.018   5.732   2.485 -0.0745 -1.7656  1.2233
 3790SOL    MW414928   1.934   5.731   2.461 -0.2706 -1.0800 -0.8815
 3791SOL     OW14929   5.765   4.555   0.489  0.5460 -0.5167  0.2163
 3791SOL    HW214930   5.710   4.582   0.563 -0.3327  0.4565 -0.7514
 3791SOL    HW314931   5.758   4.460   0.487 -2.8533 -0.3703 -1.0888
 3791SOL    MW414932   5.757   4.546   0.499  0.0364 -0.4163  0.2757
 3792SOL     OW14933   4.491   3.573   3.182  0.0408  0.3414 -0.3500
 3792SOL    HW214934   4.511   3.571   3.089  1.0778  1.6503 -0.1721
 3792SOL    HW314935   4.479   3.665   3.203 -0.3618  0.0547  0.7847
 3792SOL    MW414936   4.492   3.585   3.173 -0.4547  0.1734 -0.3472
 3793SOL     OW14937   4.421   2.690   4.720 -0.0946  0.2137 -0.3612
 3793SOL    HW214938   4.414   2.611   4.666 -2.6144  0.6900 -0.8172
 3793SOL    HW314939   4.424   2.657   4.810  1.1311 -0.4450 -0.6036
 3793SOL    MW414940   4.421   2.675   4.724 -0.1022  0.3523 -0.5637
 3794SOL     OW14941   4.568   0.805   2.289  0.0059 -0.0558 -0.6063
 3794SOL    HW214942   4.600   0.772   2.205  0.3881 -0.3415 -0.3538
 3794SOL    HW314943   4.480   0.769   2.296  0.2784 -0.7305 -0.5068
 3794SOL    MW414944   4.561   0.796   2.279 -0.1678 -0.4887 -0.5436
 3795SOL     OW14945   6.403   3.248   4.335 -0.5408  0.0911 -0.5862
 3795SOL    HW214946   6.331   3.285   4.284  0.5348  3.3446 -0.0095
 3795SOL    HW314947   6.417   3.312   4.405  1.4154 -1.6030  0.6770
 3795SOL    MW414948   6.395   3.261   4.338 -0.7815  0.4487  0.3352
 3796SOL     OW14949   3.083   0.338   1.405 -0.0355 -0.0676 -0.1507
 3796SOL    HW214950   3.131   0.256   1.394 -0.0965 -0.1668  0.2799
 3796SOL    HW314951   3.055   0.337   1.497  0.1474  0.5344 -0.0798
 3796SOL    MW414952   3.086   0.327   1.416  0.2707 -0.3527 -0.6804
 3797SOL     OW14953   2.540   0.489   4.249  0.1539  0.6379 -0.2275
 3797SOL    HW214954   2.582   0.564   4.291 -0.5379 -0.3491  2.4220
 3797SOL    HW314955   2.447   0.513   4.243  0.2183  0.6971 -1.0705
 3797SOL    MW414956   2.533   0.502   4.254  0.1757 -0.4904  0.3862
 3798SOL     OW14957   3.599   4.937   0.975 -0.2729 -0.6125 -0.1912
 3798SOL    HW214958   3.684   4.980   0.971  0.9898 -2.8117  1.3426
 3798SOL    HW314959   3.603   4.869   0.908 -0.4932 -1.2862  0.4719
 3798SOL    MW414960   3.611   4.934   0.965 -0.2657  0.3917 -0.6946
 3799SOL     OW14961   5.681   6.310   4.989  0.7041 -0.2813 -0.5794
 3799SOL    HW214962   5.586   6.300   5.000  0.7164 -0.3772 -0.5614
 3799SOL    HW314963   5.700   6.396   5.028  0.7069 -0.5064 -0.0746
 3799SOL    MW414964   5.671   6.320   4.996 -0.1713  0.0642 -0.3598
 3800SOL     OW14965   3.221   3.560   0.825  0.5682 -0.1480  0.2347
 3800SOL    HW214966   3.252   3.548   0.736  1.3291 -1.5027  0.6503
 3800SOL    HW314967   3.301   3.565   0.878  0.1225  0.1496  0.8968
 3800SOL    MW414968   3.235   3.559   0.820 -0.9341 -0.5996  0.4284
 3801SOL     OW14969   4.567   5.366   2.440  0.2687  0.8413 -0.5515
 3801SOL    HW214970   4.501   5.359   2.510  0.3832 -0.7621 -0.5735
 3801SOL    HW314971   4.651   5.370   2.486  0.2826  0.7112 -0.5637
 3801SOL    MW414972   4.569   5.366   2.456 -0.7957  0.1427 -0.2978
 3802SOL     OW14973   1.107   2.568   2.073 -0.3574  0.3004  0.0456
 3802SOL    HW214974   1.031   2.540   2.124 -0.3981  1.0833  0.4305
 3802SOL    HW314975   1.180   2.515   2.108 -0.8614 -1.0906 -0.9233
 3802SOL    MW414976   1.107   2.557   2.085  0.2041  0.5465  0.2050
 3803SOL     OW14977   1.757   2.926   3.889  0.3432 -0.4406  0.1066
 3803SOL    HW214978   1.832   2.925   3.828 -0.9770  1.9518 -1.7339
 3803SOL    HW314979   1.792   2.887   3.969  2.9074 -1.4664 -1.3470
 3803SOL    MW414980   1.772   2.920   3.891  0.5189 -0.2580  0.0219
 3804SOL     OW14981   2.806   3.642   0.256  0.1287  0.3936 -0.2861
 3804SOL    HW214982   2.760   3.704   0.200  1.1699  1.3214 -0.1598
 3804SOL    HW314983   2.742   3.615   0.321 -1.2217 -0.9857 -2.0826
 3804SOL    MW414984   2.792   3.647   0.257 -0.3205  0.2720 -0.2139
 3805SOL     OW14985   2.831   3.702   2.948  0.1974  0.5913  0.1233
 3805SOL    HW214986   2.911   3.750   2.971 -0.3951  2.3534 -1.2438
 3805SOL    HW314987   2.858   3.646   2.875  1.2235 -2.3866  2.5523
 3805SOL    MW414988   2.845   3.701   2.941  0.4105 -0.1444  0.3801
 3806SOL     OW14989   4.174   3.453   2.041  0.4802 -0.1415 -0.0179
 3806SOL    HW214990   4.102   3.513   2.024  0.1785 -0.3580  0.4737
 3806SOL    HW314991   4.194   3.415   1.955  1.3370  1.3782 -0.5160
 3806SOL    MW414992   4.167   3.456   2.028 -0.5966 -0.0404 -0.3787
 3807SOL     OW14993   4.727   4.382   4.892  0.2386 -0.5278  0.2833
 3807SOL    HW214994   4.772   4.444   4.950 -0.7297  2.6002 -1.9999
 3807SOL    HW314995   4.797   4.325   4.859  1.7022  0.9616  0.6413
 3807SOL    MW414996   4.742   4.383   4.895 -0.3591  0.5198 -0.4275
 3808SOL     OW14997   5.905   0.334   1.005 -0.2645 -0.5370 -0.0074
 3808SOL    HW214998   5.890   0.260   0.946  2.1987 -1.3130  0.2456
 3808SOL    HW314999   5.829   0.391   0.990 -1.2682 -2.1637 -1.6312
 3808SOL    MW415000   5.893   0.332   0.995  0.0167 -0.2897  0.1893
 3809SOL     OW15001   0.929   1.806   1.623  0.0089 -0.1780 -0.6496
 3809SOL    HW215002   0.867   1.868   1.663 -0.5793 -0.0976 -1.6523
 3809SOL    HW315003   1.005   1.809   1.680 -0.5250  0.4766  0.0606
 3809SOL    MW415004   0.931   1.815   1.636  0.2777 -0.2218 -0.0722
 3810SOL     OW15005   5.420   4.565   3.649  0.2862 -0.2119 -0.5535
 3810SOL    HW215006   5.411   4.656   3.680  0.3816 -0.5470  0.5232
 3810SOL    HW315007   5.478   4.524   3.714  0.4705 -0.9698 -1.1892
 3810SOL    MW415008   5.427   4.572   3.662  0.2211 -0.5384  0.1499
 3811SOL     OW15009   1.087   5.432   2.881 -0.3671 -0.4833 -0.0232
 3811SOL    HW215010   1.015   5.413   2.941 -0.8264 -0.7456 -0.6414
 3811SOL    HW315011   1.132   5.507   2.919 -1.1170 -0.1655  0.2488
 3811SOL    MW415012   1.084   5.440   2.894 -0.3524 -0.3265 -0.1338
 3812SOL     OW15013   0.610   2.719   0.423  0.8591  0.1233 -0.2653
 3812SOL    HW215014   0.594   2.664   0.346  1.8565 -0.1278 -0.3071
 3812SOL    HW315015   0.529   2.714   0.473  0.4287 -0.2319 -0.9816
 3812SOL    MW415016   0.597   2.711   0.419  0.0579 -0.3808 -0.0417
 3813SOL     OW15017   4.619   5.294   4.601  0.1375  0.4309 -0.3888
 3813SOL    HW215018   4.537   5.332   4.630  0.1868  1.2485 -1.2717
 3813SOL    HW315019   4.601   5.260   4.513  0.5197 -0.1496 -0.2519
 3813SOL    MW415020   4.606   5.295   4.593  0.1807 -0.0250 -0.3686
 3814SOL     OW15021   2.863   2.369   1.673 -0.5294 -0.0051  0.2835
 3814SOL    HW215022   2.779   2.376   1.627 -0.1816  0.9753 -0.2168
 3814SOL    HW315023   2.887   2.459   1.693  0.5457 -0.2619  0.1830
 3814SOL    MW415024   2.855   2.382   1.670 -0.0962 -0.2429  0.2791
 3815SOL     OW15025   1.781   0.151   2.072 -0.0828  0.5431  0.7722
 3815SOL    HW215026   1.712   0.172   2.009 -0.7486  0.6483  1.5329
 3815SOL    HW315027   1.818   0.069   2.040 -1.0591  0.0906  0.7767
 3815SOL    MW415028   1.777   0.143   2.059 -0.4761 -0.4631  0.1104
 3816SOL     OW15029   4.085   0.240   5.716  0.0212  0.3605 -0.0333
 3816SOL    HW215030   4.120   0.177   5.779 -0.2289  1.6087  1.4225
 3816SOL    HW315031   4.012   0.282   5.762 -1.2876  0.1141 -1.8048
 3816SOL    MW415032   4.080   0.237   5.730 -0.3620  0.0231  0.2877
 3817SOL     OW15033   2.699   5.889   1.916  0.3895  0.0427 -0.4018
 3817SOL    HW215034   2.794   5.872   1.912  0.2608 -1.0829  0.5939
 3817SOL    HW315035   2.692   5.979   1.946  1.1362  0.6084 -1.8177
 3817SOL    MW415036   2.711   5.898   1.919 -0.6477 -0.6203 -0.1954
 3818SOL     OW15037   0.913   4.498   3.656 -0.1515 -0.3250  0.0466
 3818SOL    HW215038   0.927   4.476   3.564 -0.5663 -1.3039  0.2040
 3818SOL    HW315039   0.848   4.568   3.654  0.0396 -0.1596 -0.4198
 3818SOL    MW415040   0.906   4.504   3.643 -0.1873 -0.1071  0.3270
 3819SOL     OW15041   0.855   2.031   4.636  0.5820  0.0260 -0.3779
 3819SOL    HW215042   0.785   2.024   4.571 -0.5623  3.5332  0.2814
 3819SOL    HW315043   0.935   2.017   4.586 -0.3414  0.9814 -2.2397
 3819SOL    MW415044   0.856   2.028   4.621  0.5521 -0.4938 -0.0004
 3820SOL     OW15045   6.111   6.015   0.195 -0.5428 -0.1057 -0.0610
 3820SOL    HW215046   6.118   6.097   0.146  1.5478 -0.2825 -0.1173
 3820SOL    HW315047   6.147   5.949   0.137  2.7941 -0.2016  1.8474
 3820SOL    MW415048   6.116   6.017   0.181 -1.1334 -0.3340  0.2497
 3821SOL     OW15049   0.706   0.986   2.969 -0.8203  0.1460 -0.0872
 3821SOL    HW215050   0.711   0.946   3.055 -0.3920  0.0342 -0.1640
 3821SOL    HW315051   0.613   0.980   2.945 -0.5223 -2.3924 -0.8544
 3821SOL    MW415052   0.694   0.980   2.977  0.4291  0.1018  0.2145
 3822SOL     OW15053   1.672   6.358   0.510 -0.2007  0.1450 -0.1710
 3822SOL    HW215054   1.627   6.424   0.458  2.7065  0.9449 -1.8458
 3822SOL    HW315055   1.712   6.407   0.582 -1.6146 -0.5255  1.1478
 3822SOL    MW415056   1.671   6.373   0.513 -0.3850  0.0981  0.1996
 3823SOL     OW15057   3.887   3.055   6.197  0.5715  0.0846  0.9180
 3823SOL    HW215058   3.870   3.016   6.111 -1.0424  2.6061 -0.0074
 3823SOL    HW315059   3.982   3.051   6.206  0.7497 -0.6364 -0.7786
 3823SOL    MW415060   3.897   3.049   6.187 -0.1863 -0.3235  0.6864
 3824SOL     OW15061   5.385   2.014   5.237  0.6713  0.1756 -0.2454
 3824SOL    HW215062   5.449   2.027   5.308  0.1904  1.5751 -0.0380
 3824SOL    HW315063   5.438   1.984   5.163  1.7742  2.1462 -0.3561
 3824SOL    MW415064   5.401   2.012   5.237  0.2868 -0.0645  0.1915
 3825SOL     OW15065   5.651   4.375   5.606 -0.0560  0.1342  0.0232
 3825SOL    HW215066   5.664   4.469   5.590 -0.0765  0.0759 -0.3532
 3825SOL    HW315067   5.692   4.360   5.691  2.4034 -0.0281 -1.1003
 3825SOL    MW415068   5.658   4.386   5.615 -0.5543 -0.2415 -0.1292
 3826SOL     OW15069   5.354   5.653   0.030  0.1738 -0.5865 -0.0841
 3826SOL    HW215070   5.442   5.622   0.009  0.3547 -0.5722  0.6233
 3826SOL    HW315071   5.364   5.699   0.114 -0.2418  0.6462 -0.6742
 3826SOL    MW415072   5.367   5.655   0.038  0.2551 -0.1378  0.2475
 3827SOL     OW15073   2.779   1.119   3.961  0.1974  0.1988  0.2008
 3827SOL    HW215074   2.728   1.195   3.990 -0.7204  0.1008 -1.0592
 3827SOL    HW315075   2.771   1.056   4.033 -2.1146 -0.0936 -0.2365
 3827SOL    MW415076   2.771   1.120   3.975 -0.4440 -0.4337  0.5686
 3828SOL     OW15077   4.063   1.349   5.599 -0.4201  0.3198 -0.3932
 3828SOL    HW215078   4.031   1.276   5.651  1.3088  0.1426  0.5314
 3828SOL    HW315079   4.109   1.404   5.663  1.5387  0.2442 -1.6595
 3828SOL    MW415080   4.065   1.347   5.614  0.8948  1.0949  0.2077
 3829SOL     OW15081   5.928   0.204   3.079 -0.2798  0.1859  0.0987
 3829SOL    HW215082   5.889   0.290   3.097 -0.4959  0.3199 -0.9827
 3829SOL    HW315083   5.912   0.188   2.986  3.7290  0.9917 -0.9129
 3829SOL    MW415084   5.920   0.213   3.069 -0.5176 -0.0728  0.2259
 3830SOL     OW15085   2.739   6.389   3.228 -0.1997 -0.0789 -0.2438
 3830SOL    HW215086   2.764   6.309   3.275  0.3651  0.5148  0.5121
 3830SOL    HW315087   2.792   6.388   3.149 -1.2040 -1.1250 -0.9392
 3830SOL    MW415088   2.749   6.378   3.224  0.2334  0.1619  0.2707
 3831SOL     OW15089   0.749   2.236   3.309  0.4276 -0.3205  0.3828
 3831SOL    HW215090   0.681   2.202   3.368 -1.0462  2.5692  0.5728
 3831SOL    HW315091   0.828   2.240   3.363  0.8754 -3.7460  0.1656
 3831SOL    MW415092   0.750   2.232   3.324 -0.1295  0.2948 -0.1256
 3832SOL     OW15093   2.103   3.552   0.819 -0.5960 -0.3652 -0.4027
 3832SOL    HW215094   2.160   3.482   0.850  0.4537  0.6003 -0.0739
 3832SOL    HW315095   2.030   3.507   0.776  0.6154 -1.6434 -1.2071
 3832SOL    MW415096   2.101   3.537   0.817 -0.4204 -0.2448 -0.0212
 3833SOL     OW15097   5.764   3.556   4.595 -0.2115 -0.3704 -0.2412
 3833SOL    HW215098   5.711   3.506   4.533 -1.7195  1.1997 -0.3043
 3833SOL    HW315099   5.846   3.507   4.601 -1.2991 -2.3897 -0.8688
 3833SOL    MW415100   5.768   3.543   4.587 -0.1359 -0.1891 -0.1539
 3834SOL     OW15101   0.910   5.596   2.469  0.2810  0.1817  0.2764
 3834SOL    HW215102   0.935   5.528   2.531  1.5879  1.1202  0.8477
 3834SOL    HW315103   0.881   5.669   2.524 -0.0870  0.4508 -0.2715
 3834SOL    MW415104   0.910   5.597   2.485 -0.3400  0.0721  0.0788
 3835SOL     OW15105   1.105   0.593   4.013 -0.6088 -0.1953 -0.0022
 3835SOL    HW215106   1.137   0.652   4.081 -1.3376 -0.3267  0.4751
 3835SOL    HW315107   1.175   0.529   4.001  0.1872  0.7423 -0.5157
 3835SOL    MW415108   1.118   0.593   4.021 -0.4627 -0.2856 -0.2543
 3836SOL     OW15109   1.979   4.871   2.659 -0.1278 -0.0609 -0.1758
 3836SOL    HW215110   1.914   4.805   2.634  0.2509 -0.2686 -0.6314
 3836SOL    HW315111   2.052   4.856   2.599  0.1503  0.4740  0.0252
 3836SOL    MW415112   1.980   4.860   2.648 -0.1830  0.3830 -0.2291
 3837SOL     OW15113   5.532   6.319   5.781  0.8836 -0.6454 -0.1202
 3837SOL    HW215114   5.517   6.224   5.784  0.1675 -0.5022  1.2228
 3837SOL    HW315115   5.541   6.345   5.872 -0.8693  0.8714 -0.3238
 3837SOL    MW415116   5.531   6.310   5.793  0.1116 -0.2342  0.6548
 3838SOL     OW15117   1.614   0.887   4.395  0.2019 -0.5458 -0.1941
 3838SOL    HW215118   1.538   0.880   4.337 -0.0226 -1.7922  0.2251
 3838SOL    HW315119   1.584   0.851   4.479  0.2643  1.9211  0.9983
 3838SOL    MW415120   1.600   0.881   4.399 -0.1917  0.0245 -0.3228
 3839SOL     OW15121   2.231   3.698   6.246  0.1167  0.3232  0.2868
 3839SOL    HW215122   2.150   3.681   6.294  0.0468  0.4410  0.2096
 3839SOL    HW315123   2.232   3.632   6.177 -1.0174  1.6964 -1.0993
 3839SOL    MW415124   2.221   3.687   6.243  0.1052  0.4828  0.3394
 3840SOL     OW15125   1.027   2.394   2.701 -0.0511  0.4430  0.2137
 3840SOL    HW215126   1.047   2.370   2.610 -0.3828 -0.1004  0.2768
 3840SOL    HW315127   1.102   2.361   2.750 -0.4149 -0.3096  0.2751
 3840SOL    MW415128   1.040   2.386   2.695 -0.6238  0.8182  0.1744
 3841SOL     OW15129   1.738   4.678   1.708 -0.1612  0.0711  0.5249
 3841SOL    HW215130   1.780   4.629   1.637  2.2019  0.8190  1.3337
 3841SOL    HW315131   1.785   4.651   1.787 -1.7627  0.3646  1.6244
 3841SOL    MW415132   1.750   4.668   1.709 -0.1736  0.1915  0.0564
 3842SOL     OW15133   6.324   4.913   0.595 -0.1916 -0.3773 -0.2628
 3842SOL    HW215134   6.276   4.959   0.526  0.4389 -0.4631 -0.7665
 3842SOL    HW315135   6.276   4.934   0.676 -0.5047  0.3233 -0.6226
 3842SOL    MW415136   6.311   4.922   0.597  0.0093  0.4620  0.1707
 3843SOL     OW15137   6.190   1.072   4.159 -0.0439 -0.7521  0.3908
 3843SOL    HW215138   6.231   1.068   4.246 -0.0954  0.9477  0.5245
 3843SOL    HW315139   6.263   1.058   4.098  0.6066  1.2269  0.6540
 3843SOL    MW415140   6.205   1.070   4.163 -0.4760  0.4431 -0.2246
 3844SOL     OW15141   4.958   1.806   2.628  0.3663  0.3134 -0.6929
 3844SOL    HW215142   4.921   1.794   2.540 -2.3600  2.0854  0.0620
 3844SOL    HW315143   5.003   1.891   2.623 -1.1587  1.2002 -0.0513
 3844SOL    MW415144   4.959   1.816   2.616 -0.1730 -0.8271 -0.3643
 3845SOL     OW15145   0.100   5.819   4.752 -0.3476  0.2481  0.2468
 3845SOL    HW215146   0.093   5.871   4.832  3.5540  1.5105  0.0025
 3845SOL    HW315147   0.144   5.738   4.780 -0.1048  0.1479 -0.4017
 3845SOL    MW415148   0.105   5.815   4.766  0.0098  0.1323  0.0267
 3846SOL     OW15149   3.194   5.100   4.995  0.0869 -0.1098 -0.2759
 3846SOL    HW215150   3.146   5.029   5.038  0.2015 -0.4336 -0.6805
 3846SOL    HW315151   3.188   5.080   4.902 -0.2812  0.6734 -0.4234
 3846SOL    MW415152   3.187   5.088   4.989 -0.2228  0.0018  0.6492
 3847SOL     OW15153   5.632   4.931   1.401 -0.0394 -0.1628  0.5041
 3847SOL    HW215154   5.595   5.015   1.377  2.0017  0.2457 -1.5670
 3847SOL    HW315155   5.584   4.867   1.349 -0.0434 -0.0093  0.3189
 3847SOL    MW415156   5.621   4.933   1.391 -0.3853  0.3026  0.1153
 3848SOL     OW15157   6.355   4.371   1.378 -0.0588 -0.3084 -0.1651
 3848SOL    HW215158   6.320   4.456   1.351 -0.1247 -0.3982 -0.3603
 3848SOL    HW315159   6.287   4.335   1.436  0.1152 -0.0857  0.1835
 3848SOL    MW415160   6.341   4.377   1.382  0.0052  0.5969  0.1596
 3849SOL     OW15161   4.134   3.492   3.552  0.0410 -0.1870  0.3052
 3849SOL    HW215162   4.205   3.536   3.599  1.8709 -2.1925 -0.4197
 3849SOL    HW315163   4.104   3.556   3.488  1.6911  0.5034  0.1772
 3849SOL    MW415164   4.140   3.506   3.550 -0.1212 -0.1303 -0.1831
 3850SOL     OW15165   2.514   5.243   3.265 -0.3633  0.2088  0.7567
 3850SOL    HW215166   2.580   5.246   3.196 -0.1555  2.5938  0.9905
 3850SOL    HW315167   2.438   5.288   3.229 -1.6546 -1.8359  0.7700
 3850SOL    MW415168   2.513   5.249   3.251  0.0863 -0.5637 -0.1294
 3851SOL     OW15169   0.860   6.332   5.509 -0.3709 -0.4661 -0.1554
 3851SOL    HW215170   0.916   6.381   5.449 -1.4348 -1.0475 -1.6826
 3851SOL    HW315171   0.921   6.291   5.570  0.6740  0.9362 -0.2099
 3851SOL    MW415172   0.875   6.333   5.509 -0.4279 -0.3000 -0.0719
 3852SOL     OW15173   5.053   4.696   0.432  0.7377 -0.1174 -0.0212
 3852SOL    HW215174   5.090   4.609   0.444 -0.0870 -0.3875  0.6633
 3852SOL    HW315175   5.045   4.731   0.520  1.3773  0.7965 -0.3140
 3852SOL    MW415176   5.057   4.689   0.445  0.0780 -0.3374 -0.0843
 3853SOL     OW15177   6.211   2.686   5.817 -0.4619  0.0666 -0.4812
 3853SOL    HW215178   6.288   2.682   5.760 -0.3307 -2.1806 -0.2704
 3853SOL    HW315179   6.229   2.757   5.878  1.9681 -1.0581  0.2122
 3853SOL    MW415180   6.223   2.695   5.818 -0.1034  0.5052  0.0598
 3854SOL     OW15181   1.992   1.363   1.286 -0.0764 -0.2280  0.6825
 3854SOL    HW215182   1.949   1.429   1.233  2.1979 -0.0845 -1.1515
 3854SOL    HW315183   1.927   1.339   1.352 -1.7973  2.0995 -0.0365
 3854SOL    MW415184   1.978   1.369   1.288 -0.2471  0.2115  0.0128
 3855SOL     OW15185   1.269   2.127   1.052  0.1797  0.2181 -0.3744
 3855SOL    HW215186   1.186   2.146   1.008 -0.1910 -1.2580 -0.3472
 3855SOL    HW315187   1.319   2.077   0.988  0.9818  0.9092 -0.3092
 3855SOL    MW415188   1.264   2.123   1.038 -0.4106  0.2393  0.2491
 3856SOL     OW15189   0.497   1.629   4.052  0.2044 -0.4633  0.4899
 3856SOL    HW215190   0.432   1.623   4.122  0.8756  0.2307  1.1919
 3856SOL    HW315191   0.467   1.702   3.997 -0.5822 -1.3106 -0.2519
 3856SOL    MW415192   0.485   1.638   4.054  0.0148  0.1495 -0.6490
 3857SOL     OW15193   2.245   1.565   2.673 -0.2900 -0.0118  0.4213
 3857SOL    HW215194   2.263   1.559   2.767 -0.5201  1.8122  0.6234
 3857SOL    HW315195   2.300   1.498   2.634 -0.0169 -0.6536  1.8387
 3857SOL    MW415196   2.254   1.556   2.680  0.2624 -0.6143  0.6033
 3858SOL     OW15197   2.350   3.890   0.117 -0.4123 -0.2606 -0.0145
 3858SOL    HW215198   2.371   3.798   0.100 -0.3021 -0.9680  3.2325
 3858SOL    HW315199   2.401   3.911   0.195  1.3151  3.3173 -1.9018
 3858SOL    MW415200   2.360   3.880   0.125 -0.0796 -0.1443 -0.1964
 3859SOL     OW15201   0.005   3.868   3.391  0.1541  0.4805  0.1132
 3859SOL    HW215202   0.064   3.935   3.425 -0.3921  0.6058  0.8422
 3859SOL    HW315203   0.063   3.804   3.350  0.7484  0.9237  0.2434
 3859SOL    MW415204   0.020   3.868   3.390 -0.7808  0.3846  0.3779
 3860SOL     OW15205   0.224   2.825   1.461 -0.0790 -0.2583 -0.0269
 3860SOL    HW215206   0.192   2.859   1.378  1.3676  1.0533 -0.1083
 3860SOL    HW315207   0.270   2.900   1.501 -0.4405 -0.9590  1.7866
 3860SOL    MW415208   0.226   2.840   1.455 -0.3797  0.1120 -0.1352
 3861SOL     OW15209   4.209   2.423   5.914 -0.3772 -0.1629  0.3470
 3861SOL    HW215210   4.210   2.328   5.913 -1.4486 -0.2055 -1.1541
 3861SOL    HW315211   4.274   2.449   5.848 -0.4024  0.1194  0.4298
 3861SOL    MW415212   4.218   2.414   5.905  0.0556 -0.2885  0.0287
 3862SOL     OW15213   2.856   1.769   3.237 -0.4486  0.4754 -0.2348
 3862SOL    HW215214   2.838   1.851   3.192  0.0413  0.7041 -0.0227
 3862SOL    HW315215   2.876   1.795   3.327  1.9065  0.3455 -0.6733
 3862SOL    MW415216   2.856   1.783   3.243  0.0127 -0.2220  0.0766
 3863SOL     OW15217   1.387   4.181   4.034 -0.4574 -0.1314  0.9602
 3863SOL    HW215218   1.368   4.141   4.118 -1.5507 -1.0100  0.3221
 3863SOL    HW315219   1.476   4.153   4.013  0.1651  0.8188  2.2066
 3863SOL    MW415220   1.396   4.172   4.042 -0.0028 -0.7512  0.0362
 3864SOL     OW15221   0.621   5.587   5.109 -0.0801 -0.1975 -0.1342
 3864SOL    HW215222   0.683   5.515   5.118  0.2143 -0.1452 -1.5402
 3864SOL    HW315223   0.667   5.663   5.145 -0.0650 -0.5264  0.5594
 3864SOL    MW415224   0.635   5.587   5.115 -0.2388 -0.0296 -0.3882
 3865SOL     OW15225   5.263   3.129   6.070 -0.1271  0.4124 -0.1565
 3865SOL    HW215226   5.311   3.206   6.039  0.7325 -0.1888 -0.3624
 3865SOL    HW315227   5.188   3.165   6.118 -0.3151  1.3659 -1.1308
 3865SOL    MW415228   5.260   3.144   6.072  0.2128 -0.3577  0.0846
 3866SOL     OW15229   4.846   2.479   2.890  0.1392  0.3113 -0.1349
 3866SOL    HW215230   4.905   2.470   2.815 -0.0462  0.3654 -0.2880
 3866SOL    HW315231   4.826   2.572   2.894 -0.1724  0.2507 -0.2654
 3866SOL    MW415232   4.852   2.490   2.881  0.8324 -0.4016  0.4679
 3867SOL     OW15233   4.586   2.630   5.547  0.1402  0.2325  0.1156
 3867SOL    HW215234   4.591   2.725   5.556 -1.6920  0.4856 -0.9404
 3867SOL    HW315235   4.628   2.611   5.463 -0.0540  0.2054  0.0221
 3867SOL    MW415236   4.592   2.640   5.537  0.2784  0.0665 -0.4840
 3868SOL     OW15237   5.093   0.955   1.137 -0.0103  0.2295  0.2225
 3868SOL    HW215238   5.014   1.001   1.110 -0.0976  1.1876  1.9570
 3868SOL    HW315239   5.148   1.023   1.176  2.6397  0.0268 -2.7367
 3868SOL    MW415240   5.090   0.970   1.139 -0.1138  0.2116  0.4238
 3869SOL     OW15241   2.334   5.137   2.486  0.2643  0.4881  0.3672
 3869SOL    HW215242   2.280   5.058   2.483  0.1548  0.4610  1.9856
 3869SOL    HW315243   2.287   5.196   2.545  1.2735  1.0279  0.6531
 3869SOL    MW415244   2.321   5.134   2.494 -0.4465  0.1334  0.1005
 3870SOL     OW15245   3.615   5.007   2.493 -0.4908 -0.2168  0.0101
 3870SOL    HW215246   3.617   5.066   2.569  1.1531 -1.8191  1.3257
 3870SOL    HW315247   3.648   5.059   2.421  0.2465  0.6864  0.9677
 3870SOL    MW415248   3.620   5.022   2.494 -0.0863 -0.1139 -0.1702
 3871SOL     OW15249   5.603   2.645   6.131  0.1789 -0.1651 -0.5332
 3871SOL    HW215250   5.515   2.630   6.164  0.3133  0.7392  0.2823
 3871SOL    HW315251   5.596   2.724   6.076  0.4645 -0.1342 -0.5309
 3871SOL    MW415252   5.591   2.654   6.128 -0.3233 -0.0600 -0.1862
 3872SOL     OW15253   4.983   5.194   0.562 -0.2566 -0.3702 -0.1489
 3872SOL    HW215254   4.993   5.161   0.473  0.4443 -0.6740  0.0390
 3872SOL    HW315255   4.958   5.285   0.551  0.3335 -0.2655 -0.6543
 3872SOL    MW415256   4.981   5.201   0.549 -0.2811 -0.1682  0.0577
 3873SOL     OW15257   6.233   3.959   6.321 -0.0239 -0.9912  0.0015
 3873SOL    HW215258   6.206   3.877   6.363  1.0617 -1.4364 -0.1278
 3873SOL    HW315259   6.285   4.004   6.388 -0.1325 -0.6828 -0.1228
 3873SOL    MW415260   6.236   3.954   6.336  0.7768 -0.4856  0.3532
 3874SOL     OW15261   4.968   5.687   1.003  0.0485 -0.8025 -0.2994
 3874SOL    HW215262   5.041   5.743   0.979  1.3337 -2.6690 -1.0401
 3874SOL    HW315263   4.945   5.714   1.092  2.1575 -0.5983  0.2551
 3874SOL    MW415264   4.975   5.698   1.012  0.2265  0.3373 -0.5674
 3875SOL     OW15265   3.077   1.487   2.427  0.7022 -0.2009 -0.0351
 3875SOL    HW215266   3.099   1.561   2.484  1.4980 -0.0273 -0.5372
 3875SOL    HW315267   3.149   1.425   2.440  0.8883 -0.1610 -0.8262
 3875SOL    MW415268   3.089   1.489   2.436 -0.4346 -0.5373  0.8955
 3876SOL     OW15269   0.997   0.866   1.250  0.2513 -0.7266 -0.7884
 3876SOL    HW215270   0.969   0.893   1.163 -0.1974 -1.3763 -0.8612
 3876SOL    HW315271   0.949   0.784   1.266  0.3140 -0.6106  0.0722
 3876SOL    MW415272   0.987   0.858   1.241 -0.2347  0.5929 -0.1874
 3877SOL     OW15273   5.443   1.848   4.009 -0.7373 -0.3820 -0.5781
 3877SOL    HW215274   5.375   1.868   4.072 -0.6226 -2.6700  0.3867
 3877SOL    HW315275   5.398   1.846   3.925 -1.2687  0.8470 -0.3411
 3877SOL    MW415276   5.428   1.850   4.006 -0.0285  0.2556  0.0798
 3878SOL     OW15277   3.341   5.307   6.215  0.3298  0.7047 -0.3534
 3878SOL    HW215278   3.391   5.384   6.243  1.6358 -0.3742  0.4369
 3878SOL    HW315279   3.368   5.239   6.277 -0.5616 -0.4625 -1.2300
 3878SOL    MW415280   3.351   5.308   6.227  0.0214  0.0269  0.1519
 3879SOL     OW15281   0.194   0.264   4.770  0.1663  0.4171  0.2500
 3879SOL    HW215282   0.237   0.219   4.697 -0.5387 -0.9091  0.6296
 3879SOL    HW315283   0.165   0.194   4.828 -1.7516  1.2987  0.4291
 3879SOL    MW415284   0.196   0.249   4.768 -0.0280  0.2537 -0.2139
 3880SOL     OW15285   5.554   3.187   2.819  0.0157 -0.1169 -0.1387
 3880SOL    HW215286   5.526   3.268   2.862  1.4024  0.9179 -1.1013
 3880SOL    HW315287   5.546   3.120   2.887 -3.0611  0.3811  0.1566
 3880SOL    MW415288   5.549   3.189   2.834 -0.6864  0.4741 -0.0449
 3881SOL     OW15289   3.644   3.253   4.749 -0.6381 -0.5267 -0.1280
 3881SOL    HW215290   3.595   3.322   4.705 -0.5701 -1.0280 -1.0141
 3881SOL    HW315291   3.635   3.176   4.692  1.2522 -0.6165 -0.3938
 3881SOL    MW415292   3.637   3.252   4.736  0.1906 -0.1336  0.0222
 3882SOL     OW15293   3.799   3.131   5.724 -0.1632  0.5477  0.6481
 3882SOL    HW215294   3.800   3.060   5.788  0.8926  0.7462  0.8741
 3882SOL    HW315295   3.847   3.096   5.649 -1.4516  0.2915 -0.0867
 3882SOL    MW415296   3.805   3.117   5.723  0.2531  0.5186  0.8875
 3883SOL     OW15297   1.669   5.236   5.171  0.1444 -0.3483 -0.2653
 3883SOL    HW215298   1.578   5.261   5.151  0.6090  0.5800 -1.3186
 3883SOL    HW315299   1.666   5.206   5.262 -1.2192 -0.3694 -0.2876
 3883SOL    MW415300   1.656   5.235   5.180 -0.0753  0.2335 -0.0084
 3884SOL     OW15301   2.330   5.218   0.563  0.4887 -0.6526 -0.1278
 3884SOL    HW215302   2.271   5.292   0.552  1.9306  0.5418 -0.0758
 3884SOL    HW315303   2.274   5.146   0.591 -0.8824  0.5235  0.2264
 3884SOL    MW415304   2.315   5.218   0.565 -0.1238 -0.3086 -0.0400
 3885SOL     OW15305   2.380   1.624   5.361 -0.1117 -0.0125  0.0866
 3885SOL    HW215306   2.300   1.648   5.407 -0.4567  0.0683 -0.5356
 3885SOL    HW315307   2.360   1.640   5.269  0.4116 -0.5872 -0.1351
 3885SOL    MW415308   2.367   1.630   5.355  0.0752 -0.0613  0.3699
 3886SOL     OW15309   4.525   0.852   0.087 -0.1169 -0.3563 -0.0187
 3886SOL    HW215310   4.517   0.786   0.155  1.6757  1.2025  1.8254
 3886SOL    HW315311   4.565   0.927   0.130  0.8811  0.8233 -2.7315
 3886SOL    MW415312   4.530   0.853   0.101 -0.4290  0.2434 -0.3733
 3887SOL     OW15313   4.920   4.542   0.845 -0.3933  0.2801 -0.2949
 3887SOL    HW215314   4.881   4.554   0.931 -1.5308 -3.3491 -0.1398
 3887SOL    HW315315   4.982   4.470   0.856  0.6212  0.7862 -2.2024
 3887SOL    MW415316   4.923   4.534   0.858  0.2017 -0.1442 -0.8131
 3888SOL     OW15317   0.079   5.872   4.362  0.1398  0.4895 -0.2599
 3888SOL    HW215318   0.060   5.933   4.291  0.8973  0.6013 -0.3788
 3888SOL    HW315319  -0.005   5.859   4.406 -0.7305 -0.9714 -2.2300
 3888SOL    MW415320   0.065   5.878   4.358 -0.0180 -0.3182  0.0824
 3889SOL     OW15321   1.791   1.855   2.579  0.1642 -0.3723  0.2892
 3889SOL    HW215322   1.728   1.897   2.638 -1.2882  0.2261 -1.5807
 3889SOL    HW315323   1.870   1.844   2.632 -0.3404  2.1037  1.7248
 3889SOL    MW415324   1.793   1.859   2.594  0.4098 -0.1382 -0.8837
 3890SOL     OW15325   1.907   2.899   0.770  0.2958  0.1115  0.1202
 3890SOL    HW215326   1.997   2.909   0.738 -0.5025 -1.1699 -2.8838
 3890SOL    HW315327   1.914   2.833   0.840  1.3865 -3.0399 -2.6709
 3890SOL    MW415328   1.920   2.891   0.775 -0.0510 -0.5917  0.1622
 3891SOL     OW15329   1.124   5.117   1.917  0.3196  0.0880  0.2641
 3891SOL    HW215330   1.190   5.082   1.858 -0.2285  0.4318 -0.5744
 3891SOL    HW315331   1.061   5.046   1.928 -0.4895  0.5632 -0.9799
 3891SOL    MW415332   1.124   5.103   1.911 -0.0574  0.2713  0.4057
 3892SOL     OW15333   2.398   5.644   1.929  0.0685 -0.2730 -0.1197
 3892SOL    HW215334   2.313   5.632   1.887  0.3147 -1.4629 -0.3300
 3892SOL    HW315335   2.378   5.683   2.014 -0.4557  2.0034 -1.1987
 3892SOL    MW415336   2.384   5.648   1.935 -0.0084  0.0147  0.0699
 3893SOL     OW15337   1.714   1.459   2.883  0.3069  0.1876  0.4633
 3893SOL    HW215338   1.695   1.389   2.946  0.4577 -0.7440 -0.4808
 3893SOL    HW315339   1.690   1.421   2.798  0.9291  1.0840 -0.1298
 3893SOL    MW415340   1.709   1.445   2.880 -0.2653 -0.2264 -0.2465
 3894SOL     OW15341   5.625   2.647   1.340 -0.0555  0.1757  0.0645
 3894SOL    HW215342   5.633   2.682   1.429 -2.2100 -0.3621  0.5258
 3894SOL    HW315343   5.653   2.555   1.348 -0.5499  0.0401  0.2659
 3894SOL    MW415344   5.630   2.639   1.353  0.2450 -0.2747  0.1225
 3895SOL     OW15345   1.390   3.018   4.676  0.5359  0.2658  0.1098
 3895SOL    HW215346   1.331   2.948   4.701  1.5829 -0.3200  1.0315
 3895SOL    HW315347   1.351   3.097   4.712 -0.9422  0.2925 -1.4067
 3895SOL    MW415348   1.377   3.020   4.684 -0.2109 -0.6111  0.1521
 3896SOL     OW15349   4.717   5.633   5.686  0.1813 -0.0094  0.3173
 3896SOL    HW215350   4.723   5.566   5.618  1.4895  0.6610 -0.2479
 3896SOL    HW315351   4.798   5.683   5.679 -0.0840  0.6830  1.7452
 3896SOL    MW415352   4.728   5.630   5.676 -0.0428  0.1997  0.1361
 3897SOL     OW15353   2.002   5.649   3.239  0.0306  0.5312 -0.0463
 3897SOL    HW215354   1.994   5.665   3.333 -2.2903  1.2788 -0.2962
 3897SOL    HW315355   2.096   5.656   3.221  0.3664  2.0615  1.9330
 3897SOL    MW415356   2.013   5.652   3.249 -0.3710  0.6748  0.3285
 3898SOL     OW15357   6.044   1.587   0.727  0.0027  0.0772 -0.2982
 3898SOL    HW215358   5.958   1.585   0.769 -0.4504  0.7594 -1.1678
 3898SOL    HW315359   6.046   1.508   0.672  0.1297 -0.1957  0.0955
 3898SOL    MW415360   6.033   1.576   0.725 -0.1168 -0.2254  0.0838
 3899SOL     OW15361   5.996   0.909   3.518  0.2421 -0.0264 -0.2233
 3899SOL    HW215362   5.973   0.975   3.452  0.0320  0.8530  0.7145
 3899SOL    HW315363   6.074   0.867   3.482  0.0261  0.3059 -1.1236
 3899SOL    MW415364   6.003   0.912   3.504  0.3508  0.2846 -0.0128
 3900SOL     OW15365   1.795   0.040   3.111 -0.1157 -0.2983 -0.2597
 3900SOL    HW215366   1.789  -0.055   3.099 -0.0392 -0.1335 -1.8008
 3900SOL    HW315367   1.851   0.051   3.188 -1.3241 -1.5037  0.8380
 3900SOL    MW415368   1.802   0.029   3.120  0.4663  0.8919  0.2976
 3901SOL     OW15369   1.703   2.710   5.738  0.1029 -0.0794 -0.2925
 3901SOL    HW215370   1.784   2.752   5.712 -0.1727  0.4383 -0.3304
 3901SOL    HW315371   1.729   2.622   5.765  0.8313  0.4522  0.8180
 3901SOL    MW415372   1.717   2.704   5.738 -0.5693 -0.1014 -1.0904
 3902SOL     OW15373   1.915   4.190   3.172  0.1265 -0.0665 -0.4604
 3902SOL    HW215374   1.978   4.120   3.157 -0.1261  0.0136 -2.0736
 3902SOL    HW315375   1.941   4.229   3.256  1.9829 -0.2711 -0.9033
 3902SOL    MW415376   1.927   4.186   3.181  0.0048  0.2894 -0.6834
 3903SOL     OW15377   3.223   5.793   4.867  0.0184 -0.0739 -0.1397
 3903SOL    HW215378   3.189   5.730   4.930 -1.3042  0.7372  0.0006
 3903SOL    HW315379   3.158   5.795   4.797  1.1094 -0.4243 -1.1975
 3903SOL    MW415380   3.210   5.785   4.866 -0.3892 -0.0210  0.0431
 3904SOL     OW15381   2.885   5.053   4.484 -0.1297  0.2823  0.2277
 3904SOL    HW215382   2.835   5.018   4.410 -0.2337 -2.4890  1.4848
 3904SOL    HW315383   2.969   5.009   4.479  0.8496  2.0587  0.3125
 3904SOL    MW415384   2.889   5.043   4.474  0.2030  0.4278 -0.6337
 3905SOL     OW15385   0.531   3.957   2.616  0.2991 -0.1040  0.2689
 3905SOL    HW215386   0.490   4.035   2.654  0.8851  0.8366 -0.9713
 3905SOL    HW315387   0.461   3.892   2.614 -0.5614  0.8054  0.1159
 3905SOL    MW415388   0.517   3.959   2.621 -0.6703 -0.1371  0.3754
 3906SOL     OW15389   3.766   5.052   3.973 -0.3876 -0.0806  0.1721
 3906SOL    HW215390   3.783   5.017   4.060 -0.6254  0.0016  0.2514
 3906SOL    HW315391   3.682   5.014   3.948  1.0644 -2.6333 -1.3142
 3906SOL    MW415392   3.757   5.042   3.981 -0.4884  0.0533  0.2903
 3907SOL     OW15393   0.334   6.155   4.690  0.2515 -0.2289 -0.8243
 3907SOL    HW215394   0.426   6.173   4.669  0.3314  0.0065 -0.2935
 3907SOL    HW315395   0.315   6.073   4.645  1.0155 -0.7967 -0.1635
 3907SOL    MW415396   0.344   6.147   4.682  0.1498 -0.0838  0.2731
 3908SOL     OW15397   1.943   1.883   3.252  0.8432  0.7522  0.9699
 3908SOL    HW215398   1.983   1.845   3.174  1.3058 -1.8803  2.3454
 3908SOL    HW315399   1.883   1.950   3.219  1.8227  0.5044 -1.5293
 3908SOL    MW415400   1.940   1.887   3.238  0.5577 -0.0498  0.0012
 3909SOL     OW15401   3.636   1.291   0.358 -0.0581 -0.6216  0.1146
 3909SOL    HW215402   3.559   1.338   0.328  0.6058 -0.3200 -1.2034
 3909SOL    HW315403   3.696   1.359   0.388  0.5461 -0.6761 -0.9330
 3909SOL    MW415404   3.634   1.306   0.358  0.7801  0.3994  0.2442
 3910SOL     OW15405   1.891   2.570   0.802 -0.0353 -0.2385 -0.3372
 3910SOL    HW215406   1.810   2.537   0.763 -0.7922  0.6269  0.4505
 3910SOL    HW315407   1.954   2.567   0.730 -0.8360 -0.6419 -1.0535
 3910SOL    MW415408   1.888   2.565   0.787  0.0295 -0.1705 -0.7323
 3911SOL     OW15409   0.839   1.442   3.092  0.2114  0.8694  0.4848
 3911SOL    HW215410   0.817   1.508   3.157  1.4608  0.3000  1.5268
 3911SOL    HW315411   0.770   1.375   3.101  1.4393 -0.1809  2.6662
 3911SOL    MW415412   0.827   1.442   3.102  0.4003 -0.2388 -0.4360
 3912SOL     OW15413   4.201   5.170   2.485 -0.1556 -0.2898  0.1628
 3912SOL    HW215414   4.143   5.159   2.561  0.2930  0.2618  0.5972
 3912SOL    HW315415   4.187   5.091   2.433 -0.2149 -0.8431  0.9886
 3912SOL    MW415416   4.191   5.158   2.488  0.2205  0.2601  0.2152
 3913SOL     OW15417   5.757   4.821   3.222 -0.1995 -0.2302 -0.5368
 3913SOL    HW215418   5.851   4.806   3.213 -0.0105  1.3249 -1.6131
 3913SOL    HW315419   5.729   4.759   3.290  1.5141 -0.9874 -0.4649
 3913SOL    MW415420   5.766   4.811   3.230  0.0981 -0.4552  0.5958
 3914SOL     OW15421   1.682   1.781   1.472  0.2387 -0.2699 -0.4166
 3914SOL    HW215422   1.662   1.719   1.542 -2.2764  0.1151 -0.6911
 3914SOL    HW315423   1.598   1.793   1.427  1.3597  0.9830 -2.2815
 3914SOL    MW415424   1.668   1.774   1.475 -0.5398 -0.8045  0.0779
 3915SOL     OW15425   2.849   4.349   0.388 -0.4010  0.2490  0.2188
 3915SOL    HW215426   2.856   4.340   0.483 -1.3359 -0.0443  0.2715
 3915SOL    HW315427   2.859   4.443   0.372  0.8986  0.1757  0.4870
 3915SOL    MW415428   2.851   4.360   0.398  0.9395  0.0961  0.1861
 3916SOL     OW15429   5.571   4.274   0.360  0.5127  0.0600  0.2296
 3916SOL    HW215430   5.559   4.185   0.327  2.2432 -0.2288  0.2598
 3916SOL    HW315431   5.522   4.277   0.442 -0.5494 -0.4778 -0.3775
 3916SOL    MW415432   5.563   4.263   0.366  0.0751  0.2404 -0.4463
 3917SOL     OW15433   1.936   1.880   1.129 -0.1688  0.3776 -0.0111
 3917SOL    HW215434   1.989   1.948   1.170  1.9725 -0.7510 -0.7294
 3917SOL    HW315435   1.923   1.815   1.198  0.9222 -0.1536 -0.2850
 3917SOL    MW415436   1.941   1.880   1.143 -0.0484 -0.4389  0.2347
 3918SOL     OW15437   2.341   4.334   1.117 -0.0532 -0.1859 -0.2084
 3918SOL    HW215438   2.303   4.258   1.161  1.9063 -0.5461  0.9309
 3918SOL    HW315439   2.290   4.341   1.036 -0.6216 -2.3968 -0.1147
 3918SOL    MW415440   2.329   4.325   1.112 -0.0577 -0.3210 -0.1394
 3919SOL     OW15441   4.827   6.109   2.343  0.2324 -0.6554  0.3215
 3919SOL    HW215442   4.847   6.187   2.394 -0.5116  0.2289 -0.7005
 3919SOL    HW315443   4.909   6.088   2.297  0.2916 -0.1627  0.1990
 3919SOL    MW415444   4.841   6.117   2.344  0.3150  0.5251 -0.3129
 3920SOL     OW15445   5.934   1.013   2.892 -0.1024 -0.3424 -0.1009
 3920SOL    HW215446   5.888   0.933   2.865 -2.7357  0.6431  1.1768
 3920SOL    HW315447   5.900   1.032   2.980  0.5392  2.1046 -0.3132
 3920SOL    MW415448   5.923   1.005   2.900  0.3756  0.7458  0.3315
 3921SOL     OW15449   4.461   5.515   3.871 -0.9046  0.3190 -0.2694
 3921SOL    HW215450   4.425   5.553   3.791 -1.2419  0.4337 -0.0619
 3921SOL    HW315451   4.470   5.588   3.931  0.8095  0.5278 -0.7113
 3921SOL    MW415452   4.458   5.529   3.868  0.4219 -0.5344  0.1576
 3922SOL     OW15453   0.413   4.213   2.722  0.0794 -0.3394 -0.1258
 3922SOL    HW215454   0.332   4.243   2.680  0.3840  0.2444 -0.3002
 3922SOL    HW315455   0.384   4.179   2.807 -0.1587  1.4030  0.5243
 3922SOL    MW415456   0.398   4.212   2.727 -0.1802 -0.3079 -0.3398
 3923SOL     OW15457   0.702   3.147   1.410 -0.2895 -0.6409  0.2007
 3923SOL    HW215458   0.667   3.160   1.498  0.7644  1.3203  0.3891
 3923SOL    HW315459   0.743   3.231   1.387 -1.0121 -0.8988 -2.4037
 3923SOL    MW415460   0.703   3.160   1.418 -0.2884  0.5980 -0.4138
 3924SOL     OW15461   4.689   2.251   0.354 -0.9756 -0.4114  0.7073
 3924SOL    HW215462   4.754   2.308   0.313 -0.9398 -0.6194  0.4726
 3924SOL    HW315463   4.740   2.190   0.407 -0.9437 -0.8841  0.1414
 3924SOL    MW415464   4.704   2.251   0.356 -0.6121 -0.2238 -0.4496
 3925SOL     OW15465   0.302   2.073   3.604  0.6471  0.0022  0.7469
 3925SOL    HW215466   0.316   1.979   3.610  0.7372  0.0333  1.0223
 3925SOL    HW315467   0.260   2.097   3.687  0.3625  0.1587  0.5610
 3925SOL    MW415468   0.298   2.064   3.616 -0.0521 -0.3517 -0.2369
 3926SOL     OW15469   0.459   0.103   4.222  0.0722 -0.4384  0.3969
 3926SOL    HW215470   0.379   0.066   4.186  1.3227 -1.5835 -1.3488
 3926SOL    HW315471   0.434   0.190   4.251 -1.6386 -0.4993 -0.7589
 3926SOL    MW415472   0.446   0.109   4.221  0.2751 -0.0409  0.0292
 3927SOL     OW15473   4.071   3.901   2.299  0.6822  0.4986 -0.1651
 3927SOL    HW215474   4.003   3.930   2.238  0.8486  0.1656 -0.5157
 3927SOL    HW315475   4.148   3.887   2.243  0.2497 -1.9337 -0.2406
 3927SOL    MW415476   4.072   3.903   2.283  0.3103  0.2050 -0.2982
 3928SOL     OW15477   4.556   1.619   0.131 -0.7772  0.1862  0.1808
 3928SOL    HW215478   4.556   1.707   0.167 -1.6463  0.3351 -0.1736
 3928SOL    HW315479   4.580   1.563   0.205  0.8711  0.7984  0.1538
 3928SOL    MW415480   4.559   1.623   0.145 -0.2872 -0.0855  0.0448
 3929SOL     OW15481   4.581   4.854   0.497  0.2617  0.2451 -0.1328
 3929SOL    HW215482   4.611   4.803   0.572  0.9669  0.1131 -0.4953
 3929SOL    HW315483   4.634   4.823   0.424  0.1025  0.9010 -0.5364
 3929SOL    MW415484   4.592   4.843   0.497 -0.0686 -0.0022 -0.5724
 3930SOL     OW15485   3.817   0.532   0.057  0.3365  0.0719 -0.6770
 3930SOL    HW215486   3.898   0.563   0.015  0.3063  0.3797 -0.5148
 3930SOL    HW315487   3.831   0.439   0.071  1.1770  0.3464  0.4716
 3930SOL    MW415488   3.830   0.524   0.053 -0.3050 -0.1449  0.4161
 3931SOL     OW15489   2.573   5.010   0.937  0.1204  0.0605  0.6038
 3931SOL    HW215490   2.621   5.005   0.854 -0.2766  4.1151 -0.0627
 3931SOL    HW315491   2.626   5.068   0.991 -1.6345  0.7861  1.6189
 3931SOL    MW415492   2.587   5.017   0.933 -0.1085 -0.2569 -0.1988
 3932SOL     OW15493   6.021   4.648   3.523 -0.0924  0.4966  0.5789
 3932SOL    HW215494   6.032   4.557   3.551 -0.8859 -0.5971 -2.2515
 3932SOL    HW315495   6.100   4.667   3.472 -1.7480 -0.3292 -2.6377
 3932SOL    MW415496   6.033   4.639   3.520 -0.4548  0.3679  0.5247
 3933SOL     OW15497   1.435   0.687   2.922  0.2467 -0.3494  0.2493
 3933SOL    HW215498   1.413   0.760   2.980  1.1263  0.8711 -0.8693
 3933SOL    HW315499   1.431   0.725   2.834  1.7115 -1.3709 -0.2964
 3933SOL    MW415500   1.432   0.702   2.918  0.1094 -0.6140  0.1915
 3934SOL     OW15501   5.732   6.213   3.201 -0.5641  0.2060  0.0162
 3934SOL    HW215502   5.742   6.235   3.294 -0.7266  1.1923 -0.1956
 3934SOL    HW315503   5.706   6.295   3.159  0.6517  0.0374 -1.1031
 3934SOL    MW415504   5.730   6.227   3.208  0.2169 -0.2162  0.2762
 3935SOL     OW15505   2.507   6.209   3.682 -0.1176 -0.3032 -0.2747
 3935SOL    HW215506   2.526   6.115   3.684 -0.3892 -0.3553  0.2443
 3935SOL    HW315507   2.437   6.218   3.617 -1.2137 -0.6921  0.8033
 3935SOL    MW415508   2.500   6.198   3.674  0.5512  0.1445 -0.3440
 3936SOL     OW15509   4.508   5.696   4.487 -0.0133  0.6300  0.7509
 3936SOL    HW215510   4.425   5.745   4.488 -0.3499  0.1125  2.6864
 3936SOL    HW315511   4.484   5.608   4.458  0.4927  1.3462 -2.1255
 3936SOL    MW415512   4.493   5.691   4.484  0.0752 -0.2873 -0.4324
 3937SOL     OW15513   2.757   5.023   3.622  0.2063 -0.5550  0.3974
 3937SOL    HW215514   2.735   4.936   3.589 -2.4569  0.6359 -1.3457
 3937SOL    HW315515   2.766   5.077   3.544  1.3170  0.8756  1.4530
 3937SOL    MW415516   2.755   5.018   3.607  0.5278  0.0477 -0.4091
 3938SOL     OW15517   5.425   4.745   4.313 -0.2540 -0.4708 -0.1667
 3938SOL    HW215518   5.402   4.697   4.392  0.1471 -2.0096 -0.9349
 3938SOL    HW315519   5.395   4.689   4.241  0.7491  0.1436 -1.1135
 3938SOL    MW415520   5.418   4.732   4.314  0.3134  0.3998 -0.2959
 3939SOL     OW15521   3.298   3.248   6.331 -0.1748  0.4002 -0.0373
 3939SOL    HW215522   3.319   3.245   6.237  0.3600 -0.5148  0.0946
 3939SOL    HW315523   3.350   3.321   6.365 -0.8213  1.1078 -0.5521
 3939SOL    MW415524   3.308   3.257   6.323 -0.0564 -0.0818  0.1619
 3940SOL     OW15525   1.796   3.057   0.317 -0.3406 -0.0800  0.1632
 3940SOL    HW215526   1.748   3.117   0.374 -0.5947 -0.6181  0.5271
 3940SOL    HW315527   1.844   3.114   0.257 -2.2189  0.4763 -0.8911
 3940SOL    MW415528   1.796   3.072   0.317  0.3082  0.3593  0.4202
 3941SOL     OW15529   1.029   3.764   4.861  0.6694  0.4511  0.3231
 3941SOL    HW215530   1.085   3.842   4.864 -0.3535  1.2692 -0.6181
 3941SOL    HW315531   0.954   3.791   4.808 -0.5864 -0.6316  1.4797
 3941SOL    MW415532   1.026   3.778   4.854 -0.0737  0.4690 -0.6221
 3942SOL     OW15533   2.888   2.669   0.123  0.3795  0.3733 -0.1803
 3942SOL    HW215534   2.880   2.704   0.212  2.2370  1.4985 -0.3948
 3942SOL    HW315535   2.798   2.663   0.092 -0.4766 -1.6930  2.3384
 3942SOL    MW415536   2.875   2.673   0.131  0.0072  0.2515  0.0380
 3943SOL     OW15537   1.814   6.142   5.960  0.3522  1.0199  0.1702
 3943SOL    HW215538   1.886   6.079   5.955 -0.0988  0.4198  0.9644
 3943SOL    HW315539   1.813   6.171   6.051 -0.5708  0.8100  0.2419
 3943SOL    MW415540   1.823   6.138   5.971 -0.2248  0.0977 -0.2338
 3944SOL     OW15541   3.910   3.515   0.054  0.1066 -0.0159 -0.0007
 3944SOL    HW215542   3.907   3.456  -0.021  1.5862 -2.1564  1.5137
 3944SOL    HW315543   3.820   3.516   0.088 -0.0219 -1.1014 -0.2781
 3944SOL    MW415544   3.898   3.508   0.048  0.6551  0.2047 -0.0719
 3945SOL     OW15545   0.727   2.526   2.507 -0.5462  0.1145 -0.0472
 3945SOL    HW215546   0.701   2.592   2.443  1.0749  0.0982 -0.7778
 3945SOL    HW315547   0.719   2.570   2.591 -0.8910  0.7743 -0.4125
 3945SOL    MW415548   0.723   2.541   2.509 -0.5857  0.8251 -0.4041
 3946SOL     OW15549   2.269   1.804   1.332 -0.0198 -0.1621  0.3847
 3946SOL    HW215550   2.238   1.721   1.367 -0.1208  0.0787  0.8853
 3946SOL    HW315551   2.321   1.842   1.403  1.2296 -0.4415 -0.3570
 3946SOL    MW415552   2.272   1.798   1.346 -0.2881  0.0083 -0.4639
 3947SOL     OW15553   4.694   4.604   2.606  0.0468  0.4098 -0.2719
 3947SOL    HW215554   4.696   4.520   2.560  0.2480  0.2620  0.0072
 3947SOL    HW315555   4.691   4.669   2.536 -1.0045  0.1518 -0.4854
 3947SOL    MW415556   4.693   4.602   2.591  0.2506  0.4009 -0.6932
 3948SOL     OW15557   3.482   5.880   4.817 -0.1609  0.4695  0.2122
 3948SOL    HW215558   3.413   5.817   4.836  0.2308  0.3161  1.1230
 3948SOL    HW315559   3.498   5.925   4.900 -0.9113  2.2540 -0.5568
 3948SOL    MW415560   3.475   5.878   4.830 -0.1244  0.6045 -0.3612
 3949SOL     OW15561   5.385   5.582   0.553 -0.2101 -0.4501 -0.0931
 3949SOL    HW215562   5.445   5.509   0.537 -1.3703 -1.2760 -0.7977
 3949SOL    HW315563   5.314   5.544   0.605 -1.6025 -0.2287 -1.7569
 3949SOL    MW415564   5.384   5.568   0.558  0.3245 -0.0989 -0.3666
 3950SOL     OW15565   3.644   3.642   2.985  0.5258  0.0348  0.5311
 3950SOL    HW215566   3.657   3.571   3.048  0.7001 -0.1874  0.2426
 3950SOL    HW315567   3.560   3.621   2.943  0.0434  0.5696  1.1963
 3950SOL    MW415568   3.634   3.630   2.988 -0.0203  0.0717  0.0444
 3951SOL     OW15569   2.817   5.597   1.187  0.1486  0.2854 -0.4545
 3951SOL    HW215570   2.878   5.669   1.170  0.1749  0.2650 -0.4450
 3951SOL    HW315571   2.847   5.526   1.130  0.5330  0.0487  0.0337
 3951SOL    MW415572   2.829   5.597   1.178 -0.1815 -0.1596 -0.3486
 3952SOL     OW15573   2.032   5.744   2.098  0.1018 -0.1849 -0.1096
 3952SOL    HW215574   2.020   5.824   2.149  0.4268 -1.1297  1.5224
 3952SOL    HW315575   2.120   5.715   2.119  0.7091  0.0301 -2.2011
 3952SOL    MW415576   2.042   5.751   2.107  0.6296 -0.7071  0.4076
 3953SOL     OW15577   5.497   0.746   1.788 -0.2109  0.1929  0.1651
 3953SOL    HW215578   5.441   0.672   1.811  0.8941 -0.6455  0.2761
 3953SOL    HW315579   5.565   0.746   1.856  1.0144 -0.0383 -1.0082
 3953SOL    MW415580   5.499   0.736   1.800 -0.0445  0.2678  0.5086
 3954SOL     OW15581   4.737   5.998   5.864  0.7070  0.4946 -0.4911
 3954SOL    HW215582   4.744   6.042   5.949  1.9585  0.7141 -0.6817
 3954SOL    HW315583   4.718   6.069   5.803  0.1691  0.3878 -0.4537
 3954SOL    MW415584   4.735   6.013   5.868 -0.3745  0.1817  0.3067
 3955SOL     OW15585   2.053   1.683   0.687 -0.6847 -0.6479 -0.4957
 3955SOL    HW215586   2.007   1.612   0.731 -0.4519 -1.2865 -1.2817
 3955SOL    HW315587   2.128   1.702   0.744 -0.8356 -0.9188 -0.2074
 3955SOL    MW415588   2.057   1.676   0.701  0.2284  0.3904  0.0219
 3956SOL     OW15589   2.509   2.157   6.017 -0.2254 -0.4326  0.0570
 3956SOL    HW215590   2.567   2.090   5.980 -0.2309  0.3616 -1.4793
 3956SOL    HW315591   2.562   2.203   6.081 -0.0598 -1.5561  0.7375
 3956SOL    MW415592   2.523   2.154   6.020 -0.2151  0.0432  0.2723
 3957SOL     OW15593   5.951   6.145   5.461 -0.1643  0.1146  0.4399
 3957SOL    HW215594   5.888   6.130   5.391  0.2575 -0.6789  0.2151
 3957SOL    HW315595   5.917   6.221   5.508 -0.3157  0.8263 -0.7759
 3957SOL    MW415596   5.938   6.153   5.458  0.3447  0.0311  0.2373
 3958SOL     OW15597   6.269   3.160   3.274  0.4181 -0.3256  0.1260
 3958SOL    HW215598   6.216   3.105   3.332 -0.9339  1.2454  0.4521
 3958SOL    HW315599   6.210   3.231   3.249  2.2086  1.1862  0.0203
 3958SOL    MW415600   6.254   3.162   3.278 -0.2592  0.3866 -0.5521
 3959SOL     OW15601   2.233   3.885   3.364  0.2874  0.1042 -0.1702
 3959SOL    HW215602   2.168   3.870   3.432  0.7218 -2.2781 -0.1999
 3959SOL    HW315603   2.184   3.930   3.294 -1.1499 -0.9778  0.0990
 3959SOL    MW415604   2.218   3.889   3.364  0.4458 -0.8428  0.2180
 3960SOL     OW15605   3.255   0.933   5.028  0.5160 -0.5704  0.7317
 3960SOL    HW215606   3.171   0.887   5.022 -0.6559  1.3935  0.9826
 3960SOL    HW315607   3.302   0.889   5.098 -0.2739 -1.7528  0.5496
 3960SOL    MW415608   3.250   0.921   5.036 -0.1788  0.4129  0.0264
 3961SOL     OW15609   3.237   2.567   0.386 -0.0497  0.2364 -0.6550
 3961SOL    HW215610   3.205   2.652   0.416  0.2409  0.2524 -0.3925
 3961SOL    HW315611   3.295   2.537   0.456 -0.8879 -0.6127 -0.2994
 3961SOL    MW415612   3.240   2.574   0.399 -0.2702  0.2051 -0.0325
 3962SOL     OW15613   2.097   0.630   0.444  0.6924 -0.0751 -0.4692
 3962SOL    HW215614   2.165   0.697   0.444 -0.0188  0.6740  0.1173
 3962SOL    HW315615   2.136   0.556   0.490  1.1663  0.2897 -0.2712
 3962SOL    MW415616   2.111   0.629   0.450  0.5332 -0.0997 -0.1910
 3963SOL     OW15617   3.874   4.110   2.666 -0.7649 -0.1417 -0.4582
 3963SOL    HW215618   3.857   4.168   2.592 -1.7016 -1.0736 -1.0094
 3963SOL    HW315619   3.816   4.140   2.735 -1.7051 -0.7711 -0.9504
 3963SOL    MW415620   3.864   4.121   2.665  0.0938  0.3246 -0.3143
 3964SOL     OW15621   2.712   6.095   5.417 -0.3883  0.0079  0.3851
 3964SOL    HW215622   2.757   6.111   5.334  0.3423  2.2852  1.1557
 3964SOL    HW315623   2.778   6.113   5.484 -0.8718 -2.0822  1.5210
 3964SOL    MW415624   2.726   6.099   5.415  0.0335  0.1446  0.0182
 3965SOL     OW15625   2.869   2.394   3.916  0.3913  0.3161 -0.3858
 3965SOL    HW215626   2.954   2.435   3.932  0.0103  1.0327 -0.1525
 3965SOL    HW315627   2.861   2.328   3.984  0.1167  1.2755  0.5522
 3965SOL    MW415628   2.879   2.391   3.927 -0.0663 -0.3807  0.1322
 3966SOL     OW15629   1.176   1.257   5.524  0.1137  0.0405  0.6577
 3966SOL    HW215630   1.116   1.331   5.526 -1.4549 -1.1879  0.8358
 3966SOL    HW315631   1.219   1.263   5.438  1.0085  1.8650  1.1798
 3966SOL    MW415632   1.174   1.268   5.513  0.0119  0.0628 -0.3118
 3967SOL     OW15633   5.539   4.983   1.099 -0.1598 -0.0994  0.1371
 3967SOL    HW215634   5.551   4.893   1.069  0.6955 -0.5802  1.7964
 3967SOL    HW315635   5.628   5.015   1.116 -0.4235  1.1919 -0.7413
 3967SOL    MW415636   5.552   4.976   1.097 -0.2340 -0.2506  0.1672
 3968SOL     OW15637   6.100   5.756   5.427  0.6292  0.1448 -0.0857
 3968SOL    HW215638   6.095   5.741   5.333 -1.5422  0.7831 -0.1377
 3968SOL    HW315639   6.179   5.807   5.440 -1.5383  4.6552 -2.3503
 3968SOL    MW415640   6.109   5.761   5.417 -0.2290  0.5269 -0.3921
 3969SOL     OW15641   4.755   0.272   1.572 -0.0729 -0.0684  0.0718
 3969SOL    HW215642   4.720   0.185   1.589 -3.2512  0.9797 -0.4847
 3969SOL    HW315643   4.802   0.263   1.489  1.5573 -1.6517  1.0964
 3969SOL    MW415644   4.757   0.260   1.563 -0.1896 -0.4156 -0.2421
 3970SOL     OW15645   0.177   3.236   4.748  0.1259 -0.4184 -0.7035
 3970SOL    HW215646   0.145   3.285   4.673 -2.4639 -1.2919 -0.2964
 3970SOL    HW315647   0.174   3.144   4.720  0.9111 -0.6282 -0.1314
 3970SOL    MW415648   0.172   3.230   4.735 -0.3144  0.2672 -0.2066
 3971SOL     OW15649   3.964   0.941   3.938  0.2532 -0.4940  0.0839
 3971SOL    HW215650   4.054   0.918   3.963  0.5079 -0.1887 -0.5175
 3971SOL    HW315651   3.920   0.961   4.020  1.8878  3.4934  0.2134
 3971SOL    MW415652   3.970   0.940   3.952 -0.1895  0.3525 -0.2195
 3972SOL     OW15653   3.918   6.247   2.610  0.6515  0.0374  0.0054
 3972SOL    HW215654   3.925   6.245   2.705  0.6166  1.5907  0.0605
 3972SOL    HW315655   3.827   6.224   2.592  0.6597 -0.2600  0.3432
 3972SOL    MW415656   3.907   6.244   2.620  0.4680 -0.3519  0.3303
 3973SOL     OW15657   4.019   4.669   3.467 -0.3752 -0.4091  0.5593
 3973SOL    HW215658   4.041   4.593   3.521 -0.6590 -0.6461  0.3449
 3973SOL    HW315659   3.955   4.717   3.519  0.6644  0.3083  1.2061
 3973SOL    MW415660   4.014   4.665   3.481  0.3082 -0.2060  0.1534
 3974SOL     OW15661   6.203   2.846   6.032 -0.0334 -0.5248 -0.9116
 3974SOL    HW215662   6.174   2.793   6.107 -0.2340  0.6084 -0.1431
 3974SOL    HW315663   6.192   2.936   6.063 -0.7855 -0.0140 -2.5692
 3974SOL    MW415664   6.198   2.851   6.046  0.1078 -0.2852  0.4673
 3975SOL     OW15665   4.339   4.848   3.974 -0.0366 -0.1301  0.1436
 3975SOL    HW215666   4.362   4.830   3.883  0.7688  0.1414  0.2871
 3975SOL    HW315667   4.252   4.888   3.970 -0.0482 -0.2169 -0.4914
 3975SOL    MW415668   4.331   4.851   3.961 -0.7217 -0.0804 -0.0211
 3976SOL     OW15669   1.005   1.213   3.021 -0.3409 -0.6450 -0.0787
 3976SOL    HW215670   0.968   1.293   3.060  1.4201 -0.4525  1.3124
 3976SOL    HW315671   0.947   1.194   2.947 -0.3018  2.4396 -1.0446
 3976SOL    MW415672   0.992   1.221   3.016 -0.2730 -0.8782 -0.1148
 3977SOL     OW15673   0.073   4.770   5.918 -0.3359 -0.1137  0.5321
 3977SOL    HW215674   0.142   4.814   5.968  0.3419 -0.4581 -0.0803
 3977SOL    HW315675   0.056   4.690   5.967 -0.6359  0.1995  0.9401
 3977SOL    MW415676   0.080   4.765   5.931 -0.3960  0.0667  0.0061
 3978SOL     OW15677   3.379   5.752   3.846 -0.1200 -0.0673 -0.3811
 3978SOL    HW215678   3.437   5.707   3.785 -1.3131 -0.8947 -0.9382
 3978SOL    HW315679   3.331   5.815   3.792  0.8329  1.2357  0.2250
 3978SOL    MW415680   3.380   5.755   3.831 -0.1990  0.2970  0.5528
 3979SOL     OW15681   1.533   1.145   1.699 -0.9572 -0.3662 -0.1707
 3979SOL    HW215682   1.603   1.083   1.675 -0.6409  0.3071 -1.0186
 3979SOL    HW315683   1.453   1.104   1.666 -1.0411 -1.3042  1.0973
 3979SOL    MW415684   1.532   1.131   1.692 -0.2346  0.0444  0.1641
 3980SOL     OW15685   4.349   1.493   6.058 -0.0262 -0.2275  0.2697
 3980SOL    HW215686   4.335   1.571   6.112  0.9675 -0.3722  0.7548
 3980SOL    HW315687   4.301   1.511   5.977  0.1990  0.8943  0.3676
 3980SOL    MW415688   4.341   1.505   6.055 -0.8033  0.0984 -0.4777
 3981SOL     OW15689   3.256   2.253   0.804  0.4807 -0.6035  0.1352
 3981SOL    HW215690   3.270   2.191   0.875  2.7960  0.5306  0.7614
 3981SOL    HW315691   3.180   2.218   0.756  0.1499 -2.5090  1.9091
 3981SOL    MW415692   3.247   2.240   0.807 -0.4717  0.2798 -0.1681
 3982SOL     OW15693   1.259   2.153   4.762 -0.1733 -0.0065  0.4902
 3982SOL    HW215694   1.353   2.154   4.743 -0.6152 -2.4645 -2.6462
 3982SOL    HW315695   1.247   2.077   4.818 -0.3343  0.3069  0.8910
 3982SOL    MW415696   1.270   2.143   4.767 -0.2310  0.1774  0.7873
 3983SOL     OW15697   4.057   1.104   3.262 -0.4234  0.3168  0.8015
 3983SOL    HW215698   4.044   1.010   3.276 -1.3261  0.4068  0.5611
 3983SOL    HW315699   4.051   1.142   3.350 -1.4866  0.3174  0.7370
 3983SOL    MW415700   4.055   1.096   3.276 -0.3107 -0.4901  0.2116
 3984SOL     OW15701   2.512   4.424   3.636 -0.0434 -0.4384 -0.1885
 3984SOL    HW215702   2.420   4.420   3.611 -0.5223  2.0272  0.8682
 3984SOL    HW315703   2.559   4.392   3.559 -1.6329  2.1385 -2.4248
 3984SOL    MW415704   2.506   4.419   3.623  0.0477  0.1517 -0.2542
 3985SOL     OW15705   4.500   1.365   3.691 -0.4003 -0.2149  0.9509
 3985SOL    HW215706   4.592   1.363   3.662 -0.0351 -0.4804  2.0972
 3985SOL    HW315707   4.505   1.368   3.786 -1.5940 -0.1599  1.0213
 3985SOL    MW415708   4.513   1.365   3.699  0.2628  0.3183  0.3767
 3986SOL     OW15709   0.563   3.734   4.836  0.0994 -0.0554  0.0962
 3986SOL    HW215710   0.523   3.747   4.922 -0.9981 -1.2501 -0.2105
 3986SOL    HW315711   0.493   3.698   4.782  1.1327 -0.5619 -0.9459
 3986SOL    MW415712   0.549   3.731   4.840 -0.8261  0.0554 -0.5912
 3987SOL     OW15713   4.477   0.014   0.692 -0.2643 -0.4655 -0.3967
 3987SOL    HW215714   4.515   0.009   0.780 -2.6248  2.1987  0.9090
 3987SOL    HW315715   4.553   0.018   0.634  1.3990  0.2020  1.6923
 3987SOL    MW415716   4.492   0.014   0.696 -0.6731 -0.0740 -0.4338
 3988SOL     OW15717   2.302   3.719   5.030  0.0855 -0.3075 -0.4150
 3988SOL    HW215718   2.315   3.670   4.949  0.5975  0.5110 -0.8394
 3988SOL    HW315719   2.212   3.752   5.023 -0.0331 -0.6260 -0.4295
 3988SOL    MW415720   2.292   3.717   5.018 -0.5458 -0.2316 -0.4231
 3989SOL     OW15721   5.432   0.223   4.903  0.4152  0.5645  0.0194
 3989SOL    HW215722   5.410   0.306   4.860  0.0200  0.2542 -0.3861
 3989SOL    HW315723   5.428   0.243   4.997  0.0539  0.9385 -0.0694
 3989SOL    MW415724   5.428   0.237   4.910 -0.3329 -0.0810  0.0649
 3990SOL     OW15725   4.012   2.132   3.533  0.4147 -0.7039 -0.0616
 3990SOL    HW215726   3.937   2.074   3.524 -0.9654  1.3354 -3.7023
 3990SOL    HW315727   3.977   2.211   3.575  1.0265 -0.5059  0.0954
 3990SOL    MW415728   3.998   2.135   3.538 -0.9108 -0.1856 -0.3145
 3991SOL     OW15729   0.486   6.233   5.153  0.4234  0.4598  0.0541
 3991SOL    HW215730   0.579   6.212   5.159  0.1405 -1.2044 -0.7997
 3991SOL    HW315731   0.468   6.283   5.233  2.0613  0.9323  0.1655
 3991SOL    MW415732   0.496   6.237   5.164  0.9776 -0.6876 -0.5345
 3992SOL     OW15733   4.121   1.370   4.533 -0.3530 -0.2783  0.1038
 3992SOL    HW215734   4.186   1.433   4.504  0.1254 -0.1356  1.4299
 3992SOL    HW315735   4.114   1.307   4.461  1.7050 -0.6472  0.1652
 3992SOL    MW415736   4.129   1.370   4.520 -0.1012 -0.0328 -0.0793
 3993SOL     OW15737   2.998   1.058   2.715 -0.5424  0.9015  0.0807
 3993SOL    HW215738   3.010   1.001   2.639 -0.4549  0.2304  0.5863
 3993SOL    HW315739   2.923   1.113   2.693 -0.7826  0.4176 -0.3232
 3993SOL    MW415740   2.989   1.058   2.702  0.8462  0.2428  0.1708
 3994SOL     OW15741   4.847   6.384   4.987 -0.2139  1.1005 -0.1049
 3994SOL    HW215742   4.787   6.348   4.922  1.5136  0.1736 -1.2678
 3994SOL    HW315743   4.886   6.460   4.944  0.3152  0.9890  0.1648
 3994SOL    MW415744   4.844   6.389   4.973  1.0490  0.1604  0.3225
 3995SOL     OW15745   6.134   0.847   2.138 -0.0078  0.2882 -0.7221
 3995SOL    HW215746   6.118   0.866   2.046 -1.4017  1.1952 -0.3238
 3995SOL    HW315747   6.229   0.858   2.149  0.1253  0.4893 -1.9589
 3995SOL    MW415748   6.145   0.851   2.127  0.4555 -0.4093  0.6078
 3996SOL     OW15749   0.842   1.269   4.037  0.0623  0.4267  0.2010
 3996SOL    HW215750   0.787   1.258   3.960 -0.3952  0.3910  0.5279
 3996SOL    HW315751   0.786   1.245   4.111  0.5487  0.2824  0.5334
 3996SOL    MW415752   0.827   1.265   4.037 -0.0309 -0.4156 -0.5160
 3997SOL     OW15753   4.817   5.744   3.017 -0.3577  0.1992 -0.0716
 3997SOL    HW215754   4.742   5.707   3.063 -1.4257  0.2876 -1.6653
 3997SOL    HW315755   4.794   5.836   3.003  0.5922  0.5385  0.4698
 3997SOL    MW415756   4.804   5.751   3.021  0.3031 -0.0487 -0.2070
 3998SOL     OW15757   3.658   3.713   2.494  0.6203  0.3966 -0.2565
 3998SOL    HW215758   3.576   3.736   2.450 -0.7713 -1.8169  0.9862
 3998SOL    HW315759   3.705   3.658   2.431 -1.1199 -2.3092  0.6231
 3998SOL    MW415760   3.654   3.709   2.480 -0.2956  0.3685 -0.3975
 3999SOL     OW15761   1.740   3.457   5.050  0.7197 -0.0954  0.5347
 3999SOL    HW215762   1.651   3.491   5.048 -0.0554 -2.0338 -1.4084
 3999SOL    HW315763   1.795   3.530   5.021 -0.5163  0.4096 -0.6092
 3999SOL    MW415764   1.736   3.471   5.046 -0.3140  0.3301  0.1264
 4000SOL     OW15765   2.438   2.684   3.173 -0.3078  0.8424  0.3656
 4000SOL    HW215766   2.381   2.719   3.104  2.1798 -0.0659 -2.3491
 4000SOL    HW315767   2.510   2.747   3.179  0.7812 -0.3801  0.3199
 4000SOL    MW415768   2.440   2.697   3.165 -0.0838  0.0426  0.4280
 4001SOL     OW15769   3.756   3.941   2.160  0.1024  0.4240  0.3898
 4001SOL    HW215770   3.785   4.018   2.110 -0.8118  0.7676  0.3772
 4001SOL    HW315771   3.774   3.964   2.251  1.5056 -0.0890  0.2718
 4001SOL    MW415772   3.762   3.954   2.165  0.0532  0.1009 -0.3274
 4002SOL     OW15773   1.284   5.742   3.250  0.2097 -0.4486  0.0232
 4002SOL    HW215774   1.266   5.692   3.170  2.7672  0.1568 -1.0125
 4002SOL    HW315775   1.377   5.726   3.268  0.5476  2.1169  0.9386
 4002SOL    MW415776   1.294   5.733   3.241  0.0051 -0.3348 -0.4478
 4003SOL     OW15777   5.452   6.151   3.132 -0.4002 -0.0659  0.4502
 4003SOL    HW215778   5.417   6.062   3.135  1.0229 -0.7227 -0.7377
 4003SOL    HW315779   5.541   6.142   3.167 -0.5997  1.1149  1.3238
 4003SOL    MW415780   5.459   6.138   3.137 -0.1194  0.0266 -0.6009
 4004SOL     OW15781   4.898   3.831   2.667  0.2720  0.1909  0.6799
 4004SOL    HW215782   4.859   3.887   2.734  1.6261  0.3072  1.3845
 4004SOL    HW315783   4.885   3.879   2.585 -2.1172 -0.3166  0.6789
 4004SOL    MW415784   4.891   3.845   2.665 -0.6689  0.0663 -0.1178
 4005SOL     OW15785   5.072   1.392   5.676  0.1969  0.1474 -0.0449
 4005SOL    HW215786   5.016   1.444   5.734  0.2837 -1.5994  1.6832
 4005SOL    HW315787   5.063   1.435   5.590 -0.6222  2.2829  1.0276
 4005SOL    MW415788   5.063   1.405   5.672 -0.0714 -0.0172  0.1964
 4006SOL     OW15789   3.958   4.668   2.805 -0.1513  0.7419 -0.0171
 4006SOL    HW215790   3.905   4.684   2.727 -0.4551  1.9306  0.4049
 4006SOL    HW315791   3.931   4.581   2.834  0.3335  0.0701 -1.5020
 4006SOL    MW415792   3.947   4.659   2.799 -0.1513  0.2997 -0.1075
 4007SOL     OW15793   1.412   2.238   2.174 -0.2604 -0.1159  0.5423
 4007SOL    HW215794   1.483   2.208   2.118 -0.4653  1.9936 -0.9707
 4007SOL    HW315795   1.355   2.162   2.184  1.3946 -1.4134  0.5434
 4007SOL    MW415796   1.414   2.224   2.168 -0.0124 -0.2978  0.2448
 4008SOL     OW15797   2.413   5.427   2.341 -0.1789 -0.5042  0.1354
 4008SOL    HW215798   2.504   5.447   2.321 -0.6243 -0.0303 -1.5589
 4008SOL    HW315799   2.391   5.355   2.281 -1.6301  1.1060 -1.3840
 4008SOL    MW415800   2.422   5.420   2.330 -0.3734 -0.1948  0.9404
 4009SOL     OW15801   5.740   3.320   3.967  0.0630 -0.2220 -0.3005
 4009SOL    HW215802   5.702   3.375   3.899  1.5313  1.5519  0.2342
 4009SOL    HW315803   5.775   3.381   4.031  4.6539 -1.4971 -1.1770
 4009SOL    MW415804   5.740   3.335   3.966  0.4887  0.3128  0.1822
 4010SOL     OW15805   0.686   5.003   0.211 -0.2279  0.2529  0.1647
 4010SOL    HW215806   0.619   5.013   0.144 -0.4866 -0.8823  0.2322
 4010SOL    HW315807   0.639   5.008   0.294  0.0556  1.3858  0.2770
 4010SOL    MW415808   0.671   5.005   0.213  0.4943 -0.4197 -0.0173
 4011SOL     OW15809   6.005   1.153   1.021  0.3272 -0.4195  0.1532
 4011SOL    HW215810   5.921   1.120   1.052 -1.1320  1.2976 -1.6645
 4011SOL    HW315811   5.997   1.151   0.925  1.6774  1.3691 -0.0400
 4011SOL    MW415812   5.993   1.148   1.012 -0.1013  0.0237 -0.3611
 4012SOL     OW15813   0.550   5.190   2.624 -0.0247 -0.0757  0.5233
 4012SOL    HW215814   0.645   5.186   2.613 -0.1334  0.2558 -0.7994
 4012SOL    HW315815   0.522   5.254   2.558 -1.2976 -1.2280 -0.0939
 4012SOL    MW415816   0.559   5.198   2.614 -0.1963 -0.1219  0.2819
 4013SOL     OW15817   3.363   6.383   5.171 -0.2625 -0.4139  0.0777
 4013SOL    HW215818   3.285   6.333   5.194  0.8408 -1.5177  1.6646
 4013SOL    HW315819   3.407   6.400   5.255  1.0143  0.4875 -0.7237
 4013SOL    MW415820   3.359   6.378   5.185  0.1164  0.0631  0.1778
 4014SOL     OW15821   6.413   2.534   4.345 -0.0829 -0.3332 -0.5718
 4014SOL    HW215822   6.338   2.541   4.404 -0.1514 -0.3698 -0.6550
 4014SOL    HW315823   6.434   2.625   4.323  0.2420 -0.2931 -0.1111
 4014SOL    MW415824   6.406   2.547   4.350 -0.3247  0.1181 -0.1854
 4015SOL     OW15825   4.259   0.576   2.568  1.0268 -0.0113 -0.3293
 4015SOL    HW215826   4.197   0.504   2.554  0.0226  0.8064 -0.2143
 4015SOL    HW315827   4.206   0.647   2.603  1.6921  1.3301 -1.9283
 4015SOL    MW415828   4.244   0.576   2.571  0.1784 -0.5875 -0.5039
 4016SOL     OW15829   2.283   5.961   2.229  0.1839  0.3953 -0.0101
 4016SOL    HW215830   2.271   5.866   2.230  0.2550  0.3814 -0.2732
 4016SOL    HW315831   2.315   5.980   2.140 -1.7097  0.8956 -0.6422
 4016SOL    MW415832   2.285   5.951   2.217 -0.3862  0.4080  0.2168
 4017SOL     OW15833   4.577   5.311   5.628  0.1167  0.0984  0.2365
 4017SOL    HW215834   4.611   5.375   5.565 -1.0256  0.2844 -0.2227
 4017SOL    HW315835   4.638   5.238   5.623  1.1717  0.9390  0.4088
 4017SOL    MW415836   4.589   5.310   5.619 -0.5262  0.4922 -0.3799
 4018SOL     OW15837   2.195   5.223   6.222  0.1815  0.1088  0.1706
 4018SOL    HW215838   2.264   5.212   6.156 -0.1949 -0.2236 -0.1696
 4018SOL    HW315839   2.231   5.182   6.301  1.1750  1.6460  0.5734
 4018SOL    MW415840   2.209   5.216   6.224  0.1989  0.1244 -0.3921
 4019SOL     OW15841   6.213   5.207   5.114  0.7801  0.1992 -0.1377
 4019SOL    HW215842   6.194   5.297   5.139  0.5597  0.3658 -0.8801
 4019SOL    HW315843   6.129   5.162   5.120  0.7165  0.2518 -0.6137
 4019SOL    MW415844   6.200   5.213   5.118 -0.4884 -0.3149 -0.4422
 4020SOL     OW15845   1.000   6.091   1.113 -0.5881 -1.1195 -0.1926
 4020SOL    HW215846   0.953   6.157   1.164  2.2240 -0.2965  1.5729
 4020SOL    HW315847   0.999   6.125   1.024 -1.1346  0.1863  0.2850
 4020SOL    MW415848   0.994   6.104   1.108  0.4868  0.7036 -0.6596
 4021SOL     OW15849   5.732   4.668   5.940  0.4733 -0.1646  0.3157
 4021SOL    HW215850   5.641   4.678   5.912  0.7414  1.2125 -0.1477
 4021SOL    HW315851   5.733   4.586   5.989 -1.4135  0.7263  1.9841
 4021SOL    MW415852   5.720   4.659   5.942  0.3235 -0.5134  0.4307
 4022SOL     OW15853   2.736   2.766   1.533  0.0350  0.0507 -0.3372
 4022SOL    HW215854   2.731   2.690   1.475 -2.5276  1.1323 -1.6754
 4022SOL    HW315855   2.776   2.835   1.479  1.6179 -0.0884  0.6139
 4022SOL    MW415856   2.741   2.765   1.518 -0.3088  0.6635 -0.3920
 4023SOL     OW15857   6.103   2.503   2.480  0.0543  0.2102 -0.5587
 4023SOL    HW215858   6.070   2.543   2.561  1.3614 -0.0127  0.1150
 4023SOL    HW315859   6.085   2.567   2.412 -1.1373  0.3703 -0.1095
 4023SOL    MW415860   6.097   2.516   2.482 -0.4107  0.3099 -0.2138
 4024SOL     OW15861   5.346   0.412   3.134  0.6141  0.4097  0.0578
 4024SOL    HW215862   5.261   0.430   3.094 -0.3527  1.8040  2.5339
 4024SOL    HW315863   5.361   0.318   3.119 -1.4801  0.0855 -0.2157
 4024SOL    MW415864   5.337   0.402   3.126  0.3324  0.0818 -0.2645
 4025SOL     OW15865   4.680   1.145   4.955 -0.5233 -0.3558 -0.5560
 4025SOL    HW215866   4.605   1.180   5.003 -0.6757 -0.2379 -0.8788
 4025SOL    HW315867   4.647   1.130   4.867  0.4190  1.8417 -1.3497
 4025SOL    MW415868   4.666   1.147   4.950 -0.5084  0.7458 -0.3628
 4026SOL     OW15869   5.103   1.629   4.262  0.3723  0.1156  0.1032
 4026SOL    HW215870   5.132   1.545   4.299 -1.2533 -0.4195  0.2290
 4026SOL    HW315871   5.159   1.694   4.304 -1.8671 -0.3374  4.2900
 4026SOL    MW415872   5.114   1.626   4.272  0.1962  0.3284 -0.4438
 4027SOL     OW15873   1.316   1.227   5.294  0.1405 -0.3898 -0.3992
 4027SOL    HW215874   1.348   1.137   5.289  2.7693  0.2025  2.6214
 4027SOL    HW315875   1.386   1.280   5.255 -0.5704  0.4882 -0.5192
 4027SOL    MW415876   1.329   1.222   5.288  0.3830  0.3094  0.0524
 4028SOL     OW15877   0.477   2.262   5.836 -0.0155  0.3862 -0.1276
 4028SOL    HW215878   0.568   2.291   5.839 -0.1630  1.0493 -1.5149
 4028SOL    HW315879   0.425   2.340   5.854 -0.3400  0.1765 -0.1291
 4028SOL    MW415880   0.482   2.276   5.839  0.2872 -0.0617 -0.1620
 4029SOL     OW15881   2.848   4.576   0.194 -0.3935  1.1190  0.5648
 4029SOL    HW215882   2.827   4.645   0.131  0.5444  2.4752  1.6561
 4029SOL    HW315883   2.935   4.600   0.228  1.0137 -1.8140 -0.6036
 4029SOL    MW415884   2.857   4.588   0.191  0.9463 -0.4475  0.1133
 4030SOL     OW15885   1.440   2.858   5.778  0.1149  0.7422 -0.0065
 4030SOL    HW215886   1.411   2.903   5.698 -1.2498 -0.9968 -0.5776
 4030SOL    HW315887   1.511   2.801   5.748  0.2789  0.8260  0.2278
 4030SOL    MW415888   1.445   2.857   5.763 -0.4620  0.3926  0.2918
 4031SOL     OW15889   5.378   1.262   1.095  0.3511 -0.7826 -0.5685
 4031SOL    HW215890   5.349   1.214   1.172 -0.1392 -0.5181 -0.5900
 4031SOL    HW315891   5.304   1.259   1.035 -0.7570  2.3379  0.4740
 4031SOL    MW415892   5.365   1.255   1.097 -0.8348  0.0486 -0.3296
 4032SOL     OW15893   3.762   3.970   0.076  0.3674 -0.1343  0.5796
 4032SOL    HW215894   3.714   4.047   0.045 -0.9276 -0.8219  0.8060
 4032SOL    HW315895   3.801   3.998   0.158 -0.2208  0.2490  0.7358
 4032SOL    MW415896   3.761   3.984   0.083 -0.1068 -0.1005  0.2037
 4033SOL     OW15897   3.113   1.802   3.877 -0.3900 -0.6127 -0.0568
 4033SOL    HW215898   3.025   1.787   3.843 -0.5121 -1.2625  0.5220
 4033SOL    HW315899   3.100   1.863   3.949 -0.2033  0.2964 -0.7765
 4033SOL    MW415900   3.100   1.808   3.882  0.6035 -0.7774  0.1024
 4034SOL     OW15901   5.799   3.193   4.777  0.5037 -0.1218  0.5917
 4034SOL    HW215902   5.715   3.180   4.734  1.0723 -1.1082 -0.2785
 4034SOL    HW315903   5.782   3.175   4.870 -0.3601  0.2815  0.5159
 4034SOL    MW415904   5.786   3.189   4.784  0.0500 -0.0359 -0.4403
 4035SOL     OW15905   4.121   1.248   4.780  0.4833  0.0552 -0.3231
 4035SOL    HW215906   4.100   1.164   4.739 -1.1763 -0.3468  1.2116
 4035SOL    HW315907   4.116   1.312   4.709  2.6688 -1.2171 -1.6921
 4035SOL    MW415908   4.117   1.246   4.765 -0.0058 -0.3832 -0.0486
 4036SOL     OW15909   3.752   1.732   1.179  0.0905  0.3791  0.8197
 4036SOL    HW215910   3.752   1.639   1.155  1.9714  0.6121 -0.2527
 4036SOL    HW315911   3.809   1.737   1.255 -0.4464  0.5906  1.2086
 4036SOL    MW415912   3.759   1.720   1.186 -0.7095  0.9118  0.2538
 4037SOL     OW15913   3.314   2.521   4.912 -0.0665  0.0013  0.1000
 4037SOL    HW215914   3.358   2.437   4.929 -0.7025 -0.6363 -1.2208
 4037SOL    HW315915   3.381   2.574   4.870  0.5206  0.4047  1.4803
 4037SOL    MW415916   3.328   2.517   4.909  0.2780  0.1920  0.6131
 4038SOL     OW15917   2.721   6.044   6.205 -0.0374  0.2769  0.7001
 4038SOL    HW215918   2.720   5.951   6.226  2.0978 -0.6130 -2.3742
 4038SOL    HW315919   2.813   6.066   6.193 -0.6209  1.8386 -1.9255
 4038SOL    MW415920   2.733   6.035   6.206  0.1124 -0.3650 -0.0415
 4039SOL     OW15921   3.203   1.380   5.794  0.6156  0.1104  0.0098
 4039SOL    HW215922   3.282   1.326   5.796  0.0869 -0.6517  0.3491
 4039SOL    HW315923   3.139   1.328   5.746 -0.7198 -0.7102  2.5131
 4039SOL    MW415924   3.205   1.366   5.788  0.1741  0.4380  0.1907
 4040SOL     OW15925   5.238   5.805   5.284  0.8124  0.2428 -0.7296
 4040SOL    HW215926   5.286   5.731   5.322  1.8729  0.4427 -1.6321
 4040SOL    HW315927   5.152   5.801   5.325  1.1922 -0.8684  0.0167
 4040SOL    MW415928   5.233   5.795   5.295  0.6410  0.1779 -0.0058
 4041SOL     OW15929   0.616   5.727   5.416  0.0475 -0.0591 -0.4420
 4041SOL    HW215930   0.582   5.777   5.341  0.7526  1.0317 -0.0677
 4041SOL    HW315931   0.704   5.700   5.388  1.0196  1.8400  0.5796
 4041SOL    MW415932   0.623   5.730   5.402  0.1599  0.0857 -0.0827
 4042SOL     OW15933   2.629   2.268   1.080  0.0496 -0.1502 -0.5842
 4042SOL    HW215934   2.556   2.218   1.043  0.5895 -0.4003 -1.3421
 4042SOL    HW315935   2.642   2.230   1.167 -1.7209  0.9449  0.2027
 4042SOL    MW415936   2.621   2.256   1.087  0.0399  0.0023 -0.5673
 4043SOL     OW15937   4.306   3.852   3.300 -0.5543  0.2130 -0.8346
 4043SOL    HW215938   4.292   3.876   3.209  0.8617 -2.8151 -1.9764
 4043SOL    HW315939   4.235   3.789   3.319  0.5841 -1.0937 -0.7295
 4043SOL    MW415940   4.295   3.847   3.291  0.5255  0.2896  0.4821
 4044SOL     OW15941   2.983   6.216   2.373 -0.4055 -0.3863  0.1332
 4044SOL    HW215942   2.953   6.191   2.460  0.7841 -1.9099  0.1599
 4044SOL    HW315943   3.065   6.263   2.389 -0.8347  0.4722 -0.1213
 4044SOL    MW415944   2.990   6.219   2.386 -0.3952  0.5876  0.2255
 4045SOL     OW15945   4.318   0.563   0.934  0.1579  0.1866 -0.0117
 4045SOL    HW215946   4.373   0.502   0.983 -0.3059  0.7116  1.1913
 4045SOL    HW315947   4.318   0.643   0.985 -2.3479 -0.0409  0.4948
 4045SOL    MW415948   4.325   0.565   0.947 -0.1315  0.0763  0.1456
 4046SOL     OW15949   5.852   3.570   2.796 -0.5662 -0.2986  0.3754
 4046SOL    HW215950   5.798   3.636   2.751  1.2086  2.0933  1.5227
 4046SOL    HW315951   5.816   3.486   2.767 -1.6060  1.0906 -2.9187
 4046SOL    MW415952   5.840   3.568   2.786  0.2097  0.0167  1.0146
 4047SOL     OW15953   2.417   1.082   0.490 -0.4576 -0.2567  0.6723
 4047SOL    HW215954   2.375   1.166   0.507  2.0794  1.1416  0.5408
 4047SOL    HW315955   2.432   1.080   0.396  0.6149 -0.2486  0.8281
 4047SOL    MW415956   2.413   1.093   0.480 -0.4542 -0.1024  0.0543
 4048SOL     OW15957   5.504   3.681   6.393  0.3206  0.4233 -0.1620
 4048SOL    HW215958   5.530   3.757   6.341 -0.5698  0.3735 -0.7120
 4048SOL    HW315959   5.411   3.695   6.410  0.9842  1.4836  3.2606
 4048SOL    MW415960   5.495   3.693   6.388  0.6994 -0.2816 -0.7236
 4049SOL     OW15961   1.298   0.663   4.801  0.6205  0.8646  0.1448
 4049SOL    HW215962   1.360   0.698   4.737  0.0678  0.6484 -0.5184
 4049SOL    HW315963   1.212   0.688   4.768  0.3695  3.5232  2.4042
 4049SOL    MW415964   1.295   0.671   4.788  0.0252  0.3884  0.2658
 4050SOL     OW15965   2.205   1.355   6.093 -0.4005 -0.0800 -0.6024
 4050SOL    HW215966   2.200   1.327   6.185  1.4088  2.5789  0.4388
 4050SOL    HW315967   2.205   1.274   6.043 -1.5243 -1.6368  1.7061
 4050SOL    MW415968   2.204   1.341   6.099  0.6299 -0.7469  0.2334
 4051SOL     OW15969   0.010   4.890   0.931  0.3875  0.7121  0.3730
 4051SOL    HW215970  -0.040   4.876   1.011  0.6104  0.9466  0.5541
 4051SOL    HW315971   0.081   4.949   0.956  0.6239  0.5674  0.0671
 4051SOL    MW415972   0.013   4.896   0.945  0.1987 -0.0432 -0.0089
 4052SOL     OW15973   5.548   3.788   3.019  0.2431  0.7031 -0.0941
 4052SOL    HW215974   5.622   3.728   3.010  0.1978  0.6275  0.0430
 4052SOL    HW315975   5.496   3.774   2.940  0.6738  1.1672 -0.4754
 4052SOL    MW415976   5.551   3.779   3.007 -0.6452  0.0985  0.7264
 4053SOL     OW15977   0.537   4.224   3.774  0.0037  0.2629  0.1115
 4053SOL    HW215978   0.632   4.228   3.783  0.1158 -2.0748  0.6738
 4053SOL    HW315979   0.509   4.316   3.775  2.2616  1.0285 -0.4896
 4053SOL    MW415980   0.546   4.237   3.775 -0.7921 -0.6491 -0.0022
 4054SOL     OW15981   5.323   1.459   2.886 -0.4233 -0.1222  0.5720
 4054SOL    HW215982   5.284   1.522   2.826  0.5648 -0.8458 -0.9089
 4054SOL    HW315983   5.393   1.507   2.929 -0.4332  0.1154  0.3279
 4054SOL    MW415984   5.327   1.473   2.883  0.4058  0.4483 -0.1564
 4055SOL     OW15985   5.463   4.327   6.344 -0.5242 -0.3019 -0.3260
 4055SOL    HW215986   5.442   4.333   6.251  0.2276  1.3006 -0.4301
 4055SOL    HW315987   5.392   4.373   6.388  0.5347  1.4447 -0.3607
 4055SOL    MW415988   5.451   4.334   6.337  0.8318 -0.3829 -0.4392
 4056SOL     OW15989   5.546   1.761   1.779 -0.3890 -0.1422  0.5761
 4056SOL    HW215990   5.556   1.823   1.851  0.2183  0.2688  0.1497
 4056SOL    HW315991   5.478   1.800   1.724  0.6277  0.6283 -0.1674
 4056SOL    MW415992   5.538   1.774   1.781 -0.1746  0.2603 -0.2974
 4057SOL     OW15993   4.671   3.348   2.812 -0.3784 -0.3539  0.2452
 4057SOL    HW215994   4.586   3.314   2.782 -0.4817 -0.8488  1.0726
 4057SOL    HW315995   4.732   3.325   2.741 -0.9673  0.1909 -0.4535
 4057SOL    MW415996   4.668   3.340   2.798 -0.4771 -0.1292  0.0956
 4058SOL     OW15997   0.210   1.631   0.183  0.0938 -0.2999 -0.2837
 4058SOL    HW215998   0.201   1.701   0.248 -0.4022 -0.6385  0.0156
 4058SOL    HW315999   0.268   1.668   0.116 -0.0016  0.3247 -0.0296
 4058SOL    MW416000   0.217   1.645   0.183  0.7998  0.4283  0.5728
 4059SOL     OW16001   0.666   1.313   1.010  0.0050  0.3622 -0.2879
 4059SOL    HW216002   0.642   1.249   0.943 -0.4077  0.0180  0.1772
 4059SOL    HW316003   0.606   1.387   0.996 -2.1628 -0.9288  1.5350
 4059SOL    MW416004   0.655   1.315   0.999  0.0018 -0.4005 -0.5329
 4060SOL     OW16005   4.205   1.745   3.933  0.1894  0.2940 -0.1460
 4060SOL    HW216006   4.129   1.740   3.876 -0.3943  0.9474  0.5621
 4060SOL    HW316007   4.170   1.740   4.022  1.0314 -0.1224  0.1797
 4060SOL    MW416008   4.191   1.744   3.938 -0.2295  0.4794  0.2300
 4061SOL     OW16009   4.658   1.571   1.187  0.0991  0.5011  0.1726
 4061SOL    HW216010   4.583   1.611   1.143 -0.7358 -0.7192  0.4243
 4061SOL    HW316011   4.700   1.517   1.120  0.4729  0.7944  0.1639
 4061SOL    MW416012   4.654   1.569   1.172  0.3707  0.0754  0.4842
 4062SOL     OW16013   5.542   1.164   5.371  0.0312  0.8356  0.3619
 4062SOL    HW216014   5.581   1.155   5.284  0.7150  0.2869  0.7165
 4062SOL    HW316015   5.535   1.259   5.383 -1.3186  0.9296 -0.8163
 4062SOL    MW416016   5.546   1.175   5.361  0.1540  0.4979 -0.2572
 4063SOL     OW16017   0.204   1.897   1.527 -0.3479  0.2460 -0.1293
 4063SOL    HW216018   0.127   1.924   1.478  0.7451  1.9106 -1.0346
 4063SOL    HW316019   0.275   1.950   1.491  1.3241 -1.5453  0.3648
 4063SOL    MW416020   0.203   1.908   1.516 -0.0219  0.0762  0.9105
 4064SOL     OW16021   3.788   6.133   3.630  0.0761  0.4571 -0.2327
 4064SOL    HW216022   3.739   6.054   3.606  0.2918  0.2631 -0.0292
 4064SOL    HW316023   3.870   6.100   3.666 -0.1034  0.7620  0.4560
 4064SOL    MW416024   3.792   6.118   3.631 -0.1352  0.1927 -0.6854
 4065SOL     OW16025   1.667   1.565   5.937 -0.1481  0.3855 -0.3366
 4065SOL    HW216026   1.703   1.592   6.022 -0.9904  0.2031  0.0894
 4065SOL    HW316027   1.718   1.614   5.873  1.4815 -0.5504  0.1885
 4065SOL    MW416028   1.678   1.575   5.940 -0.1739  0.3191 -0.0134
 4066SOL     OW16029   6.225   2.123   3.187  0.3343 -0.6847 -0.3063
 4066SOL    HW216030   6.258   2.036   3.210 -0.6627 -1.0725 -0.3142
 4066SOL    HW316031   6.132   2.120   3.208  0.1347  0.1282 -1.0187
 4066SOL    MW416032   6.217   2.111   3.193 -0.4276  0.4120 -0.0002
 4067SOL     OW16033   5.690   2.021   2.157  0.6907  0.0605 -0.0470
 4067SOL    HW216034   5.783   2.044   2.163  0.1521  2.5438 -0.0146
 4067SOL    HW316035   5.664   2.004   2.248  0.7937  0.9089  0.1534
 4067SOL    MW416036   5.699   2.022   2.170 -0.7740 -0.2607  0.4045
 4068SOL     OW16037   5.362   1.009   3.749 -0.0877 -0.6328  0.5827
 4068SOL    HW216038   5.450   0.979   3.775  0.6856  0.6023 -0.4808
 4068SOL    HW316039   5.353   1.094   3.792 -0.4963 -0.4713  0.1801
 4068SOL    MW416040   5.373   1.016   3.758 -0.4666  0.3473  0.3124
 4069SOL     OW16041   4.437   5.374   1.711 -0.5104  0.1888  0.3311
 4069SOL    HW216042   4.498   5.310   1.748 -0.3014  0.1590 -0.0619
 4069SOL    HW316043   4.402   5.332   1.633 -1.6318 -0.1110  0.9762
 4069SOL    MW416044   4.440   5.360   1.706 -0.4567 -0.4409 -0.2171
 4070SOL     OW16045   5.692   4.784   2.955  0.3923  0.0591 -0.0601
 4070SOL    HW216046   5.634   4.859   2.940  0.7778  0.1576 -1.2050
 4070SOL    HW316047   5.737   4.805   3.036  0.7997  1.2876 -0.5706
 4070SOL    MW416048   5.690   4.797   2.964  0.1235 -0.3814 -0.6717
 4071SOL     OW16049   1.062   2.398   0.497  0.2163 -0.2237 -0.5941
 4071SOL    HW216050   1.143   2.375   0.450  0.4474 -0.2544 -0.1849
 4071SOL    HW316051   1.077   2.487   0.528 -0.5762  0.4092 -1.9500
 4071SOL    MW416052   1.075   2.407   0.495 -0.5159 -0.7386 -0.8868
 4072SOL     OW16053   0.626   0.055   0.648  0.2836 -0.2250  0.0077
 4072SOL    HW216054   0.589   0.096   0.725 -2.7587  0.2893 -1.5869
 4072SOL    HW316055   0.704   0.009   0.680 -1.0237 -0.3164  3.3977
 4072SOL    MW416056   0.632   0.054   0.662 -0.5641 -0.3679 -0.7007
 4073SOL     OW16057   3.499   4.205   5.517  0.0656  0.0741  0.0763
 4073SOL    HW216058   3.456   4.289   5.533 -0.3935 -0.1435  0.0160
 4073SOL    HW316059   3.427   4.142   5.512  0.2675 -0.0914 -1.4342
 4073SOL    MW416060   3.483   4.208   5.518  0.6284 -0.3308  0.1411
 4074SOL     OW16061   5.080   2.701   1.620  0.5342 -0.0803 -0.3775
 4074SOL    HW216062   5.003   2.715   1.566 -0.5310 -1.6838  0.6306
 4074SOL    HW316063   5.109   2.612   1.599  1.1468 -0.0762  0.3827
 4074SOL    MW416064   5.074   2.691   1.610 -0.0933  0.2246 -0.0946
 4075SOL     OW16065   3.361   2.542   1.281  0.2198  0.4395 -0.2684
 4075SOL    HW216066   3.396   2.597   1.212  2.4503  1.4668  1.5462
 4075SOL    HW316067   3.353   2.601   1.357 -0.0006 -1.1166  0.9704
 4075SOL    MW416068   3.364   2.557   1.282  0.3161 -0.1111 -0.7326
 4076SOL     OW16069   6.251   0.062   2.525 -0.3596 -0.1157  0.1197
 4076SOL    HW216070   6.194   0.032   2.596 -1.5081  0.9916 -0.3112
 4076SOL    HW316071   6.206   0.033   2.446 -0.4160  0.8993 -0.2273
 4076SOL    MW416072   6.237   0.054   2.524  0.0346 -0.2735 -0.0766
 4077SOL     OW16073   6.166   3.679   1.802  0.2687 -0.3847  0.0301
 4077SOL    HW216074   6.223   3.695   1.727  0.1565  1.7693  0.3480
 4077SOL    HW316075   6.130   3.765   1.824 -1.1154 -1.2665  1.4327
 4077SOL    MW416076   6.169   3.692   1.795 -0.0494 -0.6870  0.1557
 4078SOL     OW16077   5.439   0.622   2.555 -0.1198  0.8640 -0.1706
 4078SOL    HW216078   5.401   0.543   2.517  1.4128 -0.0176  0.0449
 4078SOL    HW316079   5.421   0.691   2.490 -1.2497  0.3082 -0.4780
 4078SOL    MW416080   5.432   0.621   2.541 -0.5092  0.0971  0.6310
 4079SOL     OW16081   2.094   4.201   5.114 -0.3118  0.5947  0.2492
 4079SOL    HW216082   2.145   4.260   5.058 -0.4670  0.4427 -0.0467
 4079SOL    HW316083   2.129   4.218   5.202  0.5721  0.1560 -0.0075
 4079SOL    MW416084   2.105   4.211   5.118 -0.0273  1.1481 -0.1996
 4080SOL     OW16085   1.860   5.113   2.573 -0.3978  0.0918  0.1420
 4080SOL    HW216086   1.886   5.021   2.569 -0.8435  0.0017 -1.1331
 4080SOL    HW316087   1.934   5.160   2.536 -0.1930  0.2528  0.7439
 4080SOL    MW416088   1.873   5.107   2.568 -0.0768  0.3441 -0.5089
 4081SOL     OW16089   0.194   4.604   5.312  0.3573 -0.2357 -0.1941
 4081SOL    HW216090   0.126   4.544   5.282 -1.6261  1.6243  0.3360
 4081SOL    HW316091   0.210   4.578   5.403  1.0665 -1.2320 -0.5755
 4081SOL    MW416092   0.188   4.592   5.320 -0.0624  0.9922 -0.5069
 4082SOL     OW16093   0.903   1.944   3.191 -0.0742  0.2326 -0.1770
 4082SOL    HW216094   0.847   2.008   3.150  1.2097  0.6435 -1.3672
 4082SOL    HW316095   0.949   1.901   3.118  1.5386  0.2961  0.7410
 4082SOL    MW416096   0.902   1.946   3.176  0.2373 -0.2647  0.2651
 4083SOL     OW16097   4.115   5.370   4.926 -0.5333 -0.5382 -0.1473
 4083SOL    HW216098   4.042   5.362   4.864 -1.1378  1.8822  0.1670
 4083SOL    HW316099   4.073   5.361   5.012 -0.1181 -1.1323  0.0000
 4083SOL    MW416100   4.100   5.368   4.930  0.2296 -0.3130  0.0206
 4084SOL     OW16101   2.523   1.974   3.667  0.4145  0.0222 -0.2456
 4084SOL    HW216102   2.609   2.006   3.637  0.2014 -0.5011 -1.4593
 4084SOL    HW316103   2.513   2.013   3.754  2.4080 -0.8459  0.4405
 4084SOL    MW416104   2.533   1.983   3.675  0.4282  0.1193  0.3205
 4085SOL     OW16105   3.712   0.939   3.104  0.8420  0.3663  0.0203
 4085SOL    HW216106   3.796   0.898   3.125 -0.4893 -2.0567  1.1348
 4085SOL    HW316107   3.687   0.985   3.184 -0.8128 -2.6504  1.4145
 4085SOL    MW416108   3.720   0.940   3.117  0.2551  0.2283  0.3224
 4086SOL     OW16109   4.649   3.243   4.203 -0.7519 -0.1778  0.0953
 4086SOL    HW216110   4.678   3.164   4.159 -1.2546 -0.1449 -0.3126
 4086SOL    HW316111   4.689   3.315   4.154 -1.2492 -0.1433 -0.2637
 4086SOL    MW416112   4.658   3.242   4.191  0.4438  0.6217  0.1246
 4087SOL     OW16113   4.150   4.320   5.829  0.0133 -0.0871 -0.0188
 4087SOL    HW216114   4.229   4.365   5.859 -0.1750 -0.4532  1.0472
 4087SOL    HW316115   4.184   4.242   5.783  0.2854  0.2133 -0.3373
 4087SOL    MW416116   4.165   4.315   5.827 -0.0186  0.5081 -0.6709
 4088SOL     OW16117   2.471   2.437   0.205 -0.4757 -0.1929  0.1087
 4088SOL    HW216118   2.522   2.379   0.148 -0.9851 -0.5555  0.0163
 4088SOL    HW316119   2.419   2.490   0.144 -1.8013 -1.2892  0.2295
 4088SOL    MW416120   2.471   2.436   0.189  0.2910 -0.3928  0.7639
 4089SOL     OW16121   2.586   1.775   5.479  0.5179  0.6376  0.2842
 4089SOL    HW216122   2.523   1.721   5.430  0.4510  0.6764  0.3276
 4089SOL    HW316123   2.666   1.723   5.479  0.2296  0.1715  1.0027
 4089SOL    MW416124   2.588   1.761   5.473  0.1804 -0.2816  0.5656
 4090SOL     OW16125   4.962   1.180   6.348  0.2706 -0.2381  0.3376
 4090SOL    HW216126   4.940   1.095   6.309  1.9970 -0.9061  0.7166
 4090SOL    HW316127   5.043   1.206   6.303  0.0935  0.9098  0.6683
 4090SOL    MW416128   4.970   1.172   6.337 -0.7446  0.3464  0.0815
 4091SOL     OW16129   1.928   1.833   5.516 -0.5642 -0.3520 -0.1233
 4091SOL    HW216130   1.865   1.790   5.573 -0.0860 -0.8162  0.0619
 4091SOL    HW316131   1.926   1.782   5.435 -2.7865  1.5213 -1.3726
 4091SOL    MW416132   1.919   1.821   5.513 -0.5604 -0.2430 -0.1180
 4092SOL     OW16133   1.295   2.284   1.292  0.6121  0.0053 -0.2985
 4092SOL    HW216134   1.210   2.253   1.323  2.0791 -2.6148  1.6157
 4092SOL    HW316135   1.307   2.240   1.207  0.0927  0.3700 -0.5662
 4092SOL    MW416136   1.285   2.274   1.285  0.0807 -0.6362  0.0738
 4093SOL     OW16137   4.225   6.009   4.895 -0.5745 -0.1023  0.2421
 4093SOL    HW216138   4.313   5.978   4.919  0.4482  1.2639 -1.5325
 4093SOL    HW316139   4.237   6.053   4.811 -3.1059 -0.4242 -0.3617
 4093SOL    MW416140   4.239   6.011   4.887  0.0984  0.4255  0.0370
 4094SOL     OW16141   2.092   5.467   4.518  0.0927 -0.5941 -0.0431
 4094SOL    HW216142   2.162   5.503   4.464  0.2657 -1.4962 -0.4312
 4094SOL    HW316143   2.013   5.477   4.464 -0.1326  0.5864  0.4650
 4094SOL    MW416144   2.091   5.473   4.504  0.3636  0.5931  0.0104
 4095SOL     OW16145   6.032   1.794   5.108  0.4860 -0.0329  0.3969
 4095SOL    HW216146   6.111   1.845   5.130 -0.0876  1.0717 -0.0299
 4095SOL    HW316147   5.961   1.858   5.115 -0.1979 -0.6764 -0.6139
 4095SOL    MW416148   6.033   1.809   5.112 -0.1823  0.0829 -0.2353
 4096SOL     OW16149   1.009   4.476   4.912  0.2406  0.3747 -0.3397
 4096SOL    HW216150   1.060   4.473   4.993 -1.6545 -1.0396  0.8727
 4096SOL    HW316151   1.072   4.505   4.846  2.4071 -0.5329  1.1972
 4096SOL    MW416152   1.024   4.480   4.914  0.2920  0.5431 -0.3528
 4097SOL     OW16153   5.342   0.416   2.323 -0.6198  0.2079 -0.5560
 4097SOL    HW216154   5.386   0.344   2.369  1.4222  0.5505 -1.8530
 4097SOL    HW316155   5.251   0.388   2.317 -0.7816 -0.3300  2.6670
 4097SOL    MW416156   5.336   0.403   2.329  0.3803 -0.3446 -0.1408
 4098SOL     OW16157   0.544   2.751   6.422  0.5185 -0.8575  0.1713
 4098SOL    HW216158   0.511   2.791   6.342 -0.5009  1.9168  1.8229
 4098SOL    HW316159   0.629   2.793   6.438 -0.4534  0.6501  1.8069
 4098SOL    MW416160   0.551   2.762   6.414 -0.5153  0.7453  0.5076
 4099SOL     OW16161   0.905   1.022   6.261 -0.4535 -0.0818 -0.8327
 4099SOL    HW216162   0.909   1.098   6.318 -1.7947  0.2728 -1.1610
 4099SOL    HW316163   0.996   1.004   6.237 -0.0461  0.8867 -0.0738
 4099SOL    MW416164   0.917   1.030   6.266  0.1461  0.4943  0.9593
 4100SOL     OW16165   3.609   2.586   4.480  0.4185  0.2412  0.5010
 4100SOL    HW216166   3.616   2.618   4.390 -0.1795 -0.5015  0.1769
 4100SOL    HW316167   3.674   2.637   4.529  1.1770  0.2392 -0.4696
 4100SOL    MW416168   3.619   2.597   4.474 -0.5482 -0.4766  0.2427
 4101SOL     OW16169   0.437   2.567   0.937 -0.1938  1.3949 -0.1736
 4101SOL    HW216170   0.533   2.570   0.945 -0.2872  1.5106  1.1319
 4101SOL    HW316171   0.407   2.526   1.018 -1.2044  0.2790 -1.0770
 4101SOL    MW416172   0.446   2.562   0.949 -0.1904 -0.0818  0.2705
 4102SOL     OW16173   4.881   1.291   6.021 -0.1984  0.0326 -0.1362
 4102SOL    HW216174   4.867   1.376   5.978  2.1987  0.2749 -0.5636
 4102SOL    HW316175   4.792   1.259   6.040 -1.1948  2.0922 -0.9917
 4102SOL    MW416176   4.867   1.298   6.018  0.0281 -0.5270 -0.1788
 4103SOL     OW16177   6.154   5.401   3.624  0.0013 -0.2163  0.4308
 4103SOL    HW216178   6.094   5.330   3.602 -0.5809  0.3239  0.2490
 4103SOL    HW316179   6.179   5.384   3.715 -1.3363  0.1868  0.8854
 4103SOL    MW416180   6.150   5.389   3.633 -0.1711  0.3518  0.2257
 4104SOL     OW16181   6.320   2.528   3.423 -0.4920 -0.3393 -0.6315
 4104SOL    HW216182   6.249   2.473   3.458  0.4451 -1.0317  0.2254
 4104SOL    HW316183   6.390   2.520   3.486  0.2382  0.6406 -1.2869
 4104SOL    MW416184   6.320   2.520   3.436 -0.0222 -0.0492 -0.1716
 4105SOL     OW16185   1.804   1.520   4.980 -0.3672 -0.4751  0.3746
 4105SOL    HW216186   1.768   1.592   5.032 -0.3364  0.6415 -1.0853
 4105SOL    HW316187   1.869   1.561   4.924 -1.7045 -1.2542 -1.8764
 4105SOL    MW416188   1.808   1.534   4.979  0.0851 -0.6344 -0.2702
 4106SOL     OW16189   4.963   2.573   2.641  0.4874  0.2251 -0.1228
 4106SOL    HW216190   4.950   2.488   2.598  1.1391 -0.1394  0.3802
 4106SOL    HW316191   4.885   2.624   2.618  1.6584  0.7836 -3.3970
 4106SOL    MW416192   4.951   2.569   2.632 -0.4996 -0.4467 -0.8344
 4107SOL     OW16193   5.755   0.085   5.208  0.1874 -0.3884 -0.0573
 4107SOL    HW216194   5.703   0.017   5.250  0.0171  1.7222  3.5215
 4107SOL    HW316195   5.845   0.068   5.236  0.4714 -0.2932 -0.8740
 4107SOL    MW416196   5.760   0.074   5.217 -0.3279 -0.4092 -0.1574
 4108SOL     OW16197   4.283   1.489   3.890  0.0657 -0.4139 -0.0328
 4108SOL    HW216198   4.240   1.497   3.805 -1.1651  1.1392  0.6915
 4108SOL    HW316199   4.261   1.569   3.936  2.1595 -0.4366  1.1321
 4108SOL    MW416200   4.275   1.500   3.884 -0.2236 -0.2424  0.5499
 4109SOL     OW16201   2.784   4.236   5.867  0.0702  0.3277  0.1634
 4109SOL    HW216202   2.877   4.256   5.855  0.8044 -2.0267  1.3400
 4109SOL    HW316203   2.783   4.160   5.926 -2.6587  0.9924  1.1206
 4109SOL    MW416204   2.796   4.228   5.873  0.6265 -0.3946 -0.1607
 4110SOL     OW16205   2.785   4.483   1.475  0.1322 -0.1026  0.6792
 4110SOL    HW216206   2.771   4.450   1.564 -3.0649  1.0026  0.7168
 4110SOL    HW316207   2.730   4.561   1.470  2.0885  1.2383 -1.5689
 4110SOL    MW416208   2.776   4.489   1.486 -0.7337 -0.0445  0.9191
 4111SOL     OW16209   0.020   0.459   0.706  0.2124  0.2702 -0.1167
 4111SOL    HW216210   0.010   0.469   0.801  0.8413 -1.9756  0.2314
 4111SOL    HW316211  -0.052   0.510   0.670 -0.2465  0.9021  1.5682
 4111SOL    MW416212   0.009   0.467   0.714 -0.2028  0.6189  0.4535
 4112SOL     OW16213   6.155   2.805   4.063  0.2124 -0.3035  0.1220
 4112SOL    HW216214   6.147   2.717   4.027  1.3395 -0.6029  0.5672
 4112SOL    HW316215   6.141   2.863   3.988  1.4280 -0.8985 -0.5930
 4112SOL    MW416216   6.152   2.801   4.048 -0.3482  0.2129  0.2795
 4113SOL     OW16217   4.173   5.521   6.298  0.0148  0.1067  0.0285
 4113SOL    HW216218   4.198   5.437   6.258 -2.3169 -1.0055  0.7071
 4113SOL    HW316219   4.256   5.558   6.328  1.3494 -1.0239 -1.9667
 4113SOL    MW416220   4.188   5.515   6.297  0.6200  0.7293  0.0768
 4114SOL     OW16221   4.849   0.579   6.244 -0.4263 -0.4209 -0.0263
 4114SOL    HW216222   4.756   0.571   6.225 -0.4297 -1.3269  0.2992
 4114SOL    HW316223   4.857   0.657   6.298 -0.9250 -0.0448 -0.4893
 4114SOL    MW416224   4.838   0.588   6.248  0.3960 -0.3537  0.1555
 4115SOL     OW16225   2.576   5.704   1.740 -0.1622 -0.0949 -0.1937
 4115SOL    HW216226   2.622   5.763   1.799  1.5566  0.4577 -2.0114
 4115SOL    HW316227   2.503   5.670   1.793  0.2296  1.7413  1.6520
 4115SOL    MW416228   2.572   5.707   1.755 -0.7392 -0.0318  0.2252
 4116SOL     OW16229   4.071   2.764   5.618  0.4015 -0.3046 -0.3692
 4116SOL    HW216230   4.132   2.700   5.581  1.2691  0.8490 -0.9960
 4116SOL    HW316231   4.125   2.815   5.679  0.1186  0.8437 -1.0616
 4116SOL    MW416232   4.086   2.762   5.622  0.1973 -0.1980 -0.8672
 4117SOL     OW16233   5.832   1.067   4.820 -0.2277 -0.7589  0.0312
 4117SOL    HW216234   5.742   1.068   4.790  0.0332  0.6441 -0.8025
 4117SOL    HW316235   5.842   1.149   4.870  0.7040 -0.6381 -0.3246
 4117SOL    MW416236   5.822   1.078   4.823  0.5525 -0.4244  0.1274
 4118SOL     OW16237   0.062   4.408   2.370  0.2381 -0.0212  0.1001
 4118SOL    HW216238   0.108   4.399   2.286 -0.4609  1.1421 -0.4343
 4118SOL    HW316239  -0.031   4.409   2.346 -0.0050 -0.5654  0.9895
 4118SOL    MW416240   0.056   4.407   2.356 -0.6239 -0.2759 -0.4598
 4119SOL     OW16241   0.210   4.670   0.154  0.4512  0.4253  0.5330
 4119SOL    HW216242   0.134   4.715   0.189 -1.0850 -1.2596 -0.4756
 4119SOL    HW316243   0.210   4.584   0.197  0.6710 -0.2820 -0.8116
 4119SOL    MW416244   0.200   4.664   0.164 -0.0529 -0.7426  0.0726
 4120SOL     OW16245   1.131   5.960   0.759  0.3608 -0.3263 -0.0265
 4120SOL    HW216246   1.066   6.030   0.771  2.1708  1.0605  2.4315
 4120SOL    HW316247   1.109   5.895   0.826  0.6344 -0.5733 -0.1746
 4120SOL    MW416248   1.119   5.960   0.769 -0.3970  0.0712 -0.7742
 4121SOL     OW16249   4.668   3.068   6.034 -0.3956  0.3129  0.1993
 4121SOL    HW216250   4.610   3.056   5.958 -0.8193  1.5645  0.3105
 4121SOL    HW316251   4.751   3.098   5.996  0.3578 -1.8420  0.0049
 4121SOL    MW416252   4.671   3.070   6.019 -0.4796 -0.2607  0.2549
 4122SOL     OW16253   0.994   3.083   4.823 -0.3718  0.3968  0.0591
 4122SOL    HW216254   0.901   3.085   4.844 -0.6001  1.0993 -0.9604
 4122SOL    HW316255   1.003   3.012   4.759 -0.3220  0.7131 -0.2942
 4122SOL    MW416256   0.983   3.074   4.817  0.1090  0.4956 -0.3952
 4123SOL     OW16257   3.795   0.540   1.835 -0.1572  0.1970 -0.1701
 4123SOL    HW216258   3.832   0.489   1.763  0.2079 -0.0784  0.2089
 4123SOL    HW316259   3.757   0.617   1.793  0.4883  0.2789 -0.6094
 4123SOL    MW416260   3.795   0.544   1.820  0.1096  0.5482 -0.2414
 4124SOL     OW16261   0.994   3.602   6.423 -0.2282 -0.1958 -0.2712
 4124SOL    HW216262   1.044   3.522   6.410 -1.2159 -0.8044 -0.4132
 4124SOL    HW316263   1.032   3.642   6.502  1.9259  0.5159 -1.5980
 4124SOL    MW416264   1.006   3.597   6.432  0.2728 -0.1286 -0.4620
 4125SOL     OW16265   0.524   2.061   5.658 -0.4385  0.4653  0.1328
 4125SOL    HW216266   0.614   2.035   5.676 -0.0943  1.4197 -0.1609
 4125SOL    HW316267   0.509   2.136   5.715 -0.8533  0.6762 -0.2478
 4125SOL    MW416268   0.534   2.067   5.668 -0.0587  0.2778 -0.4828
 4126SOL     OW16269   4.868   3.947   5.908 -0.5318  0.4649  0.0632
 4126SOL    HW216270   4.877   3.948   5.812  2.4012  1.4959  0.2466
 4126SOL    HW316271   4.888   3.858   5.933 -0.2829  0.4361 -0.2270
 4126SOL    MW416272   4.872   3.936   5.898  0.5539  0.0298 -0.4256
 4127SOL     OW16273   2.665   3.098   0.464 -0.4114  0.0418  0.9238
 4127SOL    HW216274   2.585   3.130   0.506 -1.3885  1.0943 -1.5418
 4127SOL    HW316275   2.634   3.031   0.402  0.1613  2.2751 -1.9766
 4127SOL    MW416276   2.650   3.093   0.461  0.4360  0.1360 -0.0185
 4128SOL     OW16277   2.173   0.992   5.301 -0.1108  0.2230 -0.4454
 4128SOL    HW216278   2.161   0.946   5.384  1.9898 -0.9714 -0.7482
 4128SOL    HW316279   2.102   0.959   5.246 -0.2637 -0.6111  0.2183
 4128SOL    MW416280   2.162   0.981   5.305 -0.1859 -0.2521 -0.5853
 4129SOL     OW16281   1.094   5.473   4.046 -0.1908 -0.1081 -0.4635
 4129SOL    HW216282   1.116   5.385   4.016  0.5798 -0.4687  1.0687
 4129SOL    HW316283   1.007   5.490   4.009  0.0735 -1.0900 -1.6073
 4129SOL    MW416284   1.085   5.464   4.037 -0.6059 -0.5661 -0.4962
 4130SOL     OW16285   4.896   0.934   6.212  0.0402  0.0940 -0.1444
 4130SOL    HW216286   4.984   0.903   6.191 -0.2484 -0.2458 -0.9119
 4130SOL    HW316287   4.869   0.882   6.287  0.4316  0.0866 -0.0064
 4130SOL    MW416288   4.904   0.923   6.219 -0.0137  0.5851  0.0221
 4131SOL     OW16289   0.548   5.900   5.191 -0.0989  0.1692 -0.0613
 4131SOL    HW216290   0.513   5.985   5.163  0.9541 -0.0650 -2.2684
 4131SOL    HW316291   0.639   5.901   5.164  0.1407 -1.3912  0.5859
 4131SOL    MW416292   0.555   5.912   5.184 -0.3919  0.2910  0.6316
 4132SOL     OW16293   4.027   0.219   2.774  0.5565 -0.6117 -0.3846
 4132SOL    HW216294   4.004   0.167   2.852  0.9363 -1.2325 -0.6753
 4132SOL    HW316295   4.118   0.194   2.755  0.2270 -1.0268 -1.4653
 4132SOL    MW416296   4.036   0.209   2.782 -0.2249  0.0952 -0.2307
 4133SOL     OW16297   5.827   2.540   1.895  0.0363  0.1325  0.0415
 4133SOL    HW216298   5.866   2.617   1.937  0.7583 -0.0938 -0.1996
 4133SOL    HW316299   5.828   2.473   1.963 -0.7130  0.3617  0.2924
 4133SOL    MW416300   5.832   2.541   1.910 -0.2927 -0.1297 -0.1676
 4134SOL     OW16301   4.736   5.485   5.465  0.2808 -0.2612 -0.8411
 4134SOL    HW216302   4.821   5.461   5.500 -0.2708 -0.6940  0.2701
 4134SOL    HW316303   4.737   5.453   5.375  0.8907 -1.2640 -0.4998
 4134SOL    MW416304   4.747   5.477   5.458  0.8027 -0.1340  0.4990
 4135SOL     OW16305   5.288   0.913  -0.002 -0.2955  0.5174 -0.4067
 4135SOL    HW216306   5.369   0.882   0.038  0.1364  1.7927 -0.2510
 4135SOL    HW316307   5.313   0.943  -0.089 -0.5936  0.9143 -0.3623
 4135SOL    MW416308   5.302   0.913  -0.008  0.0455  0.1192 -0.3038
 4136SOL     OW16309   3.491   1.949   1.516  0.1173 -0.0588  0.4041
 4136SOL    HW216310   3.484   1.876   1.578 -1.4160 -1.4802 -1.3108
 4136SOL    HW316311   3.489   1.907   1.430 -1.0317  2.0323 -0.6605
 4136SOL    MW416312   3.490   1.934   1.513  0.1456  0.0107 -0.1068
 4137SOL     OW16313   0.700   2.365   2.967  0.1489 -0.1165  0.1248
 4137SOL    HW216314   0.771   2.417   3.004  0.0373 -0.3728  0.7071
 4137SOL    HW316315   0.620   2.404   3.003 -0.0471  0.4962 -0.9319
 4137SOL    MW416316   0.699   2.377   2.977 -0.4300  0.3128  0.6325
 4138SOL     OW16317   2.416   1.090   0.171 -0.0448  0.4685 -0.2571
 4138SOL    HW216318   2.471   1.168   0.160  1.9553 -0.8719 -0.2158
 4138SOL    HW316319   2.413   1.051   0.084  0.6470 -0.4586  0.1215
 4138SOL    MW416320   2.423   1.095   0.158 -0.6076  0.1271 -0.1335
 4139SOL     OW16321   5.327   4.753   1.952  0.4261 -0.1617 -0.1791
 4139SOL    HW216322   5.281   4.679   1.992 -0.0386 -0.2209 -0.8131
 4139SOL    HW316323   5.307   4.827   2.009  0.3855 -0.3974  0.1154
 4139SOL    MW416324   5.318   4.753   1.965  0.1830  0.6555  0.2914
 4140SOL     OW16325   4.396   3.310   3.151 -0.1048 -0.5054  0.0644
 4140SOL    HW216326   4.306   3.302   3.184 -0.3315  0.0402 -0.3937
 4140SOL    HW316327   4.425   3.395   3.185  0.4901 -0.9946  0.7918
 4140SOL    MW416328   4.388   3.320   3.160 -0.1936  0.9016 -0.0649
 4141SOL     OW16329   2.923   0.438   2.248  0.6095 -0.2011  0.0815
 4141SOL    HW216330   2.980   0.485   2.187 -0.1986 -1.3259 -1.6287
 4141SOL    HW316331   2.836   0.478   2.236  0.7694  0.8085  1.9085
 4141SOL    MW416332   2.919   0.449   2.239  0.1023 -0.0595 -0.0375
 4142SOL     OW16333   6.152   3.316   4.212  0.0713  0.7442 -0.3742
 4142SOL    HW216334   6.129   3.373   4.139 -2.2425  1.1694  0.6052
 4142SOL    HW316335   6.116   3.230   4.187  0.3637  0.5822 -0.2486
 4142SOL    MW416336   6.144   3.312   4.199 -0.0923 -0.2628  0.3724
 4143SOL     OW16337   6.191   4.087   2.670 -0.0362 -0.1757 -0.0087
 4143SOL    HW216338   6.116   4.028   2.684 -0.6347  0.1277 -1.6816
 4143SOL    HW316339   6.159   4.173   2.698 -1.0418  0.3254 -2.4433
 4143SOL    MW416340   6.177   4.090   2.675  0.4491  0.1137  0.0031
 4144SOL     OW16341   5.019   6.321   4.023 -0.2794  0.2003  0.9166
 4144SOL    HW216342   5.049   6.404   3.986  0.7187 -0.1374  0.9205
 4144SOL    HW316343   4.940   6.342   4.071 -0.1726  1.1057  0.7058
 4144SOL    MW416344   5.013   6.335   4.024 -0.4970  0.1295  0.2899
 4145SOL     OW16345   0.700   0.940   3.502 -0.3520 -0.3856  0.7676
 4145SOL    HW216346   0.731   1.030   3.516  0.4388 -0.9498  3.3361
 4145SOL    HW316347   0.780   0.887   3.507 -0.6080 -1.2093 -2.1277
 4145SOL    MW416348   0.715   0.945   3.505 -0.6653  0.5197  0.3929
 4146SOL     OW16349   0.622   3.340   2.360 -0.6822  0.0334  0.0191
 4146SOL    HW216350   0.692   3.321   2.297 -0.2640 -0.3879  0.6032
 4146SOL    HW316351   0.660   3.317   2.445 -1.6752 -0.5802  0.3032
 4146SOL    MW416352   0.637   3.335   2.363 -0.0594 -0.0478  0.1958
 4147SOL     OW16353   0.249   4.327   6.232  0.5948 -0.3004 -0.4798
 4147SOL    HW216354   0.170   4.322   6.177  0.1513 -1.1825  0.2220
 4147SOL    HW316355   0.299   4.249   6.208  0.3084 -0.7922  0.4880
 4147SOL    MW416356   0.245   4.316   6.221  0.1599 -0.4387  0.4605
 4148SOL     OW16357   1.964   0.509   1.640  0.3003  0.2302 -0.2146
 4148SOL    HW216358   2.029   0.553   1.584  0.6685  0.2418  0.2193
 4148SOL    HW316359   1.903   0.468   1.578 -0.4841  1.9506 -0.6569
 4148SOL    MW416360   1.964   0.510   1.624 -0.8873 -0.2231 -0.3084
 4149SOL     OW16361   3.673   6.071   2.030 -0.3304 -0.0417  0.2259
 4149SOL    HW216362   3.688   5.978   2.017 -3.4241 -0.9239  1.7293
 4149SOL    HW316363   3.670   6.081   2.126  1.3861  1.9490  0.1364
 4149SOL    MW416364   3.674   6.060   2.041 -0.5110 -0.3490 -0.6555
 4150SOL     OW16365   4.798   1.890   0.714  0.3394 -0.0153 -0.0608
 4150SOL    HW216366   4.813   1.815   0.657  2.2361 -0.3953  0.8849
 4150SOL    HW316367   4.825   1.861   0.801 -2.7944  0.4432  1.1940
 4150SOL    MW416368   4.803   1.876   0.718 -0.2320 -0.4426 -0.1911
 4151SOL     OW16369   5.733   1.645   4.572  0.0967 -0.9426 -0.2365
 4151SOL    HW216370   5.810   1.594   4.548 -0.9533 -1.9704 -1.6042
 4151SOL    HW316371   5.762   1.700   4.645  2.2909 -0.7912 -1.1610
 4151SOL    MW416372   5.747   1.645   4.579  0.9363  0.3020 -0.0618
 4152SOL     OW16373   5.794   2.271   3.454  0.2011  0.5819  0.3432
 4152SOL    HW216374   5.813   2.349   3.507 -0.5584  0.5056  0.7433
 4152SOL    HW316375   5.758   2.208   3.517 -0.1430  0.2713 -0.1550
 4152SOL    MW416376   5.792   2.273   3.470 -0.2666 -0.0577 -0.1405
 4153SOL     OW16377   4.431   3.061   2.013  0.9596  0.1561  0.5653
 4153SOL    HW216378   4.359   3.003   1.988  1.6225  0.1143 -1.4384
 4153SOL    HW316379   4.395   3.115   2.084 -0.2341 -1.4760  1.2558
 4153SOL    MW416380   4.417   3.061   2.019  0.2263 -0.0678  0.0881
 4154SOL     OW16381   0.810   3.421   1.342 -0.2133  0.9764  0.2397
 4154SOL    HW216382   0.864   3.470   1.404 -0.4645  3.0051 -1.0523
 4154SOL    HW316383   0.871   3.393   1.274 -0.2295  0.2434  0.5174
 4154SOL    MW416384   0.825   3.424   1.341  0.2330 -0.3102  0.2787
 4155SOL     OW16385   4.911   4.976   5.216  0.0042 -0.1366 -0.0192
 4155SOL    HW216386   4.983   5.016   5.167  0.1766 -2.2937 -1.6798
 4155SOL    HW316387   4.952   4.907   5.268 -0.7358 -0.7663 -0.2476
 4155SOL    MW416388   4.926   4.972   5.217  0.4807 -0.1912 -0.0495
 4156SOL     OW16389   3.982   5.325   5.168 -0.0547 -0.1566 -0.1474
 4156SOL    HW216390   3.928   5.386   5.217 -0.3935  0.7156 -1.5293
 4156SOL    HW316391   3.946   5.238   5.187 -0.9909  0.2817  0.1186
 4156SOL    MW416392   3.970   5.321   5.177  0.0475  0.2656 -0.1703
 4157SOL     OW16393   2.479   5.259   2.861  0.7828 -0.6920 -0.1128
 4157SOL    HW216394   2.559   5.242   2.911  0.7592 -0.5544 -0.0275
 4157SOL    HW316395   2.440   5.172   2.850  0.0207 -0.5882  1.4066
 4157SOL    MW416396   2.484   5.245   2.866  0.8763 -0.4736 -1.2036
 4158SOL     OW16397   1.758   3.209   3.879 -0.6053  0.1833  0.1209
 4158SOL    HW216398   1.797   3.224   3.793 -1.7450 -1.2524 -0.6901
 4158SOL    HW316399   1.755   3.114   3.889 -0.1790  0.3047  1.9299
 4158SOL    MW416400   1.763   3.198   3.869  0.6831 -0.0900 -0.0112
 4159SOL     OW16401   0.638   3.180   5.344 -0.4227  0.1352  0.4360
 4159SOL    HW216402   0.652   3.237   5.420  0.0315  1.3851 -0.5522
 4159SOL    HW316403   0.590   3.106   5.379  1.4502 -0.2867  2.3462
 4159SOL    MW416404   0.634   3.178   5.359  0.1806 -0.5722 -0.3530
 4160SOL     OW16405   4.392   4.699   2.947  0.5219 -0.2914  0.0356
 4160SOL    HW216406   4.476   4.726   2.982  0.5189  1.1938 -1.0121
 4160SOL    HW316407   4.413   4.650   2.867  0.4326 -1.3762  0.6595
 4160SOL    MW416408   4.406   4.696   2.941  0.3272  0.1299 -0.4425
 4161SOL     OW16409   4.393   3.667   2.029  0.1257 -0.0533  0.4171
 4161SOL    HW216410   4.310   3.620   2.035 -1.2690  2.0980 -0.5283
 4161SOL    HW316411   4.460   3.599   2.031 -1.6459 -1.8659  1.2465
 4161SOL    MW416412   4.390   3.652   2.030  0.1006 -0.1652  0.2292
 4162SOL     OW16413   0.126   0.008   0.630  0.0916  0.1246  0.2949
 4162SOL    HW216414   0.047   0.062   0.635 -0.4071 -0.5859  0.1738
 4162SOL    HW316415   0.139  -0.007   0.536 -0.0288 -0.3376  0.3510
 4162SOL    MW416416   0.117   0.013   0.618  0.1980  0.8819 -0.3626
 4163SOL     OW16417   5.490   6.196   0.412 -0.3692 -0.1988  0.4668
 4163SOL    HW216418   5.440   6.268   0.373  0.3523  1.0962  1.8065
 4163SOL    HW316419   5.553   6.240   0.469  1.2148 -1.8570  0.0558
 4163SOL    MW416420   5.492   6.211   0.415 -0.1745 -0.2611 -0.5439
 4164SOL     OW16421   6.165   5.056   3.224  0.1134  1.1056 -0.2901
 4164SOL    HW216422   6.169   5.021   3.313  0.8180  1.9470  0.0319
 4164SOL    HW316423   6.147   5.149   3.237  2.1322  1.6418 -0.9040
 4164SOL    MW416424   6.163   5.064   3.238  0.1624 -0.2929  0.4425
 4165SOL     OW16425   2.409   5.685   2.794 -0.4030 -0.2109  0.0369
 4165SOL    HW216426   2.447   5.752   2.737 -0.0662 -1.1154 -0.8264
 4165SOL    HW316427   2.387   5.613   2.735 -1.8662 -0.4026  0.7695
 4165SOL    MW416428   2.411   5.684   2.778  0.0250  0.0862  0.5036
 4166SOL     OW16429   2.409   5.675   5.736  0.3123 -0.2486 -0.7307
 4166SOL    HW216430   2.451   5.706   5.816  0.6412 -0.9589 -0.6149
 4166SOL    HW316431   2.344   5.741   5.715  0.7880  0.3505 -0.3320
 4166SOL    MW416432   2.406   5.688   5.744  0.7500 -0.5037  0.5789
 4167SOL     OW16433   0.438   0.713   3.061 -0.5245  0.3051  0.1019
 4167SOL    HW216434   0.499   0.711   3.135 -2.2761  0.0444  1.5874
 4167SOL    HW316435   0.448   0.801   3.025  1.5401 -0.0919 -0.4279
 4167SOL    MW416436   0.448   0.724   3.066  0.3200 -0.1908 -0.0181
 4168SOL     OW16437   1.351   6.080   3.690  0.2224 -0.3269 -0.0268
 4168SOL    HW216438   1.413   6.037   3.748 -0.4098 -1.5252 -0.2213
 4168SOL    HW316439   1.281   6.016   3.677 -0.5461  0.6099 -0.6394
 4168SOL    MW416440   1.350   6.066   3.696 -0.2799  0.1464  0.5831
 4169SOL     OW16441   1.346   2.468   3.689 -0.5043 -1.1059  0.5353
 4169SOL    HW216442   1.394   2.484   3.608 -2.1980 -0.7769 -0.4531
 4169SOL    HW316443   1.379   2.384   3.721 -0.2002 -1.5140 -0.7935
 4169SOL    MW416444   1.357   2.459   3.683 -0.0229 -0.4855 -0.0213
 4170SOL     OW16445   2.677   5.740   0.853 -0.0668  0.1024 -0.4032
 4170SOL    HW216446   2.770   5.750   0.871 -0.2297  0.4271  0.2855
 4170SOL    HW316447   2.633   5.771   0.932 -0.7933  0.9693 -1.1141
 4170SOL    MW416448   2.683   5.746   0.866 -0.1999  0.0721 -0.5143
 4171SOL     OW16449   6.302   0.040   4.620  0.2027 -1.1055  0.4443
 4171SOL    HW216450   6.227  -0.019   4.618 -0.1916 -0.7002  2.0875
 4171SOL    HW316451   6.378  -0.017   4.632 -0.2422 -1.2927  2.7773
 4171SOL    MW416452   6.302   0.025   4.621  0.2110 -0.2863 -0.0964
 4172SOL     OW16453   2.475   4.982   4.587  0.0597  0.0443  0.7910
 4172SOL    HW216454   2.506   4.900   4.549 -1.7583 -0.9239  1.2659
 4172SOL    HW316455   2.425   5.023   4.517  0.4866  0.4751  0.7358
 4172SOL    MW416456   2.472   4.976   4.573 -0.5518  0.1308 -0.4503
 4173SOL     OW16457   1.738   2.660   5.252  0.1126 -0.4818  0.4021
 4173SOL    HW216458   1.698   2.609   5.321 -2.0880 -3.6268 -2.8360
 4173SOL    HW316459   1.665   2.702   5.207  1.4719  1.7225  0.0759
 4173SOL    MW416460   1.723   2.659   5.255  0.3190  0.0951  0.0159
 4174SOL     OW16461   0.027   0.151   5.694 -0.4893  0.4209  0.1874
 4174SOL    HW216462   0.024   0.085   5.763 -1.0128  1.4524  1.1789
 4174SOL    HW316463   0.081   0.112   5.625  2.2855  0.3712  2.2253
 4174SOL    MW416464   0.034   0.137   5.694  0.4483 -0.0130 -0.2689
 4175SOL     OW16465   0.339   1.842   6.342  0.1953 -0.2478  0.1491
 4175SOL    HW216466   0.398   1.800   6.405  0.8981  1.5969  0.8045
 4175SOL    HW316467   0.272   1.883   6.397  0.1223  0.3453 -0.3803
 4175SOL    MW416468   0.338   1.842   6.358  0.4066 -0.1877  0.1186
 4176SOL     OW16469   4.365   0.260   0.696 -0.6828 -0.6358 -0.0895
 4176SOL    HW216470   4.408   0.176   0.678  0.1374 -0.2522  0.0363
 4176SOL    HW316471   4.298   0.239   0.761 -2.8211 -1.8071 -2.4643
 4176SOL    MW416472   4.361   0.246   0.702 -0.9507  0.3275  0.2067
 4177SOL     OW16473   2.299   2.392   6.062  0.1356 -0.3910 -0.5248
 4177SOL    HW216474   2.219   2.345   6.037 -0.2886 -0.5347  1.0470
 4177SOL    HW316475   2.370   2.332   6.037 -0.3033 -0.8985 -0.5665
 4177SOL    MW416476   2.298   2.378   6.055 -0.3728  0.1732  0.1860
 4178SOL     OW16477   3.718   5.345   3.355 -0.1688  0.4673 -0.7387
 4178SOL    HW216478   3.796   5.386   3.390  0.0139  0.8658 -1.5805
 4178SOL    HW316479   3.689   5.284   3.423  1.4125 -0.3895 -0.7985
 4178SOL    MW416480   3.724   5.342   3.368  0.2844  0.1149 -0.1525
 4179SOL     OW16481   2.764   5.761   5.372  0.0807 -0.0827  0.2129
 4179SOL    HW216482   2.719   5.788   5.292  1.5669 -0.3677 -0.7527
 4179SOL    HW316483   2.789   5.670   5.355  0.9102  0.0386  0.7697
 4179SOL    MW416484   2.761   5.752   5.359 -0.2566 -0.0816  0.1205
 4180SOL     OW16485   0.987   2.524   4.527  0.2980  0.4671 -0.5582
 4180SOL    HW216486   1.077   2.554   4.515 -0.4914  2.7424 -1.3075
 4180SOL    HW316487   0.936   2.604   4.535 -1.9426 -0.6621 -2.3270
 4180SOL    MW416488   0.993   2.538   4.526  0.1999  0.2589 -0.9090
 4181SOL     OW16489   0.975   5.015   3.275 -0.8318 -0.7076  0.5236
 4181SOL    HW216490   0.979   5.028   3.181 -0.4148  0.1959  0.6604
 4181SOL    HW316491   1.060   5.043   3.308 -0.9756 -0.9970  1.1740
 4181SOL    MW416492   0.986   5.020   3.267 -0.3282  0.4542  0.8669
 4182SOL     OW16493   1.834   5.596   6.071  0.1242  0.4095  0.2961
 4182SOL    HW216494   1.752   5.574   6.114  0.4980 -0.7382  0.4511
 4182SOL    HW316495   1.808   5.630   5.985 -0.4689 -2.4678 -0.7647
 4182SOL    MW416496   1.820   5.598   6.065  0.0257  0.2271 -0.3573
 4183SOL     OW16497   3.182   2.498   1.637  0.1883  0.8041 -0.4949
 4183SOL    HW216498   3.132   2.545   1.704  0.9075  0.5740  0.2261
 4183SOL    HW316499   3.264   2.475   1.681  0.2662 -0.2187 -1.1529
 4183SOL    MW416500   3.187   2.501   1.652  0.1079  0.3313 -0.2260
 4184SOL     OW16501   1.153   1.643   3.514  0.8183 -0.1336  0.8173
 4184SOL    HW216502   1.221   1.578   3.533  0.5296 -0.6197  0.2038
 4184SOL    HW316503   1.199   1.714   3.469  0.7985 -0.8151 -0.3147
 4184SOL    MW416504   1.168   1.644   3.511  0.2654  0.3024 -0.4470
 4185SOL     OW16505   5.235   0.001   5.870  0.3297  0.5445 -0.3657
 4185SOL    HW216506   5.310  -0.043   5.829 -1.1751 -2.1755 -0.4480
 4185SOL    HW316507   5.172   0.013   5.799 -1.0232 -1.2913  0.4473
 4185SOL    MW416508   5.237  -0.003   5.855  0.4176 -0.1983 -0.7404
 4186SOL     OW16509   5.631   2.031   5.412  0.2724  0.3095 -0.1598
 4186SOL    HW216510   5.665   2.107   5.460 -1.2284  2.2237 -1.9598
 4186SOL    HW316511   5.630   1.961   5.477  1.5897  1.8200  1.6269
 4186SOL    MW416512   5.636   2.032   5.427  1.1225  0.3099 -0.3179
 4187SOL     OW16513   1.761   5.689   0.051 -0.2869 -0.2849  0.2628
 4187SOL    HW216514   1.771   5.594   0.047  0.9670 -0.1866  0.5721
 4187SOL    HW316515   1.841   5.722   0.009 -0.3458  0.6300  0.8663
 4187SOL    MW416516   1.773   5.681   0.045  0.2281 -0.0144  0.4329
 4188SOL     OW16517   0.631   4.975   3.329 -0.0072 -0.0933 -0.3276
 4188SOL    HW216518   0.697   5.027   3.283  1.8289 -2.2927 -0.3918
 4188SOL    HW316519   0.554   4.977   3.273 -0.5751  3.6036  0.3445
 4188SOL    MW416520   0.630   4.982   3.316  0.2128 -0.4854 -0.0139
 4189SOL     OW16521   1.222   5.425   2.441 -0.1619 -0.4306 -0.3269
 4189SOL    HW216522   1.276   5.349   2.419 -0.4297 -0.5066 -0.7280
 4189SOL    HW316523   1.142   5.413   2.389  0.0051  0.3850 -0.7761
 4189SOL    MW416524   1.218   5.413   2.431  0.2702 -0.0492  0.1310
 4190SOL     OW16525   2.818   2.729   2.930  0.2959 -0.8629  0.0605
 4190SOL    HW216526   2.837   2.795   2.863 -0.8739 -1.5243 -0.9481
 4190SOL    HW316527   2.759   2.668   2.888 -1.3207 -0.7441  2.0168
 4190SOL    MW416528   2.813   2.730   2.915 -0.6750 -0.6191 -0.0468
 4191SOL     OW16529   3.650   3.018   4.561  0.4148 -0.2851 -0.0193
 4191SOL    HW216530   3.682   3.059   4.481  0.8134 -1.1217 -0.2983
 4191SOL    HW316531   3.729   2.983   4.604 -0.0100 -1.6196 -0.2872
 4191SOL    MW416532   3.665   3.019   4.556 -0.4558  0.3949  0.2525
 4192SOL     OW16533   4.122   4.746   1.640  0.2092 -0.0889 -0.2343
 4192SOL    HW216534   4.095   4.778   1.554  2.3334 -1.4007 -1.4565
 4192SOL    HW316535   4.106   4.652   1.637 -0.1656 -0.0843  1.0140
 4192SOL    MW416536   4.116   4.738   1.628  0.1265 -0.6081 -0.3582
 4193SOL     OW16537   2.747   4.310   3.747  0.9016 -0.0612  0.7222
 4193SOL    HW216538   2.661   4.347   3.725  0.5076 -1.0814  0.4658
 4193SOL    HW316539   2.734   4.271   3.834  1.3849  0.6143  1.1059
 4193SOL    MW416540   2.734   4.309   3.756  0.0235 -0.5500 -0.0354
 4194SOL     OW16541   4.886   1.969   5.731  0.3016 -0.4282  0.0506
 4194SOL    HW216542   4.807   1.924   5.701  0.4370 -0.5305 -0.1556
 4194SOL    HW316543   4.888   1.954   5.826 -0.2187  0.0379  0.1383
 4194SOL    MW416544   4.876   1.961   5.740 -0.1056  0.2439 -0.2215
 4195SOL     OW16545   0.607   0.411   6.107 -0.0021  0.1772  0.5107
 4195SOL    HW216546   0.521   0.389   6.142 -0.2383 -0.2924 -0.3530
 4195SOL    HW316547   0.630   0.493   6.151 -1.9174  1.5954 -0.9496
 4195SOL    MW416548   0.599   0.419   6.118  0.4342 -0.2149 -0.0673
 4196SOL     OW16549   1.704   5.686   0.351  0.0418 -0.1617 -0.0599
 4196SOL    HW216550   1.741   5.717   0.434  1.2910 -0.3996 -0.5169
 4196SOL    HW316551   1.771   5.705   0.286 -2.1528  3.1974 -1.6830
 4196SOL    MW416552   1.718   5.693   0.353  0.7574 -0.1359  0.1751
 4197SOL     OW16553   0.190   2.261   2.021 -0.2960 -0.3081 -0.1001
 4197SOL    HW216554   0.228   2.285   2.106 -1.7248  0.2121  0.4100
 4197SOL    HW316555   0.251   2.196   1.986  0.0254 -0.9833  1.5877
 4197SOL    MW416556   0.203   2.255   2.028 -0.1865  0.5834 -0.4396
 4198SOL     OW16557   2.551   2.835   4.102 -0.1588  0.3820  0.3084
 4198SOL    HW216558   2.592   2.773   4.041 -0.9300 -0.7490  0.8899
 4198SOL    HW316559   2.458   2.811   4.100 -0.1942  0.3181  1.9361
 4198SOL    MW416560   2.544   2.823   4.094  0.1943  0.1819 -0.2659
 4199SOL     OW16561   5.040   6.140   5.354 -0.0882 -0.3789  0.4367
 4199SOL    HW216562   4.985   6.185   5.418  0.6793  0.2455  0.6806
 4199SOL    HW316563   5.028   6.188   5.273 -0.9099 -1.0532  0.1390
 4199SOL    MW416564   5.031   6.152   5.352 -0.1406 -0.5675 -0.2244
 4200SOL     OW16565   4.764   2.840   1.974  0.0804 -0.0858  0.3329
 4200SOL    HW216566   4.718   2.791   1.906 -1.1585  0.0535  1.0424
 4200SOL    HW316567   4.699   2.852   2.044  1.4342 -0.5974  1.7409
 4200SOL    MW416568   4.750   2.835   1.974 -0.5242 -0.0776  0.6207
 4201SOL     OW16569   2.533   2.028   0.119 -0.0613  0.6877 -0.5405
 4201SOL    HW216570   2.594   1.976   0.171 -0.7765 -1.7089 -1.9566
 4201SOL    HW316571   2.461   2.047   0.179  0.5422  0.6837  0.2082
 4201SOL    MW416572   2.531   2.024   0.134 -0.2123  0.3766  0.4818
 4202SOL     OW16573   6.268   5.717   4.890 -0.4156 -0.3517 -0.0440
 4202SOL    HW216574   6.318   5.772   4.829 -2.3894  2.2530  0.4795
 4202SOL    HW316575   6.186   5.698   4.844 -0.6904 -0.9111  0.6580
 4202SOL    MW416576   6.264   5.722   4.876  0.2853  0.3023 -0.1555
 4203SOL     OW16577   5.808   4.685   5.267  0.0279  0.0990  0.1419
 4203SOL    HW216578   5.860   4.749   5.315  0.2255 -0.1830  0.3052
 4203SOL    HW316579   5.867   4.611   5.254 -0.4962 -0.4602  0.8256
 4203SOL    MW416580   5.822   4.684   5.272 -0.4409 -0.4029 -0.0600
 4204SOL     OW16581   2.972   3.099   5.246 -0.0930 -0.5209  0.1178
 4204SOL    HW216582   2.919   3.019   5.243  0.4383 -0.8502 -1.1569
 4204SOL    HW316583   3.035   3.083   5.317 -1.1424 -0.4639  1.0876
 4204SOL    MW416584   2.973   3.086   5.255 -0.2445 -0.0298 -0.2104
 4205SOL     OW16585   3.002   0.002   3.543 -0.2860 -0.1029 -0.2552
 4205SOL    HW216586   3.060  -0.032   3.611 -1.0000 -1.4544 -0.2906
 4205SOL    HW316587   3.061   0.038   3.476  0.6472 -3.1197 -1.2010
 4205SOL    MW416588   3.017   0.002   3.543  0.1757  0.1789  0.4114
 4206SOL     OW16589   5.175   0.651   5.242  0.5177 -0.0348 -0.3056
 4206SOL    HW216590   5.209   0.686   5.324 -0.4982 -1.0174  0.5661
 4206SOL    HW316591   5.142   0.727   5.195 -2.5799  0.2171  1.9901
 4206SOL    MW416592   5.175   0.665   5.246  0.1746  0.5553 -0.1512
 4207SOL     OW16593   6.170   2.190   0.343  0.0012  0.1812 -0.5871
 4207SOL    HW216594   6.261   2.163   0.357  0.0024  0.4368 -0.0603
 4207SOL    HW316595   6.140   2.137   0.270  0.1040 -0.9877  0.1901
 4207SOL    MW416596   6.178   2.180   0.335 -0.2663  0.0265  0.3433
 4208SOL     OW16597   2.683   3.654   4.258 -0.2308  0.0789  0.2110
 4208SOL    HW216598   2.599   3.641   4.213  0.5136 -1.9934 -0.7034
 4208SOL    HW316599   2.660   3.653   4.351 -1.2488 -0.3851 -0.0254
 4208SOL    MW416600   2.669   3.652   4.265 -0.0561  0.7202 -0.1020
 4209SOL     OW16601   0.173   0.280   1.074 -0.1554  0.2459 -0.6978
 4209SOL    HW216602   0.116   0.259   1.148  0.5213  2.7000  0.6006
 4209SOL    HW316603   0.133   0.358   1.035 -0.8197 -1.2928 -3.3592
 4209SOL    MW416604   0.160   0.287   1.078 -0.4173 -0.2181  0.3663
 4210SOL     OW16605   4.604   0.527   3.374 -0.6381 -0.1541 -0.2223
 4210SOL    HW216606   4.565   0.453   3.420 -0.3849 -0.5846 -0.6946
 4210SOL    HW316607   4.598   0.504   3.281 -1.7174  0.9717 -0.4611
 4210SOL    MW416608   4.598   0.514   3.368 -0.2575  0.3022 -0.1484
 4211SOL     OW16609   6.345   1.130   5.016 -0.7185  0.2834 -0.0161
 4211SOL    HW216610   6.334   1.035   5.023  1.8664 -0.0909  0.1611
 4211SOL    HW316611   6.268   1.167   5.059 -1.1362 -1.7468  1.0958
 4211SOL    MW416612   6.334   1.122   5.022  0.0091 -0.2510 -0.9078
 4212SOL     OW16613   5.895   3.314   1.067  0.1347  0.1157 -0.2294
 4212SOL    HW216614   5.909   3.298   0.973  2.4269  2.1584 -0.3339
 4212SOL    HW316615   5.882   3.408   1.074  0.3244  0.0414  1.5352
 4212SOL    MW416616   5.895   3.324   1.055 -0.7510  0.2927 -0.1088
 4213SOL     OW16617   1.838   1.070   2.048  0.3839 -0.3725 -0.0267
 4213SOL    HW216618   1.887   1.101   1.973  2.2745  0.9603  1.6517
 4213SOL    HW316619   1.873   1.120   2.122 -3.4691  0.6426  1.3577
 4213SOL    MW416620   1.849   1.080   2.048 -0.3730 -0.5269 -0.4093
 4214SOL     OW16621   4.354   5.764   4.737 -0.2297 -0.0069 -0.1254
 4214SOL    HW216622   4.287   5.726   4.794  0.2125 -0.5371  0.0417
 4214SOL    HW316623   4.410   5.814   4.796  0.3740 -0.7570 -0.0456
 4214SOL    MW416624   4.352   5.766   4.752 -0.0257 -0.2372 -0.2815
 4215SOL     OW16625   5.449   1.626   0.752 -0.3131 -0.2395 -0.1364
 4215SOL    HW216626   5.459   1.646   0.845 -3.3033 -0.1088  0.2459
 4215SOL    HW316627   5.378   1.682   0.723 -0.3827 -1.3047 -2.1772
 4215SOL    MW416628   5.441   1.636   0.761  0.6047  0.3866  0.2087
 4216SOL     OW16629   1.939   4.318   0.393  0.1035 -0.1154 -0.4327
 4216SOL    HW216630   1.856   4.360   0.369 -0.6429  0.3372  2.5625
 4216SOL    HW316631   1.921   4.224   0.385  1.0132 -0.1073 -4.7443
 4216SOL    MW416632   1.925   4.311   0.389 -0.0520  0.0174 -0.4594
 4217SOL     OW16633   2.932   3.962   4.862  0.0268  0.1690  0.1637
 4217SOL    HW216634   2.959   4.039   4.812 -0.5275 -0.4074 -1.0569
 4217SOL    HW316635   2.838   3.974   4.875 -0.2496 -0.7025 -0.8254
 4217SOL    MW416636   2.923   3.973   4.857  0.5326 -0.0047 -0.1193
 4218SOL     OW16637   3.165   5.885   6.160 -0.2302 -0.1741  0.3916
 4218SOL    HW216638   3.218   5.944   6.214 -0.8172  1.0548 -0.3197
 4218SOL    HW316639   3.077   5.923   6.162 -0.4150 -0.4689 -0.8707
 4218SOL    MW416640   3.160   5.898   6.167 -0.6473 -0.4785  0.7511
 4219SOL     OW16641   5.666   5.560   3.034 -0.2214  0.3270 -0.1148
 4219SOL    HW216642   5.731   5.513   3.086 -0.5013  1.2163  1.0751
 4219SOL    HW316643   5.601   5.494   3.011  0.8114 -0.4584 -0.8770
 4219SOL    MW416644   5.666   5.545   3.038 -0.3399  0.3133 -0.0726
 4220SOL     OW16645   3.757   2.878   1.697 -0.2294  0.0046 -0.5146
 4220SOL    HW216646   3.829   2.817   1.716  0.9765  1.6745  0.5403
 4220SOL    HW316647   3.729   2.910   1.782 -0.4503  1.3194 -1.0460
 4220SOL    MW416648   3.763   2.874   1.710 -0.6678 -0.4497  0.1253
 4221SOL     OW16649   5.096   5.785   5.816 -0.2790 -0.4434  0.2200
 4221SOL    HW216650   5.081   5.850   5.884  0.8873 -1.1676  1.2161
 4221SOL    HW316651   5.044   5.709   5.842 -0.0518 -0.6235  0.1565
 4221SOL    MW416652   5.087   5.784   5.828  0.1410  0.4276 -0.3141
 4222SOL     OW16653   5.500   5.012   6.353  0.3459  0.3371  0.6423
 4222SOL    HW216654   5.531   4.978   6.437  0.4726 -2.0148 -0.2711
 4222SOL    HW316655   5.580   5.022   6.300  0.1107  0.1785  0.2563
 4222SOL    MW416656   5.515   5.009   6.357 -0.1551  0.3884  0.7683
 4223SOL     OW16657   5.122   3.329   4.946  0.0561  0.0312  0.4912
 4223SOL    HW216658   5.196   3.348   5.003  0.6118 -1.9830  0.5019
 4223SOL    HW316659   5.098   3.239   4.967 -0.5781 -0.3106 -1.5227
 4223SOL    MW416660   5.128   3.320   4.956  0.6979 -0.0217  0.1091
 4224SOL     OW16661   0.312   6.369   3.170  0.7612  1.0829  0.3261
 4224SOL    HW216662   0.354   6.434   3.114  0.0833 -0.7154 -2.5009
 4224SOL    HW316663   0.382   6.308   3.194  0.6992  0.7447 -0.3230
 4224SOL    MW416664   0.327   6.369   3.165  0.4993  0.3174  0.1166
 4225SOL     OW16665   4.748   2.425   5.397  0.2744 -0.3092 -0.2005
 4225SOL    HW216666   4.793   2.416   5.481  1.1568 -1.2723 -0.7467
 4225SOL    HW316667   4.817   2.416   5.331 -0.6775 -1.8178 -1.0662
 4225SOL    MW416668   4.763   2.422   5.399 -0.1814 -0.5364  0.2464
 4226SOL     OW16669   4.705   2.453   1.148 -0.2147 -0.0827  0.6139
 4226SOL    HW216670   4.658   2.513   1.091  1.8993  1.6666  0.5620
 4226SOL    HW316671   4.703   2.369   1.102 -2.4738  0.1241  0.2480
 4226SOL    MW416672   4.699   2.450   1.134 -0.2157  0.4822  0.1882
 4227SOL     OW16673   5.160   2.516   1.990 -0.4110 -0.0392 -0.3427
 4227SOL    HW216674   5.123   2.602   2.007 -0.3583  0.0289 -0.5721
 4227SOL    HW316675   5.249   2.520   2.025 -1.8078 -1.4970  4.0994
 4227SOL    MW416676   5.167   2.528   1.997 -0.2039 -0.8850  0.1813
 4228SOL     OW16677   1.783   3.709   1.664 -0.2397  0.6082 -0.4348
 4228SOL    HW216678   1.841   3.721   1.739 -0.0752 -0.2375 -0.4075
 4228SOL    HW316679   1.762   3.797   1.633  0.9894  0.9250 -0.3868
 4228SOL    MW416680   1.788   3.722   1.669 -0.0264  0.5029 -0.0920
 4229SOL     OW16681   5.568   3.776   4.433  0.3156  0.1490  0.2189
 4229SOL    HW216682   5.538   3.778   4.524  0.0195 -1.1711  0.1695
 4229SOL    HW316683   5.542   3.861   4.398  0.6992  0.7964  1.4451
 4229SOL    MW416684   5.560   3.787   4.440 -0.0163  0.5137  0.9087
 4230SOL     OW16685   0.385   3.851   1.934  0.0612 -0.1963  0.9645
 4230SOL    HW216686   0.298   3.848   1.974  0.5157 -1.1071  1.8912
 4230SOL    HW316687   0.392   3.769   1.885 -0.1080  0.4722 -0.2156
 4230SOL    MW416688   0.375   3.840   1.932  0.1863  0.0202 -0.2629
 4231SOL     OW16689   0.580   0.436   2.432 -0.1190  0.2591 -0.4016
 4231SOL    HW216690   0.563   0.388   2.513 -1.1459  0.2243 -0.6256
 4231SOL    HW316691   0.599   0.368   2.368  0.4629  0.2749 -0.2545
 4231SOL    MW416692   0.580   0.421   2.434  0.1759 -0.0095 -0.0742
 4232SOL     OW16693   1.793   5.482   3.174  0.1451 -0.9602  0.1893
 4232SOL    HW216694   1.762   5.564   3.137  1.1766  0.0794  1.5395
 4232SOL    HW316695   1.887   5.495   3.187  0.4403 -2.5699 -0.0874
 4232SOL    MW416696   1.801   5.494   3.171 -0.4432  0.1332  0.5753
 4233SOL     OW16697   1.257   1.622   1.348 -0.1297  0.2097 -0.0387
 4233SOL    HW216698   1.168   1.632   1.383  0.5105  0.4554  1.6055
 4233SOL    HW316699   1.266   1.695   1.286  0.2022  2.6305  2.6489
 4233SOL    MW416700   1.246   1.633   1.344 -0.4194 -0.2871 -0.1299
 4234SOL     OW16701   4.261   0.668   1.559  0.4270 -0.5760  0.2989
 4234SOL    HW216702   4.281   0.724   1.633  0.3371 -1.3218  0.8980
 4234SOL    HW316703   4.213   0.724   1.498 -0.7819 -0.3367  1.4395
 4234SOL    MW416704   4.258   0.683   1.561 -0.1975  0.3627  0.2829
 4235SOL     OW16705   0.478   4.458   2.110 -0.2267  0.7787  0.3428
 4235SOL    HW216706   0.384   4.442   2.119 -0.6759  2.5646 -0.7803
 4235SOL    HW316707   0.517   4.410   2.184 -2.2578  2.2635  2.5238
 4235SOL    MW416708   0.471   4.449   2.121  0.8153  0.2954 -0.0204
 4236SOL     OW16709   6.244   5.807   0.479  0.8500 -0.2527  0.0324
 4236SOL    HW216710   6.306   5.786   0.410  0.1416  0.8336 -0.9992
 4236SOL    HW316711   6.249   5.903   0.488 -0.8695 -0.0874 -0.3220
 4236SOL    MW416712   6.253   5.817   0.471  0.4183 -0.1606 -0.1011
 4237SOL     OW16713   4.690   3.679   4.725  0.3289  0.4288  0.3411
 4237SOL    HW216714   4.616   3.714   4.774 -0.4965 -1.5535  0.5932
 4237SOL    HW316715   4.752   3.651   4.791 -0.3270 -1.2649  0.3019
 4237SOL    MW416716   4.688   3.680   4.740 -0.2520  0.0001  0.1419
 4238SOL     OW16717   3.824  -0.007   3.277 -0.0872 -0.1742 -0.0371
 4238SOL    HW216718   3.780   0.042   3.347 -0.0329 -0.5918  0.2980
 4238SOL    HW316719   3.860  -0.084   3.322 -0.5119 -0.7196 -0.6232
 4238SOL    MW416720   3.823  -0.011   3.292  0.4924  0.7562 -0.1638
 4239SOL     OW16721   5.785   0.615   0.353 -0.5808  0.0526 -0.0142
 4239SOL    HW216722   5.812   0.563   0.277 -2.1951 -0.9915  0.0677
 4239SOL    HW316723   5.761   0.550   0.419  0.2663  0.9475  1.2109
 4239SOL    MW416724   5.785   0.599   0.352  0.0620 -0.0327  0.3563
 4240SOL     OW16725   2.413   3.824   4.577 -0.3507 -0.3005 -0.2218
 4240SOL    HW216726   2.509   3.825   4.578 -0.3545  0.6078  0.2991
 4240SOL    HW316727   2.389   3.752   4.636  0.0076  0.2328  0.5849
 4240SOL    MW416728   2.423   3.814   4.585  0.2464  0.4160 -0.8020
 4241SOL     OW16729   3.879   2.753   4.175 -0.1745  0.0618 -0.6191
 4241SOL    HW216730   3.789   2.758   4.208 -0.5602  0.2634 -1.6448
 4241SOL    HW316731   3.919   2.836   4.201 -0.2451 -0.0732 -0.0654
 4241SOL    MW416732   3.872   2.764   4.182  0.4134 -0.5765  0.4268
 4242SOL     OW16733   5.846   5.310   5.135 -0.0041  0.5365 -0.0440
 4242SOL    HW216734   5.834   5.368   5.210 -0.9118  0.2319  0.0625
 4242SOL    HW316735   5.880   5.367   5.066  2.1486  0.5511  0.9722
 4242SOL    MW416736   5.849   5.325   5.136  0.0648 -0.3572 -0.6628
 4243SOL     OW16737   3.288   3.730   1.669 -0.5003  0.0927 -0.4959
 4243SOL    HW216738   3.217   3.767   1.721 -1.3120 -1.5135 -0.3951
 4243SOL    HW316739   3.323   3.659   1.724 -1.0721 -1.3366 -1.9173
 4243SOL    MW416740   3.284   3.725   1.683 -0.3712  0.2732  0.1581
 4244SOL     OW16741   3.458   1.519   3.410  0.1494 -0.0330  0.4363
 4244SOL    HW216742   3.384   1.541   3.466  0.3003  3.6413 -0.5755
 4244SOL    HW316743   3.422   1.456   3.347 -1.4840 -0.0343  1.3184
 4244SOL    MW416744   3.443   1.513   3.409  0.0178  0.5049 -0.0046
 4245SOL     OW16745   3.518   0.434   2.632 -0.0161 -0.8260  0.1043
 4245SOL    HW216746   3.509   0.401   2.721 -0.5355 -0.5084  0.1762
 4245SOL    HW316747   3.608   0.414   2.607  0.0641 -1.1104  0.6215
 4245SOL    MW416748   3.529   0.427   2.640  0.2464 -0.8325 -0.3712
 4246SOL     OW16749   5.335   1.928   0.375  0.3655  0.1730 -0.0475
 4246SOL    HW216750   5.266   1.937   0.309  1.3289  1.9939 -0.8694
 4246SOL    HW316751   5.290   1.937   0.459 -0.3613  1.8627 -0.5805
 4246SOL    MW416752   5.320   1.930   0.377 -0.2325  0.8537  0.3356
 4247SOL     OW16753   3.527   3.241   0.385 -0.1661 -0.1939  0.1183
 4247SOL    HW216754   3.502   3.194   0.306 -1.2513  0.7570 -0.1233
 4247SOL    HW316755   3.470   3.318   0.387  0.5802  0.3618  1.2594
 4247SOL    MW416756   3.516   3.245   0.375  0.0307 -0.1070  0.3097
 4248SOL     OW16757   2.666   5.739   2.577 -0.0273  0.2720 -0.2343
 4248SOL    HW216758   2.662   5.835   2.582 -0.9673  0.2424 -0.2662
 4248SOL    HW316759   2.744   5.721   2.524  0.9367  0.9828  0.8771
 4248SOL    MW416760   2.676   5.749   2.571  0.3492 -0.0350  0.2985
 4249SOL     OW16761   6.113   5.362   0.111  0.0968 -0.0725 -0.3290
 4249SOL    HW216762   6.108   5.352   0.207  2.5308 -2.2377 -0.3220
 4249SOL    HW316763   6.033   5.320   0.079  0.3954 -1.5400  0.7195
 4249SOL    MW416764   6.101   5.355   0.120 -0.0092  0.1164 -0.2786
 4250SOL     OW16765   0.095   5.927   5.015 -0.1009  0.6591 -0.1753
 4250SOL    HW216766   0.179   5.973   5.005  0.1184  0.9606  2.4748
 4250SOL    HW316767   0.110   5.865   5.085 -1.6418 -0.5129 -0.8339
 4250SOL    MW416768   0.108   5.925   5.023  0.8314 -0.0906 -0.3104
 4251SOL     OW16769   3.997   1.712   6.243  0.1932 -0.1141  0.2011
 4251SOL    HW216770   3.969   1.665   6.165  1.1036  1.0398 -0.8658
 4251SOL    HW316771   3.991   1.804   6.220  0.4419  0.2625  1.5176
 4251SOL    MW416772   3.993   1.718   6.230 -0.5310 -0.1895 -0.7168
 4252SOL     OW16773   2.290   3.061   3.357 -1.0729  0.2613 -0.1118
 4252SOL    HW216774   2.290   3.143   3.406  2.2576  0.3484 -0.0525
 4252SOL    HW316775   2.309   2.994   3.422 -1.2566 -0.2298 -0.5582
 4252SOL    MW416776   2.293   3.063   3.372  0.3828 -0.4769  0.1908
 4253SOL     OW16777   3.795   0.491   2.961 -0.5735 -0.2137 -0.6859
 4253SOL    HW216778   3.868   0.503   2.901 -0.6355  1.4736 -0.4848
 4253SOL    HW316779   3.750   0.576   2.961 -2.5579 -1.2134 -0.8223
 4253SOL    MW416780   3.798   0.504   2.953  0.5363 -0.0894 -0.9029
 4254SOL     OW16781   4.020   2.904   1.187  0.8170 -0.7072  0.4220
 4254SOL    HW216782   3.956   2.857   1.135 -1.5396  0.3142  2.2178
 4254SOL    HW316783   4.041   2.845   1.260  0.9971 -0.5667  0.4872
 4254SOL    MW416784   4.015   2.890   1.190 -0.1080  0.6819  0.3255
 4255SOL     OW16785   2.374   5.401   0.032 -0.6240  0.0065 -0.5618
 4255SOL    HW216786   2.289   5.379   0.070 -0.8871 -0.9800 -1.6605
 4255SOL    HW316787   2.418   5.317   0.022  0.7095  0.5438  0.4573
 4255SOL    MW416788   2.369   5.387   0.036  0.3105  0.5450 -0.4674
 4256SOL     OW16789   0.756   5.679   1.317  0.2181  0.2953  0.5088
 4256SOL    HW216790   0.844   5.704   1.291 -0.1040 -0.4438 -1.5552
 4256SOL    HW316791   0.700   5.749   1.283 -0.5364 -2.1320 -4.0116
 4256SOL    MW416792   0.760   5.691   1.309 -0.3630  0.3697  0.5285
 4257SOL     OW16793   2.369   5.256   5.489 -0.8323  0.6115 -0.5770
 4257SOL    HW216794   2.352   5.229   5.579  3.1918 -1.1365 -0.1371
 4257SOL    HW316795   2.369   5.352   5.493  0.7939  0.5979  1.7132
 4257SOL    MW416796   2.367   5.265   5.501  0.0028 -0.8590 -0.4821
 4258SOL     OW16797   0.979   0.030   4.917 -0.2960 -0.3633  0.4724
 4258SOL    HW216798   0.915   0.038   4.847  1.7022  0.4046 -1.3857
 4258SOL    HW316799   1.015   0.118   4.928  0.5596 -0.7899  1.3359
 4258SOL    MW416800   0.976   0.043   4.909  0.0552  0.6408 -1.0163
 4259SOL     OW16801   5.108   4.022   0.929  0.2384 -0.0989  0.4500
 4259SOL    HW216802   5.029   3.971   0.947  1.5135 -1.9768  0.9797
 4259SOL    HW316803   5.127   4.006   0.837  1.6244 -2.1780  1.0123
 4259SOL    MW416804   5.100   4.013   0.919 -0.2110 -0.1156  0.1047
 4260SOL     OW16805   4.333   3.132   2.449 -0.0045  0.1020 -0.7866
 4260SOL    HW216806   4.389   3.160   2.377  0.0295  1.0660 -0.4012
 4260SOL    HW316807   4.380   3.160   2.528  0.0933 -1.1738 -0.3664
 4260SOL    MW416808   4.347   3.139   2.450 -0.5076 -0.0056  0.5449
 4261SOL     OW16809   2.883   4.273   2.704  0.1857  0.2776  0.7820
 4261SOL    HW216810   2.892   4.219   2.625  1.5901  1.1666  0.3088
 4261SOL    HW316811   2.788   4.280   2.716 -0.0470 -0.8570 -0.1270
 4261SOL    MW416812   2.872   4.267   2.695 -0.3343 -0.7935  0.0025
 4262SOL     OW16813   0.432   5.710   2.896 -0.0490 -0.2110  0.4228
 4262SOL    HW216814   0.421   5.802   2.919 -0.8249 -0.0518 -0.5186
 4262SOL    HW316815   0.475   5.671   2.972  2.4899  1.3987 -0.0519
 4262SOL    MW416816   0.437   5.717   2.909 -0.0445  0.0086  0.7483
 4263SOL     OW16817   1.256   2.531   3.327 -0.2117 -0.0182  0.1944
 4263SOL    HW216818   1.239   2.445   3.364 -0.1323 -0.6969 -1.2584
 4263SOL    HW316819   1.186   2.587   3.362  1.2038  0.0458  3.2364
 4263SOL    MW416820   1.244   2.527   3.336 -0.0980 -0.2272 -0.1264
 4264SOL     OW16821   0.375   3.055   0.050 -0.0495  0.5872  0.0707
 4264SOL    HW216822   0.333   3.140   0.040 -0.5930  0.6787  2.5494
 4264SOL    HW316823   0.468   3.074   0.056 -0.2357  1.1614  1.5860
 4264SOL    MW416824   0.382   3.069   0.049 -0.0297 -0.3131  0.2555
 4265SOL     OW16825   4.069   5.894   5.447  0.5179  0.1039  0.2431
 4265SOL    HW216826   4.097   5.808   5.479  1.0694  1.2317  3.1194
 4265SOL    HW316827   4.145   5.927   5.399  0.3315 -0.9497 -0.8201
 4265SOL    MW416828   4.083   5.887   5.445  0.6260  0.4138  0.6215
 4266SOL     OW16829   4.330   3.926   3.695  0.3060 -0.0290  0.0917
 4266SOL    HW216830   4.236   3.939   3.706  0.4237  4.4677 -2.1052
 4266SOL    HW316831   4.368   3.955   3.778 -0.1712  2.3414 -0.4421
 4266SOL    MW416832   4.322   3.931   3.707  0.1152  0.3491 -0.4173
 4267SOL     OW16833   3.924   1.677   1.403  0.0592 -0.0588 -0.0125
 4267SOL    HW216834   3.879   1.594   1.414  0.0890 -0.0156  0.4384
 4267SOL    HW316835   4.001   1.671   1.459  0.7544 -0.2304 -0.9695
 4267SOL    MW416836   3.928   1.665   1.412  0.3743  0.1105 -0.5185
 4268SOL     OW16837   1.064   3.375   2.245  0.2695 -0.3417  0.0650
 4268SOL    HW216838   1.158   3.388   2.254  0.3504 -0.9083  0.0424
 4268SOL    HW316839   1.027   3.463   2.252  0.6061 -0.3106  2.3180
 4268SOL    MW416840   1.072   3.388   2.247 -0.5252  0.1464  0.0624
 4269SOL     OW16841   3.646   1.789   5.248 -0.0711  0.2442 -0.0838
 4269SOL    HW216842   3.717   1.758   5.193 -0.7828 -1.4888 -0.1121
 4269SOL    HW316843   3.629   1.878   5.219  0.3808 -0.2111 -1.8476
 4269SOL    MW416844   3.653   1.797   5.237  0.1716 -0.0988  0.3184
 4270SOL     OW16845   2.888   6.153   5.863  0.2013 -0.0639 -0.2179
 4270SOL    HW216846   2.962   6.102   5.895  0.5485 -0.7790 -2.0058
 4270SOL    HW316847   2.898   6.239   5.903 -0.2572 -1.2663  2.6944
 4270SOL    MW416848   2.899   6.158   5.872  0.7924  0.8958 -0.2718
 4271SOL     OW16849   4.128   4.926   2.348 -0.0923 -0.4424  0.5400
 4271SOL    HW216850   4.048   4.875   2.334  1.0765 -2.4400  0.7182
 4271SOL    HW316851   4.190   4.889   2.285  0.3459  1.9726 -0.5433
 4271SOL    MW416852   4.125   4.914   2.338  0.1588 -0.2493  0.1671
 4272SOL     OW16853   2.803   6.227   3.448 -0.3247  0.3075 -0.2419
 4272SOL    HW216854   2.785   6.172   3.524  0.8407  0.6093  0.2931
 4272SOL    HW316855   2.809   6.316   3.484 -0.0043  0.4856 -0.7201
 4272SOL    MW416856   2.802   6.232   3.463  0.4013 -0.0767 -0.2513
 4273SOL     OW16857   6.300   6.154   2.132  0.2126  0.0611 -0.0999
 4273SOL    HW216858   6.304   6.137   2.038  0.9754  2.4122 -0.5793
 4273SOL    HW316859   6.226   6.103   2.163 -0.1360 -0.6759 -2.0093
 4273SOL    MW416860   6.291   6.145   2.124  0.0033  0.8537 -0.2337
 4274SOL     OW16861   0.470   3.890   2.183 -0.4151  0.0016 -0.3973
 4274SOL    HW216862   0.464   3.878   2.089 -1.9600  2.7066 -0.7335
 4274SOL    HW316863   0.553   3.936   2.197 -1.1820  1.5471 -0.7373
 4274SOL    MW416864   0.480   3.894   2.173  0.0063 -0.4288  0.2959
 4275SOL     OW16865   0.950   3.615   2.261  0.2094 -0.3528  0.0396
 4275SOL    HW216866   1.015   3.663   2.312  1.4468 -0.4352 -1.4134
 4275SOL    HW316867   0.882   3.592   2.325  0.9064  0.9515  1.3021
 4275SOL    MW416868   0.949   3.618   2.277 -0.1479  1.0515  0.8706
 4276SOL     OW16869   0.800   4.983   6.220  0.3740 -0.3991 -0.1179
 4276SOL    HW216870   0.723   5.033   6.191  0.4410  2.1049  3.4180
 4276SOL    HW316871   0.764   4.912   6.272  0.3586  0.6585  1.3734
 4276SOL    MW416872   0.785   4.980   6.223 -0.2464  0.1944 -0.3238
 4277SOL     OW16873   0.757   0.749   5.663 -0.1231  0.4540  0.0574
 4277SOL    HW216874   0.716   0.778   5.744 -0.1057  2.1182 -0.4894
 4277SOL    HW316875   0.724   0.661   5.649  0.6649 -0.2797  2.3993
 4277SOL    MW416876   0.748   0.742   5.671 -0.3537  0.1228  0.5056
 4278SOL     OW16877   1.042   4.536   2.591  0.0966 -0.2327 -0.4726
 4278SOL    HW216878   1.001   4.519   2.676  0.0661 -1.0303 -0.6347
 4278SOL    HW316879   1.014   4.624   2.567  1.8439  0.9010  1.3323
 4278SOL    MW416880   1.033   4.545   2.599  0.3473  0.3748 -0.2441
 4279SOL     OW16881   1.809   3.984   1.580 -0.2137  0.1658 -0.3551
 4279SOL    HW216882   1.882   3.962   1.523 -0.8751 -1.4684 -0.6610
 4279SOL    HW316883   1.846   4.039   1.648  0.8676  1.0403 -1.6176
 4279SOL    MW416884   1.823   3.988   1.582 -0.4136  0.0985  0.0047
 4280SOL     OW16885   1.181   1.825   0.572  0.3696 -0.2892 -0.4633
 4280SOL    HW216886   1.127   1.884   0.625 -0.5597 -1.5369  0.0171
 4280SOL    HW316887   1.207   1.879   0.497 -0.6458  0.6699 -0.1592
 4280SOL    MW416888   1.177   1.840   0.569  0.3725 -0.1507  0.0364
 4281SOL     OW16889   1.656   5.098   2.893  0.4536  0.1840 -0.9746
 4281SOL    HW216890   1.579   5.103   2.949  2.2811 -0.8207  1.8162
 4281SOL    HW316891   1.700   5.182   2.904  0.3772  0.3205 -1.6516
 4281SOL    MW416892   1.651   5.110   2.902 -0.0690  0.1749 -1.2515
 4282SOL     OW16893   3.366   3.061   0.163 -0.2949  0.6570 -0.1099
 4282SOL    HW216894   3.338   3.049   0.253  0.0631  1.9178  0.1864
 4282SOL    HW316895   3.285   3.078   0.114 -0.6335 -1.2479 -0.2737
 4282SOL    MW416896   3.351   3.062   0.168 -0.1696  0.2370  0.4657
 4283SOL     OW16897   5.081   3.919   4.631 -1.0092 -0.1421  0.0334
 4283SOL    HW216898   5.069   3.835   4.587  0.5649  0.5472 -1.8998
 4283SOL    HW316899   5.176   3.925   4.645 -0.4850  2.7510 -3.2628
 4283SOL    MW416900   5.092   3.909   4.627  0.2231 -0.6442 -0.0731
 4284SOL     OW16901   3.253   0.567   6.078 -0.0686  0.3360  0.4371
 4284SOL    HW216902   3.277   0.625   6.150 -0.2084  1.0435 -0.0763
 4284SOL    HW316903   3.291   0.482   6.101 -0.4634  0.4441  1.5426
 4284SOL    MW416904   3.261   0.563   6.090 -0.5135  0.1876 -0.6712
 4285SOL     OW16905   2.306   0.110   1.561 -0.0340  0.5152  0.2431
 4285SOL    HW216906   2.252   0.099   1.639 -1.4260 -1.0110 -0.8559
 4285SOL    HW316907   2.249   0.155   1.498  0.3858 -0.0239 -0.5423
 4285SOL    MW416908   2.291   0.115   1.563 -0.0711 -0.4383 -0.2648
 4286SOL     OW16909   1.709   0.078   1.466  0.0566 -0.4926 -0.3505
 4286SOL    HW216910   1.653   0.134   1.412 -0.3892  0.5915  1.1905
 4286SOL    HW316911   1.650   0.009   1.497 -0.8803  1.3383  2.3068
 4286SOL    MW416912   1.694   0.076   1.463 -0.6295  0.7009  0.6044
 4287SOL     OW16913   4.938   5.713   4.651 -0.1550 -0.2887  0.2323
 4287SOL    HW216914   5.010   5.668   4.696 -0.1589 -0.2818  0.2455
 4287SOL    HW316915   4.948   5.805   4.676 -0.8619 -0.4629  1.1588
 4287SOL    MW416916   4.949   5.719   4.660 -0.0945  0.0403  0.2734
 4288SOL     OW16917   5.594   6.163   1.887 -0.2760 -0.3199 -0.2974
 4288SOL    HW216918   5.591   6.158   1.982 -3.0961 -0.0212 -0.3061
 4288SOL    HW316919   5.643   6.085   1.861 -0.9530 -1.3411  1.3392
 4288SOL    MW416920   5.600   6.152   1.896 -0.2232  0.4978  0.2723
 4289SOL     OW16921   5.596   1.883   0.078 -0.3895 -0.1435  0.1419
 4289SOL    HW216922   5.607   1.870  -0.016  2.5459 -2.0128  0.6135
 4289SOL    HW316923   5.585   1.978   0.087  0.6817  0.2766 -2.0195
 4289SOL    MW416924   5.596   1.894   0.067  0.5588  0.3062  0.6435
 4290SOL     OW16925   6.365   1.080   2.757 -0.4377 -0.3524  0.0648
 4290SOL    HW216926   6.284   1.114   2.796  0.8828  1.7942  1.1205
 4290SOL    HW316927   6.418   1.054   2.832  0.7176  0.3733 -0.4810
 4290SOL    MW416928   6.361   1.081   2.772  0.1952 -0.4017  0.5529
 4291SOL     OW16929   2.050   6.406   0.403 -0.3156 -0.7048  0.7464
 4291SOL    HW216930   2.035   6.366   0.488 -0.1352 -2.3081  0.0658
 4291SOL    HW316931   2.141   6.385   0.382 -0.2059  0.1081  0.3777
 4291SOL    MW416932   2.060   6.398   0.411  0.6757  0.3157  0.0244
 4292SOL     OW16933   2.396   3.788   2.729  0.4062  0.2680 -0.0728
 4292SOL    HW216934   2.462   3.769   2.795  0.4147  0.0641 -0.1406
 4292SOL    HW316935   2.401   3.883   2.717  3.1999 -0.0518 -2.6805
 4292SOL    MW416936   2.405   3.798   2.736  0.3164 -0.0000 -0.1734
 4293SOL     OW16937   0.531   3.723   5.121  0.2175 -0.2476 -0.0555
 4293SOL    HW216938   0.604   3.754   5.175 -0.4525 -1.3987  1.5939
 4293SOL    HW316939   0.453   3.740   5.174 -0.3426 -2.7473  0.0446
 4293SOL    MW416940   0.530   3.729   5.135  0.2425 -0.6111  0.4338
 4294SOL     OW16941   4.753   3.602   2.596 -0.4060  0.0043  0.1983
 4294SOL    HW216942   4.658   3.616   2.591 -0.0513  2.7368 -0.4399
 4294SOL    HW316943   4.789   3.689   2.613  2.0217 -0.9132  0.0983
 4294SOL    MW416944   4.745   3.615   2.597  0.1085  0.2561  0.6359
 4295SOL     OW16945   0.640   0.324   4.696 -0.5057 -0.1069 -0.4596
 4295SOL    HW216946   0.628   0.233   4.671  0.5853 -0.1850 -0.7632
 4295SOL    HW316947   0.657   0.370   4.614  0.0614  0.1698 -0.1941
 4295SOL    MW416948   0.641   0.318   4.682  0.4363  0.0444 -0.3566
 4296SOL     OW16949   2.575   2.437   4.488  0.2005 -0.7314  0.2796
 4296SOL    HW216950   2.537   2.524   4.500 -1.1518 -1.3053  0.3922
 4296SOL    HW316951   2.605   2.436   4.397  0.0730 -0.2008  0.2291
 4296SOL    MW416952   2.574   2.449   4.477 -0.1102  0.2789 -0.4149
 4297SOL     OW16953   4.878   5.689   3.348  0.1641  0.3264  0.3153
 4297SOL    HW216954   4.868   5.783   3.335 -0.8154  0.1074 -0.7031
 4297SOL    HW316955   4.973   5.675   3.356  0.5332  1.1311 -1.9815
 4297SOL    MW416956   4.890   5.699   3.347 -0.1486  0.1960 -0.4128
 4298SOL     OW16957   4.781   2.737   2.963 -0.0840 -0.6883  0.4760
 4298SOL    HW216958   4.718   2.705   3.027 -1.6779 -1.5026 -1.4255
 4298SOL    HW316959   4.754   2.827   2.946 -0.5724 -0.9536 -0.1488
 4298SOL    MW416960   4.769   2.745   2.969  0.4631 -0.1506 -0.2091
 4299SOL     OW16961   3.240   4.776   0.523  0.3952  0.0646 -0.0238
 4299SOL    HW216962   3.308   4.709   0.529 -0.9375 -1.4518 -1.2185
 4299SOL    HW316963   3.159   4.728   0.508 -0.4886  1.9687 -1.9715
 4299SOL    MW416964   3.238   4.761   0.522 -0.4150  0.3211  0.0729
 4300SOL     OW16965   1.971   5.355   4.991 -0.8959 -0.5500 -0.1787
 4300SOL    HW216966   1.995   5.287   5.055 -0.1081  0.3582  0.5278
 4300SOL    HW316967   1.876   5.359   4.996 -0.8165  0.1238  1.6488
 4300SOL    MW416968   1.962   5.347   5.000  0.0709  0.3990 -0.4625
 4301SOL     OW16969   2.916   2.011   5.354 -0.1504 -0.4320 -0.3404
 4301SOL    HW216970   2.905   1.980   5.444  3.1717 -0.0240  0.3372
 4301SOL    HW316971   2.968   1.943   5.311  0.6025  0.6039 -1.1388
 4301SOL    MW416972   2.921   1.998   5.360 -0.0025  0.0793  0.2613
 4302SOL     OW16973   5.196   6.414   3.508  0.3614 -0.1740 -0.2673
 4302SOL    HW216974   5.183   6.453   3.421  0.7621 -0.4895 -0.4737
 4302SOL    HW316975   5.116   6.434   3.555  1.2431  2.5855  0.2802
 4302SOL    MW416976   5.184   6.422   3.503 -0.1500  0.3916  0.0775
 4303SOL     OW16977   2.945   3.181   4.493  0.1569  0.2777 -0.4798
 4303SOL    HW216978   2.889   3.107   4.466  0.7552  0.1626 -1.4342
 4303SOL    HW316979   2.911   3.256   4.445  0.0483  0.4701 -0.1095
 4303SOL    MW416980   2.933   3.181   4.483  0.0149 -0.0211  0.0862
 4304SOL     OW16981   3.248   3.871   2.495  0.3051  0.0595  0.2866
 4304SOL    HW216982   3.271   3.790   2.450  1.8583  0.6314 -0.0209
 4304SOL    HW316983   3.167   3.900   2.454 -0.7997 -1.7945  1.0439
 4304SOL    MW416984   3.241   3.864   2.484  0.4989  0.1358 -0.4162
 4305SOL     OW16985   1.494   5.769   0.210  0.3188 -0.0485  0.0659
 4305SOL    HW216986   1.407   5.751   0.245  0.4680 -1.1058 -0.0764
 4305SOL    HW316987   1.555   5.729   0.272  0.7256  0.8374  0.2594
 4305SOL    MW416988   1.491   5.761   0.223  0.1967  0.2460  0.0451
 4306SOL     OW16989   5.608   1.344   6.134  0.1829  0.6533  0.4603
 4306SOL    HW216990   5.564   1.418   6.175 -0.4289  0.9713 -0.7246
 4306SOL    HW316991   5.627   1.373   6.045  1.2908 -0.0903  0.4291
 4306SOL    MW416992   5.604   1.357   6.128  0.3654  0.0501 -0.4926
 4307SOL     OW16993   5.963   4.924   2.528 -0.0973 -0.0678  0.5308
 4307SOL    HW216994   6.014   4.940   2.607  1.3068  0.2854 -0.4212
 4307SOL    HW316995   5.947   4.830   2.528  2.8207 -0.6412 -0.4478
 4307SOL    MW416996   5.967   4.914   2.538 -0.9165 -0.3251 -0.2586
 4308SOL     OW16997   0.572   1.974   1.217  0.3310  0.0512  0.6178
 4308SOL    HW216998   0.561   1.880   1.232 -0.5176 -0.0251 -0.3833
 4308SOL    HW316999   0.518   1.992   1.141 -0.6693  1.6343  1.6613
 4308SOL    MW417000   0.564   1.964   1.209 -0.1223 -0.0026  0.4846
 4309SOL     OW17001   5.901   0.323   4.165 -0.2491  0.3126  0.1017
 4309SOL    HW217002   5.835   0.254   4.156 -2.1956  1.8537  1.6415
 4309SOL    HW317003   5.859   0.401   4.128  1.2253  1.0859 -0.0057
 4309SOL    MW417004   5.886   0.324   4.159 -0.1561  0.4430  0.8273
 4310SOL     OW17005   2.566   4.261   3.416  0.1134 -0.0738 -0.0027
 4310SOL    HW217006   2.572   4.254   3.321  0.0969 -0.6309  0.0371
 4310SOL    HW317007   2.503   4.193   3.441  0.3683 -0.1486  0.4367
 4310SOL    MW417008   2.558   4.251   3.407  0.7063 -0.1026  0.0357
 4311SOL     OW17009   2.139   2.240   5.893 -0.0853  0.3652 -0.0635
 4311SOL    HW217010   2.091   2.291   5.828  1.0568  3.5844  1.4154
 4311SOL    HW317011   2.220   2.214   5.849 -0.2555  0.6365 -0.5411
 4311SOL    MW417012   2.143   2.243   5.879  0.5155 -0.3880 -0.2092
 4312SOL     OW17013   4.079   6.337   5.406  0.8064 -0.0067 -0.3587
 4312SOL    HW217014   4.009   6.280   5.437 -0.2074  0.9229 -0.8684
 4312SOL    HW317015   4.150   6.324   5.469  0.1946 -0.9878  0.1521
 4312SOL    MW417016   4.080   6.328   5.418 -0.2678  0.0816  0.4011
 4313SOL     OW17017   3.233   4.543   3.364  0.0356  0.0551  0.4580
 4313SOL    HW217018   3.296   4.471   3.361  1.1645  0.9410  1.5801
 4313SOL    HW317019   3.150   4.504   3.337  1.1857 -1.0005 -1.8451
 4313SOL    MW417020   3.231   4.529   3.360 -0.2153 -0.6996  0.0947
 4314SOL     OW17021   1.929   5.060   4.109 -0.1692  0.4008  0.3116
 4314SOL    HW217022   1.935   5.147   4.149 -0.9215 -0.6490  2.8541
 4314SOL    HW317023   1.835   5.045   4.099 -0.0551 -0.2533  0.1698
 4314SOL    MW417024   1.917   5.070   4.113 -0.3536  1.1421  0.1807
 4315SOL     OW17025   1.151   2.881   0.236 -0.0431  0.6361  0.4731
 4315SOL    HW217026   1.217   2.900   0.169 -0.5666 -0.7687 -0.4921
 4315SOL    HW317027   1.086   2.827   0.191 -0.2321 -0.6571  2.1980
 4315SOL    MW417028   1.152   2.876   0.221 -0.0495 -0.3260  0.1926
 4316SOL     OW17029   2.435   4.484   1.324  0.3675 -0.2470  0.4455
 4316SOL    HW217030   2.522   4.512   1.294 -0.2260  2.0344  0.6915
 4316SOL    HW317031   2.402   4.430   1.252  1.6856 -0.5799  0.0493
 4316SOL    MW417032   2.442   4.481   1.310 -0.2344  0.2906 -0.1635
 4317SOL     OW17033   3.101   5.988   5.881 -0.1361 -0.3793  0.1366
 4317SOL    HW217034   3.185   6.033   5.872  0.8883 -2.0309  0.8143
 4317SOL    HW317035   3.109   5.939   5.962 -0.9331 -2.1918 -0.8133
 4317SOL    MW417036   3.113   5.987   5.890  0.4265 -0.0021 -0.0431
 4318SOL     OW17037   1.684   0.768   5.953  0.0725 -0.0185  0.1984
 4318SOL    HW217038   1.722   0.834   5.895 -0.2292  0.4700  0.5544
 4318SOL    HW317039   1.602   0.743   5.910 -0.7512  1.2172  0.9969
 4318SOL    MW417040   1.678   0.773   5.939  0.6490  0.3233  0.8346
 4319SOL     OW17041   5.027   3.120   3.500 -0.3707  0.3465 -0.4723
 4319SOL    HW217042   4.946   3.167   3.517  0.1715  2.6647 -3.5585
 4319SOL    HW317043   5.013   3.077   3.416  1.0882 -0.5079 -0.3215
 4319SOL    MW417044   5.014   3.120   3.491 -0.1327  0.5409  0.0382
 4320SOL     OW17045   6.099   0.709   6.091 -0.3372  1.0253 -0.4060
 4320SOL    HW217046   6.007   0.729   6.081 -0.1721  1.6958 -0.5992
 4320SOL    HW317047   6.117   0.722   6.184 -0.8665 -0.9934  0.0374
 4320SOL    MW417048   6.089   0.713   6.102  0.0452  0.0363  0.3758
 4321SOL     OW17049   1.769   5.204   5.882  0.3202  0.2475  0.6353
 4321SOL    HW217050   1.839   5.252   5.926  1.5472 -0.6105 -0.3032
 4321SOL    HW317051   1.763   5.121   5.929  1.5824 -0.6390 -0.6920
 4321SOL    MW417052   1.777   5.199   5.894  0.3026  0.4451 -0.3761
 4322SOL     OW17053   5.783   2.380   0.463  0.3674 -0.0836  0.1835
 4322SOL    HW217054   5.754   2.364   0.553  1.5809 -0.0303  0.5984
 4322SOL    HW317055   5.797   2.292   0.426 -2.1407 -0.2123 -0.6889
 4322SOL    MW417056   5.781   2.366   0.470  0.1878  0.8580  0.7453
 4323SOL     OW17057   0.414   2.855   1.193 -0.1210 -0.0409  0.3577
 4323SOL    HW217058   0.368   2.784   1.149 -1.0568 -0.6649  2.2260
 4323SOL    HW317059   0.440   2.818   1.278  2.5749  0.7410 -0.0048
 4323SOL    MW417060   0.412   2.841   1.199  0.0379 -0.1886 -0.0734
 4324SOL     OW17061   0.128   1.569   4.869  0.4582  0.3086  0.3766
 4324SOL    HW217062   0.217   1.603   4.861  0.5102 -0.1463 -1.2257
 4324SOL    HW317063   0.139   1.475   4.882  0.2236  0.4034  1.3453
 4324SOL    MW417064   0.141   1.561   4.870 -0.5188 -0.3453 -0.1835
 4325SOL     OW17065   6.294   5.858   4.111  0.2111 -0.5012 -0.3948
 4325SOL    HW217066   6.365   5.922   4.115  0.0570 -0.2630 -1.2747
 4325SOL    HW317067   6.217   5.909   4.085 -0.4339 -0.6465  1.1051
 4325SOL    MW417068   6.293   5.873   4.108  0.5131  0.1519  0.0735
 4326SOL     OW17069   4.137   5.318   5.835 -0.0773 -0.2997 -0.0541
 4326SOL    HW217070   4.193   5.296   5.909 -0.1926 -0.5032 -0.0274
 4326SOL    HW317071   4.078   5.243   5.826 -0.7651  0.1816  0.3213
 4326SOL    MW417072   4.137   5.306   5.844 -0.1652 -0.3913  0.1388
 4327SOL     OW17073   5.249   0.738   3.538  0.5092  0.5022  1.1838
 4327SOL    HW217074   5.188   0.715   3.608  1.1673 -1.7243  1.0869
 4327SOL    HW317075   5.327   0.685   3.554  0.4431 -0.6029 -1.5527
 4327SOL    MW417076   5.251   0.728   3.549  0.1610 -0.1549 -0.0087
 4328SOL     OW17077   5.456   0.543   3.615 -0.3567  0.3701  0.0066
 4328SOL    HW217078   5.407   0.463   3.635  0.0488 -0.0231 -0.5212
 4328SOL    HW317079   5.465   0.541   3.519  0.9975  0.2476  0.1246
 4328SOL    MW417080   5.450   0.532   3.605 -0.1546 -0.4163  0.7794
 4329SOL     OW17081   3.941   4.002   6.298 -0.2179 -0.3364 -0.6890
 4329SOL    HW217082   3.968   3.916   6.267 -2.0313 -0.8354 -1.0429
 4329SOL    HW317083   3.869   3.983   6.359 -1.4902  0.9601 -1.7232
 4329SOL    MW417084   3.935   3.988   6.302 -0.0875 -0.2927 -0.5238
 4330SOL     OW17085   2.817   4.338   0.038  0.4653  0.0716  0.0028
 4330SOL    HW217086   2.723   4.326   0.049  0.4141  0.2235 -0.2633
 4330SOL    HW317087   2.838   4.412   0.095  0.6375 -0.7114  0.9940
 4330SOL    MW417088   2.807   4.346   0.047  0.0697  0.0134 -0.8399
 4331SOL     OW17089   1.969   6.413   1.197 -0.4304 -0.2333  0.0260
 4331SOL    HW217090   1.984   6.380   1.286 -0.3569  0.4805  0.2872
 4331SOL    HW317091   1.996   6.342   1.140  0.7769 -0.2109  0.5503
 4331SOL    MW417092   1.974   6.399   1.201 -0.4115  0.0240  0.1894
 4332SOL     OW17093   4.887   3.138   2.119 -0.0859  0.3655  0.0326
 4332SOL    HW217094   4.877   3.231   2.101 -0.6879  0.1687 -0.6886
 4332SOL    HW317095   4.897   3.097   2.033 -1.5145 -0.4278  0.2077
 4332SOL    MW417096   4.887   3.145   2.105 -0.1736  0.4223 -0.5567
 4333SOL     OW17097   2.357   5.955   0.832 -0.0503  0.2123  0.1119
 4333SOL    HW217098   2.279   5.899   0.838 -0.4623  0.6079 -1.3037
 4333SOL    HW317099   2.323   6.043   0.818  0.6441  0.4272 -0.2680
 4333SOL    MW417100   2.342   5.959   0.831  0.7320 -0.1688  0.0365
 4334SOL     OW17101   1.083   5.747   4.731 -0.2225  0.1898 -0.3186
 4334SOL    HW217102   1.065   5.660   4.696  0.5462  0.5286 -1.6291
 4334SOL    HW317103   1.053   5.743   4.822 -1.9348 -0.8606 -0.8686
 4334SOL    MW417104   1.077   5.735   4.739 -0.3939 -0.0270  0.2058
 4335SOL     OW17105   5.650   1.883   3.735  0.5901 -0.1413 -0.2259
 4335SOL    HW217106   5.643   1.838   3.819 -2.2628 -0.2453 -0.4054
 4335SOL    HW317107   5.715   1.833   3.686  1.7072 -0.5659  1.5932
 4335SOL    MW417108   5.658   1.870   3.740  0.3367  0.0761  0.3141
 4336SOL     OW17109   2.779   2.753   4.868  0.1807  0.7541  0.5999
 4336SOL    HW217110   2.782   2.679   4.807  1.9208  2.0867 -1.0601
 4336SOL    HW317111   2.868   2.757   4.904 -0.0897  1.6021  1.1934
 4336SOL    MW417112   2.791   2.743   4.864 -0.0313  0.0773  0.2748
 4337SOL     OW17113   0.207   2.407   0.681  0.1531 -0.0258  0.0429
 4337SOL    HW217114   0.118   2.376   0.692  0.5069 -0.8764  0.6085
 4337SOL    HW317115   0.204   2.464   0.604 -0.0833 -3.2319 -2.5245
 4337SOL    MW417116   0.195   2.411   0.672  0.2080  0.0199 -0.1238
 4338SOL     OW17117   5.559   5.443   5.503 -0.0221  0.5343 -0.5085
 4338SOL    HW217118   5.596   5.362   5.468 -0.4431  0.3814 -0.6013
 4338SOL    HW317119   5.566   5.433   5.598 -0.7117  0.0824 -0.4958
 4338SOL    MW417120   5.565   5.431   5.511  0.5036 -0.2578 -0.1368
 4339SOL     OW17121   4.172   4.997   1.087  0.3696 -0.0454 -0.1190
 4339SOL    HW217122   4.081   4.973   1.101 -0.7802  2.7742 -1.9903
 4339SOL    HW317123   4.200   4.942   1.013 -0.3060  0.1234 -0.5104
 4339SOL    MW417124   4.164   4.986   1.079 -0.0283  0.6688 -0.6085
 4340SOL     OW17125   5.869   1.991   5.753  0.1549 -0.5875  0.0480
 4340SOL    HW217126   5.951   1.974   5.799 -0.4748  1.3085  1.9984
 4340SOL    HW317127   5.855   2.085   5.762 -2.5109 -0.9365  0.2997
 4340SOL    MW417128   5.878   2.001   5.760  0.3530 -0.0951 -0.7520
 4341SOL     OW17129   1.915   2.730   1.523  0.6017 -0.3407 -0.5550
 4341SOL    HW217130   1.969   2.763   1.450  0.8967 -0.9467 -0.6146
 4341SOL    HW317131   1.965   2.753   1.601  0.5453 -0.1671 -0.5693
 4341SOL    MW417132   1.929   2.737   1.523 -0.2386 -0.8016 -0.2791
 4342SOL     OW17133   3.908   0.605   1.237 -0.1611  0.0556  0.3930
 4342SOL    HW217134   3.846   0.618   1.309 -0.0492  0.9378  0.3362
 4342SOL    HW317135   3.886   0.674   1.174 -0.5422 -0.9655 -0.6249
 4342SOL    MW417136   3.897   0.616   1.238 -0.2513 -0.0974 -0.0424
 4343SOL     OW17137   3.474   4.396   3.313  0.0245 -0.9767  0.8508
 4343SOL    HW217138   3.500   4.425   3.400  0.0538 -0.4983  0.6854
 4343SOL    HW317139   3.496   4.303   3.311 -0.4519 -1.1121  1.5348
 4343SOL    MW417140   3.480   4.387   3.324  0.0394 -0.0424  0.1366
 4344SOL     OW17141   4.214   2.343   6.332  0.8075 -0.0389  0.4303
 4344SOL    HW217142   4.248   2.370   6.417  2.1879  3.9476 -1.1829
 4344SOL    HW317143   4.124   2.376   6.330  0.6097 -0.5570  0.4703
 4344SOL    MW417144   4.207   2.351   6.343 -0.1727  0.7901 -0.4930
 4345SOL     OW17145   1.659   1.864   6.284 -0.7761 -0.5301  0.0269
 4345SOL    HW217146   1.702   1.949   6.277 -0.4601 -0.5623  1.3226
 4345SOL    HW317147   1.593   1.865   6.215  1.5437 -0.6679 -2.3344
 4345SOL    MW417148   1.656   1.876   6.274  0.0918  0.0888 -0.2501
 4346SOL     OW17149   1.877   2.866   5.039  0.1059 -0.6212 -0.1895
 4346SOL    HW217150   1.838   2.803   4.979 -2.0967  0.4135  0.0627
 4346SOL    HW317151   1.884   2.947   4.988  1.0685 -0.5362  0.0634
 4346SOL    MW417152   1.873   2.869   5.025  0.3297 -0.3731  0.2503
 4347SOL     OW17153   3.570   5.503   1.798 -0.1174 -0.3432  0.0892
 4347SOL    HW217154   3.584   5.597   1.789 -1.8193 -0.0414  0.1397
 4347SOL    HW317155   3.653   5.469   1.832 -0.6420  1.7809  4.1828
 4347SOL    MW417156   3.583   5.511   1.801 -0.0434 -0.9635  0.1657
 4348SOL     OW17157   1.961   0.245   3.555 -0.1428 -0.2750  0.9351
 4348SOL    HW217158   1.936   0.336   3.573  0.3258 -0.0395  0.4369
 4348SOL    HW317159   2.008   0.217   3.633  1.8488  0.7208  0.1879
 4348SOL    MW417160   1.964   0.254   3.567  0.8193  0.0392  0.2594
 4349SOL     OW17161   4.127   3.203   3.224  0.1503  0.5394 -0.2936
 4349SOL    HW217162   4.109   3.109   3.221 -2.2641  0.9439 -0.4231
 4349SOL    HW317163   4.071   3.236   3.294  0.0213  2.0558 -1.0699
 4349SOL    MW417164   4.117   3.195   3.233 -0.0764  0.3947 -0.1787
 4350SOL     OW17165   2.210   6.245   2.504  0.0353  0.2660 -0.5528
 4350SOL    HW217166   2.128   6.260   2.456  0.4412  0.6330 -1.1406
 4350SOL    HW317167   2.216   6.317   2.566 -0.0346  0.2959 -0.5809
 4350SOL    MW417168   2.200   6.256   2.506 -0.3496 -0.6398  0.2425
 4351SOL     OW17169   5.000   2.063   5.992  0.0364 -0.0737  0.3669
 4351SOL    HW217170   4.941   2.139   5.984  0.0652  0.4049  3.3952
 4351SOL    HW317171   5.082   2.094   5.955 -0.7056  0.3538 -1.0186
 4351SOL    MW417172   5.003   2.077   5.986 -0.1499  0.6320 -0.1708
 4352SOL     OW17173   4.001   5.121   2.193  0.1365 -0.0497  0.1147
 4352SOL    HW217174   4.052   5.059   2.245 -1.4675  0.5511  2.5609
 4352SOL    HW317175   4.007   5.088   2.103  1.0032 -2.5659  1.0218
 4352SOL    MW417176   4.008   5.109   2.188  0.9926  0.4227 -0.1529
 4353SOL     OW17177   4.309   1.852   2.449  0.0403 -0.5318  0.6858
 4353SOL    HW217178   4.226   1.808   2.464 -1.3367  1.3036 -1.1630
 4353SOL    HW317179   4.307   1.929   2.506  0.5376 -0.5353  0.7190
 4353SOL    MW417180   4.298   1.856   2.459 -0.3161 -0.6162  0.4351
 4354SOL     OW17181   3.137   1.676   6.283  0.4351 -0.2599  0.0048
 4354SOL    HW217182   3.202   1.717   6.339 -0.0893  0.3984  0.1460
 4354SOL    HW317183   3.084   1.748   6.250  0.0528 -0.7402 -0.4659
 4354SOL    MW417184   3.138   1.691   6.286  0.2609  0.4493  0.2096
 4355SOL     OW17185   2.411   5.002   5.176  0.8364  0.1754  0.0851
 4355SOL    HW217186   2.329   5.034   5.137  1.2129 -0.2469 -1.0751
 4355SOL    HW317187   2.447   4.941   5.112  1.2651 -0.8890  1.2835
 4355SOL    MW417188   2.405   4.998   5.163  0.1972 -0.4754  0.4108
 4356SOL     OW17189   2.373   1.942   4.699  0.1056  0.2244 -0.2280
 4356SOL    HW217190   2.360   2.023   4.749  0.0390 -0.8228  1.5636
 4356SOL    HW317191   2.311   1.880   4.737  0.7924 -0.9299 -0.9339
 4356SOL    MW417192   2.363   1.944   4.711 -0.1909  0.5885 -0.6284
 4357SOL     OW17193   3.871   2.273   4.710 -0.4768  0.2244 -0.6429
 4357SOL    HW217194   3.872   2.258   4.615 -0.3691  1.6672 -0.8966
 4357SOL    HW317195   3.779   2.290   4.730 -0.3121  1.2979 -0.7453
 4357SOL    MW417196   3.859   2.273   4.700 -0.3993  0.1879 -0.7093
 4358SOL     OW17197   2.324   4.361   5.726  0.0171  0.7140  0.0528
 4358SOL    HW217198   2.409   4.321   5.707 -0.3418 -0.5998  1.1209
 4358SOL    HW317199   2.293   4.317   5.804 -1.5488  1.3607 -0.1642
 4358SOL    MW417200   2.331   4.350   5.734 -0.2298  0.6199  0.2393
 4359SOL     OW17201   3.290   2.249   4.829 -0.5347  0.2779 -0.6302
 4359SOL    HW217202   3.260   2.339   4.818  0.5795  1.0206  1.8873
 4359SOL    HW317203   3.252   2.221   4.913  0.4607 -1.0293 -0.5910
 4359SOL    MW417204   3.281   2.257   4.839 -0.1332 -0.0964  1.0362
 4360SOL     OW17205   0.156   6.352   4.634  0.4441  0.2427  1.3090
 4360SOL    HW217206   0.213   6.427   4.612  1.7877 -1.2721 -0.7750
 4360SOL    HW317207   0.216   6.283   4.660 -0.1699 -1.7717 -2.0104
 4360SOL    MW417208   0.171   6.353   4.634 -0.3531  0.2752 -0.3172
 4361SOL     OW17209   5.503   1.406   3.567  0.5698  0.5025 -0.5003
 4361SOL    HW217210   5.554   1.455   3.632 -1.4717  2.3855 -0.1993
 4361SOL    HW317211   5.446   1.471   3.526  0.1268 -1.0484 -2.5792
 4361SOL    MW417212   5.502   1.421   3.570 -0.0150 -0.1727  0.4363
 4362SOL     OW17213   3.664   3.584   1.774 -0.0108 -0.1863  0.5153
 4362SOL    HW217214   3.748   3.621   1.749 -0.6869 -0.5255 -2.8262
 4362SOL    HW317215   3.684   3.495   1.803  0.8471 -0.0569  0.3389
 4362SOL    MW417216   3.677   3.577   1.774 -0.4510 -0.4733 -0.0181
 4363SOL     OW17217   0.421   4.212   0.205  0.3773  0.2457 -0.0897
 4363SOL    HW217218   0.470   4.156   0.145 -0.6367 -1.1533  0.3561
 4363SOL    HW317219   0.472   4.293   0.208  2.3019 -0.9019 -0.1729
 4363SOL    MW417220   0.434   4.215   0.198 -0.0167  0.0804  0.0457
 4364SOL     OW17221   1.380   5.862   1.989 -0.1373 -0.2364 -0.0557
 4364SOL    HW217222   1.319   5.882   2.060  0.3119 -0.8315  0.5134
 4364SOL    HW317223   1.361   5.772   1.966  0.5053 -0.4178  0.1102
 4364SOL    MW417224   1.370   5.853   1.995  0.2593  0.5949 -0.1822
 4365SOL     OW17225   3.738   4.825   5.287  0.5732  0.0058  0.1213
 4365SOL    HW217226   3.657   4.838   5.236  0.5049 -2.4707 -0.5567
 4365SOL    HW317227   3.723   4.873   5.368 -2.2813 -1.5251  0.6612
 4365SOL    MW417228   3.725   4.833   5.291 -0.5231  0.3120  0.4101
 4366SOL     OW17229   4.134   5.987   2.359 -0.4408  0.2366  0.1583
 4366SOL    HW217230   4.097   5.917   2.305  1.2851  0.6499 -1.6740
 4366SOL    HW317231   4.079   6.063   2.341 -1.1329 -0.1424  0.6329
 4366SOL    MW417232   4.122   5.987   2.350 -0.2268  0.3021 -0.3035
 4367SOL     OW17233   3.891   0.451   3.536  0.2472 -0.2522  0.8494
 4367SOL    HW217234   3.970   0.506   3.539  0.2600 -0.1777 -0.4657
 4367SOL    HW317235   3.924   0.362   3.528  0.2206 -0.1358 -0.8741
 4367SOL    MW417236   3.906   0.447   3.536  0.0158 -0.0594 -0.3798
 4368SOL     OW17237   5.721   0.325   2.052 -0.4750 -0.2813  0.2662
 4368SOL    HW217238   5.724   0.312   1.957  0.7421 -1.8715  0.4794
 4368SOL    HW317239   5.717   0.236   2.088 -1.2074  0.3122  1.7057
 4368SOL    MW417240   5.721   0.311   2.044  0.5613 -0.2758  0.1497
 4369SOL     OW17241   4.862   2.750   0.949 -0.3667  0.2975 -0.1035
 4369SOL    HW217242   4.890   2.710   1.031 -0.8802  0.2622  0.0578
 4369SOL    HW317243   4.930   2.815   0.929 -0.2028  0.2545  0.3084
 4369SOL    MW417244   4.875   2.754   0.957 -0.3453 -0.4887 -0.4995
 4370SOL     OW17245   4.232   2.249   4.571 -0.4633 -0.3673 -0.4500
 4370SOL    HW217246   4.198   2.246   4.481 -0.0109 -3.4210 -0.5934
 4370SOL    HW317247   4.170   2.307   4.617 -1.0421  0.8034 -2.5493
 4370SOL    MW417248   4.219   2.257   4.565 -0.2295  1.1776 -0.3438
 4371SOL     OW17249   4.925   0.874   0.398 -0.3951  0.3081 -0.0383
 4371SOL    HW217250   4.971   0.865   0.481  0.3857 -0.8786 -0.5808
 4371SOL    HW317251   4.963   0.952   0.358  1.5912 -0.9170 -0.7023
 4371SOL    MW417252   4.936   0.883   0.404  0.1389 -0.0956 -0.1625
 4372SOL     OW17253   0.531   2.317   6.147  0.3963 -0.2133  0.1701
 4372SOL    HW217254   0.533   2.232   6.193 -1.0107  0.3933  1.4391
 4372SOL    HW317255   0.496   2.296   6.061  0.1458 -0.9392  0.4366
 4372SOL    MW417256   0.527   2.303   6.142  0.1467 -0.3543 -0.0153
 4373SOL     OW17257   0.217   4.696   2.778 -0.1339 -0.2458  0.5136
 4373SOL    HW217258   0.253   4.611   2.805  0.7954  0.6123  2.1313
 4373SOL    HW317259   0.158   4.720   2.851  0.7273  1.1439  0.7787
 4373SOL    MW417260   0.214   4.688   2.791  0.0267  0.2574 -0.4096
 4374SOL     OW17261   5.259   5.184   2.453  0.0524  0.2612  0.1304
 4374SOL    HW217262   5.331   5.215   2.399  0.1245 -0.7336 -0.3855
 4374SOL    HW317263   5.197   5.147   2.390 -0.0983 -0.4545  0.6876
 4374SOL    MW417264   5.260   5.183   2.437 -0.0686 -0.1595  0.0702
 4375SOL     OW17265   3.752   3.770   1.339  0.3881 -0.4448  0.5284
 4375SOL    HW217266   3.740   3.683   1.377 -1.0050 -0.7729 -0.5440
 4375SOL    HW317267   3.711   3.830   1.401 -1.2428 -0.8984 -0.0531
 4375SOL    MW417268   3.745   3.766   1.352  0.4748 -0.8943 -0.3452
 4376SOL     OW17269   4.683   0.185   5.683 -0.3661  0.3409 -0.2902
 4376SOL    HW217270   4.636   0.264   5.707 -1.1076  0.3371 -1.6642
 4376SOL    HW317271   4.688   0.134   5.764 -2.8213  0.2941 -0.1029
 4376SOL    MW417272   4.678   0.189   5.697 -0.1388 -0.0254  0.2114
 4377SOL     OW17273   0.765   1.610   4.504 -0.1267 -0.5749 -0.5546
 4377SOL    HW217274   0.752   1.674   4.574 -1.0037 -1.5231  0.1908
 4377SOL    HW317275   0.683   1.611   4.454 -0.2612 -1.2894 -0.3685
 4377SOL    MW417276   0.752   1.618   4.507 -0.1337  0.0795 -0.3976
 4378SOL     OW17277   3.278   4.635   3.625 -0.0199  0.1425  0.5071
 4378SOL    HW217278   3.247   4.617   3.536 -1.1195 -1.5802  1.1877
 4378SOL    HW317279   3.331   4.559   3.648  0.7515  0.8456  1.1239
 4378SOL    MW417280   3.281   4.623   3.616 -0.1892  0.5938  0.1474
 4379SOL     OW17281   3.239   0.661   2.475  0.2442 -0.0975  0.8687
 4379SOL    HW217282   3.301   0.682   2.545  1.7829 -2.2852  0.2865
 4379SOL    HW317283   3.207   0.573   2.497 -0.6203 -0.0818 -0.2387
 4379SOL    MW417284   3.243   0.652   2.487  0.2522 -0.2866 -0.0491
 4380SOL     OW17285   3.593   3.116  -0.001  0.1874 -0.5315  0.1451
 4380SOL    HW217286   3.620   3.028  -0.028  1.9216 -0.4129  1.3413
 4380SOL    HW317287   3.514   3.101   0.051 -0.2599 -1.2316 -0.6976
 4380SOL    MW417288   3.586   3.102   0.002  0.6446  0.2410  0.4668
 4381SOL     OW17289   0.492   5.690   4.609  0.5760 -0.1262  0.5225
 4381SOL    HW217290   0.402   5.657   4.608  0.6180 -0.2875 -1.3387
 4381SOL    HW317291   0.501   5.732   4.694 -1.6433  0.8912  0.3239
 4381SOL    MW417292   0.481   5.691   4.620 -0.0164  0.3402 -0.3541
 4382SOL     OW17293   2.776   1.030   1.256  0.7408 -0.2011  0.0037
 4382SOL    HW217294   2.853   1.077   1.287  0.6599  0.1320 -0.2993
 4382SOL    HW317295   2.716   1.098   1.226  0.9061 -0.5108 -1.0944
 4382SOL    MW417296   2.778   1.045   1.256 -0.1553 -0.0955 -0.1682
 4383SOL     OW17297   0.180   5.229   6.305 -0.0930  0.4195  0.0761
 4383SOL    HW217298   0.234   5.268   6.374 -0.1598  0.3905  0.1462
 4383SOL    HW317299   0.091   5.260   6.325 -0.0877  0.5507 -0.0973
 4383SOL    MW417300   0.175   5.238   6.317 -0.6920 -0.2309  0.5847
 4384SOL     OW17301   1.494   2.792   1.523 -0.1983 -0.4522  0.0723
 4384SOL    HW217302   1.410   2.804   1.567  0.5046  0.3187  1.2733
 4384SOL    HW317303   1.556   2.842   1.576  0.7521  0.3092 -1.6719
 4384SOL    MW417304   1.491   2.800   1.536  0.5402  0.2920 -0.0403
 4385SOL     OW17305   3.203   4.425   0.609  0.6969 -0.3717 -0.1262
 4385SOL    HW217306   3.246   4.365   0.671  4.4915  0.4928 -1.6207
 4385SOL    HW317307   3.190   4.373   0.530  0.8644 -0.1290 -0.3165
 4385SOL    MW417308   3.207   4.411   0.607  0.4196  0.5456  0.2728
 4386SOL     OW17309   6.100   4.127   5.454  0.8270  0.1474  0.2972
 4386SOL    HW217310   6.171   4.115   5.391  0.0313 -0.0550 -0.5926
 4386SOL    HW317311   6.135   4.093   5.536  2.4051  1.7216  0.3457
 4386SOL    MW417312   6.114   4.121   5.456  0.2794 -0.0888 -0.2650
 4387SOL     OW17313   1.161   4.817   3.899  0.3335 -0.0703  0.3269
 4387SOL    HW217314   1.149   4.868   3.979 -1.3201 -1.0776  0.7648
 4387SOL    HW317315   1.075   4.816   3.857  0.8789 -0.5863 -0.8427
 4387SOL    MW417316   1.148   4.824   3.904 -0.3092 -0.4112  0.7936
 4388SOL     OW17317   5.104   0.166   4.937 -0.0556 -0.3018  0.5781
 4388SOL    HW217318   5.153   0.084   4.946  0.0538 -0.2012  0.9117
 4388SOL    HW317319   5.154   0.229   4.988 -0.3466 -0.1159  0.6336
 4388SOL    MW417320   5.117   0.163   4.945  0.5802 -0.2963 -0.6299
 4389SOL     OW17321   6.191   5.599   6.106 -0.0361  0.1844  0.1049
 4389SOL    HW217322   6.284   5.577   6.110 -0.5171 -3.0411 -1.9731
 4389SOL    HW317323   6.172   5.605   6.012 -2.2637 -1.4563  0.3529
 4389SOL    MW417324   6.201   5.597   6.094  0.4224 -0.0804 -0.4045
 4390SOL     OW17325   2.016   5.053   2.181  0.3989  0.2690  0.0083
 4390SOL    HW217326   2.072   5.124   2.149 -0.6694  1.1015 -0.0869
 4390SOL    HW317327   2.000   5.074   2.273  3.1938 -1.9479  1.1449
 4390SOL    MW417328   2.021   5.065   2.189  0.0870  1.4501  0.1080
 4391SOL     OW17329   0.793   3.380   2.885 -0.3289 -0.2085 -0.0237
 4391SOL    HW217330   0.884   3.377   2.914 -0.8957 -1.0228  1.8372
 4391SOL    HW317331   0.742   3.372   2.965 -2.0302 -3.0334 -1.2309
 4391SOL    MW417332   0.798   3.379   2.899  0.2670  0.4342  0.9440
 4392SOL     OW17333   2.351   5.531   5.496 -0.3011  0.6008 -0.2526
 4392SOL    HW217334   2.257   5.551   5.498 -0.6944 -1.0268  2.2045
 4392SOL    HW317335   2.385   5.568   5.577  1.1789  1.0027 -1.0277
 4392SOL    MW417336   2.343   5.538   5.507  0.5678  0.6650 -0.0862
 4393SOL     OW17337   5.135   5.650   4.317  0.0323 -0.2046 -0.3047
 4393SOL    HW217338   5.157   5.588   4.248 -0.5054  0.9251 -1.5520
 4393SOL    HW317339   5.048   5.623   4.347  0.3779 -0.8543  0.1386
 4393SOL    MW417340   5.126   5.638   4.312 -0.3409  0.5475 -0.2233
 4394SOL     OW17341   5.631   3.790   2.157  0.1404 -0.1553  0.0981
 4394SOL    HW217342   5.645   3.699   2.129  0.4884 -0.1999  0.4037
 4394SOL    HW317343   5.694   3.803   2.228 -1.5337 -0.4359  1.7160
 4394SOL    MW417344   5.641   3.779   2.162  0.1000  0.2554 -0.0836
 4395SOL     OW17345   0.550   2.928   6.043 -0.5147 -0.0136  0.2045
 4395SOL    HW217346   0.519   2.926   5.952 -1.4238 -1.4882  0.5040
 4395SOL    HW317347   0.551   2.836   6.069  2.9546  0.0572  0.6625
 4395SOL    MW417348   0.546   2.915   6.035 -0.0934 -0.5641  0.6349
 4396SOL     OW17349   4.303   0.451   3.873 -0.1481 -0.7027  0.0231
 4396SOL    HW217350   4.329   0.383   3.936 -1.5700 -0.8010  0.5657
 4396SOL    HW317351   4.232   0.498   3.918  0.0829  0.4520 -0.7798
 4396SOL    MW417352   4.297   0.448   3.887  1.0293  0.2308  0.3159
 4397SOL     OW17353   3.041   0.733   4.699  0.2257  0.3690 -0.1974
 4397SOL    HW217354   3.098   0.789   4.646 -0.0113  0.5443 -0.2660
 4397SOL    HW317355   3.063   0.755   4.789  0.2799  0.4253 -0.2244
 4397SOL    MW417356   3.052   0.743   4.704 -0.4429 -0.1408  0.0858
 4398SOL     OW17357   0.184   2.885   0.966 -0.2942  0.3437  0.7527
 4398SOL    HW217358   0.242   2.874   0.890 -0.7643  0.5899  0.3490
 4398SOL    HW317359   0.166   2.979   0.969 -2.1135  0.0770 -0.2427
 4398SOL    MW417360   0.189   2.896   0.956 -0.2475 -0.1680 -0.4164
 4399SOL     OW17361   3.869   4.422   4.694 -0.4764 -0.4680  0.4448
 4399SOL    HW217362   3.892   4.472   4.615  0.1867 -0.8963  0.3583
 4399SOL    HW317363   3.914   4.468   4.765 -1.5272  0.2501  0.6725
 4399SOL    MW417364   3.878   4.435   4.693 -0.4709  0.0439 -0.1377
 4400SOL     OW17365   1.476   4.665   5.136  0.1125  0.1997  0.1033
 4400SOL    HW217366   1.414   4.617   5.192 -0.8774 -0.3864 -1.4364
 4400SOL    HW317367   1.437   4.752   5.127 -0.0894  0.0814 -0.2044
 4400SOL    MW417368   1.462   4.670   5.142  0.3483  0.0259  0.4028
 4401SOL     OW17369   3.823   3.434   0.677 -0.0319 -0.0391  0.3975
 4401SOL    HW217370   3.728   3.427   0.686 -0.1335  1.0994  0.2903
 4401SOL    HW317371   3.842   3.527   0.682  0.8441 -0.0278 -1.7441
 4401SOL    MW417372   3.813   3.445   0.679  0.6486  0.1719  0.3293
 4402SOL     OW17373   0.716   4.675   3.558 -0.1176 -0.8400  0.4572
 4402SOL    HW217374   0.629   4.638   3.548 -0.0697 -0.9748  0.5431
 4402SOL    HW317375   0.751   4.680   3.469 -0.0053 -1.2811  0.4776
 4402SOL    MW417376   0.709   4.671   3.545 -0.1141 -0.0711 -0.0319
 4403SOL     OW17377   4.466   5.885   4.983  0.6643 -0.0098 -0.0893
 4403SOL    HW217378   4.487   5.823   5.052 -0.6428 -0.9084 -0.4634
 4403SOL    HW317379   4.538   5.948   4.985 -0.4268  1.3999  3.6848
 4403SOL    MW417380   4.478   5.885   4.993  0.5424 -0.4469  0.8434
 4404SOL     OW17381   3.853   0.011   5.132 -0.0565 -0.3733  0.0336
 4404SOL    HW217382   3.809   0.089   5.164  0.2082 -0.4866  0.6968
 4404SOL    HW317383   3.929   0.044   5.083 -2.4947 -0.0180 -3.9404
 4404SOL    MW417384   3.858   0.026   5.130  0.1906  0.2989  0.0989
 4405SOL     OW17385   3.484   0.698   1.212 -0.0879  0.1710  0.0035
 4405SOL    HW217386   3.393   0.669   1.221  0.0408  0.0527  1.0426
 4405SOL    HW317387   3.501   0.694   1.118 -0.8271 -0.8288 -0.1060
 4405SOL    MW417388   3.474   0.694   1.200  1.0197 -0.0654 -0.0299
 4406SOL     OW17389   2.340   4.446   3.161 -0.1264  0.5264  0.9178
 4406SOL    HW217390   2.432   4.460   3.183  0.3122  1.4150 -1.2378
 4406SOL    HW317391   2.315   4.525   3.113 -1.7222 -0.1412  0.5987
 4406SOL    MW417392   2.349   4.459   3.157 -0.8714 -0.8049 -0.1489
 4407SOL     OW17393   2.898   2.524   5.773 -0.4383  0.7219  0.4956
 4407SOL    HW217394   2.812   2.552   5.805 -1.1268  2.2114 -2.3604
 4407SOL    HW317395   2.883   2.435   5.741 -0.4079  0.2800  1.6327
 4407SOL    MW417396   2.884   2.516   5.773 -0.0861  0.2467  0.3754
 4408SOL     OW17397   4.175   1.229   4.011 -0.4407  0.3073  0.2283
 4408SOL    HW217398   4.164   1.179   3.930 -0.0492 -0.2348  0.5046
 4408SOL    HW317399   4.217   1.310   3.983 -0.2364  0.0918 -0.1043
 4408SOL    MW417400   4.179   1.233   3.996 -0.1920 -0.1454 -0.2161
 4409SOL     OW17401   1.760   2.835   4.154  0.0038 -0.6633 -0.3067
 4409SOL    HW217402   1.788   2.746   4.137 -0.1093 -0.6393 -0.6377
 4409SOL    HW317403   1.676   2.826   4.199 -0.7957 -0.7309 -1.7304
 4409SOL    MW417404   1.753   2.822   4.158 -0.7552 -0.0781  0.2517
 4410SOL     OW17405   0.244   2.012   2.612  0.6109  0.0183  0.4658
 4410SOL    HW217406   0.298   2.069   2.558 -1.0753  0.2248 -1.0917
 4410SOL    HW317407   0.212   2.068   2.683  0.5971  0.4768  0.0970
 4410SOL    MW417408   0.247   2.027   2.615 -0.0057 -0.0113  0.2243
 4411SOL     OW17409   1.141   3.768   5.700  0.5024  0.0296  0.2029
 4411SOL    HW217410   1.131   3.834   5.631 -0.6534 -0.0102  0.3154
 4411SOL    HW317411   1.199   3.703   5.661 -0.0890  0.0355 -0.7288
 4411SOL    MW417412   1.147   3.768   5.686  0.4261 -0.0442 -0.3026
 4412SOL     OW17413   5.891   4.993   2.255  0.5962 -0.2033  0.1954
 4412SOL    HW217414   5.861   4.925   2.194  0.3751 -0.1586  0.2563
 4412SOL    HW317415   5.934   4.944   2.325 -0.4688 -0.3450  0.7599
 4412SOL    MW417416   5.893   4.977   2.256  0.7694  0.0609  0.4476
 4413SOL     OW17417   4.236   5.589   2.871  0.5849  0.1548 -0.0738
 4413SOL    HW217418   4.176   5.663   2.868  0.1883 -0.0268  1.9459
 4413SOL    HW317419   4.320   5.625   2.843  0.1702  1.1156 -0.1059
 4413SOL    MW417420   4.239   5.603   2.867 -0.2611 -0.7679  0.4360
 4414SOL     OW17421   3.629   4.920   2.914 -0.3420 -0.6182 -0.2114
 4414SOL    HW217422   3.723   4.925   2.927 -0.1618 -0.8887 -1.2937
 4414SOL    HW317423   3.614   4.835   2.872 -1.3273 -1.5064  1.8257
 4414SOL    MW417424   3.639   4.910   2.910 -0.2050 -0.3870 -0.1582
 4415SOL     OW17425   5.286   2.873   1.703 -0.0743  0.3336  0.4274
 4415SOL    HW217426   5.219   2.827   1.652  1.3321  0.1430 -1.3979
 4415SOL    HW317427   5.347   2.804   1.728  0.7585  0.8262 -0.1894
 4415SOL    MW417428   5.285   2.858   1.699  0.9278  0.5446 -0.2054
 4416SOL     OW17429   1.489   6.318   0.193 -0.1292 -0.0034 -0.3176
 4416SOL    HW217430   1.503   6.387   0.258 -0.6763  0.1349 -0.3409
 4416SOL    HW317431   1.496   6.236   0.242 -0.1265  0.0901 -0.1634
 4416SOL    MW417432   1.492   6.316   0.208 -0.1765 -0.4946 -0.8857
 4417SOL     OW17433   1.703   1.641   3.252 -0.1614  0.4796 -0.1232
 4417SOL    HW217434   1.799   1.646   3.246 -0.2077  1.8200 -0.0640
 4417SOL    HW317435   1.673   1.656   3.163 -0.3610  2.5861  0.2572
 4417SOL    MW417436   1.712   1.644   3.239  0.2167  0.5786 -0.2680
 4418SOL     OW17437   4.158   2.979   0.552 -0.3377 -0.1339  0.3361
 4418SOL    HW217438   4.164   2.934   0.468  0.9503 -0.6689  0.6885
 4418SOL    HW317439   4.083   3.038   0.542  1.2978  1.7409 -2.1592
 4418SOL    MW417440   4.149   2.981   0.539  0.0373 -0.1348 -0.0059
 4419SOL     OW17441   0.373   5.652   1.265  0.5774 -0.2255 -0.4292
 4419SOL    HW217442   0.282   5.633   1.288  0.0318  0.4090 -1.8919
 4419SOL    HW317443   0.401   5.576   1.214  0.7322 -0.2507 -0.3055
 4419SOL    MW417444   0.365   5.640   1.261 -0.5156  0.1624 -0.4841
 4420SOL     OW17445   5.665   4.380   0.111 -0.1105  0.9731  0.1222
 4420SOL    HW217446   5.608   4.351   0.040  1.4531 -0.8085 -0.4733
 4420SOL    HW317447   5.640   4.325   0.185  0.8404  0.1505 -0.1558
 4420SOL    MW417448   5.654   4.369   0.112  0.0200 -0.1362 -0.6681
 4421SOL     OW17449   0.417   5.887   1.547 -0.5410  0.5648 -0.3820
 4421SOL    HW217450   0.461   5.883   1.463 -1.4045 -0.5225 -0.8006
 4421SOL    HW317451   0.329   5.852   1.531 -0.4357 -0.5010  1.1443
 4421SOL    MW417452   0.411   5.882   1.534 -0.0043  0.5445 -0.3871
 4422SOL     OW17453   0.241   1.080   6.113  0.1565 -0.0347 -0.0345
 4422SOL    HW217454   0.283   1.123   6.187  0.0755 -0.3185  0.1755
 4422SOL    HW317455   0.216   0.993   6.146  2.3280 -1.1385 -1.0576
 4422SOL    MW417456   0.243   1.074   6.127  0.4276  0.0823  0.3855
 4423SOL     OW17457   5.606   0.043   6.017  0.0876 -0.4848 -0.1634
 4423SOL    HW217458   5.688   0.074   5.977  0.3566  0.3445  0.9890
 4423SOL    HW317459   5.571   0.120   6.062 -1.0106 -1.0021 -0.1052
 4423SOL    MW417460   5.612   0.057   6.018 -0.0790  0.4059 -0.1711
 4424SOL     OW17461   5.464   1.418   2.052  0.5345  0.4920  0.2459
 4424SOL    HW217462   5.531   1.414   1.983  0.3829  1.2387  0.0437
 4424SOL    HW317463   5.441   1.511   2.058 -3.0925 -0.0064 -2.2411
 4424SOL    MW417464   5.470   1.430   2.043 -0.2204  0.1968 -0.3777
 4425SOL     OW17465   0.283   4.383   3.616  0.1518 -0.2993  0.0428
 4425SOL    HW217466   0.348   4.341   3.560 -0.8787 -1.7428 -0.1362
 4425SOL    HW317467   0.233   4.440   3.556 -0.2642 -1.0269 -0.3214
 4425SOL    MW417468   0.285   4.385   3.601  0.5491  0.0456  0.1608
 4426SOL     OW17469   6.116   0.690   1.370  0.2397 -0.1074  0.1294
 4426SOL    HW217470   6.044   0.722   1.425  0.3805 -0.3217  0.4399
 4426SOL    HW317471   6.107   0.594   1.373  1.5348 -0.2196  1.5243
 4426SOL    MW417472   6.105   0.681   1.377 -0.6076  0.3256  0.1766
 4427SOL     OW17473   6.062   3.751   1.489  0.0885 -0.3143 -0.0861
 4427SOL    HW217474   6.026   3.790   1.409 -3.2002 -0.5819  1.0839
 4427SOL    HW317475   6.070   3.658   1.468 -1.7157 -0.5530  0.0955
 4427SOL    MW417476   6.058   3.744   1.475 -0.2214  0.2891 -0.0747
 4428SOL     OW17477   4.902   4.018   0.598 -0.3179  0.3312  0.3068
 4428SOL    HW217478   4.897   3.991   0.506 -0.4765 -0.2291  0.4769
 4428SOL    HW317479   4.817   4.056   0.617 -0.6251 -0.4076  0.4760
 4428SOL    MW417480   4.890   4.019   0.588 -0.5860 -0.5968  0.6510
 4429SOL     OW17481   1.731   1.973   4.869 -0.1609 -0.1533  0.7167
 4429SOL    HW217482   1.819   1.991   4.837 -0.8950  1.5881 -0.5408
 4429SOL    HW317483   1.719   2.033   4.943 -0.3790 -0.1548  0.6840
 4429SOL    MW417484   1.741   1.984   4.874  0.1475 -0.1140 -0.1164
 4430SOL     OW17485   1.520   0.775   6.311  0.1118  0.2019 -0.4858
 4430SOL    HW217486   1.424   0.769   6.309  0.1111  0.2519 -0.6248
 4430SOL    HW317487   1.538   0.868   6.295  0.1040  0.7443  2.1556
 4430SOL    MW417488   1.510   0.787   6.309  0.0586 -0.4074 -0.3514
 4431SOL     OW17489   5.090   4.635   5.997  0.2089  0.0447  0.2990
 4431SOL    HW217490   5.030   4.704   5.972  0.6765  1.1259  1.9944
 4431SOL    HW317491   5.037   4.575   6.051  0.0771 -0.3145 -0.2255
 4431SOL    MW417492   5.075   4.636   6.001 -0.1055 -0.1620  0.1494
 4432SOL     OW17493   1.392   2.306   0.590  0.1432 -0.3320 -0.3236
 4432SOL    HW217494   1.456   2.241   0.621 -0.1428 -0.9787 -1.0414
 4432SOL    HW317495   1.314   2.289   0.642  0.8800  1.2378  1.3931
 4432SOL    MW417496   1.390   2.295   0.601  0.1070 -0.3509 -0.5432
 4433SOL     OW17497   4.685   3.795   4.457 -0.0950 -0.4121  0.3824
 4433SOL    HW217498   4.642   3.739   4.391  0.4807 -0.9491  0.4561
 4433SOL    HW317499   4.655   3.760   4.541 -2.0140  1.1914  0.4442
 4433SOL    MW417500   4.675   3.783   4.459  0.0590 -0.0592 -0.1458
 4434SOL     OW17501   4.857   4.175   4.779 -0.2697 -0.1982  0.0147
 4434SOL    HW217502   4.843   4.092   4.825 -0.3828  0.1344  0.5973
 4434SOL    HW317503   4.949   4.195   4.795 -0.0489 -0.5714 -0.7462
 4434SOL    MW417504   4.867   4.166   4.787  0.2439  0.4592 -0.2251
 4435SOL     OW17505   0.354   5.252   2.912  0.3015  0.4941 -0.6311
 4435SOL    HW217506   0.305   5.192   2.855 -0.1526  0.1897  0.0615
 4435SOL    HW317507   0.394   5.314   2.851  2.5051 -1.6814 -1.5653
 4435SOL    MW417508   0.353   5.252   2.896 -0.5832  0.5371 -0.2396
 4436SOL     OW17509   0.073   1.580   4.407 -0.5053  0.0240  0.4823
 4436SOL    HW217510   0.008   1.517   4.374 -1.8589  2.0935 -1.0552
 4436SOL    HW317511   0.025   1.633   4.470 -0.1009  1.0569 -0.0616
 4436SOL    MW417512   0.058   1.578   4.411 -0.4531  0.0787 -0.7931
 4437SOL     OW17513   5.264   1.083   5.463 -0.9788  0.2746 -0.6385
 4437SOL    HW217514   5.283   1.126   5.546 -1.4663  2.4144 -1.5725
 4437SOL    HW317515   5.334   1.111   5.404  0.0089 -2.1271 -0.7105
 4437SOL    MW417516   5.276   1.092   5.466 -0.3511  0.1970  0.4310
 4438SOL     OW17517   3.814   0.668   5.699  0.0185 -0.1785  0.1916
 4438SOL    HW217518   3.903   0.701   5.714 -0.1160  0.1281  0.3335
 4438SOL    HW317519   3.797   0.687   5.607  0.3426 -0.8301 -0.0013
 4438SOL    MW417520   3.823   0.675   5.689 -0.7618  0.3409  0.0170
 4439SOL     OW17521   5.837   0.029   2.868 -0.4375  0.0028  0.2578
 4439SOL    HW217522   5.763   0.034   2.808 -1.6776 -0.7805  1.6364
 4439SOL    HW317523   5.835  -0.061   2.902 -0.0463  0.5184  1.7486
 4439SOL    MW417524   5.827   0.018   2.865  0.4588 -0.1786  0.1552
 4440SOL     OW17525   2.657   0.506   2.245  0.3724 -0.1150  0.5150
 4440SOL    HW217526   2.632   0.414   2.246  2.6237 -0.7879  0.1961
 4440SOL    HW317527   2.629   0.539   2.331 -2.2848 -0.4890 -0.1097
 4440SOL    MW417528   2.650   0.499   2.257 -0.4603  0.7602 -0.3006
 4441SOL     OW17529   4.739   4.919   5.007  0.5403 -0.5380 -0.6229
 4441SOL    HW217530   4.678   4.979   4.966  2.0733 -0.6251 -3.2709
 4441SOL    HW317531   4.799   4.975   5.056  0.5972 -0.0973 -1.1894
 4441SOL    MW417532   4.739   4.934   5.008 -0.1564  0.3449 -0.7041
 4442SOL     OW17533   4.944   4.031   5.434 -0.1711  0.4598  0.1985
 4442SOL    HW217534   4.956   4.054   5.526  0.1725 -1.2458  0.6102
 4442SOL    HW317535   4.849   4.029   5.421 -0.2170  0.9580  0.4278
 4442SOL    MW417536   4.933   4.034   5.444  0.3697  0.0702  0.2913
 4443SOL     OW17537   2.687   4.223   2.320  0.4879  0.1883 -0.8318
 4443SOL    HW217538   2.740   4.195   2.394  0.9749  0.3391 -1.1167
 4443SOL    HW317539   2.617   4.159   2.315  0.0697  0.5438  0.1569
 4443SOL    MW417540   2.685   4.211   2.329  0.8510  0.0208  0.6199
 4444SOL     OW17541   2.906   1.513   3.942 -0.2995 -0.1018 -0.9112
 4444SOL    HW217542   2.825   1.470   3.919  0.0190 -1.4776  0.3723
 4444SOL    HW317543   2.974   1.464   3.896 -0.2113  1.5421 -2.6367
 4444SOL    MW417544   2.905   1.501   3.933  0.1441 -0.1484 -0.1277
 4445SOL     OW17545   4.740   2.417   3.351 -0.3158  0.1216  0.3013
 4445SOL    HW217546   4.775   2.349   3.293 -0.9577 -0.4443  0.5583
 4445SOL    HW317547   4.712   2.370   3.429 -0.3779  0.7450  0.6619
 4445SOL    MW417548   4.741   2.402   3.354 -0.1975  0.0854  0.7828
 4446SOL     OW17549   5.800   0.912   0.990 -0.6246  0.2566 -0.6383
 4446SOL    HW217550   5.784   0.903   0.896 -0.3159  2.4241 -0.9658
 4446SOL    HW317551   5.720   0.952   1.024 -1.5575 -2.3655  0.4534
 4446SOL    MW417552   5.787   0.916   0.982 -0.0554 -0.7557 -0.2367
 4447SOL     OW17553   1.039   5.039   1.577  0.4573 -0.3772  0.0628
 4447SOL    HW217554   1.064   4.987   1.501  0.0651 -0.1615 -0.2182
 4447SOL    HW317555   1.111   5.027   1.639  0.8327 -0.4700 -0.3855
 4447SOL    MW417556   1.052   5.031   1.575  0.3791  0.1830 -0.4981
 4448SOL     OW17557   2.090   1.936   2.905 -0.0789 -0.5686 -0.7358
 4448SOL    HW217558   2.112   1.883   2.828  2.1987 -1.4998  0.4352
 4448SOL    HW317559   2.167   1.991   2.918 -0.9028  0.3886  0.2408
 4448SOL    MW417560   2.103   1.936   2.896 -0.0638 -0.4086  0.4182
 4449SOL     OW17561   1.549   4.826   3.539  0.3472  0.1372  0.1724
 4449SOL    HW217562   1.508   4.838   3.454  1.3619  2.1467 -0.0768
 4449SOL    HW317563   1.520   4.901   3.591  2.6539  0.9595  0.3769
 4449SOL    MW417564   1.540   4.837   3.535  0.0018 -0.1621  0.1801
 4450SOL     OW17565   3.080   4.244   5.253 -0.3015 -0.0852  0.6875
 4450SOL    HW217566   3.021   4.181   5.212 -0.3616 -0.2152  0.9685
 4450SOL    HW317567   3.040   4.264   5.338 -0.0292 -0.0491  0.8112
 4450SOL    MW417568   3.067   4.238   5.259 -0.0958  0.3577 -0.1002
 4451SOL     OW17569   4.910   1.550   5.831  0.2450 -0.2324  0.3398
 4451SOL    HW217570   4.824   1.567   5.794  1.0550  0.8429 -1.1811
 4451SOL    HW317571   4.941   1.636   5.859  0.6949 -0.6609  1.1942
 4451SOL    MW417572   4.903   1.564   5.830  0.3780 -0.3655 -0.6460
 4452SOL     OW17573   5.538   4.038   2.659 -0.0182  0.6195 -0.1117
 4452SOL    HW217574   5.446   4.064   2.653 -0.4730 -0.7524  0.4447
 4452SOL    HW317575   5.585   4.118   2.683 -1.1789  1.1504  0.4203
 4452SOL    MW417576   5.532   4.052   2.661 -0.3293 -0.2905 -0.0722
 4453SOL     OW17577   4.359   4.183   2.054  0.3981 -0.0028 -0.1005
 4453SOL    HW217578   4.373   4.102   2.006 -1.1065  0.6888 -1.8266
 4453SOL    HW317579   4.285   4.225   2.010  0.5082  1.8576  1.3373
 4453SOL    MW417580   4.351   4.178   2.042 -0.3938 -0.5873 -0.0201
 4454SOL     OW17581   5.953   6.302   5.983 -0.2924 -0.3015  0.1428
 4454SOL    HW217582   5.925   6.215   6.012 -1.5910  0.4812  1.3251
 4454SOL    HW317583   6.048   6.301   5.995 -0.3253 -1.4404  0.4666
 4454SOL    MW417584   5.962   6.290   5.989 -0.2160  0.3897  0.6098
 4455SOL     OW17585   1.614   5.916   6.176 -0.0499  0.0722  0.6967
 4455SOL    HW217586   1.700   5.880   6.196 -0.4984 -0.9114  0.9112
 4455SOL    HW317587   1.617   6.005   6.210  1.3059  0.4795 -0.4220
 4455SOL    MW417588   1.626   5.923   6.183  0.7248  1.0274  0.3653
 4456SOL     OW17589   0.035   4.095   4.278  0.6544  0.2622  0.0634
 4456SOL    HW217590   0.069   4.107   4.190  1.2641  0.2828  0.3001
 4456SOL    HW317591   0.000   4.006   4.278  2.2809 -0.4130  0.3196
 4456SOL    MW417592   0.035   4.085   4.267  0.8992 -0.1794 -0.6643
 4457SOL     OW17593   1.482   6.350   1.532  0.1036 -0.3418 -0.6170
 4457SOL    HW217594   1.471   6.256   1.519  1.9153 -0.6799  0.0452
 4457SOL    HW317595   1.453   6.389   1.449 -2.1759 -1.3148 -0.3546
 4457SOL    MW417596   1.476   6.343   1.519  0.6816 -0.3537 -0.0939
 4458SOL     OW17597   3.540   3.413   0.752 -0.5870 -0.0484  0.6324
 4458SOL    HW217598   3.516   3.320   0.754 -0.9496  0.0482  0.9741
 4458SOL    HW317599   3.547   3.438   0.844 -0.8562  0.3542  0.5448
 4458SOL    MW417600   3.538   3.404   0.764  0.4009  0.1980 -0.1793
 4459SOL     OW17601   2.179   4.140   1.562  0.1039 -0.4975  0.1587
 4459SOL    HW217602   2.228   4.058   1.567  1.7719  0.5030  1.4197
 4459SOL    HW317603   2.189   4.167   1.470 -1.4049 -2.1805 -0.5594
 4459SOL    MW417604   2.187   4.133   1.550 -0.2604 -0.7171  0.2800
 4460SOL     OW17605   2.931   1.110   2.190 -0.8098 -0.6821  0.1197
 4460SOL    HW217606   2.927   1.133   2.097  0.5455  0.7589  0.3553
 4460SOL    HW317607   3.008   1.052   2.197  0.9004  1.5057  0.6756
 4460SOL    MW417608   2.941   1.105   2.179  0.0537  0.1807 -0.3986
 4461SOL     OW17609   2.660   5.004   0.132 -0.9478 -0.5720  0.4523
 4461SOL    HW217610   2.730   5.070   0.125 -2.5012  1.0203 -1.4378
 4461SOL    HW317611   2.625   5.015   0.220 -1.1527  1.1786  0.1920
 4461SOL    MW417612   2.665   5.014   0.142  0.8186 -0.0809  0.1906
 4462SOL     OW17613   1.000   6.114   4.378  0.0896 -0.0391  0.1395
 4462SOL    HW217614   1.053   6.051   4.329  1.3743  1.6364 -0.7403
 4462SOL    HW317615   0.922   6.128   4.325  0.2818 -0.1254 -0.1653
 4462SOL    MW417616   0.997   6.107   4.365 -0.4969  0.3375  0.4919
 4463SOL     OW17617   3.354   3.479   0.326 -0.4111  0.2341 -0.0391
 4463SOL    HW217618   3.424   3.517   0.272 -1.3728  2.3403  0.1042
 4463SOL    HW317619   3.286   3.456   0.264  0.3993 -1.9653 -0.1956
 4463SOL    MW417620   3.354   3.481   0.311  0.4779 -0.0080 -0.2674
 4464SOL     OW17621   5.339   4.785   0.903 -0.4845  0.5541  0.1302
 4464SOL    HW217622   5.274   4.849   0.873 -1.1532 -0.2793 -0.2164
 4464SOL    HW317623   5.341   4.718   0.835 -1.1075 -0.7321  1.3197
 4464SOL    MW417624   5.331   4.785   0.890 -0.0892 -0.0377  0.1811
 4465SOL     OW17625   6.070   5.725   3.863  0.1308  0.0551  0.1839
 4465SOL    HW217626   6.072   5.810   3.905  0.3195  0.7228 -1.1238
 4465SOL    HW317627   5.983   5.719   3.824  0.0142 -0.4832  0.5126
 4465SOL    MW417628   6.059   5.735   3.863 -0.5272 -0.1946 -0.2458
 4466SOL     OW17629   4.262   2.662   4.096  0.0486  0.3817 -0.2093
 4466SOL    HW217630   4.267   2.666   4.191 -1.2671  3.0031 -0.1354
 4466SOL    HW317631   4.185   2.607   4.078  0.1713  0.0591  0.2544
 4466SOL    MW417632   4.252   2.655   4.106  0.2654 -0.2147  0.0574
 4467SOL     OW17633   0.330   0.110   4.541 -0.6540  0.3394 -0.3060
 4467SOL    HW217634   0.338   0.169   4.466 -0.8422 -1.3615 -1.7213
 4467SOL    HW317635   0.420   0.097   4.571 -0.4308 -0.0630 -1.1317
 4467SOL    MW417636   0.343   0.116   4.535 -0.1338 -0.8743  0.0689
 4468SOL     OW17637   2.909   5.552   1.475 -0.0644  0.2237 -0.5252
 4468SOL    HW217638   2.961   5.626   1.504  2.0288 -1.1063 -0.6426
 4468SOL    HW317639   2.886   5.573   1.385 -0.9115  1.4405 -0.0360
 4468SOL    MW417640   2.913   5.564   1.467  0.0386 -0.3972  0.2300
 4469SOL     OW17641   1.842   3.482   4.581  0.3904  0.7282  0.4818
 4469SOL    HW217642   1.815   3.514   4.495 -0.1225  2.1857  1.1395
 4469SOL    HW317643   1.769   3.427   4.610  1.1031 -0.7750 -0.5026
 4469SOL    MW417644   1.829   3.479   4.574 -0.0281 -0.5414  0.0637
 4470SOL     OW17645   0.225   4.511   1.903  0.2377  0.2892  0.7584
 4470SOL    HW217646   0.262   4.597   1.921  1.9025 -0.0997 -0.5800
 4470SOL    HW317647   0.256   4.488   1.816 -1.2497 -1.1323  0.5336
 4470SOL    MW417648   0.234   4.519   1.894 -0.3572 -0.0663 -0.0530
 4471SOL     OW17649   1.130   2.575   5.653 -0.4605 -0.3867  0.6147
 4471SOL    HW217650   1.201   2.610   5.599 -1.6808  0.8044 -0.2827
 4471SOL    HW317651   1.079   2.521   5.592 -0.7138 -0.6939  1.0922
 4471SOL    MW417652   1.133   2.572   5.638 -0.0842 -0.6464 -0.1332
 4472SOL     OW17653   5.699   2.268   2.855 -0.0282  0.1358  0.3011
 4472SOL    HW217654   5.790   2.287   2.832  0.1507 -3.1723 -2.5153
 4472SOL    HW317655   5.703   2.187   2.906 -1.3714  0.1869  0.5304
 4472SOL    MW417656   5.711   2.260   2.858 -0.1763 -0.5913 -0.0637
 4473SOL     OW17657   4.668   4.783   1.572 -0.3853  0.2739 -0.3855
 4473SOL    HW217658   4.667   4.878   1.584 -1.0663  0.2718 -0.3911
 4473SOL    HW317659   4.746   4.754   1.618  1.4465  1.1335 -2.7367
 4473SOL    MW417660   4.678   4.792   1.579  0.1988  0.0891 -0.1165
 4474SOL     OW17661   0.470   1.548   3.260  0.0669  0.0595  0.0264
 4474SOL    HW217662   0.549   1.576   3.305 -0.4992  0.7336  0.6224
 4474SOL    HW317663   0.406   1.535   3.329 -0.4141 -0.2455 -0.4683
 4474SOL    MW417664   0.472   1.550   3.275  0.4269 -0.6823  0.1030
 4475SOL     OW17665   2.548   3.682   1.642  0.5451  0.6438  0.7947
 4475SOL    HW217666   2.560   3.777   1.631 -0.4640  0.5927 -1.2188
 4475SOL    HW317667   2.603   3.643   1.575  1.7545 -0.2839  2.2817
 4475SOL    MW417668   2.557   3.690   1.631 -0.0310  0.7126  0.6242
 4476SOL     OW17669   2.537   0.162   4.065  0.4198 -0.4097  0.1725
 4476SOL    HW217670   2.591   0.135   4.140  2.2829  1.0914 -0.5197
 4476SOL    HW317671   2.559   0.100   3.996 -0.6814 -1.2982  0.5852
 4476SOL    MW417672   2.547   0.151   4.066 -0.6023 -0.1847 -0.2161
 4477SOL     OW17673   1.293   0.399   3.909  0.2111 -0.4133  0.2223
 4477SOL    HW217674   1.328   0.331   3.967 -2.2125 -0.2954  1.9791
 4477SOL    HW317675   1.225   0.355   3.858 -0.0559  0.2795 -0.0293
 4477SOL    MW417676   1.289   0.384   3.910  0.2013  0.0512  0.3008
 4478SOL     OW17677   5.606   2.039   4.339  0.0052  0.2852  0.1111
 4478SOL    HW217678   5.631   1.948   4.328 -0.0088  0.2053  0.6951
 4478SOL    HW317679   5.681   2.080   4.381 -0.0359  0.5157 -0.0367
 4478SOL    MW417680   5.619   2.033   4.343  0.0349 -0.3729 -0.1166
 4479SOL     OW17681   2.884   4.480   5.105 -0.3059 -0.3117  0.5272
 4479SOL    HW217682   2.950   4.477   5.174  1.3846  2.0969 -0.8517
 4479SOL    HW317683   2.823   4.547   5.133  0.6693  1.0452 -0.4649
 4479SOL    MW417684   2.885   4.488   5.118  0.1876 -0.5752 -0.0349
 4480SOL     OW17685   1.390   5.364   2.666 -0.1917  0.2907 -0.4315
 4480SOL    HW217686   1.313   5.405   2.626 -0.9758 -0.5468  0.1845
 4480SOL    HW317687   1.454   5.360   2.596 -1.5446 -1.2141 -1.6672
 4480SOL    MW417688   1.388   5.369   2.652  0.3551  0.2615  0.5997
 4481SOL     OW17689   1.266   1.367   1.940  0.5777 -0.1832  0.7454
 4481SOL    HW217690   1.222   1.451   1.947 -0.7465 -0.7411 -0.3988
 4481SOL    HW317691   1.246   1.323   2.023 -0.5309 -0.1728  0.5020
 4481SOL    MW417692   1.257   1.372   1.952 -0.1569 -0.1692  0.1098
 4482SOL     OW17693   6.108   5.264   5.417 -0.3062 -0.5361 -0.6281
 4482SOL    HW217694   6.145   5.299   5.498 -1.9459 -3.3501  1.5339
 4482SOL    HW317695   6.153   5.181   5.404 -1.2529 -0.9108 -1.6687
 4482SOL    MW417696   6.119   5.258   5.426  0.4103  0.4879  0.4697
 4483SOL     OW17697   0.760   5.304   3.314 -0.4545 -0.3626 -0.3029
 4483SOL    HW217698   0.679   5.268   3.279  0.3803 -0.9258 -1.7554
 4483SOL    HW317699   0.801   5.349   3.240  0.6396 -0.2276  0.3471
 4483SOL    MW417700   0.755   5.305   3.300 -0.0487  0.2080  0.2401
 4484SOL     OW17701   4.576   4.386   2.477 -0.1705  0.4056 -0.4655
 4484SOL    HW217702   4.648   4.354   2.423 -0.0061  1.4554 -0.8879
 4484SOL    HW317703   4.499   4.339   2.444  0.5213 -1.9583  1.0648
 4484SOL    MW417704   4.575   4.375   2.465  0.2633  0.3595 -0.1414
 4485SOL     OW17705   3.378   2.566   5.966 -0.2561 -0.6734 -0.8142
 4485SOL    HW217706   3.453   2.581   6.023 -0.3849  0.0819 -0.8385
 4485SOL    HW317707   3.404   2.490   5.913 -0.4357 -1.8534  0.7388
 4485SOL    MW417708   3.392   2.558   5.966  0.5156 -0.3891  0.0537
 4486SOL     OW17709   2.226   2.060   3.982  0.6107 -0.7725  1.2043
 4486SOL    HW217710   2.213   2.095   3.894 -1.2684 -0.3526  1.6048
 4486SOL    HW317711   2.248   1.968   3.968  1.5275 -0.4291  0.2728
 4486SOL    MW417712   2.227   2.053   3.968  0.0121  0.3888 -0.1100
 4487SOL     OW17713   1.212   4.274   4.411 -0.0159 -0.0408  0.6377
 4487SOL    HW217714   1.139   4.258   4.471 -0.8343 -0.1919 -0.3773
 4487SOL    HW317715   1.249   4.357   4.441  0.7392 -0.9723  2.4586
 4487SOL    MW417716   1.207   4.283   4.423  0.0042  0.2302 -0.0967
 4488SOL     OW17717   3.602   4.170   3.570 -0.4072 -0.2224  0.9934
 4488SOL    HW217718   3.683   4.210   3.538 -0.9088  1.2969  1.5597
 4488SOL    HW317719   3.631   4.093   3.618  0.7051  0.2438  1.0980
 4488SOL    MW417720   3.617   4.165   3.572  0.5627 -0.4660  0.1969
 4489SOL     OW17721   1.637   3.348   5.329  0.0910  0.0746 -0.4929
 4489SOL    HW217722   1.644   3.442   5.310  0.0346  0.2867  0.5184
 4489SOL    HW317723   1.713   3.310   5.285  1.1961  0.8509  0.6706
 4489SOL    MW417724   1.648   3.356   5.320 -0.0560  0.0203 -0.3855
 4490SOL     OW17725   0.634   0.480   5.676  0.1212  0.0260 -0.2649
 4490SOL    HW217726   0.569   0.475   5.746  0.0099 -1.0974 -0.4299
 4490SOL    HW317727   0.583   0.493   5.596 -0.3627 -4.5140 -0.9522
 4490SOL    MW417728   0.619   0.481   5.675 -0.5789 -0.7188  0.1255
 4491SOL     OW17729   5.447   3.852   2.374 -0.5940  0.1178  0.2228
 4491SOL    HW217730   5.459   3.825   2.283 -2.3723 -0.3992  0.1135
 4491SOL    HW317731   5.378   3.795   2.407 -2.2670  2.4034  0.9378
 4491SOL    MW417732   5.439   3.841   2.366  0.1495  0.1556  0.2087
 4492SOL     OW17733   0.374   5.294   0.108  0.3504  0.3436  0.1708
 4492SOL    HW217734   0.389   5.314   0.200  1.2424  0.5269 -0.0033
 4492SOL    HW317735   0.401   5.203   0.098  1.2680  0.6331 -0.1154
 4492SOL    MW417736   0.379   5.285   0.119  0.0219 -0.0477  0.1455
 4493SOL     OW17737   2.954   3.569   5.162  0.0893  0.1772  0.2209
 4493SOL    HW217738   2.990   3.583   5.074  0.7904 -1.2201  0.2543
 4493SOL    HW317739   2.999   3.632   5.217  0.5910  0.1948 -0.2003
 4493SOL    MW417740   2.964   3.579   5.158  0.1212  0.3189  0.2173
 4494SOL     OW17741   1.313   2.911   5.313  0.0628  0.0959 -0.1824
 4494SOL    HW217742   1.352   2.881   5.231 -0.0156 -0.1287 -0.1389
 4494SOL    HW317743   1.222   2.932   5.290  0.0481  0.0585 -0.1584
 4494SOL    MW417744   1.306   2.910   5.299 -0.3490 -0.6283  0.1810
 4495SOL     OW17745   2.019   4.353   0.123  0.6791 -0.7607 -0.0118
 4495SOL    HW217746   2.013   4.261   0.100 -2.1870 -1.1922  1.8708
 4495SOL    HW317747   1.991   4.357   0.214  1.5768  1.8876  0.2473
 4495SOL    MW417748   2.014   4.341   0.132  0.0308 -0.2907  0.5424
 4496SOL     OW17749   6.376   4.423   2.768 -0.9699  0.2258  0.2293
 4496SOL    HW217750   6.400   4.515   2.758 -0.7559  0.0191 -1.7303
 4496SOL    HW317751   6.396   4.401   2.859  2.8825  1.0535 -0.2678
 4496SOL    MW417752   6.382   4.432   2.778  0.4060  0.3586 -0.1710
 4497SOL     OW17753   0.446   6.042   5.545  0.2843 -0.2685  0.6177
 4497SOL    HW217754   0.535   6.065   5.519 -0.7173  1.7221 -1.3968
 4497SOL    HW317755   0.453   5.954   5.581  2.9039 -0.5576 -0.4126
 4497SOL    MW417756   0.459   6.033   5.546 -0.3895 -0.3236 -0.0573
 4498SOL     OW17757   5.761   1.103   6.014  0.2210  0.0864  0.3419
 4498SOL    HW217758   5.671   1.079   5.992  0.2434  1.6734 -1.7883
 4498SOL    HW317759   5.811   1.021   6.006 -0.6912 -0.4038 -0.5486
 4498SOL    MW417760   5.756   1.089   6.010  0.4326  0.2304 -0.1163
 4499SOL     OW17761   5.063   1.487   5.412 -0.2179  0.2999 -0.1785
 4499SOL    HW217762   5.088   1.405   5.369 -0.9408 -0.4911  0.8535
 4499SOL    HW317763   5.139   1.544   5.401  0.4009 -0.5991 -0.6892
 4499SOL    MW417764   5.076   1.484   5.405  0.4230  0.3865  0.0529
 4500SOL     OW17765   2.942   6.335   4.762  0.0105 -0.0836 -0.8965
 4500SOL    HW217766   2.856   6.320   4.801  0.2035  2.1315  0.5784
 4500SOL    HW317767   2.982   6.248   4.757 -1.2452 -0.8466  1.0101
 4500SOL    MW417768   2.936   6.322   4.767  0.5657 -0.3809  0.2117
 4501SOL     OW17769   3.641   4.030   4.792  0.1454 -0.3202 -0.7336
 4501SOL    HW217770   3.710   3.990   4.845  2.1410  0.7405 -2.3799
 4501SOL    HW317771   3.596   4.089   4.852  0.3518 -1.3749  0.5043
 4501SOL    MW417772   3.644   4.032   4.807 -0.1840  0.1594 -0.3104
 4502SOL     OW17773   5.297   1.332   1.791 -0.1361 -0.4155  0.1278
 4502SOL    HW217774   5.250   1.355   1.872  0.6619 -1.3677  0.8873
 4502SOL    HW317775   5.227   1.318   1.727 -0.7841  0.3680  0.6347
 4502SOL    MW417776   5.281   1.333   1.794  0.4878  0.5092  0.6986
 4503SOL     OW17777   0.482   3.156   4.835 -0.1209  0.3369  0.8463
 4503SOL    HW217778   0.423   3.225   4.865  0.5942  1.0564  0.6200
 4503SOL    HW317779   0.478   3.162   4.739  0.9504  0.9478  0.8284
 4503SOL    MW417780   0.474   3.166   4.826 -0.2857 -0.0985 -0.0957
 4504SOL     OW17781   4.798   0.316   0.032 -0.2949 -0.2339 -0.0173
 4504SOL    HW217782   4.842   0.364  -0.038 -0.9692  0.0630 -0.2473
 4504SOL    HW317783   4.745   0.250  -0.014  2.4869 -2.9696  0.3222
 4504SOL    MW417784   4.797   0.313   0.017  0.5364  0.1554  0.0874
 4505SOL     OW17785   2.544   5.562   3.189 -0.0331  0.2996 -0.0642
 4505SOL    HW217786   2.524   5.549   3.282  1.1755  1.0293  0.3296
 4505SOL    HW317787   2.461   5.588   3.150  0.0713  3.6550  1.5586
 4505SOL    MW417788   2.531   5.564   3.196  0.0155 -0.1127 -0.8024
 4506SOL     OW17789   4.470   4.988   1.950  0.4758 -0.3423 -0.1396
 4506SOL    HW217790   4.436   5.053   2.012  2.8876  0.6762  0.2300
 4506SOL    HW317791   4.444   5.022   1.864 -0.5937 -0.3350  0.1746
 4506SOL    MW417792   4.462   5.001   1.947 -0.0662 -0.1828  0.1769
 4507SOL     OW17793   5.168   3.811   2.653  0.2717 -0.4432 -0.4631
 4507SOL    HW217794   5.197   3.749   2.586  1.9274 -0.2598  0.0293
 4507SOL    HW317795   5.075   3.793   2.665  0.2220 -1.2937 -1.9348
 4507SOL    MW417796   5.160   3.801   2.646  0.3291  0.9167  0.0880
 4508SOL     OW17797   4.171   4.236   4.485 -0.2475  0.4875  0.2863
 4508SOL    HW217798   4.236   4.192   4.431 -0.8428  0.6573 -0.5878
 4508SOL    HW317799   4.087   4.199   4.458 -0.5266  0.2259  1.4356
 4508SOL    MW417800   4.168   4.226   4.474 -0.1552 -0.6963 -0.6828
 4509SOL     OW17801   4.870   0.431   3.249 -0.2780  1.0768  0.0173
 4509SOL    HW217802   4.876   0.464   3.338 -3.6007 -0.5984  1.0398
 4509SOL    HW317803   4.868   0.336   3.258  0.1251  0.8389 -1.9325
 4509SOL    MW417804   4.870   0.423   3.262  0.0272  0.0809 -0.0299
 4510SOL     OW17805   1.133   0.580   0.818  0.2124 -0.2250 -0.1835
 4510SOL    HW217806   1.129   0.542   0.730 -1.1545  0.9451 -0.6925
 4510SOL    HW317807   1.124   0.674   0.802 -0.7706 -0.0544  1.2381
 4510SOL    MW417808   1.131   0.588   0.804 -0.1476  0.1487  0.4439
 4511SOL     OW17809   5.607   1.286   2.287  0.2788  0.2245  0.0938
 4511SOL    HW217810   5.539   1.251   2.343 -0.3376  2.0452  0.5360
 4511SOL    HW317811   5.560   1.329   2.215  0.9975  0.2915 -0.3530
 4511SOL    MW417812   5.592   1.287   2.285  0.0521 -0.3306  0.2167
 4512SOL     OW17813   6.240   0.765   3.408 -0.1112 -0.2213 -0.0720
 4512SOL    HW217814   6.313   0.727   3.359 -0.7605  0.0584 -1.2857
 4512SOL    HW317815   6.249   0.728   3.496  0.9581 -0.8961 -0.4411
 4512SOL    MW417816   6.251   0.755   3.413  0.0564  1.1390  0.8014
 4513SOL     OW17817   0.182   4.553   5.588  0.3728 -0.0095  0.1107
 4513SOL    HW217818   0.119   4.481   5.583  0.0423  0.2878 -0.0604
 4513SOL    HW317819   0.261   4.513   5.624  0.4147 -0.6167 -0.6249
 4513SOL    MW417820   0.184   4.538   5.592  0.1608  0.2558 -0.3066
 4514SOL     OW17821   2.299   2.444   5.342  0.1315  0.1931  0.0370
 4514SOL    HW217822   2.296   2.390   5.263  1.2628  0.0557  0.0669
 4514SOL    HW317823   2.212   2.484   5.347 -0.0329  0.0373 -1.1623
 4514SOL    MW417824   2.287   2.442   5.332  0.3220  0.1137  0.1471
 4515SOL     OW17825   0.499   3.213   3.459  0.2423 -0.3696 -0.2189
 4515SOL    HW217826   0.509   3.163   3.540  0.1985 -0.7401 -0.4375
 4515SOL    HW317827   0.528   3.301   3.481  0.5831 -0.5577  0.1013
 4515SOL    MW417828   0.504   3.218   3.472  1.2033 -0.3494 -0.6626
 4516SOL     OW17829   2.074   4.913   5.045  0.5341 -0.0771  0.3242
 4516SOL    HW217830   2.116   4.904   4.959  0.7635  0.8213  0.3318
 4516SOL    HW317831   1.990   4.955   5.027 -1.8871 -4.5448 -0.0681
 4516SOL    MW417832   2.069   4.917   5.031 -0.1556 -0.1033 -0.0851
 4517SOL     OW17833   4.056   0.366   6.270  0.2974  0.2827  0.4462
 4517SOL    HW217834   4.033   0.459   6.265  0.2922  0.3255  1.1426
 4517SOL    HW317835   4.125   0.355   6.204 -0.6645  0.4756 -0.6158
 4517SOL    MW417836   4.062   0.377   6.261 -0.6101  0.8318  0.0661
 4518SOL     OW17837   4.130   0.831   3.667 -0.0300  0.5503 -0.3515
 4518SOL    HW217838   4.161   0.771   3.600  2.1732 -0.6269  1.6047
 4518SOL    HW317839   4.051   0.790   3.701  0.3584 -0.2399 -0.3822
 4518SOL    MW417840   4.124   0.818   3.662  0.2849 -0.4167 -0.0521
 4519SOL     OW17841   1.736   3.487   2.758 -0.0927 -0.0364  0.3078
 4519SOL    HW217842   1.701   3.403   2.785 -0.8069  0.5864  1.3981
 4519SOL    HW317843   1.680   3.552   2.801  1.2467  0.9910  0.5890
 4519SOL    MW417844   1.724   3.485   2.767  0.4039 -0.7873 -1.0261
 4520SOL     OW17845   0.162   0.273   2.337  0.0553 -0.2859  0.2001
 4520SOL    HW217846   0.239   0.276   2.282 -0.4612  1.8196 -0.4969
 4520SOL    HW317847   0.105   0.343   2.304 -1.4239 -0.6796  1.7276
 4520SOL    MW417848   0.165   0.283   2.325 -0.0047  0.4536 -0.5833
 4521SOL     OW17849   3.953   5.228   5.541 -0.0657  0.0929  0.0718
 4521SOL    HW217850   4.030   5.284   5.528  0.9723 -0.9419  1.3725
 4521SOL    HW317851   3.944   5.180   5.459  0.1561  0.8211 -0.3947
 4521SOL    MW417852   3.962   5.229   5.529  0.3884  0.1729  0.3579
 4522SOL     OW17853   2.537   3.139   1.724 -0.1307  0.5001  0.2955
 4522SOL    HW217854   2.469   3.181   1.672  0.5072  1.9261  0.5351
 4522SOL    HW317855   2.619   3.163   1.680  0.2644 -0.4730  0.4819
 4522SOL    MW417856   2.539   3.148   1.712 -0.3465  0.5378 -0.2354
 4523SOL     OW17857   1.350   3.654   2.859 -0.3566 -0.0871  0.0262
 4523SOL    HW217858   1.345   3.681   2.767  1.6648 -0.6581 -0.2900
 4523SOL    HW317859   1.430   3.695   2.892 -1.0032  0.0354  1.5298
 4523SOL    MW417860   1.360   3.663   2.851 -0.0988 -0.7829  0.1831
 4524SOL     OW17861   3.100   0.588   2.062  0.1370 -0.4626 -0.1733
 4524SOL    HW217862   3.121   0.681   2.052  1.0947 -0.6102  0.2945
 4524SOL    HW317863   3.052   0.566   1.983 -0.1619  0.4477 -0.2600
 4524SOL    MW417864   3.097   0.598   2.050  0.6726  0.4862 -1.0078
 4525SOL     OW17865   0.649   5.271   4.855 -0.6739  0.0323  0.1616
 4525SOL    HW217866   0.659   5.176   4.850  1.4072  0.2416 -0.4679
 4525SOL    HW317867   0.725   5.306   4.808 -0.8148  2.0157  1.2983
 4525SOL    MW417868   0.660   5.263   4.848 -0.0580 -0.3693  0.3364
 4526SOL     OW17869   4.379   0.681   0.683  0.0276 -0.4345 -0.4284
 4526SOL    HW217870   4.338   0.615   0.627  0.4228 -0.1130 -1.0963
 4526SOL    HW317871   4.361   0.650   0.772 -0.8182 -0.8131 -0.7194
 4526SOL    MW417872   4.371   0.668   0.688 -0.5181  0.6902  0.2205
 4527SOL     OW17873   5.472   6.191   2.863 -0.0174 -0.8565 -0.1672
 4527SOL    HW217874   5.544   6.130   2.847  0.2266 -0.8296  0.7605
 4527SOL    HW317875   5.448   6.177   2.955 -0.5461 -0.1792 -0.1910
 4527SOL    MW417876   5.479   6.181   2.873 -0.0458  0.5174  0.1395
 4528SOL     OW17877   0.025   2.802   4.256 -0.6602  0.6173  0.2927
 4528SOL    HW217878  -0.044   2.859   4.290 -0.4066  0.4436  1.1297
 4528SOL    HW317879   0.102   2.824   4.307 -1.0978 -2.0828  2.3883
 4528SOL    MW417880   0.026   2.812   4.267 -0.0955  0.0555  0.3852
 4529SOL     OW17881   0.150   0.794   4.236  0.5614  0.1954  0.3927
 4529SOL    HW217882   0.122   0.730   4.301  0.2878 -2.4304 -2.1037
 4529SOL    HW317883   0.246   0.797   4.245  0.4481  0.6015  1.5207
 4529SOL    MW417884   0.159   0.786   4.246  0.4668  0.1353  0.1041
 4530SOL     OW17885   6.409   6.265   4.027 -0.4334  0.0398 -0.2756
 4530SOL    HW217886   6.338   6.297   4.083 -0.1737 -0.1040  0.1435
 4530SOL    HW317887   6.370   6.257   3.940 -0.9367 -0.0821 -0.0393
 4530SOL    MW417888   6.395   6.268   4.023  0.3104  0.0117 -0.5757
 4531SOL     OW17889   1.462   1.439   1.436 -0.0480  0.1651  0.1827
 4531SOL    HW217890   1.402   1.376   1.477 -0.0556  0.3781  0.5032
 4531SOL    HW317891   1.410   1.517   1.423  0.7022  1.1731  2.5789
 4531SOL    MW417892   1.448   1.441   1.440 -0.0680  0.0334 -0.1507
 4532SOL     OW17893   0.344   1.061   2.078  0.1825  0.4011 -0.7808
 4532SOL    HW217894   0.362   1.062   1.984  0.3988  0.0191 -0.7463
 4532SOL    HW317895   0.424   1.026   2.118 -0.0488  0.1987 -0.4875
 4532SOL    MW417896   0.357   1.056   2.071  0.3611  0.3613 -0.4501
 4533SOL     OW17897   0.924   2.819   3.294  0.1866  0.4050 -0.0915
 4533SOL    HW217898   0.882   2.811   3.208 -0.1327  1.1477 -0.0094
 4533SOL    HW317899   0.900   2.906   3.325 -0.1530 -0.0677  1.0063
 4533SOL    MW417900   0.916   2.830   3.287  0.3182  0.1562 -0.4445
 4534SOL     OW17901   2.308   5.304   1.807  0.0402  0.0173 -0.5713
 4534SOL    HW217902   2.272   5.234   1.753  0.3664 -0.6673  0.0817
 4534SOL    HW317903   2.237   5.368   1.816 -1.0155 -1.2846  0.6670
 4534SOL    MW417904   2.294   5.303   1.801 -0.1909  0.2468  0.9239
 4535SOL     OW17905   5.875   5.410   5.863 -0.3998 -0.2228  0.4905
 4535SOL    HW217906   5.817   5.394   5.788 -1.2982  0.1558  1.0964
 4535SOL    HW317907   5.891   5.504   5.862  3.1080 -0.6263 -1.7542
 4535SOL    MW417908   5.870   5.420   5.853  0.7856 -0.1572  0.0414
 4536SOL     OW17909   2.066   5.572   4.807 -0.4524  0.5365  0.0217
 4536SOL    HW217910   2.086   5.538   4.720  1.6562  0.4936  0.4677
 4536SOL    HW317911   2.062   5.494   4.863  2.2143  0.7515  0.6431
 4536SOL    MW417912   2.068   5.557   4.803 -0.2841 -0.2932  0.0184
 4537SOL     OW17913   1.131   5.897   3.636  0.0268  0.3028  0.2461
 4537SOL    HW217914   1.076   5.946   3.575  1.0156  0.4189 -0.5893
 4537SOL    HW317915   1.070   5.857   3.697 -1.1507 -0.9980 -1.6781
 4537SOL    MW417916   1.116   5.898   3.636  0.2268  0.0586  0.5790
 4538SOL     OW17917   5.976   6.259   0.346  0.2372  0.5208  0.0298
 4538SOL    HW217918   5.904   6.321   0.346  0.0551  0.3334 -1.2419
 4538SOL    HW317919   5.935   6.173   0.356  0.1325  0.3025 -1.8851
 4538SOL    MW417920   5.961   6.256   0.348  0.1095  0.5895  0.0546
 4539SOL     OW17921   0.496   1.357   5.238  0.2999 -0.2889  0.4771
 4539SOL    HW217922   0.521   1.308   5.159  0.4490 -0.6397  0.7424
 4539SOL    HW317923   0.522   1.301   5.311 -0.5895 -0.3386  0.7742
 4539SOL    MW417924   0.503   1.343   5.237 -0.2851  0.2560  0.4880
 4540SOL     OW17925   4.890   5.020   3.702 -0.0064  0.1766 -0.2611
 4540SOL    HW217926   4.926   4.932   3.713  1.3177  0.5334 -1.4277
 4540SOL    HW317927   4.940   5.074   3.763 -0.0531  0.3054 -0.3364
 4540SOL    MW417928   4.901   5.016   3.711  0.0371 -0.6954 -0.1626
 4541SOL     OW17929   5.031   3.847   2.251  0.0265  0.0088 -0.5870
 4541SOL    HW217930   5.083   3.912   2.203 -0.6618  1.3011  0.3434
 4541SOL    HW317931   4.969   3.900   2.302 -0.8516 -1.4180 -0.1411
 4541SOL    MW417932   5.030   3.863   2.251  0.0863 -0.3362  0.1177
 4542SOL     OW17933   5.808   2.328   4.224 -0.0188  0.0316 -0.6669
 4542SOL    HW217934   5.858   2.410   4.229 -0.9432  0.5968 -0.5904
 4542SOL    HW317935   5.867   2.262   4.262  0.3433  0.8448  0.2372
 4542SOL    MW417936   5.823   2.330   4.230  0.6177  0.1141 -0.2320
 4543SOL     OW17937   2.276   2.842   1.154  0.1292  0.0774 -0.2655
 4543SOL    HW217938   2.331   2.895   1.211  0.8333 -0.3098 -0.5699
 4543SOL    HW317939   2.322   2.758   1.148 -1.0014 -0.6009  0.2664
 4543SOL    MW417940   2.289   2.838   1.160  0.3938 -0.0752  0.0918
 4544SOL     OW17941   5.321   0.776   5.449 -0.1765  0.4330 -0.2355
 4544SOL    HW217942   5.411   0.746   5.431  0.1372  0.8656  0.5375
 4544SOL    HW317943   5.325   0.871   5.436 -1.0631  0.2195 -2.2780
 4544SOL    MW417944   5.334   0.785   5.445  0.0084 -0.1515  0.6507
 4545SOL     OW17945   1.171   0.436   0.573 -0.2748  0.4193  0.6301
 4545SOL    HW217946   1.131   0.349   0.564  1.7473 -0.6121  0.9212
 4545SOL    HW317947   1.138   0.486   0.499  0.6234 -1.5175 -1.2140
 4545SOL    MW417948   1.162   0.431   0.562  0.3303  0.3191  0.1041
 4546SOL     OW17949   3.116   5.910   4.512 -0.4464  0.8092 -0.0262
 4546SOL    HW217950   3.180   5.963   4.464 -1.3585  0.1042 -2.1591
 4546SOL    HW317951   3.158   5.824   4.520 -0.1712  1.0075  0.7670
 4546SOL    MW417952   3.130   5.906   4.507 -0.3438 -0.3764  0.1636
 4547SOL     OW17953   4.037   3.281   0.553 -0.2155 -0.6189 -0.0434
 4547SOL    HW217954   4.053   3.323   0.469  0.7404  1.8304  1.2523
 4547SOL    HW317955   3.963   3.328   0.591  1.0704  0.2273  1.5855
 4547SOL    MW417956   4.030   3.293   0.547 -0.0019  0.6467 -0.3157
 4548SOL     OW17957   3.824   4.798   1.145  0.7075 -0.0487 -0.1512
 4548SOL    HW217958   3.832   4.810   1.240  0.5195 -0.8539 -0.0284
 4548SOL    HW317959   3.831   4.887   1.110 -1.2548  0.5231  0.7488
 4548SOL    MW417960   3.826   4.811   1.153  0.5393  0.1584 -0.2517
 4549SOL     OW17961   4.529   2.209   5.722  0.3658 -0.5004  0.3856
 4549SOL    HW217962   4.567   2.213   5.634 -2.7571 -1.5045 -1.1673
 4549SOL    HW317963   4.570   2.132   5.762  1.4677 -0.3352 -0.3733
 4549SOL    MW417964   4.539   2.199   5.716  0.3339 -0.0268 -0.0132
 4550SOL     OW17965   3.986   6.214   4.663 -0.2847  0.4970  0.2343
 4550SOL    HW217966   4.003   6.121   4.655 -0.6309  0.3655  0.9148
 4550SOL    HW317967   3.893   6.219   4.688 -0.7126  1.0914 -1.3058
 4550SOL    MW417968   3.976   6.203   4.665 -0.2878  0.5420 -0.5518
 4551SOL     OW17969   4.904   6.288   5.550  0.2415 -0.7221 -0.1261
 4551SOL    HW217970   4.974   6.234   5.586  0.0180 -3.5145 -3.4241
 4551SOL    HW317971   4.823   6.242   5.572 -0.1897 -0.1899 -0.5636
 4551SOL    MW417972   4.903   6.275   5.557  0.1614  0.0175  0.4251
 4552SOL     OW17973   5.613   1.202   0.528 -0.5180 -0.0097 -0.2725
 4552SOL    HW217974   5.646   1.189   0.617  3.6663 -1.7901 -1.7842
 4552SOL    HW317975   5.624   1.296   0.512  0.8330 -0.0018  0.4634
 4552SOL    MW417976   5.619   1.213   0.537 -0.0505 -0.2863 -0.0216
 4553SOL     OW17977   3.293   3.872   3.138 -0.1852 -0.0075 -0.0997
 4553SOL    HW217978   3.263   3.949   3.186 -0.0212 -0.0384  0.0525
 4553SOL    HW317979   3.376   3.900   3.099  0.9950 -0.7896  1.7439
 4553SOL    MW417980   3.300   3.886   3.139 -0.1949  0.1397  0.1655
 4554SOL     OW17981   2.340   1.670   2.074  0.3706 -0.5318 -0.4015
 4554SOL    HW217982   2.305   1.756   2.050  1.9215  0.2272 -0.0839
 4554SOL    HW317983   2.426   1.667   2.033  0.9011 -1.3602  0.7116
 4554SOL    MW417984   2.347   1.681   2.066 -0.2165 -0.5132  0.2813
 4555SOL     OW17985   2.357   0.068   1.216 -0.4348 -0.0972 -0.8176
 4555SOL    HW217986   2.344  -0.022   1.185  1.4853 -1.3948  1.8023
 4555SOL    HW317987   2.419   0.060   1.288 -0.9796  3.2583  0.1842
 4555SOL    MW417988   2.363   0.055   1.221  0.3001  0.4997  0.8123
 4556SOL     OW17989   4.636  -0.001   3.096  0.1311  0.3672 -0.7257
 4556SOL    HW217990   4.628   0.091   3.070  0.9023  1.3522  2.1584
 4556SOL    HW317991   4.546  -0.027   3.117 -0.1904  0.2082 -2.2060
 4556SOL    MW417992   4.623   0.008   3.096  0.3444 -0.3297 -0.1291
 4557SOL     OW17993   5.338   2.750   5.144 -0.4584 -0.3343  0.0401
 4557SOL    HW217994   5.361   2.842   5.145 -0.6829 -0.2762  0.5686
 4557SOL    HW317995   5.407   2.707   5.094  0.7383 -0.1476  1.4683
 4557SOL    MW417996   5.350   2.756   5.138  0.0490 -0.1054 -0.4349
 4558SOL     OW17997   0.905   5.118   5.651  0.1936  0.4545 -0.6616
 4558SOL    HW217998   0.865   5.160   5.575  0.1455 -0.8278 -1.3696
 4558SOL    HW317999   0.854   5.150   5.725 -0.5093  0.8319 -1.2953
 4558SOL    MW418000   0.893   5.128   5.651 -0.0318  0.0179 -0.0906
 4559SOL     OW18001   3.863   2.630   2.615  0.0858 -0.2443 -0.0693
 4559SOL    HW218002   3.796   2.570   2.581 -0.3581  0.6584 -0.8636
 4559SOL    HW318003   3.813   2.699   2.659  0.3097  1.4608 -2.3067
 4559SOL    MW418004   3.847   2.631   2.616  0.0184 -0.3046 -1.0442
 4560SOL     OW18005   4.962   5.681   1.315 -0.1673 -0.2091 -0.4370
 4560SOL    HW218006   5.034   5.632   1.356 -0.7855 -1.3228 -0.6211
 4560SOL    HW318007   4.883   5.644   1.354 -0.6473  1.3938  0.1892
 4560SOL    MW418008   4.961   5.669   1.326  0.1391  0.3499 -0.0455
 4561SOL     OW18009   0.003   5.807   3.871  0.8856 -0.4568 -0.4053
 4561SOL    HW218010   0.054   5.888   3.870  0.7763 -0.3301  1.1032
 4561SOL    HW318011  -0.049   5.813   3.951  0.2205 -1.6287 -0.7287
 4561SOL    MW418012   0.003   5.818   3.882 -0.0490 -0.0930  0.1361
 4562SOL     OW18013   4.019   0.099   1.040  0.1090  0.4523  0.0949
 4562SOL    HW218014   3.971   0.043   0.979 -0.2974 -0.7580  1.4714
 4562SOL    HW318015   4.064   0.162   0.984 -0.9330 -0.0610 -1.3959
 4562SOL    MW418016   4.018   0.100   1.024 -0.0358  0.0314  0.1406
 4563SOL     OW18017   2.796   4.236   0.650 -0.3073  0.2408 -0.7507
 4563SOL    HW218018   2.871   4.181   0.628 -0.6827 -1.0958  1.0309
 4563SOL    HW318019   2.726   4.206   0.593 -0.2487 -0.5169 -0.4345
 4563SOL    MW418020   2.796   4.225   0.640 -0.1892 -1.0307  0.2743
 4564SOL     OW18021   5.521   3.951   1.751  0.0852  0.1289 -0.0775
 4564SOL    HW218022   5.560   3.935   1.664 -0.7017 -0.8683 -0.2597
 4564SOL    HW318023   5.433   3.982   1.732 -0.4528 -1.0901  0.3627
 4564SOL    MW418024   5.515   3.953   1.737 -0.7823 -0.0313 -0.2259
 4565SOL     OW18025   0.905   1.944   0.985  0.3714  0.0706 -0.2599
 4565SOL    HW218026   0.965   1.871   0.969 -1.6334 -2.1861  1.6796
 4565SOL    HW318027   0.826   1.903   1.019 -0.6364  3.2203  1.6424
 4565SOL    MW418028   0.903   1.929   0.988 -0.4919 -0.2462 -0.6266
 4566SOL     OW18029   2.319   6.183   4.241  0.0627  0.3206 -0.4936
 4566SOL    HW218030   2.387   6.179   4.173  0.0738  0.9803 -0.5263
 4566SOL    HW318031   2.269   6.102   4.229  1.6328 -0.8372  0.3806
 4566SOL    MW418032   2.322   6.172   4.230 -0.0247 -0.3326  0.2313
 4567SOL     OW18033   4.569   5.376   2.833 -0.8219  0.2789 -0.4713
 4567SOL    HW218034   4.617   5.457   2.816 -1.4527  0.7709  0.0375
 4567SOL    HW318035   4.583   5.359   2.926 -0.0907 -0.6085 -0.7292
 4567SOL    MW418036   4.577   5.385   2.843  0.3860  0.0774  0.4094
 4568SOL     OW18037   1.937   5.786   5.799 -0.2915  0.0292 -0.3542
 4568SOL    HW218038   1.847   5.773   5.828  0.0005 -1.2778  0.0511
 4568SOL    HW318039   1.981   5.704   5.821  0.8221  0.3676 -1.2298
 4568SOL    MW418040   1.931   5.774   5.806 -0.3693  0.4404  0.7714
 4569SOL     OW18041   3.580   4.119   0.406 -0.0547  0.2009  0.1082
 4569SOL    HW218042   3.536   4.177   0.345 -2.1941  0.5497  1.8303
 4569SOL    HW318043   3.529   4.038   0.402  0.9805 -0.4612  0.0169
 4569SOL    MW418044   3.567   4.116   0.398 -0.2858  0.3158 -0.3055
 4570SOL     OW18045   0.550   0.332   2.688 -0.3316  0.0350 -0.1625
 4570SOL    HW218046   0.471   0.280   2.703 -1.5090  1.3000 -1.5590
 4570SOL    HW318047   0.549   0.399   2.756 -0.0149 -0.4461  0.3146
 4570SOL    MW418048   0.540   0.334   2.699  0.0929  1.1338  0.3987
 4571SOL     OW18049   5.847   3.202   2.951  0.3986  0.1258 -0.1469
 4571SOL    HW218050   5.908   3.204   2.877 -0.3874 -1.7406 -0.9154
 4571SOL    HW318051   5.873   3.124   3.001  1.2713  1.6476  1.9243
 4571SOL    MW418052   5.859   3.192   2.948 -0.0682 -0.2508 -0.1955
 4572SOL     OW18053   5.270   6.003   5.637  0.3164  0.4842  0.0370
 4572SOL    HW218054   5.326   5.945   5.688  0.7259  0.0875 -0.8348
 4572SOL    HW318055   5.331   6.062   5.593  0.2134 -0.8579 -2.0518
 4572SOL    MW418056   5.285   6.003   5.638 -0.3254  0.0363  0.4530
 4573SOL     OW18057   0.070   3.226   3.125 -0.8031  0.2271 -0.2993
 4573SOL    HW218058  -0.003   3.200   3.182  0.6614 -0.6358  1.2669
 4573SOL    HW318059   0.115   3.144   3.105  1.2093  0.9755  0.9093
 4573SOL    MW418060   0.066   3.212   3.130  0.1995  0.1880  0.2668
 4574SOL     OW18061   2.394   0.416   1.274  0.3222 -0.0255 -0.2787
 4574SOL    HW218062   2.469   0.451   1.322 -0.0284  0.2477  0.0702
 4574SOL    HW318063   2.432   0.383   1.192  0.9522 -0.7161  0.2816
 4574SOL    MW418064   2.409   0.416   1.269  0.6111  0.6156 -0.3073
 4575SOL     OW18065   1.923   3.834   5.214 -0.6095  0.1400  0.1034
 4575SOL    HW218066   1.938   3.814   5.121 -1.0915  0.0716  0.0407
 4575SOL    HW318067   1.924   3.749   5.258  0.5040  0.2340  0.2982
 4575SOL    MW418068   1.925   3.820   5.207  0.2045  0.0776 -0.2151
 4576SOL     OW18069   1.797   2.744   6.360  0.3211  0.0008  0.1129
 4576SOL    HW218070   1.773   2.804   6.430 -0.2525 -3.5262  3.2612
 4576SOL    HW318071   1.715   2.727   6.314  0.0202  0.0256  0.6265
 4576SOL    MW418072   1.783   2.749   6.363  0.0018 -0.2017  0.0199
 4577SOL     OW18073   3.493   2.796   0.179 -0.8874 -0.2463 -0.6683
 4577SOL    HW218074   3.445   2.876   0.157  0.0466 -0.1398 -2.4564
 4577SOL    HW318075   3.430   2.725   0.165 -1.4042  0.0847 -0.0683
 4577SOL    MW418076   3.478   2.797   0.175  0.0328 -0.9380  0.1908
 4578SOL     OW18077   1.535   0.710   3.340 -0.1198 -0.3818  0.2954
 4578SOL    HW218078   1.608   0.650   3.346 -0.7869 -1.1401  1.1436
 4578SOL    HW318079   1.538   0.760   3.422 -1.3956 -1.4380  1.0169
 4578SOL    MW418080   1.545   0.709   3.352 -0.4221  0.2664  0.4962
 4579SOL     OW18081   2.879   6.257   1.593 -0.7117 -0.1427  0.6780
 4579SOL    HW218082   2.863   6.346   1.625  1.2535  1.0044 -1.2417
 4579SOL    HW318083   2.904   6.269   1.502  0.4175 -2.5911  0.5992
 4579SOL    MW418084   2.880   6.271   1.585  0.1189 -0.0104 -0.1425
 4580SOL     OW18085   0.218   3.877   4.989  0.0021 -0.1857 -0.1156
 4580SOL    HW218086   0.261   3.872   5.074 -0.6777 -0.1317  0.2368
 4580SOL    HW318087   0.257   3.954   4.947 -1.4707  1.3392  1.1837
 4580SOL    MW418088   0.229   3.886   4.995 -0.3071  0.1066  0.3027
 4581SOL     OW18089   4.404   6.122   4.064 -0.6140  0.3271  0.2267
 4581SOL    HW218090   4.316   6.086   4.062 -0.5567  0.2067 -1.0662
 4581SOL    HW318091   4.453   6.068   4.002 -0.2110  1.8494 -0.8143
 4581SOL    MW418092   4.399   6.110   4.056  0.4923 -0.1034 -0.6724
 4582SOL     OW18093   0.084   0.470   1.876  0.3346 -0.2086 -0.4326
 4582SOL    HW218094   0.070   0.539   1.813 -2.2403 -0.8415 -0.6505
 4582SOL    HW318095   0.103   0.392   1.823 -0.1074 -0.3651 -0.3687
 4582SOL    MW418096   0.085   0.469   1.861 -0.4297  0.3064 -0.3002
 4583SOL     OW18097   0.668   2.721   5.789  0.1691  0.0720  0.0512
 4583SOL    HW218098   0.632   2.806   5.766  0.0153 -0.0067 -0.0057
 4583SOL    HW318099   0.640   2.706   5.879  0.0399  0.0019  0.0004
 4583SOL    MW418100   0.659   2.730   5.798  0.2988 -0.5899 -0.5967
 4584SOL     OW18101   0.479   0.164   0.868  0.6032 -0.0524  0.4859
 4584SOL    HW218102   0.404   0.185   0.813  0.8603  0.5260  0.3477
 4584SOL    HW318103   0.506   0.247   0.906  1.7994 -0.0659 -0.2689
 4584SOL    MW418104   0.473   0.177   0.866 -0.4815 -0.4409 -0.1046
 4585SOL     OW18105   5.661   0.857   0.364  0.6306 -0.0766 -1.1357
 4585SOL    HW218106   5.733   0.917   0.388  0.4318 -0.2796  0.0513
 4585SOL    HW318107   5.704   0.772   0.354  0.6137 -0.1330 -0.7544
 4585SOL    MW418108   5.676   0.854   0.366  0.1409  0.1821  0.2910
 4586SOL     OW18109   2.109   5.894   1.328 -0.3500  0.4426 -0.3621
 4586SOL    HW218110   2.183   5.955   1.319  0.0454 -0.0052 -0.1918
 4586SOL    HW318111   2.071   5.915   1.413 -0.4549  0.7152 -0.4761
 4586SOL    MW418112   2.114   5.905   1.338 -0.2462 -0.4401  0.4232
 4587SOL     OW18113   4.021   0.419   2.465 -0.1062 -0.0670  0.1939
 4587SOL    HW218114   3.950   0.388   2.521 -1.7135  0.1010 -1.6432
 4587SOL    HW318115   4.004   0.379   2.380  1.8633  0.2169 -0.3848
 4587SOL    MW418116   4.009   0.410   2.461 -0.0286  0.2623  0.8411
 4588SOL     OW18117   3.616   2.346   5.398 -0.3062 -0.0376 -0.3339
 4588SOL    HW218118   3.616   2.251   5.415  0.0286 -0.1976 -1.1674
 4588SOL    HW318119   3.622   2.353   5.303 -0.2699  0.8259 -0.2750
 4588SOL    MW418120   3.617   2.334   5.388  0.0175  0.4133  0.2093
 4589SOL     OW18121   0.366   5.594   0.548  0.3569  0.1446  0.3435
 4589SOL    HW218122   0.339   5.553   0.631 -0.3176  1.4249  0.7782
 4589SOL    HW318123   0.407   5.522   0.499 -0.2005 -0.8998  1.3385
 4589SOL    MW418124   0.368   5.579   0.552 -0.2299  0.6036  0.1350
 4590SOL     OW18125   1.979   2.182   2.296  0.4822  0.0257  0.2246
 4590SOL    HW218126   1.973   2.268   2.253 -0.1599 -0.2507 -0.2472
 4590SOL    HW318127   2.070   2.178   2.327  0.0982  1.5508  1.6844
 4590SOL    MW418128   1.990   2.193   2.294 -0.2531 -0.0008 -0.5121
 4591SOL     OW18129   1.272   4.069   3.266  0.1348  0.3533  0.6503
 4591SOL    HW218130   1.356   4.110   3.285  1.2432 -1.8134  0.7883
 4591SOL    HW318131   1.290   3.975   3.272 -2.1609 -0.1813  0.0441
 4591SOL    MW418132   1.285   4.062   3.270  0.2172  0.4675 -0.3880
 4592SOL     OW18133   1.216   0.031   5.778 -0.0904 -0.1407 -0.0033
 4592SOL    HW218134   1.304  -0.001   5.757 -0.7005 -1.7362 -0.2335
 4592SOL    HW318135   1.211   0.117   5.737  1.7610  0.4883  0.9738
 4592SOL    MW418136   1.227   0.038   5.770 -0.1931  0.4570  0.1157
 4593SOL     OW18137   0.295   6.181   2.963  0.2695  0.1749 -0.1214
 4593SOL    HW218138   0.203   6.156   2.973  0.0846  0.3793 -1.1859
 4593SOL    HW318139   0.304   6.261   3.015 -0.7273  1.3815 -1.6867
 4593SOL    MW418140   0.284   6.188   2.971  0.0790 -0.0121 -0.4805
 4594SOL     OW18141   4.143   0.050   6.166 -0.9830 -0.0849  0.1708
 4594SOL    HW218142   4.102   0.027   6.083 -1.4730 -1.6884  0.8205
 4594SOL    HW318143   4.074   0.093   6.216 -0.5326  1.3963 -0.4201
 4594SOL    MW418144   4.129   0.053   6.162 -0.4626  0.3552  0.1840
 4595SOL     OW18145   4.519   1.572   2.715  0.0697 -0.3863 -0.1840
 4595SOL    HW218146   4.479   1.490   2.684  0.8144 -0.4820 -0.9050
 4595SOL    HW318147   4.482   1.584   2.803 -1.2506 -0.6697 -0.6720
 4595SOL    MW418148   4.509   1.562   2.722 -0.0877  0.7514  0.7617
 4596SOL     OW18149   1.724   4.977   0.563  0.5590  0.2858 -0.4610
 4596SOL    HW218150   1.640   5.022   0.566  2.3926  4.1119  0.7153
 4596SOL    HW318151   1.762   5.005   0.479  1.1993 -0.2975 -0.3721
 4596SOL    MW418152   1.718   4.987   0.552  0.0168 -0.4623  0.5846
 4597SOL     OW18153   5.838   2.825   1.253  0.0596  0.4695 -0.1544
 4597SOL    HW218154   5.801   2.911   1.233  0.3376  0.2166 -1.9584
 4597SOL    HW318155   5.768   2.777   1.296 -0.7805  0.9301 -0.9836
 4597SOL    MW418156   5.824   2.830   1.256  0.2367  0.0306  0.0183
 4598SOL     OW18157   5.653   6.026   1.203 -0.3948 -0.4564  0.4715
 4598SOL    HW218158   5.581   5.963   1.199 -2.1796  1.4826  0.2503
 4598SOL    HW318159   5.671   6.047   1.112  0.0476 -0.4993  0.5492
 4598SOL    MW418160   5.646   6.020   1.191  0.1368  0.6063 -1.2818
 4599SOL     OW18161   4.900   1.312   5.028 -0.3845 -0.5262  0.1623
 4599SOL    HW218162   4.824   1.258   5.007  0.2660 -1.3459 -0.1735
 4599SOL    HW318163   4.896   1.323   5.123 -1.5103  0.3742  0.0328
 4599SOL    MW418164   4.890   1.306   5.037 -0.3620 -0.3630  0.3990
 4600SOL     OW18165   5.903   1.109   3.345  0.5499  0.1943 -0.5425
 4600SOL    HW218166   5.836   1.171   3.372 -1.2537 -0.6867 -2.6472
 4600SOL    HW318167   5.957   1.157   3.283  0.9289  0.4854  0.0169
 4600SOL    MW418168   5.901   1.123   3.340  0.1238 -0.6729  0.2788
 4601SOL     OW18169   1.852   4.098   5.557  0.2200  0.2457 -0.4215
 4601SOL    HW218170   1.802   4.071   5.480 -1.9393  0.9324  0.6432
 4601SOL    HW318171   1.832   4.032   5.623  0.7318  0.5497  0.0473
 4601SOL    MW418172   1.843   4.086   5.556 -0.0309 -0.3771 -0.5545
 4602SOL     OW18173   3.002   5.166   0.749 -0.0153 -0.5289  0.5904
 4602SOL    HW218174   3.089   5.197   0.725 -0.8409  0.0104 -2.0646
 4602SOL    HW318175   2.944   5.238   0.725 -1.4630 -2.0277 -0.6832
 4602SOL    MW418176   3.006   5.180   0.743 -0.2475  0.0820 -0.6699
 4603SOL     OW18177   3.627   3.854   1.083 -0.0130  0.0690 -0.0369
 4603SOL    HW218178   3.685   3.926   1.109 -1.0314  0.6573  0.6595
 4603SOL    HW318179   3.675   3.775   1.110 -0.2948  0.6031  2.2711
 4603SOL    MW418180   3.641   3.853   1.090 -0.0945  0.1121 -0.1178
 4604SOL     OW18181   3.154   5.891   2.900  0.4337  0.3106 -0.0093
 4604SOL    HW218182   3.165   5.796   2.907 -1.5500  0.0228 -0.0563
 4604SOL    HW318183   3.216   5.927   2.962  1.0432 -1.0311  0.2029
 4604SOL    MW418184   3.164   5.883   2.909 -0.0894  0.0158  0.2212
 4605SOL     OW18185   4.356   0.213   4.650 -0.0317 -0.0316  0.6141
 4605SOL    HW218186   4.369   0.211   4.745 -1.8554  0.6875  0.9219
 4605SOL    HW318187   4.339   0.305   4.630 -0.3707 -0.2801 -0.2962
 4605SOL    MW418188   4.355   0.225   4.660  0.0809  0.4963 -0.0712
 4606SOL     OW18189   5.909   1.531   3.444  0.5235  0.6445 -0.0316
 4606SOL    HW218190   6.004   1.546   3.442  0.5253  0.7243  0.5109
 4606SOL    HW318191   5.900   1.440   3.471  0.4359  0.9109  0.8872
 4606SOL    MW418192   5.921   1.521   3.448  0.0599  0.2640 -0.1175
 4607SOL     OW18193   0.774   4.166   0.281 -0.3566  0.3377 -0.4067
 4607SOL    HW218194   0.793   4.083   0.238 -1.4545 -0.0750 -0.1277
 4607SOL    HW318195   0.859   4.208   0.291  0.4335 -1.4754  0.9343
 4607SOL    MW418196   0.788   4.161   0.277  0.0161 -0.3361 -0.4000
 4608SOL     OW18197   5.166   3.970   5.086 -0.1694 -0.0862 -0.4731
 4608SOL    HW218198   5.158   3.901   5.019  0.3967 -0.4520 -0.1823
 4608SOL    HW318199   5.242   4.021   5.057  1.2667 -1.3595  0.8195
 4608SOL    MW418200   5.175   3.967   5.073 -0.0937  0.5303  0.2979
 4609SOL     OW18201   2.279   0.322   6.192 -0.2186 -0.1128 -0.3695
 4609SOL    HW218202   2.200   0.268   6.191 -0.5391  0.2860  0.9344
 4609SOL    HW318203   2.264   0.385   6.263  2.2895 -1.6000  1.6776
 4609SOL    MW418204   2.267   0.323   6.201  0.2134 -0.2509 -0.4767
 4610SOL     OW18205   2.768   1.181   2.631  0.0778 -0.3308  0.4445
 4610SOL    HW218206   2.809   1.266   2.616 -0.0973  0.0628  1.9493
 4610SOL    HW318207   2.740   1.151   2.545  0.8974  0.7470 -0.2141
 4610SOL    MW418208   2.769   1.188   2.618 -0.3779  0.5818  0.2430
 4611SOL     OW18209   1.944   0.096   5.458 -0.1528 -0.1640  0.2275
 4611SOL    HW218210   1.938   0.156   5.532  1.0754 -0.0875  0.2985
 4611SOL    HW318211   1.911   0.145   5.384 -2.6099 -0.6688  0.9144
 4611SOL    MW418212   1.939   0.110   5.458  0.8982  0.2088  0.1633
 4612SOL     OW18213   2.291   5.414   5.045  0.1709 -0.1239 -0.3299
 4612SOL    HW218214   2.245   5.338   5.081  0.9056 -0.6817 -0.5338
 4612SOL    HW318215   2.221   5.475   5.020 -0.5135 -1.2987 -1.4265
 4612SOL    MW418216   2.276   5.412   5.047 -0.3996 -0.2037 -0.2829
 4613SOL     OW18217   4.502   4.279   5.715  0.1645 -0.1233  0.2679
 4613SOL    HW218218   4.425   4.228   5.689 -0.3389  0.1205  1.2424
 4613SOL    HW318219   4.543   4.303   5.632  0.0121 -1.4815 -0.2306
 4613SOL    MW418220   4.497   4.275   5.700  0.1252 -0.6466  0.5337
 4614SOL     OW18221   5.284   4.191   4.596 -0.1287 -0.7265 -0.7835
 4614SOL    HW218222   5.342   4.256   4.637 -2.0706  0.7523 -0.2334
 4614SOL    HW318223   5.303   4.197   4.503  0.5637 -0.2380 -0.6212
 4614SOL    MW418224   5.294   4.200   4.589  0.1624 -0.2298  0.3371
 4615SOL     OW18225   6.024   1.766   4.335  0.0660  0.1016  0.3362
 4615SOL    HW218226   6.077   1.846   4.337 -0.0544  0.3084 -1.9417
 4615SOL    HW318227   6.062   1.709   4.401  0.7847  1.6647  1.3137
 4615SOL    MW418228   6.036   1.769   4.344  0.4857  0.3966 -0.4499
 4616SOL     OW18229   4.936   1.842   5.152 -0.1836  0.1317 -0.4746
 4616SOL    HW218230   4.907   1.751   5.160 -1.6939  0.6605  0.3692
 4616SOL    HW318231   5.005   1.851   5.218 -0.1980 -0.3472 -0.3903
 4616SOL    MW418232   4.941   1.831   5.162 -0.2945 -0.1864 -0.4457
 4617SOL     OW18233   5.641   3.150   4.394  0.0832  0.1177 -0.4855
 4617SOL    HW218234   5.644   3.245   4.404  1.0495  0.2086 -1.5019
 4617SOL    HW318235   5.555   3.133   4.354 -1.0612  0.3182  1.7384
 4617SOL    MW418236   5.630   3.161   4.390 -0.2814  0.4445 -0.1966
 4618SOL     OW18237   4.526   0.287   6.127  0.0267  0.2921 -0.5163
 4618SOL    HW218238   4.431   0.286   6.135 -0.2255 -1.8510 -2.7350
 4618SOL    HW318239   4.548   0.380   6.120 -1.8781  0.8309  0.0353
 4618SOL    MW418240   4.516   0.299   6.128 -0.2622  0.3270  0.1616
 4619SOL     OW18241   5.561   3.520   0.179 -0.2614  0.4134 -0.5201
 4619SOL    HW218242   5.561   3.601   0.128  1.6921  1.0400  0.3757
 4619SOL    HW318243   5.561   3.450   0.114  0.1071  1.1645 -1.3498
 4619SOL    MW418244   5.561   3.521   0.164 -0.9172  0.7439  0.2301
 4620SOL     OW18245   4.130   0.431   1.544  0.1822 -0.1277  0.0569
 4620SOL    HW218246   4.177   0.514   1.548  0.6891 -0.4213  0.3945
 4620SOL    HW318247   4.185   0.376   1.488  1.1529 -1.0148  1.7790
 4620SOL    MW418248   4.144   0.435   1.537  0.1801 -0.8261  0.6040
 4621SOL     OW18249   2.822   6.040   0.406 -0.1264 -0.8121 -0.1288
 4621SOL    HW218250   2.848   6.054   0.315 -0.1179 -4.2931 -0.7961
 4621SOL    HW318251   2.729   6.017   0.401 -0.2106 -0.7131  0.7911
 4621SOL    MW418252   2.813   6.039   0.393  0.6835  0.3638  0.5073
 4622SOL     OW18253   4.922   2.366   2.475  0.2263  0.0174  0.3104
 4622SOL    HW218254   4.856   2.297   2.471  0.8056 -0.5412  0.1436
 4622SOL    HW318255   4.886   2.437   2.423  0.5042 -0.9507 -1.2664
 4622SOL    MW418256   4.908   2.366   2.468 -0.0717  0.3241 -0.1659
 4623SOL     OW18257   3.972   4.637   0.154 -0.3017 -0.0457  0.3779
 4623SOL    HW218258   4.013   4.562   0.111  0.4892 -0.3118  1.5719
 4623SOL    HW318259   3.891   4.651   0.105 -0.1394 -1.2643 -0.2677
 4623SOL    MW418260   3.967   4.629   0.142  0.5408 -0.0976  0.1905
 4624SOL     OW18261   3.543   2.977   6.063 -0.2200  0.2359 -0.1651
 4624SOL    HW218262   3.502   2.940   6.141  0.9089  1.7202  1.1826
 4624SOL    HW318263   3.496   3.058   6.046  0.6924  0.8195  0.0496
 4624SOL    MW418264   3.531   2.983   6.071  0.4558  0.2145  0.6827
 4625SOL     OW18265   1.000   6.094   5.112  0.2049  0.2777 -0.0421
 4625SOL    HW218266   1.061   6.159   5.146  0.5701 -0.4223  0.6512
 4625SOL    HW318267   1.044   6.010   5.124  0.0855 -0.0528 -1.6918
 4625SOL    MW418268   1.014   6.091   5.118 -0.0156 -0.0142  0.1532
 4626SOL     OW18269   2.476   5.510   4.041  0.2441 -0.0239  0.1493
 4626SOL    HW218270   2.490   5.417   4.060  1.7247 -0.0067 -0.7859
 4626SOL    HW318271   2.424   5.510   3.961 -1.7554 -0.0273  1.3687
 4626SOL    MW418272   2.471   5.497   4.033  0.0481  0.1636  0.2354
 4627SOL     OW18273   5.747   2.970   3.611 -0.0168  0.3229 -0.0312
 4627SOL    HW218274   5.726   3.037   3.546 -2.4790  0.4324  0.7761
 4627SOL    HW318275   5.770   3.019   3.690 -1.3775  0.2495  0.4287
 4627SOL    MW418276   5.747   2.985   3.613  0.0061 -0.0187 -0.4247
 4628SOL     OW18277   1.891   5.145   3.419 -0.0111  0.4399 -0.0687
 4628SOL    HW218278   1.859   5.058   3.396 -1.2743  0.9908 -0.5046
 4628SOL    HW318279   1.923   5.136   3.509 -0.1219 -0.4712 -0.1160
 4628SOL    MW418280   1.891   5.133   3.428 -0.0962 -0.3878  0.3507
 4629SOL     OW18281   2.940   0.648   4.212  0.2156 -0.2568  0.1196
 4629SOL    HW218282   2.905   0.681   4.130  0.6261  2.6184  0.9838
 4629SOL    HW318283   2.916   0.555   4.214 -1.2341 -0.0044 -2.4358
 4629SOL    MW418284   2.932   0.640   4.202  0.0977 -0.4680 -0.0664
 4630SOL     OW18285   4.457   4.078   5.177  0.2781 -0.2074 -0.1215
 4630SOL    HW218286   4.526   4.066   5.242  1.6419 -0.8249 -1.6139
 4630SOL    HW318287   4.411   4.156   5.206 -0.8464 -1.8238  2.9829
 4630SOL    MW418288   4.460   4.086   5.189  0.0615  0.0771  0.1716
 4631SOL     OW18289   4.752   0.525   5.151  0.4708 -0.2452  0.0972
 4631SOL    HW218290   4.722   0.611   5.179 -0.1949 -0.4370 -0.0133
 4631SOL    HW318291   4.843   0.520   5.181  0.5874  0.5788 -0.0970
 4631SOL    MW418292   4.760   0.536   5.159  0.3286 -0.0718  0.1653
 4632SOL     OW18293   6.264   0.714   3.694  0.3263  0.3698 -0.0466
 4632SOL    HW218294   6.228   0.755   3.772  1.2896 -0.1444  0.6782
 4632SOL    HW318295   6.279   0.623   3.719  1.7197  0.4681 -0.4553
 4632SOL    MW418296   6.261   0.708   3.707  0.3078  0.0709 -0.0936
 4633SOL     OW18297   0.237   2.914   5.437 -0.1395 -0.4498 -0.1365
 4633SOL    HW218298   0.221   2.923   5.343 -0.1310 -2.8122 -0.4273
 4633SOL    HW318299   0.160   2.952   5.478  0.1857  1.3023 -1.0312
 4633SOL    MW418300   0.225   2.920   5.430 -0.0819  0.5503 -0.0887
 4634SOL     OW18301   5.983   3.318   5.419 -0.0904  0.0332  0.5303
 4634SOL    HW218302   6.048   3.281   5.360 -0.7072 -1.8671  0.9576
 4634SOL    HW318303   5.990   3.412   5.408  0.6951 -0.2322 -1.6092
 4634SOL    MW418304   5.992   3.325   5.410 -0.8470  0.4270 -0.0244
 4635SOL     OW18305   2.065   0.040   3.008 -0.6919 -0.1139 -0.3274
 4635SOL    HW218306   1.974   0.042   3.037 -0.7042 -0.2187 -0.3591
 4635SOL    HW318307   2.069  -0.033   2.946 -0.8939  0.7340 -1.3618
 4635SOL    MW418308   2.054   0.031   3.003  0.2153  0.1547  0.4354
 4636SOL     OW18309   5.783   1.894   3.233  0.0702  0.1830 -0.1238
 4636SOL    HW218310   5.718   1.956   3.267 -0.5363 -0.6699  0.3056
 4636SOL    HW318311   5.803   1.926   3.145 -1.8937 -0.2551 -0.7669
 4636SOL    MW418312   5.777   1.907   3.226  0.4598  1.3910 -0.2377
 4637SOL     OW18313   4.117   6.417   2.308 -0.2100  0.0490  0.0087
 4637SOL    HW218314   4.058   6.346   2.283 -0.6768  0.9243 -1.5238
 4637SOL    HW318315   4.076   6.456   2.386 -1.7304  0.6781 -1.0561
 4637SOL    MW418316   4.104   6.413   2.315  0.5945  0.1211  0.2346
 4638SOL     OW18317   2.978   4.009   5.135  0.3860  0.0253 -0.4096
 4638SOL    HW218318   2.966   4.011   5.040 -0.7470 -1.6628 -0.3476
 4638SOL    HW318319   2.893   4.035   5.170  0.1500 -1.3737  0.1140
 4638SOL    MW418320   2.965   4.013   5.127  0.0947 -0.5750 -0.7948
 4639SOL     OW18321   1.587   5.481   6.149  0.0360 -0.0233  0.5367
 4639SOL    HW218322   1.624   5.397   6.174 -0.6645 -0.1780  1.1150
 4639SOL    HW318323   1.543   5.512   6.229  0.7578  1.1513  0.5080
 4639SOL    MW418324   1.586   5.474   6.163 -0.8589 -0.3295 -0.3896
 4640SOL     OW18325   3.383   4.237   4.496  0.5028 -0.6674  0.3480
 4640SOL    HW218326   3.345   4.247   4.409 -1.0930 -1.9916  0.8375
 4640SOL    HW318327   3.436   4.315   4.508  0.6900 -0.4132 -1.7649
 4640SOL    MW418328   3.385   4.249   4.486  0.4448 -0.2100 -0.1052
 4641SOL     OW18329   6.320   2.449   2.724  0.3966  0.3664  0.4775
 4641SOL    HW218330   6.356   2.380   2.668  0.6640  0.5832  0.3804
 4641SOL    HW318331   6.249   2.487   2.672 -0.4331 -0.5089  0.9374
 4641SOL    MW418332   6.316   2.445   2.710  0.0152  0.2282  0.2528
 4642SOL     OW18333   2.759   5.140   2.429 -0.3341  0.2110  0.0959
 4642SOL    HW218334   2.683   5.083   2.421  0.0597 -0.3743  0.4090
 4642SOL    HW318335   2.769   5.155   2.523 -1.1170  1.7620 -0.0383
 4642SOL    MW418336   2.751   5.135   2.440  0.2800 -0.3458 -0.0662
 4643SOL     OW18337   3.264   0.191   5.830  0.4921 -0.0192  0.0866
 4643SOL    HW218338   3.283   0.122   5.768 -0.7015 -0.2757 -0.0212
 4643SOL    HW318339   3.345   0.202   5.880  1.2331 -0.3025 -1.0175
 4643SOL    MW418340   3.277   0.184   5.829  0.3383  0.5954 -0.4098
 4644SOL     OW18341   0.878   2.759   5.613  0.2393 -0.5376 -0.4077
 4644SOL    HW218342   0.931   2.680   5.622 -0.8174 -1.3899 -1.3864
 4644SOL    HW318343   0.802   2.743   5.668  0.2743  0.0414 -0.1842
 4644SOL    MW418344   0.875   2.746   5.622 -0.2594 -0.0594 -0.2008
 4645SOL     OW18345   2.507   3.696   3.747 -0.1712  0.6941 -0.1614
 4645SOL    HW218346   2.580   3.681   3.688 -0.0820 -0.2649  0.1663
 4645SOL    HW318347   2.433   3.652   3.706 -0.1981  0.3504  0.2430
 4645SOL    MW418348   2.507   3.688   3.734 -0.3309  0.3872  0.4980
 4646SOL     OW18349   2.073   3.647   1.085 -0.1677 -0.6908 -0.3291
 4646SOL    HW218350   2.074   3.603   1.000 -1.4253 -1.8100  0.1791
 4646SOL    HW318351   2.021   3.726   1.071  2.6108  1.0711 -1.3963
 4646SOL    MW418352   2.066   3.651   1.072 -0.1441 -0.0773  0.0174
 4647SOL     OW18353   0.980   1.438   5.634 -0.3653 -0.1665  0.0404
 4647SOL    HW218354   0.968   1.531   5.651 -2.4620 -0.3471 -0.2070
 4647SOL    HW318355   1.024   1.404   5.713 -1.0730  0.7362  0.8329
 4647SOL    MW418356   0.984   1.446   5.646 -0.4453 -0.7173 -0.1984
 4648SOL     OW18357   1.992   5.918   5.515  0.2263 -0.4112 -0.7848
 4648SOL    HW218358   1.916   5.909   5.573  0.4082  0.8206 -0.3223
 4648SOL    HW318359   1.962   5.978   5.447  0.5040 -0.6461 -1.1155
 4648SOL    MW418360   1.978   5.925   5.514  0.1654  0.1821  0.5642
 4649SOL     OW18361   0.837   0.332   5.966  0.4439  0.5813 -0.2986
 4649SOL    HW218362   0.902   0.309   6.032 -0.1687 -1.0816 -0.2243
 4649SOL    HW318363   0.758   0.354   6.017  0.2179  0.1227 -0.4451
 4649SOL    MW418364   0.835   0.332   5.981  0.0332  0.1019  0.3576
 4650SOL     OW18365   5.366   3.567   4.368  0.0484  0.2013 -0.0673
 4650SOL    HW218366   5.335   3.639   4.312  2.0865  1.0654 -0.1470
 4650SOL    HW318367   5.388   3.608   4.451  1.1817 -0.3372 -0.0913
 4650SOL    MW418368   5.365   3.582   4.371 -0.1307 -0.4619 -0.1875
 4651SOL     OW18369   2.002   1.644   6.424 -0.2745  0.8436  0.2026
 4651SOL    HW218370   2.050   1.646   6.341 -0.2967 -3.0223 -0.0772
 4651SOL    HW318371   2.066   1.669   6.490  0.8676  0.2207 -0.6263
 4651SOL    MW418372   2.016   1.648   6.422  0.1926  0.4573  0.4643
 4652SOL     OW18373   1.235   4.211   0.168  0.1040 -0.2752 -0.2993
 4652SOL    HW218374   1.275   4.255   0.094 -0.7000  1.7944  0.4347
 4652SOL    HW318375   1.189   4.136   0.130 -0.8344  1.1055 -2.0104
 4652SOL    MW418376   1.234   4.207   0.153  0.0232 -0.6314  0.0090
 4653SOL     OW18377   1.718   3.976   1.263 -0.1652  0.0644 -0.0022
 4653SOL    HW218378   1.755   3.912   1.202 -1.5747 -1.9831  1.1583
 4653SOL    HW318379   1.792   4.032   1.287  0.8151 -0.2016 -2.1534
 4653SOL    MW418380   1.733   3.975   1.258  0.7987  0.1185 -0.3275
 4654SOL     OW18381   4.201   1.332   6.242  0.7724 -0.1471  0.1437
 4654SOL    HW218382   4.245   1.248   6.233  1.1184 -0.2576  2.3759
 4654SOL    HW318383   4.244   1.390   6.179  2.3403 -0.9449  0.4537
 4654SOL    MW418384   4.212   1.329   6.232  0.2834  0.7775  0.2121
 4655SOL     OW18385   0.514   6.080   5.808 -0.5189  0.2330  0.0965
 4655SOL    HW218386   0.473   6.104   5.725 -0.8338 -0.4417  0.0483
 4655SOL    HW318387   0.441   6.074   5.869 -0.5788 -1.4823 -0.1058
 4655SOL    MW418388   0.499   6.083   5.805 -0.2317 -0.3859  0.0056
 4656SOL     OW18389   2.813   3.602   2.115 -0.3876  0.1282  0.4917
 4656SOL    HW218390   2.767   3.616   2.198  0.7542 -0.4674  1.2440
 4656SOL    HW318391   2.896   3.648   2.126 -1.6157  3.2879 -1.7366
 4656SOL    MW418392   2.818   3.610   2.127 -0.0802 -0.6043  0.7032
 4657SOL     OW18393   4.782   4.231   3.960 -0.1268 -0.0525 -0.1690
 4657SOL    HW218394   4.706   4.287   3.972  0.0542  0.2220 -0.2956
 4657SOL    HW318395   4.822   4.261   3.878 -0.8572 -1.3286 -1.0269
 4657SOL    MW418396   4.777   4.242   3.951  0.5795  0.3990 -0.6630
 4658SOL     OW18397   1.914   2.645   3.934 -0.4313 -1.0727  0.9301
 4658SOL    HW218398   1.864   2.608   3.861 -0.7037 -0.4541  0.8018
 4658SOL    HW318399   2.002   2.656   3.898 -0.2865 -1.7907  1.0358
 4658SOL    MW418400   1.919   2.641   3.919 -0.3667  0.0155 -0.0306
 4659SOL     OW18401   1.503   4.066   5.835 -0.7592 -0.1069 -1.1204
 4659SOL    HW218402   1.596   4.087   5.839 -0.4358 -1.5530 -0.6896
 4659SOL    HW318403   1.462   4.146   5.801  0.4801  0.9972 -0.1516
 4659SOL    MW418404   1.510   4.079   5.831 -0.3267  0.2525 -0.5132
 4660SOL     OW18405   3.041   4.695   3.771  0.0283 -0.2639 -0.0989
 4660SOL    HW218406   3.016   4.787   3.779  1.2095  0.0855 -0.1887
 4660SOL    HW318407   3.124   4.697   3.722 -0.6625 -1.4701 -1.3847
 4660SOL    MW418408   3.049   4.708   3.765  0.7176  0.2102  0.5483
 4661SOL     OW18409   4.910   1.559   5.189  0.0943  0.5129 -0.5064
 4661SOL    HW218410   4.818   1.544   5.213  0.1552 -1.8031 -1.4846
 4661SOL    HW318411   4.959   1.535   5.268  0.0399 -2.7187 -1.3216
 4661SOL    MW418412   4.904   1.554   5.203 -0.4643  0.1585 -0.2592
 4662SOL     OW18413   3.440   1.824   0.326  0.0351 -0.0319 -0.0683
 4662SOL    HW218414   3.496   1.806   0.250  0.0976  1.7407 -0.4754
 4662SOL    HW318415   3.365   1.871   0.290 -0.7493 -0.5949  0.7656
 4662SOL    MW418416   3.438   1.828   0.311  0.3122  0.5928 -0.0900
 4663SOL     OW18417   3.176   6.299   0.636 -0.4025  1.0046  0.7795
 4663SOL    HW218418   3.182   6.337   0.724 -1.0598  1.1173  0.7747
 4663SOL    HW318419   3.130   6.217   0.648  1.2760  0.0182  0.8362
 4663SOL    MW418420   3.171   6.293   0.649  0.1181 -0.7604  0.9228
 4664SOL     OW18421   2.394   2.839   1.482 -0.1039 -0.3788  0.6042
 4664SOL    HW218422   2.420   2.761   1.432 -0.2103  1.4041 -2.4732
 4664SOL    HW318423   2.440   2.830   1.566  0.2828 -3.4522  0.1807
 4664SOL    MW418424   2.404   2.827   1.487  0.0998  0.3922 -0.5212
 4665SOL     OW18425   2.057   2.100   1.240 -0.1023  0.1233  0.0632
 4665SOL    HW218426   2.001   2.177   1.236  1.6726  1.4893  0.0529
 4665SOL    HW318427   2.047   2.067   1.330 -1.0077  0.2637  0.0148
 4665SOL    MW418428   2.049   2.106   1.252  0.3239 -0.6269 -0.2334
 4666SOL     OW18429   0.504   2.838   4.623  0.1179  0.0256  0.0805
 4666SOL    HW218430   0.458   2.783   4.560  0.1363  0.9405 -0.7571
 4666SOL    HW318431   0.525   2.779   4.696 -0.9137 -0.7798 -0.2553
 4666SOL    MW418432   0.501   2.823   4.624  0.1543  0.4474 -0.0609
 4667SOL     OW18433   2.083   2.198   0.666 -0.0179  0.4516  0.7658
 4667SOL    HW218434   2.119   2.270   0.717 -1.2858  0.4730  1.6651
 4667SOL    HW318435   2.006   2.169   0.715 -0.3239 -0.6112 -0.2866
 4667SOL    MW418436   2.077   2.204   0.679  0.9439 -0.4013  0.0199
 4668SOL     OW18437   1.437   3.879   0.049  0.3715  0.1855  0.2482
 4668SOL    HW218438   1.517   3.931   0.050  0.1717  0.4946  0.4548
 4668SOL    HW318439   1.467   3.789   0.045  0.7270  0.3094  0.1077
 4668SOL    MW418440   1.452   3.874   0.049 -0.0212  0.0705  0.1225
 4669SOL     OW18441   3.118   2.918   1.960 -0.0486 -0.0127 -0.3590
 4669SOL    HW218442   3.186   2.858   1.932  1.3197  1.0103  0.6438
 4669SOL    HW318443   3.055   2.919   1.887  1.0764 -0.8590 -1.3748
 4669SOL    MW418444   3.118   2.910   1.946  0.0088 -0.1070  0.1033
 4670SOL     OW18445   5.732   2.397   1.302 -0.2200  0.3086 -0.3080
 4670SOL    HW218446   5.813   2.419   1.256  0.7133 -1.0742  0.5767
 4670SOL    HW318447   5.760   2.378   1.391 -1.2588 -1.7693 -0.3648
 4670SOL    MW418448   5.747   2.397   1.307 -0.5255 -0.3372  0.5370
 4671SOL     OW18449   2.000   2.060   3.445 -0.0856  0.1738  0.3078
 4671SOL    HW218450   2.030   2.134   3.391 -1.3785  1.0291  0.7061
 4671SOL    HW318451   1.988   1.988   3.383 -0.3844  0.7894 -0.3669
 4671SOL    MW418452   2.002   2.061   3.430 -0.1720  0.5747  0.4073
 4672SOL     OW18453   1.325   1.439   2.341 -0.3468  0.0862 -0.3943
 4672SOL    HW218454   1.284   1.373   2.286  0.3433 -0.5095 -0.1986
 4672SOL    HW318455   1.357   1.505   2.279 -0.6673  0.0392 -0.6143
 4672SOL    MW418456   1.324   1.439   2.326 -0.1230  0.0922  0.2274
 4673SOL     OW18457   5.333   4.547   0.728  0.3373 -0.9888  0.3831
 4673SOL    HW218458   5.407   4.503   0.688  0.4344 -0.6223  0.1481
 4673SOL    HW318459   5.261   4.535   0.665  0.3383 -0.8961  0.3639
 4673SOL    MW418460   5.333   4.540   0.714 -0.2851  0.0030  0.6833
 4674SOL     OW18461   2.975   4.701   1.510 -0.2248 -0.4692 -0.1164
 4674SOL    HW218462   3.001   4.741   1.427 -0.8086  0.5402  0.1632
 4674SOL    HW318463   2.914   4.632   1.486  0.7655 -1.1999 -0.6092
 4674SOL    MW418464   2.970   4.697   1.496 -0.0960 -0.2057 -0.0585
 4675SOL     OW18465   1.998   5.120   3.676  0.1554 -0.1037  0.0651
 4675SOL    HW218466   1.920   5.136   3.729 -0.4655 -2.1136 -0.1657
 4675SOL    HW318467   2.065   5.177   3.715 -1.1880  1.0452  0.7814
 4675SOL    MW418468   1.997   5.130   3.688  0.6635 -0.7031 -0.3465
 4676SOL     OW18469   3.633   4.756   0.784 -0.2859  0.0740  0.4465
 4676SOL    HW218470   3.722   4.725   0.769 -0.3590  0.1174 -0.0901
 4676SOL    HW318471   3.619   4.824   0.718 -0.6940  0.1134  0.5690
 4676SOL    MW418472   3.643   4.761   0.773  0.0495 -0.1010  0.1455
 4677SOL     OW18473   1.051   1.877   5.212  0.0864  0.1721  0.7565
 4677SOL    HW218474   1.017   1.942   5.149  0.4400  0.1589  0.5522
 4677SOL    HW318475   1.134   1.849   5.175  1.0859  1.3421  2.0118
 4677SOL    MW418476   1.057   1.882   5.199 -0.0379  0.1050 -0.4871
 4678SOL     OW18477   3.839   6.039   4.368 -0.2549 -0.1271  0.3362
 4678SOL    HW218478   3.816   6.127   4.398 -0.3083 -0.1293  0.3005
 4678SOL    HW318479   3.755   5.994   4.360 -0.5610  0.7696 -2.6896
 4678SOL    MW418480   3.825   6.045   4.371  0.2034 -0.0977  0.1199
 4679SOL     OW18481   3.235   3.303   2.800  0.5750 -0.4025  0.5055
 4679SOL    HW218482   3.226   3.328   2.892  1.0014 -0.1517  0.4784
 4679SOL    HW318483   3.324   3.270   2.792  1.2244  1.3947 -0.2366
 4679SOL    MW418484   3.245   3.302   2.811  0.6951  0.0750  0.1423
 4680SOL     OW18485   1.804   4.950   5.975  0.1350  0.0377 -0.2415
 4680SOL    HW218486   1.831   4.920   5.889 -1.9358 -0.5515 -0.7380
 4680SOL    HW318487   1.717   4.912   5.989  0.4938 -0.0794  2.2168
 4680SOL    MW418488   1.796   4.941   5.966 -0.4675 -0.0022 -0.3941
 4681SOL     OW18489   6.310   4.422   5.832  0.4639  0.2056  0.1713
 4681SOL    HW218490   6.240   4.361   5.807  0.0986 -0.1477  1.9509
 4681SOL    HW318491   6.277   4.507   5.804 -1.1231  0.1697  1.7383
 4681SOL    MW418492   6.296   4.425   5.825  0.4889 -0.0045  0.1455
 4682SOL     OW18493   2.973   3.984   1.434  0.5514 -0.3035  0.4028
 4682SOL    HW218494   3.054   3.936   1.454  0.7921  0.1798  0.6015
 4682SOL    HW318495   3.002   4.063   1.389  0.1882 -0.1418  0.4483
 4682SOL    MW418496   2.988   3.988   1.431 -0.3273  0.0063  0.4515
 4683SOL     OW18497   2.720   5.461   3.508  0.1880  0.1131 -0.2432
 4683SOL    HW218498   2.744   5.553   3.502  0.2089  0.1195 -0.0566
 4683SOL    HW318499   2.746   5.434   3.596  0.4883 -0.1588 -0.4137
 4683SOL    MW418500   2.726   5.470   3.519 -0.1765  0.2055 -0.1227
 4684SOL     OW18501   2.774   2.023   6.132 -0.7781 -0.2119 -0.1920
 4684SOL    HW218502   2.701   2.000   6.190  0.7240 -1.3554  1.3162
 4684SOL    HW318503   2.825   1.943   6.123  0.4852  0.6413 -0.9712
 4684SOL    MW418504   2.771   2.010   6.138 -0.0714  0.0352 -0.0092
 4685SOL     OW18505   0.732   6.022   1.418  0.2252 -0.1516 -0.0811
 4685SOL    HW218506   0.771   5.950   1.468  1.1484  0.4676  0.1142
 4685SOL    HW318507   0.656   5.983   1.375 -1.6242 -0.3028  3.0894
 4685SOL    MW418508   0.727   6.007   1.419  0.2238 -0.5007  0.5542
 4686SOL     OW18509   4.699   0.093   4.696 -0.0221  0.1094  0.1683
 4686SOL    HW218510   4.692   0.082   4.601  2.0076  0.5345 -0.0726
 4686SOL    HW318511   4.694   0.004   4.731  0.6722 -0.1924 -0.4769
 4686SOL    MW418512   4.698   0.080   4.688 -0.0953 -0.3026  0.2200
 4687SOL     OW18513   6.226   4.654   3.787 -0.0159  0.2799 -0.0009
 4687SOL    HW218514   6.272   4.682   3.866  0.3074  0.9084 -0.4017
 4687SOL    HW318515   6.178   4.732   3.758 -2.7104 -0.7551  1.3168
 4687SOL    MW418516   6.225   4.668   3.793 -0.3993 -0.3666 -0.0706
 4688SOL     OW18517   0.231   2.460   4.024  0.7348  0.0063  0.2507
 4688SOL    HW218518   0.280   2.541   4.009 -0.3740  0.4381 -1.2565
 4688SOL    HW318519   0.295   2.390   4.010  1.0260  0.5666 -1.4196
 4688SOL    MW418520   0.246   2.461   4.020  0.1985 -0.2977  0.3247
 4689SOL     OW18521   5.137   2.034   2.613  0.3297  0.3090 -0.2390
 4689SOL    HW218522   5.132   2.055   2.520 -0.5117  1.8866  0.1238
 4689SOL    HW318523   5.230   2.026   2.632  0.5224  0.3957 -1.1241
 4689SOL    MW418524   5.148   2.036   2.603 -0.0158  0.4244 -0.7233
 4690SOL     OW18525   1.482   4.203   5.013 -0.6573 -0.4760 -0.3453
 4690SOL    HW218526   1.538   4.280   5.006 -1.5700  0.1479 -0.9919
 4690SOL    HW318527   1.398   4.237   5.045 -0.4340 -1.5159  1.4976
 4690SOL    MW418528   1.478   4.217   5.017  0.1549  0.1729 -0.4116
 4691SOL     OW18529   0.460   3.411   4.967  0.2145  0.1204 -0.3564
 4691SOL    HW218530   0.516   3.435   4.894 -0.0980  0.1368 -0.5906
 4691SOL    HW318531   0.400   3.484   4.978  1.4800  0.9958  1.1580
 4691SOL    MW418532   0.460   3.424   4.959 -0.0320 -0.1852  0.2929
 4692SOL     OW18533   5.242   3.326   5.338  0.7921 -1.0374 -0.4269
 4692SOL    HW218534   5.191   3.245   5.335 -0.7605 -0.0974 -0.1277
 4692SOL    HW318535   5.214   3.369   5.418  0.6208  0.4275 -1.2410
 4692SOL    MW418536   5.232   3.321   5.348  0.1972 -0.3553  0.2823
 4693SOL     OW18537   4.708   2.135   4.096 -0.2833  0.5933  0.1944
 4693SOL    HW218538   4.703   2.123   4.001 -0.6691 -0.2814  0.3130
 4693SOL    HW318539   4.731   2.049   4.129  0.0914  0.9545  0.8820
 4693SOL    MW418540   4.710   2.122   4.088 -0.0445  0.0815 -0.0812
 4694SOL     OW18541   0.372   5.661   4.039 -0.0004  0.0512 -0.4931
 4694SOL    HW218542   0.397   5.725   3.972  0.7919 -0.3227 -0.5655
 4694SOL    HW318543   0.381   5.709   4.122  0.7444  0.0043 -0.5362
 4694SOL    MW418544   0.377   5.676   4.041  0.1564  0.2796  0.1710
 4695SOL     OW18545   3.637   5.910   3.541 -0.0315  0.2957  0.1749
 4695SOL    HW218546   3.684   5.833   3.509 -1.7707 -0.5248 -0.5333
 4695SOL    HW318547   3.639   5.901   3.636  2.3352  1.0020  0.2491
 4695SOL    MW418548   3.644   5.898   3.549  0.1733  0.0924 -0.3731
 4696SOL     OW18549   2.641   2.298   3.774  0.0625 -0.4440 -0.2617
 4696SOL    HW218550   2.694   2.347   3.837 -0.0097 -0.4329 -0.2088
 4696SOL    HW318551   2.693   2.297   3.695  0.4167 -0.9769 -0.0200
 4696SOL    MW418552   2.655   2.305   3.772 -0.0469 -0.4481 -0.1361
 4697SOL     OW18553   2.563   6.097   2.336  0.1517  0.3813 -0.2187
 4697SOL    HW218554   2.586   6.182   2.372 -0.8620 -0.1236  1.8169
 4697SOL    HW318555   2.471   6.106   2.311 -0.2473 -0.3458  0.9058
 4697SOL    MW418556   2.554   6.109   2.337 -0.7829  0.1822  0.0887
 4698SOL     OW18557   0.623   5.868   4.436  0.3852 -0.4902  0.0550
 4698SOL    HW218558   0.708   5.882   4.477 -0.0606 -0.6077  1.0399
 4698SOL    HW318559   0.584   5.796   4.485  0.0450 -0.9886 -0.9154
 4698SOL    MW418560   0.629   5.860   4.448  0.2304 -0.4435  0.2417
 4699SOL     OW18561   5.118   4.582   4.101 -0.0971  0.0209 -0.0512
 4699SOL    HW218562   5.185   4.545   4.043  0.7340  0.9194  0.2996
 4699SOL    HW318563   5.099   4.668   4.063  3.6791  2.6668  3.1865
 4699SOL    MW418564   5.124   4.588   4.088  0.3816 -0.0647 -0.5153
 4700SOL     OW18565   0.721   6.061   5.466  0.4937 -0.1627  0.6972
 4700SOL    HW218566   0.778   6.138   5.472  0.6484 -0.0678 -1.2353
 4700SOL    HW318567   0.767   5.994   5.516  0.3326  0.9685  2.4655
 4700SOL    MW418568   0.734   6.063   5.473 -0.1776 -0.2287  0.2430
 4701SOL     OW18569   5.202   1.621   1.746  0.4478 -0.3864 -0.2961
 4701SOL    HW218570   5.193   1.669   1.829 -2.2212 -1.3945  0.1099
 4701SOL    HW318571   5.237   1.536   1.771 -1.0109 -0.9447 -0.0348
 4701SOL    MW418572   5.205   1.616   1.760  0.1611 -0.1398  1.1738
 4702SOL     OW18573   5.400   6.104   5.907  0.1210  0.1622 -0.4769
 4702SOL    HW218574   5.462   6.069   5.971 -0.1472 -0.4904 -0.5606
 4702SOL    HW318575   5.319   6.115   5.955  0.1174  0.3671 -0.5301
 4702SOL    MW418576   5.398   6.101   5.922  0.0287  0.2783  0.2214
 4703SOL     OW18577   2.673   5.867   4.239 -0.0239  0.9637  0.3079
 4703SOL    HW218578   2.687   5.926   4.165  1.6673 -0.6004 -0.7022
 4703SOL    HW318579   2.740   5.799   4.229 -3.1565 -2.4040  0.1539
 4703SOL    MW418580   2.684   5.866   4.228 -0.0814 -0.0819  0.2862
 4704SOL     OW18581   2.155   2.322   1.949  0.1446 -0.2680  0.1601
 4704SOL    HW218582   2.251   2.323   1.940  0.1287  1.3751 -0.0544
 4704SOL    HW318583   2.129   2.238   1.911  1.3985 -0.1593 -1.0434
 4704SOL    MW418584   2.165   2.311   1.943  0.3895  0.3528 -0.5539
 4705SOL     OW18585   3.664   5.918   0.633 -0.5021 -0.0524 -0.3419
 4705SOL    HW218586   3.602   5.890   0.565 -0.6359  1.3686 -0.8303
 4705SOL    HW318587   3.750   5.899   0.596 -0.6014 -0.3556 -0.4195
 4705SOL    MW418588   3.667   5.912   0.619 -0.5261  0.7905  0.2421
 4706SOL     OW18589   2.118   4.451   3.746  0.1233 -0.4441  0.0263
 4706SOL    HW218590   2.027   4.464   3.718 -0.1483 -1.5174  0.3556
 4706SOL    HW318591   2.112   4.383   3.814  0.8546  1.3212  1.9637
 4706SOL    MW418592   2.105   4.444   3.751 -0.1584 -0.7811 -0.3755
 4707SOL     OW18593   0.619   5.965   3.998  0.3724  0.1966 -0.1865
 4707SOL    HW218594   0.566   6.040   4.022 -0.6129 -1.1136  2.0095
 4707SOL    HW318595   0.658   5.989   3.914 -0.4814  2.8219  0.0893
 4707SOL    MW418596   0.617   5.978   3.990  0.3765 -0.7561  0.3287
 4708SOL     OW18597   1.680   3.518   1.359  0.0255  0.5005 -0.5952
 4708SOL    HW218598   1.760   3.487   1.403 -1.8801 -0.7937  2.2327
 4708SOL    HW318599   1.631   3.438   1.340 -0.6408  1.2772 -2.3857
 4708SOL    MW418600   1.684   3.503   1.362 -0.5920 -0.7140 -0.1871
 4709SOL     OW18601   0.726   2.951   0.324  0.2643 -0.4736  0.5398
 4709SOL    HW218602   0.656   2.893   0.352 -0.3133 -0.4938 -0.8589
 4709SOL    HW318603   0.769   2.978   0.405 -1.0595 -0.8312  1.3930
 4709SOL    MW418604   0.722   2.947   0.338 -0.8778  0.2547  0.4112
 4710SOL     OW18605   1.555   4.395   2.300  0.3690  0.2329  0.2390
 4710SOL    HW218606   1.493   4.414   2.371 -0.8510 -3.3660  0.3607
 4710SOL    HW318607   1.499   4.374   2.225  1.4912 -0.6450 -0.3741
 4710SOL    MW418608   1.539   4.395   2.300 -0.6297  0.7433  0.3294
 4711SOL     OW18609   1.126   0.756   6.045  0.0263  0.1353  0.2454
 4711SOL    HW218610   1.044   0.708   6.033  0.1694  0.1921 -1.1943
 4711SOL    HW318611   1.104   0.847   6.028  0.3379  0.1759  0.0361
 4711SOL    MW418612   1.112   0.761   6.041 -0.5525 -0.1692 -1.1769
 4712SOL     OW18613   0.441   1.270   4.072 -0.1743  0.3300  0.8880
 4712SOL    HW218614   0.512   1.243   4.130  0.6050  2.6658  1.1147
 4712SOL    HW318615   0.460   1.361   4.050 -0.4192 -0.4010 -3.1289
 4712SOL    MW418616   0.453   1.279   4.077 -0.0586 -0.4108  0.2416
 4713SOL     OW18617   2.806   5.327   0.669  0.3111 -0.0409 -0.1696
 4713SOL    HW218618   2.757   5.376   0.735  1.7800  3.2726 -1.3237
 4713SOL    HW318619   2.745   5.319   0.595 -0.3739 -1.2465  0.4875
 4713SOL    MW418620   2.791   5.332   0.668 -1.0773  0.2385 -0.2945
 4714SOL     OW18621   1.358   3.157   0.072 -0.3351  0.9039 -0.1556
 4714SOL    HW218622   1.357   3.065   0.048  2.4924  0.6509  0.3477
 4714SOL    HW318623   1.436   3.193   0.029  0.6012  2.2002  2.3621
 4714SOL    MW418624   1.368   3.150   0.063  0.5111  0.1764 -0.0993
 4715SOL     OW18625   3.598   1.728   0.670  0.2336 -0.3033 -0.1801
 4715SOL    HW218626   3.681   1.757   0.632 -0.1632  0.2701 -0.6365
 4715SOL    HW318627   3.573   1.799   0.729 -1.6815  1.2936 -2.6998
 4715SOL    MW418628   3.605   1.741   0.673  0.4169 -0.0837 -0.0475
 4716SOL     OW18629   3.632   0.482   0.728  0.5056  0.6150 -0.2798
 4716SOL    HW218630   3.561   0.437   0.682 -0.2191  0.5889  0.8406
 4716SOL    HW318631   3.711   0.434   0.702 -0.1498 -0.8270  0.2626
 4716SOL    MW418632   3.633   0.470   0.718  0.0844  0.6843  0.4005
 4717SOL     OW18633   6.367   2.570   6.140 -0.5444 -0.5014 -0.4052
 4717SOL    HW218634   6.411   2.650   6.111  0.2810 -0.4560  0.9214
 4717SOL    HW318635   6.278   2.579   6.107 -0.3577  0.7745 -0.6083
 4717SOL    MW418636   6.361   2.581   6.132  0.0855  0.4050  0.1074
 4718SOL     OW18637   2.135   0.193   0.158  0.4285  0.3110 -0.1922
 4718SOL    HW218638   2.184   0.178   0.239  1.8007  2.3036 -0.5909
 4718SOL    HW318639   2.087   0.274   0.174  0.0584  0.2777 -1.0933
 4718SOL    MW418640   2.135   0.201   0.171  0.3818  0.1023  0.3401
 4719SOL     OW18641   0.426   5.736   1.975  0.7685 -0.3786 -0.9082
 4719SOL    HW218642   0.355   5.798   1.956  1.3579  0.4788 -0.3953
 4719SOL    HW318643   0.488   5.749   1.904  1.4420  0.4816 -0.1847
 4719SOL    MW418644   0.425   5.746   1.963  0.2666 -0.4408  0.3452
 4720SOL     OW18645   5.352   4.446   0.992  0.0662  0.1358 -0.5565
 4720SOL    HW218646   5.330   4.480   0.905  0.5372 -2.3071 -1.7350
 4720SOL    HW318647   5.307   4.361   0.995 -0.4249  0.4162  1.8660
 4720SOL    MW418648   5.343   4.439   0.981 -0.1036  0.6369 -0.4135
 4721SOL     OW18649   0.790   3.998   4.336  0.3376 -0.1047  0.0404
 4721SOL    HW218650   0.775   3.919   4.388  1.3143  0.8814  1.9233
 4721SOL    HW318651   0.884   3.999   4.320  0.3149  0.6158 -0.0783
 4721SOL    MW418652   0.800   3.987   4.341 -0.2733 -0.3469  0.1193
 4722SOL     OW18653   3.821   5.828   2.355 -0.2562 -0.5054 -0.1481
 4722SOL    HW218654   3.876   5.805   2.430  0.4118  1.1796 -0.0725
 4722SOL    HW318655   3.873   5.804   2.279  0.7708  1.3434 -0.0800
 4722SOL    MW418656   3.835   5.822   2.355 -0.3898  0.0149 -0.5006
 4723SOL     OW18657   1.166   5.970   2.163  0.5091  0.0615 -0.8730
 4723SOL    HW218658   1.184   5.925   2.246 -0.4705  0.1567 -0.5962
 4723SOL    HW318659   1.071   5.976   2.160  0.5546  0.3656 -1.8522
 4723SOL    MW418660   1.156   5.965   2.174 -0.1473 -0.4768 -0.3094
 4724SOL     OW18661   0.514   0.535   5.446  0.8270 -0.5490 -0.2417
 4724SOL    HW218662   0.481   0.625   5.453  1.0418 -0.5739  1.4458
 4724SOL    HW318663   0.450   0.491   5.389  0.4961  0.5594 -0.7550
 4724SOL    MW418664   0.501   0.541   5.439  0.6937 -0.2210 -0.1892
 4725SOL     OW18665   4.127   1.944   0.910 -0.0251  0.0164 -0.4321
 4725SOL    HW218666   4.131   1.958   0.815  0.1532  1.8282 -0.1960
 4725SOL    HW318667   4.039   1.909   0.925 -0.8932  1.7557 -1.0941
 4725SOL    MW418668   4.116   1.941   0.899 -0.1378  0.3241  0.2082
 4726SOL     OW18669   1.233   2.795   4.739  0.6740  0.4349 -0.1817
 4726SOL    HW218670   1.145   2.804   4.703  0.5939  0.5073  0.0261
 4726SOL    HW318671   1.234   2.709   4.780  0.6893  0.4463 -0.1577
 4726SOL    MW418672   1.222   2.785   4.740 -0.2032 -0.1552 -0.2918
 4727SOL     OW18673   4.778   6.360   4.152 -0.2666  0.0800  0.3763
 4727SOL    HW218674   4.752   6.345   4.243 -0.4499  0.5928  0.4088
 4727SOL    HW318675   4.751   6.450   4.133 -0.0395  0.0485 -0.1199
 4727SOL    MW418676   4.771   6.370   4.161  0.1926 -0.2120  0.2306
 4728SOL     OW18677   2.415   0.243   4.532 -0.9645  0.3409 -0.3771
 4728SOL    HW218678   2.437   0.169   4.589  0.5263  0.4869 -0.7391
 4728SOL    HW318679   2.482   0.242   4.464 -2.1122  0.8063 -1.5505
 4728SOL    MW418680   2.426   0.233   4.530  0.5675 -0.0065  0.5195
 4729SOL     OW18681   3.577   6.276   3.794  0.9420  0.1396  0.1214
 4729SOL    HW218682   3.633   6.236   3.727 -1.1761 -1.0113 -1.0535
 4729SOL    HW318683   3.583   6.217   3.868 -0.0057 -0.9084 -0.6136
 4729SOL    MW418684   3.585   6.263   3.795 -0.6401  0.2961 -0.0491
 4730SOL     OW18685   5.676   1.656   3.353 -0.3478  0.0310  0.1547
 4730SOL    HW218686   5.720   1.733   3.318  0.6581 -0.1818  0.9202
 4730SOL    HW318687   5.744   1.607   3.397 -1.0486 -1.1225  0.0086
 4730SOL    MW418688   5.690   1.660   3.354  0.3886 -0.1999 -0.0812
 4731SOL     OW18689   5.966   5.785   0.509  0.1277  0.4559 -0.5938
 4731SOL    HW218690   5.937   5.829   0.429  0.9533  1.0142 -0.6062
 4731SOL    HW318691   6.062   5.789   0.505  0.1905 -0.0345  0.1377
 4731SOL    MW418692   5.975   5.791   0.498  0.0975  0.3121 -0.0493
 4732SOL     OW18693   2.312   2.088   2.974  0.5549 -0.2395  0.0282
 4732SOL    HW218694   2.354   2.149   2.914  1.2242 -0.6103  0.1064
 4732SOL    HW318695   2.378   2.020   2.988  0.3451 -0.2484  1.0380
 4732SOL    MW418696   2.326   2.087   2.968 -0.1727  0.0874 -0.2960
 4733SOL     OW18697   5.278   1.835   6.322  0.3413  0.2714  0.1210
 4733SOL    HW218698   5.358   1.832   6.269 -0.1051 -0.4085 -0.5451
 4733SOL    HW318699   5.306   1.869   6.407  1.5478 -0.9236  0.2399
 4733SOL    MW418700   5.292   1.839   6.326 -0.3000  0.0506 -0.0726
 4734SOL     OW18701   1.345   3.440   2.238 -0.0259  0.5260  0.1017
 4734SOL    HW218702   1.368   3.476   2.153 -0.6744 -0.6699 -0.6043
 4734SOL    HW318703   1.385   3.500   2.301  0.8180  1.1987 -1.0363
 4734SOL    MW418704   1.354   3.453   2.235 -0.4477  0.7278  0.1776
 4735SOL     OW18705   3.027   5.082   2.386 -0.2442  1.1448 -0.3142
 4735SOL    HW218706   2.940   5.082   2.427  0.3258  1.1246  0.9081
 4735SOL    HW318707   3.057   4.992   2.392  0.0417  1.2355 -0.3803
 4735SOL    MW418708   3.019   5.070   2.392  0.2654 -0.1401 -0.5120
 4736SOL     OW18709   3.161   5.312   3.618  0.3480  0.2441 -0.4492
 4736SOL    HW218710   3.107   5.263   3.678  0.2146  0.5590 -0.3097
 4736SOL    HW318711   3.232   5.347   3.672  1.1051 -0.7717 -0.7620
 4736SOL    MW418712   3.164   5.310   3.633 -0.2538  0.2395 -0.1068
 4737SOL     OW18713   4.824   1.485   2.573 -0.3979 -0.4501 -0.0264
 4737SOL    HW218714   4.788   1.399   2.592 -2.4097  0.1452 -0.8952
 4737SOL    HW318715   4.819   1.532   2.657 -1.2568 -0.5180 -0.0390
 4737SOL    MW418716   4.819   1.480   2.587 -0.5006 -0.1386 -0.1388
 4738SOL     OW18717   5.056   6.146   2.165 -0.0672  0.4700  0.2185
 4738SOL    HW218718   5.137   6.102   2.188 -0.1899  1.9114  4.2299
 4738SOL    HW318719   5.084   6.228   2.124  0.3330 -0.4679 -1.4512
 4738SOL    MW418720   5.070   6.151   2.163  0.1485 -0.0338 -0.5173
 4739SOL     OW18721   3.434   4.402   1.841  0.2368  0.9586  0.1123
 4739SOL    HW218722   3.406   4.484   1.800 -0.2885  0.6799 -0.0837
 4739SOL    HW318723   3.354   4.351   1.852  0.7487 -0.2248 -1.2960
 4739SOL    MW418724   3.420   4.406   1.837 -0.2644 -0.1737 -0.2040
 4740SOL     OW18725   4.183   5.326   2.241 -0.2176 -0.1333  0.2383
 4740SOL    HW218726   4.122   5.262   2.204 -0.0103 -0.2331  0.0624
 4740SOL    HW318727   4.179   5.312   2.335 -2.7346  1.8765  0.5525
 4740SOL    MW418728   4.174   5.316   2.249  0.1532 -0.4504 -0.1814
 4741SOL     OW18729   5.379   5.486   3.057  0.4319  0.0879  0.3814
 4741SOL    HW218730   5.392   5.408   3.111  0.7610 -0.5889 -0.6252
 4741SOL    HW318731   5.381   5.452   2.967 -0.5721  1.0977 -0.0436
 4741SOL    MW418732   5.381   5.471   3.052  0.3995  0.4704  0.8139
 4742SOL     OW18733   0.563   0.589   2.841 -0.5311 -0.1757 -0.1573
 4742SOL    HW218734   0.552   0.646   2.765 -0.8714 -1.3666 -1.0382
 4742SOL    HW318735   0.523   0.638   2.914 -0.8868  0.6589 -0.8926
 4742SOL    MW418736   0.556   0.603   2.841 -0.1043 -0.2953 -0.2540
 4743SOL     OW18737   4.374   5.270   0.532  0.0940 -0.1066  0.1954
 4743SOL    HW218738   4.443   5.203   0.534 -0.7507 -1.0609 -1.0861
 4743SOL    HW318739   4.416   5.347   0.495  0.5962 -0.5478 -0.1755
 4743SOL    MW418740   4.388   5.271   0.528  0.1025  0.0774  0.3843
 4744SOL     OW18741   2.997   6.094   1.185  0.1859  0.7987  0.1051
 4744SOL    HW218742   3.055   6.157   1.141  2.4403 -0.1717  1.4954
 4744SOL    HW318743   3.019   6.102   1.278 -0.9106 -0.6263  0.5254
 4744SOL    MW418744   3.007   6.103   1.191  0.9119  0.7708  0.2710
 4745SOL     OW18745   1.949   5.001   6.215  0.1777 -0.0020  0.0167
 4745SOL    HW218746   1.901   5.004   6.132 -1.1419  2.2312  0.7734
 4745SOL    HW318747   2.019   5.065   6.205  0.4872 -0.2752  0.3815
 4745SOL    MW418748   1.952   5.009   6.203 -0.1135  0.0893  0.1776
 4746SOL     OW18749   6.296   5.430   0.618 -0.1615 -0.0993 -0.3333
 4746SOL    HW218750   6.385   5.398   0.610 -0.0270  0.1093  0.2662
 4746SOL    HW318751   6.300   5.520   0.583 -0.0184  0.0931  0.1657
 4746SOL    MW418752   6.308   5.438   0.612 -0.0879 -0.2295  0.5089
 4747SOL     OW18753   5.805   5.628   1.572 -0.0620 -0.4977 -0.2013
 4747SOL    HW218754   5.818   5.551   1.629 -0.0457  1.9735  3.4637
 4747SOL    HW318755   5.893   5.665   1.563 -0.3993  0.3895  0.1247
 4747SOL    MW418756   5.819   5.623   1.578 -0.1377  0.0091 -0.5171
 4748SOL     OW18757   2.628   2.631   5.869  0.1528  0.1196  0.0988
 4748SOL    HW218758   2.602   2.719   5.898 -3.0454 -1.0282  1.1399
 4748SOL    HW318759   2.568   2.610   5.797 -1.6990 -2.4579  2.1815
 4748SOL    MW418760   2.617   2.640   5.863 -0.3703  0.0390  0.4364
 4749SOL     OW18761   1.670   5.834   3.614  0.2614  0.1601  0.5473
 4749SOL    HW218762   1.641   5.888   3.687 -2.2316 -0.2265 -0.0840
 4749SOL    HW318763   1.667   5.892   3.538  0.5782 -0.0597  0.3648
 4749SOL    MW418764   1.666   5.849   3.614  0.2749  0.3234 -0.0375
 4750SOL     OW18765   2.225   2.754   3.029 -0.1078 -0.8180 -0.3059
 4750SOL    HW218766   2.164   2.747   3.103  0.2103 -1.0792 -0.0682
 4750SOL    HW318767   2.204   2.838   2.989  0.3416 -0.2375  0.6371
 4750SOL    MW418768   2.214   2.764   3.033  0.4426 -0.6523 -0.3051
 4751SOL     OW18769   0.943   2.584   0.973 -0.4256 -0.0276  0.2244
 4751SOL    HW218770   0.880   2.512   0.979 -1.4309  0.5828 -1.9241
 4751SOL    HW318771   0.892   2.662   0.992 -0.2176  0.4281 -1.0063
 4751SOL    MW418772   0.928   2.585   0.976  0.4642  0.1188 -0.1585
 4752SOL     OW18773   5.063   2.670   2.979 -0.5836 -0.4426  0.1089
 4752SOL    HW218774   4.970   2.694   2.977 -0.6103 -0.5744 -0.6827
 4752SOL    HW318775   5.063   2.575   2.990 -0.7435 -1.2182 -4.5111
 4752SOL    MW418776   5.051   2.661   2.980 -0.6666 -0.7993 -0.2120
 4753SOL     OW18777   3.724   2.692   0.512  0.3831 -0.1622 -0.7366
 4753SOL    HW218778   3.655   2.749   0.545  1.4238  0.7059  0.0031
 4753SOL    HW318779   3.714   2.693   0.417 -0.4182  0.2055 -0.6488
 4753SOL    MW418780   3.714   2.699   0.504 -0.1612 -0.4182 -0.4414
 4754SOL     OW18781   3.534   3.197   3.308  0.1481  0.1975  0.2822
 4754SOL    HW218782   3.456   3.146   3.285 -0.4577  0.1494  2.2222
 4754SOL    HW318783   3.498   3.276   3.350  1.1217  1.1503 -0.6204
 4754SOL    MW418784   3.519   3.201   3.311 -0.5357 -0.0309 -0.1743
 4755SOL     OW18785   3.400   1.056   2.918 -0.2218 -0.0735  0.4409
 4755SOL    HW218786   3.485   1.091   2.892 -0.0415  0.8176  2.1327
 4755SOL    HW318787   3.338   1.126   2.896 -0.8027 -1.2473 -2.1097
 4755SOL    MW418788   3.403   1.070   2.912  0.0551  0.1004 -0.5573
 4756SOL     OW18789   5.402   0.600   0.442  0.1360 -1.0064  0.0605
 4756SOL    HW218790   5.359   0.612   0.357  1.1452 -2.2673 -0.6629
 4756SOL    HW318791   5.427   0.688   0.469 -1.7481 -0.3760 -0.0950
 4756SOL    MW418792   5.399   0.613   0.434 -0.4102 -0.5105 -0.8750
 4757SOL     OW18793   3.089   1.409   6.347 -0.1540  0.0040  0.5190
 4757SOL    HW218794   3.141   1.356   6.288 -0.6875  0.4261 -0.3432
 4757SOL    HW318795   3.099   1.499   6.315 -1.6058  0.0646  0.1557
 4757SOL    MW418796   3.097   1.414   6.335 -0.5640  0.0456 -0.1650
 4758SOL     OW18797   3.851   5.285   1.747  0.4277 -0.4686 -0.1297
 4758SOL    HW218798   3.938   5.252   1.724 -0.6371 -1.2014 -3.5331
 4758SOL    HW318799   3.801   5.207   1.770  0.3573 -0.1442  0.8832
 4758SOL    MW418800   3.856   5.271   1.747 -0.0431  0.1360  0.1483
 4759SOL     OW18801   3.248   4.167   2.995  0.0041  0.0536 -0.1317
 4759SOL    HW218802   3.231   4.129   3.081 -2.5466 -0.1021 -0.6212
 4759SOL    HW318803   3.333   4.132   2.969  0.6111 -0.2847  2.0779
 4759SOL    MW418804   3.257   4.157   3.003 -0.3398 -0.5636  0.5145
 4760SOL     OW18805   4.577   1.009   5.798 -0.2853  0.0584 -0.3172
 4760SOL    HW218806   4.557   1.059   5.877  2.2848  1.2167 -0.2901
 4760SOL    HW318807   4.498   1.016   5.744 -1.6779  0.1781  1.6400
 4760SOL    MW418808   4.564   1.017   5.801 -0.0035  0.1121 -0.2243
 4761SOL     OW18809   1.271   6.210   4.237 -0.6694  0.5669  0.1386
 4761SOL    HW218810   1.193   6.200   4.182 -0.8978  2.8536 -0.0183
 4761SOL    HW318811   1.243   6.268   4.308  0.2545 -0.5087  1.4325
 4761SOL    MW418812   1.257   6.216   4.239  0.0445 -0.2544 -0.7097
 4762SOL     OW18813   4.324   5.367   3.302 -0.4224 -0.7448  0.1078
 4762SOL    HW218814   4.236   5.363   3.263 -0.7210 -0.6477  0.7498
 4762SOL    HW318815   4.327   5.291   3.361 -0.7051  0.1775  1.3515
 4762SOL    MW418816   4.312   5.356   3.305 -0.7049 -0.5999 -0.3262
 4763SOL     OW18817   4.684   2.642   4.626  0.1041 -0.6139 -0.0459
 4763SOL    HW218818   4.673   2.670   4.535  1.4268 -1.0998 -0.3742
 4763SOL    HW318819   4.596   2.651   4.664 -0.7579 -1.5354 -1.6773
 4763SOL    MW418820   4.671   2.647   4.619  0.1619 -0.1691  0.0585
 4764SOL     OW18821   2.617   1.919   2.417 -0.0325 -0.2993 -0.2084
 4764SOL    HW218822   2.600   1.830   2.446  0.0267 -0.3415 -0.3020
 4764SOL    HW318823   2.643   1.966   2.497 -1.8238  0.0953  0.1782
 4764SOL    MW418824   2.618   1.914   2.432 -0.3149 -0.1822 -0.3278
 4765SOL     OW18825   2.633   1.826   1.109  0.4373  0.0107 -0.3457
 4765SOL    HW218826   2.596   1.753   1.059  0.6398  0.4380 -1.1306
 4765SOL    HW318827   2.721   1.836   1.074  0.7709 -0.0115  0.4614
 4765SOL    MW418828   2.640   1.818   1.098  0.1282 -0.0159 -0.3059
 4766SOL     OW18829   0.004   4.972   2.947 -0.2515  0.4522 -0.0359
 4766SOL    HW218830   0.050   4.981   3.030 -1.0230  1.8034  0.2699
 4766SOL    HW318831  -0.041   5.055   2.935 -3.2388 -1.0277  0.0520
 4766SOL    MW418832   0.004   4.984   2.956 -0.4240 -0.4016  0.0274
 4767SOL     OW18833   5.834   5.748   3.711  0.7464  0.3943  0.5390
 4767SOL    HW218834   5.853   5.686   3.640  0.3102  1.0473 -0.1576
 4767SOL    HW318835   5.752   5.717   3.748 -0.6041  1.7342 -1.1891
 4767SOL    MW418836   5.826   5.736   3.706 -0.5455 -0.4433 -0.1770
 4768SOL     OW18837   0.833   2.700   2.106  0.3151  0.4694  0.3796
 4768SOL    HW218838   0.911   2.752   2.126 -0.9062  1.9088  1.6790
 4768SOL    HW318839   0.819   2.715   2.012  0.0571  2.4672  0.7002
 4768SOL    MW418840   0.842   2.709   2.096  0.5337 -0.6190  0.5411
 4769SOL     OW18841   4.029   4.105   3.179  0.2437 -0.1072  0.2058
 4769SOL    HW218842   4.073   4.038   3.127  1.1062  0.9741 -0.5217
 4769SOL    HW318843   4.057   4.088   3.269  1.2505 -0.1327 -0.1020
 4769SOL    MW418844   4.039   4.094   3.184 -0.0744 -0.1397 -0.3081
 4770SOL     OW18845   6.080   5.998   6.221  0.2659  0.0783 -0.2795
 4770SOL    HW218846   6.060   5.976   6.130  1.1493 -0.5339 -0.3419
 4770SOL    HW318847   5.995   6.003   6.265 -0.1812  0.5255 -1.1631
 4770SOL    MW418848   6.066   5.996   6.215 -0.4757 -0.3874 -0.5331
 4771SOL     OW18849   6.214   1.261   5.940  0.1966 -0.0773  0.2183
 4771SOL    HW218850   6.278   1.264   5.869 -0.2822  0.3418 -0.2014
 4771SOL    HW318851   6.263   1.291   6.017  0.8640 -1.0424  0.1891
 4771SOL    MW418852   6.229   1.265   5.941 -0.2548  0.2635 -0.4289
 4772SOL     OW18853   4.117   3.683   0.089  0.8541  0.1880 -0.4760
 4772SOL    HW218854   4.087   3.764   0.130  0.7069  0.1643 -0.5336
 4772SOL    HW318855   4.044   3.622   0.101  1.7102 -0.5670  1.3235
 4772SOL    MW418856   4.103   3.686   0.096  0.4187  0.0033  0.0931
 4773SOL     OW18857   5.112   1.451   4.911 -0.5844 -0.4608 -0.6580
 4773SOL    HW218858   5.044   1.402   4.958  0.0899 -1.5005 -0.7374
 4773SOL    HW318859   5.101   1.542   4.941 -2.2297 -0.5426 -0.9594
 4773SOL    MW418860   5.102   1.457   4.921 -0.2769 -0.3907 -0.0800
 4774SOL     OW18861   5.439   2.620   3.992 -0.1111 -0.1487  0.6881
 4774SOL    HW218862   5.469   2.562   4.063  0.7160 -0.8992 -0.2427
 4774SOL    HW318863   5.407   2.560   3.924  2.0724  0.3543 -0.8908
 4774SOL    MW418864   5.439   2.604   3.992 -0.3208 -0.3436  0.1760
 4775SOL     OW18865   0.803   4.848   4.855  0.3975 -0.4833 -0.6175
 4775SOL    HW218866   0.894   4.818   4.864  0.7809 -0.3717 -3.3163
 4775SOL    HW318867   0.754   4.769   4.832  0.2321 -0.1486 -1.4229
 4775SOL    MW418868   0.809   4.833   4.853  0.4229  0.7175 -0.3109
 4776SOL     OW18869   6.206   0.734   5.178 -0.1403 -0.1633 -0.4652
 4776SOL    HW218870   6.124   0.755   5.224  0.6874  1.1626  0.4931
 4776SOL    HW318871   6.207   0.793   5.102  0.8589  1.4037  0.6832
 4776SOL    MW418872   6.195   0.745   5.174  0.3612  0.3978  0.4654
 4777SOL     OW18873   2.254   2.969   6.027 -0.6393 -0.0609 -0.6745
 4777SOL    HW218874   2.163   2.980   6.001 -0.8260  0.7002  0.2215
 4777SOL    HW318875   2.302   3.037   5.978 -0.6550 -0.0490 -0.6732
 4777SOL    MW418876   2.249   2.980   6.017 -0.1961  0.5113  0.3387
 4778SOL     OW18877   6.313   3.576   3.548  0.0863  0.4947  0.2027
 4778SOL    HW218878   6.230   3.572   3.500  0.7373  0.3785 -0.9549
 4778SOL    HW318879   6.379   3.588   3.480  1.0680  0.1385  1.0717
 4778SOL    MW418880   6.311   3.577   3.533  0.0250  0.9866 -0.0115
 4779SOL     OW18881   0.014   4.209   1.178  0.3346  0.1367 -0.0434
 4779SOL    HW218882   0.094   4.251   1.146  0.9200 -0.0803  1.0862
 4779SOL    HW318883  -0.029   4.277   1.230 -0.2692  0.2752 -0.7017
 4779SOL    MW418884   0.019   4.224   1.181 -0.1018  0.1856  0.3672
 4780SOL     OW18885   1.983   2.366   6.328  0.0831  0.0742 -0.3290
 4780SOL    HW218886   1.908   2.331   6.376  0.3650 -0.1840 -0.0707
 4780SOL    HW318887   2.060   2.337   6.378  0.3223  1.6665  0.3094
 4780SOL    MW418888   1.984   2.358   6.341 -0.4831  0.5935  0.5754
 4781SOL     OW18889   1.771   3.962   2.089 -0.1559 -0.1333  0.2297
 4781SOL    HW218890   1.787   4.023   2.162 -1.2876 -0.6617  0.9516
 4781SOL    HW318891   1.855   3.958   2.043 -0.1745  2.3493 -0.1606
 4781SOL    MW418892   1.784   3.970   2.093  0.9514  0.0102  0.2274
 4782SOL     OW18893   4.045   0.639   1.896  0.0897  0.0412  0.2504
 4782SOL    HW218894   3.962   0.590   1.891 -0.5749  0.5601  3.5781
 4782SOL    HW318895   4.113   0.572   1.892 -0.6376 -0.7314  0.5499
 4782SOL    MW418896   4.043   0.624   1.895  0.1945 -0.5640  0.0799
 4783SOL     OW18897   0.781   5.289   1.112 -0.2981  0.5725 -0.2679
 4783SOL    HW218898   0.798   5.322   1.023  2.7646  1.5543  0.5648
 4783SOL    HW318899   0.733   5.360   1.155  1.1925  1.5900 -0.2000
 4783SOL    MW418900   0.777   5.303   1.106 -0.7536 -0.1139  0.1889
 4784SOL     OW18901   4.674   3.337   6.124 -0.0937 -0.2891  0.2090
 4784SOL    HW218902   4.681   3.246   6.093 -0.3839 -0.1658 -0.2406
 4784SOL    HW318903   4.696   3.389   6.047  1.3999  0.0195  0.8195
 4784SOL    MW418904   4.678   3.332   6.109  0.3475  0.0086 -0.4712
 4785SOL     OW18905   2.998   2.111   2.848  0.0870 -0.4778  0.1501
 4785SOL    HW218906   2.926   2.051   2.865 -0.5104  0.3310  0.5171
 4785SOL    HW318907   2.959   2.198   2.855  1.2353 -0.0063  0.9990
 4785SOL    MW418908   2.983   2.115   2.851 -0.2398  0.3059 -0.3745
 4786SOL     OW18909   5.515   6.128   5.518  0.0349  0.4669 -0.3823
 4786SOL    HW218910   5.485   6.126   5.427  1.4069  0.6834 -0.8517
 4786SOL    HW318911   5.540   6.038   5.537 -0.5380  0.3585 -0.1008
 4786SOL    MW418912   5.514   6.116   5.508 -0.4775  0.1528  0.2803
 4787SOL     OW18913   0.642   1.483   5.593  0.2928  0.1562  0.1799
 4787SOL    HW218914   0.667   1.457   5.681 -1.7919 -0.0076  0.7776
 4787SOL    HW318915   0.650   1.403   5.541 -0.5233 -0.2854  0.7172
 4787SOL    MW418916   0.646   1.469   5.597 -0.4196  0.2964 -0.9951
 4788SOL     OW18917   2.665   5.046   4.244  0.2154  0.9039 -0.3727
 4788SOL    HW218918   2.603   5.115   4.224 -1.1357 -0.0534  0.3547
 4788SOL    HW318919   2.618   4.965   4.224  1.0019  0.1408  0.7529
 4788SOL    MW418920   2.651   5.044   4.239 -0.0599 -0.5759 -0.3045
 4789SOL     OW18921   3.133   4.250   5.542 -0.2820  0.1520  0.0925
 4789SOL    HW218922   3.164   4.161   5.560 -0.9001  0.2788  2.1392
 4789SOL    HW318923   3.207   4.306   5.564 -0.3707  0.2063  0.2555
 4789SOL    MW418924   3.147   4.246   5.547  0.6634 -0.4923 -0.0753
 4790SOL     OW18925   1.659   1.686   4.078  0.8750 -0.3647 -0.0991
 4790SOL    HW218926   1.596   1.666   4.008  1.4696 -1.7479 -0.2877
 4790SOL    HW318927   1.622   1.761   4.124 -1.4254 -1.7351  0.4242
 4790SOL    MW418928   1.646   1.693   4.075  0.4476  0.5729  0.2033
 4791SOL     OW18929   2.922   2.505   0.722 -0.4696  0.0603 -0.0008
 4791SOL    HW218930   2.879   2.438   0.776  1.1083 -0.6472  0.4553
 4791SOL    HW318931   2.964   2.563   0.785  1.7530 -1.0164 -0.3805
 4791SOL    MW418932   2.922   2.504   0.738  0.5776 -0.3418  0.2941
 4792SOL     OW18933   5.462   5.033   0.813  0.1337 -0.0348  0.2929
 4792SOL    HW218934   5.458   4.995   0.901  1.2248 -1.5577 -0.2672
 4792SOL    HW318935   5.554   5.056   0.801 -0.0351  0.3211 -0.3916
 4792SOL    MW418936   5.473   5.031   0.823  0.2501  0.1454 -0.0697
 4793SOL     OW18937   5.920   1.194   5.635 -0.0967 -0.3431 -0.0650
 4793SOL    HW218938   5.903   1.208   5.729  1.1390 -2.8434  0.6133
 4793SOL    HW318939   5.834   1.174   5.599 -0.4493 -0.3684  0.7551
 4793SOL    MW418940   5.906   1.193   5.643 -0.0963  0.5619 -0.0377
 4794SOL     OW18941   0.104   0.926   4.647 -0.3211 -0.6190  0.6635
 4794SOL    HW218942   0.052   1.003   4.625  0.1838 -0.2924  0.6100
 4794SOL    HW318943   0.181   0.931   4.589  0.0840 -0.7586  1.1838
 4794SOL    MW418944   0.107   0.937   4.636 -0.2946 -0.1332  0.0081
 4795SOL     OW18945   2.598   0.830   2.970 -0.0252 -0.0622  0.2601
 4795SOL    HW218946   2.585   0.811   3.063  0.1755  1.9777  0.7526
 4795SOL    HW318947   2.679   0.880   2.966 -0.0451 -0.0852 -1.0143
 4795SOL    MW418948   2.607   0.834   2.981 -0.8934  0.5423  0.8468
 4796SOL     OW18949   4.072   3.188   5.336 -0.2387  0.3514 -0.6625
 4796SOL    HW218950   4.088   3.129   5.263 -1.1928  0.2740 -0.8266
 4796SOL    HW318951   4.025   3.134   5.400 -1.4078  0.9846 -0.9482
 4796SOL    MW418952   4.068   3.173   5.335  0.1828 -0.7663  0.3180
 4797SOL     OW18953   4.485   1.016   0.804  0.4267  0.0094 -0.5309
 4797SOL    HW218954   4.428   0.957   0.853  0.7930 -1.4454 -1.7707
 4797SOL    HW318955   4.526   1.071   0.870 -1.9806  0.7515  0.4475
 4797SOL    MW418956   4.483   1.015   0.819  0.5686 -0.0409  0.1037
 4798SOL     OW18957   3.055   0.161   1.982 -0.5034  0.4164 -0.1759
 4798SOL    HW218958   2.975   0.203   1.952 -0.6378  0.1730 -0.1657
 4798SOL    HW318959   3.034   0.126   2.068 -1.6593 -3.0157 -1.6648
 4798SOL    MW418960   3.042   0.162   1.989  0.8124  0.1536 -0.2392
 4799SOL     OW18961   4.475   0.797   5.218 -0.3342  0.1696 -0.3607
 4799SOL    HW218962   4.485   0.792   5.123 -1.5204 -0.2157 -0.4898
 4799SOL    HW318963   4.402   0.738   5.237  1.0516 -1.1816  1.0180
 4799SOL    MW418964   4.467   0.788   5.208 -0.1451 -0.3090  0.5383
 4800SOL     OW18965   1.829   1.086   3.730 -0.3211 -0.3230 -0.2827
 4800SOL    HW218966   1.853   1.028   3.657 -0.5808 -1.2946  0.3781
 4800SOL    HW318967   1.913   1.116   3.765 -0.1401 -1.2551  0.1056
 4800SOL    MW418968   1.843   1.082   3.725 -0.7674  0.3669  0.2202
 4801SOL     OW18969   1.203   2.459   0.966 -0.5756  0.3002  0.4190
 4801SOL    HW218970   1.153   2.535   0.996  0.4698  0.5595  1.6322
 4801SOL    HW318971   1.199   2.397   1.038 -0.3322 -0.2569 -0.0342
 4801SOL    MW418972   1.196   2.461   0.979  0.6367  0.2997 -0.7368
 4802SOL     OW18973   6.241   5.887   5.647  0.0557 -0.0675 -0.0402
 4802SOL    HW218974   6.289   5.944   5.587  0.6775 -0.7119 -0.1756
 4802SOL    HW318975   6.158   5.931   5.662  0.8337  1.2755  0.4850
 4802SOL    MW418976   6.236   5.900   5.641  0.3690 -0.1164  0.2286
 4803SOL     OW18977   4.571   5.610   1.595  0.1638  0.0671  0.2703
 4803SOL    HW218978   4.556   5.677   1.662 -0.8767  0.6383 -0.5004
 4803SOL    HW318979   4.527   5.532   1.629 -1.4174  0.6788 -0.2307
 4803SOL    MW418980   4.563   5.609   1.608  0.7311  0.5629 -0.3383
 4804SOL     OW18981   1.857   2.745   1.005  0.7069 -0.5139 -0.1823
 4804SOL    HW218982   1.873   2.673   0.944 -2.4470 -0.5068 -1.2039
 4804SOL    HW318983   1.770   2.727   1.041 -1.2097  3.6715 -2.0373
 4804SOL    MW418984   1.848   2.733   1.002  0.1893  0.5403 -0.2685
 4805SOL     OW18985   1.252   3.986   2.811 -0.5619 -0.1525  0.4114
 4805SOL    HW218986   1.285   3.918   2.752  0.4886 -1.4775  2.4151
 4805SOL    HW318987   1.330   4.023   2.852 -1.1997  1.5508  0.1463
 4805SOL    MW418988   1.266   3.982   2.809  0.0392  0.0080 -0.0746
 4806SOL     OW18989   4.653   1.576   3.011 -0.2277 -0.4546  0.0891
 4806SOL    HW218990   4.696   1.597   2.928  1.4131 -0.6187  0.8662
 4806SOL    HW318991   4.633   1.661   3.049 -0.8494 -0.3779 -0.3877
 4806SOL    MW418992   4.656   1.590   3.005 -0.1001  0.0554  0.1488
 4807SOL     OW18993   4.945   0.589   2.176  0.4401 -0.2231  0.6606
 4807SOL    HW218994   4.883   0.517   2.193  1.2575 -0.8013  1.2778
 4807SOL    HW318995   4.948   0.638   2.259 -0.6077  0.9397  0.0464
 4807SOL    MW418996   4.937   0.586   2.189  0.3098 -0.2921 -0.2391
 4808SOL     OW18997   4.779   0.759   4.889  0.0425  0.3034  0.0501
 4808SOL    HW218998   4.867   0.774   4.923 -0.4182  0.1325  1.3882
 4808SOL    HW318999   4.791   0.701   4.814  1.0130 -0.4660  0.7720
 4808SOL    MW419000   4.792   0.753   4.884 -0.1718 -0.1305 -0.4334
 4809SOL     OW19001   5.574   2.487   2.464 -0.3038  0.4198 -0.1275
 4809SOL    HW219002   5.518   2.409   2.461  1.1427 -0.6586 -3.5542
 4809SOL    HW319003   5.659   2.454   2.493 -0.5321  1.4448  1.8233
 4809SOL    MW419004   5.578   2.472   2.468 -0.6702  0.3258 -0.2552
 4810SOL     OW19005   3.359   3.811   6.407 -0.1768 -0.3446  0.4387
 4810SOL    HW219006   3.322   3.842   6.324  0.3101 -2.4913 -0.6323
 4810SOL    HW319007   3.452   3.801   6.390  0.2446  0.8784  1.8230
 4810SOL    MW419008   3.366   3.814   6.394  0.6962 -0.1699  0.0329
 4811SOL     OW19009   6.400   3.988   4.963  0.3005 -0.0003 -0.8446
 4811SOL    HW219010   6.481   3.944   4.989 -0.6677 -1.6463 -0.5128
 4811SOL    HW319011   6.422   4.082   4.965  1.8236 -0.3474  0.4886
 4811SOL    MW419012   6.414   3.995   4.967  0.5423  0.1088  0.2559
 4812SOL     OW19013   0.856   1.668   5.539  0.3391 -0.7564  0.0504
 4812SOL    HW219014   0.820   1.746   5.581  1.9215  0.4399 -0.6755
 4812SOL    HW319015   0.804   1.595   5.573 -2.1930  0.7308 -0.3659
 4812SOL    MW419016   0.845   1.669   5.549 -0.3133  0.3036 -0.4607
 4813SOL     OW19017   3.792   4.413   6.312 -0.1441  0.6572  0.6082
 4813SOL    HW219018   3.748   4.429   6.229 -1.0839 -0.2834  0.9082
 4813SOL    HW319019   3.749   4.336   6.348  0.4218  0.8943  1.8524
 4813SOL    MW419020   3.780   4.405   6.306 -0.9130  0.2272 -0.4242
 4814SOL     OW19021   3.084   0.821   0.972 -0.3037  0.2136  0.3120
 4814SOL    HW219022   2.989   0.824   0.977 -0.4003 -0.3507 -0.9123
 4814SOL    HW319023   3.103   0.763   0.898  0.9563  2.2591 -1.0821
 4814SOL    MW419024   3.074   0.814   0.963 -0.2174  0.4076  0.2021
 4815SOL     OW19025   1.877   5.678   0.847 -0.1537 -0.0940 -0.4457
 4815SOL    HW219026   1.955   5.733   0.857  0.8463 -1.4236 -0.6121
 4815SOL    HW319027   1.911   5.594   0.815 -1.8505 -0.0637 -2.6009
 4815SOL    MW419028   1.892   5.674   0.844  0.0853  0.1244 -0.0763
 4816SOL     OW19029   6.153   4.221   1.503  0.4458 -0.4320 -0.1878
 4816SOL    HW219030   6.151   4.166   1.424 -0.9565 -0.8671  0.1281
 4816SOL    HW319031   6.061   4.228   1.530  0.8078  0.4985  0.8739
 4816SOL    MW419032   6.141   4.215   1.496  0.1386  0.1688  0.5137
 4817SOL     OW19033   1.918   1.384   1.608 -0.3149  0.1698 -0.6210
 4817SOL    HW219034   1.841   1.360   1.556 -4.0338 -1.0548  4.6353
 4817SOL    HW319035   1.914   1.479   1.614 -1.7895  0.0991 -0.0404
 4817SOL    MW419036   1.907   1.393   1.602 -0.3233  0.5830 -0.0794
 4818SOL     OW19037   5.756   1.159   1.260 -0.2784  0.3034 -0.1967
 4818SOL    HW219038   5.665   1.177   1.283  0.3097  1.8791  1.1095
 4818SOL    HW319039   5.803   1.240   1.282  1.7781 -1.1616  1.1728
 4818SOL    MW419040   5.751   1.172   1.266  0.1314 -0.1118  0.2045
 4819SOL     OW19041   3.147   6.367   6.148  0.7066 -0.4796 -0.4986
 4819SOL    HW219042   3.075   6.413   6.104  1.0846 -0.4667 -1.1236
 4819SOL    HW319043   3.154   6.409   6.233  0.3728 -0.0706 -0.6693
 4819SOL    MW419044   3.138   6.378   6.153 -0.2232 -0.5304 -0.7664
 4820SOL     OW19045   2.642   3.516   1.080  0.0711  0.1682  0.1414
 4820SOL    HW219046   2.602   3.603   1.081 -1.3188 -0.4412 -0.2506
 4820SOL    HW319047   2.696   3.516   1.001 -1.8113 -0.1009 -1.2137
 4820SOL    MW419048   2.644   3.527   1.070  0.5761  0.5818 -0.4512
 4821SOL     OW19049   6.176   2.531   3.935 -0.2608 -0.5688  0.7782
 4821SOL    HW219050   6.246   2.494   3.989  0.8223 -0.7307 -0.6789
 4821SOL    HW319051   6.130   2.455   3.900  0.7926 -0.5676 -0.7128
 4821SOL    MW419052   6.179   2.516   3.938 -0.1300 -0.2198 -0.1266
 4822SOL     OW19053   5.858   4.795   1.125  0.3172 -0.1185 -0.0748
 4822SOL    HW219054   5.922   4.725   1.109  0.6646  0.0393  0.5441
 4822SOL    HW319055   5.794   4.756   1.185 -0.0402 -0.2042 -0.5096
 4822SOL    MW419056   5.858   4.780   1.131 -0.1589  0.0223  0.0435
 4823SOL     OW19057   2.071   5.116   5.941 -0.7119 -0.0721  0.1628
 4823SOL    HW219058   2.008   5.096   5.871  0.1779  0.0770 -0.7124
 4823SOL    HW319059   2.040   5.199   5.978 -1.3708 -0.3125  0.1534
 4823SOL    MW419060   2.059   5.124   5.936 -0.4387 -0.4446  0.1419
 4824SOL     OW19061   5.601   0.671   3.844 -0.1110  0.6840 -0.6257
 4824SOL    HW219062   5.572   0.612   3.774  1.1166 -1.5458  0.6289
 4824SOL    HW319063   5.526   0.677   3.903 -0.0149 -0.2689 -0.3881
 4824SOL    MW419064   5.588   0.664   3.842  0.0843  0.5915 -0.3407
 4825SOL     OW19065   2.022   4.433   4.860  0.3779 -0.2696  0.7162
 4825SOL    HW219066   2.107   4.426   4.903  0.8532  1.9103  0.2465
 4825SOL    HW319067   1.963   4.466   4.928  0.2221 -0.4842  0.6871
 4825SOL    MW419068   2.025   4.437   4.874 -0.1632  0.0715 -0.4661
 4826SOL     OW19069   5.168   2.756   0.745  0.2663 -0.7162  0.1957
 4826SOL    HW219070   5.141   2.847   0.757  1.6190 -0.0112 -1.5892
 4826SOL    HW319071   5.222   2.736   0.822 -1.6737 -0.7363  1.6237
 4826SOL    MW419072   5.172   2.765   0.757 -0.2502  0.2508  0.0998
 4827SOL     OW19073   3.363   6.046   4.445 -0.1883  0.4574 -0.1397
 4827SOL    HW219074   3.382   6.105   4.372 -0.6772  1.5247  0.5706
 4827SOL    HW319075   3.404   6.087   4.521 -0.3199 -0.2546  0.3235
 4827SOL    MW419076   3.371   6.059   4.445 -0.2202 -0.2136  0.3145
 4828SOL     OW19077   2.583   2.678   2.508  0.3059 -0.4215 -0.9644
 4828SOL    HW219078   2.506   2.706   2.557  1.2001  0.4746 -0.0105
 4828SOL    HW319079   2.597   2.587   2.534 -0.5361 -0.6512 -1.2980
 4828SOL    MW419080   2.574   2.670   2.518  0.5392 -0.4114  0.2788
 4829SOL     OW19081   0.747   2.874   5.031  0.0279  0.4262 -0.2113
 4829SOL    HW219082   0.744   2.960   4.990 -2.1495  0.7459  0.5017
 4829SOL    HW319083   0.840   2.858   5.048  0.4061  3.1447  0.6865
 4829SOL    MW419084   0.759   2.883   5.028  0.0141 -0.1290  0.7438
 4830SOL     OW19085   1.598   2.412   4.096  0.3341  0.6852  0.2140
 4830SOL    HW219086   1.526   2.407   4.159  0.1996 -2.3703 -0.0701
 4830SOL    HW319087   1.573   2.482   4.036 -1.6546  0.6928  0.9964
 4830SOL    MW419088   1.585   2.421   4.097  0.0402 -0.0332  0.7439
 4831SOL     OW19089   1.472   1.904   1.361  0.1168  0.0143  0.0765
 4831SOL    HW219090   1.526   1.977   1.330 -0.7569  1.3192  1.4796
 4831SOL    HW319091   1.388   1.916   1.317 -0.8628  1.4006  2.1665
 4831SOL    MW419092   1.468   1.915   1.351  0.3780 -0.3024  0.2253
 4832SOL     OW19093   3.736   0.937   4.113  0.1408 -0.2407 -0.8836
 4832SOL    HW219094   3.671   0.941   4.043 -0.6667 -1.0229 -0.1882
 4832SOL    HW319095   3.744   1.027   4.144 -0.9015 -0.2110 -0.6969
 4832SOL    MW419096   3.729   0.949   4.108 -0.1643 -0.3822  0.4439
 4833SOL     OW19097   2.328   5.801   0.090  0.5739  0.2276 -0.2217
 4833SOL    HW219098   2.420   5.814   0.111  0.2557 -1.6828  3.1360
 4833SOL    HW319099   2.282   5.869   0.139  0.0872 -0.3233  0.0967
 4833SOL    MW419100   2.334   5.811   0.099  0.0360  0.4170  0.4241
 4834SOL     OW19101   1.322   4.066   1.344  0.2976 -0.0140  0.0515
 4834SOL    HW219102   1.406   4.069   1.389  0.2249  1.1869  0.1456
 4834SOL    HW319103   1.262   4.027   1.407  0.5829 -0.0064  0.3280
 4834SOL    MW419104   1.325   4.061   1.358  0.0743 -0.2870  0.2134
 4835SOL     OW19105   1.919   5.813   3.485  0.0683  0.0399 -0.5469
 4835SOL    HW219106   1.831   5.817   3.522 -0.0604  0.8267 -0.9228
 4835SOL    HW319107   1.919   5.878   3.415  0.4880 -1.0102 -1.5574
 4835SOL    MW419108   1.908   5.822   3.481  0.8068 -0.2365 -0.1219
 4836SOL     OW19109   2.039   3.185   5.925 -0.5819  0.7487  0.3180
 4836SOL    HW219110   2.130   3.179   5.895 -0.8693 -0.8741 -0.3395
 4836SOL    HW319111   2.000   3.252   5.870 -0.2332  0.1661 -0.6715
 4836SOL    MW419112   2.046   3.193   5.914 -0.1711 -0.5356 -0.3527
 4837SOL     OW19113   6.166   4.931   2.738  0.6427  0.1505 -0.1402
 4837SOL    HW219114   6.182   4.891   2.823 -1.7330  0.6922  0.6155
 4837SOL    HW319115   6.206   5.018   2.745 -1.1878  0.9468  1.1952
 4837SOL    MW419116   6.174   4.938   2.750 -0.2686 -0.2082  0.4689
 4838SOL     OW19117   6.173   3.593   0.629  0.1666  0.3464 -0.1470
 4838SOL    HW219118   6.133   3.602   0.716  1.1325 -0.0323  0.3457
 4838SOL    HW319119   6.232   3.668   0.622 -0.7385  1.0059 -0.9502
 4838SOL    MW419120   6.175   3.604   0.640  1.0039  0.0731  0.1654
 4839SOL     OW19121   1.559   3.824   0.468  0.1926 -0.0297 -0.3722
 4839SOL    HW219122   1.574   3.760   0.538  0.2031 -0.1726 -0.5034
 4839SOL    HW319123   1.580   3.908   0.508  2.7343 -0.3163 -0.9231
 4839SOL    MW419124   1.564   3.826   0.483 -0.2461  0.6370 -0.4866
 4840SOL     OW19125   1.307   0.397   4.786  0.0567  0.8556 -0.1461
 4840SOL    HW219126   1.306   0.490   4.807 -0.4955  0.8423 -0.0952
 4840SOL    HW319127   1.237   0.359   4.839  0.6222  0.3193  0.2247
 4840SOL    MW419128   1.297   0.404   4.796  0.1615  0.0021  0.0149
 4841SOL     OW19129   1.321   0.957   5.577 -0.0348 -0.2910  0.0110
 4841SOL    HW219130   1.252   1.021   5.594 -0.6580 -0.7279 -0.7660
 4841SOL    HW319131   1.343   0.970   5.484  1.4883  0.3581  0.4337
 4841SOL    MW419132   1.315   0.967   5.567  0.0540 -0.0436 -0.4360
 4842SOL     OW19133   4.124   2.873   0.059 -0.1505  0.3575  0.1471
 4842SOL    HW219134   4.211   2.852   0.026  0.6440  3.2440  0.1303
 4842SOL    HW319135   4.129   2.859   0.153  0.3582  0.5073  0.1455
 4842SOL    MW419136   4.136   2.869   0.067  0.1341  0.2604  0.2768
 4843SOL     OW19137   4.154   6.002   2.631  0.1058  0.4871  0.4541
 4843SOL    HW219138   4.108   6.085   2.647  0.1685  0.3036  1.6567
 4843SOL    HW319139   4.146   5.988   2.536 -1.8986  0.6953  0.5596
 4843SOL    MW419140   4.147   6.011   2.620  0.8273  0.4629  0.1915
 4844SOL     OW19141   3.138   3.852   0.770 -0.2035  0.2331 -0.4636
 4844SOL    HW219142   3.162   3.762   0.794  0.3017 -0.0827 -1.9933
 4844SOL    HW319143   3.069   3.841   0.705  0.0519  0.9362 -0.8632
 4844SOL    MW419144   3.132   3.838   0.765 -0.0811  0.2136  0.4709
 4845SOL     OW19145   2.086   5.875   3.690 -0.5030  0.1885 -0.4152
 4845SOL    HW219146   2.042   5.839   3.613 -0.0454  3.0647 -2.1530
 4845SOL    HW319147   2.171   5.832   3.691 -1.9371 -2.9810  1.0730
 4845SOL    MW419148   2.091   5.865   3.680 -0.2726  0.1657 -0.9986
 4846SOL     OW19149   3.821   3.861   3.020 -0.3830 -0.0689  0.1542
 4846SOL    HW219150   3.903   3.813   3.007  0.0205  0.4911  0.5703
 4846SOL    HW319151   3.753   3.800   2.994  0.2271 -0.0504 -1.6664
 4846SOL    MW419152   3.823   3.847   3.015  0.4263  0.6421  0.2596
 4847SOL     OW19153   3.455   3.869   2.720 -0.6330  0.1787 -0.4183
 4847SOL    HW219154   3.524   3.895   2.659 -0.5692  1.5037  0.1755
 4847SOL    HW319155   3.373   3.884   2.671 -0.5734  1.0004 -0.2881
 4847SOL    MW419156   3.453   3.874   2.705 -0.0789 -0.5003 -0.3128
 4848SOL     OW19157   4.923   2.478   4.693  0.1873 -0.0063  0.2442
 4848SOL    HW219158   4.924   2.515   4.781 -0.5842  0.3094  0.1257
 4848SOL    HW319159   4.843   2.512   4.653  0.0174 -0.9412 -0.2366
 4848SOL    MW419160   4.913   2.487   4.699 -0.2736  0.2549 -0.3497
 4849SOL     OW19161   4.747   6.410   1.178  0.3317  0.6138  0.3149
 4849SOL    HW219162   4.725   6.434   1.088  2.1410  0.8440 -0.1125
 4849SOL    HW319163   4.687   6.339   1.200 -0.3384  0.7607 -0.9644
 4849SOL    MW419164   4.736   6.404   1.169  0.0791 -0.3600  0.0460
 4850SOL     OW19165   1.552   0.466   5.837  0.1656 -1.0264 -0.1974
 4850SOL    HW219166   1.520   0.391   5.887  1.1377 -0.4199  1.3972
 4850SOL    HW319167   1.473   0.512   5.809 -0.5571  0.3005  3.4296
 4850SOL    MW419168   1.537   0.462   5.840 -0.5147 -0.0131 -0.2320
 4851SOL     OW19169   3.409   6.389   6.064  0.0109  0.2191 -0.4051
 4851SOL    HW219170   3.318   6.391   6.095  0.3782 -0.2706  0.7813
 4851SOL    HW319171   3.461   6.395   6.145  1.0362  1.1176 -1.1108
 4851SOL    MW419172   3.404   6.390   6.079  0.1520 -0.0757  0.2333
 4852SOL     OW19173   0.166   3.929   2.135  0.3392 -0.0852  0.0518
 4852SOL    HW219174   0.239   3.885   2.178 -0.2045 -0.6663  0.3902
 4852SOL    HW319175   0.107   3.858   2.109  0.1392  0.3419 -0.6719
 4852SOL    MW419176   0.168   3.914   2.137 -0.1097 -0.0725 -0.7050
 4853SOL     OW19177   0.330   2.773   2.922 -0.0669  0.0204 -0.5046
 4853SOL    HW219178   0.243   2.762   2.961  0.5431 -1.6134  0.4782
 4853SOL    HW319179   0.321   2.737   2.833 -0.5035  0.3415 -0.5989
 4853SOL    MW419180   0.317   2.767   2.915  0.0547 -0.3357 -0.0950
 4854SOL     OW19181   2.365   4.546   2.783 -0.6267  0.1233 -0.0022
 4854SOL    HW219182   2.451   4.533   2.823  1.1095  1.9603 -2.7800
 4854SOL    HW319183   2.328   4.457   2.775  1.4827 -0.8335  0.3155
 4854SOL    MW419184   2.371   4.532   2.787 -0.0369  0.4566  0.4032
 4855SOL     OW19185   0.764   4.082   2.826 -0.3295  0.2317  0.0563
 4855SOL    HW219186   0.726   4.109   2.741  1.0830  0.5821 -0.4879
 4855SOL    HW319187   0.856   4.067   2.807  0.5990  2.7144  2.0165
 4855SOL    MW419188   0.771   4.084   2.812  0.4599  0.3140  0.0492
 4856SOL     OW19189   2.864   2.922   3.302  0.0717  0.0589 -0.2976
 4856SOL    HW219190   2.831   2.840   3.338 -0.7772  0.0812 -0.9856
 4856SOL    HW319191   2.940   2.897   3.249  0.8084 -0.0730  0.7880
 4856SOL    MW419192   2.870   2.908   3.300 -0.6245 -0.4625  0.5536
 4857SOL     OW19193   4.560   5.084   3.167 -0.1378 -0.4527  0.6319
 4857SOL    HW219194   4.482   5.063   3.117  0.2494  0.5688 -0.4719
 4857SOL    HW319195   4.629   5.029   3.130  1.4014  3.6559 -3.7649
 4857SOL    MW419196   4.559   5.074   3.156  0.4780 -0.8484 -0.1912
 4858SOL     OW19197   4.399   4.698   0.067  0.2625  0.0486  0.2012
 4858SOL    HW219198   4.428   4.622   0.118  0.4063 -0.8193 -1.1190
 4858SOL    HW319199   4.398   4.667  -0.024  1.9282  2.0893 -0.6099
 4858SOL    MW419200   4.403   4.684   0.062  0.2062  0.5223 -0.3904
 4859SOL     OW19201   0.662   3.640   2.169 -0.1762  0.0855  0.1246
 4859SOL    HW219202   0.637   3.732   2.180  1.6067  0.8574 -1.7163
 4859SOL    HW319203   0.755   3.643   2.150  0.2403 -2.2552  1.4684
 4859SOL    MW419204   0.671   3.652   2.168  0.1888 -0.0439 -0.3939
 4860SOL     OW19205   2.537   1.860   2.985  0.2670 -0.5398  0.2468
 4860SOL    HW219206   2.478   1.854   2.910 -1.1349 -0.3037  1.2675
 4860SOL    HW319207   2.529   1.776   3.029  2.1771 -1.2155 -0.5927
 4860SOL    MW419208   2.528   1.848   2.981 -0.7357 -0.1441 -0.3884
 4861SOL     OW19209   4.172   5.350   0.695  1.5269  0.1758 -0.0058
 4861SOL    HW219210   4.224   5.314   0.623  1.3963 -0.8647  0.3877
 4861SOL    HW319211   4.227   5.335   0.773  0.6227 -1.0497  0.4318
 4861SOL    MW419212   4.186   5.343   0.696 -0.0554 -0.0586  0.4599
 4862SOL     OW19213   2.700   0.141   0.298  0.5992  0.4818 -0.0018
 4862SOL    HW219214   2.738   0.053   0.300 -0.3361  0.0768  0.6263
 4862SOL    HW319215   2.695   0.166   0.390  0.3447  0.9745 -0.1483
 4862SOL    MW419216   2.705   0.133   0.310  0.0196 -0.3898  0.4242
 4863SOL     OW19217   2.189   0.246   1.350  0.0363  0.1142 -0.2424
 4863SOL    HW219218   2.234   0.176   1.302  0.1469  1.0254 -1.5154
 4863SOL    HW319219   2.241   0.325   1.331 -0.5696  0.6995  0.4759
 4863SOL    MW419220   2.202   0.248   1.342 -0.0526 -0.0742  0.1805
 4864SOL     OW19221   6.221   0.891   4.937 -0.0247  0.1063 -0.9749
 4864SOL    HW219222   6.137   0.852   4.911 -0.4204  0.8915 -0.9280
 4864SOL    HW319223   6.286   0.826   4.915 -0.3470  0.6058 -3.7675
 4864SOL    MW419224   6.218   0.878   4.931 -0.2105 -0.3569 -0.1976
 4865SOL     OW19225   2.893   2.545   6.164  0.3494 -0.6334 -0.8190
 4865SOL    HW219226   2.987   2.528   6.161  0.8079  1.1405  1.1886
 4865SOL    HW319227   2.853   2.458   6.157  2.1814 -1.5691 -0.3489
 4865SOL    MW419228   2.900   2.531   6.163 -0.1489  0.2056 -0.1979
 4866SOL     OW19229   1.956   5.374   5.963 -0.3610  0.0973 -0.3812
 4866SOL    HW219230   1.905   5.432   6.018 -1.0966 -1.5181  0.7359
 4866SOL    HW319231   1.938   5.403   5.874 -2.0953  0.4757  0.0629
 4866SOL    MW419232   1.947   5.385   5.958  0.1187  0.3394  0.2253
 4867SOL     OW19233   4.730   2.946   3.654  0.7210  0.5666 -0.6028
 4867SOL    HW219234   4.665   2.879   3.678  0.6702  1.1749  1.1308
 4867SOL    HW319235   4.746   2.931   3.561 -0.3943 -0.8986 -0.6123
 4867SOL    MW419236   4.723   2.935   3.645  0.0079  0.0001 -0.1420
 4868SOL     OW19237   4.027   5.147   3.319 -0.2043 -0.7015  1.0698
 4868SOL    HW219238   4.083   5.118   3.247  0.8345  0.8345  1.1982
 4868SOL    HW319239   3.946   5.099   3.308 -0.2140 -0.2358 -1.3724
 4868SOL    MW419240   4.024   5.137   3.308 -0.3021  0.6096  0.2924
 4869SOL     OW19241   4.557   3.613   3.802 -0.5119  0.4855  0.2872
 4869SOL    HW219242   4.644   3.575   3.820 -0.0241  1.2944 -0.3208
 4869SOL    HW319243   4.575   3.699   3.764 -1.5734  0.3298 -0.6202
 4869SOL    MW419244   4.571   3.619   3.800 -0.7973  0.3190 -0.0032
 4870SOL     OW19245   4.212   1.048   0.492  0.2005 -0.3133 -0.1878
 4870SOL    HW219246   4.167   0.982   0.544  3.0773 -0.8375  1.9002
 4870SOL    HW319247   4.255   0.998   0.423 -0.0167 -0.2157 -0.3941
 4870SOL    MW419248   4.212   1.033   0.490  0.3061  0.6541 -0.0305
 4871SOL     OW19249   1.291   3.934   5.984 -0.2362 -0.1032 -0.3625
 4871SOL    HW219250   1.310   3.906   6.073  1.9887 -0.4157 -0.8729
 4871SOL    HW319251   1.362   3.994   5.962 -1.2252  0.6529 -1.6416
 4871SOL    MW419252   1.303   3.938   5.993  0.0985  0.2430 -0.1865
 4872SOL     OW19253   1.273   4.391   2.994  0.0397  0.1213  0.0697
 4872SOL    HW219254   1.254   4.471   2.944  0.4254 -0.2379 -0.6726
 4872SOL    HW319255   1.310   4.423   3.076  0.7742  0.7091 -0.4668
 4872SOL    MW419256   1.275   4.406   2.998 -0.2085 -0.3362  0.1660
 4873SOL     OW19257   1.507   3.471   3.496 -0.6674  0.0573 -1.0100
 4873SOL    HW219258   1.457   3.543   3.536  0.2142 -0.5902  1.4170
 4873SOL    HW319259   1.452   3.394   3.509  0.7894 -0.6477  1.6043
 4873SOL    MW419260   1.493   3.470   3.503  0.1752  0.5631  0.2335
 4874SOL     OW19261   2.759   5.249   5.808  0.3655 -0.5398  0.2002
 4874SOL    HW219262   2.725   5.302   5.736 -1.2376 -1.9927 -0.1717
 4874SOL    HW319263   2.711   5.280   5.885  0.6328 -0.3390  0.2874
 4874SOL    MW419264   2.748   5.260   5.809 -0.6112 -0.2355 -0.0277
 4875SOL     OW19265   2.516   4.295   4.713 -0.8736  0.4517 -0.3294
 4875SOL    HW219266   2.495   4.212   4.757  1.4722 -0.3763 -0.5867
 4875SOL    HW319267   2.529   4.357   4.785  0.4769 -0.2601  0.0889
 4875SOL    MW419268   2.515   4.292   4.728 -0.1549 -0.1898  0.1271
 4876SOL     OW19269   3.797   1.298   6.209 -0.0185 -0.3719  0.4672
 4876SOL    HW219270   3.722   1.239   6.203 -0.9876  0.9304 -1.4267
 4876SOL    HW319271   3.773   1.360   6.278 -0.8311  0.1801 -0.2886
 4876SOL    MW419272   3.784   1.298   6.217 -0.3347  0.4943  0.2678
 4877SOL     OW19273   4.752   1.061   3.309 -0.1991  0.1306 -0.0003
 4877SOL    HW219274   4.803   0.985   3.280 -1.0466 -0.2459 -0.5275
 4877SOL    HW319275   4.794   1.088   3.390  1.7550  0.7266 -1.1393
 4877SOL    MW419276   4.764   1.055   3.316  0.1056  0.0925  0.1842
 4878SOL     OW19277   1.303   6.334   6.412  0.0045  0.4206 -0.5543
 4878SOL    HW219278   1.374   6.328   6.476 -0.4268 -0.3952 -0.1300
 4878SOL    HW319279   1.225   6.354   6.465 -0.1739  0.8037 -0.9550
 4878SOL    MW419280   1.302   6.336   6.428  0.2035 -1.0804 -0.6506
 4879SOL     OW19281   6.024   3.496   3.713  0.1344 -0.8321  0.3764
 4879SOL    HW219282   6.062   3.482   3.799  2.7225 -1.7809 -0.8159
 4879SOL    HW319283   6.035   3.412   3.667 -0.0218 -0.0024 -1.2737
 4879SOL    MW419284   6.030   3.483   3.718  0.2579  0.9410 -0.0799
 4880SOL     OW19285   2.903   0.062   1.117 -0.6040 -0.3846  0.4249
 4880SOL    HW219286   2.980   0.050   1.063 -0.7346 -1.3100  0.4331
 4880SOL    HW319287   2.918   0.146   1.162 -0.1613  0.0268 -0.4638
 4880SOL    MW419288   2.915   0.072   1.116  0.4152  0.0987 -0.0879
 4881SOL     OW19289   2.616   5.870   3.678  0.7373  0.1685 -0.3132
 4881SOL    HW219290   2.647   5.819   3.754 -0.4893  1.6089  1.2308
 4881SOL    HW319291   2.675   5.945   3.674 -2.1551  2.8873  2.5964
 4881SOL    MW419292   2.628   5.873   3.688  0.6340  0.2963 -0.0389
 4882SOL     OW19293   1.421   0.099   0.673 -0.4102  0.3006  0.4002
 4882SOL    HW219294   1.430   0.180   0.623 -0.3130 -0.7491 -1.3767
 4882SOL    HW319295   1.484   0.107   0.744  0.6613  1.1890 -0.6050
 4882SOL    MW419296   1.430   0.110   0.676  0.2806 -0.3673 -0.0692
 4883SOL     OW19297   3.678   3.384   1.368 -0.3212  0.3555  0.1845
 4883SOL    HW219298   3.638   3.306   1.405 -0.4112  0.3713  0.1201
 4883SOL    HW319299   3.654   3.455   1.428 -1.2225  0.5412 -0.3854
 4883SOL    MW419300   3.670   3.383   1.381 -0.1074 -0.1930  0.3542
 4884SOL     OW19301   0.065   6.053   2.315  0.3268  0.2664 -0.3740
 4884SOL    HW219302   0.011   6.078   2.390  0.7399 -0.7546  0.3015
 4884SOL    HW319303   0.007   6.058   2.240 -0.7628 -0.9406  0.3459
 4884SOL    MW419304   0.051   6.057   2.315 -0.5408  0.2573  0.0611
 4885SOL     OW19305   4.803   4.058   2.811  0.2801  0.0123 -0.5146
 4885SOL    HW219306   4.805   4.066   2.906  1.5666 -1.4969 -0.3906
 4885SOL    HW319307   4.710   4.066   2.788 -0.0065  0.7156  0.8182
 4885SOL    MW419308   4.791   4.060   2.820  0.4518  0.2316  0.1893
 4886SOL     OW19309   4.000   5.392   4.147 -0.3971 -0.4395 -0.3050
 4886SOL    HW219310   4.030   5.302   4.160 -0.8614 -0.2014  3.2068
 4886SOL    HW319311   4.001   5.431   4.234 -1.5867  2.5665 -1.5000
 4886SOL    MW419312   4.004   5.386   4.160 -0.5646  0.5573  0.3949
 4887SOL     OW19313   2.392   3.014   4.606  0.1752 -0.0174 -0.2484
 4887SOL    HW219314   2.484   3.035   4.619 -0.1877  1.0220  0.8450
 4887SOL    HW319315   2.380   3.014   4.511  1.3632 -0.5116 -0.4112
 4887SOL    MW419316   2.403   3.017   4.595 -0.5822  0.1070 -0.5481
 4888SOL     OW19317   5.810   3.064   5.614  0.6924  0.2061  0.5333
 4888SOL    HW219318   5.875   3.133   5.607  1.2956 -0.5178 -2.2911
 4888SOL    HW319319   5.860   2.985   5.633  0.6533 -0.2889 -1.2763
 4888SOL    MW419320   5.825   3.063   5.616  0.2276 -0.5824 -0.0698
 4889SOL     OW19321   0.212   4.211   3.312  0.1276 -0.4557  0.0622
 4889SOL    HW219322   0.170   4.149   3.252  0.4191 -1.9155  1.3083
 4889SOL    HW319323   0.245   4.157   3.384  2.3448  0.8621  0.1556
 4889SOL    MW419324   0.211   4.196   3.314 -0.7003 -0.5436 -0.5897
 4890SOL     OW19325   4.745   0.245   1.283  0.1673 -0.3813 -0.0486
 4890SOL    HW219326   4.769   0.165   1.234 -0.5083 -1.0391  0.6741
 4890SOL    HW319327   4.760   0.316   1.220 -0.9884 -1.2248 -1.3579
 4890SOL    MW419328   4.750   0.244   1.268  0.1418  0.4219 -0.2624
 4891SOL     OW19329   3.847   1.483   2.826 -0.1915 -0.0508  0.7401
 4891SOL    HW219330   3.899   1.556   2.863 -0.6900  1.0651 -0.6588
 4891SOL    HW319331   3.913   1.426   2.786  0.0607  1.2685 -0.8744
 4891SOL    MW419332   3.863   1.485   2.825 -0.9081  0.0928 -0.6292
 4892SOL     OW19333   0.858   5.730   2.050 -0.1352  0.1954  0.1196
 4892SOL    HW219334   0.898   5.673   1.985  0.3019 -2.0269  2.2080
 4892SOL    HW319335   0.909   5.715   2.129 -1.9134  1.2197  1.5261
 4892SOL    MW419336   0.870   5.721   2.052  0.2794  0.1243  0.0531
 4893SOL     OW19337   1.412   0.093   2.404  0.3923  0.0812 -0.3185
 4893SOL    HW219338   1.369   0.078   2.320 -0.1673  2.1878 -0.4650
 4893SOL    HW319339   1.484   0.153   2.383  0.4402  0.3702  0.6436
 4893SOL    MW419340   1.416   0.099   2.390  0.3373  0.1890  0.1631
 4894SOL     OW19341   0.145   2.193   3.827  0.1372 -0.2893 -0.1678
 4894SOL    HW219342   0.143   2.279   3.785 -1.3649  0.0779  0.5501
 4894SOL    HW319343   0.074   2.144   3.784  0.0965 -0.6915  0.3486
 4894SOL    MW419344   0.135   2.198   3.816  0.2469 -0.1523 -0.2253
 4895SOL     OW19345   2.726   1.884   4.042  0.0964 -0.1630 -0.7611
 4895SOL    HW219346   2.673   1.947   3.994  0.7248  0.2964 -0.8535
 4895SOL    HW319347   2.740   1.924   4.128 -1.4002 -1.1705  0.0027
 4895SOL    MW419348   2.721   1.897   4.047 -0.2808 -0.1758  0.4615
 4896SOL     OW19349   0.809   5.804   1.628  0.5605  0.9913 -0.5388
 4896SOL    HW219350   0.730   5.787   1.679 -0.0722  2.1881 -1.0813
 4896SOL    HW319351   0.810   5.736   1.561  1.5132 -0.7449  1.1137
 4896SOL    MW419352   0.799   5.793   1.626 -0.5627  0.2561 -0.1323
 4897SOL     OW19353   1.088   0.295   4.939  0.6907 -0.1099  0.3993
 4897SOL    HW219354   1.115   0.344   5.017 -0.1610 -0.3329  0.8506
 4897SOL    HW319355   1.019   0.349   4.900  0.4713 -0.4461  0.3178
 4897SOL    MW419356   1.082   0.309   4.944  0.7353 -0.3936 -0.0959
 4898SOL     OW19357   1.358   2.811   2.852  0.0519  0.2396  0.0347
 4898SOL    HW219358   1.293   2.804   2.921 -1.3243  2.2798 -0.9640
 4898SOL    HW319359   1.324   2.758   2.780  1.3056 -1.5892  0.7257
 4898SOL    MW419360   1.345   2.803   2.852 -0.0500 -0.1730 -0.0293
 4899SOL     OW19361   4.407   3.161   5.281 -0.2150  0.3746  0.1248
 4899SOL    HW219362   4.364   3.113   5.352 -0.0045 -0.0986 -0.0664
 4899SOL    HW319363   4.428   3.246   5.320 -0.8253  0.4126  0.3847
 4899SOL    MW419364   4.404   3.166   5.296 -0.0956  0.3761  0.5650
 4900SOL     OW19365   5.293   1.514   1.136 -0.0946  0.2905  0.2365
 4900SOL    HW219366   5.318   1.427   1.104  0.3489  0.7586 -0.7136
 4900SOL    HW319367   5.200   1.505   1.158  0.3432 -0.8742  1.7639
 4900SOL    MW419368   5.284   1.501   1.134 -0.7306 -0.3791  0.1080
 4901SOL     OW19369   5.134   5.363   6.236 -0.5533 -0.3851 -0.2845
 4901SOL    HW219370   5.154   5.426   6.167 -0.7949 -0.2771 -0.2597
 4901SOL    HW319371   5.219   5.328   6.263 -0.5423 -1.3735 -1.5141
 4901SOL    MW419372   5.148   5.367   6.231  0.1617 -0.4987 -0.8242
 4902SOL     OW19373   2.820   5.632   2.807  0.0346  0.1389  0.4957
 4902SOL    HW219374   2.886   5.584   2.757  0.0206 -0.6897  1.2476
 4902SOL    HW319375   2.772   5.682   2.741  0.4963 -0.3551 -0.2288
 4902SOL    MW419376   2.822   5.632   2.792 -0.1342 -0.7241  0.3384
 4903SOL     OW19377   6.108   4.406   3.606  0.2107  0.3887 -0.5901
 4903SOL    HW219378   6.168   4.348   3.559  0.1134  1.0976 -1.6181
 4903SOL    HW319379   6.157   4.432   3.685  0.3147 -0.9330 -0.1997
 4903SOL    MW419380   6.123   4.402   3.610  0.4307 -0.3553  0.5169
 4904SOL     OW19381   4.841   1.440   3.878  0.4761  0.4151 -0.4901
 4904SOL    HW219382   4.820   1.523   3.921 -2.7500 -1.0284  1.1248
 4904SOL    HW319383   4.832   1.374   3.947  0.5208 -1.5299 -2.2219
 4904SOL    MW419384   4.837   1.442   3.893 -0.0205 -0.4371  0.5086
 4905SOL     OW19385   0.472   6.138   0.166  0.1130 -0.2247 -0.2479
 4905SOL    HW219386   0.401   6.195   0.138  1.4908  1.1458 -1.0989
 4905SOL    HW319387   0.460   6.129   0.261 -2.0680 -1.3416 -0.5643
 4905SOL    MW419388   0.461   6.144   0.175  0.0236 -0.1712 -0.5114
 4906SOL     OW19389   4.095   4.638   6.140 -0.2173 -0.0808 -0.0294
 4906SOL    HW219390   4.050   4.553   6.136  0.2156 -0.2774 -1.6615
 4906SOL    HW319391   4.177   4.619   6.186 -0.6721 -0.2575  0.7295
 4906SOL    MW419392   4.100   4.624   6.145  0.3213  0.3346 -0.3192
 4907SOL     OW19393   4.688   2.737   5.310 -0.1964 -0.5190  0.3927
 4907SOL    HW219394   4.647   2.818   5.279  0.0535 -0.4581  0.2167
 4907SOL    HW319395   4.769   2.766   5.352  0.5182 -0.7684 -0.7672
 4907SOL    MW419396   4.694   2.752   5.312  0.5438  0.0081 -0.5552
 4908SOL     OW19397   3.386   2.914   0.841  0.6278 -1.2459 -0.3494
 4908SOL    HW219398   3.392   3.005   0.810 -1.0395 -0.9305  0.1301
 4908SOL    HW319399   3.388   2.862   0.761 -1.3913 -0.5672 -0.9221
 4908SOL    MW419400   3.387   2.919   0.826 -0.0948 -1.0873 -0.1762
 4909SOL     OW19401   3.976   5.984   1.010  0.2175 -0.4667 -0.0920
 4909SOL    HW219402   4.040   6.045   0.973 -0.2125 -1.0962 -1.9724
 4909SOL    HW319403   3.893   6.030   1.005  0.0190 -0.8901 -0.7526
 4909SOL    MW419404   3.974   5.998   1.005  0.2205  0.2874 -0.1453
 4910SOL     OW19405   4.167   5.895   1.323  0.4875  0.7011 -0.1803
 4910SOL    HW219406   4.185   5.809   1.287 -0.5699 -0.4100  1.7496
 4910SOL    HW319407   4.073   5.907   1.311  0.9279  2.6825 -2.5209
 4910SOL    MW419408   4.157   5.885   1.317 -0.5376 -0.1984 -0.0859
 4911SOL     OW19409   0.088   0.471   1.364  0.1442 -0.1468 -0.7545
 4911SOL    HW219410   0.062   0.500   1.452  0.3672  1.8206 -1.3050
 4911SOL    HW319411   0.161   0.410   1.381  0.7324  0.8293  0.4046
 4911SOL    MW419412   0.094   0.467   1.378  0.0833 -0.3572  0.5547
 4912SOL     OW19413   1.483   5.598   0.844  0.0234  0.2641 -0.0362
 4912SOL    HW219414   1.512   5.683   0.877 -1.1009  0.9852 -0.8476
 4912SOL    HW319415   1.482   5.541   0.921 -0.6777  1.3852  0.8005
 4912SOL    MW419416   1.487   5.601   0.859 -0.0984 -0.1490 -0.1000
 4913SOL     OW19417   1.345   1.089   0.134 -0.2799 -0.6735 -0.3300
 4913SOL    HW219418   1.270   1.030   0.123 -1.0691  0.2114  0.1099
 4913SOL    HW319419   1.386   1.091   0.047 -0.7255 -1.2238 -0.5660
 4913SOL    MW419420   1.340   1.082   0.121  0.2140 -0.1165  0.0144
 4914SOL     OW19421   3.867   1.050   1.842 -0.0395 -0.8448  0.5292
 4914SOL    HW219422   3.776   1.031   1.819 -0.5054  1.8267 -0.1301
 4914SOL    HW319423   3.866   1.058   1.938 -1.1457  1.7222  0.3839
 4914SOL    MW419424   3.855   1.048   1.852 -0.4521  0.1141 -0.6540
 4915SOL     OW19425   3.922   3.498   1.464 -0.0521 -0.3816  0.4059
 4915SOL    HW219426   3.849   3.447   1.428  0.0849 -1.0360  1.0322
 4915SOL    HW319427   3.953   3.446   1.538  1.0676 -0.1144  0.1358
 4915SOL    MW419428   3.916   3.485   1.469  0.2570  0.5441  0.1512
 4916SOL     OW19429   2.795   3.341   1.286  0.3150  0.4581 -0.2721
 4916SOL    HW219430   2.848   3.421   1.282  1.3871 -0.1267  1.1046
 4916SOL    HW319431   2.754   3.334   1.200 -0.2451  2.7723 -0.2424
 4916SOL    MW419432   2.797   3.351   1.274  0.4697 -0.4624  0.0017
 4917SOL     OW19433   5.615   2.853   0.995 -0.0000  0.5918 -0.1699
 4917SOL    HW219434   5.567   2.933   0.975  0.9626  1.7733  1.9424
 4917SOL    HW319435   5.675   2.842   0.921 -2.4058 -0.1438 -2.1583
 4917SOL    MW419436   5.617   2.862   0.982 -0.3735 -0.0921 -0.5987
 4918SOL     OW19437   4.715   2.063   3.610 -0.5125  0.4219  0.3926
 4918SOL    HW219438   4.682   2.028   3.693 -0.7187 -0.5648 -0.0928
 4918SOL    HW319439   4.686   2.000   3.545 -1.5588  1.8801 -0.6194
 4918SOL    MW419440   4.707   2.050   3.613 -0.3668  0.4090  0.1511
 4919SOL     OW19441   2.080   2.532   0.602  0.1410  0.4402 -0.1635
 4919SOL    HW219442   2.139   2.491   0.539 -0.6797  1.4204 -1.6221
 4919SOL    HW319443   2.008   2.566   0.549 -1.4562 -0.1827  1.4808
 4919SOL    MW419444   2.078   2.531   0.586 -0.2043 -0.9486 -0.1315
 4920SOL     OW19445   2.476   5.434   4.595  0.0574  0.4370 -0.2013
 4920SOL    HW219446   2.567   5.415   4.574  0.3067  1.4067 -0.0550
 4920SOL    HW319447   2.461   5.389   4.678  0.7233  1.1147  0.3009
 4920SOL    MW419448   2.486   5.426   4.603  0.0078  0.3323  0.1119
 4921SOL     OW19449   0.734   4.295   1.850 -0.0013  0.2305 -0.2067
 4921SOL    HW219450   0.743   4.288   1.755  0.7240 -0.4938 -0.0945
 4921SOL    HW319451   0.643   4.270   1.868  0.1132 -0.4887 -0.6293
 4921SOL    MW419452   0.723   4.291   1.840 -0.7902  0.3229  0.1124
 4922SOL     OW19453   0.572   2.229   2.742 -0.2862  0.0503 -0.5043
 4922SOL    HW219454   0.648   2.245   2.687 -0.5496 -0.4199 -1.0072
 4922SOL    HW319455   0.599   2.258   2.829  0.4007  0.0577 -0.7187
 4922SOL    MW419456   0.585   2.235   2.747 -0.7628  0.3586  0.9246
 4923SOL     OW19457   5.299   2.390   6.029  0.1956  0.1992 -0.5393
 4923SOL    HW219458   5.338   2.462   6.078 -1.5017  1.5043 -0.9844
 4923SOL    HW319459   5.206   2.394   6.051 -0.0457 -1.4441 -1.1194
 4923SOL    MW419460   5.292   2.400   6.038 -0.2394  0.2024 -0.2092
 4924SOL     OW19461   3.456   1.594   5.220 -0.4246  0.2008  0.0535
 4924SOL    HW219462   3.430   1.634   5.137 -1.9829 -0.1992  0.3188
 4924SOL    HW319463   3.523   1.653   5.256 -1.4188  1.6249 -0.3718
 4924SOL    MW419464   3.462   1.607   5.214  0.2342 -0.1083 -0.3761
 4925SOL     OW19465   4.799   1.398   6.383  0.4159 -0.3226 -0.3675
 4925SOL    HW219466   4.856   1.326   6.355  0.3085  0.0146 -1.5312
 4925SOL    HW319467   4.833   1.425   6.468  2.5803  0.4758 -1.4121
 4925SOL    MW419468   4.811   1.392   6.390 -0.0829  0.0353  0.0453
 4926SOL     OW19469   6.086   2.827   3.099  0.1088 -0.9244 -0.1103
 4926SOL    HW219470   6.113   2.894   3.035 -2.1917  2.5200  2.1655
 4926SOL    HW319471   6.137   2.848   3.177 -1.3305 -1.2263  0.9329
 4926SOL    MW419472   6.097   2.839   3.101  0.6666 -0.1405  0.3273
 4927SOL     OW19473   1.148   0.310   6.077 -0.0566  0.4202 -0.4172
 4927SOL    HW219474   1.130   0.382   6.016 -2.2416 -0.6246 -1.1178
 4927SOL    HW319475   1.082   0.320   6.146  0.5612 -0.0705  0.2536
 4927SOL    MW419476   1.137   0.321   6.078  0.0924 -0.6930 -0.5087
 4928SOL     OW19477   1.564   4.832   5.667 -0.1488 -0.0972  0.2720
 4928SOL    HW219478   1.475   4.832   5.633 -0.3839 -0.4729  0.8868
 4928SOL    HW319479   1.603   4.752   5.633 -0.5948 -0.8135  1.4290
 4928SOL    MW419480   1.558   4.822   5.658 -0.5325  0.2010  0.9076
 4929SOL     OW19481   2.442   1.767   2.730 -0.0146 -0.1145 -0.1126
 4929SOL    HW219482   2.389   1.703   2.683 -0.6790  0.4999 -0.2217
 4929SOL    HW319483   2.518   1.718   2.761 -0.2281 -0.8206 -0.6870
 4929SOL    MW419484   2.445   1.752   2.728  0.1237  0.0682  0.4288
 4930SOL     OW19485   5.341   5.290   0.215  0.3999  0.0740  0.2153
 4930SOL    HW219486   5.388   5.267   0.295 -0.6520 -1.3415  0.4649
 4930SOL    HW319487   5.294   5.371   0.237 -0.1209 -0.4715  1.1300
 4930SOL    MW419488   5.341   5.298   0.228  0.3421  0.2864  0.6830
 4931SOL     OW19489   3.481   0.334   5.198 -0.1340 -0.3507 -0.3245
 4931SOL    HW219490   3.440   0.302   5.278  0.7093  0.0839  0.3011
 4931SOL    HW319491   3.438   0.285   5.128 -1.1678 -0.4489  0.3558
 4931SOL    MW419492   3.470   0.323   5.200  0.6013 -0.2739 -0.2506
 4932SOL     OW19493   4.831   6.284   2.998  0.2074 -0.0123 -0.5468
 4932SOL    HW219494   4.764   6.343   3.033  0.4818 -0.4616  0.7852
 4932SOL    HW319495   4.851   6.320   2.912 -1.5963  0.2391 -0.8971
 4932SOL    MW419496   4.825   6.297   2.992  0.5483 -0.4223  0.2426
 4933SOL     OW19497   4.475   2.497   4.003  0.2515  0.4559  0.0362
 4933SOL    HW219498   4.561   2.512   4.044  0.7027  0.4153 -0.8718
 4933SOL    HW319499   4.425   2.576   4.023  0.2415  0.1778  1.1891
 4933SOL    MW419500   4.480   2.509   4.011 -0.2284 -0.6789 -0.5005
 4934SOL     OW19501   2.658   3.865   0.476  0.2298  0.1960 -0.5102
 4934SOL    HW219502   2.661   3.911   0.560  0.4254 -1.9492  0.7456
 4934SOL    HW319503   2.659   3.772   0.500  3.0778 -0.5525 -2.9344
 4934SOL    MW419504   2.659   3.858   0.490  0.2404  0.2380 -0.0594
 4935SOL     OW19505   3.395   0.457   5.622 -0.7177  0.7227 -0.1851
 4935SOL    HW219506   3.314   0.497   5.653 -1.1366 -1.9767  2.7638
 4935SOL    HW319507   3.460   0.479   5.689 -0.7115 -2.2746  0.9817
 4935SOL    MW419508   3.393   0.465   5.635 -0.2287 -0.0209 -0.0675
 4936SOL     OW19509   1.404   4.234   0.373 -0.4469  0.5284 -0.3733
 4936SOL    HW219510   1.352   4.201   0.300  0.3365  0.1073 -0.7517
 4936SOL    HW319511   1.351   4.215   0.450 -0.6020 -0.4203 -0.6996
 4936SOL    MW419512   1.390   4.227   0.373 -0.1666  0.8237 -0.3618
 4937SOL     OW19513   2.595   3.148   0.812 -0.5416 -0.0032  0.0110
 4937SOL    HW219514   2.537   3.108   0.876 -0.3835 -1.3505 -0.6529
 4937SOL    HW319515   2.650   3.076   0.781  1.8835  1.2782  1.0093
 4937SOL    MW419516   2.595   3.134   0.817  0.1917 -0.2815  0.2744
 4938SOL     OW19517   5.199   6.211   3.710  0.3150 -0.1571 -0.0184
 4938SOL    HW219518   5.197   6.290   3.657  1.9771 -0.6926 -0.9639
 4938SOL    HW319519   5.124   6.160   3.679  0.5076  0.1133 -0.9710
 4938SOL    MW419520   5.189   6.214   3.699  0.3183 -0.1473 -0.1055
 4939SOL     OW19521   4.114   5.765   0.865  0.1569  0.2119 -0.1977
 4939SOL    HW219522   4.049   5.774   0.795 -0.1758 -0.0996  0.0616
 4939SOL    HW319523   4.089   5.832   0.929  1.3534  1.4945 -1.0440
 4939SOL    MW419524   4.102   5.775   0.864 -0.5710  0.6683  0.3651
 4940SOL     OW19525   3.716   5.064   1.815  0.1555  0.8898 -0.8408
 4940SOL    HW219526   3.665   5.076   1.896 -0.8195 -1.3555 -1.0559
 4940SOL    HW319527   3.650   5.064   1.745  0.6399 -0.1163 -1.3168
 4940SOL    MW419528   3.700   5.066   1.817 -0.6859  0.2592  0.0601
 4941SOL     OW19529   1.491   5.998   5.409 -1.1094  0.0153 -0.5630
 4941SOL    HW219530   1.549   5.992   5.485 -0.0780  2.9874 -0.9724
 4941SOL    HW319531   1.431   6.070   5.432 -1.6664  0.0319 -1.9945
 4941SOL    MW419532   1.490   6.007   5.422 -0.0503  0.9817  0.1896
 4942SOL     OW19533   0.166   3.295   2.196 -0.4887 -0.2795 -0.4547
 4942SOL    HW219534   0.100   3.314   2.263  0.3028  1.8951 -0.2139
 4942SOL    HW319535   0.245   3.276   2.246 -0.3314 -0.4659 -0.7711
 4942SOL    MW419536   0.168   3.295   2.212  0.3529 -0.3455 -0.2958
 4943SOL     OW19537   3.852   4.338   0.665 -0.2642 -0.2386  0.4016
 4943SOL    HW219538   3.889   4.273   0.724 -0.3388 -1.5397 -0.9272
 4943SOL    HW319539   3.758   4.327   0.674 -0.2738 -1.0496 -0.5805
 4943SOL    MW419540   3.845   4.328   0.674 -0.2972 -0.0552  0.0184
 4944SOL     OW19541   5.013   0.113   4.434  0.3240  0.0135  0.2495
 4944SOL    HW219542   5.026   0.091   4.526  1.2724 -0.7972 -0.0568
 4944SOL    HW319543   5.042   0.035   4.387 -1.0485  0.0502 -0.7075
 4944SOL    MW419544   5.019   0.100   4.440  0.1098  0.9337 -0.3920
 4945SOL     OW19545   0.793   1.840   2.076 -0.2946 -0.1052 -0.5362
 4945SOL    HW219546   0.751   1.755   2.091  1.9246 -1.2490 -0.3961
 4945SOL    HW319547   0.759   1.896   2.146 -0.2225 -1.5067  0.6709
 4945SOL    MW419548   0.783   1.836   2.087  0.2103  0.1617  0.5539
 4946SOL     OW19549   5.590   3.052   4.668 -0.2807 -0.9455 -0.4083
 4946SOL    HW219550   5.623   3.064   4.580 -0.2234 -0.4020 -0.3127
 4946SOL    HW319551   5.540   3.131   4.687  0.8635 -0.4330  0.5682
 4946SOL    MW419552   5.588   3.064   4.659 -0.2312  0.1244 -0.3236
 4947SOL     OW19553   3.259   4.890   0.888 -0.5109  0.0367  0.2703
 4947SOL    HW219554   3.174   4.927   0.913 -1.5931 -1.5404 -0.8032
 4947SOL    HW319555   3.236   4.806   0.846  1.2885  1.0362 -3.0548
 4947SOL    MW419556   3.245   4.883   0.886 -0.0313  0.2053 -0.0702
 4948SOL     OW19557   6.354   3.560   2.172 -0.1399 -0.2223  0.4681
 4948SOL    HW219558   6.350   3.632   2.109 -0.0216 -0.0133  0.7009
 4948SOL    HW319559   6.448   3.542   2.183 -0.1667 -0.3870  0.4403
 4948SOL    MW419560   6.366   3.567   2.165  0.1310  0.3286 -0.2224
 4949SOL     OW19561   0.682   0.326   1.902 -0.0395 -0.0604 -0.5913
 4949SOL    HW219562   0.736   0.258   1.943  0.9227 -0.3859 -2.3261
 4949SOL    HW319563   0.721   0.409   1.931 -0.4748 -0.2334  0.5521
 4949SOL    MW419564   0.694   0.328   1.911  0.7168 -0.3658  0.0946
 4950SOL     OW19565   3.478   0.052   2.538  0.0672 -0.1149 -0.2307
 4950SOL    HW219566   3.449   0.040   2.628 -0.2477  0.2178 -0.2853
 4950SOL    HW319567   3.411   0.108   2.499 -0.1417 -0.7839 -0.8546
 4950SOL    MW419568   3.465   0.058   2.545 -0.2802  0.3875 -0.9277
 4951SOL     OW19569   4.743   1.246   4.418  0.2798 -0.6661 -0.0870
 4951SOL    HW219570   4.770   1.332   4.451 -0.3597 -0.6233  0.3290
 4951SOL    HW319571   4.669   1.265   4.361 -0.7137 -1.0621  1.0484
 4951SOL    MW419572   4.737   1.260   4.414  0.1393  0.0193  0.1003
 4952SOL     OW19573   5.988   5.111   1.349 -0.3833 -0.1989  0.4117
 4952SOL    HW219574   6.029   5.086   1.266  0.9904 -0.6339  1.1949
 4952SOL    HW319575   5.971   5.028   1.394 -0.9925  0.0399  0.6305
 4952SOL    MW419576   5.992   5.097   1.344  0.8344  0.2471  0.2759
 4953SOL     OW19577   1.982   2.000   4.750  0.4285  0.4514 -0.5889
 4953SOL    HW219578   1.990   2.000   4.655  1.4337  1.1450 -0.5178
 4953SOL    HW319579   2.046   1.935   4.780  0.1801  0.3009 -0.3692
 4953SOL    MW419580   1.991   1.991   4.741 -0.0324 -0.1538  0.5628
 4954SOL     OW19581   1.033   4.249   2.541  0.4746 -0.0771  0.0074
 4954SOL    HW219582   1.060   4.336   2.573 -0.0253  0.4021 -0.8285
 4954SOL    HW319583   0.996   4.266   2.455  1.7046 -1.3289 -0.8048
 4954SOL    MW419584   1.032   4.263   2.534  0.1612  0.4065 -0.0329
 4955SOL     OW19585   5.250   3.139   4.683  0.0600  0.4383  0.0850
 4955SOL    HW219586   5.317   3.208   4.689  0.3580  0.1269  0.3968
 4955SOL    HW319587   5.275   3.075   4.750 -0.6290  0.3810  0.2977
 4955SOL    MW419588   5.262   3.140   4.693  0.2368  0.8735 -0.4261
 4956SOL     OW19589   2.747   3.673   3.601 -0.2826  0.1804  0.8408
 4956SOL    HW219590   2.699   3.603   3.557 -0.6261 -0.1997  1.7874
 4956SOL    HW319591   2.733   3.750   3.546  1.3364 -0.7707 -1.0350
 4956SOL    MW419592   2.739   3.674   3.588 -0.3692  0.0146 -0.7425
 4957SOL     OW19593   0.619   1.045   0.852  0.0734  0.9667 -0.0213
 4957SOL    HW219594   0.558   1.013   0.919 -0.3011 -0.4794 -1.0015
 4957SOL    HW319595   0.577   1.022   0.769  0.4996  2.7805 -0.7902
 4957SOL    MW419596   0.605   1.038   0.850  0.0010  0.0979 -0.4754
 4958SOL     OW19597   5.854   6.419   1.173 -0.1868 -0.1147 -0.2651
 4958SOL    HW219598   5.912   6.351   1.206 -0.6287 -0.6660 -0.6181
 4958SOL    HW319599   5.913   6.488   1.143  0.2544 -0.2256  0.3205
 4958SOL    MW419600   5.869   6.419   1.174  0.0006 -0.3933 -0.2493
 4959SOL     OW19601   6.134   5.580   2.188 -0.0061  0.2577  0.1490
 4959SOL    HW219602   6.201   5.516   2.212  0.8652  1.1553  0.2114
 4959SOL    HW319603   6.060   5.561   2.246  0.9973  0.5690  1.5879
 4959SOL    MW419604   6.133   5.569   2.199 -0.4598 -0.3822 -0.1612
 4960SOL     OW19605   2.469   1.597   0.262 -0.2306 -0.2638  0.1013
 4960SOL    HW219606   2.474   1.661   0.334 -1.6598  0.3765 -0.3190
 4960SOL    HW319607   2.377   1.569   0.263  0.5312 -2.9701  0.7873
 4960SOL    MW419608   2.457   1.602   0.272 -0.1947  0.1266 -0.3204
 4961SOL     OW19609   2.597   2.568   1.907 -0.0408  0.1670  0.1331
 4961SOL    HW219610   2.619   2.607   1.992  0.8775 -1.6092  0.7596
 4961SOL    HW319611   2.679   2.572   1.857  0.7935 -2.9298  1.0512
 4961SOL    MW419612   2.611   2.574   1.912  0.3760 -0.2761 -0.1799
 4962SOL     OW19613   1.418   1.558   5.817 -0.1356 -0.0480 -0.3142
 4962SOL    HW219614   1.424   1.491   5.749 -0.2691 -2.1760  1.6503
 4962SOL    HW319615   1.507   1.566   5.851 -0.5046 -0.8072  0.8669
 4962SOL    MW419616   1.430   1.550   5.812 -0.0927  0.4574 -0.5237
 4963SOL     OW19617   0.764   3.782   0.382 -0.5795 -0.0913  0.4133
 4963SOL    HW219618   0.836   3.730   0.417 -0.9889  0.2173  1.7642
 4963SOL    HW319619   0.797   3.817   0.299  1.2752  1.0040  1.5587
 4963SOL    MW419620   0.778   3.780   0.376 -0.2376  0.0135  0.4887
 4964SOL     OW19621   0.894   2.045   5.006  0.0400  0.1243 -0.5397
 4964SOL    HW219622   0.828   2.108   5.034 -0.1803 -0.6430  0.7794
 4964SOL    HW319623   0.845   1.964   4.990  0.4318  0.0312 -1.2985
 4964SOL    MW419624   0.879   2.043   5.008  0.4734 -0.1313  0.0139
 4965SOL     OW19625   1.443   4.589   4.873 -0.4975  0.1223  0.2993
 4965SOL    HW219626   1.533   4.573   4.844 -0.4251 -1.9829  1.4585
 4965SOL    HW319627   1.450   4.606   4.967 -1.0025  4.0229 -0.2131
 4965SOL    MW419628   1.456   4.589   4.881  0.0268 -0.1198  0.7553
 4966SOL     OW19629   3.671   3.081   0.611 -0.3689  0.0738 -0.1554
 4966SOL    HW219630   3.621   3.142   0.558 -0.4130 -0.5131 -0.8092
 4966SOL    HW319631   3.661   3.112   0.701  0.5640  1.6882 -0.5770
 4966SOL    MW419632   3.663   3.093   0.616  0.0972 -0.7951 -0.0734
 4967SOL     OW19633   6.125   5.063   0.409 -0.1321  0.1964 -0.3672
 4967SOL    HW219634   6.150   5.153   0.389  0.1760 -0.0385 -1.0523
 4967SOL    HW319635   6.030   5.065   0.417 -0.0439  0.7996  0.7457
 4967SOL    MW419636   6.116   5.075   0.408 -0.2202  0.0509  0.1606
 4968SOL     OW19637   1.997   2.408   3.626 -0.1109  0.3019  0.2986
 4968SOL    HW219638   1.978   2.320   3.594  2.1192  0.1998 -0.9223
 4968SOL    HW319639   2.016   2.397   3.719 -1.8615 -0.1364  0.6513
 4968SOL    MW419640   1.997   2.395   3.634 -0.0030 -0.1004 -0.1080
 4969SOL     OW19641   0.330   4.094   5.382  0.0420 -0.2309  0.0827
 4969SOL    HW219642   0.307   4.131   5.297  1.7925 -1.2921 -0.9262
 4969SOL    HW319643   0.425   4.108   5.389  0.7163 -3.7289 -0.0711
 4969SOL    MW419644   0.340   4.101   5.371 -0.6126  0.1012 -0.0110
 4970SOL     OW19645   3.058   4.827   6.381 -0.1200 -0.1917 -0.5271
 4970SOL    HW219646   2.968   4.820   6.412  0.1167  0.9780  0.4820
 4970SOL    HW319647   3.112   4.807   6.457  0.4832 -0.2289 -0.9545
 4970SOL    MW419648   3.053   4.824   6.395 -0.1290  0.7068 -0.3042
 4971SOL     OW19649   3.635   0.273   4.152 -0.0112 -0.6377  0.4724
 4971SOL    HW219650   3.640   0.367   4.167  0.0294 -0.5889  0.1633
 4971SOL    HW319651   3.694   0.257   4.078 -1.9462 -0.4918 -1.2042
 4971SOL    MW419652   3.643   0.283   4.144 -0.0116 -0.4765  0.4344
 4972SOL     OW19653   0.556   1.747   4.350  0.2871 -0.1343 -0.1095
 4972SOL    HW219654   0.473   1.794   4.356  0.0735 -0.1881 -2.0019
 4972SOL    HW319655   0.563   1.722   4.258  1.7376 -1.3771  0.2887
 4972SOL    MW419656   0.546   1.750   4.339 -0.3203 -0.3778  0.2635
 4973SOL     OW19657   1.269   1.443   4.533 -0.3888  0.4108  0.4064
 4973SOL    HW219658   1.199   1.437   4.469 -0.2841  2.4541  0.0234
 4973SOL    HW319659   1.243   1.384   4.604 -0.6263 -1.6918 -1.3573
 4973SOL    MW419660   1.256   1.435   4.534  0.6095 -0.2031  0.1702
 4974SOL     OW19661   4.183   6.340   4.788  0.1014  0.3312 -0.2178
 4974SOL    HW219662   4.115   6.288   4.744  0.8494 -0.2431 -0.7263
 4974SOL    HW319663   4.238   6.372   4.717 -0.0796  1.4452  0.1353
 4974SOL    MW419664   4.181   6.337   4.773 -0.5031  0.3729  0.0447
 4975SOL     OW19665   2.397   1.901   1.587 -0.0547 -0.4259  0.0273
 4975SOL    HW219666   2.420   1.965   1.521 -1.0315  0.1514  0.2405
 4975SOL    HW319667   2.433   1.936   1.669  0.8857 -0.9901 -0.1287
 4975SOL    MW419668   2.405   1.914   1.589 -0.9323  0.0011 -0.2782
 4976SOL     OW19669   2.597   4.538   0.512 -0.6902  0.0868 -0.4594
 4976SOL    HW219670   2.595   4.572   0.601 -0.7960  0.4704 -0.6063
 4976SOL    HW319671   2.565   4.448   0.520  0.0780 -0.1529 -0.0013
 4976SOL    MW419672   2.592   4.530   0.525  0.3721  0.3401 -0.1198
 4977SOL     OW19673   3.370   3.506   5.111 -0.3950 -0.0699 -0.0464
 4977SOL    HW219674   3.362   3.443   5.039  0.3819  0.4877 -0.6463
 4977SOL    HW319675   3.463   3.529   5.112 -0.4801  0.2667  0.8526
 4977SOL    MW419676   3.381   3.501   5.101 -0.2039 -0.3724 -0.4198
 4978SOL     OW19677   5.391   1.813   2.458  0.1661 -0.0688  0.2320
 4978SOL    HW219678   5.461   1.767   2.504  1.0246  0.7486 -0.2306
 4978SOL    HW319679   5.313   1.795   2.510  0.7160 -0.9453  0.7949
 4978SOL    MW419680   5.390   1.804   2.471  0.2555 -0.7542  0.1288
 4979SOL     OW19681   3.833   3.423   2.316  0.6260 -0.2187 -0.3991
 4979SOL    HW219682   3.902   3.480   2.348 -1.0468  0.2912  2.7663
 4979SOL    HW319683   3.864   3.334   2.335  0.9901 -0.0691 -0.2842
 4979SOL    MW419684   3.846   3.419   2.323 -0.6224 -0.0574 -0.5184
 4980SOL     OW19685   0.837   1.556   1.811  0.6960 -0.3464  0.1589
 4980SOL    HW219686   0.774   1.593   1.871  1.0184 -0.5076  0.6020
 4980SOL    HW319687   0.855   1.626   1.748  0.6378 -0.0556  0.4664
 4980SOL    MW419688   0.831   1.570   1.810  0.0806  0.2597  0.1320
 4981SOL     OW19689   4.730   0.807   5.604 -0.1529  0.4375 -0.0039
 4981SOL    HW219690   4.707   0.788   5.514 -0.6114 -0.0442  0.2080
 4981SOL    HW319691   4.762   0.897   5.602 -0.5167  0.5607 -0.5837
 4981SOL    MW419692   4.731   0.817   5.592  0.4177 -0.1663 -0.1303
 4982SOL     OW19693   5.169   2.591   4.555 -0.3143 -0.3755 -0.0857
 4982SOL    HW219694   5.154   2.684   4.571 -0.4802  0.0391 -2.3350
 4982SOL    HW319695   5.110   2.546   4.617 -0.8017  1.0152  0.4946
 4982SOL    MW419696   5.159   2.597   4.566  0.2205  1.2636 -0.5740
 4983SOL     OW19697   0.903   0.673   2.730  0.0139 -0.0887 -0.4298
 4983SOL    HW219698   0.852   0.751   2.708  0.4072 -0.2412 -1.9732
 4983SOL    HW319699   0.853   0.601   2.693  0.0598 -0.5036  0.3016
 4983SOL    MW419700   0.890   0.674   2.722  0.2543 -0.8849 -0.2676
 4984SOL     OW19701   5.107   5.427   2.712  0.0458  0.0967 -0.2855
 4984SOL    HW219702   5.051   5.408   2.787 -0.8263  0.5491 -0.7987
 4984SOL    HW319703   5.131   5.519   2.722  1.4606 -0.3112  0.3966
 4984SOL    MW419704   5.103   5.436   2.723 -0.1808  0.1742  0.0912
 4985SOL     OW19705   4.973   3.709   4.489 -0.4926 -0.5395  0.1675
 4985SOL    HW219706   4.903   3.773   4.489  0.2619  0.3111  0.4167
 4985SOL    HW319707   4.943   3.639   4.547 -0.9650  0.0029  0.5849
 4985SOL    MW419708   4.960   3.708   4.497  0.7005  0.4387 -0.5324
 4986SOL     OW19709   3.353   4.813   4.043  0.5162 -0.5372 -0.3208
 4986SOL    HW219710   3.313   4.888   4.087  2.4255  0.7191 -0.5862
 4986SOL    HW319711   3.302   4.738   4.072  0.0595  0.5500  1.9530
 4986SOL    MW419712   3.341   4.813   4.053 -0.1578 -0.3130 -0.0302
 4987SOL     OW19713   4.762   6.349   6.422 -0.4742  0.1401 -0.4353
 4987SOL    HW219714   4.704   6.423   6.404 -1.0127 -0.2044 -0.1368
 4987SOL    HW319715   4.737   6.320   6.510  1.2711  1.0186  0.4249
 4987SOL    MW419716   4.751   6.355   6.431 -0.2716 -0.4439  0.7834
 4988SOL     OW19717   5.727   3.411   3.527 -0.1843  0.4517  0.1701
 4988SOL    HW219718   5.681   3.351   3.468  1.1955  0.1250 -0.6080
 4988SOL    HW319719   5.775   3.470   3.469  1.0029  0.2823  0.9431
 4988SOL    MW419720   5.727   3.411   3.512  0.3429  0.0713  0.0847
 4989SOL     OW19721   3.675   2.949   1.968  0.2439 -0.2010 -0.4497
 4989SOL    HW219722   3.765   2.965   1.998  0.1334 -0.6568  0.1331
 4989SOL    HW319723   3.621   2.960   2.046 -0.1005 -0.9478 -0.5791
 4989SOL    MW419724   3.680   2.953   1.982 -0.1544 -0.2654  0.0524
 4990SOL     OW19725   1.763   1.954   5.950  0.1465 -0.5162 -0.1085
 4990SOL    HW219726   1.715   2.013   6.009 -0.2967  1.8820 -2.6759
 4990SOL    HW319727   1.855   1.968   5.972 -0.0143  0.2612  0.1077
 4990SOL    MW419728   1.769   1.963   5.961  0.3383  0.2273  0.0081
 4991SOL     OW19729   3.523   5.798   1.692  0.3271 -0.6405  0.7309
 4991SOL    HW219730   3.451   5.742   1.664 -0.4688  0.2021  1.0204
 4991SOL    HW319731   3.503   5.883   1.653  0.5651 -0.1068  1.7409
 4991SOL    MW419732   3.511   5.802   1.683  0.7465  0.3004  0.5014
 4992SOL     OW19733   4.025   2.641   3.469  0.0322  0.1106 -0.1787
 4992SOL    HW219734   4.114   2.645   3.433 -0.0614 -0.0915 -0.4372
 4992SOL    HW319735   4.032   2.682   3.555  0.5065 -0.4770  0.0712
 4992SOL    MW419736   4.038   2.647   3.475 -0.4295  0.6824 -0.5559
 4993SOL     OW19737   0.528   0.065   1.544 -0.1260  0.5256 -0.2663
 4993SOL    HW219738   0.536   0.106   1.458  0.2744 -0.1633 -0.5656
 4993SOL    HW319739   0.448   0.014   1.539  0.1699  0.0735 -0.4074
 4993SOL    MW419740   0.518   0.064   1.532 -0.4065 -0.0835 -0.2533
 4994SOL     OW19741   4.131   0.822   0.642 -0.4046 -0.2104  0.2443
 4994SOL    HW219742   4.223   0.806   0.664 -0.3476 -0.3095 -0.0680
 4994SOL    HW319743   4.083   0.781   0.714 -0.2253 -0.7976  0.0333
 4994SOL    MW419744   4.137   0.815   0.655  0.1008 -0.1740 -0.5309
 4995SOL     OW19745   4.627   1.440   2.106  0.1275  0.5138  0.1149
 4995SOL    HW219746   4.602   1.496   2.032  1.7553  0.8721 -0.2028
 4995SOL    HW319747   4.568   1.466   2.176 -1.4070  0.2255 -1.0031
 4995SOL    MW419748   4.616   1.451   2.105  0.3513 -0.1578 -0.0697
 4996SOL     OW19749   6.373   2.313   0.625  0.3209 -0.6057  0.7758
 4996SOL    HW219750   6.334   2.225   0.621  0.2233 -0.5840  1.2590
 4996SOL    HW319751   6.299   2.372   0.633  0.3034 -0.3784 -0.6816
 4996SOL    MW419752   6.358   2.309   0.625 -1.0194  0.0959  0.1044
 4997SOL     OW19753   4.971   0.486   5.293 -0.0092 -0.1640  0.3944
 4997SOL    HW219754   5.041   0.551   5.290  1.1954 -1.4402 -0.4756
 4997SOL    HW319755   4.934   0.494   5.381  1.1730  0.6081  0.8389
 4997SOL    MW419756   4.976   0.495   5.304 -0.1480  0.4834  0.2055
 4998SOL     OW19757   3.781   5.930   5.139 -0.1549 -0.2742  0.2197
 4998SOL    HW219758   3.785   5.962   5.229 -2.9606  1.9140 -0.2866
 4998SOL    HW319759   3.844   5.984   5.091  0.3660 -0.5191  0.6232
 4998SOL    MW419760   3.790   5.942   5.145 -0.5884  0.1864  0.3667
 4999SOL     OW19761   1.831   1.215   5.714  0.5175  0.5516 -0.3960
 4999SOL    HW219762   1.812   1.231   5.806  0.2543  1.5057 -0.6026
 4999SOL    HW319763   1.904   1.273   5.693  1.8133 -0.9821 -0.3516
 4999SOL    MW419764   1.838   1.224   5.723  0.7054  0.1971 -0.0679
 5000SOL     OW19765   1.814   2.458   2.669 -0.4086  0.0412 -0.8036
 5000SOL    HW219766   1.775   2.376   2.640 -1.8073  0.6132 -0.5780
 5000SOL    HW319767   1.760   2.526   2.630  0.7798  0.8806 -1.0525
 5000SOL    MW419768   1.802   2.456   2.660 -0.4056 -0.5741 -0.1754
 5001SOL     OW19769   0.258   0.106   5.268 -0.1269  0.2131  0.5745
 5001SOL    HW219770   0.169   0.072   5.281 -0.1523 -0.1382 -0.4706
 5001SOL    HW319771   0.312   0.049   5.322  0.0845 -2.8998 -2.5569
 5001SOL    MW419772   0.253   0.094   5.277  0.1906  0.4739  0.2057
 5002SOL     OW19773   5.475   3.144   5.031 -0.6300  0.3431 -0.0094
 5002SOL    HW219774   5.441   3.078   4.971 -0.6663  2.2221 -2.2367
 5002SOL    HW319775   5.570   3.138   5.021 -0.6392  0.7199 -0.3757
 5002SOL    MW419776   5.483   3.135   5.022  0.1692 -1.1412  0.2441
 5003SOL     OW19777   6.422   5.770   5.300 -0.0212  0.3300 -0.1359
 5003SOL    HW219778   6.335   5.751   5.265  0.5231  0.3013 -1.5754
 5003SOL    HW319779   6.481   5.716   5.247  0.9393  0.9595  0.2672
 5003SOL    MW419780   6.419   5.761   5.288  0.2358 -0.3536 -0.0329
 5004SOL     OW19781   5.288   3.630   2.449  0.0685 -0.2450 -0.1683
 5004SOL    HW219782   5.340   3.566   2.497 -1.2302 -1.3992 -0.2214
 5004SOL    HW319783   5.246   3.580   2.379 -0.9895  0.6550 -0.2118
 5004SOL    MW419784   5.289   3.615   2.446  0.2607  0.0540  0.5663
 5005SOL     OW19785   5.605   5.168   4.779  0.0026  0.1208 -0.3811
 5005SOL    HW219786   5.522   5.206   4.752 -0.4546 -0.0264  0.7340
 5005SOL    HW319787   5.619   5.204   4.867  1.0064 -0.0368 -0.4698
 5005SOL    MW419788   5.596   5.178   4.787  0.0713  1.1285 -0.0908
 5006SOL     OW19789   2.026   6.255   0.988  0.1556  0.0581 -0.0455
 5006SOL    HW219790   1.947   6.296   0.953 -0.9799 -0.6267  1.5885
 5006SOL    HW319791   1.996   6.171   1.023  1.7781 -0.6098 -0.1556
 5006SOL    MW419792   2.012   6.249   0.988  0.0380 -0.0195  0.3345
 5007SOL     OW19793   3.084   2.559   4.015  0.7801  0.2260 -0.5888
 5007SOL    HW219794   3.098   2.565   4.109  1.5669 -0.3378 -0.6595
 5007SOL    HW319795   3.140   2.626   3.977  0.3815  0.5257 -0.6499
 5007SOL    MW419796   3.093   2.569   4.022 -0.4223 -0.2780  0.2219
 5008SOL     OW19797   1.872   4.148   2.814  0.4205  0.3277 -0.1038
 5008SOL    HW219798   1.785   4.187   2.805  0.9480  1.1486 -2.3520
 5008SOL    HW319799   1.919   4.175   2.735  2.5583 -0.5455  0.7759
 5008SOL    MW419800   1.867   4.157   2.802 -0.1343 -0.4400 -0.1219
 5009SOL     OW19801   3.247   5.456   4.286 -0.3857 -0.0879  0.0439
 5009SOL    HW219802   3.335   5.487   4.262 -1.0743  1.7900 -0.2076
 5009SOL    HW319803   3.230   5.384   4.225  0.2723  0.7197 -1.1395
 5009SOL    MW419804   3.257   5.451   4.275  0.0650 -0.4552 -0.5088
 5010SOL     OW19805   5.988   2.959   0.516 -0.0560  0.2463 -0.1609
 5010SOL    HW219806   6.051   2.917   0.459 -1.0549 -0.8062 -0.5309
 5010SOL    HW319807   6.041   3.003   0.583  1.0950  0.7600 -1.3784
 5010SOL    MW419808   6.003   2.959   0.517  0.0760  0.2820 -0.2576
 5011SOL     OW19809   5.845   2.775   2.647 -0.0624  0.1320 -0.1526
 5011SOL    HW219810   5.791   2.720   2.704 -1.9149 -0.4535 -2.3055
 5011SOL    HW319811   5.823   2.865   2.672  0.5661 -0.0921  1.2671
 5011SOL    MW419812   5.835   2.780   2.657  0.0623  0.5390  0.0206
 5012SOL     OW19813   3.030   4.944   1.643  0.2709  0.4113 -0.3212
 5012SOL    HW219814   2.954   5.002   1.640 -0.5183 -0.4308  1.5890
 5012SOL    HW319815   3.005   4.869   1.589  0.1015  0.5197 -0.3933
 5012SOL    MW419816   3.017   4.942   1.636 -0.1477 -0.5685  0.6249
 5013SOL     OW19817   1.976   4.219   4.244 -0.5277  0.6719 -0.0576
 5013SOL    HW219818   2.028   4.172   4.310 -0.3368 -1.1388 -1.4196
 5013SOL    HW319819   2.024   4.300   4.230  0.5335  0.1827  0.5842
 5013SOL    MW419820   1.989   4.223   4.251 -0.0482 -0.9319  0.1946
 5014SOL     OW19821   5.768   0.948   5.297 -0.3980 -0.1290  0.0317
 5014SOL    HW219822   5.841   0.888   5.314  0.5898  1.1767  0.6014
 5014SOL    HW319823   5.728   0.914   5.217 -0.5451 -2.1381  0.9017
 5014SOL    MW419824   5.773   0.936   5.289 -0.4770  0.2781 -0.0397
 5015SOL     OW19825   0.831   1.422   0.328  0.4085  0.3553  0.2285
 5015SOL    HW219826   0.797   1.369   0.400 -0.6367  1.3288  0.4973
 5015SOL    HW319827   0.852   1.506   0.368 -1.1740  1.2761 -0.7329
 5015SOL    MW419828   0.829   1.426   0.343 -0.2313 -0.6449 -0.6992
 5016SOL     OW19829   3.703   5.292   3.091 -0.1259 -0.0391  0.1459
 5016SOL    HW219830   3.712   5.295   3.186  1.1378  0.0885  0.0339
 5016SOL    HW319831   3.613   5.261   3.077 -0.1415 -0.6078  1.3712
 5016SOL    MW419832   3.692   5.288   3.102 -0.1037 -0.6424 -0.2181
 5017SOL     OW19833   5.080   3.316   0.730 -0.3836 -0.1645  0.1865
 5017SOL    HW219834   5.045   3.233   0.700  0.7681 -0.6765  0.2051
 5017SOL    HW319835   5.137   3.294   0.803 -0.7346  0.7416  0.7594
 5017SOL    MW419836   5.083   3.302   0.735 -0.4119  0.4794  0.2501
 5018SOL     OW19837   5.946   2.155   6.082 -0.1102 -0.3686 -0.0028
 5018SOL    HW219838   5.979   2.102   6.155 -1.8097 -2.4029 -0.6408
 5018SOL    HW319839   5.996   2.126   6.006  1.1660  1.2645  0.1412
 5018SOL    MW419840   5.957   2.144   6.082  0.3090 -0.4054  0.2945
 5019SOL     OW19841   1.699   4.492   3.977 -0.7254 -0.4610 -0.6542
 5019SOL    HW219842   1.647   4.469   4.055 -0.1872  0.8071  0.1111
 5019SOL    HW319843   1.634   4.500   3.907 -1.5674  0.8727  0.2338
 5019SOL    MW419844   1.684   4.490   3.978  0.3470  0.3932 -0.3225
 5020SOL     OW19845   3.444   5.554   4.665  0.1916 -0.5535  0.2501
 5020SOL    HW219846   3.513   5.581   4.604  0.7216 -0.4312  0.8971
 5020SOL    HW319847   3.436   5.460   4.651 -0.8677 -0.2850 -1.1969
 5020SOL    MW419848   3.452   5.545   4.655 -1.2188 -0.0968  0.2094
 5021SOL     OW19849   6.014   4.243   2.260 -0.2053  0.7729  0.6554
 5021SOL    HW219850   6.030   4.162   2.211 -0.1854  0.6551  0.8551
 5021SOL    HW319851   6.088   4.249   2.320  0.1314  1.2749  0.2028
 5021SOL    MW419852   6.026   4.233   2.261  0.0473 -0.1763  0.6869
 5022SOL     OW19853   5.924   6.137   4.494 -0.7068  0.0173 -0.0558
 5022SOL    HW219854   6.003   6.099   4.455 -0.9356 -1.6439  0.9890
 5022SOL    HW319855   5.957   6.197   4.561 -0.3319 -0.1784 -0.0618
 5022SOL    MW419856   5.939   6.140   4.498 -0.2095 -0.0419  0.6373
 5023SOL     OW19857   5.007   5.273   6.001 -0.2722 -0.1830  0.5344
 5023SOL    HW219858   5.032   5.277   6.093 -2.1806  0.3824  1.0673
 5023SOL    HW319859   5.090   5.260   5.954  0.6057 -1.8540  2.4058
 5023SOL    MW419860   5.021   5.272   6.007  0.4502  0.8860  0.3772
 5024SOL     OW19861   1.649   5.807   5.901 -0.3227 -0.2517 -0.1532
 5024SOL    HW219862   1.615   5.858   5.976 -0.9751 -0.4381 -0.3109
 5024SOL    HW319863   1.581   5.741   5.885  0.6367 -1.3597  0.2225
 5024SOL    MW419864   1.635   5.805   5.909 -0.2235  0.3746  0.4604
 5025SOL     OW19865   0.098   0.206   0.156 -0.5665  0.0281  0.4909
 5025SOL    HW219866   0.039   0.170   0.222 -1.8290 -1.4087 -1.3272
 5025SOL    HW319867   0.041   0.258   0.099 -0.4708 -2.5112 -2.1232
 5025SOL    MW419868   0.083   0.208   0.157  0.8182  0.0496  0.5100
 5026SOL     OW19869   5.661   3.903   5.188  0.0139  0.1226  0.4185
 5026SOL    HW219870   5.582   3.938   5.229  0.6976  1.9165  0.3006
 5026SOL    HW319871   5.732   3.958   5.221  0.8939  0.0774 -1.2642
 5026SOL    MW419872   5.660   3.915   5.198  0.1549  0.0541 -1.1279
 5027SOL     OW19873   3.876   3.482   3.146 -0.2411 -0.6147  0.0110
 5027SOL    HW219874   3.815   3.486   3.220  0.5008 -0.9482  0.6527
 5027SOL    HW319875   3.867   3.392   3.113 -0.3954 -0.5390 -0.1538
 5027SOL    MW419876   3.867   3.470   3.152 -0.1325 -0.2326  0.3053
 5028SOL     OW19877   3.192   5.949   2.065  0.9737 -0.1150 -0.5683
 5028SOL    HW219878   3.172   6.043   2.070  0.5102 -0.1881 -0.9283
 5028SOL    HW319879   3.264   5.943   2.002 -1.1607 -0.2550 -3.2140
 5028SOL    MW419880   3.199   5.961   2.057  0.2607 -0.0297  0.2869
 5029SOL     OW19881   6.078   6.208   1.918  0.3694 -0.3540  0.0297
 5029SOL    HW219882   6.097   6.301   1.905  1.2764 -0.3648  1.0992
 5029SOL    HW319883   6.011   6.207   1.987  0.6965 -0.5074  0.3460
 5029SOL    MW419884   6.071   6.220   1.926 -0.3201 -0.0389 -0.1761
 5030SOL     OW19885   0.435   0.671   0.753  0.2618  0.2194  0.1225
 5030SOL    HW219886   0.465   0.608   0.818  0.6010  0.6613  0.4002
 5030SOL    HW319887   0.396   0.618   0.684  0.1103 -0.2648  0.5788
 5030SOL    MW419888   0.434   0.656   0.752  0.6678 -0.2740 -0.1970
 5031SOL     OW19889   5.118   0.382   5.886  0.5220 -0.3070  0.1695
 5031SOL    HW219890   5.100   0.361   5.794 -0.9919 -3.5043  1.0496
 5031SOL    HW319891   5.031   0.386   5.927  1.1270  1.7590  1.4053
 5031SOL    MW419892   5.104   0.380   5.879 -0.0337 -0.3024 -0.3499
 5032SOL     OW19893   3.810   3.984   4.005  0.0222  0.1698  0.2154
 5032SOL    HW219894   3.759   3.967   4.084 -1.6810  0.5204 -0.7566
 5032SOL    HW319895   3.747   3.972   3.933  0.6894  2.8208 -0.9461
 5032SOL    MW419896   3.795   3.980   4.006 -0.4857  0.8997 -0.4599
 5033SOL     OW19897   3.533   5.193   0.380 -0.1463  0.2726 -0.1734
 5033SOL    HW219898   3.476   5.270   0.387  0.3026  0.4983  1.3117
 5033SOL    HW319899   3.473   5.120   0.368 -0.6573  0.6860 -0.1971
 5033SOL    MW419900   3.518   5.194   0.379 -0.3749 -0.6146  0.3633
 5034SOL     OW19901   0.883   2.685   0.381  0.3775 -0.5758  0.1199
 5034SOL    HW219902   0.860   2.592   0.387  1.8475 -0.9845 -0.2713
 5034SOL    HW319903   0.804   2.731   0.410 -0.6960 -1.9166 -0.5818
 5034SOL    MW419904   0.869   2.679   0.386  0.2920  0.9215 -0.0471
 5035SOL     OW19905   6.358   5.237   0.108 -0.6988  0.3950 -0.3152
 5035SOL    HW219906   6.415   5.255   0.183 -1.9611  0.4130  0.6729
 5035SOL    HW319907   6.285   5.299   0.117 -0.4284  1.0328 -2.0908
 5035SOL    MW419908   6.356   5.247   0.119 -0.0256 -0.0925 -0.4460
 5036SOL     OW19909   5.511   0.252   4.377  0.8186 -0.4181  0.3051
 5036SOL    HW219910   5.491   0.320   4.312  2.0121  0.1205  0.4591
 5036SOL    HW319911   5.442   0.261   4.443 -0.3222 -0.8698 -0.7902
 5036SOL    MW419912   5.500   0.262   4.377 -0.0713  0.1217 -0.1792
 5037SOL     OW19913   0.389   3.499   1.386 -0.2038  0.7147  0.2356
 5037SOL    HW219914   0.455   3.501   1.316  0.1073  1.3451  0.5435
 5037SOL    HW319915   0.375   3.405   1.402 -0.8063  0.5425 -1.1510
 5037SOL    MW419916   0.396   3.487   1.379 -0.4590 -0.6010  0.2299
 5038SOL     OW19917   1.324   5.227   0.745  0.0888 -0.1274  0.7208
 5038SOL    HW219918   1.271   5.263   0.816 -0.0364  0.8660  0.1497
 5038SOL    HW319919   1.408   5.207   0.785 -0.7457 -1.8942  1.6785
 5038SOL    MW419920   1.328   5.229   0.759 -0.2848  0.2632  0.4453
 5039SOL     OW19921   2.145   2.255   3.295 -0.1614  0.5587 -0.3992
 5039SOL    HW219922   2.103   2.313   3.231 -1.2331 -0.0693 -0.2820
 5039SOL    HW319923   2.236   2.248   3.265 -0.1393  1.8729 -0.7082
 5039SOL    MW419924   2.151   2.262   3.282 -0.5297 -0.2289 -0.3233
 5040SOL     OW19925   1.653   1.357   2.636 -0.4456  0.0385 -0.4787
 5040SOL    HW219926   1.711   1.421   2.594 -0.4763  1.3021  1.2794
 5040SOL    HW319927   1.566   1.397   2.632 -1.1026 -1.4592 -2.3406
 5040SOL    MW419928   1.649   1.371   2.630 -0.3440  0.1706  0.1552
 5041SOL     OW19929   1.237   5.703   1.127 -0.3024  0.5610 -0.0123
 5041SOL    HW219930   1.307   5.741   1.181 -1.2621 -1.0713  2.6188
 5041SOL    HW319931   1.265   5.612   1.114 -0.3316  0.7948 -1.9693
 5041SOL    MW419932   1.250   5.696   1.133  0.0075 -0.1553 -0.5006
 5042SOL     OW19933   3.949   3.350   2.665 -0.0688  0.0030 -0.1718
 5042SOL    HW219934   3.895   3.429   2.662  0.6712  0.5221  0.0371
 5042SOL    HW319935   3.942   3.319   2.755 -0.8250 -0.5088 -0.3960
 5042SOL    MW419936   3.941   3.356   2.676 -0.0627  0.6199 -0.0040
 5043SOL     OW19937   0.131   2.970   4.663  0.1213 -0.4410 -0.1646
 5043SOL    HW219938   0.051   2.935   4.623  0.4231 -1.5500  0.1784
 5043SOL    HW319939   0.201   2.914   4.629  0.5610 -0.4560  0.7352
 5043SOL    MW419940   0.130   2.958   4.653 -0.0409 -0.3075 -0.0614
 5044SOL     OW19941   4.459   0.631   2.749  0.2960 -0.3548 -0.0737
 5044SOL    HW219942   4.391   0.608   2.686 -0.5067 -1.2028  1.0699
 5044SOL    HW319943   4.541   0.604   2.707 -0.3074 -1.8991 -0.3213
 5044SOL    MW419944   4.461   0.625   2.735  0.6287  0.6770 -0.2529
 5045SOL     OW19945   3.133   0.608   0.752  0.3922 -0.1563  0.4697
 5045SOL    HW219946   3.059   0.563   0.712 -0.3828  0.2605  1.3770
 5045SOL    HW319947   3.200   0.611   0.684 -1.1337  1.2239 -1.0782
 5045SOL    MW419948   3.132   0.603   0.738 -0.1434  0.1620 -0.0826
 5046SOL     OW19949   0.264   0.749   3.930 -0.2311 -0.1625 -0.2754
 5046SOL    HW219950   0.354   0.723   3.951 -0.6863 -2.2725 -0.7006
 5046SOL    HW319951   0.227   0.778   4.013  0.7385  0.4560 -0.0413
 5046SOL    MW419952   0.271   0.750   3.944 -0.5152 -0.6298 -0.2166
 5047SOL     OW19953   5.330   2.647   3.529 -0.5014  0.6822  0.2781
 5047SOL    HW219954   5.421   2.655   3.499 -0.4746  0.0162  0.1622
 5047SOL    HW319955   5.304   2.736   3.551  0.3626  0.8166  0.8200
 5047SOL    MW419956   5.339   2.660   3.528 -0.4127 -0.3623 -0.2553
 5048SOL     OW19957   3.793   4.705   2.586 -0.0220  0.3346 -0.4111
 5048SOL    HW219958   3.807   4.778   2.526 -0.6670  0.4126 -0.4805
 5048SOL    HW319959   3.747   4.639   2.533  2.2363 -0.9347 -0.8896
 5048SOL    MW419960   3.789   4.706   2.571 -0.3469  0.6547 -0.6418
 5049SOL     OW19961   0.111   1.813   6.184  0.3620 -0.2801  0.1671
 5049SOL    HW219962   0.120   1.786   6.092  1.0629 -1.0864  0.4563
 5049SOL    HW319963   0.199   1.802   6.221  0.1445  0.2842  0.8787
 5049SOL    MW419964   0.124   1.808   6.177  0.1847  0.2684  0.1024
 5050SOL     OW19965   2.793   6.079   3.705  0.4485  0.2362 -0.0607
 5050SOL    HW219966   2.876   6.055   3.747  0.4100  0.8191  0.3563
 5050SOL    HW319967   2.755   6.146   3.762  0.1006  0.5972 -0.6992
 5050SOL    MW419968   2.799   6.085   3.718  0.0974  1.1800  0.0976
 5051SOL     OW19969   5.600   6.049   4.686 -0.9234 -0.0528  0.6398
 5051SOL    HW219970   5.550   6.017   4.760 -0.9310 -2.9973 -0.5203
 5051SOL    HW319971   5.670   5.985   4.674  0.5828  1.6689 -0.4191
 5051SOL    MW419972   5.603   6.037   4.694 -0.2011  0.4028  0.1416
 5052SOL     OW19973   2.923   2.201   4.161 -0.2480 -0.2502 -0.3602
 5052SOL    HW219974   2.983   2.134   4.128  0.6752  0.4153 -0.0825
 5052SOL    HW319975   2.857   2.153   4.210 -0.1789 -1.0344 -1.0162
 5052SOL    MW419976   2.922   2.186   4.163 -0.2011 -0.1614  0.3481
 5053SOL     OW19977   3.636   3.142   0.872  0.0091  0.4468  0.2386
 5053SOL    HW219978   3.707   3.167   0.931 -1.5159  2.7823  1.2190
 5053SOL    HW319979   3.599   3.064   0.913  1.3932 -0.2763  0.1984
 5053SOL    MW419980   3.641   3.135   0.886 -0.5540 -0.5814 -0.3952
 5054SOL     OW19981   3.564   1.659   2.371 -0.2149 -0.0963 -0.2092
 5054SOL    HW219982   3.512   1.579   2.366 -0.4266  0.0869 -1.0909
 5054SOL    HW319983   3.500   1.730   2.365  0.1583  0.1351 -1.9798
 5054SOL    MW419984   3.549   1.658   2.370 -0.0465  0.4976  0.6284
 5055SOL     OW19985   1.078   4.005   3.074  0.0756 -0.4594 -0.1076
 5055SOL    HW219986   1.155   4.022   3.129  0.5314 -0.2591 -0.7895
 5055SOL    HW319987   1.107   3.938   3.012 -0.0959  0.0732 -0.7758
 5055SOL    MW419988   1.092   3.999   3.073  0.0049 -0.4433 -0.0775
 5056SOL     OW19989   4.289   6.219   2.904 -0.1671 -1.1968  0.1243
 5056SOL    HW219990   4.352   6.257   2.843 -1.3039 -0.4102 -0.5936
 5056SOL    HW319991   4.308   6.261   2.988  0.8471 -1.6473  0.1310
 5056SOL    MW419992   4.299   6.229   2.907  0.7461  0.1434 -0.0303
 5057SOL     OW19993   2.638   2.686   0.017  0.3995 -0.2988 -0.0373
 5057SOL    HW219994   2.608   2.633  -0.057  0.3765  0.0955 -0.3103
 5057SOL    HW319995   2.569   2.752   0.028  0.8235  0.1834 -0.2235
 5057SOL    MW419996   2.625   2.688   0.009  0.3495  0.4295  0.4319
 5058SOL     OW19997   6.310   1.867   5.097  0.1120  0.0758 -0.5856
 5058SOL    HW219998   6.318   1.774   5.076 -1.9227 -0.1133 -0.7597
 5058SOL    HW319999   6.319   1.911   5.013  0.7021  0.0170 -0.5574
 5058SOL    MW420000   6.312   1.860   5.083  0.6558  0.9228 -0.5494
 5059SOL     OW20001   4.455   6.052   4.347 -0.4637  0.9612  0.2347
 5059SOL    HW220002   4.549   6.048   4.365 -0.6573 -0.2195  1.0734
 5059SOL    HW320003   4.449   6.065   4.253  0.5580 -1.3664 -0.2173
 5059SOL    MW420004   4.467   6.053   4.337  0.5337  0.7013  0.5574
 5060SOL     OW20005   3.513   2.036   5.231 -0.1766 -0.5561  0.4567
 5060SOL    HW220006   3.576   2.093   5.189 -0.3275 -1.1537 -0.6380
 5060SOL    HW320007   3.532   2.042   5.325  1.0073 -0.1606  0.2029
 5060SOL    MW420008   3.524   2.044   5.238  0.3738  0.4666 -0.0550
 5061SOL     OW20009   2.238   5.056   0.311  0.2950  0.5909 -0.2008
 5061SOL    HW220010   2.196   5.133   0.351  0.0367 -0.6712  2.1166
 5061SOL    HW320011   2.327   5.057   0.347 -0.3891 -1.4093  1.8271
 5061SOL    MW420012   2.244   5.067   0.321 -0.2290 -0.1065  0.2735
 5062SOL     OW20013   1.027   6.041   3.406  0.0476  0.0840 -0.3313
 5062SOL    HW220014   1.101   6.021   3.349 -1.3721  0.5040 -2.4223
 5062SOL    HW320015   0.969   6.094   3.352 -1.2118  0.8409  1.6599
 5062SOL    MW420016   1.029   6.046   3.392  0.1229  0.2464  0.4523
 5063SOL     OW20017   3.652   4.776   1.850 -0.2032  0.0316 -0.0846
 5063SOL    HW220018   3.659   4.871   1.852  1.7988 -0.0858  1.5528
 5063SOL    HW320019   3.741   4.745   1.832 -0.6817 -1.5345  0.0908
 5063SOL    MW420020   3.664   4.784   1.848  0.0630 -0.7327 -0.2301
 5064SOL     OW20021   3.567   3.162   1.504 -0.1595 -0.1512 -0.5509
 5064SOL    HW220022   3.553   3.135   1.595  0.5740  1.3449  0.0342
 5064SOL    HW320023   3.632   3.099   1.471  1.9611  1.1032  0.9603
 5064SOL    MW420024   3.574   3.150   1.512 -0.6476 -0.1102 -0.5909
 5065SOL     OW20025   0.016   4.535   6.054  0.1594 -0.5623  0.0473
 5065SOL    HW220026  -0.043   4.534   6.129 -0.8454 -1.0733 -0.7088
 5065SOL    HW320027  -0.030   4.482   5.988  0.7500  0.3287 -1.1094
 5065SOL    MW420028   0.002   4.528   6.055 -0.0592  0.5005  0.3245
 5066SOL     OW20029   4.249   4.163   1.142  0.0346  0.0968  0.4607
 5066SOL    HW220030   4.207   4.129   1.062 -0.8387  1.4519  0.3086
 5066SOL    HW320031   4.309   4.231   1.111  0.4273 -0.0532  0.8854
 5066SOL    MW420032   4.251   4.168   1.127  0.6567 -0.0588 -0.0427
 5067SOL     OW20033   3.404   3.181   3.690  0.0698 -0.1656 -0.4544
 5067SOL    HW220034   3.436   3.271   3.698 -0.2333 -0.1598  1.0945
 5067SOL    HW320035   3.344   3.183   3.616  0.2428  0.8527 -0.5815
 5067SOL    MW420036   3.401   3.193   3.682  0.2031  0.0403  0.3523
 5068SOL     OW20037   6.187   4.219   4.281 -0.2665 -0.1836  0.0852
 5068SOL    HW220038   6.165   4.256   4.195 -3.4622 -2.1515 -0.1065
 5068SOL    HW320039   6.283   4.214   4.281 -0.0820  1.3814 -2.6805
 5068SOL    MW420040   6.197   4.223   4.269 -0.1683  0.6366  0.0942
 5069SOL     OW20041   0.878   0.728   3.559 -0.8448  0.1790  0.2068
 5069SOL    HW220042   0.922   0.740   3.474 -0.1088  0.5564  0.6337
 5069SOL    HW320043   0.946   0.746   3.624 -1.7703  1.3317  0.8957
 5069SOL    MW420044   0.893   0.732   3.556  0.2137  0.4145  0.3793
 5070SOL     OW20045   3.643   6.218   2.579  0.1679  0.0623  0.2132
 5070SOL    HW220046   3.570   6.279   2.570  0.4765  0.4861  0.5516
 5070SOL    HW320047   3.608   6.147   2.633  0.2439  0.6563  1.0512
 5070SOL    MW420048   3.629   6.216   2.585 -0.2502 -0.0603  0.4985
 5071SOL     OW20049   2.861   1.587   3.029  0.2870  0.3494  0.2573
 5071SOL    HW220050   2.856   1.654   3.098  1.2050 -1.1840  1.9072
 5071SOL    HW320051   2.938   1.612   2.977 -0.7133  1.8086 -0.5628
 5071SOL    MW420052   2.871   1.599   3.031 -0.1484 -0.3280 -0.0244
 5072SOL     OW20053   1.808   1.296   5.973  0.3953  0.1816  0.0561
 5072SOL    HW220054   1.762   1.379   5.972  0.8473  0.4520  0.8249
 5072SOL    HW320055   1.750   1.237   6.022 -0.8933 -0.5730 -2.1977
 5072SOL    MW420056   1.794   1.299   5.979 -0.3001 -0.1796 -0.7846
 5073SOL     OW20057   1.732   1.696   0.108  0.1066 -0.1812 -0.2142
 5073SOL    HW220058   1.691   1.754   0.044 -0.6874 -1.2956 -0.7662
 5073SOL    HW320059   1.823   1.689   0.080  0.2591  0.9308 -0.0227
 5073SOL    MW420060   1.738   1.703   0.096  0.3286  0.6599 -0.5884
 5074SOL     OW20061   0.488   0.359   1.715 -0.5866  0.2354  0.3197
 5074SOL    HW220062   0.560   0.353   1.777 -0.1946 -1.6458 -0.2344
 5074SOL    HW320063   0.443   0.274   1.722 -1.4041  0.5353 -0.9213
 5074SOL    MW420064   0.491   0.347   1.724 -0.0108  0.1836  0.3910
 5075SOL     OW20065   4.780   5.362   5.168  0.6159  0.3628 -0.1434
 5075SOL    HW220066   4.703   5.309   5.150  1.0040  0.3966 -2.1450
 5075SOL    HW320067   4.756   5.450   5.141  0.7922  0.7172  0.8363
 5075SOL    MW420068   4.767   5.366   5.162 -0.2393 -0.1731  0.2010
 5076SOL     OW20069   4.798   5.107   2.197  0.4795  0.4725 -0.4475
 5076SOL    HW220070   4.771   5.079   2.285  0.1115  0.1638 -0.6588
 5076SOL    HW320071   4.732   5.171   2.171  1.3150  1.5603  0.0327
 5076SOL    MW420072   4.786   5.112   2.205  0.1035  0.0867  0.1626
 5077SOL     OW20073   2.689   2.933   2.525 -0.2586 -0.1019 -0.4901
 5077SOL    HW220074   2.630   2.857   2.532 -1.8485  1.2036  1.9577
 5077SOL    HW320075   2.752   2.920   2.596 -0.0940  0.5165 -0.5218
 5077SOL    MW420076   2.689   2.921   2.535 -0.0485  0.5077 -0.0866
 5078SOL     OW20077   2.968   6.356   1.356 -0.5841 -0.7135 -0.7569
 5078SOL    HW220078   3.043   6.410   1.381 -0.3104 -1.4854  0.1587
 5078SOL    HW320079   2.930   6.401   1.280  0.9621 -0.4442 -1.4145
 5078SOL    MW420080   2.973   6.369   1.349 -0.1844  0.6662  0.1524
 5079SOL     OW20081   0.783   5.289   5.430  0.3375 -0.5111  0.3777
 5079SOL    HW220082   0.720   5.255   5.366  0.8474 -1.3700  0.3224
 5079SOL    HW320083   0.732   5.350   5.483 -0.2835 -0.3805 -0.3452
 5079SOL    MW420084   0.768   5.293   5.428  0.0972 -0.3726 -0.7256
 5080SOL     OW20085   4.913   0.086   5.992  0.6380 -0.4199  0.0243
 5080SOL    HW220086   4.821   0.087   5.968  0.7824  0.7351 -0.5417
 5080SOL    HW320087   4.960   0.084   5.908  1.1374 -1.6945  0.3125
 5080SOL    MW420088   4.907   0.086   5.978  0.6587 -0.1127 -0.7981
 5081SOL     OW20089   3.466   3.498   2.182  0.2467 -0.1167 -0.3059
 5081SOL    HW220090   3.429   3.413   2.205  0.0512  0.4431  1.5752
 5081SOL    HW320091   3.549   3.477   2.139 -0.5901 -1.2780 -1.4225
 5081SOL    MW420092   3.472   3.484   2.179  0.3660 -0.1331  0.1456
 5082SOL     OW20093   1.714   1.521   5.370  0.3206 -0.0393  0.6089
 5082SOL    HW220094   1.711   1.443   5.425 -0.7780  0.4301  1.2364
 5082SOL    HW320095   1.652   1.581   5.410 -0.1403  0.5089 -0.8767
 5082SOL    MW420096   1.706   1.519   5.383  0.7490  0.8125  0.3474
 5083SOL     OW20097   2.329   2.092   6.226  0.4764  0.3510 -0.1762
 5083SOL    HW220098   2.268   2.021   6.207  2.8637 -2.2063  1.0564
 5083SOL    HW320099   2.368   2.113   6.141 -1.5991  1.6928 -0.8980
 5083SOL    MW420100   2.326   2.086   6.212  0.3159  0.3518  0.7009
 5084SOL     OW20101   1.066   5.811   5.030  0.1438 -0.1502  0.4326
 5084SOL    HW220102   1.142   5.868   5.018  1.2583 -1.9399 -1.8733
 5084SOL    HW320103   1.104   5.724   5.046 -1.4260 -0.9654 -0.0698
 5084SOL    MW420104   1.081   5.807   5.031  0.1156 -0.0076 -0.4909
 5085SOL     OW20105   2.433   4.856   3.803  0.4124  0.0658  0.5675
 5085SOL    HW220106   2.414   4.934   3.751  0.2553 -0.2907  0.0777
 5085SOL    HW320107   2.347   4.828   3.836  0.3666 -0.3145  0.1362
 5085SOL    MW420108   2.419   4.863   3.801  0.0080  0.2538  0.1039
 5086SOL     OW20109   0.851   5.626   5.322 -0.5442 -0.2007  0.1663
 5086SOL    HW220110   0.934   5.663   5.352 -0.3219 -1.5856  1.4413
 5086SOL    HW320111   0.876   5.549   5.270 -1.0117  0.4485 -1.0568
 5086SOL    MW420112   0.865   5.621   5.319 -0.2055  0.4642 -0.4533
 5087SOL     OW20113   0.423   6.326   0.926  0.0305  0.3533 -0.0538
 5087SOL    HW220114   0.498   6.277   0.891  0.6397  0.3452  1.2134
 5087SOL    HW320115   0.443   6.418   0.906 -0.0126  0.2837 -0.4246
 5087SOL    MW420116   0.436   6.332   0.919  0.3452 -0.3403 -0.1968
 5088SOL     OW20117   2.660   1.088   4.529 -0.1912  0.4553  0.1981
 5088SOL    HW220118   2.630   1.033   4.602  1.9744 -0.3929  0.5058
 5088SOL    HW320119   2.755   1.081   4.531  0.0759  2.9563 -0.7969
 5088SOL    MW420120   2.668   1.080   4.539  0.5984 -0.2802 -0.2224
 5089SOL     OW20121   0.569   2.762   1.387  0.2076  0.0600  0.1371
 5089SOL    HW220122   0.635   2.787   1.452  0.7533  2.5855 -1.2528
 5089SOL    HW320123   0.617   2.711   1.322  0.8913  1.8666 -0.8564
 5089SOL    MW420124   0.584   2.759   1.387  0.2037  0.2922 -0.0992
 5090SOL     OW20125   4.153   5.557   2.494  0.2820 -0.1458 -0.4217
 5090SOL    HW220126   4.058   5.552   2.500  0.1075 -4.0102 -2.7802
 5090SOL    HW320127   4.184   5.484   2.548  1.8305  0.1535 -0.8638
 5090SOL    MW420128   4.144   5.547   2.502 -0.6549  0.1805 -0.1214
 5091SOL     OW20129   5.562   4.456   1.485 -0.3423  0.0287 -0.3483
 5091SOL    HW220130   5.502   4.382   1.470 -0.3300 -0.1773  0.5726
 5091SOL    HW320131   5.506   4.534   1.474 -0.5135 -0.1283 -0.6205
 5091SOL    MW420132   5.546   4.457   1.481  0.0310  0.3500  0.5250
 5092SOL     OW20133   4.445   3.945   2.517 -0.1188 -0.1223 -0.3757
 5092SOL    HW220134   4.488   3.966   2.434  0.2213  0.5652 -0.0271
 5092SOL    HW320135   4.351   3.951   2.497 -0.0746 -1.3149 -1.0556
 5092SOL    MW420136   4.438   3.948   2.503  0.4505 -0.4446 -0.4917
 5093SOL     OW20137   2.560   4.275   5.618 -0.1914  0.4071  0.0065
 5093SOL    HW220138   2.529   4.185   5.613  0.7126 -0.0306  1.7096
 5093SOL    HW320139   2.655   4.269   5.605  0.0523  0.9357  1.3559
 5093SOL    MW420140   2.568   4.262   5.616  0.4914 -0.0894 -0.1522
 5094SOL     OW20141   5.943   0.241   0.400  0.3827 -0.4215  0.1347
 5094SOL    HW220142   5.855   0.205   0.409  0.0842  0.2631  0.0859
 5094SOL    HW320143   5.975   0.209   0.316 -0.0516 -0.2085 -0.1133
 5094SOL    MW420144   5.936   0.232   0.390  0.2253  0.4560 -0.2236
 5095SOL     OW20145   6.005   3.771   4.736 -0.1048  0.0642  0.6847
 5095SOL    HW220146   6.041   3.843   4.685  0.0361 -1.2727 -1.2099
 5095SOL    HW320147   5.910   3.783   4.729 -0.0985  1.1970  2.1286
 5095SOL    MW420148   5.997   3.782   4.728  0.7056  0.7853 -0.3285
 5096SOL     OW20149   5.627   1.542   1.440 -0.0272 -0.0686 -0.6237
 5096SOL    HW220150   5.682   1.589   1.503  0.5150 -2.1195  0.5330
 5096SOL    HW320151   5.689   1.492   1.387 -0.6631 -1.1947 -0.3366
 5096SOL    MW420152   5.643   1.541   1.441  0.0913  0.3794 -0.4628
 5097SOL     OW20153   5.922   1.783   6.414  0.0596 -0.1408  0.4841
 5097SOL    HW220154   5.968   1.854   6.369  0.0242 -0.3204  0.1602
 5097SOL    HW320155   5.935   1.801   6.507  1.8613 -0.8739  0.4128
 5097SOL    MW420156   5.929   1.795   6.421  0.6131  0.5335  0.2100
 5098SOL     OW20157   1.233   1.704   5.534 -1.0885  0.6700 -0.1623
 5098SOL    HW220158   1.186   1.787   5.519  0.0855  1.2817 -0.5240
 5098SOL    HW320159   1.233   1.661   5.449  0.5926  1.5290 -0.6365
 5098SOL    MW420160   1.227   1.710   5.521 -0.0707 -0.1790 -0.4934
 5099SOL     OW20161   0.571   3.281   0.355  0.1019 -0.0444  0.1693
 5099SOL    HW220162   0.591   3.373   0.337  3.1993 -0.6774 -0.2022
 5099SOL    HW320163   0.594   3.235   0.274 -0.6038 -1.2665  0.6319
 5099SOL    MW420164   0.576   3.287   0.342  0.2769  0.1359 -0.5263
 5100SOL     OW20165   3.225   3.878   1.357  0.1905  0.3358  0.2587
 5100SOL    HW220166   3.244   3.803   1.413 -0.3310 -1.8874 -2.3105
 5100SOL    HW320167   3.310   3.920   1.345  0.5965 -0.1358  1.3278
 5100SOL    MW420168   3.239   3.873   1.363 -0.7348 -0.8222  0.4599
 5101SOL     OW20169   3.538   0.489   5.939 -0.1419 -0.2684 -0.0541
 5101SOL    HW220170   3.488   0.421   5.985 -0.2093 -0.7425 -0.8035
 5101SOL    HW320171   3.586   0.534   6.008 -0.3735 -0.8444  0.4997
 5101SOL    MW420172   3.538   0.486   5.954 -0.1774 -0.1452  0.1061
 5102SOL     OW20173   0.043   6.085   3.038  0.1087  0.0700 -0.9530
 5102SOL    HW220174   0.005   6.157   2.987  0.0167  0.8202  0.1427
 5102SOL    HW320175  -0.026   6.059   3.098  1.0381  0.9626  0.5625
 5102SOL    MW420176   0.029   6.091   3.039  0.3427  0.0033 -0.0194
 5103SOL     OW20177   2.040   4.493   4.549  0.5760 -0.1245 -0.4218
 5103SOL    HW220178   2.042   4.521   4.641 -0.0370 -0.1850 -0.3867
 5103SOL    HW320179   2.113   4.431   4.542 -0.1829 -1.1527  0.3658
 5103SOL    MW420180   2.050   4.488   4.560 -0.1082  0.0247  0.2481
 5104SOL     OW20181   2.367   4.077   3.518  0.3375  0.2751  0.1035
 5104SOL    HW220182   2.354   4.037   3.604  1.7570  1.3160  0.8467
 5104SOL    HW320183   2.314   4.024   3.458 -2.6874  0.9453  1.9480
 5104SOL    MW420184   2.358   4.065   3.521 -0.5975 -0.7573  0.4901
 5105SOL     OW20185   3.319   5.227   4.741  0.7606  0.7261  0.0797
 5105SOL    HW220186   3.258   5.259   4.808 -0.1911 -0.7139 -0.0538
 5105SOL    HW320187   3.377   5.167   4.788 -0.8513 -1.4684 -0.5657
 5105SOL    MW420188   3.318   5.223   4.756 -0.1496  0.1140  0.1091
 5106SOL     OW20189   0.353   0.690   5.175  0.4148  0.2239 -0.8730
 5106SOL    HW220190   0.379   0.754   5.240 -0.3309 -0.8245  0.5147
 5106SOL    HW320191   0.258   0.703   5.165  0.3516 -0.2800 -0.9906
 5106SOL    MW420192   0.344   0.700   5.182 -0.2324  0.3857  0.8486
 5107SOL     OW20193   2.457   4.822   5.642 -0.1056 -0.4452  0.3949
 5107SOL    HW220194   2.405   4.842   5.564  0.7152 -1.5040 -0.4488
 5107SOL    HW320195   2.510   4.900   5.656 -1.9216  0.7070  1.3372
 5107SOL    MW420196   2.457   4.835   5.634 -0.6589 -0.0132  0.3958
 5108SOL     OW20197   4.470   6.186   0.414 -0.3022 -0.1417  0.1208
 5108SOL    HW220198   4.406   6.150   0.475 -0.7134 -0.6040 -0.5784
 5108SOL    HW320199   4.526   6.241   0.469 -1.4484  0.4790  0.6913
 5108SOL    MW420200   4.469   6.188   0.430  0.1221 -0.1598  0.0327
 5109SOL     OW20201   5.096   1.288   3.183 -0.2591  0.0223 -0.3240
 5109SOL    HW220202   5.034   1.278   3.111  1.2382 -1.5763 -1.5152
 5109SOL    HW320203   5.042   1.303   3.260 -2.1472 -1.4464 -1.2617
 5109SOL    MW420204   5.081   1.288   3.184 -0.7801  0.6107  0.0257
 5110SOL     OW20205   0.002   2.945   5.064 -0.1126  0.3203 -0.0193
 5110SOL    HW220206   0.093   2.955   5.090 -0.1558  1.9487 -0.3852
 5110SOL    HW320207  -0.016   3.020   5.008 -2.1298  0.9314  1.3286
 5110SOL    MW420208   0.011   2.956   5.060 -0.5791  0.1748  0.4784
 5111SOL     OW20209   1.491   0.577   5.478 -0.6512  0.0751  0.2744
 5111SOL    HW220210   1.559   0.617   5.533 -0.1775  2.2048 -1.6795
 5111SOL    HW320211   1.484   0.487   5.509  3.0206 -0.2326  0.6187
 5111SOL    MW420212   1.499   0.571   5.489 -0.2130 -0.6578  0.0281
 5112SOL     OW20213   3.753   5.743   0.905 -0.6572 -0.2053 -0.0845
 5112SOL    HW220214   3.786   5.653   0.904 -1.0712 -0.3625 -0.8095
 5112SOL    HW320215   3.812   5.790   0.846 -0.8067 -0.1364 -0.1777
 5112SOL    MW420216   3.765   5.737   0.897  0.6793  0.0896 -0.4444
 5113SOL     OW20217   4.969   0.662   0.217 -0.1424  0.3952 -0.3766
 5113SOL    HW220218   4.960   0.713   0.298 -0.6481  0.5494 -0.5280
 5113SOL    HW320219   4.886   0.615   0.209  0.1992 -0.2034 -0.4122
 5113SOL    MW420220   4.957   0.663   0.227  0.1618 -0.0336 -0.0639
 5114SOL     OW20221   0.846   5.249   0.236 -0.5472 -0.1854  0.4458
 5114SOL    HW220222   0.813   5.160   0.226  1.1874 -0.6555 -2.0387
 5114SOL    HW320223   0.938   5.237   0.260 -0.5179  0.9833  0.9938
 5114SOL    MW420224   0.854   5.236   0.238  0.5791 -0.1991  0.1612
 5115SOL     OW20225   6.272   4.718   2.567 -0.2541 -0.3176  0.4905
 5115SOL    HW220226   6.367   4.721   2.556 -0.0201 -1.9554  1.7113
 5115SOL    HW320227   6.247   4.808   2.586  0.8264  0.4249 -1.3123
 5115SOL    MW420228   6.281   4.731   2.568 -0.4178  0.1788  0.2668
 5116SOL     OW20229   3.266   5.089   5.633  0.7512  0.0694 -0.2085
 5116SOL    HW220230   3.182   5.133   5.621  0.6920  0.5046  1.5053
 5116SOL    HW320231   3.331   5.158   5.621  0.7321  0.2898  0.8511
 5116SOL    MW420232   3.263   5.104   5.630  0.1381 -0.0587  0.2139
 5117SOL     OW20233   3.777   5.480   5.281 -0.0060  0.2269  0.5168
 5117SOL    HW220234   3.731   5.512   5.359  0.4410  0.6365  0.6181
 5117SOL    HW320235   3.709   5.472   5.214 -0.5012 -0.6878  1.1059
 5117SOL    MW420236   3.762   5.483   5.283 -0.2384 -0.0138  0.2239
 5118SOL     OW20237   0.992   2.267   6.037 -0.7605  0.3344  0.3406
 5118SOL    HW220238   0.945   2.346   6.010 -0.0836  0.9644  0.9729
 5118SOL    HW320239   1.065   2.299   6.089 -1.8106 -0.8212  2.6455
 5118SOL    MW420240   0.995   2.282   6.040  0.4879  0.1136 -0.2976
 5119SOL     OW20241   5.010   2.175   5.095 -0.2918  0.3025 -0.0657
 5119SOL    HW220242   4.978   2.160   5.006  0.6669 -0.3930 -0.2976
 5119SOL    HW320243   4.966   2.256   5.122 -1.5347 -0.1255 -0.7101
 5119SOL    MW420244   5.000   2.183   5.087  0.6782 -0.1174  0.0098
 5120SOL     OW20245   3.556   0.141   5.918 -0.4557 -0.8937  0.3847
 5120SOL    HW220246   3.598   0.185   5.992  0.4282  0.9412 -1.1274
 5120SOL    HW320247   3.500   0.075   5.958  1.2412 -1.0972  2.6176
 5120SOL    MW420248   3.554   0.138   5.933 -0.3997 -0.0224 -0.8680
 5121SOL     OW20249   4.500   2.597   3.444 -0.1804  0.6737 -0.7967
 5121SOL    HW220250   4.507   2.504   3.467 -0.7173  0.7591 -0.2694
 5121SOL    HW320251   4.561   2.608   3.372  1.6317  0.4110  0.6365
 5121SOL    MW420252   4.509   2.586   3.437 -0.8145  0.3152 -0.4289
 5122SOL     OW20253   3.353   0.224   3.037 -0.1958 -0.4361 -0.0207
 5122SOL    HW220254   3.258   0.212   3.041 -0.3960  0.7986 -0.6260
 5122SOL    HW320255   3.388   0.165   3.104 -1.3809 -0.9403  0.1750
 5122SOL    MW420256   3.345   0.215   3.046  0.2225  0.3777  1.0214
 5123SOL     OW20257   0.649   5.920   3.690 -0.4438  0.3788 -0.5187
 5123SOL    HW220258   0.704   5.992   3.721 -0.6555 -0.5679  2.3306
 5123SOL    HW320259   0.701   5.878   3.621  0.8604  1.5880 -0.3268
 5123SOL    MW420260   0.663   5.924   3.685 -0.1074 -0.1231 -0.0721
 5124SOL     OW20261   0.340   3.620   4.708 -0.3349 -0.2197 -0.3164
 5124SOL    HW220262   0.292   3.688   4.660  2.1445  1.6578 -0.3853
 5124SOL    HW320263   0.284   3.597   4.781 -2.5468 -0.3261 -1.9406
 5124SOL    MW420264   0.327   3.626   4.711  0.3114 -0.1485  0.3380
 5125SOL     OW20265   3.938   6.339   4.242  0.3210  0.1053 -0.4419
 5125SOL    HW220266   4.011   6.281   4.264  0.9094  0.6700 -0.8813
 5125SOL    HW320267   3.934   6.400   4.316  0.8146  0.5658 -0.7846
 5125SOL    MW420268   3.947   6.339   4.255 -0.0096 -0.4047  0.5859
 5126SOL     OW20269   5.145   2.541   3.313 -0.3665  0.0512 -0.3353
 5126SOL    HW220270   5.117   2.459   3.353 -1.1137 -0.5421 -1.9704
 5126SOL    HW320271   5.229   2.561   3.354 -0.4074 -1.2764  0.4323
 5126SOL    MW420272   5.152   2.533   3.324 -0.2683 -0.3356  0.3505
 5127SOL     OW20273   5.411   1.116   4.283  0.2652 -0.6287 -0.7077
 5127SOL    HW220274   5.342   1.148   4.226  0.2093  0.5068 -0.0258
 5127SOL    HW320275   5.422   1.024   4.258 -1.4006 -0.8027 -0.9094
 5127SOL    MW420276   5.403   1.108   4.272 -0.2096 -0.2311  0.3283
 5128SOL     OW20277   2.164   0.319   5.301 -0.2058  0.1924 -0.1545
 5128SOL    HW220278   2.119   0.401   5.322  1.8241  1.5813 -0.8402
 5128SOL    HW320279   2.240   0.319   5.361  0.0009 -1.0148 -0.4062
 5128SOL    MW420280   2.168   0.330   5.312 -0.4180  0.3084 -0.3509
 5129SOL     OW20281   2.825   0.922   1.578  0.6291 -0.2980 -0.2092
 5129SOL    HW220282   2.902   0.965   1.615  0.6883 -0.8812  0.3631
 5129SOL    HW320283   2.794   0.982   1.510  0.6850  0.6624  0.5981
 5129SOL    MW420284   2.831   0.935   1.574  0.0242 -0.9205 -0.3575
 5130SOL     OW20285   0.681   5.489   2.329 -0.3015 -0.0916  0.1040
 5130SOL    HW220286   0.738   5.558   2.362 -2.5026  1.7303  0.3799
 5130SOL    HW320287   0.656   5.519   2.241 -1.5870 -0.3304  0.3698
 5130SOL    MW420288   0.685   5.502   2.322  0.2172  0.1454 -0.3656
 5131SOL     OW20289   5.414   6.276   5.004 -0.1646  0.1677  0.4138
 5131SOL    HW220290   5.359   6.326   5.065  0.1650  0.4870  0.4512
 5131SOL    HW320291   5.396   6.314   4.918 -1.6652 -1.1719  0.0799
 5131SOL    MW420292   5.404   6.287   5.001  0.1527  0.0043 -0.0981
 5132SOL     OW20293   2.652   6.384   4.254 -0.2385  0.0414  0.7715
 5132SOL    HW220294   2.605   6.328   4.192  0.6356 -1.9111  1.7871
 5132SOL    HW320295   2.596   6.385   4.332  0.0730  0.0358  0.9945
 5132SOL    MW420296   2.638   6.377   4.256 -0.1847 -0.6628 -0.1355
 5133SOL     OW20297   3.547   0.987   0.381 -0.2117 -0.4651 -0.8837
 5133SOL    HW220298   3.464   1.014   0.419 -0.7564 -1.3820 -1.3773
 5133SOL    HW320299   3.543   1.018   0.290  0.2501  0.0074 -0.7510
 5133SOL    MW420300   3.536   0.995   0.374  0.2157  0.4081  0.0607
 5134SOL     OW20301   5.023   0.659   2.467 -0.1514  0.2802  0.4551
 5134SOL    HW220302   5.047   0.595   2.534  0.5429 -0.7035 -0.7022
 5134SOL    HW320303   4.940   0.695   2.497 -0.5497 -1.1449  1.1387
 5134SOL    MW420304   5.015   0.655   2.480 -0.0505 -0.2145 -0.6122
 5135SOL     OW20305   2.069   5.465   6.304 -0.0173  0.4571  0.3947
 5135SOL    HW220306   2.098   5.544   6.259  0.4530 -0.2504 -0.6089
 5135SOL    HW320307   2.128   5.397   6.271 -1.0364 -0.4891  0.4709
 5135SOL    MW420308   2.081   5.466   6.294 -0.4512  0.3028 -0.0344
 5136SOL     OW20309   2.791   4.830   4.962  0.1707 -0.5645  0.2202
 5136SOL    HW220310   2.766   4.779   5.039 -1.3388 -0.2301 -0.0162
 5136SOL    HW320311   2.771   4.920   4.985  0.4130 -0.3750 -0.2911
 5136SOL    MW420312   2.785   4.835   4.975  0.9102  0.0603 -0.6980
 5137SOL     OW20313   3.970   3.004   2.098  0.2012 -0.3707  0.0649
 5137SOL    HW220314   3.949   2.970   2.185  0.4229  0.3671  0.4084
 5137SOL    HW320315   4.056   3.044   2.108 -0.2897  0.7785 -0.2026
 5137SOL    MW420316   3.979   3.005   2.111  0.4436  0.4836 -0.5759
 5138SOL     OW20317   3.927   5.347   4.711 -0.1511  0.4426 -0.3353
 5138SOL    HW220318   3.860   5.414   4.722 -1.0812 -0.7146  1.2797
 5138SOL    HW320319   3.879   5.266   4.696  0.9190 -0.2418 -0.2022
 5138SOL    MW420320   3.912   5.345   4.710 -0.0512 -0.5433 -0.4013
 5139SOL     OW20321   0.387   1.190   6.318  0.1947 -0.3278  0.8170
 5139SOL    HW220322   0.453   1.168   6.253  0.5140 -1.0626  1.3869
 5139SOL    HW320323   0.369   1.108   6.364 -0.2067  0.1254  1.4957
 5139SOL    MW420324   0.393   1.177   6.316 -0.0301 -0.2694 -0.8049
 5140SOL     OW20325   6.368   5.363   0.911  0.5318 -0.1776 -0.0311
 5140SOL    HW220326   6.446   5.417   0.922 -0.1792  1.2088 -1.4787
 5140SOL    HW320327   6.395   5.276   0.941  2.0241  0.7091  1.3543
 5140SOL    MW420328   6.382   5.359   0.917 -0.0781 -0.5631  0.2709
 5141SOL     OW20329   3.644   1.731   3.384 -1.1580  0.3594 -0.1373
 5141SOL    HW220330   3.578   1.744   3.315 -1.9603  1.0454  0.7222
 5141SOL    HW320331   3.605   1.665   3.441 -0.1812 -0.7279 -0.7130
 5141SOL    MW420332   3.630   1.724   3.382 -0.2971 -0.6605  0.0770
 5142SOL     OW20333   0.051  -0.001   3.114  0.0744 -0.1654  0.3594
 5142SOL    HW220334   0.126  -0.026   3.169  0.4021  0.8517  0.4057
 5142SOL    HW320335   0.038   0.092   3.134  0.2580  0.2520 -1.3405
 5142SOL    MW420336   0.059   0.008   3.124 -0.0890  0.0130 -0.3619
 5143SOL     OW20337   5.029   2.143   1.731  0.3506 -0.3021  0.0306
 5143SOL    HW220338   5.092   2.187   1.788 -0.9511  0.6780  0.7639
 5143SOL    HW320339   5.083   2.099   1.665  1.7914  0.5168  0.6182
 5143SOL    MW420340   5.044   2.143   1.730 -0.3705  0.0701  0.5508
 5144SOL     OW20341   0.893   3.489   0.295 -0.0214  0.1629 -0.2757
 5144SOL    HW220342   0.824   3.523   0.238  0.2338  1.0680 -0.0662
 5144SOL    HW320343   0.968   3.546   0.278  0.8877 -1.1942 -0.9587
 5144SOL    MW420344   0.894   3.501   0.286  0.0224  0.2167  0.0910
 5145SOL     OW20345   0.064   0.637   6.396  0.2475 -0.2031  0.0900
 5145SOL    HW220346   0.032   0.547   6.388 -0.8023 -0.0411  1.8849
 5145SOL    HW320347   0.129   0.633   6.466  1.0889  0.2419 -0.6500
 5145SOL    MW420348   0.068   0.624   6.404  0.3465  0.0865 -0.1725
 5146SOL     OW20349   6.051   3.486   4.615  0.1501  0.1390  0.1354
 5146SOL    HW220350   6.065   3.560   4.674 -0.5762 -0.4542  1.0805
 5146SOL    HW320351   6.088   3.411   4.662  0.7557 -0.1397 -0.7484
 5146SOL    MW420352   6.058   3.486   4.629  0.0236 -0.1725 -0.6582
 5147SOL     OW20353   4.513   4.868   6.167  0.1288  0.0881 -0.1346
 5147SOL    HW220354   4.483   4.959   6.175  2.1446  0.7190  1.2522
 5147SOL    HW320355   4.573   4.857   6.241 -1.1062 -2.8471  0.5285
 5147SOL    MW420356   4.517   4.879   6.178  0.5938 -0.2109 -0.7651
 5148SOL     OW20357   0.064   4.998   1.934 -0.2268  0.0785 -0.1426
 5148SOL    HW220358   0.102   4.910   1.939 -0.8283 -0.1238  1.3450
 5148SOL    HW320359  -0.022   4.984   1.894  0.7152  0.3966 -2.4795
 5148SOL    MW420360   0.057   4.984   1.929 -0.1883  0.1939  0.2913
 5149SOL     OW20361   5.382   1.872   2.785  0.0688 -0.1182 -0.7692
 5149SOL    HW220362   5.420   1.960   2.785  2.9778 -1.2007  1.9786
 5149SOL    HW320363   5.342   1.862   2.871  0.2243 -1.6505 -0.8352
 5149SOL    MW420364   5.381   1.882   2.796 -0.1426 -0.2225  0.1665
 5150SOL     OW20365   2.538   3.993   1.598  0.1661  0.1981  0.5016
 5150SOL    HW220366   2.634   3.991   1.597  0.2092  1.2469  0.9528
 5150SOL    HW320367   2.516   4.079   1.632 -0.9336 -0.5629  1.8672
 5150SOL    MW420368   2.548   4.004   1.602  0.0511 -0.1211  1.0062
 5151SOL     OW20369   3.222   5.610   0.803 -0.0445  0.1560 -0.2762
 5151SOL    HW220370   3.130   5.624   0.782 -0.1461 -1.4233 -0.9968
 5151SOL    HW320371   3.232   5.645   0.892 -1.3624  0.1961 -0.1239
 5151SOL    MW420372   3.211   5.617   0.812  0.1077  0.1389 -0.3060
 5152SOL     OW20373   3.978   0.999   4.361  0.0155 -0.4117  0.4795
 5152SOL    HW220374   4.032   0.996   4.441  1.2504 -0.6188 -0.3362
 5152SOL    HW320375   4.007   0.924   4.309 -0.1341  0.2333 -0.5597
 5152SOL    MW420376   3.989   0.989   4.365 -0.0048 -0.2387  0.7354
 5153SOL     OW20377   2.305   1.266   1.559 -0.2159 -0.6850  0.0517
 5153SOL    HW220378   2.281   1.346   1.604 -1.6703  0.7736 -2.9962
 5153SOL    HW320379   2.369   1.224   1.616 -0.4898  1.8922  2.4458
 5153SOL    MW420380   2.310   1.271   1.572  0.1880 -0.2990  0.2522
 5154SOL     OW20381   2.541   2.636   5.609  0.4925 -0.6025 -0.4156
 5154SOL    HW220382   2.479   2.693   5.563  2.3008  1.9078  0.0247
 5154SOL    HW320383   2.626   2.655   5.568  1.5022 -1.4316  1.1877
 5154SOL    MW420384   2.544   2.646   5.598  0.9631  0.2005  0.0099
 5155SOL     OW20385   4.567   1.844   2.204 -0.0114  0.1616 -0.0190
 5155SOL    HW220386   4.658   1.865   2.228  0.3812 -2.4947  1.1512
 5155SOL    HW320387   4.516   1.916   2.242  1.2591 -0.4551  3.1817
 5155SOL    MW420388   4.573   1.857   2.212  0.0754  0.4101  0.1907
 5156SOL     OW20389   0.115   3.969   5.542  0.6709 -0.1886  0.1439
 5156SOL    HW220390   0.205   4.001   5.533  0.6403 -0.4862 -1.3555
 5156SOL    HW320391   0.116   3.921   5.625  1.4686  1.1674  0.9553
 5156SOL    MW420392   0.127   3.967   5.552  0.4840  0.1578 -0.4147
 5157SOL     OW20393   0.197   1.343   4.549  0.0691  0.6027  0.0875
 5157SOL    HW220394   0.168   1.426   4.511  0.5049  0.3913 -0.7207
 5157SOL    HW320395   0.240   1.297   4.477 -0.4896 -0.4890  0.4395
 5157SOL    MW420396   0.199   1.348   4.535  0.2688  0.4361  0.2087
 5158SOL     OW20397   0.553   1.605   5.108 -0.0231  0.0260  0.3901
 5158SOL    HW220398   0.525   1.515   5.124  2.3668 -0.9242 -0.3234
 5158SOL    HW320399   0.539   1.650   5.191 -1.1152 -1.0202  0.8098
 5158SOL    MW420400   0.548   1.599   5.121  0.1617  0.7165 -0.5375
 5159SOL     OW20401   5.962   3.607   5.435  0.0125  0.0350 -0.0926
 5159SOL    HW220402   5.893   3.623   5.371 -1.5908 -1.2631  1.2148
 5159SOL    HW320403   6.041   3.642   5.395 -1.5487  2.4518 -1.2673
 5159SOL    MW420404   5.964   3.614   5.421  0.2820  0.4119  0.2268
 5160SOL     OW20405   4.517   3.731   6.175  0.2514 -1.0145  0.2940
 5160SOL    HW220406   4.480   3.815   6.200 -0.7478 -1.0378 -1.0039
 5160SOL    HW320407   4.443   3.670   6.177  0.5608 -1.4418 -0.6171
 5160SOL    MW420408   4.503   3.734   6.179  0.3920 -0.7296 -0.2263
 5161SOL     OW20409   5.688   6.319   4.717 -0.2226  0.4834  0.1482
 5161SOL    HW220410   5.669   6.226   4.702  2.6804 -0.2550  0.4999
 5161SOL    HW320411   5.710   6.325   4.810  1.3284  1.1346 -0.2273
 5161SOL    MW420412   5.688   6.308   4.727  0.4920 -0.4954 -0.0976
 5162SOL     OW20413   0.210   5.989   0.207 -0.1098  0.1816  0.0980
 5162SOL    HW220414   0.191   5.905   0.248 -1.0427  1.2802  1.9942
 5162SOL    HW320415   0.306   5.994   0.208 -0.0877  0.0279  1.8786
 5162SOL    MW420416   0.220   5.978   0.212 -0.3811  0.6075 -0.2113
 5163SOL     OW20417   3.464   2.093   5.732  0.1683 -0.1547  0.1818
 5163SOL    HW220418   3.510   2.035   5.792  1.1880  0.0468 -0.3864
 5163SOL    HW320419   3.372   2.066   5.738  0.4385 -0.9602  0.8793
 5163SOL    MW420420   3.458   2.082   5.741 -0.5110  0.4460  0.3941
 5164SOL     OW20421   5.748   5.352   3.675  0.1101  0.4516  0.1670
 5164SOL    HW220422   5.791   5.380   3.756  0.1958  1.3540 -0.1714
 5164SOL    HW320423   5.654   5.359   3.693  0.1080 -0.5590  0.5856
 5164SOL    MW420424   5.741   5.357   3.688  0.3863  0.1919 -0.3802
 5165SOL     OW20425   5.192   4.002   2.088  0.3388  0.0564  0.3231
 5165SOL    HW220426   5.141   4.030   2.012  0.4338 -0.5966  0.0101
 5165SOL    HW320427   5.218   3.912   2.067 -0.1636 -0.3589  1.3950
 5165SOL    MW420428   5.188   3.994   2.075  0.1164  0.5745 -0.3288
 5166SOL     OW20429   3.739   0.651   1.445 -0.0922 -0.0174  0.0080
 5166SOL    HW220430   3.735   0.742   1.475 -0.4406 -0.1141  0.2740
 5166SOL    HW320431   3.771   0.603   1.521 -2.5681 -0.5058  0.8415
 5166SOL    MW420432   3.743   0.657   1.459  0.3749  0.1405 -0.2634
 5167SOL     OW20433   5.160   4.717   3.494  0.5664 -0.1606  0.0097
 5167SOL    HW220434   5.108   4.690   3.418 -0.9092  0.4513  0.7746
 5167SOL    HW320435   5.250   4.697   3.469 -0.1139 -2.4508 -0.8653
 5167SOL    MW420436   5.165   4.710   3.481  0.3999 -0.2292 -0.2624
 5168SOL     OW20437   3.447   2.407   3.576 -0.0947 -0.0823 -0.1324
 5168SOL    HW220438   3.416   2.495   3.553  0.8423  1.3469  3.4089
 5168SOL    HW320439   3.539   2.406   3.548  0.0010  0.1937  0.1774
 5168SOL    MW420440   3.455   2.418   3.569  0.2416 -0.0107  0.1006
 5169SOL     OW20441   3.186   6.080   6.408 -0.8228  0.4011  0.1407
 5169SOL    HW220442   3.277   6.110   6.410 -0.9503  0.9727 -1.1684
 5169SOL    HW320443   3.152   6.097   6.495 -0.0192  1.3277  0.2844
 5169SOL    MW420444   3.193   6.086   6.419  0.2049  0.2670 -0.2675
 5170SOL     OW20445   2.828   1.183   5.830 -0.2905 -0.4318 -0.0454
 5170SOL    HW220446   2.869   1.158   5.913  0.8317  0.0279 -0.4341
 5170SOL    HW320447   2.898   1.173   5.766 -0.4482  1.4487 -0.5686
 5170SOL    MW420448   2.843   1.178   5.833  0.8077  0.3973 -0.1514
 5171SOL     OW20449   1.498   5.666   1.261  0.5139 -0.0327  0.2590
 5171SOL    HW220450   1.495   5.580   1.303  2.0277  0.7738  2.1944
 5171SOL    HW320451   1.576   5.662   1.205  0.4810 -0.0001  0.2112
 5171SOL    MW420452   1.508   5.654   1.259  0.2791  0.2436 -0.3994
 5172SOL     OW20453   0.865   3.222   5.192  0.1614  0.1125 -0.1489
 5172SOL    HW220454   0.902   3.310   5.194 -1.8103  1.0408 -1.0764
 5172SOL    HW320455   0.791   3.226   5.252  0.2405 -1.0250  0.0454
 5172SOL    MW420456   0.860   3.234   5.200  0.1258 -0.5340 -0.0553
 5173SOL     OW20457   3.384   0.829   4.789  0.2858  0.4388  1.0117
 5173SOL    HW220458   3.472   0.859   4.766 -0.2936  1.3842 -0.0722
 5173SOL    HW320459   3.349   0.898   4.846 -0.9141  1.7448 -1.1827
 5173SOL    MW420460   3.391   0.842   4.793  0.0587 -0.5986 -0.0096
 5174SOL     OW20461   1.107   4.909   1.334  0.0238  0.2620 -0.3262
 5174SOL    HW220462   1.117   4.814   1.339 -0.3251  0.2134 -0.5073
 5174SOL    HW320463   1.167   4.936   1.265  0.7919  0.2840  0.3412
 5174SOL    MW420464   1.116   4.900   1.326  0.9006  0.2786  0.2036
 5175SOL     OW20465   0.172   2.137   3.372 -0.2316  0.2899  0.2674
 5175SOL    HW220466   0.217   2.197   3.313 -1.0677  1.6672  1.0029
 5175SOL    HW320467   0.233   2.125   3.445 -0.6831  1.5154  0.8738
 5175SOL    MW420468   0.186   2.143   3.374  0.2420  0.1199  0.0611
 5176SOL     OW20469   6.156   6.172   2.897 -0.0829  0.2658 -0.0201
 5176SOL    HW220470   6.239   6.217   2.879 -0.1345  1.3372  2.0937
 5176SOL    HW320471   6.170   6.082   2.867  1.9096  0.3823  0.4069
 5176SOL    MW420472   6.168   6.166   2.891 -0.0232  0.0458 -0.0016
 5177SOL     OW20473   4.867   6.148   4.548 -0.7406  0.2103  0.0422
 5177SOL    HW220474   4.928   6.110   4.484  0.0202 -0.8685  1.3512
 5177SOL    HW320475   4.917   6.217   4.591 -0.8930  0.2339  0.1813
 5177SOL    MW420476   4.882   6.152   4.545 -0.5284  0.9461  0.3410
 5178SOL     OW20477   4.058   1.988   4.899 -0.2344 -0.4488 -0.3333
 5178SOL    HW220478   4.012   1.953   4.975 -0.3359  3.6512  1.7851
 5178SOL    HW320479   4.149   1.958   4.909 -0.3117 -0.1971  1.2791
 5178SOL    MW420480   4.064   1.979   4.910 -0.0686 -0.5626  0.1759
 5179SOL     OW20481   0.064   6.167   1.627 -0.0491 -0.3358  0.2452
 5179SOL    HW220482   0.139   6.117   1.658 -0.4900 -0.8862  0.4373
 5179SOL    HW320483   0.028   6.115   1.555  0.1618  0.2678 -0.3059
 5179SOL    MW420484   0.069   6.153   1.622  0.0861 -0.2482 -0.7736
 5180SOL     OW20485   1.564   2.589   2.971  0.0887 -0.3829  0.2234
 5180SOL    HW220486   1.602   2.613   3.056 -1.4899  0.0318  0.8605
 5180SOL    HW320487   1.476   2.627   2.974  0.3597  0.5462 -2.0335
 5180SOL    MW420488   1.557   2.597   2.983  0.3941  0.2677 -0.0735
 5181SOL     OW20489   2.113   2.224   4.856  0.0670 -0.1842  0.1591
 5181SOL    HW220490   2.057   2.162   4.809  1.4765 -1.2679 -0.1779
 5181SOL    HW320491   2.202   2.189   4.845  0.9045  1.7684  0.1707
 5181SOL    MW420492   2.117   2.211   4.848 -0.4436 -0.3762 -0.4565
 5182SOL     OW20493   3.138   0.117   2.260  0.0135  0.0342 -0.4467
 5182SOL    HW220494   3.148   0.083   2.349  1.5533  0.0279 -0.5970
 5182SOL    HW320495   3.227   0.118   2.224 -0.5325  0.3630 -1.8718
 5182SOL    MW420496   3.151   0.112   2.267 -0.4080 -0.2649  0.0094
 5183SOL     OW20497   2.217   5.621   0.774 -0.2393  0.2585 -0.3573
 5183SOL    HW220498   2.174   5.661   0.699  1.5220  0.1585 -1.4595
 5183SOL    HW320499   2.310   5.628   0.756  0.2102 -0.9451  1.2161
 5183SOL    MW420500   2.223   5.627   0.762  0.2247 -0.3328 -0.3613
 5184SOL     OW20501   5.937   3.609   5.865 -0.0055  0.0896 -0.4828
 5184SOL    HW220502   5.889   3.634   5.787 -3.3438  0.5712  1.5320
 5184SOL    HW320503   5.970   3.692   5.901  0.1064  0.0541 -0.5014
 5184SOL    MW420504   5.935   3.623   5.860 -0.2705  0.3184  0.4014
 5185SOL     OW20505   0.152   5.832   2.986 -0.1920  0.4020  0.0461
 5185SOL    HW220506   0.212   5.819   3.059 -1.8395 -1.6186  1.1173
 5185SOL    HW320507   0.116   5.920   3.000  0.0379  0.3158  1.2568
 5185SOL    MW420508   0.155   5.842   2.997 -0.2201 -0.4767  0.1740
 5186SOL     OW20509   4.800   1.530   4.853 -0.0026  0.4203  0.0028
 5186SOL    HW220510   4.846   1.495   4.929 -1.8605 -0.2779  0.8589
 5186SOL    HW320511   4.707   1.516   4.872 -0.6496  2.4323 -1.3222
 5186SOL    MW420512   4.793   1.524   4.865 -0.1757 -0.0526  0.4206
 5187SOL     OW20513   3.279   4.292   6.280 -0.0640  0.2466  0.2166
 5187SOL    HW220514   3.216   4.309   6.210  0.3381  1.3436  0.1002
 5187SOL    HW320515   3.233   4.234   6.341 -1.3834  1.4238  0.3932
 5187SOL    MW420516   3.265   4.287   6.279  0.2008 -0.4575  0.2609
 5188SOL     OW20517   1.713   0.274   0.218  0.1077  0.3896  0.3575
 5188SOL    HW220518   1.733   0.340   0.151 -0.2200  0.7996  0.6642
 5188SOL    HW320519   1.794   0.266   0.268 -0.6062  2.4253  1.9186
 5188SOL    MW420520   1.727   0.281   0.216 -0.0476  0.4160  0.5812
 5189SOL     OW20521   2.752   5.747   3.880 -0.5455 -0.0875  0.2059
 5189SOL    HW220522   2.831   5.705   3.845 -0.8865 -0.4938 -0.0870
 5189SOL    HW320523   2.737   5.704   3.963  1.2142  2.0086  1.7216
 5189SOL    MW420524   2.760   5.736   3.886 -0.5496 -0.5469 -0.1438
 5190SOL     OW20525   4.945   3.052   5.663 -0.6051  0.2029  0.0203
 5190SOL    HW220526   4.912   2.963   5.677 -0.9643  0.0529 -1.6217
 5190SOL    HW320527   5.038   3.048   5.687 -0.5143 -0.7366 -0.4603
 5190SOL    MW420528   4.953   3.040   5.668  0.1963  0.0537 -0.2683
 5191SOL     OW20529   1.175   2.246   1.901  0.2097  0.2459  0.2358
 5191SOL    HW220530   1.242   2.179   1.891  1.7866  1.4537  2.0453
 5191SOL    HW320531   1.120   2.214   1.972 -0.0389  0.1196 -0.0104
 5191SOL    MW420532   1.176   2.233   1.909  0.3417  0.0407  0.1082
 5192SOL     OW20533   1.505   4.387   4.168  0.0148 -0.6452  0.5750
 5192SOL    HW220534   1.562   4.330   4.221  2.2184 -0.2374 -1.1687
 5192SOL    HW320535   1.468   4.329   4.101 -0.9319 -0.7336  1.1596
 5192SOL    MW420536   1.508   4.372   4.166  0.1329  0.1815 -0.0923
 5193SOL     OW20537   0.056   4.088   2.733  0.2182 -0.4516  0.3815
 5193SOL    HW220538   0.088   4.145   2.803 -0.6999  0.2887  0.2226
 5193SOL    HW320539  -0.039   4.088   2.743 -0.0073  0.2996 -1.3062
 5193SOL    MW420540   0.047   4.095   2.743  0.2534  0.2795  0.8042
 5194SOL     OW20541   1.696   0.433   4.817 -0.4884  0.5086 -0.2289
 5194SOL    HW220542   1.678   0.491   4.891  0.7701  0.5852  0.0260
 5194SOL    HW320543   1.754   0.366   4.851  0.8860  1.0762 -1.3369
 5194SOL    MW420544   1.701   0.432   4.831 -0.1442 -0.0377 -0.2871
 5195SOL     OW20545   1.253   3.945   2.175  0.0322  0.1028 -0.1181
 5195SOL    HW220546   1.182   4.003   2.147 -0.5705 -1.5596 -2.3701
 5195SOL    HW320547   1.331   4.001   2.175 -0.7747  1.2615 -0.7150
 5195SOL    MW420548   1.254   3.960   2.171 -0.3179 -0.0121  0.4203
 5196SOL     OW20549   0.947   2.378   5.573 -0.2113 -0.1246  0.1140
 5196SOL    HW220550   0.971   2.299   5.622 -0.8089  0.5742  1.5865
 5196SOL    HW320551   0.855   2.364   5.551 -0.1444 -0.1087 -0.1767
 5196SOL    MW420552   0.938   2.366   5.577  0.2578 -0.8343  0.0465
 5197SOL     OW20553   3.473   4.536   0.893 -0.1479  0.8762 -0.3483
 5197SOL    HW220554   3.518   4.617   0.867  1.6708  0.4696  1.2862
 5197SOL    HW320555   3.481   4.534   0.988  0.8824 -1.7830 -0.4119
 5197SOL    MW420556   3.480   4.546   0.902 -0.2055 -0.4300 -0.9646
 5198SOL     OW20557   4.254   4.809   1.906  0.5657 -0.5808  0.1301
 5198SOL    HW220558   4.335   4.859   1.900  0.4823 -0.4666 -0.0816
 5198SOL    HW320559   4.222   4.805   1.816 -0.5019  0.7725  0.4026
 5198SOL    MW420560   4.260   4.815   1.893  0.0004 -0.0547  0.3764
 5199SOL     OW20561   6.023   0.428   2.787 -0.3008  0.3112 -0.3907
 5199SOL    HW220562   5.935   0.393   2.771 -0.1462  0.9663 -3.1863
 5199SOL    HW320563   6.074   0.352   2.813 -1.5261 -0.2103  0.5915
 5199SOL    MW420564   6.018   0.413   2.788 -0.1955 -0.1462 -0.0721
 5200SOL     OW20565   0.822   3.727   5.568  0.3769 -0.1416  0.4343
 5200SOL    HW220566   0.865   3.642   5.565  0.8781  0.1422 -1.3201
 5200SOL    HW320567   0.888   3.785   5.607 -0.1392 -0.5979  2.0970
 5200SOL    MW420568   0.837   3.724   5.573 -0.3791 -0.1596  0.2005
 5201SOL     OW20569   6.247   2.648   4.724  0.6589  0.3270  0.0158
 5201SOL    HW220570   6.343   2.643   4.732  0.6543 -2.8627 -0.5250
 5201SOL    HW320571   6.232   2.656   4.629  0.3434  1.3962  0.1393
 5201SOL    MW420572   6.258   2.648   4.712 -0.1123 -0.6093 -0.7048
 5202SOL     OW20573   3.958   4.987   0.456  0.3804 -0.1866  0.1678
 5202SOL    HW220574   3.906   5.058   0.418  0.7317 -1.6525 -3.4261
 5202SOL    HW320575   4.049   5.014   0.442  0.5185 -1.4483 -1.6361
 5202SOL    MW420576   3.963   5.000   0.449  0.2896  0.1074  0.2839
 5203SOL     OW20577   5.082   1.335   1.606  0.1838  0.3326 -0.3538
 5203SOL    HW220578   5.037   1.410   1.645 -1.3992 -0.9658  0.3892
 5203SOL    HW320579   5.017   1.292   1.551  1.1497 -0.3486 -1.0099
 5203SOL    MW420580   5.068   1.339   1.604  0.2740 -0.4106 -0.8215
 5204SOL     OW20581   2.479   1.038   2.090  0.4826  0.2879  0.2463
 5204SOL    HW220582   2.385   1.020   2.096  0.1276  1.5253 -1.2021
 5204SOL    HW320583   2.501   1.076   2.175 -0.8439  2.1643 -0.2016
 5204SOL    MW420584   2.469   1.040   2.102  0.1337  0.2948 -0.8885
 5205SOL     OW20585   3.820   2.889   0.750  0.3869  0.5197 -0.1933
 5205SOL    HW220586   3.771   2.960   0.706  0.5206  0.8957  0.2572
 5205SOL    HW320587   3.864   2.843   0.679 -0.2833  0.4390 -0.5659
 5205SOL    MW420588   3.819   2.893   0.735  0.9608  0.0782 -0.0158
 5206SOL     OW20589   1.941   5.698   3.844  0.6118  0.0369  0.1480
 5206SOL    HW220590   1.951   5.764   3.775  0.8363 -1.4593 -1.2972
 5206SOL    HW320591   1.903   5.622   3.800 -1.6905 -0.1303  2.1765
 5206SOL    MW420592   1.937   5.697   3.829  0.0735 -0.1277 -0.0457
 5207SOL     OW20593   0.078   5.629   6.090 -0.6324 -0.3184  0.5106
 5207SOL    HW220594   0.097   5.586   6.007 -0.8602  0.2512  0.1618
 5207SOL    HW320595   0.145   5.696   6.099 -1.4263  0.5438  0.1078
 5207SOL    MW420596   0.089   5.632   6.081 -0.0061 -0.0439  0.1824
 5208SOL     OW20597   3.429   1.131   4.937 -0.0440 -0.1901 -0.0205
 5208SOL    HW220598   3.356   1.083   4.976  0.7488 -0.7359  0.8259
 5208SOL    HW320599   3.423   1.218   4.976  0.1163 -0.4162  0.5159
 5208SOL    MW420600   3.418   1.136   4.947 -1.1766  0.1944  0.2150
 5209SOL     OW20601   1.679   4.135   0.181 -0.1144  1.0478 -0.4826
 5209SOL    HW220602   1.726   4.104   0.258  0.4185  2.3263 -0.2776
 5209SOL    HW320603   1.615   4.197   0.216 -1.9033 -0.5141 -0.7679
 5209SOL    MW420604   1.677   4.139   0.196  0.1722 -0.2702  0.1048
 5210SOL     OW20605   3.007   1.482   5.177 -0.6497 -0.7102 -0.3054
 5210SOL    HW220606   2.954   1.558   5.152 -1.3860 -0.0069  2.9071
 5210SOL    HW320607   2.943   1.417   5.206  0.0318  0.0343  3.3467
 5210SOL    MW420608   2.991   1.484   5.178 -0.3747 -0.3087  0.0312
 5211SOL     OW20609   1.639   0.208   4.236  0.3545 -0.4371 -0.2158
 5211SOL    HW220610   1.683   0.149   4.297  1.0759  0.8404  0.5376
 5211SOL    HW320611   1.591   0.269   4.291  0.2146  0.1260 -0.9475
 5211SOL    MW420612   1.639   0.208   4.251  0.7463 -0.3011 -0.0563
 5212SOL     OW20613   3.075   5.950   2.408  0.1491 -1.0812  0.3669
 5212SOL    HW220614   3.054   6.038   2.377  1.2336 -1.0442 -0.2921
 5212SOL    HW320615   2.996   5.899   2.389 -0.5766 -0.2272  0.9524
 5212SOL    MW420616   3.062   5.955   2.401  0.1944 -0.1155 -0.1969
 5213SOL     OW20617   3.618   6.292   3.142 -0.9313 -0.5160  0.4414
 5213SOL    HW220618   3.697   6.330   3.181 -0.9217 -0.9485  0.8533
 5213SOL    HW320619   3.587   6.230   3.208 -2.2532  0.4638  0.7810
 5213SOL    MW420620   3.624   6.289   3.156 -0.2676  0.2505  0.5590
 5214SOL     OW20621   2.256   4.300   2.777  0.0112  0.1896 -0.7141
 5214SOL    HW220622   2.308   4.240   2.723  0.2485  1.3706 -1.8511
 5214SOL    HW320623   2.169   4.296   2.739 -0.6171 -1.2835  0.7755
 5214SOL    MW420624   2.252   4.291   2.765  0.6055  0.2534 -0.1213
 5215SOL     OW20625   5.291   3.743   2.025 -0.3202 -0.0181 -0.0793
 5215SOL    HW220626   5.246   3.701   1.952 -0.5800  0.5516 -0.2466
 5215SOL    HW320627   5.384   3.735   2.004 -0.4185  1.9097 -1.4862
 5215SOL    MW420628   5.298   3.736   2.013  0.4164  0.5802 -0.6150
 5216SOL     OW20629   1.811   0.298   0.890 -0.4482 -0.4351 -0.4853
 5216SOL    HW220630   1.873   0.277   0.959  0.0183 -0.3755 -0.8793
 5216SOL    HW320631   1.866   0.322   0.815 -0.9050 -1.5674 -1.2164
 5216SOL    MW420632   1.826   0.298   0.889  0.2215  0.2751  0.7114
 5217SOL     OW20633   4.590   0.912   4.404  0.2661  0.4366  0.8363
 5217SOL    HW220634   4.536   0.972   4.456 -1.1715  0.7168 -0.8907
 5217SOL    HW320635   4.641   0.969   4.346  0.2745  0.0578  0.4642
 5217SOL    MW420636   4.590   0.928   4.403  0.1704 -0.0964  0.8076
 5218SOL     OW20637   2.577   4.315   4.006 -0.0894  0.7094 -0.2864
 5218SOL    HW220638   2.624   4.393   4.037 -0.3082  0.2564  1.2680
 5218SOL    HW320639   2.638   4.243   4.022 -0.1432  0.4686 -1.1215
 5218SOL    MW420640   2.592   4.316   4.012 -0.7604  0.1841 -0.1179
 5219SOL     OW20641   5.831   4.959   0.030  0.0887  0.5226  0.0865
 5219SOL    HW220642   5.834   4.863   0.020 -1.0717  0.3941  0.6948
 5219SOL    HW320643   5.795   4.990  -0.053 -1.2861  0.2336  0.5297
 5219SOL    MW420644   5.826   4.950   0.018 -0.3002 -0.2076  0.3291
 5220SOL     OW20645   1.313   4.301   2.666  0.0014 -0.0945  0.6387
 5220SOL    HW220646   1.226   4.280   2.698  0.1362 -0.4324  0.7852
 5220SOL    HW320647   1.345   4.220   2.627 -0.0006  0.2011  0.0093
 5220SOL    MW420648   1.306   4.288   2.665  0.2364  0.0084 -0.3155
 5221SOL     OW20649   5.525   1.225   3.190 -0.1515  0.2174 -0.4618
 5221SOL    HW220650   5.451   1.171   3.218  0.2567  0.2177  0.6382
 5221SOL    HW320651   5.575   1.168   3.131  0.3582 -0.6736  0.8034
 5221SOL    MW420652   5.522   1.210   3.186 -0.3104 -0.1046  0.8018
 5222SOL     OW20653   2.994   0.407   6.059  0.2718 -0.3343 -0.1275
 5222SOL    HW220654   3.077   0.449   6.081 -0.0002 -0.1380  0.5377
 5222SOL    HW320655   3.018   0.321   6.026  0.6872 -0.6009  0.8625
 5222SOL    MW420656   3.008   0.401   6.057 -0.1142  0.0795 -0.0237
 5223SOL     OW20657   3.784   4.184   1.576 -0.1254  0.2478 -0.2113
 5223SOL    HW220658   3.751   4.250   1.515  0.1020  1.3157  0.7754
 5223SOL    HW320659   3.719   4.180   1.646  0.1482 -0.1568  0.0276
 5223SOL    MW420660   3.771   4.192   1.578  0.2892 -0.2456 -0.1790
 5224SOL     OW20661   5.408   3.174   2.590 -0.4310  0.0023 -0.1215
 5224SOL    HW220662   5.459   3.176   2.671 -1.2467 -1.0717  0.4433
 5224SOL    HW320663   5.326   3.132   2.614 -1.0015  0.3539 -1.3499
 5224SOL    MW420664   5.404   3.169   2.603 -0.1607  0.2530 -0.2894
 5225SOL     OW20665   1.135   1.418   5.175  0.6173 -0.2987  0.6372
 5225SOL    HW220666   1.181   1.337   5.199  0.7860 -0.2581  0.4503
 5225SOL    HW320667   1.157   1.432   5.083  0.0848 -0.3721  0.4952
 5225SOL    MW420668   1.144   1.409   5.166  0.2020 -0.1770  0.0840
 5226SOL     OW20669   4.200   2.526   1.781 -0.0468 -0.5659  0.1661
 5226SOL    HW220670   4.225   2.485   1.864  1.0161 -0.9472 -0.3239
 5226SOL    HW320671   4.282   2.536   1.734 -0.2772  1.8707  0.1278
 5226SOL    MW420672   4.214   2.522   1.786 -0.0952 -0.3706 -0.0307
 5227SOL     OW20673   3.189   0.734   3.200 -0.3004  0.1964  0.2790
 5227SOL    HW220674   3.179   0.744   3.105  1.7620  1.7174  0.1473
 5227SOL    HW320675   3.235   0.650   3.210 -1.9537 -0.7763  0.0992
 5227SOL    MW420676   3.194   0.724   3.189  0.8207  0.3563  0.4182
 5228SOL     OW20677   5.778   3.083   1.167  0.7858  0.0918  0.2567
 5228SOL    HW220678   5.812   3.172   1.161 -0.0833  0.4549  0.6466
 5228SOL    HW320679   5.697   3.091   1.217  0.0462 -0.7390 -0.7827
 5228SOL    MW420680   5.772   3.095   1.173 -0.0006 -1.0814  0.0412
 5229SOL     OW20681   4.885   0.629   1.523  0.7654 -0.0433  0.3813
 5229SOL    HW220682   4.932   0.632   1.440  0.0166  0.9397 -0.0330
 5229SOL    HW320683   4.953   0.637   1.590  1.5756 -2.6073 -0.0296
 5229SOL    MW420684   4.900   0.631   1.521 -0.1948 -0.1328 -0.4212
 5230SOL     OW20685   0.128   2.608   0.920 -0.5958 -0.0127 -0.1787
 5230SOL    HW220686   0.215   2.576   0.896  0.8063  2.4997  1.1013
 5230SOL    HW320687   0.139   2.703   0.927 -3.5672  0.4248 -0.3004
 5230SOL    MW420688   0.141   2.617   0.918 -0.1124 -0.2042 -0.6004
 5231SOL     OW20689   6.048   0.494   4.969  0.8963  0.0215 -0.4926
 5231SOL    HW220690   6.127   0.499   5.023  0.8594  0.6657 -0.4988
 5231SOL    HW320691   6.033   0.583   4.939  0.1638 -0.0956 -0.4987
 5231SOL    MW420692   6.057   0.506   4.972  0.1570 -0.0006  0.0802
 5232SOL     OW20693   2.179   4.303   5.955  0.5168 -0.1366 -0.1831
 5232SOL    HW220694   2.150   4.375   6.010 -1.0422 -1.0735  0.2745
 5232SOL    HW320695   2.222   4.242   6.015  1.4304  0.1655 -0.4998
 5232SOL    MW420696   2.181   4.304   5.970  0.2445  0.5616 -0.1640
 5233SOL     OW20697   0.983   1.646   4.749 -0.0150  0.0558 -0.2519
 5233SOL    HW220698   0.925   1.581   4.708 -1.1098  0.5329  0.4980
 5233SOL    HW320699   1.052   1.594   4.790  0.4708 -0.4934 -1.7003
 5233SOL    MW420700   0.985   1.631   4.749  0.2960 -0.0116  0.2871
 5234SOL     OW20701   6.065   4.948   5.793 -0.1754  0.3819  0.1637
 5234SOL    HW220702   5.982   4.918   5.755  0.2556 -0.5572 -0.0555
 5234SOL    HW320703   6.043   5.031   5.836 -1.0703  0.5065 -0.5155
 5234SOL    MW420704   6.051   4.955   5.794 -0.3752  0.1700 -0.0029
 5235SOL     OW20705   0.759   4.776   6.387  0.2526 -0.3441 -0.2431
 5235SOL    HW220706   0.845   4.804   6.416  0.2080 -0.7050  0.2399
 5235SOL    HW320707   0.724   4.725   6.460 -0.2850 -0.3717 -0.5152
 5235SOL    MW420708   0.766   4.773   6.400  0.8114  0.2750  0.2754
 5236SOL     OW20709   3.315   2.433   2.322  0.1564  0.3994 -0.3918
 5236SOL    HW220710   3.336   2.489   2.397  0.1110 -0.5697  0.3528
 5236SOL    HW320711   3.341   2.345   2.349 -0.5047 -0.0729 -1.2484
 5236SOL    MW420712   3.321   2.429   2.336 -0.1314 -0.2001  0.1040
 5237SOL     OW20713   3.165   3.796   4.167  0.0281  0.1227 -0.2590
 5237SOL    HW220714   3.099   3.727   4.165  1.3464 -1.2849  1.2169
 5237SOL    HW320715   3.246   3.752   4.139  0.7252  1.2790 -0.1350
 5237SOL    MW420716   3.167   3.781   4.163 -0.1665  0.2672 -0.2294
 5238SOL     OW20717   2.643   2.343   6.176 -0.4149 -0.1633 -0.2251
 5238SOL    HW220718   2.615   2.434   6.176  1.3151  0.4531 -2.2002
 5238SOL    HW320719   2.633   2.314   6.267 -0.6027  2.1021  0.5263
 5238SOL    MW420720   2.638   2.351   6.188  0.6894  0.5206 -0.1123
 5239SOL     OW20721   3.045   2.427   1.120  0.5081 -0.3921 -0.1346
 5239SOL    HW220722   3.014   2.336   1.120  2.1638 -1.0585 -2.3581
 5239SOL    HW320723   3.044   2.453   1.212 -1.6723 -2.0329  0.3772
 5239SOL    MW420724   3.041   2.418   1.132  0.3579  0.6580 -0.1891
 5240SOL     OW20725   3.195   3.314   5.816  0.2671  0.0505  0.0403
 5240SOL    HW220726   3.209   3.321   5.721  3.0590 -0.9773  0.2704
 5240SOL    HW320727   3.185   3.404   5.846  0.4515  0.4735 -1.1077
 5240SOL    MW420728   3.196   3.327   5.807  0.0465 -0.4319 -0.2952
 5241SOL     OW20729   5.510   3.581   5.457 -0.4829 -0.5904  0.4190
 5241SOL    HW220730   5.439   3.605   5.398 -0.7226 -1.5729  0.2888
 5241SOL    HW320731   5.524   3.488   5.441  1.0897 -0.3405  0.1650
 5241SOL    MW420732   5.503   3.572   5.447 -0.2886 -0.1507  0.3788
 5242SOL     OW20733   4.814   5.527   0.147 -0.0095 -0.2104  0.1794
 5242SOL    HW220734   4.818   5.622   0.157 -1.0346 -0.3045  1.9219
 5242SOL    HW320735   4.837   5.512   0.056 -0.2951  1.7420 -0.2701
 5242SOL    MW420736   4.817   5.538   0.137 -0.0151  0.4541 -0.2479
 5243SOL     OW20737   1.384   6.326   3.812 -0.9435  0.8395 -0.1221
 5243SOL    HW220738   1.335   6.392   3.763  0.5399 -0.3625 -3.5136
 5243SOL    HW320739   1.377   6.246   3.760  2.0469 -0.1741  0.7908
 5243SOL    MW420740   1.376   6.324   3.799  0.7396 -0.7918  0.2318
 5244SOL     OW20741   5.195   3.197   1.417  0.0541 -0.5538  0.1039
 5244SOL    HW220742   5.232   3.190   1.329 -0.4035  1.6350 -0.3200
 5244SOL    HW320743   5.106   3.229   1.404 -0.1698 -0.6181  1.3392
 5244SOL    MW420744   5.188   3.200   1.404 -0.0104  0.8802  0.0704
 5245SOL     OW20745   2.317   6.335   0.298  0.9104  0.0344 -0.2182
 5245SOL    HW220746   2.313   6.290   0.213  0.2834 -0.1195 -0.1107
 5245SOL    HW320747   2.395   6.299   0.340  0.3888 -1.0054 -0.1087
 5245SOL    MW420748   2.327   6.324   0.292 -0.6314 -0.3993  0.6560
 5246SOL     OW20749   5.535   5.724   5.830  0.1622 -0.2987  0.3266
 5246SOL    HW220750   5.457   5.709   5.776  1.0671 -0.3589 -1.0035
 5246SOL    HW320751   5.567   5.809   5.802  1.0100 -0.6183  0.3126
 5246SOL    MW420752   5.529   5.733   5.819 -0.4005  0.4720 -0.3894
 5247SOL     OW20753   0.493   4.146   1.486 -0.3935  0.0379  0.3303
 5247SOL    HW220754   0.442   4.095   1.549 -1.2541  0.5889  0.0916
 5247SOL    HW320755   0.434   4.160   1.412  0.3945 -0.0535 -0.3338
 5247SOL    MW420756   0.479   4.141   1.484  0.3207 -0.0429  0.2223
 5248SOL     OW20757   2.721   0.392   2.861 -0.4885 -0.2275 -0.1685
 5248SOL    HW220758   2.810   0.410   2.891 -0.4772 -0.1176 -0.2685
 5248SOL    HW320759   2.678   0.477   2.860 -0.0820 -0.0106 -1.7822
 5248SOL    MW420760   2.727   0.405   2.865  0.5884  0.5275  0.1461
 5249SOL     OW20761   4.391   4.588   4.798 -0.4208 -0.8503  0.4695
 5249SOL    HW220762   4.368   4.507   4.751 -0.0064 -1.2384  0.9235
 5249SOL    HW320763   4.434   4.558   4.878 -0.0117 -0.1723  0.5122
 5249SOL    MW420764   4.394   4.573   4.802 -0.0673  0.4943 -0.4522
 5250SOL     OW20765   5.042   1.542   4.651  0.5064 -0.1339 -0.3201
 5250SOL    HW220766   5.135   1.521   4.639  0.4737 -0.4337 -0.0615
 5250SOL    HW320767   5.028   1.534   4.745  0.4160  0.7496 -0.2532
 5250SOL    MW420768   5.052   1.538   4.661  0.6414  0.2213 -0.1953
 5251SOL     OW20769   4.938   5.940   4.810  0.1761  0.6582 -0.3924
 5251SOL    HW220770   4.896   5.913   4.891  1.5507  1.8520  0.7822
 5251SOL    HW320771   4.877   6.004   4.771 -1.0498 -0.8075 -0.9721
 5251SOL    MW420772   4.924   5.945   4.815 -0.0916  0.2205 -0.5851
 5252SOL     OW20773   0.889   0.840   5.177 -0.2991 -0.3022  0.2225
 5252SOL    HW220774   0.839   0.913   5.212  0.1755 -0.3549  1.0432
 5252SOL    HW320775   0.915   0.790   5.254  2.0026  0.3602 -0.0487
 5252SOL    MW420776   0.886   0.843   5.191 -0.0588  0.2650 -0.4710
 5253SOL     OW20777  -0.006   2.628   3.818 -0.4436 -0.4063  0.3895
 5253SOL    HW220778   0.012   2.689   3.890  0.0067 -0.8587  0.6641
 5253SOL    HW320779  -0.080   2.576   3.848 -0.7403 -0.1001  0.2099
 5253SOL    MW420780  -0.013   2.629   3.832 -0.0728 -0.2094 -0.1216
 5254SOL     OW20781   3.119   2.972   0.866 -0.2118  0.2384 -0.2571
 5254SOL    HW220782   3.207   2.942   0.845 -1.0430 -2.0149 -0.7652
 5254SOL    HW320783   3.104   3.047   0.808  0.3560 -1.1204 -2.2488
 5254SOL    MW420784   3.128   2.978   0.856  0.4468  0.2315 -0.4325
 5255SOL     OW20785   4.804   4.611   1.079  0.0313  0.0728  0.0279
 5255SOL    HW220786   4.742   4.684   1.083  0.4399  0.4504 -0.4172
 5255SOL    HW320787   4.858   4.621   1.157 -0.2188 -0.0311  0.2148
 5255SOL    MW420788   4.803   4.622   1.090  0.2244 -0.1736 -0.2967
 5256SOL     OW20789   0.709   1.795   6.353  0.0173  1.0299 -0.0256
 5256SOL    HW220790   0.682   1.877   6.394 -1.0933  0.3500  0.6430
 5256SOL    HW320791   0.798   1.779   6.386 -0.8590  0.4756  2.2066
 5256SOL    MW420792   0.717   1.804   6.362 -0.4440  0.4487 -0.2770
 5257SOL     OW20793   3.535   2.135   4.810 -0.5712 -0.4938  0.3004
 5257SOL    HW220794   3.443   2.159   4.818 -0.3387  0.4787  0.1676
 5257SOL    HW320795   3.535   2.062   4.748 -1.1365  0.4037 -0.8003
 5257SOL    MW420796   3.523   2.129   4.803 -0.0803 -0.0753  0.1638
 5258SOL     OW20797   4.699   5.639   5.110  0.1197 -0.4637  0.4858
 5258SOL    HW220798   4.642   5.694   5.164 -1.4102 -0.7737 -0.7417
 5258SOL    HW320799   4.766   5.698   5.076  0.0038  0.1026  1.2163
 5258SOL    MW420800   4.700   5.654   5.113 -0.0702  0.1687  1.1569
 5259SOL     OW20801   5.278   0.329   0.919  0.0039  0.1156 -0.1515
 5259SOL    HW220802   5.286   0.241   0.883 -0.0429 -0.3409  0.9196
 5259SOL    HW320803   5.325   0.326   1.002 -0.9611  0.7672  0.4479
 5259SOL    MW420804   5.285   0.317   0.926  0.2048  0.3778  0.3035
 5260SOL     OW20805   2.608   4.644   3.821  0.0052  0.4852 -0.0384
 5260SOL    HW220806   2.554   4.722   3.812 -2.5127 -1.2660 -1.2783
 5260SOL    HW320807   2.559   4.576   3.775  1.1471 -2.2935  2.5747
 5260SOL    MW420808   2.595   4.645   3.814 -0.1997 -0.3258 -0.3730
 5261SOL     OW20809   4.977   2.943   1.273 -0.2987 -0.5269 -0.3382
 5261SOL    HW220810   4.988   2.965   1.366 -0.5283 -0.4292 -0.3335
 5261SOL    HW320811   5.064   2.916   1.244 -0.3783 -1.2895  0.1005
 5261SOL    MW420812   4.990   2.942   1.282  0.3135 -0.5790 -0.3874
 5262SOL     OW20813   2.580   1.928   6.300 -0.4975  0.2432  0.1100
 5262SOL    HW220814   2.546   1.957   6.384 -0.6081  0.3392  0.0322
 5262SOL    HW320815   2.628   1.848   6.320 -0.1820  0.4836  0.3293
 5262SOL    MW420816   2.582   1.922   6.314 -0.5907 -0.0351  0.3029
 5263SOL     OW20817   4.003   1.429   3.253  0.1106  0.2474  0.4241
 5263SOL    HW220818   4.000   1.380   3.171 -0.2650  0.0521  0.5528
 5263SOL    HW320819   3.923   1.482   3.251 -0.5994 -0.7529  1.2798
 5263SOL    MW420820   3.992   1.430   3.242  0.0077 -0.2683  0.6489
 5264SOL     OW20821   0.166   1.839   1.113 -0.3720  0.5478 -0.4596
 5264SOL    HW220822   0.112   1.805   1.185  0.2014  0.0313 -0.2659
 5264SOL    HW320823   0.130   1.798   1.035 -1.1002  1.2326 -0.5019
 5264SOL    MW420824   0.154   1.829   1.113  0.2095 -0.2264 -0.7532
 5265SOL     OW20825   6.284   0.581   5.531 -0.2002  0.5056 -0.3264
 5265SOL    HW220826   6.248   0.494   5.512  0.9687  0.1723 -1.1684
 5265SOL    HW320827   6.370   0.580   5.489  0.8278  1.2361  1.6423
 5265SOL    MW420828   6.291   0.569   5.523  0.3885 -0.3811 -0.7367
 5266SOL     OW20829   4.254   5.208   3.717  0.1201 -0.2739  0.2755
 5266SOL    HW220830   4.199   5.130   3.725  0.3506 -0.3747  0.9476
 5266SOL    HW320831   4.278   5.230   3.807 -0.0793  0.6744  0.1085
 5266SOL    MW420832   4.250   5.201   3.730  0.2443  0.4176 -0.1475
 5267SOL     OW20833   2.236   4.231   0.516 -0.7023  0.1062  0.0405
 5267SOL    HW220834   2.245   4.195   0.428  2.3774  1.0351 -0.1596
 5267SOL    HW320835   2.218   4.324   0.502 -1.2824  0.0496  0.4080
 5267SOL    MW420836   2.235   4.239   0.502 -0.5734 -0.7894  0.6753
 5268SOL     OW20837   1.652   1.429   3.564  0.2056  0.3296  0.7602
 5268SOL    HW220838   1.651   1.372   3.641 -0.0295 -1.6792 -0.6761
 5268SOL    HW320839   1.567   1.415   3.522  1.5693 -1.2713 -1.6926
 5268SOL    MW420840   1.640   1.420   3.569  0.8749 -0.6426 -0.1302
 5269SOL     OW20841   5.548   0.888   0.105 -0.1272  0.3153  0.2465
 5269SOL    HW220842   5.604   0.946   0.053  0.8646 -0.5676  0.2971
 5269SOL    HW320843   5.590   0.885   0.191 -0.4423 -0.0850  0.3889
 5269SOL    MW420844   5.561   0.896   0.109  0.1363 -0.0738 -0.1621
 5270SOL     OW20845   3.525   6.042   4.030 -0.0021 -0.2120  0.3159
 5270SOL    HW220846   3.531   5.955   4.071  0.3720  0.1652  1.0961
 5270SOL    HW320847   3.590   6.094   4.077 -0.0917  0.4430 -0.2769
 5270SOL    MW420848   3.534   6.037   4.042  0.8121 -0.1329  0.6635
 5271SOL     OW20849   5.311   4.008   5.502 -0.4430  0.0482 -0.7975
 5271SOL    HW220850   5.400   4.039   5.514 -0.7444  1.4749 -2.0682
 5271SOL    HW320851   5.286   3.974   5.588  0.9578  0.5551 -0.1688
 5271SOL    MW420852   5.319   4.007   5.515  0.1197  1.4112 -0.6054
 5272SOL     OW20853   6.304   3.393   2.883  0.0408 -0.1521 -0.1988
 5272SOL    HW220854   6.252   3.470   2.906  0.3090  0.7266 -2.3385
 5272SOL    HW320855   6.395   3.420   2.899  0.1818  0.2399 -1.5496
 5272SOL    MW420856   6.309   3.407   2.889  0.1720  0.0810 -0.7479
 5273SOL     OW20857   4.274   2.395   0.160  0.2811  0.2428  0.1335
 5273SOL    HW220858   4.327   2.325   0.199  0.1530  0.3566  0.5132
 5273SOL    HW320859   4.201   2.406   0.221  0.4005  0.8407  0.1677
 5273SOL    MW420860   4.271   2.387   0.173  0.5140  0.1170 -0.0902
 5274SOL     OW20861   1.397   3.348   3.103  0.2764  0.0233 -0.0362
 5274SOL    HW220862   1.390   3.340   3.008 -1.0974 -1.3853  0.1429
 5274SOL    HW320863   1.371   3.438   3.121  0.4901  0.2877 -0.9933
 5274SOL    MW420864   1.393   3.359   3.093 -0.2709 -0.1214  0.1686
 5275SOL     OW20865   3.335   2.562   0.123 -0.7633  0.7063 -0.5356
 5275SOL    HW220866   3.299   2.555   0.211  0.0283 -1.1237 -0.3205
 5275SOL    HW320867   3.375   2.477   0.106 -1.8562  0.6231 -3.1103
 5275SOL    MW420868   3.336   2.550   0.132  0.8733 -0.8677  0.0937
 5276SOL     OW20869   4.483   5.505   6.177  0.1053  0.1759  0.1291
 5276SOL    HW220870   4.476   5.600   6.165 -0.4662  0.2526  0.9425
 5276SOL    HW320871   4.489   5.469   6.088 -0.4282  0.9211 -0.2155
 5276SOL    MW420872   4.483   5.513   6.164  0.2980 -0.1004  0.0097
 5277SOL     OW20873   0.501   6.235   0.661 -0.2907  0.5806  0.6900
 5277SOL    HW220874   0.580   6.187   0.635 -0.1682  0.3337  1.4838
 5277SOL    HW320875   0.522   6.326   0.644 -0.0868  0.4598  0.2637
 5277SOL    MW420876   0.514   6.240   0.655  0.1732  0.0415 -0.3118
 5278SOL     OW20877   4.402   2.810   5.071  0.2812 -0.3280  0.3621
 5278SOL    HW220878   4.435   2.722   5.052 -0.5555 -0.7937  0.9941
 5278SOL    HW320879   4.477   2.857   5.107  0.9164 -0.5615 -0.6293
 5278SOL    MW420880   4.416   2.804   5.073  0.0292  0.5006  0.0979
 5279SOL     OW20881   2.693   6.315   4.883 -0.2682  0.1353  0.0103
 5279SOL    HW220882   2.647   6.379   4.829  0.4106  0.1634 -0.5626
 5279SOL    HW320883   2.678   6.231   4.838  0.9831  0.2715 -0.7262
 5279SOL    MW420884   2.685   6.312   4.870  0.0878 -0.1255  0.1158
 5280SOL     OW20885   3.912   1.710   0.291  0.1497 -0.2320  0.3096
 5280SOL    HW220886   4.005   1.698   0.270  0.1168 -0.8524  0.5231
 5280SOL    HW320887   3.886   1.629   0.334 -0.0037  0.6915  2.0232
 5280SOL    MW420888   3.921   1.698   0.294 -0.0052  0.0355 -0.1551
 5281SOL     OW20889   2.346   2.430   2.329 -0.0386 -0.2765  0.2719
 5281SOL    HW220890   2.312   2.345   2.303  1.2002 -1.1091  1.2684
 5281SOL    HW320891   2.280   2.467   2.388 -2.2639  1.0592 -2.7747
 5281SOL    MW420892   2.333   2.424   2.333 -0.2302 -0.6009  0.2584
 5282SOL     OW20893   3.204   1.973   5.692  0.1650  0.1686 -0.2520
 5282SOL    HW220894   3.112   1.991   5.673 -0.0350 -1.0187 -0.4864
 5282SOL    HW320895   3.235   1.923   5.617  1.2231  1.2041 -0.5261
 5282SOL    MW420896   3.196   1.969   5.680 -0.1221  0.9042  0.0952
 5283SOL     OW20897   1.115   2.011   5.536 -0.5907  0.1169  0.0497
 5283SOL    HW220898   1.064   2.035   5.613 -1.4556 -0.6421 -0.2748
 5283SOL    HW320899   1.050   1.986   5.470  0.1867 -0.7257 -0.4206
 5283SOL    MW420900   1.100   2.011   5.537  0.3803 -0.4792  0.1597
 5284SOL     OW20901   5.155   1.947   0.159  0.5205  0.1240 -0.2697
 5284SOL    HW220902   5.074   1.984   0.123 -0.0634 -0.5366  0.3355
 5284SOL    HW320903   5.134   1.855   0.174  1.0582  0.1707  0.8286
 5284SOL    MW420904   5.141   1.940   0.157  0.1866  0.4227  0.4818
 5285SOL     OW20905   5.233   4.042   3.326  0.4547  0.8621  0.0534
 5285SOL    HW220906   5.205   4.018   3.415  1.0259  0.2984  0.0849
 5285SOL    HW320907   5.167   4.106   3.297  1.0084  2.0763  1.3773
 5285SOL    MW420908   5.220   4.048   3.334 -0.2574 -0.3517 -0.1185
 5286SOL     OW20909   2.270   3.182   5.330 -0.3947  0.4514 -0.1091
 5286SOL    HW220910   2.283   3.097   5.288 -1.1745  0.5089 -0.4912
 5286SOL    HW320911   2.299   3.246   5.265  0.6897  0.4728  0.3786
 5286SOL    MW420912   2.276   3.179   5.316 -0.6991  0.5086 -0.1954
 5287SOL     OW20913   0.154   1.970   0.068 -0.1086 -0.3812 -0.3663
 5287SOL    HW220914   0.071   1.931   0.093 -0.1501 -1.3195 -1.8535
 5287SOL    HW320915   0.131   2.039   0.006  0.2250 -0.7916 -0.9548
 5287SOL    MW420916   0.140   1.974   0.064 -0.3404 -0.9933 -0.1790
 5288SOL     OW20917   1.399   2.984   3.239  0.0796  0.6315 -0.2799
 5288SOL    HW220918   1.375   2.955   3.327  0.4209  0.9360 -0.0824
 5288SOL    HW320919   1.321   3.031   3.207 -0.8228 -1.2194 -0.9598
 5288SOL    MW420920   1.385   2.987   3.246  0.3578  0.0490  0.1595
 5289SOL     OW20921   0.788   2.739   4.521 -0.3955 -0.1101 -0.1365
 5289SOL    HW220922   0.707   2.718   4.568 -1.1389  4.3189  1.0538
 5289SOL    HW320923   0.760   2.748   4.429 -0.9299  0.0055  0.0328
 5289SOL    MW420924   0.773   2.737   4.515  0.2963 -0.3247 -0.4655
 5290SOL     OW20925   5.403   4.069   0.004 -0.0150  0.0099 -0.1625
 5290SOL    HW220926   5.426   4.156  -0.029  0.2870 -0.2211 -0.5760
 5290SOL    HW320927   5.318   4.081   0.046  0.1284  0.5476 -0.0223
 5290SOL    MW420928   5.395   4.082   0.005 -0.0665 -0.1335 -0.1656
 5291SOL     OW20929   2.276   1.225   4.614  0.5858  0.1010 -0.4530
 5291SOL    HW220930   2.339   1.256   4.549  0.4450 -2.3131 -1.8485
 5291SOL    HW320931   2.328   1.214   4.694  1.3386  0.6232 -0.8551
 5291SOL    MW420932   2.291   1.228   4.616 -0.7132  0.4682  0.0272
 5292SOL     OW20933   0.026   4.969   6.252  0.2664  0.1386 -0.1020
 5292SOL    HW220934   0.060   4.981   6.341  0.2205 -0.1572 -0.0424
 5292SOL    HW320935   0.104   4.954   6.198  0.1845 -1.8186  0.2422
 5292SOL    MW420936   0.041   4.968   6.256 -0.1181  0.2051 -0.6342
 5293SOL     OW20937   1.892   2.111   0.862  0.5572  0.2773  0.2688
 5293SOL    HW220938   1.884   2.062   0.944 -0.5969  0.1015  0.0636
 5293SOL    HW320939   1.874   2.201   0.886  0.5822  0.2833  0.2657
 5293SOL    MW420940   1.889   2.116   0.876 -0.3621 -0.2578  0.6073
 5294SOL     OW20941   0.516   4.056   6.425 -0.2752  0.2247  0.4756
 5294SOL    HW220942   0.485   4.073   6.336  2.0229 -1.0310 -0.6719
 5294SOL    HW320943   0.478   3.970   6.446  1.7610 -1.0631 -0.7168
 5294SOL    MW420944   0.507   4.047   6.416 -0.2782 -0.0576  0.5351
 5295SOL     OW20945   2.376   1.488   0.681 -0.3235  0.2801 -0.3874
 5295SOL    HW220946   2.368   1.572   0.727 -1.7620 -0.3902  0.6606
 5295SOL    HW320947   2.468   1.465   0.690  0.0636  1.6525 -0.5407
 5295SOL    MW420948   2.387   1.496   0.688  0.3012  0.5270  0.2234
 5296SOL     OW20949   1.048   4.882   2.253  0.3279  0.1980 -0.6143
 5296SOL    HW220950   1.125   4.829   2.230 -0.1058 -0.7832  0.0891
 5296SOL    HW320951   1.082   4.971   2.263  1.3713 -0.2118 -0.3491
 5296SOL    MW420952   1.062   4.887   2.251 -0.1802 -0.4450  0.4015
 5297SOL     OW20953   6.038   5.246   4.583  0.0612 -0.0790 -0.2797
 5297SOL    HW220954   6.018   5.171   4.528 -1.1006 -0.4547  0.6272
 5297SOL    HW320955   5.955   5.291   4.594  0.3283  0.1485  0.9256
 5297SOL    MW420956   6.025   5.242   4.577  0.4860  1.2141 -0.0764
 5298SOL     OW20957   0.251   2.439   4.335  0.3716 -0.1963  0.3419
 5298SOL    HW220958   0.160   2.470   4.343 -0.2689 -1.3260 -1.8071
 5298SOL    HW320959   0.268   2.440   4.241  1.8930 -1.9483  0.5610
 5298SOL    MW420960   0.241   2.443   4.324 -0.1341  0.1560  0.1105
 5299SOL     OW20961   0.894   0.092   6.418 -0.2383  0.5515  0.3541
 5299SOL    HW220962   0.803   0.096   6.448 -0.1636 -1.3135  0.9754
 5299SOL    HW320963   0.890   0.042   6.336  0.0521  2.0010 -0.5804
 5299SOL    MW420964   0.881   0.086   6.411 -0.1591  0.3826  0.0342
 5300SOL     OW20965   5.160   2.412   0.525  0.0307 -0.0871 -0.1908
 5300SOL    HW220966   5.162   2.493   0.473 -0.7135  0.7509  1.0292
 5300SOL    HW320967   5.251   2.399   0.551  0.2695 -0.0352 -0.9669
 5300SOL    MW420968   5.172   2.421   0.521  0.4904 -0.0672 -0.3714
 5301SOL     OW20969   4.956   2.559   1.137  0.5800  0.3432 -0.2737
 5301SOL    HW220970   5.007   2.480   1.118  0.5231  0.5069 -1.1036
 5301SOL    HW320971   4.865   2.529   1.143  0.8327 -0.1785  2.4566
 5301SOL    MW420972   4.951   2.545   1.136  0.2238 -0.2019  0.3558
 5302SOL     OW20973   4.073   4.778   4.525 -0.3864  0.2625  0.2685
 5302SOL    HW220974   4.163   4.762   4.498 -0.3472  0.6888  0.1322
 5302SOL    HW320975   4.079   4.850   4.588 -0.4719 -0.7257  1.4405
 5302SOL    MW420976   4.085   4.786   4.530  0.2676  0.1830  0.4059
 5303SOL     OW20977   1.826   1.487   3.908 -0.0395 -0.0819  0.6048
 5303SOL    HW220978   1.793   1.523   3.990  0.4958  2.8342 -0.3577
 5303SOL    HW320979   1.906   1.440   3.932  0.5529  1.4200  1.6571
 5303SOL    MW420980   1.832   1.485   3.922 -0.7476  0.1288 -0.3233
 5304SOL     OW20981   2.708   0.847   6.392 -0.1630  0.2011  0.2456
 5304SOL    HW220982   2.715   0.906   6.317  0.0000  0.5706  0.5516
 5304SOL    HW320983   2.634   0.789   6.370  0.5575 -0.3993 -0.6896
 5304SOL    MW420984   2.699   0.847   6.379  0.1244  0.3632 -0.2843
 5305SOL     OW20985   3.966   3.682   5.972 -0.5376  0.7414  0.6826
 5305SOL    HW220986   3.989   3.589   5.964 -1.2899  0.6738 -1.1792
 5305SOL    HW320987   3.960   3.713   5.882 -2.4409  2.0429  1.1881
 5305SOL    MW420988   3.968   3.673   5.959 -0.0334 -0.3660  0.0976
 5306SOL     OW20989   3.736   6.014   6.028 -0.5210 -0.2482 -0.2154
 5306SOL    HW220990   3.759   5.945   5.966  0.3707 -1.4386  1.3514
 5306SOL    HW320991   3.794   5.999   6.103 -0.8334  1.7570  0.4949
 5306SOL    MW420992   3.747   6.003   6.030  0.5164 -0.1423 -0.2926
 5307SOL     OW20993   5.536   4.374   1.928  0.1687  0.1465  0.0477
 5307SOL    HW220994   5.595   4.346   1.998 -1.2855 -1.4993  0.7011
 5307SOL    HW320995   5.589   4.371   1.849  0.9720 -1.3446  0.6035
 5307SOL    MW420996   5.551   4.370   1.927 -0.5933 -0.4247 -0.0526
 5308SOL     OW20997   2.429   3.243   1.457  0.1327  0.4101  0.0667
 5308SOL    HW220998   2.401   3.324   1.414  0.6005  1.3762  1.5250
 5308SOL    HW320999   2.499   3.209   1.402  0.5030  1.4494 -0.1254
 5308SOL    MW421000   2.434   3.249   1.444 -0.0675 -0.1403 -0.5881
 5309SOL     OW21001   2.487   0.953   0.813 -0.3454  0.2847 -0.1174
 5309SOL    HW221002   2.532   1.022   0.862 -1.5663  2.5633 -1.9695
 5309SOL    HW321003   2.396   0.958   0.843 -0.2137 -1.5972  0.7603
 5309SOL    MW421004   2.481   0.963   0.823 -0.9394 -0.5873  0.1529
 5310SOL     OW21005   3.418   1.625   5.641 -0.1639  0.0135 -0.2332
 5310SOL    HW221006   3.382   1.550   5.593 -0.6426  1.1957 -1.7975
 5310SOL    HW321007   3.386   1.701   5.593  0.1159  1.2393  1.4676
 5310SOL    MW421008   3.409   1.625   5.628  0.2279 -0.7837 -0.0498
 5311SOL     OW21009   5.214   1.796   1.956 -0.4399  0.4700  0.0638
 5311SOL    HW221010   5.142   1.856   1.975 -0.6066  0.6711 -1.1395
 5311SOL    HW321011   5.289   1.852   1.941 -0.3642  0.3326 -0.0778
 5311SOL    MW421012   5.214   1.811   1.957 -0.1688  0.0923 -0.1810
 5312SOL     OW21013   2.224   2.414   1.033  0.1504 -0.3617 -0.0747
 5312SOL    HW221014   2.263   2.337   1.074 -0.9038 -0.6329  0.4599
 5312SOL    HW321015   2.232   2.397   0.939 -0.9523 -1.6255  0.0208
 5312SOL    MW421016   2.230   2.401   1.026  0.1614 -0.0300 -0.1265
 5313SOL     OW21017   6.099  -0.004   2.748  0.3380 -0.3727  0.2555
 5313SOL    HW221018   6.099  -0.100   2.753  0.0551 -0.3609  0.4985
 5313SOL    HW321019   6.013   0.022   2.783  0.6020 -0.0061  0.6376
 5313SOL    MW421020   6.087  -0.013   2.753  0.1952  0.6155 -0.2815
 5314SOL     OW21021   3.609   6.293   5.089  0.1387  1.0032  0.0974
 5314SOL    HW221022   3.695   6.327   5.116  0.4602 -0.6366  1.3175
 5314SOL    HW321023   3.546   6.354   5.128  0.7121  0.9385  1.1644
 5314SOL    MW421024   3.612   6.306   5.098  0.3224 -0.1459  0.0175
 5315SOL     OW21025   4.935   5.836   0.683  0.0167  0.5513  0.8411
 5315SOL    HW221026   4.939   5.910   0.623 -0.0213 -0.0172  0.1119
 5315SOL    HW321027   4.988   5.862   0.758  0.8820  0.9047  0.1271
 5315SOL    MW421028   4.942   5.849   0.685  0.0412  0.0511  0.1580
 5316SOL     OW21029   1.679   4.172   2.408  0.3170 -0.3530 -0.0545
 5316SOL    HW221030   1.642   4.251   2.369  0.2428 -0.5300 -0.3437
 5316SOL    HW321031   1.769   4.169   2.377  0.3186 -0.3845 -0.0470
 5316SOL    MW421032   1.686   4.182   2.399  0.4820 -0.1112  0.0053
 5317SOL     OW21033   0.930   4.810   1.090  0.1106 -0.5544  0.7479
 5317SOL    HW221034   0.867   4.779   1.155  0.8641 -0.6505  1.4404
 5317SOL    HW321035   0.941   4.903   1.110 -1.4847  0.0196 -0.7820
 5317SOL    MW421036   0.923   4.818   1.101  0.3228 -0.0772  0.1879
 5318SOL     OW21037   0.891   2.062   2.476  0.2595  0.0812 -0.2615
 5318SOL    HW221038   0.969   2.021   2.438  0.6392 -0.3694  0.9582
 5318SOL    HW321039   0.843   1.989   2.516  0.5087  0.6932  1.2042
 5318SOL    MW421040   0.895   2.047   2.476  0.2848  0.6577 -0.1633
 5319SOL     OW21041   4.687   1.247   2.475  0.2340  0.5451 -0.3085
 5319SOL    HW221042   4.768   1.207   2.506 -2.4704 -2.0755  4.5529
 5319SOL    HW321043   4.646   1.179   2.421 -0.5540  0.1149  0.8045
 5319SOL    MW421044   4.692   1.233   2.472  0.1335  0.7472  0.6473
 5320SOL     OW21045   3.065   4.374   6.109  0.1255  0.4404  0.0023
 5320SOL    HW221046   3.047   4.468   6.115 -2.2366  0.1068 -0.4918
 5320SOL    HW321047   3.065   4.356   6.015 -1.6944 -0.3566  0.1124
 5320SOL    MW421048   3.062   4.384   6.098 -0.4340  0.4002 -0.1741
 5321SOL     OW21049   5.645   1.635   3.979 -0.4137  0.1904 -0.6887
 5321SOL    HW221050   5.729   1.644   4.022 -0.1183 -2.0375 -0.6597
 5321SOL    HW321051   5.585   1.688   4.030  0.8789  1.5152 -0.4923
 5321SOL    MW421052   5.648   1.643   3.991 -0.0354  0.2534 -0.2079
 5322SOL     OW21053   0.376   2.100   0.198  0.8809 -0.2073 -0.4124
 5322SOL    HW221054   0.293   2.072   0.160  1.0468 -0.2292 -0.7655
 5322SOL    HW321055   0.362   2.192   0.220  0.5268 -0.4041  0.2067
 5322SOL    MW421056   0.363   2.109   0.196  0.3027  0.2587  0.0759
 5323SOL     OW21057   5.654   2.395   3.259  0.0760 -0.1231  0.3460
 5323SOL    HW221058   5.724   2.359   3.313  0.2016  0.6404  0.7095
 5323SOL    HW321059   5.682   2.485   3.240  0.3280 -0.5396 -1.4987
 5323SOL    MW421060   5.667   2.402   3.263 -0.3755  0.1822  0.7031
 5324SOL     OW21061   1.433   6.173   2.482  0.1175  0.1154  0.2675
 5324SOL    HW221062   1.415   6.253   2.532 -0.8376  0.2406 -0.2658
 5324SOL    HW321063   1.402   6.191   2.394  1.2210 -0.3337 -0.2415
 5324SOL    MW421064   1.427   6.186   2.477 -0.4650  0.1227 -0.2650
 5325SOL     OW21065   5.899   5.378   1.649  0.7822 -0.0687 -0.0380
 5325SOL    HW221066   5.977   5.406   1.601  0.2292 -2.2694 -2.4496
 5325SOL    HW321067   5.842   5.342   1.582 -3.1556  2.9127  1.3324
 5325SOL    MW421068   5.902   5.377   1.634 -0.2650 -0.0571 -0.1135
 5326SOL     OW21069   0.919   3.390   1.073  0.6315 -0.4928  0.0555
 5326SOL    HW221070   0.852   3.345   1.022 -2.6940 -0.2942  3.8052
 5326SOL    HW321071   0.893   3.482   1.072  1.2869 -0.2800  0.9704
 5326SOL    MW421072   0.907   3.396   1.066  0.5782  0.1072 -0.1914
 5327SOL     OW21073   5.841   0.227   2.484  0.1244  0.4631 -0.6284
 5327SOL    HW221074   5.824   0.248   2.576 -0.3834  1.7580 -1.0069
 5327SOL    HW321075   5.888   0.303   2.450  2.6839 -1.0601 -0.8151
 5327SOL    MW421076   5.845   0.240   2.492  0.3285  0.2928  0.3170
 5328SOL     OW21077   0.149   1.570   1.516  0.0232 -0.1105 -0.0114
 5328SOL    HW221078   0.138   1.565   1.611  3.7306 -0.3925  0.5388
 5328SOL    HW321079   0.149   1.478   1.488 -1.6547 -0.0135 -0.4567
 5328SOL    MW421080   0.147   1.557   1.525  0.0636 -0.2905 -0.4252
 5329SOL     OW21081   4.891   6.059   0.062 -0.2135 -0.8569 -0.0440
 5329SOL    HW221082   4.960   6.109   0.107  0.5541 -2.7641  1.0133
 5329SOL    HW321083   4.810   6.089   0.103  0.2120 -0.3756  0.4665
 5329SOL    MW421084   4.890   6.070   0.074 -1.1501  0.2539 -0.5666
 5330SOL     OW21085   0.374   3.304   1.687  0.1744  0.0528 -0.3082
 5330SOL    HW221086   0.289   3.299   1.730  0.3944  0.4980  0.1918
 5330SOL    HW321087   0.390   3.397   1.676  0.4252 -0.0402 -0.7540
 5330SOL    MW421088   0.365   3.315   1.691 -0.2006  0.5907 -0.7871
 5331SOL     OW21089   3.898   0.304   5.512  0.3133  0.0205 -0.5955
 5331SOL    HW221090   3.846   0.344   5.582  0.0291  1.0136 -1.3485
 5331SOL    HW321091   3.965   0.253   5.558 -1.4173 -1.4392  0.3915
 5331SOL    MW421092   3.900   0.303   5.527 -0.4782 -0.0649 -0.3141
 5332SOL     OW21093   5.058   3.255   4.497 -0.7030 -0.3007 -0.6936
 5332SOL    HW221094   5.112   3.303   4.435  0.5950  0.2367  0.7856
 5332SOL    HW321095   5.120   3.214   4.557 -1.8575 -2.1275 -0.6740
 5332SOL    MW421096   5.073   3.256   4.497  0.4041 -0.3229  0.1833
 5333SOL     OW21097   6.363   5.243   3.540  0.2618 -0.1742 -0.1680
 5333SOL    HW221098   6.386   5.293   3.462  0.9589 -1.4475 -0.8017
 5333SOL    HW321099   6.281   5.282   3.570 -0.3056 -0.0047 -1.8380
 5333SOL    MW421100   6.355   5.255   3.534 -0.1237 -0.0026 -0.0084
 5334SOL     OW21101   0.603   0.118   5.442 -0.1782  0.1086 -0.4918
 5334SOL    HW221102   0.690   0.084   5.463 -0.5997 -0.5425  0.2783
 5334SOL    HW321103   0.610   0.151   5.353  0.4138 -1.5581 -1.0945
 5334SOL    MW421104   0.615   0.118   5.433  0.0159  0.1299 -0.1312
 5335SOL     OW21105   2.185   5.666   1.746  0.3618  0.2013 -0.3510
 5335SOL    HW221106   2.212   5.613   1.672 -0.9831 -1.8319  0.5261
 5335SOL    HW321107   2.145   5.744   1.707 -1.2119 -1.2745 -1.8337
 5335SOL    MW421108   2.183   5.670   1.731 -0.2753  0.1695 -0.3683
 5336SOL     OW21109   5.804   2.826   6.193  0.3121 -0.0270  1.2937
 5336SOL    HW221110   5.886   2.785   6.224 -0.4070 -0.9184  2.0834
 5336SOL    HW321111   5.736   2.763   6.216 -0.4930  0.1828 -0.3665
 5336SOL    MW421112   5.806   2.812   6.200 -0.3588 -1.1573 -0.0080
 5337SOL     OW21113   2.690   1.193   3.535  0.1479 -0.0375 -0.4968
 5337SOL    HW221114   2.654   1.122   3.588  1.2470  0.6791  1.2759
 5337SOL    HW321115   2.778   1.164   3.512  0.2509  0.3430 -0.5874
 5337SOL    MW421116   2.697   1.180   3.539  0.3459  0.4143  0.4577
 5338SOL     OW21117   4.621   0.445   5.800  0.2379  0.8881 -0.1275
 5338SOL    HW221118   4.528   0.429   5.815  0.2717  1.3618  0.6598
 5338SOL    HW321119   4.628   0.540   5.789  0.3166  0.6495 -2.6214
 5338SOL    MW421120   4.610   0.456   5.801  0.1745  0.0670  1.0376
 5339SOL     OW21121   5.486   1.499   0.128  0.6519 -0.1589  0.1679
 5339SOL    HW221122   5.460   1.422   0.078  0.4058  0.2109 -0.2773
 5339SOL    HW321123   5.581   1.491   0.137  1.3181  1.6132 -3.5573
 5339SOL    MW421124   5.495   1.488   0.123  0.1728  0.1472 -0.1935
 5340SOL     OW21125   0.054   2.887   3.295 -0.1811  0.2076  0.0469
 5340SOL    HW221126   0.092   2.953   3.352 -2.0455  1.6344 -0.2550
 5340SOL    HW321127  -0.034   2.872   3.331 -1.1726  0.6697 -1.9940
 5340SOL    MW421128   0.047   2.894   3.307  0.1508 -0.2828 -0.1943
 5341SOL     OW21129   3.704   5.837   1.904 -0.0360  0.1574  0.2760
 5341SOL    HW221130   3.783   5.801   1.865 -0.0591 -0.9749  1.1992
 5341SOL    HW321131   3.636   5.827   1.837 -0.0052 -1.4403  0.4400
 5341SOL    MW421132   3.705   5.831   1.890  0.1804 -0.0770 -0.2095
 5342SOL     OW21133   4.697   4.889   5.588  0.2600 -0.6579 -1.1271
 5342SOL    HW221134   4.650   4.812   5.557  0.4859 -0.5199 -1.8402
 5342SOL    HW321135   4.691   4.951   5.515 -0.5939  0.3046 -0.2809
 5342SOL    MW421136   4.690   4.887   5.574 -0.0758 -0.0800  0.2411
 5343SOL     OW21137   0.481   0.688   1.792 -0.1578  0.2537 -0.5449
 5343SOL    HW221138   0.566   0.692   1.747  0.8281  0.9965  1.2912
 5343SOL    HW321139   0.474   0.596   1.819  2.2122  0.9252  3.0385
 5343SOL    MW421140   0.492   0.676   1.790 -0.4579  0.0460 -0.1623
 5344SOL     OW21141   2.000   2.809   1.251 -0.0272  0.0992 -0.0416
 5344SOL    HW221142   1.976   2.765   1.170  1.2534 -0.6520 -0.0483
 5344SOL    HW321143   2.088   2.844   1.234  0.2350 -0.0132  0.9832
 5344SOL    MW421144   2.009   2.808   1.238  0.3673 -0.9259 -0.4647
 5345SOL     OW21145   1.222   1.984   3.825 -0.5361  0.0284  0.3405
 5345SOL    HW221146   1.184   2.016   3.744 -0.7187 -0.1884  0.3395
 5345SOL    HW321147   1.156   2.001   3.892 -0.0362  0.9991  0.5987
 5345SOL    MW421148   1.209   1.990   3.823  0.2294 -0.5099 -1.0092
 5346SOL     OW21149   6.135   3.251   4.773 -0.0941  0.2956  0.2913
 5346SOL    HW221150   6.094   3.192   4.711 -0.3189 -0.5267  1.2079
 5346SOL    HW321151   6.072   3.260   4.845  0.0432  1.4443  0.2926
 5346SOL    MW421152   6.122   3.245   4.774 -0.0784  0.1523  0.3332
 5347SOL     OW21153   2.639   1.014   5.266  0.2332  0.3504  0.1157
 5347SOL    HW221154   2.625   0.922   5.286  0.4417  0.4288  0.6259
 5347SOL    HW321155   2.694   1.046   5.337  0.6582  0.7236 -0.3717
 5347SOL    MW421156   2.645   1.006   5.278 -0.3780 -0.3514 -0.1422
 5348SOL     OW21157   3.988   4.679   5.318 -0.0887  0.2287  0.1713
 5348SOL    HW221158   4.005   4.587   5.337  1.6073 -0.1357 -2.5040
 5348SOL    HW321159   3.903   4.679   5.275  0.7692 -0.4522 -1.6295
 5348SOL    MW421160   3.979   4.667   5.315 -0.0677 -0.6954 -0.7660
 5349SOL     OW21161   0.332   6.071   4.950 -0.0134  0.0797  0.2902
 5349SOL    HW221162   0.322   6.149   5.005 -0.4342  0.2525 -0.0340
 5349SOL    HW321163   0.324   6.103   4.861 -0.6156 -0.4069  0.1685
 5349SOL    MW421164   0.330   6.085   4.946 -0.6463 -0.0956  0.2974
 5350SOL     OW21165   2.126   3.371   3.905 -0.0493 -0.1178 -0.5422
 5350SOL    HW221166   2.204   3.422   3.926 -0.7517  0.5924  0.4167
 5350SOL    HW321167   2.091   3.343   3.989 -0.0328 -1.6899 -1.0171
 5350SOL    MW421168   2.132   3.374   3.919 -0.4685 -0.2608  0.1752
 5351SOL     OW21169   2.483   0.208   1.876 -0.1611  0.0080  0.4383
 5351SOL    HW221170   2.505   0.234   1.787 -2.8546 -1.3968 -0.7465
 5351SOL    HW321171   2.554   0.150   1.902  0.8191  0.6775 -0.6616
 5351SOL    MW421172   2.495   0.204   1.868  0.0042  0.2631 -0.7326
 5352SOL     OW21173   1.194   2.041   6.163 -0.4611 -0.3860  0.2116
 5352SOL    HW221174   1.207   2.136   6.157 -1.7282 -0.2639 -1.4539
 5352SOL    HW321175   1.111   2.031   6.209 -0.4426 -0.6783  0.1827
 5352SOL    MW421176   1.185   2.052   6.168  0.1027  0.0876 -0.5489
 5353SOL     OW21177   0.880   1.685   0.412 -0.0094  0.7095 -0.5681
 5353SOL    HW221178   0.973   1.679   0.393 -0.3937  1.1216 -2.9290
 5353SOL    HW321179   0.873   1.670   0.506  2.3796  0.2787 -0.4085
 5353SOL    MW421180   0.891   1.682   0.422  0.0266 -0.2255 -0.1587
 5354SOL     OW21181   5.657   6.160   3.962 -0.8808  0.2805  0.7757
 5354SOL    HW221182   5.662   6.065   3.967 -1.0143  0.3338  2.6442
 5354SOL    HW321183   5.722   6.184   3.895 -1.7857 -1.1668 -0.6819
 5354SOL    MW421184   5.667   6.151   3.954  0.2110  0.6588 -0.1551
 5355SOL     OW21185   3.861   5.710   4.180 -0.4345  0.3151 -0.0288
 5355SOL    HW221186   3.950   5.722   4.146 -0.2423 -0.0854  0.3078
 5355SOL    HW321187   3.874   5.659   4.260 -0.7053  2.5748  1.5528
 5355SOL    MW421188   3.875   5.705   4.186 -0.4927 -0.2624 -0.2240
 5356SOL     OW21189   2.105   0.534   4.356 -0.5715 -0.0230 -0.3890
 5356SOL    HW221190   2.029   0.592   4.360 -1.4595 -1.0568 -1.3529
 5356SOL    HW321191   2.162   0.571   4.289  0.1440  1.1430  0.8242
 5356SOL    MW421192   2.102   0.546   4.348  0.4792 -0.3122  0.6273
 5357SOL     OW21193   2.508   4.368   2.514 -0.0363  0.1472 -0.3296
 5357SOL    HW221194   2.560   4.321   2.449  2.6709  0.9893  1.0525
 5357SOL    HW321195   2.548   4.455   2.518 -1.4432  0.7866  1.0083
 5357SOL    MW421196   2.520   4.374   2.506 -0.4101 -0.1497 -0.5403
 5358SOL     OW21197   5.445   4.898   2.765 -0.4376  0.0017  0.2668
 5358SOL    HW221198   5.372   4.952   2.736  0.4256  0.8886 -0.3340
 5358SOL    HW321199   5.405   4.824   2.810 -1.6841  0.6356  0.2260
 5358SOL    MW421200   5.430   4.896   2.767  0.0449 -0.0745 -0.0911
 5359SOL     OW21201   2.182   1.019   3.401 -0.1317 -0.4341  0.0922
 5359SOL    HW221202   2.209   1.101   3.443 -1.0206  0.4385 -0.9915
 5359SOL    HW321203   2.207   0.951   3.464 -1.3709  0.7950  2.0347
 5359SOL    MW421204   2.189   1.021   3.415  0.1039 -0.1498  0.3774
 5360SOL     OW21205   1.064   2.989   5.230  0.2906  0.3147  0.0432
 5360SOL    HW221206   1.071   3.081   5.203 -2.3776  0.6143  0.0703
 5360SOL    HW321207   0.977   2.983   5.270  0.2357 -2.3188 -0.3229
 5360SOL    MW421208   1.054   3.000   5.232 -0.3521 -0.5346  0.0777
 5361SOL     OW21209   1.761   0.442   1.948  0.1912 -0.0660  0.1659
 5361SOL    HW221210   1.720   0.396   1.874  0.6096 -0.9528  0.4617
 5361SOL    HW321211   1.850   0.460   1.918 -0.2122  1.3421 -0.2622
 5361SOL    MW421212   1.767   0.438   1.934  0.3193 -0.4116  0.1719
 5362SOL     OW21213   3.092   5.583   3.479 -0.4006 -0.5071  0.4849
 5362SOL    HW221214   3.170   5.626   3.444  0.4320 -0.4910  2.2393
 5362SOL    HW321215   3.123   5.497   3.507  0.0139  0.7661  4.6192
 5362SOL    MW421216   3.106   5.577   3.478 -0.1571 -0.4168 -0.0811
 5363SOL     OW21217   5.486   4.356   4.698 -0.4316 -0.3308 -0.1669
 5363SOL    HW221218   5.528   4.408   4.766  1.2717  0.9088 -2.0630
 5363SOL    HW321219   5.557   4.329   4.641 -1.8952 -0.5151 -1.9876
 5363SOL    MW421220   5.501   4.359   4.700  0.0454 -0.4121 -0.1585
 5364SOL     OW21221   1.371   1.227   3.747  0.2435  0.2845 -0.2472
 5364SOL    HW221222   1.423   1.175   3.686  0.4296  1.1791 -0.8658
 5364SOL    HW321223   1.435   1.275   3.799  0.0737 -0.1082  0.3290
 5364SOL    MW421224   1.386   1.226   3.746  0.3785 -0.1807 -0.1175
 5365SOL     OW21225   3.685   1.201   3.246  0.2588  0.6555 -0.2955
 5365SOL    HW221226   3.610   1.259   3.256  0.4401  1.2090 -1.9490
 5365SOL    HW321227   3.747   1.230   3.314 -0.5772  0.8845  0.3820
 5365SOL    MW421228   3.683   1.212   3.257  0.2764  0.0765 -0.1083
 5366SOL     OW21229   0.119   4.942   4.943  0.0446 -0.1509  0.1451
 5366SOL    HW221230   0.114   5.017   5.004 -1.8632  1.6185 -2.0018
 5366SOL    HW321231   0.198   4.896   4.970  0.1580  1.4020  2.9487
 5366SOL    MW421232   0.129   4.946   4.955 -0.1964  0.2772  0.0181
 5367SOL     OW21233   6.152   1.556   5.935 -0.6871  0.4272  0.4747
 5367SOL    HW221234   6.180   1.593   6.018 -0.1533  1.7147 -0.2394
 5367SOL    HW321235   6.165   1.462   5.945  0.0301  0.6254  1.6073
 5367SOL    MW421236   6.158   1.548   5.947  0.5546  0.0015  0.4318
 5368SOL     OW21237   5.785   0.622   6.330  0.1581 -0.0868 -0.0070
 5368SOL    HW221238   5.704   0.656   6.292  0.9330  1.1148 -0.6749
 5368SOL    HW321239   5.821   0.566   6.261  0.3968  0.2020 -0.1184
 5368SOL    MW421240   5.779   0.620   6.316 -0.0533 -0.0784  0.1443
 5369SOL     OW21241   4.939   4.936   1.548 -0.0069  0.0179 -0.2863
 5369SOL    HW221242   4.999   4.864   1.564 -1.6501 -1.3480  0.0561
 5369SOL    HW321243   4.899   4.954   1.634 -1.5079 -0.4724 -0.8422
 5369SOL    MW421244   4.941   4.929   1.561 -0.0725  0.4941  0.2229
 5370SOL     OW21245   3.551   5.613   3.648 -0.3354  0.4266  0.4616
 5370SOL    HW221246   3.635   5.617   3.603  0.6677 -0.5704  2.1036
 5370SOL    HW321247   3.489   5.658   3.590  1.0987  0.2443 -1.2763
 5370SOL    MW421248   3.554   5.620   3.635  0.3949  0.1253  0.2335
 5371SOL     OW21249   1.429   0.974   5.314 -0.2178 -0.2103 -0.3953
 5371SOL    HW221250   1.524   0.962   5.317 -0.0788  0.5906 -1.3337
 5371SOL    HW321251   1.397   0.896   5.270  0.1596  0.2035 -1.4384
 5371SOL    MW421252   1.438   0.962   5.309 -0.5887  0.9287 -0.3577
 5372SOL     OW21253   5.125   0.328   1.910 -0.1072  0.2040 -0.1156
 5372SOL    HW221254   5.050   0.278   1.940  0.4802 -1.3157 -1.0486
 5372SOL    HW321255   5.196   0.302   1.969  0.6854 -1.6614 -1.7819
 5372SOL    MW421256   5.125   0.318   1.922 -0.1319  0.0292 -0.4204
 5373SOL     OW21257   3.222   0.998   1.230 -0.0132  0.4166  0.0885
 5373SOL    HW221258   3.271   1.061   1.176  1.2649 -0.4841  0.1376
 5373SOL    HW321259   3.174   0.945   1.167 -2.4440  2.4163  0.1086
 5373SOL    MW421260   3.222   0.999   1.214 -0.0495 -0.0267  0.1407
 5374SOL     OW21261   5.182   0.868   3.901  0.3612  0.3572  0.0882
 5374SOL    HW221262   5.112   0.925   3.931  0.2589  0.1989  0.1498
 5374SOL    HW321263   5.239   0.925   3.849 -0.9339  0.0580 -1.7583
 5374SOL    MW421264   5.180   0.883   3.898  0.2923  0.0296 -0.1649
 5375SOL     OW21265   0.382   4.562   2.414 -0.0522 -0.4868  0.3696
 5375SOL    HW221266   0.397   4.593   2.503 -0.0721 -0.7870  0.4797
 5375SOL    HW321267   0.297   4.601   2.390  0.3779  0.3323  0.1422
 5375SOL    MW421268   0.373   4.571   2.423  0.3155  0.5217 -0.0816
 5376SOL     OW21269   4.236   3.809   5.326 -0.0972  1.0304 -0.2050
 5376SOL    HW221270   4.275   3.823   5.239  0.3456  0.7832 -0.0526
 5376SOL    HW321271   4.290   3.862   5.385  0.2271  0.4233  0.0553
 5376SOL    MW421272   4.249   3.818   5.322  0.3452  0.6915 -0.2659
 5377SOL     OW21273   2.609   1.680   1.908 -0.2073  0.2142 -0.3616
 5377SOL    HW221274   2.628   1.762   1.863 -2.1181  0.5229 -0.6881
 5377SOL    HW321275   2.670   1.678   1.981 -0.2116  2.0109 -0.2654
 5377SOL    MW421276   2.619   1.690   1.912 -0.0702 -0.5788  0.5069
 5378SOL     OW21277   4.792   0.468   1.132 -0.4410 -0.2174 -0.8846
 5378SOL    HW221278   4.860   0.490   1.196 -1.5165 -0.3984  0.3742
 5378SOL    HW321279   4.833   0.484   1.047 -0.0868  3.5847 -0.1911
 5378SOL    MW421280   4.807   0.473   1.129 -0.3262  0.0863 -0.7458
 5379SOL     OW21281   5.922   2.580   0.753 -0.0066  0.2154  0.5232
 5379SOL    HW221282   5.860   2.508   0.737  0.1877  0.5881 -2.4530
 5379SOL    HW321283   5.900   2.612   0.841 -4.5661  0.8218 -0.6120
 5379SOL    MW421284   5.911   2.574   0.763  0.3876 -0.3698  0.4291
 5380SOL     OW21285   2.048   2.311   3.868  0.4376  0.0054 -0.0073
 5380SOL    HW221286   2.084   2.369   3.935  2.2092 -1.4525  0.3931
 5380SOL    HW321287   1.970   2.273   3.909 -1.2128  2.5421 -0.5485
 5380SOL    MW421288   2.043   2.314   3.882 -0.1366  0.0445 -0.0456
 5381SOL     OW21289   4.676   1.434   5.268 -0.5328 -0.3344 -0.6530
 5381SOL    HW221290   4.729   1.366   5.308  1.7928  1.3284 -0.6923
 5381SOL    HW321291   4.608   1.387   5.221  0.4173 -2.5735  0.0903
 5381SOL    MW421292   4.674   1.419   5.267 -0.4600  0.2790 -0.6806
 5382SOL     OW21293   1.466   5.472   2.923  0.0782  0.1884  0.3350
 5382SOL    HW221294   1.494   5.402   2.982 -1.0308 -1.0109 -0.5030
 5382SOL    HW321295   1.429   5.427   2.847 -0.4343  1.6865 -0.3600
 5382SOL    MW421296   1.465   5.457   2.921  0.5782  0.3302 -0.2111
 5383SOL     OW21297   2.752   2.666   3.361 -0.6311  0.2438  0.4058
 5383SOL    HW221298   2.685   2.602   3.384 -0.4751 -0.1620 -0.2567
 5383SOL    HW321299   2.807   2.671   3.440 -0.2478 -0.9532  0.2442
 5383SOL    MW421300   2.751   2.658   3.375  0.3635  0.5649 -0.3247
 5384SOL     OW21301   5.824   4.505   4.401 -0.2445 -0.7921  0.2276
 5384SOL    HW221302   5.833   4.447   4.326  0.9727  1.2718 -1.3543
 5384SOL    HW321303   5.914   4.523   4.428 -0.6337 -0.6145  1.4535
 5384SOL    MW421304   5.837   4.500   4.395  0.0195 -0.1512 -0.0309
 5385SOL     OW21305   3.361   0.478   4.795  0.8872 -0.1402 -0.0230
 5385SOL    HW221306   3.395   0.532   4.723  1.0300  0.6833  0.6437
 5385SOL    HW321307   3.429   0.412   4.809  1.2340  0.1894 -0.1153
 5385SOL    MW421308   3.374   0.476   4.787 -0.1345  0.2410 -0.3010
 5386SOL     OW21309   3.645   5.187   0.139  0.0141  0.3449  0.2544
 5386SOL    HW221310   3.741   5.178   0.137 -0.0371 -0.1542 -0.5714
 5386SOL    HW321311   3.622   5.180   0.232  0.6433 -1.1695  0.3264
 5386SOL    MW421312   3.655   5.185   0.151 -0.3146  0.8113  1.0499
 5387SOL     OW21313   1.999   5.298   1.071 -0.6161  0.4200  0.0766
 5387SOL    HW221314   2.025   5.347   0.993 -1.3321 -0.0904 -0.5007
 5387SOL    HW321315   2.049   5.217   1.065 -1.6882 -0.2235 -0.6183
 5387SOL    MW421316   2.009   5.294   1.060 -0.6064 -0.1281 -0.2762
 5388SOL     OW21317   3.157   0.204   0.589  0.2293 -0.0220 -0.0587
 5388SOL    HW221318   3.154   0.278   0.529 -0.5564  0.5013  0.6040
 5388SOL    HW321319   3.081   0.216   0.646 -0.3047 -1.7096 -0.3627
 5388SOL    MW421320   3.147   0.215   0.589  0.0326 -0.3678 -0.3166
 5389SOL     OW21321   0.241   5.026   5.454 -0.6020 -0.8628 -0.1106
 5389SOL    HW221322   0.187   5.105   5.457 -0.8702 -1.0431 -0.0862
 5389SOL    HW321323   0.194   4.963   5.508  0.0667 -0.7619  0.6032
 5389SOL    MW421324   0.228   5.028   5.461  0.2115  0.4261 -0.1651
 5390SOL     OW21325   3.501   4.139   6.172 -0.7107  0.2224  0.1276
 5390SOL    HW221326   3.436   4.204   6.199  0.6196  2.0103 -0.8285
 5390SOL    HW321327   3.538   4.173   6.091  0.3900 -1.5071 -0.1634
 5390SOL    MW421328   3.497   4.152   6.165  0.3858 -0.4509  0.2362
 5391SOL     OW21329   5.732   2.885   1.854  0.5551 -0.1882  0.2642
 5391SOL    HW221330   5.821   2.853   1.869  0.3149 -1.8746 -1.4574
 5391SOL    HW321331   5.680   2.847   1.925  1.0791  0.1808  0.8459
 5391SOL    MW421332   5.737   2.876   1.865  0.5223  0.1582 -0.2643
 5392SOL     OW21333   5.735   4.441   0.874  0.4309  0.3652 -0.2114
 5392SOL    HW221334   5.829   4.457   0.870  0.4488  0.3573  0.1521
 5392SOL    HW321335   5.697   4.506   0.814  0.6576  0.4419 -0.2730
 5392SOL    MW421336   5.742   4.452   0.866  0.1869  0.0052  0.2024
 5393SOL     OW21337   4.335   4.122   4.179 -0.6748  0.1111 -0.4500
 5393SOL    HW221338   4.389   4.199   4.160 -0.0625 -0.3931 -0.7916
 5393SOL    HW321339   4.353   4.103   4.271  1.9166 -1.6857 -1.2213
 5393SOL    MW421340   4.345   4.130   4.188 -0.0325  0.4643 -0.2459
 5394SOL     OW21341   4.844   1.557   4.250  0.3142 -0.0903 -0.2993
 5394SOL    HW221342   4.794   1.627   4.208  0.3725  1.3956  1.9472
 5394SOL    HW321343   4.933   1.591   4.257  0.4741 -0.6133  0.3228
 5394SOL    MW421344   4.849   1.571   4.245 -0.0811 -0.0961 -0.0014
 5395SOL     OW21345   2.688   6.028   4.464 -0.5474  0.0535  0.0376
 5395SOL    HW221346   2.666   5.972   4.390 -0.9909  0.8001 -0.4134
 5395SOL    HW321347   2.735   6.102   4.424 -0.5939  0.3485  0.5311
 5395SOL    MW421348   2.691   6.030   4.449 -0.8037  0.1453 -0.4113
 5396SOL     OW21349   4.260   0.358   3.381  0.1163  0.2491 -0.2372
 5396SOL    HW221350   4.206   0.437   3.385 -0.7916 -0.1129 -3.1956
 5396SOL    HW321351   4.224   0.301   3.449 -0.3048  1.7126  0.8101
 5396SOL    MW421352   4.248   0.361   3.391 -0.0421  0.0931 -0.4399
 5397SOL     OW21353   5.462   6.032   3.633 -0.3441 -0.1651  0.0295
 5397SOL    HW221354   5.461   5.942   3.601  1.2199 -0.0118 -0.5391
 5397SOL    HW321355   5.410   6.029   3.713 -0.3438 -1.5740  0.0064
 5397SOL    MW421356   5.455   6.020   3.640  0.2482 -0.4606  0.1306
 5398SOL     OW21357   0.162   4.345   2.627 -0.1989  0.0960 -0.6621
 5398SOL    HW221358   0.142   4.350   2.534  0.9949  1.2871 -0.8855
 5398SOL    HW321359   0.079   4.365   2.671 -0.8175 -0.6636 -1.4380
 5398SOL    MW421360   0.149   4.348   2.621 -0.6911 -0.0251  0.1472
 5399SOL     OW21361   5.208   1.192   0.889  0.4464 -0.7268 -0.6480
 5399SOL    HW221362   5.134   1.133   0.882 -0.0960 -0.1551  0.1050
 5399SOL    HW321363   5.195   1.256   0.819 -0.0928 -0.2816 -0.1425
 5399SOL    MW421364   5.197   1.193   0.879  0.1000  0.0871 -0.1046
 5400SOL     OW21365   6.019   1.911   3.387  0.0228  0.0231  0.7028
 5400SOL    HW221366   5.939   1.938   3.342 -0.3279 -1.3947  0.4549
 5400SOL    HW321367   5.989   1.879   3.472  0.5360  1.2343  1.3720
 5400SOL    MW421368   6.004   1.911   3.392 -0.5142 -0.1406 -0.3987
 5401SOL     OW21369   0.273   3.338   5.510 -0.3374  0.0349 -0.5128
 5401SOL    HW221370   0.179   3.357   5.505 -0.0206  2.4007  0.8202
 5401SOL    HW321371   0.300   3.327   5.419 -1.2273  3.5136 -1.3504
 5401SOL    MW421372   0.264   3.339   5.497 -0.0937 -0.4037 -0.1560
 5402SOL     OW21373   5.731   3.240   5.311 -0.5092 -0.0171 -0.0069
 5402SOL    HW221374   5.669   3.288   5.367 -0.1530  1.0941 -0.5310
 5402SOL    HW321375   5.817   3.258   5.349 -0.5056 -2.0761  1.0985
 5402SOL    MW421376   5.734   3.249   5.323 -0.1218 -0.6840 -0.1739
 5403SOL     OW21377   4.164   0.136   1.830  0.1929 -0.1154 -0.9007
 5403SOL    HW221378   4.160   0.067   1.896  0.1642 -0.3699 -1.1695
 5403SOL    HW321379   4.246   0.120   1.783  0.8995  0.8556 -0.0656
 5403SOL    MW421380   4.174   0.125   1.832  0.6973  0.3683  0.1855
 5404SOL     OW21381   2.623   1.180   3.055  0.4920  0.3446  0.1870
 5404SOL    HW221382   2.695   1.241   3.068  0.6451 -0.2242  2.3922
 5404SOL    HW321383   2.619   1.130   3.136 -1.5151 -0.5790 -0.4174
 5404SOL    MW421384   2.632   1.182   3.067 -0.0810  0.0339 -0.4140
 5405SOL     OW21385   4.240   4.820   0.881  0.4563  0.3281  0.1608
 5405SOL    HW221386   4.276   4.756   0.942  0.2616 -0.1938 -0.2620
 5405SOL    HW321387   4.313   4.879   0.862  0.4911  0.5448  0.9592
 5405SOL    MW421388   4.255   4.819   0.886 -0.6409 -0.7598 -0.0338
 5406SOL     OW21389   6.059   1.048   3.758  0.3175 -0.0087 -0.0931
 5406SOL    HW221390   6.069   0.993   3.681  0.5878 -0.6316  0.3727
 5406SOL    HW321391   6.112   1.005   3.825 -0.5984  0.0414  0.6891
 5406SOL    MW421392   6.067   1.035   3.757 -0.0405 -0.2978  0.7957
 5407SOL     OW21393   3.505   5.591   2.310 -0.6852 -0.2923  0.3351
 5407SOL    HW221394   3.544   5.649   2.376 -1.0062  1.0213 -0.5972
 5407SOL    HW321395   3.474   5.650   2.241 -0.2998 -1.6311 -1.0359
 5407SOL    MW421396   3.506   5.607   2.310 -0.0946 -0.5155 -0.2318
 5408SOL     OW21397   6.250   1.232   2.331 -0.4272  0.1829  0.3891
 5408SOL    HW221398   6.300   1.306   2.367  1.4693  0.3924 -2.3767
 5408SOL    HW321399   6.196   1.270   2.262 -0.9557 -0.7232  0.2887
 5408SOL    MW421400   6.250   1.247   2.327 -0.1941  0.2576  0.2441
 5409SOL     OW21401   0.683   2.448   5.487 -0.8460 -0.2162  0.4237
 5409SOL    HW221402   0.729   2.506   5.426 -1.8124  0.2773  0.1346
 5409SOL    HW321403   0.647   2.379   5.431 -1.6390  0.1764  0.4217
 5409SOL    MW421404   0.684   2.447   5.471  0.0373 -0.2285  0.1270
 5410SOL     OW21405   4.812   2.273   1.577  0.0482 -0.7005 -0.4137
 5410SOL    HW221406   4.891   2.262   1.630  0.5175 -0.7931 -1.1213
 5410SOL    HW321407   4.828   2.354   1.527 -0.9743  0.1559  0.5891
 5410SOL    MW421408   4.825   2.282   1.577 -0.1230 -0.3073  0.6824
 5411SOL     OW21409   5.794   5.312   1.388  0.6699  0.1695  0.1368
 5411SOL    HW221410   5.814   5.369   1.314 -0.7782 -0.6917 -0.9607
 5411SOL    HW321411   5.862   5.244   1.385  1.0697  0.5724  0.0771
 5411SOL    MW421412   5.806   5.310   1.378 -0.4640  0.1603 -0.4950
 5412SOL     OW21413   2.590   0.635   2.775 -0.1376  1.0569 -0.7079
 5412SOL    HW221414   2.594   0.709   2.836  1.3191 -0.2694  0.9080
 5412SOL    HW321415   2.498   0.606   2.778 -0.0574  0.8347  1.1652
 5412SOL    MW421416   2.578   0.641   2.784  0.0539 -0.1406 -0.0171
 5413SOL     OW21417   4.732   2.708   0.573 -0.4659 -0.4653  0.5060
 5413SOL    HW221418   4.727   2.793   0.529 -1.8234 -0.2980  0.9167
 5413SOL    HW321419   4.777   2.651   0.512  1.0500  0.7009  0.4831
 5413SOL    MW421420   4.737   2.711   0.559  0.2843 -0.7630  0.0107
 5414SOL     OW21421   2.885   0.099   1.674 -0.1231 -0.0128 -0.4917
 5414SOL    HW221422   2.971   0.141   1.666  0.3662 -0.5749  1.1734
 5414SOL    HW321423   2.832   0.162   1.722 -0.6287  0.2948 -1.4407
 5414SOL    MW421424   2.889   0.113   1.680 -0.2545  0.3887  0.4416
 5415SOL     OW21425   4.894   2.390   0.167  0.4454  0.0438 -0.2409
 5415SOL    HW221426   4.913   2.434   0.250  0.6052 -0.3764 -0.0521
 5415SOL    HW321427   4.929   2.302   0.178 -2.3371 -1.0915  0.4634
 5415SOL    MW421428   4.901   2.384   0.179 -0.5970  0.2119  0.3189
 5416SOL     OW21429   6.375   0.260   3.184  0.4514 -0.0934  0.0239
 5416SOL    HW221430   6.439   0.329   3.163  0.1535  0.2227  0.1434
 5416SOL    HW321431   6.293   0.307   3.197 -0.3776 -0.6910 -2.5269
 5416SOL    MW421432   6.373   0.276   3.183  0.1133  0.3099  0.1273
 5417SOL     OW21433   6.054   6.219   2.386 -0.5610  0.0220 -0.3802
 5417SOL    HW221434   5.979   6.279   2.392 -0.6471 -0.1562  0.3776
 5417SOL    HW321435   6.023   6.138   2.427 -0.2514 -0.3553 -0.8772
 5417SOL    MW421436   6.040   6.216   2.392 -0.1715  0.1559 -0.1034
 5418SOL     OW21437   2.147   2.562   4.952  0.2425  0.4330 -0.2286
 5418SOL    HW221438   2.220   2.508   4.983  0.0107 -0.7019 -1.5572
 5418SOL    HW321439   2.069   2.518   4.986  0.1273  1.4506  0.8979
 5418SOL    MW421440   2.146   2.549   4.960  0.0579 -0.2091  0.2910
 5419SOL     OW21441   0.497   1.862   3.293  0.3434  0.3749 -0.4640
 5419SOL    HW221442   0.558   1.794   3.262  1.9348  1.5136  0.1006
 5419SOL    HW321443   0.439   1.876   3.218  1.9490  0.5829 -1.7423
 5419SOL    MW421444   0.497   1.855   3.279  0.2184  0.3216  0.7732
 5420SOL     OW21445   1.908   1.754   4.234 -0.1685 -0.2839  0.1723
 5420SOL    HW221446   1.916   1.827   4.172 -0.0979 -0.8944 -0.5546
 5420SOL    HW321447   1.829   1.708   4.205  0.1884 -0.9042  0.1809
 5420SOL    MW421448   1.899   1.758   4.222  0.3162  0.4130  0.2567
 5421SOL     OW21449   3.217   5.637   4.529  0.2571 -0.3878 -0.7859
 5421SOL    HW221450   3.259   5.600   4.606 -0.7656 -1.4570 -0.7257
 5421SOL    HW321451   3.247   5.582   4.456  0.5310  0.0851 -1.0396
 5421SOL    MW421452   3.227   5.625   4.529 -0.6298 -0.2027 -0.2176
 5422SOL     OW21453   3.316   4.385   4.241  0.3740  0.0190 -0.6705
 5422SOL    HW221454   3.385   4.447   4.264  1.3458 -1.6077  1.0960
 5422SOL    HW321455   3.361   4.315   4.194 -0.4049 -0.2069 -1.1024
 5422SOL    MW421456   3.331   4.384   4.238  0.7772  0.3908 -0.1077
 5423SOL     OW21457   3.564   3.207   5.218 -0.7961  0.3083 -0.6522
 5423SOL    HW221458   3.474   3.183   5.197 -1.0738 -0.5628  1.3869
 5423SOL    HW321459   3.612   3.192   5.136 -1.9649 -1.9527 -0.9848
 5423SOL    MW421460   3.559   3.202   5.204  0.0023 -0.0986 -0.2355
 5424SOL     OW21461   4.786   1.030   4.229  0.2542  0.6059 -0.0304
 5424SOL    HW221462   4.730   0.996   4.159 -1.6141 -0.1833  1.7399
 5424SOL    HW321463   4.868   0.981   4.219  0.0930  0.6003 -1.7071
 5424SOL    MW421464   4.789   1.019   4.218  0.2174  0.5175 -0.2646
 5425SOL     OW21465   0.635   0.200   5.187  0.1222 -0.6861  0.5346
 5425SOL    HW221466   0.692   0.144   5.132 -1.4021 -2.0482  0.2665
 5425SOL    HW321467   0.674   0.287   5.181  0.9421 -1.1324 -1.4018
 5425SOL    MW421468   0.648   0.204   5.179 -0.1759 -0.7150 -0.4675
 5426SOL     OW21469   1.770   4.767   4.092  0.1065 -0.2011  0.0645
 5426SOL    HW221470   1.734   4.691   4.046 -3.6637  1.3834  0.0137
 5426SOL    HW321471   1.732   4.762   4.179  1.2104  0.7095  0.6148
 5426SOL    MW421472   1.760   4.756   4.097 -0.1653  0.2083 -0.5135
 5427SOL     OW21473   1.290   4.488   1.712 -0.7383 -0.3808  0.6282
 5427SOL    HW221474   1.368   4.469   1.660 -1.7070  1.2560 -1.5702
 5427SOL    HW321475   1.226   4.423   1.683 -1.7140  1.3583 -1.4094
 5427SOL    MW421476   1.292   4.477   1.701  0.0975  0.2854 -0.0733
 5428SOL     OW21477   5.526   3.325   2.108 -0.8108  0.6167 -0.1117
 5428SOL    HW221478   5.467   3.319   2.184 -0.9422  1.6639 -0.1133
 5428SOL    HW321479   5.475   3.371   2.042 -0.7195 -0.3591 -0.8841
 5428SOL    MW421480   5.512   3.330   2.110 -0.6698  0.1243  0.0823
 5429SOL     OW21481   1.420   0.185   4.043 -0.1000  0.0616 -0.1653
 5429SOL    HW221482   1.429   0.091   4.028  0.0648 -0.2157  1.5022
 5429SOL    HW321483   1.483   0.205   4.112  0.6352  1.6155 -1.2199
 5429SOL    MW421484   1.430   0.176   4.050  0.2326 -0.1659 -0.0429
 5430SOL     OW21485   5.256   5.490   5.208  0.0542  0.4961  0.2003
 5430SOL    HW221486   5.208   5.562   5.166  2.2894  2.4875  0.8910
 5430SOL    HW321487   5.216   5.483   5.295 -0.8813  0.1364 -0.2390
 5430SOL    MW421488   5.244   5.499   5.214 -0.3170 -0.6028 -0.2724
 5431SOL     OW21489   5.784   0.464   1.687  0.7139  0.1728 -0.0458
 5431SOL    HW221490   5.854   0.415   1.644  1.7660  1.9482 -0.4671
 5431SOL    HW321491   5.818   0.484   1.774  0.0749 -0.2942  0.3196
 5431SOL    MW421492   5.797   0.460   1.692 -0.1099 -0.0117 -0.3469
 5432SOL     OW21493   2.348   4.401   1.573  0.6062 -0.3286 -0.6132
 5432SOL    HW221494   2.378   4.420   1.484 -1.0872 -0.0821 -1.1571
 5432SOL    HW321495   2.290   4.326   1.563  1.3782 -1.1001  0.4855
 5432SOL    MW421496   2.345   4.394   1.560  0.2291 -0.4998  1.2525
 5433SOL     OW21497   3.912   0.488   0.301 -0.7373 -0.4048  0.2680
 5433SOL    HW221498   3.889   0.525   0.216  1.9238 -1.6334 -1.1267
 5433SOL    HW321499   3.961   0.558   0.344  0.0463 -0.5752 -0.3059
 5433SOL    MW421500   3.915   0.502   0.295 -0.0033 -0.0794  0.1586
 5434SOL     OW21501   3.687   2.138   2.878  0.2444 -0.2623  0.3542
 5434SOL    HW221502   3.596   2.110   2.882 -0.3829  1.4413 -0.7478
 5434SOL    HW321503   3.697   2.196   2.954  0.1331  0.2513 -0.0174
 5434SOL    MW421504   3.676   2.142   2.888  0.0441 -0.0529  0.2120
 5435SOL     OW21505   1.130   5.630   5.353  0.0935 -0.2747 -0.4312
 5435SOL    HW221506   1.119   5.570   5.426  0.1488  0.1168 -0.0950
 5435SOL    HW321507   1.162   5.711   5.393 -2.5716  0.9192 -0.4791
 5435SOL    MW421508   1.132   5.633   5.368 -0.1216 -0.3569 -0.7849
 5436SOL     OW21509   4.248   5.022   5.574  0.3373 -0.4339  0.2300
 5436SOL    HW221510   4.229   5.112   5.550  0.8886 -0.4552 -0.2974
 5436SOL    HW321511   4.161   4.980   5.581  0.0863  0.1042  0.3955
 5436SOL    MW421512   4.234   5.028   5.572 -0.0990 -0.2851 -0.0318
 5437SOL     OW21513   6.292   0.725   0.800  0.2498 -0.3231 -0.2827
 5437SOL    HW221514   6.341   0.736   0.718  0.9991 -2.3572 -0.1683
 5437SOL    HW321515   6.319   0.800   0.854  0.8933  0.2352 -1.3483
 5437SOL    MW421516   6.302   0.736   0.797  0.6068  0.6369 -0.0493
 5438SOL     OW21517   5.294   4.344   0.324  0.3521 -0.1269  0.0023
 5438SOL    HW221518   5.388   4.339   0.308  0.4259  0.8353  0.0509
 5438SOL    HW321519   5.261   4.256   0.307  0.9310  0.0315 -2.1434
 5438SOL    MW421520   5.302   4.332   0.320  0.3140  0.1010 -0.1249
 5439SOL     OW21521   0.288   4.235   1.243 -0.1032  0.3723 -0.3716
 5439SOL    HW221522   0.303   4.165   1.179 -3.2573  0.3114 -1.1813
 5439SOL    HW321523   0.210   4.208   1.291  0.6881  1.6716  1.8015
 5439SOL    MW421524   0.280   4.222   1.241  0.7073 -0.1463 -0.3310
 5440SOL     OW21525   4.303   5.925   6.346 -0.5429 -0.2513  0.4014
 5440SOL    HW221526   4.226   5.891   6.302 -1.9989  0.0797  2.5638
 5440SOL    HW321527   4.333   5.854   6.403  1.2266 -0.6256 -0.8816
 5440SOL    MW421528   4.297   5.911   6.348  0.3811  0.4266  0.0487
 5441SOL     OW21529   5.440   1.422   4.917 -0.0869  0.2741 -0.4941
 5441SOL    HW221530   5.350   1.388   4.924 -0.4823  1.4567  0.5706
 5441SOL    HW321531   5.443   1.494   4.980  1.6251  0.2455 -0.5011
 5441SOL    MW421532   5.428   1.427   4.926 -0.3946 -0.0287  0.4961
 5442SOL     OW21533   5.937   3.797   3.852  0.5928  0.0979 -0.3693
 5442SOL    HW221534   5.990   3.727   3.888  0.5969 -1.2315 -2.7729
 5442SOL    HW321535   5.913   3.767   3.765 -0.9742  2.2993 -0.7881
 5442SOL    MW421536   5.941   3.784   3.846 -0.2680 -0.4962 -0.1385
 5443SOL     OW21537   3.482   0.996   2.563  0.1034  0.4957 -0.0502
 5443SOL    HW221538   3.534   1.026   2.488 -0.3081  2.7297  0.4774
 5443SOL    HW321539   3.490   0.901   2.562  1.9427  0.6144 -1.6000
 5443SOL    MW421540   3.490   0.988   2.553 -0.5403 -0.2970 -0.3947
 5444SOL     OW21541   1.136   5.436   5.559 -0.4773  0.4378  0.1629
 5444SOL    HW221542   1.071   5.473   5.619 -1.7521 -1.0020 -0.2299
 5444SOL    HW321543   1.151   5.348   5.593 -2.4498 -1.0386 -2.3801
 5444SOL    MW421544   1.129   5.429   5.571 -0.0526  0.2948 -0.3291
 5445SOL     OW21545   4.077   5.122   1.705 -0.4298  0.1441  0.5461
 5445SOL    HW221546   4.057   5.062   1.777  3.0564 -1.1152  0.6355
 5445SOL    HW321547   4.042   5.078   1.627 -1.6647  0.1359  1.0709
 5445SOL    MW421548   4.069   5.109   1.704 -0.1894 -0.5895  0.5426
 5446SOL     OW21549   4.110   4.574   3.838 -0.0182  0.1141 -0.6898
 5446SOL    HW221550   4.170   4.641   3.805  0.3254 -0.1042 -0.5168
 5446SOL    HW321551   4.159   4.531   3.909 -0.0026 -0.7100 -1.1855
 5446SOL    MW421552   4.125   4.577   3.843 -0.5336 -0.5908  0.1944
 5447SOL     OW21553   3.273   4.822   2.922  0.1001  0.1357  0.1636
 5447SOL    HW221554   3.204   4.804   2.985 -0.4576 -1.9233 -0.9356
 5447SOL    HW321555   3.354   4.822   2.973 -0.5296  0.6933  1.1794
 5447SOL    MW421556   3.275   4.820   2.937 -0.9033 -0.0389  0.0163
 5448SOL     OW21557   0.086   1.366   6.393  0.0891 -0.4375  0.0773
 5448SOL    HW221558   0.166   1.408   6.361  0.0232 -0.6366 -0.3549
 5448SOL    HW321559   0.016   1.429   6.373  0.0747 -0.4740  0.0111
 5448SOL    MW421560   0.087   1.380   6.386  0.4516  0.4313 -0.0974
 5449SOL     OW21561   4.078   0.805   2.608 -0.5194  0.3389  0.1706
 5449SOL    HW221562   4.050   0.775   2.522  0.0034  1.3704 -0.3801
 5449SOL    HW321563   4.006   0.782   2.666 -1.2016  0.2932 -0.6691
 5449SOL    MW421564   4.065   0.798   2.604 -0.0850  0.5891  0.2223
 5450SOL     OW21565   1.683   3.527   5.839  0.0600 -0.4351 -0.2887
 5450SOL    HW221566   1.651   3.617   5.847 -1.1875 -0.9292  0.5704
 5450SOL    HW321567   1.605   3.475   5.820  0.7844 -1.3373 -0.9398
 5450SOL    MW421568   1.669   3.532   5.837 -0.5786  0.6090  0.3063
 5451SOL     OW21569   5.629   2.946   5.350 -0.5975 -0.1697 -0.1427
 5451SOL    HW221570   5.660   3.037   5.344  2.8646 -0.9835  2.2234
 5451SOL    HW321571   5.684   2.898   5.288 -1.6730 -0.8126 -0.6095
 5451SOL    MW421572   5.641   2.952   5.341  0.4236  0.1261  0.6928
 5452SOL     OW21573   2.658   3.883   4.891 -0.2856  0.7724 -0.7846
 5452SOL    HW221574   2.650   3.793   4.924 -1.2948  0.6661 -1.2825
 5452SOL    HW321575   2.698   3.873   4.805 -0.2817  0.8121 -0.7872
 5452SOL    MW421576   2.662   3.870   4.884 -0.3499  0.7059  0.2754
 5453SOL     OW21577   3.455   0.540   4.536 -0.2994 -0.4248 -0.0003
 5453SOL    HW221578   3.399   0.531   4.459  1.2313  1.6897 -1.4939
 5453SOL    HW321579   3.494   0.627   4.526  0.4844 -0.3752  2.8466
 5453SOL    MW421580   3.453   0.551   4.524 -0.2969  0.2009 -0.4357
 5454SOL     OW21581   1.913   6.358   5.072 -0.4076  0.4006 -0.1834
 5454SOL    HW221582   1.873   6.433   5.117 -0.1866  0.1700  0.3929
 5454SOL    HW321583   1.864   6.282   5.103 -0.6807  0.3055 -0.8256
 5454SOL    MW421584   1.901   6.358   5.082 -0.6913 -0.1212  0.2123
 5455SOL     OW21585   4.688   2.530   0.068  0.4250 -0.1405 -0.5242
 5455SOL    HW221586   4.629   2.466   0.028 -0.7836  1.1647 -0.9039
 5455SOL    HW321587   4.754   2.477   0.112 -1.7270 -1.7160  1.0275
 5455SOL    MW421588   4.689   2.515   0.068 -0.2837 -0.0875 -0.7392
 5456SOL     OW21589   5.943   5.254   2.545  0.0581 -0.0601 -0.1731
 5456SOL    HW221590   5.901   5.173   2.571 -0.0197  0.1691  0.4267
 5456SOL    HW321591   6.030   5.229   2.517 -0.2683 -0.4617 -0.8461
 5456SOL    MW421592   5.949   5.240   2.544  0.4117 -0.3739  0.2091
 5457SOL     OW21593   5.629   5.779   1.753 -0.4664 -0.3442  0.0261
 5457SOL    HW221594   5.554   5.768   1.695 -1.6674 -2.1012  1.7978
 5457SOL    HW321595   5.696   5.721   1.717 -1.1166 -1.2374  0.2262
 5457SOL    MW421596   5.628   5.770   1.741 -0.1621  0.8844  0.2454
 5458SOL     OW21597   0.999   1.509   2.832  0.2001 -0.0069 -0.1087
 5458SOL    HW221598   0.990   1.532   2.925  1.6234 -2.9527  0.8915
 5458SOL    HW321599   0.948   1.428   2.822  0.8679 -0.2834 -1.6343
 5458SOL    MW421600   0.991   1.501   2.843 -0.7805 -0.1111  0.2113
 5459SOL     OW21601   3.661   2.402   1.197 -0.2113 -0.1387  0.1779
 5459SOL    HW221602   3.589   2.349   1.161 -1.1397  1.7196 -0.8879
 5459SOL    HW321603   3.721   2.413   1.124  1.7703 -2.4654  1.3069
 5459SOL    MW421604   3.659   2.396   1.183 -0.5355 -0.2955 -0.6372
 5460SOL     OW21605   5.320   4.989   4.180  0.1811 -0.4217 -0.0017
 5460SOL    HW221606   5.342   4.916   4.238  2.6647 -1.0623 -1.5939
 5460SOL    HW321607   5.375   5.061   4.211  1.1915 -0.6406 -1.1995
 5460SOL    MW421608   5.330   4.989   4.192  0.4615  0.0259 -0.0863
 5461SOL     OW21609   3.700   3.625   4.472  0.8576 -0.0370 -0.0216
 5461SOL    HW221610   3.732   3.643   4.561  0.4764 -0.7055  0.2574
 5461SOL    HW321611   3.625   3.683   4.461  0.8021 -0.0728  0.1585
 5461SOL    MW421612   3.695   3.635   4.482 -0.2501  0.3962  0.0007
 5462SOL     OW21613   0.857   0.062   4.471  0.0041 -0.1635  0.5387
 5462SOL    HW221614   0.774   0.028   4.438  0.0232 -0.1980  0.5265
 5462SOL    HW321615   0.893  -0.010   4.524  1.0405 -0.9502 -1.1695
 5462SOL    MW421616   0.851   0.048   4.474 -0.2158  0.5270 -0.1775
 5463SOL     OW21617   5.231   2.638   1.042 -0.5552 -0.1176  0.1007
 5463SOL    HW221618   5.145   2.597   1.037 -0.3962 -0.4141 -0.1832
 5463SOL    HW321619   5.286   2.588   0.981  0.1082 -0.6492  1.1048
 5463SOL    MW421620   5.227   2.626   1.033  0.3600 -0.1286  0.0867
 5464SOL     OW21621   2.498   3.298   3.782 -0.5851 -0.3387  0.7530
 5464SOL    HW221622   2.490   3.208   3.815  0.4281 -1.1759 -1.1343
 5464SOL    HW321623   2.590   3.320   3.793 -0.5428 -0.0632 -0.0921
 5464SOL    MW421624   2.509   3.289   3.788 -0.1448 -0.1240  0.2457
 5465SOL     OW21625   3.608   0.630   3.246  0.1892  0.3417 -0.3074
 5465SOL    HW221626   3.674   0.563   3.262  0.7984  0.4996 -1.9808
 5465SOL    HW321627   3.553   0.629   3.325  0.8272 -1.3596  0.1574
 5465SOL    MW421628   3.609   0.621   3.258  0.1997  0.3507  0.2125
 5466SOL     OW21629   6.146   5.599   3.204  0.5552 -0.4092 -0.6000
 5466SOL    HW221630   6.207   5.620   3.133  1.3179 -2.0368 -0.4709
 5466SOL    HW321631   6.092   5.677   3.213 -0.0841 -0.4203 -3.4896
 5466SOL    MW421632   6.147   5.612   3.196  0.1313 -0.6433  0.2693
 5467SOL     OW21633   0.768   2.790   3.704 -0.0292  0.3007 -0.5126
 5467SOL    HW221634   0.855   2.831   3.712  0.2290 -0.3209 -0.0357
 5467SOL    HW321635   0.738   2.781   3.795  0.2114 -1.1681 -0.5561
 5467SOL    MW421636   0.776   2.795   3.717 -0.0604 -0.4054  0.3641
 5468SOL     OW21637   2.156   1.979   4.307 -0.8683  0.7626  0.2143
 5468SOL    HW221638   2.173   2.067   4.273 -0.8291  0.5714 -0.2725
 5468SOL    HW321639   2.144   1.926   4.229  1.5130 -0.1577  0.3924
 5468SOL    MW421640   2.157   1.984   4.292  0.0390  0.4023 -0.2675
 5469SOL     OW21641   0.196   3.997   2.483 -0.3181  0.4608 -0.1184
 5469SOL    HW221642   0.122   3.953   2.441 -0.1229  0.1895 -0.1842
 5469SOL    HW321643   0.159   4.037   2.562 -0.4292 -0.1570  0.1547
 5469SOL    MW421644   0.181   3.996   2.488 -0.3405 -0.0923  0.3954
 5470SOL     OW21645   0.968   3.511   1.568 -0.4018 -0.2495 -0.4684
 5470SOL    HW221646   0.998   3.599   1.544 -0.2281 -0.2306 -0.1902
 5470SOL    HW321647   0.894   3.526   1.627 -0.8448 -0.2967 -1.0016
 5470SOL    MW421648   0.962   3.525   1.573 -0.5356 -0.3075 -0.0681
 5471SOL     OW21649   1.664   2.987   3.124  0.2991 -0.7938  0.1801
 5471SOL    HW221650   1.571   2.999   3.146 -0.0121 -1.0137 -0.9773
 5471SOL    HW321651   1.696   3.076   3.109 -0.2278 -0.8318 -1.3357
 5471SOL    MW421652   1.656   3.000   3.125 -0.1930  0.1332  0.3974
 5472SOL     OW21653   6.188   2.814   0.966  0.8191  0.1162 -0.3392
 5472SOL    HW221654   6.232   2.820   1.051  0.9498 -1.1047 -0.3146
 5472SOL    HW321655   6.109   2.868   0.976  0.2564 -0.9049  0.9263
 5472SOL    MW421656   6.184   2.822   0.979 -0.0835 -0.0797 -0.2795
 5473SOL     OW21657   3.349   1.702   4.687  0.3091  0.2237 -0.0832
 5473SOL    HW221658   3.357   1.767   4.618  0.0017 -1.1073 -1.4383
 5473SOL    HW321659   3.404   1.629   4.658  0.6825 -0.1350  1.4015
 5473SOL    MW421660   3.357   1.701   4.674 -0.4264  0.3609  0.3076
 5474SOL     OW21661   1.008   0.022   1.482 -0.1127  0.0205  0.1254
 5474SOL    HW221662   0.974   0.065   1.560  0.4948  0.9632 -0.1151
 5474SOL    HW321663   0.951  -0.054   1.469 -1.2316  0.7783  0.5343
 5474SOL    MW421664   0.996   0.018   1.491  0.0354 -0.6043 -0.3372
 5475SOL     OW21665   2.757   4.777   2.277  0.4199  0.2704 -0.2466
 5475SOL    HW221666   2.838   4.801   2.231  0.7272 -0.2097  0.0290
 5475SOL    HW321667   2.714   4.860   2.295  1.9665  0.7477  1.6486
 5475SOL    MW421668   2.762   4.791   2.273 -0.0777 -0.6245 -0.3258
 5476SOL     OW21669   5.564   2.775   3.834  0.1463 -0.3279 -0.3415
 5476SOL    HW221670   5.636   2.811   3.886 -0.7924 -0.5044  1.1175
 5476SOL    HW321671   5.514   2.721   3.895 -2.4477  1.4442 -0.7439
 5476SOL    MW421672   5.567   2.773   3.849 -0.5172  0.5345  0.1029
 5477SOL     OW21673   6.302   5.575   4.193  0.1668  0.6914  0.1279
 5477SOL    HW221674   6.304   5.663   4.154  0.3714  0.0330 -1.3950
 5477SOL    HW321675   6.224   5.534   4.155  0.6826 -0.1617 -0.0420
 5477SOL    MW421676   6.292   5.581   4.183  0.5120  0.0886  0.0218
 5478SOL     OW21677   1.545   4.827   2.713  0.0710 -0.1251 -0.3019
 5478SOL    HW221678   1.636   4.823   2.684  0.1596  0.4221 -0.1132
 5478SOL    HW321679   1.520   4.919   2.701  0.3588  0.3188  2.0837
 5478SOL    MW421680   1.554   4.839   2.707  0.3171 -0.2483  0.3480
 5479SOL     OW21681   3.233   5.674   1.087  0.3800  0.1221  0.2581
 5479SOL    HW221682   3.221   5.591   1.134 -0.1186 -0.2819 -0.5620
 5479SOL    HW321683   3.154   5.724   1.106 -0.1927 -0.3626 -0.7695
 5479SOL    MW421684   3.221   5.670   1.096  0.0374 -0.1687 -0.4040
 5480SOL     OW21685   1.801   0.881   4.048  0.3457  0.3193 -0.0116
 5480SOL    HW221686   1.776   0.829   4.124  0.3802  1.6086  0.9170
 5480SOL    HW321687   1.816   0.817   3.978 -2.3251 -0.7541  0.2842
 5480SOL    MW421688   1.800   0.866   4.049 -0.2409 -0.0967  0.1175
 5481SOL     OW21689   4.754   3.258   2.530  0.3861 -0.2004  0.6263
 5481SOL    HW221690   4.807   3.330   2.494 -1.8474  1.6404  0.8109
 5481SOL    HW321691   4.761   3.188   2.465  2.3227  0.2870  0.2600
 5481SOL    MW421692   4.762   3.258   2.517 -0.2280 -0.0480 -0.5624
 5482SOL     OW21693   1.076   0.754   3.748  0.3245 -0.0298 -0.3142
 5482SOL    HW221694   1.104   0.704   3.825 -0.0268  1.4149  0.8057
 5482SOL    HW321695   1.114   0.841   3.761 -2.2760  1.1753 -0.1392
 5482SOL    MW421696   1.084   0.759   3.760 -0.0920  0.1986 -0.0656
 5483SOL     OW21697   2.732   6.171   2.082 -0.1679  0.0975  0.7063
 5483SOL    HW221698   2.707   6.144   2.170  1.8360 -2.2277  0.6699
 5483SOL    HW321699   2.826   6.189   2.088  0.5365 -2.3286 -1.3413
 5483SOL    MW421700   2.741   6.170   2.094 -0.0820  0.3503  0.4868
 5484SOL     OW21701   0.845   2.976   5.426 -0.1124  0.0892  0.0938
 5484SOL    HW221702   0.750   2.971   5.436 -0.2036  1.6465  0.2427
 5484SOL    HW321703   0.879   2.907   5.483 -1.1293 -0.0785  0.5140
 5484SOL    MW421704   0.837   2.966   5.434 -0.1738  0.5128  0.2717
 5485SOL     OW21705   1.673   5.596   4.193 -0.4676 -0.0362 -0.0147
 5485SOL    HW221706   1.588   5.610   4.233 -2.3487  0.2072 -3.6629
 5485SOL    HW321707   1.670   5.506   4.161  2.1510 -1.2767  2.7084
 5485SOL    MW421708   1.661   5.586   4.194 -0.2317 -0.5631  0.2869
 5486SOL     OW21709   1.797   0.544   2.668 -0.2408  0.3368 -0.1757
 5486SOL    HW221710   1.855   0.522   2.595 -0.8449  2.5833 -1.4325
 5486SOL    HW321711   1.855   0.577   2.736  0.2155 -0.5703 -0.1118
 5486SOL    MW421712   1.812   0.545   2.668 -0.3413 -0.8324 -0.6930
 5487SOL     OW21713   5.796   6.257   1.524 -0.0623  0.0182 -0.0334
 5487SOL    HW221714   5.776   6.289   1.612 -1.4550 -1.3287  0.1865
 5487SOL    HW321715   5.837   6.171   1.539 -0.2621 -0.1933 -0.7006
 5487SOL    MW421716   5.799   6.250   1.538 -1.1471  0.1408  0.3125
 5488SOL     OW21717   0.806   1.027   4.553  0.0273  0.0564  0.0529
 5488SOL    HW221718   0.736   1.088   4.578 -1.2731  0.1931 -3.4797
 5488SOL    HW321719   0.871   1.037   4.623 -2.0524  2.2379  1.8721
 5488SOL    MW421720   0.805   1.036   4.566 -0.1901 -1.0546  0.9525
 5489SOL     OW21721   5.578   6.417   2.733 -0.6305  0.0340 -0.3772
 5489SOL    HW221722   5.592   6.374   2.648  0.8183 -1.7336  0.6978
 5489SOL    HW321723   5.513   6.362   2.776  1.3272 -1.2824  1.0603
 5489SOL    MW421724   5.571   6.404   2.727  0.2004  0.0315 -0.1864
 5490SOL     OW21725   3.774   2.307   3.902  0.0266  0.0217  0.6088
 5490SOL    HW221726   3.701   2.249   3.881 -0.2788  0.2953  0.8932
 5490SOL    HW321727   3.771   2.374   3.833 -1.6156  1.5037  2.0370
 5490SOL    MW421728   3.764   2.308   3.890  0.3694  0.2639 -0.1349
 5491SOL     OW21729   6.030   4.705   3.220 -0.5920 -0.2879  0.0747
 5491SOL    HW221730   6.057   4.717   3.129  2.9394 -0.9010  0.8957
 5491SOL    HW321731   5.989   4.618   3.222  0.3757 -0.7872 -0.7789
 5491SOL    MW421732   6.028   4.695   3.208  0.4460  0.1271  0.4029
 5492SOL     OW21733   2.354   0.647   4.791  0.2449 -0.1874 -0.0409
 5492SOL    HW221734   2.297   0.571   4.789  0.4572 -0.3369 -0.6214
 5492SOL    HW321735   2.425   0.623   4.851 -0.2664 -0.0111  0.6600
 5492SOL    MW421736   2.356   0.634   4.799 -0.4376  0.1810  0.1927
 5493SOL     OW21737   1.410   5.246   3.966  0.5534  0.2760 -0.1129
 5493SOL    HW221738   1.448   5.317   3.915  0.5057 -0.4188 -1.1463
 5493SOL    HW321739   1.324   5.232   3.928  0.6163 -0.4237 -0.0062
 5493SOL    MW421740   1.404   5.253   3.954 -0.1613  0.0145  0.3499
 5494SOL     OW21741   2.997   0.360   3.455  0.1593  0.4606 -0.2334
 5494SOL    HW221742   3.027   0.272   3.435 -0.2796  0.3824 -0.5607
 5494SOL    HW321743   2.906   0.349   3.484 -0.2958  0.9101 -1.4087
 5494SOL    MW421744   2.989   0.347   3.456  0.4064  0.4321  0.2697
 5495SOL     OW21745   3.378   3.550   6.333  0.2829  0.6026  0.4148
 5495SOL    HW221746   3.428   3.553   6.251 -1.5424 -0.2782 -0.7742
 5495SOL    HW321747   3.375   3.641   6.363  0.9192  0.9411 -0.5183
 5495SOL    MW421748   3.385   3.562   6.326  0.5360 -0.4365  0.5744
 5496SOL     OW21749   0.885   5.336   6.370 -0.3054  0.0078 -0.0506
 5496SOL    HW221750   0.790   5.328   6.385 -0.4471 -0.6058 -1.1253
 5496SOL    HW321751   0.922   5.346   6.457 -1.3776  0.4379  0.3795
 5496SOL    MW421752   0.877   5.336   6.383  0.8233 -0.0401 -0.3772
 5497SOL     OW21753   2.581   6.419   1.380 -0.3585  0.3349 -0.3141
 5497SOL    HW221754   2.644   6.362   1.337 -2.0290 -0.6877 -1.5264
 5497SOL    HW321755   2.631   6.497   1.404  1.9159 -1.4240  1.0456
 5497SOL    MW421756   2.596   6.422   1.377  0.4799 -0.1284 -0.0082
 5498SOL     OW21757   3.573   4.337   1.370  0.2187 -0.4711  0.3292
 5498SOL    HW221758   3.513   4.373   1.305  0.6043  0.6196  0.5571
 5498SOL    HW321759   3.598   4.412   1.424  2.3896 -0.7094 -0.2421
 5498SOL    MW421760   3.568   4.351   1.368  0.1816 -0.6362 -0.3013
 5499SOL     OW21761   3.211   5.195   1.692  0.4448  0.0041 -0.0646
 5499SOL    HW221762   3.235   5.109   1.724  2.3612  0.1900 -0.8476
 5499SOL    HW321763   3.187   5.244   1.770 -0.0307 -1.0388  0.4562
 5499SOL    MW421764   3.211   5.190   1.706  0.2515 -0.2576 -0.3108
 5500SOL     OW21765   0.970   1.500   4.081  0.0456  0.4702  0.5645
 5500SOL    HW221766   0.992   1.543   3.998  1.7964 -1.0087  0.1791
 5500SOL    HW321767   0.925   1.420   4.056 -1.1541  0.9348  1.1605
 5500SOL    MW421768   0.967   1.495   4.067 -0.5873  0.2638  0.5123
 5501SOL     OW21769   2.153   1.384   3.437 -0.1485  0.4384 -0.1462
 5501SOL    HW221770   2.162   1.378   3.342 -0.1228 -0.6519 -0.0919
 5501SOL    HW321771   2.175   1.475   3.458  1.6924  0.2440 -0.9990
 5501SOL    MW421772   2.157   1.395   3.427  0.0466 -0.4845 -0.1781
 5502SOL     OW21773   1.740   2.355   1.782  0.1673 -0.4398  0.2681
 5502SOL    HW221774   1.649   2.328   1.794 -0.9945  1.9979 -2.0560
 5502SOL    HW321775   1.763   2.322   1.696  1.0731  0.0077  0.3290
 5502SOL    MW421776   1.731   2.347   1.772 -0.5328  0.5710  0.0009
 5503SOL     OW21777   1.713   6.188   6.210  0.3652 -0.3446 -0.2797
 5503SOL    HW221778   1.642   6.231   6.164 -1.1061 -2.0717  0.2631
 5503SOL    HW321779   1.725   6.240   6.290  1.1659  1.1441 -1.3243
 5503SOL    MW421780   1.706   6.200   6.215 -0.3421 -0.0031  0.2996
 5504SOL     OW21781   5.086   5.336   4.366 -0.0749 -0.3022 -0.3327
 5504SOL    HW221782   5.177   5.309   4.372  0.0264  0.1603  0.2224
 5504SOL    HW321783   5.042   5.263   4.323  0.3670 -0.9576  0.3135
 5504SOL    MW421784   5.092   5.323   4.361  0.4299  0.1443 -0.4053
 5505SOL     OW21785   1.584   5.472   3.873  0.3486 -0.4767 -0.5461
 5505SOL    HW221786   1.657   5.486   3.814  1.0763  1.0334  0.6223
 5505SOL    HW321787   1.552   5.560   3.893  0.0710 -0.9193  1.1976
 5505SOL    MW421788   1.589   5.486   3.868  0.5866 -0.2602 -0.0371
 5506SOL     OW21789   0.384   0.112   1.217 -0.1200  0.6690  0.1426
 5506SOL    HW221790   0.339   0.156   1.146  0.7301  1.4946  0.1052
 5506SOL    HW321791   0.362   0.162   1.295  1.8265  1.9489 -0.0725
 5506SOL    MW421792   0.376   0.124   1.218  0.2583  0.3035  0.1780
 5507SOL     OW21793   1.715   1.767   0.968 -0.4067 -0.5231 -0.5905
 5507SOL    HW221794   1.778   1.816   1.020 -0.0410  1.3466 -2.6748
 5507SOL    HW321795   1.734   1.790   0.877 -2.8908 -1.3496 -1.4170
 5507SOL    MW421796   1.726   1.776   0.963  0.0223 -0.5263  0.2566
 5508SOL     OW21797   6.311   6.082   1.846 -0.2260  0.1373 -0.0226
 5508SOL    HW221798   6.219   6.107   1.856 -0.2599  0.3195 -0.7469
 5508SOL    HW321799   6.340   6.129   1.768  0.0667 -1.1137 -0.6903
 5508SOL    MW421800   6.303   6.092   1.837 -1.1205 -0.1557  0.0146
 5509SOL     OW21801   0.044   1.728   4.645 -0.5093 -0.3476  0.2224
 5509SOL    HW221802   0.068   1.675   4.721  0.5084  1.1322  0.9794
 5509SOL    HW321803  -0.051   1.723   4.643 -0.4412 -2.8694 -0.2659
 5509SOL    MW421804   0.035   1.720   4.655  0.0377  0.0155  0.0081
 5510SOL     OW21805   2.733   1.126   0.379 -0.4967  0.2750  0.0723
 5510SOL    HW221806   2.702   1.216   0.368 -0.2124  0.2195 -1.3659
 5510SOL    HW321807   2.826   1.135   0.401 -0.0693  0.3328 -1.6218
 5510SOL    MW421808   2.742   1.139   0.381 -0.2480 -0.0829 -0.2951
 5511SOL     OW21809   1.937   5.308   5.347  0.8479  0.4351 -0.0908
 5511SOL    HW221810   1.933   5.241   5.415  0.2515  1.2416  0.6892
 5511SOL    HW321811   1.877   5.277   5.279  1.6205 -0.4825 -0.3718
 5511SOL    MW421812   1.928   5.295   5.347  0.0588  0.1426 -0.3251
 5512SOL     OW21813   0.374   0.324   2.165  0.2284  0.5626 -0.0315
 5512SOL    HW221814   0.383   0.402   2.111  1.3769  0.0390 -0.6208
 5512SOL    HW321815   0.463   0.298   2.186 -0.1667  0.4174  1.6650
 5512SOL    MW421816   0.387   0.330   2.161 -0.3427 -0.3582 -0.5046
 5513SOL     OW21817   6.349   1.315   4.224  0.2225 -0.1704  0.1996
 5513SOL    HW221818   6.262   1.353   4.230  0.5268  0.5131  0.4267
 5513SOL    HW321819   6.342   1.230   4.268  0.2604  0.9488  2.4983
 5513SOL    MW421820   6.337   1.309   4.231 -0.8637 -0.1435 -0.5496
 5514SOL     OW21821   2.362   5.365   5.947  0.4385 -0.5519  0.5669
 5514SOL    HW221822   2.455   5.350   5.966  0.9850  1.4911 -0.2184
 5514SOL    HW321823   2.347   5.318   5.864  0.9353 -0.4168  0.3938
 5514SOL    MW421824   2.372   5.357   5.938 -0.8010 -0.1151  0.2054
 5515SOL     OW21825   4.099   4.355   6.097 -0.7805  0.0160  0.1402
 5515SOL    HW221826   4.109   4.329   6.006 -0.9163 -1.6922  0.5804
 5515SOL    HW321827   4.184   4.336   6.137 -0.7005  0.8156  0.3812
 5515SOL    MW421828   4.111   4.349   6.091 -0.1297  0.5921 -0.5471
 5516SOL     OW21829   5.373   4.412   5.401  0.1939  0.2103  0.0116
 5516SOL    HW221830   5.359   4.504   5.381 -1.0426  0.6485  2.4865
 5516SOL    HW321831   5.298   4.367   5.361  0.1630  0.4361 -0.1868
 5516SOL    MW421832   5.361   4.418   5.393  0.1723  0.3967  0.4272
 5517SOL     OW21833   0.413   3.527   2.399 -0.1297 -0.4914  0.0925
 5517SOL    HW221834   0.493   3.477   2.385 -0.4316 -0.8022 -0.5473
 5517SOL    HW321835   0.354   3.466   2.444  0.2658 -0.0041  1.3336
 5517SOL    MW421836   0.416   3.512   2.403 -0.0669  0.1849  0.4857
 5518SOL     OW21837   2.227   4.647   3.009 -0.3230 -0.2755  0.0685
 5518SOL    HW221838   2.259   4.735   3.029 -0.2333 -0.1734 -0.4948
 5518SOL    HW321839   2.268   4.626   2.925  0.4501 -1.2643  0.6819
 5518SOL    MW421840   2.237   4.656   3.000  0.1610 -0.5182  0.0334
 5519SOL     OW21841   3.509   1.078   4.344  0.3302  0.1583  0.5679
 5519SOL    HW221842   3.476   1.108   4.260 -0.2446  2.3373  1.5064
 5519SOL    HW321843   3.580   1.139   4.366  0.5797 -0.4691  1.5935
 5519SOL    MW421844   3.514   1.090   4.336 -0.8094  0.3118  0.4122
 5520SOL     OW21845   1.007   5.037   0.791 -0.6543  0.2982 -0.0091
 5520SOL    HW221846   0.944   4.976   0.752 -1.3782  0.9599  0.1021
 5520SOL    HW321847   0.968   5.062   0.875 -0.8840  1.7092 -0.5114
 5520SOL    MW421848   0.993   5.032   0.797 -0.4176  0.7017  0.4794
 5521SOL     OW21849   2.970   5.284   4.341  0.5355  0.5632 -0.1943
 5521SOL    HW221850   2.911   5.220   4.381  0.8535  0.8435  0.7518
 5521SOL    HW321851   3.031   5.307   4.411  1.6210  0.4662 -1.0849
 5521SOL    MW421852   2.970   5.278   4.356  0.1926  0.1998 -0.3853
 5522SOL     OW21853   1.011   6.253   2.088 -0.7922 -0.7548  0.3112
 5522SOL    HW221854   0.997   6.290   2.001 -1.1022 -0.1183  0.6220
 5522SOL    HW321855   0.959   6.174   2.089 -0.4456 -0.9956 -0.2278
 5522SOL    MW421856   1.002   6.248   2.077  0.0231  0.0774 -0.1745
 5523SOL     OW21857   1.143   5.258   3.862 -0.1878  0.4676  0.7039
 5523SOL    HW221858   1.150   5.297   3.774  1.6098  0.7722  0.9562
 5523SOL    HW321859   1.062   5.207   3.858 -0.6226  1.1924 -0.8381
 5523SOL    MW421860   1.133   5.257   3.850  0.8888  0.3915 -0.2481
 5524SOL     OW21861   5.773   2.705   4.865  0.4678 -0.4476 -0.3891
 5524SOL    HW221862   5.734   2.696   4.778  1.5042 -1.7924 -0.7497
 5524SOL    HW321863   5.854   2.654   4.860  0.4097 -0.7787  1.4469
 5524SOL    MW421864   5.778   2.697   4.853  0.4415  0.5622 -0.1082
 5525SOL     OW21865   5.434   5.018   3.033 -0.2628  0.2176 -0.0765
 5525SOL    HW221866   5.409   4.953   3.098 -2.2482 -0.4309 -1.4078
 5525SOL    HW321867   5.417   4.976   2.948  2.2958  1.0103 -1.0629
 5525SOL    MW421868   5.428   5.004   3.030  0.1975  0.0878 -0.8779
 5526SOL     OW21869   3.315   4.936   2.202  0.0640  0.6658 -0.2570
 5526SOL    HW221870   3.247   4.928   2.269  0.4453  1.7026  0.2797
 5526SOL    HW321871   3.311   4.853   2.154  0.1165 -0.3372  1.3843
 5526SOL    MW421872   3.306   4.924   2.205  0.1274 -0.1409 -0.0339
 5527SOL     OW21873   1.245   3.029   6.238 -0.2260  0.2188 -0.6604
 5527SOL    HW221874   1.294   3.105   6.270  0.7688  0.3871 -2.4462
 5527SOL    HW321875   1.303   2.989   6.173 -0.9643 -1.7591 -0.1596
 5527SOL    MW421876   1.259   3.034   6.233  0.4566  0.1057  0.4636
 5528SOL     OW21877   1.008   0.973   1.795  0.0174  0.1459 -0.0036
 5528SOL    HW221878   1.073   1.042   1.789 -0.2458  0.5169  1.1438
 5528SOL    HW321879   0.965   0.987   1.879 -0.2060 -1.2697  0.1569
 5528SOL    MW421880   1.011   0.984   1.805  0.2802  0.4277  1.1088
 5529SOL     OW21881   0.643   4.348   0.926 -0.0763  0.7614 -0.0999
 5529SOL    HW221882   0.665   4.430   0.883  0.4719  0.0304 -1.2562
 5529SOL    HW321883   0.547   4.346   0.926 -0.0881  1.1924 -0.4678
 5529SOL    MW421884   0.633   4.359   0.920 -0.2089  0.1815  0.2667
 5530SOL     OW21885   2.718   3.188   5.972  0.2734 -0.3618  0.0717
 5530SOL    HW221886   2.812   3.185   5.953  0.2792  0.4831 -0.0662
 5530SOL    HW321887   2.692   3.096   5.979  0.9809 -0.6142 -0.5063
 5530SOL    MW421888   2.727   3.175   5.971  0.0121  0.2369 -0.2930
 5531SOL     OW21889   1.860   0.852   6.251  0.3908 -0.1624  0.3871
 5531SOL    HW221890   1.811   0.845   6.333  0.9304 -1.3134  0.6288
 5531SOL    HW321891   1.842   0.771   6.205  1.3565 -0.2111  0.0791
 5531SOL    MW421892   1.851   0.841   6.256 -0.4684 -0.0108  0.1510
 5532SOL     OW21893   5.392   2.402   4.783 -0.1441 -0.4127  0.0050
 5532SOL    HW221894   5.323   2.402   4.849  0.6976 -0.3426  0.9196
 5532SOL    HW321895   5.465   2.355   4.825  1.1910  1.5377 -0.0072
 5532SOL    MW421896   5.393   2.395   4.798 -0.2883  0.2103  0.1516
 5533SOL     OW21897   1.911   5.123   4.738 -0.5738 -0.1203  0.1867
 5533SOL    HW221898   1.893   5.185   4.809 -0.6571  2.1329 -1.6925
 5533SOL    HW321899   1.993   5.154   4.699 -0.7178 -1.0913 -0.9343
 5533SOL    MW421900   1.919   5.135   4.742 -0.2917 -0.1033 -0.4215
 5534SOL     OW21901   2.666   0.996   3.747 -0.1669 -0.8154 -0.2652
 5534SOL    HW221902   2.716   1.024   3.823 -2.1987  0.6121  0.6216
 5534SOL    HW321903   2.582   0.968   3.782 -1.0488 -0.4257 -1.9527
 5534SOL    MW421904   2.662   0.996   3.761  0.3366 -0.1165 -1.2139
 5535SOL     OW21905   3.054   1.331   4.883  0.0689 -0.5808 -0.1936
 5535SOL    HW221906   2.988   1.399   4.869  0.9310 -0.0615 -2.2390
 5535SOL    HW321907   3.012   1.268   4.941 -2.0562 -0.0328 -1.0307
 5535SOL    MW421908   3.040   1.332   4.888  0.5251  0.1835  0.8743
 5536SOL     OW21909   1.424   1.066   4.661 -0.0558  0.2947  0.1132
 5536SOL    HW221910   1.502   1.090   4.711 -1.1942  0.7224  1.7781
 5536SOL    HW321911   1.435   1.109   4.576  1.1255  1.0203  0.6145
 5536SOL    MW421912   1.436   1.075   4.656 -0.2298  0.0449 -0.3235
 5537SOL     OW21913   3.754   0.405   3.295  0.3025  0.3299 -0.0203
 5537SOL    HW221914   3.812   0.373   3.226  2.2792 -1.2312  2.1681
 5537SOL    HW321915   3.813   0.437   3.363 -1.3021 -1.4006  2.3846
 5537SOL    MW421916   3.770   0.405   3.295  0.0290  0.3487  0.0268
 5538SOL     OW21917   1.305   3.396   2.562 -0.0614 -0.1147 -0.7666
 5538SOL    HW221918   1.393   3.434   2.562  0.2957 -0.9140  0.3384
 5538SOL    HW321919   1.246   3.471   2.569  0.5836  0.3266 -0.0617
 5538SOL    MW421920   1.309   3.411   2.563  0.2716 -0.1842  0.0098
 5539SOL     OW21921   5.389   3.931   5.259 -0.3036 -0.2496  0.2306
 5539SOL    HW221922   5.359   3.955   5.346  0.9525  2.2777  0.0856
 5539SOL    HW321923   5.313   3.944   5.203 -0.3124  1.2322  0.5454
 5539SOL    MW421924   5.375   3.936   5.263  0.0682  0.6260  0.2039
 5540SOL     OW21925   4.973   1.108   3.904  0.3831 -0.1466  0.2164
 5540SOL    HW221926   4.922   1.157   3.968  2.1379  0.1513  1.4724
 5540SOL    HW321927   5.006   1.175   3.844 -1.1824 -0.4145 -0.9884
 5540SOL    MW421928   4.971   1.123   3.904 -0.2559  0.0294  0.0184
 5541SOL     OW21929   1.463   1.127   2.824  0.2901 -0.5285  0.4994
 5541SOL    HW221930   1.520   1.181   2.880 -0.0158 -1.2710  1.5654
 5541SOL    HW321931   1.406   1.081   2.886 -0.5555 -0.8339 -0.4782
 5541SOL    MW421932   1.463   1.128   2.840 -0.0873 -0.4793 -0.4113
 5542SOL     OW21933   5.177   3.664   0.890  0.1896  0.0527  0.2421
 5542SOL    HW221934   5.117   3.618   0.949 -0.2648 -0.5906 -0.7020
 5542SOL    HW321935   5.126   3.737   0.856 -0.2469 -0.7384 -0.8929
 5542SOL    MW421936   5.162   3.667   0.893 -0.3920  0.0596 -0.2028
 5543SOL     OW21937   0.751   2.282   0.088  0.6599  0.2474  0.1862
 5543SOL    HW221938   0.714   2.357   0.043 -3.0180 -1.3622  0.2067
 5543SOL    HW321939   0.782   2.316   0.172 -0.5853  1.7766  0.0489
 5543SOL    MW421940   0.750   2.296   0.093 -0.3058  0.1551  0.1386
 5544SOL     OW21941   0.755   5.957   3.280  0.6219 -0.3392 -0.1468
 5544SOL    HW221942   0.671   5.951   3.326  1.6989  0.3960  2.0873
 5544SOL    HW321943   0.761   5.877   3.229 -0.8988 -0.9849  0.6311
 5544SOL    MW421944   0.745   5.946   3.280 -0.0155  0.5507  0.3963
 5545SOL     OW21945   6.324   5.357   6.288 -0.4531 -0.6112 -0.5841
 5545SOL    HW221946   6.329   5.310   6.371 -2.0453  0.8037  0.3941
 5545SOL    HW321947   6.356   5.445   6.308 -0.9406 -0.2273 -1.4186
 5545SOL    MW421948   6.329   5.363   6.302  0.2172  0.2313 -0.3241
 5546SOL     OW21949   5.044   2.064   3.867  0.1326  0.1465  0.3620
 5546SOL    HW221950   5.035   2.099   3.955  0.3113  0.2804  0.3269
 5546SOL    HW321951   5.134   2.085   3.841  0.1207 -0.0001  0.1960
 5546SOL    MW421952   5.054   2.071   3.875  0.6799  0.0631 -0.6475
 5547SOL     OW21953   0.252   6.096   3.304  0.1085 -0.0688 -0.0145
 5547SOL    HW221954   0.182   6.159   3.282  0.0345 -0.5013 -1.1045
 5547SOL    HW321955   0.316   6.148   3.352  0.2799  0.9978 -1.3028
 5547SOL    MW421956   0.251   6.111   3.307 -0.3817 -0.0559 -0.0322
 5548SOL     OW21957   2.982   5.742   4.722  0.2193  0.3015  0.1962
 5548SOL    HW221958   3.001   5.651   4.697 -0.5295 -0.2663  1.5837
 5548SOL    HW321959   2.895   5.759   4.685 -0.0825  0.0930  0.7966
 5548SOL    MW421960   2.973   5.732   4.714  0.4343  0.4549  0.2313
 5549SOL     OW21961   0.816   2.406   0.339 -0.3356 -0.3289  0.0421
 5549SOL    HW221962   0.753   2.388   0.409  0.6811  0.7223  1.2936
 5549SOL    HW321963   0.902   2.398   0.381  0.2968  3.0067 -0.2764
 5549SOL    MW421964   0.819   2.403   0.354  0.9497  0.5066  0.4736
 5550SOL     OW21965   2.372   2.037   2.625 -0.0838 -0.0060 -0.1842
 5550SOL    HW221966   2.425   2.091   2.683 -0.6721 -0.4374  0.7801
 5550SOL    HW321967   2.384   1.947   2.657 -3.1477  0.0946  1.5794
 5550SOL    MW421968   2.380   2.032   2.637  0.7222 -0.1046  0.6005
 5551SOL     OW21969   6.001   0.445   2.412  0.5966 -0.1870  0.0680
 5551SOL    HW221970   6.022   0.474   2.323  1.7601 -1.5418 -0.1336
 5551SOL    HW321971   6.024   0.519   2.468  0.7028  0.3487 -0.6654
 5551SOL    MW421972   6.007   0.458   2.407  0.2233 -0.0796 -0.1433
 5552SOL     OW21973   5.745   3.484   1.484 -0.0036  0.1344 -0.3023
 5552SOL    HW221974   5.711   3.514   1.399  1.9033  0.0660 -1.1469
 5552SOL    HW321975   5.732   3.559   1.542 -1.9250 -0.0455 -0.4630
 5552SOL    MW421976   5.739   3.498   1.480  0.5156 -0.6901  0.0818
 5553SOL     OW21977   0.157   4.376   3.854 -0.3819  0.9012 -0.1424
 5553SOL    HW221978   0.201   4.438   3.912 -0.3832  0.9171 -0.1584
 5553SOL    HW321979   0.207   4.379   3.772 -0.9572  1.5912 -0.4770
 5553SOL    MW421980   0.169   4.384   3.851 -0.3200  0.2479 -0.1909
 5554SOL     OW21981   5.878   5.694   5.817 -0.4663 -0.3371 -0.1176
 5554SOL    HW221982   5.960   5.702   5.866 -1.5089  0.9564  1.5199
 5554SOL    HW321983   5.809   5.704   5.883 -1.9559  0.2539 -1.6753
 5554SOL    MW421984   5.879   5.696   5.832 -0.7962  0.3949 -0.2405
 5555SOL     OW21985   1.360   3.621   6.242  0.9092 -0.2138 -0.3655
 5555SOL    HW221986   1.293   3.649   6.180  0.7813  0.3882  0.0311
 5555SOL    HW321987   1.319   3.550   6.292  0.3534  0.5324  0.2603
 5555SOL    MW421988   1.346   3.615   6.241 -0.0128 -0.6829  0.2877
 5556SOL     OW21989   6.048   2.137   4.616 -0.5442  0.6043  0.4751
 5556SOL    HW221990   6.035   2.191   4.695 -0.2578  1.4670 -0.0547
 5556SOL    HW321991   6.140   2.148   4.594 -0.5602  0.1480  0.1667
 5556SOL    MW421992   6.058   2.146   4.624  0.2328  0.4738 -0.1457
 5557SOL     OW21993   6.120   3.043   6.207  0.4168  0.3900 -0.6602
 5557SOL    HW221994   6.046   3.034   6.267  0.3197 -0.4721 -0.9085
 5557SOL    HW321995   6.197   3.022   6.261  0.5078  1.4030 -0.3709
 5557SOL    MW421996   6.120   3.039   6.222  0.1019 -1.0312  0.2603
 5558SOL     OW21997   2.311   1.502   4.872 -0.1066  0.2124  0.1962
 5558SOL    HW221998   2.316   1.432   4.937  0.9007  1.2223  1.2392
 5558SOL    HW321999   2.376   1.478   4.806 -0.4696 -0.3253  0.0197
 5558SOL    MW422000   2.320   1.489   4.872  0.0781  0.0391 -0.6596
 5559SOL     OW22001   1.836   4.096   5.046 -0.0507  0.2325 -0.3943
 5559SOL    HW222002   1.919   4.137   5.070 -0.2605  0.8578 -0.6950
 5559SOL    HW322003   1.791   4.084   5.130  0.4147 -0.2769 -0.2131
 5559SOL    MW422004   1.841   4.100   5.060 -0.0907 -0.0225 -0.0227
 5560SOL     OW22005   0.653   4.681   0.188 -0.5616 -0.0304 -0.4162
 5560SOL    HW222006   0.599   4.607   0.216 -1.4567  0.4272 -0.8712
 5560SOL    HW322007   0.596   4.757   0.197  0.4095  0.6447  0.2322
 5560SOL    MW422008   0.638   4.681   0.193  0.0929  0.2650  0.1444
 5561SOL     OW22009   0.474   0.312   3.619  0.3535 -0.2203 -0.2277
 5561SOL    HW222010   0.525   0.316   3.701 -0.6445  0.3934  0.3797
 5561SOL    HW322011   0.422   0.232   3.628  2.1903 -1.6357 -1.4761
 5561SOL    MW422012   0.474   0.302   3.631  0.4987  0.0719 -0.1832
 5562SOL     OW22013   0.451   2.107   0.592 -0.1239 -0.5034  0.9198
 5562SOL    HW222014   0.363   2.134   0.567 -0.0737 -2.0587 -1.1647
 5562SOL    HW322015   0.503   2.187   0.586 -0.8226 -0.1348 -0.8080
 5562SOL    MW422016   0.446   2.121   0.588  0.7796 -0.0501 -1.1184
 5563SOL     OW22017   2.035   5.246   2.383 -0.3006 -0.3728 -0.0155
 5563SOL    HW222018   2.109   5.214   2.331 -0.6047 -1.0456 -0.0509
 5563SOL    HW322019   1.991   5.309   2.326 -1.1977 -1.8215 -0.9910
 5563SOL    MW422020   2.039   5.250   2.369  0.4165  0.0421  0.1284
 5564SOL     OW22021   1.708   2.527   2.283  0.0784 -0.1019  0.1128
 5564SOL    HW222022   1.712   2.486   2.197 -0.4739 -1.3331  0.6579
 5564SOL    HW322023   1.678   2.458   2.342  1.5092  0.3992  1.5067
 5564SOL    MW422024   1.704   2.512   2.280  0.1571 -0.3670  0.0264
 5565SOL     OW22025   2.793   3.775   1.280  0.2242  0.3369 -0.1850
 5565SOL    HW222026   2.801   3.811   1.192 -0.4328  1.7504  0.2986
 5565SOL    HW322027   2.843   3.836   1.335  0.2213 -0.2525  0.4837
 5565SOL    MW422028   2.801   3.788   1.276 -0.0161  0.1730  0.6333
 5566SOL     OW22029   6.235   1.977   2.006  0.6816 -0.1932  0.8014
 5566SOL    HW222030   6.291   2.037   1.956 -0.2683 -0.1383 -0.2541
 5566SOL    HW322031   6.168   2.033   2.044  0.5215 -0.4348  0.8774
 5566SOL    MW422032   6.234   1.992   2.004 -0.1173  0.0346  0.1215
 5567SOL     OW22033   3.334   6.402   5.647 -0.1101  0.1646 -0.2501
 5567SOL    HW222034   3.389   6.335   5.688 -0.9899 -0.4421 -0.0427
 5567SOL    HW322035   3.387   6.434   5.574  0.1064 -1.1604 -0.7025
 5567SOL    MW422036   3.348   6.397   5.643 -0.3337 -0.1166  0.4953
 5568SOL     OW22037   2.444   2.347   1.956  0.3708 -0.5472  0.1218
 5568SOL    HW222038   2.499   2.420   1.927 -1.6136  1.5915  1.3262
 5568SOL    HW322039   2.474   2.329   2.045 -0.2881  0.0752  0.4839
 5568SOL    MW422040   2.455   2.354   1.964 -0.6999  0.3218  0.2593
 5569SOL     OW22041   2.282   5.101   4.423 -0.6463  0.5930 -0.0760
 5569SOL    HW222042   2.303   5.187   4.388 -0.0123  0.6400  0.3946
 5569SOL    HW322043   2.230   5.118   4.501  0.5309  0.6200  0.7376
 5569SOL    MW422044   2.278   5.114   4.428 -0.4087  0.2383  0.3297
 5570SOL     OW22045   1.669   4.055   3.997  0.0203  0.2701  0.1013
 5570SOL    HW222046   1.752   4.046   4.045 -1.2132  2.7549  3.1056
 5570SOL    HW322047   1.613   3.986   4.033  0.2646 -0.3065 -0.6290
 5570SOL    MW422048   1.673   4.045   4.008 -0.3084  0.3569 -0.1995
 5571SOL     OW22049   2.680   5.416   2.675 -0.2080  0.4265 -1.1023
 5571SOL    HW222050   2.597   5.391   2.716 -0.8417 -0.3932 -2.7710
 5571SOL    HW322051   2.706   5.496   2.719 -1.1433 -0.0851  0.4416
 5571SOL    MW422052   2.673   5.423   2.686  0.0539  0.7369  0.5142
 5572SOL     OW22053   5.054   0.810   4.408 -0.4215 -0.2220 -0.6236
 5572SOL    HW222054   5.111   0.775   4.476 -0.1103  0.0318 -0.7551
 5572SOL    HW322055   4.984   0.855   4.456 -0.3277 -0.2390 -0.4700
 5572SOL    MW422056   5.052   0.811   4.423 -0.6312 -0.0234 -0.6234
 5573SOL     OW22057   2.477   4.184   1.420 -0.3955 -0.1851 -0.2638
 5573SOL    HW222058   2.556   4.216   1.377 -0.9687 -0.3754 -1.4912
 5573SOL    HW322059   2.505   4.103   1.464  0.3016  0.2633  0.1407
 5573SOL    MW422060   2.491   4.177   1.420 -0.2735  0.0134  0.8931
 5574SOL     OW22061   4.924   4.527   5.059  0.4201  0.3869  0.3321
 5574SOL    HW222062   4.878   4.552   5.139 -0.6118 -0.5879  0.0594
 5574SOL    HW322063   5.016   4.522   5.086  0.1116  0.2391  1.4252
 5574SOL    MW422064   4.930   4.529   5.073 -0.1331 -0.1407  0.5217
 5575SOL     OW22065   0.580   1.258   3.300 -0.1890 -0.1099 -0.5802
 5575SOL    HW222066   0.558   1.344   3.265 -0.8963 -0.2171 -0.4074
 5575SOL    HW322067   0.625   1.276   3.382 -1.2014  0.0737 -0.0619
 5575SOL    MW422068   0.583   1.272   3.306 -0.2764  0.6173 -0.3080
 5576SOL     OW22069   0.358   3.369   5.969  0.0156  0.2654  0.1610
 5576SOL    HW222070   0.375   3.458   5.999  2.2073 -0.0477  0.0174
 5576SOL    HW322071   0.263   3.364   5.960 -0.0937  2.9949 -1.0926
 5576SOL    MW422072   0.348   3.380   5.972  0.5343  0.4071 -0.5259
 5577SOL     OW22073   2.059   0.532   1.073 -0.2423 -0.0164  0.0198
 5577SOL    HW222074   1.976   0.576   1.050 -0.0985 -1.2104 -3.3759
 5577SOL    HW322075   2.032   0.448   1.109 -0.5487 -0.1179 -0.4277
 5577SOL    MW422076   2.044   0.527   1.074 -0.1767 -0.4486  0.7952
 5578SOL     OW22077   3.009   3.618   3.405 -0.1703  0.2937 -0.3309
 5578SOL    HW222078   2.977   3.701   3.440 -1.3630  0.2351 -1.2322
 5578SOL    HW322079   2.947   3.594   3.336  0.2095 -1.2907 -0.1809
 5578SOL    MW422080   2.997   3.626   3.400 -1.1780  0.1799 -0.1031
 5579SOL     OW22081   4.045   1.282   0.063 -0.0099  0.0081  0.1235
 5579SOL    HW222082   4.088   1.305  -0.019  1.8440 -2.1501  0.3648
 5579SOL    HW322083   4.080   1.344   0.127 -1.0622  1.3645 -0.5848
 5579SOL    MW422084   4.055   1.293   0.061 -0.2696  0.0479 -0.2544
 5580SOL     OW22085   4.494   4.694   5.829 -0.2402  0.5153  0.2351
 5580SOL    HW222086   4.577   4.699   5.877 -0.1728  0.6792  0.1025
 5580SOL    HW322087   4.457   4.781   5.836  0.4188  0.9390 -1.1625
 5580SOL    MW422088   4.500   4.706   5.836  0.1300  0.0463 -0.1147
 5581SOL     OW22089   4.151   2.504   5.209  1.0117 -0.7192  0.0938
 5581SOL    HW222090   4.080   2.469   5.263  0.8929 -1.0033 -0.2500
 5581SOL    HW322091   4.168   2.591   5.247  0.2620 -0.5144 -0.0254
 5581SOL    MW422092   4.144   2.511   5.221 -0.4742 -0.0226  0.4290
 5582SOL     OW22093   6.234   0.259   3.569  0.1948  0.0440  0.0702
 5582SOL    HW222094   6.253   0.326   3.635  0.9796  1.7408 -1.7765
 5582SOL    HW322095   6.211   0.309   3.491 -2.0395 -1.9084 -0.6082
 5582SOL    MW422096   6.234   0.275   3.567 -0.3979  0.5117  0.5929
 5583SOL     OW22097   0.981   5.428   5.934  0.3704  0.2340  0.4310
 5583SOL    HW222098   0.935   5.372   5.996 -0.8056  0.1686 -0.4629
 5583SOL    HW322099   1.072   5.400   5.939 -0.1264 -1.5559  0.2550
 5583SOL    MW422100   0.987   5.417   5.943  0.3440 -0.0082 -0.1699
 5584SOL     OW22101   6.129   5.320   3.285 -0.2330 -0.2760  0.0747
 5584SOL    HW222102   6.120   5.412   3.258 -2.5866 -0.4311  0.1106
 5584SOL    HW322103   6.059   5.307   3.349  0.3458 -1.9931  0.4105
 5584SOL    MW422104   6.119   5.331   3.290 -0.0684  0.4983  0.6000
 5585SOL     OW22105   5.117   5.177   0.095  0.2104 -0.0735 -0.2642
 5585SOL    HW222106   5.190   5.225   0.134 -0.1613  0.5139 -0.2947
 5585SOL    HW322107   5.056   5.162   0.167  0.3983 -0.6600 -0.2152
 5585SOL    MW422108   5.119   5.181   0.110  0.3246  0.1631 -0.3059
 5586SOL     OW22109   1.891   1.679   1.314  0.2774 -0.0291 -0.0540
 5586SOL    HW222110   1.964   1.642   1.363 -0.1625 -1.1159 -0.1977
 5586SOL    HW322111   1.837   1.723   1.380  1.0108  0.7232  0.0619
 5586SOL    MW422112   1.893   1.680   1.329  0.0072  0.8795 -0.2607
 5587SOL     OW22113   2.533   2.811   1.729 -0.2385  0.3156  0.2683
 5587SOL    HW222114   2.611   2.818   1.674  0.5276  0.3026  1.3367
 5587SOL    HW322115   2.551   2.736   1.786 -1.0050  0.3521  0.5645
 5587SOL    MW422116   2.546   2.802   1.729 -0.8840  0.4168 -0.1760
 5588SOL     OW22117   1.664   5.768   4.479  0.0990 -0.3806  0.4573
 5588SOL    HW222118   1.690   5.811   4.397  0.0799 -1.7754 -0.3203
 5588SOL    HW322119   1.733   5.704   4.495 -0.9708 -1.6326  0.3160
 5588SOL    MW422120   1.676   5.765   4.470 -0.5949  0.2732  0.4781
 5589SOL     OW22121   3.436   4.879   3.624 -0.2112 -0.2967  0.2204
 5589SOL    HW222122   3.393   4.799   3.656  1.2445  0.1343  3.7411
 5589SOL    HW322123   3.510   4.848   3.573 -2.5172 -1.0441 -2.9812
 5589SOL    MW422124   3.440   4.864   3.622  0.2084 -0.0316  0.4548
 5590SOL     OW22125   5.275   4.583   2.597 -0.7550  0.5194 -0.4160
 5590SOL    HW222126   5.223   4.503   2.608 -0.9503  0.4020 -1.9143
 5590SOL    HW322127   5.356   4.552   2.555 -0.6878  1.0540 -0.6869
 5590SOL    MW422128   5.279   4.568   2.593  0.4749  0.2010  0.4002
 5591SOL     OW22129   2.514   5.848   1.040 -0.5931 -0.0931  0.8105
 5591SOL    HW222130   2.574   5.914   1.076  0.8640 -0.8799 -0.0699
 5591SOL    HW322131   2.462   5.896   0.976 -0.0930  0.3744  0.7387
 5591SOL    MW422132   2.515   5.863   1.036 -0.1198  0.5897  0.8418
 5592SOL     OW22133   5.633   2.660   4.319 -0.2206  0.4768 -0.0313
 5592SOL    HW222134   5.642   2.573   4.280 -0.5355  0.3431  0.1914
 5592SOL    HW322135   5.628   2.643   4.413 -0.1421  0.7481  0.0226
 5592SOL    MW422136   5.634   2.646   4.326  0.3583 -0.7771 -0.1151
 5593SOL     OW22137   1.566   6.180   4.982  0.5721  0.3939 -0.4546
 5593SOL    HW222138   1.499   6.186   4.914  0.0764 -0.6664 -0.0741
 5593SOL    HW322139   1.640   6.137   4.940 -0.8424 -3.2390  0.3994
 5593SOL    MW422140   1.567   6.175   4.968 -0.5523  0.5861 -0.0916
 5594SOL     OW22141   1.244   3.948   4.810 -0.6125  0.5246  0.4683
 5594SOL    HW222142   1.317   3.958   4.872 -0.4639  0.7492  0.2541
 5594SOL    HW322143   1.279   3.889   4.743 -1.2373 -0.9077  1.3364
 5594SOL    MW422144   1.259   3.941   4.810 -0.1012  0.2738  0.3867
 5595SOL     OW22145   3.892   6.243   0.533  0.1389  0.2976  0.7648
 5595SOL    HW222146   3.857   6.220   0.447 -0.9240 -0.1506  1.3053
 5595SOL    HW322147   3.939   6.326   0.518  0.6677 -0.1848 -0.3958
 5595SOL    MW422148   3.894   6.251   0.520  0.1514  0.1307 -0.1810
 5596SOL     OW22149   1.604   4.205   2.679 -0.6617  0.3782  0.5020
 5596SOL    HW222150   1.620   4.198   2.584 -0.3742 -1.0741  0.6310
 5596SOL    HW322151   1.551   4.284   2.689  0.3934  1.2879 -0.7354
 5596SOL    MW422152   1.599   4.214   2.668  0.2936 -0.3445  0.5219
 5597SOL     OW22153   0.811   0.448   2.580 -0.1014  0.1505 -0.0297
 5597SOL    HW222154   0.833   0.358   2.605 -0.4287  0.1984  0.4292
 5597SOL    HW322155   0.735   0.438   2.522 -1.7740  0.2842  2.0502
 5597SOL    MW422156   0.804   0.435   2.575  0.4007  0.7278  0.5922
 5598SOL     OW22157   0.919   4.628   1.642 -1.0238 -0.6914 -0.4496
 5598SOL    HW222158   0.828   4.654   1.628 -0.2593  0.7522 -3.8070
 5598SOL    HW322159   0.962   4.706   1.678 -0.7713 -0.7464 -0.6240
 5598SOL    MW422160   0.913   4.642   1.645  0.0749 -0.0639 -0.3964
 5599SOL     OW22161   1.215   4.502   4.734 -0.2029  0.2693  1.0086
 5599SOL    HW222162   1.229   4.407   4.730 -0.0182  0.2918  1.0858
 5599SOL    HW322163   1.284   4.533   4.793  1.2749  0.7383 -0.8622
 5599SOL    MW422164   1.226   4.493   4.741 -1.1244  0.3629 -0.0677
 5600SOL     OW22165   3.031   4.651   6.151  0.6122  0.1553 -0.1199
 5600SOL    HW222166   3.034   4.719   6.219  2.2246  0.1714 -0.1640
 5600SOL    HW322167   2.945   4.661   6.111  0.5862  1.8033  0.2670
 5600SOL    MW422168   3.020   4.662   6.155 -0.1760  0.2983 -0.1781
 5601SOL     OW22169   2.734   4.073   3.924  0.0084 -0.3175  0.2303
 5601SOL    HW222170   2.764   4.063   4.014 -1.7093  1.6797  1.0779
 5601SOL    HW322171   2.803   4.031   3.872  0.7946 -1.9750  2.4540
 5601SOL    MW422172   2.747   4.066   3.929  0.4057 -0.3793 -0.0870
 5602SOL     OW22173   4.609   5.133   0.542  0.6043  0.2811 -0.0886
 5602SOL    HW222174   4.601   5.039   0.526  1.0778 -0.1445  1.8610
 5602SOL    HW322175   4.673   5.139   0.613  0.6220  2.0858 -0.2206
 5602SOL    MW422176   4.616   5.121   0.549  0.1642  0.2233  0.1440
 5603SOL     OW22177   3.415   4.300   2.258  0.0639  0.0453  0.8520
 5603SOL    HW222178   3.336   4.345   2.227  1.5432  0.4275 -2.8463
 5603SOL    HW322179   3.416   4.218   2.209  0.4338 -1.4163  3.1818
 5603SOL    MW422180   3.405   4.295   2.247  0.4825 -0.1931  0.1434
 5604SOL     OW22181   4.681   3.787   1.103  0.5933 -0.0299  0.3713
 5604SOL    HW222182   4.661   3.880   1.114  1.8866  0.0849  2.1025
 5604SOL    HW322183   4.727   3.763   1.183 -0.0692 -2.2771  0.1316
 5604SOL    MW422184   4.685   3.796   1.115  0.2024 -0.2806  0.1916
 5605SOL     OW22185   5.190   5.355   5.735 -0.2139 -0.4611 -0.4707
 5605SOL    HW222186   5.227   5.287   5.678 -0.5292 -0.3662 -0.7904
 5605SOL    HW322187   5.097   5.355   5.715 -0.3075 -0.3362 -0.0421
 5605SOL    MW422188   5.183   5.346   5.725  0.3659  0.0991 -0.2121
 5606SOL     OW22189   5.345   4.222   4.014 -0.1072  0.0372 -0.7400
 5606SOL    HW222190   5.427   4.172   4.023  0.7580  1.1943 -1.8561
 5606SOL    HW322191   5.277   4.155   4.005  0.6544 -0.9545  0.4954
 5606SOL    MW422192   5.347   4.206   4.014  0.5871 -0.2221  0.4951
 5607SOL     OW22193   6.297   4.226   3.530 -0.3682  0.2804 -0.3561
 5607SOL    HW222194   6.274   4.207   3.439 -0.2957  1.2884 -0.5929
 5607SOL    HW322195   6.384   4.187   3.541 -0.4778 -0.0532 -0.6413
 5607SOL    MW422196   6.306   4.218   3.519 -0.2753  0.2047 -0.0164
 5608SOL     OW22197   3.414   5.321   2.873  0.3120  0.2473  0.1405
 5608SOL    HW222198   3.396   5.406   2.914 -0.0450  0.2053  0.0735
 5608SOL    HW322199   3.395   5.257   2.941 -0.9409  0.1412 -0.2880
 5608SOL    MW422200   3.410   5.324   2.887 -0.0895 -0.6003 -0.1000
 5609SOL     OW22201   0.946   4.459   1.844 -0.0292  0.5309  1.1068
 5609SOL    HW222202   0.866   4.414   1.871 -0.1219 -0.2259 -0.3404
 5609SOL    HW322203   0.918   4.518   1.774  0.8460 -0.6813 -0.3144
 5609SOL    MW422204   0.932   4.461   1.838 -0.3777  0.0599 -0.2771
 5610SOL     OW22205   6.141   1.719   0.205 -0.6380  0.2731 -0.2758
 5610SOL    HW222206   6.213   1.668   0.167  0.1137  1.9374 -1.1997
 5610SOL    HW322207   6.149   1.705   0.299  2.3318  2.1203 -0.1214
 5610SOL    MW422208   6.152   1.710   0.212  0.2348 -0.3394  0.4921
 5611SOL     OW22209   3.315   4.122   5.903 -0.0823  0.2798 -0.0800
 5611SOL    HW222210   3.379   4.075   5.850  0.4736  0.7546  0.1632
 5611SOL    HW322211   3.339   4.214   5.894 -2.4485  0.8264 -2.3451
 5611SOL    MW422212   3.326   4.128   5.895  0.1586 -0.1254  0.1938
 5612SOL     OW22213   5.090   2.460   3.881  0.2286  0.4495 -0.4951
 5612SOL    HW222214   5.047   2.436   3.964 -0.7672 -1.7870 -1.5825
 5612SOL    HW322215   5.055   2.547   3.861 -1.4587 -0.0118  0.2328
 5612SOL    MW422216   5.079   2.468   3.889 -0.1139 -0.5048  0.0815
 5613SOL     OW22217   0.351   4.016   0.742 -0.1443 -0.7650  0.2952
 5613SOL    HW222218   0.390   4.033   0.656 -0.3740 -1.6561 -0.0077
 5613SOL    HW322219   0.425   4.007   0.801  0.0525 -0.9435  0.0265
 5613SOL    MW422220   0.366   4.017   0.738 -0.1011  0.3541  0.7974
 5614SOL     OW22221   4.769   4.405   1.856 -0.2752  0.2485  0.4440
 5614SOL    HW222222   4.691   4.444   1.896 -0.5659 -0.6500  0.7628
 5614SOL    HW322223   4.789   4.329   1.911  0.7466  0.3897  0.2847
 5614SOL    MW422224   4.761   4.400   1.869 -0.5842 -0.5888  0.0560
 5615SOL     OW22225   1.903   4.441   3.046  0.0598  0.0498  0.2525
 5615SOL    HW222226   1.985   4.484   3.024  0.1117  0.8490  1.8454
 5615SOL    HW322227   1.930   4.359   3.089  0.0173 -0.0351  0.1161
 5615SOL    MW422228   1.917   4.436   3.049  0.3409  0.6671  0.1629
 5616SOL     OW22229   5.173   5.469   4.048  0.0660  0.1880  0.0545
 5616SOL    HW222230   5.092   5.421   4.062  0.0900  0.1493  0.0602
 5616SOL    HW322231   5.152   5.532   3.979  0.7160 -1.5601 -1.8564
 5616SOL    MW422232   5.160   5.471   4.041 -0.3825  0.7674 -0.0625
 5617SOL     OW22233   1.026   5.938   6.199 -0.2538  0.1977 -0.2814
 5617SOL    HW222234   1.092   5.988   6.151  0.2052 -0.9512 -0.8871
 5617SOL    HW322235   0.979   5.890   6.132 -0.7224 -0.1365  0.2808
 5617SOL    MW422236   1.029   5.939   6.184 -0.1545 -0.2920 -0.4683
 5618SOL     OW22237   0.414   5.301   4.133  0.3971 -0.0657 -0.0776
 5618SOL    HW222238   0.376   5.273   4.050  0.2031 -1.7165  0.5282
 5618SOL    HW322239   0.341   5.344   4.179 -0.0699 -0.9276  0.0231
 5618SOL    MW422240   0.399   5.303   4.128 -0.1104  0.1381 -0.4461
 5619SOL     OW22241   1.776   0.755   0.065  0.2231 -0.6995  0.0181
 5619SOL    HW222242   1.805   0.802   0.144  1.7099 -0.7086 -0.4924
 5619SOL    HW322243   1.687   0.728   0.085  1.1847 -2.3915  2.5091
 5619SOL    MW422244   1.768   0.758   0.078 -0.3483 -0.3691  0.4564
 5620SOL     OW22245   2.932   0.246   0.738 -0.0575  0.2731 -0.0822
 5620SOL    HW222246   2.891   0.306   0.676 -0.1274  0.1558 -0.1520
 5620SOL    HW322247   2.947   0.298   0.817  2.0499  1.0324 -0.9330
 5620SOL    MW422248   2.928   0.260   0.740 -0.0118 -0.1006  0.8200
 5621SOL     OW22249   3.976   5.289   1.148  0.1850  0.2576 -0.1107
 5621SOL    HW222250   4.071   5.281   1.164 -0.0966 -1.5602  0.8868
 5621SOL    HW322251   3.951   5.368   1.196  0.6979 -0.9978  2.3887
 5621SOL    MW422252   3.986   5.299   1.157 -0.3360  0.1069  0.0624
 5622SOL     OW22253   0.502   2.145   3.041 -0.1163 -0.2433  0.2656
 5622SOL    HW222254   0.457   2.065   3.016  2.2411 -1.2904 -1.0157
 5622SOL    HW322255   0.594   2.120   3.045  0.5656  2.1360  1.0466
 5622SOL    MW422256   0.508   2.131   3.038 -0.1476  0.2588 -0.6113
 5623SOL     OW22257   3.527   6.174   0.273  0.2159  0.8054 -0.1039
 5623SOL    HW222258   3.622   6.171   0.289  0.3712 -0.2206 -1.0563
 5623SOL    HW322259   3.506   6.086   0.242 -1.4034  0.4504  1.8419
 5623SOL    MW422260   3.537   6.162   0.271  0.0112 -0.9030 -0.1810
 5624SOL     OW22261   6.071   0.789   1.113  0.7956 -0.8652  0.1836
 5624SOL    HW222262   6.091   0.734   1.189 -0.0741  0.0972  1.1398
 5624SOL    HW322263   6.147   0.847   1.105  0.5961 -0.5276  0.7302
 5624SOL    MW422264   6.084   0.789   1.122  0.3548 -0.1176  0.4196
 5625SOL     OW22265   4.050   0.762   5.831  0.0580 -0.2111 -0.1343
 5625SOL    HW222266   4.145   0.756   5.827  0.1133  0.6837 -0.4768
 5625SOL    HW322267   4.034   0.835   5.891 -0.4409 -0.9790  0.6987
 5625SOL    MW422268   4.061   0.771   5.839 -0.0001 -0.0312  0.0683
 5626SOL     OW22269   4.683   4.409   3.197  0.3923  0.5439 -0.4408
 5626SOL    HW222270   4.609   4.364   3.238  0.7039  0.0270 -0.4407
 5626SOL    HW322271   4.745   4.421   3.269  0.9688 -0.4231 -0.7606
 5626SOL    MW422272   4.681   4.405   3.212  0.1757 -0.4666  0.1238
 5627SOL     OW22273   0.350   0.802   1.180  0.6405  0.4595  0.1888
 5627SOL    HW222274   0.374   0.807   1.272  0.7859 -0.3640  0.2074
 5627SOL    HW322275   0.268   0.752   1.179  0.6246  0.4895 -0.1262
 5627SOL    MW422276   0.342   0.796   1.192  0.6161 -0.7846 -0.1517
 5628SOL     OW22277   1.994   4.375   6.202  0.3788 -1.3038  0.7428
 5628SOL    HW222278   1.919   4.328   6.168  0.5510 -0.1095 -1.4389
 5628SOL    HW322279   1.959   4.461   6.227  0.8158 -1.1412  0.8056
 5628SOL    MW422280   1.980   4.380   6.201 -0.2439 -0.1456 -0.2993
 5629SOL     OW22281   6.390   1.167   1.190 -0.4507 -0.6773 -0.4813
 5629SOL    HW222282   6.477   1.189   1.157 -0.0147  1.3849  1.7610
 5629SOL    HW322283   6.348   1.251   1.206 -1.6139 -1.5573  1.5098
 5629SOL    MW422284   6.396   1.181   1.188 -0.4575  0.2680  0.4587
 5630SOL     OW22285   5.880   4.519   4.959 -0.2245  0.2586  0.0968
 5630SOL    HW222286   5.947   4.488   5.020 -0.6647 -0.2200  0.3386
 5630SOL    HW322287   5.930   4.552   4.884  0.4399  2.4441  1.3951
 5630SOL    MW422288   5.896   4.520   4.957 -0.1118 -0.0224 -0.4730
 5631SOL     OW22289   5.047   0.471   0.990 -0.0755  0.2013 -0.4044
 5631SOL    HW222290   5.119   0.530   1.015  0.6322 -0.2292 -1.3491
 5631SOL    HW322291   5.091   0.396   0.950 -1.1337  1.1752 -3.6641
 5631SOL    MW422292   5.063   0.469   0.988  0.3987  0.1403  0.1331
 5632SOL     OW22293   0.811   6.307   4.738 -0.4129 -0.0678 -0.4361
 5632SOL    HW222294   0.780   6.223   4.772  0.0222 -0.3968 -0.8498
 5632SOL    HW322295   0.883   6.285   4.679 -2.1923  0.3192 -2.9348
 5632SOL    MW422296   0.816   6.293   4.735 -0.5802 -0.0821 -0.3691
 5633SOL     OW22297   2.504   4.287   1.776 -0.0397  0.2320  0.2650
 5633SOL    HW222298   2.594   4.318   1.766  0.1402  0.5071  2.3475
 5633SOL    HW322299   2.460   4.317   1.696  1.3659  1.3557 -0.1336
 5633SOL    MW422300   2.510   4.295   1.764  0.5441  0.1181 -0.0620
 5634SOL     OW22301   6.273   4.693   4.433 -0.1659  0.3525  0.3769
 5634SOL    HW222302   6.215   4.744   4.489  0.5874  2.0529 -0.3332
 5634SOL    HW322303   6.355   4.686   4.482 -0.1369  0.1670  0.3046
 5634SOL    MW422304   6.276   4.699   4.447  0.3106  0.6023 -0.1071
 5635SOL     OW22305   2.355   2.206   3.667 -0.1026 -0.1702  0.2381
 5635SOL    HW222306   2.266   2.171   3.659 -1.0091  2.0668 -0.1252
 5635SOL    HW322307   2.410   2.140   3.625 -1.9760 -0.1509 -2.5065
 5635SOL    MW422308   2.351   2.193   3.660  0.5324 -0.2556  0.3640
 5636SOL     OW22309   5.723   5.713   4.443 -0.1904  0.0274 -0.6963
 5636SOL    HW222310   5.759   5.777   4.504 -1.1843  0.1568 -0.2194
 5636SOL    HW322311   5.765   5.733   4.360  0.4135  0.5183 -0.2837
 5636SOL    MW422312   5.733   5.724   4.440 -0.0742  0.0101 -0.7407
 5637SOL     OW22313   1.527   4.813   1.933 -0.6565 -0.0302  0.0677
 5637SOL    HW222314   1.504   4.855   2.016  0.4360  0.5088  0.1124
 5637SOL    HW322315   1.573   4.881   1.884 -1.7408 -0.1767 -1.2007
 5637SOL    MW422316   1.530   4.828   1.937 -0.2954 -0.1321  0.2880
 5638SOL     OW22317   5.996   4.560   1.180  0.2188  0.2923  0.7700
 5638SOL    HW222318   5.998   4.474   1.138  0.4322  0.1434  1.0763
 5638SOL    HW322319   6.082   4.568   1.221  0.6471  1.1689 -0.2718
 5638SOL    MW422320   6.008   4.549   1.180  0.4591 -0.2617 -0.0336
 5639SOL     OW22321   1.862   3.256   3.633 -0.7095  0.6614 -0.6471
 5639SOL    HW222322   1.956   3.268   3.641 -0.9529  1.8344  1.2159
 5639SOL    HW322323   1.851   3.194   3.561  1.4825  0.1351 -0.5884
 5639SOL    MW422324   1.873   3.250   3.624 -0.1591  0.1516  0.6639
 5640SOL     OW22325   0.757   4.357   4.868  0.1009 -0.3955  0.0448
 5640SOL    HW222326   0.846   4.383   4.893  0.4923 -0.2855 -1.4040
 5640SOL    HW322327   0.706   4.365   4.949  1.0529  1.1223  0.5406
 5640SOL    MW422328   0.762   4.362   4.882  0.0129  0.0504 -0.0150
 5641SOL     OW22329   4.682   0.980   2.669 -0.0239  0.4917  0.8203
 5641SOL    HW222330   4.760   1.034   2.675 -0.1215  0.5016  2.2806
 5641SOL    HW322331   4.667   0.949   2.758 -0.8142 -0.7514  0.2848
 5641SOL    MW422332   4.690   0.983   2.682  0.6345 -0.0334  0.2907
 5642SOL     OW22333   2.320   5.368   3.052  0.2195 -0.0656 -0.3383
 5642SOL    HW222334   2.271   5.286   3.050  0.7345 -0.3682 -0.7808
 5642SOL    HW322335   2.382   5.360   2.980 -1.0484  1.5483 -1.7068
 5642SOL    MW422336   2.321   5.356   3.042  0.3716 -0.1992  0.5401
 5643SOL     OW22337   5.575   1.008   3.516  0.5520  0.1797 -0.0889
 5643SOL    HW222338   5.593   1.010   3.610 -0.8526  2.7322  0.2313
 5643SOL    HW322339   5.611   1.091   3.484  2.2520 -1.2556 -2.1252
 5643SOL    MW422340   5.582   1.019   3.524  0.1375  0.0836  0.2721
 5644SOL     OW22341   5.904   6.229   2.147  0.2775 -0.2111 -0.3418
 5644SOL    HW222342   5.892   6.322   2.127 -1.2594 -0.1144  0.8462
 5644SOL    HW322343   5.974   6.228   2.212  0.4081  0.0984 -0.4736
 5644SOL    MW422344   5.911   6.241   2.153 -0.4645 -0.4144  0.6917
 5645SOL     OW22345   1.292   2.116   2.481  0.2167  0.0551 -0.1047
 5645SOL    HW222346   1.364   2.157   2.530 -1.3339  0.6256  1.8454
 5645SOL    HW322347   1.236   2.189   2.456 -0.2574 -0.4767 -0.6041
 5645SOL    MW422348   1.294   2.131   2.484 -0.2733  0.3030 -0.2626
 5646SOL     OW22349   0.889   5.198   3.561  0.1666  0.2295  0.2915
 5646SOL    HW222350   0.848   5.228   3.480  0.6855  1.3664  0.4239
 5646SOL    HW322351   0.835   5.126   3.590 -1.4230  1.3237  0.1688
 5646SOL    MW422352   0.877   5.193   3.554 -0.0750  0.2009 -0.3134
 5647SOL     OW22353   4.358   4.035   4.442 -0.2269 -0.0495  0.4918
 5647SOL    HW222354   4.450   4.052   4.462 -0.0856 -0.5526  0.2850
 5647SOL    HW322355   4.358   3.947   4.405 -0.9896 -0.6304  1.8374
 5647SOL    MW422356   4.370   4.026   4.440  0.0170 -0.9741 -0.4870
 5648SOL     OW22357   1.490   3.840   5.195 -0.2822  0.0915  0.1276
 5648SOL    HW222358   1.498   3.883   5.110 -1.0241  0.2878  0.1507
 5648SOL    HW322359   1.404   3.866   5.227 -0.4656 -0.8671  0.4494
 5648SOL    MW422360   1.480   3.849   5.188  0.2657  0.2552  0.1157
 5649SOL     OW22361   1.557   1.930   4.174 -0.4218 -0.4062 -0.3542
 5649SOL    HW222362   1.624   1.952   4.239  1.1240 -1.1225 -1.6082
 5649SOL    HW322363   1.474   1.936   4.221  0.6094 -0.6483  1.6086
 5649SOL    MW422364   1.555   1.934   4.189 -0.3783 -0.1748  0.4501
 5650SOL     OW22365   1.878   0.658   3.865 -0.1892  0.8113  0.4808
 5650SOL    HW222366   1.973   0.653   3.876 -0.3878 -0.1855  2.0281
 5650SOL    HW322367   1.865   0.681   3.773  1.4752 -2.6825 -0.7694
 5650SOL    MW422368   1.889   0.661   3.854 -0.8002  0.3460  0.3396
 5651SOL     OW22369   0.166   3.537   1.198  1.0749 -0.0517 -0.5393
 5651SOL    HW222370   0.226   3.536   1.272  1.2032 -0.4430 -0.6513
 5651SOL    HW322371   0.115   3.457   1.207  0.5571  0.2800 -0.4365
 5651SOL    MW422372   0.167   3.527   1.209 -0.3874 -0.3268 -0.1943
 5652SOL     OW22373   5.033   2.070   2.940 -0.0594 -0.1613  0.4110
 5652SOL    HW222374   5.059   2.149   2.987  0.8115  1.0570 -1.9159
 5652SOL    HW322375   5.094   2.002   2.970  0.3665  0.5189  1.0991
 5652SOL    MW422376   5.044   2.071   2.950 -0.0733 -0.5677  0.3190
 5653SOL     OW22377   4.924   3.315   1.391  0.4019 -0.5345 -0.2598
 5653SOL    HW222378   4.856   3.341   1.453  1.1127 -1.1220  0.7962
 5653SOL    HW322379   4.956   3.398   1.355 -0.4176 -0.2177 -0.2902
 5653SOL    MW422380   4.919   3.330   1.394 -0.1512 -0.1053 -0.2374
 5654SOL     OW22381   0.981   4.435   3.414 -0.2744  0.2458  0.6436
 5654SOL    HW222382   0.942   4.458   3.329  2.1493  1.3777 -0.2600
 5654SOL    HW322383   1.062   4.486   3.417  0.1820 -0.5067  3.2514
 5654SOL    MW422384   0.987   4.445   3.403 -0.1494  0.5600 -0.6844
 5655SOL     OW22385   3.430   0.322   0.582 -0.4332 -0.5216  0.0814
 5655SOL    HW222386   3.387   0.406   0.565 -0.0320 -0.2591  0.3466
 5655SOL    HW322387   3.372   0.278   0.644 -0.1611 -0.0205  0.7092
 5655SOL    MW422388   3.417   0.327   0.588 -0.6654  0.1091 -0.7873
 5656SOL     OW22389   0.849   5.401   5.122 -0.0134 -0.4837  0.5350
 5656SOL    HW222390   0.904   5.459   5.069  0.3541 -1.3717 -0.0750
 5656SOL    HW322391   0.908   5.332   5.152 -0.6420 -1.0770  0.4321
 5656SOL    MW422392   0.864   5.400   5.119 -0.1953 -0.5835  0.3274
 5657SOL     OW22393   0.419   4.880   3.182  0.2751 -0.1745  0.2924
 5657SOL    HW222394   0.444   4.793   3.213 -0.0315 -0.3679  0.0063
 5657SOL    HW322395   0.446   4.881   3.090  1.3011  0.4436  0.5791
 5657SOL    MW422396   0.426   4.869   3.174  0.1056  0.3176  0.3426
 5658SOL     OW22397   1.143   4.632   5.133 -0.2270 -0.1630 -0.1145
 5658SOL    HW222398   1.119   4.714   5.176 -1.1021 -0.2982 -0.3215
 5658SOL    HW322399   1.192   4.583   5.199 -2.3350 -0.7675  1.0828
 5658SOL    MW422400   1.146   4.636   5.147  1.1514 -0.2906  0.1112
 5659SOL     OW22401   3.177   3.239   5.552 -0.4789 -0.1406  0.3626
 5659SOL    HW222402   3.141   3.150   5.556 -0.1009 -0.2966  0.3862
 5659SOL    HW322403   3.162   3.268   5.462  0.6083 -0.7563 -0.0469
 5659SOL    MW422404   3.171   3.231   5.541 -0.0778  0.5726  0.2510
 5660SOL     OW22405   1.381   3.804   2.627 -1.0196 -0.1428  0.3675
 5660SOL    HW222406   1.461   3.847   2.656  0.3256 -0.9472 -1.8955
 5660SOL    HW322407   1.336   3.870   2.574 -0.7387 -0.4006 -0.1908
 5660SOL    MW422408   1.386   3.818   2.624  0.3425  0.0087 -0.4801
 5661SOL     OW22409   4.731   3.048   4.588 -0.8285 -0.1723  0.3579
 5661SOL    HW222410   4.642   3.018   4.608 -0.7910 -0.6927 -0.1939
 5661SOL    HW322411   4.787   2.995   4.645 -0.9000  0.5305  1.0875
 5661SOL    MW422412   4.727   3.037   4.598 -0.1894  0.0032  0.6003
 5662SOL     OW22413   4.742   2.290   4.989 -0.0105 -0.0070 -0.0557
 5662SOL    HW222414   4.742   2.202   5.026  0.5350 -0.5436 -1.2492
 5662SOL    HW322415   4.674   2.287   4.922  0.6574  0.1638 -0.7598
 5662SOL    MW422416   4.733   2.278   4.985  0.1010 -0.6360  0.3851
 5663SOL     OW22417   0.874   0.449   4.810 -0.0768  0.1876  0.3559
 5663SOL    HW222418   0.841   0.399   4.735 -0.7174  1.8334 -0.5163
 5663SOL    HW322419   0.796   0.483   4.853  0.2884  2.6723 -0.7154
 5663SOL    MW422420   0.860   0.447   4.806 -0.3956  0.5043  0.6645
 5664SOL     OW22421   5.255   2.870   0.241  0.6676  0.5064  0.0263
 5664SOL    HW222422   5.181   2.908   0.194 -1.1331 -3.2859 -0.5193
 5664SOL    HW322423   5.305   2.824   0.173  1.3393 -0.1758  0.9609
 5664SOL    MW422424   5.252   2.869   0.226 -0.3866  0.6093  0.5590
 5665SOL     OW22425   5.099   3.740   5.980  0.2104  0.8347  0.2806
 5665SOL    HW222426   5.183   3.742   6.026  0.4795 -2.3688  0.1280
 5665SOL    HW322427   5.039   3.698   6.042 -0.5879  0.5989 -0.6310
 5665SOL    MW422428   5.102   3.735   5.994  0.8825 -0.2589 -0.2090
 5666SOL     OW22429   4.873   1.151   0.183  0.1056 -0.2372  0.2574
 5666SOL    HW222430   4.900   1.146   0.091  2.7170  0.0001  0.9201
 5666SOL    HW322431   4.894   1.241   0.209 -1.8004  0.1026  0.8129
 5666SOL    MW422432   4.879   1.162   0.174 -0.2307  0.4950 -0.5651
 5667SOL     OW22433   0.501   5.395   0.371 -0.3830  0.4823 -0.2592
 5667SOL    HW222434   0.560   5.388   0.446 -0.8964 -1.1399  0.0278
 5667SOL    HW322435   0.554   5.435   0.302  0.7385 -0.0226  0.2933
 5667SOL    MW422436   0.516   5.400   0.372 -0.5875 -0.2853  0.6666
 5668SOL     OW22437   2.332   3.901   4.171  0.0744  0.3471  0.1705
 5668SOL    HW222438   2.305   3.839   4.239  0.1563 -0.9400 -0.9100
 5668SOL    HW322439   2.407   3.859   4.130 -1.1368  0.1198 -1.9693
 5668SOL    MW422440   2.338   3.887   4.174  0.3170 -0.0824  0.2922
 5669SOL     OW22441   3.370   2.216   3.404  0.1896  0.0287  0.0303
 5669SOL    HW222442   3.287   2.168   3.416  0.3009 -0.2220 -0.1792
 5669SOL    HW322443   3.379   2.268   3.483 -0.5135  0.5751 -0.2335
 5669SOL    MW422444   3.360   2.216   3.416  0.2869 -0.4671 -0.4969
 5670SOL     OW22445   2.499   2.788   5.099  0.0999  0.1559 -0.5454
 5670SOL    HW222446   2.435   2.836   5.152 -0.0131  0.4073 -0.9019
 5670SOL    HW322447   2.481   2.816   5.009 -0.1580 -0.7791 -0.7943
 5670SOL    MW422448   2.488   2.798   5.094  0.3356 -0.5430  0.0556
 5671SOL     OW22449   0.012   3.995   3.829 -0.4343 -0.0942  0.3696
 5671SOL    HW222450  -0.073   4.036   3.841  0.5508  2.1222  0.1655
 5671SOL    HW322451   0.068   4.034   3.897  1.1989  0.9358 -1.4457
 5671SOL    MW422452   0.008   4.005   3.840 -0.2055 -0.4845 -0.3009
 5672SOL     OW22453   0.827   2.484   4.186 -0.0070 -0.6276 -0.4311
 5672SOL    HW222454   0.897   2.453   4.243 -1.0896 -2.7538 -0.1708
 5672SOL    HW322455   0.851   2.575   4.165  1.7928 -0.6768  1.1989
 5672SOL    MW422456   0.839   2.492   4.190  0.2138 -0.0817  0.3349
 5673SOL     OW22457   1.943   5.534   1.225  0.4130 -0.0793 -0.2860
 5673SOL    HW222458   2.031   5.571   1.239  0.5754 -0.8212  0.6595
 5673SOL    HW322459   1.959   5.447   1.188  0.2005 -1.4260  2.5366
 5673SOL    MW422460   1.957   5.528   1.222 -0.2050 -0.0925  0.5446
 5674SOL     OW22461   5.084   4.314   0.957  0.3811 -0.1328  0.3512
 5674SOL    HW222462   5.068   4.221   0.970 -0.4594  0.0945  1.0408
 5674SOL    HW322463   5.072   4.353   1.044  0.1170  0.7053 -0.0488
 5674SOL    MW422464   5.081   4.307   0.970  0.9809 -0.3708  0.6050
 5675SOL     OW22465   5.774   2.852   0.277  0.3578 -0.4037 -0.3898
 5675SOL    HW222466   5.689   2.895   0.274 -0.0318 -1.2131 -2.3254
 5675SOL    HW322467   5.783   2.824   0.369 -0.7334  1.0454  0.2006
 5675SOL    MW422468   5.764   2.854   0.289 -0.1292  0.0664 -0.7025
 5676SOL     OW22469   1.837   1.131   5.282 -0.1415  0.7459 -0.1243
 5676SOL    HW222470   1.912   1.166   5.330  0.6990 -0.6281 -0.3635
 5676SOL    HW322471   1.852   1.158   5.191  0.7689 -0.5466 -0.3986
 5676SOL    MW422472   1.849   1.139   5.276  0.0001  0.1056 -0.2122
 5677SOL     OW22473   3.945   4.409   5.384  0.0107 -0.1778  0.4266
 5677SOL    HW222474   3.860   4.449   5.401  0.2509  0.5899 -0.1103
 5677SOL    HW322475   3.941   4.381   5.292 -0.0068 -1.0404  0.6762
 5677SOL    MW422476   3.933   4.410   5.374  0.2649  0.4480  0.2651
 5678SOL     OW22477   4.592   0.404   4.775 -0.1428  0.6962 -0.2351
 5678SOL    HW222478   4.651   0.394   4.849 -1.1332 -4.0215  0.2073
 5678SOL    HW322479   4.515   0.449   4.811  1.2671  2.9066  0.2289
 5678SOL    MW422480   4.590   0.409   4.789 -0.0732  0.2822 -0.5825
 5679SOL     OW22481   1.251   4.962   0.854 -0.2539 -0.2405 -0.2363
 5679SOL    HW222482   1.197   4.894   0.894 -2.2738  1.4728  0.1587
 5679SOL    HW322483   1.189   5.015   0.803  0.9360  2.0844  0.5596
 5679SOL    MW422484   1.236   4.960   0.853  0.0687 -0.4647 -0.3174
 5680SOL     OW22485   6.056   2.618   2.733 -0.4618  0.2441 -0.2786
 5680SOL    HW222486   6.000   2.688   2.701 -0.0033  0.3051 -0.9607
 5680SOL    HW322487   6.042   2.618   2.828 -0.0044  1.6797 -0.1827
 5680SOL    MW422488   6.047   2.627   2.741 -0.2729 -0.1775  0.1940
 5681SOL     OW22489   3.216   0.885   4.546  0.2394  1.1171 -0.2545
 5681SOL    HW222490   3.238   0.977   4.561  1.0551  1.0323 -0.8811
 5681SOL    HW322491   3.259   0.837   4.616  1.7435  0.9972 -1.2204
 5681SOL    MW422492   3.224   0.891   4.557 -0.2556  0.2976 -0.2196
 5682SOL     OW22493   0.438   0.115   2.992  0.4193 -0.8672 -0.3924
 5682SOL    HW222494   0.527   0.095   2.962  0.2815 -0.1700 -1.3075
 5682SOL    HW322495   0.392   0.143   2.913 -1.4754 -3.9348 -0.5474
 5682SOL    MW422496   0.444   0.116   2.978  0.3088  0.1814  0.1772
 5683SOL     OW22497   5.971   4.512   2.904  0.0772  0.2524 -0.0625
 5683SOL    HW222498   6.025   4.455   2.849  0.0054 -1.7793  1.8318
 5683SOL    HW322499   5.894   4.530   2.851  1.7813  1.8652 -2.1875
 5683SOL    MW422500   5.968   4.506   2.890 -0.0955 -0.4572  0.5162
 5684SOL     OW22501   4.780   3.616   3.215 -0.0166 -0.6552 -0.3838
 5684SOL    HW222502   4.732   3.588   3.137 -1.3068  2.3757 -0.7996
 5684SOL    HW322503   4.725   3.588   3.288 -1.4894  0.9874 -0.7986
 5684SOL    MW422504   4.767   3.608   3.214  0.7273  0.5861 -0.1140
 5685SOL     OW22505   0.939   1.714   4.312  0.6524 -0.5248  0.0272
 5685SOL    HW222506   0.921   1.672   4.228 -2.6131  0.2756  0.2026
 5685SOL    HW322507   0.870   1.683   4.370  0.6270  1.7766  1.3504
 5685SOL    MW422508   0.928   1.704   4.308 -0.2289 -0.1564 -0.3489
 5686SOL     OW22509   5.828   6.008   6.333  0.0880  0.1730 -0.7062
 5686SOL    HW222510   5.773   5.938   6.368 -0.8525  0.9883 -0.4998
 5686SOL    HW322511   5.851   6.061   6.409  2.2987 -0.8689 -0.5711
 5686SOL    MW422512   5.824   6.005   6.347 -0.3989  0.2278 -0.3597
 5687SOL     OW22513   0.808   4.945   2.118  0.2270 -0.3560 -0.1165
 5687SOL    HW222514   0.885   4.901   2.155  0.6618 -0.7249 -1.3964
 5687SOL    HW322515   0.738   4.880   2.125  0.5611 -0.8106 -0.8501
 5687SOL    MW422516   0.809   4.930   2.124 -0.0343  0.8949  0.3826
 5688SOL     OW22517   2.949   1.881   2.501 -0.2064  0.4739  0.0137
 5688SOL    HW222518   2.945   1.974   2.480 -0.1156  0.2407 -1.1007
 5688SOL    HW322519   3.043   1.862   2.507 -0.2161  0.3510 -0.2369
 5688SOL    MW422520   2.961   1.891   2.499 -0.1120 -0.2271  0.3278
 5689SOL     OW22521   1.437   0.357   0.556  0.1013 -0.5056 -0.1778
 5689SOL    HW222522   1.349   0.397   0.555 -0.1508 -1.0551 -0.8646
 5689SOL    HW322523   1.487   0.412   0.616 -0.1864  0.9935 -1.2177
 5689SOL    MW422524   1.432   0.370   0.564  0.0814 -0.3281  0.3155
 5690SOL     OW22525   5.342   3.293   1.186  0.3917 -0.4380  0.2516
 5690SOL    HW222526   5.364   3.381   1.216 -0.2352 -0.1789 -0.0276
 5690SOL    HW322527   5.410   3.237   1.224  2.1645  0.4583 -1.4726
 5690SOL    MW422528   5.354   3.297   1.195 -0.4606 -0.9879  0.0985
 5691SOL     OW22529   0.934   2.281   3.504 -0.5297  0.4671 -0.6769
 5691SOL    HW222530   0.903   2.348   3.565  0.3109 -0.1296  0.4486
 5691SOL    HW322531   1.029   2.295   3.500 -0.3873 -0.4245 -0.6933
 5691SOL    MW422532   0.942   2.292   3.512  0.3946  0.5479 -0.2176
 5692SOL     OW22533   4.536   5.976   3.868  0.0189  0.2587  0.2056
 5692SOL    HW222534   4.589   6.055   3.860  0.2640  0.0591 -0.1778
 5692SOL    HW322535   4.505   5.959   3.779  2.6442 -1.9113 -0.4290
 5692SOL    MW422536   4.539   5.984   3.855 -0.2877 -0.5559 -0.4474
 5693SOL     OW22537   6.201   0.423   1.705  0.1825  0.2882 -0.2598
 5693SOL    HW222538   6.130   0.406   1.643 -0.5643 -0.4394  0.7646
 5693SOL    HW322539   6.240   0.338   1.721  0.3746  0.4732  0.2713
 5693SOL    MW422540   6.197   0.410   1.699 -0.4622 -0.1516 -0.1260
 5694SOL     OW22541   4.194   1.740   0.185  0.4153  0.0413 -0.1686
 5694SOL    HW222542   4.203   1.658   0.137  0.0710 -0.9794  1.4065
 5694SOL    HW322543   4.151   1.800   0.124 -2.1191 -1.8724 -0.4517
 5694SOL    MW422544   4.189   1.737   0.171  0.0288 -0.0483  0.1547
 5695SOL     OW22545   3.044   0.383   0.978  0.6755  0.2585 -0.1108
 5695SOL    HW222546   3.026   0.474   1.002  0.5433 -0.0189  0.8837
 5695SOL    HW322547   3.083   0.345   1.057  1.2045 -0.4135 -0.6875
 5695SOL    MW422548   3.047   0.390   0.992  0.2451  0.1505  0.4667
 5696SOL     OW22549   1.865   5.996   1.869 -0.3511 -0.0568  0.8791
 5696SOL    HW222550   1.836   6.053   1.941 -1.2417  0.1494  0.3770
 5696SOL    HW322551   1.954   6.025   1.849 -0.8503  1.2930  0.5077
 5696SOL    MW422552   1.873   6.007   1.876 -0.5728 -0.1377  0.5096
 5697SOL     OW22553   2.431   5.370   0.875  0.0798 -0.0758 -0.1705
 5697SOL    HW222554   2.401   5.422   0.800 -0.5774  0.4824  0.4641
 5697SOL    HW322555   2.399   5.281   0.857 -1.4416  0.3790  0.1855
 5697SOL    MW422556   2.423   5.365   0.863 -0.1883 -0.0566  0.6673
 5698SOL     OW22557   0.532   6.334   6.327  0.7399  0.2945  0.4700
 5698SOL    HW222558   0.580   6.386   6.263  0.8288 -0.2737  0.0693
 5698SOL    HW322559   0.563   6.366   6.412  2.1777 -0.3821  0.2213
 5698SOL    MW422560   0.542   6.345   6.330  0.0416  0.7080 -0.2972
 5699SOL     OW22561   2.805   0.647   5.132 -0.0020  1.1152  0.2647
 5699SOL    HW222562   2.771   0.565   5.096 -0.6392  0.8901  1.3507
 5699SOL    HW322563   2.740   0.675   5.195 -1.4029  4.1686 -2.2583
 5699SOL    MW422564   2.792   0.640   5.135  0.0835  0.0218 -0.2055
 5700SOL     OW22565   1.543   3.848   6.152 -0.1411  0.6663  0.1489
 5700SOL    HW222566   1.636   3.831   6.169  0.4030  0.8874 -2.2681
 5700SOL    HW322567   1.498   3.770   6.185  0.9979  0.1515  0.5284
 5700SOL    MW422568   1.549   3.835   6.158 -0.0622  0.3665 -0.4040
 5701SOL     OW22569   5.611   1.955   4.792  0.3304 -0.4663 -0.3963
 5701SOL    HW222570   5.696   1.922   4.763  0.5890  0.9370 -1.3721
 5701SOL    HW322571   5.547   1.902   4.744  0.7362  0.5972 -2.2173
 5701SOL    MW422572   5.614   1.944   4.782 -0.2115 -0.3591  0.2705
 5702SOL     OW22573   1.527   0.815   0.253 -0.0306 -0.6771 -0.0718
 5702SOL    HW222574   1.590   0.826   0.325 -0.6956  0.8961  0.3189
 5702SOL    HW322575   1.479   0.898   0.251 -0.4457 -0.9273 -1.9503
 5702SOL    MW422576   1.529   0.827   0.263  0.2254  0.5647 -0.3661
 5703SOL     OW22577   0.586   4.420   0.312 -0.1793 -0.3017 -0.0484
 5703SOL    HW222578   0.567   4.428   0.405  1.2836 -0.7479  0.3061
 5703SOL    HW322579   0.663   4.364   0.307 -0.7426 -1.0200 -1.5841
 5703SOL    MW422580   0.594   4.414   0.324  0.3311  0.4586  0.3998
 5704SOL     OW22581   1.792   4.998   0.291 -0.0732 -0.3332 -0.6603
 5704SOL    HW222582   1.732   4.963   0.225  0.1183 -1.0393 -0.4651
 5704SOL    HW322583   1.869   4.941   0.286 -0.3250 -0.8144  0.6416
 5704SOL    MW422584   1.794   4.986   0.281  0.4342 -0.2653 -0.3175
 5705SOL     OW22585   4.571   2.354   6.304 -0.5468  0.1882  0.3622
 5705SOL    HW222586   4.622   2.310   6.236 -0.9264  0.1418  0.0994
 5705SOL    HW322587   4.527   2.283   6.350  1.4440  0.0095  2.1519
 5705SOL    MW422588   4.572   2.338   6.301  0.2091  0.4691 -0.2756
 5706SOL     OW22589   5.393   3.526   0.739 -0.1820 -0.1436 -0.0436
 5706SOL    HW222590   5.326   3.554   0.802 -0.8036  0.0310 -0.7635
 5706SOL    HW322591   5.343   3.496   0.663  0.5804  0.7226 -0.9041
 5706SOL    MW422592   5.377   3.525   0.737 -0.0878 -0.0337 -0.3705
 5707SOL     OW22593   6.269   3.010   4.397 -0.4680 -0.0971 -0.1835
 5707SOL    HW222594   6.327   3.086   4.398  1.0822 -1.1999 -1.4816
 5707SOL    HW322595   6.204   3.031   4.331 -1.0484  0.7692  0.6377
 5707SOL    MW422596   6.268   3.023   4.389 -0.0893 -0.3719 -0.2741
 5708SOL     OW22597   4.417   4.965   5.327  0.3845  0.0850 -0.4901
 5708SOL    HW222598   4.382   4.921   5.404 -0.4824 -1.6239 -1.7645
 5708SOL    HW322599   4.505   4.992   5.352 -0.5760  1.4391  1.7206
 5708SOL    MW422600   4.424   4.963   5.340 -0.2537 -0.4689  0.1484
 5709SOL     OW22601   5.501   4.850   0.165 -0.1246  0.1402  0.1165
 5709SOL    HW222602   5.420   4.824   0.209  0.7367 -1.2388  0.9846
 5709SOL    HW322603   5.562   4.778   0.183  0.6404  0.0662 -2.3911
 5709SOL    MW422604   5.499   4.837   0.173  0.9859 -0.7149  0.3117
 5710SOL     OW22605   0.976   3.681   1.345 -0.0231 -1.0861  0.1185
 5710SOL    HW222606   1.046   3.742   1.322  2.1746 -2.7182  1.9678
 5710SOL    HW322607   0.952   3.640   1.261  0.5188  0.2006 -0.7032
 5710SOL    MW422608   0.982   3.683   1.331 -0.8981 -0.0001  0.4127
 5711SOL     OW22609   4.528   5.269   5.267 -0.3136 -0.9601  0.8139
 5711SOL    HW222610   4.484   5.327   5.329 -0.7709 -0.5325  0.1041
 5711SOL    HW322611   4.463   5.254   5.198  0.4739 -0.7279  0.0022
 5711SOL    MW422612   4.514   5.275   5.266  0.0601  0.0024  0.0959
 5712SOL     OW22613   4.117   0.594   3.407  0.1873  0.0670 -0.7615
 5712SOL    HW222614   4.194   0.643   3.379 -0.3471  0.0438 -2.3672
 5712SOL    HW322615   4.076   0.564   3.325 -1.0640 -0.6319  0.0828
 5712SOL    MW422616   4.122   0.596   3.392  0.3485 -0.2305 -0.3584
 5713SOL     OW22617   2.635   6.353   2.361 -1.0182  0.2211 -0.3446
 5713SOL    HW222618   2.604   6.430   2.409  1.3354 -1.0025  3.5319
 5713SOL    HW322619   2.719   6.380   2.324  0.6805 -0.7400  2.4840
 5713SOL    MW422620   2.642   6.367   2.362  0.1023  0.2363 -0.1868
 5714SOL     OW22621   6.006   4.569   1.677 -0.6727 -0.3221 -0.2575
 5714SOL    HW222622   5.943   4.632   1.713  1.2331  2.3209 -1.2504
 5714SOL    HW322623   5.979   4.559   1.586  0.9733  1.8361 -1.0500
 5714SOL    MW422624   5.994   4.576   1.670 -0.0452 -0.4179  0.4771
 5715SOL     OW22625   4.383   1.343   2.581 -0.2110 -0.6213 -0.3114
 5715SOL    HW222626   4.311   1.405   2.590 -0.0937 -0.6025  0.6272
 5715SOL    HW322627   4.404   1.343   2.488  0.7804  1.8715 -0.1651
 5715SOL    MW422628   4.376   1.351   2.570  0.6394  0.0187 -0.4127
 5716SOL     OW22629   2.324   1.367   5.499  0.2313  0.3459 -0.1001
 5716SOL    HW222630   2.330   1.453   5.458 -0.3457 -0.0746 -1.1093
 5716SOL    HW322631   2.407   1.324   5.478 -0.2496 -0.0476 -1.3038
 5716SOL    MW422632   2.336   1.372   5.491 -0.5596 -0.4254 -0.5197
 5717SOL     OW22633   2.953   4.907   0.654  0.4403 -0.2480 -0.5497
 5717SOL    HW222634   2.969   4.995   0.690 -1.8545 -0.0676  0.1422
 5717SOL    HW322635   2.930   4.854   0.729  0.5399 -1.1491 -1.1419
 5717SOL    MW422636   2.952   4.912   0.668 -0.4874  0.9381  0.8045
 5718SOL     OW22637   1.379   2.254   0.315  0.0960  0.2032  0.1534
 5718SOL    HW222638   1.388   2.266   0.409 -1.8364  1.2501  0.2502
 5718SOL    HW322639   1.464   2.278   0.279  0.1829  2.0392  1.4533
 5718SOL    MW422640   1.391   2.259   0.323 -0.3575  0.3980  0.1960
 5719SOL     OW22641   3.188   0.519   5.242 -0.5689 -0.2520 -0.0994
 5719SOL    HW222642   3.165   0.441   5.292 -0.9535 -0.4062 -0.5142
 5719SOL    HW322643   3.138   0.590   5.283 -0.7007 -0.3351 -0.1172
 5719SOL    MW422644   3.179   0.518   5.254 -0.0935  0.0258 -0.2496
 5720SOL     OW22645   5.022   5.992   3.660  0.2194 -0.1208  0.0893
 5720SOL    HW222646   4.978   5.922   3.708 -3.1398  0.8412 -1.3467
 5720SOL    HW322647   5.071   5.946   3.592  0.9821 -1.1849  1.2865
 5720SOL    MW422648   5.023   5.977   3.658 -0.0328  0.1532  0.3636
 5721SOL     OW22649   5.748   4.587   2.750 -0.3609  0.1063 -0.4050
 5721SOL    HW222650   5.667   4.543   2.723 -1.4702  1.6755  0.2202
 5721SOL    HW322651   5.718   4.658   2.808  1.4878  0.5908  0.0092
 5721SOL    MW422652   5.733   4.590   2.754  0.4486  0.0046 -0.0845
 5722SOL     OW22653   3.169   4.405   3.835  0.2488 -0.0205  0.0105
 5722SOL    HW222654   3.246   4.388   3.780 -0.1839  0.0749 -0.6388
 5722SOL    HW322655   3.096   4.408   3.773 -0.1461  0.8460  0.5068
 5722SOL    MW422656   3.170   4.403   3.820  0.1476 -0.6367  0.0914
 5723SOL     OW22657   4.750   3.503   5.617 -0.3308  0.2880  0.4513
 5723SOL    HW222658   4.826   3.453   5.588  1.2903  1.3053  2.6095
 5723SOL    HW322659   4.683   3.437   5.635  0.5747 -0.7791  0.0319
 5723SOL    MW422660   4.751   3.488   5.615  0.3750  0.2803 -0.0375
 5724SOL     OW22661   4.157   0.979   5.101 -0.1669 -0.5159  0.0985
 5724SOL    HW222662   4.140   0.886   5.084 -0.6629 -0.4093  0.0010
 5724SOL    HW322663   4.071   1.016   5.119 -0.2213  0.3041 -1.6853
 5724SOL    MW422664   4.143   0.972   5.101 -0.0279  0.0230 -0.1722
 5725SOL     OW22665   3.996   2.110   3.990  0.0805 -0.0886  0.3245
 5725SOL    HW222666   4.065   2.125   3.925 -0.1476  0.7453  0.2726
 5725SOL    HW322667   3.947   2.191   3.992 -1.5107 -0.9914 -0.3319
 5725SOL    MW422668   3.999   2.123   3.982 -0.3153 -0.1751  0.1368
 5726SOL     OW22669   5.509   5.878   5.162 -0.0510  0.5570  0.9137
 5726SOL    HW222670   5.489   5.909   5.074 -0.2179 -1.8695  0.0257
 5726SOL    HW322671   5.424   5.863   5.203  0.0215  0.9879  1.2228
 5726SOL    MW422672   5.495   5.880   5.156  0.3048  0.3158  0.1705
 5727SOL     OW22673   2.715   6.024   4.010  0.4062 -0.5932  0.6198
 5727SOL    HW222674   2.756   5.955   3.959 -0.1497 -0.0914 -0.5550
 5727SOL    HW322675   2.754   6.105   3.977 -0.7908 -0.1808  0.1529
 5727SOL    MW422676   2.725   6.025   3.999  0.5556  0.6550 -0.3086
 5728SOL     OW22677   4.708   0.315   2.906 -0.0426  0.3563 -0.2122
 5728SOL    HW222678   4.736   0.407   2.907 -0.3703  0.4702 -0.7866
 5728SOL    HW322679   4.613   0.319   2.922  0.4392 -0.1445  3.6844
 5728SOL    MW422680   4.699   0.328   2.908 -0.2409  0.0992  0.3286
 5729SOL     OW22681   2.966   5.861   3.266  0.6972  0.0087  0.4710
 5729SOL    HW222682   3.001   5.779   3.230 -0.2393  0.0262 -0.5283
 5729SOL    HW322683   2.900   5.832   3.329  0.5612 -0.0040  0.3219
 5729SOL    MW422684   2.962   5.846   3.270 -0.7588  0.1748 -0.2104
 5730SOL     OW22685   2.678   0.431   5.032  0.1729 -0.0639 -0.4570
 5730SOL    HW222686   2.721   0.371   5.092  0.4961  1.2694  0.6752
 5730SOL    HW322687   2.728   0.424   4.951  0.8403 -0.5396 -0.0112
 5730SOL    MW422688   2.690   0.422   5.029  0.1969  0.0759  0.1889
 5731SOL     OW22689   2.585   0.620   1.428  0.1646 -0.3204  0.1140
 5731SOL    HW222690   2.538   0.614   1.511 -1.8853 -1.7761 -1.0702
 5731SOL    HW322691   2.564   0.708   1.395 -0.9061 -0.5814  0.0807
 5731SOL    MW422692   2.576   0.631   1.435  0.1482  0.7924  0.5803
 5732SOL     OW22693   5.073   0.974   3.507 -0.0972  0.0673  0.2851
 5732SOL    HW222694   4.995   1.030   3.505 -1.6651 -1.9918 -2.0280
 5732SOL    HW322695   5.043   0.893   3.548  0.6885 -0.8714 -0.9333
 5732SOL    MW422696   5.059   0.971   3.512  0.0495 -0.3930 -0.1990
 5733SOL     OW22697   2.566   6.124   4.710 -0.1700  0.1839  0.1198
 5733SOL    HW222698   2.626   6.118   4.635  0.6148  1.7723  0.5749
 5733SOL    HW322699   2.480   6.133   4.671  0.1864  0.5838 -0.5975
 5733SOL    MW422700   2.563   6.124   4.695  0.6102 -0.6520  0.0149
 5734SOL     OW22701   1.610   3.387   4.037  0.2639 -0.4321  0.6266
 5734SOL    HW222702   1.617   3.476   4.003 -1.0461 -0.6554 -0.2869
 5734SOL    HW322703   1.672   3.336   3.984  0.8510 -0.1183  1.0022
 5734SOL    MW422704   1.619   3.392   4.026 -0.7467  0.5324 -0.2596
 5735SOL     OW22705   5.934   5.781   2.616  0.0048 -0.1771  0.5439
 5735SOL    HW222706   5.924   5.788   2.711 -0.3596  0.4116  0.4668
 5735SOL    HW322707   5.926   5.687   2.598 -1.4944 -0.1569  0.9313
 5735SOL    MW422708   5.931   5.769   2.626  0.2405  0.1184 -0.2834
 5736SOL     OW22709   0.576   5.485   3.977 -0.4569 -0.5004  0.2084
 5736SOL    HW222710   0.530   5.417   4.026 -0.8759  0.7024  1.5779
 5736SOL    HW322711   0.541   5.567   4.012  0.7407  0.4345 -0.6864
 5736SOL    MW422712   0.565   5.487   3.988  0.1169 -0.0306  0.0432
 5737SOL     OW22713   0.138   4.845   5.641  0.0605  0.7055  0.5965
 5737SOL    HW222714   0.149   4.760   5.599  0.8424  0.3985  1.3686
 5737SOL    HW322715   0.115   4.823   5.732 -2.4921  1.3497  0.1783
 5737SOL    MW422716   0.137   4.831   5.648 -0.4285 -0.3943 -0.3904
 5738SOL     OW22717   0.903   4.585   2.213  0.0823  0.0749  0.1495
 5738SOL    HW222718   0.927   4.630   2.293 -0.6741  1.5888 -0.4343
 5738SOL    HW322719   0.972   4.609   2.151  0.6795 -1.1103  0.3363
 5738SOL    MW422720   0.915   4.594   2.215  0.4151  0.2812  0.2240
 5739SOL     OW22721   0.087   1.057   2.104  0.6628 -0.3874 -0.2212
 5739SOL    HW222722   0.068   1.047   2.197  0.1853  1.7389 -0.0333
 5739SOL    HW322723   0.183   1.053   2.098  0.6247 -3.9642 -0.1782
 5739SOL    MW422724   0.097   1.055   2.115 -0.1616 -0.6525  0.3180
 5740SOL     OW22725   2.049   1.245   4.879  0.2539  0.6155 -0.2391
 5740SOL    HW222726   2.115   1.259   4.947  0.0295  0.5612 -0.0082
 5740SOL    HW322727   1.967   1.234   4.927  0.1727  0.0758 -0.4943
 5740SOL    MW422728   2.047   1.246   4.894 -0.0270 -0.1535  0.3326
 5741SOL     OW22729   4.734   2.013   5.059 -0.3079  0.1536 -0.2523
 5741SOL    HW222730   4.814   1.969   5.088  1.0207  1.4575 -1.7337
 5741SOL    HW322731   4.702   1.958   4.987  0.1220  0.4067 -0.6482
 5741SOL    MW422732   4.741   2.000   5.053 -0.5798  0.6364  0.4963
 5742SOL     OW22733   4.985   3.906   1.653 -0.2527  0.0649 -0.5153
 5742SOL    HW222734   4.905   3.854   1.645  0.8179 -1.9542  1.0043
 5742SOL    HW322735   5.038   3.880   1.577 -0.0835 -0.4091 -0.2384
 5742SOL    MW422736   4.982   3.896   1.642  0.6041  0.2320  0.4212
 5743SOL     OW22737   0.167   3.578   3.383  0.5121  0.2432 -0.5797
 5743SOL    HW222738   0.222   3.636   3.329  0.0299  1.5516  0.2762
 5743SOL    HW322739   0.195   3.490   3.359  0.7095  0.7816 -2.5491
 5743SOL    MW422740   0.178   3.574   3.373  0.3190 -0.0422 -0.4104
 5744SOL     OW22741   2.770   0.292   3.593 -0.2628 -0.7152 -0.0953
 5744SOL    HW222742   2.705   0.234   3.555 -0.7096 -1.1072  1.2050
 5744SOL    HW322743   2.723   0.375   3.605 -0.8580 -1.2626  1.7012
 5744SOL    MW422744   2.755   0.295   3.590  0.0137 -0.5080  0.1967
 5745SOL     OW22745   1.771   0.376   6.368  0.3017 -0.3680 -0.2915
 5745SOL    HW222746   1.730   0.423   6.295  0.9328 -0.4110 -0.6810
 5745SOL    HW322747   1.722   0.294   6.374 -0.9046  0.3928  0.4907
 5745SOL    MW422748   1.759   0.371   6.359 -0.3525  0.2998  0.3111
 5746SOL     OW22749   3.694   2.321   3.152 -0.4774  0.2945  0.3856
 5746SOL    HW222750   3.612   2.370   3.150 -0.2746  0.6881  1.2993
 5746SOL    HW322751   3.754   2.377   3.202  0.7099  0.5661 -1.2414
 5746SOL    MW422752   3.691   2.335   3.158 -0.4492  0.0922  0.1625
 5747SOL     OW22753   4.556   5.423   4.259  0.1814 -0.0218 -0.3761
 5747SOL    HW222754   4.593   5.344   4.299  1.3797  1.0905  0.8072
 5747SOL    HW322755   4.471   5.434   4.303  1.1112  0.7148  1.3469
 5747SOL    MW422756   4.550   5.414   4.270  0.2541  0.5150 -0.3040
 5748SOL     OW22757   3.925   5.717   1.736  0.1232 -0.4188 -0.2155
 5748SOL    HW222758   4.016   5.707   1.707 -0.1759 -2.3541 -0.6390
 5748SOL    HW322759   3.875   5.725   1.655 -0.0256  1.5890  0.0403
 5748SOL    MW422760   3.930   5.717   1.721  0.9722  0.0698  0.0635
 5749SOL     OW22761   1.248   4.727   1.622 -0.2982 -0.1917 -0.3493
 5749SOL    HW222762   1.240   4.641   1.662 -0.5561  0.5461  1.2684
 5749SOL    HW322763   1.326   4.720   1.567  0.4323 -1.0979  0.7479
 5749SOL    MW422764   1.258   4.715   1.620  0.5141  0.0043  0.9989
 5750SOL     OW22765   5.087   4.859   2.851 -0.5624 -0.4518 -0.0160
 5750SOL    HW222766   5.005   4.812   2.833 -0.5212 -0.3384 -0.5046
 5750SOL    HW322767   5.105   4.907   2.771 -0.8359  0.7616  0.6237
 5750SOL    MW422768   5.079   4.859   2.838 -0.6949 -0.3493  0.4642
 5751SOL     OW22769   3.467   0.142   4.586  0.1928 -0.4032 -0.1575
 5751SOL    HW222770   3.383   0.141   4.631  0.5323 -1.7566  0.5116
 5751SOL    HW322771   3.446   0.139   4.493 -0.4871 -0.8064  0.0098
 5751SOL    MW422772   3.453   0.142   4.580 -0.1830 -0.6264  0.5117
 5752SOL     OW22773   1.224   5.372   3.290 -0.1614 -0.2599 -0.3339
 5752SOL    HW222774   1.230   5.385   3.195  0.0158 -0.3629 -0.3364
 5752SOL    HW322775   1.237   5.279   3.303  1.3177 -0.0504 -0.0963
 5752SOL    MW422776   1.227   5.362   3.279  0.0973  0.4005 -0.1491
 5753SOL     OW22777   4.347   4.735   4.448  0.9537 -0.5700  0.4475
 5753SOL    HW222778   4.347   4.653   4.498  0.6132 -0.5285  0.5200
 5753SOL    HW322779   4.333   4.708   4.358  3.0391 -0.7679  0.1404
 5753SOL    MW422780   4.345   4.721   4.443 -0.4468  0.2970 -0.1092
 5754SOL     OW22781   0.218   3.097   3.429  0.4375 -0.2162  0.1069
 5754SOL    HW222782   0.146   3.089   3.493  0.5735 -0.9668  0.1767
 5754SOL    HW322783   0.293   3.057   3.473  0.9411  0.6870  0.0843
 5754SOL    MW422784   0.218   3.091   3.443 -0.1614  0.0345 -0.1459
 5755SOL     OW22785   0.117   5.317   0.597 -0.2640  0.5301 -0.3361
 5755SOL    HW222786   0.147   5.360   0.676  0.7862  1.2196 -1.0844
 5755SOL    HW322787   0.113   5.224   0.620 -2.1669  0.9308  1.1746
 5755SOL    MW422788   0.120   5.310   0.610  0.1466 -0.4992 -0.0357
 5756SOL     OW22789   6.116   6.257   5.728  0.0088 -0.4359  0.4487
 5756SOL    HW222790   6.186   6.200   5.760 -0.4426 -1.4845 -0.3490
 5756SOL    HW322791   6.035   6.211   5.752 -0.4157  0.6078  1.0962
 5756SOL    MW422792   6.114   6.243   5.736 -0.1949 -0.5961 -0.1173
 5757SOL     OW22793   4.696   2.216   0.975 -0.1621 -0.0310 -0.3692
 5757SOL    HW222794   4.668   2.262   0.896 -2.1139  2.9026  1.8052
 5757SOL    HW322795   4.643   2.137   0.977 -0.8708  0.3882 -1.4606
 5757SOL    MW422796   4.686   2.212   0.965  0.0114 -0.5072 -1.0780
 5758SOL     OW22797   1.202   2.015   0.348  0.7200  0.8456  0.7463
 5758SOL    HW222798   1.251   2.098   0.346  0.5380  0.9438 -0.0980
 5758SOL    HW322799   1.133   2.027   0.282  1.3672 -0.3817 -0.1919
 5758SOL    MW422800   1.199   2.028   0.339 -0.0013  0.2774 -0.2347
 5759SOL     OW22801   5.931   0.571   4.647 -0.2059 -0.7299  0.2413
 5759SOL    HW222802   5.922   0.571   4.552  1.7918  0.8041 -0.0058
 5759SOL    HW322803   5.955   0.480   4.669  0.9721 -0.7322 -0.9311
 5759SOL    MW422804   5.933   0.559   4.637 -0.1288  0.0569  0.1579
 5760SOL     OW22805   3.716   4.908   5.565  1.1207 -0.9873  0.5518
 5760SOL    HW222806   3.811   4.913   5.571  1.3056  1.8166 -2.1127
 5760SOL    HW322807   3.684   4.984   5.614  0.6074  0.3947 -1.7651
 5760SOL    MW422808   3.724   4.919   5.572  0.5577 -0.0951  0.1755
 5761SOL     OW22809   4.284   0.472   4.265 -0.4278 -0.2494  0.3368
 5761SOL    HW222810   4.294   0.463   4.360  1.2129  1.6457  0.3951
 5761SOL    HW322811   4.373   0.481   4.231 -1.0781  1.4678 -1.0929
 5761SOL    MW422812   4.297   0.472   4.273 -0.1885 -0.0579 -0.2886
 5762SOL     OW22813   1.148   2.275   0.739  0.5929  0.3918  0.1113
 5762SOL    HW222814   1.101   2.322   0.671 -1.2805  0.3963  1.3385
 5762SOL    HW322815   1.170   2.341   0.805  1.1495  0.1498  0.1850
 5762SOL    MW422816   1.145   2.290   0.739 -0.2813  0.3101 -0.1270
 5763SOL     OW22817   5.375   5.268   3.981  0.1604  0.1827 -0.3317
 5763SOL    HW222818   5.312   5.201   3.956 -0.2486 -0.0636  1.2328
 5763SOL    HW322819   5.322   5.348   3.990  0.2260  0.1813  0.0864
 5763SOL    MW422820   5.359   5.270   3.979  0.1049 -0.4397  0.0570
 5764SOL     OW22821   0.679   3.723   0.046 -0.0605  0.4803  0.0835
 5764SOL    HW222822   0.741   3.791   0.071 -2.3885  1.9344  2.4777
 5764SOL    HW322823   0.654   3.682   0.129 -1.0926 -1.1628 -0.9757
 5764SOL    MW422824   0.684   3.727   0.060 -0.5806  0.8233 -0.0737
 5765SOL     OW22825   2.692   1.987   3.162  0.1801 -0.0971  0.4719
 5765SOL    HW222826   2.723   2.072   3.130  0.8227 -0.3399  0.4303
 5765SOL    HW322827   2.629   1.958   3.097  0.1656  0.2223  0.3433
 5765SOL    MW422828   2.688   1.994   3.150  0.1100 -0.2232  0.2548
 5766SOL     OW22829   3.025   0.393   4.473 -0.3330  0.0169 -0.3416
 5766SOL    HW222830   3.031   0.321   4.536 -1.9490  1.4011  1.5078
 5766SOL    HW322831   3.086   0.368   4.404  0.8925 -2.0199  1.3171
 5766SOL    MW422832   3.034   0.380   4.472 -0.1761 -0.4894  0.2016
 5767SOL     OW22833   2.617   4.329   1.020 -0.1450 -0.1695 -0.4512
 5767SOL    HW222834   2.670   4.363   1.092 -0.2648 -0.0128 -0.4366
 5767SOL    HW322835   2.531   4.311   1.059 -0.3767  0.4275 -0.6701
 5767SOL    MW422836   2.612   4.331   1.034  0.0112  0.3370  0.1586
 5768SOL     OW22837   5.739   3.552   3.032  0.2505  0.1645  0.1913
 5768SOL    HW222838   5.650   3.518   3.024 -0.6236  2.0256  1.2617
 5768SOL    HW322839   5.775   3.544   2.943 -0.4343 -1.9177  0.0371
 5768SOL    MW422840   5.732   3.547   3.019 -0.0201  0.0147  0.3000
 5769SOL     OW22841   1.680   2.795   0.620 -0.4637 -0.5119 -0.0893
 5769SOL    HW222842   1.758   2.831   0.661 -1.1031  0.8843 -0.0284
 5769SOL    HW322843   1.616   2.790   0.691 -1.4285  1.4770 -0.7366
 5769SOL    MW422844   1.681   2.799   0.635  0.5366 -0.0125  0.2430
 5770SOL     OW22845   2.316   3.543   6.027  0.0584 -0.1205  0.3386
 5770SOL    HW222846   2.397   3.560   5.979 -0.4981 -0.2749 -0.6994
 5770SOL    HW322847   2.253   3.520   5.959 -0.0799 -3.1486  1.3430
 5770SOL    MW422848   2.318   3.543   6.011 -0.6465 -0.4737  0.5213
 5771SOL     OW22849   2.331   0.240   5.921  0.8123  0.2822 -0.2350
 5771SOL    HW222850   2.307   0.148   5.925  1.5608  0.0360 -0.9705
 5771SOL    HW322851   2.284   0.281   5.993  0.8949 -0.7721  0.4317
 5771SOL    MW422852   2.322   0.234   5.931  0.2606 -0.1404 -0.0999
 5772SOL     OW22853   3.314   4.704   1.422 -0.3827 -0.3164 -0.4878
 5772SOL    HW222854   3.286   4.612   1.425  1.0854 -0.7682  0.7232
 5772SOL    HW322855   3.306   4.728   1.330 -1.2097 -1.5171 -0.7640
 5772SOL    MW422856   3.309   4.695   1.411  0.4724 -0.2376  0.3308
 5773SOL     OW22857   5.977   2.035   0.547  0.2789  0.2749 -0.3416
 5773SOL    HW222858   5.882   2.021   0.538  0.3605 -0.5820  0.0384
 5773SOL    HW322859   6.000   2.088   0.471 -0.1834 -1.2161 -1.5961
 5773SOL    MW422860   5.967   2.040   0.536  0.1029  0.7684 -0.2065
 5774SOL     OW22861   6.205   6.180   5.331 -0.3219 -0.8272  0.2612
 5774SOL    HW222862   6.220   6.143   5.244  0.4289 -1.2295  0.5526
 5774SOL    HW322863   6.111   6.170   5.345 -1.2086  2.5939 -1.9839
 5774SOL    MW422864   6.195   6.174   5.321 -0.5567 -0.0443 -0.0587
 5775SOL     OW22865   6.156   6.203   1.004 -0.1080 -0.3344  0.7861
 5775SOL    HW222866   6.173   6.178   1.094  2.1907 -2.2646 -0.0739
 5775SOL    HW322867   6.171   6.297   1.001  0.0471 -0.2950  2.3564
 5775SOL    MW422868   6.160   6.212   1.015 -0.3619 -0.4703 -0.2427
 5776SOL     OW22869   5.791   4.223   3.114 -0.3476  0.1762  0.2316
 5776SOL    HW222870   5.697   4.232   3.133 -0.2910  1.5222 -0.0174
 5776SOL    HW322871   5.797   4.143   3.063 -1.7421  1.3580 -1.9626
 5776SOL    MW422872   5.779   4.214   3.110 -0.1128 -0.0426  0.3498
 5777SOL     OW22873   5.047   1.108   2.331  0.4810  0.2584  0.0488
 5777SOL    HW222874   5.084   1.191   2.301  0.3855  0.1299 -0.4329
 5777SOL    HW322875   5.115   1.043   2.310  0.5216  0.2011  0.3513
 5777SOL    MW422876   5.061   1.110   2.325  0.6627 -0.2680 -0.5786
 5778SOL     OW22877   3.015   5.161   5.337 -0.1603  0.3484 -0.8314
 5778SOL    HW222878   3.038   5.149   5.429  0.8545 -2.7239 -1.3485
 5778SOL    HW322879   2.941   5.103   5.322 -0.0936  0.5249 -2.0011
 5778SOL    MW422880   3.009   5.151   5.347  0.3681 -0.5584 -0.4106
 5779SOL     OW22881   0.643   3.440   4.420  0.2611 -0.5218 -0.3465
 5779SOL    HW222882   0.548   3.432   4.408  0.3078 -0.5753 -0.6905
 5779SOL    HW322883   0.657   3.418   4.512 -0.0990 -0.1761 -0.2040
 5779SOL    MW422884   0.632   3.436   4.431  0.3124 -0.2250  0.2284
 5780SOL     OW22885   0.636   4.363   5.108  0.0891  0.6279 -0.2491
 5780SOL    HW222886   0.555   4.412   5.101  0.4657  1.5078  1.1842
 5780SOL    HW322887   0.610   4.271   5.101 -0.8231  0.9515 -1.2993
 5780SOL    MW422888   0.622   4.357   5.106 -0.0347 -0.2412  0.3141
 5781SOL     OW22889   5.541   0.033   1.095  0.1267  0.2620  0.1514
 5781SOL    HW222890   5.541  -0.057   1.062 -0.9572  0.4761 -0.4920
 5781SOL    HW322891   5.503   0.027   1.182  0.3563  0.0563  0.2381
 5781SOL    MW422892   5.536   0.021   1.102 -0.0538 -0.5011  0.5655
 5782SOL     OW22893   5.982   5.411   4.923 -0.3189 -0.0445  0.1694
 5782SOL    HW222894   6.069   5.448   4.939  1.0457 -3.4302  1.3465
 5782SOL    HW322895   5.956   5.447   4.838  1.7799  1.7855  0.2127
 5782SOL    MW422896   5.990   5.421   4.914 -0.7710  0.6669 -0.0822
 5783SOL     OW22897   3.209   0.259   4.267 -0.7947 -0.2662  0.1513
 5783SOL    HW222898   3.155   0.181   4.276 -1.4290  0.1409 -0.0978
 5783SOL    HW322899   3.252   0.249   4.183 -0.8678 -0.3514  0.1236
 5783SOL    MW422900   3.208   0.248   4.257  0.2582  0.6880  0.1095
 5784SOL     OW22901   5.933   5.213   2.081 -0.5004  0.0652  0.4520
 5784SOL    HW222902   5.959   5.288   2.135  0.6504 -1.5823  2.3673
 5784SOL    HW322903   5.895   5.151   2.144 -0.9516 -1.1566 -0.9751
 5784SOL    MW422904   5.932   5.215   2.097  0.2945  0.2131 -0.1945
 5785SOL     OW22905   2.575   5.073   4.917 -0.7649  0.3350 -0.6556
 5785SOL    HW222906   2.589   5.149   4.973 -0.4888 -0.9783  1.1769
 5785SOL    HW322907   2.627   5.090   4.839  0.7407  1.2478  0.4878
 5785SOL    MW422908   2.584   5.085   4.914  0.0061 -0.0217 -0.7586
 5786SOL     OW22909   1.271   0.574   3.325  0.2285  0.4549 -0.0389
 5786SOL    HW222910   1.354   0.622   3.320  0.7709 -0.5409 -3.2049
 5786SOL    HW322911   1.292   0.487   3.290 -1.7362 -0.5583  1.1184
 5786SOL    MW422912   1.285   0.569   3.320 -0.5480  0.0646  0.4629
 5787SOL     OW22913   1.394   2.951   1.908  0.4151  0.0400 -0.4178
 5787SOL    HW222914   1.348   3.009   1.969 -2.3650 -0.0175 -2.2511
 5787SOL    HW322915   1.458   2.904   1.962 -0.4244  1.4813  1.9928
 5787SOL    MW422916   1.396   2.953   1.923 -0.0364 -0.0733 -0.2598
 5788SOL     OW22917   4.816   3.748   1.347  0.3668  0.2126  0.7064
 5788SOL    HW222918   4.900   3.702   1.343  0.1420 -0.1510 -1.6393
 5788SOL    HW322919   4.836   3.833   1.386  1.6771 -0.1546  0.8834
 5788SOL    MW422920   4.830   3.753   1.351  0.0561 -0.1031  0.1051
 5789SOL     OW22921   5.874   3.590   1.131 -0.0957  0.4037 -0.1031
 5789SOL    HW222922   5.928   3.592   1.209 -0.7991 -0.5174  0.4356
 5789SOL    HW322923   5.932   3.619   1.060  1.0259 -0.3411  0.4839
 5789SOL    MW422924   5.889   3.594   1.132 -0.4507  0.4364 -0.2697
 5790SOL     OW22925   5.953   1.472   4.497  0.1427  0.3239  0.2190
 5790SOL    HW222926   5.963   1.392   4.548  0.6526  0.0337 -0.3214
 5790SOL    HW322927   6.014   1.462   4.424 -0.4284  0.8168 -0.3409
 5790SOL    MW422928   5.962   1.460   4.494 -0.0681 -0.6320 -0.1478
 5791SOL     OW22929   0.680   5.780   2.789 -0.3040  0.1247 -0.1788
 5791SOL    HW222930   0.594   5.746   2.814 -0.1488 -0.3243 -0.2549
 5791SOL    HW322931   0.666   5.819   2.703 -0.3203 -0.4057 -0.4184
 5791SOL    MW422932   0.667   5.781   2.781  0.5162 -0.1852 -0.2428
 5792SOL     OW22933   1.748   0.412   4.481 -0.1343  0.6713 -0.1788
 5792SOL    HW222934   1.768   0.347   4.547 -0.1169 -0.8209 -1.5930
 5792SOL    HW322935   1.789   0.379   4.401 -0.7999  2.0155 -1.1233
 5792SOL    MW422936   1.756   0.399   4.479 -0.1449 -0.0448 -0.2371
 5793SOL     OW22937   6.404   2.385   1.661 -0.6200 -0.5705 -0.6448
 5793SOL    HW222938   6.349   2.459   1.636  0.6438  0.9102  0.7419
 5793SOL    HW322939   6.476   2.387   1.598  0.5707  0.8078  0.6907
 5793SOL    MW422940   6.406   2.395   1.649 -0.1249  0.2633  0.3306
 5794SOL     OW22941   2.325   3.545   1.482  0.0794  0.3059 -0.0643
 5794SOL    HW222942   2.400   3.551   1.423 -0.8604 -0.7011 -1.4408
 5794SOL    HW322943   2.352   3.592   1.561  0.9439  2.8141 -1.7300
 5794SOL    MW422944   2.339   3.552   1.485 -0.1709  0.2694 -0.2177
 5795SOL     OW22945   3.294   3.100   1.413 -0.1961 -0.0384  0.0033
 5795SOL    HW222946   3.296   3.061   1.326 -2.2762  1.2123 -0.6734
 5795SOL    HW322947   3.384   3.130   1.428  0.1459 -0.0381 -1.8114
 5795SOL    MW422948   3.306   3.098   1.404 -0.4891  0.0347 -0.1775
 5796SOL     OW22949   6.174   5.454   2.912  0.4789  0.1133  0.3129
 5796SOL    HW222950   6.219   5.370   2.912  1.6270  0.7035  0.0016
 5796SOL    HW322951   6.244   5.519   2.911 -0.3528  1.0760 -1.5909
 5796SOL    MW422952   6.189   5.452   2.912 -0.5739  0.4060  0.2276
 5797SOL     OW22953   3.103   2.812   1.265 -0.5836  0.3661  0.3139
 5797SOL    HW222954   3.145   2.766   1.338 -2.2152 -2.3156 -0.3173
 5797SOL    HW322955   3.176   2.834   1.206  0.3115 -1.2920  0.7331
 5797SOL    MW422956   3.118   2.809   1.267 -0.0771 -0.1927 -0.1978
 5798SOL     OW22957   0.503   6.404   3.957 -0.1435 -0.3528 -0.1386
 5798SOL    HW222958   0.504   6.476   4.021  0.4251 -1.0465  0.6517
 5798SOL    HW322959   0.484   6.326   4.009 -0.4958 -0.8196 -0.9537
 5798SOL    MW422960   0.501   6.404   3.972 -0.4180 -0.6212  0.1004
 5799SOL     OW22961   3.798   1.204   4.212 -0.1217 -0.1930 -0.0338
 5799SOL    HW222962   3.729   1.263   4.244 -1.3539 -1.1934 -0.7469
 5799SOL    HW322963   3.874   1.225   4.266 -0.4097  2.2451 -0.4586
 5799SOL    MW422964   3.799   1.215   4.224 -0.6831  0.0784 -0.1906
 5800SOL     OW22965   2.532   2.393   2.536 -0.1850 -0.2970 -0.1276
 5800SOL    HW222966   2.464   2.410   2.472  0.2789  0.7135 -0.3739
 5800SOL    HW322967   2.591   2.331   2.494  0.1638  0.4259 -0.7328
 5800SOL    MW422968   2.531   2.387   2.522  0.0524 -0.0909  0.2003
 5801SOL     OW22969   1.660   3.272   3.182  0.0116 -0.3156 -0.2444
 5801SOL    HW222970   1.570   3.302   3.167  0.2831 -0.1031 -1.6266
 5801SOL    HW322971   1.715   3.347   3.160  0.5289 -0.1408  1.4830
 5801SOL    MW422972   1.655   3.286   3.177 -0.4088 -0.2008  0.3001
 5802SOL     OW22973   2.450   5.965   3.378  0.3164 -0.5246 -0.1929
 5802SOL    HW222974   2.373   5.912   3.355  0.7570 -0.9254 -0.7845
 5802SOL    HW322975   2.413   6.047   3.410 -0.3864 -1.3350  1.1618
 5802SOL    MW422976   2.435   5.969   3.379  0.4393 -0.0252 -0.5196
 5803SOL     OW22977   2.194   3.197   1.226 -0.2774 -0.2717  0.0086
 5803SOL    HW222978   2.206   3.156   1.311  0.4280 -1.7215 -0.7554
 5803SOL    HW322979   2.276   3.243   1.209 -1.1600  1.7900  0.9806
 5803SOL    MW422980   2.206   3.198   1.235  0.3896 -0.2012 -0.1269
 5804SOL     OW22981   4.115   4.968   6.238  0.6976 -0.5836 -0.0515
 5804SOL    HW222982   4.056   4.903   6.199 -0.4513 -0.3933  1.2994
 5804SOL    HW322983   4.124   4.940   6.329 -1.1545  1.9780  1.0352
 5804SOL    MW422984   4.108   4.955   6.245 -0.2582  0.4158 -0.0434
 5805SOL     OW22985   5.169   4.818   1.143  0.1236 -0.0451  0.3501
 5805SOL    HW222986   5.212   4.765   1.076 -0.3222  0.5866 -0.4683
 5805SOL    HW322987   5.115   4.880   1.093 -2.9131 -1.7259  1.3028
 5805SOL    MW422988   5.167   4.819   1.127 -0.6242  0.0660  0.7107
 5806SOL     OW22989   3.899   6.081   3.987 -0.1014  0.3809  0.1302
 5806SOL    HW222990   3.978   6.045   4.027  0.1493 -0.3059 -0.9486
 5806SOL    HW322991   3.857   6.130   4.058  1.2476  0.7122  0.7396
 5806SOL    MW422992   3.904   6.083   4.002 -0.0338  0.3147 -0.1817
 5807SOL     OW22993   3.156   1.145   3.661 -0.4320  0.5766  0.1249
 5807SOL    HW222994   3.250   1.163   3.660 -0.7145  2.4408  1.4727
 5807SOL    HW322995   3.145   1.085   3.735 -0.1683 -0.7995 -0.9137
 5807SOL    MW422996   3.167   1.139   3.671 -0.9077  0.0643 -0.0367
 5808SOL     OW22997   3.809   6.192   5.731  0.1933  0.1414  0.2974
 5808SOL    HW222998   3.853   6.270   5.696  0.7495 -0.1670  0.2888
 5808SOL    HW322999   3.878   6.126   5.734  0.6743  0.6224  3.6870
 5808SOL    MW423000   3.824   6.194   5.727  0.1886 -0.0056 -0.2596
 5809SOL     OW23001   1.320   6.174   5.513  0.3756  0.1173  0.2997
 5809SOL    HW223002   1.368   6.237   5.566 -0.8725  1.0789  0.3367
 5809SOL    HW323003   1.269   6.124   5.577 -0.2650  0.5226  0.1185
 5809SOL    MW423004   1.320   6.176   5.529 -0.4205 -0.4340 -0.1654
 5810SOL     OW23005   6.292   0.367   4.264  0.4838  0.6023  0.2498
 5810SOL    HW223006   6.294   0.272   4.281 -0.1328  0.4324 -0.5843
 5810SOL    HW323007   6.272   0.406   4.349  1.2602  0.0208  0.7161
 5810SOL    MW423008   6.290   0.359   4.277  0.3619 -0.4897 -0.1028
 5811SOL     OW23009   4.385   2.123   5.287  0.2331  0.2260 -0.2173
 5811SOL    HW223010   4.446   2.139   5.358 -0.0804  0.4955 -0.0026
 5811SOL    HW323011   4.299   2.120   5.330  0.1886 -1.3033 -0.3459
 5811SOL    MW423012   4.381   2.125   5.302 -0.2588 -0.4710 -0.6373
 5812SOL     OW23013   2.053   5.445   1.860  0.3900 -0.4430 -0.0384
 5812SOL    HW223014   1.960   5.439   1.835  0.7985 -0.2851 -1.7544
 5812SOL    HW323015   2.081   5.529   1.823  1.2071 -0.4797  0.4926
 5812SOL    MW423016   2.044   5.456   1.852  0.2621  0.5496  0.4488
 5813SOL     OW23017   4.034   4.421   3.607  1.0310 -0.2690  0.3718
 5813SOL    HW223018   4.114   4.370   3.597  1.3877  0.2079  0.7597
 5813SOL    HW323019   4.038   4.454   3.697 -0.6005 -1.9225  1.1275
 5813SOL    MW423020   4.045   4.418   3.618 -0.3636  0.4973 -0.5200
 5814SOL     OW23021   2.676   0.577   0.712  0.1868  0.2279 -0.2505
 5814SOL    HW223022   2.621   0.629   0.654  1.0394  0.9345 -0.4489
 5814SOL    HW323023   2.615   0.539   0.775 -0.5776  0.6242 -0.7369
 5814SOL    MW423024   2.661   0.579   0.713  0.5840 -0.3265 -0.5133
 5815SOL     OW23025   2.919   0.899   0.646  0.7388 -0.0570  0.0945
 5815SOL    HW223026   3.007   0.891   0.610  0.7672  0.3264  0.0760
 5815SOL    HW323027   2.863   0.853   0.583  0.9658 -0.5911  0.2771
 5815SOL    MW423028   2.923   0.892   0.633 -0.1504  0.4225  0.4046
 5816SOL     OW23029   5.025   3.006   1.539 -1.0250  0.5104 -0.3611
 5816SOL    HW223030   5.105   3.058   1.529 -0.2388 -0.7710 -0.9066
 5816SOL    HW323031   4.977   3.051   1.608 -0.2017  1.7536 -0.5561
 5816SOL    MW423032   5.029   3.019   1.547  0.3792  0.0479 -0.5727
 5817SOL     OW23033   6.134   3.802   4.392  0.7535 -0.1678  0.0914
 5817SOL    HW223034   6.164   3.851   4.467 -0.2741  0.4103  0.1369
 5817SOL    HW323035   6.040   3.788   4.407  0.4983  0.0853 -1.1399
 5817SOL    MW423036   6.125   3.806   4.404  0.5813  0.2792  0.2618
 5818SOL     OW23037   0.859   3.928   0.147  0.2421 -0.4940 -0.2660
 5818SOL    HW223038   0.953   3.919   0.134  0.8481  1.7435  1.7641
 5818SOL    HW323039   0.832   3.996   0.086  0.7641  1.5489  1.6591
 5818SOL    MW423040   0.868   3.936   0.137  0.1911  0.3253 -0.2845
 5819SOL     OW23041   4.731   6.029   2.040 -0.0716  0.2256  0.0002
 5819SOL    HW223042   4.819   6.010   2.010 -0.0759  1.3493 -0.7868
 5819SOL    HW323043   4.683   6.056   1.962 -0.5366  1.6102  0.7181
 5819SOL    MW423044   4.736   6.030   2.026  0.2937 -0.1259  0.3051
 5820SOL     OW23045   1.470   1.247   5.833  0.8545 -0.0497  0.4402
 5820SOL    HW223046   1.442   1.318   5.775 -1.4172  0.6696  2.2744
 5820SOL    HW323047   1.536   1.200   5.782 -1.8116 -0.2617 -3.2727
 5820SOL    MW423048   1.475   1.250   5.818  0.4145 -0.0766  0.0161
 5821SOL     OW23049   2.020   1.621   5.743  0.0897  0.1319  0.0082
 5821SOL    HW223050   2.054   1.676   5.672  0.4169  0.6794  0.5794
 5821SOL    HW323051   1.930   1.650   5.755 -0.1140 -0.2673 -0.4671
 5821SOL    MW423052   2.013   1.632   5.735  0.8880 -0.2532  0.0572
 5822SOL     OW23053   5.059   2.412   0.792 -0.3456 -0.4539 -0.4518
 5822SOL    HW223054   4.976   2.457   0.774 -0.3786 -0.5512 -0.5448
 5822SOL    HW323055   5.105   2.413   0.708 -0.6174 -1.1569 -0.6129
 5822SOL    MW423056   5.054   2.418   0.778  0.8697  0.2696 -0.1572
 5823SOL     OW23057   1.231   1.228   2.584  0.0860 -0.1510 -0.3022
 5823SOL    HW223058   1.257   1.252   2.673 -0.9078 -1.2461  0.3010
 5823SOL    HW323059   1.164   1.293   2.560  0.3212  0.1161 -0.2403
 5823SOL    MW423060   1.225   1.240   2.592  0.0386 -0.3315 -0.1638
 5824SOL     OW23061   5.169   2.814   6.282 -0.7638  1.1226  0.2951
 5824SOL    HW223062   5.245   2.872   6.286 -0.6786  0.9699  0.9929
 5824SOL    HW323063   5.195   2.736   6.332  0.3970 -1.0439 -3.2709
 5824SOL    MW423064   5.182   2.811   6.289  0.1808 -0.3631  0.0639
 5825SOL     OW23065   2.758   1.565   4.367 -0.0415 -0.1664  0.3865
 5825SOL    HW223066   2.734   1.647   4.412  3.0096  0.7364  0.5936
 5825SOL    HW323067   2.719   1.496   4.421 -2.7775  1.0768  0.1589
 5825SOL    MW423068   2.749   1.567   4.380  0.2962  0.5142 -0.6280
 5826SOL     OW23069   2.272   3.612   3.641 -0.8446 -0.1321 -0.4357
 5826SOL    HW223070   2.191   3.654   3.670 -1.3069  0.1008 -1.9799
 5826SOL    HW323071   2.259   3.596   3.548  1.1237  0.4758 -0.8606
 5826SOL    MW423072   2.259   3.615   3.633  0.1194 -0.2223  0.4856
 5827SOL     OW23073   2.042   2.534   5.361 -0.3146  0.2588 -0.0642
 5827SOL    HW223074   2.067   2.604   5.301  0.4130 -0.4948 -0.6710
 5827SOL    HW323075   2.016   2.579   5.441 -0.4813  1.2438 -0.6568
 5827SOL    MW423076   2.042   2.549   5.363 -0.0035 -0.3395  0.1363
 5828SOL     OW23077   1.803   2.324   6.044 -0.0062  0.4414 -0.0813
 5828SOL    HW223078   1.825   2.271   6.121 -0.8984 -0.2197 -0.2762
 5828SOL    HW323079   1.877   2.384   6.035  1.0696 -0.8194  0.0931
 5828SOL    MW423080   1.816   2.325   6.053  0.2508 -0.9056 -0.5050
 5829SOL     OW23081   5.816   3.584   3.296 -0.3070 -0.2487  0.2288
 5829SOL    HW223082   5.798   3.564   3.204 -0.3179  0.7078  0.0045
 5829SOL    HW323083   5.734   3.622   3.328 -1.0134 -2.4555  1.2366
 5829SOL    MW423084   5.803   3.587   3.288  0.4738 -0.1865 -0.3080
 5830SOL     OW23085   3.792   2.451   1.922 -0.2742  0.3308  0.1088
 5830SOL    HW223086   3.848   2.375   1.911  1.2933  0.8426  3.3474
 5830SOL    HW323087   3.811   2.507   1.846  1.6493 -0.6695 -0.1976
 5830SOL    MW423088   3.802   2.448   1.910 -0.2895  0.0932 -0.0119
 5831SOL     OW23089   0.141   4.411   0.319  0.5746 -0.6505 -0.2140
 5831SOL    HW223090   0.140   4.363   0.235 -0.6726 -0.9694 -0.0409
 5831SOL    HW323091   0.141   4.342   0.385  1.2434 -0.3938  0.0602
 5831SOL    MW423092   0.141   4.395   0.316  0.0545  0.3616 -0.0141
 5832SOL     OW23093   6.413   1.200   6.175 -0.4362  0.3343 -0.2393
 5832SOL    HW223094   6.449   1.246   6.251 -1.0710 -0.2735  0.4474
 5832SOL    HW323095   6.482   1.141   6.146 -0.5154 -0.0917  0.4352
 5832SOL    MW423096   6.427   1.198   6.181 -0.2660 -0.1048  0.3157
 5833SOL     OW23097   2.766   4.123   0.905 -0.0215  0.1695 -0.9636
 5833SOL    HW223098   2.771   4.165   0.819  1.2479  1.3982 -0.3246
 5833SOL    HW323099   2.717   4.185   0.959 -0.3920 -0.3686 -0.6848
 5833SOL    MW423100   2.760   4.137   0.901 -0.4996 -0.7117  0.7492
 5834SOL     OW23101   3.997   2.675   0.506 -0.0496  0.1279  0.2579
 5834SOL    HW223102   4.008   2.635   0.593 -1.2305  0.3173  0.5068
 5834SOL    HW323103   3.903   2.687   0.497  0.0319 -0.1806 -1.1938
 5834SOL    MW423104   3.986   2.671   0.516  0.1018  0.5234 -0.0409
 5835SOL     OW23105   1.260   4.894   6.004 -0.4930  0.2226 -0.8405
 5835SOL    HW223106   1.204   4.861   5.933  0.8029 -1.9438 -0.9320
 5835SOL    HW323107   1.235   4.842   6.080  0.3032  0.3196 -0.5061
 5835SOL    MW423108   1.249   4.883   6.005  0.1267 -0.1495  0.1024
 5836SOL     OW23109   1.590   0.485   1.700  0.7590 -0.6081 -0.1386
 5836SOL    HW223110   1.608   0.534   1.779 -0.8605 -1.0073  0.5124
 5836SOL    HW323111   1.647   0.524   1.634  1.1279  0.6378  0.8850
 5836SOL    MW423112   1.600   0.497   1.701  0.4361  0.4955 -0.9098
 5837SOL     OW23113   6.054   1.732   2.527  0.5420  0.5525 -0.3791
 5837SOL    HW223114   5.973   1.704   2.485  1.3404  0.2758 -1.7657
 5837SOL    HW323115   6.124   1.702   2.469  1.7994 -1.2189  1.8631
 5837SOL    MW423116   6.052   1.724   2.514 -0.1429  0.1099  0.0743
 5838SOL     OW23117   1.458   1.247   0.369  0.2248  0.3643 -0.1979
 5838SOL    HW223118   1.441   1.185   0.298  0.4643  0.1459 -0.0668
 5838SOL    HW323119   1.534   1.297   0.340 -0.5083  1.2145 -0.7010
 5838SOL    MW423120   1.466   1.246   0.356  0.0437 -0.1642 -0.8004
 5839SOL     OW23121   3.210   1.809   3.409  0.1679  0.2469  0.8646
 5839SOL    HW223122   3.290   1.811   3.356  0.1617  0.7558  0.8686
 5839SOL    HW323123   3.242   1.816   3.499  0.1044  0.7238  0.8504
 5839SOL    MW423124   3.225   1.810   3.414  0.0150 -0.5026 -0.1404
 5840SOL     OW23125   0.448   2.549   3.723 -0.5941 -0.5488  0.0451
 5840SOL    HW223126   0.417   2.546   3.632 -4.2938 -0.7579  1.1712
 5840SOL    HW323127   0.392   2.614   3.766  2.1100  0.7452  1.9173
 5840SOL    MW423128   0.437   2.557   3.717  0.0166  0.1072 -0.1648
 5841SOL     OW23129   5.780   0.795   4.178 -0.2023  0.1024  0.2563
 5841SOL    HW223130   5.689   0.820   4.192 -0.9382 -1.3745 -1.4964
 5841SOL    HW323131   5.811   0.766   4.264 -2.4814 -2.5585  0.3423
 5841SOL    MW423132   5.772   0.794   4.191 -0.1655 -0.1147  0.0014
 5842SOL     OW23133   2.700   3.921   5.686  0.0475  0.3307  0.7080
 5842SOL    HW223134   2.785   3.934   5.644  0.0747  3.1283  1.4902
 5842SOL    HW323135   2.662   3.847   5.638  2.7093 -0.7721  0.0857
 5842SOL    MW423136   2.707   3.913   5.674 -0.6104  0.5575  0.5257
 5843SOL     OW23137   1.646   1.153   1.248 -0.2039 -0.1546 -0.0057
 5843SOL    HW223138   1.558   1.152   1.285 -0.4534  1.5149 -0.4618
 5843SOL    HW323139   1.636   1.194   1.163  1.4581  3.6110  1.3783
 5843SOL    MW423140   1.633   1.158   1.242  0.1472  0.0875 -0.0295
 5844SOL     OW23141   3.497   2.735   4.862 -0.1956  0.1159 -0.0730
 5844SOL    HW223142   3.502   2.758   4.769 -0.2373  0.6742  0.0594
 5844SOL    HW323143   3.581   2.693   4.881  0.3607  1.2351 -0.0378
 5844SOL    MW423144   3.508   2.732   4.852 -0.2614 -0.6027  0.0717
 5845SOL     OW23145   3.803   2.292   0.077  0.1620 -0.2086 -0.1188
 5845SOL    HW223146   3.858   2.362   0.042 -0.5855  1.2370  1.4485
 5845SOL    HW323147   3.853   2.257   0.150  0.4263 -1.1859 -0.7499
 5845SOL    MW423148   3.817   2.297   0.082  0.2612  0.0875 -0.3158
 5846SOL     OW23149   0.193   3.605   4.431 -0.5902  0.2136  0.5070
 5846SOL    HW223150   0.246   3.683   4.413 -1.8888  1.4671  1.8531
 5846SOL    HW323151   0.258   3.536   4.448  0.6512  1.6114  1.7960
 5846SOL    MW423152   0.209   3.606   4.431  0.0367 -0.1483 -1.0567
 5847SOL     OW23153   1.459   5.773   2.789 -0.1447  0.2114 -0.2882
 5847SOL    HW223154   1.531   5.755   2.729 -1.3483 -1.0426 -1.4504
 5847SOL    HW323155   1.413   5.847   2.751 -0.2745  0.1156 -0.3195
 5847SOL    MW423156   1.462   5.780   2.776 -0.1928  0.0669 -0.5540
 5848SOL     OW23157   3.549   3.382   4.000 -0.2944 -0.5670  0.6533
 5848SOL    HW223158   3.625   3.332   3.970  0.8778  0.5197  1.6454
 5848SOL    HW323159   3.582   3.471   4.010 -2.3245  0.4504 -1.1096
 5848SOL    MW423160   3.563   3.387   3.998  0.4795 -0.2224  0.4905
 5849SOL     OW23161   0.338   5.185   2.332 -0.2428  0.3382  0.1055
 5849SOL    HW223162   0.386   5.253   2.380  1.3765  0.9209 -2.1509
 5849SOL    HW323163   0.311   5.227   2.250 -3.5982 -0.3769  0.6969
 5849SOL    MW423164   0.341   5.199   2.327 -0.2135  0.1091 -0.1971
 5850SOL     OW23165   3.424   2.417   3.211 -0.3228 -0.0295 -0.3345
 5850SOL    HW223166   3.419   2.355   3.283  1.9711 -0.5457 -0.5414
 5850SOL    HW323167   3.451   2.500   3.252  2.8076 -0.7433 -0.6441
 5850SOL    MW423168   3.427   2.420   3.226  0.9805 -0.2708 -0.0164
 5851SOL     OW23169   6.219   1.779   2.946  0.3453  0.3731 -0.6081
 5851SOL    HW223170   6.275   1.702   2.938  2.3997  1.8037 -0.6308
 5851SOL    HW323171   6.140   1.756   2.896 -0.4259 -2.7712  1.7153
 5851SOL    MW423172   6.216   1.765   2.938 -0.0175 -0.0721 -0.3737
 5852SOL     OW23173   0.993   3.772   4.499 -0.3323 -0.0990 -0.1535
 5852SOL    HW223174   1.002   3.677   4.506 -1.0528 -0.2013 -0.5329
 5852SOL    HW323175   0.931   3.795   4.569 -2.7246 -0.3449 -2.0634
 5852SOL    MW423176   0.986   3.762   4.509 -0.3609 -0.1297 -0.4674
 5853SOL     OW23177   3.803   1.933   3.884 -0.3538  0.0765  0.3496
 5853SOL    HW223178   3.871   1.975   3.937  0.5318 -1.0391  0.1292
 5853SOL    HW323179   3.726   1.990   3.895  1.2334  2.7620 -1.3737
 5853SOL    MW423180   3.802   1.946   3.893  0.5156 -0.3864 -0.7190
 5854SOL     OW23181   0.372   2.511   5.929 -0.3967  0.2752  0.2661
 5854SOL    HW223182   0.292   2.501   5.981 -1.2715  0.8938 -0.9151
 5854SOL    HW323183   0.343   2.556   5.849  0.8205 -1.1059 -0.9974
 5854SOL    MW423184   0.358   2.516   5.925 -0.4459 -0.0290 -0.3000
 5855SOL     OW23185   0.216   1.541   0.605  0.6440 -0.2541 -0.4727
 5855SOL    HW223186   0.288   1.483   0.580  0.0417 -0.6166 -1.4025
 5855SOL    HW323187   0.210   1.604   0.533 -1.6157 -1.7813 -1.7437
 5855SOL    MW423188   0.225   1.542   0.592 -0.5816  0.4707 -0.2084
 5856SOL     OW23189   0.227   6.377   0.075  0.1712 -0.1075  0.0505
 5856SOL    HW223190   0.211   6.468   0.102  1.1292  0.5865 -1.5899
 5856SOL    HW323191   0.140   6.338   0.069 -0.2656  0.7526  0.5915
 5856SOL    MW423192   0.213   6.384   0.078 -0.3620  0.7275  0.0936
 5857SOL     OW23193   0.672   0.690   6.235  0.0977  0.2483 -0.5673
 5857SOL    HW223194   0.581   0.695   6.264  0.4215 -2.2177  1.2048
 5857SOL    HW323195   0.721   0.737   6.303  0.2819  0.3668 -0.7800
 5857SOL    MW423196   0.667   0.697   6.248 -0.5421  0.0424 -0.0799
 5858SOL     OW23197   3.767   4.401   0.969  0.3015  0.6534 -0.3256
 5858SOL    HW223198   3.826   4.472   0.992 -0.3695  0.4203  2.6309
 5858SOL    HW323199   3.681   4.442   0.960  0.2444  0.4829 -0.5698
 5858SOL    MW423200   3.764   4.416   0.971  0.0609  0.5386 -0.0900
 5859SOL     OW23201   0.832   5.972   2.920  0.1091 -0.0186  0.0955
 5859SOL    HW223202   0.776   6.049   2.931 -0.4754 -0.6101  1.7672
 5859SOL    HW323203   0.784   5.916   2.859  0.3656  0.7842 -0.8459
 5859SOL    MW423204   0.818   5.974   2.914 -0.2247 -0.6953 -0.1803
 5860SOL     OW23205   4.804   4.993   1.814  0.5794 -0.3432  0.6392
 5860SOL    HW223206   4.745   5.067   1.823 -0.6986 -1.1119 -0.9549
 5860SOL    HW323207   4.787   4.938   1.890  0.1594  0.0545  0.8331
 5860SOL    MW423208   4.794   4.995   1.825  0.4254 -0.2041  0.7845
 5861SOL     OW23209   0.928   0.695   4.400 -0.2596 -0.0186 -0.3197
 5861SOL    HW223210   1.008   0.738   4.370 -0.4003  0.3794 -0.1294
 5861SOL    HW323211   0.938   0.604   4.372  0.6020 -0.1472  0.3721
 5861SOL    MW423212   0.939   0.689   4.393  0.3148 -0.5669 -0.5626
 5862SOL     OW23213   3.822   4.452   1.814  0.0177 -0.1228  0.3047
 5862SOL    HW223214   3.836   4.533   1.863  0.9676 -0.8365  1.2489
 5862SOL    HW323215   3.902   4.441   1.762  0.3426 -0.9895  0.9736
 5862SOL    MW423216   3.835   4.461   1.813  0.3483 -0.4726  0.0867
 5863SOL     OW23217   5.798   1.422   0.120 -0.2471 -0.1344  0.3758
 5863SOL    HW223218   5.751   1.349   0.160 -0.2641  0.1993  0.9957
 5863SOL    HW323219   5.805   1.400   0.028  0.6561 -1.4062  0.7283
 5863SOL    MW423220   5.793   1.410   0.113 -0.0209  0.3884 -0.2280
 5864SOL     OW23221   0.151   2.411   6.054  0.3389 -0.4279 -0.4270
 5864SOL    HW223222   0.140   2.346   5.985  1.1672 -1.0686  0.0228
 5864SOL    HW323223   0.062   2.437   6.077 -0.0033 -1.2928 -0.7275
 5864SOL    MW423224   0.138   2.406   6.048 -0.0805  0.0603 -0.3166
 5865SOL     OW23225   3.858   4.134   1.974  0.1961  0.2706  0.4585
 5865SOL    HW223226   3.928   4.146   1.910 -0.6094 -0.6327 -0.6409
 5865SOL    HW323227   3.777   4.148   1.924 -0.6939 -4.6378  0.0248
 5865SOL    MW423228   3.857   4.137   1.959 -0.2653 -0.0650  0.2294
 5866SOL     OW23229   4.625   0.710   2.014 -0.1474 -0.6226 -0.0041
 5866SOL    HW223230   4.693   0.725   1.947 -0.6125  0.0223 -0.3432
 5866SOL    HW323231   4.567   0.645   1.975 -0.7216  0.1507 -0.4666
 5866SOL    MW423232   4.627   0.704   2.000  0.4244  0.3512  0.1943
 5867SOL     OW23233   1.589   0.625   2.484 -0.3322  0.0738 -0.3832
 5867SOL    HW223234   1.664   0.596   2.535  0.0653 -0.0481 -1.0228
 5867SOL    HW323235   1.562   0.548   2.435  0.0903  0.4874 -1.3121
 5867SOL    MW423236   1.596   0.611   2.484 -0.9571 -0.4977 -0.1737
 5868SOL     OW23237   5.824   2.385   2.519 -0.1516 -0.1210  0.2140
 5868SOL    HW223238   5.838   2.321   2.588  0.2833  0.7396  0.9454
 5868SOL    HW323239   5.912   2.408   2.489  0.0293  2.6996  2.4033
 5868SOL    MW423240   5.837   2.380   2.524 -0.0432  0.2071 -0.1571
 5869SOL     OW23241   0.777   6.120   2.354 -0.1545  0.5030  0.2748
 5869SOL    HW223242   0.786   6.111   2.449  0.5011  1.3236  0.3022
 5869SOL    HW323243   0.825   6.200   2.333 -1.6102  1.1944 -0.5507
 5869SOL    MW423244   0.785   6.129   2.364  0.2137  0.1004 -0.1225
 5870SOL     OW23245   2.658   5.829   5.633 -0.6043  0.1964 -0.1329
 5870SOL    HW223246   2.690   5.807   5.545  1.9876 -0.2746  0.8593
 5870SOL    HW323247   2.601   5.756   5.657  1.0150 -1.1596 -0.3024
 5870SOL    MW423248   2.655   5.817   5.624 -0.0119 -0.6591  0.0829
 5871SOL     OW23249   0.176   5.860   2.712  0.3072  0.4052 -0.0755
 5871SOL    HW223250   0.088   5.892   2.693 -0.1633  0.1662  1.5695
 5871SOL    HW323251   0.183   5.862   2.807  1.1768 -1.9459 -0.0219
 5871SOL    MW423252   0.165   5.864   2.722 -0.1434 -0.0368 -0.1493
 5872SOL     OW23253   5.333   4.036   0.533 -0.0307  0.1012  0.4807
 5872SOL    HW223254   5.281   4.063   0.457  0.0141 -0.0889  0.3819
 5872SOL    HW323255   5.269   3.998   0.594  0.0644 -0.6162  0.1361
 5872SOL    MW423256   5.318   4.035   0.531 -0.1453 -1.0565 -0.1348
 5873SOL     OW23257   1.963   4.125   1.769 -0.7266  0.1621  0.8867
 5873SOL    HW223258   1.933   4.214   1.786 -1.0127  0.5173 -1.2042
 5873SOL    HW323259   2.033   4.136   1.705 -2.7725 -1.2285 -1.7764
 5873SOL    MW423260   1.969   4.139   1.763  0.1294  0.5716 -0.6015
 5874SOL     OW23261   5.158   0.610   3.795 -0.3282  0.3386 -0.3471
 5874SOL    HW223262   5.195   0.690   3.833 -1.2010  1.0887 -0.9970
 5874SOL    HW323263   5.082   0.590   3.851 -0.4001  0.2539 -0.4742
 5874SOL    MW423264   5.153   0.618   3.807  0.2887  0.1191  0.3932
 5875SOL     OW23265   3.882   4.376   2.124  0.4927  0.1606 -0.0849
 5875SOL    HW223266   3.790   4.385   2.097  0.5396  0.7930 -0.0672
 5875SOL    HW323267   3.906   4.288   2.098 -0.2779 -0.2071  0.3909
 5875SOL    MW423268   3.873   4.366   2.117  0.1747  0.4754 -0.0119
 5876SOL     OW23269   6.378   4.744   4.025 -0.0815 -0.6212 -0.8103
 5876SOL    HW223270   6.412   4.808   3.962  0.6014  0.4560  0.5988
 5876SOL    HW323271   6.327   4.796   4.087  1.5889 -1.1887  1.1506
 5876SOL    MW423272   6.376   4.759   4.025  0.3500 -0.4111 -0.4649
 5877SOL     OW23273   5.649   1.498   5.895  0.7911  0.1357 -0.5193
 5877SOL    HW223274   5.653   1.474   5.802 -2.0318 -1.2090 -0.3956
 5877SOL    HW323275   5.725   1.556   5.908  0.1434  2.1162 -4.1503
 5877SOL    MW423276   5.660   1.503   5.884 -0.0877  0.1133  0.1700
 5878SOL     OW23277   1.318   2.484   4.828 -1.0183  0.4898  0.0104
 5878SOL    HW223278   1.371   2.500   4.906 -0.4039  1.7185 -0.6314
 5878SOL    HW323279   1.228   2.476   4.860 -0.6644  0.0646  0.9230
 5878SOL    MW423280   1.313   2.485   4.842  0.4153 -0.5480 -0.3036
 5879SOL     OW23281   4.838   1.421   2.266 -0.1527  0.0990  0.2398
 5879SOL    HW223282   4.806   1.403   2.355 -1.1491 -1.8104 -0.4585
 5879SOL    HW323283   4.760   1.443   2.216  0.3567  0.7631 -0.2887
 5879SOL    MW423284   4.824   1.422   2.271  0.3654 -0.1637  0.1610
 5880SOL     OW23285   1.052   1.920   2.001 -0.2219  0.0977 -0.4394
 5880SOL    HW223286   0.960   1.893   1.996  0.0756 -1.1743  0.4809
 5880SOL    HW323287   1.084   1.913   1.911 -0.5262 -1.3260 -0.4512
 5880SOL    MW423288   1.044   1.916   1.989  0.1633  0.4112 -0.5064
 5881SOL     OW23289   1.682   2.934   0.097 -0.4883  0.1983 -0.1224
 5881SOL    HW223290   1.652   2.863   0.154  0.5758 -0.1047  0.0937
 5881SOL    HW323291   1.720   2.998   0.157 -1.5906  1.0508 -0.3023
 5881SOL    MW423292   1.683   2.933   0.113  1.0706  0.1496 -0.5078
 5882SOL     OW23293   4.123   4.375   2.446 -0.5065  0.5389 -0.0414
 5882SOL    HW223294   4.046   4.319   2.448  0.5153 -1.0457 -1.4084
 5882SOL    HW323295   4.104   4.440   2.378  0.4241 -1.6990 -2.6362
 5882SOL    MW423296   4.111   4.376   2.437  0.2220 -0.3136  0.2568
 5883SOL     OW23297   4.621   2.338   3.803  0.2772  0.0703  0.3552
 5883SOL    HW223298   4.583   2.392   3.872  1.9278  2.0481 -0.1688
 5883SOL    HW323299   4.689   2.393   3.764 -1.5495 -0.2424 -3.9106
 5883SOL    MW423300   4.625   2.353   3.807  0.0848  0.7174  0.5980
 5884SOL     OW23301   4.912   0.093   0.705  0.1688 -0.1017  0.1975
 5884SOL    HW223302   4.956   0.078   0.789  0.4904  0.2982  0.1030
 5884SOL    HW323303   4.965   0.043   0.643  0.8123  0.8061 -0.0013
 5884SOL    MW423304   4.925   0.084   0.708 -0.1318 -0.2323  0.0732
 5885SOL     OW23305   0.173   5.572   1.625  0.1956  0.3985  0.3924
 5885SOL    HW223306   0.255   5.523   1.631 -0.1778 -0.6847 -2.1307
 5885SOL    HW323307   0.112   5.524   1.681  0.2272 -1.2490 -0.9153
 5885SOL    MW423308   0.176   5.559   1.633  0.0428 -0.0497 -0.2777
 5886SOL     OW23309   1.825   0.914   0.805 -0.2798  0.6484  0.3174
 5886SOL    HW223310   1.761   0.974   0.843 -1.1073  0.0317 -0.0732
 5886SOL    HW323311   1.809   0.831   0.850 -1.6050 -0.2347 -1.6356
 5886SOL    MW423312   1.814   0.911   0.816  0.1809  0.2063  0.0161
 5887SOL     OW23313   2.934   1.505   1.204 -0.0673  0.0441  0.0398
 5887SOL    HW223314   2.965   1.595   1.220 -1.5445  0.1368  3.2065
 5887SOL    HW323315   2.993   1.450   1.255  1.2208 -0.9695 -2.3814
 5887SOL    MW423316   2.946   1.510   1.213  0.0504 -0.0989 -0.5756
 5888SOL     OW23317   1.290   0.024   2.153  0.1090  0.0958  0.1193
 5888SOL    HW223318   1.350   0.016   2.079 -0.9177  0.0006 -0.7274
 5888SOL    HW323319   1.252  -0.063   2.164 -0.6016  0.3796 -0.0041
 5888SOL    MW423320   1.293   0.012   2.145  0.5227 -0.2206 -0.1127
 5889SOL     OW23321   1.030   2.675   2.784  0.0455 -0.4314  0.0578
 5889SOL    HW223322   0.954   2.714   2.741  0.9180 -0.0625 -1.2086
 5889SOL    HW323323   1.019   2.581   2.772  1.0731 -0.3138 -2.5332
 5889SOL    MW423324   1.019   2.668   2.777  0.3839 -0.0158 -0.1609
 5890SOL     OW23325   0.842   4.882   5.548 -0.0347  0.3674 -0.0147
 5890SOL    HW223326   0.866   4.972   5.570  2.5641 -0.0069 -0.9137
 5890SOL    HW323327   0.756   4.890   5.506  0.2948  2.4919 -0.4241
 5890SOL    MW423328   0.834   4.895   5.545  0.0318 -0.2171  0.4258
 5891SOL     OW23329   1.499   1.141   2.504  0.4004  0.2709  0.3290
 5891SOL    HW223330   1.556   1.210   2.539  0.3314  0.1638  0.6537
 5891SOL    HW323331   1.410   1.172   2.521  0.3692 -0.2562  1.1982
 5891SOL    MW423332   1.495   1.155   2.511 -0.1088 -1.2281 -0.2835
 5892SOL     OW23333   3.063   0.876   2.497  0.0022  0.0708  0.0840
 5892SOL    HW223334   3.110   0.939   2.443 -0.0616  0.9742  1.0407
 5892SOL    HW323335   3.124   0.802   2.506  0.4856  0.4216 -0.2330
 5892SOL    MW423336   3.077   0.875   2.491 -0.1064  0.2492  0.1889
 5893SOL     OW23337   5.548   2.993   5.682 -0.1721  0.1113 -0.1097
 5893SOL    HW223338   5.552   2.951   5.767  1.4167  1.6021  0.6064
 5893SOL    HW323339   5.640   3.007   5.657 -0.5928 -0.0631 -1.9694
 5893SOL    MW423340   5.561   2.989   5.690  0.6267  0.1718 -0.4059
 5894SOL     OW23341   6.169   3.769   2.280  0.0636 -0.8721  0.3601
 5894SOL    HW223342   6.222   3.693   2.254  0.0372 -0.5751 -0.6060
 5894SOL    HW323343   6.120   3.739   2.357  0.4510 -1.6598  0.3089
 5894SOL    MW423344   6.169   3.755   2.287 -0.2539 -0.7932  0.6539
 5895SOL     OW23345   2.631   4.942   3.142 -0.7074 -0.0464  0.5754
 5895SOL    HW223346   2.693   5.015   3.141  0.7987 -1.2576 -1.5505
 5895SOL    HW323347   2.624   4.918   3.235  0.2151  1.5804  1.0993
 5895SOL    MW423348   2.639   4.948   3.154  0.8525 -0.2440 -0.2028
 5896SOL     OW23349   0.051   0.620   3.334 -0.1542 -0.1518  0.5419
 5896SOL    HW223350   0.124   0.682   3.334 -0.0362 -0.2321 -1.3102
 5896SOL    HW323351   0.087   0.540   3.372  0.6068 -0.0595  0.0317
 5896SOL    MW423352   0.065   0.618   3.339  0.1230 -0.1172  0.3678
 5897SOL     OW23353   3.400   5.018   4.500 -0.4581  0.4814  0.0893
 5897SOL    HW223354   3.313   5.014   4.461  0.2381 -1.2925 -1.4288
 5897SOL    HW323355   3.400   4.952   4.568  0.2885 -1.0610 -1.3355
 5897SOL    MW423356   3.389   5.009   4.504  0.1102 -0.3333  0.1839
 5898SOL     OW23357   6.140   0.892   4.645 -0.6111 -0.1447  0.6762
 5898SOL    HW223358   6.177   0.974   4.677 -1.6443  1.0681 -1.1071
 5898SOL    HW323359   6.081   0.864   4.715 -3.3691  2.8089 -0.2069
 5898SOL    MW423360   6.137   0.899   4.658 -0.1976 -0.0033 -1.0753
 5899SOL     OW23361   3.343   0.268   2.474 -0.4528  0.5921 -0.4292
 5899SOL    HW223362   3.409   0.300   2.535 -0.0809 -0.1983 -0.4080
 5899SOL    HW323363   3.363   0.312   2.391 -0.8660  1.5478 -0.0421
 5899SOL    MW423364   3.354   0.278   2.471 -0.0213  0.7280 -0.4153
 5900SOL     OW23365   3.401   5.079   3.402  0.0372 -0.2012  0.1799
 5900SOL    HW223366   3.321   5.128   3.382  0.5845  0.8338  0.4406
 5900SOL    HW323367   3.371   4.999   3.444 -0.8399  0.5014  0.9225
 5900SOL    MW423368   3.387   5.075   3.405 -0.2788  0.4753  0.2829
 5901SOL     OW23369   4.233   6.185   3.340  0.4197 -0.4051  0.1532
 5901SOL    HW223370   4.262   6.206   3.429 -0.0983 -3.9802  1.2983
 5901SOL    HW323371   4.138   6.188   3.344  0.3781  1.2519 -0.8825
 5901SOL    MW423372   4.225   6.188   3.352 -0.2814 -0.1707 -0.2077
 5902SOL     OW23373   3.119   1.906   0.069 -0.2128 -0.5779 -0.0574
 5902SOL    HW223374   3.070   1.977   0.028 -1.5447 -1.6398 -0.3682
 5902SOL    HW323375   3.135   1.937   0.159 -1.6905 -0.2956  0.1349
 5902SOL    MW423376   3.114   1.919   0.076  0.6436 -0.1863  0.1931
 5903SOL     OW23377   6.004   1.484   0.263  0.5949  0.2373  0.2394
 5903SOL    HW223378   5.925   1.456   0.217  0.2635  0.1616  0.8548
 5903SOL    HW323379   6.010   1.578   0.243  0.1872  0.3072  0.4344
 5903SOL    MW423380   5.994   1.493   0.254  0.2210 -0.4481  0.1005
 5904SOL     OW23381   0.951   6.341   6.198  0.0047  0.2719 -0.1567
 5904SOL    HW223382   0.915   6.282   6.131  1.0547 -1.0399  0.3954
 5904SOL    HW323383   1.023   6.386   6.154 -0.2831  0.5547 -0.3438
 5904SOL    MW423384   0.956   6.339   6.183  0.3140 -0.4145  0.7065
 5905SOL     OW23385   0.680   3.872   5.353 -0.4617  0.3327  0.5402
 5905SOL    HW223386   0.706   3.822   5.430  0.0549 -2.3763 -1.2595
 5905SOL    HW323387   0.762   3.889   5.307 -0.9606 -0.2217 -0.5953
 5905SOL    MW423388   0.694   3.868   5.357  0.0360  0.0591 -0.5249
 5906SOL     OW23389   5.407   0.794   2.284  0.2374 -0.4129  0.3912
 5906SOL    HW223390   5.418   0.723   2.220  1.6588  0.9565 -1.0048
 5906SOL    HW323391   5.320   0.829   2.267 -0.0687 -1.1507  0.3982
 5906SOL    MW423392   5.397   0.789   2.273  0.1432 -0.0043 -0.2768
 5907SOL     OW23393   1.630   5.132   2.401 -0.4791 -0.0832  0.6507
 5907SOL    HW223394   1.692   5.169   2.464 -0.3600 -1.5390  1.4234
 5907SOL    HW323395   1.619   5.201   2.336  1.8018  0.2920  0.5891
 5907SOL    MW423396   1.636   5.146   2.401  0.4047  0.2682  0.2653
 5908SOL     OW23397   5.042   4.467   5.439 -0.3247 -0.0493  0.4951
 5908SOL    HW223398   5.021   4.493   5.528 -2.0703 -1.1670  0.4542
 5908SOL    HW323399   5.077   4.378   5.447  3.7497  1.3441  0.4419
 5908SOL    MW423400   5.044   4.459   5.452  0.4505 -0.3249 -0.1752
 5909SOL     OW23401   6.245   1.853   6.089  0.0533  0.0971  0.2546
 5909SOL    HW223402   6.263   1.766   6.126  2.6928  0.4065 -0.0939
 5909SOL    HW323403   6.325   1.902   6.103 -1.0543  2.2135 -0.4005
 5909SOL    MW423404   6.258   1.848   6.096 -0.3360 -0.0636  0.1019
 5910SOL     OW23405   0.318   0.394   5.304  0.3067  0.2341  0.1792
 5910SOL    HW223406   0.300   0.301   5.290 -0.3099  0.0584  1.9212
 5910SOL    HW323407   0.316   0.432   5.216  2.8371 -1.7436 -0.8661
 5910SOL    MW423408   0.316   0.387   5.291  0.3704 -0.6062  0.1739
 5911SOL     OW23409   5.448   0.841   0.554 -0.0743 -0.7714 -0.7479
 5911SOL    HW223410   5.520   0.879   0.504 -0.7174 -0.3265 -1.3665
 5911SOL    HW323411   5.455   0.881   0.641 -0.3938  0.3633 -1.2148
 5911SOL    MW423412   5.458   0.852   0.559 -0.2311 -0.2115  0.0152
 5912SOL     OW23413   2.449   1.488   1.256 -0.6581  0.1261 -0.5524
 5912SOL    HW223414   2.390   1.419   1.286 -0.9830  1.0293  1.0259
 5912SOL    HW323415   2.458   1.545   1.332  0.5294  1.1859 -1.4601
 5912SOL    MW423416   2.442   1.486   1.270 -0.1681  0.9512  0.1254
 5913SOL     OW23417   3.352   0.107   2.792  0.3579 -0.1802  0.0223
 5913SOL    HW223418   3.272   0.132   2.746  1.9190 -0.0136 -2.8800
 5913SOL    HW323419   3.356   0.164   2.868 -2.1762 -0.1186  0.1672
 5913SOL    MW423420   3.342   0.118   2.796  0.5186 -0.0804  0.5153
 5914SOL     OW23421   6.159   2.024   5.481 -0.3801 -0.6347 -0.2508
 5914SOL    HW223422   6.237   2.036   5.426  0.1027 -2.3516  0.0167
 5914SOL    HW323423   6.145   2.110   5.522  0.1239  0.2704 -1.8887
 5914SOL    MW423424   6.167   2.037   5.479 -0.0850 -0.1393 -0.5827
 5915SOL     OW23425   2.447   6.384   4.437 -0.0383 -0.4567  0.2019
 5915SOL    HW223426   2.457   6.358   4.529  3.0658  0.4774  0.2401
 5915SOL    HW323427   2.421   6.303   4.392  1.5686 -1.7498  1.4697
 5915SOL    MW423428   2.445   6.370   4.443 -0.3667  0.2366 -0.3503
 5916SOL     OW23429   5.652   0.816   2.022  0.0531  0.3420  0.0921
 5916SOL    HW223430   5.592   0.881   2.060 -0.0355  0.1267  0.3188
 5916SOL    HW323431   5.681   0.763   2.096 -0.5758 -0.4444 -0.2126
 5916SOL    MW423432   5.648   0.818   2.036 -0.5132 -0.3385  0.7523
 5917SOL     OW23433   3.743   1.527   3.170  0.2613  0.0811  0.1137
 5917SOL    HW223434   3.671   1.501   3.111  2.0020 -2.0543 -1.2472
 5917SOL    HW323435   3.699   1.560   3.248 -2.1800  0.5229 -1.3378
 5917SOL    MW423436   3.728   1.528   3.172  0.0609 -0.0586  0.0832
 5918SOL     OW23437   0.142   2.476   1.458 -0.1558  0.1449  0.4159
 5918SOL    HW223438   0.183   2.556   1.426 -1.0995  0.4605 -0.0344
 5918SOL    HW323439   0.174   2.408   1.400 -0.7844  0.4995 -0.3625
 5918SOL    MW423440   0.151   2.478   1.446 -0.1485 -0.0392 -0.0246
 5919SOL     OW23441   0.932   0.321   6.247  0.4967 -0.4660  0.0859
 5919SOL    HW223442   0.919   0.242   6.299  1.9187 -0.2276  0.8856
 5919SOL    HW323443   0.977   0.381   6.307 -0.0716  0.7511 -0.6706
 5919SOL    MW423444   0.937   0.319   6.262 -0.1092  0.3978  0.1175
 5920SOL     OW23445   4.903   3.853   0.026 -0.5940 -0.3318  0.1859
 5920SOL    HW223446   4.840   3.796  -0.020 -1.7417  0.9422  0.1027
 5920SOL    HW323447   4.944   3.903  -0.044  1.2327 -1.7747  0.1536
 5920SOL    MW423448   4.900   3.852   0.011 -0.6113  0.3790 -0.3091
 5921SOL     OW23449   1.372   3.209   0.868 -0.7151  0.0322 -0.0155
 5921SOL    HW223450   1.313   3.259   0.924  0.4973 -0.1233  1.4733
 5921SOL    HW323451   1.332   3.122   0.863 -0.6610 -0.0555  0.9289
 5921SOL    MW423452   1.359   3.204   0.875  0.1226 -0.1031 -0.1149
 5922SOL     OW23453   5.192   2.032   1.515 -0.5259  0.5416 -0.3257
 5922SOL    HW223454   5.253   1.961   1.535  0.5122  1.6435  0.5668
 5922SOL    HW323455   5.234   2.081   1.445 -0.6064  1.0308 -0.0395
 5922SOL    MW423456   5.205   2.029   1.508  0.7717 -0.4672  0.3671
 5923SOL     OW23457   5.889   0.290   3.436 -0.4467 -0.7067 -0.4248
 5923SOL    HW223458   5.950   0.296   3.510 -1.3983 -1.6198  0.4761
 5923SOL    HW323459   5.872   0.197   3.427 -2.1206 -0.4493 -0.2817
 5923SOL    MW423460   5.895   0.279   3.445 -0.4884 -0.0225 -0.0903
 5924SOL     OW23461   5.928   5.939   0.946  0.2901  0.2057  0.2348
 5924SOL    HW223462   5.908   6.012   1.004  1.9080  0.0727  1.0129
 5924SOL    HW323463   5.886   5.962   0.863  4.5854  4.4903 -1.2199
 5924SOL    MW423464   5.920   5.952   0.943 -0.7252  0.0662 -0.2089
 5925SOL     OW23465   3.762   1.257   1.284  0.2707 -0.3130  0.3391
 5925SOL    HW223466   3.698   1.218   1.224 -0.1396  0.1732  0.4540
 5925SOL    HW323467   3.842   1.208   1.268 -0.5122 -2.0405  1.3353
 5925SOL    MW423468   3.764   1.245   1.274  0.0001  0.3118 -0.0928
 5926SOL     OW23469   2.584   1.015   5.697 -0.2277 -0.5354  0.0734
 5926SOL    HW223470   2.561   1.082   5.761  0.4220  1.1755 -1.3853
 5926SOL    HW323471   2.506   1.007   5.642 -0.4439 -1.3078  0.4704
 5926SOL    MW423472   2.571   1.023   5.698  0.6372 -0.1261 -0.4909
 5927SOL     OW23473   0.726   4.443   6.403  0.0932 -0.0353 -0.0029
 5927SOL    HW223474   0.763   4.494   6.331 -1.6322 -0.3832 -1.1962
 5927SOL    HW323475   0.780   4.465   6.478  0.8417  1.7310 -1.0057
 5927SOL    MW423476   0.738   4.452   6.403  0.2578  0.0965  0.1182
 5928SOL     OW23477   4.119   1.243   3.524 -0.0616 -0.0181  0.1760
 5928SOL    HW223478   4.212   1.223   3.520  0.0220  0.1900  1.0146
 5928SOL    HW323479   4.114   1.331   3.561 -0.6387 -0.5198  1.3277
 5928SOL    MW423480   4.130   1.252   3.528  0.0947 -0.1967  0.5305
 5929SOL     OW23481   4.455   0.908   6.052 -0.0461  0.0864  0.5063
 5929SOL    HW223482   4.390   0.854   6.008  0.4196 -0.9061  1.0001
 5929SOL    HW323483   4.536   0.894   6.002 -0.2812  1.6971 -0.4082
 5929SOL    MW423484   4.457   0.899   6.039 -0.3756  0.4392  0.4920
 5930SOL     OW23485   1.880   3.225   5.229 -0.3939  0.3468 -0.5849
 5930SOL    HW223486   1.939   3.235   5.155  0.1392 -0.2384 -0.2423
 5930SOL    HW323487   1.848   3.136   5.223 -2.0213  0.9442 -1.3255
 5930SOL    MW423488   1.884   3.215   5.219  0.5009  0.1271  0.0137
 5931SOL     OW23489   4.839   5.675   1.886  0.6833 -0.3313  0.4744
 5931SOL    HW223490   4.769   5.725   1.927  0.6002  0.7282 -0.8856
 5931SOL    HW323491   4.919   5.721   1.910  0.8989 -1.2400  1.5921
 5931SOL    MW423492   4.840   5.687   1.895  0.4681  0.2729  0.3226
 5932SOL     OW23493   0.446   6.152   4.056  0.2456  0.4250  0.1995
 5932SOL    HW223494   0.384   6.108   3.998  1.9215 -0.0396 -1.3621
 5932SOL    HW323495   0.416   6.132   4.144 -2.7244  1.5948 -0.4150
 5932SOL    MW423496   0.434   6.144   4.060 -0.6715  0.1012 -0.3015
 5933SOL     OW23497   1.141   0.839   0.335  0.8581  0.3987  0.3527
 5933SOL    HW223498   1.077   0.783   0.377  0.8255  2.3122  3.0901
 5933SOL    HW323499   1.225   0.796   0.351  0.5893 -0.4694 -0.4528
 5933SOL    MW423500   1.144   0.826   0.343  0.0784 -0.6031  0.1921
 5934SOL     OW23501   1.012   4.239   5.431 -0.5633  0.3528  0.2635
 5934SOL    HW223502   1.006   4.230   5.336  2.5285  1.2063 -0.1165
 5934SOL    HW323503   0.925   4.270   5.457 -2.0360 -1.5083 -1.9998
 5934SOL    MW423504   1.000   4.242   5.422  0.8742  0.5291  0.1771
 5935SOL     OW23505   1.074   4.659   1.994  0.2224  0.0495  0.8172
 5935SOL    HW223506   1.168   4.656   1.978 -0.0264  0.2487 -0.8617
 5935SOL    HW323507   1.041   4.575   1.962 -0.3963  0.7346 -0.4065
 5935SOL    MW423508   1.082   4.648   1.988  0.1975 -0.9256 -0.1986
 5936SOL     OW23509   4.467   3.091   6.270 -0.6150 -0.5438  0.0203
 5936SOL    HW223510   4.524   3.105   6.194 -1.5597  0.8602 -0.4735
 5936SOL    HW323511   4.388   3.143   6.250 -1.6578 -1.6588  1.1164
 5936SOL    MW423512   4.464   3.100   6.257 -0.0016  0.3127  0.2691
 5937SOL     OW23513   4.337   4.298   5.330  0.0978  0.1263  0.0663
 5937SOL    HW223514   4.328   4.389   5.302  0.6535  0.9997  2.5329
 5937SOL    HW323515   4.247   4.266   5.339 -0.1119  0.7389  0.1421
 5937SOL    MW423516   4.324   4.306   5.327 -0.0117  0.1932 -0.0609
 5938SOL     OW23517   5.513   3.672   1.827 -0.8689 -0.1091 -0.4883
 5938SOL    HW223518   5.510   3.758   1.784  0.7301  1.3200  2.0439
 5938SOL    HW323519   5.598   3.635   1.802 -0.5778  0.0685  0.2189
 5938SOL    MW423520   5.524   3.678   1.818  0.2603  0.3776  0.0214
 5939SOL     OW23521   3.550   0.763   1.795  0.1846 -0.4176 -0.5848
 5939SOL    HW223522   3.530   0.828   1.728 -1.9884  0.5402  0.9075
 5939SOL    HW323523   3.471   0.710   1.802 -0.1932  0.3735  2.1223
 5939SOL    MW423524   3.537   0.765   1.787 -0.2316 -0.2150 -0.5283
 5940SOL     OW23525   2.682   0.269   4.383 -0.8296 -0.0321  0.0472
 5940SOL    HW223526   2.766   0.270   4.430 -1.5188 -0.2230  1.3338
 5940SOL    HW323527   2.684   0.347   4.328  1.0535 -1.1168 -1.5528
 5940SOL    MW423528   2.693   0.279   4.382 -0.2101  0.8115 -0.3028
 5941SOL     OW23529   5.067   3.350   2.845 -0.3586 -0.6028  0.0819
 5941SOL    HW223530   5.077   3.344   2.750  1.1346 -2.2593  0.2924
 5941SOL    HW323531   5.053   3.443   2.862 -0.8893 -0.3093 -1.7558
 5941SOL    MW423532   5.066   3.362   2.835 -0.2600  0.3067 -0.5338
 5942SOL     OW23533   6.160   2.470   4.476  0.2568  0.0037  0.2256
 5942SOL    HW223534   6.109   2.487   4.397 -0.6318 -0.7119  0.6259
 5942SOL    HW323535   6.200   2.384   4.460  1.1772  0.4553  0.0089
 5942SOL    MW423536   6.159   2.461   4.463  0.4635 -0.2493 -0.2560
 5943SOL     OW23537   0.068   5.471   5.830  0.2991 -0.3486  0.1592
 5943SOL    HW223538   0.027   5.505   5.751 -0.6458  0.8623  1.1338
 5943SOL    HW323539   0.153   5.438   5.800  0.7944  1.8636 -1.0515
 5943SOL    MW423540   0.074   5.471   5.816  0.2795 -0.1851 -0.2142
 5944SOL     OW23541   3.148   4.269   3.482 -0.3259 -0.1577  0.3773
 5944SOL    HW223542   3.086   4.329   3.524 -0.3440 -0.8014  1.2942
 5944SOL    HW323543   3.145   4.190   3.536  0.8450 -0.4172  0.0758
 5944SOL    MW423544   3.139   4.266   3.495 -0.3995 -0.2225  0.1137
 5945SOL     OW23545   2.526   4.990   0.386  0.1031  0.0933 -0.0700
 5945SOL    HW223546   2.537   5.021   0.476 -0.3144  1.9591 -0.6065
 5945SOL    HW323547   2.560   4.901   0.386  0.0448  0.0354  1.9455
 5945SOL    MW423548   2.532   4.982   0.398 -0.6216 -0.3171  0.2325
 5946SOL     OW23549   2.246   1.651   3.434  0.6362  0.4348  0.0385
 5946SOL    HW223550   2.272   1.719   3.372 -2.5977 -0.9938 -3.2955
 5946SOL    HW323551   2.174   1.690   3.483  1.2817  0.6055  0.8680
 5946SOL    MW423552   2.240   1.665   3.432  0.0977  0.5877  0.2875
 5947SOL     OW23553   4.840   1.103   3.570 -0.1898  0.3790 -0.2927
 5947SOL    HW223554   4.828   1.198   3.579  0.3840  0.3873  0.5654
 5947SOL    HW323555   4.775   1.065   3.630 -0.4245  0.2311 -0.6431
 5947SOL    MW423556   4.830   1.110   3.579  0.8715  0.4552 -0.2219
 5948SOL     OW23557   0.852   6.014   0.824  0.0307  0.3603  0.7323
 5948SOL    HW223558   0.824   6.099   0.856  0.9016  0.7128  0.6032
 5948SOL    HW323559   0.837   5.954   0.897  0.8037  0.9106  1.3617
 5948SOL    MW423560   0.846   6.017   0.838  0.4995 -0.4064 -0.2048
 5949SOL     OW23561   0.393   3.757   1.464 -0.6228  0.7725 -0.5314
 5949SOL    HW223562   0.395   3.662   1.455  1.0432  0.5853  1.1164
 5949SOL    HW323563   0.476   3.786   1.427 -0.7422  1.4969 -0.2418
 5949SOL    MW423564   0.404   3.748   1.458 -0.1540  0.0017 -0.1381
 5950SOL     OW23565   4.823   0.838   1.031 -0.0263  0.5079  0.4491
 5950SOL    HW223566   4.802   0.783   0.956  0.4205 -0.5096  1.0402
 5950SOL    HW323567   4.745   0.891   1.046 -0.6627 -0.3504  0.1842
 5950SOL    MW423568   4.810   0.838   1.023  0.1377  0.6746  0.0499
 5951SOL     OW23569   1.975   5.930   2.268  0.0672 -0.3949 -0.4548
 5951SOL    HW223570   1.940   5.870   2.334 -0.5330  0.5636  0.1296
 5951SOL    HW323571   2.062   5.954   2.301  0.1036 -0.5461 -0.4386
 5951SOL    MW423572   1.982   5.925   2.281  0.1323 -0.0413 -0.1564
 5952SOL     OW23573   0.411   1.300   1.301  0.1338 -0.0630  0.1776
 5952SOL    HW223574   0.412   1.392   1.328  2.0554  0.4841 -1.4997
 5952SOL    HW323575   0.364   1.300   1.217  0.0523 -0.6346  0.2179
 5952SOL    MW423576   0.405   1.312   1.293 -0.1719 -0.3070 -0.0130
 5953SOL     OW23577   2.881   5.176   0.053  0.0651  0.0151  0.0690
 5953SOL    HW223578   2.973   5.194   0.074 -0.0308  0.3162  0.2475
 5953SOL    HW323579   2.843   5.263   0.036 -0.5790  0.0882  1.6289
 5953SOL    MW423580   2.888   5.190   0.054 -0.1536 -0.5000 -0.2044
 5954SOL     OW23581   4.412   2.177   0.280  0.0759 -0.0584 -0.6916
 5954SOL    HW223582   4.376   2.153   0.365  1.7749  0.8566  0.3452
 5954SOL    HW323583   4.502   2.204   0.299 -0.3606  2.9474 -2.3559
 5954SOL    MW423584   4.419   2.177   0.294 -0.5393  0.7078 -0.1145
 5955SOL     OW23585   0.601   3.068   1.136 -0.2861  0.1600 -0.4112
 5955SOL    HW223586   0.619   3.082   1.228 -0.5745  0.2072 -0.3614
 5955SOL    HW323587   0.547   2.989   1.133  1.1920 -0.8947 -0.6788
 5955SOL    MW423588   0.597   3.059   1.147 -0.6484  0.0940  0.6388
 5956SOL     OW23589   4.424   3.273   3.856 -0.5209 -0.3462  0.2683
 5956SOL    HW223590   4.395   3.299   3.943 -0.8794 -2.1061  0.7191
 5956SOL    HW323591   4.448   3.181   3.865 -1.1270 -0.7427 -1.6075
 5956SOL    MW423592   4.423   3.264   3.869 -0.5281  0.3412 -0.0373
 5957SOL     OW23593   3.184   6.224   5.334 -0.7561  0.2985  0.2639
 5957SOL    HW223594   3.267   6.188   5.365 -0.9586  1.1813  1.9194
 5957SOL    HW323595   3.135   6.147   5.302  0.1243 -0.4109  0.5867
 5957SOL    MW423596   3.189   6.209   5.334  0.0288 -0.3703 -0.0283
 5958SOL     OW23597   2.268   0.473   0.819 -0.5488 -0.1756  0.5330
 5958SOL    HW223598   2.247   0.426   0.737  1.5787 -0.0237 -0.1636
 5958SOL    HW323599   2.234   0.416   0.888  0.4832 -1.9768 -0.3625
 5958SOL    MW423600   2.261   0.459   0.817  0.3270  0.0204 -0.2417
 5959SOL     OW23601   5.792   3.911   4.065  0.0625  0.1245 -0.5886
 5959SOL    HW223602   5.715   3.862   4.094 -0.6636  0.7484 -1.3788
 5959SOL    HW323603   5.828   3.860   3.993 -0.7073  0.7102 -1.4276
 5959SOL    MW423604   5.786   3.898   4.059 -0.1373 -0.3854  0.3938
 5960SOL     OW23605   2.014   2.014   1.543  0.2304  0.5707  0.2955
 5960SOL    HW223606   2.001   1.920   1.534  1.6210  0.4733 -1.5132
 5960SOL    HW323607   2.022   2.029   1.637 -0.1031 -1.0996  0.6189
 5960SOL    MW423608   2.014   2.004   1.554 -0.2238  0.0238  0.3348
 5961SOL     OW23609   0.768   0.913   2.706  0.0699 -0.4527 -0.3719
 5961SOL    HW223610   0.823   0.987   2.677 -1.0386  0.5477  0.0088
 5961SOL    HW323611   0.736   0.939   2.792  0.6653 -1.9577  0.3459
 5961SOL    MW423612   0.771   0.926   2.713 -0.1479  0.0999 -0.0227
 5962SOL     OW23613   4.410   2.632   0.282  0.8938 -0.3476 -0.2600
 5962SOL    HW223614   4.369   2.575   0.217  0.3700 -0.5364  0.2196
 5962SOL    HW323615   4.483   2.673   0.236 -0.0502  0.2701 -1.2566
 5962SOL    MW423616   4.414   2.630   0.268  0.2216  0.8398 -0.2350
 5963SOL     OW23617   3.463   5.414   0.702  0.3227 -0.0047 -0.2591
 5963SOL    HW223618   3.515   5.442   0.627 -0.3710 -0.6603 -0.9997
 5963SOL    HW323619   3.512   5.343   0.742  0.3134 -0.1801 -0.5623
 5963SOL    MW423620   3.476   5.408   0.697 -0.4525  0.4602  0.0727
 5964SOL     OW23621   2.489   0.899   4.080 -0.5399 -0.8592  0.1650
 5964SOL    HW223622   2.580   0.880   4.104 -0.2548 -0.5455 -0.6460
 5964SOL    HW323623   2.482   0.872   3.989 -0.8506  0.4265 -0.2180
 5964SOL    MW423624   2.500   0.893   4.071 -0.0554 -0.3000  0.2619
 5965SOL     OW23625   5.247   0.693   4.555  0.3960  0.2111 -0.0305
 5965SOL    HW223626   5.291   0.709   4.638  0.7044 -0.6217 -0.0300
 5965SOL    HW323627   5.315   0.657   4.498  0.0881  0.3868 -0.5141
 5965SOL    MW423628   5.261   0.691   4.558  0.0604 -0.1376 -0.3762
 5966SOL     OW23629   3.584   1.992   4.560  0.3076 -0.5502  0.0139
 5966SOL    HW223630   3.630   2.075   4.549 -0.6590  0.2785  1.7893
 5966SOL    HW323631   3.634   1.930   4.507  1.5315  0.9759 -0.7089
 5966SOL    MW423632   3.597   1.995   4.551 -0.3794 -0.4559 -0.0765
 5967SOL     OW23633   5.020   4.744   0.681  0.6760 -0.2234 -0.0932
 5967SOL    HW223634   5.048   4.824   0.727 -0.1328 -0.9241  1.7334
 5967SOL    HW323635   4.973   4.694   0.748 -4.1632  0.4285 -2.5876
 5967SOL    MW423636   5.018   4.748   0.696 -0.1053 -0.1257 -0.3423
 5968SOL     OW23637   1.572   3.061   1.183 -0.5128  0.5701 -0.4892
 5968SOL    HW223638   1.594   3.098   1.098  0.2808 -1.2844 -1.1397
 5968SOL    HW323639   1.656   3.049   1.227 -0.6548 -0.9434 -0.5484
 5968SOL    MW423640   1.586   3.064   1.178  0.0924  0.1282  0.2412
 5969SOL     OW23641   0.172   4.663   0.952  0.5965  0.2502 -0.1018
 5969SOL    HW223642   0.128   4.586   0.914 -1.2617  0.7575  0.8886
 5969SOL    HW323643   0.116   4.736   0.927  1.9085  1.2060 -0.3426
 5969SOL    MW423644   0.159   4.662   0.943 -0.4895 -0.4031  0.0055
 5970SOL     OW23645   1.847   5.553   4.438  0.1676 -0.6203 -0.2500
 5970SOL    HW223646   1.790   5.568   4.362  1.1702  1.7017 -0.5976
 5970SOL    HW323647   1.789   5.512   4.502 -2.2506  2.3954 -0.2528
 5970SOL    MW423648   1.832   5.549   4.436 -0.5219 -0.1727  0.3250
 5971SOL     OW23649   2.582   4.454   2.953  0.3700  0.0795  0.9009
 5971SOL    HW223650   2.632   4.531   2.981  2.0870 -0.9483  0.8260
 5971SOL    HW323651   2.590   4.392   3.025  1.1977 -0.9761 -0.0506
 5971SOL    MW423652   2.590   4.456   2.966  0.2859 -0.2662  0.6591
 5972SOL     OW23653   5.272   1.511   3.934 -0.0924 -0.1003  0.2692
 5972SOL    HW223654   5.307   1.557   4.010 -2.5467  0.4404  1.1970
 5972SOL    HW323655   5.240   1.580   3.877 -1.5253 -0.5246  0.4937
 5972SOL    MW423656   5.272   1.526   3.937  0.3805  0.2299  0.1372
 5973SOL     OW23657   6.158   3.046   3.485 -0.0902 -0.0161 -0.4780
 5973SOL    HW223658   6.097   3.114   3.512  0.3664 -0.2780  1.3646
 5973SOL    HW323659   6.111   2.964   3.502 -0.1059 -0.1931 -1.3327
 5973SOL    MW423660   6.143   3.044   3.491 -0.2617 -0.2334  0.1025
 5974SOL     OW23661   4.924   3.733   3.901 -0.0701  0.0714  0.2461
 5974SOL    HW223662   4.920   3.710   3.994  2.6884 -0.0027  0.4363
 5974SOL    HW323663   4.893   3.655   3.855  0.1388 -0.5178  1.0829
 5974SOL    MW423664   4.920   3.720   3.907 -0.1503  0.6038  0.0580
 5975SOL     OW23665   2.484   3.373   2.121  0.2580  0.1246  0.3287
 5975SOL    HW223666   2.522   3.425   2.051  1.0735  0.2436  0.8529
 5975SOL    HW323667   2.508   3.419   2.202 -2.4080  1.1612  0.6434
 5975SOL    MW423668   2.492   3.386   2.123 -0.3573 -0.1831  0.1380
 5976SOL     OW23669   3.029   5.789   1.635 -0.1441  0.2013 -0.1983
 5976SOL    HW223670   3.007   5.829   1.719  0.7127  0.7290 -0.2053
 5976SOL    HW323671   3.119   5.758   1.647  0.7904  2.2167 -1.5819
 5976SOL    MW423672   3.038   5.790   1.648  0.4485  0.2425 -0.4591
 5977SOL     OW23673   6.090   0.021   4.308  0.4057 -0.2104  0.2982
 5977SOL    HW223674   6.004  -0.021   4.298 -0.4584  1.5288  0.1102
 5977SOL    HW323675   6.072   0.103   4.354  1.5662  1.3711 -1.8659
 5977SOL    MW423676   6.076   0.026   4.312  0.0069 -0.3773  0.0630
 5978SOL     OW23677   3.640   1.682   2.663 -0.0845 -0.2030 -0.0917
 5978SOL    HW223678   3.633   1.684   2.567 -1.3203 -1.2105 -0.0624
 5978SOL    HW323679   3.730   1.708   2.682  0.6947 -1.6072 -1.6217
 5978SOL    MW423680   3.651   1.685   2.653  0.2601  0.3447 -0.2204
 5979SOL     OW23681   0.567   1.739   5.900  0.2607 -0.1564 -1.0635
 5979SOL    HW223682   0.618   1.744   5.981  1.2797  1.2015 -1.7528
 5979SOL    HW323683   0.628   1.763   5.831 -0.2763 -2.4487 -2.4289
 5979SOL    MW423684   0.582   1.743   5.902 -0.0249 -0.0317 -0.1662
 5980SOL     OW23685   0.611   3.882   1.366 -0.7263  0.5925 -0.2511
 5980SOL    HW223686   0.694   3.870   1.412 -0.1654  1.0428 -1.1338
 5980SOL    HW323687   0.587   3.973   1.383 -0.6028  0.7109 -0.7177
 5980SOL    MW423688   0.618   3.892   1.374 -0.1982 -0.1810  0.3705
 5981SOL     OW23689   6.069   5.741   1.525 -0.2345  0.1088  0.2444
 5981SOL    HW223690   6.098   5.745   1.616 -2.0481  0.9428  0.8394
 5981SOL    HW323691   6.088   5.651   1.498 -1.0869 -0.6469  1.9753
 5981SOL    MW423692   6.075   5.729   1.533  0.2373 -0.3585  0.2537
 5982SOL     OW23693   0.085   2.844   3.992  0.3959 -0.1769 -0.2354
 5982SOL    HW223694   0.038   2.850   4.075 -2.3128 -0.3438 -1.6532
 5982SOL    HW323695   0.147   2.917   3.995  0.6245 -0.3806  2.0405
 5982SOL    MW423696   0.087   2.855   4.004  0.8138  0.0498  0.0252
 5983SOL     OW23697   5.334   1.773   4.379  0.3052  0.7067 -0.0088
 5983SOL    HW223698   5.387   1.717   4.323  0.7590  0.9780  0.1475
 5983SOL    HW323699   5.373   1.764   4.466  1.3005  2.3906 -0.2449
 5983SOL    MW423700   5.346   1.765   4.383 -0.4721 -0.1339  0.4030
 5984SOL     OW23701   3.314   1.924   4.485  0.4168 -0.2693  0.4529
 5984SOL    HW223702   3.407   1.943   4.499  0.5072  0.5441 -1.0540
 5984SOL    HW323703   3.268   1.994   4.531  0.5854 -0.0490  0.2888
 5984SOL    MW423704   3.320   1.936   4.493  0.1647 -0.5885  0.1447
 5985SOL     OW23705   5.990   3.880   1.242  0.1715  0.6407 -0.5795
 5985SOL    HW223706   5.909   3.930   1.249 -0.1034  0.0760  0.6385
 5985SOL    HW323707   6.059   3.943   1.261 -0.1007  0.7813 -0.0434
 5985SOL    MW423708   5.988   3.895   1.245 -0.6629 -0.7922 -0.0205
 5986SOL     OW23709   5.760   4.820   0.857  0.1375  0.5053 -0.3009
 5986SOL    HW223710   5.769   4.827   0.952  0.1305  0.3639 -0.2898
 5986SOL    HW323711   5.771   4.910   0.825  0.4163  0.5103 -0.1895
 5986SOL    MW423712   5.763   4.833   0.865  0.2509  0.1559 -0.8047
 5987SOL     OW23713   4.629   0.518   1.612  0.3931  0.3699 -0.1519
 5987SOL    HW223714   4.693   0.586   1.591 -0.9075  2.1840  1.3896
 5987SOL    HW323715   4.678   0.436   1.606  3.2995  1.7316  2.3161
 5987SOL    MW423716   4.644   0.516   1.609  0.3500 -0.1814  0.0238
 5988SOL     OW23717   2.892   5.058   4.071  0.0502 -0.3343 -0.1243
 5988SOL    HW223718   2.891   5.014   3.986 -0.3066  1.0718 -0.8925
 5988SOL    HW323719   2.805   5.043   4.108 -0.2673  0.1880 -0.6441
 5988SOL    MW423720   2.881   5.050   4.065  0.1025  0.0620 -0.2692
 5989SOL     OW23721   0.952   4.905   1.891  0.2617  0.6304 -0.2690
 5989SOL    HW223722   0.987   4.819   1.914 -0.7001 -0.5806 -2.8920
 5989SOL    HW323723   0.878   4.918   1.950 -0.6061 -1.1547 -0.8987
 5989SOL    MW423724   0.947   4.895   1.902  0.7585  0.3008 -0.0662
 5990SOL     OW23725   0.754   6.195   2.626  0.0389 -0.1794 -0.3408
 5990SOL    HW223726   0.718   6.203   2.714  0.0630  1.1807 -0.4389
 5990SOL    HW323727   0.738   6.280   2.585  0.5517 -0.5954 -1.4540
 5990SOL    MW423728   0.747   6.207   2.632  0.0305 -0.4890 -0.5994
 5991SOL     OW23729   5.552   1.026   1.015  0.1068 -0.2124 -0.8835
 5991SOL    HW223730   5.509   0.984   0.941 -0.1272 -0.3549 -0.6686
 5991SOL    HW323731   5.489   1.092   1.046 -0.1047 -0.6481 -0.3614
 5991SOL    MW423732   5.538   1.029   1.010  0.7640 -0.0495  0.3520
 5992SOL     OW23733   5.408   5.034   5.264  0.4921 -0.2761 -0.5254
 5992SOL    HW223734   5.376   5.101   5.203  1.3580  1.5494  0.9272
 5992SOL    HW323735   5.478   4.990   5.215  1.0389  1.0129 -0.9746
 5992SOL    MW423736   5.413   5.037   5.249  0.3799 -0.1276  0.0551
 5993SOL     OW23737   0.360   4.891   4.481 -0.3266 -0.1830 -0.1392
 5993SOL    HW223738   0.406   4.972   4.459 -2.3481  1.1049  0.1375
 5993SOL    HW323739   0.279   4.920   4.522 -1.6252 -2.3570 -1.0282
 5993SOL    MW423740   0.356   4.905   4.484 -0.1022  0.3416  0.2271
 5994SOL     OW23741   5.477   4.920   3.298 -0.2926 -0.4668 -0.7792
 5994SOL    HW223742   5.567   4.941   3.273 -0.6179  0.7474 -0.9857
 5994SOL    HW323743   5.486   4.846   3.358  0.7997 -0.7386 -1.2575
 5994SOL    MW423744   5.490   4.913   3.303 -0.0285 -0.4984  0.1307
 5995SOL     OW23745   2.063   3.725   3.782 -0.5068  0.1063 -0.1516
 5995SOL    HW223746   2.098   3.790   3.842  0.6753 -0.3467 -0.3116
 5995SOL    HW323747   2.032   3.775   3.707 -1.2133  0.6075  0.4660
 5995SOL    MW423748   2.064   3.740   3.780  0.0772 -0.1881 -0.0941
 5996SOL     OW23749   3.026   0.768   5.015  0.0137  0.0829 -0.1249
 5996SOL    HW223750   3.067   0.682   5.004 -0.8723 -0.2602 -0.8114
 5996SOL    HW323751   2.940   0.749   5.051  0.0577  0.7378  0.3412
 5996SOL    MW423752   3.020   0.754   5.018  0.6677 -0.0903  0.6961
 5997SOL     OW23753   1.986   0.949   0.568  0.0431  0.2224 -0.1924
 5997SOL    HW223754   1.925   1.012   0.529  0.5363  0.1961 -1.0246
 5997SOL    HW323755   1.934   0.904   0.635 -1.0517 -0.2740 -1.3397
 5997SOL    MW423756   1.971   0.952   0.572 -0.2550 -0.4765 -0.0047
 5998SOL     OW23757   0.542   4.599   4.279 -0.1540  0.6940 -0.2865
 5998SOL    HW223758   0.535   4.535   4.208 -3.1895  1.3272 -0.6837
 5998SOL    HW323759   0.611   4.659   4.251  2.7701 -2.2265  0.0731
 5998SOL    MW423760   0.550   4.598   4.266  0.8738  0.1592  0.6398
 5999SOL     OW23761   0.191   5.937   5.775  0.2764 -0.0109  0.3672
 5999SOL    HW223762   0.112   5.903   5.816  0.4313  0.3059  0.9376
 5999SOL    HW323763   0.262   5.891   5.819  0.4097 -0.5863 -0.4122
 5999SOL    MW423764   0.190   5.926   5.786  0.4849 -0.1621  0.2084
 6000SOL     OW23765   6.319   4.379   3.246  0.5000 -0.0349 -0.3845
 6000SOL    HW223766   6.245   4.327   3.277 -0.4687  0.9816 -0.9383
 6000SOL    HW323767   6.302   4.467   3.280  0.8163  0.4860 -1.5441
 6000SOL    MW423768   6.307   4.384   3.255  0.1267  0.1089  0.2433
 6001SOL     OW23769   5.488   5.379   3.756  0.4434  0.1890  0.2393
 6001SOL    HW223770   5.459   5.329   3.833  1.3262 -1.3565 -0.3818
 6001SOL    HW323771   5.418   5.368   3.692  0.9924 -0.9975 -0.1881
 6001SOL    MW423772   5.475   5.371   3.758 -0.5757 -0.0818 -0.8079
 6002SOL     OW23773   4.829   2.506   1.425  0.7389 -0.0946 -0.4326
 6002SOL    HW223774   4.811   2.600   1.427 -0.6267 -0.3431 -0.0599
 6002SOL    HW323775   4.898   2.496   1.359 -0.9366  0.8768 -2.4393
 6002SOL    MW423776   4.836   2.517   1.417 -0.4750  0.1973  0.3327
 6003SOL     OW23777   4.870   3.126   1.814  0.0706  0.1993 -0.0411
 6003SOL    HW223778   4.867   3.031   1.821  0.1403  0.1728 -0.3344
 6003SOL    HW323779   4.780   3.154   1.828 -0.6655 -0.1620 -3.1550
 6003SOL    MW423780   4.858   3.117   1.817 -0.1664 -0.6244  0.2858
 6004SOL     OW23781   6.243   4.607   1.340 -0.4183  0.0733 -0.1927
 6004SOL    HW223782   6.256   4.677   1.277  1.4347  0.4264  0.5254
 6004SOL    HW323783   6.277   4.641   1.422 -0.0702 -1.4302  0.3306
 6004SOL    MW423784   6.249   4.621   1.343  0.4013  0.2804 -0.6001
 6005SOL     OW23785   0.853   2.841   2.664  0.0350  0.1409  0.3997
 6005SOL    HW223786   0.788   2.859   2.732  0.0943 -0.6499  0.6787
 6005SOL    HW323787   0.911   2.917   2.666 -1.9237  1.7684 -1.1422
 6005SOL    MW423788   0.852   2.854   2.673  0.2104 -0.6993 -0.0247
 6006SOL     OW23789   0.676   1.974   2.275  0.4950  0.1893 -0.3055
 6006SOL    HW223790   0.585   1.954   2.299 -0.6757  4.2898 -0.6109
 6006SOL    HW323791   0.718   1.997   2.358  0.6720  0.3254 -0.4338
 6006SOL    MW423792   0.669   1.974   2.289  0.5694 -0.0212 -0.1831
 6007SOL     OW23793   3.397   0.267   1.627  0.1948 -0.0800  0.3819
 6007SOL    HW223794   3.481   0.259   1.672  0.0224  0.0728  0.7364
 6007SOL    HW323795   3.417   0.318   1.548  0.9178 -2.1645 -0.8585
 6007SOL    MW423796   3.411   0.273   1.622 -0.3962 -0.2756  0.3741
 6008SOL     OW23797   5.329   3.714   0.506 -0.5242  0.4669 -0.4410
 6008SOL    HW223798   5.285   3.631   0.491 -1.2556  0.8125 -0.2661
 6008SOL    HW323799   5.371   3.704   0.592  1.2066 -0.4681 -1.3506
 6008SOL    MW423800   5.329   3.702   0.516 -0.0034  0.0114 -0.5990
 6009SOL     OW23801   0.699   1.067   1.789  0.1198  0.9741  0.0726
 6009SOL    HW223802   0.759   1.131   1.750 -0.4221  0.5751 -1.4788
 6009SOL    HW323803   0.747   1.032   1.864  0.7200  2.6420  0.5002
 6009SOL    MW423804   0.714   1.071   1.793 -0.2214  0.3701 -0.4233
 6010SOL     OW23805   0.797   6.188   4.179 -0.0722 -0.7884 -0.4245
 6010SOL    HW223806   0.810   6.276   4.142 -1.3044 -0.3440  0.1475
 6010SOL    HW323807   0.803   6.130   4.103 -0.4937 -0.0823 -1.0193
 6010SOL    MW423808   0.799   6.192   4.164 -0.5830  0.2323 -0.1598
 6011SOL     OW23809   1.684   5.966   3.373 -0.0182  0.1651  0.0749
 6011SOL    HW223810   1.600   6.012   3.382 -0.6669 -0.7972 -0.7556
 6011SOL    HW323811   1.741   6.029   3.329 -0.5550  0.5603 -0.0664
 6011SOL    MW423812   1.680   5.980   3.368  0.2999 -0.2384 -0.2519
 6012SOL     OW23813   0.490   2.536   3.031  0.4925 -0.0782 -0.1932
 6012SOL    HW223814   0.508   2.524   3.124  0.3086 -1.6335 -0.3258
 6012SOL    HW323815   0.422   2.603   3.027 -0.7758 -1.2479  0.9259
 6012SOL    MW423816   0.483   2.543   3.042 -0.3263  0.1139 -0.2233
 6013SOL     OW23817   1.613   2.712   0.259  0.0103 -0.5746 -0.3623
 6013SOL    HW223818   1.573   2.636   0.216  1.1924 -0.8998 -0.9106
 6013SOL    HW323819   1.545   2.742   0.320 -0.4317 -2.1508 -0.0153
 6013SOL    MW423820   1.599   2.706   0.261 -0.1364 -0.1913 -0.7965
 6014SOL     OW23821   1.078   4.824   4.932 -0.0862 -0.0761 -0.5624
 6014SOL    HW223822   1.111   4.748   4.980 -1.0622 -1.1581 -1.5285
 6014SOL    HW323823   1.074   4.894   4.997 -0.4206 -1.2140  0.6843
 6014SOL    MW423824   1.082   4.823   4.947 -0.3528 -0.2790  0.0907
 6015SOL     OW23825   6.071   2.122   1.730 -0.4951 -0.0004 -0.2703
 6015SOL    HW223826   5.998   2.074   1.692 -2.6910  2.5980  0.3874
 6015SOL    HW323827   6.073   2.095   1.822 -1.2660  0.5909 -0.0697
 6015SOL    MW423828   6.062   2.112   1.737 -0.5827  0.4126  0.4356
 6016SOL     OW23829   3.853   1.370   1.712 -0.4575 -0.2116  0.1709
 6016SOL    HW223830   3.776   1.405   1.756 -0.1048 -0.3080  0.8746
 6016SOL    HW323831   3.860   1.280   1.743 -0.1587 -0.2552 -0.0153
 6016SOL    MW423832   3.844   1.363   1.722  0.3838 -0.1225 -0.0931
 6017SOL     OW23833   5.781   0.835   5.023 -0.3086  0.0424  0.3212
 6017SOL    HW223834   5.787   0.922   4.985 -0.1666 -1.0961 -2.4626
 6017SOL    HW323835   5.700   0.798   4.987 -0.6834 -0.8133  1.9125
 6017SOL    MW423836   5.771   0.841   5.014  0.8138 -0.4799 -0.7644
 6018SOL     OW23837   4.401   4.272   6.142  0.0490 -0.5195  0.3258
 6018SOL    HW223838   4.456   4.290   6.218 -0.1217  1.4065  0.0580
 6018SOL    HW323839   4.412   4.350   6.086 -1.8858 -0.6862 -0.3660
 6018SOL    MW423840   4.410   4.285   6.145  0.1788 -0.1172  0.0662
 6019SOL     OW23841   4.174   3.157   3.832 -0.3801  0.4041 -0.5896
 6019SOL    HW223842   4.200   3.084   3.776 -0.5558  0.3453 -0.5939
 6019SOL    HW323843   4.250   3.216   3.831 -0.0035 -0.0564 -0.1144
 6019SOL    MW423844   4.188   3.155   3.825  0.0762  0.3002 -0.2869
 6020SOL     OW23845   3.823   1.908   2.794 -0.4262 -0.2475 -0.0195
 6020SOL    HW223846   3.755   1.964   2.831  0.5228  2.4588 -2.0692
 6020SOL    HW323847   3.871   1.876   2.870 -1.3097  1.3632  1.2860
 6020SOL    MW423848   3.820   1.911   2.809 -0.1739 -0.8532  0.0044
 6021SOL     OW23849   1.538   1.435   6.265  0.6052  0.2303 -0.0682
 6021SOL    HW223850   1.519   1.450   6.357 -0.4896  0.1936 -0.2685
 6021SOL    HW323851   1.605   1.499   6.242  0.0650  0.9959  0.4740
 6021SOL    MW423852   1.544   1.445   6.274  0.2313  0.3452  0.2140
 6022SOL     OW23853   1.606   2.187   0.979 -0.5902 -0.3768  0.0801
 6022SOL    HW223854   1.528   2.230   1.015  0.2465 -0.8946  2.7722
 6022SOL    HW323855   1.668   2.258   0.963 -0.9284 -0.1407 -0.1902
 6022SOL    MW423856   1.604   2.202   0.982  0.6581  0.4174 -0.5526
 6023SOL     OW23857   5.304   3.819   3.980 -0.2296 -0.3456 -0.4676
 6023SOL    HW223858   5.271   3.735   3.946 -1.6837 -0.1896  0.4985
 6023SOL    HW323859   5.267   3.826   4.068  0.3555  1.0537 -0.3063
 6023SOL    MW423860   5.295   3.809   3.987  0.6134 -0.7396  0.3279
 6024SOL     OW23861   5.037   3.436   0.106 -0.0373  0.3860  0.1943
 6024SOL    HW223862   5.061   3.372   0.174  1.7119 -0.6517 -1.3059
 6024SOL    HW323863   4.961   3.397   0.063  0.6173 -0.3967 -0.2823
 6024SOL    MW423864   5.030   3.422   0.110  0.0048 -0.3502  0.6679
 6025SOL     OW23865   0.666   1.504   3.878  0.2880 -1.0036  0.2088
 6025SOL    HW223866   0.599   1.496   3.810 -0.1694  1.5447  0.2800
 6025SOL    HW323867   0.620   1.541   3.953  1.8718  1.5991 -0.0085
 6025SOL    MW423868   0.651   1.508   3.879 -0.4311  0.3618  0.7040
 6026SOL     OW23869   4.109   1.483   3.670  0.6966  0.3375 -0.2715
 6026SOL    HW223870   4.110   1.549   3.601  0.3785  0.1583 -0.4517
 6026SOL    HW323871   4.018   1.480   3.699  0.4017 -0.9836 -1.2142
 6026SOL    MW423872   4.098   1.491   3.665 -0.5123 -0.2149  0.0289
 6027SOL     OW23873   2.558   2.084   3.920 -0.0844  0.3319  0.0143
 6027SOL    HW223874   2.573   2.165   3.872 -0.0792  0.0380 -0.4941
 6027SOL    HW323875   2.531   2.112   4.007  1.0319  0.8683  0.1977
 6027SOL    MW423876   2.556   2.098   3.925 -0.2563 -0.6543  0.0221
 6028SOL     OW23877   2.905   6.059   0.142  0.1025  0.5373 -0.3054
 6028SOL    HW223878   2.928   5.982   0.089 -0.4372  0.2262 -0.0932
 6028SOL    HW323879   2.817   6.084   0.112 -0.4630 -0.0073  0.8480
 6028SOL    MW423880   2.897   6.052   0.131 -0.2077 -0.3741 -0.0306
 6029SOL     OW23881   1.293   3.227   4.829 -0.3959  0.0829 -0.8180
 6029SOL    HW223882   1.302   3.321   4.809 -1.0927  0.8650  2.1316
 6029SOL    HW323883   1.199   3.211   4.826 -0.3844 -0.1729  0.0742
 6029SOL    MW423884   1.282   3.238   4.826 -0.0756  0.1038 -0.1637
 6030SOL     OW23885   2.991   4.133   4.108 -0.3659  0.1035  0.3093
 6030SOL    HW223886   2.932   4.202   4.137  0.0792  1.4699 -1.8227
 6030SOL    HW323887   2.939   4.053   4.116 -1.7385  0.9788  0.5732
 6030SOL    MW423888   2.976   4.132   4.113  0.0358 -0.1572 -0.4519
 6031SOL     OW23889   5.178   0.205   1.659  0.0043  0.2165  0.0304
 6031SOL    HW223890   5.249   0.150   1.692  1.0504  0.9027 -0.9842
 6031SOL    HW323891   5.138   0.243   1.737  0.4553 -0.5404  0.6432
 6031SOL    MW423892   5.182   0.202   1.673  0.4952 -0.2741  0.1557
 6032SOL     OW23893   5.915   3.047   6.422  0.7296  0.2300  0.2024
 6032SOL    HW223894   5.960   2.976   6.468  1.2827  0.3279 -0.1785
 6032SOL    HW323895   5.822   3.030   6.436  0.8342 -0.9064 -0.3727
 6032SOL    MW423896   5.909   3.035   6.430  0.2201 -0.0486  0.0051
 6033SOL     OW23897   1.972   2.097   0.112  0.2395 -0.1488 -0.2763
 6033SOL    HW223898   2.061   2.067   0.126 -0.0981 -0.5824  1.1320
 6033SOL    HW323899   1.917   2.032   0.156 -0.5444  2.1997  2.6152
 6033SOL    MW423900   1.976   2.085   0.120 -0.1346  0.0822  0.3536
 6034SOL     OW23901   3.760   2.108   5.978 -0.3676 -0.2232  0.3040
 6034SOL    HW223902   3.702   2.035   5.956  1.2399 -0.7355 -2.5976
 6034SOL    HW323903   3.829   2.068   6.031 -0.4155 -0.4638  0.1884
 6034SOL    MW423904   3.761   2.093   5.982 -0.5187  0.1467 -0.4574
 6035SOL     OW23905   3.367   2.197   0.372  0.0616  0.5016  0.6162
 6035SOL    HW223906   3.433   2.229   0.311 -0.5704  1.1197  0.2403
 6035SOL    HW323907   3.347   2.272   0.429  0.6973 -0.0871  1.6514
 6035SOL    MW423908   3.373   2.211   0.372 -0.1888  0.7854 -0.0767
 6036SOL     OW23909   1.710   0.060   4.465 -0.4711  0.7874  0.0436
 6036SOL    HW223910   1.783   0.098   4.515  0.4344  1.1746 -1.4818
 6036SOL    HW323911   1.636   0.061   4.525  0.9557 -0.3073  1.9102
 6036SOL    MW423912   1.710   0.065   4.479 -0.5967 -0.7150 -0.0035
 6037SOL     OW23913   4.464   5.767   2.788 -0.2013 -0.3982 -0.0298
 6037SOL    HW223914   4.542   5.713   2.779  1.2532  1.7909 -1.7216
 6037SOL    HW323915   4.432   5.778   2.698 -3.1409 -2.0411  0.6914
 6037SOL    MW423916   4.470   5.762   2.775  0.0489 -0.2610  0.2989
 6038SOL     OW23917   5.462   0.816   3.170 -0.3380  0.4771 -0.0723
 6038SOL    HW223918   5.460   0.791   3.077  0.3933 -1.0466  0.3008
 6038SOL    HW323919   5.483   0.735   3.216  2.5380  1.7833  1.1792
 6038SOL    MW423920   5.465   0.802   3.164  0.2180 -0.0484 -0.1273
 6039SOL     OW23921   3.020   0.144   4.591 -0.2061 -0.2056  0.1179
 6039SOL    HW223922   3.016   0.069   4.532  2.5587 -0.4624  0.1244
 6039SOL    HW323923   3.087   0.119   4.656 -0.8072  1.4006  1.4097
 6039SOL    MW423924   3.028   0.130   4.592  0.0374  0.0585  0.2566
 6040SOL     OW23925   4.296   3.934   6.421 -0.2051  0.1498 -0.5930
 6040SOL    HW223926   4.270   3.842   6.422  0.9510 -0.1867  0.1289
 6040SOL    HW323927   4.330   3.950   6.509  2.7078  0.3189 -1.6451
 6040SOL    MW423928   4.297   3.924   6.433  0.0818 -0.0067 -0.2047
 6041SOL     OW23929   4.854   5.189   6.352 -1.2837  0.0107  0.5280
 6041SOL    HW223930   4.928   5.213   6.408 -0.7876  1.2817 -0.6170
 6041SOL    HW323931   4.815   5.273   6.327 -3.3129 -0.6338  1.3187
 6041SOL    MW423932   4.858   5.203   6.356  0.3835  0.3702 -0.7785
 6042SOL     OW23933   3.380   3.982   0.687 -0.0975  0.1753 -0.9810
 6042SOL    HW223934   3.401   3.944   0.602  1.5174 -0.6250 -0.2813
 6042SOL    HW323935   3.298   3.940   0.713 -0.6230  0.4560 -2.1254
 6042SOL    MW423936   3.372   3.971   0.680 -0.3941 -0.1074 -0.2289
 6043SOL     OW23937   2.857   0.317   1.243 -0.6779 -0.2709 -0.5128
 6043SOL    HW223938   2.935   0.350   1.287 -0.0768  0.3738 -1.9967
 6043SOL    HW323939   2.833   0.387   1.182 -1.3345 -1.2255 -1.3814
 6043SOL    MW423940   2.864   0.331   1.241 -0.3223  0.6839 -0.1926
 6044SOL     OW23941   2.236   5.292   3.771 -0.3538  0.2042  0.0132
 6044SOL    HW223942   2.238   5.330   3.683 -1.2110 -0.1550 -0.1766
 6044SOL    HW323943   2.250   5.366   3.829  1.5305  0.2575 -0.4459
 6044SOL    MW423944   2.238   5.306   3.767 -0.0567 -0.5003 -0.1118
 6045SOL     OW23945   2.204   6.079   0.530 -0.1443  1.1292  0.0311
 6045SOL    HW223946   2.232   6.169   0.548 -1.6111  1.4674  0.8462
 6045SOL    HW323947   2.117   6.074   0.570  0.4909 -1.0878  1.3118
 6045SOL    MW423948   2.196   6.090   0.538  0.2472  0.1633 -0.5643
 6046SOL     OW23949   1.761   0.976   1.641 -0.3069  0.2540  0.1935
 6046SOL    HW223950   1.799   0.954   1.556  1.8972  1.1933  0.8425
 6046SOL    HW323951   1.752   0.893   1.686 -0.3158 -0.1295 -0.5027
 6046SOL    MW423952   1.765   0.962   1.635 -0.0729  0.1091  0.1813
 6047SOL     OW23953   4.587   0.942   4.045 -0.0435 -0.3843  0.3264
 6047SOL    HW223954   4.527   0.886   4.095 -0.9939 -2.0618 -2.4474
 6047SOL    HW323955   4.532   0.983   3.978  1.4534  0.1457 -0.6416
 6047SOL    MW423956   4.572   0.940   4.042  0.1050  0.5550 -0.1962
 6048SOL     OW23957   2.196   0.145   2.204 -0.2356  0.6949  0.2340
 6048SOL    HW223958   2.251   0.195   2.144 -0.3220  1.5238  0.8303
 6048SOL    HW323959   2.174   0.065   2.155  1.2622  0.4692 -0.1125
 6048SOL    MW423960   2.200   0.141   2.189 -0.1277  0.2968 -0.7050
 6049SOL     OW23961   3.875   1.976   5.132 -0.1392 -0.3905  0.1039
 6049SOL    HW223962   3.800   2.024   5.098  0.0992 -1.4101 -2.0504
 6049SOL    HW323963   3.859   1.885   5.107 -0.4975 -1.5322  3.8845
 6049SOL    MW423964   3.863   1.970   5.125 -0.1666  0.3724 -0.1655
 6050SOL     OW23965   3.539   3.955   5.254 -0.0527 -0.0827 -0.1466
 6050SOL    HW223966   3.585   4.014   5.194  0.9306  1.1457  1.7451
 6050SOL    HW323967   3.447   3.975   5.242  0.0171 -0.6113 -1.9655
 6050SOL    MW423968   3.533   3.965   5.244 -0.0869 -0.6762 -0.1153
 6051SOL     OW23969   4.182   6.328   0.129  0.1623  0.6689 -0.1791
 6051SOL    HW223970   4.219   6.379   0.201 -1.8442  0.3885  1.1275
 6051SOL    HW323971   4.185   6.237   0.159  0.9464  0.3215 -1.2350
 6051SOL    MW423972   4.187   6.323   0.143 -0.1561 -0.2508  0.4093
 6052SOL     OW23973   3.535   5.304   3.944 -0.9306 -0.3735 -0.0797
 6052SOL    HW223974   3.605   5.332   4.003  0.2142 -0.5596 -1.3034
 6052SOL    HW323975   3.557   5.214   3.922 -0.0142  0.3756 -2.5648
 6052SOL    MW423976   3.547   5.296   3.949 -0.2786 -0.1532  0.3533
 6053SOL     OW23977   2.993   3.125   5.905 -0.3469  0.5476 -0.3061
 6053SOL    HW223978   3.036   3.042   5.927 -0.3252  0.1498 -1.7659
 6053SOL    HW323979   3.065   3.186   5.889 -0.3630  0.8077  0.5551
 6053SOL    MW423980   3.009   3.122   5.906  0.1872  0.6517  0.2522
 6054SOL     OW23981   5.076   6.167   1.504  0.0804 -0.1855  0.2627
 6054SOL    HW223982   5.054   6.159   1.596 -1.4182 -0.6937 -0.1107
 6054SOL    HW323983   5.047   6.084   1.465  1.1551 -0.1945 -0.5976
 6054SOL    MW423984   5.070   6.155   1.511 -0.6708  0.0505 -0.2881
 6055SOL     OW23985   1.948   2.454   4.746 -0.2935 -0.3857  0.2230
 6055SOL    HW223986   2.015   2.403   4.792 -0.7405  0.1914  1.5516
 6055SOL    HW323987   1.865   2.418   4.775 -0.5976 -0.6907 -0.9532
 6055SOL    MW423988   1.946   2.443   4.756  0.0315 -0.5359 -0.1044
 6056SOL     OW23989   0.812   5.393   0.860  0.1463 -0.5217  0.0533
 6056SOL    HW223990   0.833   5.370   0.769 -1.9522 -2.3707 -0.0771
 6056SOL    HW323991   0.777   5.482   0.855 -0.4613 -0.8021 -1.0682
 6056SOL    MW423992   0.810   5.402   0.847  0.6414 -0.1351 -0.6987
 6057SOL     OW23993   1.767   4.712   2.607 -0.4565 -0.0662  0.2882
 6057SOL    HW223994   1.771   4.676   2.518 -2.0049 -0.1742  0.2379
 6057SOL    HW323995   1.744   4.638   2.662 -0.6755  0.2414  0.6150
 6057SOL    MW423996   1.765   4.698   2.602  0.3547 -0.2367 -0.2706
 6058SOL     OW23997   5.871   3.814   1.948 -0.6291 -0.3088 -0.2836
 6058SOL    HW223998   5.781   3.816   1.981 -0.7143  1.6078 -0.5073
 6058SOL    HW323999   5.917   3.879   2.002  0.8172 -1.7458  0.2976
 6058SOL    MW424000   5.865   3.823   1.960  0.0874 -0.2888 -0.3721
 6059SOL     OW24001   3.303   1.634   0.486  0.3497  0.6788 -0.1189
 6059SOL    HW224002   3.333   1.546   0.463 -0.5199  0.2342  0.4153
 6059SOL    HW324003   3.370   1.692   0.450 -0.1615 -0.0600 -2.3926
 6059SOL    MW424004   3.316   1.630   0.478  0.6268 -0.3357  0.4226
 6060SOL     OW24005   5.494   2.183   0.340  0.7452 -0.4805 -0.1020
 6060SOL    HW224006   5.529   2.163   0.253  0.7161 -2.5904  0.3219
 6060SOL    HW324007   5.441   2.107   0.362 -0.1945  0.5465  1.2945
 6060SOL    MW424008   5.492   2.170   0.331 -0.0998  0.3058  0.2604
 6061SOL     OW24009   2.908   1.684   2.712  0.7046  0.0551  0.1988
 6061SOL    HW224010   2.915   1.753   2.646  2.2245  0.6419  0.9254
 6061SOL    HW324011   2.869   1.610   2.665 -0.9850  1.3838 -0.5785
 6061SOL    MW424012   2.904   1.683   2.697  0.0030  0.3123  0.5602
 6062SOL     OW24013   1.719   0.358   5.399 -0.1179 -0.1138 -0.0920
 6062SOL    HW224014   1.681   0.305   5.469 -1.3399 -0.5121 -1.0306
 6062SOL    HW324015   1.737   0.295   5.328 -0.7102  0.5740 -0.8668
 6062SOL    MW424016   1.716   0.342   5.399  0.1284  0.3344  0.0157
 6063SOL     OW24017   2.192   3.036   3.863  0.0407  0.1727  0.1765
 6063SOL    HW224018   2.265   2.979   3.883  0.7336  0.3915 -1.5376
 6063SOL    HW324019   2.192   3.102   3.933  1.3412  0.0448  0.3093
 6063SOL    MW424020   2.201   3.037   3.875  0.3754 -0.1242 -0.5297
 6064SOL     OW24021   1.136   5.414   2.153 -0.1263 -0.4332  0.4594
 6064SOL    HW224022   1.086   5.395   2.074 -0.9953 -0.1390  0.9212
 6064SOL    HW324023   1.165   5.328   2.184  0.2222 -0.5493 -0.1679
 6064SOL    MW424024   1.133   5.400   2.147 -0.0800 -0.0798 -0.7650
 6065SOL     OW24025   0.773   2.302   1.915  0.1408 -0.2102  0.2344
 6065SOL    HW224026   0.764   2.243   1.841 -0.0223  1.1496 -0.8769
 6065SOL    HW324027   0.706   2.273   1.977  1.8892 -2.9468  1.0373
 6065SOL    MW424028   0.763   2.290   1.913 -0.4119  0.5768 -0.6404
 6066SOL     OW24029   2.955   3.975   4.459  0.1228 -0.0792 -0.4114
 6066SOL    HW224030   3.049   3.961   4.459  0.4135  1.5410 -2.2574
 6066SOL    HW324031   2.944   4.070   4.462 -1.4541 -0.2174 -0.6215
 6066SOL    MW424032   2.966   3.985   4.459 -0.2874 -0.1792 -0.6187
 6067SOL     OW24033   2.111   3.418   4.515  0.1274 -0.5310 -0.1606
 6067SOL    HW224034   2.129   3.337   4.563  0.9192 -0.8601 -0.9882
 6067SOL    HW324035   2.018   3.435   4.532 -0.3214 -2.1616 -0.7450
 6067SOL    MW424036   2.101   3.409   4.523 -0.3620 -0.1952  0.2493
 6068SOL     OW24037   2.357   0.811   5.889  0.3990 -0.1897 -0.8887
 6068SOL    HW224038   2.414   0.873   5.935 -0.2755 -1.6545  2.2314
 6068SOL    HW324039   2.269   0.847   5.900  0.1275 -1.0457 -0.0394
 6068SOL    MW424040   2.353   0.824   5.897  0.2150 -0.2300 -0.3526
 6069SOL     OW24041   2.493   2.593   0.677  0.2842 -0.0304  0.0062
 6069SOL    HW224042   2.588   2.605   0.669  0.2824  0.6569  0.7525
 6069SOL    HW324043   2.462   2.676   0.714 -0.3781 -0.8341  1.3625
 6069SOL    MW424044   2.502   2.606   0.681  0.4133 -0.1875 -0.2179
 6070SOL     OW24045   3.709   1.549   4.861  0.4761 -0.1201 -0.0785
 6070SOL    HW224046   3.776   1.587   4.804  0.1354  0.2424 -0.2434
 6070SOL    HW324047   3.649   1.506   4.801  0.5424 -0.4172  0.0671
 6070SOL    MW424048   3.710   1.549   4.845  0.2985  0.4590  0.2436
 6071SOL     OW24049   5.129   2.247   5.442  0.1852 -0.0111 -0.3261
 6071SOL    HW224050   5.061   2.298   5.486  0.2534 -0.1615 -0.0447
 6071SOL    HW324051   5.081   2.188   5.384  0.0629 -0.3403  0.1125
 6071SOL    MW424052   5.114   2.246   5.440 -0.1649 -0.5446 -0.3944
 6072SOL     OW24053   4.832   1.972   2.239 -0.0896 -0.4911  0.1296
 6072SOL    HW224054   4.848   1.897   2.297  1.0134 -0.5744 -0.2500
 6072SOL    HW324055   4.900   1.964   2.172  0.9005  1.5949  0.8222
 6072SOL    MW424056   4.843   1.961   2.238  0.3185 -0.1999 -0.5799
 6073SOL     OW24057   5.878   6.145   5.096 -0.1788 -0.9369 -0.3443
 6073SOL    HW224058   5.809   6.205   5.064 -2.8333 -4.4540 -1.9030
 6073SOL    HW324059   5.835   6.095   5.165  1.5185 -1.9012  0.0484
 6073SOL    MW424060   5.863   6.147   5.101  0.4056  0.2543  0.6382
 6074SOL     OW24061   0.148   1.817   4.183 -0.2890  0.6028 -0.1938
 6074SOL    HW224062   0.140   1.834   4.277  0.8900 -3.4022  0.8287
 6074SOL    HW324063   0.235   1.851   4.160 -0.0504  0.4875  0.4995
 6074SOL    MW424064   0.159   1.824   4.193  0.3583 -0.2599  0.4519
 6075SOL     OW24065   4.509   0.530   3.095 -0.5884  0.2082 -0.4818
 6075SOL    HW224066   4.581   0.545   3.035  0.0109 -0.4644  0.0644
 6075SOL    HW324067   4.482   0.440   3.079 -0.6516  0.1376  0.0210
 6075SOL    MW424068   4.515   0.520   3.085  0.4044 -0.1329 -0.7908
 6076SOL     OW24069   3.202   0.675   1.194 -0.0270 -0.2116 -0.2156
 6076SOL    HW224070   3.128   0.722   1.233  0.2528  0.2441 -0.2253
 6076SOL    HW324071   3.194   0.693   1.100 -1.1794 -1.9842 -0.4957
 6076SOL    MW424072   3.191   0.684   1.187  0.2109 -0.7499 -0.1384
 6077SOL     OW24073   4.019   0.420   0.639 -0.6288 -0.0493 -0.7168
 6077SOL    HW224074   3.969   0.339   0.651 -0.2524 -0.1643  0.1037
 6077SOL    HW324075   4.023   0.459   0.726 -0.2672  0.5439 -0.9907
 6077SOL    MW424076   4.013   0.415   0.652  0.4928  0.0481 -0.1625
 6078SOL     OW24077   1.040   0.679   5.012  0.4270 -0.7342 -0.2546
 6078SOL    HW224078   0.984   0.745   5.053  1.5052  1.4912 -2.1549
 6078SOL    HW324079   0.981   0.632   4.953 -0.2622 -1.2905  0.8265
 6078SOL    MW424080   1.025   0.681   5.010  0.5044  0.0375  0.5641
 6079SOL     OW24081   4.057   3.637   0.807 -0.4072  0.0046 -0.0694
 6079SOL    HW224082   4.059   3.545   0.836  0.1199 -0.2702 -0.9274
 6079SOL    HW324083   4.103   3.685   0.877  1.5473 -0.7493 -0.7589
 6079SOL    MW424084   4.063   3.631   0.820  0.1500  0.0760 -0.0530
 6080SOL     OW24085   5.071   0.247   1.236  0.0871 -0.5340 -0.2034
 6080SOL    HW224086   5.062   0.187   1.162  1.0352  1.3521 -1.9338
 6080SOL    HW324087   4.980   0.264   1.263 -0.4791  0.6403 -2.5846
 6080SOL    MW424088   5.058   0.241   1.230 -0.0591  0.3239 -0.0311
 6081SOL     OW24089   0.478   4.622   3.261 -0.2117  0.4517 -0.1371
 6081SOL    HW224090   0.474   4.625   3.356  1.2022  0.2691 -0.0387
 6081SOL    HW324091   0.410   4.560   3.235  0.1089 -0.3386  0.8444
 6081SOL    MW424092   0.469   4.614   3.270 -0.4163  0.2663 -0.0423
 6082SOL     OW24093   0.771   4.795   5.803 -0.2685  0.2581 -0.1607
 6082SOL    HW224094   0.692   4.830   5.845 -0.3930 -0.9268  0.6257
 6082SOL    HW324095   0.767   4.830   5.714 -1.4552  0.5749 -0.0053
 6082SOL    MW424096   0.760   4.804   5.797  0.2559 -0.1322  0.1890
 6083SOL     OW24097   1.210   4.750   6.315  0.2691  0.2219 -0.2717
 6083SOL    HW224098   1.211   4.733   6.409 -1.8075  0.2072 -0.1988
 6083SOL    HW324099   1.147   4.822   6.304  1.7967  1.4423 -1.4986
 6083SOL    MW424100   1.202   4.757   6.326  0.4297 -0.3197  0.4149
 6084SOL     OW24101   6.386   4.216   4.543  0.2664  0.5201 -0.0779
 6084SOL    HW224102   6.436   4.174   4.473  0.0331  0.0376  0.0419
 6084SOL    HW324103   6.326   4.148   4.573  0.3883  0.7167  0.6136
 6084SOL    MW424104   6.385   4.202   4.537  0.1471 -0.0370  0.3235
 6085SOL     OW24105   0.477   2.959   5.779  0.6100 -0.1538  0.5441
 6085SOL    HW224106   0.466   3.052   5.760  1.0955 -0.6647 -2.9846
 6085SOL    HW324107   0.393   2.920   5.754  1.6372 -1.0401 -1.7986
 6085SOL    MW424108   0.464   2.966   5.773 -0.2492 -0.3755  0.2920
 6086SOL     OW24109   2.217   3.071   1.495  0.3445 -0.2851  0.6211
 6086SOL    HW224110   2.250   2.982   1.504  1.0733 -0.0832  0.0486
 6086SOL    HW324111   2.296   3.125   1.488 -0.0934  0.2524 -0.3616
 6086SOL    MW424112   2.232   3.066   1.495 -0.1800  0.1338 -0.1100
 6087SOL     OW24113   4.994   2.209   4.483 -0.5641 -0.0445 -0.2718
 6087SOL    HW224114   4.904   2.223   4.512  0.0161 -0.7438  2.1167
 6087SOL    HW324115   5.043   2.190   4.563  1.6516 -0.0970 -1.5324
 6087SOL    MW424116   4.989   2.208   4.497 -0.3002 -0.2688 -0.2140
 6088SOL     OW24117   4.339   3.628   4.701 -0.3308 -0.1558 -0.2874
 6088SOL    HW224118   4.254   3.597   4.730 -0.3728 -1.8230 -2.0508
 6088SOL    HW324119   4.339   3.722   4.723 -2.3621 -0.2422  0.2371
 6088SOL    MW424120   4.328   3.636   4.708 -0.5570  0.1377 -0.0950
 6089SOL     OW24121   5.209   0.093   3.832 -0.2819  0.2209  0.0524
 6089SOL    HW224122   5.204   0.160   3.764 -0.3808 -0.9999 -1.1997
 6089SOL    HW324123   5.266   0.025   3.794 -1.6082 -1.2073  0.5294
 6089SOL    MW424124   5.216   0.093   3.818  0.4968  0.1703  1.1099
 6090SOL     OW24125   3.812   6.158   0.248 -0.4609 -0.2686 -0.3671
 6090SOL    HW224126   3.845   6.208   0.173  1.2946  0.1566  0.6330
 6090SOL    HW324127   3.859   6.075   0.243 -0.8800 -0.5187 -0.1340
 6090SOL    MW424128   3.822   6.154   0.237 -0.0472  0.6636  0.1783
 6091SOL     OW24129   3.683   2.989   4.949 -0.1744 -0.4872  0.0716
 6091SOL    HW224130   3.644   2.907   4.918  0.7779 -0.2392 -1.9148
 6091SOL    HW324131   3.734   3.022   4.875  1.9419  0.3817  1.7721
 6091SOL    MW424132   3.685   2.983   4.935  0.4459  0.0962 -0.7772
 6092SOL     OW24133   0.577   4.156   5.458 -0.3321 -0.2544 -0.1518
 6092SOL    HW224134   0.655   4.115   5.421 -0.6594 -0.4078 -0.6831
 6092SOL    HW324135   0.571   4.118   5.546 -0.9848 -1.8869 -0.8501
 6092SOL    MW424136   0.586   4.145   5.465  0.8814 -0.1489  0.3207
 6093SOL     OW24137   4.603   4.844   0.224 -0.0454 -0.1081 -0.0950
 6093SOL    HW224138   4.541   4.796   0.169 -2.4376  1.3655  1.1168
 6093SOL    HW324139   4.596   4.935   0.194  1.7716  0.0741 -0.0731
 6093SOL    MW424140   4.594   4.850   0.213  0.0884 -0.2331 -0.2075
 6094SOL     OW24141   3.635   2.597   6.123 -1.0944  0.4117 -0.2378
 6094SOL    HW224142   3.718   2.640   6.102 -0.2344 -0.8710  0.3730
 6094SOL    HW324143   3.592   2.655   6.185 -0.2516  0.6791  0.1079
 6094SOL    MW424144   3.640   2.610   6.128 -0.0027 -0.2395 -0.3956
 6095SOL     OW24145   2.845   5.652   5.741 -0.3870  0.3124  0.1802
 6095SOL    HW224146   2.941   5.655   5.734 -0.2146  0.3540  2.1454
 6095SOL    HW324147   2.816   5.734   5.703  0.3006  0.0860 -0.8929
 6095SOL    MW424148   2.854   5.663   5.735  0.0483  0.0644  0.2705
 6096SOL     OW24149   0.429   6.236   1.177 -0.3104  0.4534 -0.0013
 6096SOL    HW224150   0.423   6.263   1.085  0.2272 -0.8200 -0.4368
 6096SOL    HW324151   0.484   6.302   1.218  0.0755  0.6232 -0.7690
 6096SOL    MW424152   0.435   6.248   1.170 -0.3373  0.5674 -0.0617
 6097SOL     OW24153   1.801   2.098   3.645  0.5764  0.4679 -0.6590
 6097SOL    HW224154   1.819   2.022   3.701  0.8141  0.9639 -0.0424
 6097SOL    HW324155   1.856   2.086   3.568 -0.3480 -0.6324 -1.1712
 6097SOL    MW424156   1.811   2.087   3.643 -0.3732 -0.2763  0.0423
 6098SOL     OW24157   6.409   1.018   1.867  0.1153 -0.0170  0.1244
 6098SOL    HW224158   6.436   1.012   1.959 -0.4779  0.1743  0.3203
 6098SOL    HW324159   6.403   0.928   1.838 -0.0678 -0.0924  0.3915
 6098SOL    MW424160   6.412   1.006   1.876 -0.1197  0.4632 -0.1567
 6099SOL     OW24161   5.049   5.086   4.268  0.1651  0.0104 -0.2915
 6099SOL    HW224162   5.123   5.050   4.220 -0.4518  0.5927 -1.7556
 6099SOL    HW324163   4.991   5.011   4.284  1.2448 -0.5371  1.2949
 6099SOL    MW424164   5.051   5.071   4.264 -0.3780 -0.0138  0.2574
 6100SOL     OW24165   3.899   3.289   4.278 -0.2641 -0.2168 -0.5429
 6100SOL    HW224166   3.955   3.287   4.356 -1.0824 -0.4523  0.0544
 6100SOL    HW324167   3.949   3.340   4.214  0.9369 -1.0256 -0.2790
 6100SOL    MW424168   3.913   3.296   4.280  0.1786 -0.0059 -0.6498
 6101SOL     OW24169   1.153   3.912   0.633 -0.2276  0.7077 -1.0265
 6101SOL    HW224170   1.184   3.869   0.713 -0.0571  1.7167 -0.5327
 6101SOL    HW324171   1.061   3.932   0.650 -0.1988  0.9006 -1.1042
 6101SOL    MW424172   1.145   3.909   0.646  0.6812  0.1579 -0.9338
 6102SOL     OW24173   4.727   1.074   1.945 -0.3193  0.0779  0.3154
 6102SOL    HW224174   4.789   1.029   2.003  0.6936  1.5711  0.4589
 6102SOL    HW324175   4.769   1.158   1.927 -1.0547  0.0400 -1.8357
 6102SOL    MW424176   4.741   1.079   1.951 -0.0652  0.2826 -0.3016
 6103SOL     OW24177   0.080   0.059   2.173 -0.1323 -0.5118  0.2401
 6103SOL    HW224178   0.123   0.083   2.091 -2.8394  1.0749 -0.8573
 6103SOL    HW324179   0.099   0.133   2.232 -0.4793 -0.3068  0.0978
 6103SOL    MW424180   0.088   0.072   2.170 -0.3484 -0.5094  0.0962
 6104SOL     OW24181   1.882   0.895   0.279  0.3930 -0.3549  0.5809
 6104SOL    HW224182   1.977   0.907   0.288  0.3707 -0.3212  0.7750
 6104SOL    HW324183   1.850   0.887   0.369  0.4738 -2.3506  0.4910
 6104SOL    MW424184   1.890   0.895   0.292  0.0893 -0.1505  0.2341
 6105SOL     OW24185   1.072   4.735   0.548 -0.3290 -0.4259  0.2612
 6105SOL    HW224186   1.112   4.655   0.516  0.3965  0.1831 -0.4111
 6105SOL    HW324187   0.983   4.733   0.514 -0.1434 -0.6898 -0.2161
 6105SOL    MW424188   1.066   4.724   0.539  0.4357  0.5970  0.1674
 6106SOL     OW24189   3.333   0.209   0.991  0.3501  0.3061 -0.3388
 6106SOL    HW224190   3.354   0.299   0.964 -0.3917  1.0499  1.4082
 6106SOL    HW324191   3.415   0.161   0.979  1.3242  1.6830  0.4739
 6106SOL    MW424192   3.347   0.215   0.986 -0.2036 -0.3725 -0.1147
 6107SOL     OW24193   0.126   5.639   1.374  0.1771  0.7497 -0.1354
 6107SOL    HW224194   0.129   5.610   1.465  0.9406 -0.3236 -0.4979
 6107SOL    HW324195   0.033   5.634   1.351  0.1949 -0.6570  0.0516
 6107SOL    MW424196   0.114   5.635   1.383 -0.0486  0.0040  0.1125
 6108SOL     OW24197   2.465   0.815   3.800  0.3957  0.9761 -0.2006
 6108SOL    HW224198   2.413   0.832   3.722  1.0290  2.8838 -0.2695
 6108SOL    HW324199   2.498   0.726   3.788 -2.5739 -0.1953 -0.2490
 6108SOL    MW424200   2.463   0.806   3.788 -0.1899  0.6710 -0.0301
 6109SOL     OW24201   2.252   1.785   3.085  0.3253  0.1915  0.2619
 6109SOL    HW224202   2.192   1.825   3.021  0.2549  0.5599  0.5522
 6109SOL    HW324203   2.269   1.855   3.148  1.8154  0.3930 -0.3321
 6109SOL    MW424204   2.246   1.800   3.085  0.6010  0.1985  0.0747
 6110SOL     OW24205   6.359   2.090   1.017  0.2094 -0.0037 -0.1121
 6110SOL    HW224206   6.320   2.161   1.067  1.9826  0.8741  0.0662
 6110SOL    HW324207   6.450   2.086   1.046  0.7293 -0.8823 -1.7229
 6110SOL    MW424208   6.366   2.099   1.027  0.5551 -0.2651 -0.0615
 6111SOL     OW24209   4.830   5.462   3.163 -0.9327  0.1083 -0.5650
 6111SOL    HW224210   4.765   5.394   3.179 -0.2916 -0.3780  0.0343
 6111SOL    HW324211   4.829   5.516   3.242 -0.0797 -0.3612 -0.2160
 6111SOL    MW424212   4.822   5.460   3.175  0.6725 -0.3593 -0.1191
 6112SOL     OW24213   3.895   4.826   6.180 -0.4642 -0.6043 -0.4287
 6112SOL    HW224214   3.947   4.748   6.163 -1.2303 -1.0363 -0.8669
 6112SOL    HW324215   3.837   4.834   6.104 -0.7448  0.1031 -0.1571
 6112SOL    MW424216   3.894   4.817   6.168  0.0642 -0.0548  0.1606
 6113SOL     OW24217   0.369   3.369   3.771  0.5289 -0.0820 -0.6036
 6113SOL    HW224218   0.446   3.402   3.818 -1.6758  2.9933  1.1389
 6113SOL    HW324219   0.361   3.426   3.695 -1.0647  0.9862  0.3017
 6113SOL    MW424220   0.378   3.381   3.768  0.2555  0.9339  1.3648
 6114SOL     OW24221   5.761   0.014   0.377 -0.2171 -0.2819 -0.2112
 6114SOL    HW224222   5.712   0.053   0.449 -2.5325 -1.7797 -0.8742
 6114SOL    HW324223   5.737   0.067   0.301 -0.4632 -0.7434 -0.4601
 6114SOL    MW424224   5.752   0.026   0.376  0.3147 -0.1374  0.3074
 6115SOL     OW24225   2.816   4.472   5.629  0.7517 -0.5510 -0.4961
 6115SOL    HW224226   2.861   4.523   5.696  1.3889  0.4395 -1.6338
 6115SOL    HW324227   2.724   4.495   5.637  0.8664 -0.2089 -0.1553
 6115SOL    MW424228   2.810   4.482   5.639  0.4207 -0.3327 -0.4611
 6116SOL     OW24229   1.447   0.199   3.516 -0.4354  0.4697 -0.3530
 6116SOL    HW224230   1.438   0.276   3.573  0.3672  0.2276  0.1330
 6116SOL    HW324231   1.537   0.170   3.531 -1.1537 -1.4296  0.5980
 6116SOL    MW424232   1.458   0.206   3.526 -0.0195  0.0331 -0.3475
 6117SOL     OW24233   4.133   3.997   4.980  0.5052  0.2243  0.0713
 6117SOL    HW224234   4.161   4.051   4.906 -0.8550 -2.9085 -3.0392
 6117SOL    HW324235   4.212   3.951   5.007  0.7253  0.1524 -0.6576
 6117SOL    MW424236   4.147   3.998   4.974 -0.2081  0.6065  0.5763
 6118SOL     OW24237   2.177   3.981   0.662 -0.1402 -0.0798  0.1415
 6118SOL    HW224238   2.224   4.031   0.595 -1.5272  0.5283 -0.3963
 6118SOL    HW324239   2.097   4.030   0.678  0.2106 -0.1060  2.4110
 6118SOL    MW424240   2.173   3.994   0.656  0.1618 -0.0712  0.2859
 6119SOL     OW24241   0.607   5.471   1.234  0.5257 -0.2932 -0.0171
 6119SOL    HW224242   0.546   5.467   1.307 -1.1717  0.6747 -1.2881
 6119SOL    HW324243   0.661   5.548   1.252 -0.4630  0.4647 -0.1456
 6119SOL    MW424244   0.606   5.481   1.246 -0.1262 -0.1399 -0.1182
 6120SOL     OW24245   6.387   4.737   0.195  0.3106  0.0664  0.5492
 6120SOL    HW224246   6.328   4.682   0.246  0.3186 -0.1065  0.3748
 6120SOL    HW324247   6.343   4.822   0.191  0.4486  0.1637  1.0860
 6120SOL    MW424248   6.373   4.741   0.201  0.0460 -0.2181  0.5323
 6121SOL     OW24249   4.648   2.754   3.926  0.2315  0.0172  0.4622
 6121SOL    HW224250   4.700   2.700   3.867  0.8762  1.0715  0.0273
 6121SOL    HW324251   4.709   2.779   3.995  0.0250  0.4008  0.5107
 6121SOL    MW424252   4.663   2.750   3.927  0.4950  0.2901  0.1791
 6122SOL     OW24253   0.783   4.703   2.816  0.0610 -0.0924  0.7179
 6122SOL    HW224254   0.709   4.719   2.875 -1.0233 -1.6466 -0.1687
 6122SOL    HW324255   0.799   4.609   2.821  0.8863 -0.0383 -0.4013
 6122SOL    MW424256   0.776   4.693   2.825  0.1602  0.4150  0.0100
 6123SOL     OW24257   3.715   3.481   2.064 -0.0109  0.0046 -0.1522
 6123SOL    HW224258   3.765   3.455   2.141 -0.8370  0.0198  0.3905
 6123SOL    HW324259   3.731   3.411   2.000  0.3329 -0.2155  0.1708
 6123SOL    MW424260   3.724   3.468   2.066  0.4214 -0.4271 -0.3626
 6124SOL     OW24261   0.733   1.232   3.527  0.6774  0.2024  0.1744
 6124SOL    HW224262   0.742   1.232   3.622  1.5878 -1.8140  0.1447
 6124SOL    HW324263   0.815   1.269   3.495  1.3650 -1.2446  0.1788
 6124SOL    MW424264   0.745   1.236   3.535  0.0210 -0.2547 -0.9219
 6125SOL     OW24265   4.505   5.737   5.538 -0.6143 -0.2195  0.3923
 6125SOL    HW224266   4.450   5.667   5.505 -0.9963 -0.3896  1.3587
 6125SOL    HW324267   4.568   5.694   5.596  1.8272 -0.3084 -2.0776
 6125SOL    MW424268   4.506   5.722   5.541 -0.3887  0.3731  0.0437
 6126SOL     OW24269   1.311   4.057   2.470  0.3270 -0.5501  0.2270
 6126SOL    HW224270   1.228   4.039   2.426  0.2323 -2.4439  1.0855
 6126SOL    HW324271   1.373   4.072   2.399 -0.0205 -2.5855 -0.5682
 6126SOL    MW424272   1.308   4.056   2.455 -0.2831 -0.2555 -0.8796
 6127SOL     OW24273   2.980   4.859   5.855  0.2254 -0.0177  0.3748
 6127SOL    HW224274   2.904   4.861   5.914  0.0395  1.2736  0.1153
 6127SOL    HW324275   3.049   4.906   5.902  0.0426  1.1171 -0.4534
 6127SOL    MW424276   2.979   4.865   5.869  0.5929  0.3729 -0.1291
 6128SOL     OW24277   5.544   5.364   0.683  0.6140  0.1190  0.4230
 6128SOL    HW224278   5.562   5.447   0.726 -1.5266  0.4227  0.8399
 6128SOL    HW324279   5.484   5.318   0.742 -0.7459 -0.3414 -1.2186
 6128SOL    MW424280   5.539   5.369   0.696 -0.1822 -0.0200 -0.8421
 6129SOL     OW24281   2.318   6.076   1.304  0.6856  0.2802 -0.2203
 6129SOL    HW224282   2.407   6.043   1.308  0.9988  1.0397 -0.7359
 6129SOL    HW324283   2.310   6.132   1.381  0.9981  1.0176 -0.7101
 6129SOL    MW424284   2.329   6.079   1.315 -0.0019  0.2270  0.4927
 6130SOL     OW24285   1.537   1.091   6.352 -0.3726 -0.3218  0.1647
 6130SOL    HW224286   1.597   1.138   6.410 -0.3854  1.3625 -1.1116
 6130SOL    HW324287   1.575   1.101   6.265 -0.5346 -2.5060 -0.2207
 6130SOL    MW424288   1.550   1.098   6.348 -0.0997  0.0996  0.0499
 6131SOL     OW24289   6.207   0.460   4.510  0.4331  0.0147 -0.2114
 6131SOL    HW224290   6.229   0.456   4.604  0.0452  2.6400  0.0857
 6131SOL    HW324291   6.114   0.438   4.506 -0.1485  2.0679  0.4163
 6131SOL    MW424292   6.197   0.457   4.522 -0.4395  0.0516  0.1754
 6132SOL     OW24293   4.272   2.457   2.560  0.3125  0.1072  0.4713
 6132SOL    HW224294   4.207   2.505   2.509 -0.2641  1.8197  2.6545
 6132SOL    HW324295   4.225   2.427   2.638  1.4928 -1.1201  0.7667
 6132SOL    MW424296   4.257   2.459   2.563  0.3292  0.0910  0.4105
 6133SOL     OW24297   4.940   3.186   0.971 -0.6707  0.1008 -0.0279
 6133SOL    HW224298   4.891   3.174   1.052  0.7184  0.4766  0.8885
 6133SOL    HW324299   4.956   3.281   0.967  1.2457 -0.1663  0.4738
 6133SOL    MW424300   4.935   3.197   0.981  0.1490  0.0986  0.0144
 6134SOL     OW24301   2.638   0.168   3.401 -0.0820 -0.1873 -0.0984
 6134SOL    HW224302   2.701   0.104   3.366  1.2830 -0.0934  2.0151
 6134SOL    HW324303   2.653   0.247   3.348  2.2917  0.1232  0.8894
 6134SOL    MW424304   2.648   0.170   3.389  0.1948 -0.8042 -0.2351
 6135SOL     OW24305   0.103   0.017   4.933 -0.6675  0.4065  0.1052
 6135SOL    HW224306   0.147  -0.036   4.867  0.4754  1.0990  0.2806
 6135SOL    HW324307   0.102  -0.038   5.011 -0.0862  0.3904  0.1027
 6135SOL    MW424308   0.108   0.003   4.935  0.4077  0.4670  0.1337
 6136SOL     OW24309   1.590   1.014   3.904  0.3021 -0.1977 -0.4329
 6136SOL    HW224310   1.640   0.964   3.968 -0.8574 -0.3837  0.3466
 6136SOL    HW324311   1.648   1.021   3.828  1.1868 -1.1053  0.1456
 6136SOL    MW424312   1.604   1.009   3.902 -0.1736  0.3242  0.4587
 6137SOL     OW24313   1.066   3.044   1.582  0.1205 -0.1496 -0.0543
 6137SOL    HW224314   0.999   3.047   1.650  0.9056  0.0389  0.7288
 6137SOL    HW324315   1.148   3.032   1.629  0.8316  1.2826 -0.8561
 6137SOL    MW424316   1.068   3.043   1.597 -0.2264 -0.0839  0.1621
 6138SOL     OW24317   5.833   3.868   2.334 -0.5162 -0.8783  0.3373
 6138SOL    HW224318   5.787   3.951   2.338  0.7758  0.1270 -2.5154
 6138SOL    HW324319   5.908   3.885   2.277  0.4576 -3.7246  0.5881
 6138SOL    MW424320   5.837   3.881   2.327  0.2446  0.0442 -0.4885
 6139SOL     OW24321   3.415   1.404   5.449 -0.3199  0.0066  0.6579
 6139SOL    HW224322   3.421   1.472   5.382  0.9650 -1.5393 -0.9011
 6139SOL    HW324323   3.337   1.354   5.424 -1.9482  1.5036  2.4752
 6139SOL    MW424324   3.405   1.406   5.437  0.9183  0.2467  0.4173
 6140SOL     OW24325   1.185   3.420   6.352 -0.1719 -0.0800 -0.4755
 6140SOL    HW224326   1.242   3.358   6.398 -1.7173 -1.3200 -0.1457
 6140SOL    HW324327   1.183   3.388   6.262 -1.4174 -0.8897 -0.1839
 6140SOL    MW424328   1.192   3.407   6.346 -0.3129  0.2853 -0.3512
 6141SOL     OW24329   3.874   0.763   3.727  0.6125  0.5466  0.1308
 6141SOL    HW224330   3.867   0.830   3.795  1.4653  1.2317 -0.4367
 6141SOL    HW324331   3.822   0.689   3.761 -0.0347  1.3417  0.9346
 6141SOL    MW424332   3.866   0.762   3.741  0.5152 -0.1591 -0.0683
 6142SOL     OW24333   0.009   3.734   3.745  0.1613  0.1873 -0.0894
 6142SOL    HW224334  -0.022   3.823   3.761  3.3287  1.8054 -1.8443
 6142SOL    HW324335  -0.036   3.706   3.666 -0.8024  0.1942  0.4381
 6142SOL    MW424336  -0.001   3.742   3.737  0.5707  0.1250  0.0512
 6143SOL     OW24337   2.315   1.514   3.011  0.2583  0.0271  0.2695
 6143SOL    HW224338   2.258   1.590   3.022 -0.4174 -0.3983 -0.2232
 6143SOL    HW324339   2.403   1.547   3.029  0.5262  1.8505 -3.4612
 6143SOL    MW424340   2.319   1.529   3.015 -0.0714 -0.1965 -0.3135
 6144SOL     OW24341   0.657   5.771   4.184 -0.2848 -0.4407  0.3265
 6144SOL    HW224342   0.621   5.815   4.261 -0.9822  0.8311 -0.7057
 6144SOL    HW324343   0.640   5.830   4.112  0.0517 -1.7694 -0.8864
 6144SOL    MW424344   0.650   5.784   4.185 -0.2716  0.3351  0.0501
 6145SOL     OW24345   0.994   5.353   1.931 -0.2423  0.1463  0.2259
 6145SOL    HW224346   0.915   5.328   1.977  0.9910  0.0815  2.4216
 6145SOL    HW324347   1.044   5.272   1.923 -0.4094  0.1570 -1.2698
 6145SOL    MW424348   0.990   5.339   1.936 -0.0077 -0.4103  0.6974
 6146SOL     OW24349   0.227   1.132   5.286  0.1939 -0.3998 -0.1040
 6146SOL    HW224350   0.208   1.218   5.248  2.6179 -0.5604 -1.9316
 6146SOL    HW324351   0.214   1.143   5.380 -2.3476  1.1097 -0.5386
 6146SOL    MW424352   0.222   1.144   5.293 -0.0985  0.4797 -0.4428
 6147SOL     OW24353   0.287   2.606   6.228 -0.7710 -0.3397 -0.2556
 6147SOL    HW224354   0.251   2.520   6.206  1.1357 -1.3865  0.5189
 6147SOL    HW324355   0.272   2.615   6.322  0.0714 -0.3385 -0.1188
 6147SOL    MW424356   0.280   2.596   6.237  0.3359 -0.2700 -0.8767
 6148SOL     OW24357   1.484   5.370   1.032 -0.3329 -0.9376 -0.0751
 6148SOL    HW224358   1.430   5.310   1.084 -1.1237 -0.1214  0.0601
 6148SOL    HW324359   1.568   5.373   1.080  0.0001 -2.5268 -0.5174
 6148SOL    MW424360   1.488   5.363   1.045 -0.3003 -0.7460 -0.0956
 6149SOL     OW24361   3.565   4.919   6.312 -0.2288 -0.2025  0.5310
 6149SOL    HW224362   3.521   4.977   6.373 -1.4867 -0.9256  0.3396
 6149SOL    HW324363   3.655   4.913   6.345  0.3239  2.8203 -0.1547
 6149SOL    MW424364   3.571   4.926   6.325  0.2492  0.1976 -0.2060
 6150SOL     OW24365   1.630   1.128   0.935  0.2743 -0.7065  0.1273
 6150SOL    HW224366   1.569   1.164   0.870  0.2867 -0.6414  0.1514
 6150SOL    HW324367   1.695   1.197   0.946  0.0806 -0.5750  0.4692
 6150SOL    MW424368   1.630   1.142   0.928 -0.1192  0.0980 -0.1424
 6151SOL     OW24369   3.877   1.172   3.772  0.7196  0.0466  0.1075
 6151SOL    HW224370   3.888   1.247   3.830  0.3760 -0.7150  1.1931
 6151SOL    HW324371   3.915   1.098   3.820  0.4578 -0.5949 -0.6447
 6151SOL    MW424372   3.883   1.172   3.786 -0.2993 -0.0129  0.0783
 6152SOL     OW24373   1.780   4.582   2.362  0.4761  0.2623  0.3107
 6152SOL    HW224374   1.719   4.518   2.326  2.3919 -0.3858 -2.0640
 6152SOL    HW324375   1.797   4.642   2.289  0.8024  1.9137  1.6738
 6152SOL    MW424376   1.774   4.582   2.347 -0.7695  0.0153  0.0589
 6153SOL     OW24377   6.132   1.186   2.887 -0.2121  0.3257  0.3121
 6153SOL    HW224378   6.101   1.267   2.845  1.7529  0.1747 -1.6017
 6153SOL    HW324379   6.060   1.124   2.875 -0.5160  0.9012 -1.0669
 6153SOL    MW424380   6.118   1.189   2.880 -0.4753 -0.1817  0.1897
 6154SOL     OW24381   5.406   0.133   3.064  0.5694 -0.1911 -0.1517
 6154SOL    HW224382   5.328   0.084   3.089  0.4105  1.2370  2.4778
 6154SOL    HW324383   5.479   0.081   3.096  0.7910 -1.5080 -2.5777
 6154SOL    MW424384   5.405   0.120   3.071 -0.2382 -0.5017 -1.0708
 6155SOL     OW24385   6.413   5.500   4.458 -0.4866  0.0358 -0.2191
 6155SOL    HW224386   6.400   5.528   4.367  0.2910 -0.4117 -0.4718
 6155SOL    HW324387   6.452   5.413   4.451  2.1066  1.0551  0.4956
 6155SOL    MW424388   6.416   5.493   4.445 -0.1504  0.5223 -0.1071
 6156SOL     OW24389   3.358   1.452   2.698 -0.2644 -0.1749  0.1963
 6156SOL    HW224390   3.329   1.391   2.766  0.9715 -0.5925  0.3675
 6156SOL    HW324391   3.330   1.411   2.616  0.0113 -0.6695  0.3448
 6156SOL    MW424392   3.350   1.439   2.696 -0.0431  0.4557  0.4886
 6157SOL     OW24393   4.673   1.279   2.827 -0.1193 -0.2308 -0.0830
 6157SOL    HW224394   4.670   1.375   2.830  1.7034 -0.0952 -1.0793
 6157SOL    HW324395   4.651   1.252   2.916 -1.2482  1.0749  0.0767
 6157SOL    MW424396   4.669   1.288   2.839  0.8638 -0.1481  0.6263
 6158SOL     OW24397   4.658   1.573   5.719 -0.1939 -0.0279  0.5299
 6158SOL    HW224398   4.655   1.664   5.690 -0.3906  0.4278  1.9060
 6158SOL    HW324399   4.623   1.523   5.645  2.1708  0.7389 -1.2014
 6158SOL    MW424400   4.653   1.578   5.705 -0.2925 -0.0218 -0.4092
 6159SOL     OW24401   3.034   3.199   3.760 -0.7103  0.4739 -0.2951
 6159SOL    HW224402   2.983   3.181   3.681  1.6966 -0.5367 -1.7157
 6159SOL    HW324403   3.105   3.255   3.730 -0.6972  1.4880  1.5334
 6159SOL    MW424404   3.036   3.204   3.746  0.1835  0.1663  0.9242
 6160SOL     OW24405   2.816   3.983   1.664  0.4336 -0.3554 -0.6263
 6160SOL    HW224406   2.844   3.903   1.707 -0.1982 -0.8547 -1.1245
 6160SOL    HW324407   2.868   3.988   1.584 -1.3576 -1.7075 -1.9653
 6160SOL    MW424408   2.826   3.973   1.659  0.1878  0.0085 -0.0031
 6161SOL     OW24409   5.314   2.725   5.767  0.2443  1.0499  0.1328
 6161SOL    HW224410   5.276   2.722   5.855 -0.1168  1.0628 -0.0189
 6161SOL    HW324411   5.408   2.713   5.780  0.5631  3.5413  0.7576
 6161SOL    MW424412   5.321   2.723   5.780  0.4545  0.4732  0.0777
 6162SOL     OW24413   3.910   0.010   5.631 -0.0565 -0.1448 -0.3828
 6162SOL    HW224414   3.946   0.011   5.542  0.3249 -0.8464 -0.2464
 6162SOL    HW324415   3.819   0.037   5.620  0.3757  1.2067 -0.7892
 6162SOL    MW424416   3.903   0.014   5.618  0.1246 -0.1452  0.2848
 6163SOL     OW24417   4.261   0.290   6.096 -0.1162  0.2358 -0.4932
 6163SOL    HW224418   4.220   0.204   6.091 -0.1364  0.3153 -2.1578
 6163SOL    HW324419   4.294   0.306   6.008 -1.0927  2.4085 -0.5253
 6163SOL    MW424420   4.260   0.281   6.084 -0.2718 -0.4046 -0.6557
 6164SOL     OW24421   6.063   1.776   5.574  0.1255  0.1378  0.6294
 6164SOL    HW224422   5.972   1.790   5.598  0.0416  0.0368  0.3775
 6164SOL    HW324423   6.097   1.863   5.554 -0.3045  0.0315 -0.6297
 6164SOL    MW424424   6.056   1.789   5.575  0.5478  0.0194  0.0426
 6165SOL     OW24425   5.901   1.000   2.227 -0.0394  0.2512 -0.1839
 6165SOL    HW224426   5.978   0.954   2.195 -0.1514  0.7058 -1.1413
 6165SOL    HW324427   5.935   1.061   2.292  0.4146  0.4595 -0.6131
 6165SOL    MW424428   5.916   1.002   2.232 -0.2627 -0.0401  0.3680
 6166SOL     OW24429   0.881   2.533   6.365  0.1972 -0.0441 -0.0782
 6166SOL    HW224430   0.897   2.611   6.418 -0.5958  0.1490 -0.0987
 6166SOL    HW324431   0.785   2.527   6.361  0.2208  0.1912 -1.8187
 6166SOL    MW424432   0.870   2.543   6.371 -0.3291 -0.3349  0.4370
 6167SOL     OW24433   4.678   3.405   0.651 -0.2132 -0.1077  0.0452
 6167SOL    HW224434   4.738   3.371   0.584  1.1576 -0.0211  1.1744
 6167SOL    HW324435   4.736   3.437   0.720 -1.5579  1.4434  0.4999
 6167SOL    MW424436   4.694   3.405   0.651  0.5891 -0.1214  0.2383
 6168SOL     OW24437   3.255   3.944   5.211  0.4126 -0.2537  0.1219
 6168SOL    HW224438   3.177   3.989   5.179  0.7453 -0.2070 -0.6274
 6168SOL    HW324439   3.275   3.879   5.144  0.9828 -0.3075  0.3393
 6168SOL    MW424440   3.247   3.941   5.198 -0.3531  0.3845  0.5885
 6169SOL     OW24441   2.838   3.617   4.579  0.5755 -0.1519 -0.1318
 6169SOL    HW224442   2.809   3.576   4.661  1.0164  0.4095  0.3117
 6169SOL    HW324443   2.924   3.653   4.599  0.7860 -0.1977 -0.9129
 6169SOL    MW424444   2.845   3.616   4.593  0.0358  0.0096  0.0543
 6170SOL     OW24445   2.124   6.284   3.711 -0.3519 -0.2376 -0.1189
 6170SOL    HW224446   2.158   6.243   3.790  0.7355 -1.0694 -0.9946
 6170SOL    HW324447   2.047   6.233   3.687 -0.1811 -0.5164 -0.0716
 6170SOL    MW424448   2.119   6.272   3.718  0.4043  0.4713  0.3253
 6171SOL     OW24449   1.815   5.361   1.763 -0.1284  0.5690 -0.2674
 6171SOL    HW224450   1.847   5.279   1.801 -0.2261  1.2501  1.3949
 6171SOL    HW324451   1.722   5.362   1.782 -0.0024  1.3766  0.3616
 6171SOL    MW424452   1.807   5.350   1.771  0.5160  0.4905 -0.6168
 6172SOL     OW24453   0.892   5.892   4.570 -0.0719  0.0482 -0.0366
 6172SOL    HW224454   0.914   5.836   4.496 -1.9754 -1.7824  0.6936
 6172SOL    HW324455   0.959   5.872   4.636  0.6729  0.4797 -0.6420
 6172SOL    MW424456   0.904   5.882   4.569 -0.3057 -0.1122  0.1225
 6173SOL     OW24457   0.615   2.135   4.786  0.4228 -0.2231 -0.7162
 6173SOL    HW224458   0.696   2.110   4.742  0.4162 -2.9727  0.6247
 6173SOL    HW324459   0.604   2.069   4.855 -2.8666  0.1418 -0.7390
 6173SOL    MW424460   0.624   2.123   4.789  0.1338  0.4210 -0.1073
 6174SOL     OW24461   3.616   0.874   5.799 -0.4633 -0.3666  0.3534
 6174SOL    HW224462   3.672   0.799   5.777 -1.0280  0.0858 -3.2353
 6174SOL    HW324463   3.529   0.836   5.814 -0.8212 -0.4890 -1.7723
 6174SOL    MW424464   3.612   0.859   5.798 -0.4758 -0.1286 -0.1386
 6175SOL     OW24465   5.431   5.161   3.483  0.0955 -0.3570 -0.0328
 6175SOL    HW224466   5.391   5.240   3.518 -0.2195 -0.7308  0.4616
 6175SOL    HW324467   5.359   5.099   3.475  0.2452 -0.4306 -0.9244
 6175SOL    MW424468   5.416   5.163   3.486 -0.4056  0.0474 -0.1207
 6176SOL     OW24469   0.134   4.543   1.480  0.2009  0.8764 -0.4016
 6176SOL    HW224470   0.067   4.476   1.465 -0.6487  2.0207 -1.9203
 6176SOL    HW324471   0.167   4.564   1.393  1.7283  1.1870  0.2208
 6176SOL    MW424472   0.129   4.537   1.467  0.1453  0.5607  0.2096
 6177SOL     OW24473   1.487   0.837   1.847  0.7508 -0.9334  0.1085
 6177SOL    HW224474   1.508   0.923   1.884 -0.8615 -1.4525  2.3828
 6177SOL    HW324475   1.512   0.775   1.915  0.5308 -2.2009 -0.9248
 6177SOL    MW424476   1.493   0.840   1.861  0.6225 -0.1482  0.2753
 6178SOL     OW24477   4.568   6.205   6.257 -0.2353 -0.0457 -0.2837
 6178SOL    HW224478   4.637   6.226   6.320  1.0001 -2.1348 -0.8396
 6178SOL    HW324479   4.496   6.264   6.280  1.5593  1.9653  0.5580
 6178SOL    MW424480   4.568   6.216   6.268  0.2686 -0.5766  0.4165
 6179SOL     OW24481   0.862   4.232   0.784  0.8632 -0.2568 -0.1243
 6179SOL    HW224482   0.786   4.227   0.843  1.3865 -1.0357  0.5041
 6179SOL    HW324483   0.842   4.305   0.725 -0.6332 -0.8008 -0.3260
 6179SOL    MW424484   0.849   4.241   0.784 -0.2366  0.5319 -0.1583
 6180SOL     OW24485   0.434   6.357   5.392  0.1520 -0.4979  0.5015
 6180SOL    HW224486   0.498   6.423   5.419 -1.5064  0.9268  1.1413
 6180SOL    HW324487   0.392   6.330   5.473 -0.0881 -1.4182  0.0876
 6180SOL    MW424488   0.437   6.362   5.406  0.2679 -0.6842 -0.6193
 6181SOL     OW24489   1.016   2.057   3.995 -0.1461 -0.4725  0.0404
 6181SOL    HW224490   0.996   2.150   4.003  0.3707 -0.3521 -0.0266
 6181SOL    HW324491   0.935   2.018   3.961 -0.1964  0.0315 -0.4285
 6181SOL    MW424492   1.002   2.064   3.991  0.5101  0.1462  0.7554
 6182SOL     OW24493   1.106   2.174   4.519 -0.6035 -0.1289  0.2797
 6182SOL    HW224494   1.075   2.088   4.491 -3.6255  0.0060  2.6853
 6182SOL    HW324495   1.153   2.157   4.601  3.5271  0.0688 -1.7827
 6182SOL    MW424496   1.108   2.160   4.526  0.2437  0.2423  0.2165
 6183SOL     OW24497   3.478   3.793   4.414 -0.1856 -0.4599  0.2286
 6183SOL    HW224498   3.448   3.702   4.408 -0.7187 -0.3888  1.4517
 6183SOL    HW324499   3.407   3.838   4.460 -0.0554  0.6454 -0.6335
 6183SOL    MW424500   3.465   3.787   4.419  0.3693  0.2385 -0.2011
 6184SOL     OW24501   1.805   0.175   5.200 -0.2984  0.1169 -0.1774
 6184SOL    HW224502   1.849   0.210   5.122  2.2911 -1.2602  0.5663
 6184SOL    HW324503   1.715   0.159   5.172  0.0681  1.4110 -2.3055
 6184SOL    MW424504   1.799   0.178   5.186  0.3407  0.2564 -0.1709
 6185SOL     OW24505   4.523   3.282   2.304  0.6989 -0.2858 -0.7968
 6185SOL    HW224506   4.466   3.349   2.341  1.5473  0.1120 -0.1757
 6185SOL    HW324507   4.587   3.263   2.373  1.0423 -1.0581 -1.3035
 6185SOL    MW424508   4.524   3.288   2.318 -0.1739  0.1358 -0.9839
 6186SOL     OW24509   1.006   1.070   4.972 -0.0615  0.2822 -0.1023
 6186SOL    HW224510   0.965   1.076   5.058 -0.8866 -0.0605 -0.4655
 6186SOL    HW324511   1.100   1.069   4.991 -0.2028 -2.7141  1.0522
 6186SOL    MW424512   1.013   1.071   4.986  0.8386 -0.4466 -0.1540
 6187SOL     OW24513   2.761   5.591   6.023  0.3069 -0.1409  0.0938
 6187SOL    HW224514   2.846   5.572   6.064  0.1886 -0.6020  0.1331
 6187SOL    HW324515   2.778   5.586   5.929  0.6968  1.4298  0.0571
 6187SOL    MW424516   2.775   5.588   6.016  0.2395  0.0710  0.0016
 6188SOL     OW24517   4.268   3.602   5.782 -0.1754 -0.0569  0.0515
 6188SOL    HW224518   4.290   3.610   5.689 -1.7698  0.0118 -0.3489
 6188SOL    HW324519   4.294   3.513   5.806 -2.4443 -1.1567 -1.2777
 6188SOL    MW424520   4.274   3.592   5.773  0.2093  0.2469 -0.2551
 6189SOL     OW24521   2.766   4.352   1.724 -0.0246  0.0394 -0.2453
 6189SOL    HW224522   2.769   4.418   1.793 -1.1486 -2.3913  2.3073
 6189SOL    HW324523   2.842   4.297   1.740 -1.0652 -1.3830  0.0232
 6189SOL    MW424524   2.776   4.354   1.735 -0.5100  0.5902  0.2082
 6190SOL     OW24525   6.411   2.466   0.350  0.5130 -0.2381  0.4194
 6190SOL    HW224526   6.371   2.402   0.409  1.8687  0.0616  1.7249
 6190SOL    HW324527   6.347   2.477   0.280  0.1046 -2.7962  0.2857
 6190SOL    MW424528   6.397   2.459   0.348 -0.2900 -0.3039 -0.6576
 6191SOL     OW24529   1.028   0.723   5.399 -0.5732  0.6681 -0.1176
 6191SOL    HW224530   1.117   0.718   5.365 -0.7730  0.0680 -0.5816
 6191SOL    HW324531   1.037   0.765   5.485  0.0427  1.4421 -0.5454
 6191SOL    MW424532   1.041   0.728   5.406 -0.1283 -0.2069  0.1709
 6192SOL     OW24533   2.548   1.733   4.476 -0.7073  0.0642 -0.6608
 6192SOL    HW224534   2.547   1.827   4.490 -0.2435 -0.1149  0.7363
 6192SOL    HW324535   2.485   1.718   4.405 -2.3224  1.2213  0.4716
 6192SOL    MW424536   2.539   1.743   4.468 -0.4130  0.3345 -0.1150
 6193SOL     OW24537   5.670   0.092   3.157 -0.5797 -0.1674  0.3656
 6193SOL    HW224538   5.754   0.111   3.114 -1.4776  1.6489 -0.7276
 6193SOL    HW324539   5.690   0.095   3.250  0.6640 -0.1665  0.1151
 6193SOL    MW424540   5.684   0.095   3.163 -0.1167  0.0736  0.1168
 6194SOL     OW24541   4.969   0.886   0.691 -0.4498  0.2137  0.0832
 6194SOL    HW224542   4.940   0.796   0.707 -1.8670  0.2432 -1.9600
 6194SOL    HW324543   5.058   0.890   0.726 -0.9150 -1.5166  1.5874
 6194SOL    MW424544   4.977   0.875   0.698 -0.2937  0.1587 -0.1377
 6195SOL     OW24545   2.227   6.372   4.743 -0.0176  0.2783  0.5190
 6195SOL    HW224546   2.211   6.404   4.654  0.2826 -1.9504 -0.4044
 6195SOL    HW324547   2.208   6.447   4.799 -1.1131  1.4931 -1.3572
 6195SOL    MW424548   2.222   6.386   4.738  0.2602  0.3150 -0.1117
 6196SOL     OW24549   2.043   2.465   1.513 -0.5887  0.3564 -0.3920
 6196SOL    HW224550   2.034   2.558   1.491 -0.1203  0.2959 -0.8537
 6196SOL    HW324551   2.132   2.457   1.546 -0.4386 -0.0270 -0.8818
 6196SOL    MW424552   2.053   2.476   1.514  0.0977 -0.3793 -0.0379
 6197SOL     OW24553   4.933   1.628   1.417  0.1833 -0.2091  0.2285
 6197SOL    HW224554   4.842   1.658   1.422  0.3955  0.4258  0.3416
 6197SOL    HW324555   4.979   1.698   1.371  0.6975 -0.3314  0.5474
 6197SOL    MW424556   4.927   1.641   1.412 -0.4097  0.5223 -0.6751
 6198SOL     OW24557   1.216   5.573   5.080  0.3491  0.1146  0.1067
 6198SOL    HW224558   1.214   5.595   5.174  0.3795  1.5183 -0.1950
 6198SOL    HW324559   1.298   5.612   5.049 -0.7320  1.6947 -0.9306
 6198SOL    MW424560   1.227   5.581   5.089  0.0202 -0.5568 -0.3749
 6199SOL     OW24561   3.522   3.732   3.345  0.0605 -0.3017 -0.4970
 6199SOL    HW224562   3.600   3.781   3.319 -1.0363  0.8714 -1.7656
 6199SOL    HW324563   3.458   3.799   3.368 -0.9237 -1.2013 -0.5426
 6199SOL    MW424564   3.524   3.747   3.344 -0.0283 -0.1513 -0.5649
 6200SOL     OW24565   3.443   4.623   4.345  0.0845 -0.4289  0.3268
 6200SOL    HW224566   3.495   4.580   4.413 -0.8088 -0.3412  1.0907
 6200SOL    HW324567   3.367   4.657   4.391  0.4156  1.3703 -0.3927
 6200SOL    MW424568   3.440   4.622   4.360 -0.0532 -0.0568  0.8204
 6201SOL     OW24569   0.665   6.025   0.573 -0.4003  0.4371 -0.2135
 6201SOL    HW224570   0.703   5.980   0.498 -0.8340  0.3056 -0.3613
 6201SOL    HW324571   0.732   6.018   0.642 -0.0597  0.4381 -0.5433
 6201SOL    MW424572   0.679   6.018   0.572 -0.4358  0.0326  0.3145
 6202SOL     OW24573   4.909   2.573   2.257  0.5266  0.1381  0.5972
 6202SOL    HW224574   4.981   2.636   2.266  1.7085 -0.6952 -2.0526
 6202SOL    HW324575   4.843   2.619   2.205  0.3011  0.0030  0.7611
 6202SOL    MW424576   4.910   2.587   2.251  0.1807 -0.0337  0.2386
 6203SOL     OW24577   3.228   5.846   4.213  0.0747  0.0180 -0.6105
 6203SOL    HW224578   3.276   5.786   4.157  0.3518 -0.7445  0.4179
 6203SOL    HW324579   3.138   5.812   4.212  0.1455 -0.1804 -0.3531
 6203SOL    MW424580   3.222   5.834   4.206 -0.6017  0.0640  0.1408
 6204SOL     OW24581   6.281   2.569   5.396  0.2266  0.1057  0.4486
 6204SOL    HW224582   6.292   2.642   5.335  1.9765 -2.5305 -2.7455
 6204SOL    HW324583   6.197   2.529   5.371  0.7342 -0.7260  0.0279
 6204SOL    MW424584   6.271   2.573   5.384  0.2339  0.3448 -0.2959
 6205SOL     OW24585   5.048   3.795   4.872 -0.1818 -0.2575  0.3793
 6205SOL    HW224586   5.077   3.705   4.858 -0.5524 -0.3797  0.3717
 6205SOL    HW324587   5.036   3.831   4.784  0.8206  0.0909  0.3702
 6205SOL    MW424588   5.050   3.788   4.858 -0.1471  0.8215  0.1436
 6206SOL     OW24589   3.109   6.211   2.686  0.0412  0.1146  0.1426
 6206SOL    HW224590   3.130   6.257   2.768 -0.5845 -1.9209  1.5300
 6206SOL    HW324591   3.174   6.141   2.681  0.0855  0.2274 -1.1567
 6206SOL    MW424592   3.121   6.208   2.697 -0.3145  0.5325 -0.0282
 6207SOL     OW24593   0.168   6.294   0.869 -0.5850 -0.1698  0.2149
 6207SOL    HW224594   0.258   6.319   0.893 -0.3826 -1.6640  1.1517
 6207SOL    HW324595   0.153   6.338   0.786  1.4324 -0.7597 -0.5364
 6207SOL    MW424596   0.178   6.303   0.861  0.4751 -0.0035 -0.2093
 6208SOL     OW24597   4.480   3.210   0.691  0.2235  0.0626 -0.1789
 6208SOL    HW224598   4.557   3.267   0.687  1.1738 -1.0953  0.9782
 6208SOL    HW324599   4.483   3.172   0.779 -1.8467  0.2116  0.0015
 6208SOL    MW424600   4.491   3.213   0.702  0.4051  0.1755  0.2664
 6209SOL     OW24601   2.836   3.966   5.955 -0.0775 -0.0531  0.4836
 6209SOL    HW224602   2.845   3.913   6.034  1.7707  0.6315  0.7803
 6209SOL    HW324603   2.833   3.903   5.884 -1.7618 -0.6840  1.0609
 6209SOL    MW424604   2.837   3.951   5.956 -0.0604 -0.7537 -0.0027
 6210SOL     OW24605   2.966   0.753   3.532 -0.5300 -0.0738  0.8822
 6210SOL    HW224606   3.056   0.727   3.555  0.0091  0.6168 -0.3335
 6210SOL    HW324607   2.943   0.695   3.459 -1.3615 -0.7226  1.6307
 6210SOL    MW424608   2.975   0.742   3.525  0.0560 -0.2901 -0.4240
 6211SOL     OW24609   2.961   4.780   4.740  0.0123  0.8371 -0.3352
 6211SOL    HW224610   2.899   4.814   4.805 -0.8430  0.5572 -0.9860
 6211SOL    HW324611   2.908   4.725   4.682  0.8184  0.8183 -1.0827
 6211SOL    MW424612   2.946   4.777   4.741  0.5472 -0.1487  0.0498
 6212SOL     OW24613   1.437   2.488   5.796  0.1052 -0.4032  0.2117
 6212SOL    HW224614   1.424   2.530   5.711 -0.1018 -0.5033  0.1948
 6212SOL    HW324615   1.388   2.406   5.791  0.2736 -0.5127  0.3492
 6212SOL    MW424616   1.429   2.483   5.784 -0.3547  0.2229  0.0457
 6213SOL     OW24617   3.192   4.603   0.851 -0.1654  0.0179  0.3844
 6213SOL    HW224618   3.279   4.582   0.884 -0.0168  0.8338  0.5313
 6213SOL    HW324619   3.192   4.572   0.760 -0.3780 -1.7020  0.9266
 6213SOL    MW424620   3.203   4.596   0.843 -0.3061 -0.5444  0.5754
 6214SOL     OW24621   4.418   0.073   1.749 -0.2626 -0.3273  0.4738
 6214SOL    HW224622   4.461   0.032   1.674 -1.2094  1.5028 -1.1867
 6214SOL    HW324623   4.436   0.015   1.823  3.0369 -0.8196 -0.5579
 6214SOL    MW424624   4.426   0.060   1.749 -1.0780  0.5298  0.0878
 6215SOL     OW24625   4.293   4.510   1.940  0.2519 -0.0952 -0.1866
 6215SOL    HW224626   4.297   4.602   1.913 -0.6056  0.3496  1.1359
 6215SOL    HW324627   4.329   4.462   1.865 -0.2893  1.2290 -1.3340
 6215SOL    MW424628   4.299   4.515   1.926 -0.5503  0.0022  0.4822
 6216SOL     OW24629   0.136   3.464   2.967  0.2274  0.1424  0.0347
 6216SOL    HW224630   0.087   3.436   3.044 -1.2764 -0.6064 -1.1309
 6216SOL    HW324631   0.227   3.440   2.986 -0.4265 -1.9869  0.7268
 6216SOL    MW424632   0.141   3.457   2.980 -0.4356 -0.6992 -0.0632
 6217SOL     OW24633   1.478   4.517   5.735 -0.0844  0.0981 -0.6352
 6217SOL    HW224634   1.550   4.555   5.685 -0.1077 -0.2218 -0.9174
 6217SOL    HW324635   1.452   4.440   5.684  1.8768 -2.0559  1.3696
 6217SOL    MW424636   1.484   4.512   5.721  0.3696  0.1408  0.5717
 6218SOL     OW24637   1.262   2.431   4.557  0.0444 -0.0131  0.1476
 6218SOL    HW224638   1.197   2.362   4.543 -0.2880  0.2322  0.4484
 6218SOL    HW324639   1.286   2.423   4.650  0.6082 -0.2416 -0.0147
 6218SOL    MW424640   1.257   2.421   4.567  0.0112  0.4881 -0.0275
 6219SOL     OW24641   5.760   5.790   6.074 -0.0277  0.1894  0.4964
 6219SOL    HW224642   5.838   5.846   6.072 -0.1584  0.4102  1.3680
 6219SOL    HW324643   5.788   5.714   6.124 -0.0633 -0.2233 -0.0967
 6219SOL    MW424644   5.774   5.787   6.080 -0.3234  0.2752  0.1293
 6220SOL     OW24645   4.323   2.821   1.869  0.0749  0.0037 -0.1492
 6220SOL    HW224646   4.298   2.890   1.807  1.2768  0.3442 -0.2924
 6220SOL    HW324647   4.260   2.751   1.853  1.5818 -0.8279 -3.3650
 6220SOL    MW424648   4.311   2.821   1.859 -0.0750  0.1782  0.4239
 6221SOL     OW24649   1.441   1.773   2.595 -0.1862 -0.0081 -0.0449
 6221SOL    HW224650   1.500   1.781   2.671 -0.0993  1.1966 -0.2180
 6221SOL    HW324651   1.486   1.818   2.525  0.8159 -3.0640 -1.5455
 6221SOL    MW424652   1.455   1.780   2.596 -0.1083 -0.0367  0.1103
 6222SOL     OW24653   2.606   4.904   5.997  0.2426 -0.6495 -0.2708
 6222SOL    HW224654   2.513   4.884   5.994  0.3415 -1.2393  0.3821
 6222SOL    HW324655   2.648   4.819   6.012  0.9697 -0.5879 -1.7055
 6222SOL    MW424656   2.599   4.890   5.998 -0.3940  0.1931 -0.3942
 6223SOL     OW24657   0.698   1.234   3.824 -0.7853 -0.2216 -0.0411
 6223SOL    HW224658   0.662   1.317   3.855 -0.2152  0.0080  0.0168
 6223SOL    HW324659   0.635   1.168   3.854  0.3662 -0.1764  2.8127
 6223SOL    MW424660   0.685   1.237   3.832  0.1311  0.1681 -0.1034
 6224SOL     OW24661   3.898   0.250   1.929  0.2434  0.1554  0.7144
 6224SOL    HW224662   3.972   0.210   1.883  0.3085  1.3115 -0.2254
 6224SOL    HW324663   3.856   0.177   1.975  0.9453 -0.8019 -0.1241
 6224SOL    MW424664   3.902   0.235   1.929 -0.4240  0.1874 -0.0794
 6225SOL     OW24665   1.892   5.459   3.492 -0.4521 -0.1875 -0.2483
 6225SOL    HW224666   1.836   5.531   3.461 -0.2945  0.3125  0.5834
 6225SOL    HW324667   1.866   5.384   3.439 -2.9438 -0.3467  1.0736
 6225SOL    MW424668   1.881   5.459   3.481 -0.1297  0.2203  0.6643
 6226SOL     OW24669   1.677   3.901   2.693 -0.0881  0.2242  0.0534
 6226SOL    HW224670   1.712   3.887   2.605  1.4137 -0.4508  0.7355
 6226SOL    HW324671   1.700   3.992   2.714 -0.5411  0.4200 -0.2796
 6226SOL    MW424672   1.684   3.911   2.684 -0.0601 -0.3477  0.3293
 6227SOL     OW24673   2.064   2.460   4.102  0.2141 -0.1153 -0.3589
 6227SOL    HW224674   2.040   2.528   4.039 -0.8984 -0.3771 -0.2256
 6227SOL    HW324675   2.144   2.494   4.143  0.1985  0.6737 -0.9549
 6227SOL    MW424676   2.071   2.474   4.099  0.2265 -0.3174 -0.0713
 6228SOL     OW24677   0.071   5.141   5.154  0.3019 -0.0392 -0.1537
 6228SOL    HW224678  -0.023   5.159   5.161  0.4650  0.9248 -0.3368
 6228SOL    HW324679   0.113   5.208   5.208  0.9283  0.1235 -0.8214
 6228SOL    MW424680   0.064   5.152   5.162  0.6889  0.0844  0.5462
 6229SOL     OW24681   2.011   3.890   3.562  0.4337  0.1405  0.1107
 6229SOL    HW224682   1.967   3.883   3.477  1.5903 -0.4801 -0.4641
 6229SOL    HW324683   1.997   3.981   3.588 -0.1191  0.2869 -0.6402
 6229SOL    MW424684   2.003   3.902   3.554 -0.0779 -0.0256 -0.5778
 6230SOL     OW24685   6.150   1.122   0.536  1.0704  0.1150 -0.0712
 6230SOL    HW224686   6.227   1.114   0.593  0.6602 -3.2365  0.2345
 6230SOL    HW324687   6.079   1.149   0.595  1.8636  3.2415 -0.3572
 6230SOL    MW424688   6.151   1.125   0.552 -0.3625  0.3100 -0.3833
 6231SOL     OW24689   4.170   1.672   0.736  0.4450 -0.0662 -0.3749
 6231SOL    HW224690   4.212   1.650   0.819 -0.5773 -1.6038 -0.2408
 6231SOL    HW324691   4.206   1.609   0.674  0.1825  0.2133 -0.8121
 6231SOL    MW424692   4.181   1.661   0.739  0.0873  0.0644  0.2034
 6232SOL     OW24693   0.823   5.236   4.207 -0.3258 -0.5672  0.0771
 6232SOL    HW224694   0.793   5.327   4.201  0.5296 -0.2898 -0.0866
 6232SOL    HW324695   0.742   5.185   4.217 -0.8122  0.2090  0.2131
 6232SOL    MW424696   0.808   5.242   4.208  0.3310 -0.0379 -0.5641
 6233SOL     OW24697   6.008   3.482   1.367 -0.5087 -0.1303  0.2514
 6233SOL    HW224698   5.926   3.515   1.404 -1.2490  0.5249 -1.8669
 6233SOL    HW324699   6.024   3.400   1.414 -0.7514  1.1844  2.8069
 6233SOL    MW424700   6.000   3.476   1.378  0.4038 -0.2318  0.0110
 6234SOL     OW24701   0.184   5.355   1.236  0.1830  0.0111 -0.0779
 6234SOL    HW224702   0.257   5.357   1.297 -0.7892 -2.0544  1.2598
 6234SOL    HW324703   0.129   5.429   1.262  0.4155 -0.0905  0.7128
 6234SOL    MW424704   0.186   5.365   1.247  0.2057  0.0049  0.2264
 6235SOL     OW24705   3.691   0.430   4.659 -0.3052 -0.7653  0.0604
 6235SOL    HW224706   3.619   0.469   4.610  0.9496  1.1079 -0.4309
 6235SOL    HW324707   3.650   0.390   4.736 -1.7432  1.8021  0.7455
 6235SOL    MW424708   3.676   0.430   4.663  0.1629  0.4296  0.0226
 6236SOL     OW24709   2.852   6.344   0.208 -0.2837  0.4559 -0.5390
 6236SOL    HW224710   2.943   6.326   0.184 -0.2577 -0.2958  0.0993
 6236SOL    HW324711   2.800   6.307   0.137 -0.1835 -1.2290  0.2325
 6236SOL    MW424712   2.857   6.337   0.195 -0.4006  0.2624 -0.0727
 6237SOL     OW24713   0.295   4.832   4.025 -0.9112  0.0176  0.0093
 6237SOL    HW224714   0.213   4.881   4.032 -0.6694  0.2714  1.2164
 6237SOL    HW324715   0.298   4.778   4.104 -0.3978 -0.7639 -0.5237
 6237SOL    MW424716   0.285   4.831   4.036  0.0732 -0.0487 -0.0245
 6238SOL     OW24717   1.293   2.251   4.133  0.9570 -0.2770  0.4793
 6238SOL    HW224718   1.321   2.276   4.221 -0.4971 -0.2976  0.9735
 6238SOL    HW324719   1.275   2.157   4.140 -1.6243  0.1682  0.9034
 6238SOL    MW424720   1.295   2.242   4.146  0.9309 -0.0008  0.0269
 6239SOL     OW24721   0.006   0.744   4.841 -0.1901  0.3023 -0.4697
 6239SOL    HW224722   0.048   0.817   4.795  0.6544  1.5216  2.0561
 6239SOL    HW324723   0.018   0.669   4.783  3.8065  1.0193 -0.8521
 6239SOL    MW424724   0.013   0.744   4.827 -0.0813  0.6753 -0.6071
 6240SOL     OW24725   0.727   5.214   2.340  0.1791 -0.3651  0.3076
 6240SOL    HW224726   0.803   5.200   2.397  1.7674  0.2525 -1.5716
 6240SOL    HW324727   0.711   5.309   2.345 -0.2669 -0.4437  0.4199
 6240SOL    MW424728   0.735   5.225   2.348  0.3008 -0.4912  0.6375
 6241SOL     OW24729   1.258   0.250   2.793 -0.1647  0.5410  0.0977
 6241SOL    HW224730   1.344   0.221   2.823  0.5039  0.6256 -1.6222
 6241SOL    HW324731   1.258   0.345   2.811  0.2312  0.5986 -0.2003
 6241SOL    MW424732   1.269   0.259   2.800  0.3728  0.3640  0.6114
 6242SOL     OW24733   4.115   1.321   2.148 -0.4772  0.1448 -0.5670
 6242SOL    HW224734   4.137   1.295   2.059 -2.0602  1.8462 -1.4894
 6242SOL    HW324735   4.045   1.385   2.139 -0.7854  0.2582  1.9141
 6242SOL    MW424736   4.109   1.326   2.135 -0.0253  0.0746  0.6620
 6243SOL     OW24737   1.895   0.017   4.204  0.2561  0.0212  0.0883
 6243SOL    HW224738   1.826  -0.047   4.218  0.8188 -0.1594  2.6283
 6243SOL    HW324739   1.972  -0.036   4.182  0.1341  0.0270 -0.3498
 6243SOL    MW424740   1.896   0.001   4.203  0.4615 -0.0901  0.4242
 6244SOL     OW24741   5.848   3.650   6.383 -0.5613  0.9143  0.3262
 6244SOL    HW224742   5.828   3.621   6.294 -0.2672  0.3524  0.4382
 6244SOL    HW324743   5.918   3.592   6.412 -1.0471  0.7113  1.1340
 6244SOL    MW424744   5.854   3.638   6.375 -0.4913  0.0898  0.3189
 6245SOL     OW24745   5.886   2.869   4.497  0.6012 -0.2228  0.5020
 6245SOL    HW224746   5.912   2.961   4.491 -1.5105  0.3943 -0.0852
 6245SOL    HW324747   5.890   2.838   4.407  0.4221 -0.4458  0.5728
 6245SOL    MW424748   5.890   2.877   4.484 -0.0981  0.2582 -0.1573
 6246SOL     OW24749   4.654   4.645   2.196 -0.0289 -0.0846  0.2918
 6246SOL    HW224750   4.621   4.571   2.146  1.1145 -0.8588  0.6399
 6246SOL    HW324751   4.670   4.713   2.130  1.8129 -1.2140 -0.5229
 6246SOL    MW424752   4.652   4.644   2.181  0.0836  0.8221 -0.1455
 6247SOL     OW24753   2.656   0.295   1.042  0.0581 -0.0517  0.5889
 6247SOL    HW224754   2.648   0.235   0.968  0.1169 -1.1509  1.4667
 6247SOL    HW324755   2.716   0.252   1.102 -0.2710  0.6654  1.4586
 6247SOL    MW424756   2.663   0.282   1.040  0.4807 -0.2269  0.8372
 6248SOL     OW24757   0.305   4.451   3.167 -0.7259 -0.1149 -0.3425
 6248SOL    HW224758   0.286   4.363   3.199 -1.5823 -0.3021 -1.3102
 6248SOL    HW324759   0.306   4.442   3.071  0.1527  0.7438 -0.4338
 6248SOL    MW424760   0.303   4.438   3.158  0.0839  0.1430  0.6926
 6249SOL     OW24761   6.082   4.612   0.010 -0.7917 -0.2658 -0.0271
 6249SOL    HW224762   6.076   4.680   0.076  0.6245 -1.0721  0.9798
 6249SOL    HW324763   6.158   4.636  -0.043 -2.1462  0.5993 -1.7050
 6249SOL    MW424764   6.091   4.624   0.011 -0.1708 -0.4594 -0.5083
 6250SOL     OW24765   5.755   3.127   5.027 -0.0687  0.1326 -0.2828
 6250SOL    HW224766   5.810   3.052   5.048  0.7271  0.8830  0.3825
 6250SOL    HW324767   5.747   3.175   5.110 -1.7321  0.0413 -0.3542
 6250SOL    MW424768   5.761   3.124   5.041 -0.1136 -0.2029  0.5194
 6251SOL     OW24769   3.133   6.373   0.255  0.0769  0.1942 -0.4625
 6251SOL    HW224770   3.222   6.407   0.265  0.1404  0.3698 -1.5411
 6251SOL    HW324771   3.087   6.405   0.333  0.8503  0.4335 -0.0885
 6251SOL    MW424772   3.139   6.382   0.267 -0.0236 -0.3092  0.2424
 6252SOL     OW24773   1.303   1.473   2.875 -0.0395  0.5218  0.2064
 6252SOL    HW224774   1.325   1.474   2.782 -1.3878  0.1881 -0.1298
 6252SOL    HW324775   1.208   1.481   2.878  0.0083  0.8962  1.5738
 6252SOL    MW424776   1.293   1.474   2.863  0.3163  0.0881  0.2304
 6253SOL     OW24777   5.260   1.260   3.545 -0.1786 -0.0460  0.0287
 6253SOL    HW224778   5.347   1.299   3.550  0.0755 -0.5338 -0.4133
 6253SOL    HW324779   5.215   1.289   3.624  0.9532 -1.1300  1.1106
 6253SOL    MW424780   5.266   1.269   3.556 -0.2696 -0.1183  0.3263
 6254SOL     OW24781   3.579   1.931   5.904  0.2131  0.5755 -0.4145
 6254SOL    HW224782   3.603   1.846   5.868  0.5097 -0.2984  1.7217
 6254SOL    HW324783   3.503   1.913   5.959  0.4107  1.6477  0.2430
 6254SOL    MW424784   3.572   1.917   5.906 -0.2538 -0.7945  0.6800
 6255SOL     OW24785   3.792   5.882   5.425  0.7015 -0.3248  0.6758
 6255SOL    HW224786   3.887   5.880   5.423  0.7506 -1.0946  2.3285
 6255SOL    HW324787   3.766   5.790   5.432 -0.2822 -0.3197 -1.7235
 6255SOL    MW424788   3.801   5.869   5.425  0.3059  0.3424  0.2532
 6256SOL     OW24789   2.890   1.909   1.053 -0.1529  0.3992 -0.4154
 6256SOL    HW224790   2.928   1.986   1.096 -0.9764  0.9060 -0.5641
 6256SOL    HW324791   2.922   1.912   0.963  1.6708 -0.7282  0.1462
 6256SOL    MW424792   2.899   1.919   1.047 -0.1417  0.2002 -0.0652
 6257SOL     OW24793   4.575   2.069   3.853  0.2109 -0.2088 -0.1238
 6257SOL    HW224794   4.509   2.015   3.811 -0.4053  0.0228  0.5241
 6257SOL    HW324795   4.568   2.154   3.809 -0.8671  0.2276  0.8209
 6257SOL    MW424796   4.565   2.073   3.841  0.6489  0.4693  0.3729
 6258SOL     OW24797   2.872   3.351   0.220 -0.0011 -0.1061  0.3098
 6258SOL    HW224798   2.967   3.360   0.219 -0.0048 -0.0311  0.5369
 6258SOL    HW324799   2.840   3.437   0.194  0.0184 -0.8459 -2.3640
 6258SOL    MW424800   2.880   3.363   0.217 -0.1480  0.1652  0.2295
 6259SOL     OW24801   2.164   1.475   1.955 -0.0694 -0.1973  0.6580
 6259SOL    HW224802   2.088   1.531   1.937 -0.7759 -1.4754 -0.5245
 6259SOL    HW324803   2.221   1.530   2.008 -0.6080  1.7467 -0.6395
 6259SOL    MW424804   2.161   1.490   1.959  0.2464 -0.0549  0.2545
 6260SOL     OW24805   5.908   2.080   4.342  0.0008 -0.7357  0.0310
 6260SOL    HW224806   5.992   2.065   4.385  0.3079  0.3865 -0.1682
 6260SOL    HW324807   5.916   2.035   4.258  1.4266  1.5396 -1.1441
 6260SOL    MW424808   5.920   2.072   4.336  0.0217 -0.0692  0.6652
 6261SOL     OW24809   1.698   0.621   1.464 -0.0167 -0.1390  0.4723
 6261SOL    HW224810   1.710   0.570   1.384 -0.4123 -0.5388  0.6633
 6261SOL    HW324811   1.631   0.686   1.442 -0.4768 -0.5586  0.6157
 6261SOL    MW424812   1.691   0.623   1.450 -0.1291  0.2797  0.0197
 6262SOL     OW24813   5.188   1.853   3.021  0.5020 -0.1157 -0.5784
 6262SOL    HW224814   5.224   1.833   3.108 -1.9369 -0.0363  0.5220
 6262SOL    HW324815   5.136   1.776   2.999 -1.8573  1.3013 -0.2701
 6262SOL    MW424816   5.186   1.840   3.030 -0.3614 -0.2731 -0.5423
 6263SOL     OW24817   3.429   0.067   3.827 -0.0716  0.3702 -0.4999
 6263SOL    HW224818   3.460   0.142   3.776  0.2095 -0.2656 -1.2890
 6263SOL    HW324819   3.496   0.001   3.816 -0.1215  0.1389  0.5373
 6263SOL    MW424820   3.442   0.068   3.819 -0.3906  0.4557 -0.4735
 6264SOL     OW24821   0.217   6.398   4.127  0.8115 -0.8532  0.2451
 6264SOL    HW224822   0.191   6.366   4.213  0.1204 -2.3977 -0.5071
 6264SOL    HW324823   0.171   6.342   4.065 -0.5874  1.7058 -1.1774
 6264SOL    MW424824   0.208   6.386   4.130  0.3596 -0.2473 -0.3626
 6265SOL     OW24825   2.298   2.404   0.462 -0.0952  0.6393  0.2320
 6265SOL    HW224826   2.344   2.415   0.379 -0.6033  0.5546 -0.0642
 6265SOL    HW324827   2.322   2.317   0.492 -0.6800  0.2823 -0.3142
 6265SOL    MW424828   2.307   2.394   0.455 -0.3522 -0.2380  0.3154
 6266SOL     OW24829   3.357   0.544   4.252  0.0298  0.3351  0.3497
 6266SOL    HW224830   3.311   0.460   4.245  1.1348 -0.3786  1.2027
 6266SOL    HW324831   3.288   0.609   4.259 -0.8678 -0.4434 -0.7811
 6266SOL    MW424832   3.342   0.541   4.252  0.0063 -0.7185  0.4862
 6267SOL     OW24833   0.419   0.717   6.329  0.1265  0.2831 -0.3171
 6267SOL    HW224834   0.393   0.806   6.353 -0.7202  0.2973 -1.2519
 6267SOL    HW324835   0.394   0.664   6.405 -0.0281  0.7329 -0.0498
 6267SOL    MW424836   0.412   0.722   6.342 -0.8126 -0.5484 -0.3147
 6268SOL     OW24837   6.060   0.786   1.839  0.2252 -0.4397 -0.0107
 6268SOL    HW224838   5.996   0.827   1.780 -0.7119 -0.2422  1.1105
 6268SOL    HW324839   6.020   0.702   1.861  0.3926 -0.3501  0.6314
 6268SOL    MW424840   6.046   0.780   1.834 -0.1262 -0.0588 -0.1083
 6269SOL     OW24841   2.919   2.908   1.766  0.1885  0.3729  0.1573
 6269SOL    HW224842   2.834   2.940   1.796 -0.8403  1.2148 -3.2830
 6269SOL    HW324843   2.948   2.971   1.701  1.5694 -1.9154 -1.6189
 6269SOL    MW424844   2.911   2.921   1.761 -0.1182  0.6921 -0.3628
 6270SOL     OW24845   4.319   1.095   5.673 -0.4355 -0.2430  0.5472
 6270SOL    HW224846   4.324   1.154   5.597 -0.3586 -1.2827 -0.2694
 6270SOL    HW324847   4.262   1.141   5.735  0.9923  1.5024  0.6872
 6270SOL    MW424848   4.312   1.109   5.671 -0.4388 -0.3634 -0.1778
 6271SOL     OW24849   3.716   6.127   1.522  0.1740  0.9107 -0.0891
 6271SOL    HW224850   3.754   6.139   1.609 -1.5164  0.4738  0.7650
 6271SOL    HW324851   3.773   6.062   1.480  1.1160  1.2624  0.6086
 6271SOL    MW424852   3.728   6.120   1.528 -0.0418  0.6501 -0.2665
 6272SOL     OW24853   4.828   4.623   5.305  0.5801  0.3745 -0.6152
 6272SOL    HW224854   4.881   4.691   5.346 -0.2268 -0.2563  1.6130
 6272SOL    HW324855   4.858   4.542   5.347  0.3167 -0.4359 -1.9430
 6272SOL    MW424856   4.839   4.621   5.316  0.5782  0.1238  0.1535
 6273SOL     OW24857   3.778   2.505   3.673  0.0861 -0.7611  0.6258
 6273SOL    HW224858   3.728   2.586   3.662  0.1516 -0.7813  0.1491
 6273SOL    HW324859   3.802   2.479   3.584  1.5608 -0.3769  0.8783
 6273SOL    MW424860   3.775   2.512   3.660 -0.2861  0.3095  0.2460
 6274SOL     OW24861   5.551   0.277   6.157 -0.5911  0.1617 -0.1151
 6274SOL    HW224862   5.577   0.369   6.152 -1.1468  0.4495  1.7488
 6274SOL    HW324863   5.465   0.275   6.115  1.0119 -0.3187 -3.8378
 6274SOL    MW424864   5.543   0.289   6.151  0.0696  0.1590 -0.2954
 6275SOL     OW24865   5.685   2.022   0.550  0.2654  0.2557 -0.3635
 6275SOL    HW224866   5.664   2.095   0.492  0.7248  0.4168 -0.3330
 6275SOL    HW324867   5.644   2.044   0.633  1.0929  0.8855 -0.1101
 6275SOL    MW424868   5.677   2.034   0.553 -0.0774  0.4381 -0.2132
 6276SOL     OW24869   3.427   6.210   0.536 -0.0178 -0.1550 -0.1503
 6276SOL    HW224870   3.435   6.194   0.442  2.1035  0.3258 -0.1037
 6276SOL    HW324871   3.337   6.241   0.548 -0.4730 -0.6731 -1.9240
 6276SOL    MW424872   3.416   6.212   0.525  0.2947 -0.4403  0.6610
 6277SOL     OW24873   3.219   2.800   6.220 -0.1301  0.3699 -0.0149
 6277SOL    HW224874   3.149   2.833   6.276 -1.1123 -1.8010  0.1603
 6277SOL    HW324875   3.281   2.759   6.280 -0.4872 -0.7506 -0.3794
 6277SOL    MW424876   3.218   2.799   6.235  0.0729  0.2590  0.7620
 6278SOL     OW24877   1.520   4.305   5.424  0.6232 -0.1417 -0.0934
 6278SOL    HW224878   1.498   4.221   5.464  0.5214  0.3330  0.8797
 6278SOL    HW324879   1.612   4.319   5.447  0.4322  0.3546  0.3938
 6278SOL    MW424880   1.529   4.296   5.432  0.5431  0.1430 -0.5030
 6279SOL     OW24881   1.979   1.609   2.240  0.8523 -0.0792 -0.1806
 6279SOL    HW224882   1.991   1.524   2.282  1.8669 -0.7963 -1.8083
 6279SOL    HW324883   1.888   1.633   2.259  0.2650 -1.9730 -0.4475
 6279SOL    MW424884   1.969   1.601   2.248  0.0873  0.7627 -0.0675
 6280SOL     OW24885   5.693   3.788   2.675 -0.1541 -0.1234 -0.1678
 6280SOL    HW224886   5.632   3.857   2.648 -0.4787 -0.3045  0.0986
 6280SOL    HW324887   5.699   3.731   2.598 -1.8043 -1.1581  0.4128
 6280SOL    MW424888   5.686   3.789   2.661  0.2764  0.1250  0.1343
 6281SOL     OW24889   5.482   0.340   1.139 -0.3440 -0.1271  0.3411
 6281SOL    HW224890   5.536   0.269   1.172  1.5439  0.9571 -0.2953
 6281SOL    HW324891   5.429   0.367   1.215  1.7985  0.4027  1.7191
 6281SOL    MW424892   5.482   0.335   1.153  0.2851  0.0869 -0.1133
 6282SOL     OW24893   4.472   2.523   1.353 -0.9080  0.3068 -0.5276
 6282SOL    HW224894   4.563   2.508   1.330 -0.7240  0.7322 -0.0951
 6282SOL    HW324895   4.446   2.600   1.303 -0.9370  0.3691 -0.4182
 6282SOL    MW424896   4.481   2.531   1.344  0.1608  0.3583  0.6209
 6283SOL     OW24897   6.216   0.233   2.865 -0.6496 -0.0188 -0.1758
 6283SOL    HW224898   6.308   0.252   2.848 -0.5845 -0.3071 -0.1444
 6283SOL    HW324899   6.205   0.141   2.843 -1.0541  0.1447 -0.6773
 6283SOL    MW424900   6.226   0.224   2.860  0.0789 -0.1771  0.1385
 6284SOL     OW24901   1.571   1.963   3.000 -0.0139  0.4324 -0.2052
 6284SOL    HW224902   1.487   1.963   3.047 -0.5138  0.2072 -1.0824
 6284SOL    HW324903   1.630   2.012   3.058 -0.9119  1.1532  0.1356
 6284SOL    MW424904   1.567   1.969   3.014  0.4895  0.3529  0.3946
 6285SOL     OW24905   2.989   2.418   3.675  0.3324 -0.0034 -0.4533
 6285SOL    HW224906   2.932   2.406   3.751 -0.3789  0.2253 -0.9369
 6285SOL    HW324907   3.062   2.358   3.690 -0.9916 -1.7986 -0.7416
 6285SOL    MW424908   2.991   2.408   3.687  0.0242  0.4746  0.1398
 6286SOL     OW24909   2.529   0.669   5.016  0.1340 -0.9108 -0.1215
 6286SOL    HW224910   2.599   0.715   4.969  0.2148 -2.0717 -1.1681
 6286SOL    HW324911   2.563   0.581   5.029 -1.3813 -1.7058 -1.2584
 6286SOL    MW424912   2.543   0.664   5.012 -0.0341  0.0662 -0.1711
 6287SOL     OW24913   5.281   0.276   4.538  0.7188  0.1393 -0.2900
 6287SOL    HW224914   5.239   0.328   4.469 -1.4829 -2.1442 -0.8180
 6287SOL    HW324915   5.296   0.338   4.609 -1.9180  1.5164 -0.8131
 6287SOL    MW424916   5.278   0.291   4.538  0.1548 -0.3267  0.2089
 6288SOL     OW24917   0.022   5.169   4.014 -0.1208  0.6151  0.0989
 6288SOL    HW224918  -0.023   5.149   4.096 -1.1906  1.1262 -0.3553
 6288SOL    HW324919   0.023   5.086   3.966 -0.9313  0.6913 -0.0545
 6288SOL    MW424920   0.016   5.156   4.019 -0.2448  0.2678 -0.3050
 6289SOL     OW24921   4.874   4.011   2.446 -0.0831 -0.1936  0.3048
 6289SOL    HW224922   4.946   4.069   2.471 -0.1191 -0.3517  0.7853
 6289SOL    HW324923   4.804   4.069   2.420 -0.8936  0.0858  2.8340
 6289SOL    MW424924   4.875   4.026   2.446  0.4233  0.0819  0.6075
 6290SOL     OW24925   2.288   4.281   3.990 -0.0962  0.5448  0.0980
 6290SOL    HW224926   2.239   4.334   4.053 -0.1259  0.1812  0.3881
 6290SOL    HW324927   2.376   4.319   3.990 -0.4817  1.4738 -0.7459
 6290SOL    MW424928   2.293   4.293   3.999  0.5773  0.0864  0.0586
 6291SOL     OW24929   0.342   0.342   4.305  0.0318 -0.5173  0.0166
 6291SOL    HW224930   0.359   0.435   4.293 -0.0800 -0.5241 -0.2173
 6291SOL    HW324931   0.269   0.323   4.245  0.9026 -1.0258 -0.9277
 6291SOL    MW424932   0.335   0.352   4.295 -0.4987  0.3391 -1.2822
 6292SOL     OW24933   5.225   3.807   4.241 -0.0317 -0.2757 -0.1099
 6292SOL    HW224934   5.286   3.878   4.261 -1.7851  1.4974 -0.7521
 6292SOL    HW324935   5.140   3.839   4.270 -0.6675 -2.9525  1.4215
 6292SOL    MW424936   5.222   3.820   4.248 -0.1480 -0.1239 -0.2094
 6293SOL     OW24937   4.523   0.175   3.665 -0.2951  0.5811 -0.7353
 6293SOL    HW224938   4.616   0.194   3.678 -0.5758  0.2169  2.7122
 6293SOL    HW324939   4.519   0.079   3.660 -0.4845  0.5807 -0.6136
 6293SOL    MW424940   4.535   0.165   3.666 -0.0714  0.2977  0.1416
 6294SOL     OW24941   4.299   0.531   5.209  0.0953  0.0808  0.1283
 6294SOL    HW224942   4.243   0.477   5.266  0.4665 -0.5958 -0.1454
 6294SOL    HW324943   4.377   0.478   5.194  0.5397  0.7630 -0.0173
 6294SOL    MW424944   4.302   0.517   5.215 -0.4517 -0.0691 -0.0493
 6295SOL     OW24945   5.238   6.404   2.384 -0.0732  0.0816  0.7100
 6295SOL    HW224946   5.303   6.455   2.432  1.1339  2.4635 -3.0011
 6295SOL    HW324947   5.280   6.319   2.370  1.0665  0.6107  0.8166
 6295SOL    MW424948   5.252   6.399   2.389 -0.1624 -0.1485  0.0859
 6296SOL     OW24949   1.909   3.185   2.988  0.6778  0.0389  0.0224
 6296SOL    HW224950   1.889   3.256   3.049  1.0723  0.0740  0.1128
 6296SOL    HW324951   1.998   3.203   2.958 -0.1641  1.0806 -2.0302
 6296SOL    MW424952   1.918   3.197   2.992 -0.2043  0.5785 -0.1132
 6297SOL     OW24953   2.155   4.036   5.543 -0.0204 -0.1708 -0.2212
 6297SOL    HW224954   2.174   3.960   5.487  0.8262 -0.3672  0.3063
 6297SOL    HW324955   2.060   4.039   5.548 -0.1105 -0.1853 -1.6175
 6297SOL    MW424956   2.145   4.026   5.536 -0.2388  0.2803 -0.4815
 6298SOL     OW24957   2.761   3.072   3.848 -0.2186  0.3520  0.5696
 6298SOL    HW224958   2.782   2.980   3.830  0.5924  0.9245 -1.6679
 6298SOL    HW324959   2.804   3.091   3.931  2.3365 -0.4679 -0.4635
 6298SOL    MW424960   2.769   3.062   3.856 -0.1064  0.2489  0.3750
 6299SOL     OW24961   0.760   5.961   5.866  0.2582  0.4228 -0.2527
 6299SOL    HW224962   0.807   5.918   5.794 -0.1334 -0.8658  0.2310
 6299SOL    HW324963   0.680   5.994   5.826  0.4090  0.4140 -0.5663
 6299SOL    MW424964   0.756   5.960   5.851  0.2342  0.2797 -0.1528
 6300SOL     OW24965   1.313   3.535   4.755 -0.2787  0.0249 -0.5639
 6300SOL    HW224966   1.286   3.626   4.739  0.6719  0.6778  1.1804
 6300SOL    HW324967   1.397   3.527   4.711  0.5960  0.6606  0.9288
 6300SOL    MW424968   1.320   3.546   4.747  0.2471  0.4357 -0.2137
 6301SOL     OW24969   3.655   4.651   3.954 -0.2145  0.6124 -0.4350
 6301SOL    HW224970   3.572   4.698   3.950  0.3419  1.9402  1.7692
 6301SOL    HW324971   3.720   4.713   3.922 -0.1080 -0.7909 -3.2240
 6301SOL    MW424972   3.653   4.665   3.949 -0.0287  0.1649 -0.3321
 6302SOL     OW24973   6.087   2.118   5.209  0.0364  0.1690 -0.3263
 6302SOL    HW224974   6.006   2.079   5.176  1.1257 -2.6931  0.0996
 6302SOL    HW324975   6.086   2.099   5.303  1.5539 -0.6850 -0.4586
 6302SOL    MW424976   6.076   2.110   5.217  0.3702  0.2776 -0.0241
 6303SOL     OW24977   6.029   2.321   3.811 -0.1862 -0.1895  0.1460
 6303SOL    HW224978   6.055   2.229   3.819 -2.8706 -1.0846 -0.5719
 6303SOL    HW324979   5.935   2.322   3.829 -0.7397  2.0402 -2.2070
 6303SOL    MW424980   6.020   2.309   3.814 -0.1620  0.3904  0.0985
 6304SOL     OW24981   2.534   3.645   5.883 -0.0707  0.3085 -0.9067
 6304SOL    HW224982   2.506   3.691   5.804  2.0229  1.6867 -0.9179
 6304SOL    HW324983   2.554   3.714   5.945 -0.8781 -0.7464  0.5817
 6304SOL    MW424984   2.533   3.660   5.881 -0.7168  0.9481  0.0500
 6305SOL     OW24985   1.143   3.605   2.650 -0.0482  0.0016  0.6263
 6305SOL    HW224986   1.048   3.597   2.656  0.0445 -0.5969  1.4248
 6305SOL    HW324987   1.158   3.666   2.577 -1.0221 -0.4448  0.0480
 6305SOL    MW424988   1.133   3.612   2.641 -0.4607  0.0592  0.3566
 6306SOL     OW24989   1.210   3.912   1.595  0.4480  0.1410  0.2787
 6306SOL    HW224990   1.245   3.829   1.564 -0.8671 -0.7670  1.1103
 6306SOL    HW324991   1.153   3.888   1.668  0.8408  1.8859  1.2124
 6306SOL    MW424992   1.207   3.898   1.600  0.7816 -0.1770  0.2017
 6307SOL     OW24993   0.322   1.536   4.249  0.1801  0.0125  0.3179
 6307SOL    HW224994   0.268   1.474   4.199 -0.0567 -0.2138  0.8407
 6307SOL    HW324995   0.261   1.604   4.276 -0.0191 -0.6145  1.5281
 6307SOL    MW424996   0.307   1.537   4.246 -0.5829  0.4522  0.1588
 6308SOL     OW24997   0.183   4.248   0.079  0.0544 -1.0412 -0.3892
 6308SOL    HW224998   0.188   4.292  -0.007 -0.2122  0.0224  0.1199
 6308SOL    HW324999   0.274   4.239   0.106  0.1106  1.1443  0.4147
 6308SOL    MW425000   0.196   4.253   0.071 -0.2167 -0.1261 -0.2548
 6309SOL     OW25001   6.391   2.447   1.086  0.4672 -0.0491 -0.5131
 6309SOL    HW225002   6.465   2.481   1.036  0.9627 -0.2060  0.1097
 6309SOL    HW325003   6.328   2.421   1.019  1.1742 -0.3641 -1.0763
 6309SOL    MW425004   6.393   2.448   1.070  0.2290 -0.0946 -0.0049
 6310SOL     OW25005   0.258   3.036   3.958 -0.1897 -0.2205  0.4283
 6310SOL    HW225006   0.205   3.115   3.949 -0.5071 -0.3845  0.8353
 6310SOL    HW325007   0.337   3.064   4.004 -0.4326 -0.1938  0.8337
 6310SOL    MW425008   0.261   3.050   3.963  0.1729 -0.4550 -0.3754
 6311SOL     OW25009   3.735   3.685   4.857 -0.3008  0.5041 -0.3767
 6311SOL    HW225010   3.654   3.720   4.820  0.3600  1.5369 -0.8855
 6311SOL    HW325011   3.706   3.623   4.923 -1.5349  1.6591  0.2208
 6311SOL    MW425012   3.720   3.682   4.861 -0.2540 -0.5233 -0.1002
 6312SOL     OW25013   1.896   3.840   1.049  0.4501 -0.1435 -0.7792
 6312SOL    HW225014   1.843   3.851   0.970  0.4256  0.4068 -0.6943
 6312SOL    HW325015   1.933   3.928   1.065 -1.6442  0.4514  1.3115
 6312SOL    MW425016   1.894   3.853   1.041 -0.1615 -0.2533  0.0262
 6313SOL     OW25017   4.903   4.010   0.281 -0.5038  0.8370  0.1584
 6313SOL    HW225018   4.826   4.066   0.288 -0.2108  1.1908  0.5814
 6313SOL    HW325019   4.888   3.958   0.201 -2.1437 -0.5762  1.2986
 6313SOL    MW425020   4.890   4.010   0.271  0.6722  0.0973  0.1934
 6314SOL     OW25021   0.972   5.541   4.923  0.6292 -0.1186  0.1310
 6314SOL    HW225022   0.895   5.533   4.866  1.3270  1.1822 -1.0648
 6314SOL    HW325023   1.026   5.465   4.900  0.7791  0.2466 -0.7749
 6314SOL    MW425024   0.969   5.530   4.912  0.5246  0.0275  0.0853
 6315SOL     OW25025   1.847   2.886   3.268 -0.0022 -0.7981  0.1066
 6315SOL    HW225026   1.785   2.920   3.203 -0.4198  2.9022  2.1475
 6315SOL    HW325027   1.932   2.920   3.240 -0.1171  0.4168  1.1082
 6315SOL    MW425028   1.850   2.895   3.256  0.4754 -0.3776 -0.3137
 6316SOL     OW25029   2.128   1.596   5.488 -0.6483 -0.2917  0.7361
 6316SOL    HW225030   2.084   1.519   5.525 -0.6174 -0.6452  0.0597
 6316SOL    HW325031   2.073   1.621   5.414  1.1708 -1.7958 -1.2179
 6316SOL    MW425032   2.115   1.589   5.483 -0.2055  0.3590 -0.0462
 6317SOL     OW25033   6.062   4.525   5.997 -0.4323 -0.3063  0.0268
 6317SOL    HW225034   6.099   4.522   5.909 -0.8876 -1.4629 -0.1431
 6317SOL    HW325035   6.073   4.616   6.025  2.1133 -0.4680 -0.1990
 6317SOL    MW425036   6.069   4.536   5.989 -0.3371  0.7599 -0.5284
 6318SOL     OW25037   5.057   1.779   3.970  0.2367  0.4998 -0.1495
 6318SOL    HW225038   5.127   1.843   3.982  2.5170 -1.6089 -1.1652
 6318SOL    HW325039   5.065   1.720   4.044  0.2694 -0.3787 -0.8307
 6318SOL    MW425040   5.067   1.780   3.981 -0.1503 -0.3121 -0.6263
 6319SOL     OW25041   4.686   6.162   0.830 -0.4045  0.2199 -0.2491
 6319SOL    HW225042   4.680   6.185   0.737  0.7005 -0.8386 -0.5983
 6319SOL    HW325043   4.626   6.088   0.840 -0.0936 -0.0299 -0.2411
 6319SOL    MW425044   4.677   6.155   0.819 -0.6658  0.2450 -0.9262
 6320SOL     OW25045   0.346   3.887   0.395 -0.2458  0.6181 -0.0278
 6320SOL    HW225046   0.278   3.915   0.335 -0.2045  0.3673 -0.1941
 6320SOL    HW325047   0.422   3.941   0.372  0.3506 -0.7896 -1.4948
 6320SOL    MW425048   0.347   3.898   0.384 -0.0766 -0.0066  0.3668
 6321SOL     OW25049   4.408   5.005   0.815 -0.2706 -0.6006  0.4765
 6321SOL    HW225050   4.393   5.097   0.837 -1.0554 -0.3173 -1.0637
 6321SOL    HW325051   4.503   4.995   0.822 -0.2245  0.1808  1.1721
 6321SOL    MW425052   4.419   5.016   0.819  0.1198 -0.6166  0.0176
 6322SOL     OW25053   2.227   1.303   3.169 -0.2311 -0.5110 -0.0598
 6322SOL    HW225054   2.227   1.378   3.109 -2.8621 -0.3748 -0.0016
 6322SOL    HW325055   2.313   1.263   3.157 -0.2126  0.1674 -3.0747
 6322SOL    MW425056   2.239   1.308   3.160 -0.2733  0.6539  0.1657
 6323SOL     OW25057   4.605   5.304   2.131  0.0649  0.4141 -0.3302
 6323SOL    HW225058   4.532   5.267   2.180 -0.9699  1.7617 -0.7971
 6323SOL    HW325059   4.638   5.374   2.186  2.6338 -1.6716  0.9910
 6323SOL    MW425060   4.600   5.308   2.144 -0.0915 -0.3291 -0.4075
 6324SOL     OW25061   0.154   4.605   6.298  0.1757 -0.6676 -0.1138
 6324SOL    HW225062   0.169   4.614   6.393  3.0809 -0.9641 -0.4495
 6324SOL    HW325063   0.225   4.548   6.269  0.2104  0.5840 -2.7040
 6324SOL    MW425064   0.165   4.599   6.307  0.1817  0.4008  0.1282
 6325SOL     OW25065   3.971   1.680   3.022 -0.3098  0.4848  0.4159
 6325SOL    HW225066   4.036   1.723   3.078 -0.3811  0.3719  0.5837
 6325SOL    HW325067   3.911   1.637   3.082 -0.3213  0.2662  0.2496
 6325SOL    MW425068   3.972   1.680   3.037 -0.1818  0.1366 -0.1579
 6326SOL     OW25069   5.832   6.227   3.724  0.7624  0.2790 -0.2351
 6326SOL    HW225070   5.885   6.149   3.709  0.6258 -0.1512  1.4280
 6326SOL    HW325071   5.895   6.294   3.750  0.9335  0.8841 -2.0583
 6326SOL    MW425072   5.847   6.226   3.725 -0.1984  0.1384 -0.0965
 6327SOL     OW25073   6.399   2.959   5.535 -0.3130  0.1864  0.2056
 6327SOL    HW225074   6.355   3.013   5.601 -0.7818  0.1879 -0.1109
 6327SOL    HW325075   6.338   2.955   5.462 -0.0669 -0.3634  0.0280
 6327SOL    MW425076   6.385   2.966   5.534 -0.7215  0.1002 -0.2579
 6328SOL     OW25077   6.341   3.927   2.452  0.0074 -0.4180  0.4697
 6328SOL    HW225078   6.286   3.866   2.402 -0.0777  0.6711 -0.8149
 6328SOL    HW325079   6.280   3.971   2.511 -0.5024  0.6775 -0.8439
 6328SOL    MW425080   6.326   3.924   2.453 -0.2874 -0.6906 -0.0865
 6329SOL     OW25081   0.979   1.154   2.373  0.0729  0.1902  0.2733
 6329SOL    HW225082   1.070   1.175   2.352 -0.2142  1.9526  0.6294
 6329SOL    HW325083   0.957   1.080   2.316  1.4873  0.2285 -0.3545
 6329SOL    MW425084   0.988   1.147   2.363  0.4614  0.8261 -0.0073
 6330SOL     OW25085   1.741   4.837   2.977  0.6787 -0.5001  0.7547
 6330SOL    HW225086   1.714   4.919   2.935 -0.0090 -0.2889  1.5835
 6330SOL    HW325087   1.820   4.811   2.930  1.3400  1.0320  0.9602
 6330SOL    MW425088   1.748   4.844   2.965 -0.0325  0.2859 -0.5501
 6331SOL     OW25089   5.265   3.814   6.174  0.0821 -0.1888 -0.7634
 6331SOL    HW225090   5.360   3.821   6.183 -0.0497  0.2547  0.6014
 6331SOL    HW325091   5.238   3.900   6.143  0.0432  0.0357 -0.1308
 6331SOL    MW425092   5.274   3.827   6.171 -0.2107  0.6754 -0.1553
 6332SOL     OW25093   0.923   1.381   5.355  0.3976  0.4088 -0.0525
 6332SOL    HW225094   1.005   1.403   5.310  0.9896 -0.5676  0.4878
 6332SOL    HW325095   0.937   1.413   5.445  0.3497 -0.0960  0.1377
 6332SOL    MW425096   0.936   1.388   5.361 -0.8248 -0.4462 -0.7282
 6333SOL     OW25097   1.863   2.842   5.514 -0.0797 -0.1546 -0.0666
 6333SOL    HW225098   1.886   2.930   5.545 -1.1286 -0.1024  0.6086
 6333SOL    HW325099   1.843   2.854   5.421  2.2389 -0.1529 -0.6287
 6333SOL    MW425100   1.864   2.855   5.506 -0.0159  0.0008 -0.7134
 6334SOL     OW25101   4.610   1.503   5.987 -0.0057  0.3711  0.3490
 6334SOL    HW225102   4.522   1.504   6.023  0.0565  1.2518  0.5128
 6334SOL    HW325103   4.598   1.517   5.893  0.0270  2.7085  0.6279
 6334SOL    MW425104   4.597   1.505   5.980 -0.1629  0.6566 -0.3123
 6335SOL     OW25105   4.457   1.056   2.888 -0.0409 -0.4924 -0.5739
 6335SOL    HW225106   4.391   0.989   2.903  1.5672 -2.0957 -0.3718
 6335SOL    HW325107   4.502   1.064   2.971  0.1811  0.4218 -0.7718
 6335SOL    MW425108   4.454   1.048   2.901 -0.6015  0.1061  0.5146
 6336SOL     OW25109   4.796   6.356   2.172  0.2272 -0.3239 -0.2733
 6336SOL    HW225110   4.856   6.393   2.236 -0.6458 -0.9065  0.9115
 6336SOL    HW325111   4.831   6.270   2.152 -0.6479 -1.0231  1.0827
 6336SOL    MW425112   4.808   6.350   2.178 -0.2531  0.4251 -0.0204
 6337SOL     OW25113   3.076   0.524   3.837 -0.3409  0.5535  0.1589
 6337SOL    HW225114   3.094   0.526   3.743 -1.3215  0.6709 -0.0356
 6337SOL    HW325115   3.161   0.540   3.878  0.1520  0.1840 -0.6992
 6337SOL    MW425116   3.090   0.526   3.830  0.2657  0.0892  0.5259
 6338SOL     OW25117   2.987   3.078   4.969  0.3425  0.6347 -0.0362
 6338SOL    HW225118   2.897   3.056   4.944  0.3827  0.0201  0.3433
 6338SOL    HW325119   2.979   3.109   5.060  0.6402 -0.4123  0.3617
 6338SOL    MW425120   2.974   3.079   4.978 -0.1448 -0.1952 -0.1668
 6339SOL     OW25121   0.719   3.505   5.068  0.0794  0.3978 -0.0084
 6339SOL    HW225122   0.726   3.493   5.162  0.8000  0.4432 -0.0514
 6339SOL    HW325123   0.654   3.575   5.057 -1.6720 -1.0988  0.3589
 6339SOL    MW425124   0.711   3.513   5.079 -0.1200 -0.1237  0.0661
 6340SOL     OW25125   2.071   0.618   4.686 -0.2823  0.0442  0.2091
 6340SOL    HW225126   2.112   0.546   4.639 -0.4832 -1.1188  1.7528
 6340SOL    HW325127   1.988   0.633   4.640  0.0955 -0.1856 -0.5658
 6340SOL    MW425128   2.065   0.611   4.674  0.7420  0.0904 -0.3741
 6341SOL     OW25129   1.640   3.234   0.966  0.0604 -0.3193  0.6522
 6341SOL    HW225130   1.555   3.231   0.920  0.4813  0.7443 -0.2423
 6341SOL    HW325131   1.640   3.318   1.011  0.8371 -0.0874  0.2330
 6341SOL    MW425132   1.629   3.244   0.966 -0.5710 -0.1247 -0.3392
 6342SOL     OW25133   1.468   2.785   2.321  0.2436 -0.5186 -0.4269
 6342SOL    HW225134   1.532   2.785   2.251 -0.3344  0.4952 -0.9866
 6342SOL    HW325135   1.386   2.808   2.279  0.0915  1.2883  0.7294
 6342SOL    MW425136   1.466   2.788   2.306 -0.3469 -0.2742  0.3997
 6343SOL     OW25137   0.743   3.536   5.942 -0.0167 -0.4046  0.4913
 6343SOL    HW225138   0.775   3.564   6.028  1.2130 -1.3927  0.3726
 6343SOL    HW325139   0.752   3.441   5.942  0.6785 -0.3694 -0.9897
 6343SOL    MW425140   0.748   3.528   5.953 -0.2276  0.0429  0.5767
 6344SOL     OW25141   0.064   6.061   0.859 -0.2813 -0.1515 -0.1320
 6344SOL    HW225142   0.090   6.153   0.858  0.0368 -0.2389  0.0520
 6344SOL    HW325143  -0.027   6.062   0.888  0.9702 -0.1820  4.6993
 6344SOL    MW425144   0.056   6.073   0.862 -0.0947 -0.3902 -0.0234
 6345SOL     OW25145   4.384   6.366   2.435  0.5452 -0.0529 -0.3029
 6345SOL    HW225146   4.304   6.351   2.386  0.3284 -0.9754  0.3124
 6345SOL    HW325147   4.449   6.389   2.368 -0.5651  2.2939 -0.6693
 6345SOL    MW425148   4.382   6.367   2.419  0.2640 -0.3745 -1.1477
 6346SOL     OW25149   6.065   4.286   5.778 -0.4213  0.7079  0.6148
 6346SOL    HW225150   5.977   4.318   5.800 -0.3388  0.8481  0.7455
 6346SOL    HW325151   6.066   4.195   5.808 -0.7918  0.4465 -0.1148
 6346SOL    MW425152   6.053   4.278   5.785  0.1320  0.2529  0.3679
 6347SOL     OW25153   1.233   4.528   5.900 -0.0096  0.1782 -0.1191
 6347SOL    HW225154   1.316   4.534   5.852 -0.2524  0.6308 -0.4876
 6347SOL    HW325155   1.198   4.442   5.877 -0.7149  0.8629 -1.7324
 6347SOL    MW425156   1.239   4.518   5.891 -0.3121  0.3354 -0.5221
 6348SOL     OW25157   5.488   4.565   4.045 -0.1364 -0.3489 -0.4083
 6348SOL    HW225158   5.493   4.507   3.969  0.9197 -0.5038 -0.2412
 6348SOL    HW325159   5.479   4.506   4.119 -0.1364 -0.2512 -0.3307
 6348SOL    MW425160   5.487   4.549   4.044 -0.3514  0.2980 -0.5103
 6349SOL     OW25161   1.628   4.235   1.157 -0.0531  0.1921 -0.6734
 6349SOL    HW225162   1.679   4.291   1.098  1.3472 -0.8586 -0.5165
 6349SOL    HW325163   1.679   4.155   1.163 -1.9735 -1.1153 -0.8564
 6349SOL    MW425164   1.641   4.232   1.150 -0.0840 -0.2508  0.0832
 6350SOL     OW25165   5.607   4.969   0.409 -0.7667  0.1793 -0.0142
 6350SOL    HW225166   5.543   4.926   0.466 -0.7578 -0.3943 -0.4370
 6350SOL    HW325167   5.582   4.943   0.321 -1.3570  1.8270 -0.3718
 6350SOL    MW425168   5.595   4.960   0.405 -0.8823 -0.8902  0.2956
 6351SOL     OW25169   0.565   0.785   2.573  0.0169 -0.2838 -0.0588
 6351SOL    HW225170   0.602   0.746   2.493 -0.6406 -0.2902 -0.3646
 6351SOL    HW325171   0.636   0.839   2.608  1.1098 -2.0622  0.6134
 6351SOL    MW425172   0.579   0.787   2.567  0.7562 -0.1529  0.3254
 6352SOL     OW25173   1.969   5.152   2.850 -0.6758  0.0945  0.6218
 6352SOL    HW225174   1.904   5.217   2.874 -2.2360 -2.0082  2.5344
 6352SOL    HW325175   1.920   5.086   2.801  0.6915 -0.1161 -0.5545
 6352SOL    MW425176   1.954   5.152   2.847 -0.1425  0.0519 -0.0418
 6353SOL     OW25177   3.909   4.761   3.904  0.2554 -0.2429  0.5986
 6353SOL    HW225178   3.976   4.698   3.876  1.1286  1.0510 -0.3390
 6353SOL    HW325179   3.958   4.837   3.934 -0.7334  1.2851 -1.3669
 6353SOL    MW425180   3.924   4.763   3.904 -0.2108 -0.2749  0.1721
 6354SOL     OW25181   6.160   4.919   3.727 -0.1759  0.2597  0.0822
 6354SOL    HW225182   6.192   4.952   3.643 -0.2632  1.8585  0.6388
 6354SOL    HW325183   6.067   4.902   3.713 -0.2843  0.9215 -0.0502
 6354SOL    MW425184   6.152   4.921   3.714 -0.5067 -0.5170  0.5460
 6355SOL     OW25185   2.700   1.871   0.274  0.3278  0.0051 -0.5436
 6355SOL    HW225186   2.746   1.813   0.213  1.0511  1.2279 -1.2149
 6355SOL    HW325187   2.664   1.813   0.341  0.7334 -1.2323 -1.3740
 6355SOL    MW425188   2.702   1.856   0.275  0.7310 -0.3239 -0.1466
 6356SOL     OW25189   2.246   4.030   2.669  0.1936  0.0828  0.1375
 6356SOL    HW225190   2.167   3.999   2.713 -0.1015  0.1318 -0.3477
 6356SOL    HW325191   2.220   4.038   2.577  0.9789 -0.6231 -0.1559
 6356SOL    MW425192   2.232   4.027   2.662 -0.2151 -0.1060 -0.0012
 6357SOL     OW25193   0.693   2.301   5.079  0.3166  0.6232  0.2695
 6357SOL    HW225194   0.614   2.337   5.038 -0.7206 -1.0970  0.6560
 6357SOL    HW325195   0.667   2.280   5.169  1.1548 -0.1043  0.3646
 6357SOL    MW425196   0.679   2.303   5.085 -0.6482  0.3416  0.2746
 6358SOL     OW25197   4.540   4.142   1.696 -0.0499 -0.5241  0.2422
 6358SOL    HW225198   4.488   4.222   1.699  0.2099 -0.3712  1.0783
 6358SOL    HW325199   4.528   4.108   1.607 -0.7428  0.0520  0.1079
 6358SOL    MW425200   4.532   4.148   1.685 -1.0390 -0.1253  0.4461
 6359SOL     OW25201   4.837   4.219   5.978 -0.3148 -0.2494 -0.5219
 6359SOL    HW225202   4.876   4.143   5.936 -0.3696  0.1467 -1.3093
 6359SOL    HW325203   4.744   4.199   5.984 -0.1883 -0.6721  0.2302
 6359SOL    MW425204   4.830   4.206   5.973  0.1851 -0.2660 -0.5122
 6360SOL     OW25205   2.419   3.688   3.226  0.0423 -0.4204  0.5901
 6360SOL    HW225206   2.351   3.750   3.252 -1.4370 -2.1723  1.1003
 6360SOL    HW325207   2.395   3.661   3.138 -0.1808 -1.3426  0.9193
 6360SOL    MW425208   2.407   3.692   3.218 -0.6581 -0.4165 -0.4666
 6361SOL     OW25209   0.913   3.203   3.330 -0.6905  0.2748  0.5503
 6361SOL    HW225210   0.877   3.290   3.350 -0.7515 -0.1472  2.4287
 6361SOL    HW325211   0.929   3.163   3.416  0.1424 -1.2524 -0.2735
 6361SOL    MW425212   0.910   3.210   3.344  0.2549 -0.4372 -0.7787
 6362SOL     OW25213   5.104   6.167   4.878 -0.1434 -0.1111 -0.6581
 6362SOL    HW225214   5.095   6.214   4.960 -1.5403  0.4671 -1.1125
 6362SOL    HW325215   5.037   6.100   4.881  1.3228 -1.6178 -0.3572
 6362SOL    MW425216   5.094   6.165   4.889 -0.4789 -0.3922 -0.6132
 6363SOL     OW25217   5.433   2.774   4.632  0.1534  0.2226 -0.1282
 6363SOL    HW225218   5.370   2.709   4.601  0.3482 -0.4043  0.7878
 6363SOL    HW325219   5.516   2.727   4.639  0.6427  0.9342 -0.8751
 6363SOL    MW425220   5.436   2.759   4.629  0.4764 -0.2600 -0.7625
 6364SOL     OW25221   4.221   0.170   3.163 -0.7395  0.0780 -0.1149
 6364SOL    HW225222   4.131   0.165   3.130 -0.7596  1.8138 -0.4215
 6364SOL    HW325223   4.217   0.231   3.237  0.2982  0.8828 -0.6796
 6364SOL    MW425224   4.209   0.178   3.168  0.5865  0.2464 -0.0154
 6365SOL     OW25225   5.425   1.641   5.847  0.0179  0.2274  0.6071
 6365SOL    HW225226   5.508   1.598   5.867  0.5985 -0.6417 -2.9704
 6365SOL    HW325227   5.359   1.586   5.889  0.9698 -2.4731 -1.1820
 6365SOL    MW425228   5.427   1.628   5.855  0.3589  0.0271  0.6128
 6366SOL     OW25229   0.101   0.711   2.753  0.6885 -0.2792  0.0695
 6366SOL    HW225230   0.128   0.682   2.840  0.5856  0.8554  0.4960
 6366SOL    HW325231   0.089   0.630   2.704  1.1613 -0.9264  0.9805
 6366SOL    MW425232   0.103   0.697   2.758 -0.1501 -0.4600  0.4826
 6367SOL     OW25233   1.011   6.257   5.721  0.5886 -0.4872 -0.1101
 6367SOL    HW225234   1.064   6.334   5.743 -0.0998 -0.2792  0.8718
 6367SOL    HW325235   1.071   6.183   5.736  0.7410 -0.2308  0.6134
 6367SOL    MW425236   1.026   6.257   5.726 -0.9033 -0.8562 -0.2430
 6368SOL     OW25237   3.695   0.248   6.140 -0.3090  0.1187  0.0038
 6368SOL    HW225238   3.684   0.335   6.178 -0.9367 -0.0708  0.2618
 6368SOL    HW325239   3.759   0.205   6.196  0.7683  0.7553 -0.7079
 6368SOL    MW425240   3.702   0.253   6.152 -0.0764  0.1190 -0.3118
 6369SOL     OW25241   5.750   1.030   6.390  0.3645  0.0403 -0.0715
 6369SOL    HW225242   5.819   0.969   6.365  0.1129 -0.4518  0.4178
 6369SOL    HW325243   5.785   1.116   6.368 -0.1223 -0.3756 -2.8340
 6369SOL    MW425244   5.763   1.033   6.384 -0.5542  0.1108  0.1830
 6370SOL     OW25245   3.533   5.468   0.047  0.1309  0.0022  0.2158
 6370SOL    HW225246   3.587   5.538   0.010 -0.9306 -0.5290 -2.5266
 6370SOL    HW325247   3.594   5.395   0.058  0.0965 -0.5786 -2.8118
 6370SOL    MW425248   3.548   5.467   0.044  0.3645 -0.2993 -0.1516
 6371SOL     OW25249   3.446   4.794   2.518 -0.1174  0.2030 -0.2677
 6371SOL    HW225250   3.433   4.767   2.608  1.2990  0.0006 -0.1008
 6371SOL    HW325251   3.494   4.877   2.524  4.0560 -1.9224 -0.7422
 6371SOL    MW425252   3.451   4.802   2.530 -0.0196 -0.3784 -0.7205
 6372SOL     OW25253   2.752   5.486   5.314 -0.6671  0.0267 -0.1228
 6372SOL    HW225254   2.803   5.466   5.235  0.7208  1.0657  0.4820
 6372SOL    HW325255   2.665   5.508   5.280  0.1055  1.2279 -1.4689
 6372SOL    MW425256   2.747   5.487   5.299  0.3253 -0.2273  0.0711
 6373SOL     OW25257   1.544   3.084   3.536 -0.6021 -0.2919  0.1779
 6373SOL    HW225258   1.638   3.089   3.518 -0.7733  0.6310 -0.5224
 6373SOL    HW325259   1.519   2.995   3.508  0.0493 -0.5323  0.3500
 6373SOL    MW425260   1.553   3.073   3.530 -0.0355 -0.0169  0.0197
 6374SOL     OW25261   5.325   1.150   4.852 -0.0635 -0.2643 -0.6299
 6374SOL    HW225262   5.255   1.182   4.794 -0.2796 -1.1686 -0.8784
 6374SOL    HW325263   5.405   1.160   4.800 -0.0042  0.6735 -0.3830
 6374SOL    MW425264   5.327   1.156   4.837 -0.0590  0.5189 -0.2152
 6375SOL     OW25265   3.089   3.987   5.810 -0.3582  0.1943  0.3682
 6375SOL    HW225266   3.023   4.003   5.878 -2.6320  2.3142 -2.0623
 6375SOL    HW325267   3.159   4.049   5.830 -0.1825 -0.3826  1.6509
 6375SOL    MW425268   3.089   3.997   5.822 -0.7543 -0.3908 -0.3287
 6376SOL     OW25269   2.540   2.865   0.341  0.1154  0.5954 -0.3776
 6376SOL    HW225270   2.507   2.872   0.252 -3.1439  1.0994  0.7033
 6376SOL    HW325271   2.476   2.809   0.386  0.9083  1.4175  1.9346
 6376SOL    MW425272   2.527   2.859   0.335  0.6085 -0.2152 -0.2091
 6377SOL     OW25273   5.672   5.934   2.280 -0.0226  0.0593 -0.4185
 6377SOL    HW225274   5.653   6.020   2.243  1.8360  0.0155 -1.6158
 6377SOL    HW325275   5.679   5.876   2.204 -1.6105 -1.2791  0.3816
 6377SOL    MW425276   5.670   5.938   2.265 -0.1812 -0.4367 -0.0914
 6378SOL     OW25277   2.685   1.087   2.379 -0.1842  0.0231 -0.2018
 6378SOL    HW225278   2.750   1.135   2.327  0.0158 -0.1139 -0.0771
 6378SOL    HW325279   2.718   0.998   2.382  0.5553  0.3299  1.3898
 6378SOL    MW425280   2.698   1.082   2.372  0.1889 -0.0544  0.3234
 6379SOL     OW25281   3.926   6.334   0.031 -0.1212 -0.4565 -0.3702
 6379SOL    HW225282   4.011   6.342   0.074 -1.5037  0.2063  2.5013
 6379SOL    HW325283   3.942   6.279  -0.046  2.4693 -2.3359  1.3612
 6379SOL    MW425284   3.939   6.328   0.027  0.2057 -0.2106 -0.5081
 6380SOL     OW25285   4.333   5.427   4.424  0.1567 -0.3219  0.1746
 6380SOL    HW225286   4.351   5.444   4.517 -1.9342  0.4574  0.4925
 6380SOL    HW325287   4.252   5.375   4.425 -1.0306  1.4160 -1.2484
 6380SOL    MW425288   4.325   5.422   4.437  0.0636  0.5162 -0.4691
 6381SOL     OW25289   3.278   3.131   3.215 -0.1540 -0.1031  0.0241
 6381SOL    HW225290   3.269   3.213   3.167  0.9694 -0.0540 -0.1184
 6381SOL    HW325291   3.270   3.063   3.148 -2.3023 -0.2070  0.2905
 6381SOL    MW425292   3.276   3.133   3.200  0.3764  0.6647 -0.8356
 6382SOL     OW25293   2.612   3.585   0.501  0.3462 -0.3734 -0.5283
 6382SOL    HW225294   2.648   3.498   0.516 -1.0742 -0.8467  0.3773
 6382SOL    HW325295   2.542   3.593   0.565 -0.1593  1.0844 -1.2132
 6382SOL    MW425296   2.608   3.575   0.511  0.5223  0.0831 -0.3715
 6383SOL     OW25297   3.091   3.706   0.334 -0.7026  0.2371  0.2476
 6383SOL    HW225298   3.036   3.751   0.399 -2.1286  0.2149 -0.8904
 6383SOL    HW325299   3.028   3.663   0.275  0.5230  0.6789 -1.4492
 6383SOL    MW425300   3.075   3.706   0.335 -0.8724 -0.4077 -0.6839
 6384SOL     OW25301   0.795   0.554   2.015  0.1289  0.0132 -0.3412
 6384SOL    HW225302   0.873   0.566   1.961  0.3004 -0.1286 -0.1297
 6384SOL    HW325303   0.742   0.631   1.999  1.2073  1.0900  1.0067
 6384SOL    MW425304   0.798   0.566   2.006  0.2143 -0.1095 -0.5260
 6385SOL     OW25305   1.913   5.527   0.560 -0.2383  0.3971 -0.2534
 6385SOL    HW225306   1.842   5.492   0.614 -0.0159  0.6339  0.1934
 6385SOL    HW325307   1.873   5.540   0.474 -0.3736 -0.8032 -0.3886
 6385SOL    MW425308   1.898   5.524   0.556  0.6388 -0.6093  0.5206
 6386SOL     OW25309   5.810   2.832   3.956 -0.1848  0.5136 -0.6733
 6386SOL    HW225310   5.856   2.771   3.898  1.5917  1.0237  0.1184
 6386SOL    HW325311   5.831   2.918   3.921 -0.0850  0.7749  0.0057
 6386SOL    MW425312   5.819   2.835   3.944  0.4534 -0.5749  0.0116
 6387SOL     OW25313   2.750   2.800   3.812 -0.4826 -0.1224 -0.0113
 6387SOL    HW225314   2.813   2.780   3.742  0.8413 -0.2658  1.1807
 6387SOL    HW325315   2.802   2.796   3.892 -1.8967  0.4020  0.9548
 6387SOL    MW425316   2.765   2.797   3.813 -0.3878 -0.2623 -0.1827
 6388SOL     OW25317   1.566   5.274   4.482 -0.1008 -0.1088 -0.3589
 6388SOL    HW225318   1.565   5.362   4.519 -0.8012  0.0262 -0.6714
 6388SOL    HW325319   1.497   5.276   4.415  1.2025 -0.3036 -1.7666
 6388SOL    MW425320   1.556   5.286   4.478  0.1057  0.4594 -0.4727
 6389SOL     OW25321   6.150   6.241   1.597 -0.4488  0.3080 -0.1885
 6389SOL    HW225322   6.229   6.225   1.547  0.1175 -0.1684  0.8325
 6389SOL    HW325323   6.123   6.330   1.572  0.5929  0.6067 -0.2993
 6389SOL    MW425324   6.157   6.251   1.587 -0.1737  0.6192  0.2883
 6390SOL     OW25325   0.486   1.825   1.717  0.6274  0.1482 -0.5098
 6390SOL    HW225326   0.434   1.857   1.643  0.4686 -3.3200 -2.0960
 6390SOL    HW325327   0.427   1.767   1.765  1.9411 -0.9903 -0.1890
 6390SOL    MW425328   0.472   1.821   1.714 -0.1513 -0.7862 -0.2219
 6391SOL     OW25329   0.884   5.149   4.484 -0.3084 -0.2066  0.2184
 6391SOL    HW225330   0.800   5.108   4.501 -1.3977  1.9595  0.3291
 6391SOL    HW325331   0.877   5.183   4.395 -0.0547  1.1101  0.6851
 6391SOL    MW425332   0.872   5.148   4.474  0.1533 -0.3779 -0.2669
 6392SOL     OW25333   4.486   4.498   2.760  0.6442  0.0576  0.8803
 6392SOL    HW225334   4.541   4.541   2.694  0.7198  1.6469  1.9386
 6392SOL    HW325335   4.397   4.503   2.724  0.9585 -1.1412 -0.1243
 6392SOL    MW425336   4.481   4.504   2.746  0.0346  0.0294  0.3192
 6393SOL     OW25337   4.596   6.169   1.178  0.1807 -0.0683 -0.1575
 6393SOL    HW225338   4.531   6.231   1.211 -1.4016 -3.2313  3.4553
 6393SOL    HW325339   4.546   6.109   1.123  1.1035  0.1144 -1.2417
 6393SOL    MW425340   4.581   6.169   1.175  0.1863 -0.2347  0.0535
 6394SOL     OW25341   4.655   5.939   0.480  0.2481  0.5544  0.4364
 6394SOL    HW225342   4.670   5.845   0.486  0.7403  0.7211  2.9303
 6394SOL    HW325343   4.578   5.947   0.424  0.2151 -1.3318  0.1486
 6394SOL    MW425344   4.647   5.928   0.474  0.1906  0.0682 -0.4555
 6395SOL     OW25345   1.916   0.349   0.634 -0.0860 -0.1390  0.4233
 6395SOL    HW225346   1.874   0.430   0.605  0.6110  0.8630  2.0633
 6395SOL    HW325347   1.904   0.289   0.561 -1.3134  1.1835 -0.5385
 6395SOL    MW425348   1.909   0.352   0.621 -0.1015  0.2648 -0.0209
 6396SOL     OW25349   3.407   5.894   1.060 -0.4722  0.4272 -0.4963
 6396SOL    HW225350   3.372   5.806   1.069 -1.2704  0.7363 -0.5175
 6396SOL    HW325351   3.502   5.882   1.062 -0.5729 -0.3886 -0.1280
 6396SOL    MW425352   3.415   5.881   1.061  0.0040  0.4225  0.1245
 6397SOL     OW25353   3.341   3.459   1.764 -0.7852 -0.1611  0.5302
 6397SOL    HW225354   3.434   3.447   1.781 -0.7570 -1.0943 -0.1759
 6397SOL    HW325355   3.301   3.462   1.850 -0.1286  0.0435  0.8366
 6397SOL    MW425356   3.348   3.458   1.777 -0.0009 -0.0765 -0.1854
 6398SOL     OW25357   2.886   4.480   2.357 -0.3194 -0.0036 -0.4153
 6398SOL    HW225358   2.959   4.422   2.379 -1.8136 -2.6367 -1.8457
 6398SOL    HW325359   2.826   4.473   2.432 -0.5173 -0.3769 -0.6046
 6398SOL    MW425360   2.887   4.471   2.370  0.1588  0.3288  0.5827
 6399SOL     OW25361   3.182   0.568   3.535  0.5461  0.1316 -0.2956
 6399SOL    HW225362   3.108   0.508   3.527  0.4606  0.2761 -0.6151
 6399SOL    HW325363   3.217   0.575   3.446  0.6591  0.4190 -0.2305
 6399SOL    MW425364   3.177   0.561   3.522 -0.0987  0.2798 -0.5655
 6400SOL     OW25365   5.498   5.232   2.281  0.5465  0.2384 -0.3543
 6400SOL    HW225366   5.542   5.169   2.338 -0.3077 -0.0718 -0.0241
 6400SOL    HW325367   5.529   5.317   2.312  1.7032  0.0107 -0.8020
 6400SOL    MW425368   5.508   5.235   2.293 -0.3138  0.3809  0.0135
 6401SOL     OW25369   4.424   1.607   2.251 -0.4345  0.6581  0.2924
 6401SOL    HW225370   4.363   1.653   2.193  0.4139  2.0412  0.4696
 6401SOL    HW325371   4.493   1.670   2.268  0.8630 -0.7489  0.4198
 6401SOL    MW425372   4.425   1.621   2.245 -0.5307  0.5527 -0.2668
 6402SOL     OW25373   2.049   4.912   5.343 -0.2978 -0.1112 -0.4159
 6402SOL    HW225374   2.138   4.899   5.378  0.2413  2.4860 -0.6104
 6402SOL    HW325375   2.059   4.902   5.248  0.2709  2.0249 -0.6397
 6402SOL    MW425376   2.062   4.909   5.335 -0.1549 -0.2607 -0.1337
 6403SOL     OW25377   0.613   3.125   0.708 -0.9791 -0.2120  0.4824
 6403SOL    HW225378   0.620   3.160   0.797 -3.6224 -1.1149  1.1341
 6403SOL    HW325379   0.702   3.131   0.673 -0.1385  1.4743  2.6649
 6403SOL    MW425380   0.626   3.131   0.715  0.4888  0.6127  0.3565
 6404SOL     OW25381   3.591   3.611   1.500 -0.0238  0.0987  0.5839
 6404SOL    HW225382   3.595   3.604   1.595  0.5360 -1.7101  0.4614
 6404SOL    HW325383   3.498   3.602   1.479 -0.1332  0.3728  0.9364
 6404SOL    MW425384   3.579   3.609   1.510 -0.5419 -0.5724  0.2502
 6405SOL     OW25385   0.124   5.396   2.923 -0.8128 -0.2409 -0.4286
 6405SOL    HW225386   0.129   5.486   2.956  0.3100 -0.0134 -1.1837
 6405SOL    HW325387   0.215   5.369   2.913 -0.8818  0.4514 -5.2756
 6405SOL    MW425388   0.137   5.405   2.926  0.1968 -0.0861 -0.1387
 6406SOL     OW25389   2.617   4.769   4.467 -0.0160  0.1158  0.3343
 6406SOL    HW225390   2.687   4.732   4.521 -0.1584 -1.2400 -0.3869
 6406SOL    HW325391   2.636   4.739   4.378 -2.2088 -1.4431  0.3021
 6406SOL    MW425392   2.629   4.760   4.463 -0.0487  0.2848 -0.1957
 6407SOL     OW25393   1.548   0.569   0.056 -0.1789  0.0787 -0.3719
 6407SOL    HW225394   1.535   0.603   0.145  0.4012  1.2037 -0.6961
 6407SOL    HW325395   1.539   0.646   0.000  2.2992 -0.0466 -1.0604
 6407SOL    MW425396   1.545   0.584   0.060 -0.0719  0.0870  0.2816
 6408SOL     OW25397   0.966   2.419   5.147 -0.2739 -0.8792  0.3998
 6408SOL    HW225398   1.024   2.376   5.084  0.3559  0.0877  0.2918
 6408SOL    HW325399   0.883   2.428   5.101  0.3262  0.2963 -0.5273
 6408SOL    MW425400   0.963   2.415   5.133  0.1300  0.0689  0.8766
 6409SOL     OW25401   2.285   4.413   0.207 -0.4427  0.0573 -0.0519
 6409SOL    HW225402   2.244   4.497   0.188  0.6310  0.1573 -2.1247
 6409SOL    HW325403   2.212   4.351   0.207 -1.5574  1.1043  3.3701
 6409SOL    MW425404   2.270   4.416   0.205  0.3847  0.1131  0.4861
 6410SOL     OW25405   6.139   3.801   2.762 -0.4587  0.2813  0.3535
 6410SOL    HW225406   6.133   3.726   2.820  0.2261 -0.9390 -1.0986
 6410SOL    HW325407   6.233   3.816   2.750 -0.5832  0.5977 -0.3089
 6410SOL    MW425408   6.151   3.793   2.768 -0.1430 -0.1228  0.4965
 6411SOL     OW25409   4.118   5.282   4.480  0.0951  0.9203  0.2323
 6411SOL    HW225410   4.139   5.189   4.492 -0.4777  0.5777 -1.2088
 6411SOL    HW325411   4.057   5.302   4.551 -0.5032 -0.0532  0.0064
 6411SOL    MW425412   4.113   5.272   4.491 -0.1705 -0.2737  0.4450
 6412SOL     OW25413   0.903   2.530   3.044  0.0452  0.1144 -0.3208
 6412SOL    HW225414   0.883   2.581   2.965  0.3577 -0.0066 -0.4801
 6412SOL    HW325415   0.847   2.567   3.112 -0.9334 -0.3895 -0.8224
 6412SOL    MW425416   0.893   2.541   3.042 -0.1407  0.9400  0.5380
 6413SOL     OW25417   5.851   5.639   0.954  0.1531  0.4102  0.0239
 6413SOL    HW225418   5.937   5.601   0.937  0.1592 -0.5326  1.8279
 6413SOL    HW325419   5.868   5.730   0.975  1.2809 -0.4956  3.8378
 6413SOL    MW425420   5.864   5.646   0.955 -0.1857  0.2583  0.1289
 6414SOL     OW25421   0.681   4.611   4.765 -0.3872 -0.2362  0.0101
 6414SOL    HW225422   0.610   4.611   4.701  1.6727 -1.7869 -2.4329
 6414SOL    HW325423   0.689   4.519   4.791  0.2636  0.0484  0.8682
 6414SOL    MW425424   0.673   4.599   4.760 -0.0675 -0.0309 -0.5335
 6415SOL     OW25425   1.728   2.300   3.351 -0.3393 -0.2081 -0.0445
 6415SOL    HW225426   1.673   2.274   3.425  0.6887  1.0566  1.2267
 6415SOL    HW325427   1.667   2.323   3.282 -1.3626 -0.1514  0.8657
 6415SOL    MW425428   1.713   2.299   3.352 -0.4490  0.3390  0.7555
 6416SOL     OW25429   6.188   0.795   4.394 -0.0263 -0.0335 -0.5072
 6416SOL    HW225430   6.245   0.720   4.412 -0.4277 -0.2531 -0.1176
 6416SOL    HW325431   6.172   0.834   4.480 -2.2118 -1.2556 -0.2822
 6416SOL    MW425432   6.193   0.790   4.408  0.1936  0.2198 -0.1768
 6417SOL     OW25433   0.723   6.270   2.008 -0.0816  0.3229 -0.3655
 6417SOL    HW225434   0.716   6.180   2.038 -0.6835  0.4879  0.0014
 6417SOL    HW325435   0.638   6.308   2.026  0.4384  1.2146  0.2803
 6417SOL    MW425436   0.711   6.263   2.014 -0.1203  0.0742  0.7619
 6418SOL     OW25437   4.833   4.076   3.105 -0.2854 -0.0382 -0.2966
 6418SOL    HW225438   4.760   4.089   3.165 -0.1272  1.8667 -0.4688
 6418SOL    HW325439   4.907   4.119   3.147 -0.1342  1.2076 -1.7519
 6418SOL    MW425440   4.833   4.083   3.119 -0.4273  0.2442 -1.1968
 6419SOL     OW25441   5.538   1.983   3.326 -0.2129 -0.4025 -0.4979
 6419SOL    HW225442   5.471   1.916   3.313  0.9417 -1.2048 -2.7243
 6419SOL    HW325443   5.490   2.066   3.315 -1.7934 -0.6725  2.9754
 6419SOL    MW425444   5.523   1.985   3.322 -0.9766 -0.4900  0.2458
 6420SOL     OW25445   6.036   2.947   5.267  0.4092 -0.5048 -0.2573
 6420SOL    HW225446   5.973   2.906   5.326 -0.1504  0.0957 -0.4303
 6420SOL    HW325447   6.011   2.916   5.180  0.9680 -1.0452 -0.2344
 6420SOL    MW425448   6.024   2.937   5.263  0.2231  0.0268  0.4832
 6421SOL     OW25449   5.569   1.083   4.683  0.1492 -0.4959  0.0935
 6421SOL    HW225450   5.582   1.168   4.642 -0.8170 -0.6169 -0.5215
 6421SOL    HW325451   5.493   1.046   4.636 -0.4547 -1.0033  1.4186
 6421SOL    MW425452   5.560   1.089   4.671 -0.0155  0.0263 -0.0107
 6422SOL     OW25453   2.903   2.212   4.569  0.2718  0.0304  0.0754
 6422SOL    HW225454   2.865   2.242   4.651  1.8140  0.8667  0.5375
 6422SOL    HW325455   2.992   2.184   4.593  0.4276 -0.5976 -1.1540
 6422SOL    MW425456   2.910   2.212   4.583 -0.3798  0.5180 -0.1914
 6423SOL     OW25457   4.513   1.862   1.674 -0.3192  0.5010 -0.4189
 6423SOL    HW225458   4.580   1.818   1.622 -2.8894 -2.5918 -1.4566
 6423SOL    HW325459   4.547   1.859   1.764  0.7622 -1.4704 -0.8276
 6423SOL    MW425460   4.526   1.856   1.679  0.1484  0.3712  0.6748
 6424SOL     OW25461   2.917   5.361   4.036  0.7033 -0.4104  0.3221
 6424SOL    HW225462   2.892   5.272   4.058 -0.1946  0.2451  2.2241
 6424SOL    HW325463   2.976   5.387   4.107  2.7840 -0.1970 -1.3902
 6424SOL    MW425464   2.922   5.353   4.048  0.5891  0.1069 -0.8112
 6425SOL     OW25465   5.914   5.795   2.904 -0.0903  0.4670 -0.0283
 6425SOL    HW225466   5.884   5.729   2.966 -0.7619 -2.1027 -2.8971
 6425SOL    HW325467   5.842   5.858   2.899 -1.0580 -0.5959  0.0695
 6425SOL    MW425468   5.901   5.795   2.912  0.1765  0.3587 -0.2472
 6426SOL     OW25469   0.015   0.482   2.265  0.3077 -0.2467  0.3268
 6426SOL    HW225470  -0.051   0.448   2.325  0.0627  0.2111  0.3238
 6426SOL    HW325471  -0.027   0.481   2.179  0.8793 -1.5022  0.0505
 6426SOL    MW425472   0.001   0.478   2.262  0.3769  0.5000  0.3200
 6427SOL     OW25473   1.503   1.394   1.800 -0.4861  0.0702  0.1241
 6427SOL    HW225474   1.507   1.312   1.750 -3.6811  0.5105 -1.0312
 6427SOL    HW325475   1.428   1.384   1.858  0.8153  1.1328  2.1267
 6427SOL    MW425476   1.494   1.381   1.801  0.3488 -0.2868  0.0918
 6428SOL     OW25477   2.885   0.002   2.995 -0.2126  0.4896 -0.0158
 6428SOL    HW225478   2.959  -0.050   2.963 -2.6603 -1.8190 -2.4112
 6428SOL    HW325479   2.851   0.045   2.916 -0.6900  2.6224  1.2718
 6428SOL    MW425480   2.890   0.001   2.980 -0.2515  0.4881  0.1339
 6429SOL     OW25481   0.978   5.870   2.596  0.0752  0.6001 -0.2357
 6429SOL    HW225482   0.890   5.899   2.574 -0.1151  1.1185  1.1320
 6429SOL    HW325483   1.019   5.852   2.512 -1.3617  0.2530 -0.8907
 6429SOL    MW425484   0.972   5.871   2.582  0.8635 -0.5200  0.6324
 6430SOL     OW25485   0.830   0.467   0.940 -0.1102 -0.2547 -0.0398
 6430SOL    HW225486   0.848   0.549   0.893  1.3135 -1.8316 -2.4339
 6430SOL    HW325487   0.828   0.493   1.033 -0.1190  2.5216 -0.7149
 6430SOL    MW425488   0.832   0.481   0.946 -0.6113  0.1526  0.5508
 6431SOL     OW25489   4.361   6.343   3.145 -0.5198 -0.4074  0.3804
 6431SOL    HW225490   4.312   6.425   3.142  0.4897  0.1871 -1.1393
 6431SOL    HW325491   4.321   6.294   3.217 -2.1152  0.7876  0.3744
 6431SOL    MW425492   4.349   6.347   3.154 -0.0026 -0.7644  0.1845
 6432SOL     OW25493   1.645   3.634   3.934 -0.1552  0.3721  0.1689
 6432SOL    HW225494   1.739   3.617   3.942 -0.3244 -1.5527 -1.0910
 6432SOL    HW325495   1.635   3.668   3.845 -0.6075  0.9422  0.4354
 6432SOL    MW425496   1.656   3.636   3.923  0.0106  0.4950 -0.1184
 6433SOL     OW25497   1.516   5.521   4.965 -0.2424  0.1635  0.1715
 6433SOL    HW225498   1.518   5.596   4.905  0.0624 -1.0357 -1.3803
 6433SOL    HW325499   1.565   5.550   5.041 -0.2089  1.5708 -0.3541
 6433SOL    MW425500   1.523   5.535   4.967  0.5374 -0.0824 -0.4165
 6434SOL     OW25501   1.464   1.073   3.485  0.0298  0.5278 -0.5443
 6434SOL    HW225502   1.385   1.042   3.442  0.1131  1.4334 -1.3980
 6434SOL    HW325503   1.513   1.117   3.416  0.9410  0.6047  0.1316
 6434SOL    MW425504   1.460   1.075   3.471  0.2333  0.0940 -0.3870
 6435SOL     OW25505   4.184   4.202   4.773  0.2669  0.0336 -0.4239
 6435SOL    HW225506   4.169   4.274   4.834  0.8133  1.6865 -2.1671
 6435SOL    HW325507   4.118   4.214   4.705 -0.4665 -1.9061 -0.1123
 6435SOL    MW425508   4.173   4.213   4.772  0.0683  0.3945 -0.3408
 6436SOL     OW25509   0.401   1.861   0.714  0.0103  0.1156  0.0379
 6436SOL    HW225510   0.415   1.931   0.651  1.6837  0.0229  0.2745
 6436SOL    HW325511   0.306   1.845   0.711 -0.1368  1.0736 -1.3958
 6436SOL    MW425512   0.390   1.868   0.706 -0.1117  0.2886  0.1794
 6437SOL     OW25513   0.952   3.057   0.881 -0.4740  0.6968  0.5778
 6437SOL    HW225514   1.038   3.073   0.842 -0.9086  0.2526 -0.5922
 6437SOL    HW325515   0.947   2.961   0.888 -1.8408  0.5489 -1.6836
 6437SOL    MW425516   0.963   3.046   0.877 -0.7324  0.0199 -0.1305
 6438SOL     OW25517   5.162   0.884   6.116 -0.0304  0.6873 -0.0558
 6438SOL    HW225518   5.176   0.940   6.040  0.0996 -0.2662 -0.7557
 6438SOL    HW325519   5.204   0.801   6.092  0.9458  0.6964  1.4727
 6438SOL    MW425520   5.170   0.880   6.103 -0.2030  0.4460  0.3205
 6439SOL     OW25521   1.147   2.672   0.445 -0.1992 -0.2602 -0.0183
 6439SOL    HW225522   1.056   2.699   0.438 -0.3856 -0.5545  1.1668
 6439SOL    HW325523   1.187   2.702   0.363 -1.0132  1.1637  0.0830
 6439SOL    MW425524   1.140   2.679   0.433 -0.3303 -0.5683 -0.0087
 6440SOL     OW25525   5.192   4.557   1.339  0.4533  0.1664  0.0019
 6440SOL    HW225526   5.141   4.621   1.389 -0.2215 -0.3236 -0.0374
 6440SOL    HW325527   5.282   4.587   1.347  0.6233 -0.7344  2.9028
 6440SOL    MW425528   5.197   4.569   1.347 -0.1673 -0.6556  0.1869
 6441SOL     OW25529   2.933   5.988   5.000 -0.4843  0.3175 -0.1096
 6441SOL    HW225530   2.938   5.907   5.051 -2.1526 -0.0640 -0.5044
 6441SOL    HW325531   2.909   6.055   5.064  1.0334  0.5716  0.2447
 6441SOL    MW425532   2.931   5.986   5.015 -0.1010 -0.3743  0.1515
 6442SOL     OW25533   2.509   4.217   0.526  0.3771  0.8094  0.0807
 6442SOL    HW225534   2.525   4.227   0.432 -0.9563  2.1709 -0.0448
 6442SOL    HW325535   2.417   4.240   0.537 -0.1942 -1.7681  1.3923
 6442SOL    MW425536   2.499   4.222   0.515  0.3797  0.2638  0.3657
 6443SOL     OW25537   6.414   0.569   1.597 -0.0328 -0.5864 -0.0940
 6443SOL    HW225538   6.327   0.534   1.616 -0.6560  0.6475 -0.5449
 6443SOL    HW325539   6.417   0.653   1.643  0.5061 -0.1167 -0.9604
 6443SOL    MW425540   6.403   0.576   1.606 -0.0544 -0.0430 -0.3155
 6444SOL     OW25541   3.384   3.917   3.560 -0.0362  0.3731  0.1851
 6444SOL    HW225542   3.356   3.829   3.586 -0.6903  0.5551  0.1037
 6444SOL    HW325543   3.463   3.933   3.611 -0.5302  0.1688  1.0264
 6444SOL    MW425544   3.391   3.907   3.570 -0.1441  0.0452 -0.3402
 6445SOL     OW25545   0.511   3.203   2.041  0.0581 -0.1104  0.6130
 6445SOL    HW225546   0.569   3.127   2.038  0.3079  0.1055 -0.0250
 6445SOL    HW325547   0.464   3.193   2.124  1.3984  0.0115  1.4221
 6445SOL    MW425548   0.512   3.191   2.052 -0.1002  0.2693  0.6767
 6446SOL     OW25549   4.303   0.879   1.233 -0.7080  0.5498 -0.1896
 6446SOL    HW225550   4.314   0.971   1.256  0.6234  0.6948 -1.2564
 6446SOL    HW325551   4.263   0.839   1.310 -0.0521  1.7567  0.8071
 6446SOL    MW425552   4.299   0.886   1.246  0.8230 -0.0654  0.3954
 6447SOL     OW25553   2.499   4.725   0.166  0.0961 -0.3691  0.5259
 6447SOL    HW225554   2.542   4.804   0.133  1.5065 -0.7960  1.2737
 6447SOL    HW325555   2.560   4.689   0.230 -0.4933 -2.0998  0.1670
 6447SOL    MW425556   2.512   4.731   0.170 -0.3141 -0.2233  0.0486
 6448SOL     OW25557   1.069   6.398   2.597  0.4078 -0.2608 -0.3736
 6448SOL    HW225558   1.051   6.488   2.625  0.9346  0.1364 -1.2725
 6448SOL    HW325559   1.008   6.383   2.524  0.8658 -0.3397 -0.7495
 6448SOL    MW425560   1.059   6.408   2.591 -0.3222  0.0682 -0.0012
 6449SOL     OW25561   2.899   0.131   3.764 -0.5271  0.0573  0.3556
 6449SOL    HW225562   2.842   0.196   3.724  1.5734  1.5295 -0.4231
 6449SOL    HW325563   2.941   0.087   3.690 -2.1435 -2.4949  0.8537
 6449SOL    MW425564   2.897   0.134   3.749 -0.2910  0.4480  0.0551
 6450SOL     OW25565   3.976   1.243   0.463  0.4965 -0.3019 -0.2076
 6450SOL    HW225566   4.053   1.215   0.512  0.0642  2.3621  2.2896
 6450SOL    HW325567   3.910   1.177   0.482  0.9268 -0.3433  1.2677
 6450SOL    MW425568   3.978   1.231   0.472  0.5585  0.2108 -0.6086
 6451SOL     OW25569   3.175   4.427   1.421 -0.2673 -0.6451  0.1584
 6451SOL    HW225570   3.122   4.479   1.481 -3.2850 -1.3612 -1.6722
 6451SOL    HW325571   3.193   4.346   1.468 -0.8739 -0.4044  0.8252
 6451SOL    MW425572   3.170   4.423   1.435 -0.2886  0.4487 -0.2449
 6452SOL     OW25573   0.803   3.808   4.702  0.1894 -0.0218  0.6447
 6452SOL    HW225574   0.718   3.770   4.725 -0.1630  0.4273  0.1008
 6452SOL    HW325575   0.783   3.899   4.679  0.4553 -0.5081 -1.7584
 6452SOL    MW425576   0.789   3.815   4.702 -0.3806 -0.3773 -0.5533
 6453SOL     OW25577   1.628   3.671   2.960 -0.4105 -0.6974 -0.4396
 6453SOL    HW225578   1.605   3.636   3.046 -1.3966  0.2705 -0.2802
 6453SOL    HW325579   1.663   3.759   2.979 -1.1417 -0.2644 -1.0561
 6453SOL    MW425580   1.630   3.678   2.974 -0.6395 -0.1390  0.4686
 6454SOL     OW25581   1.159   3.722   2.010  0.6055  0.3755  0.5647
 6454SOL    HW225582   1.211   3.642   2.006  1.7428  1.0937  0.6237
 6454SOL    HW325583   1.215   3.785   2.055  1.5194  2.5082 -3.1330
 6454SOL    MW425584   1.173   3.720   2.016 -0.3406 -0.5348 -0.8621
 6455SOL     OW25585   1.883   0.930   5.719  0.0748  0.1246  0.2261
 6455SOL    HW225586   1.883   1.026   5.722  1.7270  0.1442  0.8431
 6455SOL    HW325587   1.939   0.904   5.792 -1.2858 -1.3768  0.7764
 6455SOL    MW425588   1.891   0.939   5.729 -0.0226  0.1350 -0.0443
 6456SOL     OW25589   0.012   3.165   5.258 -0.2097  0.1660  0.0737
 6456SOL    HW225590   0.058   3.086   5.228  0.1820  0.5458 -0.3419
 6456SOL    HW325591  -0.072   3.163   5.212  0.7226  1.1961 -1.8047
 6456SOL    MW425592   0.007   3.154   5.248 -0.4024  0.5332 -0.0254
 6457SOL     OW25593   4.500   3.995   1.124 -0.0081 -0.3160  0.6516
 6457SOL    HW225594   4.501   4.086   1.155 -0.5692  0.3623 -1.1600
 6457SOL    HW325595   4.440   3.950   1.183 -2.0310  1.2042 -0.0931
 6457SOL    MW425596   4.492   4.001   1.136  0.1893 -0.1844 -0.5091
 6458SOL     OW25597   2.512   3.123   2.475  0.3914  0.8617  0.0797
 6458SOL    HW225598   2.587   3.068   2.500 -0.2418 -0.3623 -0.6359
 6458SOL    HW325599   2.436   3.076   2.508 -0.2595  0.6271 -1.6495
 6458SOL    MW425600   2.512   3.109   2.482  0.5099 -0.4629 -0.0920
 6459SOL     OW25601   3.828   5.687   2.828 -0.1201 -0.2332 -0.0575
 6459SOL    HW225602   3.899   5.748   2.850 -1.1220  0.3123  1.9218
 6459SOL    HW325603   3.840   5.613   2.887 -1.6218  0.2379  0.9043
 6459SOL    MW425604   3.839   5.686   2.839  0.0588 -0.2195 -0.7537
 6460SOL     OW25605   5.875   5.765   4.190 -0.4809 -0.2949  0.6695
 6460SOL    HW225606   5.838   5.748   4.103  2.8751 -0.7827 -0.8154
 6460SOL    HW325607   5.860   5.858   4.204  1.3987  0.5044 -1.8388
 6460SOL    MW425608   5.868   5.775   4.180 -0.6949  0.0465  0.4207
 6461SOL     OW25609   6.074   6.298   4.665 -0.1016  0.1003 -0.3521
 6461SOL    HW225610   6.008   6.350   4.710  0.9234  0.3016  0.9664
 6461SOL    HW325611   6.105   6.235   4.730  2.7636  1.6232 -0.0939
 6461SOL    MW425612   6.069   6.296   4.679  0.2181 -0.2201 -0.3126
 6462SOL     OW25613   6.306   2.985   1.614  0.3079  0.0954 -0.1623
 6462SOL    HW225614   6.328   2.892   1.614  0.3968  0.0594 -2.3775
 6462SOL    HW325615   6.388   3.028   1.639  1.3717 -0.3144 -2.6393
 6462SOL    MW425616   6.320   2.978   1.617  0.3149  0.5043 -0.3884
 6463SOL     OW25617   5.128   4.997   5.650  0.4391  0.1273 -1.0848
 6463SOL    HW225618   5.208   5.039   5.620 -0.2416  1.3704 -1.2456
 6463SOL    HW325619   5.058   5.040   5.601 -0.3359 -0.9331 -0.9551
 6463SOL    MW425620   5.129   5.008   5.640 -0.7779  0.0808 -0.4637
 6464SOL     OW25621   5.807   0.759   5.624 -0.0423 -0.0232 -0.5421
 6464SOL    HW225622   5.891   0.798   5.649 -0.6612  0.6210  0.5936
 6464SOL    HW325623   5.830   0.672   5.590  1.1097  0.2762 -0.5523
 6464SOL    MW425624   5.821   0.752   5.623 -0.1865 -0.0161 -0.3052
 6465SOL     OW25625   1.703   4.616   5.571  0.8115 -0.1520  0.1772
 6465SOL    HW225626   1.742   4.540   5.527 -0.1662 -0.2827 -0.4988
 6465SOL    HW325627   1.728   4.690   5.516  0.6818 -0.1468  0.1262
 6465SOL    MW425628   1.712   4.615   5.558 -0.4606  0.0598 -0.4036
 6466SOL     OW25629   2.552   4.236   6.112  0.0446 -0.8676 -0.2213
 6466SOL    HW225630   2.565   4.180   6.035  0.5202 -0.0811 -0.7292
 6466SOL    HW325631   2.640   4.249   6.147 -0.0365 -0.2805 -0.2265
 6466SOL    MW425632   2.566   4.231   6.106 -0.1400  0.1399 -0.0034
 6467SOL     OW25633   4.492   4.060   3.876 -0.2753  0.1626 -0.3231
 6467SOL    HW225634   4.434   4.084   3.948  0.9895 -0.1502  0.8461
 6467SOL    HW325635   4.539   4.141   3.856  0.3900 -0.0953  0.1813
 6467SOL    MW425636   4.491   4.074   3.882  0.6086  0.9376  0.9951
 6468SOL     OW25637   4.470   4.244   3.317  0.1512  0.2415  0.0631
 6468SOL    HW225638   4.451   4.314   3.381 -0.5293 -0.3615  0.5361
 6468SOL    HW325639   4.397   4.247   3.256  0.5542  0.4935 -0.4121
 6468SOL    MW425640   4.458   4.254   3.318  0.1321 -0.6601 -0.3929
 6469SOL     OW25641   0.316   2.384   2.733 -0.2535  0.2014  0.4124
 6469SOL    HW225642   0.385   2.318   2.739 -1.5845 -1.5710 -2.1175
 6469SOL    HW325643   0.263   2.372   2.812 -0.9726 -2.4532 -0.3895
 6469SOL    MW425644   0.318   2.374   2.744 -0.0691 -0.0191  0.0644
 6470SOL     OW25645   0.904   5.359   0.609  0.2153  0.3150 -0.3448
 6470SOL    HW225646   0.827   5.329   0.560  0.1865 -3.6615  1.6983
 6470SOL    HW325647   0.978   5.317   0.565  0.4197 -1.3445  1.4568
 6470SOL    MW425648   0.903   5.350   0.596 -0.0551  0.0520  0.2909
 6471SOL     OW25649   0.204   3.808   0.623 -0.0557 -0.1291 -0.8246
 6471SOL    HW225650   0.256   3.839   0.549 -0.4504  0.4069 -0.8777
 6471SOL    HW325651   0.232   3.864   0.696  0.6427 -0.9276 -0.4518
 6471SOL    MW425652   0.215   3.819   0.623  0.1092 -0.1266 -0.5645
 6472SOL     OW25653   2.515   1.489   1.716 -0.0442  0.9569  0.2455
 6472SOL    HW225654   2.557   1.557   1.768  1.7543 -0.4342  0.7125
 6472SOL    HW325655   2.584   1.424   1.702 -1.8991 -1.1787  0.5439
 6472SOL    MW425656   2.530   1.490   1.721  0.6559 -0.3294  0.0171
 6473SOL     OW25657   5.730   0.468   0.599 -0.0039 -0.4741 -0.1247
 6473SOL    HW225658   5.685   0.545   0.635 -1.6891 -1.6119  0.3354
 6473SOL    HW325659   5.808   0.459   0.654  0.7157  1.3976 -0.7636
 6473SOL    MW425660   5.735   0.477   0.611  0.2395 -0.1833  0.1718
 6474SOL     OW25661   5.090   2.002   3.419 -0.2077  0.1031 -0.0810
 6474SOL    HW225662   5.016   1.998   3.358  0.9947 -0.2230 -1.5783
 6474SOL    HW325663   5.056   1.963   3.500 -1.6725 -0.0168 -0.7171
 6474SOL    MW425664   5.075   1.996   3.422  0.3171 -0.4900 -0.6846
 6475SOL     OW25665   4.431   6.344   1.308 -0.2855 -0.7240  0.4649
 6475SOL    HW225666   4.336   6.345   1.292  0.0373 -0.2280 -1.7992
 6475SOL    HW325667   4.445   6.409   1.376 -1.4355  0.3813 -0.3169
 6475SOL    MW425668   4.420   6.353   1.315  0.2395  0.4453  0.0182
 6476SOL     OW25669   6.333   4.110   0.113 -0.0946  0.4772 -0.2957
 6476SOL    HW225670   6.351   4.191   0.066 -0.6906  0.6601 -0.2159
 6476SOL    HW325671   6.414   4.091   0.159  0.3089  0.6045 -0.9353
 6476SOL    MW425672   6.346   4.118   0.113  0.3928 -0.5994  0.2606
 6477SOL     OW25673   2.497   2.547   1.396 -0.6446  0.3487  0.0863
 6477SOL    HW225674   2.590   2.541   1.371 -0.0715  0.7227  1.9416
 6477SOL    HW325675   2.450   2.549   1.313  1.0263  0.3979 -0.9142
 6477SOL    MW425676   2.503   2.546   1.382  0.3229 -0.0592 -0.0743
 6478SOL     OW25677   5.847   1.443   2.351  0.5371  0.0163 -0.4144
 6478SOL    HW225678   5.901   1.410   2.279 -1.0426  0.3178 -1.7832
 6478SOL    HW325679   5.763   1.397   2.342 -1.1472  3.0345 -1.3687
 6478SOL    MW425680   5.843   1.432   2.341  0.8428 -0.8123  0.0647
 6479SOL     OW25681   4.088   3.770   6.219 -0.1760  0.4702 -0.6609
 6479SOL    HW225682   4.071   3.710   6.291 -1.1895  1.7432  0.1983
 6479SOL    HW325683   4.046   3.729   6.143  0.8556 -0.8464 -0.5634
 6479SOL    MW425684   4.080   3.757   6.218 -0.4644  0.6674 -0.0997
 6480SOL     OW25685   4.218   2.359   0.619 -0.3042  0.2019 -0.3387
 6480SOL    HW225686   4.303   2.374   0.577  0.8948 -2.5054  0.8992
 6480SOL    HW325687   4.215   2.265   0.634 -2.5569  0.5175  1.7576
 6480SOL    MW425688   4.229   2.349   0.615  0.0990 -0.1967 -0.6560
 6481SOL     OW25689   2.931   3.353   3.994 -0.1221  0.3710  0.3235
 6481SOL    HW225690   2.954   3.309   3.911  0.9190 -0.2565  0.9106
 6481SOL    HW325691   2.847   3.395   3.977  1.1723  2.3510 -1.8408
 6481SOL    MW425692   2.923   3.352   3.981 -0.0946 -0.1745  0.4446
 6482SOL     OW25693   4.638   2.115   1.414  0.3542  0.3516 -0.1707
 6482SOL    HW225694   4.704   2.166   1.462  1.7134 -1.3078 -0.1978
 6482SOL    HW325695   4.625   2.164   1.333  2.5536  0.0886 -0.7492
 6482SOL    MW425696   4.645   2.128   1.409 -0.1344 -0.2534 -0.2473
 6483SOL     OW25697   2.429   4.971   2.820  0.8521  0.1382 -0.0747
 6483SOL    HW225698   2.399   4.954   2.909  1.6433  2.2251  0.6380
 6483SOL    HW325699   2.523   4.953   2.823  0.8571  0.0645 -0.5450
 6483SOL    MW425700   2.438   4.966   2.832 -0.7285 -0.0319  0.1750
 6484SOL     OW25701   1.074   5.707   0.901 -0.0871  0.2377  0.3133
 6484SOL    HW225702   1.134   5.712   0.975 -0.8825  0.2175  0.9676
 6484SOL    HW325703   1.124   5.662   0.833  0.7142  0.4229  0.7653
 6484SOL    MW425704   1.089   5.702   0.902  0.6156  0.8173  0.5138
 6485SOL     OW25705   3.655   1.733   0.160 -0.4612  0.7397 -0.6246
 6485SOL    HW225706   3.743   1.720   0.194  0.3307 -1.8689 -3.2742
 6485SOL    HW325707   3.667   1.762   0.070 -2.2923  0.4297 -1.0176
 6485SOL    MW425708   3.668   1.735   0.153 -0.1321  0.8982  0.2747
 6486SOL     OW25709   0.240   6.277   6.200 -0.3884 -0.6919  0.0343
 6486SOL    HW225710   0.315   6.278   6.260  0.5881  0.9726 -1.1074
 6486SOL    HW325711   0.265   6.215   6.131  0.0498 -0.0465 -0.4114
 6486SOL    MW425712   0.253   6.269   6.198  0.1267  0.5107 -0.0787
 6487SOL     OW25713   2.948   5.051   6.253 -0.5447 -0.3717  0.9720
 6487SOL    HW225714   2.914   5.094   6.332  0.4231  0.4536  0.9651
 6487SOL    HW325715   3.000   4.978   6.286 -2.7423 -2.0541  0.9657
 6487SOL    MW425716   2.950   5.047   6.268 -1.0815 -0.0698  0.0027
 6488SOL     OW25717   5.158   2.408   5.788 -0.5071 -0.3247  0.0178
 6488SOL    HW225718   5.175   2.314   5.800  1.1817  0.0218  0.6121
 6488SOL    HW325719   5.223   2.451   5.843  1.2515  1.2636 -3.0450
 6488SOL    MW425720   5.169   2.401   5.797  0.0360 -0.1124 -0.2091
 6489SOL     OW25721   6.195   3.403   2.608 -0.8488  0.1912  0.2715
 6489SOL    HW225722   6.242   3.389   2.690  0.0819 -1.1635 -0.4449
 6489SOL    HW325723   6.135   3.329   2.602  1.1420 -1.4039 -1.5975
 6489SOL    MW425724   6.193   3.391   2.618 -0.2455 -0.7990  0.2337
 6490SOL     OW25725   4.718   1.761   3.744 -0.3516  0.2154 -0.0792
 6490SOL    HW225726   4.805   1.778   3.708  0.0307 -0.9054  0.2894
 6490SOL    HW325727   4.669   1.724   3.670 -0.4739  0.7038 -0.2454
 6490SOL    MW425728   4.723   1.758   3.730  0.4473 -0.0751 -0.4760
 6491SOL     OW25729   5.315   6.060   1.590 -0.2833  0.1214 -0.1966
 6491SOL    HW225730   5.377   6.080   1.519 -0.5126  0.0102 -0.4319
 6491SOL    HW325731   5.230   6.090   1.556 -1.0079 -2.8186 -1.3345
 6491SOL    MW425732   5.312   6.067   1.576 -0.2344 -0.5135 -0.2322
 6492SOL     OW25733   5.034   3.576   1.324 -0.2385 -0.4068  0.5631
 6492SOL    HW225734   4.991   3.548   1.243 -1.8603  1.8496  0.5784
 6492SOL    HW325735   5.122   3.601   1.296 -0.3749 -0.8193 -0.2760
 6492SOL    MW425736   5.040   3.576   1.310 -0.0486 -0.3638  0.1297
 6493SOL     OW25737   4.532   1.440   5.499 -0.6100  0.0225  0.0716
 6493SOL    HW225738   4.581   1.454   5.418 -0.0939  0.7594  0.4906
 6493SOL    HW325739   4.469   1.372   5.478 -1.2226  0.9511 -1.2758
 6493SOL    MW425740   4.530   1.433   5.486 -0.2659 -0.2716 -0.3135
 6494SOL     OW25741   3.197   1.992   0.325 -0.2064  0.2459 -0.0495
 6494SOL    HW225742   3.154   1.962   0.405 -2.1958  1.2895 -0.6553
 6494SOL    HW325743   3.242   2.072   0.350 -3.1204  2.1590 -0.4263
 6494SOL    MW425744   3.197   1.999   0.339 -0.0183  0.0453 -0.1889
 6495SOL     OW25745   6.114   1.285   5.091  0.3590  0.4978  0.2770
 6495SOL    HW225746   6.079   1.243   5.170  1.3815 -2.6278 -0.7670
 6495SOL    HW325747   6.167   1.358   5.124 -0.2242  0.0338  2.3773
 6495SOL    MW425748   6.116   1.289   5.106  0.0131  0.1398  0.2541
 6496SOL     OW25749   4.221   2.168   3.130  0.2317 -0.0427  0.2048
 6496SOL    HW225750   4.146   2.169   3.189  0.7120  0.0332  0.8314
 6496SOL    HW325751   4.190   2.122   3.053  0.6246 -3.5519  1.9433
 6496SOL    MW425752   4.207   2.162   3.128  0.1098 -0.3059 -0.0764
 6497SOL     OW25753   4.484   0.909   3.640  0.4174 -0.7244 -0.6123
 6497SOL    HW225754   4.472   0.981   3.702  3.0033 -0.1593 -0.6553
 6497SOL    HW325755   4.483   0.830   3.694  0.8437 -0.3837 -0.1003
 6497SOL    MW425756   4.482   0.908   3.655  0.7563  0.0769  0.0171
 6498SOL     OW25757   0.931   2.485   1.313 -0.5941  0.1075  0.1224
 6498SOL    HW225758   1.016   2.519   1.288 -0.5027  1.6044  2.2174
 6498SOL    HW325759   0.948   2.394   1.339 -0.0786 -0.3045 -1.5724
 6498SOL    MW425760   0.944   2.477   1.313  0.2950  0.9202 -0.3785
 6499SOL     OW25761   6.067   6.298   4.035  0.1030 -0.1001 -0.0360
 6499SOL    HW225762   6.105   6.385   4.022  0.3604 -0.2864 -0.5396
 6499SOL    HW325763   5.993   6.313   4.094  1.0676  0.2357  1.1231
 6499SOL    MW425764   6.062   6.311   4.041  0.2882 -0.5171  0.5274
 6500SOL     OW25765   5.762   1.824   0.960 -0.2712  0.3066 -0.0731
 6500SOL    HW225766   5.811   1.797   1.038  2.7682  0.2664 -1.8289
 6500SOL    HW325767   5.756   1.745   0.906 -2.4742  0.2929  0.0897
 6500SOL    MW425768   5.768   1.810   0.963 -0.1771  0.0876 -0.1455
 6501SOL     OW25769   5.685   1.203   0.812 -0.2139  0.1795 -0.2465
 6501SOL    HW225770   5.686   1.133   0.877 -1.5691  0.8593  0.5567
 6501SOL    HW325771   5.656   1.280   0.860  1.7477  1.4675 -0.9755
 6501SOL    MW425772   5.682   1.204   0.827  0.3474  0.1029  0.1891
 6502SOL     OW25773   0.468   1.689   0.347  0.1816 -0.0952  0.2512
 6502SOL    HW225774   0.510   1.775   0.353 -0.1745  0.0292  1.0907
 6502SOL    HW325775   0.480   1.663   0.256  2.1623 -0.1108  0.4730
 6502SOL    MW425776   0.475   1.697   0.336  0.5903  0.0332 -0.8210
 6503SOL     OW25777   6.401   4.695   2.928 -0.1896  0.5080 -0.7853
 6503SOL    HW225778   6.443   4.682   3.014 -0.3346 -0.9067 -0.9139
 6503SOL    HW325779   6.405   4.790   2.914  2.1532  0.5294 -0.3755
 6503SOL    MW425780   6.407   4.706   2.938 -0.2501  0.6469  0.3399
 6504SOL     OW25781   6.313   5.102   4.253 -0.4939  0.2863  0.8638
 6504SOL    HW225782   6.244   5.164   4.233 -1.6382 -0.5205  2.1437
 6504SOL    HW325783   6.273   5.016   4.241  0.1731 -0.2022  1.9568
 6504SOL    MW425784   6.299   5.098   4.249 -0.1644 -0.3469 -0.5026
 6505SOL     OW25785   2.507   6.238   0.465 -0.0775  0.3470 -0.1235
 6505SOL    HW225786   2.597   6.265   0.484  0.2831 -0.1467 -1.0651
 6505SOL    HW325787   2.454   6.280   0.533  0.8242  0.9083  0.2438
 6505SOL    MW425788   2.512   6.247   0.476 -0.3769 -0.4757 -0.8059
 6506SOL     OW25789   3.786   1.402   0.840  0.1628  0.3813 -0.0060
 6506SOL    HW225790   3.826   1.488   0.828 -0.0843  0.4259 -0.5811
 6506SOL    HW325791   3.732   1.390   0.762  0.3272 -0.3677 -0.0169
 6506SOL    MW425792   3.784   1.412   0.828  0.0095  0.5573 -0.2587
 6507SOL     OW25793   1.353   6.388   2.649 -0.2457 -0.5048 -0.7736
 6507SOL    HW225794   1.259   6.369   2.640 -0.5852  0.8246 -0.2880
 6507SOL    HW325795   1.366   6.469   2.600  0.1034  0.7267  1.2220
 6507SOL    MW425796   1.342   6.397   2.641 -0.2386  0.2561 -0.0557
 6508SOL     OW25797   1.276   0.608   1.818 -0.1040 -0.0911  0.0626
 6508SOL    HW225798   1.314   0.684   1.774  0.5526  0.3268  1.3068
 6508SOL    HW325799   1.272   0.633   1.911  0.7968 -1.8226  0.6119
 6508SOL    MW425800   1.281   0.622   1.825  0.0802 -0.6506  0.5570
 6509SOL     OW25801   1.045   0.104   2.923  0.2605 -0.3896 -0.0103
 6509SOL    HW225802   1.114   0.164   2.896  0.9889 -1.2572 -0.1091
 6509SOL    HW325803   1.059   0.093   3.017 -0.1594 -0.0580  0.0965
 6509SOL    MW425804   1.056   0.111   2.932  0.2095 -0.3365  0.4932
 6510SOL     OW25805   3.579   5.140   4.274  0.3137  0.6758  0.0899
 6510SOL    HW225806   3.533   5.168   4.353 -0.3113 -1.5361  0.5868
 6510SOL    HW325807   3.566   5.045   4.271  1.1938  0.5600 -2.1318
 6510SOL    MW425808   3.571   5.131   4.284 -0.3923  0.3567 -0.9013
 6511SOL     OW25809   3.292   1.551   6.053  0.5212  0.5429 -0.2696
 6511SOL    HW225810   3.200   1.544   6.080 -0.3566 -2.9874 -3.4165
 6511SOL    HW325811   3.291   1.613   5.981  0.6888  0.7119 -0.1281
 6511SOL    MW425812   3.280   1.558   6.047  0.5161 -0.0235 -0.2029
 6512SOL     OW25813   0.361   6.118   0.435  0.0644 -0.3339 -0.7663
 6512SOL    HW225814   0.386   6.164   0.515 -1.0230  2.4984 -1.9192
 6512SOL    HW325815   0.352   6.026   0.461  0.1228  0.4239  2.2267
 6512SOL    MW425816   0.363   6.112   0.449  0.0333 -0.1321 -0.3866
 6513SOL     OW25817   3.198   5.671   3.224  0.1931 -0.2882  0.5334
 6513SOL    HW225818   3.256   5.652   3.150 -1.1237  1.1961 -0.9621
 6513SOL    HW325819   3.127   5.608   3.215 -0.8824  1.0394 -0.5811
 6513SOL    MW425820   3.197   5.660   3.213  0.0955  0.1292  0.3040
 6514SOL     OW25821   4.710   5.464   4.047  0.0299 -0.3560  0.2856
 6514SOL    HW225822   4.649   5.456   4.120 -0.0648  0.0223  0.2498
 6514SOL    HW325823   4.687   5.547   4.005  0.3217 -0.3933  0.0452
 6514SOL    MW425824   4.699   5.474   4.051  0.4408 -0.1203 -0.2733
 6515SOL     OW25825   4.364   4.282   2.344  0.2442  0.1737 -0.1023
 6515SOL    HW225826   4.279   4.321   2.364 -0.5224 -1.0812 -0.7225
 6515SOL    HW325827   4.353   4.245   2.256  1.4514  0.0185 -0.2052
 6515SOL    MW425828   4.351   4.282   2.335 -0.3334 -0.0946  0.1119
 6516SOL     OW25829   0.809   4.561   5.296 -0.2380 -0.3814  0.1663
 6516SOL    HW225830   0.876   4.602   5.240 -0.8134  0.6128  0.1860
 6516SOL    HW325831   0.749   4.518   5.234 -1.2421  1.2740 -0.0533
 6516SOL    MW425832   0.810   4.561   5.280 -0.2356 -0.4573 -0.1064
 6517SOL     OW25833   1.442   4.469   3.194  0.5913  0.6064  0.5059
 6517SOL    HW225834   1.477   4.396   3.245 -0.8148  1.5771  3.0551
 6517SOL    HW325835   1.519   4.518   3.166  1.5761 -1.8301 -1.3720
 6517SOL    MW425836   1.457   4.466   3.197 -0.1754 -0.4551 -0.3056
 6518SOL     OW25837   2.089   0.898   5.912  0.1147 -0.3527 -0.4720
 6518SOL    HW225838   2.067   0.865   6.000  0.8734 -2.1219 -0.9016
 6518SOL    HW325839   2.096   0.993   5.924  0.1305 -0.5345  1.3764
 6518SOL    MW425840   2.087   0.906   5.925  0.3812 -0.2023  0.2004
 6519SOL     OW25841   0.928   2.427   2.244  0.3202  0.0945  0.0768
 6519SOL    HW225842   0.965   2.347   2.207  2.1283  0.6381  0.6230
 6519SOL    HW325843   0.840   2.432   2.207  0.6188 -1.4962 -0.9274
 6519SOL    MW425844   0.921   2.417   2.234 -0.0438  0.2772  0.2645
 6520SOL     OW25845   3.068   4.605   5.769 -0.1327  0.3798 -0.1235
 6520SOL    HW225846   3.031   4.687   5.799 -0.3907 -0.2649  1.4353
 6520SOL    HW325847   3.160   4.625   5.753  0.1210  0.7039  1.5334
 6520SOL    MW425848   3.075   4.618   5.771 -0.3393 -0.8546  0.3898
 6521SOL     OW25849   3.805   0.964   1.526  0.2171 -0.6586 -0.2394
 6521SOL    HW225850   3.747   0.961   1.450  1.4873  0.8143 -1.3399
 6521SOL    HW325851   3.748   0.989   1.599 -0.8113 -0.8934 -0.9437
 6521SOL    MW425852   3.790   0.967   1.526  0.0568 -0.0433 -0.0556
 6522SOL     OW25853   3.309   5.501   2.054  0.1461 -0.0796  0.1884
 6522SOL    HW225854   3.380   5.441   2.074 -0.2789 -0.5917  0.1726
 6522SOL    HW325855   3.252   5.452   1.994  0.4017  0.7463 -0.7637
 6522SOL    MW425856   3.311   5.487   2.049  0.2382 -0.8191  0.3077
 6523SOL     OW25857   0.935   5.572   5.677  0.0431  0.2512 -0.0339
 6523SOL    HW225858   0.933   5.552   5.771  1.4245 -1.0145 -0.2431
 6523SOL    HW325859   0.849   5.545   5.645 -0.0814 -0.2541  0.6862
 6523SOL    MW425860   0.924   5.566   5.685 -0.2797  0.3370 -0.0040
 6524SOL     OW25861   2.110   5.626   0.090 -0.4231 -0.4571  0.1609
 6524SOL    HW225862   2.195   5.668   0.080 -1.7786  2.2170 -1.2780
 6524SOL    HW325863   2.101   5.571   0.012 -0.8457  0.9620 -0.8272
 6524SOL    MW425864   2.120   5.624   0.079 -0.0897  0.6240 -0.0445
 6525SOL     OW25865   4.586   3.432   4.994 -0.7147 -0.1403 -0.4583
 6525SOL    HW225866   4.676   3.463   5.007 -0.7245 -0.5114  0.6431
 6525SOL    HW325867   4.582   3.410   4.901  0.0889  0.6287 -0.6965
 6525SOL    MW425868   4.598   3.433   4.984  0.1374  0.0201 -0.3089
 6526SOL     OW25869   3.891   2.698   0.011  0.1222 -0.3364  0.4575
 6526SOL    HW225870   3.855   2.730   0.094  1.5543  1.1136  0.5592
 6526SOL    HW325871   3.970   2.750  -0.003  1.0347 -1.9575 -0.8095
 6526SOL    MW425872   3.896   2.709   0.020  0.5689  0.5391  0.4030
 6527SOL     OW25873   5.706   5.085   2.686 -0.3704  0.0576  0.1657
 6527SOL    HW225874   5.642   5.031   2.732  0.0753  1.7425  3.0082
 6527SOL    HW325875   5.661   5.167   2.669 -0.0925 -0.0633 -1.3356
 6527SOL    MW425876   5.692   5.088   2.689 -0.5266 -0.2945  0.0231
 6528SOL     OW25877   5.617   0.439   4.593 -0.2334  0.1552  0.2112
 6528SOL    HW225878   5.681   0.511   4.586 -0.5078  0.2697 -1.6852
 6528SOL    HW325879   5.671   0.361   4.604  0.1133  0.5246  1.2440
 6528SOL    MW425880   5.633   0.438   4.594 -0.3411  0.3144  0.2225
 6529SOL     OW25881   5.773   6.200   1.038  0.3080 -0.0570  0.4109
 6529SOL    HW225882   5.807   6.283   1.070  0.9515  0.7736 -2.1657
 6529SOL    HW325883   5.680   6.217   1.020  0.1727 -0.2458  0.9089
 6529SOL    MW425884   5.765   6.213   1.040  0.0498 -0.3137  0.0831
 6530SOL     OW25885   5.145   3.571   2.224 -0.2798  0.1231  0.0503
 6530SOL    HW225886   5.094   3.648   2.250 -1.1220  0.5996 -2.6740
 6530SOL    HW325887   5.220   3.607   2.177 -0.2801 -0.6813 -0.5865
 6530SOL    MW425888   5.148   3.586   2.221 -0.0748  0.2462  0.1619
 6531SOL     OW25889   4.260   2.606   3.308  0.4339 -0.1954  0.9798
 6531SOL    HW225890   4.276   2.677   3.246 -0.9377 -0.9500 -0.3019
 6531SOL    HW325891   4.336   2.606   3.365  1.1338  1.3648  0.1012
 6531SOL    MW425892   4.272   2.615   3.307 -0.0042  0.2073 -0.0485
 6532SOL     OW25893   2.238   6.017   0.240 -0.2382 -0.2429 -0.2064
 6532SOL    HW225894   2.181   6.077   0.191 -0.9689 -0.9564 -0.2578
 6532SOL    HW325895   2.230   6.044   0.331 -1.4314 -0.9243 -0.0878
 6532SOL    MW425896   2.229   6.028   0.245 -0.5303 -0.9734  0.4929
 6533SOL     OW25897   1.199   4.267   5.064 -0.2419  0.5028 -0.0474
 6533SOL    HW225898   1.111   4.242   5.091  0.0627  0.1756  0.6657
 6533SOL    HW325899   1.189   4.295   4.973 -1.0164  0.1384 -0.0823
 6533SOL    MW425900   1.186   4.268   5.056 -0.2727 -0.6993  0.4745
 6534SOL     OW25901   6.179   4.993   0.844  0.5407 -0.0549  0.0546
 6534SOL    HW225902   6.259   4.954   0.878  0.7041 -0.9474 -1.2737
 6534SOL    HW325903   6.123   4.919   0.822  0.0919  0.4955 -0.7521
 6534SOL    MW425904   6.182   4.978   0.845  0.0298  0.3263 -0.5326
 6535SOL     OW25905   5.706   2.443   6.381 -0.3021 -0.1409 -0.6573
 6535SOL    HW225906   5.630   2.479   6.335 -0.0979  0.9457 -0.1836
 6535SOL    HW325907   5.743   2.518   6.428  0.2650 -0.9410  0.2085
 6535SOL    MW425908   5.701   2.457   6.381 -0.2195 -0.7097  0.5348
 6536SOL     OW25909   5.422   4.205   1.462  0.0020 -0.3479  0.5474
 6536SOL    HW225910   5.376   4.218   1.379 -0.8510  0.3165  1.1119
 6536SOL    HW325911   5.382   4.127   1.500  0.9644 -1.1511 -0.0289
 6536SOL    MW425912   5.411   4.196   1.456 -0.0378 -0.4362 -0.5087
 6537SOL     OW25913   5.468   0.458   4.153  0.0149 -0.1895 -0.0489
 6537SOL    HW225914   5.549   0.507   4.136  1.7407 -2.7546  0.2253
 6537SOL    HW325915   5.439   0.429   4.067  1.2101 -1.9031  0.0871
 6537SOL    MW425916   5.475   0.461   4.140 -0.1497  0.2596  0.1396
 6538SOL     OW25917   0.947   6.201   0.244 -0.3897 -0.8861 -0.0084
 6538SOL    HW225918   1.028   6.160   0.273 -0.9877 -1.0273  1.6049
 6538SOL    HW325919   0.935   6.171   0.154  2.8906  1.5741 -1.4684
 6538SOL    MW425920   0.956   6.192   0.236 -0.1032 -0.4957  0.5621
 6539SOL     OW25921   3.262   1.038   2.403  0.3652  0.1504 -0.7070
 6539SOL    HW225922   3.325   1.026   2.474  0.2739 -1.1190 -0.8120
 6539SOL    HW325923   3.239   1.130   2.407  2.0854  0.6017 -0.5503
 6539SOL    MW425924   3.267   1.048   2.413 -0.0539 -0.6246  0.0723
 6540SOL     OW25925   3.107   5.252   2.733 -0.0223  0.0170 -0.4779
 6540SOL    HW225926   3.170   5.247   2.661  0.4742 -0.1373 -0.0322
 6540SOL    HW325927   3.152   5.213   2.808 -0.1532  1.1051  0.1922
 6540SOL    MW425928   3.121   5.247   2.733  0.0126  0.7735 -0.2015
 6541SOL     OW25929   5.389   0.730   4.026 -0.6998 -0.1975 -0.8358
 6541SOL    HW225930   5.339   0.673   4.084  0.1928  0.0499  0.2142
 6541SOL    HW325931   5.327   0.797   3.998 -1.5355 -1.1858 -1.4120
 6541SOL    MW425932   5.375   0.731   4.030  0.8166  0.1649 -0.2144
 6542SOL     OW25933   3.320   3.620   1.431  0.3549 -0.3401  0.0522
 6542SOL    HW225934   3.258   3.554   1.401  0.8224 -0.2841 -1.0570
 6542SOL    HW325935   3.296   3.635   1.523 -2.3241  0.8545 -0.7551
 6542SOL    MW425936   3.308   3.614   1.439  0.1563 -0.9807  0.4498
 6543SOL     OW25937   0.603   3.137   1.661  0.3601  0.0165  0.0238
 6543SOL    HW225938   0.511   3.117   1.648  0.2297  0.8007 -0.3329
 6543SOL    HW325939   0.604   3.225   1.698  0.9341 -0.3382  0.8869
 6543SOL    MW425940   0.591   3.146   1.664 -0.3956 -0.4473  0.4663
 6544SOL     OW25941   1.621   3.390   0.288  0.1688  0.2811 -0.0433
 6544SOL    HW225942   1.663   3.423   0.367 -0.1875 -0.6751  0.5780
 6544SOL    HW325943   1.569   3.315   0.319  0.3262 -0.3462 -1.2439
 6544SOL    MW425944   1.619   3.384   0.303  0.9471 -0.1625 -0.1637
 6545SOL     OW25945   4.438   4.970   2.703 -0.4014 -0.2039  0.7594
 6545SOL    HW225946   4.525   4.934   2.719 -1.1738 -1.9038  1.3532
 6545SOL    HW325947   4.386   4.895   2.674 -1.6258  0.8222  0.1930
 6545SOL    MW425948   4.443   4.955   2.701 -0.0670  0.9171 -0.5512
 6546SOL     OW25949   1.294   5.966   4.986 -0.3832 -0.1701 -0.5461
 6546SOL    HW225950   1.372   5.960   5.040 -1.5912  1.2256  1.4879
 6546SOL    HW325951   1.322   6.017   4.909  0.6853  0.4483  0.2243
 6546SOL    MW425952   1.308   5.972   4.983 -0.6569  0.4775 -0.2369
 6547SOL     OW25953   3.993   1.104   1.184  0.1606 -0.3015 -0.1369
 6547SOL    HW225954   3.990   1.096   1.088  0.4042  1.7557 -0.3735
 6547SOL    HW325955   4.086   1.116   1.203  0.0556 -0.1981  0.3092
 6547SOL    MW425956   4.005   1.105   1.174  0.1180  0.3771  0.3011
 6548SOL     OW25957   3.294   4.923   1.716  0.3392  0.3859  0.1233
 6548SOL    HW225958   3.337   4.918   1.631  0.9983  0.6844  0.4427
 6548SOL    HW325959   3.201   4.934   1.695  0.5895  1.2434 -0.5510
 6548SOL    MW425960   3.287   4.924   1.702 -0.1065  0.1648 -0.1533
 6549SOL     OW25961   3.222   3.887   4.513  0.2566  0.0085  0.2987
 6549SOL    HW225962   3.257   3.945   4.581 -1.6293  1.0657  0.4255
 6549SOL    HW325963   3.235   3.935   4.432  1.6238 -0.8353 -0.0083
 6549SOL    MW425964   3.228   3.901   4.511 -0.5336 -0.3630 -0.0594
 6550SOL     OW25965   0.674   3.841   3.496  0.3896  0.7092  0.0089
 6550SOL    HW225966   0.718   3.927   3.497 -2.1347  2.1535 -1.9588
 6550SOL    HW325967   0.584   3.860   3.520  0.0719 -1.6922  0.9678
 6550SOL    MW425968   0.668   3.855   3.499 -0.5833  0.1759  0.2712
 6551SOL     OW25969   5.010   0.599   0.704 -0.0747 -0.1691 -0.1465
 6551SOL    HW225970   5.101   0.622   0.723 -0.6183  0.0573  2.4804
 6551SOL    HW325971   4.986   0.537   0.772 -1.6182 -1.0285 -1.4001
 6551SOL    MW425972   5.019   0.594   0.715  0.1086  0.2549 -0.1777
 6552SOL     OW25973   4.256   6.039   0.170 -0.6253 -0.1243 -0.4132
 6552SOL    HW225974   4.260   6.026   0.075 -0.3771  0.7396 -0.5337
 6552SOL    HW325975   4.179   5.990   0.197  0.6758 -2.4314 -0.6785
 6552SOL    MW425976   4.246   6.031   0.161 -0.5020  0.0432 -0.1587
 6553SOL     OW25977   4.460   1.083   3.865 -0.6357 -1.0197  0.5409
 6553SOL    HW225978   4.371   1.089   3.831 -0.6667 -0.8289  0.6514
 6553SOL    HW325979   4.483   1.173   3.889 -0.8797 -1.2406  1.6812
 6553SOL    MW425980   4.451   1.096   3.864 -0.0098  0.0411  0.6794
 6554SOL     OW25981   4.775   6.283   3.347 -0.0465 -0.0202  0.0876
 6554SOL    HW225982   4.699   6.243   3.390  0.6066  0.3900  1.6865
 6554SOL    HW325983   4.764   6.261   3.254 -0.0724 -3.3965  0.7479
 6554SOL    MW425984   4.763   6.275   3.340 -0.3353 -0.7650 -0.2441
 6555SOL     OW25985   2.323   4.068   4.465  0.5403  0.2555 -1.4337
 6555SOL    HW225986   2.353   3.981   4.494 -0.6377  0.4654  0.5643
 6555SOL    HW325987   2.233   4.054   4.437 -0.5188  1.2055  1.2448
 6555SOL    MW425988   2.315   4.054   4.465  0.1955 -0.0050  0.0925
 6556SOL     OW25989   4.888   4.936   3.277 -0.1319  0.1684 -0.7405
 6556SOL    HW225990   4.832   4.894   3.343  0.1749  0.4813 -0.2758
 6556SOL    HW325991   4.922   5.014   3.320  0.3214  0.2134 -1.1673
 6556SOL    MW425992   4.885   4.940   3.291 -0.5490  0.4925 -0.1173
 6557SOL     OW25993   5.170   2.446   1.552 -0.0959  0.1291 -0.2503
 6557SOL    HW225994   5.236   2.466   1.486  1.4228 -0.4162  1.0298
 6557SOL    HW325995   5.220   2.418   1.628 -1.7288  1.6685  1.4988
 6557SOL    MW425996   5.185   2.445   1.553 -0.0843 -0.3622 -0.1588
 6558SOL     OW25997   5.373   0.806   1.285  0.1275 -0.6917 -0.4473
 6558SOL    HW225998   5.331   0.843   1.363  0.1984 -2.2750  0.3829
 6558SOL    HW325999   5.466   0.824   1.297 -0.1016  1.3645 -1.4778
 6558SOL    MW426000   5.380   0.813   1.297 -0.2386 -0.7880 -0.0240
 6559SOL     OW26001   3.416   0.015   0.300 -0.3008 -0.1367  0.4374
 6559SOL    HW226002   3.462  -0.069   0.297  0.3527  0.2270 -0.7509
 6559SOL    HW326003   3.397   0.029   0.392  0.6807 -1.0132  0.7957
 6559SOL    MW426004   3.420   0.006   0.312  0.1421  0.2526 -0.2297
 6560SOL     OW26005   5.334   1.418   2.548 -0.1259 -0.0611 -0.2450
 6560SOL    HW226006   5.419   1.417   2.593  0.0647  2.9234 -0.3399
 6560SOL    HW326007   5.344   1.357   2.475  1.7764 -0.0784 -0.0132
 6560SOL    MW426008   5.346   1.410   2.545  0.4243 -0.3207 -0.4535
 6561SOL     OW26009   4.435   2.510   1.640 -0.4451 -0.0081  0.4839
 6561SOL    HW226010   4.508   2.454   1.665 -2.5630 -3.1766  0.1186
 6561SOL    HW326011   4.442   2.517   1.545  0.5599  1.5709  0.6396
 6561SOL    MW426012   4.445   2.504   1.630  0.1024 -0.0274 -0.1091
 6562SOL     OW26013   5.289   5.944   3.829  0.5248 -0.1097 -0.7125
 6562SOL    HW226014   5.290   5.958   3.924 -0.9918 -1.1608 -0.5112
 6562SOL    HW326015   5.212   5.992   3.799 -0.0564 -1.2854 -1.1371
 6562SOL    MW426016   5.279   5.953   3.838  0.4307 -0.0011 -0.0766
 6563SOL     OW26017   0.252   2.673   0.418 -0.2417  0.0476 -0.6358
 6563SOL    HW226018   0.169   2.704   0.453  0.3815  1.2533 -0.1684
 6563SOL    HW326019   0.282   2.745   0.362 -0.2755 -1.0371 -2.1147
 6563SOL    MW426020   0.245   2.687   0.415 -0.2630  0.0764  0.4911
 6564SOL     OW26021   2.750   5.772   4.579 -0.0042  0.1228 -0.0646
 6564SOL    HW226022   2.738   5.861   4.545  1.0084  0.2983  0.0078
 6564SOL    HW326023   2.669   5.754   4.627 -0.7615  0.5000 -1.1646
 6564SOL    MW426024   2.738   5.782   4.581  0.0739  0.3856 -0.1167
 6565SOL     OW26025   5.880   3.890   1.650  0.3314  0.2995  0.3044
 6565SOL    HW226026   5.951   3.839   1.611  0.8966  0.6780  0.8211
 6565SOL    HW326027   5.910   3.907   1.739 -0.1241  1.0190  0.3188
 6565SOL    MW426028   5.893   3.885   1.657  0.1296  0.3904  1.0410
 6566SOL     OW26029   6.131   1.596   3.973 -0.3344  0.4634 -0.4440
 6566SOL    HW226030   6.218   1.626   4.000 -0.3731  0.6398 -0.5159
 6566SOL    HW326031   6.147   1.537   3.899 -0.4335  2.3410 -2.0223
 6566SOL    MW426032   6.145   1.592   3.967 -1.3540 -0.2298  0.6743
 6567SOL     OW26033   0.216   1.215   1.092 -0.7387  0.0321  0.1969
 6567SOL    HW226034   0.255   1.146   1.037 -0.7992  0.2503 -0.1238
 6567SOL    HW326035   0.189   1.282   1.030 -1.8646 -0.2293  0.3824
 6567SOL    MW426036   0.217   1.215   1.076 -0.0520 -0.0625 -0.1195
 6568SOL     OW26037   2.009   6.305   2.308 -0.5823  0.2722 -0.3750
 6568SOL    HW226038   1.977   6.390   2.338 -0.2987  0.8347 -1.5902
 6568SOL    HW326039   1.953   6.283   2.234 -0.7408 -0.6767  0.0150
 6568SOL    MW426040   1.997   6.314   2.302 -0.0733  0.4285 -0.8155
 6569SOL     OW26041   2.026   3.896   1.444 -0.1220  0.1142  1.1708
 6569SOL    HW226042   2.098   3.896   1.507 -0.8194  0.9039  2.0015
 6569SOL    HW326043   2.019   3.804   1.416 -0.5594 -0.5109  3.1608
 6569SOL    MW426044   2.034   3.884   1.449  0.3153  0.3828 -0.2371
 6570SOL     OW26045   3.387   3.829   5.645 -0.1249  0.9015 -0.1500
 6570SOL    HW226046   3.477   3.833   5.676  0.3723 -0.8126 -1.3122
 6570SOL    HW326047   3.339   3.789   5.718  0.1342  1.2948  0.2452
 6570SOL    MW426048   3.392   3.825   5.659 -0.1593  0.4785 -0.6176
 6571SOL     OW26049   5.582   3.146   0.497 -0.0192  0.2491  0.2453
 6571SOL    HW226050   5.509   3.191   0.454  0.8550  1.4042 -0.0746
 6571SOL    HW326051   5.583   3.059   0.457 -0.3315  0.7066 -0.7933
 6571SOL    MW426052   5.573   3.140   0.486  0.1881 -0.0293 -0.4433
 6572SOL     OW26053   5.977   0.335   1.537 -0.0865 -0.1330  0.5577
 6572SOL    HW226054   5.968   0.240   1.542 -0.2784 -0.1346  0.2230
 6572SOL    HW326055   5.979   0.354   1.443 -1.3043  0.2931  0.5894
 6572SOL    MW426056   5.976   0.325   1.525 -0.0502  0.1596  0.2526
 6573SOL     OW26057   0.793   0.372   1.394 -0.4872  0.5497  0.3906
 6573SOL    HW226058   0.821   0.381   1.486 -2.0178  2.5169  0.7509
 6573SOL    HW326059   0.698   0.384   1.397 -0.4738  1.4867 -1.5320
 6573SOL    MW426060   0.784   0.375   1.407 -0.2137  0.4814  0.4187
 6574SOL     OW26061   1.210   2.160   5.141 -1.0487  0.3788  0.5415
 6574SOL    HW226062   1.142   2.155   5.209  0.2135  2.8604  2.1256
 6574SOL    HW326063   1.167   2.204   5.068 -1.5263  0.7201  1.0136
 6574SOL    MW426064   1.195   2.165   5.140  0.1769  0.1298  0.0701
 6575SOL     OW26065   2.064   1.439   5.170  0.4442 -0.1875 -0.0497
 6575SOL    HW226066   2.068   1.378   5.244  1.8031  1.3735  1.2440
 6575SOL    HW326067   2.023   1.517   5.206 -0.1395  0.1362 -1.3540
 6575SOL    MW426068   2.059   1.441   5.184  0.7442  0.5879  0.7374
 6576SOL     OW26069   3.980   0.672   2.395  0.2850 -0.1687  0.8927
 6576SOL    HW226070   4.011   0.582   2.405 -0.7781 -0.5925  0.4638
 6576SOL    HW326071   3.885   0.666   2.396  0.1119  0.5844 -1.8095
 6576SOL    MW426072   3.972   0.659   2.396  0.3212 -0.1687 -0.3176
 6577SOL     OW26073   2.477   1.236   3.826 -0.2975 -0.2253 -0.4535
 6577SOL    HW226074   2.445   1.223   3.737 -1.2854 -0.6051 -0.0536
 6577SOL    HW326075   2.492   1.330   3.833 -0.8936 -0.0975 -0.8008
 6577SOL    MW426076   2.475   1.246   3.815  0.3262 -0.5366 -0.5745
 6578SOL     OW26077   0.039   0.156   1.284  0.6575 -0.3244  0.2164
 6578SOL    HW226078  -0.042   0.203   1.304  1.0473  0.4010  0.1506
 6578SOL    HW326079   0.103   0.191   1.346  1.4120  0.5803 -1.0234
 6578SOL    MW426080   0.037   0.167   1.295 -0.5864  0.1216  0.4274
 6579SOL     OW26081   3.007   4.465   4.839  1.0998 -0.1124  0.2365
 6579SOL    HW226082   2.932   4.498   4.790  0.0936 -2.1857  0.2326
 6579SOL    HW326083   2.981   4.472   4.931  2.1915  1.9538  0.4488
 6579SOL    MW426084   2.994   4.470   4.845 -0.0601 -0.6059 -0.4554
 6580SOL     OW26085   2.519   1.580   1.016 -0.1323  0.8326 -0.1121
 6580SOL    HW226086   2.436   1.603   0.975 -0.2005  0.1264 -0.3915
 6580SOL    HW326087   2.495   1.551   1.104  0.0081  2.2880  0.4294
 6580SOL    MW426088   2.505   1.579   1.022 -0.7147 -0.2887  0.5016
 6581SOL     OW26089   1.083   4.829   5.778  0.6822  0.2971  0.0651
 6581SOL    HW226090   1.120   4.783   5.703  2.3270  0.8710  0.4911
 6581SOL    HW326091   1.001   4.868   5.745 -0.3827 -2.2327 -0.4943
 6581SOL    MW426092   1.077   4.828   5.764  1.0457 -0.2077 -0.2710
 6582SOL     OW26093   1.725   5.470   4.671  0.4633  0.3556  0.3964
 6582SOL    HW226094   1.698   5.408   4.739  1.8512 -0.2291  0.4389
 6582SOL    HW326095   1.761   5.544   4.719  1.9361 -0.2876  0.3121
 6582SOL    MW426096   1.726   5.471   4.686  0.1182  0.0583  0.1860
 6583SOL     OW26097   2.577   4.567   5.664  0.0781  0.6095  1.0150
 6583SOL    HW226098   2.502   4.520   5.628  1.0438  1.5383 -2.6273
 6583SOL    HW326099   2.550   4.659   5.664  1.2136  0.9995 -0.6769
 6583SOL    MW426100   2.563   4.573   5.659 -0.0635 -0.7289 -0.0861
 6584SOL     OW26101   2.562   0.239   2.212  0.3045 -0.0482 -0.3066
 6584SOL    HW226102   2.541   0.209   2.300  1.4961 -1.4861 -0.4836
 6584SOL    HW326103   2.652   0.209   2.197 -0.1621 -0.5701 -2.3205
 6584SOL    MW426104   2.571   0.231   2.221 -0.0305  0.1807  0.1954
 6585SOL     OW26105   5.125   4.302   2.980  0.1024 -0.3840  0.3061
 6585SOL    HW226106   5.051   4.294   2.920 -0.7160 -0.0321  1.2421
 6585SOL    HW326107   5.181   4.227   2.959 -1.6481 -2.0167  1.0881
 6585SOL    MW426108   5.123   4.291   2.969 -0.3428 -0.0170  0.1948
 6586SOL     OW26109   1.533   5.469   0.430 -0.0229 -0.6608  0.2959
 6586SOL    HW226110   1.595   5.540   0.410 -0.7919 -0.0871 -0.0963
 6586SOL    HW326111   1.572   5.424   0.505 -0.0018  0.7807  1.1791
 6586SOL    MW426112   1.547   5.472   0.437  0.1286 -0.0013  0.2833
 6587SOL     OW26113   0.611   1.676   2.276 -0.4006 -0.0817  0.1087
 6587SOL    HW226114   0.561   1.746   2.318 -0.1230  0.0879  0.1621
 6587SOL    HW326115   0.601   1.600   2.333  0.2839  0.2518  0.6847
 6587SOL    MW426116   0.603   1.675   2.289 -0.0258 -0.6450  0.3993
 6588SOL     OW26117   5.326   4.097   2.959  0.1183  0.4796 -0.0355
 6588SOL    HW226118   5.322   4.010   2.998 -0.5314  0.7851  0.5952
 6588SOL    HW326119   5.298   4.084   2.868  2.1787 -0.3291 -0.6274
 6588SOL    MW426120   5.322   4.084   2.952  0.1358  0.9112 -0.2193
 6589SOL     OW26121   4.860   5.432   0.914 -0.4117  0.0928 -0.4659
 6589SOL    HW226122   4.800   5.465   0.848  0.0884 -0.2918 -1.1192
 6589SOL    HW326123   4.897   5.511   0.954 -1.4125  0.3309  0.0154
 6589SOL    MW426124   4.857   5.447   0.911  0.4176 -0.2185  0.4861
 6590SOL     OW26125   2.587   4.017   0.703  0.0781  0.2832  0.2298
 6590SOL    HW226126   2.517   4.076   0.675 -0.5092 -0.2234  0.6030
 6590SOL    HW326127   2.611   4.047   0.790  0.9296  0.9849 -0.2303
 6590SOL    MW426128   2.581   4.028   0.711 -0.2698  0.1859  0.5030
 6591SOL     OW26129   6.321   4.481   1.771  0.2243  0.1074  0.0007
 6591SOL    HW226130   6.343   4.408   1.829 -0.3023  0.5094  0.7280
 6591SOL    HW326131   6.226   4.492   1.783  0.3089  0.9325 -0.0737
 6591SOL    MW426132   6.311   4.472   1.781 -0.1792  0.2118  0.6136
 6592SOL     OW26133   4.581   2.190   5.451 -0.7316  0.0443 -0.2934
 6592SOL    HW226134   4.633   2.114   5.425 -0.3485 -0.1037  0.8226
 6592SOL    HW326135   4.632   2.265   5.420  0.0247 -0.1110  0.5319
 6592SOL    MW426136   4.595   2.190   5.444  0.0104 -0.5682  0.3977
 6593SOL     OW26137   3.109   4.961   3.478 -0.2084 -0.3794  0.1097
 6593SOL    HW226138   3.176   4.907   3.435  0.5919  0.4761  0.2581
 6593SOL    HW326139   3.051   4.988   3.407  0.1116 -0.3995 -0.1618
 6593SOL    MW426140   3.110   4.957   3.463 -0.2103 -0.3962  0.3029
 6594SOL     OW26141   2.139   3.682   0.324 -0.0404 -0.1720 -0.3085
 6594SOL    HW226142   2.137   3.763   0.274 -0.0109  0.5634  0.8443
 6594SOL    HW326143   2.173   3.617   0.263  0.9091  0.8954 -0.9510
 6594SOL    MW426144   2.143   3.684   0.309 -0.4665  0.5494  0.3619
 6595SOL     OW26145   2.361   1.653   5.080 -0.1000  0.0071  0.5089
 6595SOL    HW226146   2.399   1.739   5.059  1.0317 -0.3841  0.8737
 6595SOL    HW326147   2.340   1.615   4.995  2.7117 -0.7908  0.0631
 6595SOL    MW426148   2.363   1.660   5.066  0.0462  0.6531 -0.5578
 6596SOL     OW26149   6.376   4.144   2.198 -0.5253 -0.4599 -0.4473
 6596SOL    HW226150   6.309   4.076   2.193 -1.3759  0.4327 -1.5251
 6596SOL    HW326151   6.459   4.096   2.189 -0.6666 -1.9910  3.8170
 6596SOL    MW426152   6.378   4.128   2.196  0.1041 -0.2127  0.0445
 6597SOL     OW26153   0.294   0.913   2.691 -0.2129  0.0784 -0.4742
 6597SOL    HW226154   0.218   0.858   2.704  0.3409 -0.7884 -0.7852
 6597SOL    HW326155   0.363   0.853   2.661  0.5976  0.8279 -0.1832
 6597SOL    MW426156   0.293   0.898   2.689  0.0030  0.1336 -0.3505
 6598SOL     OW26157   0.011   5.725   0.273  0.6787 -0.1773 -0.0601
 6598SOL    HW226158   0.065   5.647   0.265  0.4331 -0.3595  0.0472
 6598SOL    HW326159  -0.001   5.756   0.183  0.3075 -0.5847 -0.1519
 6598SOL    MW426160   0.016   5.719   0.260  0.1712 -0.2150 -0.2660
 6599SOL     OW26161   5.931   1.413   2.796 -0.1133  0.3807  0.3097
 6599SOL    HW226162   5.861   1.379   2.851 -0.4780  0.8975  0.1779
 6599SOL    HW326163   5.925   1.508   2.807 -0.5362  0.5266 -1.0338
 6599SOL    MW426164   5.921   1.421   2.805 -0.3817 -0.4199 -0.1045
 6600SOL     OW26165   3.161   4.016   1.048  0.7596 -0.3850 -0.0794
 6600SOL    HW226166   3.171   3.939   1.104 -0.3408  0.1237  0.8480
 6600SOL    HW326167   3.144   3.980   0.961 -0.1017 -1.2027  0.4129
 6600SOL    MW426168   3.160   4.001   1.044  0.2079 -0.3414  0.2065
 6601SOL     OW26169   3.849   2.118   0.816 -0.1606  0.7236  0.3216
 6601SOL    HW226170   3.921   2.169   0.851 -0.2518  0.6811  0.5750
 6601SOL    HW326171   3.846   2.040   0.871 -0.7566  0.9867  0.6756
 6601SOL    MW426172   3.858   2.114   0.828  0.0612  0.3228  0.6096
 6602SOL     OW26173   4.054   3.913   4.645 -0.5711  0.2647 -0.2119
 6602SOL    HW226174   4.140   3.904   4.688 -1.4394 -2.9926  1.1515
 6602SOL    HW326175   4.019   3.995   4.680  2.0532  1.9237 -1.1204
 6602SOL    MW426176   4.061   3.923   4.656 -0.5685  0.1010 -0.5478
 6603SOL     OW26177   2.025   1.376   4.614  0.7812  0.2786 -0.1624
 6603SOL    HW226178   2.113   1.345   4.595  0.4769  0.1548 -1.5168
 6603SOL    HW326179   2.004   1.341   4.700  1.3006 -1.3805 -0.6841
 6603SOL    MW426180   2.033   1.367   4.623  0.3555 -0.3344  0.4826
 6604SOL     OW26181   4.554   3.734   4.963  0.4052 -0.6154 -0.1933
 6604SOL    HW226182   4.557   3.639   4.971 -1.1821 -0.5673  1.7148
 6604SOL    HW326183   4.610   3.766   5.034  0.7533 -0.1185 -0.6844
 6604SOL    MW426184   4.562   3.726   4.973  0.2248 -0.0909 -0.2042
 6605SOL     OW26185   6.245   1.143   5.351 -0.4890  0.4826  0.3287
 6605SOL    HW226186   6.301   1.068   5.332 -0.6664  0.7927 -1.5962
 6605SOL    HW326187   6.305   1.217   5.357 -0.4900  0.4794  0.3806
 6605SOL    MW426188   6.261   1.143   5.349  0.7978  0.0908 -0.2247
 6606SOL     OW26189   4.711   0.215   4.078  0.0041  0.0738 -0.3639
 6606SOL    HW226190   4.631   0.264   4.059 -0.3884 -0.4835 -0.1650
 6606SOL    HW326191   4.736   0.242   4.166 -1.6296 -1.9286  0.7975
 6606SOL    MW426192   4.704   0.225   4.087  0.2092 -0.0387  0.0817
 6607SOL     OW26193   5.814   3.510   0.307  0.0553 -0.0582 -0.1609
 6607SOL    HW226194   5.846   3.423   0.332 -2.4828 -1.0035  0.1024
 6607SOL    HW326195   5.736   3.492   0.254 -1.2088  2.0652  0.8711
 6607SOL    MW426196   5.808   3.496   0.303 -0.4115  0.1294  0.1474
 6608SOL     OW26197   4.560   4.653   4.100  0.1422 -0.0208 -0.5271
 6608SOL    HW226198   4.528   4.735   4.062  1.4785 -0.4204 -2.7606
 6608SOL    HW326199   4.596   4.678   4.185 -0.9299  1.3918 -0.4440
 6608SOL    MW426200   4.560   4.667   4.106  0.3394  0.4730 -0.5721
 6609SOL     OW26201   0.647   1.843   5.272 -0.1201 -0.3778 -0.1618
 6609SOL    HW226202   0.718   1.779   5.274 -1.0231 -1.3901  0.0527
 6609SOL    HW326203   0.579   1.805   5.327  0.7808  2.5459  3.4119
 6609SOL    MW426204   0.648   1.830   5.280  0.3687  0.2212  0.2297
 6610SOL     OW26205   1.451   2.248   2.658  0.0020 -0.0334  0.2823
 6610SOL    HW226206   1.491   2.330   2.628  0.8120 -0.4384  0.2256
 6610SOL    HW326207   1.390   2.275   2.727 -0.8916  0.7654 -0.7895
 6610SOL    MW426208   1.448   2.263   2.663 -0.3089 -1.0423  0.3218
 6611SOL     OW26209   4.440   3.545   4.446 -0.3086 -0.0946  0.0130
 6611SOL    HW226210   4.406   3.462   4.412 -0.5000  0.2758 -0.7194
 6611SOL    HW326211   4.382   3.566   4.519 -1.1178  0.0807 -0.6639
 6611SOL    MW426212   4.428   3.537   4.451  0.2770  0.3004 -0.0188
 6612SOL     OW26213   1.450   0.846   0.648 -0.2839 -0.5111 -0.1761
 6612SOL    HW226214   1.382   0.842   0.715  0.0657 -0.4372  0.1880
 6612SOL    HW326215   1.426   0.779   0.585 -2.0441  1.1149 -1.3406
 6612SOL    MW426216   1.438   0.837   0.649 -0.5225 -0.2868 -0.0306
 6613SOL     OW26217   4.582   5.083   1.580 -0.1897 -0.3934 -0.1448
 6613SOL    HW226218   4.586   5.114   1.490  0.5862 -0.7346 -0.2368
 6613SOL    HW326219   4.647   5.135   1.627  1.0552 -1.7731 -0.2837
 6613SOL    MW426220   4.591   5.094   1.575  0.2278  0.3314  0.3485
 6614SOL     OW26221   3.199   1.229   2.823 -0.2396 -0.1124 -0.2338
 6614SOL    HW226222   3.149   1.244   2.904  1.0710 -0.7460  0.7285
 6614SOL    HW326223   3.152   1.158   2.779 -0.4385 -0.4279  0.4640
 6614SOL    MW426224   3.186   1.221   2.828 -0.2249  0.0196  0.0342
 6615SOL     OW26225   1.795   5.188   3.834  0.3268 -0.1968 -0.2368
 6615SOL    HW226226   1.730   5.181   3.764  1.8852 -1.6835 -1.6496
 6615SOL    HW326227   1.747   5.165   3.914 -0.9830 -0.7844 -1.1619
 6615SOL    MW426228   1.780   5.184   3.836  0.0588 -0.3485 -0.1959
 6616SOL     OW26229   5.815   6.334   5.656 -0.0447 -0.5264  0.5226
 6616SOL    HW226230   5.838   6.426   5.668 -0.4871  0.0446 -2.2438
 6616SOL    HW326231   5.726   6.326   5.689 -1.7513  1.2532 -3.0215
 6616SOL    MW426232   5.806   6.345   5.662 -0.3132  0.7060 -0.3571
 6617SOL     OW26233   3.430   4.273   0.177  0.1640  0.0137  0.3552
 6617SOL    HW226234   3.392   4.355   0.145 -1.9959 -1.1426 -0.2426
 6617SOL    HW326235   3.369   4.206   0.147  1.6290 -1.7807  1.2337
 6617SOL    MW426236   3.417   4.275   0.169  0.6003 -0.0970 -0.2570
 6618SOL     OW26237   3.573   1.755   3.776 -0.2574 -0.6577  0.1308
 6618SOL    HW226238   3.481   1.770   3.756 -0.1226 -1.0405 -0.8342
 6618SOL    HW326239   3.620   1.820   3.723  0.0341 -0.5629  0.5029
 6618SOL    MW426240   3.567   1.766   3.766 -0.3452 -0.0379 -0.6021
 6619SOL     OW26241   2.148   4.736   0.512  0.5552 -0.4013  0.7654
 6619SOL    HW226242   2.209   4.662   0.501  1.3711  0.4473 -0.7405
 6619SOL    HW326243   2.115   4.753   0.424  0.6419  1.2429  1.0252
 6619SOL    MW426244   2.152   4.728   0.499  0.2709 -0.0633  0.1781
 6620SOL     OW26245   1.457   0.425   2.295 -0.1818  0.3103 -0.4602
 6620SOL    HW226246   1.392   0.491   2.320  1.6774  1.8100  0.6368
 6620SOL    HW326247   1.494   0.457   2.213 -0.0200  0.0608 -0.4877
 6620SOL    MW426248   1.453   0.438   2.287  0.2015 -0.2103  0.3950
 6621SOL     OW26249   5.832   0.807   6.038 -0.0569 -0.1654  0.1113
 6621SOL    HW226250   5.808   0.738   5.975  1.6318 -0.0581 -0.6961
 6621SOL    HW326251   5.755   0.815   6.094 -0.7023 -1.9626 -0.4381
 6621SOL    MW426252   5.818   0.799   6.037  0.3642 -0.0338  0.7535
 6622SOL     OW26253   2.524   1.605   3.145 -0.2643  0.0914  0.0365
 6622SOL    HW226254   2.540   1.616   3.239 -0.2205  0.6488 -0.0318
 6622SOL    HW326255   2.583   1.534   3.119 -2.3156 -2.0777  0.9830
 6622SOL    MW426256   2.534   1.597   3.154  0.1328 -0.7842  0.5501
 6623SOL     OW26257   4.484   0.704   0.334 -0.1562  0.2898 -0.2108
 6623SOL    HW226258   4.453   0.622   0.371  0.5535 -0.1460 -0.5530
 6623SOL    HW326259   4.539   0.742   0.403 -1.9666  1.4301  0.6925
 6623SOL    MW426260   4.487   0.698   0.348 -0.3139 -0.1008  0.1306
 6624SOL     OW26261   3.287   5.462   0.140  0.3545  0.0667 -0.1691
 6624SOL    HW226262   3.262   5.554   0.139  0.2182  0.0286 -0.3115
 6624SOL    HW326263   3.373   5.460   0.098  0.2238  0.0912 -0.4387
 6624SOL    MW426264   3.295   5.474   0.134 -0.1862 -0.4324  0.2028
 6625SOL     OW26265   2.702   3.856   4.619 -0.2242 -0.1470  0.0718
 6625SOL    HW226266   2.770   3.910   4.577 -1.0710  1.9763  1.2727
 6625SOL    HW326267   2.740   3.768   4.621  2.8995  1.0748  1.4629
 6625SOL    MW426268   2.716   3.852   4.614  0.0965 -0.2473  0.2678
 6626SOL     OW26269   1.125   5.171   2.278  0.3185 -0.1915  0.0722
 6626SOL    HW226270   1.204   5.149   2.328 -1.2825 -0.7976  2.4781
 6626SOL    HW326271   1.056   5.180   2.344 -1.0273  3.6168 -1.5643
 6626SOL    MW426272   1.126   5.170   2.293  0.1337  0.1398 -0.5134
 6627SOL     OW26273   5.941   0.641   4.378  0.0932 -0.2873  0.1132
 6627SOL    HW226274   6.031   0.674   4.384  0.4968 -1.2954 -0.1588
 6627SOL    HW326275   5.951   0.550   4.350 -1.0811  0.0478 -1.5443
 6627SOL    MW426276   5.954   0.633   4.375 -0.7323 -0.1561  0.7856
 6628SOL     OW26277   0.273   5.091   0.371 -0.3267  0.4573 -0.3986
 6628SOL    HW226278   0.219   5.162   0.335 -1.9153 -0.8422 -0.6771
 6628SOL    HW326279   0.228   5.067   0.452 -1.0623 -1.6453 -1.3756
 6628SOL    MW426280   0.260   5.097   0.377 -0.3539 -0.5781 -0.3443
 6629SOL     OW26281   2.626   4.242   3.149 -0.3677 -0.6800  0.6915
 6629SOL    HW226282   2.582   4.198   3.076 -0.5608  1.2174 -0.3981
 6629SOL    HW326283   2.715   4.206   3.148 -0.0604  0.0028 -1.1509
 6629SOL    MW426284   2.632   4.231   3.139  0.2417 -0.2456 -0.3508
 6630SOL     OW26285   1.940   6.340   4.799  0.2234  0.2979  0.1298
 6630SOL    HW226286   1.948   6.355   4.893 -1.4917  0.3187  0.3201
 6630SOL    HW326287   2.030   6.336   4.767  0.8662  3.3187  1.2570
 6630SOL    MW426288   1.953   6.341   4.808  0.3399  0.1613 -0.6193
 6631SOL     OW26289   4.729   3.514   1.787 -0.4796 -0.2781  0.4557
 6631SOL    HW226290   4.718   3.452   1.715 -3.4015 -1.0662  1.4294
 6631SOL    HW326291   4.745   3.598   1.744  1.5455 -1.3041 -0.9442
 6631SOL    MW426292   4.730   3.517   1.772 -0.2203  0.5133 -0.1736
 6632SOL     OW26293   4.642   2.934   0.422 -0.6005 -0.2079 -0.6272
 6632SOL    HW226294   4.621   2.885   0.343 -1.9257 -0.6565 -0.0195
 6632SOL    HW326295   4.564   2.985   0.441  0.1019  0.7569 -0.2231
 6632SOL    MW426296   4.629   2.934   0.414 -0.3675  0.0757 -0.0515
 6633SOL     OW26297   4.059   3.929   0.209 -0.0885  0.2591  0.0759
 6633SOL    HW226298   4.081   4.022   0.196  1.0452 -0.2009 -1.6472
 6633SOL    HW326299   4.003   3.929   0.287  0.8180  2.2544  0.8189
 6633SOL    MW426300   4.054   3.941   0.218 -0.3934 -0.6024 -0.7425
 6634SOL     OW26301   0.072   6.406   3.688 -0.3089  0.4648  0.5150
 6634SOL    HW226302   0.052   6.443   3.602  0.9839 -1.2331 -0.5851
 6634SOL    HW326303   0.144   6.460   3.721  1.9209 -1.1638 -1.3044
 6634SOL    MW426304   0.079   6.418   3.681  0.0042 -0.0957 -0.5048
 6635SOL     OW26305   5.181   2.226   4.225  0.3917 -0.5716  0.3149
 6635SOL    HW226306   5.252   2.281   4.259  0.4241 -0.6874  0.4383
 6635SOL    HW326307   5.138   2.192   4.304  0.2515 -0.5682  0.2399
 6635SOL    MW426308   5.185   2.229   4.240 -0.0308  0.2191 -0.1678
 6636SOL     OW26309   3.783   1.061   0.531 -0.4058 -0.1771 -0.2964
 6636SOL    HW226310   3.799   0.975   0.569 -1.2223  0.3112  1.2496
 6636SOL    HW326311   3.706   1.050   0.476 -1.4534 -0.1437  1.1086
 6636SOL    MW426312   3.775   1.048   0.529 -0.4362  0.1907  0.1015
 6637SOL     OW26313   5.642   3.616   1.270 -0.2753 -0.2562  0.3440
 6637SOL    HW226314   5.708   3.591   1.206 -0.0964 -0.4562  0.6058
 6637SOL    HW326315   5.667   3.705   1.297 -0.2714 -0.2258  0.2395
 6637SOL    MW426316   5.654   3.625   1.265  0.0743 -0.2944 -0.0805
 6638SOL     OW26317   2.839   1.460   2.571  0.5433 -0.2503 -0.2763
 6638SOL    HW226318   2.914   1.476   2.513  0.9740 -1.2464 -0.0040
 6638SOL    HW326319   2.765   1.499   2.525  1.1337  0.2843 -0.7972
 6638SOL    MW426320   2.839   1.467   2.557 -0.2900 -0.1663  0.7859
 6639SOL     OW26321   6.166   0.926   0.342  0.1836 -0.0296 -0.3108
 6639SOL    HW226322   6.170   0.957   0.251  1.1140  0.8411 -0.0016
 6639SOL    HW326323   6.152   1.006   0.393 -1.3310 -0.6258  0.2682
 6639SOL    MW426324   6.165   0.941   0.336  0.0358  0.3293  0.2888
 6640SOL     OW26325   3.186   2.421   5.271  0.0140  0.3846 -0.4590
 6640SOL    HW226326   3.181   2.379   5.185  0.7677 -1.7502  0.4658
 6640SOL    HW326327   3.110   2.390   5.319  1.6155 -1.6952  0.9211
 6640SOL    MW426328   3.175   2.412   5.266  0.5312  0.2206 -0.2894
 6641SOL     OW26329   4.824   0.868   3.893  0.1373 -0.0582  0.0364
 6641SOL    HW226330   4.876   0.949   3.885  1.2584 -0.5551  1.7681
 6641SOL    HW326331   4.744   0.895   3.937 -0.3268  0.4112 -1.0636
 6641SOL    MW426332   4.821   0.882   3.898  0.0830  0.1521 -0.1228
 6642SOL     OW26333  -0.004   3.732   2.638 -0.3093 -0.2423 -0.4926
 6642SOL    HW226334   0.054   3.776   2.701  0.9424  0.4564 -2.0454
 6642SOL    HW326335  -0.029   3.801   2.576 -0.6668 -1.1016 -1.3380
 6642SOL    MW426336   0.001   3.747   2.638  0.3584 -0.1371 -0.5673
 6643SOL     OW26337   0.301   5.300   4.950  0.1721 -0.2091 -0.1934
 6643SOL    HW226338   0.329   5.391   4.948 -1.4044  0.3698  1.5737
 6643SOL    HW326339   0.237   5.293   4.879 -0.2787  0.2761  0.1584
 6643SOL    MW426340   0.296   5.311   4.940 -0.8493 -0.1571  0.8773
 6644SOL     OW26341   3.260   3.879   0.217 -0.3921  0.2780 -0.3834
 6644SOL    HW226342   3.294   3.834   0.140 -0.3791  1.0813 -0.8604
 6644SOL    HW326343   3.198   3.817   0.256 -0.1110 -0.2836 -0.8228
 6644SOL    MW426344   3.256   3.865   0.212  0.6735  0.4519  0.2798
 6645SOL     OW26345   5.603   6.249   0.696 -0.3382 -0.1036  0.2846
 6645SOL    HW226346   5.520   6.297   0.688  0.0888  0.7169  0.7499
 6645SOL    HW326347   5.582   6.174   0.752 -0.8479 -0.0998  0.1044
 6645SOL    MW426348   5.589   6.246   0.702  0.3291  0.7493  0.0969
 6646SOL     OW26349   1.100   1.138   3.676  0.0813 -0.2190  0.2625
 6646SOL    HW226350   1.188   1.167   3.700  0.1534  0.2628 -0.5472
 6646SOL    HW326351   1.078   1.190   3.599  0.2503 -2.3408 -1.3095
 6646SOL    MW426352   1.109   1.149   3.669 -0.0296  0.4162  0.6394
 6647SOL     OW26353   1.253   1.714   4.025  0.6798 -0.3989 -0.3539
 6647SOL    HW226354   1.282   1.690   4.113 -0.0740  0.0282  0.0190
 6647SOL    HW326355   1.250   1.810   4.027  0.4572 -0.3986 -0.7822
 6647SOL    MW426356   1.256   1.724   4.037 -0.1447  0.5559 -0.2736
 6648SOL     OW26357   3.048   6.057   0.643 -0.1774 -0.3788  0.1416
 6648SOL    HW226358   3.036   5.992   0.712 -1.7240 -0.7579 -0.4374
 6648SOL    HW326359   3.021   6.012   0.563 -0.3080  0.6696 -0.4179
 6648SOL    MW426360   3.043   6.043   0.642  0.5691  0.7993  0.3662
 6649SOL     OW26361   5.340   1.450   3.224 -0.5298 -0.4478 -0.1728
 6649SOL    HW226362   5.406   1.382   3.210 -1.7333 -1.5374 -0.7778
 6649SOL    HW326363   5.259   1.411   3.192 -1.5924  0.6231  1.1284
 6649SOL    MW426364   5.338   1.436   3.218 -0.3486 -0.6633 -0.0078
 6650SOL     OW26365   3.535   0.277   3.663 -0.4471  0.9377 -0.0624
 6650SOL    HW226366   3.490   0.359   3.642 -0.7592  0.9236  0.5540
 6650SOL    HW326367   3.617   0.306   3.705 -0.5120  0.9324  0.0664
 6650SOL    MW426368   3.540   0.292   3.665 -0.5544 -0.6124  0.0898
 6651SOL     OW26369   6.340   5.668   2.993 -0.1184 -0.6439 -0.3844
 6651SOL    HW226370   6.297   5.748   2.962 -1.8285 -1.3191  0.0894
 6651SOL    HW326371   6.433   5.690   2.996 -0.5921  1.5346  0.3043
 6651SOL    MW426372   6.346   5.682   2.989  0.2347 -0.1257 -0.7976
 6652SOL     OW26373   0.996   6.277   0.909 -0.0128  0.1068 -0.5185
 6652SOL    HW226374   0.932   6.339   0.944  0.8211  0.8914 -0.3504
 6652SOL    HW326375   1.077   6.327   0.903 -0.0699  0.0475 -3.5351
 6652SOL    MW426376   0.998   6.292   0.913  0.6185 -0.1743  0.0552
 6653SOL     OW26377   2.044   1.609   6.134 -0.4710  0.6912 -0.2866
 6653SOL    HW226378   2.098   1.687   6.121  1.3782 -0.4507  0.2752
 6653SOL    HW326379   2.104   1.536   6.124 -1.4061 -0.5970  2.4619
 6653SOL    MW426380   2.059   1.610   6.131  0.2900  0.1928 -0.2781
 6654SOL     OW26381   4.367   5.153   3.464 -0.8598 -0.0200 -0.0737
 6654SOL    HW226382   4.363   5.057   3.472  0.3664  0.0418  2.0150
 6654SOL    HW326383   4.332   5.185   3.547  1.9313  1.1886  0.7606
 6654SOL    MW426384   4.362   5.144   3.476  0.5163  0.0957  0.5718
 6655SOL     OW26385   0.269   1.176   3.422 -0.2199 -0.0535  0.1058
 6655SOL    HW226386   0.301   1.161   3.334 -1.0344 -1.0657 -0.0349
 6655SOL    HW326387   0.339   1.145   3.480 -0.8921 -2.2486 -0.1916
 6655SOL    MW426388   0.282   1.170   3.418  0.1238  0.6734  0.1995
 6656SOL     OW26389   1.182   0.034   6.064 -0.5057  0.0968  0.0080
 6656SOL    HW226390   1.199   0.026   5.970 -0.9705 -0.4654 -0.0345
 6656SOL    HW326391   1.161   0.127   6.077  1.4310  0.5818 -0.1184
 6656SOL    MW426392   1.181   0.045   6.053 -0.0978 -0.1844  0.5039
 6657SOL     OW26393   4.767   0.579   4.667 -0.3474  0.5729 -0.7293
 6657SOL    HW226394   4.700   0.512   4.685  0.6863 -0.2557  0.1756
 6657SOL    HW326395   4.849   0.538   4.693  0.1419  2.8943  1.8167
 6657SOL    MW426396   4.769   0.565   4.673  0.6013  0.2211  0.3792
 6658SOL     OW26397   4.627   4.644   1.352  0.1947  0.3885  0.2336
 6658SOL    HW226398   4.659   4.693   1.428 -1.6051  1.9234  0.0920
 6658SOL    HW326399   4.639   4.705   1.278 -0.8745  0.1358 -0.1710
 6658SOL    MW426400   4.633   4.659   1.352  0.0450 -0.1345  0.3750
 6659SOL     OW26401   5.189   3.820   1.492  0.5458 -0.7236 -0.0357
 6659SOL    HW226402   5.247   3.746   1.509 -0.0400 -1.0302  0.7167
 6659SOL    HW326403   5.174   3.819   1.398 -0.5347 -2.4092  0.1073
 6659SOL    MW426404   5.195   3.810   1.482  0.1409  0.1563  0.8383
 6660SOL     OW26405   2.794   4.541   3.436  0.2518 -0.4008  0.1444
 6660SOL    HW226406   2.853   4.554   3.362  0.3563 -1.9487 -0.0902
 6660SOL    HW326407   2.850   4.510   3.507 -0.1346 -0.9746  0.2075
 6660SOL    MW426408   2.809   4.538   3.436  0.3384 -0.3148  0.0140
 6661SOL     OW26409   1.788   3.773   0.310  0.0876  0.7789 -0.5322
 6661SOL    HW226410   1.769   3.749   0.219  0.1233 -1.2235 -0.0620
 6661SOL    HW326411   1.703   3.797   0.346 -0.0074  1.0994 -0.9529
 6661SOL    MW426412   1.774   3.773   0.303 -0.3391  0.3992 -0.2454
 6662SOL     OW26413   2.763   2.260   3.089  0.5319  0.0736  0.4180
 6662SOL    HW226414   2.751   2.268   2.994  3.2308  1.1318  0.0963
 6662SOL    HW326415   2.708   2.329   3.126  0.0029  0.1042 -0.4063
 6662SOL    MW426416   2.754   2.270   3.082  0.4071 -0.7184 -0.3190
 6663SOL     OW26417   1.782   3.254   1.647 -0.2696  0.8724 -0.3516
 6663SOL    HW226418   1.832   3.334   1.629  0.8837  0.3700  0.4528
 6663SOL    HW326419   1.840   3.183   1.620 -0.1745  0.2399  1.3588
 6663SOL    MW426420   1.797   3.255   1.641 -0.0376  0.9798  0.4361
 6664SOL     OW26421   1.933   4.163   1.333 -0.2595 -0.1798  0.1983
 6664SOL    HW226422   1.982   4.245   1.333  0.6517 -0.7096 -0.3585
 6664SOL    HW326423   1.995   4.098   1.365 -0.4848 -0.9177 -0.8149
 6664SOL    MW426424   1.947   4.165   1.338  0.2524  0.4346 -0.0368
 6665SOL     OW26425   4.274   2.144   5.823  0.3238 -0.4167 -0.7061
 6665SOL    HW226426   4.348   2.164   5.766 -0.4955  0.1750 -1.5847
 6665SOL    HW326427   4.208   2.107   5.765  0.1861 -1.6528  0.1942
 6665SOL    MW426428   4.275   2.142   5.808 -0.4687 -0.4891 -0.3077
 6666SOL     OW26429   5.229   4.438   3.863 -0.0155  0.5425 -0.3006
 6666SOL    HW226430   5.284   4.367   3.897 -0.4274 -0.3830 -1.4925
 6666SOL    HW326431   5.253   4.444   3.771 -0.9131  1.0866 -0.5030
 6666SOL    MW426432   5.240   4.429   3.855  0.6728  0.0587 -0.3516
 6667SOL     OW26433   5.779   3.605   1.757 -0.5218 -0.1897 -0.4045
 6667SOL    HW226434   5.826   3.530   1.795 -2.3223 -0.3220  1.7007
 6667SOL    HW326435   5.831   3.681   1.783 -0.5594 -0.4602  0.5073
 6667SOL    MW426436   5.792   3.605   1.765 -0.2899  0.3584 -0.1966
 6668SOL     OW26437   5.530   2.503   2.894  0.2914 -0.7530 -0.0030
 6668SOL    HW226438   5.446   2.472   2.860  0.6728 -1.3789 -0.4074
 6668SOL    HW326439   5.585   2.424   2.898  0.9192 -0.3206  0.0647
 6668SOL    MW426440   5.526   2.488   2.890 -0.2630  0.3832  0.4061
 6669SOL     OW26441   0.670   4.910   0.893  0.1405 -0.1341  0.1445
 6669SOL    HW226442   0.754   4.864   0.888 -1.4192 -3.0400 -1.8333
 6669SOL    HW326443   0.638   4.890   0.981  1.6211  1.4100  1.1088
 6669SOL    MW426444   0.677   4.901   0.904  0.0840  0.5106 -0.2766
 6670SOL     OW26445   4.581   0.145   0.340  0.2755  0.0365 -0.4796
 6670SOL    HW226446   4.543   0.201   0.272  0.9562  0.2488 -0.6883
 6670SOL    HW326447   4.600   0.204   0.412 -0.8521 -0.2568  0.0850
 6670SOL    MW426448   4.578   0.160   0.340  0.1114  0.1851  0.4994
 6671SOL     OW26449   5.637   0.041   3.635  0.0733  0.0032  0.2981
 6671SOL    HW226450   5.580  -0.035   3.647  0.8437 -0.6100  0.1601
 6671SOL    HW326451   5.678   0.054   3.720  0.5148 -0.2096  0.1191
 6671SOL    MW426452   5.635   0.033   3.648 -0.0657  0.9776 -0.0392
 6672SOL     OW26453   0.319   3.847   5.263 -0.6091  0.1210 -0.2685
 6672SOL    HW226454   0.337   3.921   5.321  3.1374 -1.9614  1.6312
 6672SOL    HW326455   0.281   3.781   5.320  2.7835 -1.8313 -0.0241
 6672SOL    MW426456   0.317   3.848   5.278 -0.3302  0.5668  0.7625
 6673SOL     OW26457   6.379   2.015   5.785 -0.1714  0.7922  0.2980
 6673SOL    HW226458   6.428   1.953   5.839  0.0702  1.3890  0.7757
 6673SOL    HW326459   6.426   2.017   5.702 -0.5610 -0.1504  0.0398
 6673SOL    MW426460   6.392   2.007   5.781  0.2787 -0.1335  0.1040
 6674SOL     OW26461   1.681   2.425   4.859  0.4385 -0.0916 -0.4241
 6674SOL    HW226462   1.645   2.502   4.816  1.5096 -0.3674 -1.8657
 6674SOL    HW326463   1.631   2.351   4.822  2.2097 -0.4516 -2.2517
 6674SOL    MW426464   1.669   2.425   4.849 -0.3679  0.2900 -0.0564
 6675SOL     OW26465   1.153   2.806   1.894  0.6690  0.5431  0.0825
 6675SOL    HW226466   1.217   2.874   1.876  1.0888 -0.2492 -1.6058
 6675SOL    HW326467   1.186   2.729   1.849 -0.6661 -0.3188  0.5057
 6675SOL    MW426468   1.166   2.805   1.886 -0.4855 -0.2886  0.6644
 6676SOL     OW26469   2.411   1.346   2.595  0.3900 -0.1548  0.1972
 6676SOL    HW226470   2.424   1.287   2.521  1.8019  1.0299 -0.5599
 6676SOL    HW326471   2.470   1.313   2.663  1.6551  0.7051 -0.4505
 6676SOL    MW426472   2.421   1.334   2.594  0.0478  0.1430 -0.3910
 6677SOL     OW26473   4.223   4.416   4.048  0.4147  0.0459 -0.3440
 6677SOL    HW226474   4.141   4.404   4.095 -1.1812  0.5301 -2.8181
 6677SOL    HW326475   4.272   4.335   4.065 -1.1038 -0.8019  0.1578
 6677SOL    MW426476   4.219   4.404   4.057 -0.0841  0.1481  0.0072
 6678SOL     OW26477   5.124   5.715   3.856  0.3543 -0.0766 -0.1693
 6678SOL    HW226478   5.187   5.773   3.813  0.0914 -0.7950 -1.5973
 6678SOL    HW326479   5.043   5.726   3.805  0.6152 -2.5214 -1.2280
 6678SOL    MW426480   5.121   5.724   3.844  0.4044 -0.0816  0.0192
 6679SOL     OW26481   2.408   5.283   4.810 -0.0004  0.5050  0.2411
 6679SOL    HW226482   2.450   5.202   4.837  1.1346  0.9029 -0.2984
 6679SOL    HW326483   2.370   5.319   4.890  0.3791 -0.0390  0.6676
 6679SOL    MW426484   2.408   5.277   4.824 -0.1939  0.2984  0.0296
 6680SOL     OW26485   0.511   4.025   4.616 -0.0238  0.6071 -0.3277
 6680SOL    HW226486   0.491   4.109   4.575 -1.0433 -0.1340 -1.4157
 6680SOL    HW326487   0.448   4.017   4.687 -0.8450  0.1845 -1.0780
 6680SOL    MW426488   0.500   4.035   4.620 -0.4129  0.0222 -0.0354
 6681SOL     OW26489   0.579   1.093   6.136 -0.1622 -0.1569  0.1195
 6681SOL    HW226490   0.568   1.157   6.066 -0.6629 -1.0879 -0.6727
 6681SOL    HW326491   0.647   1.033   6.103 -1.4908 -1.5018 -0.2692
 6681SOL    MW426492   0.587   1.093   6.122  0.2145 -0.0752 -0.1113
 6682SOL     OW26493   1.459   6.331   4.064 -0.2887 -0.0964  0.4578
 6682SOL    HW226494   1.397   6.286   4.123  0.1235 -1.0098  0.2168
 6682SOL    HW326495   1.421   6.320   3.977 -0.4160  0.4337  0.4421
 6682SOL    MW426496   1.446   6.323   4.060  0.0955  0.8913 -0.0052
 6683SOL     OW26497   5.688   1.820   5.628  0.6625  0.9362  0.2363
 6683SOL    HW226498   5.746   1.888   5.663 -0.6702  1.3623  1.7270
 6683SOL    HW326499   5.606   1.832   5.675 -0.0651 -0.8215 -0.5011
 6683SOL    MW426500   5.685   1.831   5.639  0.4944 -0.5561 -0.4239
 6684SOL     OW26501   2.783   2.524   1.382 -0.3438 -0.4202  0.4961
 6684SOL    HW226502   2.810   2.572   1.303 -1.1936 -0.2661  0.2892
 6684SOL    HW326503   2.854   2.461   1.397 -0.8790 -1.5191 -1.3061
 6684SOL    MW426504   2.796   2.522   1.373  0.6156 -0.2462  0.3084
 6685SOL     OW26505   5.575   3.823   3.817 -0.0107 -0.2612  0.0982
 6685SOL    HW226506   5.482   3.844   3.828  0.0303 -0.3920  0.7486
 6685SOL    HW326507   5.620   3.907   3.824 -0.0566 -0.2331  0.0581
 6685SOL    MW426508   5.569   3.837   3.819 -0.1160 -0.5612 -0.0443
 6686SOL     OW26509   5.413   2.540   3.141 -0.0214  0.2811  0.0098
 6686SOL    HW226510   5.405   2.452   3.177 -2.5246  0.2929 -0.3256
 6686SOL    HW326511   5.449   2.527   3.054  1.6391 -0.1652  0.7167
 6686SOL    MW426512   5.417   2.527   3.135 -0.2944  0.0857 -0.2977
 6687SOL     OW26513   2.365   2.858   4.854  0.3351 -0.3316  0.4841
 6687SOL    HW226514   2.289   2.800   4.856 -1.0713  1.4259  2.3398
 6687SOL    HW326515   2.360   2.901   4.769  0.0680 -1.1940  0.0436
 6687SOL    MW426516   2.354   2.856   4.843  0.2467 -0.1894 -0.1731
 6688SOL     OW26517   4.503   3.216   1.633 -0.0853  0.0729  0.2719
 6688SOL    HW226518   4.537   3.136   1.592  1.7099  1.3805 -0.9280
 6688SOL    HW326519   4.543   3.217   1.720  0.3092 -0.0867  0.0979
 6688SOL    MW426520   4.513   3.205   1.639 -1.1896 -0.0870  0.0202
 6689SOL     OW26521   4.636   2.975   1.594  0.8960  0.2877  0.2047
 6689SOL    HW226522   4.560   2.962   1.536 -0.7492  0.1930  2.2881
 6689SOL    HW326523   4.637   2.899   1.651  2.6967  0.2156  0.1387
 6689SOL    MW426524   4.626   2.963   1.594 -0.4029  0.5854  0.4197
 6690SOL     OW26525   2.484   5.974   2.822  0.0984 -0.0589 -0.1702
 6690SOL    HW226526   2.549   5.981   2.892 -0.0914  3.2967 -0.1695
 6690SOL    HW326527   2.526   6.014   2.746 -0.9312 -0.5269 -1.0137
 6690SOL    MW426528   2.498   5.980   2.822  0.0163 -0.3236 -0.3213
 6691SOL     OW26529   0.449   3.186   6.165  0.0214  0.0707  0.0037
 6691SOL    HW226530   0.464   3.096   6.137 -1.4979 -0.1741 -0.1053
 6691SOL    HW326531   0.407   3.228   6.090 -0.8383  0.3877  0.6499
 6691SOL    MW426532   0.446   3.180   6.151 -0.3975  0.2734  0.4298
 6692SOL     OW26533   4.731   5.770   4.336  1.0091 -0.3672 -0.0350
 6692SOL    HW226534   4.783   5.692   4.357  0.1512 -0.9502 -0.0306
 6692SOL    HW326535   4.645   5.752   4.374 -0.2908 -0.9821 -2.9783
 6692SOL    MW426536   4.727   5.757   4.344 -0.1252 -0.1942  0.1804
 6693SOL     OW26537   5.564   0.598   3.345  0.0731 -0.8175 -0.4574
 6693SOL    HW226538   5.637   0.646   3.382 -1.1837  1.2739 -0.5055
 6693SOL    HW326539   5.604   0.531   3.289  1.9110 -0.3614  0.2574
 6693SOL    MW426540   5.579   0.596   3.343  0.0455  0.0683  0.5285
 6694SOL     OW26541   6.178   5.643   5.805  0.1907 -0.7709 -0.0332
 6694SOL    HW226542   6.170   5.706   5.733 -2.1804 -0.5948  0.3097
 6694SOL    HW326543   6.203   5.561   5.762  0.4428 -0.2785 -0.8472
 6694SOL    MW426544   6.180   5.640   5.790  0.3369  0.2791 -0.6301
 6695SOL     OW26545   3.248   6.009   5.078 -0.0008 -0.2936 -0.0510
 6695SOL    HW226546   3.248   5.938   5.014  2.4673 -1.1659  0.7903
 6695SOL    HW326547   3.341   6.030   5.089 -0.6092  2.5510  0.3315
 6695SOL    MW426548   3.261   6.002   5.071 -0.5963 -0.5267 -0.4045
 6696SOL     OW26549   5.975   2.581   3.331 -0.2573  0.1682 -0.4865
 6696SOL    HW226550   6.056   2.585   3.280 -0.8059 -0.6965 -1.4721
 6696SOL    HW326551   5.997   2.523   3.404  0.3468  0.8792 -0.0920
 6696SOL    MW426552   5.989   2.574   3.334 -0.0624  0.0122  0.2101
 6697SOL     OW26553   6.257   6.202   3.800  0.3831  0.4021 -0.5729
 6697SOL    HW226554   6.176   6.251   3.791  1.5050  2.5434  0.3438
 6697SOL    HW326555   6.266   6.156   3.716 -0.6617  1.8856 -1.5552
 6697SOL    MW426556   6.247   6.202   3.788  0.3597  0.2751 -0.0099
 6698SOL     OW26557   0.789   4.718   0.469  0.7313  0.0081 -0.2527
 6698SOL    HW226558   0.766   4.721   0.376 -0.3816 -0.0358  0.0113
 6698SOL    HW326559   0.725   4.775   0.511  0.5440 -0.8225  0.6224
 6698SOL    MW426560   0.778   4.726   0.462  0.2523 -0.2848 -0.6682
 6699SOL     OW26561   0.309   3.788   3.278 -0.1972  0.3136 -0.0470
 6699SOL    HW226562   0.394   3.744   3.282 -0.9814 -1.1842  1.0088
 6699SOL    HW326563   0.304   3.839   3.358 -0.1887  0.6127 -0.2362
 6699SOL    MW426564   0.320   3.789   3.289 -0.4367 -0.2208 -0.2215
 6700SOL     OW26565   2.114   1.589   1.448  0.3591  0.0971  0.6506
 6700SOL    HW226566   2.160   1.583   1.531  1.5222  0.9718  0.1000
 6700SOL    HW326567   2.094   1.498   1.425  2.1290 -0.3567  0.7561
 6700SOL    MW426568   2.117   1.576   1.456 -0.0934  0.0955  0.2092
 6701SOL     OW26569   2.820   0.816   2.375  0.2946  0.3346  0.2393
 6701SOL    HW226570   2.901   0.800   2.425  0.0297 -0.7823  0.3471
 6701SOL    HW326571   2.846   0.803   2.284 -0.2669 -2.6848  0.3986
 6701SOL    MW426572   2.834   0.812   2.370  0.4021 -0.3279 -0.0308
 6702SOL     OW26573   2.006   4.321   2.625  0.0699 -1.0818 -0.0601
 6702SOL    HW226574   2.005   4.373   2.545 -0.9108  2.8055  2.2093
 6702SOL    HW326575   1.952   4.371   2.687 -1.0894 -4.9656  2.4383
 6702SOL    MW426576   1.999   4.334   2.623 -0.4519 -1.2192 -0.0940
 6703SOL     OW26577   6.118   6.280   0.098 -0.0396 -0.2240 -0.1970
 6703SOL    HW226578   6.071   6.295   0.180 -0.8428 -0.1491 -0.6640
 6703SOL    HW326579   6.146   6.367   0.070 -3.4230  0.4029 -2.1434
 6703SOL    MW426580   6.115   6.293   0.105  0.0919  0.2733 -0.2280
 6704SOL     OW26581   2.474   5.540   5.229  1.0039  0.1131 -0.0476
 6704SOL    HW226582   2.421   5.525   5.307  0.2147  0.5705 -0.4833
 6704SOL    HW326583   2.423   5.501   5.158  2.1279 -1.1102 -0.2354
 6704SOL    MW426584   2.460   5.533   5.230 -0.1137 -0.4112 -0.0494
 6705SOL     OW26585   0.811   6.129   3.831 -0.1190 -0.1257  0.1588
 6705SOL    HW226586   0.818   6.188   3.755 -0.5392  2.5374  2.0179
 6705SOL    HW326587   0.901   6.119   3.862  0.1732 -2.0230 -1.1949
 6705SOL    MW426588   0.824   6.136   3.825 -1.1007  0.3305 -0.1996
 6706SOL     OW26589   4.258   4.770   3.716  0.5205  0.1768 -0.4103
 6706SOL    HW226590   4.212   4.843   3.675 -0.7204 -0.4542 -0.1789
 6706SOL    HW326591   4.326   4.746   3.653  0.1970  0.7866 -0.9963
 6706SOL    MW426592   4.261   4.776   3.702  0.4734 -0.0296  0.3578
 6707SOL     OW26593   6.312   2.636   0.778 -0.2615 -0.6349  0.0399
 6707SOL    HW226594   6.257   2.695   0.828  2.1326  0.6773  1.2745
 6707SOL    HW326595   6.382   2.610   0.838  1.3286 -1.0198 -1.8420
 6707SOL    MW426596   6.314   2.640   0.792  0.0302  0.2178  0.0921
 6708SOL     OW26597   0.576   3.501   0.889 -0.7288  0.1961  0.5018
 6708SOL    HW226598   0.496   3.448   0.879 -1.4502  0.8732  2.2653
 6708SOL    HW326599   0.582   3.550   0.807 -1.5206 -0.6603 -0.0906
 6708SOL    MW426600   0.566   3.501   0.877 -0.3430  0.1749  0.2304
 6709SOL     OW26601   1.190   6.253   5.245  0.0098 -0.0922 -0.0019
 6709SOL    HW226602   1.250   6.229   5.315 -1.2991 -1.7578  0.6217
 6709SOL    HW326603   1.147   6.332   5.276  0.7223  0.1955  0.2596
 6709SOL    MW426604   1.192   6.260   5.258  0.6217 -0.5300 -0.2004
 6710SOL     OW26605   2.114   0.583   6.128 -0.3722  0.1062  0.6046
 6710SOL    HW226606   2.089   0.609   6.217  1.2191  1.8512  0.5919
 6710SOL    HW326607   2.207   0.561   6.135 -1.3839 -5.8843  0.6060
 6710SOL    MW426608   2.123   0.583   6.141 -0.4880  0.4211  0.0381
 6711SOL     OW26609   0.767   5.350   6.107  0.3258 -0.3404 -0.3746
 6711SOL    HW226610   0.736   5.436   6.135 -0.1985 -0.6351 -0.0309
 6711SOL    HW326611   0.807   5.312   6.185  1.4687 -0.0142 -0.7821
 6711SOL    MW426612   0.769   5.356   6.121  0.1674 -0.2783 -0.3367
 6712SOL     OW26613   2.706   2.110   1.316 -0.0249 -0.1790 -0.1129
 6712SOL    HW226614   2.730   2.017   1.312 -0.6328 -0.3076 -1.7876
 6712SOL    HW326615   2.628   2.113   1.370 -0.5849 -0.8061 -0.8606
 6712SOL    MW426616   2.699   2.098   1.323  0.5023  0.2309 -0.1125
 6713SOL     OW26617   3.036   0.971   3.869  0.3214  0.4965 -0.1552
 6713SOL    HW226618   2.960   1.023   3.895  0.1167 -0.0537  0.3857
 6713SOL    HW326619   3.010   0.881   3.888  1.2643  0.3420  0.4478
 6713SOL    MW426620   3.023   0.966   3.875 -0.7364  0.0500  0.5014
 6714SOL     OW26621   6.067   4.503   4.733  0.7970 -0.2114  0.2344
 6714SOL    HW226622   6.010   4.428   4.715 -2.6904  2.7502 -2.8345
 6714SOL    HW326623   6.125   4.508   4.657 -0.3785  1.2326 -0.6119
 6714SOL    MW426624   6.067   4.493   4.720 -0.1291 -0.1235  0.4642
 6715SOL     OW26625   6.037   6.236   1.285 -0.3209  0.6915  0.1366
 6715SOL    HW226626   6.108   6.274   1.338 -0.9857  0.8985  0.9120
 6715SOL    HW326627   5.995   6.173   1.344 -0.8333  0.6417 -0.2777
 6715SOL    MW426628   6.041   6.233   1.300 -0.1090  0.5181 -0.4464
 6716SOL     OW26629   3.348   6.141   5.920  0.3576  0.5011 -0.6139
 6716SOL    HW226630   3.356   6.220   5.972  1.0797  1.3578 -1.9526
 6716SOL    HW326631   3.428   6.139   5.866  0.1838 -0.9356 -0.8772
 6716SOL    MW426632   3.360   6.151   5.919  0.1124  0.6230 -0.3480
 6717SOL     OW26633   6.311   6.167   2.506 -0.7822  0.0042  0.2650
 6717SOL    HW226634   6.265   6.231   2.452 -0.1639 -0.0318 -0.3138
 6717SOL    HW326635   6.381   6.218   2.547  0.1199 -0.4229 -0.7104
 6717SOL    MW426636   6.314   6.182   2.505  0.0991 -0.3186  0.0495
 6718SOL     OW26637   2.095   2.717   5.163 -0.1380  0.3802  0.5759
 6718SOL    HW226638   2.133   2.670   5.089  0.5537 -0.8855  1.6913
 6718SOL    HW326639   2.031   2.776   5.123  0.1550 -0.3106 -1.0112
 6718SOL    MW426640   2.092   2.719   5.148  0.2482  0.2308 -0.0167
 6719SOL     OW26641   0.595   2.244   2.130 -0.0998 -0.9572  0.3524
 6719SOL    HW226642   0.600   2.330   2.173  0.0655 -1.1831  0.7913
 6719SOL    HW326643   0.619   2.182   2.198 -0.8045 -1.4085  0.1955
 6719SOL    MW426644   0.599   2.247   2.144 -0.0328 -0.1816  0.7016
 6720SOL     OW26645   1.428   1.427   4.236  0.1792  0.1370  0.3427
 6720SOL    HW226646   1.376   1.390   4.165  1.3559 -1.4639  0.2482
 6720SOL    HW326647   1.513   1.448   4.196  1.0444 -1.2908  1.3298
 6720SOL    MW426648   1.432   1.425   4.222  0.4506 -0.1748  0.0884
 6721SOL     OW26649   4.623   2.518   5.125  0.3773  0.4746 -0.5418
 6721SOL    HW226650   4.667   2.583   5.179  2.3441 -2.1582  1.3093
 6721SOL    HW326651   4.688   2.449   5.112 -1.4548 -1.0263 -2.6523
 6721SOL    MW426652   4.637   2.517   5.130 -0.1498  0.3384 -0.6593
 6722SOL     OW26653   2.630   0.477   3.299 -0.0049  0.2136 -0.2069
 6722SOL    HW226654   2.564   0.461   3.232 -0.7190  2.5753 -0.1757
 6722SOL    HW326655   2.584   0.528   3.366  1.5374  0.9161  0.3662
 6722SOL    MW426656   2.615   0.482   3.299  0.3144  0.0719 -0.3374
 6723SOL     OW26657   5.256   3.157   0.056  0.2070 -0.6133 -0.4385
 6723SOL    HW226658   5.212   3.231   0.015  0.3724  0.0889  0.6292
 6723SOL    HW326659   5.186   3.113   0.106  0.6754  0.5510  1.3285
 6723SOL    MW426660   5.241   3.161   0.058  0.0795  0.6346  0.1023
 6724SOL     OW26661   1.673   2.587   1.546  0.3705 -0.2054 -0.6364
 6724SOL    HW226662   1.759   2.627   1.540 -0.3129  1.5073  0.2762
 6724SOL    HW326663   1.612   2.660   1.537 -1.0658 -1.5516 -2.7445
 6724SOL    MW426664   1.676   2.602   1.544 -0.1433 -0.1355 -0.7747
 6725SOL     OW26665   5.830   4.577   1.409  0.3120 -0.4627 -0.0768
 6725SOL    HW226666   5.747   4.537   1.386  0.5825  0.2942 -2.6773
 6725SOL    HW326667   5.881   4.576   1.328  1.6070  1.9686  0.5866
 6725SOL    MW426668   5.826   4.572   1.396  0.0462  0.4073 -0.3080
 6726SOL     OW26669   2.831   1.524   4.825  0.1325  0.5329 -0.2289
 6726SOL    HW226670   2.768   1.455   4.847  2.0808 -2.0266 -2.0024
 6726SOL    HW326671   2.819   1.590   4.893 -1.8700 -1.5492  1.6308
 6726SOL    MW426672   2.821   1.523   4.837  0.1931 -0.2737  0.0650
 6727SOL     OW26673   1.603   2.570   5.479 -0.1488  0.1997  0.3793
 6727SOL    HW226674   1.642   2.634   5.538 -0.4995 -1.1114  2.0943
 6727SOL    HW326675   1.512   2.598   5.469 -0.2731  0.0525  1.0419
 6727SOL    MW426676   1.596   2.582   5.485  0.1855  0.0847 -0.0127
 6728SOL     OW26677   4.211   4.178   0.518  0.3543  0.5295 -0.2784
 6728SOL    HW226678   4.145   4.113   0.543  0.6075 -0.0440 -1.0488
 6728SOL    HW326679   4.190   4.256   0.570  0.4728 -0.3879  1.1663
 6728SOL    MW426680   4.199   4.180   0.528  0.1370 -0.4433 -0.4992
 6729SOL     OW26681   2.135   2.000   3.672 -0.2122 -0.5400 -0.3137
 6729SOL    HW226682   2.117   2.031   3.583 -0.8341 -0.6086 -0.2199
 6729SOL    HW326683   2.049   2.000   3.715  0.2238  0.4398  0.6008
 6729SOL    MW426684   2.121   2.004   3.666  0.4329  0.0617  0.1882
 6730SOL     OW26685   5.169   3.051   1.951 -0.0389 -0.2944 -0.0797
 6730SOL    HW226686   5.204   3.053   2.040  2.0054  0.0878 -0.8429
 6730SOL    HW326687   5.246   3.044   1.894 -1.1598  1.1844 -1.9120
 6730SOL    MW426688   5.184   3.050   1.955 -0.8064  0.0042 -0.2704
 6731SOL     OW26689   0.381   4.794   4.863  0.4146 -0.4883  0.2476
 6731SOL    HW226690   0.370   4.877   4.817 -1.5969 -0.1680  1.2016
 6731SOL    HW326691   0.428   4.738   4.802  0.8017  0.9930 -0.8465
 6731SOL    MW426692   0.386   4.798   4.849  0.1172  0.0588 -0.6862
 6732SOL     OW26693   2.101   4.685   6.124 -0.3136  0.5003  0.3146
 6732SOL    HW226694   2.151   4.623   6.177 -0.2786  0.5538  0.3439
 6732SOL    HW326695   2.046   4.732   6.187  1.6092  2.4217  0.6867
 6732SOL    MW426696   2.100   4.683   6.139  0.1079 -0.1942 -0.3130
 6733SOL     OW26697   3.252   5.637   6.053  0.5614 -0.3301 -0.7959
 6733SOL    HW226698   3.291   5.646   5.966  0.6728 -1.1650 -0.8332
 6733SOL    HW326699   3.236   5.728   6.080  1.0857 -0.0334 -1.4285
 6733SOL    MW426700   3.255   5.650   6.045 -0.3367 -0.7035 -0.2220
 6734SOL     OW26701   4.685   4.285   5.202  0.4126  0.0075  0.2574
 6734SOL    HW226702   4.623   4.251   5.138  0.6474 -0.6082  0.3541
 6734SOL    HW326703   4.769   4.244   5.179  0.7041  0.5424  0.3556
 6734SOL    MW426704   4.688   4.275   5.191  0.5418  0.3706 -0.1675
 6735SOL     OW26705   2.350   4.900   3.082 -0.6911  0.5700  0.5387
 6735SOL    HW226706   2.431   4.913   3.132 -0.4807  0.7980  0.1401
 6735SOL    HW326707   2.305   4.984   3.086  0.9816  1.7813 -2.5983
 6735SOL    MW426708   2.355   4.913   3.089  0.4164  0.7067 -0.1237
 6736SOL     OW26709   1.343   1.476   3.628  0.4611 -0.2100 -0.1561
 6736SOL    HW226710   1.364   1.393   3.671  1.4286 -1.0543 -2.1067
 6736SOL    HW326711   1.400   1.540   3.671 -0.1342 -0.5718  1.2238
 6736SOL    MW426712   1.353   1.473   3.639 -0.1800  0.1883  0.1747
 6737SOL     OW26713   4.103   3.949   1.630 -0.1072  0.3169 -0.4238
 6737SOL    HW226714   4.036   3.883   1.647  1.2031 -1.0226 -0.2391
 6737SOL    HW326715   4.072   3.996   1.553 -1.1160 -0.4747 -0.5173
 6737SOL    MW426716   4.090   3.946   1.622 -0.1239  0.4135 -0.6451
 6738SOL     OW26717   0.735   3.959   4.962 -0.4988 -0.7707 -0.4541
 6738SOL    HW226718   0.672   3.894   4.930 -0.3659 -0.5923 -1.0939
 6738SOL    HW326719   0.759   4.010   4.884  1.9671 -2.1002 -0.6506
 6738SOL    MW426720   0.730   3.957   4.948  0.6321 -0.4311 -0.4703
 6739SOL     OW26721   5.352   1.777   5.600  0.4290 -0.3669 -0.0039
 6739SOL    HW226722   5.279   1.837   5.620 -0.6815 -0.5126 -3.1072
 6739SOL    HW326723   5.374   1.738   5.685 -2.5852  0.2499  1.1997
 6739SOL    MW426724   5.345   1.780   5.614 -0.2063 -0.4984  0.1773
 6740SOL     OW26725   0.999   2.179   5.755 -0.0309 -0.3153  0.5632
 6740SOL    HW226726   0.956   2.212   5.834 -0.3033  3.2258 -0.8681
 6740SOL    HW326727   1.092   2.197   5.769 -0.3323  3.2257 -0.9286
 6740SOL    MW426728   1.005   2.186   5.768  0.1403  0.7459  0.6505
 6741SOL     OW26729   0.425   0.893   5.816 -0.2237 -0.0802 -0.8463
 6741SOL    HW226730   0.449   0.877   5.724 -0.7633 -0.3790 -0.9413
 6741SOL    HW326731   0.509   0.895   5.862  0.0312 -0.3514 -1.2835
 6741SOL    MW426732   0.439   0.891   5.810 -0.6201  0.2813 -0.0282
 6742SOL     OW26733   0.829   1.731   3.821 -0.3926 -0.1603 -0.6421
 6742SOL    HW226734   0.915   1.721   3.781 -0.0155 -1.4108  0.4053
 6742SOL    HW326735   0.793   1.642   3.823 -1.3769  0.2305 -0.3516
 6742SOL    MW426736   0.836   1.718   3.816  0.0723  0.0663  0.7932
 6743SOL     OW26737   3.843   1.696   2.408  0.2700  0.8666  0.3525
 6743SOL    HW226738   3.895   1.752   2.350 -0.1706  0.7379 -0.1736
 6743SOL    HW326739   3.765   1.675   2.357 -0.1274  0.7570  0.9987
 6743SOL    MW426740   3.840   1.701   2.394  0.3021  0.1964  0.0434
 6744SOL     OW26741   4.130   6.200   4.411  0.1523 -0.5772  0.1309
 6744SOL    HW226742   4.102   6.199   4.503  0.4820  1.1999  0.2719
 6744SOL    HW326743   4.221   6.230   4.414 -0.2920  0.9860 -0.8642
 6744SOL    MW426744   4.138   6.203   4.424 -0.2899  0.1054 -0.3546
 6745SOL     OW26745   5.389   2.267   3.987 -0.2358  0.2683  0.0715
 6745SOL    HW226746   5.354   2.352   3.957  1.2820  0.1215 -2.2984
 6745SOL    HW326747   5.470   2.289   4.033 -0.9127  0.2123  1.3578
 6745SOL    MW426748   5.395   2.281   3.989 -0.0102 -0.8023 -0.1702
 6746SOL     OW26749   1.650   2.048   1.568  0.0776 -0.2009  0.0949
 6746SOL    HW226750   1.674   1.957   1.555  1.2565  0.0698  0.2978
 6746SOL    HW326751   1.696   2.095   1.498  0.2749  0.3446  0.5835
 6746SOL    MW426752   1.659   2.042   1.557  0.1489  0.0585  0.0276
 6747SOL     OW26753   6.192   6.313   6.107 -0.5263 -0.6290  0.0982
 6747SOL    HW226754   6.243   6.232   6.116  2.6093  1.3542  2.1153
 6747SOL    HW326755   6.237   6.362   6.039 -0.7076  0.5261  0.7859
 6747SOL    MW426756   6.205   6.309   6.099  0.3615  0.2007 -0.4710
 6748SOL     OW26757   0.753   6.144   5.189  0.4828 -0.5958  0.3997
 6748SOL    HW226758   0.748   6.104   5.275  2.7247  0.6767  1.1943
 6748SOL    HW326759   0.842   6.125   5.159 -0.2008 -0.8813 -1.5934
 6748SOL    MW426760   0.764   6.136   5.196  0.4056 -0.3921  0.2715
 6749SOL     OW26761   4.923   0.206   3.918  0.0478 -0.3318 -0.2449
 6749SOL    HW226762   4.993   0.217   3.982  0.0585 -2.1635  0.1206
 6749SOL    HW326763   4.843   0.207   3.970 -0.0472 -0.2822 -0.3929
 6749SOL    MW426764   4.922   0.208   3.933 -0.4506  0.1188 -0.2060
 6750SOL     OW26765   4.196   1.522   5.796  0.2771 -0.3674  0.4267
 6750SOL    HW226766   4.256   1.568   5.737  1.1504 -2.0963 -0.1218
 6750SOL    HW326767   4.117   1.575   5.797  2.0113  2.3957  1.7427
 6750SOL    MW426768   4.194   1.535   5.788 -0.4266  0.0106 -0.0780
 6751SOL     OW26769   5.159   2.354   3.116  0.5267  0.4163  0.0068
 6751SOL    HW226770   5.213   2.378   3.041 -0.5921  0.2086 -0.9081
 6751SOL    HW326771   5.174   2.423   3.180  1.2378  0.7962 -0.5574
 6751SOL    MW426772   5.168   2.366   3.114 -0.5037 -0.2088  0.5200
 6752SOL     OW26773   6.319   0.179   5.077 -0.0713 -0.0028 -0.3307
 6752SOL    HW226774   6.275   0.234   5.012 -1.5507 -1.8564 -0.9784
 6752SOL    HW326775   6.310   0.090   5.043  1.0159 -0.8115  1.3751
 6752SOL    MW426776   6.312   0.174   5.064  0.0877 -0.4784 -0.3549
 6753SOL     OW26777   3.584   2.052   5.497  0.0869  0.7511 -0.1750
 6753SOL    HW226778   3.541   2.069   5.580  1.6788  0.9708  0.6356
 6753SOL    HW326779   3.668   2.014   5.520  0.3670  0.3616 -1.7001
 6753SOL    MW426780   3.589   2.049   5.511  0.1966 -0.0142 -0.7731
 6754SOL     OW26781   0.597   1.621   1.966  0.1704  0.1822  0.2219
 6754SOL    HW226782   0.547   1.540   1.975 -1.9524  1.2657 -0.9535
 6754SOL    HW326783   0.571   1.673   2.042  0.1929  0.4206  0.0656
 6754SOL    MW426784   0.587   1.617   1.978  0.0563  0.2025 -0.2644
 6755SOL     OW26785   2.005   5.773   0.293 -0.2925 -0.2972  0.3059
 6755SOL    HW226786   2.047   5.742   0.212 -0.1297  0.8036 -0.0394
 6755SOL    HW326787   1.944   5.840   0.264 -1.9350 -1.5034  0.8738
 6755SOL    MW426788   2.003   5.777   0.278  0.1247 -0.5446 -0.3014
 6756SOL     OW26789   3.281   1.339   4.268  0.0216  0.2771  0.0824
 6756SOL    HW226790   3.223   1.327   4.193  0.0725 -0.3124  0.1284
 6756SOL    HW326791   3.369   1.340   4.230  0.1382 -1.3358  0.2420
 6756SOL    MW426792   3.285   1.337   4.253  0.0153 -0.9472 -0.4310
 6757SOL     OW26793   3.264   6.190   3.268  0.6891 -0.5023 -0.0671
 6757SOL    HW226794   3.198   6.150   3.324  0.1235 -0.4822 -0.6977
 6757SOL    HW326795   3.334   6.216   3.327  0.6248 -1.5215  0.4737
 6757SOL    MW426796   3.264   6.188   3.283  0.2469  0.3003  0.1935
 6758SOL     OW26797   2.458   5.844   5.979 -0.0043  0.2345 -0.1752
 6758SOL    HW226798   2.521   5.916   5.974  1.1580 -0.8423 -2.3719
 6758SOL    HW326799   2.445   5.831   6.073  0.4718  2.6493  0.2984
 6758SOL    MW426800   2.465   5.851   5.991 -0.2218 -0.2750  0.1658
 6759SOL     OW26801   5.449   5.932   2.510  0.8655  0.1222  0.0208
 6759SOL    HW226802   5.392   5.953   2.584 -0.3206  1.2348 -1.1509
 6759SOL    HW326803   5.400   5.866   2.461  0.2646  1.4961 -1.2982
 6759SOL    MW426804   5.435   5.926   2.514  0.4520  0.1123  0.4740
 6760SOL     OW26805   5.686   4.699   3.756  0.3997  0.0644 -0.5117
 6760SOL    HW226806   5.762   4.655   3.793  0.2826  0.6655  0.4659
 6760SOL    HW326807   5.653   4.754   3.827 -0.9829 -0.2361 -0.8957
 6760SOL    MW426808   5.691   4.701   3.770 -0.0488 -0.0765 -0.1147
 6761SOL     OW26809   3.189   0.757   5.434  0.5031 -0.4260  0.3540
 6761SOL    HW226810   3.256   0.755   5.366  1.6590 -1.8995  1.4688
 6761SOL    HW326811   3.222   0.819   5.498  1.4736 -2.0576  1.4988
 6761SOL    MW426812   3.202   0.765   5.433  0.3885  0.2838  0.0079
 6762SOL     OW26813   0.759   3.494   5.333  0.1024 -0.6133 -0.4618
 6762SOL    HW226814   0.834   3.496   5.393  0.8338 -0.2010 -1.3748
 6762SOL    HW326815   0.685   3.523   5.387  0.7310 -0.3018  0.2594
 6762SOL    MW426816   0.759   3.498   5.348  0.2153 -0.4459 -0.1134
 6763SOL     OW26817   3.484   0.706   2.623 -0.0081  0.6120 -0.5047
 6763SOL    HW226818   3.462   0.719   2.715 -0.9253 -0.4544 -0.5462
 6763SOL    HW326819   3.502   0.612   2.616 -1.1962  0.4410 -1.6431
 6763SOL    MW426820   3.483   0.695   2.634  0.6967  0.0880 -0.4061
 6764SOL     OW26821   2.388   1.627   4.268  0.0549 -0.2847  0.3220
 6764SOL    HW226822   2.448   1.654   4.199 -1.2144 -0.9385 -1.0892
 6764SOL    HW326823   2.302   1.658   4.239 -0.5836 -1.0224  1.3630
 6764SOL    MW426824   2.385   1.635   4.255 -0.1451 -0.5533  0.3298
 6765SOL     OW26825   5.748   0.989   1.819 -0.0503  0.1012  0.2751
 6765SOL    HW226826   5.772   1.065   1.872 -0.2051 -0.1198  0.6691
 6765SOL    HW326827   5.723   0.922   1.883 -0.2060 -0.1819 -0.0762
 6765SOL    MW426828   5.748   0.990   1.834 -0.1514  0.6339 -0.4218
 6766SOL     OW26829   3.851   2.337   6.122  0.1527 -0.3446 -0.1692
 6766SOL    HW226830   3.878   2.357   6.033  1.1315 -1.0408 -0.0455
 6766SOL    HW326831   3.796   2.259   6.114 -0.3825  0.0325 -0.2326
 6766SOL    MW426832   3.847   2.329   6.109  0.1290  0.1222  0.3830
 6767SOL     OW26833   3.805   1.408   5.297 -1.0125  0.6498  0.2311
 6767SOL    HW226834   3.868   1.475   5.325 -0.3126  0.0640  0.1013
 6767SOL    HW326835   3.746   1.397   5.371 -0.4960  0.6712  0.6494
 6767SOL    MW426836   3.806   1.415   5.310 -0.6361  0.0839  0.1813
 6768SOL     OW26837   0.830   5.416   4.676  0.2092 -0.0516 -0.0838
 6768SOL    HW226838   0.913   5.420   4.629  0.1787 -0.5277 -0.1753
 6768SOL    HW326839   0.765   5.396   4.610  0.2748 -1.5430  0.2695
 6768SOL    MW426840   0.832   5.414   4.661  0.5915  0.0691  0.2401
 6769SOL     OW26841   3.303   0.845   3.838  0.7906 -0.3502 -0.5051
 6769SOL    HW226842   3.348   0.825   3.921  1.6700 -0.3000 -0.9531
 6769SOL    HW326843   3.214   0.869   3.864  1.3748  0.8494  0.5418
 6769SOL    MW426844   3.298   0.846   3.852 -0.2664  0.0458 -0.4583
 6770SOL     OW26845   1.100   5.871   2.900  0.0959  0.0949  0.1497
 6770SOL    HW226846   1.098   5.855   2.806  1.5126  0.6776 -0.0099
 6770SOL    HW326847   1.020   5.920   2.918 -0.8957 -1.2139 -0.4803
 6770SOL    MW426848   1.089   5.875   2.890 -0.5577  0.1273 -0.0845
 6771SOL     OW26849   6.019   0.072   5.306 -0.4894  0.1429 -0.5928
 6771SOL    HW226850   6.029   0.165   5.288 -1.8914  0.4415  0.0352
 6771SOL    HW326851   6.080   0.054   5.377 -1.8586  1.1483  0.9164
 6771SOL    MW426852   6.028   0.082   5.313 -0.6044 -0.2586 -0.2296
 6772SOL     OW26853   2.560   4.577   3.282 -0.1847  0.2522 -0.3382
 6772SOL    HW226854   2.541   4.668   3.308 -1.0570 -0.1420  0.4715
 6772SOL    HW326855   2.638   4.554   3.332 -0.3157  0.3626 -0.0804
 6772SOL    MW426856   2.568   4.586   3.292 -0.4512 -0.1696  0.5402
 6773SOL     OW26857   5.852   5.405   3.942  0.0810 -0.5843 -0.1984
 6773SOL    HW226858   5.808   5.400   4.027  1.0901  1.4238  0.5334
 6773SOL    HW326859   5.936   5.446   3.962 -0.9512  3.1694 -2.5142
 6773SOL    MW426860   5.857   5.410   3.956 -0.2567  0.0620  0.6807
 6774SOL     OW26861   5.652   2.939   6.417  0.4764  0.5430 -0.4775
 6774SOL    HW226862   5.591   2.961   6.347  1.2559 -2.4114 -2.2466
 6774SOL    HW326863   5.723   2.891   6.374  1.3611 -0.7851  2.2018
 6774SOL    MW426864   5.653   2.935   6.402 -0.3344 -0.3925 -0.2389
 6775SOL     OW26865   4.480   1.768   1.080  0.1904 -0.0283  0.0418
 6775SOL    HW226866   4.468   1.795   1.171  1.4900 -0.3371  0.3268
 6775SOL    HW326867   4.412   1.701   1.066 -1.6426  1.7478 -0.0182
 6775SOL    MW426868   4.469   1.763   1.090  0.2102 -0.1043 -0.7011
 6776SOL     OW26869   0.494   5.170   5.478  0.5595 -0.5222  0.1997
 6776SOL    HW226870   0.477   5.182   5.384 -1.0417  1.8894  0.6785
 6776SOL    HW326871   0.429   5.106   5.506  0.0322 -0.1388 -0.1115
 6776SOL    MW426872   0.483   5.163   5.469 -0.5012 -0.1025  0.8267
 6777SOL     OW26873   3.517   1.864   1.244  0.5281 -0.1091 -0.3886
 6777SOL    HW226874   3.579   1.793   1.229  0.8736  0.1767 -0.3155
 6777SOL    HW326875   3.547   1.935   1.187  0.6626  0.2648  0.1420
 6777SOL    MW426876   3.529   1.864   1.234 -0.1878  0.1728  0.3356
 6778SOL     OW26877   3.393   2.682   1.038 -0.2804 -0.1169 -0.1467
 6778SOL    HW226878   3.402   2.764   0.990 -0.5119 -0.5528 -0.9461
 6778SOL    HW326879   3.331   2.630   0.987  0.1194 -0.9291  0.1703
 6778SOL    MW426880   3.386   2.686   1.025  0.5435  0.4109 -0.0975
 6779SOL     OW26881   2.185   5.120   3.062  0.3198  0.4637  0.0742
 6779SOL    HW226882   2.118   5.126   2.994  0.3974  1.9848  0.0890
 6779SOL    HW326883   2.139   5.145   3.142  0.2519 -1.2137  0.5890
 6779SOL    MW426884   2.170   5.124   3.064 -0.2015  0.1519 -0.0039
 6780SOL     OW26885   0.563   4.388   2.845 -0.6038  0.0430  0.0697
 6780SOL    HW226886   0.520   4.311   2.807 -0.4623  0.5761 -1.2126
 6780SOL    HW326887   0.562   4.453   2.775  1.5792  0.3384  0.2548
 6780SOL    MW426888   0.557   4.386   2.831 -0.1050  0.2999  0.1274
 6781SOL     OW26889   1.465   5.379   3.483 -0.1785  0.1482 -0.2101
 6781SOL    HW226890   1.398   5.396   3.417 -0.4480 -1.5699 -0.4259
 6781SOL    HW326891   1.541   5.428   3.452 -0.7939  0.6801 -0.9244
 6781SOL    MW426892   1.466   5.387   3.470 -0.3160  0.0897  0.7846
 6782SOL     OW26893   2.824   2.284   0.866  0.1127 -0.2219 -0.1564
 6782SOL    HW226894   2.785   2.239   0.942 -0.1556 -0.8993 -0.6814
 6782SOL    HW326895   2.898   2.228   0.841  0.2134  0.0111 -0.3785
 6782SOL    MW426896   2.829   2.271   0.873  0.3072  0.4574 -0.2710
 6783SOL     OW26897   0.255   2.547   3.497  0.0698 -0.0664 -0.2626
 6783SOL    HW226898   0.292   2.574   3.413  1.5457  0.5017  0.5358
 6783SOL    HW326899   0.189   2.613   3.517  0.1296  0.1254 -0.6833
 6783SOL    MW426900   0.251   2.559   3.489 -0.4124 -0.7616  0.2615
 6784SOL     OW26901   1.902   5.909   3.201 -0.3074 -0.1185  0.1679
 6784SOL    HW226902   1.916   5.815   3.207  0.1587 -0.0422  0.3554
 6784SOL    HW326903   1.943   5.935   3.118 -0.1959 -0.0404  0.2469
 6784SOL    MW426904   1.909   5.900   3.191 -0.2727  0.2390  0.0410
 6785SOL     OW26905   3.743   1.458   5.778 -0.3085  0.2613 -0.5381
 6785SOL    HW226906   3.737   1.551   5.759  2.3634  0.6002 -0.0298
 6785SOL    HW326907   3.713   1.414   5.698 -3.1901  1.4418 -0.2355
 6785SOL    MW426908   3.738   1.464   5.765  0.0758 -0.1062  0.2339
 6786SOL     OW26909   0.989   6.356   1.818  0.0791  0.4305 -0.1401
 6786SOL    HW226910   1.077   6.353   1.779 -0.2269 -1.9144 -0.8016
 6786SOL    HW326911   0.955   6.267   1.806 -2.6793  1.4671 -0.5727
 6786SOL    MW426912   0.996   6.344   1.811  0.7042 -0.1122 -0.1625
 6787SOL     OW26913   0.560   4.859   0.629 -0.8571 -0.2102 -0.3207
 6787SOL    HW226914   0.488   4.798   0.612 -0.9207 -0.5910  1.1941
 6787SOL    HW326915   0.564   4.866   0.724  0.0567  1.0847 -0.4235
 6787SOL    MW426916   0.551   4.852   0.639 -0.1496  0.1627 -0.4787
 6788SOL     OW26917   5.061   1.818   4.597  0.3315  0.4538  0.3035
 6788SOL    HW226918   4.974   1.850   4.621  0.4285  0.2233  0.9749
 6788SOL    HW326919   5.059   1.725   4.619  1.2766  0.7656  1.8697
 6788SOL    MW426920   5.049   1.810   4.603 -0.1314 -0.3723  0.2210
 6789SOL     OW26921   2.370   1.133   1.051  0.0129 -0.9936 -0.0581
 6789SOL    HW226922   2.352   1.196   1.121 -1.6896 -0.8710 -0.5696
 6789SOL    HW326923   2.457   1.157   1.019 -0.1995  0.4861  0.4070
 6789SOL    MW426924   2.379   1.145   1.056 -0.3540 -0.2066  0.1566
 6790SOL     OW26925   0.631   0.935   1.426  0.3611 -0.0281 -0.0329
 6790SOL    HW226926   0.719   0.950   1.459  0.3947 -0.4392  0.0579
 6790SOL    HW326927   0.627   0.986   1.345  0.9733 -0.7096 -0.5040
 6790SOL    MW426928   0.642   0.944   1.420 -0.0983 -0.1941 -0.0953
 6791SOL     OW26929   0.226   3.345   2.507  1.4722  0.1937 -0.0641
 6791SOL    HW226930   0.141   3.334   2.464  1.2703 -3.2911  0.9433
 6791SOL    HW326931   0.205   3.375   2.595  1.2007 -0.9964  0.2950
 6791SOL    MW426932   0.212   3.348   2.513  0.3381 -0.1457 -0.0701
 6792SOL     OW26933   2.967   1.838   0.802 -0.6042 -0.3230  0.2783
 6792SOL    HW226934   3.063   1.836   0.804 -0.5900 -1.8751 -0.5580
 6792SOL    HW326935   2.942   1.750   0.775 -2.2434  0.3457 -0.5051
 6792SOL    MW426936   2.976   1.826   0.798  0.1562 -0.5554 -0.6009
 6793SOL     OW26937   5.539   2.453   5.376 -0.5456 -0.2002 -0.1004
 6793SOL    HW226938   5.604   2.435   5.308  1.2375 -1.7360  1.9033
 6793SOL    HW326939   5.457   2.467   5.327  0.6739 -1.0028 -2.5429
 6793SOL    MW426940   5.537   2.453   5.360  0.0387  0.4194 -0.7804
 6794SOL     OW26941   3.651   3.367   4.439  0.3702  0.7466  0.3821
 6794SOL    HW226942   3.721   3.329   4.387 -0.6011  0.1346 -0.5110
 6794SOL    HW326943   3.678   3.457   4.455  1.9908  0.1464  1.2287
 6794SOL    MW426944   3.664   3.374   4.434  0.1436  0.0998 -0.1059
 6795SOL     OW26945   4.695   0.760   0.772  0.7531  0.6446 -0.0568
 6795SOL    HW226946   4.660   0.773   0.684  0.9815  1.5873 -0.0184
 6795SOL    HW326947   4.637   0.811   0.829 -0.7667 -1.7365  0.6703
 6795SOL    MW426948   4.682   0.769   0.768  0.8966  0.1237  0.2485
 6796SOL     OW26949   5.765   1.046   3.119  0.3735  0.0885 -0.1268
 6796SOL    HW226950   5.765   1.034   3.214 -1.5395  0.8461  0.0199
 6796SOL    HW326951   5.712   0.975   3.085  1.0023 -0.1476 -0.6511
 6796SOL    MW426952   5.758   1.035   3.127  0.1017  0.0272 -0.1559
 6797SOL     OW26953   0.600   2.930   2.847 -0.3203 -0.2465 -0.1968
 6797SOL    HW226954   0.505   2.922   2.843 -0.5507  1.5232  0.8863
 6797SOL    HW326955   0.617   3.024   2.842  1.2290 -0.3829  1.4525
 6797SOL    MW426956   0.590   2.941   2.846  0.0386  0.3001  0.2708
 6798SOL     OW26957   1.352   4.605   1.950  0.1319 -0.2488 -0.2945
 6798SOL    HW226958   1.419   4.671   1.932 -1.5542  2.0599  1.2055
 6798SOL    HW326959   1.328   4.571   1.864  0.7397  1.4803 -1.2005
 6798SOL    MW426960   1.358   4.609   1.936 -0.4453  0.0379 -0.0476
 6799SOL     OW26961   5.610   4.139   0.814 -0.0737  0.7855 -0.0254
 6799SOL    HW226962   5.596   4.068   0.752 -0.5947 -0.0324  1.0042
 6799SOL    HW326963   5.705   4.151   0.817  0.0130  0.1734 -0.2605
 6799SOL    MW426964   5.620   4.131   0.807 -0.5642  0.2224  0.8145
 6800SOL     OW26965   2.962   4.179   1.185  0.3567 -0.3062 -0.1396
 6800SOL    HW226966   2.995   4.102   1.138 -0.9060 -0.4222 -0.8634
 6800SOL    HW326967   3.010   4.252   1.146 -0.7400 -0.3857 -1.7394
 6800SOL    MW426968   2.973   4.178   1.173 -0.1651 -0.4014 -0.1552
 6801SOL     OW26969   1.990   2.912   3.721  0.1004 -0.1932  0.0690
 6801SOL    HW226970   2.042   2.951   3.791 -0.8134 -1.2817  1.3998
 6801SOL    HW326971   2.054   2.876   3.660  0.9047  0.4490  0.5207
 6801SOL    MW426972   2.005   2.912   3.722  0.0413 -0.2330  0.1376
 6802SOL     OW26973   4.497   5.413   5.889 -0.3823  0.8351  0.6318
 6802SOL    HW226974   4.516   5.382   5.800  0.5606  0.6593  0.8818
 6802SOL    HW326975   4.572   5.384   5.941 -1.2582  0.3192  1.6442
 6802SOL    MW426976   4.509   5.405   5.884  0.2048 -0.1854 -0.2254
 6803SOL     OW26977   5.782   4.309   5.859  0.2084 -0.3461  0.2455
 6803SOL    HW226978   5.723   4.234   5.855  1.0765 -1.0500  0.2853
 6803SOL    HW326979   5.771   4.344   5.947 -3.7352  2.5678 -1.1060
 6803SOL    MW426980   5.773   4.304   5.870  0.0344 -0.1051 -0.3414
 6804SOL     OW26981   1.035   3.860   3.659  0.1910  0.1246  0.2223
 6804SOL    HW226982   1.118   3.898   3.630 -0.4187  2.1027  0.8360
 6804SOL    HW326983   1.006   3.805   3.586  1.6748 -0.0076 -0.2965
 6804SOL    MW426984   1.042   3.858   3.646 -0.1457  0.2302 -0.7096
 6805SOL     OW26985   3.311   2.946   1.680 -0.5716  0.1273 -0.0459
 6805SOL    HW226986   3.400   2.967   1.707 -0.4081  1.1700 -1.2998
 6805SOL    HW326987   3.294   3.004   1.606 -1.8273 -0.9653 -0.6613
 6805SOL    MW426988   3.320   2.956   1.674 -0.3133 -1.0044 -0.3119
 6806SOL     OW26989   5.411   1.289   3.872 -0.0854  0.0925 -0.3709
 6806SOL    HW226990   5.505   1.291   3.893 -0.4727  0.1349  1.4427
 6806SOL    HW326991   5.379   1.376   3.897 -0.6766 -0.0278 -0.6931
 6806SOL    MW426992   5.419   1.301   3.878 -0.4509 -0.1736 -0.2695
 6807SOL     OW26993   4.287   3.469   2.642 -0.6169 -0.5517 -0.1755
 6807SOL    HW226994   4.311   3.383   2.605 -0.1850 -0.1005 -0.9822
 6807SOL    HW326995   4.350   3.529   2.603 -1.9475  0.4011 -0.9444
 6807SOL    MW426996   4.299   3.465   2.632  0.0251  0.4975 -0.8126
 6808SOL     OW26997   0.747   3.306   2.621  0.2491 -0.3925 -0.2800
 6808SOL    HW226998   0.819   3.243   2.621  0.4770 -0.1415 -0.6956
 6808SOL    HW326999   0.747   3.342   2.709  1.3286  0.3747 -0.5690
 6808SOL    MW427000   0.757   3.302   2.632 -0.1344 -0.0977  0.0899
 6809SOL     OW27001   4.196   0.249   0.904  0.0939  0.0576 -0.2836
 6809SOL    HW227002   4.244   0.232   0.986 -0.3060  0.5216  0.0496
 6809SOL    HW327003   4.159   0.336   0.915 -0.0927  0.0602 -0.9023
 6809SOL    MW427004   4.197   0.258   0.916 -0.2438  0.4064 -0.3559
 6810SOL     OW27005   2.244   5.976   2.980 -0.0674  0.0618 -0.1243
 6810SOL    HW227006   2.252   6.060   3.024  0.0784 -0.7524  1.4530
 6810SOL    HW327007   2.331   5.958   2.945  0.5658 -0.5578  1.6817
 6810SOL    MW427008   2.256   5.985   2.981  0.1656 -0.3328 -0.9141
 6811SOL     OW27009   2.391   1.912   3.316 -0.2183  0.1660  0.0251
 6811SOL    HW227010   2.473   1.873   3.347  2.3698  2.1859 -3.5421
 6811SOL    HW327011   2.398   2.004   3.341 -2.1761  0.1237  0.9018
 6811SOL    MW427012   2.402   1.919   3.324  0.2087 -0.0977 -0.7661
 6812SOL     OW27013   5.954   2.982   0.963  0.1361 -0.4094  0.2899
 6812SOL    HW227014   5.920   3.050   1.022  0.6350  0.5897 -0.5517
 6812SOL    HW327015   5.879   2.955   0.912 -0.2418 -1.0834  1.1841
 6812SOL    MW427016   5.940   2.988   0.964  0.1089  0.0940 -0.1527
 6813SOL     OW27017   3.032   5.529   2.628  0.3512  0.6789 -0.0055
 6813SOL    HW227018   3.053   5.448   2.675  1.8791  1.3272  0.4788
 6813SOL    HW327019   3.116   5.574   2.619 -0.1815  1.3983 -1.8371
 6813SOL    MW427020   3.046   5.524   2.633  0.0844  0.0668  0.1100
 6814SOL     OW27021   5.134   5.799   0.251 -0.2782 -0.2516  0.1483
 6814SOL    HW227022   5.163   5.818   0.341  0.9238  0.6433 -0.3896
 6814SOL    HW327023   5.039   5.791   0.258 -0.3701  1.1801  1.2922
 6814SOL    MW427024   5.125   5.801   0.264  0.0472  0.0180  0.1317
 6815SOL     OW27025   6.414   3.789   3.054  0.6235 -0.1404  0.8409
 6815SOL    HW227026   6.455   3.820   2.974  0.9966  2.0546  1.8114
 6815SOL    HW327027   6.332   3.837   3.061  1.6381  1.4724  2.8497
 6815SOL    MW427028   6.409   3.799   3.045  0.2552 -0.1491 -0.0932
 6816SOL     OW27029   4.758   4.391   1.335  0.7477  0.2888 -0.2405
 6816SOL    HW227030   4.747   4.486   1.338  0.1926  0.2298 -0.2755
 6816SOL    HW327031   4.775   4.365   1.425  2.3775  0.5810 -0.4342
 6816SOL    MW427032   4.759   4.400   1.347 -0.0093 -0.1099  0.6032
 6817SOL     OW27033   3.339   2.366   4.081  0.7706  0.3324  0.3080
 6817SOL    HW227034   3.348   2.294   4.143  0.1626  1.7564  2.1375
 6817SOL    HW327035   3.260   2.412   4.108  0.5157  1.0632 -1.5065
 6817SOL    MW427036   3.330   2.363   4.093  0.0219 -0.4760 -0.0339
 6818SOL     OW27037   5.573   2.127   1.682  0.1082 -0.2714  0.0704
 6818SOL    HW227038   5.501   2.191   1.675 -0.1473 -0.4316  1.0224
 6818SOL    HW327039   5.583   2.092   1.594 -0.4367  0.3490 -0.2479
 6818SOL    MW427040   5.565   2.131   1.669 -0.4602 -0.0183 -0.0992
 6819SOL     OW27041   0.646   0.059   5.883  0.5778 -0.0474 -0.5274
 6819SOL    HW227042   0.667  -0.032   5.903 -0.7286 -0.5449 -1.2593
 6819SOL    HW327043   0.705   0.082   5.810  0.5277 -0.4978 -0.7128
 6819SOL    MW427044   0.657   0.050   5.876 -0.5581 -0.0954 -0.3467
 6820SOL     OW27045   6.030   0.696   0.834  0.2835  0.1431 -0.1386
 6820SOL    HW227046   6.010   0.746   0.913  0.7344 -0.5255  0.4120
 6820SOL    HW327047   6.125   0.700   0.827  0.3613 -0.9012  0.1077
 6820SOL    MW427048   6.040   0.703   0.844  0.4837  0.6633 -0.3519
 6821SOL     OW27049   1.564   2.841   4.550  0.0659 -0.6360 -0.0579
 6821SOL    HW227050   1.495   2.903   4.575  1.4196  0.8314  0.2288
 6821SOL    HW327051   1.546   2.821   4.458  0.9265  2.1623 -0.9399
 6821SOL    MW427052   1.553   2.847   4.541 -0.1842 -0.0654  0.6476
 6822SOL     OW27053   6.270   6.135   3.510  0.3588 -0.4550 -0.3942
 6822SOL    HW227054   6.295   6.044   3.528  2.8115  0.5365  1.8312
 6822SOL    HW327055   6.343   6.170   3.460  1.4063  1.2361  2.0923
 6822SOL    MW427056   6.283   6.128   3.506  0.0857  0.6708 -0.2311
 6823SOL     OW27057   6.291   4.282   6.277  0.2283 -0.4305 -0.0969
 6823SOL    HW227058   6.201   4.289   6.246 -0.3958  0.7017  1.8378
 6823SOL    HW327059   6.292   4.330   6.360  2.1688 -1.9962  0.8679
 6823SOL    MW427060   6.279   4.289   6.284 -0.0019  0.0462  0.2455
 6824SOL     OW27061   5.867   3.369   1.905 -0.5072  0.1319  0.2797
 6824SOL    HW227062   5.829   3.286   1.876  0.1949 -0.2090  0.3307
 6824SOL    HW327063   5.797   3.411   1.956 -1.1824 -0.0036 -0.5082
 6824SOL    MW427064   5.852   3.364   1.908 -0.5655  0.7369  0.3125
 6825SOL     OW27065   1.325   4.528   0.346  0.8887  0.6023  0.7598
 6825SOL    HW227066   1.380   4.566   0.415  0.8756  1.4454  0.3185
 6825SOL    HW327067   1.365   4.443   0.328  2.0897  1.2166  0.4190
 6825SOL    MW427068   1.337   4.522   0.353 -0.2332  0.3866 -0.3342
 6826SOL     OW27069   3.631   3.054   2.414 -0.1591 -0.1092  0.2687
 6826SOL    HW227070   3.583   3.004   2.479 -0.1290 -0.2219  0.2034
 6826SOL    HW327071   3.652   3.137   2.458 -1.8560  0.6428 -0.2330
 6826SOL    MW427072   3.628   3.059   2.428  0.0087 -0.4444  0.4300
 6827SOL     OW27073   4.202   3.637   1.664 -0.0571  0.0832  0.0214
 6827SOL    HW227074   4.261   3.563   1.680 -0.7111 -0.1373  1.5755
 6827SOL    HW327075   4.261   3.712   1.652  0.5937 -0.5776 -1.0769
 6827SOL    MW427076   4.218   3.637   1.665  0.7703 -0.0291  0.4123
 6828SOL     OW27077   2.709   5.463   0.905 -0.0157  0.0522 -0.4407
 6828SOL    HW227078   2.615   5.446   0.914  0.2087 -1.9154 -1.2468
 6828SOL    HW327079   2.714   5.557   0.887 -1.5539  0.8492  2.6568
 6828SOL    MW427080   2.697   5.473   0.904 -0.0326  0.4557  0.0064
 6829SOL     OW27081   3.159   1.624   2.825 -0.0132 -0.6648  0.0742
 6829SOL    HW227082   3.209   1.584   2.754 -0.3101  0.9571 -1.0933
 6829SOL    HW327083   3.077   1.651   2.784 -1.1533 -1.7010  1.5667
 6829SOL    MW427084   3.155   1.622   2.810 -0.1110  0.0281  0.5941
 6830SOL     OW27085   4.968   0.713   1.255  0.5620 -0.5438 -0.0838
 6830SOL    HW227086   4.917   0.745   1.180 -0.3059  3.3674  1.8873
 6830SOL    HW327087   5.058   0.709   1.224 -0.1161 -2.2154 -2.1114
 6830SOL    MW427088   4.973   0.716   1.241  0.2592 -0.2237  0.2558
 6831SOL     OW27089   2.763   1.438   5.665 -0.4348  0.0636  0.8156
 6831SOL    HW227090   2.735   1.516   5.713  0.6166  1.0766 -0.1717
 6831SOL    HW327091   2.822   1.393   5.725 -0.0613  0.6889  0.9283
 6831SOL    MW427092   2.767   1.442   5.680  0.1102 -0.1194 -0.4055
 6832SOL     OW27093   0.127   4.032   3.114 -0.3536  0.5149  0.7682
 6832SOL    HW227094   0.090   3.944   3.117  2.2239 -0.7524 -1.3609
 6832SOL    HW327095   0.057   4.085   3.075 -0.7348 -1.3643 -1.3133
 6832SOL    MW427096   0.113   4.027   3.109 -0.2852  0.3486 -0.4496
 6833SOL     OW27097   0.702   5.885   2.534  0.7209  0.1141 -0.1564
 6833SOL    HW227098   0.688   5.838   2.452 -2.1092 -0.3018  0.4567
 6833SOL    HW327099   0.623   5.938   2.545  1.2461  0.5278  2.0573
 6833SOL    MW427100   0.690   5.886   2.524 -0.4288 -0.4796  0.2024
 6834SOL     OW27101   1.856   3.452   3.091  0.1268  0.2628  0.4334
 6834SOL    HW227102   1.792   3.504   3.042  0.5448 -0.3588 -0.8022
 6834SOL    HW327103   1.883   3.509   3.163  0.4370  1.7160 -0.7802
 6834SOL    MW427104   1.851   3.466   3.094 -0.3649  0.4245  0.1588
 6835SOL     OW27105   4.766   1.081   5.605 -0.1410  0.1253 -0.0813
 6835SOL    HW227106   4.695   1.098   5.667  0.2633 -1.0635  0.7278
 6835SOL    HW327107   4.846   1.105   5.651  0.0957  0.1612 -0.4975
 6835SOL    MW427108   4.767   1.086   5.619  0.2463  0.4035 -0.0881
 6836SOL     OW27109   3.186   1.175   0.233  0.5225  0.5515  0.1427
 6836SOL    HW227110   3.238   1.188   0.154  1.3411  1.0320  0.7494
 6836SOL    HW327111   3.246   1.136   0.296 -0.3853 -0.7928  0.2256
 6836SOL    MW427112   3.200   1.171   0.231  0.0773 -0.2346 -0.1670
 6837SOL     OW27113   0.962   5.022   2.994  0.1281  0.6213  0.1484
 6837SOL    HW227114   0.972   4.927   3.003  0.9285  0.7439  0.5978
 6837SOL    HW327115   0.878   5.032   2.949  0.3218 -0.3197 -0.4706
 6837SOL    MW427116   0.952   5.010   2.989  0.4186  0.3051 -0.1179
 6838SOL     OW27117   4.243   1.245   1.902 -0.1051  0.2517 -0.2918
 6838SOL    HW227118   4.245   1.214   1.811 -0.9503  0.4215 -0.3807
 6838SOL    HW327119   4.330   1.226   1.936  0.8906  1.9521 -1.7123
 6838SOL    MW427120   4.254   1.238   1.894  0.1407 -0.0832  0.1499
 6839SOL     OW27121   3.699   6.374   1.755 -0.7319  0.5555  0.4854
 6839SOL    HW227122   3.613   6.359   1.795 -1.0662 -1.8374 -0.9290
 6839SOL    HW327123   3.751   6.299   1.782 -0.5749 -0.4984 -2.3787
 6839SOL    MW427124   3.694   6.362   1.764 -0.3786 -0.9298  0.3516
 6840SOL     OW27125   5.673   1.194   0.236  0.4769 -0.3264  0.1643
 6840SOL    HW227126   5.648   1.206   0.328 -0.5576  0.7028 -0.2249
 6840SOL    HW327127   5.745   1.130   0.239 -0.9574 -1.9797  1.5055
 6840SOL    MW427128   5.679   1.187   0.249  0.2047  0.3645 -0.0050
 6841SOL     OW27129   0.365   6.077   6.056  0.0680 -0.9185 -0.8184
 6841SOL    HW227130   0.433   6.058   6.121  0.6884 -1.0336 -1.4955
 6841SOL    HW327131   0.290   6.024   6.084  0.2932 -0.8882 -0.1365
 6841SOL    MW427132   0.364   6.067   6.069  0.5325 -0.2381  0.2185
 6842SOL     OW27133   3.998   4.269   0.878  0.3214 -0.1314  0.1498
 6842SOL    HW227134   3.935   4.312   0.935  0.6637 -1.1461  1.3442
 6842SOL    HW327135   4.012   4.183   0.918 -2.1357 -2.4518 -3.3541
 6842SOL    MW427136   3.991   4.263   0.891 -0.1541 -0.5659 -0.0290
 6843SOL     OW27137   2.197   0.963   4.043 -0.1976  0.5229 -0.2934
 6843SOL    HW227138   2.164   0.915   4.119  1.0983 -0.3952 -0.2673
 6843SOL    HW327139   2.292   0.961   4.054 -0.0722  2.6812 -0.5707
 6843SOL    MW427140   2.205   0.957   4.055  0.2534  0.0133 -0.3718
 6844SOL     OW27141   0.127   5.051   0.641  0.7348 -0.6554  0.6397
 6844SOL    HW227142   0.136   5.034   0.735  0.8174 -0.3515  0.6878
 6844SOL    HW327143   0.045   5.009   0.616  0.1712  0.1675  1.0633
 6844SOL    MW427144   0.118   5.043   0.650 -0.1016 -0.0070 -0.5608
 6845SOL     OW27145   1.806   1.553   2.548  0.2638  0.2630 -0.0162
 6845SOL    HW227146   1.818   1.626   2.610  1.0127 -0.7444  1.0713
 6845SOL    HW327147   1.894   1.526   2.525  0.0055 -0.7700  0.1678
 6845SOL    MW427148   1.819   1.559   2.553  0.0893 -0.3736 -0.3089
 6846SOL     OW27149   4.843   2.319   5.922  0.1286 -0.0081 -0.3582
 6846SOL    HW227150   4.805   2.391   5.872  0.2726  0.4582  0.1911
 6846SOL    HW327151   4.773   2.289   5.980  0.6396  1.0618  0.8849
 6846SOL    MW427152   4.829   2.325   5.923  0.3376 -0.1527  0.5440
 6847SOL     OW27153   6.252   4.497   2.166  0.2716 -0.1017  0.2219
 6847SOL    HW227154   6.293   4.557   2.104 -0.1993  0.7229  0.6873
 6847SOL    HW327155   6.250   4.413   2.121  1.4642  0.0953 -0.2197
 6847SOL    MW427156   6.257   4.494   2.152  0.0117  0.3120 -0.6866
 6848SOL     OW27157   4.337   3.427   4.083 -0.1588 -0.2366  0.6027
 6848SOL    HW227158   4.359   3.358   4.146  0.4740 -0.5273  0.0724
 6848SOL    HW327159   4.247   3.452   4.106 -0.0813 -0.6148  1.3656
 6848SOL    MW427160   4.328   3.421   4.095  0.4733  0.1232 -0.1634
 6849SOL     OW27161   0.183   2.483   1.856 -0.3412 -0.3121 -0.4061
 6849SOL    HW227162   0.119   2.446   1.795 -0.7992  0.0866 -0.1664
 6849SOL    HW327163   0.187   2.419   1.927 -0.0768 -0.5971 -0.6720
 6849SOL    MW427164   0.175   2.470   1.857 -0.8410 -1.0571  0.2453
 6850SOL     OW27165   0.510   3.123   3.192  0.2669 -0.0998  0.0220
 6850SOL    HW227166   0.431   3.108   3.140  1.4830  1.2188 -2.3340
 6850SOL    HW327167   0.480   3.177   3.265 -1.1730 -0.4956 -0.2431
 6850SOL    MW427168   0.495   3.128   3.195 -0.0825  0.2554  0.4871
 6851SOL     OW27169   5.512   3.038   2.031  0.0368  0.5594  0.1136
 6851SOL    HW227170   5.503   3.126   1.995 -1.6461  0.6891  0.7318
 6851SOL    HW327171   5.493   3.048   2.125 -1.7406 -0.6464 -0.0524
 6851SOL    MW427172   5.508   3.051   2.039  0.4210  0.6155 -0.0644
 6852SOL     OW27173   3.232   5.072   1.149  0.1617 -0.2226  0.0960
 6852SOL    HW227174   3.312   5.082   1.097  0.1695  1.8230  0.4292
 6852SOL    HW327175   3.161   5.080   1.087  0.1950  0.8967  0.1796
 6852SOL    MW427176   3.233   5.075   1.134 -0.2534  0.8409 -0.2947
 6853SOL     OW27177   2.158   5.249   4.672  0.3184 -0.1278 -0.1907
 6853SOL    HW227178   2.238   5.257   4.724 -0.4284  0.7878  0.8978
 6853SOL    HW327179   2.151   5.333   4.626 -0.8477  0.4992  1.0427
 6853SOL    MW427180   2.168   5.261   4.673  0.4690  0.1848 -0.7457
 6854SOL     OW27181   5.964   0.486   3.870  0.8695  0.0860 -0.0995
 6854SOL    HW227182   6.040   0.513   3.920 -0.8544  1.1735  2.0721
 6854SOL    HW327183   5.920   0.568   3.846 -1.9274 -0.4574  2.5518
 6854SOL    MW427184   5.968   0.500   3.873 -0.0996 -0.4276 -0.2139
 6855SOL     OW27185   4.527   5.827   5.238  0.1028 -0.1170 -0.4486
 6855SOL    HW227186   4.567   5.821   5.324 -0.5478 -0.1396 -0.1458
 6855SOL    HW327187   4.465   5.899   5.244  0.9212  0.6865 -1.2646
 6855SOL    MW427188   4.524   5.835   5.250 -0.1427 -0.0892 -0.7036
 6856SOL     OW27189   4.316   3.637   3.708  0.5173 -0.3414 -0.2183
 6856SOL    HW227190   4.313   3.732   3.698  0.8129 -0.2969  0.1096
 6856SOL    HW327191   4.407   3.618   3.731  0.5807 -0.7542 -0.7843
 6856SOL    MW427192   4.327   3.647   3.709  0.4919 -0.2515 -0.4536
 6857SOL     OW27193   2.809   2.912   4.482  0.5797  0.4394 -0.5783
 6857SOL    HW227194   2.796   2.850   4.411  2.2886  1.9845 -2.3491
 6857SOL    HW327195   2.887   2.881   4.528 -0.0550 -0.1080  0.1538
 6857SOL    MW427196   2.817   2.900   4.479 -0.3999 -0.7172  0.3961
 6858SOL     OW27197   4.197   5.585   2.139 -0.2130  0.4536  0.2886
 6858SOL    HW227198   4.279   5.616   2.176  0.3585  0.3813 -0.8758
 6858SOL    HW327199   4.190   5.494   2.168 -0.5413  0.8367  1.4553
 6858SOL    MW427200   4.207   5.577   2.147  0.3301 -1.2116 -0.2619
 6859SOL     OW27201   3.494   3.933   2.365  0.2739  0.3927  0.0175
 6859SOL    HW227202   3.410   3.903   2.399  0.7410 -0.3514  0.5313
 6859SOL    HW327203   3.477   3.950   2.272  0.1614 -2.2347 -0.5093
 6859SOL    MW427204   3.480   3.931   2.357 -0.5529 -0.0094  0.1353
 6860SOL     OW27205   6.255   5.003   3.494 -0.1998  0.1761  0.3078
 6860SOL    HW227206   6.316   4.949   3.444 -1.1585 -0.7762  0.1378
 6860SOL    HW327207   6.303   5.085   3.510  0.2688  0.3657 -1.8405
 6860SOL    MW427208   6.270   5.007   3.490 -0.3041 -0.2126  0.0606
 6861SOL     OW27209   1.536   0.612   2.062  0.1282  1.1620  0.4109
 6861SOL    HW227210   1.579   0.659   2.133  0.7930  0.5559  0.4220
 6861SOL    HW327211   1.599   0.545   2.035 -0.2337  1.1779 -0.5399
 6861SOL    MW427212   1.550   0.609   2.068 -0.0206  0.4336  0.2513
 6862SOL     OW27213   3.142   6.286   3.007 -0.0204 -0.0041  0.2267
 6862SOL    HW227214   3.075   6.217   3.011  1.5171 -1.6249 -0.3707
 6862SOL    HW327215   3.174   6.293   3.097 -2.5050  2.4684  1.0370
 6862SOL    MW427216   3.137   6.278   3.019  0.2404 -0.1020  0.1876
 6863SOL     OW27217   6.050   5.291   1.025 -0.5429 -0.0278  0.2916
 6863SOL    HW227218   6.074   5.277   0.934 -1.0516 -0.0493  0.1556
 6863SOL    HW327219   6.111   5.237   1.075 -0.1039  0.1737 -0.0203
 6863SOL    MW427220   6.061   5.282   1.020 -0.1414 -0.0169  0.5074
 6864SOL     OW27221   4.847   3.240   3.028  0.8227 -0.3661 -0.2241
 6864SOL    HW227222   4.779   3.265   2.966  1.0832  1.4658  0.1577
 6864SOL    HW327223   4.929   3.270   2.987  0.8718  2.2490  1.5413
 6864SOL    MW427224   4.849   3.247   3.014 -0.3003  0.2226 -0.1727
 6865SOL     OW27225   3.872   4.433   2.898  0.0182  0.0497  0.0599
 6865SOL    HW227226   3.860   4.411   2.990  1.8691  1.2360  0.6425
 6865SOL    HW327227   3.785   4.461   2.869 -0.8168 -1.2706  1.1365
 6865SOL    MW427228   3.859   4.434   2.906  0.1181 -0.3091 -0.1001
 6866SOL     OW27229   6.411   3.786   4.745  0.3382 -0.3043 -0.2951
 6866SOL    HW227230   6.431   3.856   4.808 -1.4776  0.1424 -0.1393
 6866SOL    HW327231   6.489   3.780   4.690  0.5536  1.8775 -0.3218
 6866SOL    MW427232   6.424   3.795   4.746  0.4205 -0.3816 -0.1132
 6867SOL     OW27233   5.635   4.302   4.471  0.0029 -0.2207  0.5954
 6867SOL    HW227234   5.577   4.324   4.398  0.8109 -0.3925 -0.1061
 6867SOL    HW327235   5.710   4.361   4.461  1.1518 -1.7451 -0.0098
 6867SOL    MW427236   5.637   4.313   4.460 -0.1354  0.0972 -0.0538
 6868SOL     OW27237   4.208   6.341   0.716  0.2242  0.5362  0.1169
 6868SOL    HW227238   4.141   6.381   0.661  1.0367 -1.7098 -2.7784
 6868SOL    HW327239   4.285   6.397   0.706  0.4144  0.0566 -1.2622
 6868SOL    MW427240   4.210   6.353   0.708 -1.4769 -0.2471  0.3299
 6869SOL     OW27241   6.049   3.468   0.032  0.2405 -0.6593 -0.6231
 6869SOL    HW227242   6.027   3.399   0.094  2.1645 -1.1128 -0.3932
 6869SOL    HW327243   6.069   3.422  -0.050 -1.6492 -0.1120 -1.4536
 6869SOL    MW427244   6.049   3.453   0.029  0.4310 -0.6461  0.5107
 6870SOL     OW27245   1.354   5.616   2.313 -0.4203 -0.5590 -0.1275
 6870SOL    HW227246   1.441   5.604   2.351 -0.7926 -1.4888  0.4772
 6870SOL    HW327247   1.298   5.555   2.361 -1.4400  0.1129 -0.4206
 6870SOL    MW427248   1.358   5.606   2.324  0.2202 -0.2836 -0.3102
 6871SOL     OW27249   5.243   6.061   2.758  0.5846 -0.4776  0.6960
 6871SOL    HW227250   5.292   6.143   2.762 -2.0129  1.2700 -0.5341
 6871SOL    HW327251   5.191   6.060   2.837 -0.6470 -0.0382 -0.0838
 6871SOL    MW427252   5.243   6.071   2.769  0.0481 -0.1233 -0.1587
 6872SOL     OW27253   3.274   2.732   1.513  0.1232 -0.0695  0.2220
 6872SOL    HW227254   3.244   2.651   1.553  2.4298 -0.5487  1.1764
 6872SOL    HW327255   3.281   2.794   1.586  0.5910  0.2511 -0.0866
 6872SOL    MW427256   3.271   2.730   1.528 -0.4726 -0.1293  0.0069
 6873SOL     OW27257   3.068   2.779   0.471 -0.3102 -0.4905 -0.3371
 6873SOL    HW227258   2.973   2.778   0.472 -0.3534  0.8485  0.5114
 6873SOL    HW327259   3.093   2.738   0.554 -0.2191  0.8010  0.2941
 6873SOL    MW427260   3.059   2.773   0.482  0.5208  0.0786  0.5334
 6874SOL     OW27261   0.986   0.598   2.386 -0.2396  0.1955  0.2248
 6874SOL    HW227262   0.949   0.567   2.469 -2.0736  2.4159  0.3199
 6874SOL    HW327263   0.964   0.531   2.323 -1.3354 -0.2013  1.0012
 6874SOL    MW427264   0.978   0.585   2.389  0.4432 -0.2473 -0.5539
 6875SOL     OW27265   2.686   0.340   5.457  0.2330 -0.5510  0.0313
 6875SOL    HW227266   2.709   0.259   5.502  1.7471 -0.1915 -0.0436
 6875SOL    HW327267   2.687   0.407   5.525  0.8375 -0.2914 -0.2243
 6875SOL    MW427268   2.689   0.338   5.472  0.4125  0.5119  0.3271
 6876SOL     OW27269   3.006   1.138   0.426 -0.3975  0.3616  0.0405
 6876SOL    HW227270   3.046   1.137   0.339  0.8742 -0.4005  0.6024
 6876SOL    HW327271   3.055   1.072   0.475 -0.1264  1.8138  1.7780
 6876SOL    MW427272   3.017   1.129   0.421  0.2439  0.2311 -0.3296
 6877SOL     OW27273   5.967   1.720   1.134  0.8767  0.1694  0.1436
 6877SOL    HW227274   6.034   1.780   1.100  1.0884  0.5342  1.1799
 6877SOL    HW327275   6.000   1.633   1.113  1.1024  0.3765 -0.3927
 6877SOL    MW427276   5.980   1.717   1.127  0.0409  0.2421  0.3163
 6878SOL     OW27277   6.266   1.300   1.513 -0.4800  0.2209 -0.5308
 6878SOL    HW227278   6.287   1.301   1.607 -1.5697 -1.3340 -0.2343
 6878SOL    HW327279   6.350   1.283   1.471  0.4219  2.9721 -0.0366
 6878SOL    MW427280   6.280   1.298   1.520 -0.2202  0.1650 -0.6126
 6879SOL     OW27281   4.957   5.806   5.073 -0.6384 -0.4541 -0.2152
 6879SOL    HW227282   5.027   5.751   5.038 -1.8567 -1.6661 -0.8568
 6879SOL    HW327283   4.982   5.821   5.164 -0.2303 -2.0706 -0.0243
 6879SOL    MW427284   4.970   5.801   5.080 -0.7117 -0.7650  0.1797
 6880SOL     OW27285   5.732   4.337   2.103 -0.0123 -0.1610 -0.4398
 6880SOL    HW227286   5.813   4.384   2.126  1.9097 -2.1525 -2.5523
 6880SOL    HW327287   5.709   4.288   2.182  0.7533  0.5379  0.2374
 6880SOL    MW427288   5.740   4.337   2.116 -0.4010  0.0976 -0.5385
 6881SOL     OW27289   3.566   0.349   2.900  0.2607 -0.1771 -0.5995
 6881SOL    HW227290   3.639   0.388   2.947  1.4993  0.7775 -3.0858
 6881SOL    HW327291   3.494   0.348   2.963  2.0664 -0.0699  1.5772
 6881SOL    MW427292   3.566   0.354   2.914 -0.0053 -0.3203  0.0176
 6882SOL     OW27293   1.890   3.829   3.293  0.7153  0.4377 -0.3300
 6882SOL    HW227294   1.921   3.739   3.291 -1.8517 -0.5197 -1.3199
 6882SOL    HW327295   1.896   3.859   3.203 -2.9342 -0.5610 -1.0857
 6882SOL    MW427296   1.895   3.821   3.281  0.4924  0.2115  0.0823
 6883SOL     OW27297   4.937   2.299   3.702  0.4343 -0.3813 -0.2653
 6883SOL    HW227298   4.970   2.357   3.770 -0.0481 -1.2349  0.7191
 6883SOL    HW327299   4.896   2.226   3.749 -1.4818 -0.1417 -1.4286
 6883SOL    MW427300   4.936   2.297   3.717  0.5591  0.6790 -0.1151
 6884SOL     OW27301   1.800   1.216   0.630  0.5254 -0.9065 -0.0423
 6884SOL    HW227302   1.818   1.196   0.538 -0.3709  0.7473 -0.6205
 6884SOL    HW327303   1.724   1.163   0.652  0.2218 -0.6775 -0.5240
 6884SOL    MW427304   1.793   1.206   0.621  0.0275  0.1613  0.0413
 6885SOL     OW27305   6.087   3.322   6.236  0.5387  0.0113  0.1115
 6885SOL    HW227306   6.161   3.355   6.186 -0.1337  1.3730 -0.0403
 6885SOL    HW327307   6.083   3.229   6.215  3.1975 -0.5069  1.4190
 6885SOL    MW427308   6.096   3.314   6.227  0.3664  1.1638 -0.1132
 6886SOL     OW27309   5.373   5.672   1.416  0.2663  0.2879  0.0449
 6886SOL    HW227310   5.312   5.667   1.489  1.3735  0.9655  1.0577
 6886SOL    HW327311   5.354   5.755   1.374 -0.6135 -0.2658 -0.6818
 6886SOL    MW427312   5.363   5.682   1.420 -0.2068  0.4272 -0.0657
 6887SOL     OW27313   3.180   1.917   2.755 -0.8652 -0.2094 -0.2273
 6887SOL    HW227314   3.259   1.970   2.767  0.1052 -1.0749 -2.3439
 6887SOL    HW327315   3.109   1.981   2.752 -0.1316  0.6838  0.5240
 6887SOL    MW427316   3.181   1.932   2.757  0.4489 -0.7517  0.0220
 6888SOL     OW27317   5.237   4.213   4.326  0.2102 -0.2668  0.4375
 6888SOL    HW227318   5.234   4.308   4.337  0.5013 -0.3038  0.8896
 6888SOL    HW327319   5.161   4.180   4.373  0.8084 -0.3396  1.3919
 6888SOL    MW427320   5.227   4.221   4.334 -0.7707 -0.0840  0.1644
 6889SOL     OW27321   6.288   2.050   2.905 -0.1465  0.1092  0.0011
 6889SOL    HW227322   6.274   1.957   2.921  1.5971 -0.6203 -2.1192
 6889SOL    HW327323   6.274   2.092   2.990 -0.7010 -2.1088  1.0699
 6889SOL    MW427324   6.284   2.043   2.918 -0.0764  0.1297 -0.2739
 6890SOL     OW27325   2.177   3.709   4.323  0.5542 -0.1052  0.6572
 6890SOL    HW227326   2.093   3.691   4.282  0.4238  0.9714  0.4059
 6890SOL    HW327327   2.155   3.729   4.414  0.1107  3.0647 -0.0201
 6890SOL    MW427328   2.163   3.709   4.329 -0.2110 -0.0012 -0.8026
 6891SOL     OW27329   0.128   2.128   2.849 -0.2522 -0.2633  0.0421
 6891SOL    HW227330   0.038   2.095   2.861 -0.7577  0.6123 -1.1219
 6891SOL    HW327331   0.125   2.218   2.881  0.5994 -0.6641  1.3140
 6891SOL    MW427332   0.116   2.135   2.855  0.4284 -0.4396 -0.8724
 6892SOL     OW27333   2.589   2.432   4.179  0.3755 -0.6037 -0.1456
 6892SOL    HW227334   2.634   2.474   4.106  0.4179  0.6976  0.6011
 6892SOL    HW327335   2.550   2.353   4.141 -0.4414  0.5361 -1.8006
 6892SOL    MW427336   2.590   2.427   4.164  0.1110 -0.0737  0.0430
 6893SOL     OW27337   2.683   0.523   0.317  0.4082  0.7144  0.1032
 6893SOL    HW227338   2.722   0.600   0.360  1.5998 -0.0871  0.4957
 6893SOL    HW327339   2.757   0.467   0.295 -0.4536 -0.3915 -0.0895
 6893SOL    MW427340   2.698   0.526   0.320 -0.0755 -0.1295 -0.2222
 6894SOL     OW27341   6.364   1.101   0.736 -0.3811  0.1778 -0.3451
 6894SOL    HW227342   6.382   1.194   0.750 -2.0433  0.3600  0.8573
 6894SOL    HW327343   6.330   1.070   0.820 -0.0458 -1.4784 -0.7819
 6894SOL    MW427344   6.362   1.109   0.749 -0.3465  0.0061 -0.3490
 6895SOL     OW27345   3.830   1.280   3.471 -0.3320 -0.2437 -0.0157
 6895SOL    HW227346   3.895   1.320   3.414  0.1316 -0.4611  0.3588
 6895SOL    HW327347   3.880   1.229   3.534 -0.9140 -2.2047 -1.0351
 6895SOL    MW427348   3.845   1.278   3.472  0.5285 -0.0245  0.5358
 6896SOL     OW27349   4.262   0.511   5.574  0.5359 -0.9197 -0.0598
 6896SOL    HW227350   4.189   0.541   5.520 -0.1729  1.2134  1.9214
 6896SOL    HW327351   4.340   0.529   5.522 -0.1172  1.2036 -0.3950
 6896SOL    MW427352   4.263   0.517   5.560 -0.1282 -0.1510 -0.3448
 6897SOL     OW27353   1.496   1.460   3.307 -0.1997 -0.3210  0.4318
 6897SOL    HW227354   1.575   1.504   3.336  0.6739 -0.7947 -1.1116
 6897SOL    HW327355   1.472   1.506   3.226 -0.9718 -0.7719  0.3937
 6897SOL    MW427356   1.503   1.472   3.300  0.1946  0.3534  0.2389
 6898SOL     OW27357   4.062   5.446   1.606 -0.3860 -0.2491  0.5914
 6898SOL    HW227358   4.106   5.421   1.687 -2.2251  1.9639  2.4139
 6898SOL    HW327359   3.975   5.408   1.614 -0.4459 -0.4021 -0.6155
 6898SOL    MW427360   4.056   5.438   1.618 -0.0692  0.4421  0.7931
 6899SOL     OW27361   0.121   6.297   4.361 -0.1270 -0.0352  0.3252
 6899SOL    HW227362   0.143   6.320   4.451 -1.1320 -0.7093  0.7573
 6899SOL    HW327363   0.033   6.259   4.366 -0.4129  0.3803 -1.0041
 6899SOL    MW427364   0.113   6.295   4.373 -0.0235  0.7132  0.5929
 6900SOL     OW27365   2.211   4.662   0.132  0.0995  0.5987  0.2586
 6900SOL    HW227366   2.297   4.702   0.118  0.0776  0.2939 -0.8863
 6900SOL    HW327367   2.189   4.625   0.047 -0.3764 -0.8854  1.0065
 6900SOL    MW427368   2.220   4.663   0.119  0.1930 -0.1252 -0.3010
 6901SOL     OW27369   1.584   1.023   4.927  0.6298  0.4279  0.3712
 6901SOL    HW227370   1.679   1.008   4.924  0.4223 -0.8332 -0.6698
 6901SOL    HW327371   1.547   0.938   4.950 -0.3313  0.5666 -0.6258
 6901SOL    MW427372   1.592   1.010   4.930 -0.4689 -0.4958 -0.1679
 6902SOL     OW27373   3.132   3.605   2.819  0.0520  0.1857  0.2960
 6902SOL    HW227374   3.086   3.661   2.882  2.1750  0.8323  1.3484
 6902SOL    HW327375   3.071   3.597   2.745 -1.8853  0.6520  1.7822
 6902SOL    MW427376   3.118   3.611   2.817  0.2707 -0.3397  0.0976
 6903SOL     OW27377   4.695   3.305   3.813 -0.1202 -0.4926  0.3759
 6903SOL    HW227378   4.725   3.356   3.737  2.2776 -0.3816  1.3372
 6903SOL    HW327379   4.602   3.328   3.820  0.2565  1.7744 -0.7775
 6903SOL    MW427380   4.686   3.315   3.804 -0.8841  0.2556  0.1189
 6904SOL     OW27381   3.209   5.170   0.176  0.1598 -0.0673 -0.2504
 6904SOL    HW227382   3.216   5.265   0.186  0.4123 -0.1672  0.6955
 6904SOL    HW327383   3.197   5.138   0.266  0.8611 -0.9852 -0.4673
 6904SOL    MW427384   3.208   5.178   0.189 -0.2131  0.2602  0.0731
 6905SOL     OW27385   0.961   2.960   2.100 -0.4311 -0.3137 -0.1061
 6905SOL    HW227386   1.022   2.969   2.027  0.9738  4.8669  1.2991
 6905SOL    HW327387   1.015   2.970   2.178 -2.6209  1.2648  1.3288
 6905SOL    MW427388   0.976   2.963   2.100  0.2631 -0.4766  0.0440
 6906SOL     OW27389   5.800   0.030   3.402 -0.6212  0.7305 -0.3830
 6906SOL    HW227390   5.754   0.042   3.485 -1.1043  2.3343 -0.8583
 6906SOL    HW327391   5.877  -0.023   3.425 -1.1434  0.5195  0.9453
 6906SOL    MW427392   5.804   0.025   3.416 -0.0836  0.0421  0.4476
 6907SOL     OW27393   3.118   1.236   4.062  0.9082 -0.3159 -0.1688
 6907SOL    HW227394   3.123   1.148   4.100  0.9118  0.1728  1.0003
 6907SOL    HW327395   3.026   1.261   4.073  1.0194  0.0295 -0.0143
 6907SOL    MW427396   3.107   1.228   4.068  0.5260 -0.1046 -0.1618
 6908SOL     OW27397   4.856   0.506   3.515  0.1791  0.1708 -0.1645
 6908SOL    HW227398   4.879   0.566   3.586  0.7102  0.6452 -0.7241
 6908SOL    HW327399   4.775   0.542   3.479 -0.6092 -0.5916  0.7714
 6908SOL    MW427400   4.848   0.519   3.520 -0.1839 -0.8890  0.6026
 6909SOL     OW27401   4.187   2.805   0.335 -0.2140  0.1200  0.4798
 6909SOL    HW227402   4.258   2.740   0.335 -1.1332 -0.9175  0.4027
 6909SOL    HW327403   4.121   2.767   0.393 -0.7363  1.0350  0.4889
 6909SOL    MW427404   4.187   2.791   0.343 -0.2294 -0.1664 -0.1166
 6910SOL     OW27405   5.772   1.219   2.671  0.1502  0.2362 -0.2448
 6910SOL    HW227406   5.822   1.250   2.746  0.9441  0.1366 -0.7180
 6910SOL    HW327407   5.763   1.125   2.685  0.8245  0.1197 -0.5704
 6910SOL    MW427408   5.778   1.211   2.683 -0.1432 -0.5873 -0.3559
 6911SOL     OW27409   5.073   5.965   6.051  0.0250  0.1882  0.2276
 6911SOL    HW227410   5.113   5.919   6.125 -1.1970 -1.6924 -0.2175
 6911SOL    HW327411   4.984   5.984   6.081 -0.5044 -0.6586 -0.7716
 6911SOL    MW427412   5.066   5.961   6.065 -0.6259  0.2504 -0.1713
 6912SOL     OW27413   1.785   0.584   0.558 -0.1092  0.0062  0.2672
 6912SOL    HW227414   1.713   0.595   0.620 -0.6177 -0.3552 -0.2433
 6912SOL    HW327415   1.742   0.562   0.475  0.5364  0.7270 -0.2757
 6912SOL    MW427416   1.770   0.583   0.555 -0.2875  0.0773 -0.0951
 6913SOL     OW27417   6.082   5.506   1.187 -0.1751 -0.3366 -0.0158
 6913SOL    HW227418   6.075   5.587   1.136  0.6097 -0.8480 -0.9784
 6913SOL    HW327419   6.093   5.438   1.121  2.9105 -0.8304  0.8397
 6913SOL    MW427420   6.082   5.508   1.171 -0.1038 -0.1534  0.1039
 6914SOL     OW27421   6.073   2.922   1.312  0.0826 -0.3904  0.4072
 6914SOL    HW227422   6.005   2.869   1.271  1.0716 -1.1215 -0.3483
 6914SOL    HW327423   6.062   2.907   1.406 -0.4801 -0.8867  0.2675
 6914SOL    MW427424   6.062   2.913   1.319  0.2477 -0.2409  0.5263
 6915SOL     OW27425   4.313   4.800   2.201  0.3596 -0.0079  0.1219
 6915SOL    HW227426   4.281   4.806   2.111 -0.8879 -1.1668  0.4607
 6915SOL    HW327427   4.257   4.736   2.243  1.2284  0.1470  1.6169
 6915SOL    MW427428   4.302   4.793   2.195 -0.0988 -0.2553 -0.5138
 6916SOL     OW27429   1.447   0.960   2.296 -0.6611  0.4257 -0.4369
 6916SOL    HW227430   1.465   1.032   2.356  1.2178  0.5975 -1.1313
 6916SOL    HW327431   1.366   0.921   2.329 -1.4450  2.4934  0.2813
 6916SOL    MW427432   1.438   0.964   2.308 -0.6197 -0.0860  0.2433
 6917SOL     OW27433   6.107   3.902   0.441  0.0192 -0.2992 -0.0300
 6917SOL    HW227434   6.109   3.825   0.383  0.7068  0.1133 -0.5669
 6917SOL    HW327435   6.056   3.967   0.391 -1.4047 -0.7018  0.8283
 6917SOL    MW427436   6.100   3.900   0.426  0.1594 -0.3691  0.3978
 6918SOL     OW27437   4.306   2.263   4.048 -0.3731 -0.1205  0.1070
 6918SOL    HW227438   4.376   2.320   4.015 -0.1608  1.3081  2.7935
 6918SOL    HW327439   4.228   2.318   4.049 -0.9793 -0.9362 -0.4388
 6918SOL    MW427440   4.305   2.277   4.044 -0.2255 -0.6770  0.3765
 6919SOL     OW27441   5.042   0.062   0.977 -0.6048  0.1156 -0.1388
 6919SOL    HW227442   4.996  -0.007   1.025  0.4632 -1.0313 -0.7092
 6919SOL    HW327443   5.131   0.028   0.965  0.6958  2.5293  1.5710
 6919SOL    MW427444   5.048   0.048   0.982  0.0768  0.8109 -0.5582
 6920SOL     OW27445   3.355   5.696   5.794 -0.1562 -0.4543 -0.3961
 6920SOL    HW227446   3.284   5.694   5.730  0.7733 -0.2122 -1.4725
 6920SOL    HW327447   3.395   5.609   5.788  0.2911 -0.2409 -0.5679
 6920SOL    MW427448   3.351   5.684   5.785  0.0384  0.4719 -0.0805
 6921SOL     OW27449   0.686   0.472   5.228 -0.0813  0.5037 -0.5461
 6921SOL    HW227450   0.627   0.490   5.301  0.2930  1.5448 -0.4830
 6921SOL    HW327451   0.772   0.461   5.269 -0.3432 -1.9056 -0.5424
 6921SOL    MW427452   0.689   0.473   5.243  0.4521 -0.3051  0.2005
 6922SOL     OW27453   6.050   6.403   3.741  0.2529 -0.5898 -0.2036
 6922SOL    HW227454   6.026   6.495   3.752  2.2972 -0.1524  1.1153
 6922SOL    HW327455   6.065   6.394   3.647 -1.4915 -0.0159 -0.5749
 6922SOL    MW427456   6.049   6.414   3.730 -0.4105  0.3646  0.5159
 6923SOL     OW27457   0.928   4.766   2.469 -0.3142  0.6230 -0.6135
 6923SOL    HW227458   0.883   4.828   2.527 -0.8265 -0.1581 -0.1521
 6923SOL    HW327459   0.962   4.820   2.398 -1.6725  1.3016 -0.7870
 6923SOL    MW427460   0.926   4.781   2.467 -0.0891  0.3780 -0.3240
 6924SOL     OW27461   1.917   4.296   3.916 -0.3242 -0.7783 -0.4487
 6924SOL    HW227462   1.920   4.248   3.998  0.6364  0.5491  0.3159
 6924SOL    HW327463   1.854   4.367   3.932  0.7860  0.2377 -0.3955
 6924SOL    MW427464   1.909   4.299   3.929  0.0750  0.6583  0.7386
 6925SOL     OW27465   5.951   1.138   0.726 -0.6002  0.5790 -0.6487
 6925SOL    HW227466   5.870   1.184   0.749 -0.7221 -0.4477  1.1049
 6925SOL    HW327467   5.926   1.046   0.720  0.2910  0.3357 -0.8278
 6925SOL    MW427468   5.937   1.132   0.728  0.0357  0.1733 -0.2738
 6926SOL     OW27469   0.267   2.360   2.281  0.0846  0.4624 -0.0391
 6926SOL    HW227470   0.306   2.296   2.340  1.2778  0.3912 -0.8635
 6926SOL    HW327471   0.189   2.392   2.328  1.7454  1.4824  2.2304
 6926SOL    MW427472   0.262   2.356   2.295  0.2073  0.1895  0.1888
 6927SOL     OW27473   3.879   1.962   4.693  0.5892 -0.4061 -0.1973
 6927SOL    HW227474   3.942   1.988   4.760  0.4749  1.6547 -0.8004
 6927SOL    HW327475   3.856   2.044   4.649 -1.8430 -1.2018 -0.5788
 6927SOL    MW427476   3.884   1.977   4.696  0.6265  0.7808  0.1938
 6928SOL     OW27477   3.776   2.100   1.280  0.2218  0.0856  0.3537
 6928SOL    HW227478   3.735   2.148   1.353 -0.5123 -1.1982  0.8095
 6928SOL    HW327479   3.846   2.049   1.321 -0.3651 -0.8476  0.2201
 6928SOL    MW427480   3.780   2.100   1.295 -0.1252  0.4959 -0.4370
 6929SOL     OW27481   1.035   3.512   3.162 -0.2348  0.4573  0.2188
 6929SOL    HW227482   1.015   3.418   3.162 -1.1877  0.6073 -1.5162
 6929SOL    HW327483   0.965   3.551   3.214  0.5525  0.1560  1.5242
 6929SOL    MW427484   1.023   3.505   3.169  0.4230 -1.1879 -0.0764
 6930SOL     OW27485   0.191   3.625   2.214 -0.2601  0.1171  0.4862
 6930SOL    HW227486   0.222   3.600   2.127 -0.6573  1.3880 -0.0444
 6930SOL    HW327487   0.250   3.580   2.275 -1.2632 -2.5022 -0.3425
 6930SOL    MW427488   0.203   3.616   2.211  0.4391 -0.3304  0.7120
 6931SOL     OW27489   3.609   0.473   6.262 -0.0747  0.0422 -0.2619
 6931SOL    HW227490   3.616   0.566   6.238  0.0734  0.0609 -0.1536
 6931SOL    HW327491   3.678   0.461   6.327  0.4135 -0.3289 -0.8389
 6931SOL    MW427492   3.619   0.484   6.268 -0.4250 -0.2210  0.0310
 6932SOL     OW27493   1.031   2.576   0.722 -0.2360 -0.1687  0.2858
 6932SOL    HW227494   1.003   2.581   0.813 -0.1056 -1.2864  0.3960
 6932SOL    HW327495   1.091   2.651   0.712  0.8514 -0.8284  1.5206
 6932SOL    MW427496   1.035   2.587   0.733 -0.3860 -0.1873 -0.5821
 6933SOL     OW27497   1.499   5.563   5.901  0.0349  0.7158  0.5664
 6933SOL    HW227498   1.521   5.497   5.836  0.1623  1.2769  0.0277
 6933SOL    HW327499   1.512   5.520   5.986 -2.3181 -0.7894  0.2664
 6933SOL    MW427500   1.503   5.549   5.904  0.0662  0.2612  0.2176
 6934SOL     OW27501   3.132   1.395   3.827 -0.0096  0.0419 -0.0275
 6934SOL    HW227502   3.155   1.335   3.756  0.7171  0.6484 -0.3128
 6934SOL    HW327503   3.150   1.346   3.907  1.8051  0.2873 -0.2365
 6934SOL    MW427504   3.137   1.381   3.828 -0.2017 -0.4529 -0.3340
 6935SOL     OW27505   3.942   5.814   0.661  0.4351 -0.3855  0.2792
 6935SOL    HW227506   3.999   5.874   0.615  0.0671 -1.5739 -1.8305
 6935SOL    HW327507   3.946   5.733   0.611 -1.9301 -0.9678  0.9026
 6935SOL    MW427508   3.950   5.811   0.649  0.6601 -0.3112 -0.0573
 6936SOL     OW27509   4.330   0.712   6.348  0.0377  0.6322  0.1964
 6936SOL    HW227510   4.348   0.634   6.401  1.5116  0.4460 -0.5291
 6936SOL    HW327511   4.406   0.769   6.361  0.8606  0.2331 -2.2769
 6936SOL    MW427512   4.343   0.709   6.357 -0.3390 -0.0762  0.3825
 6937SOL     OW27513   5.725   3.519   2.089  0.0129 -0.1388  0.1351
 6937SOL    HW227514   5.768   3.511   2.174  0.0570 -1.2139  0.0244
 6937SOL    HW327515   5.656   3.453   2.090  1.2094 -1.4851 -1.3462
 6937SOL    MW427516   5.722   3.510   2.100  0.4135  0.2541 -0.1139
 6938SOL     OW27517   4.501   0.754   4.930  0.1020 -0.6573 -0.4605
 6938SOL    HW227518   4.464   0.668   4.913  1.1504 -0.9938 -1.1357
 6938SOL    HW327519   4.594   0.745   4.908  0.5298  0.2455  0.8401
 6938SOL    MW427520   4.509   0.742   4.925  0.0881  0.3977  0.4982
 6939SOL     OW27521   5.501   4.409   2.820  0.1412  1.4569 -0.0952
 6939SOL    HW227522   5.549   4.327   2.812  0.8708  1.7646  0.9280
 6939SOL    HW327523   5.433   4.404   2.752 -1.8242 -1.3441  1.8800
 6939SOL    MW427524   5.499   4.397   2.810 -0.2488 -0.6275 -0.3775
 6940SOL     OW27525   2.721   0.450   0.024  0.1681  0.5381 -0.2255
 6940SOL    HW227526   2.685   0.534   0.053 -2.2466 -0.6961  0.6817
 6940SOL    HW327527   2.723   0.456  -0.071  0.9396  1.9388 -0.1449
 6940SOL    MW427528   2.717   0.462   0.015 -0.0890  0.3719  0.0503
 6941SOL     OW27529   0.750   5.275   5.815 -0.6495  0.7539 -0.2590
 6941SOL    HW227530   0.776   5.313   5.899 -0.2241  1.9434 -0.8953
 6941SOL    HW327531   0.680   5.214   5.836 -0.3931  0.8703  0.9812
 6941SOL    MW427532   0.744   5.272   5.829 -0.1948 -0.4249  0.0611
 6942SOL     OW27533   2.721   1.835   1.377  0.1967  0.1864  0.7992
 6942SOL    HW227534   2.674   1.766   1.424  0.7985 -1.1686 -0.4995
 6942SOL    HW327535   2.697   1.822   1.285  2.0602  0.2743  0.2526
 6942SOL    MW427536   2.712   1.824   1.371  0.6713 -0.0261  0.0551
 6943SOL     OW27537   2.343   5.772   4.882 -0.0480  0.1559 -0.1610
 6943SOL    HW227538   2.383   5.852   4.915 -0.1588  0.5725 -1.0202
 6943SOL    HW327539   2.268   5.756   4.940  1.0441 -0.3657  1.1639
 6943SOL    MW427540   2.338   5.780   4.894  0.4139  0.3959 -0.3979
 6944SOL     OW27541   3.338   5.738   3.474 -0.2417  0.1412 -0.3859
 6944SOL    HW227542   3.315   5.760   3.383 -0.8008  0.8924 -0.0770
 6944SOL    HW327543   3.305   5.812   3.525 -1.0789 -0.8685  0.5698
 6944SOL    MW427544   3.331   5.751   3.469 -0.0643  0.3039  1.0421
 6945SOL     OW27545   3.606   5.744   2.525  0.0450 -0.0457 -0.2454
 6945SOL    HW227546   3.696   5.759   2.498  0.6937  2.1454  2.5986
 6945SOL    HW327547   3.609   5.665   2.579  0.0215 -0.5681 -0.9933
 6945SOL    MW427548   3.618   5.736   2.529 -0.2372 -0.1157 -0.2154
 6946SOL     OW27549   0.678   5.983   0.073  0.0381 -0.3257 -0.3812
 6946SOL    HW227550   0.616   6.047   0.109  0.2703  0.4009 -1.2338
 6946SOL    HW327551   0.754   6.035   0.048 -0.3077 -0.6913 -2.3830
 6946SOL    MW427552   0.680   5.999   0.074  0.0581 -0.6657  0.4435
 6947SOL     OW27553   1.337   3.386   4.087  0.0618 -0.0361  0.2103
 6947SOL    HW227554   1.432   3.376   4.075 -0.0391 -1.1082  0.2221
 6947SOL    HW327555   1.299   3.315   4.036 -0.8803  1.8101 -1.8150
 6947SOL    MW427556   1.345   3.376   4.079  1.1060 -0.1469 -1.0383
 6948SOL     OW27557   4.531   1.302   4.246  0.0676  0.4939  0.3263
 6948SOL    HW227558   4.526   1.313   4.151  1.0153  1.0934  0.3292
 6948SOL    HW327559   4.472   1.370   4.280 -2.8665 -1.7896  0.1528
 6948SOL    MW427560   4.522   1.313   4.238  0.5732 -0.4829  0.5268
 6949SOL     OW27561   5.044   5.081   1.889 -0.3391  0.2116  0.6868
 6949SOL    HW227562   5.091   5.095   1.807  0.4137  0.5641  1.1617
 6949SOL    HW327563   4.959   5.046   1.863  0.1848 -0.4394 -0.1992
 6949SOL    MW427564   5.039   5.078   1.875 -0.0219  0.0456  0.1868
 6950SOL     OW27565   3.791   0.344   2.606 -0.0964 -0.1928  0.6134
 6950SOL    HW227566   3.781   0.303   2.520 -0.3419  0.7985  0.1610
 6950SOL    HW327567   3.779   0.272   2.668 -0.1916 -0.8677 -0.1732
 6950SOL    MW427568   3.788   0.329   2.603 -0.5919 -0.2730  0.5523
 6951SOL     OW27569   3.735   2.394   5.653  0.1306  0.3640 -0.2060
 6951SOL    HW227570   3.667   2.408   5.718  0.9859 -1.4803  1.1787
 6951SOL    HW327571   3.690   2.402   5.569 -1.4186  0.8229  0.6226
 6951SOL    MW427572   3.720   2.397   5.651 -0.2041  0.2994  0.0805
 6952SOL     OW27573   4.096   3.010   5.128  0.0293  0.2038 -0.1005
 6952SOL    HW227574   4.163   3.008   5.059  0.2171 -1.5289  0.0855
 6952SOL    HW327575   4.028   2.949   5.097 -0.7408  0.7671  0.4364
 6952SOL    MW427576   4.096   3.001   5.115 -0.1051 -0.1376  0.3158
 6953SOL     OW27577   4.454   2.133   2.326 -0.3354  0.0803  0.2669
 6953SOL    HW227578   4.546   2.146   2.348 -0.0156 -1.0541 -0.3044
 6953SOL    HW327579   4.446   2.171   2.238 -0.2901 -0.2550  0.1168
 6953SOL    MW427580   4.465   2.140   2.317  0.1317  0.0412  0.2990
 6954SOL     OW27581   4.421   4.343   1.005 -0.0696 -0.3136 -0.2014
 6954SOL    HW227582   4.515   4.341   1.027 -0.2393 -1.2591  0.4777
 6954SOL    HW327583   4.414   4.291   0.925  0.1521  0.8423 -1.0030
 6954SOL    MW427584   4.433   4.336   0.997  0.3946  0.2942 -0.6038
 6955SOL     OW27585   1.090   0.882   0.074 -0.3199 -0.1559 -0.2870
 6955SOL    HW227586   1.106   0.860   0.166 -0.7957  1.7781  0.3052
 6955SOL    HW327587   0.997   0.863   0.060 -0.2674 -0.3695 -0.3531
 6955SOL    MW427588   1.080   0.876   0.084 -0.5035 -0.0423 -0.6950
 6956SOL     OW27589   1.206   3.777   5.323 -0.2016  0.2504 -0.3334
 6956SOL    HW227590   1.245   3.691   5.339 -0.2155  0.1549 -0.7831
 6956SOL    HW327591   1.112   3.760   5.324 -0.3408  0.8059  2.5883
 6956SOL    MW427592   1.199   3.763   5.325 -0.2958  0.3589 -0.1860
 6957SOL     OW27593   6.065   2.686   2.259  0.4736  0.3472 -0.4282
 6957SOL    HW227594   6.102   2.763   2.301  1.3824 -1.1264  1.6956
 6957SOL    HW327595   6.140   2.645   2.214  1.2447 -1.6617  2.3543
 6957SOL    MW427596   6.080   2.691   2.259 -0.6693 -0.0417  0.7584
 6958SOL     OW27597   3.495   1.975   0.748  0.6565  0.2179 -0.5758
 6958SOL    HW227598   3.519   1.979   0.656  1.1845 -2.7585 -0.6451
 6958SOL    HW327599   3.404   1.945   0.748  0.2291  1.4248 -0.0986
 6958SOL    MW427600   3.486   1.972   0.736  0.3850  0.4940 -0.3643
 6959SOL     OW27601   5.509   1.142   1.369 -0.5382  0.0860  0.0697
 6959SOL    HW227602   5.487   1.234   1.385  2.0381  0.6169  1.0285
 6959SOL    HW327603   5.519   1.104   1.456  0.1706 -0.6419 -0.3183
 6959SOL    MW427604   5.507   1.149   1.383 -0.2814 -0.0983 -0.0900
 6960SOL     OW27605   1.804   2.097   1.869  0.3356  0.0155  0.0529
 6960SOL    HW227606   1.817   2.163   1.801  0.3818 -0.1767 -0.1279
 6960SOL    HW327607   1.821   2.014   1.824 -1.7407 -0.2859 -0.2876
 6960SOL    MW427608   1.808   2.095   1.854  0.2279  0.3125 -0.2147
 6961SOL     OW27609   5.374   3.246   0.307 -0.2998  0.2821  0.1599
 6961SOL    HW227610   5.354   3.194   0.229  1.1785  0.9481 -0.7214
 6961SOL    HW327611   5.351   3.336   0.282 -0.6883  0.3689  0.8284
 6961SOL    MW427612   5.368   3.251   0.293  0.0182  0.4680 -0.4094
 6962SOL     OW27613   4.922   0.003   3.613  0.0298 -0.4534  0.1468
 6962SOL    HW227614   4.889   0.047   3.534  1.5220 -0.6677 -0.6431
 6962SOL    HW327615   4.920   0.070   3.681 -0.1031  0.1039 -0.3981
 6962SOL    MW427616   4.918   0.017   3.611  0.2263  0.6746 -0.3784
 6963SOL     OW27617   2.306   2.564   0.028 -0.1888 -0.2543  0.2933
 6963SOL    HW227618   2.284   2.473   0.014 -0.6391 -0.1179  0.1169
 6963SOL    HW327619   2.363   2.587  -0.046 -1.2930  0.0255 -0.4846
 6963SOL    MW427620   2.311   2.555   0.016 -0.7679  0.6954 -0.5847
 6964SOL     OW27621   4.601   3.252   5.628  0.9760  0.2364 -0.1408
 6964SOL    HW227622   4.632   3.163   5.611  0.0147 -0.6542  2.2709
 6964SOL    HW327623   4.566   3.283   5.545  3.0881 -0.8622 -1.5081
 6964SOL    MW427624   4.600   3.245   5.615  0.4859 -0.0338 -0.2496
 6965SOL     OW27625   6.128   1.913   4.741  0.4722  0.2179 -0.3687
 6965SOL    HW227626   6.098   1.984   4.685 -0.8165  1.3177  1.5934
 6965SOL    HW327627   6.200   1.950   4.792  1.4518 -0.6817 -1.0495
 6965SOL    MW427628   6.133   1.927   4.741 -0.0008 -0.6303 -0.3951
 6966SOL     OW27629   3.741   0.994   5.347 -0.2168 -0.1182  0.0345
 6966SOL    HW227630   3.835   1.001   5.365 -0.3077 -1.1885  1.0899
 6966SOL    HW327631   3.732   1.022   5.256  0.9642  1.0402  0.2252
 6966SOL    MW427632   3.752   0.999   5.338 -0.1189  0.3364 -0.0881
 6967SOL     OW27633   0.315   0.346   0.212 -0.4271  0.3143 -0.1320
 6967SOL    HW227634   0.354   0.304   0.289 -1.0815  2.0195  1.1971
 6967SOL    HW327635   0.236   0.295   0.194 -0.4626  0.1125  0.5692
 6967SOL    MW427636   0.310   0.334   0.220 -0.2185  0.4786  0.1401
 6968SOL     OW27637   2.747   6.021   1.049 -0.3110  0.4142  0.7202
 6968SOL    HW227638   2.765   6.021   0.955  0.7894 -0.0648  0.9123
 6968SOL    HW327639   2.833   6.030   1.090 -0.7431  0.3141  1.6860
 6968SOL    MW427640   2.761   6.022   1.042  0.1802 -0.0461  0.1574
 6969SOL     OW27641   6.334   5.234   2.926 -0.1665  0.4130  0.1427
 6969SOL    HW227642   6.327   5.228   3.021  1.5439  2.3026  0.4441
 6969SOL    HW327643   6.416   5.280   2.911  0.1971 -0.8701 -2.3040
 6969SOL    MW427644   6.344   5.239   2.937  0.0462  0.1712 -0.3533
 6970SOL     OW27645   1.635   1.372   2.249  0.0453  0.6948  0.2019
 6970SOL    HW227646   1.554   1.323   2.263 -0.2404  1.5092  1.6144
 6970SOL    HW327647   1.673   1.333   2.171 -1.5779  0.1176 -0.3485
 6970SOL    MW427648   1.629   1.360   2.241 -0.4158 -0.1348 -0.1366
 6971SOL     OW27649   5.175   4.395   5.028  0.7476 -0.5606  0.3801
 6971SOL    HW227650   5.123   4.383   4.948 -0.8247  2.2205  0.8481
 6971SOL    HW327651   5.244   4.330   5.021  0.8376 -0.3036 -3.3926
 6971SOL    MW427652   5.177   4.385   5.017  0.5696 -0.2393 -0.6129
 6972SOL     OW27653   2.275   2.081   0.217  0.0098 -0.2267 -0.6220
 6972SOL    HW227654   2.267   1.995   0.176 -0.6990 -0.5100  0.0803
 6972SOL    HW327655   2.213   2.078   0.290  0.0630  0.8448 -0.5272
 6972SOL    MW427656   2.266   2.069   0.221 -0.2958  0.0909  0.5652
 6973SOL     OW27657   3.948   2.704   4.839 -0.1736 -0.0210  0.6657
 6973SOL    HW227658   4.030   2.735   4.801 -0.4631 -0.9108 -0.7258
 6973SOL    HW327659   3.938   2.757   4.918  1.0263  1.0806  0.1249
 6973SOL    MW427660   3.958   2.715   4.845 -0.0548  0.3452 -0.6107
 6974SOL     OW27661   2.089   2.805   2.301  1.0902  0.0972 -0.0722
 6974SOL    HW227662   2.139   2.763   2.231 -0.4049  0.8743 -1.6650
 6974SOL    HW327663   2.037   2.734   2.339  0.0060  0.1031 -1.4777
 6974SOL    MW427664   2.089   2.790   2.297 -0.3552 -0.0360  0.0372
 6975SOL     OW27665   2.124   0.841   4.288 -0.2827 -0.2239  0.4039
 6975SOL    HW227666   2.147   0.821   4.378  0.5386  0.9183  0.4720
 6975SOL    HW327667   2.053   0.905   4.294 -0.2068 -0.1218  0.2394
 6975SOL    MW427668   2.118   0.847   4.300  0.5787 -0.3919  0.0662
 6976SOL     OW27669   3.427   3.907   3.946 -0.1063  0.4758  0.1657
 6976SOL    HW227670   3.336   3.886   3.927  0.7165 -2.5410 -1.1517
 6976SOL    HW327671   3.447   3.858   4.026  0.5118  0.5755  0.0810
 6976SOL    MW427672   3.418   3.897   3.954  0.3416  0.0883  0.6497
 6977SOL     OW27673   2.994   2.877   6.390 -0.2924 -0.2979 -0.5659
 6977SOL    HW227674   2.939   2.910   6.318  0.2028  1.1115 -0.3351
 6977SOL    HW327675   2.934   2.827   6.445 -1.2165  0.6618 -0.6689
 6977SOL    MW427676   2.979   2.875   6.387 -0.2461 -0.7150 -0.2593
 6978SOL     OW27677   4.613   1.649   3.995  0.4958 -0.4891 -0.1001
 6978SOL    HW227678   4.540   1.707   4.015 -1.5434 -3.1452  0.7308
 6978SOL    HW327679   4.653   1.686   3.917 -3.2249 -0.1380 -2.0481
 6978SOL    MW427680   4.609   1.661   3.987 -0.6241  0.0807  0.2665
 6979SOL     OW27681   5.549   4.529   3.100  0.3258 -0.0983 -0.5368
 6979SOL    HW227682   5.602   4.608   3.092  3.0064 -1.9412 -2.3144
 6979SOL    HW327683   5.524   4.507   3.010 -0.0222 -1.4884 -0.1267
 6979SOL    MW427684   5.553   4.536   3.087 -0.8440 -0.0331  0.2696
 6980SOL     OW27685   0.807   3.459   3.336  0.5257 -0.8740  0.2542
 6980SOL    HW227686   0.760   3.433   3.256 -0.4500 -0.3108  0.6219
 6980SOL    HW327687   0.738   3.464   3.403  1.0954  0.1159  0.7821
 6980SOL    MW427688   0.791   3.456   3.334 -0.2952  0.4079 -0.4177
 6981SOL     OW27689   5.024   4.063   6.306  0.0251 -0.4019 -0.1901
 6981SOL    HW227690   5.020   4.154   6.335  0.3568 -0.3090 -0.4333
 6981SOL    HW327691   5.079   4.065   6.228 -0.5826 -0.7009 -0.6329
 6981SOL    MW427692   5.031   4.075   6.300  0.1653  0.0800 -0.2072
 6982SOL     OW27693   5.311   5.745   4.505 -0.0275  0.2138  0.4980
 6982SOL    HW227694   5.246   5.716   4.441  0.4786  0.0598  0.0509
 6982SOL    HW327695   5.379   5.679   4.502 -0.3584 -0.2139  1.7706
 6982SOL    MW427696   5.311   5.733   4.496 -0.6972  0.1368 -0.2318
 6983SOL     OW27697   3.818   5.827   5.837 -0.2433 -0.3426 -0.7525
 6983SOL    HW227698   3.856   5.739   5.836 -0.3824 -0.4056 -1.4666
 6983SOL    HW327699   3.734   5.817   5.792 -1.6469 -0.4209  1.6833
 6983SOL    MW427700   3.812   5.814   5.831  0.2096  0.5470  0.2149
 6984SOL     OW27701   5.516   0.592   5.838 -0.1282  0.2837 -0.2447
 6984SOL    HW227702   5.445   0.639   5.794 -1.3526 -2.4727 -1.4376
 6984SOL    HW327703   5.481   0.572   5.925 -0.7991 -0.8624 -0.7490
 6984SOL    MW427704   5.502   0.596   5.844  0.2806  0.2054  0.3041
 6985SOL     OW27705   2.364   0.325   4.827 -0.5286 -0.4541  0.6691
 6985SOL    HW227706   2.447   0.344   4.785 -0.2471 -0.7944  1.0571
 6985SOL    HW327707   2.379   0.343   4.920 -1.4598  1.3665  0.5115
 6985SOL    MW427708   2.377   0.330   4.834 -0.6610  0.5522 -0.2000
 6986SOL     OW27709   5.890   4.737   5.722 -0.4122 -0.1100  0.2916
 6986SOL    HW227710   5.823   4.703   5.663  0.5798 -0.0543 -0.9061
 6986SOL    HW327711   5.864   4.705   5.808 -1.3574 -1.0460 -0.3108
 6986SOL    MW427712   5.877   4.728   5.725 -0.2807  0.0112  0.4647
 6987SOL     OW27713   3.506   0.019   6.319 -0.7068 -0.2078 -0.2635
 6987SOL    HW227714   3.597  -0.006   6.305 -0.2316  0.1678  1.7671
 6987SOL    HW327715   3.467  -0.058   6.361 -1.3288 -0.3668 -1.1268
 6987SOL    MW427716   3.513   0.005   6.323  0.0359 -0.2679 -0.6112
 6988SOL     OW27717   1.461   1.287   4.947 -0.2928 -0.2569 -0.1381
 6988SOL    HW227718   1.525   1.220   4.968 -1.3306 -0.9254  0.9928
 6988SOL    HW327719   1.501   1.337   4.876  1.5598 -0.5005  0.6900
 6988SOL    MW427720   1.474   1.285   4.940  0.0927  0.0865  0.6043
 6989SOL     OW27721   4.242   2.356   1.335  0.8594  0.0665  0.2286
 6989SOL    HW227722   4.323   2.407   1.345  1.8012 -1.4689  0.7676
 6989SOL    HW327723   4.219   2.330   1.424 -0.6814  1.1102  0.1621
 6989SOL    MW427724   4.250   2.359   1.348 -0.4026  0.2074 -0.7631
 6990SOL     OW27725   4.422   3.092   0.451  0.2144  0.0104 -0.1185
 6990SOL    HW227726   4.454   3.141   0.527  1.3867 -0.5742 -0.2227
 6990SOL    HW327727   4.340   3.052   0.481  0.5955 -0.1055  0.7882
 6990SOL    MW427728   4.415   3.093   0.465  0.1677 -0.6026  0.6120
 6991SOL     OW27729   2.001   3.651   6.399  0.8249  0.8070  0.4766
 6991SOL    HW227730   1.934   3.621   6.338  2.0958  0.3293 -0.7715
 6991SOL    HW327731   2.010   3.579   6.462 -0.8506  1.5164  1.5762
 6991SOL    MW427732   1.994   3.638   6.399 -0.0845 -0.4094  0.8902
 6992SOL     OW27733   3.158   0.126   3.363  0.1850  0.0072  0.0008
 6992SOL    HW227734   3.249   0.097   3.351  0.7244  0.7613  2.0005
 6992SOL    HW327735   3.130   0.150   3.274  2.4224  1.1431 -0.4939
 6992SOL    MW427736   3.167   0.125   3.349 -0.2358 -0.4574 -0.1040
 6993SOL     OW27737   2.079   5.626   5.496  0.2013 -0.3282 -0.3746
 6993SOL    HW227738   2.045   5.714   5.510 -0.4173 -0.6722  0.3374
 6993SOL    HW327739   2.034   5.595   5.417  1.6984  0.6071 -1.6709
 6993SOL    MW427740   2.068   5.633   5.487  0.2174  0.0814 -0.2913
 6994SOL     OW27741   0.163   3.279   3.933  0.0504 -0.1836 -0.4258
 6994SOL    HW227742   0.119   3.363   3.949 -1.8167 -1.4194  1.3881
 6994SOL    HW327743   0.245   3.303   3.890 -0.4502  2.5608 -0.0324
 6994SOL    MW427744   0.168   3.294   3.929 -0.5402  0.4716  0.0504
 6995SOL     OW27745   0.807   1.453   5.056  0.0321  0.5983  0.1910
 6995SOL    HW227746   0.855   1.451   5.139  0.4536  2.9530  0.0756
 6995SOL    HW327747   0.732   1.510   5.073  0.6024  1.8452 -1.2257
 6995SOL    MW427748   0.803   1.461   5.069 -0.7889 -0.6157 -0.5447
 6996SOL     OW27749   6.199   4.463   5.123  0.5608  0.2639 -0.1667
 6996SOL    HW227750   6.114   4.469   5.166 -0.5656 -0.3593 -2.1785
 6996SOL    HW327751   6.204   4.542   5.069  1.3466  0.3795  0.0587
 6996SOL    MW427752   6.189   4.474   5.121  0.0643 -0.3176 -0.2914
 6997SOL     OW27753   1.870   2.719   4.793  0.1673 -0.4202 -1.0749
 6997SOL    HW227754   1.894   2.626   4.801  0.2505 -0.4653 -1.8163
 6997SOL    HW327755   1.777   2.718   4.770  0.1178 -0.3106 -0.8823
 6997SOL    MW427756   1.861   2.707   4.791  0.5608 -0.8064  0.3117
 6998SOL     OW27757   1.723   3.361   4.309  0.0200  0.1255  0.1259
 6998SOL    HW227758   1.689   3.351   4.220 -1.9139 -0.4462  0.8669
 6998SOL    HW327759   1.817   3.345   4.301 -0.2408 -0.8011 -1.6654
 6998SOL    MW427760   1.731   3.358   4.296 -0.7751  0.0384  0.2527
 6999SOL     OW27761   5.854   0.471   6.111 -0.2847 -0.3173 -0.7216
 6999SOL    HW227762   5.834   0.535   6.043 -0.5315  0.8417  0.4198
 6999SOL    HW327763   5.927   0.420   6.075  0.6974  1.3572 -1.1899
 6999SOL    MW427764   5.861   0.473   6.097  0.3400 -0.3036  0.3071
 7000SOL     OW27765   5.625   0.682   0.753 -0.6318 -0.4533 -0.2119
 7000SOL    HW227766   5.637   0.647   0.841  0.8345 -0.4361 -0.3803
 7000SOL    HW327767   5.535   0.658   0.729 -0.1990 -2.7384  0.2804
 7000SOL    MW427768   5.615   0.674   0.761  0.2608  0.2096 -0.2156
 7001SOL     OW27769   2.514   2.645   4.742 -0.2885 -0.0982 -0.2646
 7001SOL    HW227770   2.433   2.595   4.734 -0.8574  0.6323  0.7096
 7001SOL    HW327771   2.490   2.722   4.793  0.6431  1.0305 -1.4856
 7001SOL    MW427772   2.500   2.648   4.748 -0.4802  1.1483 -0.0754
 7002SOL     OW27773   5.532   2.627   4.966 -0.3980  0.4125 -0.6423
 7002SOL    HW227774   5.496   2.552   4.918  0.5760  1.0841 -2.5042
 7002SOL    HW327775   5.619   2.641   4.929  2.3043 -1.5173  4.0630
 7002SOL    MW427776   5.539   2.619   4.955 -0.1717 -0.3079  0.1381
 7003SOL     OW27777   6.282   3.139   0.071 -0.1648 -0.0191  0.1782
 7003SOL    HW227778   6.201   3.190   0.071  0.5610  1.2122  1.5327
 7003SOL    HW327779   6.330   3.170   0.148  1.7992 -0.3645 -0.8416
 7003SOL    MW427780   6.278   3.150   0.081  0.1567 -0.2926  0.3190
 7004SOL     OW27781   4.566   3.431   2.048  0.1870  0.3040  0.6855
 7004SOL    HW227782   4.551   3.385   2.131  0.9452 -1.0367  0.1161
 7004SOL    HW327783   4.656   3.463   2.054  0.1668  0.4022  0.4637
 7004SOL    MW427784   4.576   3.429   2.060  0.6818  0.8101  0.9236
 7005SOL     OW27785   1.162   1.471   5.895  0.1006  0.2107 -0.6961
 7005SOL    HW227786   1.225   1.537   5.865 -0.2374 -0.2935 -2.6704
 7005SOL    HW327787   1.211   1.417   5.956  1.1869  0.6505 -1.1382
 7005SOL    MW427788   1.177   1.473   5.899 -0.2212  0.5980  0.1561
 7006SOL     OW27789   6.332   2.167   4.118 -0.4142  0.2049  0.0411
 7006SOL    HW227790   6.420   2.136   4.095 -0.5004  0.8838 -1.2702
 7006SOL    HW327791   6.338   2.262   4.115 -0.8819  0.2990  1.2417
 7006SOL    MW427792   6.344   2.175   4.115  0.5750 -0.0914  0.0368
 7007SOL     OW27793   0.791   5.230   2.069  0.3823 -0.0649  0.1158
 7007SOL    HW227794   0.777   5.244   2.162  3.4394 -1.8884  1.0157
 7007SOL    HW327795   0.780   5.136   2.056  0.2935  0.1086 -1.3108
 7007SOL    MW427796   0.788   5.220   2.079 -0.1431 -0.2628  0.1171
 7008SOL     OW27797   2.137   3.162   0.865 -0.8971 -0.3150 -0.0167
 7008SOL    HW227798   2.105   3.144   0.777 -1.7230  1.8404 -0.2090
 7008SOL    HW327799   2.059   3.161   0.920 -0.2631 -2.9266  1.0330
 7008SOL    MW427800   2.123   3.159   0.861 -0.4721 -0.4774  0.2857
 7009SOL     OW27801   3.336   0.242   5.429 -0.1576  0.4057  0.6539
 7009SOL    HW227802   3.243   0.218   5.421  0.0171  0.1541 -1.2013
 7009SOL    HW327803   3.340   0.297   5.507 -1.6737 -0.4583  1.3823
 7009SOL    MW427804   3.324   0.246   5.438  0.6674 -0.4745 -0.7728
 7010SOL     OW27805   4.645   4.748   3.035  0.1666 -0.1279  0.8443
 7010SOL    HW227806   4.686   4.662   3.031  0.7920  0.2224 -1.1881
 7010SOL    HW327807   4.689   4.799   2.967 -0.8654  1.5139  1.3468
 7010SOL    MW427808   4.656   4.743   3.026 -0.0273 -0.1233  1.0459
 7011SOL     OW27809   1.729   1.223   0.106 -0.0850 -0.8314  0.4363
 7011SOL    HW227810   1.814   1.249   0.073 -0.6937 -1.3679 -1.7007
 7011SOL    HW327811   1.701   1.295   0.163  1.6102 -0.4957  0.8772
 7011SOL    MW427812   1.736   1.236   0.109 -0.4504  0.2504  0.1693
 7012SOL     OW27813   6.069   0.245   2.088  0.2224  0.6005 -0.4045
 7012SOL    HW227814   6.108   0.203   2.164 -0.7793  0.6570  0.1684
 7012SOL    HW327815   5.978   0.261   2.114  0.2917  2.1745 -0.9775
 7012SOL    MW427816   6.062   0.242   2.102  0.5597  0.7008 -0.2770
 7013SOL     OW27817   4.209   5.098   0.378  0.2372 -0.4012  0.1476
 7013SOL    HW227818   4.252   5.013   0.389 -0.2508 -0.4945  1.5908
 7013SOL    HW327819   4.255   5.156   0.440 -0.4060  0.0049  0.2543
 7013SOL    MW427820   4.221   5.095   0.388 -0.4150  0.3221 -0.4281
 7014SOL     OW27821   4.476   2.909   3.290  0.3260  0.1435  0.4679
 7014SOL    HW227822   4.566   2.886   3.312  0.0953 -1.4333 -0.0946
 7014SOL    HW327823   4.444   2.835   3.239 -0.2977  2.0117 -2.0586
 7014SOL    MW427824   4.484   2.896   3.286  0.4870 -0.0775 -0.3936
 7015SOL     OW27825   1.562   5.723   3.257 -0.1308 -0.3870  0.0111
 7015SOL    HW227826   1.593   5.706   3.168  0.8314 -3.4021  0.7999
 7015SOL    HW327827   1.607   5.803   3.284 -1.8894  1.7102 -2.7586
 7015SOL    MW427828   1.572   5.731   3.249  0.8650 -0.0887 -0.0237
 7016SOL     OW27829   1.708   4.345   0.718  0.1041  0.0623  0.5811
 7016SOL    HW227830   1.798   4.378   0.711  0.5100 -1.0139  0.5754
 7016SOL    HW327831   1.714   4.270   0.777 -0.6830 -0.3850  0.1092
 7016SOL    MW427832   1.721   4.339   0.725 -0.0836 -0.0948 -0.0728
 7017SOL     OW27833   2.266   2.627   1.880  0.4022  0.8142  0.4993
 7017SOL    HW227834   2.321   2.705   1.888  1.0217  0.4099  0.2729
 7017SOL    HW327835   2.246   2.602   1.970  3.7862 -1.2434  0.8440
 7017SOL    MW427836   2.270   2.634   1.893 -0.4910  0.1844  0.3386
 7018SOL     OW27837   0.910   5.866   4.159  0.0132  0.1716  0.1825
 7018SOL    HW227838   0.932   5.832   4.072  0.8589 -0.7620  0.7460
 7018SOL    HW327839   0.818   5.844   4.171 -0.0141 -0.0070 -0.3326
 7018SOL    MW427840   0.901   5.859   4.149  0.3662 -0.7514  0.4717
 7019SOL     OW27841   1.745   4.685   2.097  0.0221  0.0638 -0.1646
 7019SOL    HW227842   1.668   4.718   2.051 -0.9157 -0.3139  1.0735
 7019SOL    HW327843   1.790   4.631   2.033 -1.1019 -0.2344 -0.7342
 7019SOL    MW427844   1.741   4.682   2.083 -0.5234 -0.0280  0.6531
 7020SOL     OW27845   1.749   2.841   5.978  0.2241  0.1599  0.5289
 7020SOL    HW227846   1.732   2.781   5.905 -0.3836  0.6657  0.2505
 7020SOL    HW327847   1.779   2.784   6.049 -1.3850 -0.6342  0.6186
 7020SOL    MW427848   1.750   2.825   5.978  0.0872 -0.4636 -0.2348
 7021SOL     OW27849   0.005   0.006   1.566  0.1534  0.3178 -0.2530
 7021SOL    HW227850   0.018  -0.080   1.605 -1.5231  0.2253  0.1645
 7021SOL    HW327851  -0.049  -0.009   1.489  0.2949  0.9501 -0.4886
 7021SOL    MW427852   0.000  -0.007   1.561 -0.0235 -0.3981  0.1428
 7022SOL     OW27853   3.946   3.610   1.993 -0.1490 -0.4688  0.2119
 7022SOL    HW227854   3.859   3.579   2.018 -0.1675 -0.4016  0.2342
 7022SOL    HW327855   3.940   3.630   1.900 -0.3450  0.1607  0.3571
 7022SOL    MW427856   3.934   3.609   1.984  0.1503 -0.4943 -0.3147
 7023SOL     OW27857   5.964   5.812   1.994  0.5167 -0.1616 -0.2607
 7023SOL    HW227858   5.912   5.870   1.938  0.7924 -0.0671 -0.4180
 7023SOL    HW327859   5.987   5.866   2.069 -0.4928 -0.5072  0.3174
 7023SOL    MW427860   5.960   5.827   1.996  0.5128 -0.3387 -0.2409
 7024SOL     OW27861   5.087   0.314   2.294 -0.2755 -0.3912  0.1997
 7024SOL    HW227862   5.001   0.353   2.278  0.4360  0.4814 -1.8215
 7024SOL    HW327863   5.070   0.220   2.294 -1.0188 -0.3273 -2.0814
 7024SOL    MW427864   5.073   0.307   2.292 -0.1556 -0.0429 -0.3321
 7025SOL     OW27865   5.987   2.827   1.573  0.2424  0.4171  0.5917
 7025SOL    HW227866   6.002   2.904   1.628 -0.9475  0.6281  0.6308
 7025SOL    HW327867   6.035   2.757   1.618 -0.2846  0.6976  1.6197
 7025SOL    MW427868   5.996   2.828   1.586  0.1317 -0.3843 -0.7917
 7026SOL     OW27869   0.699   4.300   1.560  0.2158  0.6139 -0.7116
 7026SOL    HW227870   0.626   4.243   1.534  0.1834  0.4141 -0.2023
 7026SOL    HW327871   0.656   4.379   1.592  0.1677  0.1868  0.3497
 7026SOL    MW427872   0.683   4.303   1.561 -0.3603  0.2814  0.1456
 7027SOL     OW27873   0.686   0.418   4.156  0.1807 -0.0232  0.2021
 7027SOL    HW227874   0.778   0.439   4.168 -0.0584  0.6963  0.8465
 7027SOL    HW327875   0.653   0.406   4.245 -0.3659 -0.1978 -0.0203
 7027SOL    MW427876   0.694   0.419   4.169 -0.2951 -0.4042  0.2154
 7028SOL     OW27877   2.897   3.039   4.090  0.2099 -0.0964 -0.4145
 7028SOL    HW227878   2.971   3.041   4.029  0.9661  2.4071  0.4325
 7028SOL    HW327879   2.862   2.950   4.084  1.7760 -0.6334 -2.6353
 7028SOL    MW427880   2.902   3.028   4.081 -0.1052 -0.1365 -0.6079
 7029SOL     OW27881   5.451   1.044   2.055  0.3369 -0.4777  0.1301
 7029SOL    HW227882   5.412   1.037   1.967  1.2145  0.1075 -0.3237
 7029SOL    HW327883   5.464   1.138   2.067  0.2771 -0.5611  0.8740
 7029SOL    MW427884   5.448   1.056   2.045 -0.4857  0.3063  0.0416
 7030SOL     OW27885   3.402   5.171   5.916 -0.0179  0.1198  0.2069
 7030SOL    HW227886   3.361   5.086   5.929  0.5243 -0.1992 -0.1305
 7030SOL    HW327887   3.476   5.172   5.977  0.7088 -0.1554 -0.6415
 7030SOL    MW427888   3.407   5.160   5.926 -0.0863 -0.6007  0.3277
 7031SOL     OW27889   3.746   3.226   3.877  0.1432  0.1020  0.3313
 7031SOL    HW227890   3.701   3.153   3.833 -0.2161 -0.3840  1.4627
 7031SOL    HW327891   3.829   3.234   3.831 -1.1836  1.2284 -2.0398
 7031SOL    MW427892   3.751   3.217   3.865  0.3378 -0.4448 -0.6461
 7032SOL     OW27893   2.490   1.396   2.033 -0.0063  0.0143  0.0725
 7032SOL    HW227894   2.414   1.398   2.091  0.6822 -0.3158  0.9969
 7032SOL    HW327895   2.460   1.348   1.955 -0.6324 -0.4540  0.5964
 7032SOL    MW427896   2.476   1.390   2.030  0.5897  0.4053  0.6050
 7033SOL     OW27897   1.913   3.585   3.994  0.4195  0.0204 -0.8235
 7033SOL    HW227898   1.975   3.606   3.924  2.2531  0.4662  0.8473
 7033SOL    HW327899   1.924   3.491   4.008 -2.1005 -0.7092 -3.0267
 7033SOL    MW427900   1.923   3.576   3.987  0.0725  0.4240  0.4485
 7034SOL     OW27901   1.511   4.725   1.535  0.1237  0.5786 -0.2366
 7034SOL    HW227902   1.568   4.765   1.469  0.3421 -0.4551 -0.6889
 7034SOL    HW327903   1.569   4.709   1.610 -0.4299  3.1728  0.8870
 7034SOL    MW427904   1.526   4.728   1.536 -0.3874  0.5702  0.3772
 7035SOL     OW27905   2.613   5.732   2.140  0.0843 -0.1402  0.3448
 7035SOL    HW227906   2.647   5.796   2.078 -0.1000  0.5551  0.9519
 7035SOL    HW327907   2.662   5.652   2.121  0.7306  0.3371 -0.0330
 7035SOL    MW427908   2.624   5.730   2.129 -0.4685 -0.1331 -0.8662
 7036SOL     OW27909   0.573   4.534   1.631  0.5041  0.0686 -0.1247
 7036SOL    HW227910   0.551   4.582   1.711  0.9299 -2.0704  1.3581
 7036SOL    HW327911   0.598   4.602   1.569  0.1393  1.8149  1.5273
 7036SOL    MW427912   0.573   4.550   1.633  0.1961 -0.7304  0.1923
 7037SOL     OW27913   3.139   5.546   5.002  0.4766  0.3125 -0.2538
 7037SOL    HW227914   3.148   5.521   4.910  1.0734  1.0308 -0.4043
 7037SOL    HW327915   3.222   5.520   5.042 -0.0810 -0.7193  0.2680
 7037SOL    MW427916   3.151   5.539   4.995 -0.1394 -0.1722 -0.3446
 7038SOL     OW27917   4.892   1.164   1.457  0.5732  0.1368 -0.2002
 7038SOL    HW227918   4.886   1.069   1.459  1.4131  0.0696  1.7023
 7038SOL    HW327919   4.845   1.193   1.535  2.5456  1.0758  0.7299
 7038SOL    MW427920   4.885   1.156   1.468 -0.1206  0.3016 -0.3167
 7039SOL     OW27921   1.097   4.476   3.854  0.1134 -0.3341 -0.3608
 7039SOL    HW227922   1.034   4.502   3.787  0.6737 -2.0901 -1.6474
 7039SOL    HW327923   1.046   4.472   3.935 -1.2985 -1.0773 -1.2475
 7039SOL    MW427924   1.082   4.479   3.856  0.4195 -0.7838  0.2099
 7040SOL     OW27925   3.441   1.729   4.950  0.0558  0.2870  0.1546
 7040SOL    HW227926   3.418   1.726   4.857  0.3668 -0.0679  0.0858
 7040SOL    HW327927   3.535   1.712   4.952  0.4452  2.2552  0.3944
 7040SOL    MW427928   3.450   1.726   4.938 -0.8911  0.1816  0.4976
 7041SOL     OW27929   5.357   5.173   5.577  0.2860  0.1029  0.1321
 7041SOL    HW227930   5.381   5.155   5.486 -1.6206 -2.7460  0.0781
 7041SOL    HW327931   5.439   5.167   5.625  0.8495 -1.8482 -0.9777
 7041SOL    MW427932   5.371   5.170   5.571  0.4272 -0.2556 -0.0804
 7042SOL     OW27933   2.691   5.822   5.127  0.4589 -0.7078  0.2377
 7042SOL    HW227934   2.649   5.889   5.073  0.9451 -0.2081  0.4646
 7042SOL    HW327935   2.702   5.747   5.068 -0.1091 -0.5987 -0.0136
 7042SOL    MW427936   2.687   5.821   5.112 -0.7059  0.2349 -0.1238
 7043SOL     OW27937   2.721   0.051   1.978  0.0673 -0.1753 -0.1286
 7043SOL    HW227938   2.671  -0.031   1.975  0.3934 -0.4360  1.0104
 7043SOL    HW327939   2.788   0.035   2.045  0.2220  0.9832  0.0027
 7043SOL    MW427940   2.723   0.038   1.986  0.0749  0.4308  0.2120
 7044SOL     OW27941   2.192   5.650   1.294 -0.3286  0.5117  0.0209
 7044SOL    HW227942   2.159   5.737   1.316  1.4008  1.6411 -1.5997
 7044SOL    HW327943   2.236   5.661   1.210  0.1754 -1.8963 -0.1122
 7044SOL    MW427944   2.193   5.663   1.285 -0.2859  0.7928  0.4234
 7045SOL     OW27945   3.266   3.070   2.185  0.5037  1.2564  0.1010
 7045SOL    HW227946   3.351   3.026   2.192  0.5881  1.2443 -0.8550
 7045SOL    HW327947   3.212   3.008   2.136  0.0034  1.3508  0.5341
 7045SOL    MW427948   3.270   3.056   2.180  0.3331  0.0000 -0.0340
 7046SOL     OW27949   2.702   1.985   4.631  0.2542 -0.0216  0.2457
 7046SOL    HW227950   2.662   2.067   4.658  1.2566  0.4128  0.4918
 7046SOL    HW327951   2.792   2.009   4.607  1.2628 -1.3217  2.3533
 7046SOL    MW427952   2.709   1.999   4.632  0.4297 -0.4445  0.0689
 7047SOL     OW27953   2.345   5.799   3.629  0.2196 -0.1094 -0.7397
 7047SOL    HW227954   2.361   5.763   3.541 -0.2746 -0.5251 -0.6658
 7047SOL    HW327955   2.433   5.808   3.667  0.4291 -0.0653 -1.2198
 7047SOL    MW427956   2.359   5.795   3.622  0.0339  0.2897 -0.0073
 7048SOL     OW27957   4.216   3.978   5.838 -0.1746 -0.1355  0.8077
 7048SOL    HW227958   4.152   3.915   5.807 -0.3254  0.5972 -0.4500
 7048SOL    HW327959   4.226   3.959   5.931  1.0772 -3.1395  0.1870
 7048SOL    MW427960   4.209   3.967   5.846 -0.2217  0.0632  0.5996
 7049SOL     OW27961   0.006   0.983   3.025 -0.5392  0.1254  0.2078
 7049SOL    HW227962  -0.017   1.043   3.096 -0.7860 -0.5229  0.6901
 7049SOL    HW327963  -0.074   0.932   3.010 -0.1352 -0.5646  0.3082
 7049SOL    MW427964  -0.008   0.984   3.033 -0.2390 -0.1145  0.1830
 7050SOL     OW27965   1.711   4.317   6.097 -0.5330  0.3458 -0.0804
 7050SOL    HW227966   1.727   4.297   6.004  1.8218 -0.1526  0.3676
 7050SOL    HW327967   1.648   4.389   6.096 -0.9989 -0.0290 -2.0340
 7050SOL    MW427968   1.705   4.324   6.084 -0.6261 -0.0955  0.2144
 7051SOL     OW27969   5.194   2.362   4.976  0.6627  0.2800  0.3971
 7051SOL    HW227970   5.147   2.284   5.007  0.1876  0.0623 -0.8150
 7051SOL    HW327971   5.244   2.391   5.052  0.0263 -0.5895  1.1818
 7051SOL    MW427972   5.194   2.355   4.990  0.1334 -0.6025 -0.4030
 7052SOL     OW27973   3.001   4.094   2.905  0.5063  0.1708 -0.0394
 7052SOL    HW227974   3.092   4.119   2.921  0.0612  0.6132  2.0494
 7052SOL    HW327975   2.968   4.161   2.844  1.0697  1.1180  0.6673
 7052SOL    MW427976   3.009   4.106   2.899  0.1581 -0.5315 -0.1381
 7053SOL     OW27977   5.636   5.464   2.349  0.3094 -0.0051 -0.0104
 7053SOL    HW227978   5.581   5.540   2.328  1.6135  0.6749 -1.0925
 7053SOL    HW327979   5.608   5.439   2.437 -0.7798  1.1608  0.0100
 7053SOL    MW427980   5.625   5.471   2.358  0.1912 -0.5625  0.1758
 7054SOL     OW27981   5.380   2.575   6.283 -0.6676  0.1451  0.3548
 7054SOL    HW227982   5.317   2.515   6.323  0.1527 -0.8771  0.1657
 7054SOL    HW327983   5.407   2.634   6.353 -1.9676  0.7251  0.3892
 7054SOL    MW427984   5.375   2.575   6.297 -0.2242  0.5673 -0.1461
 7055SOL     OW27985   1.667   0.976   2.698  0.0861 -0.2492 -0.0562
 7055SOL    HW227986   1.650   1.028   2.620 -1.8193 -0.3467  0.2256
 7055SOL    HW327987   1.617   1.020   2.767  0.5964 -0.9578  0.7898
 7055SOL    MW427988   1.658   0.989   2.697  0.1724  0.3595  0.0612
 7056SOL     OW27989   2.234   4.651   5.093 -0.0796  0.3275 -0.0043
 7056SOL    HW227990   2.221   4.567   5.048  1.5488 -0.8520  1.5959
 7056SOL    HW327991   2.292   4.700   5.035  0.6920 -0.5183  0.0436
 7056SOL    MW427992   2.240   4.646   5.079 -0.0375 -0.0618 -0.3429
 7057SOL     OW27993   0.531   3.135   4.546  0.2582 -0.6845  0.0962
 7057SOL    HW227994   0.517   3.041   4.557 -0.0571 -0.5581  0.8814
 7057SOL    HW327995   0.623   3.143   4.521  0.0482 -1.2593 -0.8918
 7057SOL    MW427996   0.541   3.123   4.544  0.2732  1.1030 -0.1626
 7058SOL     OW27997   2.724   4.028   6.306  0.4028 -0.0249  0.2103
 7058SOL    HW227998   2.771   4.110   6.294  1.0663 -0.6607 -2.0747
 7058SOL    HW327999   2.635   4.054   6.329  1.4194  1.2162  3.3722
 7058SOL    MW428000   2.719   4.042   6.308  0.4935  0.7242 -0.4308
 7059SOL     OW28001   2.632   6.129   1.609  0.0341  0.1968 -0.3857
 7059SOL    HW228002   2.616   6.082   1.527 -0.7201  2.0282 -1.3476
 7059SOL    HW328003   2.718   6.171   1.596 -0.7653  1.7633 -0.9412
 7059SOL    MW428004   2.642   6.129   1.596 -0.1626  0.8385  0.1806
 7060SOL     OW28005   4.536   5.525   4.925 -0.1651  0.3105  0.3210
 7060SOL    HW228006   4.578   5.563   5.002 -0.1961  2.2699 -0.5600
 7060SOL    HW328007   4.574   5.573   4.851  0.0562 -1.6882 -0.9220
 7060SOL    MW428008   4.546   5.537   4.925  0.2012  0.3536 -0.0462
 7061SOL     OW28009   0.473   4.482   0.555  0.2575 -0.1469 -0.0167
 7061SOL    HW228010   0.500   4.492   0.646 -0.7374 -1.3203  0.4336
 7061SOL    HW328011   0.407   4.549   0.541  1.7721  1.3312 -0.4983
 7061SOL    MW428012   0.468   4.492   0.565  0.8016  0.0321 -0.2672
 7062SOL     OW28013   5.736   1.284   2.956 -0.9323  0.3252 -0.0120
 7062SOL    HW228014   5.737   1.196   2.994  0.6528  0.4478  0.2797
 7062SOL    HW328015   5.733   1.342   3.032 -0.9011  0.5474 -0.1806
 7062SOL    MW428016   5.735   1.280   2.971  0.0514  0.0722  0.0295
 7063SOL     OW28017   3.970   6.232   1.372  0.2779 -0.0657 -0.3694
 7063SOL    HW228018   3.976   6.141   1.343  0.3785 -0.8349  1.8634
 7063SOL    HW328019   3.885   6.237   1.415  0.3071  0.8776 -0.4159
 7063SOL    MW428020   3.960   6.220   1.374 -0.4312 -0.8000 -0.2670
 7064SOL     OW28021   6.036   2.409   1.736 -0.2465 -0.1398  0.1436
 7064SOL    HW228022   5.978   2.447   1.801  0.6193  2.5653 -0.5365
 7064SOL    HW328023   6.048   2.319   1.765 -1.8331  0.2601  2.3229
 7064SOL    MW428024   6.030   2.402   1.749  0.4769  0.0313  0.0238
 7065SOL     OW28025   0.129   1.835   0.701 -0.0651 -0.3654 -0.6200
 7065SOL    HW228026   0.055   1.895   0.707  0.1556 -0.1247 -0.2566
 7065SOL    HW328027   0.101   1.757   0.748  0.4354  0.2692  0.7703
 7065SOL    MW428028   0.116   1.833   0.708 -0.3448 -0.8403  0.2326
 7066SOL     OW28029   5.613   5.163   5.398 -0.4540  0.1927  0.6720
 7066SOL    HW228030   5.548   5.102   5.364 -0.6646  0.8120 -0.0642
 7066SOL    HW328031   5.679   5.108   5.439 -1.4211 -0.4510  1.4067
 7066SOL    MW428032   5.613   5.148   5.399  0.1407 -0.1535  0.5088
 7067SOL     OW28033   5.964   0.562   3.565  0.5204 -0.5372 -0.4068
 7067SOL    HW228034   5.939   0.568   3.473  0.0824 -1.4938 -0.3617
 7067SOL    HW328035   5.893   0.513   3.606 -0.5618  1.9861  0.9705
 7067SOL    MW428036   5.952   0.557   3.558 -0.4138 -0.1101  0.4479
 7068SOL     OW28037   1.173   3.353   0.987  0.6604  0.0751  0.2578
 7068SOL    HW228038   1.230   3.425   1.014  0.8240 -0.9415  2.9300
 7068SOL    HW328039   1.089   3.372   1.028  0.0290 -0.1080 -0.9301
 7068SOL    MW428040   1.169   3.365   0.996  0.1219  0.0469  0.0210
 7069SOL     OW28041   2.421   4.666   1.676 -0.1817  0.2498 -0.2965
 7069SOL    HW228042   2.397   4.667   1.769  1.4450 -0.7170  0.1793
 7069SOL    HW328043   2.407   4.576   1.648  1.3660  0.0139 -0.3874
 7069SOL    MW428044   2.416   4.655   1.685 -0.4172 -0.6635  0.2019
 7070SOL     OW28045   1.313   1.945   2.238  0.4036 -0.5626  0.3099
 7070SOL    HW228046   1.365   1.958   2.317 -0.1263  3.2847  0.2427
 7070SOL    HW328047   1.224   1.931   2.270  0.4707 -0.7585  0.4108
 7070SOL    MW428048   1.308   1.945   2.252  0.1846 -0.2524  1.0285
 7071SOL     OW28049   3.010   3.315   4.861  0.0767  0.0093  0.4112
 7071SOL    HW228050   2.992   3.229   4.897 -1.7804  1.7803  4.3079
 7071SOL    HW328051   2.925   3.348   4.833  0.5193  1.0296  0.2134
 7071SOL    MW428052   2.997   3.308   4.862  0.1220 -0.4007  0.0786
 7072SOL     OW28053   5.653   2.756   2.936  0.1895 -0.2637  0.3812
 7072SOL    HW228054   5.595   2.680   2.940  1.6611 -1.4095  0.8367
 7072SOL    HW328055   5.605   2.824   2.983 -1.0303 -0.9897  0.2441
 7072SOL    MW428056   5.639   2.755   2.943 -0.3491  1.1335 -0.2669
 7073SOL     OW28057   2.287   2.912   5.228  0.5049  0.4602  0.3504
 7073SOL    HW228058   2.220   2.844   5.228 -0.2096  1.1487  0.1010
 7073SOL    HW328059   2.336   2.897   5.309 -1.0042  0.9479  1.4070
 7073SOL    MW428060   2.284   2.901   5.239  0.2935  0.5909 -0.1001
 7074SOL     OW28061   4.487   0.974   3.352 -0.1640  0.6316  0.3987
 7074SOL    HW228062   4.575   1.012   3.349 -0.1949  0.6902  0.1640
 7074SOL    HW328063   4.442   1.023   3.420 -0.3368  1.3235 -0.1916
 7074SOL    MW428064   4.493   0.985   3.360 -0.2125  0.5964 -0.7164
 7075SOL     OW28065   2.001   0.266   2.870  0.0054  0.0658 -0.5194
 7075SOL    HW228066   2.009   0.247   2.777  1.8243 -0.6522 -0.2639
 7075SOL    HW328067   2.023   0.183   2.913  0.5393  0.7429  0.5548
 7075SOL    MW428068   2.005   0.252   2.863 -0.2757  0.4304  0.0121
 7076SOL     OW28069   1.653   5.307   4.872  0.2295  0.0532  0.1081
 7076SOL    HW228070   1.591   5.239   4.847  0.1302 -0.4544  1.6210
 7076SOL    HW328071   1.597   5.380   4.901  0.3057 -0.4147  1.4987
 7076SOL    MW428072   1.637   5.308   4.873 -0.5008  0.0943  0.0203
 7077SOL     OW28073   4.176   4.413   0.713 -0.1080  0.0868  0.8112
 7077SOL    HW228074   4.111   4.381   0.775 -2.4928  0.2556 -1.4400
 7077SOL    HW328075   4.157   4.506   0.704  0.0319  0.0176 -0.3201
 7077SOL    MW428076   4.165   4.421   0.720  0.7810  0.4783  0.4010
 7078SOL     OW28077   4.395   4.651   1.697  0.1461 -0.4544  0.0605
 7078SOL    HW228078   4.479   4.690   1.671  0.0541 -0.2593  0.0510
 7078SOL    HW328079   4.330   4.698   1.644 -0.0612  0.0530  0.7402
 7078SOL    MW428080   4.398   4.663   1.687 -0.1989 -0.0846  0.2882
 7079SOL     OW28081   4.732   6.042   4.299 -0.2864  0.0745  0.1360
 7079SOL    HW228082   4.749   5.950   4.321 -0.9930 -0.2197 -0.4959
 7079SOL    HW328083   4.788   6.059   4.223 -1.2797 -0.3130 -0.7165
 7079SOL    MW428084   4.741   6.032   4.292  0.2147  1.0095  0.1074
 7080SOL     OW28085   4.562   6.107   3.420  0.0620 -0.9321  0.2424
 7080SOL    HW228086   4.548   6.016   3.398  0.4856 -1.2147  1.0779
 7080SOL    HW328087   4.593   6.105   3.511  0.9018 -0.0308 -0.0029
 7080SOL    MW428088   4.564   6.095   3.429  0.6918 -0.4450  0.1758
 7081SOL     OW28089   0.689   2.756   3.418  0.3719 -0.1125 -0.3915
 7081SOL    HW228090   0.707   2.793   3.504 -2.3988 -0.7869  0.5931
 7081SOL    HW328091   0.775   2.753   3.374  1.3869  3.1595  1.0958
 7081SOL    MW428092   0.703   2.760   3.423 -0.2673 -0.8712  0.1890
 7082SOL     OW28093   4.343   1.253   0.207  0.1351  0.3777  0.3686
 7082SOL    HW228094   4.420   1.197   0.215 -0.3283 -0.5092 -0.9939
 7082SOL    HW328095   4.370   1.324   0.148 -0.1592 -0.0992 -0.3543
 7082SOL    MW428096   4.356   1.255   0.200 -0.2728 -0.1098 -0.0883
 7083SOL     OW28097   3.741   5.736   1.533 -0.7924 -0.2439  0.3261
 7083SOL    HW228098   3.705   5.664   1.481 -1.8860 -0.0255  0.7507
 7083SOL    HW328099   3.667   5.767   1.586  0.1660 -0.1394  1.6587
 7083SOL    MW428100   3.727   5.731   1.533  0.4933  0.1855  0.3740
 7084SOL     OW28101   4.564   5.838   1.165  1.0883 -0.0420  0.4360
 7084SOL    HW228102   4.588   5.847   1.257  0.0471  0.4546  0.6741
 7084SOL    HW328103   4.478   5.878   1.158  1.4119  0.5058 -0.8853
 7084SOL    MW428104   4.556   5.844   1.176 -0.3441  0.2301  0.5237
 7085SOL     OW28105   1.308   4.635   0.744 -0.2675  0.3724  0.4128
 7085SOL    HW228106   1.228   4.676   0.776  0.6376  2.3070  0.3617
 7085SOL    HW328107   1.369   4.639   0.818 -0.1315 -0.8928  0.3903
 7085SOL    MW428108   1.306   4.641   0.758  0.7522 -0.1745  0.4989
 7086SOL     OW28109   3.428   2.769   5.127  0.4637  0.7014 -0.0163
 7086SOL    HW228110   3.469   2.769   5.040  2.6650 -1.6411  0.9118
 7086SOL    HW328111   3.500   2.788   5.187 -0.4157 -0.5385  1.4855
 7086SOL    MW428112   3.443   2.772   5.123 -0.0546 -0.3374 -0.5705
 7087SOL     OW28113   0.113   6.041   0.569  0.3247  0.0353  0.1474
 7087SOL    HW228114   0.167   6.107   0.525 -0.4573 -0.1057 -1.0544
 7087SOL    HW328115   0.023   6.073   0.560 -0.1872 -1.6644 -1.3706
 7087SOL    MW428116   0.108   6.054   0.562  0.6355  0.0951  0.0729
 7088SOL     OW28117   3.048   1.205   5.634 -0.5038  0.2848  0.1712
 7088SOL    HW228118   3.114   1.136   5.626  0.9010  1.7047 -1.2677
 7088SOL    HW328119   2.972   1.172   5.587 -0.4915 -0.9716  0.9947
 7088SOL    MW428120   3.047   1.192   5.627  0.2808 -0.6182 -0.2380
 7089SOL     OW28121   6.319   4.088   5.303  0.7922  0.2656 -0.6055
 7089SOL    HW228122   6.377   4.164   5.294  0.5352  0.6273  0.6093
 7089SOL    HW328123   6.364   4.030   5.365  0.7052 -0.3073 -1.0669
 7089SOL    MW428124   6.332   4.090   5.310 -0.0336  0.2964 -0.3712
 7090SOL     OW28125   5.298   2.242   1.030  0.0837 -0.7115  0.0117
 7090SOL    HW228126   5.229   2.176   1.026  0.4361 -1.1240  0.6527
 7090SOL    HW328127   5.349   2.219   1.107  0.9200 -0.3899 -0.4349
 7090SOL    MW428128   5.296   2.231   1.039 -0.6660 -0.0027  0.5420
 7091SOL     OW28129   6.382   5.641   6.399 -0.0826  0.1253  0.0405
 7091SOL    HW228130   6.305   5.696   6.388  0.3442  0.6670 -0.3105
 7091SOL    HW328131   6.456   5.702   6.396  0.3877 -0.4393 -0.1311
 7091SOL    MW428132   6.382   5.656   6.397  0.5101 -0.4759 -0.2291
 7092SOL     OW28133   4.354   1.091   6.239 -0.2794  0.6025 -0.1257
 7092SOL    HW228134   4.369   1.008   6.194 -0.5826  0.4398  0.0724
 7092SOL    HW328135   4.313   1.067   6.321  0.3381  0.8964  0.2738
 7092SOL    MW428136   4.351   1.077   6.244 -0.0284  1.0255  0.1181
 7093SOL     OW28137   2.629   0.417   4.012 -0.2419 -0.3314 -0.2587
 7093SOL    HW228138   2.596   0.327   4.007  0.9200 -0.7548 -0.7233
 7093SOL    HW328139   2.598   0.449   4.096 -0.3944 -1.2798  0.0618
 7093SOL    MW428140   2.620   0.409   4.022  0.0983 -0.9414 -0.0587
 7094SOL     OW28141   4.410   1.921   3.715 -0.1959  0.1234 -0.4829
 7094SOL    HW228142   4.418   1.826   3.702 -1.2634 -0.0140 -0.2228
 7094SOL    HW328143   4.397   1.955   3.626 -1.2488 -0.1405 -0.4426
 7094SOL    MW428144   4.410   1.913   3.701 -0.1398  0.0415 -0.3696
 7095SOL     OW28145   4.470   2.196   2.045  0.5648 -0.1470  0.1298
 7095SOL    HW228146   4.488   2.117   1.994  0.8355 -1.6482  2.3985
 7095SOL    HW328147   4.557   2.227   2.070  0.4800  1.1596 -1.0682
 7095SOL    MW428148   4.484   2.189   2.042  0.5149  0.4360 -0.2529
 7096SOL     OW28149   0.092   3.248   5.930  0.0197 -0.4168 -0.1249
 7096SOL    HW228150   0.111   3.167   5.978  2.6139 -0.0460 -0.3406
 7096SOL    HW328151   0.064   3.220   5.844 -1.5159 -1.0708  0.5597
 7096SOL    MW428152   0.091   3.234   5.925 -0.2948 -0.9825 -0.2499
 7097SOL     OW28153   6.220  -0.005   2.221  0.3577  0.1933  0.3364
 7097SOL    HW228154   6.225  -0.094   2.185 -1.4652 -0.0284  0.5556
 7097SOL    HW328155   6.308   0.030   2.207  0.8894 -1.3377 -0.5313
 7097SOL    MW428156   6.232  -0.012   2.214  0.3763  0.4440 -0.2712
 7098SOL     OW28157   1.184   2.008   2.869  0.1517 -0.8995 -0.0611
 7098SOL    HW228158   1.173   1.979   2.779  0.3096 -1.5407  0.1199
 7098SOL    HW328159   1.271   1.975   2.894 -0.1348 -1.2296  0.5108
 7098SOL    MW428160   1.194   2.000   2.861 -0.2835  0.5072 -0.6753
 7099SOL     OW28161   4.909   2.070   0.449  0.2126  0.2845 -0.4173
 7099SOL    HW228162   4.969   2.118   0.391  2.5758 -1.6661  0.2110
 7099SOL    HW328163   4.912   1.980   0.417  2.1430 -1.0467  2.9345
 7099SOL    MW428164   4.917   2.065   0.437  0.1581 -0.4580  0.9587
 7100SOL     OW28165   5.240   6.067   1.190  0.6789 -0.0503 -0.1821
 7100SOL    HW228166   5.171   6.040   1.252  0.8014  0.7015  0.2913
 7100SOL    HW328167   5.256   6.159   1.211 -1.2871  1.1191 -3.2326
 7100SOL    MW428168   5.233   6.075   1.201  0.0754 -0.5765  0.1756
 7101SOL     OW28169   6.243   0.045   6.314 -0.4261 -0.0535 -0.1168
 7101SOL    HW228170   6.301   0.105   6.267 -1.3632  1.8762  1.0763
 7101SOL    HW328171   6.202  -0.008   6.245  0.1193  0.9457 -1.2409
 7101SOL    MW428172   6.246   0.046   6.299 -0.0768  0.3408  0.1512
 7102SOL     OW28173   5.013   4.103   4.432 -0.3502  0.2763 -0.0049
 7102SOL    HW228174   4.958   4.167   4.477 -1.8125 -0.2483 -1.0015
 7102SOL    HW328175   5.042   4.044   4.502 -3.3114 -1.0600  0.2376
 7102SOL    MW428176   5.010   4.104   4.447 -0.3371  0.0807 -0.4189
 7103SOL     OW28177   0.299   2.709   3.260  0.5582 -0.5277 -0.1340
 7103SOL    HW228178   0.352   2.781   3.295  1.0369 -0.8264 -0.2255
 7103SOL    HW328179   0.209   2.738   3.270  0.7206 -0.2294  0.5137
 7103SOL    MW428180   0.294   2.722   3.266 -0.1779  0.9457 -0.1807
 7104SOL     OW28181   6.247   6.312   0.383  0.9229  0.4535  0.7333
 7104SOL    HW228182   6.153   6.301   0.366  1.3339 -2.0733 -0.2719
 7104SOL    HW328183   6.290   6.276   0.306  2.7504 -0.5925  2.1703
 7104SOL    MW428184   6.240   6.306   0.371 -0.2851  0.2772 -0.0786
 7105SOL     OW28185   4.971   2.415   4.133 -0.0850 -0.6435 -0.0925
 7105SOL    HW228186   4.984   2.507   4.155  1.3381 -0.6463 -0.8370
 7105SOL    HW328187   5.038   2.369   4.183 -0.7370 -1.2783  0.2083
 7105SOL    MW428188   4.982   2.421   4.143 -0.7853  0.2002  0.1563
 7106SOL     OW28189   5.854   5.749   5.182 -0.3343  0.1091 -0.2518
 7106SOL    HW228190   5.907   5.763   5.103 -1.5758 -0.1590 -1.1648
 7106SOL    HW328191   5.770   5.718   5.149 -1.0820  0.5596  1.1596
 7106SOL    MW428192   5.850   5.747   5.167  0.3413 -0.1281 -0.4432
 7107SOL     OW28193   3.248   2.753   3.878 -0.4606  0.4703  0.3627
 7107SOL    HW228194   3.196   2.833   3.882  1.2876  1.6354  0.9221
 7107SOL    HW328195   3.334   2.778   3.911 -0.0795 -1.8425  1.3898
 7107SOL    MW428196   3.252   2.767   3.883 -0.3724  0.4348  0.0413
 7108SOL     OW28197   5.225   1.567   6.045  0.3717 -0.0838 -0.2278
 7108SOL    HW228198   5.189   1.480   6.027  0.4056 -0.4997  1.5252
 7108SOL    HW328199   5.157   1.628   6.017  0.4289 -0.6345 -1.6621
 7108SOL    MW428200   5.211   1.564   6.039  0.0391  0.1893 -0.4665
 7109SOL     OW28201   3.379   3.642   2.412  0.0473  0.3642 -0.4569
 7109SOL    HW228202   3.403   3.576   2.477 -2.3383  0.8695  1.0513
 7109SOL    HW328203   3.411   3.606   2.329  0.4541 -1.7971  0.5585
 7109SOL    MW428204   3.386   3.629   2.410  0.5054 -0.7568 -0.2386
 7110SOL     OW28205   5.074   2.292   1.267  0.1178 -0.0267  0.1626
 7110SOL    HW228206   5.050   2.300   1.359  0.9711  0.0644  0.3841
 7110SOL    HW328207   5.161   2.251   1.268 -0.2493 -0.8553 -0.6355
 7110SOL    MW428208   5.083   2.288   1.279  0.5291  0.1212 -0.0009
 7111SOL     OW28209   4.572   2.937   2.695 -0.1293  0.3406  0.3807
 7111SOL    HW228210   4.601   2.944   2.785 -1.1040  3.0475  0.5898
 7111SOL    HW328211   4.496   2.879   2.698 -0.7387  1.1622  1.5087
 7111SOL    MW428212   4.566   2.930   2.707  0.0343 -0.3926  0.0572
 7112SOL     OW28213   5.588   4.839   5.141 -0.0840  0.2786 -0.5144
 7112SOL    HW228214   5.668   4.796   5.171  0.0196  0.5205 -0.4423
 7112SOL    HW328215   5.517   4.780   5.168  0.1046 -0.1926 -1.0474
 7112SOL    MW428216   5.589   4.826   5.148 -0.0782  0.2211  0.8011
 7113SOL     OW28217   4.806   5.154   5.700 -0.0542 -0.0896  0.1038
 7113SOL    HW228218   4.774   5.064   5.702  0.3037 -0.2830 -1.4827
 7113SOL    HW328219   4.773   5.193   5.781 -0.0091 -1.7047  0.9513
 7113SOL    MW428220   4.798   5.147   5.711  0.4238  0.2707  0.4397
 7114SOL     OW28221   6.065   0.680   3.210 -0.2127 -0.3769 -0.1052
 7114SOL    HW228222   6.092   0.719   3.128  0.5002 -2.8682 -1.1524
 7114SOL    HW328223   6.118   0.723   3.277  0.8418  0.1021 -1.2378
 7114SOL    MW428224   6.075   0.691   3.208  0.6987  0.1775 -0.4380
 7115SOL     OW28225   5.328   2.311   5.232  0.1366 -0.0974  0.4308
 7115SOL    HW228226   5.336   2.216   5.239  1.8653  0.0587  1.0338
 7115SOL    HW328227   5.262   2.335   5.296  0.3178 -0.8154  0.8895
 7115SOL    MW428228   5.320   2.302   5.241  0.6111  0.4747  0.0240
 7116SOL     OW28229   3.161   5.057   3.741  0.3692  0.2452  0.1115
 7116SOL    HW228230   3.168   5.023   3.651  0.4939  0.9026 -0.1381
 7116SOL    HW328231   3.245   5.100   3.757 -0.0487  1.0946  0.1249
 7116SOL    MW428232   3.173   5.058   3.731 -0.0521 -0.2629 -0.0222
 7117SOL     OW28233   0.190   2.120   4.090  0.4187 -0.3317 -0.4523
 7117SOL    HW228234   0.234   2.036   4.074 -2.2958 -1.9291 -0.0987
 7117SOL    HW328235   0.181   2.159   4.003 -0.7366 -1.7563 -0.9985
 7117SOL    MW428236   0.195   2.114   4.076  0.0954 -0.0223  0.0307
 7118SOL     OW28237   1.722   1.356   1.422  0.2912  0.1666  0.1098
 7118SOL    HW228238   1.698   1.285   1.363 -0.5037 -1.6033  2.4457
 7118SOL    HW328239   1.643   1.410   1.428 -0.7574 -1.4626  1.9613
 7118SOL    MW428240   1.708   1.354   1.415  0.2467 -0.0087  0.4485
 7119SOL     OW28241   5.235   5.003   0.443  0.1301  0.5158  0.1142
 7119SOL    HW228242   5.202   4.944   0.376 -0.6806  0.3202  0.6797
 7119SOL    HW328243   5.299   5.058   0.397  0.7362 -0.6416 -0.4597
 7119SOL    MW428244   5.239   5.003   0.428  0.0478 -0.2890 -0.5095
 7120SOL     OW28245   3.245   3.576   3.849 -0.2386  0.2544  0.6200
 7120SOL    HW228246   3.196   3.659   3.845  0.6865  0.7921  0.2000
 7120SOL    HW328247   3.297   3.583   3.928  0.2165  0.2980  0.3211
 7120SOL    MW428248   3.245   3.588   3.859  0.2363 -0.4070 -0.1217
 7121SOL     OW28249   6.353   3.176   5.703  0.2101 -0.0265 -0.8561
 7121SOL    HW228250   6.261   3.198   5.723 -0.4297 -2.6792 -0.4957
 7121SOL    HW328251   6.374   3.228   5.625 -2.0777 -0.3770 -1.7874
 7121SOL    MW428252   6.343   3.186   5.695  0.7017  0.4190  0.2759
 7122SOL     OW28253   0.379   4.937   3.548 -0.4828 -0.4710  0.4263
 7122SOL    HW228254   0.313   4.984   3.598 -0.1902  1.0460 -0.5575
 7122SOL    HW328255   0.462   4.965   3.587 -0.3495 -1.3572  0.8049
 7122SOL    MW428256   0.381   4.947   3.560  0.0800  0.8564 -0.4713
 7123SOL     OW28257   2.927   5.038   3.266 -0.3099 -0.4099  0.1772
 7123SOL    HW228258   2.946   5.070   3.177  1.0341  0.3018  0.6948
 7123SOL    HW328259   2.875   5.108   3.306 -1.6923 -1.1144 -0.3003
 7123SOL    MW428260   2.923   5.051   3.259 -0.0330  0.6882  0.1791
 7124SOL     OW28261   6.163   3.867   3.515  0.0621  0.3532 -0.6604
 7124SOL    HW228262   6.244   3.873   3.464 -0.2883  0.5965 -1.1964
 7124SOL    HW328263   6.125   3.783   3.491  0.6976 -0.2704  0.4260
 7124SOL    MW428264   6.169   3.857   3.505 -0.2929 -0.6404  0.1450
 7125SOL     OW28265   4.970   0.054   2.365 -0.1198  0.4284 -0.3686
 7125SOL    HW228266   5.054   0.007   2.369  1.3657  2.7161 -2.3017
 7125SOL    HW328267   4.963   0.098   2.450  0.2691 -0.2921  0.0517
 7125SOL    MW428268   4.980   0.054   2.377 -0.3325  0.6419  0.3004
 7126SOL     OW28269   2.410   2.825   2.696  0.4550  0.1879  0.3474
 7126SOL    HW228270   2.364   2.754   2.740 -0.1243  1.2504  1.5237
 7126SOL    HW328271   2.356   2.847   2.620  0.0990  0.0502  0.5601
 7126SOL    MW428272   2.397   2.819   2.692  0.0039  0.1119  0.4736
 7127SOL     OW28273   2.304   6.124   4.580  0.6508  0.5147  0.6134
 7127SOL    HW228274   2.248   6.173   4.641  0.1493  0.3482  0.2982
 7127SOL    HW328275   2.286   6.032   4.599  1.2627  0.4512  0.9072
 7127SOL    MW428276   2.294   6.118   4.591 -0.5875  0.0749 -0.2134
 7128SOL     OW28277   4.634   0.096   5.945  0.0290  0.1709  0.4666
 7128SOL    HW228278   4.605   0.009   5.972 -0.6893  0.4882  0.7321
 7128SOL    HW328279   4.592   0.156   6.007  0.0978  0.7496 -0.0392
 7128SOL    MW428280   4.625   0.092   5.957 -0.2975  0.0228  0.3739
 7129SOL     OW28281   5.336   3.375   5.091 -0.1652  0.0579  0.7082
 7129SOL    HW228282   5.290   3.340   5.168 -1.4633 -0.8626 -0.4232
 7129SOL    HW328283   5.398   3.306   5.067  1.8565  1.2601  2.1769
 7129SOL    MW428284   5.338   3.361   5.098  0.0099 -0.0616  0.2212
 7130SOL     OW28285   1.183   0.732   2.071 -0.2372  0.4024  0.5091
 7130SOL    HW228286   1.092   0.745   2.095 -1.0060  0.9797 -2.3207
 7130SOL    HW328287   1.216   0.820   2.052  0.1774  0.0028 -0.7220
 7130SOL    MW428288   1.176   0.745   2.072 -0.6403  0.7842 -0.0722
 7131SOL     OW28289   1.054   2.595   4.857 -0.6162  0.1732  0.3241
 7131SOL    HW228290   1.028   2.645   4.934 -1.9990  1.8119 -1.1320
 7131SOL    HW328291   0.979   2.541   4.836 -0.5883  0.3766 -0.3471
 7131SOL    MW428292   1.041   2.595   4.864 -0.4587  0.4126  0.8264
 7132SOL     OW28293   4.628   3.847   0.617 -0.3952  0.2027 -0.0770
 7132SOL    HW228294   4.617   3.942   0.621 -1.6244  0.1222 -0.9444
 7132SOL    HW328295   4.539   3.812   0.626  0.2532 -0.9961  2.5522
 7132SOL    MW428296   4.614   3.855   0.618  0.1662  0.8468 -0.8593
 7133SOL     OW28297   2.266   4.199   3.041  0.3736 -0.2987  0.5943
 7133SOL    HW228298   2.294   4.271   3.098 -1.1173 -0.5094  1.6544
 7133SOL    HW328299   2.240   4.241   2.959  0.8900  0.1985  0.6806
 7133SOL    MW428300   2.267   4.214   3.038  0.6582  0.0724  0.1958
 7134SOL     OW28301   0.281   5.739   3.576 -0.3196 -0.0458  0.0883
 7134SOL    HW228302   0.215   5.670   3.583 -0.7132  0.0710 -1.8776
 7134SOL    HW328303   0.231   5.820   3.565  0.0810 -0.0363 -2.0970
 7134SOL    MW428304   0.266   5.741   3.576 -0.5334  0.0817 -0.5018
 7135SOL     OW28305   2.254   0.469   5.078  0.1383 -0.3495  0.2194
 7135SOL    HW228306   2.207   0.414   5.140  1.0624 -1.6827 -0.2028
 7135SOL    HW328307   2.186   0.507   5.022 -0.7530  1.2429  2.2615
 7135SOL    MW428308   2.239   0.467   5.079  0.2263 -0.1583 -0.2038
 7136SOL     OW28309   3.767   5.251   4.474 -0.3894 -0.3376  0.7485
 7136SOL    HW228310   3.725   5.210   4.399  0.4688  0.0097  0.0680
 7136SOL    HW328311   3.788   5.178   4.533 -0.1415 -0.7263  0.1847
 7136SOL    MW428312   3.764   5.236   4.472  0.2868 -0.8299 -0.6982
 7137SOL     OW28313   2.535   6.247   6.126  0.4078 -0.5411 -0.1924
 7137SOL    HW228314   2.551   6.327   6.176 -0.3486  0.1362 -1.0008
 7137SOL    HW328315   2.618   6.199   6.129  0.3040 -0.6619  1.9278
 7137SOL    MW428316   2.548   6.251   6.133  0.1065  0.2071  0.0683
 7138SOL     OW28317   5.574   3.909   0.629 -0.4868  0.5851  0.0546
 7138SOL    HW228318   5.495   3.943   0.588 -0.9396 -0.2417  0.2325
 7138SOL    HW328319   5.610   3.847   0.565 -0.3238  0.4897  0.2353
 7138SOL    MW428320   5.569   3.905   0.615  0.2633  0.5470 -0.1829
 7139SOL     OW28321   5.339   2.112   2.139  0.9631 -0.3205  0.0482
 7139SOL    HW228322   5.283   2.072   2.205  1.9251 -2.4343 -0.3271
 7139SOL    HW328323   5.405   2.160   2.188  1.3711 -1.4543  0.6379
 7139SOL    MW428324   5.341   2.113   2.154 -0.6011  0.1550  0.2171
 7140SOL     OW28325   2.703   5.426   5.595  0.4153  0.3558  0.1423
 7140SOL    HW228326   2.719   5.426   5.501  1.5376 -0.8082  0.3010
 7140SOL    HW328327   2.754   5.500   5.628  1.3066 -0.1710 -0.0027
 7140SOL    MW428328   2.712   5.436   5.587 -0.3991 -0.4534 -0.1969
 7141SOL     OW28329   0.844   1.767   4.960 -0.5317 -0.5310  0.1218
 7141SOL    HW228330   0.823   1.719   5.039 -1.2802 -0.3652  0.0338
 7141SOL    HW328331   0.915   1.718   4.919  0.1228 -0.4002  1.0875
 7141SOL    MW428332   0.851   1.754   4.965  0.0799  0.7635 -0.3116
 7142SOL     OW28333   5.031   4.223   3.228  0.4998 -0.4030 -0.0573
 7142SOL    HW228334   5.059   4.258   3.144 -2.7472 -0.4903 -1.3114
 7142SOL    HW328335   4.997   4.299   3.276  0.4553 -0.6641  0.3328
 7142SOL    MW428336   5.030   4.237   3.223 -0.0672  0.1722 -0.5017
 7143SOL     OW28337   2.380   3.968   5.148  0.3883  0.4780  0.6763
 7143SOL    HW228338   2.371   3.880   5.110 -0.7372  0.7671  0.2548
 7143SOL    HW328339   2.450   3.958   5.213 -1.2199 -1.2881  2.2495
 7143SOL    MW428340   2.388   3.955   5.151 -0.0769 -0.7865  0.0283
 7144SOL     OW28341   1.237   5.611   1.761 -0.2362 -0.5462 -0.0843
 7144SOL    HW228342   1.145   5.622   1.785 -0.4157 -2.7535  0.4569
 7144SOL    HW328343   1.281   5.590   1.843  0.4423 -1.1768 -0.5980
 7144SOL    MW428344   1.231   5.610   1.775 -0.2052 -0.3500  0.3357
 7145SOL     OW28345   3.880   3.982   5.451 -0.4708 -0.2725  0.4592
 7145SOL    HW228346   3.827   4.001   5.529 -0.8860 -0.2554  0.1781
 7145SOL    HW328347   3.825   4.010   5.378  0.7431  1.7248  0.2292
 7145SOL    MW428348   3.865   3.989   5.452  0.0425 -0.0613 -0.3175
 7146SOL     OW28349   5.969   1.189   5.323  0.7923 -0.2323  0.1544
 7146SOL    HW228350   5.915   1.110   5.323  0.3771  0.0389 -0.7674
 7146SOL    HW328351   6.059   1.156   5.333  0.8538 -1.0269 -2.2595
 7146SOL    MW428352   5.974   1.174   5.324  0.0614 -0.6239  0.1735
 7147SOL     OW28353   5.137   6.225   0.111 -0.2712 -0.2666 -0.4811
 7147SOL    HW228354   5.195   6.159   0.149 -0.4398  0.5785  1.3164
 7147SOL    HW328355   5.196   6.282   0.061  0.4686  0.4857  1.1962
 7147SOL    MW428356   5.153   6.224   0.109  0.0873 -0.3300 -0.4427
 7148SOL     OW28357   3.493   6.126   4.695 -0.1719 -0.0396  0.0453
 7148SOL    HW228358   3.474   6.039   4.729 -0.2115  0.3416  1.0410
 7148SOL    HW328359   3.571   6.154   4.743  0.9143 -0.2225 -1.5566
 7148SOL    MW428360   3.501   6.118   4.706  0.0192 -0.4097  0.3277
 7149SOL     OW28361   6.322   5.775   2.174 -0.5799 -0.3467 -0.2038
 7149SOL    HW228362   6.364   5.763   2.089 -1.0144  0.1426 -0.4959
 7149SOL    HW328363   6.255   5.706   2.177 -0.6793 -0.2576 -0.3371
 7149SOL    MW428364   6.318   5.764   2.163  0.0757  0.6422  0.1275
 7150SOL     OW28365   5.167   2.034   2.328 -0.2759  0.0582  0.1644
 7150SOL    HW228366   5.152   1.951   2.281  1.2733 -0.0210 -0.2204
 7150SOL    HW328367   5.104   2.095   2.288 -0.7751 -0.6832 -0.2084
 7150SOL    MW428368   5.156   2.031   2.317 -0.2670  0.1828  0.0062
 7151SOL     OW28369   1.253   5.208   0.298  0.3254 -0.1050  0.3030
 7151SOL    HW228370   1.276   5.179   0.210  1.6942 -0.3158  0.7132
 7151SOL    HW328371   1.211   5.132   0.339  0.5932 -0.3299  0.1616
 7151SOL    MW428372   1.250   5.194   0.292  0.2938 -0.3815  0.0470
 7152SOL     OW28373   4.805   4.296   4.398 -0.4745  0.6490 -0.1289
 7152SOL    HW228374   4.754   4.223   4.363 -0.9416  1.4035 -1.0739
 7152SOL    HW328375   4.862   4.322   4.325  0.0024  0.9454  0.3394
 7152SOL    MW428376   4.806   4.290   4.383  0.1482  0.5791 -0.6154
 7153SOL     OW28377   0.159   2.242   5.847 -0.1325 -0.4614 -0.7103
 7153SOL    HW228378   0.224   2.177   5.872  0.5344  0.7961  1.0030
 7153SOL    HW328379   0.185   2.269   5.758  0.2062 -1.7285 -1.0096
 7153SOL    MW428380   0.171   2.237   5.838  0.4049 -0.0828 -0.1230
 7154SOL     OW28381   5.444   1.594   5.131 -0.5718 -0.4236  0.0752
 7154SOL    HW228382   5.405   1.611   5.217  1.1174  0.3000  0.7373
 7154SOL    HW328383   5.538   1.595   5.146 -0.1248  1.7893 -2.0913
 7154SOL    MW428384   5.451   1.597   5.144  0.0616 -0.0422 -0.3980
 7155SOL     OW28385   0.662   0.061   1.257  0.0796 -0.0574  0.1603
 7155SOL    HW228386   0.712   0.060   1.175 -0.0305  0.5357  0.0808
 7155SOL    HW328387   0.572   0.077   1.230 -0.0157 -0.2390  0.3695
 7155SOL    MW428388   0.657   0.063   1.243 -0.0111 -0.5934  0.8765
 7156SOL     OW28389   0.317   4.468   4.634 -0.1303 -0.3248  0.1077
 7156SOL    HW228390   0.233   4.514   4.638 -1.0133 -1.9214  0.6645
 7156SOL    HW328391   0.381   4.537   4.619 -1.6120  0.8586 -1.1383
 7156SOL    MW428392   0.314   4.483   4.633 -0.3841  0.4956  0.4727
 7157SOL     OW28393   1.346   0.396   0.897  0.0400 -0.2150 -0.4158
 7157SOL    HW228394   1.382   0.457   0.961 -0.4570 -0.3877  0.0249
 7157SOL    HW328395   1.283   0.447   0.847  1.4711  0.3270 -1.7592
 7157SOL    MW428396   1.343   0.411   0.899  0.3860 -0.0114 -0.4692
 7158SOL     OW28397   0.650   1.327   0.106 -0.0759 -0.4458 -0.1179
 7158SOL    HW228398   0.571   1.275   0.118 -0.3278 -0.3992 -1.3573
 7158SOL    HW328399   0.661   1.375   0.188 -0.6475 -1.3575  0.5063
 7158SOL    MW428400   0.641   1.327   0.118 -0.1893 -0.2272 -0.1772
 7159SOL     OW28401   6.075   3.070   1.742  0.3940  0.0812  0.3633
 7159SOL    HW228402   6.047   3.146   1.690  0.1717 -0.0556  0.2843
 7159SOL    HW328403   6.167   3.059   1.720  0.0518 -0.6104 -0.7999
 7159SOL    MW428404   6.083   3.079   1.732 -0.3532 -0.2128  0.2563
 7160SOL     OW28405   1.650   1.230   3.036 -0.1791  0.4148 -0.3047
 7160SOL    HW228406   1.606   1.226   3.121 -0.5889  2.8969 -0.3209
 7160SOL    HW328407   1.743   1.234   3.057 -0.2100 -0.1198 -0.0487
 7160SOL    MW428408   1.657   1.230   3.050  0.0784 -0.6106 -0.7694
 7161SOL     OW28409   3.275   4.632   6.017 -0.4276 -0.2884 -0.2144
 7161SOL    HW228410   3.278   4.688   5.940  0.3717 -0.6434 -0.4537
 7161SOL    HW328411   3.189   4.648   6.056 -0.6686  0.2053 -0.9444
 7161SOL    MW428412   3.264   4.641   6.012  0.4120  0.3455  0.1089
 7162SOL     OW28413   1.796   4.474   2.748 -0.2550  0.1466  0.6914
 7162SOL    HW228414   1.703   4.467   2.728 -0.0693 -1.1638  0.1709
 7162SOL    HW328415   1.799   4.510   2.837 -1.2982 -1.1718  1.2981
 7162SOL    MW428416   1.784   4.478   2.757  0.2013  0.3007 -0.2601
 7163SOL     OW28417   1.751   1.735   5.743 -0.4115 -0.1736  0.3055
 7163SOL    HW228418   1.699   1.709   5.667 -1.1903 -0.5087  0.9281
 7163SOL    HW328419   1.701   1.807   5.782 -0.0534 -0.0426  0.5226
 7163SOL    MW428420   1.737   1.741   5.738  0.3577 -0.2359 -0.5685
 7164SOL     OW28421   5.959   1.990   2.447  0.0532 -0.5335  0.1707
 7164SOL    HW228422   5.953   1.897   2.469 -1.0364 -0.0792  1.9566
 7164SOL    HW328423   5.878   2.029   2.480 -0.6069  0.7143 -2.5763
 7164SOL    MW428424   5.948   1.983   2.454  0.1150  0.0404  0.2507
 7165SOL     OW28425   5.679   2.108   0.907  0.0539 -0.0476  0.0484
 7165SOL    HW228426   5.683   2.014   0.924 -1.5787  0.2643  2.6613
 7165SOL    HW328427   5.605   2.118   0.847 -0.4994 -0.3494  0.6669
 7165SOL    MW428428   5.670   2.097   0.902 -0.0111 -0.3111  0.1722
 7166SOL     OW28429   5.550   5.439   5.793 -0.2063  0.3752  1.2484
 7166SOL    HW228430   5.479   5.411   5.852 -1.4058  0.9851  0.1371
 7166SOL    HW328431   5.567   5.530   5.817 -0.8881  0.7102  0.4821
 7166SOL    MW428432   5.543   5.447   5.804 -0.0683  0.3866 -0.0553
 7167SOL     OW28433   5.253   4.496   0.034  0.3069  0.1620 -0.2259
 7167SOL    HW228434   5.245   4.498   0.129  0.9699  1.7936 -0.1699
 7167SOL    HW328435   5.279   4.585   0.010  0.6395 -0.3412 -1.8931
 7167SOL    MW428436   5.255   4.508   0.044  0.1479 -0.3579 -0.0927
 7168SOL     OW28437   0.461   5.050   0.036  0.2211  0.6501 -0.4242
 7168SOL    HW228438   0.437   4.958   0.020 -2.3540  1.0791  0.5718
 7168SOL    HW328439   0.483   5.084  -0.051 -0.5230 -0.4595 -1.0731
 7168SOL    MW428440   0.461   5.042   0.022  0.1494  0.3901  0.2162
 7169SOL     OW28441   5.986   4.266   1.115  0.1018 -0.3716  0.1933
 7169SOL    HW228442   5.940   4.242   1.034 -0.7136 -1.4519  0.9358
 7169SOL    HW328443   5.917   4.273   1.180  0.8601 -0.8112  1.0739
 7169SOL    MW428444   5.971   4.264   1.113 -0.1709 -0.4242 -0.1283
 7170SOL     OW28445   4.619   1.880   0.229 -0.2986 -0.5335 -0.1120
 7170SOL    HW228446   4.632   1.964   0.185 -0.4859  0.3702  1.4801
 7170SOL    HW328447   4.707   1.849   0.248 -0.2030 -1.0798 -1.3269
 7170SOL    MW428448   4.632   1.887   0.225 -0.0588 -0.0406 -0.3291
 7171SOL     OW28449   5.374   4.113   2.395  0.1641 -0.1263  0.1906
 7171SOL    HW228450   5.389   4.019   2.385 -1.6897 -0.4522 -0.0131
 7171SOL    HW328451   5.358   4.144   2.306  2.3993  0.7571  0.0393
 7171SOL    MW428452   5.374   4.104   2.382 -0.4467 -0.3227  0.2899
 7172SOL     OW28453   3.377   0.774   5.881  0.4681  0.2786  0.0594
 7172SOL    HW228454   3.361   0.710   5.950  1.7502 -0.5456 -0.3785
 7172SOL    HW328455   3.315   0.750   5.812  2.4964 -2.0243 -1.0661
 7172SOL    MW428456   3.366   0.763   5.881 -0.5267 -0.2202 -0.4052
 7173SOL     OW28457   0.001   3.450   5.046 -0.2643 -0.3093 -0.3115
 7173SOL    HW228458   0.036   3.361   5.038  2.4941  0.5186  1.0243
 7173SOL    HW328459  -0.017   3.460   5.139 -2.5130 -0.0746 -0.7265
 7173SOL    MW428460   0.003   3.439   5.057  0.4189 -0.4163 -0.1457
 7174SOL     OW28461   0.834   5.839   1.043  0.2048  0.4558  0.1462
 7174SOL    HW228462   0.907   5.790   1.005  0.5299  1.6229 -0.8332
 7174SOL    HW328463   0.875   5.918   1.079 -0.5433  1.0281 -0.2420
 7174SOL    MW428464   0.849   5.843   1.042 -0.1476 -0.0028  0.5640
 7175SOL     OW28465   4.718   5.594   2.777  0.2014  0.2973 -0.1104
 7175SOL    HW228466   4.750   5.598   2.687  0.3965  1.4994  0.0002
 7175SOL    HW328467   4.763   5.665   2.822 -0.6947  0.3856  0.6782
 7175SOL    MW428468   4.728   5.604   2.771 -0.2972 -0.5487 -0.1315
 7176SOL     OW28469   0.769   0.037   4.063  0.2014  0.0341 -0.9871
 7176SOL    HW228470   0.703   0.004   4.002  0.2738  0.1595 -1.1354
 7176SOL    HW328471   0.848   0.047   4.010  0.2143  0.3203 -0.9152
 7176SOL    MW428472   0.771   0.034   4.048  0.8936 -0.0326 -0.2205
 7177SOL     OW28473   5.822   1.967   5.190 -0.3467  0.1030  0.4770
 7177SOL    HW228474   5.789   1.987   5.277  0.3174 -0.2084  0.8024
 7177SOL    HW328475   5.749   1.923   5.146 -1.1239  1.3721  0.4300
 7177SOL    MW428476   5.808   1.964   5.195  0.3510  0.6712 -0.3673
 7178SOL     OW28477   3.765   4.748   4.974  0.1548  0.1156 -0.0134
 7178SOL    HW228478   3.724   4.673   5.017 -0.3034  0.1433 -0.4014
 7178SOL    HW328479   3.728   4.749   4.886  1.0907  0.0604 -0.4194
 7178SOL    MW428480   3.755   4.738   4.968 -0.6684  0.8493 -0.3642
 7179SOL     OW28481   5.731   0.536   4.093 -0.3481 -0.1108 -0.7218
 7179SOL    HW228482   5.749   0.625   4.124  0.6351  0.4487 -2.7177
 7179SOL    HW328483   5.743   0.541   3.998 -1.6827 -2.0566 -1.0529
 7179SOL    MW428484   5.735   0.549   4.084 -0.2809  0.3822 -0.1329
 7180SOL     OW28485   0.423   0.964   2.935  0.7367 -0.2765  0.5925
 7180SOL    HW228486   0.382   1.034   2.985  0.7731 -1.1065  1.8294
 7180SOL    HW328487   0.369   0.956   2.856 -0.2900  0.0013  1.2505
 7180SOL    MW428488   0.410   0.972   2.931 -0.5836 -0.8618 -0.5226
 7181SOL     OW28489   2.671   3.717   5.460 -0.1945  0.8663  0.2309
 7181SOL    HW228490   2.765   3.703   5.472 -0.2681  1.6414  2.0409
 7181SOL    HW328491   2.632   3.630   5.465  0.4088  0.5487 -0.4950
 7181SOL    MW428492   2.678   3.704   5.462 -0.1115  0.3423  0.1572
 7182SOL     OW28493   0.419   0.893   4.139  0.4688 -0.3841 -0.5311
 7182SOL    HW228494   0.460   0.930   4.061  1.0665 -0.9718 -0.5034
 7182SOL    HW328495   0.491   0.876   4.199  0.0532 -0.2873  0.0101
 7182SOL    MW428496   0.434   0.895   4.136  0.1793 -0.2328  0.4866
 7183SOL     OW28497   3.740   6.210   4.795  0.2971  0.1768  0.5899
 7183SOL    HW228498   3.764   6.288   4.845  1.6808 -0.3987  0.8712
 7183SOL    HW328499   3.788   6.139   4.837 -0.3285 -0.7089 -0.1450
 7183SOL    MW428500   3.749   6.211   4.807  0.5752  0.2596 -0.4523
 7184SOL     OW28501   3.627   4.788   3.391 -1.2038  0.4774  0.0125
 7184SOL    HW228502   3.547   4.780   3.339  0.0293 -1.0278 -1.7910
 7184SOL    HW328503   3.643   4.699   3.424  0.1103  0.5840 -0.2935
 7184SOL    MW428504   3.618   4.775   3.388  0.2932 -0.1048  0.3107
 7185SOL     OW28505   1.226   2.760   2.624 -0.0537 -0.1215  0.2924
 7185SOL    HW228506   1.248   2.682   2.574  0.4767 -0.0421  0.4007
 7185SOL    HW328507   1.151   2.734   2.678  1.9415 -1.5055  2.5977
 7185SOL    MW428508   1.219   2.746   2.625  0.5972 -0.5944  0.2305
 7186SOL     OW28509   5.384   3.052   5.277  0.1258 -0.3327  0.6111
 7186SOL    HW228510   5.466   3.016   5.313  1.4604  2.7979  1.0581
 7186SOL    HW328511   5.409   3.086   5.191  0.1970  3.1585  1.8361
 7186SOL    MW428512   5.398   3.052   5.271 -0.4645 -0.0575 -0.3716
 7187SOL     OW28513   5.746   0.789   3.448  0.2165  0.3416  0.4644
 7187SOL    HW228514   5.825   0.834   3.477  0.5353 -0.4999  0.9495
 7187SOL    HW328515   5.675   0.852   3.462  0.6822  0.7817  0.8714
 7187SOL    MW428516   5.747   0.803   3.454  0.5632  0.6897  0.3247
 7188SOL     OW28517   2.018   2.263   5.464 -0.1584  0.2005  0.0091
 7188SOL    HW228518   2.040   2.339   5.410 -2.6415  0.7545 -0.3708
 7188SOL    HW328519   1.991   2.300   5.548  1.2006 -0.4880  0.7762
 7188SOL    MW428520   2.017   2.278   5.468  0.0734  0.2345 -0.5186
 7189SOL     OW28521   2.912   2.300   0.260 -0.0823  0.3734  0.1947
 7189SOL    HW228522   2.976   2.315   0.330 -0.1908 -0.1463  0.4059
 7189SOL    HW328523   2.952   2.233   0.204 -0.1016  0.6128 -0.1094
 7189SOL    MW428524   2.926   2.293   0.262 -0.2959  0.4353 -0.5158
 7190SOL     OW28525   4.931   1.158   1.028 -0.3070 -0.4993 -0.1834
 7190SOL    HW228526   4.918   1.113   0.945  1.3381  0.3679 -0.9449
 7190SOL    HW328527   4.960   1.246   1.005  2.2832 -0.8657  1.2363
 7190SOL    MW428528   4.933   1.163   1.014 -0.2371  0.6655  0.2053
 7191SOL     OW28529   5.089   1.345   3.787  0.4355  0.1475 -0.3447
 7191SOL    HW228530   5.002   1.380   3.802  0.4951 -0.0113  0.4004
 7191SOL    HW328531   5.147   1.400   3.839  1.1245  1.8182 -2.7307
 7191SOL    MW428532   5.085   1.357   3.796 -0.4460 -0.1568 -0.3557
 7192SOL     OW28533   2.313   3.336   4.347  0.4217  0.4338  0.5763
 7192SOL    HW228534   2.230   3.371   4.379 -0.4726  0.0158 -1.1228
 7192SOL    HW328535   2.356   3.410   4.304  0.8699  0.6078  1.3042
 7192SOL    MW428536   2.308   3.350   4.345 -0.3339 -0.4531  0.3646
 7193SOL     OW28537   4.329   1.512   4.367  0.0002  0.0797 -0.2672
 7193SOL    HW228538   4.280   1.575   4.315 -0.2295  0.1622  0.0432
 7193SOL    HW328539   4.390   1.565   4.418 -0.0666  0.0345 -0.1408
 7193SOL    MW428540   4.330   1.527   4.367 -0.0157 -0.5756  0.0336
 7194SOL     OW28541   4.433   6.393   4.275 -0.3460 -0.3722  0.3431
 7194SOL    HW228542   4.434   6.344   4.193 -1.7838 -0.0013  0.0783
 7194SOL    HW328543   4.369   6.463   4.261 -0.4439 -0.1575  1.6953
 7194SOL    MW428544   4.425   6.396   4.262 -0.0656 -0.3636 -0.1389
 7195SOL     OW28545   5.994   2.454   1.182  0.1100 -0.3458 -0.0080
 7195SOL    HW228546   5.975   2.537   1.138  0.4819 -0.1093  0.2670
 7195SOL    HW328547   6.019   2.395   1.111 -1.6869 -0.6976 -0.3894
 7195SOL    MW428548   5.995   2.457   1.167 -0.4877 -0.1391 -0.0816
 7196SOL     OW28549   2.236   5.834   3.295  0.4245  0.5632  0.5418
 7196SOL    HW228550   2.189   5.903   3.246 -3.0517 -1.1443  1.1644
 7196SOL    HW328551   2.267   5.774   3.227  1.2901  1.4340  0.1423
 7196SOL    MW428552   2.234   5.835   3.279  0.7295  0.4549 -0.0910
 7197SOL     OW28553   2.346   6.278   5.425 -0.3201 -0.1153  0.0444
 7197SOL    HW228554   2.363   6.187   5.449  0.8879  0.4939  1.6461
 7197SOL    HW328555   2.431   6.321   5.430 -1.1171  1.4523  0.9731
 7197SOL    MW428556   2.359   6.271   5.429  0.5525  0.4439 -0.4856
 7198SOL     OW28557   3.448   6.182  -0.003 -0.8721  0.4176  0.4777
 7198SOL    HW228558   3.503   6.128  -0.060 -2.1824  0.3149 -0.7635
 7198SOL    HW328559   3.499   6.194   0.076  0.1926 -1.1543  0.0729
 7198SOL    MW428560   3.462   6.176   0.000  0.2214 -0.0213 -0.2024
 7199SOL     OW28561   1.191   4.221   3.850 -0.3370  0.3690  0.1274
 7199SOL    HW228562   1.170   4.314   3.857  2.1184  1.2300 -2.2644
 7199SOL    HW328563   1.245   4.203   3.927 -0.6015  0.9751  0.4598
 7199SOL    MW428564   1.195   4.231   3.861 -0.3758 -0.3264 -0.3265
 7200SOL     OW28565   5.704   6.015   2.583  0.1228  0.3165  0.2648
 7200SOL    HW228566   5.619   5.986   2.550 -0.9578  1.3536  1.9483
 7200SOL    HW328567   5.767   5.957   2.541 -1.2515  0.4211 -2.1645
 7200SOL    MW428568   5.701   6.004   2.573  0.3129 -0.2922 -0.0547
 7201SOL     OW28569   0.256   2.326   5.551  0.0728  0.1174 -0.3465
 7201SOL    HW228570   0.288   2.414   5.570 -1.3892  0.5998 -0.0071
 7201SOL    HW328571   0.209   2.334   5.469  0.1497 -0.4143 -0.4478
 7201SOL    MW428572   0.254   2.339   5.543  0.0511  0.0936 -0.5261
 7202SOL     OW28573   2.695   3.643   5.028  0.2508 -0.4468 -0.1433
 7202SOL    HW228574   2.622   3.609   5.081  0.5286  0.5658  0.9357
 7202SOL    HW328575   2.772   3.631   5.084  0.6043  0.3415 -0.4600
 7202SOL    MW428576   2.695   3.637   5.043  0.2824 -0.3231  0.2674
 7203SOL     OW28577   1.931   3.195   0.116  0.7856 -0.0031 -0.0729
 7203SOL    HW228578   1.989   3.270   0.131  0.8478 -0.2915  1.2646
 7203SOL    HW328579   1.981   3.137   0.059  1.4915  0.1204  0.4093
 7203SOL    MW428580   1.946   3.197   0.110  0.0243  0.2355 -0.3975
 7204SOL     OW28581   5.237   2.155   4.731 -0.0367 -0.1331  0.8029
 7204SOL    HW228582   5.280   2.240   4.739 -0.2164  0.0064  0.3381
 7204SOL    HW328583   5.271   2.119   4.649 -1.8915  0.6351 -0.3866
 7204SOL    MW428584   5.247   2.162   4.721  0.6885  0.2402 -0.0366
 7205SOL     OW28585   4.063   3.496   4.157  0.0573 -0.2914  0.3974
 7205SOL    HW228586   4.011   3.572   4.185 -0.3671  0.0877 -1.3221
 7205SOL    HW328587   4.066   3.503   4.062  0.5849 -2.0851  0.2541
 7205SOL    MW428588   4.057   3.507   4.148  0.3308 -0.0629 -0.6357
 7206SOL     OW28589   1.031   5.656   2.234  0.0263 -0.4649  0.3133
 7206SOL    HW228590   0.996   5.646   2.323  0.0244 -1.1935  0.2361
 7206SOL    HW328591   1.065   5.570   2.212  1.1381  0.0151  0.0663
 7206SOL    MW428592   1.031   5.644   2.243 -0.3376 -0.4396  0.3797
 7207SOL     OW28593   3.321   2.387   4.514  0.4160  0.1201 -0.2559
 7207SOL    HW228594   3.252   2.424   4.569 -1.5555 -2.3574 -0.8580
 7207SOL    HW328595   3.316   2.438   4.433 -0.3519  0.3266 -0.0901
 7207SOL    MW428596   3.311   2.399   4.510  0.1374 -0.1564  0.1109
 7208SOL     OW28597   2.167   2.851   0.091 -0.6214  0.2599 -0.2599
 7208SOL    HW228598   2.122   2.768   0.082  0.7959 -0.4243 -1.5795
 7208SOL    HW328599   2.135   2.904   0.017  0.1639  0.0149 -0.7986
 7208SOL    MW428600   2.157   2.847   0.080 -0.2885 -0.2988  0.4704
 7209SOL     OW28601   3.034   5.326   0.386 -0.2441  0.7352  0.5321
 7209SOL    HW228602   3.041   5.417   0.359  0.9614  0.5935  0.3025
 7209SOL    HW328603   3.098   5.318   0.457  0.1040 -0.0672  0.1400
 7209SOL    MW428604   3.043   5.337   0.392 -0.3568 -0.4397  0.3359
 7210SOL     OW28605   0.860   3.598   3.769 -0.2242  0.5440 -0.2869
 7210SOL    HW228606   0.831   3.615   3.680 -0.2804  1.1394 -0.1560
 7210SOL    HW328607   0.832   3.674   3.819 -1.1564 -0.2614  0.4660
 7210SOL    MW428608   0.853   3.610   3.764 -0.1062 -0.2402 -0.6038
 7211SOL     OW28609   6.345   5.930   2.629 -0.1348  0.1028  0.0880
 7211SOL    HW228610   6.361   5.870   2.556  1.6579  1.7027 -0.9180
 7211SOL    HW328611   6.321   6.012   2.587  1.5746  1.2450  1.2281
 7211SOL    MW428612   6.344   5.933   2.614  0.3973 -0.1432 -0.4923
 7212SOL     OW28613   5.177   5.115   1.643  0.5884  0.0390 -0.2013
 7212SOL    HW228614   5.175   5.027   1.606  0.3011 -0.8266  1.7377
 7212SOL    HW328615   5.268   5.130   1.667  0.7450  0.5278 -1.0781
 7212SOL    MW428616   5.188   5.106   1.642  0.4765 -0.5317 -0.0529
 7213SOL     OW28617   2.387   2.886   1.953 -0.1144  0.0642  0.8140
 7213SOL    HW228618   2.466   2.884   2.008  1.0933 -2.0357 -0.8157
 7213SOL    HW328619   2.421   2.898   1.864 -1.5429 -1.3437  0.0256
 7213SOL    MW428620   2.402   2.887   1.948 -0.2790  0.2752 -0.0605
 7214SOL     OW28621   1.726   3.981   3.697 -0.1392 -0.1519  0.5000
 7214SOL    HW228622   1.800   4.042   3.690  0.2994 -0.6001  1.1103
 7214SOL    HW328623   1.706   3.980   3.791  0.1160 -1.2483  0.5478
 7214SOL    MW428624   1.733   3.989   3.709  0.1957  0.1340 -0.3377
 7215SOL     OW28625   2.898   2.668   1.157 -0.5215 -0.3709  0.2047
 7215SOL    HW228626   2.955   2.591   1.147 -1.1741 -0.7043 -1.2088
 7215SOL    HW328627   2.953   2.733   1.201  0.3465 -1.3174  0.5632
 7215SOL    MW428628   2.913   2.666   1.162  0.0941 -0.5497 -0.2791
 7216SOL     OW28629   3.910   4.014   1.081 -0.1830  0.2899  0.0802
 7216SOL    HW228630   3.976   3.969   1.133 -1.7281 -2.0460  0.1655
 7216SOL    HW328631   3.932   3.993   0.990  0.3922  1.3116 -0.0330
 7216SOL    MW428632   3.921   4.005   1.076 -0.1031 -0.3331 -0.5666
 7217SOL     OW28633   2.470   4.742   2.620 -0.5971  0.7423 -0.2407
 7217SOL    HW228634   2.495   4.805   2.688  0.7769  0.7660 -0.7426
 7217SOL    HW328635   2.429   4.670   2.668  1.7083  0.0434  0.8328
 7217SOL    MW428636   2.468   4.741   2.635 -0.2258 -0.1049 -0.2622
 7218SOL     OW28637   1.899   0.787   2.084  0.0705  0.3729 -0.1090
 7218SOL    HW228638   1.837   0.760   2.151 -1.2274  0.9159 -1.0412
 7218SOL    HW328639   1.879   0.879   2.068  0.7525  0.4131 -0.7929
 7218SOL    MW428640   1.888   0.796   2.091 -0.2489 -0.2034  0.4887
 7219SOL     OW28641   3.695   6.264   6.226  0.1009 -0.2763  0.6681
 7219SOL    HW228642   3.732   6.284   6.140  0.1516  0.4724  0.8552
 7219SOL    HW328643   3.676   6.170   6.223  0.4988 -0.3433 -0.0061
 7219SOL    MW428644   3.698   6.254   6.214 -0.2591 -0.0777 -0.5582
 7220SOL     OW28645   3.015   0.604   1.785  0.3139 -0.1792 -0.1735
 7220SOL    HW228646   2.973   0.585   1.701  0.4766 -0.4506 -0.1931
 7220SOL    HW328647   3.108   0.614   1.764  0.3538 -0.2456 -0.0241
 7220SOL    MW428648   3.022   0.603   1.771 -0.2191  0.2213  0.1832
 7221SOL     OW28649   3.117   3.094   0.057 -0.4719  0.6981  0.0550
 7221SOL    HW228650   3.150   3.135  -0.023 -2.2030  1.1948 -0.4473
 7221SOL    HW328651   3.073   3.015   0.027  2.1601 -1.2232  0.9468
 7221SOL    MW428652   3.116   3.089   0.043  0.2670 -0.7330  0.4507
 7222SOL     OW28653   1.785   0.035   0.756 -0.9969  0.2683 -0.2334
 7222SOL    HW228654   1.756  -0.029   0.821  0.9205  0.8045  1.2348
 7222SOL    HW328655   1.796   0.116   0.806  1.4905  0.4559 -0.9638
 7222SOL    MW428656   1.783   0.037   0.772  0.2645  0.4261  0.1275
 7223SOL     OW28657   1.336   1.670   4.269  0.6710 -0.1141  0.1045
 7223SOL    HW228658   1.339   1.686   4.363  2.2743  0.5656 -0.0362
 7223SOL    HW328659   1.348   1.576   4.260 -1.1542 -0.4368  0.6169
 7223SOL    MW428660   1.338   1.660   4.280  0.1972  0.7728  0.2790
 7224SOL     OW28661   2.524   1.776   0.489 -0.4570  0.3169  0.2572
 7224SOL    HW228662   2.601   1.808   0.535  0.7547 -0.9753 -0.7822
 7224SOL    HW328663   2.456   1.770   0.556  0.6434  0.4993  1.4118
 7224SOL    MW428664   2.525   1.779   0.504 -0.1044  0.1411 -0.0785
 7225SOL     OW28665   0.746   1.936   6.088 -0.2990  0.5430 -0.1691
 7225SOL    HW228666   0.751   1.865   6.152 -0.9238  1.0109  0.4045
 7225SOL    HW328667   0.662   1.978   6.104  0.1343  1.5266 -0.3784
 7225SOL    MW428668   0.736   1.932   6.098 -0.1239 -0.1339 -0.0093
 7226SOL     OW28669   5.943   2.676   5.471 -0.2439  0.0034 -0.3511
 7226SOL    HW228670   5.995   2.738   5.522 -0.3106 -0.1689 -0.0680
 7226SOL    HW328671   5.852   2.701   5.488 -0.2904 -0.5669  0.2823
 7226SOL    MW428672   5.938   2.687   5.480 -0.2613 -0.2941  0.7392
 7227SOL     OW28673   4.476   6.290   2.686  0.2408  0.3050 -0.3117
 7227SOL    HW228674   4.548   6.230   2.673  1.5030  1.2518  1.6679
 7227SOL    HW328675   4.455   6.323   2.599  1.5915 -0.6600 -1.0318
 7227SOL    MW428676   4.483   6.287   2.673  0.5849  0.0273 -0.5594
 7228SOL     OW28677   0.358   2.281   0.888 -0.7716 -0.4776 -0.2921
 7228SOL    HW228678   0.321   2.286   0.800 -3.8719  1.5794  0.9600
 7228SOL    HW328679   0.375   2.373   0.912 -2.6942 -0.6772  2.2189
 7228SOL    MW428680   0.355   2.294   0.879 -0.0318 -0.5305  0.6280
 7229SOL     OW28681   0.874   1.529   2.163 -0.6554  0.1853  0.0338
 7229SOL    HW228682   0.892   1.583   2.241 -0.0477  0.6680 -0.4279
 7229SOL    HW328683   0.780   1.512   2.167 -0.5082 -0.4910  1.3133
 7229SOL    MW428684   0.864   1.534   2.174 -0.2227  0.0913 -0.5751
 7230SOL     OW28685   1.238   5.106   3.331  0.1424  0.2540  0.2660
 7230SOL    HW228686   1.307   5.045   3.305 -0.9317 -1.3662  1.0557
 7230SOL    HW328687   1.229   5.093   3.426 -0.7757  0.9528  0.2874
 7230SOL    MW428688   1.246   5.097   3.340 -0.2159  0.1740 -0.3472
 7231SOL     OW28689   4.706   2.011   6.366  0.6385  0.0497  0.0382
 7231SOL    HW228690   4.694   1.922   6.332 -1.7146 -0.3789  1.7009
 7231SOL    HW328691   4.619   2.035   6.398  1.0053  3.3115 -1.0774
 7231SOL    MW428692   4.693   2.002   6.365 -0.0647  0.7759 -0.0888
 7232SOL     OW28693   3.388   3.659   4.107 -0.2124 -0.2483 -0.3351
 7232SOL    HW228694   3.480   3.665   4.080 -0.6825  0.1880 -1.9423
 7232SOL    HW328695   3.387   3.588   4.171  1.4442  0.5538  0.6567
 7232SOL    MW428696   3.400   3.650   4.112  0.0577  1.0207  0.2310
 7233SOL     OW28697   2.696   6.215   0.033 -0.5483 -0.1107 -0.0600
 7233SOL    HW228698   2.606   6.200   0.060 -0.3833 -1.1021 -0.0357
 7233SOL    HW328699   2.703   6.172  -0.052 -0.4496  1.0780 -0.6692
 7233SOL    MW428700   2.685   6.208   0.025  0.4250  0.2668 -0.3106
 7234SOL     OW28701   3.275   5.920   5.353 -0.1420 -0.1961 -0.0090
 7234SOL    HW228702   3.182   5.909   5.375 -0.1023  1.1145  0.9188
 7234SOL    HW328703   3.276   5.925   5.257 -0.9710 -0.6274 -0.0515
 7234SOL    MW428704   3.262   5.919   5.343 -0.0479  0.4491  0.2753
 7235SOL     OW28705   5.317   5.422   1.259  0.0206  0.0583 -0.2646
 7235SOL    HW228706   5.266   5.444   1.181 -0.6984  1.3066  0.5223
 7235SOL    HW328707   5.342   5.507   1.296 -1.6877 -0.4162  2.1731
 7235SOL    MW428708   5.314   5.436   1.253 -0.0443  0.2860  0.3044
 7236SOL     OW28709   0.359   0.953   0.018 -0.3226 -0.6602  0.2964
 7236SOL    HW228710   0.411   0.951   0.099 -0.5832  0.9084  0.5244
 7236SOL    HW328711   0.273   0.919   0.045 -0.2856 -0.5303  0.5833
 7236SOL    MW428712   0.354   0.948   0.032  0.3161  0.3120  0.4586
 7237SOL     OW28713   0.098   3.543   0.263  0.0744  0.5034  0.0091
 7237SOL    HW228714   0.058   3.630   0.263  0.3538  0.6354  0.3966
 7237SOL    HW328715   0.148   3.540   0.345  2.0090  0.8690 -1.0869
 7237SOL    MW428716   0.099   3.554   0.274 -0.9417 -0.7606 -0.5770
 7238SOL     OW28717   3.212   5.731   0.126 -0.2595 -0.4390  0.2649
 7238SOL    HW228718   3.278   5.787   0.086 -0.3235  0.0907  0.8906
 7238SOL    HW328719   3.132   5.750   0.077  0.0915 -1.2520 -0.6453
 7238SOL    MW428720   3.210   5.741   0.114  0.0110  0.2924  0.5944
 7239SOL     OW28721   3.633   1.613   6.030 -0.4513 -0.5057 -0.2454
 7239SOL    HW228722   3.582   1.642   5.955 -1.3178  1.0028  0.8693
 7239SOL    HW328723   3.591   1.533   6.060 -0.3557 -0.8775 -1.0962
 7239SOL    MW428724   3.621   1.606   6.024 -0.3043  0.0920  0.0641
 7240SOL     OW28725   0.580   6.061   6.244  0.4639 -0.3816  0.0133
 7240SOL    HW228726   0.586   6.019   6.330 -1.1753 -0.2529  0.2164
 7240SOL    HW328727   0.595   6.154   6.261 -0.8074 -0.2178  0.3341
 7240SOL    MW428728   0.583   6.068   6.257  0.0601 -0.1708 -0.8443
 7241SOL     OW28729   1.389   4.317   6.398  0.4263 -0.5134  0.2462
 7241SOL    HW228730   1.338   4.370   6.337  0.2620  1.0549  1.6526
 7241SOL    HW328731   1.440   4.258   6.343  0.0152  0.5734 -1.3651
 7241SOL    MW428732   1.389   4.316   6.383  0.0188 -0.0680  0.9600
 7242SOL     OW28733   0.613   4.061   3.082 -0.1156  0.3639  0.2911
 7242SOL    HW228734   0.676   4.091   3.016  0.0351  1.7608  1.0258
 7242SOL    HW328735   0.587   3.974   3.053  2.8337 -0.6884  0.4055
 7242SOL    MW428736   0.618   4.054   3.070  0.3785 -0.4241  0.3849
 7243SOL     OW28737   4.207   0.410   1.823  0.4183 -0.0308 -0.8769
 7243SOL    HW228738   4.191   0.323   1.858 -2.3571  0.5593 -0.4547
 7243SOL    HW328739   4.180   0.405   1.731 -0.2141  0.4821 -0.7262
 7243SOL    MW428740   4.201   0.398   1.815  0.1618  0.4613  1.0890
 7244SOL     OW28741   0.989   4.826   5.323 -0.0294  0.1395  0.0727
 7244SOL    HW228742   0.931   4.836   5.399 -0.1271  1.0557 -0.1127
 7244SOL    HW328743   0.942   4.869   5.252 -0.5263 -1.7954 -0.8445
 7244SOL    MW428744   0.975   4.833   5.324  0.0305  0.1854 -0.1844
 7245SOL     OW28745   5.832   4.170   3.367 -1.0289 -0.3320 -0.3007
 7245SOL    HW228746   5.805   4.176   3.275 -1.7217  1.1736 -0.0396
 7245SOL    HW328747   5.866   4.081   3.377  0.8825  0.0828 -2.4818
 7245SOL    MW428748   5.833   4.159   3.356 -0.0232 -0.2009 -0.9112
 7246SOL     OW28749   3.534   2.279   1.831  0.4460  0.9511 -0.1685
 7246SOL    HW228750   3.620   2.275   1.874 -0.4436  0.5075  1.6917
 7246SOL    HW328751   3.485   2.206   1.870 -0.9867  1.6032 -0.6843
 7246SOL    MW428752   3.539   2.268   1.842  0.2286  0.3965  0.4549
 7247SOL     OW28753   1.295   6.052   1.777 -1.0542 -0.3326 -0.2484
 7247SOL    HW228754   1.254   6.006   1.703 -0.6948 -1.5699  0.2815
 7247SOL    HW328755   1.313   5.982   1.840 -0.4297  0.5602  0.5806
 7247SOL    MW428756   1.292   6.036   1.776 -0.1084 -0.3386  0.2539
 7248SOL     OW28757   3.379   2.391   0.575  0.2964  0.6258  0.4686
 7248SOL    HW228758   3.369   2.353   0.663  1.3804  1.3611  0.9374
 7248SOL    HW328759   3.473   2.381   0.556  0.0099  0.1843 -0.7503
 7248SOL    MW428760   3.390   2.385   0.584 -0.1765  0.3036  0.0399
 7249SOL     OW28761   4.891   0.002   2.752  0.3582 -0.2573  0.1469
 7249SOL    HW228762   4.915   0.079   2.699 -2.2273  0.6065  0.1175
 7249SOL    HW328763   4.912  -0.073   2.695  1.2609  0.4795 -0.5295
 7249SOL    MW428764   4.897   0.002   2.737 -0.4032  0.1887  0.5924
 7250SOL     OW28765   0.273   0.776   3.392 -0.5402  0.1906  0.4697
 7250SOL    HW228766   0.325   0.711   3.440 -1.8149 -0.2409  1.3270
 7250SOL    HW328767   0.331   0.806   3.322 -0.6672 -3.5558 -1.4285
 7250SOL    MW428768   0.288   0.772   3.389 -0.2876  0.3481  0.2563
 7251SOL     OW28769   6.334   6.079   6.148 -1.4751 -0.0903 -0.1760
 7251SOL    HW228770   6.366   6.138   6.217  0.5304 -0.8771 -0.3490
 7251SOL    HW328771   6.252   6.045   6.182 -0.0680 -1.2528  2.3885
 7251SOL    MW428772   6.328   6.082   6.162  0.3278  0.2796  0.0181
 7252SOL     OW28773   5.179   5.658   4.979  0.1942 -0.6932 -0.1227
 7252SOL    HW228774   5.165   5.574   4.935 -0.2828 -0.4125 -0.5059
 7252SOL    HW328775   5.195   5.720   4.909  0.3288 -0.4147  0.1519
 7252SOL    MW428776   5.179   5.655   4.964  0.2007  0.0129  0.2675
 7253SOL     OW28777   0.473   1.674   5.447  0.0602  0.0810 -0.2942
 7253SOL    HW228778   0.531   1.618   5.499  0.3743 -0.4220 -1.1572
 7253SOL    HW328779   0.390   1.673   5.494  0.0709 -1.0978 -0.2714
 7253SOL    MW428780   0.470   1.666   5.460 -0.0893 -0.2418  0.1034
 7254SOL     OW28781   5.619   1.999   1.442 -0.1865  0.5497 -0.3605
 7254SOL    HW228782   5.620   2.046   1.359 -0.5774 -0.6840 -1.0956
 7254SOL    HW328783   5.658   1.914   1.422 -0.6798  0.0741  0.6067
 7254SOL    MW428784   5.624   1.994   1.429  0.5482 -0.0241  0.2973
 7255SOL     OW28785   2.594   1.281   5.502  0.0654  0.2578  0.2531
 7255SOL    HW228786   2.621   1.192   5.526 -0.4461  0.1736  0.5189
 7255SOL    HW328787   2.644   1.337   5.561  1.8353  0.2641 -1.1690
 7255SOL    MW428788   2.604   1.276   5.513  0.2093 -0.0651  0.2693
 7256SOL     OW28789   2.641   6.009   2.579  0.2845  0.4912 -0.6114
 7256SOL    HW228790   2.612   6.041   2.493 -0.9566 -1.1987 -0.8648
 7256SOL    HW328791   2.730   6.044   2.589  1.1997 -0.7276 -3.4287
 7256SOL    MW428792   2.649   6.018   2.569  0.2190 -0.3873 -0.1893
 7257SOL     OW28793   5.121   4.707   5.658  0.0612 -0.7953  0.2446
 7257SOL    HW228794   5.209   4.689   5.625 -0.0296 -0.6450 -0.0860
 7257SOL    HW328795   5.123   4.800   5.682 -0.6311 -0.2060 -1.8037
 7257SOL    MW428796   5.133   4.717   5.657  0.0745  0.3726 -0.5784
 7258SOL     OW28797   3.189   2.213   5.093 -0.1341 -0.2926  0.4613
 7258SOL    HW228798   3.098   2.182   5.087  0.3360 -1.6304 -0.0871
 7258SOL    HW328799   3.241   2.133   5.102  1.1452  0.3156 -1.0860
 7258SOL    MW428800   3.184   2.198   5.093 -0.6374 -0.0566 -0.1412
 7259SOL     OW28801   1.340   5.152   2.438 -0.0482 -0.4024  0.5244
 7259SOL    HW228802   1.432   5.127   2.446 -0.8317 -3.6815  0.7364
 7259SOL    HW328803   1.303   5.136   2.525 -1.1533 -0.7167  0.0147
 7259SOL    MW428804   1.347   5.147   2.451  0.3311 -0.2988  0.0926
 7260SOL     OW28805   4.554   2.170   3.035  0.1476  0.1417  0.2831
 7260SOL    HW228806   4.622   2.158   2.970 -0.7540  2.4875 -1.1838
 7260SOL    HW328807   4.525   2.260   3.024 -2.5746 -0.4936  1.4469
 7260SOL    MW428808   4.559   2.180   3.025  0.1361 -0.5010 -0.1064
 7261SOL     OW28809   4.977   2.699   5.661  0.1255  0.1435 -0.2551
 7261SOL    HW228810   4.977   2.742   5.746 -1.1012 -0.8078  0.2507
 7261SOL    HW328811   5.065   2.663   5.653  0.0273 -0.4050  0.9586
 7261SOL    MW428812   4.989   2.700   5.671  0.3736 -0.6210 -0.3220
 7262SOL     OW28813   4.583   4.326   3.722 -0.2303 -0.7946 -0.4475
 7262SOL    HW228814   4.603   4.410   3.764 -0.1542 -1.7314  1.5268
 7262SOL    HW328815   4.667   4.294   3.690 -0.4288  0.3727 -2.3153
 7262SOL    MW428816   4.597   4.333   3.723 -0.0277  0.1757 -0.1266
 7263SOL     OW28817   5.649   5.851   3.965  0.5646  0.0711 -0.1410
 7263SOL    HW228818   5.566   5.860   4.012 -0.5221  1.8178 -2.2432
 7263SOL    HW328819   5.632   5.784   3.899  1.0143  0.0122 -0.2003
 7263SOL    MW428820   5.635   5.843   3.962 -0.2458 -0.4035  0.1378
 7264SOL     OW28821   5.076   3.507   3.197 -0.0805 -0.0778 -0.1293
 7264SOL    HW228822   4.983   3.489   3.190  0.3834 -2.1464 -2.4538
 7264SOL    HW328823   5.083   3.574   3.265 -3.2419  0.2661 -0.0129
 7264SOL    MW428824   5.065   3.514   3.205  0.5421 -0.2853 -0.2474
 7265SOL     OW28825   2.607   1.285   0.114  0.1662  0.1567  0.3217
 7265SOL    HW228826   2.627   1.334   0.194  0.3030  1.2584 -0.3624
 7265SOL    HW328827   2.693   1.260   0.080  0.2209  1.3556 -0.4731
 7265SOL    MW428828   2.621   1.288   0.120 -0.3553  0.0216 -0.3544
 7266SOL     OW28829   0.675   0.637   0.619 -0.5506 -0.3420  0.5834
 7266SOL    HW228830   0.662   0.547   0.590  0.0852 -0.3432  0.2993
 7266SOL    HW328831   0.590   0.663   0.655 -1.2147 -0.4985 -0.8256
 7266SOL    MW428832   0.662   0.629   0.620  0.5463  0.3098 -0.5933
 7267SOL     OW28833   1.487   6.384   6.081  0.4800  0.4141  0.5402
 7267SOL    HW228834   1.514   6.432   6.003  0.3524 -1.1613 -0.5130
 7267SOL    HW328835   1.401   6.420   6.103  1.3584  2.2461  1.1784
 7267SOL    MW428836   1.479   6.395   6.074  0.3650  0.6932 -0.5226
 7268SOL     OW28837   5.855   2.981   2.401 -0.4787  0.3598  0.1056
 7268SOL    HW228838   5.931   2.966   2.345  1.0692 -1.0376  2.4027
 7268SOL    HW328839   5.827   2.893   2.428 -0.9397  0.9603  1.7271
 7268SOL    MW428840   5.861   2.968   2.398 -0.2596  0.2329 -0.1916
 7269SOL     OW28841   5.130  -0.002   3.084 -0.0800  0.4751 -0.0076
 7269SOL    HW228842   5.129   0.055   3.161  0.5895 -0.7954  0.9757
 7269SOL    HW328843   5.126  -0.090   3.119  0.3845 -0.1415 -1.4256
 7269SOL    MW428844   5.130  -0.006   3.099  0.7473  0.1109  0.6187
 7270SOL     OW28845   2.699   4.299   1.288  0.2760  0.3070  0.1972
 7270SOL    HW228846   2.742   4.363   1.345  0.9352  0.8884 -0.9106
 7270SOL    HW328847   2.770   4.244   1.256  0.0554  0.5913 -0.8048
 7270SOL    MW428848   2.714   4.300   1.292  0.3189  0.6594 -0.0368
 7271SOL     OW28849   4.528   3.394   4.718  0.5490 -0.5705  0.2117
 7271SOL    HW228850   4.482   3.478   4.722  0.3385 -0.7008  0.5931
 7271SOL    HW328851   4.575   3.396   4.634 -0.0600 -0.3915 -0.1300
 7271SOL    MW428852   4.528   3.405   4.708  0.5773 -0.0302  0.2147
 7272SOL     OW28853   5.446   5.773   3.559  0.0773  0.0210  0.4464
 7272SOL    HW228854   5.351   5.782   3.549  0.1288  0.4637  0.3581
 7272SOL    HW328855   5.470   5.705   3.496 -0.2517 -0.4525  0.8273
 7272SOL    MW428856   5.437   5.765   3.550 -0.2218  0.1472  0.5476
 7273SOL     OW28857   2.468   5.361   1.375 -0.4400 -0.0145 -1.0199
 7273SOL    HW228858   2.551   5.315   1.393 -1.0020 -0.9368 -0.7293
 7273SOL    HW328859   2.490   5.422   1.304  0.2671 -0.9359 -1.6282
 7273SOL    MW428860   2.482   5.363   1.368  0.3835  0.1352 -0.6452
 7274SOL     OW28861   3.183   0.751   4.266 -0.3188 -0.5910 -0.0345
 7274SOL    HW228862   3.092   0.723   4.251 -0.5118 -0.3796  0.6560
 7274SOL    HW328863   3.184   0.776   4.359 -0.2615  1.9959 -0.6562
 7274SOL    MW428864   3.171   0.751   4.276  0.6598 -0.1494 -0.3522
 7275SOL     OW28865   4.588   1.092   0.506  0.0900  0.5286  0.0888
 7275SOL    HW228866   4.670   1.140   0.519 -0.9003  2.2348  0.3876
 7275SOL    HW328867   4.558   1.073   0.595 -0.4778  1.0995  0.0270
 7275SOL    MW428868   4.595   1.096   0.520 -0.3790  0.3145  0.2834
 7276SOL     OW28869   1.667   0.783   2.245  0.7198 -0.2045 -0.1008
 7276SOL    HW228870   1.655   0.745   2.333  1.3601  0.6729  0.3738
 7276SOL    HW328871   1.595   0.846   2.237  0.2163 -0.8236 -0.5132
 7276SOL    MW428872   1.656   0.786   2.256  0.0826 -0.2772  0.4415
 7277SOL     OW28873   3.229   6.050   1.432  0.1705  0.1028  0.6446
 7277SOL    HW228874   3.191   6.125   1.478 -2.1728  0.2683 -1.3209
 7277SOL    HW328875   3.267   6.087   1.353  0.9358 -0.5435  0.7041
 7277SOL    MW428876   3.229   6.065   1.428  0.0939  0.1390  0.2536
 7278SOL     OW28877   2.807   3.304   2.411 -0.9602 -0.5155 -0.4504
 7278SOL    HW228878   2.827   3.220   2.369  0.4424 -1.0559  1.1593
 7278SOL    HW328879   2.807   3.285   2.505  1.0945  1.5515  0.0717
 7278SOL    MW428880   2.810   3.290   2.418 -0.0109  0.0950  0.0529
 7279SOL     OW28881   3.500   2.665   5.611  0.2769 -0.0807 -0.2386
 7279SOL    HW228882   3.465   2.742   5.656  0.4784 -0.8895  1.3571
 7279SOL    HW328883   3.595   2.670   5.627  0.0373 -2.2297  2.5811
 7279SOL    MW428884   3.508   2.676   5.619 -0.0174 -0.0885 -0.3339
 7280SOL     OW28885   4.633   3.202   0.096  0.1460  0.4610  0.3657
 7280SOL    HW228886   4.569   3.250   0.147  0.3346  1.0674  0.0354
 7280SOL    HW328887   4.581   3.155   0.031 -0.0397  0.1865  0.7086
 7280SOL    MW428888   4.618   3.202   0.094  0.2565 -0.7516 -0.3242
 7281SOL     OW28889   3.728   3.309   1.841 -0.0057 -0.0436  1.3448
 7281SOL    HW228890   3.671   3.240   1.809 -0.0918  0.4411  0.4017
 7281SOL    HW328891   3.804   3.306   1.782  1.3426 -1.1796  3.0318
 7281SOL    MW428892   3.731   3.300   1.829  0.2238  0.4459 -0.0487
 7282SOL     OW28893   5.367   1.212   6.002  0.6955  0.1696  0.0868
 7282SOL    HW228894   5.354   1.139   5.941  0.0661 -1.2372  1.8272
 7282SOL    HW328895   5.459   1.236   5.990  2.0043 -3.2812  1.8532
 7282SOL    MW428896   5.378   1.205   5.992 -0.5366 -0.0612  0.2336
 7283SOL     OW28897   4.384   5.303   0.861 -0.3367  0.1890 -0.5090
 7283SOL    HW228898   4.429   5.331   0.941  0.7982  0.8917 -1.3605
 7283SOL    HW328899   4.436   5.341   0.790 -2.3001  1.0457 -1.5654
 7283SOL    MW428900   4.397   5.312   0.863  0.3372  0.4431 -0.7569
 7284SOL     OW28901   2.884   4.374   4.185 -0.0598 -0.3892  0.1920
 7284SOL    HW228902   2.904   4.433   4.112 -1.7806 -0.5822 -0.4929
 7284SOL    HW328903   2.935   4.408   4.258  1.3982  0.0542 -0.9862
 7284SOL    MW428904   2.893   4.387   4.185 -0.0936  0.4408 -0.1630
 7285SOL     OW28905   2.278   2.384   0.760 -0.0282  0.6976  0.6967
 7285SOL    HW228906   2.358   2.424   0.725 -0.7779 -1.1918 -3.9508
 7285SOL    HW328907   2.208   2.445   0.735 -0.4290  0.2891  0.8098
 7285SOL    MW428908   2.279   2.397   0.752 -0.0740 -0.1923  0.5510
 7286SOL     OW28909   1.915   3.493   1.546 -0.4471 -0.5698 -0.5109
 7286SOL    HW228910   1.866   3.565   1.587 -2.7757 -0.7564 -2.7054
 7286SOL    HW328911   1.988   3.536   1.502  0.3495 -0.0463  1.2016
 7286SOL    MW428912   1.918   3.508   1.546 -0.0891  0.3373  0.3629
 7287SOL     OW28913   0.928   0.862   2.260  0.0811  0.0592  0.3254
 7287SOL    HW228914   0.885   0.783   2.291  0.3209 -0.9738 -1.8031
 7287SOL    HW328915   1.017   0.856   2.295  0.2182 -0.8394 -0.1439
 7287SOL    MW428916   0.934   0.851   2.268  0.1360  0.1538 -0.0009
 7288SOL     OW28917   2.875   0.632   3.285  0.4463 -0.3458 -0.0291
 7288SOL    HW228918   2.937   0.560   3.275  1.0700 -0.0452  1.4879
 7288SOL    HW328919   2.789   0.590   3.282  0.8026 -1.2043  1.1310
 7288SOL    MW428920   2.872   0.617   3.283  0.1555 -0.0085 -0.1433
 7289SOL     OW28921   3.451   6.052   5.522  0.3108  0.0129  0.6387
 7289SOL    HW228922   3.403   5.993   5.463  1.3507 -0.8458  0.6193
 7289SOL    HW328923   3.525   6.083   5.470  0.8616 -0.2267  1.2689
 7289SOL    MW428924   3.454   6.048   5.507 -0.2900  0.3738  0.3007
 7290SOL     OW28925   0.150   1.578   2.929 -0.4094 -0.2322 -0.3222
 7290SOL    HW228926   0.173   1.627   2.850  0.1541 -1.0021 -0.6501
 7290SOL    HW328927   0.198   1.623   2.999  0.2131 -0.3832 -0.6376
 7290SOL    MW428928   0.159   1.591   2.928 -0.1931  0.5632 -0.2760
 7291SOL     OW28929   3.621   0.699   2.986  0.1080 -0.2576  0.2055
 7291SOL    HW228930   3.632   0.792   3.007  0.3276 -0.0398 -0.7919
 7291SOL    HW328931   3.617   0.655   3.070 -1.0178  0.7763  0.7165
 7291SOL    MW428932   3.622   0.706   3.000 -0.4246 -0.7695 -0.6362
 7292SOL     OW28933  -0.002   1.347   5.364  0.2592  0.1563 -0.5175
 7292SOL    HW228934  -0.030   1.409   5.431 -2.1470  1.3860 -2.5067
 7292SOL    HW328935   0.083   1.381   5.335  0.1449  1.0685  0.1555
 7292SOL    MW428936   0.006   1.360   5.369  0.9274 -0.5408  0.1448
 7293SOL     OW28937   5.538   4.033   0.238 -0.5088  0.6971  0.4523
 7293SOL    HW228938   5.504   4.041   0.149 -1.4006 -0.3757  0.6846
 7293SOL    HW328939   5.614   3.976   0.230 -0.8217  0.2784  0.4239
 7293SOL    MW428940   5.544   4.027   0.225 -0.0925  0.2154 -0.2617
 7294SOL     OW28941   6.209   2.584   1.598  0.1407  0.1637  0.2377
 7294SOL    HW228942   6.132   2.527   1.604 -0.5967  1.0708 -0.2717
 7294SOL    HW328943   6.242   2.570   1.509  0.2798  0.1200  0.2972
 7294SOL    MW428944   6.203   2.575   1.587  0.2199  0.1372 -0.2210
 7295SOL     OW28945   1.603   2.297   3.597  0.2217  0.3763 -0.1853
 7295SOL    HW228946   1.632   2.382   3.630  2.4402  0.2446 -1.6356
 7295SOL    HW328947   1.671   2.236   3.624  0.4565 -0.2976 -2.1448
 7295SOL    MW428948   1.616   2.300   3.605 -0.2774  0.6475 -0.6149
 7296SOL     OW28949   4.624   1.993   2.634 -0.5624 -0.9758  0.1301
 7296SOL    HW228950   4.627   1.900   2.609  2.1502 -0.9033 -0.1200
 7296SOL    HW328951   4.532   2.018   2.621 -1.5270 -3.7617  0.8566
 7296SOL    MW428952   4.612   1.984   2.629 -0.6809 -0.1644  0.0934
 7297SOL     OW28953   0.983   0.417   2.172  0.7776  0.6170  0.0056
 7297SOL    HW228954   0.910   0.435   2.113  1.6309  0.3988 -1.1548
 7297SOL    HW328955   1.027   0.342   2.134  1.0128  0.0861  1.2710
 7297SOL    MW428956   0.979   0.410   2.159 -0.1112 -0.1360 -0.0895
 7298SOL     OW28957   0.617   2.844   0.815 -0.4744 -0.1834  0.0932
 7298SOL    HW228958   0.670   2.784   0.764 -1.8387 -0.8995 -0.5527
 7298SOL    HW328959   0.642   2.931   0.785 -0.1113 -0.5293 -0.6306
 7298SOL    MW428960   0.627   2.848   0.805  0.2406  0.1182  0.1461
 7299SOL     OW28961   0.554   5.084   5.873  0.0577 -0.4796  0.4145
 7299SOL    HW228962   0.545   5.075   5.968  0.8855 -0.7723  0.4765
 7299SOL    HW328963   0.489   5.023   5.837 -1.0619  0.4603  0.7612
 7299SOL    MW428964   0.544   5.075   5.880 -0.4264  0.7646 -0.2894
 7300SOL     OW28965   1.953   4.415   5.797  0.0067 -0.4703  0.9144
 7300SOL    HW228966   2.021   4.390   5.859 -1.1500  0.4811  2.6458
 7300SOL    HW328967   1.920   4.499   5.830 -1.3097 -0.4051 -0.4540
 7300SOL    MW428968   1.958   4.423   5.810 -0.4180  0.5290  0.5277
 7301SOL     OW28969   4.883   1.823   0.331  0.0417  0.0025  0.0705
 7301SOL    HW228970   4.866   1.765   0.405 -2.0900 -0.0969 -0.4199
 7301SOL    HW328971   4.936   1.770   0.271  0.4274 -0.4735  0.8214
 7301SOL    MW428972   4.888   1.808   0.333  0.0583  0.2944 -0.1425
 7302SOL     OW28973   1.226   1.250   4.742  0.6469  0.3230 -0.8222
 7302SOL    HW228974   1.294   1.187   4.719 -0.2094 -0.7729 -0.4063
 7302SOL    HW328975   1.144   1.203   4.732  0.0197  1.1624  0.1244
 7302SOL    MW428976   1.224   1.236   4.738 -0.0931 -0.4609  0.0281
 7303SOL     OW28977   1.419   3.580   2.000  0.6463  0.0951  0.2806
 7303SOL    HW228978   1.421   3.490   1.967  0.6681 -0.2045  1.0841
 7303SOL    HW328979   1.434   3.634   1.923 -1.3678 -0.4989 -0.5843
 7303SOL    MW428980   1.421   3.575   1.986 -0.4872  0.2364  0.6731
 7304SOL     OW28981   3.514   5.629   0.929  0.4430 -0.9297  0.2850
 7304SOL    HW228982   3.478   5.582   0.854 -2.0541 -0.6861  1.2418
 7304SOL    HW328983   3.591   5.674   0.893 -0.3442 -1.2352 -2.0010
 7304SOL    MW428984   3.520   5.629   0.914 -0.0326  0.1871 -0.3463
 7305SOL     OW28985   5.218   3.041   5.793  0.1853  0.2204 -0.2364
 7305SOL    HW228986   5.207   3.046   5.888 -1.8979 -2.0856 -0.2360
 7305SOL    HW328987   5.268   2.961   5.779 -2.0743 -1.1344 -1.0903
 7305SOL    MW428988   5.223   3.031   5.804 -0.6823 -0.1139  0.3711
 7306SOL     OW28989   5.793   5.328   4.637  0.3337 -0.2484 -0.0068
 7306SOL    HW228990   5.765   5.363   4.553  0.1402  1.5535  0.7577
 7306SOL    HW328991   5.724   5.268   4.663  0.4328 -0.8770 -1.1424
 7306SOL    MW428992   5.781   5.325   4.629 -0.8161  0.2915 -0.4170
 7307SOL     OW28993   0.261   0.736   2.263  0.6424  0.3901  0.1291
 7307SOL    HW228994   0.251   0.668   2.330 -1.6235  0.6448  0.0981
 7307SOL    HW328995   0.271   0.817   2.312  0.5152  0.3847  0.1642
 7307SOL    MW428996   0.261   0.737   2.278 -0.3753 -0.1615  0.2633
 7308SOL     OW28997   0.083   5.448   2.088 -0.2147  0.5277  0.0602
 7308SOL    HW228998   0.051   5.437   1.998 -1.6526  1.9153  0.3501
 7308SOL    HW328999   0.014   5.411   2.143 -0.4363  1.7590  0.6458
 7308SOL    MW429000   0.069   5.442   2.083 -0.1707 -0.3825 -0.0539
 7309SOL     OW29001   3.580   2.485   4.035  0.4744  0.2495  0.1232
 7309SOL    HW229002   3.492   2.449   4.027  0.0225  1.4059 -0.2639
 7309SOL    HW329003   3.635   2.425   3.984 -0.3094  0.2833 -0.7747
 7309SOL    MW429004   3.576   2.472   4.027 -0.0399 -1.1954 -0.0459
 7310SOL     OW29005   1.410   5.235   2.039 -0.0898 -0.2199 -0.0536
 7310SOL    HW229006   1.333   5.250   1.985  0.5442  0.4547 -0.7857
 7310SOL    HW329007   1.484   5.240   1.978  0.5820 -0.2375  0.7393
 7310SOL    MW429008   1.410   5.237   2.024  0.0842 -0.0446  0.2039
 7311SOL     OW29009   4.283   1.549   0.021 -0.0246  0.7662 -0.4023
 7311SOL    HW229010   4.262   1.477  -0.039 -0.9726  0.0878  0.6970
 7311SOL    HW329011   4.378   1.545   0.031 -0.0400 -0.2177 -0.5163
 7311SOL    MW429012   4.293   1.539   0.014 -0.0306 -0.0935  0.0814
 7312SOL     OW29013   2.025   3.794   4.965 -0.1404  0.2796  0.2574
 7312SOL    HW229014   2.065   3.867   4.918 -1.2941  1.2129  0.6664
 7312SOL    HW329015   1.962   3.757   4.903  0.2337 -0.1961  0.1548
 7312SOL    MW429016   2.022   3.799   4.951 -0.1332 -0.0525  0.1204
 7313SOL     OW29017   1.115   0.877   4.276  0.4223 -0.8168 -0.1587
 7313SOL    HW229018   1.195   0.929   4.264 -0.2385  0.2975  0.1751
 7313SOL    HW329019   1.044   0.940   4.271 -0.3269 -1.4426  1.7662
 7313SOL    MW429020   1.116   0.892   4.274  0.2344  0.0035  0.2072
 7314SOL     OW29021   2.624   6.299   2.845 -0.2791 -0.3379  0.2456
 7314SOL    HW229022   2.602   6.277   2.935 -0.9132  0.1602  0.2230
 7314SOL    HW329023   2.638   6.394   2.847 -0.6050 -0.2795 -0.2409
 7314SOL    MW429024   2.623   6.309   2.857 -0.5872 -0.1145  0.0827
 7315SOL     OW29025   5.891   4.845   3.645 -0.2841 -0.1533 -0.8858
 7315SOL    HW229026   5.945   4.772   3.615  1.3497 -0.1908  1.7929
 7315SOL    HW329027   5.816   4.804   3.689  0.3148 -0.2510  0.0744
 7315SOL    MW429028   5.888   4.830   3.647 -0.2412 -0.2875  0.1652
 7316SOL     OW29029   5.105   6.078   4.372 -0.3016  0.5289 -0.1349
 7316SOL    HW229030   5.107   6.018   4.298 -0.6721 -0.0788  0.3357
 7316SOL    HW329031   5.185   6.060   4.421 -0.7740 -0.1466  0.4245
 7316SOL    MW429032   5.116   6.068   4.369  0.3019 -0.7145 -0.0880
 7317SOL     OW29033   4.022   2.289   1.166 -0.3674  0.3917  0.2893
 7317SOL    HW229034   3.968   2.241   1.229 -0.8269  0.3791 -0.1052
 7317SOL    HW329035   4.087   2.334   1.220 -1.1489  0.9024  0.8500
 7317SOL    MW429036   4.023   2.289   1.182  0.6016  0.1506 -0.2544
 7318SOL     OW29037   2.064   1.710   3.653  0.2533  0.2489 -0.0336
 7318SOL    HW229038   1.973   1.684   3.665  0.4819 -0.5655  0.0094
 7318SOL    HW329039   2.065   1.804   3.671 -0.8861  0.6292 -1.7040
 7318SOL    MW429040   2.052   1.719   3.657  0.1785 -0.1515 -0.1369
 7319SOL     OW29041   4.572   4.359   5.461  0.8047  0.3580 -0.3592
 7319SOL    HW229042   4.486   4.326   5.437  0.4733  1.8673 -1.3681
 7319SOL    HW329043   4.630   4.327   5.392  0.6273  1.2029 -0.9083
 7319SOL    MW429044   4.568   4.350   5.449  0.1636  0.1615 -0.3132
 7320SOL     OW29045   5.488   3.093   2.316  0.7435 -0.2510  0.0037
 7320SOL    HW229046   5.468   3.148   2.392  3.0652  2.1291 -0.9569
 7320SOL    HW329047   5.493   3.004   2.351  0.8841  0.6660  2.4726
 7320SOL    MW429048   5.486   3.088   2.331  0.2596  0.0690 -0.5121
 7321SOL     OW29049   5.954   2.411   6.245 -0.0182 -0.4263  0.3017
 7321SOL    HW229050   5.862   2.414   6.270  0.1895 -0.3640  1.0973
 7321SOL    HW329051   5.956   2.353   6.169 -0.5870 -1.2597  0.8975
 7321SOL    MW429052   5.942   2.404   6.238 -0.1757  0.5353 -0.0998
 7322SOL     OW29053   5.149   1.294   6.184 -0.1141  0.1834 -0.6733
 7322SOL    HW229054   5.204   1.243   6.124 -2.0189 -1.8503 -0.8584
 7322SOL    HW329055   5.062   1.293   6.142 -1.1366  0.0390  1.3386
 7322SOL    MW429056   5.145   1.287   6.171 -0.1558  0.3323  0.3356
 7323SOL     OW29057   4.583   1.067   2.302  0.0541  0.0980 -0.3774
 7323SOL    HW229058   4.561   0.976   2.323  0.1710  0.2858  0.6011
 7323SOL    HW329059   4.500   1.105   2.272 -0.0991 -0.2026 -0.3402
 7323SOL    MW429060   4.569   1.060   2.300  0.5500 -0.0038 -0.2759
 7324SOL     OW29061   1.894   0.305   4.967  0.7835  0.1081  0.1741
 7324SOL    HW229062   1.911   0.399   4.961  0.9508  0.2347  2.1199
 7324SOL    HW329063   1.967   0.265   4.919  1.5325  0.9331  0.5921
 7324SOL    MW429064   1.906   0.312   4.960 -0.0796 -0.7172 -0.9625
 7325SOL     OW29065   2.278   5.661   2.190  0.3974  0.0042  0.3348
 7325SOL    HW229066   2.244   5.572   2.177  1.1695 -0.2651  0.1289
 7325SOL    HW329067   2.339   5.654   2.264  0.2963  0.4101  0.4627
 7325SOL    MW429068   2.281   5.648   2.198 -0.1635 -0.9091  0.4472
 7326SOL     OW29069   1.327   6.147   0.796 -0.0010  0.0610  0.0171
 7326SOL    HW229070   1.321   6.200   0.716 -0.7393 -1.6197 -1.0979
 7326SOL    HW329071   1.258   6.082   0.787 -0.7608  0.4039  2.5301
 7326SOL    MW429072   1.318   6.145   0.784 -0.4473 -0.1723  0.4295
 7327SOL     OW29073   4.707   5.294   6.022 -0.3096 -0.6806  0.2294
 7327SOL    HW229074   4.676   5.204   6.022  1.0135 -1.1710  1.3596
 7327SOL    HW329075   4.801   5.287   6.034 -0.1054  0.8374 -0.3252
 7327SOL    MW429076   4.715   5.281   6.024  0.0076  0.1869 -0.0135
 7328SOL     OW29077   5.435   6.392   1.344 -0.3257 -0.3183  0.3655
 7328SOL    HW229078   5.465   6.304   1.367 -1.4550 -0.4832  1.2556
 7328SOL    HW329079   5.474   6.448   1.411  0.1126 -0.1815 -0.0013
 7328SOL    MW429080   5.444   6.388   1.356 -0.4809 -0.1680 -0.0715
 7329SOL     OW29081   1.899   6.353   1.951 -0.3123  0.2575 -0.0742
 7329SOL    HW229082   1.986   6.337   1.986 -0.4039 -0.5282 -0.1867
 7329SOL    HW329083   1.848   6.276   1.977 -0.3160 -0.5146 -2.1445
 7329SOL    MW429084   1.903   6.341   1.959 -0.4089 -0.1155 -0.0318
 7330SOL     OW29085   1.773   2.231   3.976 -0.4570  0.0312  0.7140
 7330SOL    HW229086   1.724   2.308   4.004 -0.2266  0.1779  0.7160
 7330SOL    HW329087   1.708   2.176   3.931 -0.5898  0.2869  0.5926
 7330SOL    MW429088   1.758   2.234   3.974 -0.2414  0.1742 -0.1556
 7331SOL     OW29089   1.696   6.338   0.005  0.2763  0.2453  0.4130
 7331SOL    HW229090   1.767   6.359   0.066  0.2013  1.5664  0.0790
 7331SOL    HW329091   1.625   6.307   0.061  0.5393  0.5085  0.9033
 7331SOL    MW429092   1.696   6.336   0.020 -0.0714 -0.1175  0.0317
 7332SOL     OW29093   0.223   5.663   2.177  0.4312  0.0617 -0.5617
 7332SOL    HW229094   0.178   5.580   2.160  0.6943 -0.5418  1.4063
 7332SOL    HW329095   0.291   5.667   2.111 -0.9021 -0.2300 -2.0220
 7332SOL    MW429096   0.226   5.653   2.166  0.3908 -0.1336 -0.0804
 7333SOL     OW29097   5.671   0.191   0.168  0.0328 -0.0554 -0.0309
 7333SOL    HW229098   5.697   0.175   0.077  0.3796 -0.2566  0.1012
 7333SOL    HW329099   5.577   0.210   0.163  0.0827  0.0892 -0.4482
 7333SOL    MW429100   5.662   0.191   0.155  0.1486 -0.5749 -0.4922
 7334SOL     OW29101   2.043   6.182   4.329 -0.0220  0.2947  0.2109
 7334SOL    HW229102   1.982   6.232   4.385  0.2918  0.6949  0.2044
 7334SOL    HW329103   2.114   6.244   4.312  0.6452 -0.3410  0.6536
 7334SOL    MW429104   2.044   6.197   4.334 -0.1452  0.0874  0.3187
 7335SOL     OW29105   0.422   5.294   1.384  0.6465 -0.5218 -0.6609
 7335SOL    HW229106   0.415   5.241   1.463 -0.2770 -0.2361 -0.5391
 7335SOL    HW329107   0.450   5.233   1.317  0.5553 -0.9603 -0.3034
 7335SOL    MW429108   0.425   5.279   1.386 -0.0679  0.1901  0.0359
 7336SOL     OW29109   4.838   0.398   5.972 -0.1975  0.8541 -0.0918
 7336SOL    HW229110   4.830   0.302   5.978  0.2177  0.8677  0.9930
 7336SOL    HW329111   4.769   0.424   5.911  0.7013 -0.2803 -1.6806
 7336SOL    MW429112   4.828   0.389   5.965  0.0150 -0.2899 -0.6861
 7337SOL     OW29113   6.006   4.093   0.026  0.1129 -0.8346 -0.1344
 7337SOL    HW229114   5.961   4.173  -0.001  2.4044  0.7153  0.3101
 7337SOL    HW329115   6.097   4.107  -0.001  0.6832 -3.0593  0.4789
 7337SOL    MW429116   6.013   4.106   0.019  0.0747 -0.4882 -0.7016
 7338SOL     OW29117   3.600   0.841   2.065  0.5522  0.3072 -0.4409
 7338SOL    HW229118   3.522   0.889   2.092 -0.0509 -1.0199  0.2990
 7338SOL    HW329119   3.585   0.821   1.973 -0.3398 -0.5416 -0.1305
 7338SOL    MW429120   3.588   0.844   2.057  0.2593 -0.0865  0.0878
 7339SOL     OW29121   4.660   0.812   0.507 -0.3038  0.4417 -0.1635
 7339SOL    HW229122   4.729   0.829   0.442 -0.7091  0.1383 -0.6780
 7339SOL    HW329123   4.614   0.896   0.515  0.0919  0.6340  0.1496
 7339SOL    MW429124   4.663   0.826   0.500  0.4237  0.0659 -0.4148
 7340SOL     OW29125   3.709   0.643   2.419 -0.3674 -0.4782  0.1206
 7340SOL    HW229126   3.681   0.717   2.472  0.9783  1.4527 -1.6623
 7340SOL    HW329127   3.630   0.616   2.372 -0.3262  2.0884 -1.6715
 7340SOL    MW429128   3.695   0.649   2.419 -0.1169 -0.2674 -0.0063
 7341SOL     OW29129   5.351   2.546   1.358  0.2892  0.4130  0.3407
 7341SOL    HW229130   5.313   2.543   1.270 -0.8662  0.2781  0.8356
 7341SOL    HW329131   5.439   2.581   1.344  0.4251 -0.3923 -0.9695
 7341SOL    MW429132   5.358   2.550   1.344  0.5709  0.1552 -0.6539
 7342SOL     OW29133   0.543   0.976   2.277 -0.0419 -0.1218 -0.2700
 7342SOL    HW229134   0.583   0.911   2.335 -0.6009 -1.4851 -1.3580
 7342SOL    HW329135   0.459   0.996   2.318 -0.7875 -1.6860 -0.9954
 7342SOL    MW429136   0.537   0.970   2.290 -0.3133  0.3952  0.1117
 7343SOL     OW29137   2.360   3.376   5.620  0.4636 -0.6232  0.3990
 7343SOL    HW229138   2.307   3.297   5.612 -0.8836  0.3350 -0.6345
 7343SOL    HW329139   2.301   3.440   5.659  1.3813  0.0235  0.7453
 7343SOL    MW429140   2.345   3.374   5.624  0.0616 -0.6104  0.4266
 7344SOL     OW29141   0.865   4.403   2.793 -0.0056 -0.0212 -0.1100
 7344SOL    HW229142   0.800   4.340   2.762 -0.4520  0.1858  0.3864
 7344SOL    HW329143   0.922   4.353   2.852  1.2190 -0.5644 -1.6838
 7344SOL    MW429144   0.864   4.388   2.797 -0.5515 -0.2662 -0.0535
 7345SOL     OW29145   1.269   0.625   2.292 -0.0390  0.5924  0.4270
 7345SOL    HW229146   1.186   0.585   2.318  0.0016  0.2491  0.0430
 7345SOL    HW329147   1.254   0.657   2.203  0.9356 -1.6210 -0.6177
 7345SOL    MW429148   1.256   0.624   2.283  0.4914  0.2720  0.0077
 7346SOL     OW29149   2.227   1.292   0.557 -0.5397 -0.7565 -0.0097
 7346SOL    HW229150   2.167   1.252   0.620 -0.5463  0.0960  0.5472
 7346SOL    HW329151   2.279   1.354   0.609 -1.5782  1.0972 -1.0601
 7346SOL    MW429152   2.226   1.295   0.573  0.0440  0.6235  0.0752
 7347SOL     OW29153   0.459   4.210   3.499 -0.4960 -0.6138  0.3874
 7347SOL    HW229154   0.518   4.243   3.432 -0.6992  0.5658  0.7615
 7347SOL    HW329155   0.510   4.213   3.580 -0.0474 -2.6094  0.2273
 7347SOL    MW429156   0.473   4.215   3.501  0.2863  0.1789 -0.3821
 7348SOL     OW29157   1.586   5.963   0.052  0.4616 -0.5418  0.0790
 7348SOL    HW229158   1.619   5.920  -0.027 -0.4103 -1.4460  0.1881
 7348SOL    HW329159   1.564   5.891   0.111  0.4250  0.1062  0.8719
 7348SOL    MW429160   1.587   5.948   0.049  0.1124 -0.0974 -0.0522
 7349SOL     OW29161   1.684   4.767   4.362 -0.6125  0.0356 -0.5398
 7349SOL    HW229162   1.628   4.821   4.417 -1.3786  1.9555 -3.0408
 7349SOL    HW329163   1.771   4.806   4.371 -0.5235 -0.2856  0.0476
 7349SOL    MW429164   1.688   4.779   4.371 -0.4431  0.0452  0.0602
 7350SOL     OW29165   1.200   0.486   0.284 -0.2140 -0.0919 -0.3184
 7350SOL    HW229166   1.175   0.484   0.192 -1.9941 -2.7386  0.0983
 7350SOL    HW329167   1.208   0.394   0.309 -1.5431  0.4467  2.5688
 7350SOL    MW429168   1.198   0.473   0.275  0.7978  0.3109  0.2710
 7351SOL     OW29169   4.163   4.704   5.122 -0.4758  0.0028 -0.2159
 7351SOL    HW229170   4.095   4.697   5.189 -0.0095 -1.0856  0.1689
 7351SOL    HW329171   4.239   4.660   5.160  0.4381  1.1251 -0.6617
 7351SOL    MW429172   4.164   4.697   5.136  0.4535 -0.0244 -0.4608
 7352SOL     OW29173   5.987   0.246   3.706  0.5425  0.7512  0.1697
 7352SOL    HW229174   6.073   0.240   3.664  0.3393  0.4229 -0.2017
 7352SOL    HW329175   5.989   0.331   3.752  1.4631  0.2638  1.0673
 7352SOL    MW429176   5.999   0.257   3.707 -0.4593  0.1143 -0.6597
 7353SOL     OW29177   4.278   2.796   3.090 -0.0367 -0.1734  0.1551
 7353SOL    HW229178   4.205   2.847   3.126 -0.4730 -0.4647 -0.2981
 7353SOL    HW329179   4.236   2.736   3.027  0.3809 -1.5036  1.1023
 7353SOL    MW429180   4.263   2.795   3.086 -0.1586 -0.1945  0.1947
 7354SOL     OW29181   3.033   5.599   4.165 -0.2825  0.0593 -0.3175
 7354SOL    HW229182   3.112   5.567   4.207  1.3925 -0.0964 -3.2828
 7354SOL    HW329183   2.987   5.649   4.233  2.7652  0.8370  1.3255
 7354SOL    MW429184   3.037   5.602   4.179  0.4367  0.9773 -0.0128
 7355SOL     OW29185   5.156   0.394   4.303 -0.4735  0.3516 -0.5335
 7355SOL    HW229186   5.114   0.344   4.234 -0.5169 -0.2911 -0.0434
 7355SOL    HW329187   5.155   0.484   4.270 -2.2838  0.3830 -0.5143
 7355SOL    MW429188   5.150   0.400   4.289  0.6244  0.9288 -0.1344
 7356SOL     OW29189   1.661   3.057   6.266 -0.2742  0.6712  0.0633
 7356SOL    HW229190   1.740   3.093   6.225 -1.2847  3.6809  0.5338
 7356SOL    HW329191   1.694   3.012   6.344  1.0967  0.4543 -0.5981
 7356SOL    MW429192   1.676   3.056   6.271  0.2276  0.5846 -0.6058
 7357SOL     OW29193   1.557   1.712   1.939  0.0009  0.3035 -0.1312
 7357SOL    HW229194   1.637   1.744   1.982 -0.2482  1.1504 -0.2677
 7357SOL    HW329195   1.589   1.657   1.868  0.4627  0.4065 -0.0137
 7357SOL    MW429196   1.572   1.709   1.935  0.0616  0.0497 -0.0619
 7358SOL     OW29197   0.132   2.970   1.242 -0.2510  0.0871 -0.0326
 7358SOL    HW229198   0.193   2.928   1.182 -0.2553 -1.8057  1.2000
 7358SOL    HW329199   0.052   2.918   1.235 -0.9608  1.1353  0.0712
 7358SOL    MW429200   0.129   2.957   1.233 -0.1479 -0.7810 -0.4053
 7359SOL     OW29201   0.312   3.816   0.004  0.4376  0.2034  0.2334
 7359SOL    HW229202   0.246   3.801  -0.065 -0.8007  2.2725  0.8739
 7359SOL    HW329203   0.316   3.733   0.052  1.8803 -1.5899 -2.6622
 7359SOL    MW429204   0.304   3.803   0.001  0.3009 -0.5080  0.0032
 7360SOL     OW29205   5.737   0.136   4.548 -0.1467 -0.7784  0.5061
 7360SOL    HW229206   5.657   0.149   4.497 -0.4998 -1.5469  0.8593
 7360SOL    HW329207   5.720   0.060   4.603  0.3228 -0.1391  1.5889
 7360SOL    MW429208   5.724   0.128   4.549  0.1128 -0.2005  0.2206
 7361SOL     OW29209   0.601   4.015   5.705  0.1512  0.3290 -0.0823
 7361SOL    HW229210   0.691   3.990   5.724  0.8120  2.1499 -0.6813
 7361SOL    HW329211   0.554   3.932   5.703  1.8043 -0.6630  0.2186
 7361SOL    MW429212   0.607   4.001   5.708 -0.0221 -0.0148  0.0004
 7362SOL     OW29213   3.907   3.345   6.236  0.0278 -0.1319 -0.4356
 7362SOL    HW229214   3.921   3.389   6.152  0.7751 -1.0724 -0.8200
 7362SOL    HW329215   3.890   3.254   6.213 -0.5574 -0.2449  0.4002
 7362SOL    MW429216   3.907   3.339   6.222  0.3746  0.4412 -0.4669
 7363SOL     OW29217   1.595   4.182   1.967  0.5072  0.1230  0.4374
 7363SOL    HW229218   1.675   4.149   2.007 -0.4910 -2.7491  0.2438
 7363SOL    HW329219   1.624   4.259   1.918  3.1529 -0.7974  0.3885
 7363SOL    MW429220   1.609   4.188   1.966 -0.3526 -0.4018 -0.4483
 7364SOL     OW29221   4.879   3.075   3.248  0.0612  0.2049  0.5438
 7364SOL    HW229222   4.818   3.116   3.309 -1.4090 -0.6671 -0.2872
 7364SOL    HW329223   4.893   3.141   3.180 -0.4265  0.1921  0.4324
 7364SOL    MW429224   4.873   3.089   3.247  0.1161 -0.5339 -0.4036
 7365SOL     OW29225   0.566   5.376   3.717  0.2390  0.1875  0.0504
 7365SOL    HW229226   0.570   5.430   3.796  3.0169  0.3240 -0.0922
 7365SOL    HW329227   0.591   5.434   3.646  2.1559 -0.9569 -0.2624
 7365SOL    MW429228   0.570   5.391   3.718  0.0979  0.0173  0.0010
 7366SOL     OW29229   3.880   2.992   0.408  0.9387 -0.2505 -0.0595
 7366SOL    HW229230   3.871   3.052   0.334  1.5564  0.6912  0.6034
 7366SOL    HW329231   3.839   3.038   0.481 -1.4157 -1.9941 -0.2075
 7366SOL    MW429232   3.874   3.006   0.408 -0.5065 -0.1226 -0.1612
 7367SOL     OW29233   6.004   4.129   0.304  0.2884 -0.1644 -0.4084
 7367SOL    HW229234   6.000   4.095   0.214  0.5493 -0.8429 -0.1712
 7367SOL    HW329235   6.090   4.170   0.310 -0.0652  0.6440 -0.7260
 7367SOL    MW429236   6.014   4.130   0.293 -0.2006  0.0329 -0.3237
 7368SOL     OW29237   3.409   4.822   4.729  0.0567 -0.2704  0.1836
 7368SOL    HW229238   3.349   4.755   4.761  0.4698  0.4745  2.7929
 7368SOL    HW329239   3.487   4.774   4.703 -0.0641 -0.9081  0.9561
 7368SOL    MW429240   3.411   4.807   4.730 -0.3047  0.5977  0.5424
 7369SOL     OW29241   5.150   5.228   1.392 -0.0121  0.1150  0.0000
 7369SOL    HW229242   5.220   5.289   1.372  3.1097 -3.7556 -2.4483
 7369SOL    HW329243   5.165   5.203   1.483  1.4443 -0.1618 -0.2964
 7369SOL    MW429244   5.161   5.232   1.401 -0.0669 -0.5135  0.3055
 7370SOL     OW29245   1.517   4.538   0.591 -0.1295 -0.2761  0.3399
 7370SOL    HW229246   1.554   4.463   0.639 -0.2747 -1.1156 -0.8340
 7370SOL    HW329247   1.451   4.574   0.650  1.6497  0.4885  1.9726
 7370SOL    MW429248   1.513   4.533   0.605  0.3202 -0.3610  0.4621
 7371SOL     OW29249   1.649   2.150   1.267  0.1457 -0.3512  0.4366
 7371SOL    HW229250   1.641   2.244   1.282 -0.1939 -0.2781 -0.1809
 7371SOL    HW329251   1.649   2.141   1.172 -1.0343 -1.0751  0.4895
 7371SOL    MW429252   1.648   2.161   1.256 -0.5228 -0.2796 -0.3820
 7372SOL     OW29253   0.412   2.722   3.985  0.2574 -0.0704 -0.3615
 7372SOL    HW229254   0.402   2.771   3.904 -0.0433 -0.2126 -0.4108
 7372SOL    HW329255   0.507   2.708   3.993  0.2552 -0.4526 -0.9253
 7372SOL    MW429256   0.423   2.727   3.976 -0.2370  0.7488  0.5794
 7373SOL     OW29257   3.080   0.692   2.934  0.2622 -0.3294  0.2404
 7373SOL    HW229258   3.020   0.766   2.926  0.3583 -0.0254  1.9147
 7373SOL    HW329259   3.159   0.721   2.888  0.3343  0.6819  0.9504
 7373SOL    MW429260   3.083   0.706   2.927 -0.3858  0.4406 -0.3689
 7374SOL     OW29261   0.116   2.602   4.686 -0.6763 -0.1609 -0.0786
 7374SOL    HW229262   0.144   2.618   4.776 -1.0490  2.1571 -0.3083
 7374SOL    HW329263   0.195   2.611   4.634 -0.5479 -1.0367 -0.0527
 7374SOL    MW429264   0.130   2.606   4.691 -0.0598 -0.3208  0.0874
 7375SOL     OW29265   2.217   1.429   0.323  0.5250 -0.1283 -0.3113
 7375SOL    HW229266   2.235   1.393   0.409 -1.9650 -0.1619  0.2543
 7375SOL    HW329267   2.152   1.497   0.338 -2.3465 -2.1791 -2.3988
 7375SOL    MW429268   2.211   1.434   0.336 -0.6391 -0.4260 -0.2060
 7376SOL     OW29269   4.706   6.199   3.856 -0.3741 -0.2520 -0.0980
 7376SOL    HW229270   4.755   6.138   3.911 -0.7293  0.1754  0.7075
 7376SOL    HW329271   4.734   6.179   3.767  1.4757  0.1888  0.3531
 7376SOL    MW429272   4.716   6.188   3.852  0.3779 -0.2621 -0.0968
 7377SOL     OW29273   5.852   6.332   0.663  0.1425 -0.6280 -0.1395
 7377SOL    HW229274   5.759   6.314   0.675 -0.4040  1.9028 -0.0647
 7377SOL    HW329275   5.857   6.377   0.578  1.0811  0.5396  0.5035
 7377SOL    MW429276   5.841   6.335   0.653 -0.3924  0.0007 -0.5924
 7378SOL     OW29277   1.382   5.018   3.694  0.1292 -0.2809 -0.9461
 7378SOL    HW229278   1.390   4.975   3.780  0.6845  0.7914 -0.4499
 7378SOL    HW329279   1.289   5.037   3.686  0.2381  0.8022  0.0358
 7378SOL    MW429280   1.371   5.015   3.704  0.6197 -0.0018 -0.0624
 7379SOL     OW29281   3.319   4.311   5.128 -0.4299 -1.5087  0.1023
 7379SOL    HW229282   3.244   4.276   5.176 -1.0224 -0.4220  0.0010
 7379SOL    HW329283   3.392   4.306   5.190 -1.3977  0.8730  1.5727
 7379SOL    MW429284   3.319   4.306   5.142 -0.3119  0.7552 -0.3584
 7380SOL     OW29285   2.152   6.368   4.114 -0.2157  0.3589 -0.2316
 7380SOL    HW229286   2.215   6.299   4.136  0.3218  0.6989 -0.7028
 7380SOL    HW329287   2.197   6.449   4.135  0.3862  0.7227 -2.6789
 7380SOL    MW429288   2.166   6.369   4.120  0.1025 -0.0925  0.5726
 7381SOL     OW29289   0.507   4.659   1.207 -0.3557  0.1812  0.0223
 7381SOL    HW229290   0.545   4.580   1.245 -1.2868 -0.6773 -0.7540
 7381SOL    HW329291   0.413   4.652   1.226 -0.3293  1.6070  0.7985
 7381SOL    MW429292   0.500   4.647   1.214 -0.3034 -0.4498  0.0794
 7382SOL     OW29293   4.228   2.287   1.638 -0.2763  0.5213 -0.1614
 7382SOL    HW229294   4.212   2.361   1.698  1.7427  3.1805 -2.5951
 7382SOL    HW329295   4.317   2.259   1.658  0.1468  0.9541 -1.3813
 7382SOL    MW429296   4.238   2.293   1.649  0.3597 -0.0923 -0.5174
 7383SOL     OW29297   3.622   0.024   2.289  0.4949 -0.1170  0.4000
 7383SOL    HW229298   3.652   0.115   2.292  1.9139 -0.5072 -0.6490
 7383SOL    HW329299   3.599   0.003   2.380  1.1720  0.9727  0.8423
 7383SOL    MW429300   3.623   0.033   2.302  0.9192  0.0816 -0.1596
 7384SOL     OW29301   4.084   0.795   1.389 -0.7294 -0.4752  0.7190
 7384SOL    HW229302   4.037   0.731   1.334  0.2463 -1.0513  0.5319
 7384SOL    HW329303   4.015   0.845   1.432 -1.5165 -1.2269  0.3592
 7384SOL    MW429304   4.069   0.793   1.387 -0.3416  0.3517  0.1673
 7385SOL     OW29305   2.279   2.400   4.470 -0.2465 -0.6937  0.1864
 7385SOL    HW229306   2.261   2.442   4.554 -0.6984  0.0653 -0.2804
 7385SOL    HW329307   2.373   2.381   4.473 -0.4059 -1.4934  1.2125
 7385SOL    MW429308   2.289   2.403   4.482  0.2947 -0.3595  0.1866
 7386SOL     OW29309   1.428   0.357   6.134 -0.2772  0.4418 -0.2548
 7386SOL    HW229310   1.418   0.380   6.227 -0.1905 -0.1638 -0.0891
 7386SOL    HW329311   1.343   0.322   6.108  0.5423 -2.4011  0.4907
 7386SOL    MW429312   1.416   0.356   6.143 -0.4669 -0.8434 -0.2259
 7387SOL     OW29313   6.191   4.594   5.450 -0.2767 -0.6788 -0.6707
 7387SOL    HW229314   6.250   4.667   5.433  0.3672 -1.4256 -1.7526
 7387SOL    HW329315   6.181   4.594   5.545  1.1439 -0.2808 -0.4917
 7387SOL    MW429316   6.198   4.604   5.460 -0.3716  0.4066  0.2509
 7388SOL     OW29317   2.525   3.398   0.708  0.4240 -0.4918 -0.2980
 7388SOL    HW229318   2.461   3.411   0.778  0.2110 -2.3727 -0.0882
 7388SOL    HW329319   2.565   3.313   0.727  1.6055 -0.2513 -1.5116
 7388SOL    MW429320   2.522   3.389   0.720  0.4909  0.6171  0.0521
 7389SOL     OW29321   2.418   2.148   0.560  0.2406 -0.3841 -0.0257
 7389SOL    HW229322   2.456   2.194   0.635 -2.3212 -0.6761  1.5910
 7389SOL    HW329323   2.493   2.107   0.516  2.3111  2.8978  0.0769
 7389SOL    MW429324   2.433   2.149   0.564 -0.1716 -0.3168 -0.0395
 7390SOL     OW29325   0.723   1.717   3.185  0.3647 -0.5941 -0.5509
 7390SOL    HW229326   0.720   1.715   3.089  1.8717 -3.7656 -0.6736
 7390SOL    HW329327   0.806   1.760   3.206 -0.4818  1.1340 -0.5500
 7390SOL    MW429328   0.734   1.722   3.175 -0.1008  0.1973 -0.4006
 7391SOL     OW29329   5.076   4.357   4.763  0.1593  0.3703  0.3899
 7391SOL    HW229330   5.158   4.309   4.751 -0.1665  0.0202 -0.5479
 7391SOL    HW329331   5.101   4.449   4.760  0.5122  0.2672 -0.0283
 7391SOL    MW429332   5.090   4.363   4.761  0.5321  0.0575 -0.6484
 7392SOL     OW29333   0.544   1.010   3.927  0.2694 -0.0166 -0.3359
 7392SOL    HW229334   0.524   0.971   3.842  1.2054 -0.4954 -0.3443
 7392SOL    HW329335   0.627   0.970   3.953 -0.0921 -0.0150  0.8891
 7392SOL    MW429336   0.552   0.999   3.920  0.2931  0.1583 -0.3951
 7393SOL     OW29337   3.876   2.977   2.636  0.4280 -0.1883 -0.3658
 7393SOL    HW229338   3.912   2.950   2.551  1.0041 -0.4122 -0.0521
 7393SOL    HW329339   3.807   2.913   2.654  0.3382 -0.1712 -0.6367
 7393SOL    MW429340   3.872   2.965   2.627  0.3082  0.0093 -0.2921
 7394SOL     OW29341   0.346   5.325   3.555 -0.0968 -0.0009  1.0420
 7394SOL    HW229342   0.416   5.348   3.616  0.3778 -1.6950  1.1722
 7394SOL    HW329343   0.288   5.401   3.557  1.6851  1.4535  0.9509
 7394SOL    MW429344   0.348   5.338   3.564  0.0136 -0.2612 -0.4115
 7395SOL     OW29345   5.902   5.459   4.332 -0.5813  0.1600  0.2682
 7395SOL    HW229346   5.969   5.475   4.398  0.0132  2.2647 -0.7480
 7395SOL    HW329347   5.951   5.447   4.251 -1.3764 -0.0568 -0.1887
 7395SOL    MW429348   5.918   5.460   4.330  0.4983  0.2712 -0.6062
 7396SOL     OW29349   3.945   5.534   0.023  0.4700 -0.2988  0.2627
 7396SOL    HW229350   3.977   5.471   0.087  1.0157  0.9335  1.2573
 7396SOL    HW329351   4.023   5.562  -0.025  0.3040 -0.0690  0.1236
 7396SOL    MW429352   3.959   5.530   0.025  0.1790 -0.0630  0.4371
 7397SOL     OW29353   4.356   5.363   2.619 -0.1699  0.2996  0.4490
 7397SOL    HW229354   4.354   5.344   2.712 -1.4864  1.2374  0.6419
 7397SOL    HW329355   4.304   5.294   2.579  1.2165 -0.6855  0.2493
 7397SOL    MW429356   4.349   5.352   2.626  1.0092 -0.0021  0.4270
 7398SOL     OW29357   0.216   1.482   3.702 -0.4379 -0.5915  0.3154
 7398SOL    HW229358   0.199   1.394   3.737 -0.8756 -0.3708  0.6553
 7398SOL    HW329359   0.311   1.488   3.699 -0.3848 -1.5470 -0.8721
 7398SOL    MW429360   0.226   1.471   3.706 -0.6630  0.1425 -0.3650
 7399SOL     OW29361   0.041   4.622   0.555 -0.4049 -0.5187 -0.1519
 7399SOL    HW229362   0.046   4.567   0.633 -0.1716  0.7369  0.7601
 7399SOL    HW329363   0.047   4.712   0.589  1.4421  0.0269 -1.7319
 7399SOL    MW429364   0.043   4.627   0.570  0.2549 -0.1595  0.3291
 7400SOL     OW29365   1.825   5.036   5.099 -0.2250  0.3353  0.3687
 7400SOL    HW229366   1.783   4.952   5.112 -0.7062  0.6828  1.1419
 7400SOL    HW329367   1.756   5.101   5.112 -0.3241  0.8390 -2.0710
 7400SOL    MW429368   1.811   5.034   5.102  0.0680 -0.5385  0.3035
 7401SOL     OW29369   6.130   2.264   2.296 -0.2844 -0.2115  0.2848
 7401SOL    HW229370   6.148   2.325   2.224 -0.7545 -1.5428 -1.0075
 7401SOL    HW329371   6.146   2.315   2.375 -0.5311  1.5367 -0.7491
 7401SOL    MW429372   6.135   2.279   2.297 -0.2971  0.4113 -0.5309
 7402SOL     OW29373   2.938   0.954   0.142  0.2657  0.3388 -0.1360
 7402SOL    HW229374   2.884   0.891   0.094 -0.0822  0.2936  0.3163
 7402SOL    HW329375   2.993   0.900   0.199 -0.3714  0.4596  0.6046
 7402SOL    MW429376   2.938   0.939   0.143  0.3598 -0.5585 -0.1300
 7403SOL     OW29377   4.016   5.054   5.823 -0.3403 -0.3458  0.0956
 7403SOL    HW229378   4.053   4.975   5.862  0.4604  0.5137  1.1526
 7403SOL    HW329379   4.013   5.035   5.729  0.8123 -1.2549  0.2118
 7403SOL    MW429380   4.021   5.041   5.815 -0.4466  0.3290  0.1045
 7404SOL     OW29381   1.927   6.413   0.129 -0.1778 -0.1368  0.4895
 7404SOL    HW229382   1.973   6.497   0.136  0.4407 -0.4137 -0.1129
 7404SOL    HW329383   1.995   6.347   0.148 -0.3426 -0.5442 -0.2904
 7404SOL    MW429384   1.942   6.415   0.132  0.1547 -0.5151 -0.3987
 7405SOL     OW29385   2.229   4.659   1.379  0.3619  0.4311  0.1348
 7405SOL    HW229386   2.289   4.592   1.347 -0.9751 -0.3370 -0.8353
 7405SOL    HW329387   2.214   4.636   1.471  0.7888  0.0650  0.1158
 7405SOL    MW429388   2.235   4.647   1.387  0.4588 -0.0459  0.0350
 7406SOL     OW29389   1.709   4.297   4.348 -0.6248  0.1370 -0.0918
 7406SOL    HW229390   1.739   4.373   4.398  0.2655 -0.1702 -0.1373
 7406SOL    HW329391   1.789   4.251   4.325 -1.1186 -0.4706 -0.6209
 7406SOL    MW429392   1.723   4.301   4.352  0.2815 -0.3140 -0.2822
 7407SOL     OW29393   2.177   0.018   4.480  0.7236  0.0191 -0.0882
 7407SOL    HW229394   2.265   0.009   4.444 -0.2423 -0.6646 -2.4657
 7407SOL    HW329395   2.141   0.095   4.435  0.8768  1.8845  2.7170
 7407SOL    MW429396   2.184   0.027   4.469 -0.3655 -0.4526  0.4169
 7408SOL     OW29397   0.936   4.470   5.795 -0.4994  0.0795 -0.1751
 7408SOL    HW229398   0.983   4.527   5.857 -0.6720  0.5745 -0.4967
 7408SOL    HW329399   0.896   4.530   5.733 -0.5769 -0.4036 -0.5965
 7408SOL    MW429400   0.937   4.485   5.795  0.6072  0.5719 -0.7201
 7409SOL     OW29401   5.586   0.101   1.557 -1.1933  0.3559  0.4599
 7409SOL    HW229402   5.551   0.179   1.600  2.3880  1.6962  1.2627
 7409SOL    HW329403   5.612   0.131   1.470  1.7421  0.6716  1.3314
 7409SOL    MW429404   5.585   0.115   1.552 -0.0101  0.2587 -0.7089
 7410SOL     OW29405   2.178   4.784   3.551  0.1475 -0.2278 -0.1773
 7410SOL    HW229406   2.121   4.777   3.475  0.4400  1.8557 -0.6578
 7410SOL    HW329407   2.118   4.800   3.624 -0.0334 -0.7601 -0.2011
 7410SOL    MW429408   2.162   4.785   3.551  0.4448  0.2460 -0.2342
 7411SOL     OW29409   2.175   4.284   5.376 -0.5528 -0.0944  0.2864
 7411SOL    HW229410   2.186   4.200   5.421 -0.5628 -0.2386  0.0206
 7411SOL    HW329411   2.263   4.321   5.373 -0.5376 -0.1250  0.3439
 7411SOL    MW429412   2.188   4.277   5.382  0.2336  0.0674 -0.4372
 7412SOL     OW29413   2.372   2.198   5.768 -0.1262 -0.4114  0.5884
 7412SOL    HW229414   2.443   2.181   5.830 -0.5632  1.2892  1.6178
 7412SOL    HW329415   2.415   2.240   5.694  0.0733 -0.2194  0.8114
 7412SOL    MW429416   2.387   2.201   5.767 -0.2549 -0.0085  0.0088
 7413SOL     OW29417   1.771   1.824   0.677  0.5408  0.1059 -0.4206
 7413SOL    HW229418   1.744   1.893   0.617  1.2004 -0.2486 -1.1433
 7413SOL    HW329419   1.867   1.825   0.673  0.6486  0.8195  1.4893
 7413SOL    MW429420   1.780   1.833   0.669 -0.0581 -0.2312 -0.1897
 7414SOL     OW29421   3.039   1.595   0.363 -0.6414  0.1166  0.1026
 7414SOL    HW229422   3.083   1.666   0.409  5.2701 -1.6607 -1.9333
 7414SOL    HW329423   3.026   1.528   0.430 -2.1677  1.3740  1.1359
 7414SOL    MW429424   3.043   1.595   0.378  0.1841  0.0864  0.8347
 7415SOL     OW29425   5.377   2.261   2.493  0.0422 -0.0773  0.0039
 7415SOL    HW229426   5.312   2.310   2.444  0.8400 -0.4426 -1.4768
 7415SOL    HW329427   5.393   2.183   2.440  0.6957 -0.6554  1.0180
 7415SOL    MW429428   5.370   2.257   2.480 -0.4417 -0.2669  0.2230
 7416SOL     OW29429   1.714   0.863   0.478  0.4477  0.1125 -0.0448
 7416SOL    HW229430   1.744   0.776   0.505 -0.4910 -0.8355 -1.8787
 7416SOL    HW329431   1.669   0.898   0.555  1.5195 -0.6695  0.9727
 7416SOL    MW429432   1.712   0.856   0.491  0.3546 -0.0271 -0.2806
 7417SOL     OW29433   1.856   0.213   5.959  0.1500  0.4268 -0.2159
 7417SOL    HW229434   1.874   0.119   5.965  0.0082  0.4983  2.6826
 7417SOL    HW329435   1.898   0.240   5.877  2.2622 -1.7295  0.0468
 7417SOL    MW429436   1.864   0.204   5.949  0.2862 -0.2284  0.1667
 7418SOL     OW29437   6.105   0.660   2.553  0.3557  0.0533 -0.1765
 7418SOL    HW229438   6.042   0.730   2.535 -0.7211 -0.5296  1.1644
 7418SOL    HW329439   6.190   0.699   2.531 -0.4053  1.0076 -1.5820
 7418SOL    MW429440   6.108   0.675   2.548  0.3328 -0.0891 -0.6878
 7419SOL     OW29441   3.842   1.505   3.759 -0.0774 -0.0761  0.0154
 7419SOL    HW229442   3.826   1.469   3.846  0.1053 -1.6333 -0.5700
 7419SOL    HW329443   3.762   1.488   3.710  0.3756 -0.6303 -0.5611
 7419SOL    MW429444   3.829   1.498   3.764 -0.1896  0.3833  0.1964
 7420SOL     OW29445   0.473   5.887   3.424  0.0130 -0.2979  0.0596
 7420SOL    HW229446   0.433   5.884   3.337 -0.7785 -0.8679  0.4404
 7420SOL    HW329447   0.421   5.827   3.477  0.3281  0.2496  1.0036
 7420SOL    MW429448   0.461   5.879   3.419 -0.0999  0.4197 -0.0582
 7421SOL     OW29449   0.779   3.956   6.092 -0.0753  0.1629 -0.4902
 7421SOL    HW229450   0.823   3.999   6.165  0.0681 -0.4870 -0.1928
 7421SOL    HW329451   0.844   3.956   6.022 -0.1508  0.6221 -0.5656
 7421SOL    MW429452   0.793   3.962   6.092  0.0797  0.2221 -0.3820
 7422SOL     OW29453   2.181   0.006   5.975 -0.0481 -0.3978  0.2397
 7422SOL    HW229454   2.246  -0.064   5.972  0.4922  0.0961 -2.3395
 7422SOL    HW329455   2.119  -0.016   5.906 -1.0766  0.5823  0.8112
 7422SOL    MW429456   2.181  -0.006   5.966 -0.2036  0.3939 -0.1864
 7423SOL     OW29457   5.417   0.107   4.063  0.2203 -0.2964 -0.0928
 7423SOL    HW229458   5.426   0.046   4.135  0.3422 -0.3415 -0.1455
 7423SOL    HW329459   5.415   0.052   3.985 -1.2503 -0.3363 -0.0432
 7423SOL    MW429460   5.418   0.092   4.062 -0.2554 -0.3305 -0.1229
 7424SOL     OW29461   4.951   4.946   5.941 -0.0707  0.1668 -0.2601
 7424SOL    HW229462   5.001   5.021   5.909  0.3478  0.3565  0.7984
 7424SOL    HW329463   4.929   4.969   6.031 -2.2536  0.1819 -0.7310
 7424SOL    MW429464   4.954   4.959   5.948  0.2426 -0.0362  0.0981
 7425SOL     OW29465   4.757   1.376   3.625  0.4305 -0.1173  0.2349
 7425SOL    HW229466   4.787   1.407   3.710  1.3082 -1.5384  0.4847
 7425SOL    HW329467   4.807   1.428   3.561  0.8982 -0.0885  0.6200
 7425SOL    MW429468   4.768   1.387   3.627 -0.5099 -0.2088  0.0809
 7426SOL     OW29469   1.971   0.209   6.233 -0.9086  0.1732  0.4285
 7426SOL    HW229470   1.944   0.256   6.154 -0.4782  0.2421  0.3199
 7426SOL    HW329471   1.915   0.244   6.302 -1.4509 -0.0575  0.1135
 7426SOL    MW429472   1.960   0.220   6.232  0.1702  0.4633  0.0797
 7427SOL     OW29473   1.229   5.638   0.037  0.6887 -0.3760  0.1846
 7427SOL    HW229474   1.181   5.721   0.035  0.2064 -0.6134  1.1471
 7427SOL    HW329475   1.187   5.584  -0.029  0.1096 -0.3246  0.5092
 7427SOL    MW429476   1.217   5.642   0.028 -0.0060 -0.1284  0.1761
 7428SOL     OW29477   3.847   3.935   4.959 -0.2695  0.7372  0.1097
 7428SOL    HW229478   3.842   3.840   4.944  1.9573  0.4646  0.7886
 7428SOL    HW329479   3.940   3.955   4.952 -0.7566  3.0047 -0.5867
 7428SOL    MW429480   3.859   3.925   4.956 -0.3034  0.6139  0.3798
 7429SOL     OW29481   1.081   3.203   1.952  0.0911 -0.7216 -0.9705
 7429SOL    HW229482   1.135   3.206   2.031  2.0105 -1.2863 -2.1930
 7429SOL    HW329483   1.131   3.254   1.887 -1.0315 -0.9587 -2.0522
 7429SOL    MW429484   1.095   3.210   1.954 -0.2142  0.0660  0.1862
 7430SOL     OW29485   3.346   3.225   1.980  0.0921  0.0646  0.2016
 7430SOL    HW229486   3.319   3.167   2.051 -0.4146 -0.8005 -0.6737
 7430SOL    HW329487   3.264   3.248   1.936  0.2775  1.4992  0.5523
 7430SOL    MW429488   3.332   3.221   1.984 -0.0658  0.0107  0.2000
 7431SOL     OW29489   5.445   1.535   4.181 -0.2304 -0.0755  0.5270
 7431SOL    HW229490   5.540   1.525   4.177 -0.0505  1.1363  1.3561
 7431SOL    HW329491   5.420   1.488   4.261  0.1359  2.4788  2.2422
 7431SOL    MW429492   5.454   1.527   4.191  0.2040 -0.3113 -0.6163
 7432SOL     OW29493   0.144   2.395   2.958  0.1289  0.2960 -0.8434
 7432SOL    HW229494   0.075   2.459   2.976  1.2426  1.6891 -1.3706
 7432SOL    HW329495   0.192   2.388   3.041 -1.3122 -1.5839 -0.1053
 7432SOL    MW429496   0.141   2.403   2.971  0.2965 -0.0768 -0.1727
 7433SOL     OW29497   3.301   5.409   5.826 -0.1987  0.6344  0.0078
 7433SOL    HW229498   3.208   5.387   5.834 -0.3221  1.5164  1.2250
 7433SOL    HW329499   3.346   5.335   5.867 -0.4448  0.9004  0.7810
 7433SOL    MW429500   3.294   5.396   5.832 -0.2832 -0.5709 -0.0060
 7434SOL     OW29501   2.763   3.234   1.584 -0.4239 -0.2958 -0.1365
 7434SOL    HW229502   2.776   3.252   1.491 -0.4012 -1.2764 -0.3278
 7434SOL    HW329503   2.767   3.321   1.626  2.5412 -0.0717 -0.6601
 7434SOL    MW429504   2.765   3.248   1.577  0.1447 -0.4688 -0.4899
 7435SOL     OW29505   5.797   5.459   1.944 -0.0103  0.5079  0.8816
 7435SOL    HW229506   5.883   5.475   1.904 -0.2305 -1.3198 -0.4379
 7435SOL    HW329507   5.815   5.395   2.013 -0.7796 -4.0656 -2.6746
 7435SOL    MW429508   5.811   5.453   1.948  0.1968 -0.1609 -0.2254
 7436SOL     OW29509   0.543   4.091   5.120  0.3380 -0.2245  0.0352
 7436SOL    HW229510   0.603   4.047   5.059 -0.3066  0.2956 -0.9916
 7436SOL    HW329511   0.546   4.037   5.199  2.6389  0.1276  0.2541
 7436SOL    MW429512   0.551   4.078   5.122  0.0144  0.5181 -0.0709
 7437SOL     OW29513   5.009   0.524   4.797 -0.3823 -0.1439  0.0276
 7437SOL    HW229514   5.101   0.549   4.801 -0.7605  1.3958 -0.4170
 7437SOL    HW329515   5.010   0.435   4.761  0.9843 -0.7021  1.3363
 7437SOL    MW429516   5.021   0.515   4.792  0.0710 -0.4521 -0.5315
 7438SOL     OW29517   0.040   5.468   2.663  0.4840 -0.1591 -0.3242
 7438SOL    HW229518   0.066   5.452   2.753  0.3566  1.0147 -0.0755
 7438SOL    HW329519   0.110   5.520   2.625  0.6377 -0.8169 -0.9749
 7438SOL    MW429520   0.052   5.472   2.670  0.0071  0.0136 -0.4289
 7439SOL     OW29521   4.036   3.730   0.534 -0.2149  0.0887 -0.4950
 7439SOL    HW229522   4.094   3.683   0.474 -2.9170 -2.2520 -1.4990
 7439SOL    HW329523   4.050   3.687   0.619 -2.6689 -2.8602 -1.4010
 7439SOL    MW429524   4.045   3.718   0.537 -0.4242 -0.3537  0.0149
 7440SOL     OW29525   0.230   3.601   4.976 -0.4420  0.0004 -0.3984
 7440SOL    HW229526   0.143   3.568   4.998 -0.8423  0.6288 -1.0161
 7440SOL    HW329527   0.220   3.696   4.975  0.4178  0.1107  0.2083
 7440SOL    MW429528   0.217   3.609   4.979 -0.1778  0.5203  0.0045
 7441SOL     OW29529   1.888   3.175   6.151  0.3147  0.5400  0.2320
 7441SOL    HW229530   1.948   3.167   6.077 -1.9784  1.3567 -1.8808
 7441SOL    HW329531   1.895   3.267   6.177 -0.4796  0.8143 -0.4839
 7441SOL    MW429532   1.897   3.186   6.145  0.5443 -0.3644 -0.4610
 7442SOL     OW29533   3.558   4.262   5.262 -0.8334 -0.0399 -0.0102
 7442SOL    HW229534   3.538   4.245   5.355  0.6807 -0.0011  0.3424
 7442SOL    HW329535   3.638   4.213   5.245  0.0736  1.5869 -0.7133
 7442SOL    MW429536   3.566   4.253   5.272 -0.5552  0.2845  0.2591
 7443SOL     OW29537   1.755   3.000   2.661 -0.2373  0.1587 -0.6565
 7443SOL    HW229538   1.663   2.980   2.642 -0.5348 -0.3153  1.0626
 7443SOL    HW329539   1.779   2.938   2.730  0.8801  1.3395  0.0717
 7443SOL    MW429540   1.746   2.989   2.668 -0.4245 -0.1645 -0.6960
 7444SOL     OW29541   4.804   3.099   0.267 -0.3592  0.3250  0.5759
 7444SOL    HW229542   4.757   3.131   0.190  1.2272 -0.7463 -0.9168
 7444SOL    HW329543   4.742   3.039   0.309 -0.0709 -2.0486 -2.0524
 7444SOL    MW429544   4.790   3.095   0.262 -0.2729 -0.0182 -0.0177
 7445SOL     OW29545   2.502   5.164   6.366  0.2965 -0.4897 -0.6001
 7445SOL    HW229546   2.544   5.132   6.447 -1.7866  0.5208  0.9772
 7445SOL    HW329547   2.571   5.159   6.300  3.3478  2.0694  1.9984
 7445SOL    MW429548   2.517   5.159   6.368  0.5236 -0.1221  0.7320
 7446SOL     OW29549   2.703   6.008   3.022  0.1047 -0.2015 -0.1291
 7446SOL    HW229550   2.797   6.018   3.006  0.2576 -0.3255  0.6406
 7446SOL    HW329551   2.698   5.946   3.095 -0.4966  1.1327  1.0122
 7446SOL    MW429552   2.715   6.002   3.030  0.2965  0.0361  0.1501
 7447SOL     OW29553   4.952   2.808   5.412 -0.0644 -0.4848  0.5428
 7447SOL    HW229554   4.956   2.752   5.490  1.1019 -0.1689  0.7368
 7447SOL    HW329555   5.015   2.769   5.352 -0.6456 -0.4763 -0.0842
 7447SOL    MW429556   4.961   2.795   5.415 -0.1514  0.4328 -0.8897
 7448SOL     OW29557   5.470   1.420   5.453  0.2982 -0.0187 -0.1903
 7448SOL    HW229558   5.543   1.456   5.503  2.2616 -3.2384 -0.4894
 7448SOL    HW329559   5.415   1.496   5.433  2.3390  2.2027  1.9981
 7448SOL    MW429560   5.472   1.435   5.457  0.0559  0.3699  0.3326
 7449SOL     OW29561   1.351   0.661   4.244  0.2841  0.4938  0.2346
 7449SOL    HW229562   1.340   0.756   4.247 -1.8232  0.2923  0.9859
 7449SOL    HW329563   1.388   0.643   4.158  1.1052  2.0160  0.2459
 7449SOL    MW429564   1.354   0.671   4.233  0.2854  0.5710 -0.3394
 7450SOL     OW29565   0.657   0.455   4.446 -0.4204 -0.2535  0.0603
 7450SOL    HW229566   0.752   0.443   4.448 -0.6113 -1.9539  0.9223
 7450SOL    HW329567   0.644   0.548   4.465  1.0306 -0.3189  1.6699
 7450SOL    MW429568   0.668   0.466   4.449  0.2100 -0.1477  0.0965
 7451SOL     OW29569   3.541   0.418   1.054 -0.3291 -0.7626  0.0547
 7451SOL    HW229570   3.569   0.458   1.136  2.1156  0.0908 -1.0912
 7451SOL    HW329571   3.567   0.482   0.987 -0.0135 -2.4977 -1.5516
 7451SOL    MW429572   3.548   0.432   1.056  0.2624  0.4876  0.0571
 7452SOL     OW29573   6.195   4.850   4.197  0.1068  0.9058 -0.0647
 7452SOL    HW229574   6.229   4.785   4.259 -1.2871  0.2949  0.0916
 7452SOL    HW329575   6.107   4.819   4.176  0.0958  1.7765 -1.4087
 7452SOL    MW429576   6.188   4.837   4.202 -0.1887  0.3108 -0.0808
 7453SOL     OW29577   3.890   1.535   4.211  0.1020 -0.0537 -0.1773
 7453SOL    HW229578   3.833   1.608   4.186 -1.8142 -1.7476 -1.0541
 7453SOL    HW329579   3.888   1.476   4.135 -2.2901 -3.2482  2.1309
 7453SOL    MW429580   3.882   1.537   4.197  0.1525  0.2322 -0.1594
 7454SOL     OW29581   1.834   2.559   4.247  0.6376 -0.1963 -0.1671
 7454SOL    HW229582   1.901   2.511   4.200  0.4562 -1.1105  0.4914
 7454SOL    HW329583   1.753   2.511   4.231  0.3689  0.1452  0.1359
 7454SOL    MW429584   1.832   2.547   4.239  0.2879 -0.7089 -0.1805
 7455SOL     OW29585   5.310   0.179   2.087  0.3017  0.5430 -0.2644
 7455SOL    HW229586   5.265   0.097   2.108  2.1165 -0.5270 -0.2896
 7455SOL    HW329587   5.302   0.232   2.166 -0.0124 -0.0965  0.1403
 7455SOL    MW429588   5.303   0.175   2.100  0.2674 -0.2595 -0.4239
 7456SOL     OW29589   0.254   2.009   6.057 -0.2892  0.1259 -0.3340
 7456SOL    HW229590   0.213   1.949   6.120 -1.8316 -0.1522 -1.5393
 7456SOL    HW329591   0.264   1.956   5.978 -0.6470  1.1661 -1.0790
 7456SOL    MW429592   0.250   1.994   6.055  0.3626 -0.1680  0.1484
 7457SOL     OW29593   1.290   1.268   3.072 -0.1072 -0.2010 -0.0110
 7457SOL    HW229594   1.297   1.344   3.014  2.1662  1.1345  1.8462
 7457SOL    HW329595   1.205   1.230   3.051 -0.1723  1.2645 -2.8876
 7457SOL    MW429596   1.280   1.273   3.061  0.0222  0.0138  1.0249
 7458SOL     OW29597   2.614   3.587   1.395  0.4390  0.6044  0.6407
 7458SOL    HW229598   2.636   3.498   1.365 -3.2820 -0.4470  0.5976
 7458SOL    HW329599   2.650   3.644   1.327 -0.5530 -1.1833 -1.5035
 7458SOL    MW429600   2.622   3.583   1.382 -0.1058 -0.1708 -0.1063
 7459SOL     OW29601   3.934   5.495   3.880 -0.3789 -0.0495 -0.2259
 7459SOL    HW229602   3.945   5.465   3.970 -3.3874 -2.4375 -0.4817
 7459SOL    HW329603   3.855   5.550   3.882 -0.7864 -0.5486 -1.4645
 7459SOL    MW429604   3.925   5.498   3.892  0.3871  0.0329 -0.7479
 7460SOL     OW29605   2.312   3.214   5.906 -0.4557  0.0231  0.3879
 7460SOL    HW229606   2.369   3.207   5.829 -1.0422 -0.5791 -0.0089
 7460SOL    HW329607   2.368   3.249   5.975  0.2782 -0.1459 -0.1105
 7460SOL    MW429608   2.327   3.217   5.905 -0.4336 -0.4594 -0.2977
 7461SOL     OW29609   2.134   3.794   5.842 -1.0702  0.0815 -0.1480
 7461SOL    HW229610   2.140   3.886   5.815 -3.1715  0.8592  1.7646
 7461SOL    HW329611   2.181   3.790   5.925  1.4286 -1.2858 -1.5026
 7461SOL    MW429612   2.141   3.805   5.849 -0.2444 -0.1410 -0.1085
 7462SOL     OW29613   4.527   4.651   5.560 -0.2556 -0.1242  0.8454
 7462SOL    HW229614   4.573   4.572   5.529 -0.3056 -0.2453  1.0796
 7462SOL    HW329615   4.528   4.643   5.655 -0.0913  0.2553  0.8768
 7462SOL    MW429616   4.533   4.639   5.569  0.0044  0.5752  0.6411
 7463SOL     OW29617   6.269   2.431   3.170  0.2050 -0.0021 -0.0549
 7463SOL    HW229618   6.314   2.462   3.248  2.5165 -0.0390 -1.2951
 7463SOL    HW329619   6.284   2.337   3.169 -1.6070 -0.3334  0.5017
 7463SOL    MW429620   6.277   2.423   3.180 -0.2282  0.2231  0.8196
 7464SOL     OW29621   0.977   2.826   2.386  0.3137  0.1274  0.0996
 7464SOL    HW229622   0.968   2.793   2.476  0.3434  1.1629  0.5011
 7464SOL    HW329623   0.982   2.921   2.397  0.0080  0.2775 -1.0298
 7464SOL    MW429624   0.977   2.834   2.400  0.2206 -0.1020 -0.2634
 7465SOL     OW29625   3.162   4.089   2.216 -0.8002 -0.1621 -0.5878
 7465SOL    HW229626   3.200   4.022   2.159 -1.1186 -1.4936  0.7081
 7465SOL    HW329627   3.120   4.039   2.286 -0.7472  1.4205  0.6079
 7465SOL    MW429628   3.162   4.073   2.217 -0.4400  0.0190 -0.5440
 7466SOL     OW29629   5.037   5.248   1.130  0.6373  0.2224 -0.8175
 7466SOL    HW229630   5.085   5.241   1.213 -1.6660  0.5733  0.6235
 7466SOL    HW329631   5.082   5.318   1.083  0.8635  1.3580  0.9826
 7466SOL    MW429632   5.049   5.257   1.135  0.1089  0.7363  0.5344
 7467SOL     OW29633   1.297   0.225   0.226  0.2554  0.2329  0.7092
 7467SOL    HW229634   1.338   0.257   0.145 -1.9785  1.9465  0.1750
 7467SOL    HW329635   1.251   0.145   0.199 -1.4081  1.3899 -0.0478
 7467SOL    MW429636   1.297   0.218   0.211 -0.1606  0.7015  0.1240
 7468SOL     OW29637   5.980   5.974   5.661  0.0638  0.1248 -0.6030
 7468SOL    HW229638   5.981   6.029   5.583  0.5447  1.7444  0.4839
 7468SOL    HW329639   5.934   5.895   5.634  1.1258  0.1750 -2.8043
 7468SOL    MW429640   5.974   5.971   5.647 -0.4260 -0.0640 -0.9188
 7469SOL     OW29641   1.291   0.720   5.318  0.8940  0.7792  0.8379
 7469SOL    HW229642   1.309   0.726   5.224  1.1752  1.9962  0.9620
 7469SOL    HW329643   1.375   0.697   5.357  0.8364  0.5396  0.8225
 7469SOL    MW429644   1.304   0.717   5.310 -0.7091 -0.3670 -0.0081
 7470SOL     OW29645   4.327   1.091   4.262  0.3610 -0.1837  0.7075
 7470SOL    HW229646   4.398   1.154   4.247  1.6023 -1.7334 -0.2982
 7470SOL    HW329647   4.284   1.083   4.177  1.3468 -1.9609  0.3325
 7470SOL    MW429648   4.331   1.098   4.249  0.0274 -0.1695  0.0010
 7471SOL     OW29649   1.920   3.388   5.754 -0.3674 -0.7714 -0.4436
 7471SOL    HW229650   1.834   3.393   5.796 -0.2046 -1.4471 -0.0142
 7471SOL    HW329651   1.912   3.443   5.676  0.2421  3.0891  1.9793
 7471SOL    MW429652   1.907   3.396   5.749 -0.2766 -0.0476 -0.6296
 7472SOL     OW29653   1.418   4.303   0.846 -0.9429  0.1658  0.1176
 7472SOL    HW229654   1.491   4.350   0.885 -1.9076  1.6758  0.1667
 7472SOL    HW329655   1.341   4.333   0.894 -1.6440 -1.2567 -0.0534
 7472SOL    MW429656   1.418   4.313   0.857  1.1189 -0.1155  0.3650
 7473SOL     OW29657   3.067   4.877   5.112 -0.1578  0.4857 -0.8067
 7473SOL    HW229658   2.985   4.876   5.062 -0.2275  0.9582 -0.7053
 7473SOL    HW329659   3.039   4.880   5.203 -0.0258  1.3487 -0.7922
 7473SOL    MW429660   3.052   4.877   5.117 -0.3590 -0.5467 -0.1394
 7474SOL     OW29661   1.843   4.851   4.818  0.2782 -0.4462 -1.1540
 7474SOL    HW229662   1.871   4.943   4.819  0.6076 -0.5330 -1.6582
 7474SOL    HW329663   1.753   4.854   4.786 -0.3120 -0.1628  0.4862
 7474SOL    MW429664   1.835   4.864   4.814  0.3398  0.9517  0.1696
 7475SOL     OW29665   3.771   5.416   2.543 -0.0232 -0.5217  0.3755
 7475SOL    HW229666   3.799   5.373   2.623 -0.3341 -0.0363  0.7504
 7475SOL    HW329667   3.754   5.344   2.482 -0.7430 -0.9467  1.0613
 7475SOL    MW429668   3.772   5.401   2.545 -0.4126 -0.0938 -0.4124
 7476SOL     OW29669   4.654   4.877   3.865 -0.0379  0.0456  0.1697
 7476SOL    HW229670   4.697   4.800   3.826 -0.3667  0.6237 -1.4230
 7476SOL    HW329671   4.608   4.918   3.792 -1.9725  0.3578  1.5018
 7476SOL    MW429672   4.654   4.872   3.850  0.3129  0.0516  0.5409
 7477SOL     OW29673   1.011   3.978   5.932  0.5554 -0.2794 -0.2797
 7477SOL    HW229674   1.032   4.067   5.960 -1.7643 -0.2126  1.5612
 7477SOL    HW329675   1.089   3.927   5.956  0.4763  0.6295  2.1878
 7477SOL    MW429676   1.024   3.983   5.939  0.0434  0.7506  0.3681
 7478SOL     OW29677   5.235   3.529   3.916 -0.1730  0.2770  0.2702
 7478SOL    HW229678   5.294   3.462   3.881  1.1582  0.8766  1.2310
 7478SOL    HW329679   5.205   3.493   3.999 -0.8636  0.1398 -0.0367
 7478SOL    MW429680   5.239   3.516   3.923 -0.1849  0.1023  0.2427
 7479SOL     OW29681   3.662   4.619   0.084  0.2057  0.0544  0.2068
 7479SOL    HW229682   3.678   4.552   0.018 -0.3239 -1.2834  1.4074
 7479SOL    HW329683   3.670   4.574   0.168  0.8023  1.6946  1.0935
 7479SOL    MW429684   3.666   4.604   0.086  1.0964  0.4133  0.4116
 7480SOL     OW29685   2.604   5.426   2.035 -0.2667 -0.4635  0.3573
 7480SOL    HW229686   2.544   5.482   1.985  0.1662 -0.5906 -0.3136
 7480SOL    HW329687   2.548   5.357   2.070 -0.3914 -1.1077 -1.0402
 7480SOL    MW429688   2.588   5.424   2.033  0.1649 -0.1592  0.1563
 7481SOL     OW29689   3.828   2.674   5.261  0.0629  0.5889 -0.0535
 7481SOL    HW229690   3.747   2.709   5.299  0.6645  0.9319  0.9562
 7481SOL    HW329691   3.859   2.611   5.326  1.3318  1.4812  0.2448
 7481SOL    MW429692   3.821   2.670   5.275  0.1154 -0.5128  0.3803
 7482SOL     OW29693   1.452   4.958   2.174 -0.3617  0.0922  0.7494
 7482SOL    HW229694   1.416   5.043   2.147 -1.4144 -0.8686 -1.1160
 7482SOL    HW329695   1.523   4.980   2.234 -1.1646  2.2482  1.0061
 7482SOL    MW429696   1.457   4.972   2.178  0.4033 -0.0945 -0.4914
 7483SOL     OW29697   3.968   2.702   1.774 -0.4506 -0.0745 -0.1494
 7483SOL    HW229698   3.969   2.678   1.867  0.3134 -0.6593 -0.2951
 7483SOL    HW329699   4.051   2.668   1.740 -1.2368 -0.9298 -1.3097
 7483SOL    MW429700   3.979   2.694   1.782 -0.7053 -0.0059  0.6820
 7484SOL     OW29701   4.262   3.398   1.108  0.1631  0.0208  0.9528
 7484SOL    HW229702   4.174   3.414   1.144 -0.9370  0.2271 -1.6073
 7484SOL    HW329703   4.308   3.481   1.118 -0.7147  0.5956  0.3333
 7484SOL    MW429704   4.256   3.411   1.114  0.0338  0.2575  0.1776
 7485SOL     OW29705   1.290   6.333   1.741 -0.4792  0.2869 -0.0378
 7485SOL    HW229706   1.324   6.349   1.653  2.5110 -0.0650  0.9370
 7485SOL    HW329707   1.284   6.238   1.748 -1.3204  0.3281 -0.0219
 7485SOL    MW429708   1.293   6.322   1.730 -0.4892  0.2263  0.3902
 7486SOL     OW29709   5.048   3.086   5.075  0.3809  0.4721  0.2472
 7486SOL    HW229710   5.068   3.098   5.168  0.3654  0.4368  0.2551
 7486SOL    HW329711   4.953   3.097   5.069  0.5037  1.6074  0.0561
 7486SOL    MW429712   5.039   3.089   5.086 -0.0466 -0.0949 -0.8349
 7487SOL     OW29713   2.606   5.293   0.477  0.0124  0.1328 -0.5362
 7487SOL    HW229714   2.532   5.259   0.527 -0.3491  0.7949 -0.6129
 7487SOL    HW329715   2.572   5.369   0.431  1.2336  1.7670  1.0983
 7487SOL    MW429716   2.592   5.298   0.477 -0.6009 -0.3357 -0.4886
 7488SOL     OW29717   0.273   4.657   3.793 -0.1266 -0.3537  0.3257
 7488SOL    HW229718   0.194   4.655   3.739  0.6362 -1.2549 -0.8077
 7488SOL    HW329719   0.265   4.737   3.845 -1.8383 -0.4953  0.3465
 7488SOL    MW429720   0.261   4.667   3.793  0.7865  0.2114  0.0387
 7489SOL     OW29721   2.745   4.707   5.217 -0.7799  0.5498  0.2633
 7489SOL    HW229722   2.757   4.790   5.263  2.1121 -0.4185  1.4734
 7489SOL    HW329723   2.651   4.688   5.226 -0.5890  0.5748  5.7185
 7489SOL    MW429724   2.734   4.715   5.224  0.2362 -0.2952  0.1136
 7490SOL     OW29725   6.107   6.035   3.963 -0.1498 -0.1569 -0.0183
 7490SOL    HW229726   6.189   6.035   3.913  0.8682 -1.2527  1.5592
 7490SOL    HW329727   6.094   6.126   3.988  0.3349  0.0983 -0.6746
 7490SOL    MW429728   6.116   6.047   3.960 -0.7605 -0.0518  0.1533
 7491SOL     OW29729   3.468   2.862   2.521  0.0516 -0.2072  0.0193
 7491SOL    HW229730   3.475   2.888   2.613 -0.9360 -0.5604  0.2059
 7491SOL    HW329731   3.466   2.767   2.523  1.2350 -0.2647 -0.4766
 7491SOL    MW429732   3.468   2.853   2.533  0.5827 -0.0039  0.1813
 7492SOL     OW29733   2.291   6.222   3.496 -0.7887 -1.0613 -0.0004
 7492SOL    HW229734   2.227   6.256   3.558 -1.0646  0.2095 -0.9340
 7492SOL    HW329735   2.304   6.294   3.434 -0.3214 -2.1792 -1.2460
 7492SOL    MW429736   2.284   6.236   3.496 -0.0431 -0.1895  0.0941
 7493SOL     OW29737   4.862   5.927   6.231  0.2012  0.1734  0.2537
 7493SOL    HW229738   4.774   5.892   6.240  0.8716 -1.6935  0.0283
 7493SOL    HW329739   4.877   5.977   6.311 -0.9547  0.2869  0.4087
 7493SOL    MW429740   4.852   5.929   6.243  0.1757 -0.2628  0.3460
 7494SOL     OW29741   2.873   0.005   2.202  0.5389  0.0214  0.3756
 7494SOL    HW229742   2.932  -0.070   2.215  1.3869  0.6917  0.5024
 7494SOL    HW329743   2.898   0.067   2.270  0.3597  0.7265 -0.1949
 7494SOL    MW429744   2.884   0.003   2.212  0.5073  0.2481 -0.9525
 7495SOL     OW29745   3.208   4.121   3.264  0.1829 -0.0661  0.6252
 7495SOL    HW229746   3.157   4.151   3.339  0.2250  0.8701  0.2878
 7495SOL    HW329747   3.299   4.130   3.292  0.2284 -2.2574  1.4357
 7495SOL    MW429748   3.213   4.126   3.277  0.3083 -0.4435  0.4442
 7496SOL     OW29749   1.776   1.613   6.194 -0.0436 -0.1147 -0.5022
 7496SOL    HW229750   1.770   1.702   6.229 -0.4153 -0.0273 -0.7812
 7496SOL    HW329751   1.870   1.596   6.188  0.0496  0.7232 -1.6097
 7496SOL    MW429752   1.788   1.622   6.198  0.3871  0.1586 -0.1195
 7497SOL     OW29753   5.327   3.862   0.265 -0.0085 -0.2653 -0.5194
 7497SOL    HW229754   5.418   3.890   0.263  0.2014 -0.6517  1.5724
 7497SOL    HW329755   5.318   3.813   0.347 -2.2249  0.2234 -0.4030
 7497SOL    MW429756   5.338   3.859   0.276  0.3004  0.1426  0.6099
 7498SOL     OW29757   2.532   2.568   5.277 -0.6571  0.2013 -0.3618
 7498SOL    HW229758   2.443   2.546   5.303 -0.2559  0.1086  1.0153
 7498SOL    HW329759   2.522   2.650   5.228 -1.4403  0.5919  0.4014
 7498SOL    MW429760   2.519   2.576   5.274  0.1878  0.0566 -0.4970
 7499SOL     OW29761   3.529   6.072   0.801 -0.1201 -0.1580 -0.0655
 7499SOL    HW229762   3.492   6.130   0.734  1.0719  0.3859 -0.3019
 7499SOL    HW329763   3.595   6.021   0.754 -0.3127 -0.8351  0.3969
 7499SOL    MW429764   3.533   6.073   0.786 -0.0122  0.0571 -0.1801
 7500SOL     OW29765   0.181   6.394   0.372 -0.5216 -0.9895 -0.1184
 7500SOL    HW229766   0.153   6.353   0.290  0.0750  0.7205 -1.2204
 7500SOL    HW329767   0.274   6.412   0.360 -0.5994 -0.0006  0.6189
 7500SOL    MW429768   0.190   6.391   0.360  0.4274 -0.4667  0.9295
 7501SOL     OW29769   1.670   5.117   5.438 -0.1733  0.0246 -0.6178
 7501SOL    HW229770   1.711   5.033   5.461 -0.7684 -0.0185  0.3745
 7501SOL    HW329771   1.581   5.110   5.472 -0.1403  1.1775 -0.2333
 7501SOL    MW429772   1.664   5.105   5.446  0.1922  0.9100 -0.3075
 7502SOL     OW29773   0.744   0.441   3.240 -0.1258  0.2181  0.4855
 7502SOL    HW229774   0.756   0.451   3.146  0.5067  4.0772  0.7765
 7502SOL    HW329775   0.822   0.395   3.270  0.7244  0.8571 -0.6827
 7502SOL    MW429776   0.756   0.437   3.232  0.1206  0.6133  0.8322
 7503SOL     OW29777   1.483   1.852   5.786  0.1448 -0.0067  0.2084
 7503SOL    HW229778   1.455   1.762   5.766 -0.1923  0.2487 -0.4822
 7503SOL    HW329779   1.403   1.898   5.809 -0.0126  0.6552 -1.5158
 7503SOL    MW429780   1.469   1.846   5.786  0.0308  0.0720 -0.8935
 7504SOL     OW29781   2.217   2.378   2.915 -0.2579  0.5550  0.2044
 7504SOL    HW229782   2.146   2.376   2.980 -1.0131  2.4084 -0.4979
 7504SOL    HW329783   2.191   2.312   2.850  0.1223 -0.7754  1.3326
 7504SOL    MW429784   2.204   2.369   2.915  0.2341  0.4122  0.0988
 7505SOL     OW29785   4.389   4.382   4.609 -0.2076 -0.1818  0.2467
 7505SOL    HW229786   4.450   4.318   4.648  0.6527  0.1022 -0.5994
 7505SOL    HW329787   4.315   4.329   4.579  0.2907 -0.7269 -0.0358
 7505SOL    MW429788   4.387   4.366   4.610 -0.4292  0.1769 -0.2079
 7506SOL     OW29789   6.402   5.805   5.879 -0.0770  0.0108 -0.3929
 7506SOL    HW229790   6.325   5.770   5.835  0.6074 -0.3716 -1.3493
 7506SOL    HW329791   6.425   5.740   5.945 -0.7984  0.3143  0.1532
 7506SOL    MW429792   6.395   5.792   5.882  0.4369 -0.1070 -0.3364
 7507SOL     OW29793   5.315   5.232   5.097 -0.0745 -0.7088  0.3547
 7507SOL    HW229794   5.288   5.316   5.134 -1.1143  0.5455 -2.9773
 7507SOL    HW329795   5.233   5.185   5.082  0.4313 -1.8367  0.9781
 7507SOL    MW429796   5.301   5.237   5.100  0.2351  0.0562  0.1918
 7508SOL     OW29797   5.617   4.986   1.885 -0.0916  0.1601 -0.6248
 7508SOL    HW229798   5.566   5.040   1.946  0.3651 -1.0519  0.8899
 7508SOL    HW329799   5.706   5.020   1.892  0.1709 -0.6840  0.2298
 7508SOL    MW429800   5.622   4.998   1.894  0.0235  0.0530 -0.3732
 7509SOL     OW29801   0.404   3.268   5.220  0.0308  0.1469 -0.1930
 7509SOL    HW229802   0.483   3.236   5.265 -0.1543 -1.3108 -0.8639
 7509SOL    HW329803   0.437   3.304   5.137  0.2110  1.5978  0.4633
 7509SOL    MW429804   0.419   3.269   5.215 -0.0604 -0.2167 -0.2620
 7510SOL     OW29805   3.888   6.418   3.663 -0.6037  0.3248  0.5602
 7510SOL    HW229806   3.831   6.340   3.663 -0.6871  0.3831  0.2831
 7510SOL    HW329807   3.968   6.389   3.707 -1.0284  0.3774  1.3742
 7510SOL    MW429808   3.891   6.404   3.669 -0.5369 -0.9782 -0.0920
 7511SOL     OW29809   5.178   1.028   3.021 -0.5348 -0.5713 -0.6221
 7511SOL    HW229810   5.099   1.075   2.995 -0.0947  0.3250 -0.4124
 7511SOL    HW329811   5.249   1.078   2.979 -0.0402 -0.9202 -0.2018
 7511SOL    MW429812   5.177   1.041   3.012  0.2486  0.7106 -0.4596
 7512SOL     OW29813   5.123   5.697   2.181  0.3767 -0.3076 -0.3309
 7512SOL    HW229814   5.124   5.602   2.196 -0.6699 -0.3357 -0.3828
 7512SOL    HW329815   5.155   5.734   2.264 -0.6152 -0.6538  0.2182
 7512SOL    MW429816   5.128   5.689   2.194  0.4454 -0.1857  0.8986
 7513SOL     OW29817   5.896   2.272   5.751 -0.0154  0.2744  0.3520
 7513SOL    HW229818   5.876   2.333   5.822  0.8558  0.3168  0.5643
 7513SOL    HW329819   5.825   2.285   5.688  0.7744  2.3501 -0.1536
 7513SOL    MW429820   5.884   2.282   5.752  0.1593 -0.3507 -0.0100
 7514SOL     OW29821   6.270   4.423   0.997 -0.3356  0.2246 -0.0455
 7514SOL    HW229822   6.180   4.448   0.979  0.1951  1.0353 -1.8016
 7514SOL    HW329823   6.274   4.329   0.979 -1.1196 -0.1133  1.4112
 7514SOL    MW429824   6.259   4.414   0.992  0.1244  0.1700 -0.8871
 7515SOL     OW29825   3.898   6.334   0.818  0.1263  0.1013 -0.5947
 7515SOL    HW229826   3.854   6.273   0.877  2.2393 -0.2912  0.7079
 7515SOL    HW329827   3.904   6.288   0.735  0.5520 -0.9892  0.0175
 7515SOL    MW429828   3.893   6.320   0.815  0.2236  0.2298  0.2099
 7516SOL     OW29829   0.293   6.366   1.559  0.4926 -0.3172  0.2381
 7516SOL    HW229830   0.293   6.275   1.586 -1.7124 -0.1489  0.9848
 7516SOL    HW329831   0.206   6.381   1.522  0.8580  1.4499 -0.0454
 7516SOL    MW429832   0.282   6.356   1.558 -0.0018 -0.1043  0.6511
 7517SOL     OW29833   1.377   5.758   0.535  0.3138 -0.6113  0.0155
 7517SOL    HW229834   1.290   5.798   0.529  1.4462  1.9475 -0.5150
 7517SOL    HW329835   1.360   5.670   0.570 -2.4347 -0.0902  0.2346
 7517SOL    MW429836   1.363   5.751   0.539 -0.2638  0.0260 -0.2841
 7518SOL     OW29837   4.398   2.648   0.702  0.1364  0.4001  0.0215
 7518SOL    HW229838   4.308   2.680   0.711  0.3320  1.1359 -0.6064
 7518SOL    HW329839   4.394   2.584   0.631  0.0220  0.0602  0.3276
 7518SOL    MW429840   4.386   2.644   0.694  0.0879  0.1037 -0.0093
 7519SOL     OW29841   5.787   3.952   5.544  0.2205  0.5440  0.2238
 7519SOL    HW229842   5.826   3.966   5.458  0.0193  1.2828  0.2514
 7519SOL    HW329843   5.754   3.862   5.541 -3.7890  1.8633 -2.0785
 7519SOL    MW429844   5.788   3.942   5.532  0.2173 -0.0133  0.2174
 7520SOL     OW29845   5.212   2.926   3.502 -0.3973  0.2148 -0.2149
 7520SOL    HW229846   5.184   2.888   3.419 -0.6020  1.3505 -0.6861
 7520SOL    HW329847   5.143   2.988   3.525 -0.5512 -0.3916  1.0367
 7520SOL    MW429848   5.199   2.929   3.494  0.3156 -0.0472  0.2536
 7521SOL     OW29849   2.279   0.633   1.863  0.4550 -0.2391  0.0159
 7521SOL    HW229850   2.353   0.639   1.923  0.6850 -2.6734  0.0908
 7521SOL    HW329851   2.204   0.611   1.919  0.0357  0.4343 -0.2663
 7521SOL    MW429852   2.279   0.631   1.879 -1.0696  0.6291  0.3299
 7522SOL     OW29853   5.321   2.411   4.379  0.2720  0.1355 -0.1656
 7522SOL    HW229854   5.249   2.449   4.430  1.1906  0.3948  0.9829
 7522SOL    HW329855   5.390   2.394   4.444  1.7277  1.0662 -1.3956
 7522SOL    MW429856   5.321   2.414   4.395  0.7057 -0.6485  0.4216
 7523SOL     OW29857   3.063   6.377   5.536 -0.3140  0.5252 -0.2401
 7523SOL    HW229858   3.144   6.381   5.587 -0.9344  0.8463  0.7533
 7523SOL    HW329859   3.089   6.338   5.453  0.8792  0.7260  0.0177
 7523SOL    MW429860   3.077   6.372   5.532  0.6672  0.0230  0.9047
 7524SOL     OW29861   0.455   0.943   0.281 -0.0696 -0.1604  0.0007
 7524SOL    HW229862   0.394   1.016   0.288 -0.2776 -0.3347  0.0057
 7524SOL    HW329863   0.407   0.868   0.315  0.1571 -0.2942  0.0310
 7524SOL    MW429864   0.441   0.943   0.287 -0.3337 -0.4366  0.0334
 7525SOL     OW29865   4.618   0.697   5.842  0.3358  0.1071 -0.1810
 7525SOL    HW229866   4.687   0.706   5.907 -0.7154  5.1017  0.6769
 7525SOL    HW329867   4.640   0.761   5.774 -1.9718 -0.1641 -1.3042
 7525SOL    MW429868   4.630   0.707   5.841  0.2463 -0.0056  0.2368
 7526SOL     OW29869   2.996   4.098   0.519  0.5190 -0.5049 -0.6762
 7526SOL    HW229870   2.993   4.072   0.427 -0.8316 -0.1759 -0.7487
 7526SOL    HW329871   3.067   4.162   0.524 -0.2699  0.4943 -1.7799
 7526SOL    MW429872   3.005   4.103   0.508 -0.1047 -0.3843 -0.2433
 7527SOL     OW29873   1.301   3.778   4.590 -0.3383  0.0056  0.1405
 7527SOL    HW229874   1.221   3.794   4.540  0.7723  1.0043 -1.4140
 7527SOL    HW329875   1.351   3.716   4.536  0.7879  0.9191  0.1048
 7527SOL    MW429876   1.297   3.772   4.576  0.3623  0.4843 -0.1544
 7528SOL     OW29877   5.182   2.550   5.268  0.7231  0.1744  0.0684
 7528SOL    HW229878   5.195   2.556   5.362  0.3283  1.1758  0.0720
 7528SOL    HW329879   5.231   2.624   5.232  1.0505 -0.3241 -0.5388
 7528SOL    MW429880   5.190   2.560   5.275  0.3859 -0.1158 -0.1149
 7529SOL     OW29881   3.797   0.825   3.450  0.1393  0.3545  0.2532
 7529SOL    HW229882   3.719   0.770   3.449 -0.1976  0.8256 -0.6846
 7529SOL    HW329883   3.845   0.798   3.528 -1.0905  0.2365  0.9866
 7529SOL    MW429884   3.793   0.815   3.460  0.0418 -0.0421  0.5103
 7530SOL     OW29885   3.232   2.275   3.708  0.1055 -0.1399 -0.6864
 7530SOL    HW229886   3.308   2.330   3.690 -0.5945  1.2564  0.4348
 7530SOL    HW329887   3.244   2.245   3.798  0.1165 -1.2625 -1.0444
 7530SOL    MW429888   3.243   2.278   3.717 -0.1515  0.0733  0.8811
 7531SOL     OW29889   0.088   2.336   3.574 -0.3569 -0.3575 -0.2918
 7531SOL    HW229890   0.098   2.265   3.511 -0.1077  0.2767 -0.9867
 7531SOL    HW329891   0.166   2.390   3.561 -0.6908  0.2071  0.0216
 7531SOL    MW429892   0.100   2.334   3.564 -0.1860 -0.4505 -0.2016
 7532SOL     OW29893   3.236   3.507   2.027 -0.7199 -0.7085  0.4274
 7532SOL    HW229894   3.317   3.495   2.076 -0.5994  0.3936  0.5109
 7532SOL    HW329895   3.167   3.474   2.085 -0.3332 -1.8539  0.2701
 7532SOL    MW429896   3.238   3.501   2.041  0.2526 -0.5752  0.0662
 7533SOL     OW29897   4.563   4.015   2.279  0.3597  0.0401  0.3789
 7533SOL    HW229898   4.572   4.083   2.212 -1.1396 -0.7969 -0.7533
 7533SOL    HW329899   4.630   3.951   2.257  0.7772  0.4179  0.5291
 7533SOL    MW429900   4.573   4.016   2.267  0.1802  0.2056 -0.1449
 7534SOL     OW29901   0.440   3.114   3.734  0.1845  0.4463  0.0569
 7534SOL    HW229902   0.403   3.202   3.739 -0.3242  0.2609 -0.4006
 7534SOL    HW329903   0.377   3.058   3.779  0.3361  0.2599  0.0432
 7534SOL    MW429904   0.427   3.118   3.741  0.0910  0.0190  0.0473
 7535SOL     OW29905   2.311   1.349   5.812 -0.7280  0.2243  0.2722
 7535SOL    HW229906   2.396   1.315   5.841  0.1059 -0.0689 -2.2282
 7535SOL    HW329907   2.323   1.444   5.811  0.6083  0.1496 -2.5189
 7535SOL    MW429908   2.324   1.357   5.815 -0.1089 -0.0749 -0.1843
 7536SOL     OW29909   4.415   6.011   2.482 -0.3254  1.0606 -0.4911
 7536SOL    HW229910   4.397   5.918   2.494  0.3685  1.0871  1.0810
 7536SOL    HW329911   4.351   6.055   2.539  1.8924  1.3193  1.9869
 7536SOL    MW429912   4.404   6.005   2.491  0.3008 -0.4278 -0.5382
 7537SOL     OW29913   0.349   4.098   2.964  0.0837  0.7116  0.1730
 7537SOL    HW229914   0.439   4.094   2.994  0.5944  1.0551 -1.2038
 7537SOL    HW329915   0.298   4.056   3.033  1.3609  0.0001  0.7204
 7537SOL    MW429916   0.354   4.092   2.977 -0.6324 -0.3300 -0.3891
 7538SOL     OW29917   1.372   3.205   5.970 -0.3555  0.1165 -0.3451
 7538SOL    HW229918   1.398   3.119   6.004 -1.3579 -0.7889 -1.7469
 7538SOL    HW329919   1.290   3.225   6.016 -0.3381  0.1365 -0.3228
 7538SOL    MW429920   1.365   3.196   5.981 -0.2540  0.0394 -0.1834
 7539SOL     OW29921   2.363   3.601   4.786 -0.7455 -0.2371  0.2444
 7539SOL    HW229922   2.270   3.578   4.774 -0.4762 -2.0138  1.1848
 7539SOL    HW329923   2.406   3.517   4.798  0.6178  0.7069  2.3196
 7539SOL    MW429924   2.356   3.587   4.786 -0.3929  0.4524  0.1570
 7540SOL     OW29925   3.276   5.499   5.545 -0.3702 -0.3030  0.5803
 7540SOL    HW229926   3.285   5.470   5.636 -0.1194  1.1020  1.0412
 7540SOL    HW329927   3.182   5.498   5.528 -0.5522  0.8124  1.3726
 7540SOL    MW429928   3.265   5.495   5.555  0.6592  0.0533 -0.3008
 7541SOL     OW29929   1.763   2.650   1.831  0.0226  0.3962 -0.0455
 7541SOL    HW229930   1.720   2.707   1.768  0.0663  0.7368  0.2286
 7541SOL    HW329931   1.751   2.561   1.797 -0.1249  0.5637 -0.4256
 7541SOL    MW429932   1.756   2.646   1.819 -0.8793  0.0810  0.2839
 7542SOL     OW29933   5.545   0.575   6.149  0.0819  0.9150  0.1661
 7542SOL    HW229934   5.486   0.564   6.223 -0.5328  1.4085 -0.2426
 7542SOL    HW329935   5.535   0.667   6.123  0.9381  0.9734  0.0137
 7542SOL    MW429936   5.536   0.586   6.155  0.0602  0.2004 -0.3042
 7543SOL     OW29937   6.146   4.814   2.034 -0.0874 -0.0081  0.4318
 7543SOL    HW229938   6.090   4.793   1.960  1.0107  1.5666 -0.9109
 7543SOL    HW329939   6.227   4.765   2.019  0.7807  1.5794 -0.3664
 7543SOL    MW429940   6.149   4.805   2.022 -0.9266 -0.8673 -0.5599
 7544SOL     OW29941   5.915   4.996   4.859 -0.3283 -0.0989 -0.1052
 7544SOL    HW229942   6.006   5.008   4.833 -0.1269 -1.2672  0.0194
 7544SOL    HW329943   5.867   5.062   4.808  0.2688 -1.1038 -2.0917
 7544SOL    MW429944   5.921   5.006   4.849 -0.2115 -1.3705 -0.1871
 7545SOL     OW29945   1.823   6.156   2.466 -0.1047  0.2210  0.0769
 7545SOL    HW229946   1.762   6.087   2.439 -0.4317 -0.0222  1.3972
 7545SOL    HW329947   1.896   6.149   2.403  0.1140 -1.6585  0.4752
 7545SOL    MW429948   1.825   6.146   2.454  0.2820 -0.3009 -0.2362
 7546SOL     OW29949   4.736   2.848   3.392 -0.5177 -0.7009 -0.0645
 7546SOL    HW229950   4.785   2.776   3.432  1.5659  1.4820  1.6123
 7546SOL    HW329951   4.785   2.871   3.313  0.2778  0.4046  0.7197
 7546SOL    MW429952   4.749   2.842   3.387  0.0493 -0.4625  0.0614
 7547SOL     OW29953   3.534   5.563   3.289  0.1185  0.3378 -0.2566
 7547SOL    HW229954   3.456   5.562   3.344 -0.9200  0.4065 -1.6892
 7547SOL    HW329955   3.588   5.490   3.322 -1.1060 -0.4945 -0.0336
 7547SOL    MW429956   3.531   5.553   3.301  0.1782 -0.1172  0.4836
 7548SOL     OW29957   4.039   4.193   1.766 -0.7640 -0.3984  0.1779
 7548SOL    HW229958   4.066   4.105   1.739  0.0322  0.1517 -0.9390
 7548SOL    HW329959   3.967   4.215   1.707  1.0622  0.8618 -1.7233
 7548SOL    MW429960   4.033   4.185   1.755 -0.4060  0.8036  0.3505
 7549SOL     OW29961   0.978   0.195   5.516  0.2789 -0.3225 -0.3670
 7549SOL    HW229962   0.907   0.187   5.580  0.7962 -0.3280  0.2120
 7549SOL    HW329963   0.965   0.281   5.477  1.3885  0.7738  1.5151
 7549SOL    MW429964   0.967   0.205   5.519 -0.4703 -0.4044  0.1190
 7550SOL     OW29965   5.076   6.177   5.719  0.3425  0.3537 -0.1557
 7550SOL    HW229966   5.154   6.126   5.697 -0.3661 -0.8477  0.0108
 7550SOL    HW329967   5.043   6.137   5.799 -0.1267  1.2205  0.1014
 7550SOL    MW429968   5.082   6.165   5.727  0.1070  0.5743  0.5723
 7551SOL     OW29969   5.989   3.995   5.773  0.1786  0.0019  0.5412
 7551SOL    HW229970   5.928   3.974   5.843 -0.2805  1.9940  0.7942
 7551SOL    HW329971   5.935   4.001   5.694  0.6225 -1.7399  0.0536
 7551SOL    MW429972   5.974   3.993   5.772 -0.0072 -0.7544  0.6430
 7552SOL     OW29973   2.523   3.393   2.408  0.0376 -0.2383 -0.0619
 7552SOL    HW229974   2.492   3.303   2.409 -1.0804  0.0441 -2.1527
 7552SOL    HW329975   2.618   3.386   2.404  0.0368 -1.2592  1.1080
 7552SOL    MW429976   2.531   3.380   2.408  0.4547  0.2803  0.2313
 7553SOL     OW29977   2.055   1.227   0.803  0.1284 -0.5722 -0.4889
 7553SOL    HW229978   2.025   1.318   0.804  1.8701  0.0905 -1.9598
 7553SOL    HW329979   1.982   1.178   0.767 -0.1590  0.5780 -1.5492
 7553SOL    MW429980   2.042   1.232   0.799 -0.3404 -0.3453  0.4499
 7554SOL     OW29981   5.358   0.836   4.900  0.2299  0.0242 -0.4271
 7554SOL    HW229982   5.314   0.917   4.875 -0.4938  0.2584  1.4004
 7554SOL    HW329983   5.446   0.844   4.865  0.0284  1.3995 -0.6747
 7554SOL    MW429984   5.364   0.847   4.892 -0.2861 -0.2389 -0.1861
 7555SOL     OW29985   4.051   0.704   0.388 -0.7695 -0.4728  0.3298
 7555SOL    HW229986   4.077   0.729   0.477  3.1257 -1.8565 -0.2564
 7555SOL    HW329987   3.983   0.768   0.365 -0.7900  0.9483  3.6472
 7555SOL    MW429988   4.045   0.716   0.397  0.1714 -0.5770  0.4331
 7556SOL     OW29989   4.781   5.676   0.485  0.3835  0.1653 -0.8107
 7556SOL    HW229990   4.829   5.715   0.557 -1.6581  0.9107  0.2200
 7556SOL    HW329991   4.714   5.621   0.527 -0.4159  0.0718 -2.1298
 7556SOL    MW429992   4.778   5.674   0.500 -0.1166 -0.6913  0.5746
 7557SOL     OW29993   0.085   6.270   5.166  0.0015  0.6233 -0.1655
 7557SOL    HW229994   0.039   6.330   5.224 -0.5706 -0.1933  0.2635
 7557SOL    HW329995   0.144   6.221   5.223  0.7027  0.9933 -0.5608
 7557SOL    MW429996   0.087   6.271   5.181  0.5164 -0.2868  0.2429
 7558SOL     OW29997   0.706   0.882   4.908 -0.1195 -0.1041  0.1904
 7558SOL    HW229998   0.752   0.875   4.824  3.4024  2.1204  1.6627
 7558SOL    HW329999   0.738   0.808   4.959 -0.2188 -0.0355  0.3527
 7558SOL    MW430000   0.716   0.871   4.903  0.1383 -0.6292  0.8774
 7559SOL     OW30001   3.612   4.618   1.154  0.0598 -0.8970 -0.0781
 7559SOL    HW230002   3.678   4.687   1.143 -0.2111 -0.4590  0.9496
 7559SOL    HW330003   3.533   4.665   1.181 -0.8788 -1.3493 -1.8585
 7559SOL    MW430004   3.611   4.633   1.156 -0.8512 -0.4341 -0.5062
 7560SOL     OW30005   0.273   4.453   5.950 -0.3355 -0.1752  0.2837
 7560SOL    HW230006   0.197   4.470   6.006 -2.3507  0.8021 -2.5392
 7560SOL    HW330007   0.321   4.536   5.949 -0.9107  0.1528 -0.3071
 7560SOL    MW430008   0.269   4.466   5.958  0.4080 -0.1993 -0.3623
 7561SOL     OW30009   5.393   0.014   1.732 -0.1660  0.3620 -0.3893
 7561SOL    HW230010   5.475   0.015   1.683 -0.4951  1.1480 -0.9446
 7561SOL    HW330011   5.380  -0.078   1.755 -0.8380 -0.3343 -3.2197
 7561SOL    MW430012   5.402   0.002   1.729 -0.2408 -0.6238  0.2736
 7562SOL     OW30013   2.537   0.778   1.031 -0.2096 -0.1950 -0.2825
 7562SOL    HW230014   2.545   0.830   0.952 -1.2077 -0.2968 -0.4592
 7562SOL    HW330015   2.539   0.687   1.001  0.9318 -0.2650 -0.0336
 7562SOL    MW430016   2.538   0.773   1.017  0.0699  0.3019  0.5520
 7563SOL     OW30017   4.244   1.755   4.619 -0.0744 -0.6597 -0.3989
 7563SOL    HW230018   4.331   1.723   4.596 -0.0131 -0.4684 -0.4295
 7563SOL    HW330019   4.234   1.733   4.711 -1.2526 -3.6198 -1.1313
 7563SOL    MW430020   4.254   1.748   4.628  0.1339 -0.4416  0.1948
 7564SOL     OW30021   5.733   5.718   2.140  0.0701  0.2987  0.3281
 7564SOL    HW230022   5.816   5.688   2.103  0.2133 -0.6235  1.3552
 7564SOL    HW330023   5.667   5.662   2.099 -0.0141  0.7455 -0.1625
 7564SOL    MW430024   5.735   5.706   2.130  0.5084 -0.8530  0.7192
 7565SOL     OW30025   3.066   6.314   1.801 -0.1814  0.0440  0.8547
 7565SOL    HW230026   3.006   6.268   1.742  0.6288  0.5956 -0.4380
 7565SOL    HW330027   3.026   6.400   1.813  1.3692  1.2696 -1.8534
 7565SOL    MW430028   3.053   6.319   1.795  0.6089  0.3353  0.1261
 7566SOL     OW30029   4.460   0.693   3.830  0.2825 -0.3071  0.9750
 7566SOL    HW230030   4.548   0.658   3.844  0.5232 -0.2326 -0.2557
 7566SOL    HW330031   4.405   0.615   3.820  0.2064 -0.3535  1.7051
 7566SOL    MW430032   4.465   0.678   3.830 -0.0471 -0.0084 -0.1062
 7567SOL     OW30033   3.743   5.461   2.193 -0.6917  0.2927 -0.3891
 7567SOL    HW230034   3.679   5.514   2.241  0.2311  1.8847 -0.8358
 7567SOL    HW330035   3.784   5.522   2.132  1.9063 -0.4193  0.5076
 7567SOL    MW430036   3.740   5.476   2.191 -0.1082  0.0533 -0.1975
 7568SOL     OW30037   3.015   1.119   1.392 -0.1652 -0.0961 -0.0509
 7568SOL    HW230038   3.039   1.206   1.361  1.8904 -1.0354 -1.2832
 7568SOL    HW330039   3.060   1.059   1.333 -2.4592 -2.0455  0.0144
 7568SOL    MW430040   3.024   1.123   1.380 -0.2570  0.4447  0.2054
 7569SOL     OW30041   3.456   5.981   6.168  0.4366  0.4114 -0.0262
 7569SOL    HW230042   3.425   5.996   6.079 -0.2155 -0.1168  0.0980
 7569SOL    HW330043   3.549   5.960   6.158  0.3073  0.0808 -0.6145
 7569SOL    MW430044   3.464   5.980   6.155  0.5776  0.0530 -0.4768
 7570SOL     OW30045   0.518   0.718   4.518  0.4126  0.2694 -0.6052
 7570SOL    HW230046   0.474   0.680   4.594  0.9374 -1.6890 -1.2067
 7570SOL    HW330047   0.599   0.756   4.552  0.4571 -0.2523 -0.1138
 7570SOL    MW430048   0.523   0.718   4.532 -0.4887 -0.3777 -0.1386
 7571SOL     OW30049   2.697   0.296   0.517 -0.0068  0.1479 -0.3473
 7571SOL    HW230050   2.641   0.355   0.466  1.2495 -0.1475 -2.1630
 7571SOL    HW330051   2.640   0.264   0.588 -1.7201  0.8768 -1.3268
 7571SOL    MW430052   2.682   0.300   0.520 -0.4308 -0.0785 -0.1142
 7572SOL     OW30053   5.263   5.525   2.472  0.3266 -0.0172 -0.3309
 7572SOL    HW230054   5.353   5.549   2.493  0.2081 -0.2597  0.4914
 7572SOL    HW330055   5.237   5.465   2.542 -0.9176  1.0849  0.1883
 7572SOL    MW430056   5.271   5.520   2.484  0.2418  0.3660  0.5373
 7573SOL     OW30057   2.996   0.550   0.038  0.1113 -0.0072  0.1946
 7573SOL    HW230058   2.910   0.512   0.019 -0.6659  1.7578 -0.0148
 7573SOL    HW330059   3.058   0.494  -0.010 -1.0436 -0.5529 -0.7215
 7573SOL    MW430060   2.993   0.538   0.029  0.0597  0.2117  0.2512
 7574SOL     OW30061   2.661   1.015   3.305 -0.5040  0.2695 -0.1277
 7574SOL    HW230062   2.753   0.995   3.318 -0.6987 -0.5355  0.0851
 7574SOL    HW330063   2.639   1.075   3.377 -0.4202 -0.4625  0.5291
 7574SOL    MW430064   2.670   1.021   3.316 -0.2546 -0.3660 -0.5764
 7575SOL     OW30065   5.392   4.608   4.568  0.2733  0.0703 -0.2302
 7575SOL    HW230066   5.412   4.535   4.626 -1.7438 -0.7512 -0.4858
 7575SOL    HW330067   5.450   4.678   4.597  3.7160 -2.1274 -1.2078
 7575SOL    MW430068   5.402   4.607   4.580 -0.3707 -0.7547  0.0242
 7576SOL     OW30069   2.755   0.461   6.174 -0.3031  0.2854 -0.3645
 7576SOL    HW230070   2.829   0.444   6.116 -0.8823 -0.7203 -0.8419
 7576SOL    HW330071   2.686   0.401   6.144  0.0676 -1.9292  2.7147
 7576SOL    MW430072   2.755   0.451   6.163 -0.4015 -0.4309 -0.6437
 7577SOL     OW30073   2.575   1.654   4.070  0.3614 -0.0574  0.0399
 7577SOL    HW230074   2.642   1.722   4.078  0.8574 -0.6469  1.2377
 7577SOL    HW330075   2.613   1.578   4.115 -1.2211 -0.3069  1.0349
 7577SOL    MW430076   2.589   1.653   4.077 -0.0372  0.2436  0.2782
 7578SOL     OW30077   4.448   3.781   2.812 -0.4584 -0.3233  0.0546
 7578SOL    HW230078   4.496   3.856   2.778  0.0223 -1.3418 -1.6163
 7578SOL    HW330079   4.362   3.786   2.770 -0.0504 -1.2894 -0.9425
 7578SOL    MW430080   4.443   3.791   2.802  0.2845 -0.3432 -0.2617
 7579SOL     OW30081   4.706   1.756   5.973 -0.1021 -0.0033 -0.4195
 7579SOL    HW230082   4.678   1.664   5.965 -2.0845  0.6359 -1.3059
 7579SOL    HW330083   4.643   1.794   6.034  0.0049  1.0516 -0.9572
 7579SOL    MW430084   4.694   1.749   5.980 -0.3494 -0.0645 -0.4285
 7580SOL     OW30085   3.929   2.047   4.252 -0.1851  0.1935  0.2442
 7580SOL    HW230086   3.991   1.986   4.292 -1.1767 -0.7754  0.3644
 7580SOL    HW330087   3.958   2.054   4.161 -0.7340 -1.4458 -0.1007
 7580SOL    MW430088   3.941   2.040   4.245  0.6083 -0.7967  0.2159
 7581SOL     OW30089   5.404   0.960   0.788 -0.3910  0.1872  0.3891
 7581SOL    HW230090   5.370   1.049   0.774 -1.0856 -0.3151 -1.4325
 7581SOL    HW330091   5.331   0.912   0.824  0.0820  0.4068  1.6816
 7581SOL    MW430092   5.390   0.966   0.791 -0.0243 -0.1047 -0.2689
 7582SOL     OW30093   6.349   2.327   5.712  0.0429  0.3498 -0.7782
 7582SOL    HW230094   6.423   2.384   5.690  0.7128  0.2044  0.9779
 7582SOL    HW330095   6.388   2.250   5.753 -1.0441  0.1027 -0.1561
 7582SOL    MW430096   6.364   2.325   5.715  0.0703  0.3851  0.4005
 7583SOL     OW30097   2.947   5.091   2.981 -0.1008  0.4964  0.0164
 7583SOL    HW230098   2.906   5.102   2.895  0.5419 -0.9700 -0.5057
 7583SOL    HW330099   3.035   5.061   2.962 -0.6430 -2.1408  1.1727
 7583SOL    MW430100   2.953   5.088   2.967  0.0747 -0.1156  0.0170
 7584SOL     OW30101   5.562   5.620   6.260 -0.1843  0.1442  0.8844
 7584SOL    HW230102   5.597   5.534   6.237  0.2777  0.3329  0.8728
 7584SOL    HW330103   5.514   5.648   6.182  1.0227  0.5935  0.2697
 7584SOL    MW430104   5.560   5.612   6.247  0.2892  0.3471  0.4724
 7585SOL     OW30105   1.162   1.317   0.434 -0.5396  0.1060  0.6879
 7585SOL    HW230106   1.125   1.236   0.399  0.4845  0.0125 -0.2378
 7585SOL    HW330107   1.257   1.307   0.422 -0.2683  0.7521  2.0728
 7585SOL    MW430108   1.170   1.305   0.428  0.2486 -0.1469 -0.0981
 7586SOL     OW30109   2.424   6.248   1.112  0.6807  0.1924 -0.2022
 7586SOL    HW230110   2.508   6.266   1.156 -0.3889  2.2782  1.1516
 7586SOL    HW330111   2.387   6.175   1.162  1.1038  0.1383  0.0432
 7586SOL    MW430112   2.430   6.241   1.125 -0.1959 -0.3824 -0.4267
 7587SOL     OW30113   4.469   4.081   0.860 -0.4317  0.5367 -0.3682
 7587SOL    HW230114   4.488   4.036   0.942  0.2619  0.8052 -0.3693
 7587SOL    HW330115   4.377   4.062   0.842 -1.2168  2.1286  1.5369
 7587SOL    MW430116   4.460   4.073   0.868  0.4575 -0.1068 -0.0489
 7588SOL     OW30117   6.051   0.727   0.497  0.2729 -0.0303  0.1976
 7588SOL    HW230118   6.089   0.806   0.459 -0.1086  1.2445  2.3039
 7588SOL    HW330119   5.965   0.719   0.455  0.0086  1.1188  0.4882
 7588SOL    MW430120   6.044   0.736   0.486  0.0077 -0.0087 -0.4419
 7589SOL     OW30121   0.998   4.350   0.273  0.0405  0.6948 -0.5219
 7589SOL    HW230122   1.016   4.357   0.366  0.1572 -0.0953 -0.4725
 7589SOL    HW330123   1.078   4.315   0.235  0.5155  2.3699 -1.1605
 7589SOL    MW430124   1.011   4.346   0.280  0.2763 -0.4385  0.3771
 7590SOL     OW30125   2.049   4.448   1.335  0.3680 -0.0330 -0.0646
 7590SOL    HW230126   2.136   4.487   1.330  0.7266 -0.1830  3.0417
 7590SOL    HW330127   1.988   4.522   1.326  0.8722  0.3413 -0.3904
 7590SOL    MW430128   2.052   4.463   1.333  0.8439 -0.0084  0.0560
 7591SOL     OW30129   6.265   2.831   2.671 -0.2260  0.3942 -0.5307
 7591SOL    HW230130   6.207   2.764   2.706  2.2769 -1.0985  1.1142
 7591SOL    HW330131   6.251   2.907   2.727  0.2758 -0.3822  0.6915
 7591SOL    MW430132   6.256   2.832   2.683 -0.4682  0.1795 -0.1091
 7592SOL     OW30133   5.506   4.660   6.169  0.2291  0.1312  0.4330
 7592SOL    HW230134   5.464   4.701   6.244  0.6976  0.4403  0.5305
 7592SOL    HW330135   5.588   4.709   6.157  0.0480  0.2436 -0.4284
 7592SOL    MW430136   5.511   4.672   6.177 -0.4872  0.7006  0.2863
 7593SOL     OW30137   0.571   3.675   3.262 -0.1990  0.2723 -0.6617
 7593SOL    HW230138   0.605   3.744   3.319 -0.4965 -1.0183  1.1355
 7593SOL    HW330139   0.650   3.635   3.224  0.1692 -0.4915  0.8396
 7593SOL    MW430140   0.586   3.679   3.264 -0.3606 -0.1982  0.4753
 7594SOL     OW30141   0.520   1.179   1.535 -0.3075 -0.0565 -0.0972
 7594SOL    HW230142   0.562   1.092   1.534  3.6504  1.6115 -1.4221
 7594SOL    HW330143   0.486   1.189   1.446 -1.5068 -0.4786  0.2896
 7594SOL    MW430144   0.521   1.169   1.523 -0.0295 -0.7761 -0.4832
 7595SOL     OW30145   0.636   5.016   4.717  0.0962 -0.1391 -0.6993
 7595SOL    HW230146   0.661   5.000   4.626  0.9686 -1.5758 -0.2333
 7595SOL    HW330147   0.705   4.975   4.768 -0.2407  0.8944  0.6270
 7595SOL    MW430148   0.648   5.009   4.712  0.4907 -0.4673  0.1515
 7596SOL     OW30149   4.384   5.705   0.762 -0.2417  0.4473  0.1591
 7596SOL    HW230150   4.303   5.725   0.810 -0.4205 -1.4598  0.7258
 7596SOL    HW330151   4.422   5.791   0.743 -1.6529  1.3417  1.1672
 7596SOL    MW430152   4.378   5.719   0.766  0.0821 -0.1432 -0.4541
 7597SOL     OW30153   1.747   2.977   5.262  0.6506 -0.5379  0.1886
 7597SOL    HW230154   1.660   2.937   5.264  0.3248  0.1362 -0.2725
 7597SOL    HW330155   1.787   2.941   5.182 -0.5875  1.9387 -1.6771
 7597SOL    MW430156   1.741   2.967   5.251 -0.3175 -0.1651 -0.0914
 7598SOL     OW30157   0.941   0.443   4.242 -0.8531 -0.1946 -0.1708
 7598SOL    HW230158   0.940   0.348   4.252 -0.6985 -0.2335 -0.5039
 7598SOL    HW330159   1.032   0.464   4.221 -1.1094 -0.1065 -1.2849
 7598SOL    MW430160   0.953   0.433   4.241 -0.0571 -0.3929 -0.1854
 7599SOL     OW30161   1.659   1.103   3.292  0.0312  0.4816 -0.2173
 7599SOL    HW230162   1.717   1.168   3.333 -0.4033  1.2618 -0.8164
 7599SOL    HW330163   1.716   1.027   3.278  0.6514  0.8660  0.1235
 7599SOL    MW430164   1.674   1.101   3.296 -0.3323 -0.0336 -0.0086
 7600SOL     OW30165   3.598   3.792   1.994 -0.1605  0.6690  0.0652
 7600SOL    HW230166   3.614   3.702   1.967 -0.3181  0.6818 -0.0729
 7600SOL    HW330167   3.679   3.819   2.037  1.1527  1.5338 -2.7094
 7600SOL    MW430168   3.611   3.784   1.996  0.1687  0.0485  0.3294
 7601SOL     OW30169   2.840   5.171   2.693  0.2469  0.1597  0.4145
 7601SOL    HW230170   2.787   5.248   2.670  0.9273  0.7594  0.8188
 7601SOL    HW330171   2.929   5.195   2.669  0.5961 -0.1529  1.3570
 7601SOL    MW430172   2.845   5.184   2.687  0.4520 -0.5494  0.4212
 7602SOL     OW30173   6.415   3.096   2.589 -0.2194 -0.3676  0.0987
 7602SOL    HW230174   6.387   3.104   2.680 -0.3514  0.2023  0.0074
 7602SOL    HW330175   6.490   3.036   2.592  0.0839  0.0310  0.6418
 7602SOL    MW430176   6.421   3.089   2.602 -0.6215  0.1215 -0.3297
 7603SOL     OW30177   6.092   5.495   4.021 -0.1014 -0.0793 -0.1078
 7603SOL    HW230178   6.176   5.463   3.989  0.6600  0.5829  1.1487
 7603SOL    HW330179   6.078   5.577   3.973 -0.4939 -0.6303 -0.9708
 7603SOL    MW430180   6.101   5.502   4.011  0.4893  0.0939  0.1556
 7604SOL     OW30181   3.535   3.531   6.101  0.9527 -0.3495  0.1162
 7604SOL    HW230182   3.568   3.441   6.107  0.6918 -0.6952 -2.2947
 7604SOL    HW330183   3.505   3.539   6.010  0.1992  1.9299  0.4941
 7604SOL    MW430184   3.535   3.520   6.090  0.0465  0.4971 -0.6127
 7605SOL     OW30185   5.681   0.203   1.290 -0.2461  0.0013 -0.9590
 7605SOL    HW230186   5.718   0.122   1.254  2.0980 -0.5003  2.1391
 7605SOL    HW330187   5.758   0.256   1.312 -1.6769  1.9689 -0.5071
 7605SOL    MW430188   5.696   0.199   1.288  0.2140 -0.3426 -0.7679
 7606SOL     OW30189   0.207   3.629   5.457  0.2290  0.1619  1.1713
 7606SOL    HW230190   0.240   3.541   5.477  0.5801 -0.1252 -0.5108
 7606SOL    HW330191   0.117   3.615   5.429  0.5287  0.2137  0.1335
 7606SOL    MW430192   0.200   3.616   5.456 -0.0053 -0.3033  0.0424
 7607SOL     OW30193   5.510   1.722   0.327 -0.2235  0.2666 -0.2079
 7607SOL    HW230194   5.477   1.812   0.323  0.1686  0.3961 -0.7161
 7607SOL    HW330195   5.557   1.711   0.244  2.8909  0.8123  1.3537
 7607SOL    MW430196   5.512   1.733   0.315 -0.5938 -0.4256 -0.2572
 7608SOL     OW30197   6.275   5.245   1.187 -0.3740  0.0881  0.3897
 7608SOL    HW230198   6.323   5.198   1.256  0.5786 -0.6963 -0.7644
 7608SOL    HW330199   6.311   5.333   1.188  0.3311 -0.1928  0.2664
 7608SOL    MW430200   6.286   5.250   1.196 -0.4225  0.0132  0.1942
 7609SOL     OW30201   6.188   3.337   0.501  0.2417  0.5185 -0.0928
 7609SOL    HW230202   6.190   3.357   0.408 -0.0127  0.7595 -0.0476
 7609SOL    HW330203   6.179   3.422   0.544  0.1269  0.3903  0.1398
 7609SOL    MW430204   6.187   3.351   0.494 -0.6231  0.2766  0.0397
 7610SOL     OW30205   3.843   2.011   2.543  0.5211  0.2465 -0.3070
 7610SOL    HW230206   3.840   1.944   2.474  1.0271 -0.2179  0.1135
 7610SOL    HW330207   3.819   1.964   2.623 -1.9752  1.1734 -0.4146
 7610SOL    MW430208   3.839   1.996   2.544 -0.2356 -0.1394  0.3815
 7611SOL     OW30209   4.447   3.058   3.067  0.0832 -0.0824  0.4665
 7611SOL    HW230210   4.438   3.147   3.099  1.2004 -0.1621  1.0531
 7611SOL    HW330211   4.466   3.006   3.146 -2.4961 -1.1917  0.4524
 7611SOL    MW430212   4.448   3.063   3.082 -0.7887  0.1081 -0.3009
 7612SOL     OW30213   4.150   2.765   0.773 -1.0582 -0.0687 -0.6011
 7612SOL    HW230214   4.186   2.801   0.854  1.2575 -1.7087 -0.7926
 7612SOL    HW330215   4.156   2.836   0.710  0.8225  0.0961 -0.2887
 7612SOL    MW430216   4.155   2.779   0.776 -0.1043 -0.1373  0.2271
 7613SOL     OW30217   5.536   5.780   3.184 -0.2836  0.3737 -0.3907
 7613SOL    HW230218   5.584   5.735   3.114 -2.0707 -0.8803 -0.8871
 7613SOL    HW330219   5.603   5.823   3.236  1.2192  0.0531 -1.9977
 7613SOL    MW430220   5.551   5.779   3.182 -0.6544 -0.0848 -0.2547
 7614SOL     OW30221   3.645   4.118   4.492 -0.2781  0.0104 -0.0028
 7614SOL    HW230222   3.653   4.050   4.559 -2.5189 -3.7835 -3.0851
 7614SOL    HW330223   3.555   4.147   4.498 -0.2014  0.3983 -0.6701
 7614SOL    MW430224   3.634   4.113   4.501  0.2581 -0.0250  0.5895
 7615SOL     OW30225   1.370   4.925   5.403  0.1996 -0.6673  0.2720
 7615SOL    HW230226   1.387   4.986   5.475 -0.9051  0.8097 -0.6375
 7615SOL    HW330227   1.291   4.877   5.429 -2.7755  2.7302 -1.4584
 7615SOL    MW430228   1.362   4.927   5.416 -0.0718 -0.0863  0.5066
 7616SOL     OW30229   5.650   2.693   5.529  0.7885 -0.4101 -0.0402
 7616SOL    HW230230   5.612   2.624   5.476 -1.6262 -1.4474  2.7588
 7616SOL    HW330231   5.614   2.774   5.494 -0.1877 -1.0000 -0.4265
 7616SOL    MW430232   5.640   2.694   5.518 -0.6441  0.2650  0.5990
 7617SOL     OW30233   3.263   4.091   4.697  0.8295  0.1741  0.1337
 7617SOL    HW230234   3.169   4.106   4.711  0.8736  0.3388  0.2560
 7617SOL    HW330235   3.284   4.144   4.620  0.4339 -1.2849 -1.0345
 7617SOL    MW430236   3.253   4.100   4.688 -0.6236  0.7754  0.2055
 7618SOL     OW30237   5.578   5.993   0.858  0.7392  0.8566 -0.0481
 7618SOL    HW230238   5.513   5.933   0.821  1.3892 -0.3423  0.7001
 7618SOL    HW330239   5.654   5.983   0.801  0.8110  1.0776  0.0092
 7618SOL    MW430240   5.579   5.984   0.846 -0.3149 -0.0954  0.3036
 7619SOL     OW30241   5.410   0.102   2.545 -0.1333 -0.1088 -0.2942
 7619SOL    HW230242   5.453   0.059   2.619 -1.0930 -1.8437 -0.6916
 7619SOL    HW330243   5.350   0.164   2.585  0.3318 -0.0553  0.3407
 7619SOL    MW430244   5.408   0.105   2.560  0.0107  0.5554 -0.1719
 7620SOL     OW30245   4.746   4.725   0.711 -0.3577  0.1169  0.2334
 7620SOL    HW230246   4.820   4.745   0.655 -1.5271 -1.3801 -2.0197
 7620SOL    HW330247   4.761   4.634   0.739 -1.6936 -0.5139 -0.9687
 7620SOL    MW430248   4.758   4.715   0.707  0.1036  0.3314 -0.1439
 7621SOL     OW30249   2.887   1.997   5.635 -0.3524  0.4295 -0.4167
 7621SOL    HW230250   2.860   2.089   5.636  0.5155  0.6980  0.9725
 7621SOL    HW330251   2.821   1.951   5.687  0.6646  0.7638  1.2707
 7621SOL    MW430252   2.875   2.003   5.642 -0.0963 -0.0223  0.0965
 7622SOL     OW30253   0.582   0.034   4.701  0.6008 -0.1961 -0.5130
 7622SOL    HW230254   0.542   0.023   4.788 -0.0428  0.5791 -0.7021
 7622SOL    HW330255   0.651  -0.033   4.698  1.1059  0.2192  0.8744
 7622SOL    MW430256   0.586   0.024   4.712  0.1490  0.0275  0.2724
 7623SOL     OW30257   5.171   4.571   5.222 -0.1748  0.3664  0.3119
 7623SOL    HW230258   5.179   4.494   5.166 -1.1099  0.4279  0.0741
 7623SOL    HW330259   5.119   4.541   5.297  0.8069  0.3623  1.0074
 7623SOL    MW430260   5.165   4.557   5.225  0.1602  0.2035 -0.0908
 7624SOL     OW30261   5.077   3.703   1.812  0.0465 -0.4685 -0.1638
 7624SOL    HW230262   5.072   3.619   1.766 -0.0992  0.2799 -1.5360
 7624SOL    HW330263   5.037   3.766   1.753 -0.0993  0.5460  0.9695
 7624SOL    MW430264   5.071   3.700   1.798  0.2861 -0.4244 -0.3363
 7625SOL     OW30265   2.197   3.871   5.320  0.3888 -0.3841 -0.3049
 7625SOL    HW230266   2.249   3.907   5.248 -2.3991 -0.8691 -2.7443
 7625SOL    HW330267   2.112   3.851   5.280 -1.0076 -1.5476  2.9601
 7625SOL    MW430268   2.193   3.873   5.305  0.4042 -0.4741 -0.1052
 7626SOL     OW30269   3.101   0.235   2.731 -0.4443  0.7186  0.3237
 7626SOL    HW230270   3.106   0.284   2.649  1.4825 -1.7089 -1.1468
 7626SOL    HW330271   3.023   0.180   2.721  0.0607  0.0738 -0.1087
 7626SOL    MW430272   3.091   0.234   2.719 -0.5370 -0.8654 -0.4465
 7627SOL     OW30273   3.869   0.062   4.807 -0.1206 -0.1468  0.0430
 7627SOL    HW230274   3.824   0.063   4.722 -1.5085 -1.9998  0.6969
 7627SOL    HW330275   3.810   0.108   4.866 -0.2086 -0.7854  0.4635
 7627SOL    MW430276   3.855   0.068   4.803  0.8500 -0.4041 -0.8696
 7628SOL     OW30277   5.261   1.813   3.280 -0.1217  0.1661 -0.4394
 7628SOL    HW230278   5.302   1.753   3.341 -0.4841 -2.3353 -2.4791
 7628SOL    HW330279   5.215   1.877   3.335  0.9707 -0.9141  1.8338
 7628SOL    MW430280   5.260   1.814   3.295 -0.8534 -0.0540 -0.0370
 7629SOL     OW30281   3.205   5.447   1.238  0.0906 -0.3325  0.0031
 7629SOL    HW230282   3.184   5.404   1.155  1.7419 -0.6818 -0.2669
 7629SOL    HW330283   3.147   5.405   1.301 -2.2912  0.9785 -1.1552
 7629SOL    MW430284   3.195   5.435   1.235  0.4693  0.3636 -0.5265
 7630SOL     OW30285   2.799   2.723   0.400 -0.0779 -0.1304 -0.6309
 7630SOL    HW230286   2.714   2.762   0.383 -0.9574 -0.5366  2.3013
 7630SOL    HW330287   2.779   2.633   0.428  1.2046 -0.0162  0.8087
 7630SOL    MW430288   2.785   2.716   0.401  0.3703 -0.3129 -0.1619
 7631SOL     OW30289   3.073   1.054   5.327  0.7647  0.5234  0.0114
 7631SOL    HW230290   3.137   0.995   5.367  0.1447  0.3747  0.8221
 7631SOL    HW330291   3.118   1.138   5.322  0.9209  0.5062  0.8981
 7631SOL    MW430292   3.088   1.057   5.332 -0.4454 -0.6173  0.5283
 7632SOL     OW30293   5.408   5.727   6.066 -0.2796 -0.1124  0.0462
 7632SOL    HW230294   5.422   5.820   6.084  0.9210  0.0881 -1.6435
 7632SOL    HW330295   5.451   5.713   5.982 -2.6191 -1.6500 -0.9902
 7632SOL    MW430296   5.415   5.738   6.058 -0.3789 -0.1073  0.4287
 7633SOL     OW30297   2.137   2.232   4.273 -0.1864  0.6791 -0.0213
 7633SOL    HW230298   2.076   2.289   4.226  0.3448  2.2174  1.0505
 7633SOL    HW330299   2.179   2.290   4.337  2.3706 -0.2975 -0.6724
 7633SOL    MW430300   2.135   2.247   4.275 -0.4084  0.0311  0.0963
 7634SOL     OW30301   4.018   0.451   4.227 -0.2960  0.4833  0.5295
 7634SOL    HW230302   4.112   0.462   4.212 -0.6464  0.6510 -1.9103
 7634SOL    HW330303   4.007   0.473   4.320  1.9642  1.1324  0.7274
 7634SOL    MW430304   4.029   0.456   4.238 -0.0525  0.6714 -0.1079
 7635SOL     OW30305   1.732   0.705   4.738  0.1950 -0.3083  0.6068
 7635SOL    HW230306   1.645   0.733   4.709 -0.3032  0.8637  2.9582
 7635SOL    HW330307   1.720   0.616   4.769 -0.5690  0.3161  2.2363
 7635SOL    MW430308   1.719   0.697   4.738  0.5869 -0.4795 -0.2881
 7636SOL     OW30309   2.670   0.725   4.349  0.6121 -0.2259  0.3660
 7636SOL    HW230310   2.732   0.691   4.413 -0.7848 -1.0070  1.3471
 7636SOL    HW330311   2.602   0.768   4.401 -0.0376  0.0052 -0.6416
 7636SOL    MW430312   2.670   0.726   4.364  0.0188 -0.0200 -0.0796
 7637SOL     OW30313   3.905   0.311   4.009  0.1094 -0.6170  0.0639
 7637SOL    HW230314   3.952   0.229   4.024  0.9837 -0.3767 -1.2233
 7637SOL    HW330315   3.940   0.370   4.076  0.7048 -0.8106 -0.0675
 7637SOL    MW430316   3.916   0.308   4.020 -0.1131 -0.8951 -1.0259
 7638SOL     OW30317   0.619   4.592   0.787 -0.1368 -0.3486  0.3113
 7638SOL    HW230318   0.685   4.648   0.747  0.9376 -0.9327  1.2357
 7638SOL    HW330319   0.562   4.653   0.834  0.3971  0.0653  0.4320
 7638SOL    MW430320   0.620   4.608   0.788 -0.0136 -0.6617 -0.1949
 7639SOL     OW30321   1.180   3.663   6.033  0.3094 -0.3807 -0.0065
 7639SOL    HW230322   1.119   3.726   6.071  0.7373 -0.1137  0.2565
 7639SOL    HW330323   1.195   3.695   5.944  0.4810 -0.1356  0.1073
 7639SOL    MW430324   1.174   3.676   6.026  0.4819  0.6532  0.2669
 7640SOL     OW30325   4.908   4.443   3.365 -0.4214  0.4731  0.1966
 7640SOL    HW230326   4.931   4.525   3.321 -1.1926  0.9882  0.7473
 7640SOL    HW330327   4.973   4.435   3.434 -2.7218  2.8134  2.8641
 7640SOL    MW430328   4.920   4.453   3.368 -0.3406  0.6556  0.2724
 7641SOL     OW30329   2.835   0.768   0.431 -0.1114 -0.0426  0.2468
 7641SOL    HW230330   2.786   0.808   0.360 -0.9268 -1.6142 -0.1215
 7641SOL    HW330331   2.923   0.753   0.395 -0.2157  0.1039 -0.0721
 7641SOL    MW430332   2.840   0.771   0.417  0.0446  0.0840  0.6190
 7642SOL     OW30333   6.111   3.408   2.196  0.6764  0.1998 -0.3088
 7642SOL    HW230334   6.194   3.449   2.224  0.4446  0.3062  0.2230
 7642SOL    HW330335   6.113   3.416   2.100  2.3022 -1.7559 -0.5213
 7642SOL    MW430336   6.122   3.415   2.187 -0.1782  0.0537 -0.0028
 7643SOL     OW30337   4.627   2.586   3.132 -0.1509  0.3367  0.1618
 7643SOL    HW230338   4.664   2.531   3.201 -0.3934  0.0187  0.0404
 7643SOL    HW330339   4.578   2.526   3.076 -2.6792  1.0055  1.5016
 7643SOL    MW430340   4.625   2.571   3.133 -0.1363  0.2213  0.0208
 7644SOL     OW30341   4.366   4.985   5.821 -0.6916 -0.2444  0.1744
 7644SOL    HW230342   4.342   4.995   5.729 -2.6340 -1.8071  0.4466
 7644SOL    HW330343   4.297   4.930   5.858 -0.1737  0.6503  2.6728
 7644SOL    MW430344   4.354   4.979   5.813  0.1219  0.5439  0.4672
 7645SOL     OW30345   4.539   0.063   2.212 -0.0797  0.3582 -0.3907
 7645SOL    HW230346   4.630   0.035   2.202  0.0400  0.6213 -0.0721
 7645SOL    HW330347   4.539   0.155   2.187 -0.1577  0.4916  0.0830
 7645SOL    MW430348   4.551   0.072   2.208  0.1528 -0.3932  0.4004
 7646SOL     OW30349   0.417   0.921   5.332 -0.2900 -0.0888 -0.2788
 7646SOL    HW230350   0.357   0.990   5.305 -0.3603 -0.0128  0.0669
 7646SOL    HW330351   0.493   0.968   5.366  0.5829 -0.1614 -1.9830
 7646SOL    MW430352   0.419   0.936   5.333 -0.6497 -0.0970  0.6039
 7647SOL     OW30353   2.833   0.109   2.702  0.2127  0.2706 -0.0988
 7647SOL    HW230354   2.821   0.050   2.628  0.2508 -0.2411  0.2938
 7647SOL    HW330355   2.748   0.152   2.713 -0.9270 -2.2036  1.7062
 7647SOL    MW430356   2.820   0.107   2.694 -0.1644  0.2574 -1.0550
 7648SOL     OW30357   5.561   4.100   5.566  0.8476  0.1905  0.4213
 7648SOL    HW230358   5.581   4.193   5.570 -0.1321  0.3847  1.7143
 7648SOL    HW330359   5.644   4.057   5.546  1.3080  1.3356 -0.1568
 7648SOL    MW430360   5.574   4.106   5.564  0.5277  0.6757  0.2536
 7649SOL     OW30361   5.984   1.540   6.267  0.2758 -0.0214  0.3438
 7649SOL    HW230362   6.080   1.538   6.271  0.2385  0.0941  2.4159
 7649SOL    HW330363   5.959   1.614   6.322 -1.0278 -0.3916  0.2808
 7649SOL    MW430364   5.994   1.550   6.275 -0.2235 -1.2419 -0.5173
 7650SOL     OW30365   4.384   5.727   2.514  0.3086 -0.3924  0.0607
 7650SOL    HW230366   4.292   5.703   2.517  0.0842  0.2992 -0.7120
 7650SOL    HW330367   4.416   5.691   2.431  0.6127 -0.2245  0.1016
 7650SOL    MW430368   4.376   5.719   2.503 -0.5087  0.1724 -0.2361
 7651SOL     OW30369   6.014   1.438   1.522  0.2539 -0.2768 -0.0052
 7651SOL    HW230370   6.029   1.529   1.497  0.4768 -0.2816  0.1119
 7651SOL    HW330371   6.099   1.395   1.512  0.2922 -0.3355  0.5189
 7651SOL    MW430372   6.027   1.444   1.517  0.0021 -0.0289  0.2275
 7652SOL     OW30373   6.372   0.718   6.024 -0.1406 -0.3794  0.5466
 7652SOL    HW230374   6.278   0.739   6.022 -0.3110 -1.1591 -0.2500
 7652SOL    HW330375   6.397   0.710   5.932  0.3103 -1.8434  0.7639
 7652SOL    MW430376   6.363   0.719   6.012  0.2634  0.6671  0.3952
 7653SOL     OW30377   4.653   5.233   1.834 -0.6116  0.5522 -0.4005
 7653SOL    HW230378   4.709   5.308   1.812  0.1083 -0.1804 -1.1208
 7653SOL    HW330379   4.650   5.234   1.930  1.4047  0.0974 -0.2742
 7653SOL    MW430380   4.660   5.243   1.844 -0.0284  0.4722  0.2174
 7654SOL     OW30381   4.344   2.237   5.040 -0.5069 -0.2721 -0.2205
 7654SOL    HW230382   4.364   2.228   5.134 -1.8698  2.6085  0.4759
 7654SOL    HW330383   4.248   2.238   5.036 -0.4655  0.2234 -1.5720
 7654SOL    MW430384   4.334   2.236   5.052  0.1009 -0.1280 -0.3521
 7655SOL     OW30385   1.219   3.192   3.932  0.2709 -0.8538 -0.6357
 7655SOL    HW230386   1.192   3.234   3.850  0.1039 -1.1802 -0.7507
 7655SOL    HW330387   1.138   3.182   3.982  0.4645 -0.0908 -0.1653
 7655SOL    MW430388   1.205   3.196   3.928 -0.0266 -0.0182  0.2496
 7656SOL     OW30389   3.189   2.175   4.588 -0.0539 -0.3457  0.7333
 7656SOL    HW230390   3.206   2.192   4.681 -1.2370  1.5258  0.6756
 7656SOL    HW330391   3.242   2.240   4.542  0.5288 -1.2710  0.0929
 7656SOL    MW430392   3.198   2.186   4.594  0.0996  0.3816 -0.2820
 7657SOL     OW30393   0.621   0.086   0.109  0.1827  0.3467 -0.0599
 7657SOL    HW230394   0.599   0.177   0.086 -0.0800  0.5632  1.0015
 7657SOL    HW330395   0.569   0.068   0.187 -0.2928 -0.9589 -0.6535
 7657SOL    MW430396   0.611   0.096   0.116 -0.2677  0.7890 -0.2315
 7658SOL     OW30397   4.599   4.677   5.129  0.5305 -1.0613  0.3016
 7658SOL    HW230398   4.631   4.761   5.097 -1.4642  0.2122  1.4439
 7658SOL    HW330399   4.664   4.649   5.194  0.2485  0.5984  1.3392
 7658SOL    MW430400   4.612   4.684   5.133  0.4376 -0.1034  0.7991
 7659SOL     OW30401   0.743   1.966   3.936  0.3014  0.1767 -0.0391
 7659SOL    HW230402   0.780   1.902   3.874 -1.7347 -0.8146 -0.2970
 7659SOL    HW330403   0.715   2.039   3.880 -0.3206 -0.1361 -0.1429
 7659SOL    MW430404   0.744   1.968   3.920 -0.6322  0.5360  0.2942
 7660SOL     OW30405   4.650   5.261   0.287 -0.1030 -0.2558 -0.3135
 7660SOL    HW230406   4.639   5.241   0.380 -1.9163 -1.1041 -0.6508
 7660SOL    HW330407   4.646   5.356   0.282  1.0011 -0.1485  0.5665
 7660SOL    MW430408   4.648   5.271   0.299  0.7015 -0.4218  0.1186
 7661SOL     OW30409   4.204   5.648   0.258 -0.5261 -0.2936 -0.2624
 7661SOL    HW230410   4.133   5.587   0.277  1.0615 -2.0992  0.2432
 7661SOL    HW330411   4.243   5.668   0.343 -0.6341  0.9857 -0.4849
 7661SOL    MW430412   4.200   5.643   0.272 -0.2356  0.3852 -0.2381
 7662SOL     OW30413   6.102   2.568   0.064 -0.5145 -0.3795 -0.0013
 7662SOL    HW230414   6.112   2.550   0.157 -1.3509  1.3487  0.4697
 7662SOL    HW330415   6.172   2.518   0.022  1.0083  0.1863  1.7334
 7662SOL    MW430416   6.112   2.559   0.071 -0.6417 -0.3151 -0.3525
 7663SOL     OW30417   0.556   4.922   4.022 -0.1434  0.2809 -0.4334
 7663SOL    HW230418   0.465   4.892   4.026 -1.1732  3.2839  1.4178
 7663SOL    HW330419   0.562   4.968   3.939 -0.2062 -0.1656 -0.6900
 7663SOL    MW430420   0.545   4.924   4.012 -0.0629 -0.1143 -0.8189
 7664SOL     OW30421   5.415   0.353   3.915 -0.0396  0.1207  0.4047
 7664SOL    HW230422   5.323   0.360   3.940  0.3030 -0.2637  1.8831
 7664SOL    HW330423   5.440   0.264   3.941  0.9645  0.5058  0.8027
 7664SOL    MW430424   5.407   0.342   3.922 -0.0785  0.2902 -0.0767
 7665SOL     OW30425   5.237   4.060   2.713  0.1718 -0.0175 -0.0141
 7665SOL    HW230426   5.220   3.967   2.698  2.1577 -0.3662 -0.4290
 7665SOL    HW330427   5.187   4.105   2.645 -1.2142 -0.7327  0.5053
 7665SOL    MW430428   5.228   4.054   2.702 -0.1526  0.0703  0.2914
 7666SOL     OW30429   1.009   0.595   2.978  0.7716 -0.6212  0.0511
 7666SOL    HW230430   0.965   0.608   2.894  0.2862 -1.1313  0.2224
 7666SOL    HW330431   1.038   0.683   3.004 -0.5079 -0.1987  0.1201
 7666SOL    MW430432   1.007   0.608   2.971  0.0871 -0.0382  0.7092
 7667SOL     OW30433   1.965   0.960   2.997  0.1194  0.5067 -0.1442
 7667SOL    HW230434   1.960   1.055   3.008  2.2226  0.7527 -0.8000
 7667SOL    HW330435   2.057   0.939   3.014 -0.3479 -1.4539  0.1944
 7667SOL    MW430436   1.977   0.970   3.001  0.3801  0.1553 -0.0943
 7668SOL     OW30437   0.202   1.789   0.432  0.1391  0.2501 -0.0710
 7668SOL    HW230438   0.185   1.794   0.526 -0.0541  0.3280 -0.1106
 7668SOL    HW330439   0.296   1.773   0.425  0.2415  0.7561  0.1204
 7668SOL    MW430440   0.212   1.787   0.443  0.0765  0.0655 -0.1030
 7669SOL     OW30441   3.753   2.305   2.319 -0.4711 -0.0589 -0.3372
 7669SOL    HW230442   3.737   2.325   2.411  2.5859 -0.1293  0.3243
 7669SOL    HW330443   3.732   2.386   2.273  1.2725  1.1909  0.9182
 7669SOL    MW430444   3.748   2.318   2.325 -0.4859  0.6254  0.0967
 7670SOL     OW30445   6.106   1.422   0.501 -0.3148  0.0586 -0.1484
 7670SOL    HW230446   6.041   1.427   0.431 -0.8185 -1.4333  0.1942
 7670SOL    HW330447   6.124   1.329   0.512  1.6168  0.3991  0.0356
 7670SOL    MW430448   6.100   1.411   0.493  0.5941  0.3037  0.4131
 7671SOL     OW30449   0.493   6.160   3.471  0.4542  0.3643 -0.4543
 7671SOL    HW230450   0.500   6.067   3.491  0.3416  0.7098  1.3288
 7671SOL    HW330451   0.450   6.198   3.547  3.5909  2.4088  0.5082
 7671SOL    MW430452   0.488   6.153   3.483 -0.6882 -0.1551 -0.0375
 7672SOL     OW30453   2.397   3.751   5.657 -0.1400  0.0983 -0.0154
 7672SOL    HW230454   2.322   3.764   5.715  0.7333  1.1356  0.9198
 7672SOL    HW330455   2.360   3.706   5.581 -1.5021 -0.3932  0.8887
 7672SOL    MW430456   2.382   3.747   5.655 -0.1621 -0.3213 -0.6973
 7673SOL     OW30457   3.783   1.814   5.499  0.3671  0.6880 -0.3662
 7673SOL    HW230458   3.724   1.787   5.429 -0.2529 -3.4176  1.4184
 7673SOL    HW330459   3.866   1.770   5.479  0.3531 -0.0920  1.1186
 7673SOL    MW430460   3.786   1.805   5.487 -0.5948  0.7649 -0.7958
 7674SOL     OW30461   2.253   0.235   0.987  0.4175  0.1514  0.8654
 7674SOL    HW230462   2.293   0.179   1.053 -0.4969 -1.1520  0.3646
 7674SOL    HW330463   2.289   0.204   0.904  0.8557  1.1611  0.6650
 7674SOL    MW430464   2.263   0.224   0.985  0.3630 -0.8194  0.2012
 7675SOL     OW30465   1.334   6.179   2.220 -0.2908 -0.1939 -0.0190
 7675SOL    HW230466   1.277   6.112   2.182 -0.3751  0.5626 -1.2856
 7675SOL    HW330467   1.402   6.192   2.154 -0.1982  0.8682  0.2716
 7675SOL    MW430468   1.336   6.172   2.206 -0.1206  0.1107 -0.3110
 7676SOL     OW30469   4.090   1.018   4.652  0.0470  0.2470  0.5061
 7676SOL    HW230470   4.099   0.937   4.702 -1.0406 -0.0126  0.3028
 7676SOL    HW330471   3.995   1.034   4.648  0.2411  1.4930  0.4884
 7676SOL    MW430472   4.078   1.009   4.658 -0.0992  0.9290 -0.1839
 7677SOL     OW30473   5.216   1.015   5.873 -0.2619 -0.0970 -0.8634
 7677SOL    HW230474   5.139   1.046   5.825 -2.2496 -3.2177 -0.0007
 7677SOL    HW330475   5.242   0.934   5.827  1.3434 -0.1340  0.0229
 7677SOL    MW430476   5.210   1.008   5.860  0.1241 -0.5798  0.5240
 7678SOL     OW30477   5.169   2.554   0.065  0.5530  0.1064 -0.1559
 7678SOL    HW230478   5.190   2.491   0.134  1.2508 -0.1714 -0.6164
 7678SOL    HW330479   5.091   2.599   0.098  1.9087  1.2581  1.6658
 7678SOL    MW430480   5.161   2.552   0.079  0.2778 -0.3000 -0.1181
 7679SOL     OW30481   3.265   6.006   2.609  0.5054 -0.1583  0.1452
 7679SOL    HW230482   3.186   5.995   2.555 -0.5725  1.8389  1.2192
 7679SOL    HW330483   3.252   5.945   2.682 -0.7864  1.1833  1.0762
 7679SOL    MW430484   3.252   5.996   2.611  0.5697  0.2193  0.1646
 7680SOL     OW30485   0.794   3.662   6.218  0.0180  0.4628  0.0497
 7680SOL    HW230486   0.863   3.722   6.191 -0.1830  1.6399  1.9400
 7680SOL    HW330487   0.795   3.666   6.314  0.5037 -3.1742  0.3423
 7680SOL    MW430488   0.803   3.671   6.227 -0.3222  0.4536  0.5671
 7681SOL     OW30489   2.175   4.687   2.289  0.0164  0.3930  0.5526
 7681SOL    HW230490   2.246   4.633   2.257 -0.5900 -0.6401  0.8962
 7681SOL    HW330491   2.135   4.724   2.211  0.3683  0.2548  0.3062
 7681SOL    MW430492   2.179   4.685   2.275  0.4869 -0.1183  0.3314
 7682SOL     OW30493   0.350   3.183   1.266 -0.1970 -0.3841  0.4423
 7682SOL    HW230494   0.428   3.198   1.211  1.0236  0.5602  2.3206
 7682SOL    HW330495   0.332   3.090   1.256  0.7468 -0.4912 -0.5756
 7682SOL    MW430496   0.358   3.173   1.257  0.3172 -0.5736 -0.2598
 7683SOL     OW30497   2.318   0.213   0.403 -0.0860 -0.3807 -0.0111
 7683SOL    HW230498   2.344   0.126   0.374 -1.5106 -0.2951 -1.6980
 7683SOL    HW330499   2.371   0.273   0.352 -1.0270 -0.2561 -0.8766
 7683SOL    MW430500   2.328   0.209   0.393  0.2938 -0.5896  0.0727
 7684SOL     OW30501   3.925   0.220   3.138  0.3780 -0.2288  0.0995
 7684SOL    HW230502   3.905   0.152   3.202 -0.7763 -1.2904 -1.3261
 7684SOL    HW330503   3.918   0.176   3.054 -1.8368  1.9271 -0.9800
 7684SOL    MW430504   3.921   0.205   3.136  0.1909  0.4088 -0.1525
 7685SOL     OW30505   5.548   2.026   2.403 -0.2181  0.3429  0.0612
 7685SOL    HW230506   5.494   1.952   2.430  0.3707 -0.4382 -0.8345
 7685SOL    HW330507   5.595   2.052   2.482  0.3788 -0.9541  0.1641
 7685SOL    MW430508   5.547   2.020   2.417  0.2327 -0.2640  1.2242
 7686SOL     OW30509   1.368   2.894   0.037 -0.1788  0.2643 -0.0886
 7686SOL    HW230510   1.458   2.906   0.007 -0.0460  0.8110  0.4915
 7686SOL    HW330511   1.314   2.917  -0.039  0.1723  0.1133 -0.3821
 7686SOL    MW430512   1.373   2.899   0.023 -0.4748  0.0628 -0.1274
 7687SOL     OW30513   2.845   3.322   1.985 -0.6866  0.6160 -0.1949
 7687SOL    HW230514   2.858   3.399   2.040  0.5841  1.0668 -1.0734
 7687SOL    HW330515   2.934   3.291   1.967 -0.8298  1.8521 -3.8832
 7687SOL    MW430516   2.859   3.328   1.990  0.3144 -0.4227  0.0979
 7688SOL     OW30517   4.363   3.862   1.638  0.6385 -0.0076  0.3374
 7688SOL    HW230518   4.409   3.910   1.569 -0.1694  1.1473  0.5604
 7688SOL    HW330519   4.275   3.900   1.639 -0.3428 -2.1181 -0.0437
 7688SOL    MW430520   4.357   3.874   1.629 -0.3920  0.2189  0.5612
 7689SOL     OW30521   0.909   5.415   2.684 -1.0780  0.8500  0.0007
 7689SOL    HW230522   0.833   5.393   2.738 -1.1301 -0.0362 -0.4183
 7689SOL    HW330523   0.983   5.411   2.745 -0.8954 -1.8738 -0.2881
 7689SOL    MW430524   0.909   5.412   2.699  0.1866  0.4625 -0.0229
 7690SOL     OW30525   0.586   3.539   0.259 -0.3043  0.5357 -0.2009
 7690SOL    HW230526   0.568   3.578   0.345 -0.4827  0.9764 -0.4367
 7690SOL    HW330527   0.500   3.532   0.217 -0.3762 -0.7663  0.1021
 7690SOL    MW430528   0.572   3.543   0.265 -0.2632  0.3414 -0.0341
 7691SOL     OW30529   1.731   0.741   5.576 -0.0405  0.5390 -0.1481
 7691SOL    HW230530   1.784   0.803   5.625  1.7027  1.4105 -2.9381
 7691SOL    HW330531   1.758   0.655   5.609  1.6505  1.0534 -0.1339
 7691SOL    MW430532   1.741   0.737   5.587  0.5587 -0.3698  0.1599
 7692SOL     OW30533   5.754   2.752   3.262  0.2419 -0.2256 -0.3170
 7692SOL    HW230534   5.820   2.691   3.294  0.8416  1.5672  2.2267
 7692SOL    HW330535   5.803   2.829   3.236 -0.7191  1.0045  1.2930
 7692SOL    MW430536   5.769   2.754   3.263  0.7729 -0.4110  0.4937
 7693SOL     OW30537   0.949   3.665   5.217  0.2730 -0.4675 -0.4030
 7693SOL    HW230538   1.010   3.617   5.161 -0.0786 -0.6455 -0.6455
 7693SOL    HW330539   0.879   3.602   5.235  1.3358 -1.0913  1.9049
 7693SOL    MW430540   0.948   3.650   5.212 -0.2088 -0.5785  0.1392
 7694SOL     OW30541   0.965   4.909   4.252 -0.4206  0.1931  0.4737
 7694SOL    HW230542   1.017   4.829   4.239  0.8006  0.8486  1.1507
 7694SOL    HW330543   0.963   4.920   4.347 -0.8437  0.8147  0.3969
 7694SOL    MW430544   0.972   4.900   4.263 -0.1765  0.3680 -0.5759
 7695SOL     OW30545   0.483   2.313   4.056 -0.2698  0.1139 -0.1535
 7695SOL    HW230546   0.554   2.348   4.002  1.5969 -0.3464  1.8851
 7695SOL    HW330547   0.523   2.241   4.105 -1.9067  0.4027  1.7062
 7695SOL    MW430548   0.498   2.308   4.055  0.4293 -0.2005 -0.5214
 7696SOL     OW30549   1.768   6.370   5.596 -0.1784  0.4669  0.9999
 7696SOL    HW230550   1.834   6.417   5.545  1.4868  0.0201  2.6059
 7696SOL    HW330551   1.742   6.297   5.540  0.6042  0.7255  0.2643
 7696SOL    MW430552   1.774   6.367   5.582  0.0141 -0.6417 -0.7267
 7697SOL     OW30553   2.051   1.415   2.468  1.3021  0.0496  0.2862
 7697SOL    HW230554   2.041   1.339   2.525  1.1991  1.6661  2.6016
 7697SOL    HW330555   2.116   1.470   2.514  0.4084  1.9272 -0.5908
 7697SOL    MW430556   2.058   1.412   2.482 -0.6912 -0.2126 -0.0244
 7698SOL     OW30557   4.208   2.772   5.285  0.2649 -0.0841 -0.3655
 7698SOL    HW230558   4.265   2.767   5.208 -1.0197 -0.7682 -1.3114
 7698SOL    HW330559   4.134   2.826   5.256 -1.1519 -1.8753 -0.2594
 7698SOL    MW430560   4.206   2.779   5.271  0.6336  0.1060 -0.6508
 7699SOL     OW30561   3.694   3.040   5.404 -0.8903 -0.1698  0.4253
 7699SOL    HW230562   3.662   3.106   5.342 -0.9979 -1.0442 -0.4702
 7699SOL    HW330563   3.642   3.055   5.483  0.9372  2.5938  1.2473
 7699SOL    MW430564   3.683   3.051   5.406  0.0059  0.0103 -0.2234
 7700SOL     OW30565   2.670   2.681   2.220 -0.2576  0.2110  0.0664
 7700SOL    HW230566   2.640   2.760   2.174 -1.6933 -0.8852 -0.9826
 7700SOL    HW330567   2.626   2.684   2.305 -0.6413  0.3530 -0.1325
 7700SOL    MW430568   2.660   2.692   2.225 -0.0997  0.5153  0.6140
 7701SOL     OW30569   1.118   3.295   3.677 -0.6368 -0.0177  0.2031
 7701SOL    HW230570   1.093   3.387   3.676 -0.7109 -0.0373 -0.2924
 7701SOL    HW330571   1.188   3.289   3.611 -0.5331 -0.2897  0.3350
 7701SOL    MW430572   1.124   3.306   3.668  0.0257  0.2491  0.0712
 7702SOL     OW30573   5.330   4.186   5.918 -0.3301 -0.1830 -0.0670
 7702SOL    HW230574   5.395   4.120   5.893 -0.7922 -1.2861  1.5458
 7702SOL    HW330575   5.382   4.258   5.954  0.1112 -0.0465 -0.9284
 7702SOL    MW430576   5.346   4.186   5.919  0.1868 -0.5743 -0.0725
 7703SOL     OW30577   0.096   2.322   4.725 -0.0663  0.1272  0.6237
 7703SOL    HW230578   0.160   2.258   4.755 -0.2205 -1.3429 -1.8956
 7703SOL    HW330579   0.148   2.393   4.689  0.1529 -0.1731  0.3370
 7703SOL    MW430580   0.111   2.323   4.724 -0.0567 -0.4246 -0.3476
 7704SOL     OW30581   3.312   5.205   5.236  0.0117 -0.1075  0.7382
 7704SOL    HW230582   3.230   5.165   5.264  1.2006 -2.9431  0.5563
 7704SOL    HW330583   3.324   5.176   5.146  0.9374  0.7648  0.5556
 7704SOL    MW430584   3.303   5.196   5.228  0.0948  0.5188  0.7341
 7705SOL     OW30585   5.296   2.113   3.767  0.2957  0.6253 -0.2744
 7705SOL    HW230586   5.339   2.176   3.826 -1.1954  2.0641 -0.6551
 7705SOL    HW330587   5.284   2.162   3.685 -2.1304  0.3473 -0.1488
 7705SOL    MW430588   5.300   2.128   3.764 -0.0203 -0.3045  0.7185
 7706SOL     OW30589   2.632   5.329   6.020 -0.3726  0.6773 -0.0813
 7706SOL    HW230590   2.669   5.415   6.043  2.0160  0.3282 -2.1531
 7706SOL    HW330591   2.660   5.272   6.092  3.4037  0.4644 -1.4607
 7706SOL    MW430592   2.641   5.333   6.033 -0.6973 -0.0944 -0.7693
 7707SOL     OW30593   6.007   2.752   1.913  0.3249 -0.3343 -0.5909
 7707SOL    HW230594   6.021   2.824   1.975 -0.5188 -1.3986  0.9147
 7707SOL    HW330595   6.088   2.701   1.917  0.1624 -0.5646 -0.1026
 7707SOL    MW430596   6.019   2.755   1.922 -0.3831 -0.3417 -0.8324
 7708SOL     OW30597   6.311   3.660   5.670  0.6757  0.2511  0.1377
 7708SOL    HW230598   6.401   3.679   5.696  0.6818 -0.3322  0.5537
 7708SOL    HW330599   6.257   3.699   5.739  0.6402 -0.1169  0.3173
 7708SOL    MW430600   6.316   3.668   5.682 -0.3142  0.1575 -0.2764
 7709SOL     OW30601   2.695   4.291   5.022  0.0054 -0.3726 -0.2403
 7709SOL    HW230602   2.753   4.362   5.051  1.6685 -2.0140  0.6393
 7709SOL    HW330603   2.709   4.221   5.085 -0.5582 -2.0110 -1.8448
 7709SOL    MW430604   2.704   4.291   5.034  0.1829  0.0634  0.5569
 7710SOL     OW30605   3.901   5.085   0.124 -0.2134 -0.2298 -0.0422
 7710SOL    HW230606   3.996   5.091   0.139 -0.3761 -0.0343  1.0040
 7710SOL    HW330607   3.885   4.993   0.104 -0.0348 -0.6509  1.6367
 7710SOL    MW430608   3.912   5.074   0.123  0.7146 -0.6898 -0.5012
 7711SOL     OW30609   0.897   3.936   2.428  0.3246  0.2249 -0.3154
 7711SOL    HW230610   0.946   3.937   2.510  0.6216 -1.7756 -0.4329
 7711SOL    HW330611   0.832   3.867   2.439  1.5204 -1.3381 -2.3794
 7711SOL    MW430612   0.895   3.927   2.440 -0.1309 -0.0356 -0.3099
 7712SOL     OW30613   1.115   2.746   6.321  0.5992 -0.1218 -0.4112
 7712SOL    HW230614   1.064   2.819   6.286  0.4025  0.0680  0.2547
 7712SOL    HW330615   1.062   2.714   6.394  1.0127 -0.4976 -0.2772
 7712SOL    MW430616   1.101   2.751   6.326  1.0336 -0.8643  0.3480
 7713SOL     OW30617   2.131   5.052   1.676  0.4000  0.0499 -0.4216
 7713SOL    HW230618   2.073   5.052   1.753  1.6327  1.4252  0.5629
 7713SOL    HW330619   2.106   5.131   1.628  1.3580  0.6132 -0.0292
 7713SOL    MW430620   2.120   5.063   1.680  0.0635  0.5172  0.6424
 7714SOL     OW30621   0.214   1.047   5.819  0.0497 -0.5850 -0.1169
 7714SOL    HW230622   0.195   1.074   5.909 -2.0779 -0.9069 -0.4265
 7714SOL    HW330623   0.290   0.989   5.827 -0.0809 -0.5776  1.4586
 7714SOL    MW430624   0.222   1.043   5.832 -0.1979 -0.0349  0.4167
 7715SOL     OW30625   0.361   2.598   2.126  0.3619  0.2479 -0.3659
 7715SOL    HW230626   0.328   2.548   2.201  2.5608 -1.0771 -0.2268
 7715SOL    HW330627   0.388   2.682   2.164  0.9021 -0.1870  0.2352
 7715SOL    MW430628   0.360   2.603   2.141 -0.8940 -0.1698  0.4140
 7716SOL     OW30629   0.374   3.043   0.536  0.2494  0.1367  0.2896
 7716SOL    HW230630   0.456   3.077   0.573 -0.2906  0.2942  1.3749
 7716SOL    HW330631   0.309   3.111   0.555 -0.0878  0.1685 -0.8629
 7716SOL    MW430632   0.376   3.057   0.543 -0.2118 -0.5397 -0.4361
 7717SOL     OW30633   4.995   2.223   2.173 -0.5156  0.3260  0.0158
 7717SOL    HW230634   4.904   2.239   2.147 -0.5882 -0.3798 -0.2019
 7717SOL    HW330635   5.027   2.308   2.202 -0.5683  1.0795 -1.9711
 7717SOL    MW430636   4.987   2.236   2.174  0.1875  0.4529 -0.0303
 7718SOL     OW30637   3.759   4.945   5.958  0.2493  0.0185  0.1535
 7718SOL    HW230638   3.697   4.908   5.895 -2.4911  3.3837  0.5479
 7718SOL    HW330639   3.807   5.012   5.909  2.1771 -1.1171  0.3871
 7718SOL    MW430640   3.757   4.949   5.944 -0.1516  0.0547 -0.0154
 7719SOL     OW30641   5.286   4.938   1.364  0.1126 -0.3459  0.1909
 7719SOL    HW230642   5.254   5.027   1.376 -1.5306 -0.7603 -0.8337
 7719SOL    HW330643   5.227   4.899   1.300  2.2145 -1.4613 -1.1787
 7719SOL    MW430644   5.274   4.944   1.357  0.1198  0.0652 -0.1992
 7720SOL     OW30645   1.917   5.474   5.703 -0.0689 -0.6384 -0.2213
 7720SOL    HW230646   1.839   5.456   5.650 -0.4276 -1.5151  0.5925
 7720SOL    HW330647   1.980   5.510   5.640 -1.0806 -0.0213 -0.9112
 7720SOL    MW430648   1.915   5.477   5.687  0.2656 -0.2551 -0.3957
 7721SOL     OW30649   0.100   1.915   5.572 -0.5112  0.3087  0.1292
 7721SOL    HW230650   0.040   1.894   5.501  1.8699 -4.1822 -0.9488
 7721SOL    HW330651   0.176   1.955   5.529  0.3409 -1.0866  0.2786
 7721SOL    MW430652   0.102   1.918   5.557 -0.8981 -0.5863 -0.0062
 7722SOL     OW30653   0.905   3.855   3.264 -0.5302  0.0739  0.2770
 7722SOL    HW230654   0.965   3.819   3.330  0.0720  0.6683  0.0613
 7722SOL    HW330655   0.959   3.916   3.213 -1.2225  0.3181 -0.1730
 7722SOL    MW430656   0.920   3.858   3.266 -0.4629 -0.6565 -0.8054
 7723SOL     OW30657   1.795   0.841   3.192 -0.7076  0.7413 -0.0886
 7723SOL    HW230658   1.738   0.769   3.163 -0.0356  0.4682 -0.7874
 7723SOL    HW330659   1.844   0.865   3.113 -1.5621  2.5825 -0.0933
 7723SOL    MW430660   1.794   0.834   3.177  0.0011  0.1545  0.1157
 7724SOL     OW30661   1.107   1.578   2.002 -0.9251 -0.1629 -0.5374
 7724SOL    HW230662   1.022   1.576   2.045 -0.5807 -0.7376  0.1324
 7724SOL    HW330663   1.161   1.634   2.058 -0.7489 -0.1191 -0.7485
 7724SOL    MW430664   1.103   1.585   2.015  0.0229  0.5374 -0.1373
 7725SOL     OW30665   4.686   0.783   3.455 -0.5110  0.4774  0.6039
 7725SOL    HW230666   4.612   0.843   3.460 -0.7181  0.5366 -1.8452
 7725SOL    HW330667   4.651   0.705   3.411  0.8698  0.6052 -0.8312
 7725SOL    MW430668   4.672   0.781   3.449 -0.0968  0.2809  0.2287
 7726SOL     OW30669   0.104   0.515   4.694  0.1380 -0.3358 -0.0008
 7726SOL    HW230670   0.185   0.566   4.696 -0.5339  0.7690 -0.2685
 7726SOL    HW330671   0.132   0.425   4.711  1.4081  0.0385 -0.0240
 7726SOL    MW430672   0.118   0.510   4.697  0.2718 -0.0686  0.1494
 7727SOL     OW30673   0.808   4.177   4.032 -0.2938 -0.3601  0.5538
 7727SOL    HW230674   0.878   4.162   4.096 -0.1253  3.7779  1.6245
 7727SOL    HW330675   0.855   4.193   3.950 -0.2548 -1.4282  0.3581
 7727SOL    MW430676   0.824   4.177   4.030  0.1335 -0.0449  0.2725
 7728SOL     OW30677   1.757   3.912   4.833  0.3883  0.3725 -0.2011
 7728SOL    HW230678   1.740   3.963   4.754  0.2284 -0.7008 -0.8882
 7728SOL    HW330679   1.797   3.974   4.894 -0.0206  1.3615 -0.9143
 7728SOL    MW430680   1.760   3.926   4.830 -0.9982  0.2996 -0.2261
 7729SOL     OW30681   5.753   4.599   4.675 -0.2741  0.1401 -0.0537
 7729SOL    HW230682   5.701   4.677   4.656 -0.9374 -0.2373  0.1882
 7729SOL    HW330683   5.774   4.563   4.589  0.5693  0.9270 -0.1876
 7729SOL    MW430684   5.749   4.605   4.661 -0.5404 -0.1057  0.4721
 7730SOL     OW30685   2.394   0.941   5.140 -0.7138 -0.2827  0.1388
 7730SOL    HW230686   2.335   0.979   5.205 -0.4451 -1.8042  1.3484
 7730SOL    HW330687   2.481   0.948   5.180 -0.2763  0.4651 -0.9100
 7730SOL    MW430688   2.398   0.947   5.154 -0.4242 -0.0762  1.1470
 7731SOL     OW30689   4.688   1.963   5.355 -0.0034 -0.9097 -0.2277
 7731SOL    HW230690   4.665   1.936   5.266 -0.6646 -1.4554  0.0951
 7731SOL    HW330691   4.782   1.982   5.351 -0.3242  0.6287 -1.4076
 7731SOL    MW430692   4.698   1.962   5.343  0.8625 -0.4804 -0.5528
 7732SOL     OW30693   5.166   4.137   3.662 -0.1873 -0.0570 -0.5714
 7732SOL    HW230694   5.173   4.126   3.756  1.0536  0.9338 -0.5145
 7732SOL    HW330695   5.254   4.162   3.634 -0.4426 -0.6831 -2.0464
 7732SOL    MW430696   5.179   4.139   3.671 -0.2607  0.0852 -0.1639
 7733SOL     OW30697   3.502   5.770   4.127 -0.1923 -0.5556 -0.8116
 7733SOL    HW230698   3.464   5.730   4.048  0.4105  0.0753 -1.4427
 7733SOL    HW330699   3.542   5.697   4.174 -1.0818 -1.0304 -0.7803
 7733SOL    MW430700   3.502   5.755   4.123  0.1876 -0.1706  0.0864
 7734SOL     OW30701   4.674   1.822   4.866 -0.2465 -0.0811  0.6634
 7734SOL    HW230702   4.586   1.785   4.859 -0.1910 -0.2611  0.8875
 7734SOL    HW330703   4.731   1.746   4.882  0.0576 -0.0564 -0.2492
 7734SOL    MW430704   4.670   1.807   4.868  0.0872 -0.0275  0.1359
 7735SOL     OW30705   0.656   2.953   2.051  0.3137 -0.0170  0.1120
 7735SOL    HW230706   0.595   2.910   2.110 -2.3291  2.2756 -0.7445
 7735SOL    HW330707   0.741   2.945   2.094 -0.6133 -2.8132  1.6671
 7735SOL    MW430708   0.659   2.946   2.065  0.3218 -0.3976  0.0578
 7736SOL     OW30709   2.201   1.186   2.850 -0.0990  0.2983 -0.6548
 7736SOL    HW230710   2.240   1.268   2.880 -0.8800  0.6372 -0.5205
 7736SOL    HW330711   2.272   1.123   2.851  0.3650  0.8240 -0.1337
 7736SOL    MW430712   2.215   1.189   2.854  0.8645  0.2679 -0.3503
 7737SOL     OW30713   2.541   4.091   2.939 -0.1418 -0.1552 -0.1613
 7737SOL    HW230714   2.571   4.151   2.871 -0.5097  2.6046  1.8936
 7737SOL    HW330715   2.446   4.102   2.941 -0.2430 -0.9879  0.1329
 7737SOL    MW430716   2.532   4.101   2.931  0.0869  0.0385  0.0043
 7738SOL     OW30717   4.142   4.681   0.655  0.4786  0.3086  0.1546
 7738SOL    HW230718   4.180   4.733   0.725  0.0976  2.2672 -1.0313
 7738SOL    HW330719   4.048   4.695   0.662  0.3821 -0.0853 -0.2958
 7738SOL    MW430720   4.135   4.690   0.665  0.0853  0.0925 -0.0493
 7739SOL     OW30721   2.825   0.206   2.392  0.3787 -0.3629 -0.3004
 7739SOL    HW230722   2.877   0.278   2.354  0.8093 -0.6861 -0.3294
 7739SOL    HW330723   2.786   0.244   2.471  1.2211 -0.3114  0.1039
 7739SOL    MW430724   2.827   0.221   2.397  0.1109 -0.1368  0.1222
 7740SOL     OW30725   5.517   3.036   3.036  0.1473 -0.5777 -0.0207
 7740SOL    HW230726   5.423   3.029   3.052  0.3307 -1.3215  0.8372
 7740SOL    HW330727   5.549   3.097   3.102  0.1542  0.3206 -0.8370
 7740SOL    MW430728   5.509   3.043   3.047  0.2475 -0.0035  0.4764
 7741SOL     OW30729   4.876   2.852   4.715 -0.2648  0.3969  0.5190
 7741SOL    HW230730   4.947   2.861   4.651  0.2130  1.8494  1.2095
 7741SOL    HW330731   4.825   2.778   4.683  0.5326  0.4428 -0.9892
 7741SOL    MW430732   4.879   2.844   4.702  0.2339  0.6465  0.1613
 7742SOL     OW30733   4.266   3.063   2.834 -0.0633 -0.3097  0.4384
 7742SOL    HW230734   4.308   3.056   2.920 -1.2180  1.4673  1.2018
 7742SOL    HW330735   4.174   3.076   2.853 -0.1826  1.3473 -1.0007
 7742SOL    MW430736   4.260   3.064   2.848  0.4227  0.0046 -0.6674
 7743SOL     OW30737   1.273   1.308   4.037  0.4061 -0.3591 -0.4817
 7743SOL    HW230738   1.235   1.378   3.983  3.9599  1.5706 -0.8178
 7743SOL    HW330739   1.199   1.273   4.086 -2.1790  1.1300 -3.0053
 7743SOL    MW430740   1.258   1.313   4.036 -0.1128  0.2536  0.1511
 7744SOL     OW30741   3.713   3.259   2.542 -0.0325 -0.3656 -0.3118
 7744SOL    HW230742   3.654   3.329   2.570 -1.1113 -1.1540 -0.5705
 7744SOL    HW330743   3.797   3.282   2.583 -0.1312  1.5030 -1.0331
 7744SOL    MW430744   3.716   3.271   2.551  0.2846  0.0974  0.2793
 7745SOL     OW30745   3.605   1.198   2.762  0.0920 -0.2808 -0.2501
 7745SOL    HW230746   3.554   1.154   2.694 -0.8357 -2.4520  1.7074
 7745SOL    HW330747   3.680   1.141   2.777 -0.9621 -1.1912  2.1195
 7745SOL    MW430748   3.608   1.185   2.755 -0.4912  0.5814  0.3561
 7746SOL     OW30749   0.805   2.533   1.556  0.0995 -0.1882 -0.4043
 7746SOL    HW230750   0.871   2.508   1.621 -1.1032 -1.1087  0.5199
 7746SOL    HW330751   0.849   2.523   1.472  0.1110 -4.6946 -0.0991
 7746SOL    MW430752   0.819   2.528   1.554 -0.1851  0.4504  0.2322
 7747SOL     OW30753   5.344   4.800   5.416 -0.2135  0.0234  1.0429
 7747SOL    HW230754   5.428   4.812   5.462  1.4122  0.3430 -1.7520
 7747SOL    HW330755   5.345   4.867   5.348 -0.6182 -2.7235 -1.9036
 7747SOL    MW430756   5.355   4.811   5.413 -0.1844  0.5564 -0.3989
 7748SOL     OW30757   3.564   0.314   4.887  0.0974 -0.2000 -0.3953
 7748SOL    HW230758   3.650   0.322   4.929 -0.2176 -2.8663  1.0351
 7748SOL    HW330759   3.551   0.219   4.878 -3.4023 -0.0093  1.0679
 7748SOL    MW430760   3.574   0.302   4.891  0.4363  0.2141  0.1562
 7749SOL     OW30761   6.240   1.686   2.308 -0.0714 -0.0262 -0.1744
 7749SOL    HW230762   6.235   1.699   2.214 -1.8822  2.9487  0.1971
 7749SOL    HW330763   6.334   1.674   2.326  0.2937 -0.7855 -2.3043
 7749SOL    MW430764   6.252   1.686   2.298  0.1723 -0.0548 -0.6263
 7750SOL     OW30765   2.785   0.161   4.806 -0.1559 -0.5002 -0.7622
 7750SOL    HW230766   2.828   0.244   4.826 -1.0323  0.1993 -1.7165
 7750SOL    HW330767   2.844   0.117   4.745  1.4440 -1.6628  1.4443
 7750SOL    MW430768   2.799   0.166   4.801 -0.5583  0.1778 -0.7296
 7751SOL     OW30769   5.401   3.014   0.924  0.1162  0.4702  1.0514
 7751SOL    HW230770   5.364   2.974   1.002 -0.4989  0.4185  0.7397
 7751SOL    HW330771   5.354   3.096   0.914  0.0547  0.3874  0.6316
 7751SOL    MW430772   5.390   3.019   0.933 -0.7426  0.2925  0.3510
 7752SOL     OW30773   4.877   2.613   3.477 -0.6713 -0.6260 -0.8494
 7752SOL    HW230774   4.969   2.620   3.450  0.3840 -2.7916  1.7012
 7752SOL    HW330775   4.843   2.540   3.426  0.0227 -1.8890  0.4389
 7752SOL    MW430776   4.885   2.605   3.467  0.1441 -0.3346  0.0015
 7753SOL     OW30777   1.236   4.069   3.609 -0.6261 -0.0890 -0.2562
 7753SOL    HW230778   1.189   4.121   3.674  1.2720  0.5708  0.6757
 7753SOL    HW330779   1.195   4.091   3.525 -1.0732  1.5039  0.3513
 7753SOL    MW430780   1.225   4.079   3.606 -0.2456  0.1594 -0.5084
 7754SOL     OW30781   2.006   0.445   0.242  0.2168 -0.2990  0.2723
 7754SOL    HW230782   2.013   0.514   0.308 -1.6919 -0.5789  0.8399
 7754SOL    HW330783   1.973   0.490   0.164 -1.2702 -0.5512  0.7168
 7754SOL    MW430784   2.003   0.460   0.240 -0.2603  0.2453  0.1705
 7755SOL     OW30785   2.590   0.128   2.931 -0.1011 -0.6481 -0.4921
 7755SOL    HW230786   2.494   0.121   2.927 -0.0203 -1.3126 -1.7395
 7755SOL    HW330787   2.607   0.223   2.931 -0.7398 -0.5115 -1.5019
 7755SOL    MW430788   2.579   0.140   2.930 -0.3098  0.0103  0.2579
 7756SOL     OW30789   5.089   0.424   3.047  0.1919  0.3251  0.1151
 7756SOL    HW230790   5.046   0.459   3.125  2.3746 -0.3552  1.7154
 7756SOL    HW330791   5.053   0.336   3.036 -0.8129  0.7700 -0.2417
 7756SOL    MW430792   5.079   0.417   3.056  0.1186  0.8465 -0.1924
 7757SOL     OW30793   6.247   2.079   0.020  0.4683 -0.9110  0.1553
 7757SOL    HW230794   6.291   2.020   0.082  0.1529  0.9465  2.2697
 7757SOL    HW330795   6.318   2.130  -0.019  0.5235 -0.6907  0.5356
 7757SOL    MW430796   6.262   2.078   0.023 -0.0292  0.0941 -0.1287
 7758SOL     OW30797   2.897   1.722   5.113 -0.2745 -0.3215 -0.7657
 7758SOL    HW230798   2.833   1.780   5.156  0.8153 -0.5951  1.3633
 7758SOL    HW330799   2.942   1.779   5.051 -1.4283  0.2875 -1.0913
 7758SOL    MW430800   2.894   1.737   5.110  0.4017 -0.3969 -0.0079
 7759SOL     OW30801   3.406   4.660   0.248  0.8333  0.1459  0.0660
 7759SOL    HW230802   3.490   4.690   0.283 -0.2294  2.1107  1.0580
 7759SOL    HW330803   3.429   4.615   0.167  2.7684  1.5405 -0.2239
 7759SOL    MW430804   3.420   4.658   0.242  0.0459  0.2680 -0.0514
 7760SOL     OW30805   0.928   3.079   3.583  0.3811 -0.1982  0.2821
 7760SOL    HW230806   0.858   3.071   3.648  0.7141  2.1440  1.0631
 7760SOL    HW330807   0.986   3.147   3.620  1.3976  0.1163 -1.7599
 7760SOL    MW430808   0.926   3.087   3.596  0.4246  0.1145  0.5159
 7761SOL     OW30809   0.798   0.869   3.985 -0.3845 -0.2450 -0.0444
 7761SOL    HW230810   0.825   0.784   3.952  0.2733  0.2685 -0.8900
 7761SOL    HW330811   0.870   0.928   3.960 -1.6308  0.9066 -1.0932
 7761SOL    MW430812   0.811   0.866   3.977  0.0615 -0.1627  0.5864
 7762SOL     OW30813   3.903   1.627   6.010  0.4148 -0.0420 -0.3760
 7762SOL    HW230814   3.808   1.624   6.017  0.4700  0.3244  0.7180
 7762SOL    HW330815   3.929   1.536   5.994 -0.0762 -0.2502 -0.0142
 7762SOL    MW430816   3.894   1.614   6.009  0.2624  0.4605 -0.3131
 7763SOL     OW30817   5.203   0.959   0.483 -0.4920 -0.7423 -0.3270
 7763SOL    HW230818   5.195   0.963   0.388 -0.1446 -0.1183 -0.3324
 7763SOL    HW330819   5.264   0.887   0.499 -2.8042 -2.8813 -0.4412
 7763SOL    MW430820   5.210   0.950   0.473  0.4438  0.5954 -0.4538
 7764SOL     OW30821   2.733   2.760   0.737  0.0457 -0.4051  0.5214
 7764SOL    HW230822   2.801   2.697   0.761  0.7818  0.8908  2.1029
 7764SOL    HW330823   2.698   2.790   0.821 -0.5853  0.9226 -0.1872
 7764SOL    MW430824   2.738   2.756   0.752  0.3479  0.2429  0.2746
 7765SOL     OW30825   1.402   2.203   3.890  0.4027  0.1396 -0.1643
 7765SOL    HW230826   1.360   2.222   3.974 -1.0213 -0.2174 -0.7652
 7765SOL    HW330827   1.347   2.136   3.850  1.6756 -0.5080 -0.9234
 7765SOL    MW430828   1.389   2.196   3.896 -0.0208  0.1064 -0.5506
 7766SOL     OW30829   3.214   0.098   1.380 -0.0471  0.1581 -0.1326
 7766SOL    HW230830   3.297   0.141   1.359 -0.2821  1.0771  0.7717
 7766SOL    HW330831   3.240   0.017   1.425  0.3471  0.6977  0.6184
 7766SOL    MW430832   3.228   0.093   1.383  0.3761  0.3238 -0.1778
 7767SOL     OW30833   2.213   4.705   3.884  0.0602 -0.0190  0.5443
 7767SOL    HW230834   2.170   4.688   3.967 -1.6308  0.6343 -0.1513
 7767SOL    HW330835   2.188   4.631   3.829  0.7713 -0.2025  0.4538
 7767SOL    MW430836   2.204   4.693   3.887  0.1273 -0.0626  0.0871
 7768SOL     OW30837   1.054   5.448   1.357 -0.3452 -0.0676 -0.0845
 7768SOL    HW230838   1.103   5.435   1.439 -1.3436 -1.7185  0.2891
 7768SOL    HW330839   0.981   5.386   1.362 -0.8598  0.3278 -1.9108
 7768SOL    MW430840   1.051   5.438   1.369 -0.1868  0.2894 -0.1007
 7769SOL     OW30841   3.326   4.629   5.452  0.0097 -0.4607 -0.0393
 7769SOL    HW230842   3.288   4.714   5.430  1.1224  0.1903  0.4447
 7769SOL    HW330843   3.348   4.589   5.368 -3.7883 -1.9065 -0.5057
 7769SOL    MW430844   3.324   4.635   5.438 -0.3619  0.6084 -0.5320
 7770SOL     OW30845   2.157   5.603   5.920 -0.0757 -0.4292  0.4929
 7770SOL    HW230846   2.113   5.519   5.924  0.1588 -0.5259  1.4187
 7770SOL    HW330847   2.247   5.583   5.895  0.1071 -0.5111  1.2031
 7770SOL    MW430848   2.163   5.590   5.917 -0.2560  0.0401  0.5523
 7771SOL     OW30849   5.435   5.831   0.669 -0.3181 -0.3453  0.0762
 7771SOL    HW230850   5.416   5.745   0.632  0.5953 -0.9750  1.0007
 7771SOL    HW330851   5.477   5.880   0.598  3.1638 -2.1553  0.6390
 7771SOL    MW430852   5.438   5.826   0.655  0.1490  0.2359 -0.1123
 7772SOL     OW30853   4.886   4.681   1.729  0.1266  0.2860  0.3003
 7772SOL    HW230854   4.906   4.720   1.814 -2.9843  1.3676  0.6572
 7772SOL    HW330855   4.840   4.600   1.750  1.1545 -0.5167 -0.4231
 7772SOL    MW430856   4.883   4.675   1.743 -0.5789  0.1977  0.1137
 7773SOL     OW30857   0.291   0.616   0.133  0.1222  0.1454  0.0044
 7773SOL    HW230858   0.271   0.673   0.207  1.5923  1.2956 -0.4380
 7773SOL    HW330859   0.314   0.532   0.174  0.1044  0.5177  0.8023
 7773SOL    MW430860   0.291   0.612   0.148 -0.2293 -0.1610  0.1856
 7774SOL     OW30861   3.884   4.284   3.881  0.4422 -0.4597  0.1588
 7774SOL    HW230862   3.830   4.213   3.917 -2.5585  2.2854  1.5974
 7774SOL    HW330863   3.935   4.316   3.956  0.0709  0.2999  0.0998
 7774SOL    MW430864   3.884   4.279   3.896 -0.0729  0.1621  0.4911
 7775SOL     OW30865   3.466   5.135   3.100  0.2767  0.2477  0.0817
 7775SOL    HW230866   3.465   5.113   3.194 -0.9486 -1.6284 -0.3158
 7775SOL    HW330867   3.529   5.074   3.062  0.3637  0.6380 -0.4011
 7775SOL    MW430868   3.474   5.124   3.108  0.5554 -0.5974 -0.0788
 7776SOL     OW30869   1.207   0.288   4.197  0.4741 -0.1312  0.6316
 7776SOL    HW230870   1.277   0.246   4.147  0.1239 -0.8299  0.7110
 7776SOL    HW330871   1.145   0.217   4.214 -0.8832  0.7251 -0.5357
 7776SOL    MW430872   1.208   0.273   4.193  0.0943 -0.0028 -0.6252
 7777SOL     OW30873   2.288   0.340   2.000 -0.2408 -0.0161 -0.5008
 7777SOL    HW230874   2.354   0.289   1.954  0.7299 -0.0350  0.8610
 7777SOL    HW330875   2.214   0.345   1.938  0.4895 -1.1532 -1.5119
 7777SOL    MW430876   2.287   0.334   1.986  0.3365 -0.2309 -0.4104
 7778SOL     OW30877   4.340   0.819   5.793  0.3194  0.4597  0.1248
 7778SOL    HW230878   4.429   0.790   5.813  0.2584  0.5994  0.5954
 7778SOL    HW330879   4.346   0.915   5.790  0.3337  0.4453 -0.5616
 7778SOL    MW430880   4.353   0.828   5.795 -0.1724  0.4971 -0.4935
 7779SOL     OW30881   4.708   2.179   6.124  0.2101  0.5081  0.3037
 7779SOL    HW230882   4.668   2.132   6.050 -3.0407  1.9841  0.9640
 7779SOL    HW330883   4.724   2.111   6.190  1.3278 -0.5237 -0.9641
 7779SOL    MW430884   4.705   2.164   6.123  0.3602 -0.4317  0.6698
 7780SOL     OW30885   4.419   6.312   2.053  0.4383  0.2355 -0.1887
 7780SOL    HW230886   4.467   6.382   2.098  0.8714  0.1387 -0.4954
 7780SOL    HW330887   4.448   6.232   2.096 -1.8892  0.3942  1.8328
 7780SOL    MW430888   4.429   6.311   2.065  0.0955 -0.1434  0.3445
 7781SOL     OW30889   4.004   0.367   1.164  0.1000  0.4566 -0.1227
 7781SOL    HW230890   3.977   0.451   1.200  1.1346  0.1601  1.4428
 7781SOL    HW330891   4.096   0.359   1.188  1.0190  0.3787 -3.2222
 7781SOL    MW430892   4.013   0.377   1.172 -0.0856  0.6699 -0.4806
 7782SOL     OW30893   2.873   5.382   3.751 -0.4810 -0.8476 -0.0140
 7782SOL    HW230894   2.907   5.468   3.725 -1.8470 -0.5221 -0.8106
 7782SOL    HW330895   2.897   5.374   3.843  1.6394 -0.6110 -0.4883
 7782SOL    MW430896   2.881   5.392   3.759 -0.5337 -0.5843  0.2514
 7783SOL     OW30897   1.537   0.201   4.814 -0.1678  0.6559  0.9917
 7783SOL    HW230898   1.609   0.257   4.785  0.7933 -0.8687  0.3049
 7783SOL    HW330899   1.459   0.257   4.809  0.5326  1.5326 -1.0195
 7783SOL    MW430900   1.536   0.216   4.809  0.1898 -0.4645 -0.0948
 7784SOL     OW30901   4.547   4.763   2.413  0.3795 -0.1516  0.5840
 7784SOL    HW230902   4.568   4.705   2.340 -0.5981  0.4473 -0.2003
 7784SOL    HW330903   4.471   4.722   2.455  0.2179  0.1100  0.5495
 7784SOL    MW430904   4.540   4.750   2.409 -0.6186 -0.2195  0.5512
 7785SOL     OW30905   5.772   0.651   3.024  0.3083  0.1029  0.0820
 7785SOL    HW230906   5.837   0.665   2.954  0.8587 -1.4383  0.2447
 7785SOL    HW330907   5.807   0.700   3.099  0.6164  0.3384 -0.2110
 7785SOL    MW430908   5.785   0.659   3.024 -0.2054  0.0991  0.5090
 7786SOL     OW30909   0.267   1.064   4.840 -0.6247  0.6214 -0.1801
 7786SOL    HW230910   0.296   0.979   4.872 -3.0398  0.4281  1.8544
 7786SOL    HW330911   0.197   1.043   4.778 -2.2404  1.0342  1.4121
 7786SOL    MW430912   0.261   1.050   4.836  0.0320  0.2831  0.0529
 7787SOL     OW30913   0.604   4.598   3.018  0.0387 -0.5030 -0.4562
 7787SOL    HW230914   0.576   4.507   3.009 -1.0106 -0.0165 -2.6588
 7787SOL    HW330915   0.563   4.626   3.100 -1.0466 -1.5231 -0.6147
 7787SOL    MW430916   0.595   4.589   3.028  0.4196 -0.2503 -0.1976
 7788SOL     OW30917   4.811   0.805   6.425  0.2761  0.2127  0.2829
 7788SOL    HW230918   4.731   0.762   6.456  0.6648  0.4110  1.5986
 7788SOL    HW330919   4.872   0.800   6.499  1.8909 -0.9123 -1.0606
 7788SOL    MW430920   4.808   0.799   6.439 -0.7121  0.5591  0.4503
 7789SOL     OW30921   3.533   3.804   0.833 -0.2861 -0.4228  0.5744
 7789SOL    HW230922   3.571   3.834   0.916 -0.5605 -2.0669  1.3283
 7789SOL    HW330923   3.494   3.883   0.796  0.4574  0.5019  1.6597
 7789SOL    MW430924   3.533   3.819   0.839  0.0641  0.4682 -0.0872
 7790SOL     OW30925   1.177   2.737   1.544  0.3112 -0.3152  0.5983
 7790SOL    HW230926   1.137   2.661   1.585  0.4786  0.0339  1.4418
 7790SOL    HW330927   1.113   2.767   1.480  0.1821 -1.0724  0.3658
 7790SOL    MW430928   1.164   2.731   1.541 -0.4947 -0.0561  0.0376
 7791SOL     OW30929   4.313   3.473   0.049 -0.4839  0.2474 -0.0486
 7791SOL    HW230930   4.350   3.421   0.121 -0.1422 -2.1554 -1.8375
 7791SOL    HW330931   4.228   3.502   0.082  0.9440  2.0019  2.4729
 7791SOL    MW430932   4.307   3.470   0.063  0.3365  0.2348  0.4156
 7792SOL     OW30933   0.147   1.863   3.327  0.0978 -0.1765  0.3479
 7792SOL    HW230934   0.066   1.851   3.277  1.7969  0.8363 -2.9737
 7792SOL    HW330935   0.154   1.957   3.340  1.0556 -0.1798 -0.0508
 7792SOL    MW430936   0.137   1.874   3.322 -0.2786  0.3392 -0.3685
 7793SOL     OW30937   3.236   0.362   1.937 -0.4033 -0.5272  0.2222
 7793SOL    HW230938   3.220   0.424   2.009  3.2627  0.7014  0.1620
 7793SOL    HW330939   3.182   0.286   1.958 -1.1217  0.6541  3.0931
 7793SOL    MW430940   3.226   0.360   1.949 -0.7805  0.0398  0.4065
 7794SOL     OW30941   1.995   0.246   1.086 -0.5888  0.6486 -0.6420
 7794SOL    HW230942   1.975   0.165   1.133  0.9563  0.5753 -0.0609
 7794SOL    HW330943   2.084   0.234   1.055 -0.3447  2.1252 -0.5755
 7794SOL    MW430944   2.004   0.234   1.088  0.5078 -0.0814  0.6457
 7795SOL     OW30945   0.604   2.043   0.038 -0.2427 -0.0544 -0.1000
 7795SOL    HW230946   0.672   2.109   0.056  0.0576 -0.3808 -0.0410
 7795SOL    HW330947   0.531   2.069   0.095 -0.1322  0.2381 -0.0864
 7795SOL    MW430948   0.604   2.055   0.048 -0.8426 -0.5098 -0.5175
 7796SOL     OW30949   3.796   4.847   0.010 -0.2342  0.3552  0.7063
 7796SOL    HW230950   3.818   4.836  -0.083  1.2686  0.4233  1.0406
 7796SOL    HW330951   3.743   4.770   0.031 -0.6968  0.4045 -0.2344
 7796SOL    MW430952   3.792   4.835   0.000  0.4114  0.2078  0.6018
 7797SOL     OW30953   5.115   1.721   4.987  0.0662  0.1706  0.1806
 7797SOL    HW230954   5.052   1.772   5.039  0.7313 -0.0016  1.1939
 7797SOL    HW330955   5.162   1.787   4.936  0.1458  0.4759  0.6326
 7797SOL    MW430956   5.113   1.736   4.987  0.5461  0.3904 -0.7606
 7798SOL     OW30957   4.973   5.474   0.518  0.4111  0.3733 -0.3871
 7798SOL    HW230958   5.002   5.495   0.429 -0.7968  0.3256 -0.8066
 7798SOL    HW330959   4.895   5.527   0.531  0.7465  0.6049  0.7696
 7798SOL    MW430960   4.966   5.483   0.508 -0.2848  0.2452 -0.3607
 7799SOL     OW30961   2.147   0.986   1.294  0.1781 -0.2065 -0.4616
 7799SOL    HW230962   2.062   0.946   1.315  0.8606 -1.7969 -0.5470
 7799SOL    HW330963   2.181   1.016   1.378 -1.2673  2.2495 -0.6499
 7799SOL    MW430964   2.140   0.984   1.308  0.3472  0.2424 -0.0357
 7800SOL     OW30965   4.900   3.476   0.845 -0.3982  0.0265 -0.1770
 7800SOL    HW230966   4.954   3.413   0.797 -0.3534  0.1321 -0.2651
 7800SOL    HW330967   4.899   3.554   0.790 -0.5841  0.0489 -0.1418
 7800SOL    MW430968   4.907   3.478   0.832 -0.6285 -0.0846 -0.2156
 7801SOL     OW30969   5.205   6.232   6.085 -0.2703 -0.3927 -0.8859
 7801SOL    HW230970   5.188   6.271   6.000 -1.1156 -0.8736 -0.9433
 7801SOL    HW330971   5.149   6.155   6.089 -3.0074  1.4969  1.4828
 7801SOL    MW430972   5.196   6.227   6.075  0.3812 -0.0708 -0.3377
 7802SOL     OW30973   0.481   3.654   0.484  0.0388 -0.0652  0.3773
 7802SOL    HW230974   0.542   3.671   0.556  1.7717  2.1861 -1.4659
 7802SOL    HW330975   0.446   3.740   0.462  0.0240 -0.5762 -1.8392
 7802SOL    MW430976   0.484   3.668   0.491  0.0557 -0.4893 -0.2460
 7803SOL     OW30977   3.967   2.162   0.301  0.4889  0.3934  0.2210
 7803SOL    HW230978   3.918   2.141   0.381 -0.2857  0.1705 -0.3092
 7803SOL    HW330979   3.994   2.254   0.313 -0.9419  0.8484  0.0723
 7803SOL    MW430980   3.964   2.172   0.313 -0.1798 -0.2156 -0.2125
 7804SOL     OW30981   3.644   3.828   5.756  0.2854 -0.1848 -0.3250
 7804SOL    HW230982   3.640   3.860   5.846  0.0862  0.3891 -0.5366
 7804SOL    HW330983   3.681   3.901   5.706  1.0878 -0.7572 -0.5912
 7804SOL    MW430984   3.648   3.842   5.761 -0.2840  0.1608  0.2056
 7805SOL     OW30985   5.689   0.404   3.175 -0.1624  0.2613  0.1946
 7805SOL    HW230986   5.703   0.469   3.106 -1.0623  1.5073  1.1395
 7805SOL    HW330987   5.652   0.328   3.129 -0.9073  1.1193 -0.6691
 7805SOL    MW430988   5.686   0.403   3.160 -0.2795 -0.5651 -0.3064
 7806SOL     OW30989   5.003   4.126   1.858 -0.4420  0.2949 -0.0267
 7806SOL    HW230990   4.986   4.063   1.788  0.5166 -0.1233  0.1120
 7806SOL    HW330991   5.083   4.171   1.831 -0.0452  0.1077  0.8240
 7806SOL    MW430992   5.011   4.124   1.845  0.2555  0.0764  0.5365
 7807SOL     OW30993   2.953   3.833   0.538 -0.3883  0.1800 -0.1886
 7807SOL    HW230994   2.871   3.843   0.489  0.3024  2.3533 -1.0165
 7807SOL    HW330995   2.975   3.922   0.566  0.8417 -0.5956  1.4888
 7807SOL    MW430996   2.945   3.846   0.535  0.2725 -0.1864  0.5459
 7808SOL     OW30997   1.231   5.674   5.887 -0.1170 -0.0628  0.0909
 7808SOL    HW230998   1.266   5.587   5.903  0.9852  0.3752  0.1269
 7808SOL    HW330999   1.149   5.677   5.936  0.2902 -0.7603  0.8253
 7808SOL    MW431000   1.225   5.663   5.895 -0.1887 -0.3141 -0.8253
 7809SOL     OW31001   4.691   4.493   2.937  0.0040  0.3935  0.0833
 7809SOL    HW231002   4.673   4.450   3.021 -0.6026  1.9854  0.7989
 7809SOL    HW331003   4.609   4.488   2.889  0.1792  0.0160 -0.1822
 7809SOL    MW431004   4.678   4.486   2.942  0.1735 -0.2063 -0.4674
 7810SOL     OW31005   5.333   1.013   4.563  0.3421 -0.6383 -0.0178
 7810SOL    HW231006   5.342   1.055   4.477 -0.5732 -0.8843 -0.2474
 7810SOL    HW331007   5.286   0.932   4.545  1.1393 -1.2490  0.5742
 7810SOL    MW431008   5.328   1.008   4.549 -0.4892 -0.1473  0.1031
 7811SOL     OW31009   0.800   3.182   4.451 -0.0026 -0.2347 -0.4559
 7811SOL    HW231010   0.864   3.121   4.414  0.4065 -0.1310  0.0634
 7811SOL    HW331011   0.854   3.248   4.495 -0.4803 -0.9894  1.3363
 7811SOL    MW431012   0.816   3.183   4.452 -0.0206 -0.5104  0.3129
 7812SOL     OW31013   3.502   2.960   4.199 -0.1601  0.1677  0.8392
 7812SOL    HW231014   3.443   3.032   4.221 -2.0784 -0.7219 -1.0291
 7812SOL    HW331015   3.586   3.002   4.179 -0.4326  1.5735  2.4758
 7812SOL    MW431016   3.506   2.975   4.199  0.0713  0.4039 -0.3008
 7813SOL     OW31017   2.524   0.781   0.591 -0.2067 -0.4236  0.2825
 7813SOL    HW231018   2.463   0.795   0.518  0.5835 -1.5501 -0.6482
 7813SOL    HW331019   2.471   0.790   0.670 -1.5547 -1.2636 -0.4932
 7813SOL    MW431020   2.509   0.784   0.591  0.1617  0.4960  0.0228
 7814SOL     OW31021   5.445   2.140   2.765  0.0250  0.0663  0.2115
 7814SOL    HW231022   5.411   2.172   2.682 -0.8773  1.1154  0.9624
 7814SOL    HW331023   5.520   2.197   2.784 -1.7266  2.0164  1.6662
 7814SOL    MW431024   5.451   2.151   2.757 -0.6509  0.1209  0.4347
 7815SOL     OW31025   0.220   2.162   4.357 -0.2822 -0.1285  0.2768
 7815SOL    HW231026   0.245   2.254   4.360  2.1823 -0.6915 -0.7048
 7815SOL    HW331027   0.222   2.140   4.264  3.2007 -2.0772  0.6474
 7815SOL    MW431028   0.224   2.171   4.345 -0.1288 -0.3706 -0.1175
 7816SOL     OW31029   4.357   0.982   4.860  0.0319 -0.1977 -0.1172
 7816SOL    HW231030   4.292   0.984   4.930 -1.7218 -0.8464 -1.6433
 7816SOL    HW331031   4.406   0.901   4.875  0.0999 -0.0044  0.7209
 7816SOL    MW431032   4.355   0.972   4.871 -0.1456  0.3649  0.1266
 7817SOL     OW31033   4.167   0.275   0.122  0.1234  0.7207  0.4879
 7817SOL    HW231034   4.152   0.317   0.037  0.8959  2.0523  0.9671
 7817SOL    HW331035   4.169   0.348   0.184 -0.2736 -0.2177  1.6318
 7817SOL    MW431036   4.166   0.290   0.119  0.1443 -0.1223  0.2951
 7818SOL     OW31037   5.799   0.165   1.801 -0.2733 -0.5510  0.7128
 7818SOL    HW231038   5.750   0.168   1.718 -2.1276 -1.5437  1.7037
 7818SOL    HW331039   5.813   0.072   1.816  0.2856 -0.3589  1.4079
 7818SOL    MW431040   5.795   0.153   1.792  0.0501 -0.0562  0.1164
 7819SOL     OW31041   6.155   5.097   1.978  0.1875  0.7712 -0.1109
 7819SOL    HW231042   6.129   5.006   1.964 -2.2663  1.3519  0.2332
 7819SOL    HW331043   6.079   5.138   2.019  2.3245  2.2450  2.7778
 7819SOL    MW431044   6.142   5.090   1.982 -0.5670  0.2041  0.1119
 7820SOL     OW31045   1.308   3.121   1.714  0.1596  0.2709  0.1712
 7820SOL    HW231046   1.375   3.148   1.651  1.1924 -1.1463  0.6081
 7820SOL    HW331047   1.355   3.067   1.777 -1.1541  0.3777  1.2857
 7820SOL    MW431048   1.323   3.117   1.714 -0.3399  0.0923  0.5621
 7821SOL     OW31049   4.936   2.103   0.053  0.0426 -0.0311  0.0864
 7821SOL    HW231050   4.848   2.077   0.024 -0.1805  1.3849 -0.5752
 7821SOL    HW331051   4.987   2.105  -0.028 -0.0793  2.0176  0.0276
 7821SOL    MW431052   4.931   2.100   0.038  0.1052 -0.6129 -0.6900
 7822SOL     OW31053   6.337   0.416   6.005  0.6390 -0.3589  0.1249
 7822SOL    HW231054   6.367   0.433   5.916 -0.7308  0.1277 -0.2719
 7822SOL    HW331055   6.343   0.501   6.049 -1.0091 -0.0167 -0.2476
 7822SOL    MW431056   6.342   0.430   5.999 -0.0021  0.2146  0.8041
 7823SOL     OW31057   2.020   4.435   2.367 -0.5283  0.0851 -0.1086
 7823SOL    HW231058   2.081   4.501   2.333  0.3176  0.4181  1.9685
 7823SOL    HW331059   1.934   4.477   2.358 -0.1606  0.8351 -0.2478
 7823SOL    MW431060   2.016   4.449   2.361  0.4080 -0.6137  0.0654
 7824SOL     OW31061   2.370   4.900   1.406  0.2956 -0.0195  0.4283
 7824SOL    HW231062   2.377   4.940   1.492  0.3302  2.2628 -0.5786
 7824SOL    HW331063   2.329   4.815   1.423  1.0437  0.0231  2.7557
 7824SOL    MW431064   2.365   4.894   1.419 -0.2244  0.3236 -0.0364
 7825SOL     OW31065   6.370   3.584   5.407 -0.7443 -0.7755  0.2607
 7825SOL    HW231066   6.347   3.618   5.493 -0.8811 -0.4200  0.0895
 7825SOL    HW331067   6.299   3.614   5.350 -1.2777 -2.0332  0.2493
 7825SOL    MW431068   6.358   3.593   5.410  0.0118 -0.5624 -0.0943
 7826SOL     OW31069   4.341   0.293   5.402 -0.2837 -0.0881 -0.2496
 7826SOL    HW231070   4.391   0.249   5.471  0.0786 -0.3098 -0.6495
 7826SOL    HW331071   4.267   0.332   5.448  1.2380  1.8968  0.6770
 7826SOL    MW431072   4.338   0.292   5.417 -0.0272  0.0102 -0.7672
 7827SOL     OW31073   3.793   4.982   3.285 -0.3261  0.1340 -0.2470
 7827SOL    HW231074   3.797   4.941   3.199 -0.0119  0.3127 -0.3176
 7827SOL    HW331075   3.738   4.922   3.337 -0.3508 -0.0764 -0.5119
 7827SOL    MW431076   3.786   4.968   3.281  0.3558  0.9369 -0.2218
 7828SOL     OW31077   1.505   1.130   0.673  0.2349  0.0067 -0.3640
 7828SOL    HW231078   1.439   1.173   0.618  1.0649 -0.1549 -1.5220
 7828SOL    HW331079   1.477   1.039   0.676 -1.1792  0.4368  1.5763
 7828SOL    MW431080   1.492   1.124   0.666 -0.4251 -0.0772 -0.0424
 7829SOL     OW31081   5.477   6.019   6.375  0.1701  0.3237  0.2510
 7829SOL    HW231082   5.519   6.015   6.289  1.6429 -0.9468  1.0018
 7829SOL    HW331083   5.492   6.109   6.405 -1.4480  1.1784 -1.2986
 7829SOL    MW431084   5.484   6.031   6.368 -0.3942 -0.2122  0.4340
 7830SOL     OW31085   2.655   4.996   5.730 -0.3990  0.1538 -0.4525
 7830SOL    HW231086   2.650   4.968   5.822 -0.7965  0.9700 -0.2195
 7830SOL    HW331087   2.683   5.088   5.735 -0.8536  0.3337 -1.1247
 7830SOL    MW431088   2.658   5.005   5.743  0.3084  0.1891 -0.6408
 7831SOL     OW31089   0.101   1.417   2.342  0.1832 -0.1454 -0.4923
 7831SOL    HW231090   0.189   1.384   2.358 -0.3184 -1.0710  0.4426
 7831SOL    HW331091   0.086   1.401   2.249  0.8731 -0.2901 -0.5852
 7831SOL    MW431092   0.111   1.411   2.332  0.0989 -0.1114 -0.6130
 7832SOL     OW31093   5.331   0.989   1.811  0.9156  0.4464 -0.6825
 7832SOL    HW231094   5.372   0.904   1.797 -1.2418 -0.3486 -2.8200
 7832SOL    HW331095   5.239   0.968   1.831  0.5409  2.2605 -0.3542
 7832SOL    MW431096   5.324   0.975   1.812 -0.1478  0.0890 -0.5088
 7833SOL     OW31097   4.831   3.302   6.366  0.0064  0.0984  0.2218
 7833SOL    HW231098   4.789   3.356   6.299 -0.0473  0.3926  0.4860
 7833SOL    HW331099   4.760   3.253   6.406  0.0136  0.0558  0.1818
 7833SOL    MW431100   4.816   3.303   6.363 -0.2596  0.0605 -0.4581
 7834SOL     OW31101   4.427   2.456   5.310  0.0636  0.3543 -0.0745
 7834SOL    HW231102   4.356   2.424   5.255 -0.4502  1.0033  0.1959
 7834SOL    HW331103   4.501   2.468   5.251 -0.0742 -0.2602 -0.3696
 7834SOL    MW431104   4.428   2.453   5.295 -0.2248  0.4292  0.0062
 7835SOL     OW31105   1.072   1.439   2.514 -0.4743  0.0355 -0.6408
 7835SOL    HW231106   1.095   1.447   2.421 -0.0859 -6.1596 -1.5005
 7835SOL    HW331107   0.978   1.419   2.513 -0.2083 -1.3845  0.0513
 7835SOL    MW431108   1.062   1.437   2.501 -0.1822  0.0398 -0.0610
 7836SOL     OW31109   4.113   5.632   5.534 -0.0594  0.4642  0.2766
 7836SOL    HW231110   4.189   5.619   5.591  0.3777 -0.6949 -0.5190
 7836SOL    HW331111   4.039   5.600   5.585 -0.3024  3.0132  1.6549
 7836SOL    MW431112   4.113   5.626   5.548  0.3669  0.3186 -0.0470
 7837SOL     OW31113   1.100   6.232   0.564  0.0439  0.3106  0.2210
 7837SOL    HW231114   1.184   6.261   0.527  0.3136  0.0675  0.6488
 7837SOL    HW331115   1.075   6.156   0.511 -0.6920  1.3057 -0.9453
 7837SOL    MW431116   1.107   6.226   0.552  0.2222 -1.0032  0.0522
 7838SOL     OW31117   3.251   3.213   1.056  0.2198 -0.0799  0.6945
 7838SOL    HW231118   3.174   3.270   1.042  0.2482 -0.0273  0.7508
 7838SOL    HW331119   3.324   3.274   1.068  0.1018 -0.1044  1.6627
 7838SOL    MW431120   3.250   3.229   1.056  0.9172 -0.0015 -0.3197
 7839SOL     OW31121   1.534   2.149   4.711 -0.1345  0.0678  0.4069
 7839SOL    HW231122   1.607   2.102   4.751  0.6674  2.0941  1.4784
 7839SOL    HW331123   1.571   2.189   4.632 -0.6285 -0.5426 -0.1412
 7839SOL    MW431124   1.548   2.148   4.706  0.2943  0.1601 -0.2520
 7840SOL     OW31125   4.443   1.922   6.108 -0.2273  0.0397 -0.0655
 7840SOL    HW231126   4.415   1.851   6.165 -0.2944  0.7099  0.7731
 7840SOL    HW331127   4.381   1.993   6.125  1.1176  1.0715  0.8195
 7840SOL    MW431128   4.431   1.922   6.118  0.3812 -0.1781 -0.2427
 7841SOL     OW31129   1.354   1.008   5.931  0.1937 -0.1229 -0.2342
 7841SOL    HW231130   1.398   1.084   5.892  1.5040 -0.4642  0.5582
 7841SOL    HW331131   1.384   0.934   5.879  0.4975 -0.3472  0.2612
 7841SOL    MW431132   1.363   1.008   5.919 -1.1638 -0.2787 -0.6334
 7842SOL     OW31133   5.193   5.023   3.515  0.0623  0.1084  0.0609
 7842SOL    HW231134   5.130   5.056   3.451 -0.9559  0.2300  1.0856
 7842SOL    HW331135   5.189   4.928   3.505  1.7681  0.1859 -1.7496
 7842SOL    MW431136   5.184   5.014   3.506  0.1152 -0.1460 -0.7373
 7843SOL     OW31137   3.184   3.402   2.548  0.2896 -0.2806 -0.1929
 7843SOL    HW231138   3.189   3.389   2.642  0.4258 -0.5435 -0.2345
 7843SOL    HW331139   3.173   3.314   2.512  0.5349 -0.2116 -0.4422
 7843SOL    MW431140   3.183   3.389   2.556  0.8147 -0.9024  0.3271
 7844SOL     OW31141   2.953   4.472   3.642 -0.3050 -0.0245  0.5368
 7844SOL    HW231142   2.880   4.443   3.697 -1.1707  1.8163  0.4500
 7844SOL    HW331143   2.988   4.549   3.687  0.4058  0.1916 -0.3513
 7844SOL    MW431144   2.948   4.479   3.655  0.2402 -0.3769 -0.4198
 7845SOL     OW31145   5.422   3.034   3.346 -0.1334 -0.2266 -0.1989
 7845SOL    HW231146   5.460   2.954   3.310  0.7976  0.1458 -0.0723
 7845SOL    HW331147   5.355   3.004   3.408 -0.6339 -0.8854 -1.0499
 7845SOL    MW431148   5.418   3.019   3.350 -0.4459  0.0875  0.2234
 7846SOL     OW31149   6.286   1.483   2.606 -0.1404 -0.3246 -0.1975
 7846SOL    HW231150   6.207   1.441   2.573 -0.2168  0.5338 -1.1337
 7846SOL    HW331151   6.286   1.463   2.700 -0.7834 -1.4072 -0.4095
 7846SOL    MW431152   6.276   1.475   2.614 -0.4159  0.4558  0.4293
 7847SOL     OW31153   3.347   4.402   5.595 -0.7296 -0.1111 -0.0580
 7847SOL    HW231154   3.342   4.491   5.561  0.4285 -0.3459 -0.8963
 7847SOL    HW331155   3.356   4.413   5.690  0.4693  0.7132 -0.2431
 7847SOL    MW431156   3.347   4.415   5.603 -0.3800 -0.0613  0.0037
 7848SOL     OW31157   2.310   4.851   5.394  0.1380 -0.4130 -0.0166
 7848SOL    HW231158   2.348   4.920   5.340  0.4062 -0.1139  0.5409
 7848SOL    HW331159   2.338   4.770   5.353  0.1028 -0.1932 -0.4846
 7848SOL    MW431160   2.319   4.850   5.382  0.2325 -0.0447  0.1565
 7849SOL     OW31161   4.998   3.621   2.851  0.1982  0.5265 -0.1466
 7849SOL    HW231162   4.985   3.687   2.919 -0.5177  0.0409  0.1948
 7849SOL    HW331163   4.931   3.640   2.786  1.2363  1.3390 -1.0087
 7849SOL    MW431164   4.988   3.632   2.851  0.0891  0.2912 -0.6508
 7850SOL     OW31165   5.960   3.247   0.183  0.8132  0.4177 -0.2907
 7850SOL    HW231166   5.941   3.225   0.274  1.5659  0.6722 -0.0620
 7850SOL    HW331167   5.928   3.172   0.133  0.2480  0.3455  0.1629
 7850SOL    MW431168   5.953   3.234   0.188  0.3043  0.1510 -0.1880
 7851SOL     OW31169   3.152   1.115   3.283 -0.3890  0.2005  0.2571
 7851SOL    HW231170   3.079   1.062   3.314  0.0529 -0.6232 -0.0648
 7851SOL    HW331171   3.222   1.052   3.267  0.3879  0.9717  0.5485
 7851SOL    MW431172   3.152   1.100   3.285  0.5409  0.0985  0.3741
 7852SOL     OW31173   0.418   0.619   5.877  0.7660  0.5615 -0.8097
 7852SOL    HW231174   0.374   0.605   5.960 -1.9860  0.2556 -2.2106
 7852SOL    HW331175   0.402   0.711   5.856 -0.7323  0.0690 -2.0694
 7852SOL    MW431176   0.410   0.629   5.885 -0.5170  0.7409  0.0162
 7853SOL     OW31177   4.987   5.959   1.283  0.3019 -0.1282  0.1783
 7853SOL    HW231178   4.967   5.866   1.290 -0.3854 -0.1334 -1.3612
 7853SOL    HW331179   4.906   6.004   1.307  0.5940  0.0789  0.7962
 7853SOL    MW431180   4.974   5.953   1.287  0.2327 -0.1425 -0.2230
 7854SOL     OW31181   4.245   1.823   2.782  0.4064 -0.4606 -0.0287
 7854SOL    HW231182   4.211   1.763   2.716  1.7981  0.4418 -1.6577
 7854SOL    HW331183   4.291   1.767   2.845 -0.2706 -1.2639 -0.2374
 7854SOL    MW431184   4.247   1.808   2.782  0.4693  0.3279 -0.4427
 7855SOL     OW31185   0.503   1.418   4.438  0.1809 -0.0713 -0.5467
 7855SOL    HW231186   0.451   1.486   4.396 -2.0788 -1.1867  0.2919
 7855SOL    HW331187   0.487   1.428   4.531  2.3632  0.1852 -0.1383
 7855SOL    MW431188   0.494   1.428   4.445  0.0715 -0.1893  0.0206
 7856SOL     OW31189   1.920   1.475   0.832 -0.0733 -0.3177  0.2513
 7856SOL    HW231190   1.879   1.494   0.916 -0.4334  2.9048 -0.5401
 7856SOL    HW331191   1.847   1.467   0.771  0.2752  0.2396 -0.2444
 7856SOL    MW431192   1.905   1.476   0.835  0.5843  0.0076 -0.3639
 7857SOL     OW31193   1.141   2.416   3.095  0.5417 -0.5635  0.6388
 7857SOL    HW231194   1.174   2.458   3.174 -0.4837 -0.2100  0.8956
 7857SOL    HW331195   1.062   2.465   3.073  0.2351 -1.3190 -0.0073
 7857SOL    MW431196   1.135   2.428   3.102 -0.1713 -0.1726 -0.3655
 7858SOL     OW31197   0.114   5.365   5.537  0.9119  0.1225 -0.1207
 7858SOL    HW231198   0.064   5.447   5.538  0.2385 -0.2920  0.7157
 7858SOL    HW331199   0.204   5.393   5.553  0.4575  0.5831  2.0099
 7858SOL    MW431200   0.119   5.380   5.539  0.1166  0.0767 -0.0821
 7859SOL     OW31201   1.433   0.807   2.654 -0.1646 -0.1845 -0.0930
 7859SOL    HW231202   1.476   0.737   2.606  1.0569 -1.7969  3.0825
 7859SOL    HW331203   1.499   0.876   2.660 -0.5136  0.2598 -1.1089
 7859SOL    MW431204   1.447   0.807   2.648  0.2088 -0.7566 -0.2359
 7860SOL     OW31205   0.019   0.817   0.395  0.1518 -0.0050 -0.1502
 7860SOL    HW231206  -0.076   0.828   0.383 -0.2486 -1.4692  1.3150
 7860SOL    HW331207   0.047   0.899   0.435 -0.7513 -0.0231  0.5689
 7860SOL    MW431208   0.010   0.829   0.398 -0.2394 -0.0879 -0.2600
 7861SOL     OW31209   4.628   4.034   1.954 -0.4456 -0.0009 -0.3303
 7861SOL    HW231210   4.597   4.048   1.865 -0.0909  0.6048 -0.3621
 7861SOL    HW331211   4.617   3.940   1.968  0.8391 -0.3725 -1.5281
 7861SOL    MW431212   4.622   4.023   1.944 -0.4822  0.1185  0.3019
 7862SOL     OW31213   4.402   5.953   2.982  0.2685 -0.0884  0.1399
 7862SOL    HW231214   4.417   5.888   2.913 -0.0217 -0.3627  0.3312
 7862SOL    HW331215   4.373   6.031   2.935  3.7148  1.0211 -0.4293
 7862SOL    MW431216   4.400   5.954   2.967 -0.2508  0.2259  0.3919
 7863SOL     OW31217   0.507   6.110   2.355  0.3037  0.7609  0.7576
 7863SOL    HW231218   0.603   6.104   2.349  0.2730  1.4793 -0.5979
 7863SOL    HW331219   0.490   6.199   2.383  0.0149  0.7111  0.7434
 7863SOL    MW431220   0.518   6.121   2.358 -0.1116  0.2536 -0.0960
 7864SOL     OW31221   4.875   5.798   3.766  0.0366  0.5146 -0.3380
 7864SOL    HW231222   4.821   5.733   3.722  1.3318 -1.5267  0.8861
 7864SOL    HW331223   4.814   5.844   3.824 -0.7015 -0.5899 -0.1983
 7864SOL    MW431224   4.860   5.795   3.768  0.1813  0.5523  0.5755
 7865SOL     OW31225   1.349   1.785   4.818  0.0060 -0.7362 -0.0153
 7865SOL    HW231226   1.432   1.739   4.808  0.1962 -0.3777 -0.1207
 7865SOL    HW331227   1.345   1.810   4.910 -0.2368 -1.2256  0.1061
 7865SOL    MW431228   1.360   1.782   4.829  0.3858 -0.3825 -0.2851
 7866SOL     OW31229   2.333   3.648   2.011  0.4547 -0.3675  0.1840
 7866SOL    HW231230   2.300   3.583   2.073  0.7193 -1.2560 -0.5846
 7866SOL    HW331231   2.417   3.611   1.982  1.5464  1.2318  1.1574
 7866SOL    MW431232   2.340   3.634   2.015  0.4970  0.1363  1.1252
 7867SOL     OW31233   3.931   5.549   0.525  0.0864  0.4097  0.4625
 7867SOL    HW231234   3.908   5.463   0.561 -1.8510  0.1216 -1.2877
 7867SOL    HW331235   3.971   5.529   0.440 -1.1614  1.2349 -0.3400
 7867SOL    MW431236   3.934   5.535   0.519 -0.0351  0.5350  0.0045
 7868SOL     OW31237   2.817   3.491   1.741 -0.1221  0.6495 -0.5892
 7868SOL    HW231238   2.898   3.482   1.692 -0.3443  1.3963 -1.1089
 7868SOL    HW331239   2.830   3.438   1.820  1.1558  1.3768 -0.3029
 7868SOL    MW431240   2.829   3.483   1.745  0.3373  0.1162  0.1377
 7869SOL     OW31241   5.116   1.378   2.253 -0.1139  0.3782  0.0883
 7869SOL    HW231242   5.140   1.452   2.308  0.6488  2.6182 -3.0276
 7869SOL    HW331243   5.020   1.382   2.248 -0.0431  1.6426 -0.6010
 7869SOL    MW431244   5.106   1.388   2.260  0.3486  0.6988 -0.6120
 7870SOL     OW31245   4.322   1.965   4.974 -0.1496  0.0762  0.5916
 7870SOL    HW231246   4.366   1.979   4.890 -0.6992  1.3340  0.4924
 7870SOL    HW331247   4.308   2.053   5.009 -0.0239 -0.4175  1.9661
 7870SOL    MW431248   4.326   1.978   4.968  0.2123 -0.3240  0.5758
 7871SOL     OW31249   5.825   5.971   0.691  0.0438 -0.0057 -0.0805
 7871SOL    HW231250   5.831   5.894   0.634 -0.0326 -0.0509 -0.0282
 7871SOL    HW331251   5.905   6.020   0.674  1.1688 -1.1867  1.4758
 7871SOL    MW431252   5.836   5.967   0.681 -0.3396  0.2974 -0.5089
 7872SOL     OW31253   1.588   3.753   5.578  0.8104 -0.3126 -0.0394
 7872SOL    HW231254   1.504   3.721   5.611  0.6234 -0.5297 -0.7217
 7872SOL    HW331255   1.574   3.847   5.566  1.8253  0.4530  3.4591
 7872SOL    MW431256   1.575   3.761   5.581 -0.5081  0.2174 -0.0235
 7873SOL     OW31257   5.722   0.811   4.505  0.6089  0.8703  0.3425
 7873SOL    HW231258   5.790   0.748   4.482 -0.1156  1.1660 -3.0415
 7873SOL    HW331259   5.764   0.897   4.496  0.4627  0.9949  0.8075
 7873SOL    MW431260   5.736   0.814   4.501  0.1308  0.1615 -0.5803
 7874SOL     OW31261   2.648   5.748   1.447 -0.3486 -0.1817 -0.4759
 7874SOL    HW231262   2.617   5.735   1.536  0.1248 -2.1330 -0.5514
 7874SOL    HW331263   2.606   5.678   1.396  1.0991 -0.4767 -1.3279
 7874SOL    MW431264   2.638   5.737   1.452 -0.3311 -0.5620  0.2248
 7875SOL     OW31265   4.229   3.421   2.959  0.4785  0.3173 -0.3030
 7875SOL    HW231266   4.265   3.427   2.870 -0.1824  0.6863 -0.5493
 7875SOL    HW331267   4.300   3.382   3.011  2.2277  3.2373 -0.2639
 7875SOL    MW431268   4.243   3.417   2.954  0.2678  1.1755 -0.3639
 7876SOL     OW31269   6.136   3.412   1.908  0.0930  0.6980 -0.7637
 7876SOL    HW231270   6.044   3.385   1.899  0.1085  0.6062 -0.6529
 7876SOL    HW331271   6.141   3.496   1.863 -0.2387  1.1138 -0.0212
 7876SOL    MW431272   6.124   3.419   1.901  0.3372  0.6839  0.0073
 7877SOL     OW31273   4.042   0.553   6.040 -0.3371 -0.2547 -1.0729
 7877SOL    HW231274   4.012   0.621   5.980  0.4423  1.6109  0.5517
 7877SOL    HW331275   3.987   0.477   6.019 -1.4053  0.9276 -2.7950
 7877SOL    MW431276   4.031   0.552   6.030 -0.1642  0.1748  0.1318
 7878SOL     OW31277   2.926   5.762   4.361  0.0751  0.4621  0.3816
 7878SOL    HW231278   2.852   5.744   4.418 -1.2474  1.2319 -1.0168
 7878SOL    HW331279   2.975   5.832   4.405 -1.0582  1.2124  0.4795
 7878SOL    MW431280   2.923   5.769   4.374 -0.4399  0.7052 -0.0244
 7879SOL     OW31281   4.890   4.109   1.122 -0.7896  0.1660  0.2012
 7879SOL    HW231282   4.809   4.135   1.076 -0.3816  0.3838 -0.4106
 7879SOL    HW331283   4.923   4.190   1.160 -1.2304 -0.0507  1.0547
 7879SOL    MW431284   4.883   4.123   1.121 -0.6118 -0.0825  0.1747
 7880SOL     OW31285   0.514   4.503   3.863 -0.3282  0.5107  0.1014
 7880SOL    HW231286   0.445   4.569   3.849 -0.1376  1.4730  2.9198
 7880SOL    HW331287   0.595   4.554   3.867  0.3083 -0.3627 -1.1126
 7880SOL    MW431288   0.516   4.519   3.862  0.2718 -0.4613  0.3224
 7881SOL     OW31289   6.406   0.769   2.095  0.2249  0.1533 -0.2911
 7881SOL    HW231290   6.443   0.702   2.153 -1.3321  0.3372  0.9921
 7881SOL    HW331291   6.467   0.842   2.102  0.3088  0.0078  0.8220
 7881SOL    MW431292   6.419   0.770   2.104  0.6850 -0.2823 -0.3178
 7882SOL     OW31293   4.260   2.938   4.051 -0.1532 -0.3117 -1.1014
 7882SOL    HW231294   4.262   2.842   4.049  1.1725 -0.3811  0.7262
 7882SOL    HW331295   4.244   2.964   3.960 -1.3472 -2.2452 -1.5118
 7882SOL    MW431296   4.258   2.929   4.039  0.0775 -0.0961 -0.4620
 7883SOL     OW31297   0.252   2.887   4.394 -0.3023  0.1281  0.0700
 7883SOL    HW231298   0.257   2.983   4.388 -1.4817  0.2143  0.2947
 7883SOL    HW331299   0.323   2.856   4.338  2.1035  1.1558  2.3422
 7883SOL    MW431300   0.262   2.896   4.386 -0.3768  0.2689  0.6505
 7884SOL     OW31301   1.771   5.958   4.259  0.1422 -0.1902  0.9167
 7884SOL    HW231302   1.780   5.911   4.176  1.6066  0.5030  0.6426
 7884SOL    HW331303   1.855   5.945   4.302  0.2842  1.4727  1.1905
 7884SOL    MW431304   1.783   5.950   4.253 -0.4311  0.2547  0.2654
 7885SOL     OW31305   5.624   4.041   1.999 -0.3106 -0.3260  0.0702
 7885SOL    HW231306   5.636   3.959   2.048  3.1161  0.3585  0.6726
 7885SOL    HW331307   5.589   4.014   1.914  0.8104 -2.4851  0.2202
 7885SOL    MW431308   5.621   4.027   1.994 -0.1749  0.3930 -0.0144
 7886SOL     OW31309   0.311   3.382   0.831  0.2843  0.1969 -0.2066
 7886SOL    HW231310   0.297   3.356   0.740 -2.7755  2.0196 -0.4418
 7886SOL    HW331311   0.258   3.321   0.882  0.3803  0.3994  0.1411
 7886SOL    MW431312   0.302   3.371   0.826 -0.0161  0.4729 -0.5771
 7887SOL     OW31313   3.351   0.242   4.034  0.0883 -0.1159 -0.2905
 7887SOL    HW231314   3.264   0.236   3.994 -0.5704  0.2450  1.0177
 7887SOL    HW331315   3.405   0.181   3.985 -1.0613 -0.7833 -0.7547
 7887SOL    MW431316   3.347   0.233   4.022 -0.0638  0.1449 -0.0391
 7888SOL     OW31317   5.934   6.019   1.585 -0.2556  0.1165 -0.2513
 7888SOL    HW231318   6.015   6.057   1.621 -1.0448  0.4227  1.2560
 7888SOL    HW331319   5.959   5.930   1.559  1.0847  0.9040 -1.8284
 7888SOL    MW431320   5.948   6.012   1.586 -0.2531  0.2712  0.2469
 7889SOL     OW31321   0.054   2.828   3.011  0.4656 -0.7554  0.1435
 7889SOL    HW231322  -0.003   2.752   2.999  0.7669 -1.1435  1.0854
 7889SOL    HW331323   0.072   2.830   3.105 -1.3095  1.7826  0.5205
 7889SOL    MW431324   0.049   2.818   3.022  0.7094 -0.1204 -0.0600
 7890SOL     OW31325   1.658   0.234   2.317 -0.1557  0.5788 -0.4611
 7890SOL    HW231326   1.584   0.286   2.287 -0.1824 -0.3432 -2.0581
 7890SOL    HW331327   1.690   0.190   2.239  1.6746  0.4332  0.3189
 7890SOL    MW431328   1.653   0.235   2.303 -0.6760 -0.3551 -0.0423
 7891SOL     OW31329   0.908   4.750   0.768  1.0543  0.2676 -0.4212
 7891SOL    HW231330   0.969   4.720   0.835  0.8482  0.3576 -0.1958
 7891SOL    HW331331   0.961   4.751   0.688  0.9313 -1.1806 -0.5479
 7891SOL    MW431332   0.923   4.746   0.766 -0.2385 -0.1685 -0.7364
 7892SOL     OW31333   3.377   6.170   3.639  0.4587 -0.6730  0.2128
 7892SOL    HW231334   3.452   6.212   3.682  1.2936 -0.7702 -1.1042
 7892SOL    HW331335   3.301   6.220   3.669  1.1477  0.0223  0.8337
 7892SOL    MW431336   3.377   6.182   3.649 -0.3088 -0.1051  0.3626
 7893SOL     OW31337   2.001   2.433   2.153  0.3424  0.4991  0.0764
 7893SOL    HW231338   2.072   2.392   2.102 -0.0472 -0.2587  0.1390
 7893SOL    HW331339   1.921   2.394   2.118  0.0734 -0.1604  1.3733
 7893SOL    MW431340   2.000   2.423   2.141 -0.6589 -0.1291  0.6521
 7894SOL     OW31341   4.755   0.010   5.368 -0.2845 -0.2875  0.7840
 7894SOL    HW231342   4.820  -0.024   5.429  1.5896 -2.7343 -2.2727
 7894SOL    HW331343   4.806   0.064   5.306 -1.8263  0.8264  0.4123
 7894SOL    MW431344   4.770   0.013   5.368 -0.2932  0.1449 -0.3130
 7895SOL     OW31345   4.540   2.461   0.855 -0.1293  0.0599  0.2335
 7895SOL    HW231346   4.484   2.521   0.806  0.3898 -0.2265 -0.7310
 7895SOL    HW331347   4.628   2.475   0.818 -0.0899 -1.7037 -0.4228
 7895SOL    MW431348   4.544   2.471   0.844  0.4695 -0.1003 -0.2879
 7896SOL     OW31349   0.330   3.503   0.115  0.2326 -0.4150 -0.3179
 7896SOL    HW231350   0.239   3.499   0.144 -0.0814  0.4501 -1.1434
 7896SOL    HW331351   0.333   3.446   0.039  0.5486 -0.9788  0.1119
 7896SOL    MW431352   0.318   3.495   0.109  0.2135 -0.5455  0.4920
 7897SOL     OW31353   4.950   3.797   3.083  0.3865  0.7349 -0.5117
 7897SOL    HW231354   4.905   3.882   3.081  0.0726  0.6160  0.7864
 7897SOL    HW331355   4.912   3.751   3.158 -0.2917 -1.0425 -1.8785
 7897SOL    MW431356   4.939   3.803   3.092 -0.0340 -0.0791  0.2784
 7898SOL     OW31357   0.411   1.554   1.397  0.1524 -0.5914 -0.3748
 7898SOL    HW231358   0.348   1.583   1.463 -0.1173 -0.4585 -0.6876
 7898SOL    HW331359   0.496   1.556   1.442 -0.2924 -2.6663  0.6502
 7898SOL    MW431360   0.414   1.558   1.411 -0.5398  0.0849  0.1788
 7899SOL     OW31361   1.525   2.499   6.070  0.1070 -0.0652  0.3326
 7899SOL    HW231362   1.439   2.513   6.110  0.0029  0.1159  0.0520
 7899SOL    HW331363   1.510   2.517   5.977 -0.0921 -2.2092 -0.1014
 7899SOL    MW431364   1.511   2.503   6.063 -0.0622  0.1595 -0.4170
 7900SOL     OW31365   0.134   5.591   3.863  0.5416 -0.0855  0.2799
 7900SOL    HW231366   0.087   5.674   3.873  1.1965  0.5081 -1.2905
 7900SOL    HW331367   0.202   5.593   3.931 -1.7094 -1.0599  2.7484
 7900SOL    MW431368   0.137   5.602   3.873 -0.8815 -0.2939 -0.0212
 7901SOL     OW31369   2.346   0.407   2.460 -0.3101 -0.3653  0.1256
 7901SOL    HW231370   2.317   0.318   2.439 -0.8738  0.1058 -1.2150
 7901SOL    HW331371   2.317   0.460   2.386  0.5297  0.8459  0.6247
 7901SOL    MW431372   2.338   0.402   2.448  0.1999  0.2927 -0.3962
 7902SOL     OW31373   3.152   6.222   1.001  0.2475  0.3425  0.3123
 7902SOL    HW231374   3.233   6.203   1.048 -0.9092 -0.1429  2.2271
 7902SOL    HW331375   3.164   6.310   0.966  1.6757  0.1891  0.3559
 7902SOL    MW431376   3.164   6.231   1.002  0.2392 -0.0231 -0.1063
 7903SOL     OW31377   3.683   4.560   5.376 -0.0649  0.2473 -0.0858
 7903SOL    HW231378   3.713   4.648   5.351 -0.4754 -0.1036 -1.9575
 7903SOL    HW331379   3.591   4.558   5.350  0.0121 -0.8272 -0.3212
 7903SOL    MW431380   3.675   4.572   5.369 -1.1786 -0.5933  0.3343
 7904SOL     OW31381   3.842   5.965   2.984 -0.2504 -0.1406 -0.3468
 7904SOL    HW231382   3.841   5.919   3.068 -1.6490 -1.3896 -1.0211
 7904SOL    HW331383   3.755   6.003   2.976  0.7080  2.3435 -0.0269
 7904SOL    MW431384   3.831   5.964   2.994  0.3541  0.7319 -0.0487
 7905SOL     OW31385   0.027   0.083   0.964 -0.1209 -0.1442  0.2559
 7905SOL    HW231386   0.082   0.017   0.923  0.2021  0.1481  0.2183
 7905SOL    HW331387   0.087   0.151   0.992 -0.5363  0.5595 -0.5072
 7905SOL    MW431388   0.042   0.083   0.963  0.1709  0.2693 -0.0532
 7906SOL     OW31389   0.788   5.225   1.440  0.0620 -0.4289  0.2350
 7906SOL    HW231390   0.814   5.244   1.530 -0.1689  2.3038 -0.1945
 7906SOL    HW331391   0.707   5.274   1.428 -0.7813 -2.0234 -1.0261
 7906SOL    MW431392   0.781   5.234   1.450  0.1393 -0.0991 -0.6830
 7907SOL     OW31393   1.570   1.971   5.506 -0.6201  0.9077  0.1765
 7907SOL    HW231394   1.592   1.995   5.596  3.1742 -0.9490 -0.0357
 7907SOL    HW331395   1.624   2.028   5.452 -0.7382  0.1433 -0.7796
 7907SOL    MW431396   1.580   1.981   5.510  0.2261 -0.1183 -0.7644
 7908SOL     OW31397   5.675   1.247   3.407 -0.0322  0.2142  0.5814
 7908SOL    HW231398   5.619   1.254   3.330  1.1036  1.4100 -0.1711
 7908SOL    HW331399   5.638   1.310   3.469  0.9521  1.6827 -0.2587
 7908SOL    MW431400   5.663   1.256   3.405 -0.0832  0.1123  0.1910
 7909SOL     OW31401   3.939   5.526   1.322  0.9718  0.4879 -0.0375
 7909SOL    HW231402   3.899   5.480   1.396  2.0474 -1.1177 -0.3854
 7909SOL    HW331403   3.893   5.610   1.317 -0.8310 -0.3865  0.8894
 7909SOL    MW431404   3.928   5.531   1.331  0.3495  0.0507 -0.0778
 7910SOL     OW31405   4.951   5.659   6.233  0.0954  0.0215  0.0444
 7910SOL    HW231406   4.930   5.753   6.230  1.1432  0.2507 -1.5131
 7910SOL    HW331407   5.003   5.649   6.313 -1.8074  0.3237  1.3715
 7910SOL    MW431408   4.955   5.670   6.243  0.1422 -0.1742 -0.0093
 7911SOL     OW31409   6.138   0.142   0.157 -0.1257 -0.0678  0.6564
 7911SOL    HW231410   6.169   0.146   0.066 -1.2938 -0.8160  0.2010
 7911SOL    HW331411   6.215   0.160   0.210  0.1493  2.6557 -0.5162
 7911SOL    MW431412   6.152   0.145   0.152  0.4425 -0.3529 -0.0708
 7912SOL     OW31413   3.901   2.681   6.022  0.2275  0.6084  0.0355
 7912SOL    HW231414   3.993   2.693   6.048  0.4370  0.1655 -0.4752
 7912SOL    HW331415   3.905   2.615   5.953 -0.4059  1.1205 -0.4992
 7912SOL    MW431416   3.914   2.674   6.016 -0.3747  0.8490  0.0800
 7913SOL     OW31417   2.353   3.378   0.153  0.0146  0.9503 -0.0085
 7913SOL    HW231418   2.371   3.450   0.092 -0.0606  0.8185 -0.1868
 7913SOL    HW331419   2.398   3.302   0.114 -0.2698  0.8007 -0.0471
 7913SOL    MW431420   2.361   3.377   0.140 -0.2027 -0.3155  0.0434
 7914SOL     OW31421   0.942   0.210   2.389  0.0856 -0.2314 -0.6361
 7914SOL    HW231422   1.036   0.222   2.405  0.0114 -1.2668  0.7887
 7914SOL    HW331423   0.923   0.266   2.314  1.8694 -0.0969 -1.0383
 7914SOL    MW431424   0.952   0.219   2.381  0.2212  0.7439 -0.3715
 7915SOL     OW31425   5.752   0.193   3.851 -0.1121 -0.0475  0.5289
 7915SOL    HW231426   5.692   0.258   3.813  0.8411  1.4128  1.4234
 7915SOL    HW331427   5.836   0.211   3.808 -0.0099 -1.2807  0.1699
 7915SOL    MW431428   5.755   0.204   3.840 -0.3350  0.3050  0.1596
 7916SOL     OW31429   1.821   6.102   4.893 -0.6925 -0.5408  0.3162
 7916SOL    HW231430   1.790   6.054   4.817 -2.7740 -0.0846  0.8087
 7916SOL    HW331431   1.854   6.185   4.858 -1.1517 -0.5464 -0.1331
 7916SOL    MW431432   1.821   6.107   4.879  0.3672 -0.3121 -0.6338
 7917SOL     OW31433   4.001   0.967   6.024  0.2057  0.0100  0.0185
 7917SOL    HW231434   3.917   0.999   5.991  0.4495 -0.6406 -1.3339
 7917SOL    HW331435   4.000   0.986   6.117 -1.2382  0.4512 -0.0680
 7917SOL    MW431436   3.990   0.974   6.032  0.5255  0.4017 -0.5034
 7918SOL     OW31437   3.511   5.502   2.633 -0.4468 -0.0079 -0.1466
 7918SOL    HW231438   3.437   5.441   2.641  0.4353 -0.8354  3.6238
 7918SOL    HW331439   3.583   5.447   2.601 -0.5707 -0.0662 -0.3273
 7918SOL    MW431440   3.511   5.487   2.630  0.0104  0.6483  0.4577
 7919SOL     OW31441   0.754   1.897   5.703  0.5240 -0.1242  0.5057
 7919SOL    HW231442   0.783   1.952   5.630 -1.9677  3.0488  1.6853
 7919SOL    HW331443   0.813   1.920   5.775 -1.4739  2.5463  1.4724
 7919SOL    MW431444   0.766   1.907   5.703 -0.4738 -0.5455  0.3741
 7920SOL     OW31445   0.675   1.165   4.980  0.1157 -0.2724 -0.2618
 7920SOL    HW231446   0.680   1.076   4.946  2.4526 -0.1702 -0.3751
 7920SOL    HW331447   0.735   1.215   4.924 -0.3313  1.1392  0.4646
 7920SOL    MW431448   0.683   1.160   4.968 -0.1414  0.3274  0.3411
 7921SOL     OW31449   4.489   5.039   2.428  0.5775 -0.2336 -0.0946
 7921SOL    HW231450   4.492   4.946   2.405 -1.4197 -0.1221 -1.0090
 7921SOL    HW331451   4.470   5.040   2.522  1.5895 -0.7153  0.1315
 7921SOL    MW431452   4.487   5.027   2.437  0.3275 -0.0958 -0.0466
 7922SOL     OW31453   2.503   1.902   5.023  0.3517 -0.3663  0.5718
 7922SOL    HW231454   2.570   1.926   5.088  0.3216  2.3950 -0.2913
 7922SOL    HW331455   2.553   1.863   4.951  0.6086 -1.5008  1.3319
 7922SOL    MW431456   2.519   1.900   5.022  0.3284 -0.4731  0.4422
 7923SOL     OW31457   5.368   4.208   2.124  0.2440  0.0944 -0.2974
 7923SOL    HW231458   5.452   4.181   2.086  1.1458 -2.8349  3.2572
 7923SOL    HW331459   5.311   4.131   2.113 -0.8710  0.8070  0.3394
 7923SOL    MW431460   5.371   4.194   2.117 -0.2698  0.5417 -0.4889
 7924SOL     OW31461   5.674   1.344   1.807 -0.2281 -0.0760 -0.0471
 7924SOL    HW231462   5.625   1.291   1.743 -0.8831 -0.7573  0.9969
 7924SOL    HW331463   5.685   1.287   1.882 -0.3823  1.0628  0.8670
 7924SOL    MW431464   5.669   1.330   1.808 -0.3017 -0.1093 -0.3536
 7925SOL     OW31465   6.391   3.304   2.397 -0.0995  0.0892  0.3719
 7925SOL    HW231466   6.393   3.237   2.465 -0.5711  0.0630  0.3601
 7925SOL    HW331467   6.348   3.379   2.438  0.6367  0.4718  0.4609
 7925SOL    MW431468   6.386   3.305   2.411 -0.0353  0.7011  0.3307
 7926SOL     OW31469   0.048   0.484   2.618 -0.0163  0.4041  0.4502
 7926SOL    HW231470  -0.012   0.436   2.562  0.3195  1.9496 -1.3189
 7926SOL    HW331471   0.134   0.473   2.577  0.6532 -0.3151  1.9648
 7926SOL    MW431472   0.051   0.476   2.606 -0.3553 -0.0575  0.4911
 7927SOL     OW31473   2.870   6.204   5.195  0.2089  0.0438 -0.4128
 7927SOL    HW231474   2.806   6.275   5.203  0.8083  0.6926 -1.2223
 7927SOL    HW331475   2.943   6.243   5.146  0.8235 -0.9478 -0.3056
 7927SOL    MW431476   2.871   6.219   5.190 -0.4319 -0.2170 -0.5730
 7928SOL     OW31477   3.001   3.901   6.204 -0.2594 -0.8723 -0.2903
 7928SOL    HW231478   3.097   3.907   6.205 -0.2716 -0.3323  1.6773
 7928SOL    HW331479   2.973   3.962   6.273 -1.9730 -1.7425 -0.1876
 7928SOL    MW431480   3.010   3.910   6.213 -0.1385 -0.5669 -0.2106
 7929SOL     OW31481   0.421   0.379   3.190  0.2925 -0.2063  0.2100
 7929SOL    HW231482   0.493   0.328   3.153  1.8979  2.0359  0.0351
 7929SOL    HW331483   0.458   0.466   3.203 -2.0711  0.7146  1.2666
 7929SOL    MW431484   0.435   0.383   3.187 -1.0820  0.1168  0.2480
 7930SOL     OW31485   3.091   4.308   2.407 -0.6233  0.0910  0.0789
 7930SOL    HW231486   3.174   4.293   2.451 -0.6568  0.9868  0.4742
 7930SOL    HW331487   3.033   4.241   2.442 -0.4385  0.3198  0.8438
 7930SOL    MW431488   3.094   4.298   2.418  0.0206  0.1162 -0.0001
 7931SOL     OW31489   3.593   4.866   4.232  0.4110 -0.6421 -0.5158
 7931SOL    HW231490   3.541   4.810   4.173 -0.0068 -0.3069 -0.4756
 7931SOL    HW331491   3.575   4.831   4.319 -2.1934  1.2819 -0.1491
 7931SOL    MW431492   3.584   4.854   4.235  0.3407 -0.4600 -0.3608
 7932SOL     OW31493   5.654   3.605   2.476  0.4121  0.4667  0.2595
 7932SOL    HW231494   5.596   3.656   2.419 -0.8021 -3.5865 -2.5964
 7932SOL    HW331495   5.728   3.580   2.419  0.5064 -1.5638  1.1684
 7932SOL    MW431496   5.656   3.608   2.461 -0.0489 -0.3134  0.4232
 7933SOL     OW31497   4.216   3.506   5.215  0.0075  0.5882  0.4589
 7933SOL    HW231498   4.264   3.454   5.149 -0.2770 -0.0474  0.7404
 7933SOL    HW331499   4.239   3.596   5.195  1.9688  0.2725  1.0780
 7933SOL    MW431500   4.226   3.511   5.203 -0.3916  0.2217  0.6901
 7934SOL     OW31501   5.589   0.751   5.402  0.5483  0.1099  0.4116
 7934SOL    HW231502   5.622   0.756   5.491 -1.5669 -0.2614  1.2716
 7934SOL    HW331503   5.612   0.835   5.363  0.2485  0.8693  1.7925
 7934SOL    MW431504   5.596   0.762   5.408 -0.2881 -0.5022 -0.3898
 7935SOL     OW31505   3.708   0.717   5.000  0.5269  0.1508 -0.2998
 7935SOL    HW231506   3.691   0.801   5.042 -0.5196 -0.8602  1.4067
 7935SOL    HW331507   3.621   0.677   4.991  1.0482 -0.9380 -0.6892
 7935SOL    MW431508   3.694   0.723   5.004 -0.1250  0.4152  0.3018
 7936SOL     OW31509   6.280   1.654   0.445  0.3765  0.0169  0.1332
 7936SOL    HW231510   6.229   1.577   0.471 -1.1423  0.4872 -1.3010
 7936SOL    HW331511   6.252   1.723   0.505 -0.4524  0.1866 -0.4393
 7936SOL    MW431512   6.270   1.653   0.456  0.0433  0.7670  0.5278
 7937SOL     OW31513   3.184   1.539   4.456 -0.0591  0.3645  0.8342
 7937SOL    HW231514   3.182   1.490   4.374  0.5341  1.5807  0.0642
 7937SOL    HW331515   3.097   1.525   4.495 -0.5224  0.1610 -0.2362
 7937SOL    MW431516   3.172   1.531   4.450 -0.0639  0.3140 -0.2764
 7938SOL     OW31517   2.271   3.734   0.559  0.3131 -0.0060 -0.1397
 7938SOL    HW231518   2.219   3.694   0.489  1.4251 -1.7357 -0.0301
 7938SOL    HW331519   2.213   3.801   0.596 -2.0485 -2.1245  0.2675
 7938SOL    MW431520   2.256   3.738   0.555  0.2585  0.3106 -0.5909
 7939SOL     OW31521   4.356   2.088   2.598 -0.3574  0.8925 -0.1423
 7939SOL    HW231522   4.347   2.159   2.662 -1.3764  1.3597 -0.7848
 7939SOL    HW331523   4.383   2.131   2.518  0.3739  0.3714 -0.1884
 7939SOL    MW431524   4.358   2.103   2.596 -0.3379  0.6157 -0.2516
 7940SOL     OW31525   5.167   6.366   1.277  0.0096  0.2108  0.2907
 7940SOL    HW231526   5.119   6.356   1.360 -0.8303 -0.4336 -0.2542
 7940SOL    HW331527   5.254   6.398   1.303 -0.6648  1.2771  1.3096
 7940SOL    MW431528   5.172   6.369   1.292 -0.1304  0.2192 -0.3479
 7941SOL     OW31529   2.646   1.284   1.192  0.0806  0.2770 -0.4216
 7941SOL    HW231530   2.606   1.370   1.184  0.6554  0.8085  1.8048
 7941SOL    HW331531   2.640   1.246   1.104 -1.0475  2.1838 -1.2146
 7941SOL    MW431532   2.640   1.290   1.179  0.1228  0.1516 -0.1665
 7942SOL     OW31533   4.508   0.677   4.620 -0.5567  0.0333 -0.3686
 7942SOL    HW231534   4.505   0.772   4.632 -0.2440 -0.1530  1.4129
 7942SOL    HW331535   4.601   0.655   4.620 -0.6107 -0.5385  2.1525
 7942SOL    MW431536   4.520   0.687   4.622 -1.0787  0.0985 -0.8003
 7943SOL     OW31537   0.828   5.782   3.495  0.0592 -0.3006  0.0269
 7943SOL    HW231538   0.909   5.732   3.491  1.0271  1.2824 -1.1094
 7943SOL    HW331539   0.846   5.862   3.445 -2.1936  0.1091 -0.2187
 7943SOL    MW431540   0.841   5.786   3.488  0.0003 -0.3813 -0.4722
 7944SOL     OW31541   5.214   3.378   5.619 -0.2870 -0.0204  0.0494
 7944SOL    HW231542   5.263   3.456   5.642  0.2247 -0.7482  1.5607
 7944SOL    HW331543   5.281   3.310   5.609 -0.7059 -0.2689 -1.4057
 7944SOL    MW431544   5.229   3.379   5.620  0.2684 -0.7342 -0.4064
 7945SOL     OW31545   5.670   2.264   5.585 -0.1718  0.3667 -0.1464
 7945SOL    HW231546   5.605   2.277   5.654 -1.2789 -0.6715 -0.9689
 7945SOL    HW331547   5.651   2.332   5.520 -0.7660 -0.2449 -0.6205
 7945SOL    MW431548   5.659   2.275   5.586 -0.3428 -0.0253 -0.2526
 7946SOL     OW31549   3.035   2.147   2.492 -0.0649 -0.1696 -0.0198
 7946SOL    HW231550   2.986   2.214   2.540 -1.2246  0.1121 -1.5328
 7946SOL    HW331551   3.127   2.169   2.508 -0.3653 -0.5515  2.6740
 7946SOL    MW431552   3.041   2.159   2.501 -0.1240  0.3513  0.6098
 7947SOL     OW31553   0.600   5.329   0.619 -0.0128 -0.4219 -0.3711
 7947SOL    HW231554   0.589   5.321   0.714  1.2412 -0.2487 -0.1994
 7947SOL    HW331555   0.562   5.249   0.584 -0.0712 -0.7042  0.3089
 7947SOL    MW431556   0.594   5.317   0.627 -0.4303  0.3749 -0.0185
 7948SOL     OW31557   4.351   1.899   5.654  0.1999  0.8290  0.0531
 7948SOL    HW231558   4.278   1.939   5.607 -1.2574  0.7789  2.1169
 7948SOL    HW331559   4.342   1.805   5.636 -1.6556  0.5543  1.9742
 7948SOL    MW431560   4.340   1.892   5.646 -0.0260  0.0219 -0.0277
 7949SOL     OW31561   0.959   5.301   1.641  0.4221 -0.1126  0.1138
 7949SOL    HW231562   0.985   5.209   1.636 -0.2756 -0.3643  0.9134
 7949SOL    HW331563   0.947   5.318   1.734 -0.4673  0.5029 -0.1017
 7949SOL    MW431564   0.961   5.291   1.652  0.2878 -0.0943 -0.5201
 7950SOL     OW31565   4.350   5.044   1.709 -0.3346 -0.2121 -0.0093
 7950SOL    HW231566   4.276   5.105   1.703 -0.3005 -0.0917  0.7139
 7950SOL    HW331567   4.402   5.062   1.631 -2.2403 -1.8938 -1.7764
 7950SOL    MW431568   4.347   5.055   1.698  0.0154  0.1503  0.2165
 7951SOL     OW31569   4.115   5.361   3.087  0.4465 -0.2732  0.1883
 7951SOL    HW231570   4.180   5.355   3.016  0.0462 -0.4430 -0.1694
 7951SOL    HW331571   4.086   5.270   3.101  0.2220 -0.1879  0.2849
 7951SOL    MW431572   4.120   5.348   3.079 -0.7937 -0.4115 -0.1816
 7952SOL     OW31573   6.091   2.365   3.510  0.2941 -0.0237  0.1398
 7952SOL    HW231574   6.054   2.351   3.596  1.0235 -1.1502  0.2913
 7952SOL    HW331575   6.127   2.280   3.484 -0.7223  0.0398 -1.6723
 7952SOL    MW431576   6.091   2.352   3.518 -0.3007 -0.2039  0.1485
 7953SOL     OW31577   4.858   3.473   4.976 -0.5313 -0.0707 -0.1065
 7953SOL    HW231578   4.859   3.400   4.915 -0.7108  2.4815 -3.4687
 7953SOL    HW331579   4.947   3.477   5.011  0.3557 -0.1271 -2.2458
 7953SOL    MW431580   4.870   3.464   4.973 -0.1706  0.5308  0.0466
 7954SOL     OW31581   4.989   1.333   3.428 -0.1037 -0.4827  0.3135
 7954SOL    HW231582   5.061   1.280   3.463  0.2804 -1.6998 -2.1140
 7954SOL    HW331583   5.023   1.422   3.427  0.9742 -0.8778  0.2142
 7954SOL    MW431584   5.003   1.338   3.432 -0.0497  0.1144  0.0204
 7955SOL     OW31585   1.860   3.479   1.153 -0.3825 -0.4293 -0.2118
 7955SOL    HW231586   1.789   3.524   1.198 -0.4642  1.9164 -2.4280
 7955SOL    HW331587   1.926   3.547   1.137  0.3082 -1.4559 -2.1491
 7955SOL    MW431588   1.860   3.494   1.157  0.0383 -0.3101 -0.2521
 7956SOL     OW31589   1.790   1.837   2.049 -0.2798 -0.2649  0.3696
 7956SOL    HW231590   1.838   1.754   2.045  0.6948  0.2832  0.4683
 7956SOL    HW331591   1.847   1.896   2.097 -0.5880  0.7204 -0.4295
 7956SOL    MW431592   1.804   1.834   2.055  0.0240  0.3212 -0.2457
 7957SOL     OW31593   3.899   0.296   5.952  0.0599  0.5186 -0.1627
 7957SOL    HW231594   3.947   0.214   5.959 -1.1604 -0.1768  0.4952
 7957SOL    HW331595   3.829   0.288   6.017 -1.5073  1.0861 -1.7234
 7957SOL    MW431596   3.896   0.284   5.962 -0.2305 -0.3189  0.0135
 7958SOL     OW31597   2.058   3.442   0.136  0.0989 -0.5734  0.3307
 7958SOL    HW231598   2.052   3.463   0.229  0.9616  0.8941  0.0857
 7958SOL    HW331599   2.150   3.419   0.123  0.5684  1.5637 -0.5684
 7958SOL    MW431600   2.069   3.442   0.146  0.0877 -0.3083  0.0678
 7959SOL     OW31601   6.041   3.624   3.463 -0.7946  0.2210  0.2527
 7959SOL    HW231602   6.011   3.600   3.551 -0.3321 -0.4085  0.2514
 7959SOL    HW331603   5.962   3.623   3.410 -0.9235 -0.5019  0.4380
 7959SOL    MW431604   6.027   3.621   3.468 -0.4437 -0.1010 -0.6149
 7960SOL     OW31605   0.324   0.939   4.474 -0.0577  0.4588 -0.2133
 7960SOL    HW231606   0.387   0.868   4.484 -2.0455 -1.7122 -1.8523
 7960SOL    HW331607   0.353   0.986   4.397  0.2901  0.2925 -0.1853
 7960SOL    MW431608   0.336   0.936   4.465  0.6924 -0.8786  0.2851
 7961SOL     OW31609   5.771   5.196   1.025 -0.2444  0.0147  0.2242
 7961SOL    HW231610   5.865   5.211   1.011 -0.7531  1.2415 -2.5064
 7961SOL    HW331611   5.745   5.266   1.085  0.5065 -0.1778  0.7999
 7961SOL    MW431612   5.780   5.208   1.031  0.1380 -0.0066 -0.6446
 7962SOL     OW31613   1.647   1.299   3.800 -0.2275  0.3290  0.1287
 7962SOL    HW231614   1.708   1.227   3.784 -0.5975  0.0674 -0.1091
 7962SOL    HW331615   1.696   1.360   3.855  0.3705  0.2913 -0.3558
 7962SOL    MW431616   1.661   1.297   3.805  0.0207  0.0023  0.4922
 7963SOL     OW31617   0.218   3.869   1.282 -0.0755  0.3108 -0.1423
 7963SOL    HW231618   0.294   3.826   1.323 -0.4362  0.0242  0.2276
 7963SOL    HW331619   0.142   3.827   1.322 -0.4448 -0.1588 -1.2944
 7963SOL    MW431620   0.218   3.857   1.293  0.0158 -0.2012  0.8656
 7964SOL     OW31621   2.404   3.579   4.203 -0.4959 -0.8599 -0.3689
 7964SOL    HW231622   2.374   3.555   4.116  0.9874  0.3453 -1.2578
 7964SOL    HW331623   2.337   3.639   4.236 -0.6293 -0.6336 -1.0440
 7964SOL    MW431624   2.391   3.584   4.196  0.7902  0.2897  0.2555
 7965SOL     OW31625   6.091   1.264   3.157  0.2604  0.0044 -0.6669
 7965SOL    HW231626   6.086   1.359   3.165  2.4252  0.0271  1.4150
 7965SOL    HW331627   6.083   1.247   3.063 -1.8389  2.0624 -0.9436
 7965SOL    MW431628   6.089   1.275   3.146  0.8291 -0.1466  0.2936
 7966SOL     OW31629   1.068   3.094   2.374  0.1390 -0.2684 -0.3992
 7966SOL    HW231630   1.145   3.100   2.431 -0.0529 -0.4538 -0.1168
 7966SOL    HW331631   1.051   3.184   2.346 -0.7537  0.0722  1.1586
 7966SOL    MW431632   1.076   3.107   2.378 -0.0643  0.1718  0.1005
 7967SOL     OW31633   0.263   0.133   1.975 -0.1915 -0.1485  0.0125
 7967SOL    HW231634   0.323   0.059   1.982  1.0012  0.7567 -0.3423
 7967SOL    HW331635   0.288   0.191   2.047  0.4084  0.9559 -1.0502
 7967SOL    MW431636   0.275   0.131   1.986 -0.0699 -0.3946  0.2566
 7968SOL     OW31637   2.766   5.487   1.722  0.6339  0.1242  0.1973
 7968SOL    HW231638   2.813   5.530   1.650  2.2992  1.1611  1.8198
 7968SOL    HW331639   2.690   5.544   1.738  1.6728  1.3496  0.9311
 7968SOL    MW431640   2.762   5.500   1.715  0.0976  0.1914  0.0756
 7969SOL     OW31641   5.898   0.378   1.265  0.1421 -0.4577 -0.0662
 7969SOL    HW231642   5.856   0.462   1.245  0.2455 -0.6892 -1.3397
 7969SOL    HW331643   5.925   0.343   1.180  3.5101 -0.0556  0.6901
 7969SOL    MW431644   5.896   0.384   1.252 -0.4758  0.3357 -0.1117
 7970SOL     OW31645   2.947   1.152   5.086  0.4329 -0.1258 -0.1403
 7970SOL    HW231646   2.991   1.094   5.148  0.7547 -0.9771 -1.1283
 7970SOL    HW331647   2.919   1.094   5.016 -0.3586  0.7422 -0.5612
 7970SOL    MW431648   2.949   1.137   5.085  0.1562 -0.5139  0.3798
 7971SOL     OW31649   2.278   0.665   1.183  0.2611 -0.7591 -0.4640
 7971SOL    HW231650   2.204   0.618   1.144 -0.2386 -0.7748  0.4811
 7971SOL    HW331651   2.328   0.599   1.230 -0.9126 -0.2780  1.5860
 7971SOL    MW431652   2.275   0.650   1.184  0.0494  0.4209  0.2492
 7972SOL     OW31653   2.714   6.279   1.161  0.6354  0.3226 -0.2475
 7972SOL    HW231654   2.776   6.341   1.122  1.1429 -0.4186 -0.6248
 7972SOL    HW331655   2.734   6.195   1.120 -0.4059  0.0073 -0.1331
 7972SOL    MW431656   2.725   6.276   1.151  0.1594 -0.2672  0.0441
 7973SOL     OW31657   0.950   2.808   1.337  0.6168  0.2360 -0.1476
 7973SOL    HW231658   0.961   2.745   1.266 -2.3608  1.2599 -1.6694
 7973SOL    HW331659   0.996   2.887   1.308 -0.5742  0.6435 -0.9801
 7973SOL    MW431660   0.957   2.810   1.324  0.6510  0.1696  0.0901
 7974SOL     OW31661   0.436   2.112   4.514 -0.6215  0.3648  0.0205
 7974SOL    HW231662   0.359   2.113   4.458  0.8100  1.0797 -2.0727
 7974SOL    HW331663   0.462   2.204   4.521  1.0228  0.0258 -0.8739
 7974SOL    MW431664   0.429   2.125   4.507  0.1842  0.1045  0.0412
 7975SOL     OW31665   0.351   0.077   5.812 -0.0764 -0.0263  0.0416
 7975SOL    HW231666   0.444   0.071   5.834 -0.4543  0.0005  1.8069
 7975SOL    HW331667   0.345   0.153   5.754  0.9180  0.3950  0.4657
 7975SOL    MW431668   0.363   0.086   5.807  0.0292  0.1869  0.1568
 7976SOL     OW31669   3.029   1.884   0.506 -0.3322 -0.5531 -0.0793
 7976SOL    HW231670   2.936   1.875   0.483 -0.6013 -0.0590  0.7540
 7976SOL    HW331671   3.033   1.860   0.598  0.5446 -1.5040 -0.3477
 7976SOL    MW431672   3.017   1.880   0.515 -0.2041 -0.1455  0.1855
 7977SOL     OW31673   1.627   3.716   3.671 -0.2005 -0.4117  0.0147
 7977SOL    HW231674   1.654   3.806   3.652 -1.2482 -0.3124 -1.1132
 7977SOL    HW331675   1.692   3.661   3.627 -0.6114 -0.1871 -0.8944
 7977SOL    MW431676   1.639   3.720   3.663  0.6372  0.1543  0.4988
 7978SOL     OW31677   3.649   3.963   1.508  0.0060  0.3621 -0.4612
 7978SOL    HW231678   3.711   4.031   1.534  1.2844 -1.1016  0.5100
 7978SOL    HW331679   3.598   3.946   1.586  0.3313 -0.4170 -0.4049
 7978SOL    MW431680   3.651   3.969   1.522  0.1265 -0.4284  0.4352
 7979SOL     OW31681   1.601   5.176   0.826 -0.2773  0.3809 -0.1713
 7979SOL    HW231682   1.598   5.197   0.919  0.1065 -1.0030  0.1822
 7979SOL    HW331683   1.600   5.080   0.823  1.1213  0.3642 -1.5381
 7979SOL    MW431684   1.600   5.166   0.838 -0.0924  0.1215 -0.0957
 7980SOL     OW31685   3.928   4.920   2.922 -0.2807 -0.0392 -0.0986
 7980SOL    HW231686   3.970   4.989   2.870 -0.5384  0.4388  0.3237
 7980SOL    HW331687   3.964   4.839   2.886 -0.2001  0.2962 -0.8001
 7980SOL    MW431688   3.938   4.919   2.910  0.1411  0.2392  0.5719
 7981SOL     OW31689   5.099   1.766   2.288 -0.7354 -0.1935  0.3414
 7981SOL    HW231690   5.049   1.736   2.212  0.4222 -0.9874 -0.1354
 7981SOL    HW331691   5.096   1.693   2.350 -0.7001 -0.0039  0.5691
 7981SOL    MW431692   5.092   1.753   2.286 -0.1964 -0.6914 -0.2438
 7982SOL     OW31693   1.714   6.200   1.211  0.0756 -0.5827  1.2204
 7982SOL    HW231694   1.646   6.164   1.268 -0.9906 -0.9554 -0.2400
 7982SOL    HW331695   1.727   6.290   1.243 -2.2233  0.0229  0.6061
 7982SOL    MW431696   1.707   6.207   1.223 -0.2431 -0.0315  0.6091
 7983SOL     OW31697   1.864   4.547   6.392 -0.0197  0.2546  0.0217
 7983SOL    HW231698   1.900   4.634   6.411  1.9697 -0.8760  2.0470
 7983SOL    HW331699   1.921   4.487   6.441 -1.5229 -2.1752 -1.0210
 7983SOL    MW431700   1.876   4.551   6.401 -0.2936 -0.4774 -0.4605
 7984SOL     OW31701   4.893   0.689   1.921 -0.7191 -0.6124  0.1632
 7984SOL    HW231702   4.886   0.609   1.869 -2.8067 -0.7175  0.5424
 7984SOL    HW331703   4.891   0.659   2.012 -2.3863 -0.1003  0.3164
 7984SOL    MW431704   4.892   0.674   1.926 -0.6201  0.0451  0.5679
 7985SOL     OW31705   4.267   5.307   5.573  0.0297  0.2430 -0.5254
 7985SOL    HW231706   4.238   5.350   5.654  0.4425  0.4671 -0.4971
 7985SOL    HW331707   4.357   5.281   5.590  0.6741  1.7318 -1.4801
 7985SOL    MW431708   4.275   5.310   5.586 -0.1887 -0.1856 -0.5109
 7986SOL     OW31709   5.041   4.791   5.374  0.3042  0.5638  0.1680
 7986SOL    HW231710   5.108   4.766   5.310 -1.3152 -3.5764 -0.1843
 7986SOL    HW331711   5.085   4.782   5.459  0.5776 -0.9272 -0.1031
 7986SOL    MW431712   5.056   4.787   5.376  0.0403  0.3353  0.0681
 7987SOL     OW31713   1.810   2.106   6.279  0.2173 -0.0983 -0.0253
 7987SOL    HW231714   1.748   2.164   6.324  1.0229  1.2589 -0.5922
 7987SOL    HW331715   1.884   2.098   6.340 -0.1578 -1.0936  0.3264
 7987SOL    MW431716   1.811   2.113   6.293 -0.1289 -0.0939 -0.1693
 7988SOL     OW31717   3.720   3.085   3.014 -0.7875  0.1623  0.1546
 7988SOL    HW231718   3.669   3.030   2.954  0.7945 -1.6606  0.4140
 7988SOL    HW331719   3.811   3.071   2.988 -0.0533 -0.5893  2.8310
 7988SOL    MW431720   3.725   3.076   3.002  0.3845 -0.1471  0.3447
 7989SOL     OW31721   2.046   0.643   3.451 -0.1711  0.2972  1.1235
 7989SOL    HW231722   1.963   0.643   3.404  0.2485  0.6183  0.3616
 7989SOL    HW331723   2.112   0.624   3.384  0.3385 -0.3393  1.7863
 7989SOL    MW431724   2.044   0.640   3.436  0.7879  0.1214 -0.5368
 7990SOL     OW31725   2.464   2.998   2.916  0.0702  0.1521  0.0084
 7990SOL    HW231726   2.482   2.962   2.829  0.3056  0.3411 -0.0217
 7990SOL    HW331727   2.537   2.968   2.970 -0.3133 -0.3611  0.2605
 7990SOL    MW431728   2.476   2.989   2.912 -0.1580 -0.1346  0.6367
 7991SOL     OW31729   4.671   6.107   2.599 -0.6996  0.4342  0.1803
 7991SOL    HW231730   4.729   6.074   2.531 -0.1201  0.4874  0.6358
 7991SOL    HW331731   4.584   6.072   2.577 -0.2462 -0.7423  0.2184
 7991SOL    MW431732   4.667   6.098   2.587 -0.0229 -0.4737 -0.0754
 7992SOL     OW31733   3.942   5.054   5.308 -0.7787  0.1154  0.4203
 7992SOL    HW231734   4.024   5.044   5.260 -0.3136  1.9569  0.7640
 7992SOL    HW331735   3.876   5.012   5.252  0.3018 -0.9262 -0.0984
 7992SOL    MW431736   3.944   5.047   5.294 -0.0756 -0.3161 -0.2626
 7993SOL     OW31737   6.333   4.126   1.719 -0.6258  0.3999  0.5330
 7993SOL    HW231738   6.280   4.146   1.642  1.8347  0.4474 -1.2617
 7993SOL    HW331739   6.423   4.132   1.688  0.4358 -1.9694  2.8302
 7993SOL    MW431740   6.337   4.129   1.705 -0.5733  0.3794 -0.4471
 7994SOL     OW31741   1.512   2.543   2.688 -0.0662  0.1527  0.6553
 7994SOL    HW231742   1.527   2.555   2.782 -0.2406  1.5189  0.5350
 7994SOL    HW331743   1.574   2.604   2.647  0.9725 -1.3970 -0.1842
 7994SOL    MW431744   1.522   2.553   2.695  0.7181  0.6438  0.1961
 7995SOL     OW31745   2.217   0.986   2.051  0.3892  0.0581 -0.3831
 7995SOL    HW231746   2.206   1.079   2.030 -0.3634  0.1434  0.3230
 7995SOL    HW331747   2.199   0.941   1.968 -1.4266  0.4382 -0.2391
 7995SOL    MW431748   2.213   0.992   2.037 -0.0516  0.1132  0.1956
 7996SOL     OW31749   3.165   3.220   0.449 -0.0319 -0.9817  0.4685
 7996SOL    HW231750   3.217   3.140   0.440  1.1491 -0.4795  2.3985
 7996SOL    HW331751   3.110   3.205   0.526 -0.9894 -0.5427 -0.1120
 7996SOL    MW431752   3.165   3.207   0.458 -0.2427  0.0380  0.1185
 7997SOL     OW31753   1.798   4.861   5.443 -1.1610  0.4650 -0.1845
 7997SOL    HW231754   1.742   4.845   5.367  0.1082 -3.4038 -0.5588
 7997SOL    HW331755   1.885   4.877   5.405 -0.6245 -0.9637  0.3799
 7997SOL    MW431756   1.802   4.861   5.428  0.2893 -0.6457  0.0434
 7998SOL     OW31757   5.739   1.744   0.505 -0.1468  0.1836  0.0197
 7998SOL    HW231758   5.715   1.832   0.535  0.7199  0.3686  0.1865
 7998SOL    HW331759   5.658   1.709   0.468 -0.8668  0.5145  1.2378
 7998SOL    MW431760   5.725   1.751   0.504 -0.2312 -0.3571  0.2883
 7999SOL     OW31761   3.606   2.992   3.732 -0.4096 -0.4466  0.4485
 7999SOL    HW231762   3.538   3.037   3.683 -0.6069 -1.2613 -0.0447
 7999SOL    HW331763   3.560   2.948   3.803 -0.0190  1.5082  2.0010
 7999SOL    MW431764   3.591   2.992   3.735 -0.2415 -0.1769 -0.6687
 8000SOL     OW31765   5.471   2.164   0.730  0.4074 -0.5237 -0.2437
 8000SOL    HW231766   5.402   2.100   0.711 -1.5758  1.0544  1.2051
 8000SOL    HW331767   5.454   2.236   0.669 -0.6718  0.8102  1.5087
 8000SOL    MW431768   5.459   2.165   0.719 -0.1185 -0.3104  0.1856
 8001SOL     OW31769   3.668   5.832   1.158  0.2503 -0.5839  0.2125
 8001SOL    HW231770   3.729   5.807   1.088 -0.7366 -1.2667 -0.4250
 8001SOL    HW331771   3.618   5.753   1.175  0.0295 -0.2340  1.2469
 8001SOL    MW431772   3.669   5.818   1.151 -0.6148  0.1710 -0.3762
 8002SOL     OW31773   1.044   5.718   1.315 -0.5114 -0.0147 -0.7606
 8002SOL    HW231774   1.032   5.625   1.332  1.2060 -0.0202  0.8275
 8002SOL    HW331775   1.114   5.723   1.250  1.6124  0.1059  1.3824
 8002SOL    MW431776   1.052   5.706   1.309 -0.0302 -0.2185  0.2897
 8003SOL     OW31777   2.695   3.892   3.177  0.4151 -0.5944  0.0613
 8003SOL    HW231778   2.669   3.896   3.269  0.5462 -0.2026  0.0853
 8003SOL    HW331779   2.618   3.861   3.131 -0.8256  2.4266 -0.1387
 8003SOL    MW431780   2.682   3.889   3.183 -0.1023 -0.0209 -0.1089
 8004SOL     OW31781   2.255   5.884   5.654  0.3094 -0.0368  0.5933
 8004SOL    HW231782   2.320   5.923   5.595  0.4225  0.0756  0.7901
 8004SOL    HW331783   2.172   5.894   5.607 -0.0098  2.3776  1.4892
 8004SOL    MW431784   2.253   5.891   5.640  0.1842  0.4328 -0.7769
 8005SOL     OW31785   0.482   0.564   1.157  0.2114  0.2580  0.4763
 8005SOL    HW231786   0.432   0.645   1.171 -0.8223 -0.5275  1.4835
 8005SOL    HW331787   0.492   0.527   1.244  0.9766 -0.5443  0.0602
 8005SOL    MW431788   0.477   0.570   1.170  0.4583 -0.1803  0.0278
 8006SOL     OW31789   2.278   2.149   5.417 -0.5804 -0.3538  0.0180
 8006SOL    HW231790   2.340   2.217   5.444  0.4168 -1.9740  2.0640
 8006SOL    HW331791   2.192   2.186   5.441 -0.2218  0.8161 -0.4028
 8006SOL    MW431792   2.275   2.163   5.424  0.2777  0.4270  0.2944
 8007SOL     OW31793   0.072   2.721   1.751 -0.3568 -0.1040  0.4665
 8007SOL    HW231794   0.126   2.753   1.679 -0.3880 -0.8057  0.1230
 8007SOL    HW331795   0.112   2.637   1.776 -1.2830 -0.6433  0.1881
 8007SOL    MW431796   0.084   2.714   1.745 -0.3667 -0.2787  0.2552
 8008SOL     OW31797   1.624   2.628   1.112 -0.3057 -0.3661  0.4496
 8008SOL    HW231798   1.549   2.678   1.144  0.0098  1.8932 -1.9599
 8008SOL    HW331799   1.590   2.579   1.037 -0.1098 -2.1744  1.4894
 8008SOL    MW431800   1.610   2.628   1.106 -0.0314  0.1906 -0.4414
 8009SOL     OW31801   4.874   2.616   6.291  0.4620 -0.1389 -0.2272
 8009SOL    HW231802   4.804   2.563   6.329 -0.3424 -0.8083 -2.4844
 8009SOL    HW331803   4.828   2.676   6.232  1.6200  1.0994  0.0886
 8009SOL    MW431804   4.859   2.617   6.288  0.5521  0.1651 -0.0999
 8010SOL     OW31805   6.057   3.649   0.297  0.6901 -0.0217  0.2255
 8010SOL    HW231806   6.115   3.585   0.338  1.5150  0.8057  0.3941
 8010SOL    HW331807   5.975   3.602   0.282  1.4716 -1.2926 -0.2199
 8010SOL    MW431808   6.054   3.634   0.301  0.2799 -0.6743 -0.4329
 8011SOL     OW31809   5.874   1.797   3.597 -0.3255  0.4706  0.6563
 8011SOL    HW231810   5.945   1.826   3.655 -0.2592  0.5212  0.5494
 8011SOL    HW331811   5.904   1.712   3.564  0.5720  1.3791 -0.9314
 8011SOL    MW431812   5.887   1.790   3.600 -0.7559  0.3874 -0.4928
 8012SOL     OW31813   3.052   3.724   2.228  0.5664 -0.6284  0.0948
 8012SOL    HW231814   2.997   3.790   2.270  1.6177 -0.4062  1.1644
 8012SOL    HW331815   3.025   3.641   2.267 -0.3370 -0.7881 -0.8136
 8012SOL    MW431816   3.041   3.722   2.239  0.0511 -0.0200  0.3841
 8013SOL     OW31817   5.225   3.453   0.520 -0.5856  0.0564  0.9992
 8013SOL    HW231818   5.179   3.392   0.577  1.9967 -1.3744  1.7192
 8013SOL    HW331819   5.237   3.406   0.438  1.6620 -0.6297  1.6508
 8013SOL    MW431820   5.220   3.439   0.517 -0.1566 -0.4241  0.4569
 8014SOL     OW31821   0.389   1.906   4.085 -0.6737 -0.2872  0.6784
 8014SOL    HW231822   0.446   1.970   4.127  1.5639 -3.5563  3.1899
 8014SOL    HW331823   0.419   1.903   3.994  0.1598  1.1514  0.8799
 8014SOL    MW431824   0.400   1.914   4.078 -0.0408  0.3175  0.2480
 8015SOL     OW31825   4.703   5.775   2.111 -0.1151  0.1486  0.3090
 8015SOL    HW231826   4.785   5.761   2.157 -0.4226  1.9758  1.4762
 8015SOL    HW331827   4.705   5.866   2.082 -0.1134 -0.7822 -3.0530
 8015SOL    MW431828   4.714   5.785   2.113 -0.5091 -0.1842  0.3655
 8016SOL     OW31829   5.167   5.416   5.450 -0.5332 -0.1909 -0.6293
 8016SOL    HW231830   5.126   5.330   5.439 -3.7194  1.1799 -0.6788
 8016SOL    HW331831   5.181   5.425   5.544 -0.1242 -0.7513 -0.6297
 8016SOL    MW431832   5.163   5.405   5.461  0.4956 -0.7159  0.0486
 8017SOL     OW31833   0.592   4.371   4.102 -0.6813  0.0026 -0.2071
 8017SOL    HW231834   0.550   4.421   4.031 -0.6386  1.5018  0.7671
 8017SOL    HW331835   0.657   4.317   4.058 -1.4351  0.0291 -1.4226
 8017SOL    MW431836   0.595   4.371   4.086 -0.6642  0.0229  0.0335
 8018SOL     OW31837   0.962   4.602   0.178  0.0958  0.0848 -0.1327
 8018SOL    HW231838   1.050   4.640   0.171 -0.3478  1.0878 -0.4224
 8018SOL    HW331839   0.976   4.517   0.220  1.1302  0.5393  0.4869
 8018SOL    MW431840   0.975   4.596   0.183 -0.4422 -0.3077  0.1008
 8019SOL     OW31841   3.559   5.044   1.241 -0.3258  0.5721  0.1245
 8019SOL    HW231842   3.591   5.006   1.159  2.5360  3.3161 -0.2336
 8019SOL    HW331843   3.495   5.109   1.213 -0.7049  0.2468  0.2321
 8019SOL    MW431844   3.555   5.047   1.226  0.1805  0.2308 -0.2420
 8020SOL     OW31845   3.290   0.886   0.199 -0.2234  0.1269 -0.2491
 8020SOL    HW231846   3.275   0.935   0.279  0.5594 -0.0551  0.0107
 8020SOL    HW331847   3.373   0.919   0.164 -0.6070  0.2847 -1.0452
 8020SOL    MW431848   3.299   0.897   0.205 -0.9553 -0.7337  0.0617
 8021SOL     OW31849   2.054   1.668   0.318 -0.4671  0.3965  0.1823
 8021SOL    HW231850   2.005   1.743   0.286 -0.7798  0.8799  1.7222
 8021SOL    HW331851   2.115   1.704   0.382 -0.9901 -0.7106  1.3529
 8021SOL    MW431852   2.056   1.682   0.322 -0.2552 -0.3633  0.1738
 8022SOL     OW31853   4.855   5.176   1.405  0.6865  0.2289 -0.4546
 8022SOL    HW231854   4.949   5.181   1.386  0.5039  0.5168 -1.3285
 8022SOL    HW331855   4.844   5.094   1.453  1.6208  0.9881  1.1310
 8022SOL    MW431856   4.866   5.166   1.409  0.6710 -0.2483 -0.8985
 8023SOL     OW31857   1.355   5.635   5.616 -0.6088  0.0949 -0.4936
 8023SOL    HW231858   1.348   5.636   5.712  0.5910  1.1115 -0.3875
 8023SOL    HW331859   1.304   5.559   5.589  0.5428 -1.3129  1.0972
 8023SOL    MW431860   1.347   5.625   5.625  0.2818  0.3613 -0.2997
 8024SOL     OW31861   2.105   0.980   2.305 -0.6203  0.7572  0.2675
 8024SOL    HW231862   2.161   0.970   2.228 -0.1342  0.7262  0.6281
 8024SOL    HW331863   2.163   0.968   2.380 -0.8818  1.8206  0.6619
 8024SOL    MW431864   2.120   0.977   2.304  0.4086  0.2463 -0.2430
 8025SOL     OW31865   4.318   5.607   3.608 -0.5314  0.6500 -0.0011
 8025SOL    HW231866   4.243   5.549   3.623 -0.3587  0.6075  0.7011
 8025SOL    HW331867   4.377   5.556   3.553 -1.0012  0.6761 -0.5406
 8025SOL    MW431868   4.316   5.593   3.603 -0.5307  0.2555  0.2324
 8026SOL     OW31869   0.289   3.268   0.292  0.4906 -0.0678 -0.0442
 8026SOL    HW231870   0.309   3.349   0.244 -0.5032 -0.4097 -1.0728
 8026SOL    HW331871   0.374   3.238   0.324  0.8664  1.4520  0.4908
 8026SOL    MW431872   0.303   3.275   0.290 -0.5973  0.3523  0.1123
 8027SOL     OW31873   0.810   2.307   4.566 -0.5856  0.2259 -0.2197
 8027SOL    HW231874   0.858   2.227   4.589 -0.7015 -0.3023 -1.6662
 8027SOL    HW331875   0.878   2.369   4.540 -0.6102 -0.5955 -2.4865
 8027SOL    MW431876   0.825   2.305   4.565  0.2244 -0.2901  0.3446
 8028SOL     OW31877   1.463   1.602   3.052 -0.2538 -0.1980  0.4497
 8028SOL    HW231878   1.417   1.550   2.986 -0.8405  0.0094  0.6845
 8028SOL    HW331879   1.406   1.677   3.066 -0.2324 -0.3382  1.3312
 8028SOL    MW431880   1.449   1.605   3.045 -0.2873 -0.3611 -0.0550
 8029SOL     OW31881   4.561   2.297   3.515 -0.3306  0.2948 -0.3980
 8029SOL    HW231882   4.614   2.221   3.541  0.3064  1.0038  0.4245
 8029SOL    HW331883   4.513   2.267   3.438  0.3466 -0.7620 -0.4299
 8029SOL    MW431884   4.562   2.283   3.508  0.3491 -0.5384 -0.2652
 8030SOL     OW31885   4.202   1.965   2.217  0.1849  0.4858  0.3707
 8030SOL    HW231886   4.230   2.056   2.208 -0.8229  0.7057 -0.8663
 8030SOL    HW331887   4.255   1.931   2.289 -0.0982  2.3259  1.5286
 8030SOL    MW431888   4.213   1.973   2.226 -0.1043 -0.2914 -0.5546
 8031SOL     OW31889   2.104   2.837   4.693 -0.1907 -0.4401  0.1633
 8031SOL    HW231890   2.028   2.811   4.745  0.0630  0.2859  0.9154
 8031SOL    HW331891   2.075   2.826   4.602 -1.1813 -0.2008  0.4357
 8031SOL    MW431892   2.090   2.832   4.687 -0.1127  0.0699  0.4260
 8032SOL     OW31893   1.963   5.174   5.596  0.0226 -0.5998  0.4160
 8032SOL    HW231894   1.914   5.226   5.659  1.3947 -0.0309  1.0402
 8032SOL    HW331895   1.944   5.083   5.619  0.2542 -0.3935  1.4428
 8032SOL    MW431896   1.954   5.168   5.607  0.3999 -0.1023 -0.3201
 8033SOL     OW31897   5.915   1.319   3.680  0.1512  0.3252 -0.2546
 8033SOL    HW231898   5.999   1.355   3.711  1.2526  1.4990 -4.0878
 8033SOL    HW331899   5.929   1.224   3.681  0.5616  0.3711  1.4902
 8033SOL    MW431900   5.928   1.311   3.684 -0.9666  0.4784  0.4095
 8034SOL     OW31901   4.153   3.905   3.022  0.2640 -1.2079 -0.4476
 8034SOL    HW231902   4.208   3.912   2.944  1.0897  0.6954  0.2528
 8034SOL    HW331903   4.130   3.812   3.025 -0.4106 -1.2427 -3.3253
 8034SOL    MW431904   4.157   3.894   3.012  0.0653 -0.2987 -0.3688
 8035SOL     OW31905   1.226   0.904   0.831  0.3904 -0.4856 -0.1747
 8035SOL    HW231906   1.150   0.942   0.788  0.8776  0.6210 -0.0797
 8035SOL    HW331907   1.218   0.932   0.922  0.6451 -0.7905 -0.0582
 8035SOL    MW431908   1.215   0.913   0.837 -0.6941  0.2210  0.1206
 8036SOL     OW31909   1.715   0.614   6.202  0.2687  0.1840  0.2710
 8036SOL    HW231910   1.649   0.664   6.250  1.0565  1.0678  0.4683
 8036SOL    HW331911   1.702   0.641   6.111  0.3869  0.4007  0.3170
 8036SOL    MW431912   1.704   0.624   6.196  0.4210 -0.0496  0.2604
 8037SOL     OW31913   6.041   0.436   5.750 -0.2072 -0.0033 -0.0920
 8037SOL    HW231914   6.083   0.520   5.770 -0.3036 -0.3100  1.5489
 8037SOL    HW331915   6.024   0.397   5.836  0.4714 -2.0224 -0.8107
 8037SOL    MW431916   6.044   0.442   5.764  0.0053  0.0529 -0.3915
 8038SOL     OW31917   5.969   2.023   0.990  0.5241 -0.2355 -0.3956
 8038SOL    HW231918   6.049   1.972   1.004  1.2442  0.3816 -2.0023
 8038SOL    HW331919   5.906   1.959   0.956  0.5118 -0.5964  0.2811
 8038SOL    MW431920   5.971   2.008   0.987 -0.1106 -0.4838 -0.4726
 8039SOL     OW31921   3.591   1.419   0.647 -0.0029  0.3026 -0.5345
 8039SOL    HW231922   3.580   1.513   0.654 -0.6348  0.1918  0.0143
 8039SOL    HW331923   3.518   1.390   0.591 -0.2400  0.0507 -0.1004
 8039SOL    MW431924   3.580   1.427   0.640  0.5305 -0.5433  0.4954
 8040SOL     OW31925   1.089   5.488   6.265 -0.9701 -0.1362 -0.4299
 8040SOL    HW231926   1.029   5.437   6.319  1.3259  0.2148  2.7169
 8040SOL    HW331927   1.158   5.427   6.241  0.0929  0.6276  0.5500
 8040SOL    MW431928   1.090   5.473   6.269 -1.0662 -0.0064  0.2306
 8041SOL     OW31929   4.090   3.207   4.462  0.0722 -0.3232 -0.3981
 8041SOL    HW231930   4.033   3.252   4.524 -0.7908  0.2112 -1.5388
 8041SOL    HW331931   4.177   3.210   4.502 -0.4184  0.2105  0.6620
 8041SOL    MW431932   4.094   3.213   4.476  0.4123 -0.0162 -0.5883
 8042SOL     OW31933   4.269   4.661   4.210 -0.4072  0.0122 -0.1011
 8042SOL    HW231934   4.267   4.570   4.182  1.6138 -0.1214  0.0261
 8042SOL    HW331935   4.304   4.709   4.135 -1.1973  0.6550 -0.0746
 8042SOL    MW431936   4.274   4.655   4.197  0.2229  0.6684 -0.4101
 8043SOL     OW31937   5.937   2.927   4.991 -0.1600  0.3509  0.1569
 8043SOL    HW231938   6.011   2.925   4.930  0.2242  2.3252  0.4961
 8043SOL    HW331939   5.870   2.873   4.949  1.1609 -0.8016 -0.5507
 8043SOL    MW431940   5.938   2.919   4.977  0.1045  0.0820 -0.6395
 8044SOL     OW31941   5.062   2.762   3.847 -0.2413 -0.4919  0.5506
 8044SOL    HW231942   5.050   2.747   3.941 -0.1750 -0.0485  0.6288
 8044SOL    HW331943   5.119   2.838   3.842 -0.1937 -0.5533  0.1487
 8044SOL    MW431944   5.068   2.770   3.859  0.4675 -0.5913  0.3693
 8045SOL     OW31945   1.961   3.223   1.077 -0.2339 -0.0409  0.1260
 8045SOL    HW231946   2.050   3.223   1.112  0.5078 -0.2587 -1.6565
 8045SOL    HW331947   1.924   3.307   1.106  0.6559  0.1926  0.6142
 8045SOL    MW431948   1.968   3.234   1.085  0.5279 -0.2596 -0.8560
 8046SOL     OW31949   4.170   5.221   0.132  0.1349 -0.2242 -0.2960
 8046SOL    HW231950   4.191   5.169   0.210 -1.5381  0.3436  0.5779
 8046SOL    HW331951   4.255   5.237   0.090  0.7564 -3.7129 -0.6825
 8046SOL    MW431952   4.184   5.216   0.137 -0.1788  0.1740  0.1098
 8047SOL     OW31953   4.820   2.791   1.450  0.5569 -0.1577 -0.0180
 8047SOL    HW231954   4.886   2.821   1.388 -1.4276  1.8246 -1.3146
 8047SOL    HW331955   4.777   2.871   1.480 -1.3695 -1.3628  0.6303
 8047SOL    MW431956   4.823   2.805   1.446  0.7244 -0.2831 -0.2976
 8048SOL     OW31957   0.223   5.565   0.285  0.0452 -0.1704 -0.4417
 8048SOL    HW231958   0.288   5.592   0.221 -0.2609  0.9678 -0.2970
 8048SOL    HW331959   0.260   5.591   0.370  0.2715 -1.3016 -0.1808
 8048SOL    MW431960   0.236   5.572   0.288  0.0513 -0.1232  0.7640
 8049SOL     OW31961   0.976   1.043   3.243  0.0037  0.4042 -0.1489
 8049SOL    HW231962   0.997   1.079   3.157 -1.1053  1.9843  0.2038
 8049SOL    HW331963   0.897   0.991   3.229  0.8594 -0.8910 -0.3986
 8049SOL    MW431964   0.969   1.041   3.230 -0.0506 -0.2631 -0.7153
 8050SOL     OW31965   0.137   0.825   6.192  0.0736  0.2609 -0.7542
 8050SOL    HW231966   0.062   0.807   6.135  0.5525 -0.2363 -1.2396
 8050SOL    HW331967   0.135   0.754   6.257  0.5687 -0.2022 -1.2347
 8050SOL    MW431968   0.127   0.813   6.193 -0.1031  0.1925 -0.5733
 8051SOL     OW31969   0.651   1.266   2.956 -0.3384 -0.1490  0.2226
 8051SOL    HW231970   0.646   1.173   2.975 -1.7630 -0.1543 -0.0545
 8051SOL    HW331971   0.601   1.277   2.876 -0.5955  0.9143  0.5065
 8051SOL    MW431972   0.644   1.255   2.948 -0.5100 -0.6027 -0.1256
 8052SOL     OW31973   2.505   5.226   4.063  0.3804 -0.0851  0.1020
 8052SOL    HW231974   2.549   5.197   3.983  1.1167 -0.1979  0.5378
 8052SOL    HW331975   2.424   5.174   4.066  0.4293 -0.2015 -0.4763
 8052SOL    MW431976   2.500   5.215   4.053  0.0037  0.2233  0.5563
 8053SOL     OW31977   3.884   2.492   1.024 -0.1044  0.5885  0.0902
 8053SOL    HW231978   3.934   2.417   1.057 -0.2889  0.1741 -0.5470
 8053SOL    HW331979   3.919   2.507   0.936 -1.0940  0.2839 -0.3683
 8053SOL    MW431980   3.895   2.484   1.016  0.0976 -0.0554  0.0562
 8054SOL     OW31981   0.867   1.677   5.255  0.2348 -0.2029 -0.1588
 8054SOL    HW231982   0.937   1.736   5.226 -0.2143 -0.3648 -1.6604
 8054SOL    HW331983   0.884   1.663   5.348  0.7345  1.7707  0.0973
 8054SOL    MW431984   0.878   1.683   5.263 -0.2075  0.8046  0.1992
 8055SOL     OW31985   0.928   1.218   0.055 -0.5496 -0.2341 -0.2454
 8055SOL    HW231986   0.987   1.293   0.055 -1.0198  0.2242  2.2996
 8055SOL    HW331987   0.848   1.249   0.098 -0.8768 -2.0452  0.5893
 8055SOL    MW431988   0.925   1.232   0.061  0.4178  0.0049 -0.4736
 8056SOL     OW31989   6.185   2.758   4.478 -0.8820  0.0549  0.3545
 8056SOL    HW231990   6.092   2.765   4.500 -1.8618 -0.6941 -2.9976
 8056SOL    HW331991   6.211   2.848   4.458 -1.4180  0.0353 -0.4694
 8056SOL    MW431992   6.176   2.771   4.478  0.2638 -0.4456  0.3570
 8057SOL     OW31993   5.425   3.992   4.295  0.4039 -0.1945 -0.1267
 8057SOL    HW231994   5.369   4.070   4.306 -0.0276 -0.5474  0.2253
 8057SOL    HW331995   5.486   4.016   4.225  1.0201  0.8875  0.7414
 8057SOL    MW431996   5.426   4.006   4.287 -0.6331  0.7372 -0.3827
 8058SOL     OW31997   6.271   4.658   3.352 -0.3701  0.4640 -0.0031
 8058SOL    HW231998   6.334   4.728   3.335  0.9588 -1.2821 -3.2702
 8058SOL    HW331999   6.202   4.672   3.287  1.6023 -2.8723 -3.2597
 8058SOL    MW432000   6.270   4.669   3.341  0.5291 -0.2504  0.3597
 8059SOL     OW32001   0.343   4.020   1.074  0.0531 -0.3797  0.6690
 8059SOL    HW232002   0.428   3.978   1.063 -0.6681 -1.6165 -0.6074
 8059SOL    HW332003   0.292   3.959   1.126 -0.1382  0.2734  1.2730
 8059SOL    MW432004   0.348   4.007   1.079 -0.0696  0.1100  0.4618
 8060SOL     OW32005   3.058   1.786   4.660  0.3111 -0.0475  0.1017
 8060SOL    HW232006   3.136   1.752   4.703 -0.3698 -1.5907  0.2138
 8060SOL    HW332007   3.074   1.772   4.567 -0.1688 -1.1985  0.1758
 8060SOL    MW432008   3.070   1.779   4.653  0.1643 -0.1807  0.9847
 8061SOL     OW32009   5.456   2.668   1.821  0.0232  0.6814  0.4015
 8061SOL    HW232010   5.520   2.604   1.790 -2.3830 -1.3777 -0.7544
 8061SOL    HW332011   5.463   2.664   1.916  1.7366  0.7242  0.3096
 8061SOL    MW432012   5.465   2.659   1.829  0.1112 -0.4253  0.2481
 8062SOL     OW32013   1.434   0.294   5.488  0.1413 -0.0509  0.0318
 8062SOL    HW232014   1.502   0.241   5.529  0.5926  0.7612  0.3505
 8062SOL    HW332015   1.360   0.289   5.549 -0.1174 -0.9668 -0.3361
 8062SOL    MW432016   1.433   0.286   5.501  0.2668 -0.3859  1.1947
 8063SOL     OW32017   4.535   0.315   0.911 -0.4249 -0.8267  0.1535
 8063SOL    HW232018   4.518   0.248   0.978  1.6501 -2.0722 -0.4640
 8063SOL    HW332019   4.476   0.292   0.839 -1.9583 -0.0742  1.1375
 8063SOL    MW432020   4.525   0.303   0.910  0.1286 -0.3538 -0.1381
 8064SOL     OW32021   0.784   4.924   1.647  0.1237  0.3808  0.2031
 8064SOL    HW232022   0.857   4.969   1.605  1.1937 -0.9141  0.5959
 8064SOL    HW332023   0.820   4.889   1.729  0.5360 -4.3728 -1.7076
 8064SOL    MW432024   0.798   4.925   1.653 -0.5050 -0.1758  0.3506
 8065SOL     OW32025   1.899   3.967   4.144  0.1927 -0.0442  0.5088
 8065SOL    HW232026   1.961   3.959   4.072 -1.4940  3.9877 -1.7243
 8065SOL    HW332027   1.934   4.038   4.198 -0.1977 -0.8702  1.8982
 8065SOL    MW432028   1.912   3.975   4.142 -0.1343  0.4863 -0.4546
 8066SOL     OW32029   2.948   4.087   0.051  0.0030  0.4162  0.1572
 8066SOL    HW232030   2.882   4.030   0.091  1.2998 -1.3161 -0.0027
 8066SOL    HW332031   2.921   4.176   0.073 -0.7104 -0.3617  2.7685
 8066SOL    MW432032   2.936   4.091   0.060 -0.3123 -0.1629  0.0591
 8067SOL     OW32033   2.805   6.266   3.940 -0.0701 -0.1797  0.0162
 8067SOL    HW232034   2.774   6.357   3.934  0.3107 -0.0818 -0.5878
 8067SOL    HW332035   2.900   6.274   3.949 -0.0064 -0.5244 -0.3361
 8067SOL    MW432036   2.814   6.279   3.940 -0.0541 -0.0451 -0.2866
 8068SOL     OW32037   3.132   0.519   4.955 -0.0526 -1.0139 -0.0525
 8068SOL    HW232038   3.202   0.500   4.893  1.7066  1.6573  0.9142
 8068SOL    HW332039   3.173   0.511   5.041 -1.1557 -0.1362  0.5867
 8068SOL    MW432040   3.146   0.515   4.958 -0.4334  0.0909  0.0133
 8069SOL     OW32041   3.058   3.841   2.997 -0.3076 -0.6376  0.4339
 8069SOL    HW232042   3.134   3.855   3.055 -0.3611 -1.4703  0.7181
 8069SOL    HW332043   3.037   3.929   2.964  0.5942 -0.3499  0.5833
 8069SOL    MW432044   3.066   3.855   3.001 -0.0779  0.2019 -0.2444
 8070SOL     OW32045   5.575   0.860   6.136 -0.1551  0.0156  0.2990
 8070SOL    HW232046   5.567   0.943   6.184 -1.1804 -0.1401  0.4161
 8070SOL    HW332047   5.563   0.884   6.044 -0.1845  0.0312  0.3069
 8070SOL    MW432048   5.572   0.875   6.130 -0.3412  0.1668  0.3623
 8071SOL     OW32049   5.490   5.689   2.285 -0.1890  0.0498  0.6223
 8071SOL    HW232050   5.462   5.708   2.195  1.6033 -1.2431 -0.2960
 8071SOL    HW332051   5.557   5.755   2.303  1.2383 -1.1491 -0.0120
 8071SOL    MW432052   5.495   5.700   2.275 -0.7401 -0.1042 -0.3826
 8072SOL     OW32053   5.741   2.357   0.733 -0.3457  0.0493  0.2576
 8072SOL    HW232054   5.816   2.298   0.741 -0.5488 -0.5061 -1.6037
 8072SOL    HW332055   5.674   2.319   0.790  0.4603  0.0838  1.2710
 8072SOL    MW432056   5.742   2.344   0.742 -0.5204  0.5086  0.0332
 8073SOL     OW32057   3.427   1.200   3.666 -0.0325 -0.0467  0.6450
 8073SOL    HW232058   3.453   1.144   3.593 -1.2648 -1.0518  0.9442
 8073SOL    HW332059   3.479   1.280   3.655  2.1820 -1.4163  0.5037
 8073SOL    MW432060   3.437   1.203   3.655  0.0644 -0.0637 -0.2823
 8074SOL     OW32061   6.211   2.235   1.274  0.0045 -0.1535  0.3986
 8074SOL    HW232062   6.249   2.322   1.261 -0.2613  0.2014  1.8045
 8074SOL    HW332063   6.223   2.218   1.367  0.8609 -2.0165 -0.0091
 8074SOL    MW432064   6.218   2.244   1.285  0.0932 -0.5556  0.2895
 8075SOL     OW32065   1.780   0.514   5.701 -0.4166  0.6983 -0.1635
 8075SOL    HW232066   1.710   0.502   5.766  0.1085  0.4370  0.3606
 8075SOL    HW332067   1.850   0.558   5.749 -0.1156  0.7217 -0.6214
 8075SOL    MW432068   1.780   0.518   5.716 -0.2575 -0.1247 -0.4246
 8076SOL     OW32069   6.218   3.925   4.612 -0.5352  0.5283  0.5516
 8076SOL    HW232070   6.281   3.868   4.655 -2.0730 -1.5848  0.1760
 8076SOL    HW332071   6.194   3.990   4.679  2.1394  1.5570  0.6114
 8076SOL    MW432072   6.223   3.926   4.627  0.0755  0.1119  0.3669
 8077SOL     OW32073   5.703   0.117   4.107 -0.3052  0.0433 -0.0333
 8077SOL    HW232074   5.609   0.101   4.112 -0.2098 -0.6813 -0.4602
 8077SOL    HW332075   5.719   0.139   4.015 -0.1454  0.8100  0.1645
 8077SOL    MW432076   5.693   0.118   4.095  0.2515 -0.0048 -0.1618
 8078SOL     OW32077   3.656   2.536   2.185 -0.1785 -0.3359  0.8305
 8078SOL    HW232078   3.725   2.597   2.210  0.2581 -0.2202 -0.5567
 8078SOL    HW332079   3.681   2.506   2.098 -1.0066 -1.5955  0.9904
 8078SOL    MW432080   3.668   2.540   2.177 -0.0217  0.3069 -0.2561
 8079SOL     OW32081   0.883   3.997   0.639 -0.2969  0.1535 -0.9365
 8079SOL    HW232082   0.813   3.989   0.575 -0.4910  0.2979 -0.7404
 8079SOL    HW332083   0.871   4.083   0.679  0.3028  0.4038 -1.2739
 8079SOL    MW432084   0.872   4.007   0.636 -0.0323 -0.2490  0.6325
 8080SOL     OW32085   1.148   2.741   3.485 -0.0804  0.1189 -0.2180
 8080SOL    HW232086   1.080   2.779   3.429 -1.1324  0.1104  1.0160
 8080SOL    HW332087   1.117   2.756   3.574  1.4132 -0.1366  0.3768
 8080SOL    MW432088   1.135   2.748   3.490 -0.2178 -0.9657  0.0478
 8081SOL     OW32089   2.536   0.744   3.213 -0.2441  0.1112 -0.5208
 8081SOL    HW232090   2.493   0.702   3.287  1.3223 -0.7825 -0.0670
 8081SOL    HW332091   2.567   0.828   3.248  0.2021 -0.1639 -0.2507
 8081SOL    MW432092   2.535   0.750   3.227 -0.1681 -0.4232 -0.2917
 8082SOL     OW32093   2.600   2.545   2.836 -0.2363  0.2339  0.2494
 8082SOL    HW232094   2.576   2.457   2.808 -0.8433  1.0321 -1.9555
 8082SOL    HW332095   2.558   2.603   2.773  0.8046  2.0784  1.1562
 8082SOL    MW432096   2.592   2.541   2.824  0.2070 -0.0452  0.1922
 8083SOL     OW32097   1.717   0.458   1.258 -0.0142  0.4461  0.4506
 8083SOL    HW232098   1.657   0.383   1.258  0.3089  0.1862  0.3851
 8083SOL    HW332099   1.802   0.420   1.280 -0.0831  0.9869  1.7416
 8083SOL    MW432100   1.720   0.443   1.261 -0.1140  0.3100  0.1249
 8084SOL     OW32101   0.470   2.894   4.979  0.4166  0.3967  0.1506
 8084SOL    HW232102   0.557   2.896   5.019 -0.1225 -1.0898  1.5095
 8084SOL    HW332103   0.472   2.964   4.914  1.5667  2.5746  2.3790
 8084SOL    MW432104   0.482   2.903   4.976 -0.5044  0.3449 -0.3942
 8085SOL     OW32105   2.893   0.374   4.137  0.0327 -0.5565  0.4295
 8085SOL    HW232106   2.821   0.369   4.074  0.3200  0.8072 -0.0383
 8085SOL    HW332107   2.967   0.334   4.092 -0.1721 -1.0487  0.5268
 8085SOL    MW432108   2.893   0.368   4.123 -0.2533 -0.1858  0.2626
 8086SOL     OW32109   1.542   4.920   5.925 -0.0461  0.6483 -0.4960
 8086SOL    HW232110   1.457   4.896   5.963 -0.1910 -0.0232 -1.2104
 8086SOL    HW332111   1.538   4.885   5.836  0.3631  2.0148 -1.0655
 8086SOL    MW432112   1.530   4.912   5.918  0.0153  0.0893 -0.3131
 8087SOL     OW32113   3.198   3.127   3.489  0.0151 -0.5376  0.4768
 8087SOL    HW232114   3.246   3.156   3.411  0.0412 -1.5291  0.1092
 8087SOL    HW332115   3.108   3.118   3.459 -0.5838  1.9657  1.3347
 8087SOL    MW432116   3.193   3.130   3.474 -0.0460 -0.3912 -0.4176
 8088SOL     OW32117   2.841   3.758   1.810 -0.0951  0.6956  0.3744
 8088SOL    HW232118   2.797   3.761   1.895  0.3331 -1.8814  0.7648
 8088SOL    HW332119   2.827   3.669   1.779  0.6340  1.2882 -1.8148
 8088SOL    MW432120   2.833   3.747   1.817  0.4629  0.0995 -0.5202
 8089SOL     OW32121   4.629   6.010   4.653  0.3242  0.0212  0.1464
 8089SOL    HW232122   4.638   5.921   4.687  0.8297  0.0260  0.0320
 8089SOL    HW332123   4.708   6.024   4.601  0.6334  0.8175  0.7971
 8089SOL    MW432124   4.640   6.000   4.651  0.0242  0.4820 -0.2395
 8090SOL     OW32125   0.684   0.755   1.098  0.7826  0.1569  0.0860
 8090SOL    HW232126   0.599   0.712   1.093  1.0732 -0.2631 -1.9571
 8090SOL    HW332127   0.670   0.826   1.161 -1.6328  1.2619 -1.5202
 8090SOL    MW432128   0.671   0.759   1.106  0.1852  0.1862  0.5133
 8091SOL     OW32129   5.342   4.169   5.029 -0.5891  0.0574  0.2589
 8091SOL    HW232130   5.399   4.133   4.961 -0.9833  0.4086 -0.2661
 8091SOL    HW332131   5.402   4.194   5.100 -0.2123 -0.6270  0.1859
 8091SOL    MW432132   5.358   4.168   5.029 -0.0684 -0.2070  0.3093
 8092SOL     OW32133   3.243   1.587   0.753  0.0571 -0.0087 -0.1176
 8092SOL    HW232134   3.247   1.616   0.661  0.7021  0.3231  0.0096
 8092SOL    HW332135   3.334   1.570   0.776 -0.2460 -1.7123 -0.0382
 8092SOL    MW432136   3.255   1.589   0.744 -0.7201  0.2592 -0.0624
 8093SOL     OW32137   4.589   2.895   2.179 -0.1318  0.5046  0.2998
 8093SOL    HW232138   4.631   2.943   2.251 -1.6338  1.5201  0.5434
 8093SOL    HW332139   4.540   2.962   2.131 -1.3849 -0.5919 -0.0183
 8093SOL    MW432140   4.588   2.910   2.182 -0.5034  0.2290 -0.1040
 8094SOL     OW32141   0.543   2.377   4.487 -0.2471 -0.1353 -0.3736
 8094SOL    HW232142   0.637   2.370   4.505 -0.0803  1.6453 -0.3298
 8094SOL    HW332143   0.539   2.422   4.402 -1.0522 -0.0954 -0.3183
 8094SOL    MW432144   0.555   2.382   4.478 -0.4191 -0.0715  0.6613
 8095SOL     OW32145   1.559   0.996   5.703  0.5778  0.6506 -0.5902
 8095SOL    HW232146   1.618   0.959   5.636  0.0792  0.8254 -1.1297
 8095SOL    HW332147   1.472   0.994   5.662  0.2464  0.6219  0.1113
 8095SOL    MW432148   1.556   0.991   5.688  0.1719 -0.2246  0.8533
 8096SOL     OW32149   5.509   4.588   2.430  0.0248  0.3622  0.0279
 8096SOL    HW232150   5.454   4.550   2.361  0.4885  2.0616 -1.3420
 8096SOL    HW332151   5.476   4.677   2.441  1.5147  0.9024  0.2981
 8096SOL    MW432152   5.497   4.595   2.423  0.5387 -0.2410 -0.5060
 8097SOL     OW32153   5.178   0.662   4.196  0.8172  0.1745  0.2130
 8097SOL    HW232154   5.151   0.716   4.270  0.3618 -0.7684  0.7486
 8097SOL    HW332155   5.123   0.691   4.123  1.7177  1.5621  0.0410
 8097SOL    MW432156   5.168   0.673   4.196  0.4650  0.1021 -0.2100
 8098SOL     OW32157   4.756   4.691   5.941  0.2538 -0.4858 -0.0245
 8098SOL    HW232158   4.768   4.786   5.945 -3.2865  0.1855 -1.6876
 8098SOL    HW332159   4.797   4.666   5.858  0.5991 -0.2914  0.0863
 8098SOL    MW432160   4.763   4.700   5.930 -0.2349  0.1585  0.2349
 8099SOL     OW32161   0.474   0.034   0.340  0.4586  0.0026 -0.2845
 8099SOL    HW232162   0.550  -0.019   0.363  1.0598  0.6178 -0.8285
 8099SOL    HW332163   0.490   0.119   0.381  0.9740  0.7296 -1.8940
 8099SOL    MW432164   0.486   0.038   0.348  0.0148  0.2690 -0.2844
 8100SOL     OW32165   4.717   2.213   4.615 -0.6983  0.0510 -0.3429
 8100SOL    HW232166   4.732   2.120   4.634 -0.4262  0.2221  0.3192
 8100SOL    HW332167   4.673   2.247   4.694  2.6302  1.3327  1.1507
 8100SOL    MW432168   4.713   2.205   4.628 -0.1495  0.2155 -0.0509
 8101SOL     OW32169   3.845   4.608   4.481  0.0631  0.2998 -0.1064
 8101SOL    HW232170   3.923   4.663   4.488 -1.7493  3.1662 -0.9137
 8101SOL    HW332171   3.840   4.585   4.388  0.0567 -0.0590 -0.0182
 8101SOL    MW432172   3.855   4.612   4.469 -0.1196 -1.0354  0.2947
 8102SOL     OW32173   5.917   1.471   1.780  0.0302 -0.0156  0.1557
 8102SOL    HW232174   5.856   1.397   1.776 -0.2389  0.2545 -1.7989
 8102SOL    HW332175   5.980   1.454   1.710  1.8093  0.0906  1.6583
 8102SOL    MW432176   5.917   1.459   1.770  0.1796 -0.2984  0.0475
 8103SOL     OW32177   5.673   2.128   6.015 -0.0145 -0.0962  0.1422
 8103SOL    HW232178   5.622   2.145   6.095  1.0539  0.5963  0.7141
 8103SOL    HW332179   5.764   2.127   6.046  0.3239 -1.2817 -0.8491
 8103SOL    MW432180   5.678   2.130   6.030  0.2197  0.2862 -0.4088
 8104SOL     OW32181   4.641   0.928   1.704 -0.3137 -0.1908  0.1392
 8104SOL    HW232182   4.680   0.962   1.784 -0.1555  2.0000 -0.7978
 8104SOL    HW332183   4.547   0.923   1.723 -0.2353 -0.0667  0.5726
 8104SOL    MW432184   4.633   0.932   1.717  0.1435  0.4349 -0.6545
 8105SOL     OW32185   3.585   2.777   5.362  0.3050 -0.4492  0.7070
 8105SOL    HW232186   3.609   2.870   5.358 -0.5933 -0.2250  0.1098
 8105SOL    HW332187   3.569   2.761   5.455 -1.4513  0.5392  0.6294
 8105SOL    MW432188   3.586   2.787   5.373  0.2712  0.4922  0.2704
 8106SOL     OW32189   1.028   5.536   4.320  0.1845 -0.1509  0.0713
 8106SOL    HW232190   1.052   5.627   4.339 -0.4462  0.0299  0.0291
 8106SOL    HW332191   1.071   5.517   4.237 -3.4186  1.7025 -2.4865
 8106SOL    MW432192   1.037   5.546   4.312  0.0865  0.4971 -0.3528
 8107SOL     OW32193   0.674   5.713   0.000  0.3504  0.3200  0.0895
 8107SOL    HW232194   0.694   5.805   0.014 -0.3828  0.7327 -1.3804
 8107SOL    HW332195   0.719   5.667   0.072  0.7683  1.7955  0.8049
 8107SOL    MW432196   0.683   5.719   0.012 -0.3604  0.4814 -0.0263
 8108SOL     OW32197   0.897   3.984   5.659  0.0827  0.1134  0.1192
 8108SOL    HW232198   0.880   4.075   5.635  1.2467 -0.0931 -1.7084
 8108SOL    HW332199   0.959   3.990   5.732  1.0079  0.8174 -0.6870
 8108SOL    MW432200   0.903   3.997   5.666  0.2744  0.1458 -0.0261
 8109SOL     OW32201   2.186   1.782   1.718  0.1358 -0.0778 -0.3364
 8109SOL    HW232202   2.213   1.690   1.716 -2.3998 -0.8905 -0.8059
 8109SOL    HW332203   2.247   1.826   1.659  0.9611 -1.5971 -0.6713
 8109SOL    MW432204   2.198   1.776   1.710  0.1593 -0.5591  0.3706
 8110SOL     OW32205   6.014   5.045   3.940  0.7450  0.0620  0.5662
 8110SOL    HW232206   5.946   5.072   3.879 -0.3823  0.9761  2.1540
 8110SOL    HW332207   6.083   5.008   3.885 -0.8440 -0.5090 -1.1115
 8110SOL    MW432208   6.014   5.044   3.925  0.3617 -0.4464  0.5511
 8111SOL     OW32209   4.317   0.662   2.315 -0.2430  0.2988 -0.0708
 8111SOL    HW232210   4.314   0.640   2.408 -1.3735 -3.9243 -0.9191
 8111SOL    HW332211   4.232   0.703   2.297 -0.0908  0.9661  0.6591
 8111SOL    MW432212   4.305   0.664   2.325  0.1717 -0.5651 -0.2970
 8112SOL     OW32213   5.614   4.807   1.649 -0.4713  0.2362  0.0495
 8112SOL    HW232214   5.622   4.861   1.570  1.0338  0.6258  0.4286
 8112SOL    HW332215   5.601   4.870   1.720 -1.4117 -0.0877  0.1731
 8112SOL    MW432216   5.613   4.822   1.648  0.0640 -0.4226  0.9199
 8113SOL     OW32217   0.246   5.952   1.908  0.5504  0.5577  0.6930
 8113SOL    HW232218   0.242   5.983   1.817 -2.3852  1.6321  1.0703
 8113SOL    HW332219   0.164   5.906   1.921  2.0790 -1.9998  2.1060
 8113SOL    MW432220   0.235   5.950   1.898 -0.5708 -0.2089 -0.4847
 8114SOL     OW32221   1.822   2.078   5.407 -0.3847 -0.4527  0.0367
 8114SOL    HW232222   1.895   2.140   5.416  0.4986 -1.3908 -0.5390
 8114SOL    HW332223   1.862   1.992   5.417 -1.1719 -1.0475 -1.5858
 8114SOL    MW432224   1.837   2.075   5.410  0.0463  0.2892  0.0859
 8115SOL     OW32225   2.775   5.131   1.104  0.2573 -0.8672 -0.8192
 8115SOL    HW232226   2.800   5.217   1.070 -1.8554 -0.4624 -1.5103
 8115SOL    HW332227   2.820   5.125   1.188  1.9237  0.0918 -1.5972
 8115SOL    MW432228   2.784   5.142   1.111  0.4058 -0.3721 -0.0423
 8116SOL     OW32229   5.094   1.589   3.467  0.5504 -0.0463  0.3129
 8116SOL    HW232230   5.103   1.595   3.562  0.5497  1.9420  0.2175
 8116SOL    HW332231   5.182   1.603   3.433  0.5419 -0.6961  0.0028
 8116SOL    MW432232   5.107   1.592   3.475  0.3800 -0.2633 -0.0725
 8117SOL     OW32233   3.800   5.232   0.414  0.0663 -0.1430  0.1742
 8117SOL    HW232234   3.711   5.207   0.390 -0.3933  2.8755 -1.8950
 8117SOL    HW332235   3.789   5.284   0.494 -0.1751  0.7634 -0.4278
 8117SOL    MW432236   3.787   5.236   0.421 -0.2261 -0.7980  0.3530
 8118SOL     OW32237   3.895   5.560   5.701 -0.1826  0.5955 -0.4489
 8118SOL    HW232238   3.890   5.540   5.794  2.3792 -0.5782 -0.4669
 8118SOL    HW332239   3.838   5.495   5.659  0.4593 -0.3981  0.1747
 8118SOL    MW432240   3.887   5.549   5.707 -0.0617  0.4868 -0.3429
 8119SOL     OW32241   3.254   0.873   3.567  0.5104 -1.3592  0.0922
 8119SOL    HW232242   3.271   0.863   3.661  0.9073 -0.5891  0.1110
 8119SOL    HW332243   3.202   0.953   3.561  1.1063 -1.0057 -0.4096
 8119SOL    MW432244   3.250   0.882   3.579  0.6950  0.0015  0.0946
 8120SOL     OW32245   1.467   1.832   3.758  0.4016 -0.6812  0.4653
 8120SOL    HW232246   1.379   1.867   3.748  1.1933  0.9330 -1.7388
 8120SOL    HW332247   1.514   1.899   3.808  1.2352  0.2611 -1.4681
 8120SOL    MW432248   1.462   1.845   3.763 -0.4092 -0.3204  0.1909
 8121SOL     OW32249   0.798   4.107   3.467  0.2441 -0.3976  0.2258
 8121SOL    HW232250   0.747   4.147   3.397  0.5753  0.3590  0.4013
 8121SOL    HW332251   0.889   4.130   3.447  0.3592 -0.3376  0.7907
 8121SOL    MW432252   0.803   4.115   3.455  0.0509 -0.0937 -0.5105
 8122SOL     OW32253   4.030   3.832   3.900 -0.0115 -0.1975 -0.5136
 8122SOL    HW232254   4.103   3.843   3.960 -0.1431 -0.4148 -0.3135
 8122SOL    HW332255   3.954   3.866   3.947 -0.7220 -3.2272  0.7286
 8122SOL    MW432256   4.030   3.838   3.914  0.2642 -0.0619 -0.3187
 8123SOL     OW32257   3.171   5.033   4.104 -0.3604  0.0742  0.2055
 8123SOL    HW232258   3.076   5.041   4.095 -0.5098  0.0203  1.6240
 8123SOL    HW332259   3.205   5.117   4.076 -0.7239 -0.2804 -1.4195
 8123SOL    MW432260   3.163   5.045   4.099  0.1526 -0.1683 -0.2334
 8124SOL     OW32261   5.710   4.067   3.762  0.2104 -0.2341 -0.6129
 8124SOL    HW232262   5.791   4.118   3.770 -0.5260  0.8105  0.3774
 8124SOL    HW332263   5.693   4.065   3.668  1.0390  0.0989 -0.7823
 8124SOL    MW432264   5.719   4.074   3.751  0.1785 -0.1035  0.5565
 8125SOL     OW32265   1.010   0.675   4.701  0.2871  0.2865  0.6218
 8125SOL    HW232266   0.960   0.601   4.735 -0.4374  1.3813  2.0463
 8125SOL    HW332267   1.033   0.649   4.612 -0.3761 -1.4291  0.9102
 8125SOL    MW432268   1.006   0.662   4.694 -0.1947 -0.0758 -0.5737
 8126SOL     OW32269   6.177   1.584   3.366 -0.3281  0.3319 -0.1583
 8126SOL    HW232270   6.207   1.621   3.449 -1.8474 -0.7627  0.9464
 8126SOL    HW332271   6.256   1.551   3.323  0.3125 -0.8519  1.7953
 8126SOL    MW432272   6.191   1.584   3.371 -0.3658 -0.6407  0.7194
 8127SOL     OW32273   5.197   4.904   3.222  0.3594  0.0825 -0.4462
 8127SOL    HW232274   5.210   4.810   3.211 -0.3438  0.2577 -3.7865
 8127SOL    HW332275   5.278   4.935   3.262  0.0276 -2.0501  2.1885
 8127SOL    MW432276   5.210   4.895   3.226 -0.1088 -0.0087  0.6738
 8128SOL     OW32277   0.633   1.209   4.251  0.2144 -0.2780 -0.1910
 8128SOL    HW232278   0.681   1.133   4.282  1.4891 -0.2170 -1.8689
 8128SOL    HW332279   0.635   1.270   4.325  1.0483 -1.0397  0.4427
 8128SOL    MW432280   0.640   1.207   4.265 -0.1009  0.4239  0.2198
 8129SOL     OW32281   1.224   4.036   5.451 -0.0706  0.6456 -0.2017
 8129SOL    HW232282   1.147   4.093   5.452  0.7518  1.8116 -0.9340
 8129SOL    HW332283   1.194   3.957   5.406 -0.5086  1.6190 -1.6952
 8129SOL    MW432284   1.210   4.033   5.445  0.1772  0.1648 -0.0009
 8130SOL     OW32285   1.224   5.236   6.208 -0.1491  0.2502  0.7410
 8130SOL    HW232286   1.306   5.196   6.179 -0.5168  0.3599 -0.5433
 8130SOL    HW332287   1.165   5.163   6.224 -1.9464 -0.0589 -4.8477
 8130SOL    MW432288   1.227   5.221   6.206 -0.0685 -0.1156  0.3397
 8131SOL     OW32289   4.438   5.882   3.627 -0.0224  0.1905  0.2526
 8131SOL    HW232290   4.407   5.796   3.657  0.7592 -0.6734 -1.2936
 8131SOL    HW332291   4.473   5.866   3.540  1.2261  1.8672  0.3874
 8131SOL    MW432292   4.438   5.868   3.620 -0.2457 -0.0861 -0.0995
 8132SOL     OW32293   0.172   1.085   1.671  0.0575  0.0810 -0.2653
 8132SOL    HW232294   0.112   1.045   1.734  0.1731 -1.1080 -0.8822
 8132SOL    HW332295   0.259   1.067   1.705  0.0980  0.2746 -0.2665
 8132SOL    MW432296   0.176   1.078   1.684  1.3601 -0.5504  0.4176
 8133SOL     OW32297   4.157   1.864   1.210 -0.8174  0.2308 -0.2916
 8133SOL    HW232298   4.250   1.852   1.229 -0.5904  2.5658  0.4753
 8133SOL    HW332299   4.155   1.906   1.124 -1.3087 -1.2933 -1.0702
 8133SOL    MW432300   4.169   1.868   1.201  0.0999  0.2739  0.0945
 8134SOL     OW32301   3.094   5.035   4.742  0.3338  0.0405 -0.1976
 8134SOL    HW232302   3.135   5.053   4.657 -0.5960 -1.6851 -1.0616
 8134SOL    HW332303   3.051   4.950   4.730 -0.7047  0.2582  1.6872
 8134SOL    MW432304   3.094   5.026   4.729 -0.1379 -0.0282  0.0898
 8135SOL     OW32305   3.689   5.931   3.833  0.1676 -0.0402 -0.4934
 8135SOL    HW232306   3.764   5.973   3.874  0.4542  1.3778 -2.3128
 8135SOL    HW332307   3.617   5.944   3.895  0.9763  0.3403  0.3874
 8135SOL    MW432308   3.689   5.938   3.846 -0.1484 -0.4916  0.0988
 8136SOL     OW32309   4.083   4.626   2.298  0.0668 -0.0480  0.0802
 8136SOL    HW232310   4.006   4.631   2.354  0.2949 -2.0329  0.6411
 8136SOL    HW332311   4.050   4.598   2.213  0.0495  0.0644  0.0503
 8136SOL    MW432312   4.069   4.623   2.294  0.1189  0.6215  0.1709
 8137SOL     OW32313   1.075   0.167   0.565 -0.7503 -0.5063 -0.0949
 8137SOL    HW232314   1.050   0.140   0.477  0.0230  1.7224 -1.0837
 8137SOL    HW332315   1.083   0.086   0.614 -3.2307 -1.6937 -1.4889
 8137SOL    MW432316   1.073   0.153   0.560 -0.0756 -0.3311  0.2301
 8138SOL     OW32317   1.633   2.041   2.734  0.1156  0.5348 -0.0844
 8138SOL    HW232318   1.599   2.022   2.821  1.1308  1.4114  0.5326
 8138SOL    HW332319   1.576   2.111   2.702  0.0228  0.5294  0.0653
 8138SOL    MW432320   1.621   2.048   2.741  0.1850  0.6099 -0.0507
 8139SOL     OW32321   1.150   3.353   6.080  0.1672  0.4719  0.3797
 8139SOL    HW232322   1.157   3.431   6.025 -1.7532 -0.6272 -1.5732
 8139SOL    HW332323   1.057   3.344   6.098  0.5771 -0.2631  2.2956
 8139SOL    MW432324   1.139   3.362   6.075  0.0267 -0.1227 -0.4314
 8140SOL     OW32325   1.731   0.501   3.290  0.1377 -0.4320  0.0682
 8140SOL    HW232326   1.816   0.460   3.280  0.9270  1.5199 -2.2011
 8140SOL    HW332327   1.711   0.536   3.203 -2.3342  0.3863  0.8812
 8140SOL    MW432328   1.739   0.500   3.277 -0.6063 -0.0097 -0.1474
 8141SOL     OW32329   1.075   6.149   3.925 -0.4493  0.4297  0.3559
 8141SOL    HW232330   1.159   6.137   3.881 -0.3599  0.4348  0.5239
 8141SOL    HW332331   1.058   6.243   3.919 -0.3493  0.4569  0.4910
 8141SOL    MW432332   1.084   6.159   3.918  0.0900 -0.1093  0.2209
 8142SOL     OW32333   6.301   5.989   3.227  0.4675  0.5543  0.4714
 8142SOL    HW232334   6.219   5.948   3.202  1.3714 -1.8322  1.1101
 8142SOL    HW332335   6.277   6.054   3.292 -0.8632 -0.5176  1.0946
 8142SOL    MW432336   6.287   5.992   3.232 -0.5001 -0.3139  0.0379
 8143SOL     OW32337   6.266   0.469   2.028 -0.0520 -0.0538  0.3518
 8143SOL    HW232338   6.315   0.473   1.946  1.1056 -0.6280  0.9941
 8143SOL    HW332339   6.215   0.388   2.021 -0.2388  0.0863  0.0578
 8143SOL    MW432340   6.266   0.458   2.016  0.0029 -0.2975  0.2991
 8144SOL     OW32341   4.034   2.952   3.501 -0.0126 -0.8226  0.2830
 8144SOL    HW232342   3.978   2.886   3.542 -1.6977  2.0636  3.1044
 8144SOL    HW332343   4.110   2.957   3.558 -0.3953  0.3287  0.7251
 8144SOL    MW432344   4.036   2.944   3.514 -0.2665  0.3259 -0.4711
 8145SOL     OW32345   1.214   2.535   1.254  0.3598  0.3688 -0.9399
 8145SOL    HW232346   1.260   2.461   1.294  0.0444  0.3920 -0.5330
 8145SOL    HW332347   1.280   2.605   1.250  0.6354  0.0959 -1.2528
 8145SOL    MW432348   1.229   2.535   1.259 -0.2206  0.1701 -0.6867
 8146SOL     OW32349   2.255   4.888   4.783  0.1256  0.6321  0.7476
 8146SOL    HW232350   2.179   4.850   4.740 -0.5422  1.0220  1.5406
 8146SOL    HW332351   2.296   4.944   4.717  0.1459 -0.1430  0.1006
 8146SOL    MW432352   2.251   4.891   4.769  0.6027 -0.0716 -0.1711
 8147SOL     OW32353   6.370   1.997   4.863 -0.2786 -0.2465 -0.6341
 8147SOL    HW232354   6.354   2.088   4.886  0.0119 -0.2609 -0.3582
 8147SOL    HW332355   6.460   1.981   4.891 -0.4886 -0.7573 -0.2257
 8147SOL    MW432356   6.380   2.007   4.870  0.2535  0.1392 -0.3208
 8148SOL     OW32357   2.652   4.404   4.467  0.1524  0.4203  0.5832
 8148SOL    HW232358   2.620   4.329   4.517  0.6293  0.3921  0.8477
 8148SOL    HW332359   2.599   4.404   4.387  0.8276 -0.7929  0.1205
 8148SOL    MW432360   2.640   4.394   4.463  0.2952 -0.3139  0.4352
 8149SOL     OW32361   1.518   0.116   0.369  0.2295  0.0572 -0.1039
 8149SOL    HW232362   1.434   0.143   0.332  0.2587 -1.5807 -1.4734
 8149SOL    HW332363   1.582   0.178   0.332 -0.0126 -0.3895 -1.3157
 8149SOL    MW432364   1.516   0.128   0.359  0.5450 -0.2297 -0.3356
 8150SOL     OW32365   0.558   6.230   3.200 -0.3388 -0.5986  0.0406
 8150SOL    HW232366   0.559   6.209   3.293  0.7519 -0.3931  0.0886
 8150SOL    HW332367   0.634   6.286   3.187  0.0083 -1.3067 -1.1249
 8150SOL    MW432368   0.568   6.235   3.211 -0.3502  0.7745 -0.9908
 8151SOL     OW32369   4.813   3.969   4.960  0.4883 -0.5085  0.3899
 8151SOL    HW232370   4.848   4.027   5.027  1.9049  1.2061 -1.7077
 8151SOL    HW332371   4.883   3.907   4.943  0.5657 -0.2522 -0.2430
 8151SOL    MW432372   4.827   3.969   4.967  0.0900  0.4631 -0.3354
 8152SOL     OW32373   1.409   4.470   4.449 -0.3999 -0.1129 -0.1292
 8152SOL    HW232374   1.457   4.437   4.526 -1.6771 -0.4862  0.5274
 8152SOL    HW332375   1.444   4.419   4.376  1.9378  1.2861 -0.1007
 8152SOL    MW432376   1.420   4.459   4.450 -0.1539 -0.3564  0.3185
 8153SOL     OW32377   5.174   4.386   5.784 -0.5518 -0.0128 -0.1347
 8153SOL    HW232378   5.111   4.434   5.837 -2.2182 -1.6624 -0.5183
 8153SOL    HW332379   5.211   4.321   5.844  1.0149  1.0527  0.1401
 8153SOL    MW432380   5.171   4.384   5.799 -0.0846  0.0129 -0.0346
 8154SOL     OW32381   2.310   1.013   2.561 -0.3612  0.0096  0.2319
 8154SOL    HW232382   2.303   0.918   2.562  1.0795 -0.1146  0.1025
 8154SOL    HW332383   2.274   1.041   2.645 -0.1691 -0.6964  0.5534
 8154SOL    MW432384   2.304   1.004   2.572  0.0812 -1.1472 -0.2869
 8155SOL     OW32385   4.027   3.598   2.391  0.0947  0.2771 -0.2148
 8155SOL    HW232386   4.007   3.692   2.386  0.8958  0.4692  0.0717
 8155SOL    HW332387   4.044   3.581   2.483  0.7838  0.0307 -0.3782
 8155SOL    MW432388   4.027   3.608   2.402  0.5500  0.3379 -0.4600
 8156SOL     OW32389   5.569   4.821   4.625 -0.6029 -0.3813 -0.4452
 8156SOL    HW232390   5.511   4.881   4.579  0.7063  2.1469  0.9963
 8156SOL    HW332391   5.554   4.839   4.717 -0.8736 -3.0604  0.1066
 8156SOL    MW432392   5.560   4.831   4.631  0.8242  0.2446  0.0679
 8157SOL     OW32393   1.059   1.446   4.374 -0.4128  0.4514 -0.1545
 8157SOL    HW232394   1.029   1.527   4.334  0.4326  0.5961 -0.5363
 8157SOL    HW332395   0.987   1.418   4.429 -0.9251  1.1802 -0.4341
 8157SOL    MW432396   1.046   1.453   4.376 -0.6767 -0.3733 -0.2217
 8158SOL     OW32397   6.115   3.162   2.333 -0.2611 -0.6808  0.2200
 8158SOL    HW232398   6.208   3.186   2.336 -0.4127  0.0320 -0.3752
 8158SOL    HW332399   6.077   3.222   2.269 -1.5645  0.5173  2.0122
 8158SOL    MW432400   6.122   3.173   2.325 -0.0188  0.0108  0.0253
 8159SOL     OW32401   1.165   1.014   6.135  0.0354  0.2767 -0.3253
 8159SOL    HW232402   1.231   1.018   6.066 -0.1559  0.7622 -0.4858
 8159SOL    HW332403   1.142   1.105   6.151  0.1828  0.1738  0.4848
 8159SOL    MW432404   1.171   1.026   6.128  0.1076 -0.1821  0.1836
 8160SOL     OW32405   5.084   0.447   6.231  0.0131  0.6525 -0.3728
 8160SOL    HW232406   5.000   0.486   6.206 -1.9756 -2.4150  0.9138
 8160SOL    HW332407   5.083   0.360   6.191  0.0886 -1.4992  3.7317
 8160SOL    MW432408   5.073   0.441   6.223  0.4960  0.3159  0.3319
 8161SOL     OW32409   2.440   2.037   2.203 -0.5161 -0.0018 -0.1589
 8161SOL    HW232410   2.480   1.981   2.269 -1.6922  1.6263  2.0843
 8161SOL    HW332411   2.498   2.113   2.198 -0.1784 -0.3252 -1.4031
 8161SOL    MW432412   2.453   2.040   2.211  0.6119 -0.0951  0.2081
 8162SOL     OW32413   3.592   5.534   5.789 -0.1836 -0.5194  0.5065
 8162SOL    HW232414   3.633   5.482   5.720  3.0697  1.7525  0.4794
 8162SOL    HW332415   3.611   5.486   5.870  0.3283 -0.7928  0.2307
 8162SOL    MW432416   3.600   5.521   5.791 -0.2651 -0.5309 -0.2110
 8163SOL     OW32417   1.831   2.345   0.982 -0.0507 -0.0960  0.5314
 8163SOL    HW232418   1.873   2.362   1.066 -1.3997  1.2280  0.9725
 8163SOL    HW332419   1.848   2.424   0.931 -1.5912  0.2745  0.5590
 8163SOL    MW432420   1.839   2.358   0.986  0.1039  0.3167 -0.5001
 8164SOL     OW32421   5.915   0.068   6.181  0.6400  0.3463  0.1926
 8164SOL    HW232422   5.938  -0.014   6.137 -1.2202 -1.1137  1.6923
 8164SOL    HW332423   5.988   0.126   6.165  1.3153 -1.0543 -2.3149
 8164SOL    MW432424   5.927   0.065   6.173  0.1014 -0.3515 -0.0874
 8165SOL     OW32425   0.285   6.190   3.674 -0.0183  0.4883  0.3913
 8165SOL    HW232426   0.230   6.268   3.670  1.4718  1.5606 -1.5325
 8165SOL    HW332427   0.236   6.123   3.626  0.6715  1.7221 -2.2039
 8165SOL    MW432428   0.271   6.191   3.667 -0.1230  0.8401 -0.4293
 8166SOL     OW32429   2.827   3.008   6.207  0.0380 -0.6646 -0.1781
 8166SOL    HW232430   2.842   2.965   6.123 -2.2590  0.5915 -1.3364
 8166SOL    HW332431   2.732   3.017   6.213  0.2288  4.6357 -0.3721
 8166SOL    MW432432   2.816   3.003   6.197  0.0692 -0.7727 -0.4062
 8167SOL     OW32433   6.254   1.489   5.213 -0.1238 -0.5110 -0.0747
 8167SOL    HW232434   6.308   1.442   5.276  0.0112  0.3546  0.4656
 8167SOL    HW332435   6.182   1.526   5.265  0.0939  0.3715 -0.3867
 8167SOL    MW432436   6.251   1.487   5.228 -0.4900 -0.5367  0.0223
 8168SOL     OW32437   1.556   3.746   1.106 -0.1448  0.4633 -0.0811
 8168SOL    HW232438   1.560   3.762   1.200  0.8597  0.0893 -0.0491
 8168SOL    HW332439   1.510   3.823   1.070  0.8336  1.3710  0.5428
 8168SOL    MW432440   1.550   3.758   1.113  0.2997 -0.4275  0.1644
 8169SOL     OW32441   0.852   0.241   2.772  0.0366  0.4992 -0.0376
 8169SOL    HW232442   0.908   0.183   2.824 -1.9501 -0.0699  1.5893
 8169SOL    HW332443   0.813   0.300   2.837 -0.4717  1.5498 -1.2589
 8169SOL    MW432444   0.854   0.241   2.787 -0.1150  0.2653 -0.8225
 8170SOL     OW32445   0.574   3.475   1.180  1.1657 -0.7205  0.4749
 8170SOL    HW232446   0.621   3.477   1.097  1.1783 -2.6317  0.3870
 8170SOL    HW332447   0.638   3.444   1.243  1.5432  1.9608  1.5511
 8170SOL    MW432448   0.589   3.471   1.177 -0.0073  1.1614 -0.1364
 8171SOL     OW32449   3.264   3.782   5.909 -0.1158  0.2793  0.3807
 8171SOL    HW232450   3.205   3.707   5.915 -1.3690  1.3065  1.6982
 8171SOL    HW332451   3.209   3.853   5.876  1.0946  0.5986 -1.0179
 8171SOL    MW432452   3.249   3.781   5.906 -0.2891 -0.2052 -0.1733
 8172SOL     OW32453   0.504   0.427   4.900  0.5077  0.1011  0.5398
 8172SOL    HW232454   0.487   0.360   4.966  2.6892  0.7319  1.8460
 8172SOL    HW332455   0.556   0.383   4.834 -1.2787 -0.4076 -0.5925
 8172SOL    MW432456   0.508   0.413   4.900 -0.1666 -0.0916  0.1371
 8173SOL     OW32457   2.413   0.608   3.414  0.3452 -0.4074 -0.1580
 8173SOL    HW232458   2.432   0.531   3.467  0.3715 -1.3715 -1.5098
 8173SOL    HW332459   2.345   0.579   3.353 -0.2049  0.8755 -0.1796
 8173SOL    MW432460   2.406   0.594   3.413 -0.4489  0.3097 -0.2274
 8174SOL     OW32461   2.307   4.902   6.051  0.0141 -0.3443  0.0895
 8174SOL    HW232462   2.263   4.975   6.008  1.6052  0.4595 -0.2423
 8174SOL    HW332463   2.239   4.835   6.059 -1.2941  0.8907 -0.2514
 8174SOL    MW432464   2.292   4.903   6.046 -0.8479 -0.1191 -1.0889
 8175SOL     OW32465   0.140   1.264   1.456 -0.0744  0.1679 -0.1651
 8175SOL    HW232466   0.225   1.244   1.417  0.8302  1.2717  1.1389
 8175SOL    HW332467   0.139   1.215   1.538 -1.4354 -1.1579 -0.9123
 8175SOL    MW432468   0.151   1.255   1.462  0.1509  0.0032  0.0744
 8176SOL     OW32469   1.265   2.583   4.068  0.1300  0.3727  0.1413
 8176SOL    HW232470   1.339   2.588   4.007  1.1822  0.0029  1.3493
 8176SOL    HW332471   1.269   2.494   4.103  0.1248  0.8718  1.4558
 8176SOL    MW432472   1.275   2.572   4.065 -0.2511 -0.5488 -0.0768
 8177SOL     OW32473   1.949   6.282   2.830 -0.4716  0.0894  0.5393
 8177SOL    HW232474   1.884   6.256   2.896  0.9705  1.1579  2.4824
 8177SOL    HW332475   1.993   6.201   2.806 -0.7842 -0.2790  1.1829
 8177SOL    MW432476   1.946   6.268   2.836 -0.1286  0.1988  0.2214
 8178SOL     OW32477   4.783   1.724   2.377 -0.2721 -0.0476 -0.1096
 8178SOL    HW232478   4.705   1.748   2.428  0.3466  0.7870  0.4767
 8178SOL    HW332479   4.806   1.637   2.409 -0.0680  0.3429  0.8552
 8178SOL    MW432480   4.776   1.716   2.388  0.3327  0.3325 -0.6849
 8179SOL     OW32481   5.732   3.084   6.098  0.0417 -0.9260 -0.2953
 8179SOL    HW232482   5.781   3.091   6.016 -1.6737  1.6775 -1.2277
 8179SOL    HW332483   5.753   2.996   6.131  2.6770 -1.1517 -2.2432
 8179SOL    MW432484   5.741   3.073   6.091 -0.3266  0.3207 -0.3350
 8180SOL     OW32485   3.025   1.883   6.109  0.0381  0.3767  0.0493
 8180SOL    HW232486   3.071   1.959   6.072 -0.5427  0.4538 -0.5345
 8180SOL    HW332487   2.998   1.832   6.033 -2.3962  1.2481  0.2102
 8180SOL    MW432488   3.027   1.887   6.094 -0.0561  0.0418  0.3694
 8181SOL     OW32489   5.503   1.675   1.039  0.5332  0.3152 -0.8926
 8181SOL    HW232490   5.432   1.630   1.085  1.8260 -2.1578 -1.1329
 8181SOL    HW332491   5.557   1.713   1.109  0.2558  0.1514 -0.5868
 8181SOL    MW432492   5.501   1.674   1.055  0.1493 -0.1233 -0.0215
 8182SOL     OW32493   5.795   5.142   4.331 -0.2947 -0.4823  0.6394
 8182SOL    HW232494   5.788   5.088   4.409  0.1457 -0.6553  0.5620
 8182SOL    HW332495   5.769   5.084   4.259  0.8090 -0.7977  0.4787
 8182SOL    MW432496   5.791   5.127   4.332  0.5850 -0.3411  0.0186
 8183SOL     OW32497   1.441   4.895   6.383  0.2612 -0.0947 -1.4254
 8183SOL    HW232498   1.350   4.865   6.380 -0.0641  0.4692  0.8518
 8183SOL    HW332499   1.435   4.986   6.413  1.5786 -0.1815 -0.8287
 8183SOL    MW432500   1.428   4.903   6.387  0.9274 -0.6235 -0.5763
 8184SOL     OW32501   2.991   0.406   2.938 -0.0255  0.1288 -0.6047
 8184SOL    HW232502   3.017   0.498   2.933 -0.1371  0.1488 -0.8294
 8184SOL    HW332503   3.034   0.365   2.862  0.8911 -0.2184  0.0827
 8184SOL    MW432504   3.000   0.412   2.927 -0.7064  0.2150  0.1493
 8185SOL     OW32505   4.546   4.460   2.018 -0.5708  0.0957 -0.2893
 8185SOL    HW232506   4.461   4.497   1.994 -0.5547 -0.0587 -0.5870
 8185SOL    HW332507   4.526   4.371   2.045 -0.4141 -0.1977 -1.0985
 8185SOL    MW432508   4.532   4.453   2.018  0.0461 -0.5593  0.6413
 8186SOL     OW32509   1.090   5.170   0.563  0.1672 -0.1817 -0.0758
 8186SOL    HW232510   1.175   5.198   0.597 -0.2380  0.7267  0.2167
 8186SOL    HW332511   1.055   5.112   0.631  0.5187 -0.5112 -0.1705
 8186SOL    MW432512   1.097   5.166   0.576 -0.6683  0.1185  1.3105
 8187SOL     OW32513   3.616   3.934   3.745 -0.2328 -0.1319  0.1667
 8187SOL    HW232514   3.606   3.842   3.723 -0.4907 -0.0135 -0.2150
 8187SOL    HW332515   3.539   3.955   3.798 -1.2021  0.3463 -1.3576
 8187SOL    MW432516   3.605   3.925   3.749  0.3691 -0.2491  0.3286
 8188SOL     OW32517   2.671   1.363   4.084 -1.3091  0.5541  0.7346
 8188SOL    HW232518   2.727   1.335   4.157 -1.7627  0.2766  0.9804
 8188SOL    HW332519   2.592   1.310   4.093 -1.8164  1.2979  0.6761
 8188SOL    MW432520   2.668   1.352   4.095  0.4475  0.2764 -0.3054
 8189SOL     OW32521   0.087   5.881   1.085 -0.8069  0.3045  0.4639
 8189SOL    HW232522   0.176   5.906   1.110 -1.3855  1.8421  1.1173
 8189SOL    HW332523   0.075   5.919   0.998 -0.8063  0.0602  0.3575
 8189SOL    MW432524   0.097   5.889   1.077 -0.3968 -0.1412 -0.1171
 8190SOL     OW32525   3.162   6.110   0.287 -0.2913  0.6412  0.5881
 8190SOL    HW232526   3.081   6.062   0.270 -0.2912  0.6650  0.5207
 8190SOL    HW332527   3.137   6.202   0.281 -0.3257  0.6511  0.8789
 8190SOL    MW432528   3.148   6.115   0.284 -0.0261 -0.4732  0.0834
 8191SOL     OW32529   5.540   0.014   2.196  0.7619 -0.1194 -0.3333
 8191SOL    HW232530   5.501   0.046   2.278 -0.8032 -1.6349 -0.4236
 8191SOL    HW332531   5.486   0.053   2.127 -0.3444 -1.8128 -0.4808
 8191SOL    MW432532   5.528   0.023   2.198  0.2229 -0.7310  0.3153
 8192SOL     OW32533   5.428   6.380   4.759 -0.1524  0.3291 -0.0230
 8192SOL    HW232534   5.432   6.473   4.782 -0.2182  0.4613 -0.5368
 8192SOL    HW332535   5.519   6.356   4.740 -0.2883  0.5845 -1.0263
 8192SOL    MW432536   5.441   6.389   4.760  0.1724 -0.2250 -0.0110
 8193SOL     OW32537   1.370   3.072   5.594 -0.0164  0.8498 -0.3318
 8193SOL    HW232538   1.446   3.129   5.585  1.6883 -1.4229 -1.5088
 8193SOL    HW332539   1.366   3.023   5.511 -1.6271 -0.4095  0.4176
 8193SOL    MW432540   1.379   3.073   5.582  0.5345 -0.2989  0.1945
 8194SOL     OW32541   4.658   3.626   4.233 -0.2869 -0.0657 -0.9341
 8194SOL    HW232542   4.642   3.569   4.308 -0.0172  0.4504 -0.4790
 8194SOL    HW332543   4.705   3.571   4.171 -0.6510 -0.5422 -0.7970
 8194SOL    MW432544   4.662   3.612   4.235 -0.5337  0.1874  0.3264
 8195SOL     OW32545   1.102   0.213   3.766 -0.4143  0.2011  0.0208
 8195SOL    HW232546   1.040   0.272   3.724  0.2804  0.4232 -0.7079
 8195SOL    HW332547   1.130   0.154   3.696  0.3474  0.2346  0.2929
 8195SOL    MW432548   1.097   0.213   3.751  0.4753 -0.9132 -0.2442
 8196SOL     OW32549   5.213   5.849   4.777  0.2969  0.4732  0.5591
 8196SOL    HW232550   5.251   5.833   4.691  2.0911  1.0498  1.1926
 8196SOL    HW332551   5.159   5.927   4.766 -0.0411  0.1392 -0.1878
 8196SOL    MW432552   5.211   5.857   4.764  0.5097  0.1956 -0.1292
 8197SOL     OW32553   1.237   4.709   0.156 -0.1204  0.2315 -0.5965
 8197SOL    HW232554   1.218   4.790   0.204 -0.7274 -0.1644 -0.1583
 8197SOL    HW332555   1.291   4.657   0.215 -1.1046 -0.3771 -0.2058
 8197SOL    MW432556   1.241   4.713   0.170 -0.6904 -0.3369 -0.4283
 8198SOL     OW32557   4.923   0.737   3.652 -0.5299  0.0769  0.3707
 8198SOL    HW232558   4.942   0.755   3.744 -0.3166 -0.8176  0.5071
 8198SOL    HW332559   4.836   0.774   3.638  0.6628  3.0253  0.0875
 8198SOL    MW432560   4.914   0.744   3.662  0.4056 -0.4058 -0.1649
 8199SOL     OW32561   2.205   0.920   0.913 -0.1429 -0.2243  0.3579
 8199SOL    HW232562   2.157   0.997   0.884  1.5847  0.7247 -0.1602
 8199SOL    HW332563   2.169   0.848   0.860 -1.0043  0.4301  0.0294
 8199SOL    MW432564   2.194   0.921   0.902  0.0059 -0.0795 -0.5902
 8200SOL     OW32565   5.619   2.687   3.510 -0.2652 -0.0793  0.2039
 8200SOL    HW232566   5.627   2.759   3.573 -1.7169  0.0371  0.3048
 8200SOL    HW332567   5.654   2.723   3.428  0.4956  0.1863  0.6370
 8200SOL    MW432568   5.624   2.701   3.507 -0.7599 -0.1381 -0.7488
 8201SOL     OW32569   0.118   0.605   5.372 -0.5379  0.1824  0.4651
 8201SOL    HW232570   0.163   0.527   5.339 -0.6134 -0.1533  1.1285
 8201SOL    HW332571   0.150   0.614   5.461 -0.1373  1.2278  0.2215
 8201SOL    MW432572   0.128   0.596   5.379  0.3525 -0.1022 -0.5991
 8202SOL     OW32573   2.640   6.012   5.858  0.1008 -0.3168  0.1943
 8202SOL    HW232574   2.733   6.023   5.875  0.0129  0.3183  0.2826
 8202SOL    HW332575   2.636   5.957   5.779  0.5128 -2.1713  1.4027
 8202SOL    MW432576   2.652   6.006   5.850 -0.2711 -0.6789 -0.1542
 8203SOL     OW32577   3.047   4.321   5.835 -0.6092  0.0864 -0.4212
 8203SOL    HW232578   3.061   4.416   5.839  0.8676 -0.1303  0.5394
 8203SOL    HW332579   3.083   4.295   5.750 -0.2742  0.2969 -0.3481
 8203SOL    MW432580   3.054   4.330   5.824 -0.2665  0.1386 -0.0355
 8204SOL     OW32581   5.379   0.464   4.748  0.1901  0.1404  0.1792
 8204SOL    HW232582   5.466   0.463   4.706  0.2847 -0.8440  0.3730
 8204SOL    HW332583   5.394   0.506   4.832  0.3636  0.4934 -0.0244
 8204SOL    MW432584   5.393   0.469   4.754  0.5968 -0.0116 -0.4377
 8205SOL     OW32585   2.790   3.474   6.145  0.0615  0.1014  0.6067
 8205SOL    HW232586   2.830   3.550   6.188 -1.6435  0.9095  0.8432
 8205SOL    HW332587   2.799   3.492   6.051 -3.1176  2.2895  0.5633
 8205SOL    MW432588   2.797   3.486   6.138  0.1351  0.5137  0.1859
 8206SOL     OW32589   6.404   3.280   1.942  0.0584  0.3149  0.6162
 8206SOL    HW232590   6.475   3.343   1.953  0.1260  0.0808  1.5663
 8206SOL    HW332591   6.326   3.333   1.927  0.5199  0.5730 -1.2023
 8206SOL    MW432592   6.403   3.295   1.941 -0.3041 -0.0966 -0.1088
 8207SOL     OW32593   1.142   2.355   2.443 -0.9433 -0.3488  0.2329
 8207SOL    HW232594   1.198   2.432   2.449 -1.5588 -0.0072  2.2693
 8207SOL    HW332595   1.067   2.383   2.390 -0.7331  0.1789  0.2087
 8207SOL    MW432596   1.139   2.369   2.437 -0.1021  0.0855 -0.1249
 8208SOL     OW32597   3.107   2.060   3.586  0.7405 -0.3041 -0.9008
 8208SOL    HW232598   3.170   2.125   3.617 -0.8961  0.5703  0.8152
 8208SOL    HW332599   3.051   2.108   3.525 -0.5546 -0.0089  0.4719
 8208SOL    MW432600   3.108   2.075   3.582  0.2341  0.2852  0.0803
 8209SOL     OW32601   4.951   4.987   1.069  0.0042  0.1953 -0.0974
 8209SOL    HW232602   4.856   4.995   1.067 -0.2646 -2.2811  0.2070
 8209SOL    HW332603   4.983   5.078   1.066 -2.2963  1.0449 -2.3348
 8209SOL    MW432604   4.943   5.000   1.068 -0.0582  0.5103 -0.2111
 8210SOL     OW32605   1.102   1.291   6.165 -0.2554 -0.3403  0.2949
 8210SOL    HW232606   1.194   1.316   6.159 -0.2433 -0.6348 -0.9167
 8210SOL    HW332607   1.071   1.333   6.245  0.7345  0.3952  0.3053
 8210SOL    MW432608   1.110   1.300   6.175  0.0574 -0.1479  0.0866
 8211SOL     OW32609   5.530   5.468   5.156 -0.1992 -0.3716  0.7516
 8211SOL    HW232610   5.564   5.449   5.243  1.7532 -0.7466 -0.0584
 8211SOL    HW332611   5.435   5.467   5.167 -0.0018 -0.9837  2.7429
 8211SOL    MW432612   5.522   5.466   5.169 -0.3551 -0.0267 -0.1732
 8212SOL     OW32613   5.436   6.321   3.844 -0.4787  0.3643  0.0171
 8212SOL    HW232614   5.491   6.265   3.899 -0.4229  0.9168  0.5340
 8212SOL    HW332615   5.368   6.263   3.811  0.5515 -0.3914 -0.8386
 8212SOL    MW432616   5.434   6.306   3.847 -0.6637  0.3804 -0.4932
 8213SOL     OW32617   5.039   6.218   3.272  0.1901 -0.0072  0.0185
 8213SOL    HW232618   5.102   6.189   3.338  0.3820 -0.1966 -0.2502
 8213SOL    HW332619   4.955   6.215   3.317  0.1520 -1.2926 -0.0986
 8213SOL    MW432620   5.036   6.214   3.287  0.2490  0.2032  0.0090
 8214SOL     OW32621   0.293   0.970   2.407  0.2774  0.4714 -0.1696
 8214SOL    HW232622   0.204   0.990   2.378  0.2450 -0.1560 -0.5257
 8214SOL    HW332623   0.293   0.993   2.500 -0.2455  0.5150 -0.1729
 8214SOL    MW432624   0.281   0.976   2.416 -0.0460  0.3666  0.3386
 8215SOL     OW32625   2.178   1.741   1.067 -0.0772  0.2451  0.3591
 8215SOL    HW232626   2.222   1.760   1.150  2.0300 -2.1671 -0.0843
 8215SOL    HW332627   2.098   1.795   1.070  1.1689  2.2121  2.7596
 8215SOL    MW432628   2.173   1.751   1.079 -0.1193  0.8070 -0.1863
 8216SOL     OW32629   5.632   3.849   5.993  0.1625 -0.3467 -0.6044
 8216SOL    HW232630   5.723   3.858   6.022 -0.2838  1.7525  0.3861
 8216SOL    HW332631   5.581   3.891   6.062 -1.5231 -0.9240 -1.4426
 8216SOL    MW432632   5.638   3.856   6.006  0.6640 -0.3907  0.2763
 8217SOL     OW32633   5.053   0.316   5.593 -0.1932 -0.1120 -0.1346
 8217SOL    HW232634   5.126   0.344   5.539  0.7177  2.7407  2.3340
 8217SOL    HW332635   4.981   0.375   5.570  0.1026  0.9108  1.4358
 8217SOL    MW432636   5.053   0.327   5.583 -0.6714 -0.1596  0.5334
 8218SOL     OW32637   2.055   6.380   6.210 -0.7450 -0.3599 -0.4066
 8218SOL    HW232638   2.105   6.395   6.129 -0.2098  0.3008  0.0363
 8218SOL    HW332639   2.006   6.461   6.223  0.1154  0.0166  0.5856
 8218SOL    MW432640   2.055   6.393   6.201  0.1437  0.5345 -0.0367
 8219SOL     OW32641   4.371   4.354   1.705  0.1384  0.5607  0.6901
 8219SOL    HW232642   4.339   4.316   1.623  0.0572  1.2027  0.4161
 8219SOL    HW332643   4.366   4.449   1.691  0.9899  0.6748  1.1017
 8219SOL    MW432644   4.366   4.361   1.692  0.3447  0.6787  0.0346
 8220SOL     OW32645   2.604   2.313   0.703  0.1561  0.1529  0.4763
 8220SOL    HW232646   2.677   2.307   0.764  0.7970 -0.2615 -0.3099
 8220SOL    HW332647   2.625   2.388   0.647 -0.3033  0.3756  0.5923
 8220SOL    MW432648   2.616   2.322   0.703  0.0801 -0.2462 -0.2750
 8221SOL     OW32649   3.742   3.279   5.005 -0.0811  0.3775  0.4481
 8221SOL    HW232650   3.708   3.272   4.916 -2.0019  1.2558  1.0582
 8221SOL    HW332651   3.837   3.269   4.996 -0.2810  0.0274 -1.6251
 8221SOL    MW432652   3.750   3.277   4.992  0.5182 -0.3289 -0.2260
 8222SOL     OW32653   0.239   5.506   0.818 -0.0356  0.1425  0.1002
 8222SOL    HW232654   0.311   5.509   0.881 -0.0589 -0.9146  0.1878
 8222SOL    HW332655   0.186   5.583   0.839  1.3438  1.2613 -0.3267
 8222SOL    MW432656   0.241   5.516   0.829 -0.1060  0.0561  0.8588
 8223SOL     OW32657   0.231   4.177   5.091  0.5256  0.1922  0.2992
 8223SOL    HW232658   0.265   4.260   5.126  0.2940  0.1855  0.5458
 8223SOL    HW332659   0.157   4.203   5.036 -1.9719 -0.0505  3.3007
 8223SOL    MW432660   0.226   4.191   5.088  0.0907  0.4072 -0.2440
 8224SOL     OW32661   3.054   2.335   2.295  0.1189 -0.2441  0.4597
 8224SOL    HW232662   3.050   2.266   2.361 -0.4083 -2.6110 -1.9023
 8224SOL    HW332663   3.141   2.374   2.307  0.5307 -1.4562  1.7279
 8224SOL    MW432664   3.065   2.331   2.305 -0.0415  0.3075 -0.3284
 8225SOL     OW32665   4.323   3.284   6.083  0.1107  0.1943 -0.2281
 8225SOL    HW232666   4.329   3.378   6.102  2.3473  0.0123  0.2589
 8225SOL    HW332667   4.350   3.276   5.992 -0.6568  0.0565 -0.4522
 8225SOL    MW432668   4.327   3.295   6.074 -0.2002  0.0952  0.4714
 8226SOL     OW32669   0.484   5.973   2.995 -0.3593 -0.7946 -0.2345
 8226SOL    HW232670   0.565   6.013   3.027  0.3696 -1.3127 -1.3456
 8226SOL    HW332671   0.421   6.045   2.995  0.5811  0.0747 -1.0045
 8226SOL    MW432672   0.487   5.988   2.999 -0.1673  0.2724 -0.7834
 8227SOL     OW32673   0.130   1.418   0.335  0.0589  0.2160  0.4413
 8227SOL    HW232674   0.129   1.454   0.424 -0.7728  1.2464  0.0407
 8227SOL    HW332675   0.163   1.490   0.281 -0.2676 -0.1082 -0.1957
 8227SOL    MW432676   0.135   1.432   0.340 -0.1575 -0.0266 -0.0976
 8228SOL     OW32677   6.040   0.121   0.796 -0.3472  0.4252 -0.4908
 8228SOL    HW232678   5.970   0.065   0.764 -1.0369  1.2209 -0.4077
 8228SOL    HW332679   6.025   0.205   0.752 -0.8446  1.3133  1.2784
 8228SOL    MW432680   6.029   0.125   0.786  0.6806  0.7566  0.1757
 8229SOL     OW32681   3.387   1.081   4.063  0.1558  0.1750 -0.1768
 8229SOL    HW232682   3.368   0.988   4.073 -2.4497  0.4327 -1.9154
 8229SOL    HW332683   3.451   1.086   3.992  1.1361 -0.3005  0.6465
 8229SOL    MW432684   3.393   1.070   4.055  0.2127 -0.1989 -0.1344
 8230SOL     OW32685   2.928   1.842   3.549  0.0679  0.2984  0.1076
 8230SOL    HW232686   2.989   1.913   3.527 -0.6979  0.9438 -0.0022
 8230SOL    HW332687   2.912   1.853   3.642  0.5295 -0.2101  0.2524
 8230SOL    MW432688   2.934   1.853   3.558  0.5924  0.2044 -0.1158
 8231SOL     OW32689   2.518   5.505   0.296  0.0150 -0.1204 -0.5070
 8231SOL    HW232690   2.458   5.473   0.229  0.1292  0.9241 -1.1296
 8231SOL    HW332691   2.475   5.582   0.333  0.3079 -0.2287  0.0745
 8231SOL    MW432692   2.505   5.511   0.292 -0.1904 -0.1401  0.6942
 8232SOL     OW32693   2.904   0.714   3.945  0.7235  0.1260  0.1048
 8232SOL    HW232694   2.975   0.654   3.922  1.5291  0.7944  0.8184
 8232SOL    HW332695   2.849   0.716   3.866  0.8503 -1.2831 -0.0556
 8232SOL    MW432696   2.906   0.706   3.931  1.2598  0.1015 -0.3595
 8233SOL     OW32697   2.379   5.815   6.248 -0.1581  0.3024  0.2966
 8233SOL    HW232698   2.301   5.765   6.224  0.0421  0.4419 -0.6707
 8233SOL    HW332699   2.370   5.828   6.343 -0.7841 -0.5739  0.3773
 8233SOL    MW432700   2.367   5.810   6.258  0.4995  0.2451 -0.5466
 8234SOL     OW32701   4.756   1.503   4.543  0.2026  0.2269 -0.1762
 8234SOL    HW232702   4.795   1.562   4.478  1.1122 -0.6432 -0.4331
 8234SOL    HW332703   4.814   1.510   4.619  0.5187 -0.5977 -0.3368
 8234SOL    MW432704   4.769   1.512   4.544 -0.4279  0.6470 -0.0100
 8235SOL     OW32705   2.878   0.613   1.551 -0.0660  0.7230  0.9329
 8235SOL    HW232706   2.836   0.689   1.593 -2.2606 -0.7319  1.5634
 8235SOL    HW332707   2.810   0.577   1.494  1.5018  0.1949 -0.7072
 8235SOL    MW432708   2.863   0.618   1.549  0.6348  0.0863  0.4221
 8236SOL     OW32709   5.906   0.830   2.483  0.1037  0.0342  0.1541
 8236SOL    HW232710   5.946   0.917   2.475 -0.4399  0.2723 -0.0041
 8236SOL    HW332711   5.870   0.813   2.396  1.1054 -0.7959 -0.1115
 8236SOL    MW432712   5.907   0.839   2.470  0.1428  0.1414 -0.0047
 8237SOL     OW32713   4.525   0.232   3.397 -0.2774 -0.7589 -0.1320
 8237SOL    HW232714   4.529   0.195   3.485 -0.6187  0.5153  0.4513
 8237SOL    HW332715   4.433   0.259   3.387 -0.2071 -0.7674 -0.8179
 8237SOL    MW432716   4.513   0.231   3.407  0.3560  0.4811 -0.3675
 8238SOL     OW32717   4.617   1.404   1.462 -0.2598 -0.5049  0.6969
 8238SOL    HW232718   4.671   1.410   1.383 -0.7237 -3.0638  0.1060
 8238SOL    HW332719   4.678   1.374   1.530  0.1595  1.7768  1.4233
 8238SOL    MW432720   4.632   1.401   1.461  0.0757  0.2789  0.2908
 8239SOL     OW32721   5.452   4.684   1.350 -0.7972  0.4227  0.2361
 8239SOL    HW232722   5.389   4.756   1.355 -3.4462 -1.7014 -0.2509
 8239SOL    HW332723   5.475   4.678   1.258  0.3902  1.3505  0.4474
 8239SOL    MW432724   5.447   4.693   1.339 -0.1328 -0.0074 -0.4936
 8240SOL     OW32725   1.956   0.282   5.668  0.2638  0.0975  0.0686
 8240SOL    HW232726   1.916   0.368   5.664  1.1187  0.4681 -0.7972
 8240SOL    HW332727   2.050   0.298   5.658  0.3989 -0.9539 -0.5139
 8240SOL    MW432728   1.963   0.295   5.667  0.5308 -0.6431  0.0239
 8241SOL     OW32729   6.222   5.294   1.799 -0.2672 -0.0170  0.3932
 8241SOL    HW232730   6.211   5.225   1.863 -0.9941  0.8082  1.1887
 8241SOL    HW332731   6.177   5.370   1.837 -1.0096  0.4041 -1.2246
 8241SOL    MW432732   6.215   5.295   1.812 -0.2819  0.6052 -0.0288
 8242SOL     OW32733   3.555   2.073   3.199  0.8732  0.3691 -0.6057
 8242SOL    HW232734   3.593   2.158   3.177 -0.5411  0.6108 -2.4130
 8242SOL    HW332735   3.469   2.093   3.234  0.3323 -0.3158 -1.4970
 8242SOL    MW432736   3.549   2.087   3.201 -0.6564 -0.3144  0.1229
 8243SOL     OW32737   5.879   1.010   0.273 -0.2598 -0.1727 -0.0817
 8243SOL    HW232738   5.969   0.978   0.285 -0.3107 -1.0058 -1.6576
 8243SOL    HW332739   5.849   0.967   0.193 -0.2711  3.9128 -2.5860
 8243SOL    MW432740   5.887   1.000   0.264  0.8834 -0.4523  0.0041
 8244SOL     OW32741   5.242   2.592   2.627 -0.2771 -0.0162  0.5920
 8244SOL    HW232742   5.281   2.671   2.663 -0.0771  0.4192 -0.5573
 8244SOL    HW332743   5.147   2.607   2.633 -0.2367  0.5231 -0.0693
 8244SOL    MW432744   5.234   2.604   2.633 -0.0526  0.2583  0.2114
 8245SOL     OW32745   1.075   6.266   2.956  0.2273  0.6162 -0.0163
 8245SOL    HW232746   1.053   6.351   2.918 -1.0612  0.0404 -0.6459
 8245SOL    HW332747   1.061   6.204   2.885  0.7652 -0.1680  0.5518
 8245SOL    MW432748   1.070   6.269   2.942 -0.1188  1.1259  0.2199
 8246SOL     OW32749   3.610   5.128   6.102 -0.0146  0.1879  0.0437
 8246SOL    HW232750   3.677   5.067   6.073  0.2044 -0.2940  1.4796
 8246SOL    HW332751   3.572   5.087   6.180 -0.3386  1.5631  0.6416
 8246SOL    MW432752   3.614   5.115   6.108 -0.1251 -0.3592 -0.0182
 8247SOL     OW32753   0.691   0.810   4.242 -0.5054 -0.1832  0.2741
 8247SOL    HW232754   0.718   0.796   4.151 -0.7369  1.3489 -0.0621
 8247SOL    HW332755   0.745   0.750   4.293  0.5966 -0.1157 -0.7624
 8247SOL    MW432756   0.702   0.800   4.236  0.7503 -0.0725 -0.4136
 8248SOL     OW32757   5.312   6.410   5.461  0.1646 -0.0646  0.1012
 8248SOL    HW232758   5.318   6.323   5.500 -2.4845 -0.1028  0.5674
 8248SOL    HW332759   5.371   6.464   5.514  0.1758 -1.1039  1.1953
 8248SOL    MW432760   5.321   6.405   5.473 -0.0861  0.0295 -0.4508
 8249SOL     OW32761   0.685   1.432   2.483 -0.6691  0.1600 -0.1149
 8249SOL    HW232762   0.730   1.379   2.550  0.9785  1.8086  0.1718
 8249SOL    HW332763   0.665   1.370   2.413  2.4170 -0.6725 -0.4013
 8249SOL    MW432764   0.688   1.417   2.483 -0.3669  0.6483 -0.1901
 8250SOL     OW32765   5.835   2.699   0.035  0.5912 -0.1169 -0.2901
 8250SOL    HW232766   5.911   2.643   0.052 -0.5767 -1.7185 -0.0892
 8250SOL    HW332767   5.816   2.739   0.120  0.0024 -1.3137  0.1626
 8250SOL    MW432768   5.843   2.697   0.049  0.3302 -0.6214 -0.0809
 8251SOL     OW32769   3.459   5.355   1.312 -0.2447 -0.3842  0.4291
 8251SOL    HW232770   3.464   5.340   1.406 -1.9208  3.2079  1.2831
 8251SOL    HW332771   3.366   5.369   1.295  0.2158  0.8112 -1.4203
 8251SOL    MW432772   3.447   5.355   1.322  0.2767 -0.8062  0.1295
 8252SOL     OW32773   2.307   4.034   3.805  0.1651 -0.1878 -0.6302
 8252SOL    HW232774   2.309   4.125   3.836 -0.1235  0.4734 -2.4227
 8252SOL    HW332775   2.370   3.988   3.861  0.3980  1.1319  0.2424
 8252SOL    MW432776   2.316   4.040   3.816 -0.4160  0.0501 -0.4623
 8253SOL     OW32777   2.589   6.382   5.455 -0.9628  0.5534  0.0937
 8253SOL    HW232778   2.556   6.390   5.544 -1.8468 -0.2359 -0.1447
 8253SOL    HW332779   2.636   6.299   5.454  0.4920  1.3443  0.2465
 8253SOL    MW432780   2.591   6.372   5.466  0.4702 -0.0137 -0.1027
 8254SOL     OW32781   0.271   0.553   0.562  0.5845 -0.4691 -0.1966
 8254SOL    HW232782   0.291   0.505   0.481  2.0262  1.3470 -1.0056
 8254SOL    HW332783   0.177   0.545   0.572  0.2491 -0.1365 -2.5027
 8254SOL    MW432784   0.262   0.545   0.553 -0.1542  0.4029 -0.5531
 8255SOL     OW32785   4.608   2.702   4.365  0.1039 -0.1786 -0.0881
 8255SOL    HW232786   4.650   2.647   4.298  0.7317 -0.4566  0.5228
 8255SOL    HW332787   4.634   2.791   4.341  0.5722 -0.3008 -0.0484
 8255SOL    MW432788   4.617   2.707   4.353  0.1033 -0.2105  0.0956
 8256SOL     OW32789   0.003   4.955   3.823 -0.1013  0.2135  0.5021
 8256SOL    HW232790  -0.085   4.947   3.788 -0.4484 -0.1063  1.4205
 8256SOL    HW332791   0.050   5.007   3.758 -0.2447 -1.7427 -1.2948
 8256SOL    MW432792  -0.002   4.961   3.809 -0.5972 -0.5739  0.4142
 8257SOL     OW32793   6.070   5.766   4.409  0.0152  0.0513 -0.4209
 8257SOL    HW232794   6.082   5.686   4.460 -1.4327  1.2729  2.0310
 8257SOL    HW332795   6.029   5.737   4.328 -0.0820 -1.7278  0.2225
 8257SOL    MW432796   6.066   5.752   4.405 -0.3360  0.2781  0.1990
 8258SOL     OW32797   0.211   2.724   5.780  0.0247 -0.1561  0.2252
 8258SOL    HW232798   0.134   2.701   5.728  1.1687 -1.8475 -0.8069
 8258SOL    HW332799   0.177   2.738   5.869 -1.4903 -0.6497 -0.2481
 8258SOL    MW432800   0.196   2.723   5.785  0.1950 -0.0898 -0.2182
 8259SOL     OW32801   2.442   0.532   3.838 -0.4202 -0.8720  0.3052
 8259SOL    HW232802   2.356   0.518   3.877 -0.1531 -1.2774  0.7626
 8259SOL    HW332803   2.504   0.496   3.902 -0.0257 -2.6234 -0.9913
 8259SOL    MW432804   2.439   0.525   3.852  0.6092 -0.6262 -0.2524
 8260SOL     OW32805   3.782   2.784   0.240  0.1852  0.5956 -0.2251
 8260SOL    HW232806   3.691   2.812   0.235  0.0441  0.3776  1.0012
 8260SOL    HW332807   3.827   2.855   0.284 -0.2391 -1.0679  3.2487
 8260SOL    MW432808   3.776   2.797   0.245  0.2511  0.8839  0.4675
 8261SOL     OW32809   2.057   0.592   5.343 -0.0213 -0.0042 -0.0384
 8261SOL    HW232810   2.118   0.657   5.306  1.1494 -0.5550  0.8622
 8261SOL    HW332811   1.977   0.604   5.293  0.8961  0.5921 -1.4277
 8261SOL    MW432812   2.055   0.602   5.332  0.9776  0.0994  0.0996
 8262SOL     OW32813   3.845   1.051   2.804 -0.1829 -0.0376  0.1231
 8262SOL    HW232814   3.865   1.068   2.897 -0.1552  0.3424  0.0490
 8262SOL    HW332815   3.835   0.956   2.799 -0.0314 -0.0760  0.4874
 8262SOL    MW432816   3.846   1.040   2.816 -0.1692  0.5427  0.9355
 8263SOL     OW32817   0.485   4.846   2.909 -0.1880 -0.1826 -0.0503
 8263SOL    HW232818   0.498   4.752   2.899  1.1821 -0.0105 -0.1828
 8263SOL    HW332819   0.449   4.874   2.825  0.5951 -0.4197 -0.4775
 8263SOL    MW432820   0.482   4.838   2.896 -0.0204 -0.5334 -0.0386
 8264SOL     OW32821   4.279   0.154   1.396  0.5644 -0.8958  0.3597
 8264SOL    HW232822   4.337   0.195   1.460  2.0529 -1.4130 -0.6230
 8264SOL    HW332823   4.206   0.121   1.449 -0.3291  2.2164  1.2909
 8264SOL    MW432824   4.277   0.155   1.412 -0.3839 -0.3035  0.2780
 8265SOL     OW32825   4.994   0.206   2.601  0.3301 -0.4167  0.0473
 8265SOL    HW232826   5.041   0.288   2.620  0.3056 -0.2683 -0.5165
 8265SOL    HW332827   4.902   0.228   2.615  0.4062 -0.6585  0.9786
 8265SOL    MW432828   4.988   0.220   2.606  0.4389 -0.3904 -0.3465
 8266SOL     OW32829   2.295   5.575   1.041  0.1359  0.3263  0.5373
 8266SOL    HW232830   2.253   5.612   0.962  1.0013  0.3510  0.0814
 8266SOL    HW332831   2.334   5.493   1.011 -1.5843 -0.9103  1.4903
 8266SOL    MW432832   2.294   5.569   1.026 -0.4368  0.0073 -0.0949
 8267SOL     OW32833   6.352   1.759   1.907  0.0459  0.7052 -0.1633
 8267SOL    HW232834   6.314   1.681   1.947  1.8383  0.1447  0.5517
 8267SOL    HW332835   6.298   1.831   1.939 -2.3057 -0.2525 -1.6750
 8267SOL    MW432836   6.339   1.758   1.916 -0.7545  0.4220  0.5468
 8268SOL     OW32837   0.770   2.109   3.010  0.9323  0.3403  0.4202
 8268SOL    HW232838   0.749   2.201   3.028  2.5279  0.5641  1.4203
 8268SOL    HW332839   0.821   2.112   2.929  0.6771  0.3068  0.2608
 8268SOL    MW432840   0.774   2.122   3.002 -0.3184  0.4608 -0.0710
 8269SOL     OW32841   5.148   4.222   5.433  0.0721 -0.2875  0.2983
 8269SOL    HW232842   5.087   4.151   5.416 -0.6409 -0.0513  1.7583
 8269SOL    HW332843   5.227   4.180   5.467  2.1515 -0.9499 -4.4810
 8269SOL    MW432844   5.151   4.207   5.435 -0.2421 -0.0224  0.1599
 8270SOL     OW32845   3.186   2.486   6.151 -0.3456  0.1921  0.2099
 8270SOL    HW232846   3.265   2.533   6.126  0.8880 -1.2571  1.2339
 8270SOL    HW332847   3.161   2.523   6.235 -0.6862  0.5455 -0.0428
 8270SOL    MW432848   3.193   2.497   6.159 -0.5143 -0.3385 -0.2875
 8271SOL     OW32849   2.435   1.364   6.359  0.3156 -0.3083  0.7834
 8271SOL    HW232850   2.354   1.326   6.393  0.8064 -0.5106  1.7651
 8271SOL    HW332851   2.495   1.361   6.433  1.6097 -1.2808 -0.2605
 8271SOL    MW432852   2.432   1.358   6.373  0.3476 -0.1321  0.1490
 8272SOL     OW32853   3.238   1.857   0.819  0.0388 -0.4606  0.6688
 8272SOL    HW232854   3.253   1.871   0.913 -0.2580 -0.8249  0.7767
 8272SOL    HW332855   3.245   1.763   0.808  2.7479 -0.2321 -0.1777
 8272SOL    MW432856   3.241   1.847   0.830  0.0457 -0.4411  0.2726
 8273SOL     OW32857   3.332   5.881   0.723 -0.6015 -0.0521 -0.0497
 8273SOL    HW232858   3.394   5.929   0.778 -1.3139  0.6422  0.1674
 8273SOL    HW332859   3.334   5.792   0.756  0.0552  0.0308  0.1500
 8273SOL    MW432860   3.340   5.876   0.735 -0.8261  0.4433  0.8723
 8274SOL     OW32861   5.214   5.870   6.292 -0.1152  0.5756  0.2645
 8274SOL    HW232862   5.255   5.799   6.341 -3.6920 -0.7135  1.7814
 8274SOL    HW332863   5.213   5.944   6.352 -0.9094  0.2564  0.6612
 8274SOL    MW432864   5.219   5.870   6.306 -0.2915  0.0240 -0.8968
 8275SOL     OW32865   5.579   4.640   2.060 -0.1253 -0.1303 -0.0423
 8275SOL    HW232866   5.499   4.687   2.037  0.2870 -0.0969 -1.5325
 8275SOL    HW332867   5.555   4.547   2.059  0.0888 -0.1903 -1.6233
 8275SOL    MW432868   5.566   4.634   2.057  0.1004  0.1164 -0.2612
 8276SOL     OW32869   4.061   3.973   0.670  0.2668 -0.2043  0.0400
 8276SOL    HW232870   3.977   3.963   0.714  0.5584  0.4133  0.7686
 8276SOL    HW332871   4.076   3.890   0.626 -0.5054 -0.4829  0.2942
 8276SOL    MW432872   4.052   3.961   0.670 -0.0101 -0.5086  0.5602
 8277SOL     OW32873   2.153   3.242   3.665  0.6470  0.4758 -0.0453
 8277SOL    HW232874   2.193   3.167   3.708  4.5346  2.3985  0.0749
 8277SOL    HW332875   2.148   3.309   3.732  0.0635  1.3143 -0.8925
 8277SOL    MW432876   2.157   3.241   3.679 -0.4303  1.1785  0.1041
 8278SOL     OW32877   3.882   3.025   4.731 -0.3750 -0.2510  0.2218
 8278SOL    HW232878   3.893   3.110   4.690  0.9631  0.1889  1.3849
 8278SOL    HW332879   3.934   2.965   4.677 -1.1658 -0.3152 -0.4883
 8278SOL    MW432880   3.890   3.028   4.719 -0.0361  0.9892 -0.2561
 8279SOL     OW32881   1.925   5.522   1.489 -0.2319 -0.1512 -0.7058
 8279SOL    HW232882   1.942   5.535   1.396  1.2317  0.2547 -0.4026
 8279SOL    HW332883   1.986   5.454   1.516 -0.6571 -0.2811 -0.0459
 8279SOL    MW432884   1.935   5.515   1.480 -0.4678  0.2130 -0.2548
 8280SOL     OW32885   3.344   5.895   0.439  0.0705 -0.4118  0.5078
 8280SOL    HW232886   3.274   5.949   0.403 -0.6532 -0.7150  1.4229
 8280SOL    HW332887   3.342   5.912   0.533  2.7005  1.3009  0.3899
 8280SOL    MW432888   3.335   5.904   0.447  0.0886  0.1898  0.0915
 8281SOL     OW32889   6.175   5.700   5.159 -0.4136  0.2762 -0.9040
 8281SOL    HW232890   6.194   5.610   5.185 -1.1497  0.4578  0.3575
 8281SOL    HW332891   6.210   5.708   5.070  0.9241 -0.8142 -0.4968
 8281SOL    MW432892   6.182   5.689   5.151  0.0052 -0.6653 -0.3526
 8282SOL     OW32893   0.667   1.980   4.436  0.4358  0.3680  0.4725
 8282SOL    HW232894   0.640   1.898   4.394  1.4623  0.0506  0.4051
 8282SOL    HW332895   0.585   2.026   4.453 -0.3019 -1.3106  1.8322
 8282SOL    MW432896   0.652   1.975   4.433  0.4618  0.1043  0.1325
 8283SOL     OW32897   1.711   2.709   2.582  0.1324  0.3346  0.1180
 8283SOL    HW232898   1.786   2.711   2.522 -0.4459 -0.3379 -0.6548
 8283SOL    HW332899   1.686   2.801   2.590 -0.4711  0.3753 -1.6230
 8283SOL    MW432900   1.718   2.722   2.575  0.4741 -0.1352  0.3463
 8284SOL     OW32901   2.382   4.972   1.685 -0.6224  0.4917  0.0116
 8284SOL    HW232902   2.390   4.876   1.683  0.7014  0.5707  0.2512
 8284SOL    HW332903   2.289   4.988   1.697 -1.0959 -0.7402 -1.6103
 8284SOL    MW432904   2.371   4.961   1.686 -0.6368  0.3171  0.5075
 8285SOL     OW32905   4.598   4.739   4.681 -0.3708  0.1422  0.0869
 8285SOL    HW232906   4.664   4.670   4.674  0.9480  1.3231  0.3071
 8285SOL    HW332907   4.525   4.698   4.726  0.8095 -0.8158  1.2291
 8285SOL    MW432908   4.597   4.725   4.686 -0.3572 -0.3541 -0.0323
 8286SOL     OW32909   3.407   1.801   3.224  0.4512 -0.5813  0.2901
 8286SOL    HW232910   3.450   1.859   3.162  1.4706 -0.9491  0.6354
 8286SOL    HW332911   3.359   1.739   3.169 -0.7747  0.6505 -0.0806
 8286SOL    MW432912   3.406   1.800   3.209  0.5850  0.5884  0.0992
 8287SOL     OW32913   0.675   3.390   1.797 -0.2279  0.0075  0.3042
 8287SOL    HW232914   0.704   3.474   1.763  0.1424 -0.5652 -0.8493
 8287SOL    HW332915   0.627   3.411   1.878  0.1524  1.2774  0.2086
 8287SOL    MW432916   0.672   3.404   1.803  0.1152  0.3713  0.2005
 8288SOL     OW32917   1.917   5.479   2.285 -0.2554 -0.3290  0.1440
 8288SOL    HW232918   1.936   5.552   2.344  0.9417  0.2648 -0.9330
 8288SOL    HW332919   1.986   5.483   2.219 -1.4220 -1.1050 -1.1762
 8288SOL    MW432920   1.928   5.489   2.284 -0.1473  0.2571 -0.0584
 8289SOL     OW32921   3.969   4.321   4.140 -0.5946 -0.2010  0.7708
 8289SOL    HW232922   3.976   4.250   4.204  1.8825 -0.8680 -0.1295
 8289SOL    HW332923   3.878   4.349   4.145 -1.2737 -2.4193  2.2424
 8289SOL    MW432924   3.958   4.315   4.149 -0.7976  0.8266 -0.2602
 8290SOL     OW32925   2.598   3.838   6.103 -0.2589 -0.0735  0.2958
 8290SOL    HW232926   2.655   3.847   6.179 -0.6810  1.2073  0.4832
 8290SOL    HW332927   2.616   3.916   6.050 -1.0340 -0.2087 -0.1816
 8290SOL    MW432928   2.608   3.850   6.106 -0.1564  0.1446 -0.4770
 8291SOL     OW32929   3.615   3.911   6.009  0.6562  0.4736  0.1622
 8291SOL    HW232930   3.586   3.956   6.088  1.5915  0.2463  0.6443
 8291SOL    HW332931   3.696   3.867   6.034 -0.1063 -1.3148 -0.3433
 8291SOL    MW432932   3.622   3.911   6.023 -0.3429 -0.4308  0.0898
 8292SOL     OW32933   5.970   3.764   3.098 -0.1107  0.3212 -0.5675
 8292SOL    HW232934   5.934   3.712   3.171 -0.4171 -1.8782 -2.1823
 8292SOL    HW332935   5.902   3.829   3.080 -1.2974 -0.8811 -0.6387
 8292SOL    MW432936   5.956   3.766   3.105  0.7692 -0.6311 -0.4791
 8293SOL     OW32937   5.962   0.540   1.896  0.7213  0.5009 -0.2986
 8293SOL    HW232938   6.048   0.504   1.875  0.2025 -1.1887  0.2773
 8293SOL    HW332939   5.959   0.538   1.992  0.4599  1.6256 -0.2740
 8293SOL    MW432940   5.973   0.535   1.906  0.1235 -0.0262 -0.0214
 8294SOL     OW32941   3.369   3.613   5.440  0.4281  0.1340 -0.3167
 8294SOL    HW232942   3.367   3.667   5.519  0.2544 -0.6903  0.2663
 8294SOL    HW332943   3.376   3.523   5.473 -1.0606 -0.3385 -1.1768
 8294SOL    MW432944   3.369   3.608   5.455  0.0576  0.6150  0.1419
 8295SOL     OW32945   4.191   1.376   1.387  0.2575 -0.2192  0.0715
 8295SOL    HW232946   4.170   1.427   1.308 -0.2620 -0.8377 -0.2039
 8295SOL    HW332947   4.107   1.340   1.415  0.5313 -0.4703  0.5803
 8295SOL    MW432948   4.177   1.378   1.380  0.4203  0.2476 -0.2347
 8296SOL     OW32949   1.501   5.424   1.403  0.3183 -0.0252 -0.1933
 8296SOL    HW232950   1.436   5.441   1.471  0.1780 -0.9768 -0.0750
 8296SOL    HW332951   1.471   5.343   1.361  0.3803  0.5658 -1.4182
 8296SOL    MW432952   1.488   5.415   1.406  0.4055  0.3002 -0.0481
 8297SOL     OW32953   0.600   1.578   2.715 -0.2588  0.1082  0.1850
 8297SOL    HW232954   0.522   1.623   2.681 -1.4844 -2.4302 -0.5508
 8297SOL    HW332955   0.639   1.537   2.638  1.4071  0.6476  0.6853
 8297SOL    MW432956   0.595   1.579   2.700  0.4665 -0.7008 -0.5410
 8298SOL     OW32957   5.780   0.671   2.260 -0.4052 -0.3675 -0.0603
 8298SOL    HW232958   5.855   0.622   2.226 -1.0376 -0.2185 -1.7821
 8298SOL    HW332959   5.704   0.619   2.234 -0.9777  0.3405  0.1626
 8298SOL    MW432960   5.780   0.658   2.252  0.0771  0.5585 -0.0787
 8299SOL     OW32961   0.879   0.226   0.762 -0.3218  0.2169  0.2451
 8299SOL    HW232962   0.944   0.191   0.700  0.0094 -0.7037  1.0920
 8299SOL    HW332963   0.930   0.277   0.824 -0.5873  0.6381  0.1251
 8299SOL    MW432964   0.894   0.228   0.762 -0.7210 -0.2984  0.2996
 8300SOL     OW32965   0.784   3.671   3.096  0.2276 -0.0301  0.0088
 8300SOL    HW232966   0.825   3.745   3.141  1.6659 -0.7980  0.0432
 8300SOL    HW332967   0.764   3.704   3.009  0.7924  0.4383  0.0466
 8300SOL    MW432968   0.787   3.685   3.090 -0.1520 -0.4051 -0.3260
 8301SOL     OW32969   2.441   1.871   5.685 -0.3506  0.0783 -0.1302
 8301SOL    HW232970   2.498   1.861   5.609  0.6781  0.5777  0.5574
 8301SOL    HW332971   2.366   1.920   5.652  1.0368  2.1321 -0.3985
 8301SOL    MW432972   2.439   1.876   5.670  0.0714 -0.1147  0.3114
 8302SOL     OW32973   4.464   3.085   0.955  0.3040  0.4143  0.2403
 8302SOL    HW232974   4.520   3.014   0.924 -0.3754  0.2420 -0.6395
 8302SOL    HW332975   4.379   3.043   0.972 -1.0893  1.4189 -3.2435
 8302SOL    MW432976   4.460   3.070   0.953  0.6433  0.2432  0.0235
 8303SOL     OW32977   1.269   1.985   6.416 -0.3119  0.2765 -0.0903
 8303SOL    HW232978   1.243   2.008   6.327  1.7789  2.3224 -0.2622
 8303SOL    HW332979   1.225   2.050   6.471 -0.1935  0.1238  0.1864
 8303SOL    MW432980   1.260   1.997   6.412  0.0564  0.0040  0.6936
 8304SOL     OW32981   5.618   2.229   4.829 -0.5993 -0.3024 -0.0338
 8304SOL    HW232982   5.605   2.134   4.821 -0.3721 -0.5840  2.2838
 8304SOL    HW332983   5.690   2.238   4.891 -1.3651  1.3904  0.6719
 8304SOL    MW432984   5.626   2.218   4.836 -0.0457 -0.2252  0.4710
 8305SOL     OW32985   5.842   5.086   0.385 -0.2700 -0.4316 -0.7209
 8305SOL    HW232986   5.835   5.157   0.448  0.5797  0.3822 -1.4993
 8305SOL    HW332987   5.762   5.034   0.397 -0.3941  0.0336  0.5920
 8305SOL    MW432988   5.830   5.088   0.395 -0.1024  0.3028  0.6342
 8306SOL     OW32989   3.230   4.220   1.890 -0.1680 -0.1319 -0.3397
 8306SOL    HW232990   3.138   4.242   1.877 -0.8451 -2.1151  0.6809
 8306SOL    HW332991   3.236   4.127   1.869  1.2824 -0.3950  1.0607
 8306SOL    MW432992   3.218   4.211   1.886 -0.4205 -0.3476 -0.6187
 8307SOL     OW32993   0.996   5.672   6.043 -0.0906  0.2190 -0.2502
 8307SOL    HW232994   0.951   5.591   6.018 -0.1799  0.3717 -0.5975
 8307SOL    HW332995   1.029   5.655   6.131  2.4568 -1.2680 -1.3875
 8307SOL    MW432996   0.994   5.659   6.051 -0.1290 -0.2049 -0.1784
 8308SOL     OW32997   0.607   5.743   0.625 -0.1993  0.4214 -0.1252
 8308SOL    HW232998   0.604   5.839   0.622 -0.4253  0.3866 -1.8866
 8308SOL    HW332999   0.522   5.715   0.594 -0.0045 -0.3669  0.0345
 8308SOL    MW433000   0.596   5.752   0.621  0.2498 -0.5464  0.3706
 8309SOL     OW33001   4.428   0.802   4.198 -0.3905  0.3547  0.0856
 8309SOL    HW233002   4.470   0.716   4.191 -0.4626  0.2010  1.3305
 8309SOL    HW333003   4.458   0.836   4.282 -0.4195  1.5281 -0.3650
 8309SOL    MW433004   4.438   0.795   4.208  0.2533  0.7438  0.2878
 8310SOL     OW33005   0.917   1.264   2.085 -0.3840 -0.2141  0.2250
 8310SOL    HW233006   0.896   1.266   1.992 -1.7285 -2.0341  0.4486
 8310SOL    HW333007   0.874   1.341   2.121 -1.5827 -0.6100 -0.3330
 8310SOL    MW433008   0.909   1.274   2.078 -0.0332  0.0755  0.5211
 8311SOL     OW33009   3.648   6.367   0.622  0.2694 -0.5317  0.2115
 8311SOL    HW233010   3.729   6.327   0.589  0.2775 -1.0697  0.8450
 8311SOL    HW333011   3.581   6.302   0.602 -0.1140  0.1846 -0.8644
 8311SOL    MW433012   3.650   6.353   0.615  0.0404 -0.9194 -0.1751
 8312SOL     OW33013   5.808   5.007   3.424  0.6332  0.1347 -0.4208
 8312SOL    HW233014   5.797   4.955   3.344  0.9506 -0.3089 -0.1820
 8312SOL    HW333015   5.832   4.943   3.491  2.5809  0.7714 -0.4624
 8312SOL    MW433016   5.809   4.992   3.422 -0.4261 -0.0838  0.5639
 8313SOL     OW33017   4.604   5.050   5.962 -0.5589 -0.0659 -0.2909
 8313SOL    HW233018   4.530   5.038   5.902 -1.8169  0.1796  1.1521
 8313SOL    HW333019   4.585   4.993   6.036 -0.3992  1.5501  1.0608
 8313SOL    MW433020   4.591   5.041   5.964 -0.1724  0.1723  0.2267
 8314SOL     OW33021   2.934   4.648   1.076  0.1791  0.3903 -0.0049
 8314SOL    HW233022   2.973   4.716   1.131  1.2567 -0.0955 -0.1391
 8314SOL    HW333023   2.978   4.567   1.103  0.1738  0.0234 -1.0420
 8314SOL    MW433024   2.945   4.646   1.087  0.4125  0.2924 -0.3906
 8315SOL     OW33025   5.345   4.625   3.268  0.1567  0.2895 -0.0524
 8315SOL    HW233026   5.425   4.608   3.218 -0.3493 -0.6279 -0.5804
 8315SOL    HW333027   5.274   4.596   3.210 -0.4316 -1.1322  1.3056
 8315SOL    MW433028   5.346   4.619   3.253  0.4247  0.6475  0.1600
 8316SOL     OW33029   0.169   5.089   2.773 -0.3717 -0.2173  0.3318
 8316SOL    HW233030   0.121   5.030   2.831 -0.6486 -1.9038 -1.4840
 8316SOL    HW333031   0.101   5.129   2.718  0.0132 -0.0873 -0.0616
 8316SOL    MW433032   0.153   5.086   2.773 -0.0711 -0.0764  0.6886
 8317SOL     OW33033   0.354   0.319   6.190  0.5936  0.0414  0.5424
 8317SOL    HW233034   0.312   0.241   6.155  1.4291 -0.3675  0.4160
 8317SOL    HW333035   0.291   0.389   6.175  0.4944 -0.3094 -0.8550
 8317SOL    MW433036   0.340   0.318   6.183  0.0198 -0.1458  0.3037
 8318SOL     OW33037   2.945   3.445   4.408  0.0621  0.0507  0.2491
 8318SOL    HW233038   2.894   3.509   4.458 -0.3166  0.3521 -0.5129
 8318SOL    HW333039   2.952   3.483   4.320  0.2551 -0.7246 -0.0779
 8318SOL    MW433040   2.940   3.458   4.403 -0.3288 -0.4122 -0.1764
 8319SOL     OW33041   5.184   5.427   1.689 -0.3663 -0.1187 -0.0691
 8319SOL    HW233042   5.116   5.365   1.717 -1.7945  0.7088 -1.5335
 8319SOL    HW333043   5.244   5.432   1.764 -2.1365 -0.5685  1.4663
 8319SOL    MW433044   5.183   5.420   1.703 -0.2487  0.1163  0.4227
 8320SOL     OW33045   0.956   5.635   1.778  0.4527  0.2828  0.0620
 8320SOL    HW233046   0.944   5.561   1.718 -1.9664  0.1729  0.5761
 8320SOL    HW333047   0.943   5.713   1.723 -0.3933  0.2179  0.1602
 8320SOL    MW433048   0.953   5.636   1.763  0.1084 -0.2761  0.1035
 8321SOL     OW33049   4.858   3.439   2.101  0.0902  0.0550 -0.3612
 8321SOL    HW233050   4.861   3.461   2.194 -3.1204  0.9993 -0.3576
 8321SOL    HW333051   4.888   3.518   2.056  0.7681 -0.0884 -0.1774
 8321SOL    MW433052   4.862   3.452   2.108  0.2796 -0.4012 -0.4110
 8322SOL     OW33053   1.655   1.848   4.633 -0.5296 -0.5913 -0.0755
 8322SOL    HW233054   1.686   1.895   4.710 -0.6398  1.6169 -1.2753
 8322SOL    HW333055   1.733   1.804   4.599 -0.3231 -0.9785  0.8774
 8322SOL    MW433056   1.669   1.848   4.638 -0.0821  0.1323 -0.1558
 8323SOL     OW33057   3.403   6.122   2.390 -0.2940 -0.3168 -0.1039
 8323SOL    HW233058   3.350   6.086   2.460 -0.2523 -1.4870 -0.6527
 8323SOL    HW333059   3.460   6.050   2.363 -1.2271 -0.3289 -2.2366
 8323SOL    MW433060   3.404   6.108   2.396  0.3422  0.3221 -0.2629
 8324SOL     OW33061   3.828   2.673   5.619 -0.0830  0.1070  0.2052
 8324SOL    HW233062   3.832   2.580   5.644 -1.5814  0.5295  2.3233
 8324SOL    HW333063   3.919   2.702   5.618  0.5601 -1.6804 -2.0020
 8324SOL    MW433064   3.840   2.664   5.622  0.1958  0.0544  0.0688
 8325SOL     OW33065   3.760   2.183   4.456 -0.3608 -0.0774  0.2691
 8325SOL    HW233066   3.728   2.262   4.411  3.2360  1.5735  0.2498
 8325SOL    HW333067   3.806   2.134   4.389 -1.1964 -1.4471  0.6517
 8325SOL    MW433068   3.762   2.187   4.441 -0.0815  0.1467 -0.2836
 8326SOL     OW33069   5.346   2.941   4.847 -0.7644  0.1649  0.1756
 8326SOL    HW233070   5.275   2.882   4.873  0.4527 -1.0627  0.8612
 8326SOL    HW333071   5.395   2.892   4.781  0.1152  0.5165  0.5532
 8326SOL    MW433072   5.343   2.927   4.842  0.2990 -0.8783 -0.5397
 8327SOL     OW33073   2.881   2.761   4.064  0.7452 -0.2439 -0.2010
 8327SOL    HW233074   2.944   2.691   4.047  1.8920  0.3284  1.4111
 8327SOL    HW333075   2.834   2.733   4.142 -1.3668 -0.8629 -1.6295
 8327SOL    MW433076   2.883   2.748   4.072  0.0656  0.2900  0.2366
 8328SOL     OW33077   1.155   1.732   1.769 -0.0108 -0.2237 -0.6401
 8328SOL    HW233078   1.241   1.716   1.729 -0.8732 -0.2545 -2.6293
 8328SOL    HW333079   1.146   1.664   1.835  1.1597 -0.7360 -0.9850
 8328SOL    MW433080   1.165   1.721   1.772 -0.6295 -0.0124  0.1442
 8329SOL     OW33081   0.164   4.754   3.138 -0.7760  0.0535  0.3686
 8329SOL    HW233082   0.126   4.781   3.221 -0.7615  0.0524  0.3756
 8329SOL    HW333083   0.239   4.812   3.125 -0.8078  0.0865  0.3324
 8329SOL    MW433084   0.169   4.765   3.147 -0.6834  0.2294  0.4624
 8330SOL     OW33085   1.369   0.971   4.268 -0.2296 -0.1205  0.2660
 8330SOL    HW233086   1.408   1.049   4.307  3.5112 -0.8513 -1.5436
 8330SOL    HW333087   1.338   1.000   4.183  1.6414 -0.5678 -0.6313
 8330SOL    MW433088   1.370   0.985   4.262 -0.3956 -0.3993 -0.2246
 8331SOL     OW33089   6.295   3.554   0.904  0.2711  0.1910 -0.8497
 8331SOL    HW233090   6.264   3.644   0.897  1.7062  0.7335 -0.4744
 8331SOL    HW333091   6.388   3.562   0.924  0.3852 -1.3776 -0.6518
 8331SOL    MW433092   6.303   3.567   0.906  0.1514 -0.5186 -0.1394
 8332SOL     OW33093   6.357   1.202   3.193 -0.1416  0.1632  0.0161
 8332SOL    HW233094   6.375   1.152   3.272  0.5961 -2.3644 -1.6256
 8332SOL    HW333095   6.262   1.210   3.191 -0.2531 -0.8249  0.5629
 8332SOL    MW433096   6.347   1.197   3.203  0.4356 -0.1037 -0.6547
 8333SOL     OW33097   3.651   0.998   5.072  0.1449 -0.1457 -0.1323
 8333SOL    HW233098   3.576   1.045   5.036  0.5707 -0.6371 -1.7177
 8333SOL    HW333099   3.728   1.045   5.038  0.5676 -0.9824 -0.3554
 8333SOL    MW433100   3.652   1.011   5.063 -0.2296 -0.0129  0.4923
 8334SOL     OW33101   5.225   4.977   2.089 -0.0816 -0.3058 -0.2254
 8334SOL    HW233102   5.301   5.033   2.080  1.0680 -1.6622  0.6009
 8334SOL    HW333103   5.166   5.005   2.019  1.0181  0.9997 -0.6674
 8334SOL    MW433104   5.227   4.988   2.079  0.0705  0.1734 -0.3238
 8335SOL     OW33105   1.766   3.086   1.866 -0.7295  0.1432 -0.2997
 8335SOL    HW233106   1.784   3.180   1.864 -1.1064  0.2203 -0.2177
 8335SOL    HW333107   1.702   3.075   1.937  0.3594 -0.3649  0.6344
 8335SOL    MW433108   1.760   3.097   1.875  0.0132 -0.5107  0.4300
 8336SOL     OW33109   3.771   3.409   0.348 -0.2494 -0.2285 -0.3336
 8336SOL    HW233110   3.754   3.502   0.354  1.0398  0.1822 -2.0678
 8336SOL    HW333111   3.687   3.367   0.369 -1.2407  1.3692 -0.9360
 8336SOL    MW433112   3.758   3.415   0.351  0.7018 -0.6072 -0.2561
 8337SOL     OW33113   1.201   3.632   5.051  0.6689 -0.6413 -0.0484
 8337SOL    HW233114   1.151   3.702   5.008 -1.6771 -1.4060  1.2570
 8337SOL    HW333115   1.232   3.673   5.132  2.2967 -0.1564 -0.8752
 8337SOL    MW433116   1.198   3.647   5.056  0.1982 -0.4592 -0.2829
 8338SOL     OW33117   0.565   2.526   4.223 -0.3510  0.6225  1.0179
 8338SOL    HW233118   0.524   2.463   4.163  1.0348  2.1170 -1.6855
 8338SOL    HW333119   0.658   2.520   4.203 -0.0362  2.3881  1.8101
 8338SOL    MW433120   0.572   2.517   4.212 -0.5454  0.0323  0.2570
 8339SOL     OW33121   3.604   6.114   2.954  0.6555 -0.0368 -0.0079
 8339SOL    HW233122   3.515   6.082   2.969  0.5318 -0.7641 -2.0352
 8339SOL    HW333123   3.616   6.182   3.020 -0.8307 -0.9708  1.3056
 8339SOL    MW433124   3.594   6.119   2.965 -0.0238  0.2154  0.3210
 8340SOL     OW33125   3.190   4.995   5.962  0.5003 -0.5928  0.3637
 8340SOL    HW233126   3.163   5.084   5.981 -1.5096 -0.9264 -0.6589
 8340SOL    HW333127   3.211   4.957   6.048 -2.5876 -0.3172  1.3848
 8340SOL    MW433128   3.189   5.002   5.976  0.0953 -0.2831  0.1213
 8341SOL     OW33129   3.585   4.444   2.858  0.4262  0.0311 -0.1991
 8341SOL    HW233130   3.551   4.426   2.770 -1.5391 -3.1602  1.0209
 8341SOL    HW333131   3.508   4.449   2.914  1.6759 -0.2087  1.6563
 8341SOL    MW433132   3.570   4.442   2.854  0.7491  0.0592 -0.3936
 8342SOL     OW33133   1.687   1.277   5.483  0.5064 -0.0632  0.2138
 8342SOL    HW233134   1.724   1.212   5.423 -1.0619 -0.3301 -0.5138
 8342SOL    HW333135   1.724   1.255   5.568  1.9999 -0.2912 -0.4747
 8342SOL    MW433136   1.697   1.265   5.486 -0.2466 -0.3831  0.1793
 8343SOL     OW33137   5.422   0.031   0.632  0.1660  0.0865 -0.0349
 8343SOL    HW233138   5.466   0.115   0.635 -1.8252  1.2004  2.4897
 8343SOL    HW333139   5.372   0.032   0.550  0.4880  1.1934 -0.2242
 8343SOL    MW433140   5.421   0.042   0.622 -0.2183 -0.1668  0.2482
 8344SOL     OW33141   0.437   0.298   0.445 -0.0696  0.7427 -0.0903
 8344SOL    HW233142   0.401   0.264   0.527  1.1351  1.5401  0.8014
 8344SOL    HW333143   0.527   0.323   0.466  0.6529 -0.0938 -1.9521
 8344SOL    MW433144   0.444   0.297   0.458 -0.6206 -0.3514 -0.4705
 8345SOL     OW33145   2.106   0.850   5.559  0.4718  0.6470 -0.1116
 8345SOL    HW233146   2.027   0.869   5.610  0.1690  0.5497 -0.5430
 8345SOL    HW333147   2.126   0.759   5.579 -0.6346  0.0718 -1.4783
 8345SOL    MW433148   2.098   0.841   5.569 -0.2114 -0.3677  0.3519
 8346SOL     OW33149   6.185   4.653   5.721 -0.1253 -0.6507 -0.6818
 8346SOL    HW233150   6.225   4.740   5.729 -0.9551 -0.2198 -1.0850
 8346SOL    HW333151   6.090   4.670   5.726 -0.3082 -1.4858 -1.1803
 8346SOL    MW433152   6.177   4.667   5.723  0.1946 -0.4630 -0.0349
 8347SOL     OW33153   2.454   2.185   4.204  0.2153 -0.2053  0.0021
 8347SOL    HW233154   2.372   2.179   4.157  0.5512 -0.2157 -0.5950
 8347SOL    HW333155   2.433   2.158   4.294 -0.4460 -0.1019 -0.1196
 8347SOL    MW433156   2.441   2.180   4.210  0.5044 -0.6709 -0.0480
 8348SOL     OW33157   2.394   0.528   1.620 -0.5764  0.6439  0.0400
 8348SOL    HW233158   2.360   0.544   1.708 -0.6952 -0.3623  0.1860
 8348SOL    HW333159   2.441   0.445   1.627 -0.3467  0.6942 -0.7848
 8348SOL    MW433160   2.396   0.519   1.632  0.9553  0.1697  0.5731
 8349SOL     OW33161   1.392   6.286   0.563 -0.1386 -0.0692  0.0866
 8349SOL    HW233162   1.418   6.363   0.612  0.6905 -2.0150  2.9398
 8349SOL    HW333163   1.471   6.260   0.515 -0.1075  0.2148 -0.0202
 8349SOL    MW433164   1.406   6.293   0.563  0.0567 -0.0136  0.1678
 8350SOL     OW33165   2.490   3.750   0.758 -0.0021 -0.5743 -0.3487
 8350SOL    HW233166   2.517   3.838   0.733  0.3490 -1.1467 -2.1093
 8350SOL    HW333167   2.405   3.738   0.716  0.7363 -1.6779 -1.5986
 8350SOL    MW433168   2.482   3.760   0.749 -0.3630 -0.2979 -1.0158
 8351SOL     OW33169   5.774   3.322   6.262 -0.0758  0.5663  0.0603
 8351SOL    HW233170   5.847   3.310   6.323 -0.5516  1.2735  0.7974
 8351SOL    HW333171   5.766   3.237   6.217  2.7594  1.1821 -1.8689
 8351SOL    MW433172   5.783   3.309   6.264 -0.0614 -0.3298  0.0326
 8352SOL     OW33173   6.233   1.783   1.677  0.4280 -0.5689  0.3035
 8352SOL    HW233174   6.156   1.832   1.704  1.3314  0.7227  0.5962
 8352SOL    HW333175   6.281   1.767   1.758  0.8150 -0.7693  0.0386
 8352SOL    MW433176   6.229   1.787   1.691  0.3064 -0.2715 -0.1026
 8353SOL     OW33177   2.806   4.278   6.202 -0.1283 -0.2004  0.4652
 8353SOL    HW233178   2.883   4.308   6.155 -0.3970  0.0566  0.1849
 8353SOL    HW333179   2.813   4.317   6.289  0.4432 -0.7911  0.6878
 8353SOL    MW433180   2.817   4.287   6.208  0.1127 -1.1793 -0.1694
 8354SOL     OW33181   5.237   3.692   0.003 -0.8274  0.6094  0.2773
 8354SOL    HW233182   5.244   3.760   0.070  2.2376  1.0941 -0.3801
 8354SOL    HW333183   5.220   3.740  -0.078  1.0132  0.6512 -0.1330
 8354SOL    MW433184   5.235   3.708   0.001  0.3434  0.2408  0.0604
 8355SOL     OW33185   3.111   0.073   0.907 -0.2724  0.0601  0.3488
 8355SOL    HW233186   3.049   0.115   0.847  1.6875  0.4767 -1.4830
 8355SOL    HW333187   3.175   0.142   0.927 -0.2769 -0.3970  2.0912
 8355SOL    MW433188   3.111   0.088   0.902  0.0771 -0.4039 -0.4994
 8356SOL     OW33189   1.664   4.576   3.412 -0.0822  0.3959  0.4255
 8356SOL    HW233190   1.608   4.654   3.413  0.6895  0.9600  0.5604
 8356SOL    HW333191   1.703   4.576   3.325  1.6065  1.4068  1.1426
 8356SOL    MW433192   1.662   4.586   3.401 -0.0100 -0.0037  0.2435
 8357SOL     OW33193   5.478   2.461   2.022  0.5164 -0.1794 -0.1065
 8357SOL    HW233194   5.542   2.459   1.951  0.4795  1.0093 -0.2007
 8357SOL    HW333195   5.507   2.393   2.082  0.7139 -1.0092 -1.1195
 8357SOL    MW433196   5.491   2.452   2.020 -0.1807  0.2182  0.7928
 8358SOL     OW33197   0.794   6.414   5.122 -0.3023  0.3115  0.4359
 8358SOL    HW233198   0.849   6.409   5.044 -1.2461  1.0157 -0.2836
 8358SOL    HW333199   0.773   6.323   5.142 -1.2233  0.1836 -0.9867
 8358SOL    MW433200   0.799   6.401   5.114 -0.2895 -0.2292 -0.0197
 8359SOL     OW33201   3.456   3.963   1.283 -0.1178  0.0265 -0.3011
 8359SOL    HW233202   3.521   3.914   1.232 -1.3544 -3.5661  1.2194
 8359SOL    HW333203   3.500   3.981   1.366 -0.1274  0.2501 -0.3442
 8359SOL    MW433204   3.471   3.959   1.287 -0.7040 -0.3244  0.1554
 8360SOL     OW33205   0.596   3.989   4.088 -1.0320 -0.2749 -0.1824
 8360SOL    HW233206   0.668   4.047   4.063 -0.7937 -0.6564 -0.3873
 8360SOL    HW333207   0.610   3.970   4.180 -1.9564  1.2017  0.3004
 8360SOL    MW433208   0.607   3.994   4.097  0.6078 -1.2184  0.5492
 8361SOL     OW33209   3.261   4.021   5.484  0.0855 -0.3249 -0.4197
 8361SOL    HW233210   3.261   4.000   5.391  2.0118 -2.3927 -0.0626
 8361SOL    HW333211   3.306   3.946   5.525 -1.4378  0.0997  2.2727
 8361SOL    MW433212   3.267   4.008   5.477 -0.1219  0.1051 -0.0086
 8362SOL     OW33213   2.867   5.127   5.019 -0.2728  0.0295 -0.3425
 8362SOL    HW233214   2.879   5.165   4.932  3.7021 -0.9512 -0.4046
 8362SOL    HW333215   2.922   5.181   5.077  0.1661 -1.5877  0.8183
 8362SOL    MW433216   2.876   5.139   5.015 -0.1967  0.2986  0.7395
 8363SOL     OW33217   5.977   5.058   5.132 -0.7520 -0.0223  0.4668
 8363SOL    HW233218   5.937   5.142   5.154  1.7678  1.2533  0.5076
 8363SOL    HW333219   5.957   5.046   5.039 -0.7893  0.8406  0.3550
 8363SOL    MW433220   5.969   5.068   5.122 -0.0543 -0.0212  0.0237
 8364SOL     OW33221   3.970   0.083   2.530 -0.3365  0.0262 -0.2868
 8364SOL    HW233222   3.943   0.002   2.572 -0.4886 -0.0566 -0.5394
 8364SOL    HW333223   3.970   0.148   2.600  0.4285 -0.3305  0.0561
 8364SOL    MW433224   3.966   0.081   2.545  0.4832 -0.1334 -0.5921
 8365SOL     OW33225   5.318   2.385   0.235 -0.5438 -0.4382  0.5227
 8365SOL    HW233226   5.351   2.366   0.147  1.0806  1.1534  0.7348
 8365SOL    HW333227   5.339   2.307   0.286  0.2706 -0.5986 -0.0503
 8365SOL    MW433228   5.325   2.372   0.230  0.5306  0.2003 -0.0492
 8366SOL     OW33229   6.314   1.493   2.885 -0.2794 -0.4636 -0.1593
 8366SOL    HW233230   6.282   1.456   2.968 -1.2407 -1.4246 -0.9308
 8366SOL    HW333231   6.407   1.510   2.901 -0.8332  1.1452  1.7282
 8366SOL    MW433232   6.322   1.490   2.898  0.2331 -0.7738 -0.4895
 8367SOL     OW33233   3.373   2.427   5.537 -0.5150  0.7082  0.5961
 8367SOL    HW233234   3.440   2.402   5.475 -0.0999  0.8221  0.9916
 8367SOL    HW333235   3.398   2.515   5.566 -1.6035  1.3328 -0.3002
 8367SOL    MW433236   3.385   2.436   5.533 -0.0866 -0.1802 -0.7094
 8368SOL     OW33237   3.656   1.710   5.741  0.1040  0.0447 -0.1603
 8368SOL    HW233238   3.722   1.727   5.673  0.7903 -2.4940 -0.2492
 8368SOL    HW333239   3.577   1.688   5.692 -0.6740  2.3025 -0.0490
 8368SOL    MW433240   3.655   1.709   5.725  0.3328  0.5087  0.0504
 8369SOL     OW33241   0.026   1.971   4.491  0.1496 -0.2490  0.2280
 8369SOL    HW233242   0.045   1.896   4.546  3.2601 -0.5836 -1.0810
 8369SOL    HW333243   0.109   2.019   4.487 -1.6661  3.2551  0.9131
 8369SOL    MW433244   0.040   1.968   4.497 -0.4668  0.3898  0.4425
 8370SOL     OW33245   2.143   0.876   1.794  0.1248 -0.2345 -0.1547
 8370SOL    HW233246   2.052   0.851   1.781 -0.6594  1.8726  0.8846
 8370SOL    HW333247   2.187   0.794   1.819 -1.8440 -0.9871  1.1170
 8370SOL    MW433248   2.137   0.862   1.796  0.4911 -0.1565  0.9416
 8371SOL     OW33249   3.998   3.187   2.381  0.3173 -0.0404  0.3268
 8371SOL    HW233250   4.057   3.203   2.455 -1.2056  1.0259  1.3609
 8371SOL    HW333251   3.972   3.095   2.391  1.9479 -0.6139 -0.3020
 8371SOL    MW433252   4.003   3.177   2.392 -0.1547 -0.0263 -0.5440
 8372SOL     OW33253   1.317   1.625   5.274 -0.5010 -0.0916 -0.2300
 8372SOL    HW233254   1.249   1.567   5.240  0.7926 -1.6191 -0.3163
 8372SOL    HW333255   1.399   1.583   5.248  0.5261  0.0917  2.4529
 8372SOL    MW433256   1.319   1.612   5.266  0.0836 -0.0208  0.3285
 8373SOL     OW33257   4.237   4.664   5.543 -0.3702 -0.0431  0.2128
 8373SOL    HW233258   4.174   4.625   5.603  0.4423 -1.3997  0.2142
 8373SOL    HW333259   4.323   4.644   5.580  0.1103  0.3463 -0.6450
 8373SOL    MW433260   4.240   4.656   5.556 -0.0113  0.3919  0.2366
 8374SOL     OW33261   6.268   2.564   5.077  0.2602 -0.3341 -0.5331
 8374SOL    HW233262   6.324   2.632   5.039  0.1947  0.5053  0.8407
 8374SOL    HW333263   6.319   2.484   5.068  3.5796  0.8675  4.0255
 8374SOL    MW433264   6.282   2.563   5.070 -0.6029 -0.0217 -0.0204
 8375SOL     OW33265   4.397   2.531   4.977  0.3556 -0.2064 -0.0333
 8375SOL    HW233266   4.346   2.457   5.010  0.9682 -0.4692  0.3311
 8375SOL    HW333267   4.485   2.518   5.013  0.7743  0.0535 -0.9416
 8375SOL    MW433268   4.402   2.520   4.986 -0.7070 -0.4117 -0.3022
 8376SOL     OW33269   0.085   5.325   0.321  0.5408  0.2485  0.1714
 8376SOL    HW233270   0.132   5.387   0.266 -0.1168  0.5298 -0.0911
 8376SOL    HW333271   0.103   5.353   0.410  1.5344 -0.1516  0.1041
 8376SOL    MW433272   0.094   5.337   0.325 -0.3202  0.5277 -0.0500
 8377SOL     OW33273   1.499   0.797   1.407  0.1181 -0.8669  0.6266
 8377SOL    HW233274   1.466   0.855   1.476 -0.4007  0.1426 -0.4526
 8377SOL    HW333275   1.429   0.732   1.395 -0.6869  0.1522 -0.3383
 8377SOL    MW433276   1.485   0.796   1.415  0.3056 -0.1407  0.2412
 8378SOL     OW33277   1.372   5.933   5.898  0.0962  0.3138  0.5195
 8378SOL    HW233278   1.328   5.966   5.976 -1.5503 -0.8485  0.1437
 8378SOL    HW333279   1.345   5.841   5.893 -1.6505  0.8684 -2.5690
 8378SOL    MW433280   1.362   5.925   5.908  0.0063 -0.6026 -0.1659
 8379SOL     OW33281   3.387   0.048   2.143 -0.0960 -0.7219  0.0615
 8379SOL    HW233282   3.435   0.082   2.068 -1.9024  2.2763  0.0967
 8379SOL    HW333283   3.452   0.045   2.213  0.7065  0.4938 -0.5787
 8379SOL    MW433284   3.402   0.052   2.142 -0.2438  0.4190  0.1299
 8380SOL     OW33285   6.322   2.793   1.219  0.3600 -0.2193  0.3860
 8380SOL    HW233286   6.306   2.710   1.263 -0.7100  0.4676  1.3505
 8380SOL    HW333287   6.250   2.849   1.247 -1.4280 -0.2090 -3.5594
 8380SOL    MW433288   6.310   2.789   1.229  0.2834 -0.3475  0.2766
 8381SOL     OW33289   1.450   1.722   0.997  0.1109 -0.1564  0.4616
 8381SOL    HW233290   1.436   1.640   0.949 -0.7265  0.5662 -0.5598
 8381SOL    HW333291   1.545   1.733   0.996  0.1651 -0.5490 -0.3847
 8381SOL    MW433292   1.461   1.712   0.990  0.8184 -0.4074 -0.2931
 8382SOL     OW33293   4.513   5.826   3.355  0.2520  0.0305  0.2861
 8382SOL    HW233294   4.572   5.753   3.337  0.3506 -0.5061  2.4396
 8382SOL    HW333295   4.433   5.806   3.306  0.1697 -1.7024  1.0794
 8382SOL    MW433296   4.510   5.814   3.346 -0.2352  0.3459  0.1594
 8383SOL     OW33297   0.677   3.414   4.712 -0.7159  0.2933  0.3219
 8383SOL    HW233298   0.757   3.465   4.719 -2.1819  2.5587  1.6542
 8383SOL    HW333299   0.698   3.329   4.752  0.8416  1.0375  1.1313
 8383SOL    MW433300   0.690   3.409   4.718  0.5115  0.4826  0.0314
 8384SOL     OW33301   1.780   2.319   2.061 -0.5609  0.4133 -0.2407
 8384SOL    HW233302   1.747   2.234   2.091  1.4688 -0.0224  0.9417
 8384SOL    HW333303   1.792   2.308   1.967  0.6410 -0.9938  0.0420
 8384SOL    MW433304   1.777   2.306   2.053  0.1730 -0.4255 -0.0707
 8385SOL     OW33305   1.983   0.738   2.387  0.1588  0.1474 -0.2030
 8385SOL    HW233306   2.039   0.799   2.339  2.1397 -1.5973 -0.2535
 8385SOL    HW333307   1.974   0.777   2.474 -0.3036  1.4632 -0.8163
 8385SOL    MW433308   1.989   0.751   2.392  0.0021  0.4357 -0.1743
 8386SOL     OW33309   5.978   0.756   4.842  0.5681  0.6350 -0.1981
 8386SOL    HW233310   5.934   0.709   4.771  0.9183 -0.8800  0.5528
 8386SOL    HW333311   5.907   0.779   4.903  0.5313  0.0363 -0.0065
 8386SOL    MW433312   5.963   0.753   4.841 -0.2781  0.2395  0.3047
 8387SOL     OW33313   1.902   5.098   1.869  0.0847  0.6560  0.2012
 8387SOL    HW233314   1.921   5.078   1.961 -0.6250 -1.5628 -0.0819
 8387SOL    HW333315   1.843   5.028   1.841  1.1472  0.6614 -2.2532
 8387SOL    MW433316   1.897   5.086   1.877  0.0538  0.2804  0.3225
 8388SOL     OW33317   3.006   6.200   2.035 -0.2146 -0.5758 -0.4049
 8388SOL    HW233318   3.083   6.217   2.090  0.3256 -2.1041 -0.6405
 8388SOL    HW333319   3.031   6.234   1.949  0.0152 -0.6708 -0.3757
 8388SOL    MW433320   3.020   6.207   2.031  0.0940 -0.6563  0.5592
 8389SOL     OW33321   5.572   5.637   3.793 -0.1971 -0.3428  0.2705
 8389SOL    HW233322   5.543   5.548   3.810  1.5750 -1.1745 -0.7108
 8389SOL    HW333323   5.516   5.668   3.722 -0.7839 -0.6910  0.5801
 8389SOL    MW433324   5.561   5.630   3.786  0.1817 -0.5694 -0.6662
 8390SOL     OW33325   4.281   4.778   2.560 -0.0533 -0.0099 -0.3879
 8390SOL    HW233326   4.214   4.832   2.518 -1.3879 -1.3107 -0.0274
 8390SOL    HW333327   4.232   4.712   2.608  1.5045 -1.2765 -0.4418
 8390SOL    MW433328   4.266   4.776   2.561 -1.2826  0.5194 -0.2123
 8391SOL     OW33329   3.246   1.335   4.681 -0.1670 -0.8070  0.3825
 8391SOL    HW233330   3.216   1.401   4.618 -0.9239 -3.0432 -1.7649
 8391SOL    HW333331   3.175   1.328   4.745 -0.6434 -0.4440 -0.0942
 8391SOL    MW433332   3.233   1.343   4.681  0.1296  0.2104  0.2158
 8392SOL     OW33333   5.590   4.106   4.096 -0.0868 -0.3100 -0.2057
 8392SOL    HW233334   5.665   4.151   4.136 -0.3881 -1.7853  2.2470
 8392SOL    HW333335   5.629   4.050   4.029  0.8442  0.0013  0.0583
 8392SOL    MW433336   5.605   4.105   4.093 -0.1301 -0.2994  0.7393
 8393SOL     OW33337   2.895   5.093   1.353  0.0660  0.2937 -0.2071
 8393SOL    HW233338   2.837   5.077   1.427 -1.3908  1.0595 -1.1374
 8393SOL    HW333339   2.942   5.173   1.376 -0.1912  0.3826  0.0077
 8393SOL    MW433340   2.894   5.101   1.366 -0.0041 -0.1979 -0.2561
 8394SOL     OW33341   0.293   4.718   4.273  0.2303  0.1564 -0.6582
 8394SOL    HW233342   0.374   4.667   4.264 -0.7634 -1.3206 -1.6644
 8394SOL    HW333343   0.312   4.780   4.344  1.7981 -1.0423  0.0389
 8394SOL    MW433344   0.306   4.719   4.281 -0.6183 -0.1705 -0.1384
 8395SOL     OW33345   2.710   5.391   4.361  0.8057 -0.1912  0.8023
 8395SOL    HW233346   2.680   5.455   4.296 -0.1970 -0.6223  0.8115
 8395SOL    HW333347   2.800   5.371   4.335  0.6049  0.0583 -0.1344
 8395SOL    MW433348   2.718   5.397   4.349  0.7624 -0.0118 -0.2301
 8396SOL     OW33349   5.032   1.585   2.993 -0.2619 -0.2407  0.4981
 8396SOL    HW233350   5.002   1.537   3.071  0.6982  0.6606  1.4701
 8396SOL    HW333351   5.121   1.552   2.978 -0.3333 -0.1930 -0.0481
 8396SOL    MW433352   5.040   1.574   3.002  0.2923 -0.6486  0.2115
 8397SOL     OW33353   0.186   3.457   1.950  0.0771 -0.3052 -0.3219
 8397SOL    HW233354   0.203   3.398   2.023  1.0454 -3.0307 -2.5470
 8397SOL    HW333355   0.273   3.490   1.925 -0.2386  0.5867 -0.2775
 8397SOL    MW433356   0.200   3.453   1.956  0.5068 -0.4416 -0.1522
 8398SOL     OW33357   6.422   6.319   2.880  0.5019 -0.1449 -0.0298
 8398SOL    HW233358   6.479   6.356   2.813  0.9706 -1.0409 -0.1474
 8398SOL    HW333359   6.432   6.378   2.955 -0.7175  1.3818 -1.0074
 8398SOL    MW433360   6.431   6.332   2.881  0.0256  0.7124  0.0000
 8399SOL     OW33361   1.062   2.332   4.284  0.2748 -0.5149 -0.1550
 8399SOL    HW233362   1.068   2.278   4.363  0.2056 -0.3649 -0.0480
 8399SOL    HW333363   1.112   2.283   4.218  1.7062  0.1197  0.4013
 8399SOL    MW433364   1.070   2.318   4.285  0.2549 -0.0552 -0.4728
 8400SOL     OW33365   3.288   0.544   1.459  0.1904  0.0829 -0.0588
 8400SOL    HW233366   3.211   0.508   1.413 -0.4453 -0.3779  1.3036
 8400SOL    HW333367   3.289   0.636   1.436  0.6980 -0.3858 -2.0665
 8400SOL    MW433368   3.278   0.551   1.450  0.2827  0.1623 -0.7225
 8401SOL     OW33369   3.356   0.934   3.312 -0.0838 -0.1933 -0.0762
 8401SOL    HW233370   3.318   0.858   3.267  0.4719  0.2551 -1.3407
 8401SOL    HW333371   3.319   0.929   3.401 -0.9496 -1.2926 -0.4596
 8401SOL    MW433372   3.346   0.923   3.318 -0.1431 -0.2980  0.2830
 8402SOL     OW33373   4.050   0.626   4.513 -0.5680  0.1982  0.8021
 8402SOL    HW233374   3.998   0.547   4.524  0.4076 -0.3830  1.4227
 8402SOL    HW333375   4.051   0.667   4.600 -0.8147  0.7362  0.5572
 8402SOL    MW433376   4.044   0.621   4.526 -0.4282  0.1652  0.6570
 8403SOL     OW33377   4.019   3.289   4.953 -0.2284  0.0961  0.6287
 8403SOL    HW233378   4.033   3.258   4.864  0.4642  1.4146  0.2470
 8403SOL    HW333379   4.094   3.256   5.002  0.0991  0.4852  0.4001
 8403SOL    MW433380   4.031   3.281   4.948 -0.1342 -0.0429 -0.2294
 8404SOL     OW33381   5.479   4.839   4.000 -0.1418 -0.6937  0.4528
 8404SOL    HW233382   5.419   4.890   4.055 -0.5398 -0.1102 -0.5005
 8404SOL    HW333383   5.479   4.752   4.038 -0.4485 -0.3106  1.3471
 8404SOL    MW433384   5.471   4.834   4.012  0.0849 -0.4482 -0.4956
 8405SOL     OW33385   1.091   5.019   2.674  0.0331 -0.3933  0.3814
 8405SOL    HW233386   1.149   5.054   2.741 -0.9177  0.2535  0.8909
 8405SOL    HW333387   1.132   4.937   2.648  1.4139  0.2714  0.3823
 8405SOL    MW433388   1.104   5.013   2.680  0.5771  0.8465  0.2610
 8406SOL     OW33389   1.070   2.173   3.233  0.0274 -0.3061 -0.1574
 8406SOL    HW233390   0.997   2.113   3.217 -1.1302  0.6850  1.0779
 8406SOL    HW333391   1.062   2.239   3.164 -0.2475 -0.1897 -0.0132
 8406SOL    MW433392   1.059   2.174   3.222  0.2561 -0.5567 -0.2194
 8407SOL     OW33393   5.265   0.754   5.720 -0.3745  0.2036 -0.1541
 8407SOL    HW233394   5.178   0.720   5.740 -0.8019  1.3010 -0.0737
 8407SOL    HW333395   5.270   0.754   5.625  0.0525 -1.0929 -0.1430
 8407SOL    MW433396   5.254   0.750   5.710 -0.2335  0.2894  0.4638
 8408SOL     OW33397   5.305   2.303   3.541 -0.0335  0.2948  0.2127
 8408SOL    HW233398   5.318   2.386   3.587  0.1880  0.2621  0.2076
 8408SOL    HW333399   5.210   2.299   3.527 -0.2967 -0.3858  1.9730
 8408SOL    MW433400   5.294   2.314   3.545 -0.0809 -0.0549  0.0863
 8409SOL     OW33401   6.144   0.858   2.993 -0.4579 -0.1012 -0.0702
 8409SOL    HW233402   6.160   0.782   2.938  2.1855  1.3119 -1.4727
 8409SOL    HW333403   6.071   0.904   2.951 -3.1431 -2.4554  1.6445
 8409SOL    MW433404   6.137   0.854   2.981  0.0437  0.0085  0.1210
 8410SOL     OW33405   4.776   3.149   5.103 -0.0110 -0.4767  0.0196
 8410SOL    HW233406   4.789   3.216   5.169  3.1729  0.6755 -1.5805
 8410SOL    HW333407   4.765   3.197   5.021 -0.2192 -1.8835 -0.8227
 8410SOL    MW433408   4.776   3.164   5.101  0.0276 -0.1536 -0.2496
 8411SOL     OW33409   0.226   3.923   4.619 -0.2344 -0.5228 -0.3280
 8411SOL    HW233410   0.273   3.916   4.537 -0.4986  0.0763 -0.5386
 8411SOL    HW333411   0.225   4.017   4.639  3.0682 -0.8380  2.2814
 8411SOL    MW433412   0.232   3.935   4.611 -0.1030 -0.2925  0.0945
 8412SOL     OW33413   0.772   5.527   0.224  0.0595 -0.6075 -0.3181
 8412SOL    HW233414   0.841   5.585   0.256 -0.6565  0.1712 -0.1643
 8412SOL    HW333415   0.810   5.439   0.231  1.0412 -0.1942 -0.2667
 8412SOL    MW433416   0.786   5.523   0.229 -0.8163 -0.5186 -0.2871
 8413SOL     OW33417   1.417   3.185   0.345  0.0863 -0.1095  0.5102
 8413SOL    HW233418   1.378   3.148   0.266 -1.6900  1.1906  0.7132
 8413SOL    HW333419   1.342   3.217   0.396  1.4030  2.6494  0.8873
 8413SOL    MW433420   1.402   3.184   0.341  0.4066 -0.1098 -0.3819
 8414SOL     OW33421   0.885   5.106   3.935  0.2793 -0.0010 -0.1689
 8414SOL    HW233422   0.869   5.138   4.024 -0.5556 -1.7334  0.3520
 8414SOL    HW333423   0.800   5.113   3.891 -0.2088 -2.2436  0.2639
 8414SOL    MW433424   0.872   5.111   3.941 -0.3684  0.4716 -0.1570
 8415SOL     OW33425   1.752   0.439   3.677 -0.0722 -0.2056  0.6854
 8415SOL    HW233426   1.663   0.405   3.679 -1.1077  2.3058  2.0034
 8415SOL    HW333427   1.746   0.518   3.623  1.2280  0.2699  1.1982
 8415SOL    MW433428   1.740   0.445   3.670 -0.1081  0.5817 -0.4691
 8416SOL     OW33429   3.322   1.702   4.063 -0.4068 -0.2059 -0.4256
 8416SOL    HW233430   3.238   1.706   4.017 -1.1397  1.8860  0.9375
 8416SOL    HW333431   3.301   1.726   4.153  1.5454 -0.3521  0.1153
 8416SOL    MW433432   3.308   1.706   4.069  0.1011 -0.1092  0.4197
 8417SOL     OW33433   4.053   0.773   4.740  0.5184 -0.0993 -0.0463
 8417SOL    HW233434   3.961   0.744   4.740  0.5725 -0.2706  0.0137
 8417SOL    HW333435   4.080   0.767   4.831 -0.3244  2.8862  0.5103
 8417SOL    MW433436   4.044   0.768   4.752 -0.1527  0.3613  0.2544
 8418SOL     OW33437   1.736   1.365   1.967  0.1133  0.2580  0.2430
 8418SOL    HW233438   1.783   1.284   1.946  0.2003  0.3567  0.0617
 8418SOL    HW333439   1.665   1.368   1.904  1.2493  1.3239 -1.0310
 8418SOL    MW433440   1.733   1.355   1.956 -0.4528  0.2217  0.0079
 8419SOL     OW33441   3.493   4.603   0.591  0.3139  0.4087  0.4352
 8419SOL    HW233442   3.472   4.510   0.593  0.4758  0.3784  1.6602
 8419SOL    HW333443   3.534   4.620   0.676 -1.4929  2.0017  1.0635
 8419SOL    MW433444   3.496   4.593   0.603 -0.0811  0.3137  0.3051
 8420SOL     OW33445   1.655   1.453   0.256 -0.2895  0.3815  0.1204
 8420SOL    HW233446   1.674   1.516   0.187 -0.1669  0.2293  0.0159
 8420SOL    HW333447   1.733   1.454   0.311  1.1399 -2.0707 -1.6706
 8420SOL    MW433448   1.668   1.462   0.254 -0.3199  0.3347  0.0316
 8421SOL     OW33449   1.943   4.595   0.982 -0.5715 -0.3615  0.4856
 8421SOL    HW233450   1.984   4.598   0.896  0.3317 -0.7101  0.8913
 8421SOL    HW333451   1.990   4.661   1.033 -0.6103 -0.6659  0.9216
 8421SOL    MW433452   1.955   4.604   0.978 -0.4643 -0.1416 -0.0974
 8422SOL     OW33453   0.124   5.559   3.234  0.3086  0.5106 -0.7724
 8422SOL    HW233454   0.084   5.641   3.265  0.3832  0.0844  0.5112
 8422SOL    HW333455   0.212   5.559   3.271 -0.7130 -1.5976  2.0159
 8422SOL    MW433456   0.130   5.570   3.243  0.4265 -0.2890 -0.0925
 8423SOL     OW33457   5.219   0.602   6.062 -0.1419  0.0763  0.7870
 8423SOL    HW233458   5.166   0.535   6.018  0.6864 -1.5847  2.1648
 8423SOL    HW333459   5.203   0.587   6.155  0.6069  1.3818  1.1539
 8423SOL    MW433460   5.210   0.591   6.069  0.7428  0.4963 -0.1680
 8424SOL     OW33461   5.100   1.227   4.719  0.2875  0.1012  0.5028
 8424SOL    HW233462   5.095   1.320   4.742 -1.8142  0.1085  0.2090
 8424SOL    HW333463   5.052   1.182   4.788  0.5617 -0.6871  0.1935
 8424SOL    MW433464   5.093   1.233   4.731 -0.0269 -0.1648  0.1376
 8425SOL     OW33465   3.193   6.355   3.748  0.0427  0.1633 -0.1423
 8425SOL    HW233466   3.275   6.403   3.758  0.6816 -0.8507 -0.3065
 8425SOL    HW333467   3.160   6.345   3.837  0.6698 -0.3617  0.0391
 8425SOL    MW433468   3.200   6.360   3.761 -0.6848 -0.1746  0.1723
 8426SOL     OW33469   0.510   3.745   6.225 -0.1173 -0.6129  0.4620
 8426SOL    HW233470   0.605   3.743   6.210 -0.2912  2.1867 -1.8614
 8426SOL    HW333471   0.501   3.777   6.314  1.0360 -2.5100  1.3485
 8426SOL    MW433472   0.522   3.749   6.235 -0.2647 -0.1869  0.2202
 8427SOL     OW33473   3.987   2.195   1.878  0.0299  0.2642  0.5691
 8427SOL    HW233474   4.003   2.130   1.810  0.2130  1.6480 -0.7766
 8427SOL    HW333475   4.073   2.234   1.895 -0.0789  0.1820  1.3327
 8427SOL    MW433476   4.001   2.192   1.871  0.0910 -0.6943  0.3887
 8428SOL     OW33477   6.002   0.365   0.639 -0.5499 -0.1047 -0.0480
 8428SOL    HW233478   6.075   0.422   0.617  0.0047 -1.2794 -1.3958
 8428SOL    HW333479   5.982   0.319   0.558 -1.8105 -0.8969  0.6752
 8428SOL    MW433480   6.009   0.366   0.626 -0.2806 -0.2462  0.0704
 8429SOL     OW33481   4.590   4.199   4.642 -0.6551 -0.2699 -0.0884
 8429SOL    HW233482   4.681   4.172   4.628 -0.5550 -0.1230  0.2456
 8429SOL    HW333483   4.561   4.146   4.717 -0.4677  0.5109  0.5491
 8429SOL    MW433484   4.598   4.188   4.650  0.4084  0.4509 -0.5586
 8430SOL     OW33485   5.949   5.601   3.496  0.5202  0.4389  0.3776
 8430SOL    HW233486   5.917   5.558   3.417  0.0129  1.3804  0.0535
 8430SOL    HW333487   5.975   5.530   3.554 -2.4324 -0.4152  0.7856
 8430SOL    MW433488   5.948   5.586   3.493  0.3515 -0.3709 -0.0382
 8431SOL     OW33489   4.652   0.320   5.395  0.4741 -0.7205  0.1640
 8431SOL    HW233490   4.695   0.245   5.436  3.2424  1.6842  2.0940
 8431SOL    HW333491   4.712   0.346   5.326  0.5375  0.8073  0.7702
 8431SOL    MW433492   4.666   0.313   5.391  0.3850 -0.1219 -0.3876
 8432SOL     OW33493   4.869   6.255   6.075  0.1374  0.1090  0.4169
 8432SOL    HW233494   4.866   6.248   6.170  0.3401  1.8714  0.5791
 8432SOL    HW333495   4.913   6.338   6.058  0.1488 -0.1988 -1.2247
 8432SOL    MW433496   4.874   6.265   6.085 -0.0201 -0.3280 -0.3134
 8433SOL     OW33497   2.094   3.388   5.464  0.0758 -0.0849  0.3645
 8433SOL    HW233498   2.135   3.331   5.400 -0.7201 -1.5505  1.1185
 8433SOL    HW333499   2.154   3.462   5.472  1.4291 -1.0826 -0.2057
 8433SOL    MW433500   2.107   3.391   5.457  0.0032  0.3571 -0.0459
 8434SOL     OW33501   2.180   5.063   0.037  0.4891 -0.0200  0.1064
 8434SOL    HW233502   2.243   5.011  -0.013  2.3460  2.3537 -0.2255
 8434SOL    HW333503   2.210   5.057   0.128  0.5141  0.1799  0.1124
 8434SOL    MW433504   2.192   5.056   0.042 -0.0128  0.5031 -0.0238
 8435SOL     OW33505   0.129   0.393   3.499  0.1754  0.2180 -0.0255
 8435SOL    HW233506   0.148   0.443   3.578  0.4721  0.5235 -0.2830
 8435SOL    HW333507   0.204   0.334   3.489  0.6659  0.9159 -0.6449
 8435SOL    MW433508   0.142   0.392   3.508  0.1896  0.1275 -0.3268
 8436SOL     OW33509   1.945   4.912   5.722 -0.7381 -0.1397 -0.0173
 8436SOL    HW233510   1.900   4.867   5.651 -0.5286 -1.3119  0.5675
 8436SOL    HW333511   2.036   4.882   5.717 -0.4271  0.7635 -0.0393
 8436SOL    MW433512   1.951   4.902   5.712 -0.0568 -0.0180 -0.3666
 8437SOL     OW33513   4.401   4.635   6.240 -0.4864 -0.0345 -0.1629
 8437SOL    HW233514   4.415   4.715   6.188  0.0427  0.4826  0.7559
 8437SOL    HW333515   4.485   4.589   6.237 -0.5317 -0.1300  0.0213
 8437SOL    MW433516   4.414   4.640   6.233 -0.5577 -0.6453  0.2204
 8438SOL     OW33517   1.085   2.831   3.025 -0.4085 -0.0479  0.0260
 8438SOL    HW233518   1.142   2.795   3.093 -1.6129  0.2798  1.2582
 8438SOL    HW333519   1.062   2.756   2.971 -0.7376 -0.6576  0.9697
 8438SOL    MW433520   1.090   2.817   3.027 -0.0289 -0.5059 -0.0832
 8439SOL     OW33521   1.111   4.260   6.230  0.0824  0.0942  0.0716
 8439SOL    HW233522   1.145   4.350   6.225  0.0428  0.0572 -0.8846
 8439SOL    HW333523   1.016   4.271   6.236  0.1641  0.1694  2.0340
 8439SOL    MW433524   1.103   4.274   6.230  0.1571  0.0643 -0.0092
 8440SOL     OW33525   4.360   4.393   0.137 -0.0564 -0.0706  0.9916
 8440SOL    HW233526   4.293   4.326   0.155  0.6785 -1.3107 -0.6434
 8440SOL    HW333527   4.313   4.461   0.090 -0.8308  0.6709  2.7336
 8440SOL    MW433528   4.345   4.393   0.133  0.4822 -0.2944  0.8042
 8441SOL     OW33529   5.776   3.343   2.653  0.2944 -0.1545  0.3783
 8441SOL    HW233530   5.752   3.342   2.561 -0.2183 -0.7893  0.5160
 8441SOL    HW333531   5.713   3.284   2.695  1.2074 -0.7235  0.9676
 8441SOL    MW433532   5.764   3.335   2.647  0.1288 -0.3417 -0.4580
 8442SOL     OW33533   1.707   5.644   1.068  0.1070 -0.3454 -0.1607
 8442SOL    HW233534   1.777   5.677   1.011 -0.3516 -0.5501 -0.8509
 8442SOL    HW333535   1.753   5.614   1.147  0.7302  0.1105 -0.3438
 8442SOL    MW433536   1.722   5.644   1.071 -0.2639 -0.8003  0.8487
 8443SOL     OW33537   4.924   5.150   0.290 -0.2262 -0.3403 -0.1352
 8443SOL    HW233538   4.897   5.059   0.283  0.5879 -0.5233 -1.0296
 8443SOL    HW333539   4.844   5.200   0.270 -1.2683 -0.7837  2.4651
 8443SOL    MW433540   4.910   5.145   0.286  0.4326  0.2624  0.2180
 8444SOL     OW33541   3.652   1.800   4.361  0.1774 -0.1769  0.2002
 8444SOL    HW233542   3.587   1.730   4.366  0.2784 -0.2297  0.8182
 8444SOL    HW333543   3.687   1.794   4.272  0.1715 -0.8973  0.2440
 8444SOL    MW433544   3.648   1.790   4.350 -0.3743 -0.1735 -0.2536
 8445SOL     OW33545   2.184   4.979   0.656 -0.0187 -0.4051  0.4847
 8445SOL    HW233546   2.178   4.900   0.602 -0.4479  0.0298 -0.1166
 8445SOL    HW333547   2.245   4.955   0.726 -0.1923 -1.2864  0.3477
 8445SOL    MW433548   2.191   4.965   0.658 -0.2424 -0.0916 -0.2956
 8446SOL     OW33549   5.829   0.634   1.193  0.0282  0.1394 -0.6016
 8446SOL    HW233550   5.762   0.689   1.234  0.0574 -0.0676 -0.2695
 8446SOL    HW333551   5.884   0.695   1.144 -1.0152  0.2011 -1.7449
 8446SOL    MW433552   5.827   0.649   1.192  0.2767 -0.0174  0.3256
 8447SOL     OW33553   5.226   4.305   1.886  0.4316  0.2077  0.1406
 8447SOL    HW233554   5.263   4.329   1.801  0.4101 -0.7320 -0.1379
 8447SOL    HW333555   5.302   4.277   1.938  0.1348 -1.9119 -0.4939
 8447SOL    MW433556   5.241   4.305   1.882 -0.1182 -0.5190 -0.3488
 8448SOL     OW33557   4.608   6.252   5.984 -0.2855  0.4777 -0.2586
 8448SOL    HW233558   4.703   6.253   5.983 -0.2734  0.5015  0.5382
 8448SOL    HW333559   4.585   6.224   6.072 -1.0139 -0.5901 -0.7629
 8448SOL    MW433560   4.617   6.248   5.995 -0.6370  0.0857  0.0837
 8449SOL     OW33561   2.830   0.570   4.559  0.3729  0.2349 -0.3084
 8449SOL    HW233562   2.889   0.508   4.516  1.3687 -0.9232  2.4642
 8449SOL    HW333563   2.888   0.640   4.590  0.0687 -0.0211  0.9007
 8449SOL    MW433564   2.845   0.571   4.558 -0.0386 -0.2792  0.0782
 8450SOL     OW33565   5.587   4.093   5.853 -0.5092 -0.4134 -0.4152
 8450SOL    HW233566   5.562   4.087   5.761  0.8353 -0.0109 -0.8383
 8450SOL    HW333567   5.615   4.004   5.876  2.6578  0.1664 -1.5251
 8450SOL    MW433568   5.588   4.080   5.844  0.8195 -0.6507  0.0174
 8451SOL     OW33569   4.267   5.266   1.198  0.2816  0.2894 -0.3202
 8451SOL    HW233570   4.242   5.190   1.146 -1.3790  1.0689 -0.7514
 8451SOL    HW333571   4.337   5.308   1.147  0.9737 -0.7431 -0.2382
 8451SOL    MW433572   4.273   5.262   1.184  0.1330 -0.1753  0.0444
 8452SOL     OW33573   3.943   1.855   2.205 -0.4912  0.5066  0.3880
 8452SOL    HW233574   3.871   1.917   2.196 -1.2650 -0.1557  1.7298
 8452SOL    HW333575   4.021   1.911   2.214 -1.1543  1.2989  1.4335
 8452SOL    MW433576   3.944   1.871   2.205  0.0464  0.2047  0.0631
 8453SOL     OW33577   6.322   1.209   3.698  0.7365  0.6694 -0.6520
 8453SOL    HW233578   6.355   1.177   3.614  1.6165 -2.3011  0.6995
 8453SOL    HW333579   6.244   1.157   3.714  0.5151  1.2853  0.3559
 8453SOL    MW433580   6.316   1.198   3.689  0.3505 -0.6967  0.5517
 8454SOL     OW33581   6.293   3.849   1.002  0.6706  0.4046  0.3833
 8454SOL    HW233582   6.291   3.801   1.085  0.5369 -0.3665 -0.0545
 8454SOL    HW333583   6.385   3.864   0.984  0.6714  1.6161  1.2413
 8454SOL    MW433584   6.305   3.845   1.011 -0.4607 -0.3292  0.5683
 8455SOL     OW33585   4.895   2.606   0.357  0.1213  0.1030 -0.7031
 8455SOL    HW233586   4.872   2.657   0.280  0.3538  2.1804  0.5506
 8455SOL    HW333587   4.981   2.639   0.383 -0.1847 -0.2020  0.7491
 8455SOL    MW433588   4.904   2.617   0.350 -0.8606 -0.5018 -0.4984
 8456SOL     OW33589   5.230   0.636   1.122 -0.2335  0.2314 -0.1285
 8456SOL    HW233590   5.301   0.694   1.152 -0.9419  0.1142  1.9046
 8456SOL    HW333591   5.232   0.562   1.182 -2.8639  0.8398  0.8721
 8456SOL    MW433592   5.240   0.634   1.134 -0.0850 -0.5301  0.2328
 8457SOL     OW33593   6.313   2.207   4.556  0.2514 -0.5760  0.5839
 8457SOL    HW233594   6.361   2.125   4.553  0.5075 -0.4125  0.0114
 8457SOL    HW333595   6.373   2.268   4.598  0.7878 -0.2282 -0.6402
 8457SOL    MW433596   6.327   2.204   4.561  0.2075  0.0800 -0.1820
 8458SOL     OW33597   1.003   3.265   3.036  0.2400 -0.1676  0.0773
 8458SOL    HW233598   0.990   3.184   2.985 -0.3284  0.4607 -0.8077
 8458SOL    HW333599   1.076   3.309   2.993 -0.2667  0.3836 -0.2339
 8458SOL    MW433600   1.011   3.260   3.024 -0.5134 -0.0685 -0.5268
 8459SOL     OW33601   4.171   2.816   4.717 -0.8365 -0.0555 -0.1690
 8459SOL    HW233602   4.246   2.763   4.690 -0.1245  1.6461 -1.7369
 8459SOL    HW333603   4.208   2.881   4.777 -1.1834  0.3542 -0.3935
 8459SOL    MW433604   4.186   2.818   4.721 -0.0142  0.0314  0.4195
 8460SOL     OW33605   1.644   3.156   4.467  0.3134  0.2996 -0.1934
 8460SOL    HW233606   1.693   3.198   4.397 -0.7279  0.8784 -0.5923
 8460SOL    HW333607   1.561   3.129   4.427 -0.3417  0.7236  0.8089
 8460SOL    MW433608   1.639   3.158   4.453  0.0702 -0.1063 -0.2042
 8461SOL     OW33609   3.649   3.538   5.064  0.5989  0.0125 -0.8442
 8461SOL    HW233610   3.682   3.450   5.050 -0.3955 -0.8326  1.6764
 8461SOL    HW333611   3.675   3.561   5.153 -0.3808  1.7188 -0.9395
 8461SOL    MW433612   3.657   3.530   5.074  0.7408  0.3672 -0.0638
 8462SOL     OW33613   0.345   2.913   6.247 -0.5662  0.1447  0.6847
 8462SOL    HW233614   0.383   2.972   6.311 -1.0277 -0.5278  1.6116
 8462SOL    HW333615   0.272   2.871   6.294 -2.1929  1.0858 -0.8742
 8462SOL    MW433616   0.340   2.915   6.262  0.1707  0.0573 -0.5483
 8463SOL     OW33617   2.275   0.208   4.167 -0.3155 -0.2072 -0.3809
 8463SOL    HW233618   2.368   0.201   4.143 -0.4987 -1.1242 -0.8985
 8463SOL    HW333619   2.274   0.263   4.245  0.5548  0.7545 -1.0261
 8463SOL    MW433620   2.287   0.214   4.174  0.0244 -0.6928  0.1766
 8464SOL     OW33621   0.138   6.313   1.237 -0.6004 -0.0352  0.1949
 8464SOL    HW233622   0.232   6.295   1.242 -0.8053 -1.7235 -1.1644
 8464SOL    HW333623   0.133   6.409   1.234  0.8669  0.2438  2.9684
 8464SOL    MW433624   0.150   6.323   1.237  0.4128  0.4867 -0.3532
 8465SOL     OW33625   3.419   0.624   2.253  0.1060  0.3857  0.5364
 8465SOL    HW233626   3.413   0.703   2.199 -0.4304 -0.7092 -1.0824
 8465SOL    HW333627   3.374   0.647   2.334 -0.0284  1.7407  0.1071
 8465SOL    MW433628   3.412   0.638   2.256 -0.0262  0.3420  0.3458
 8466SOL     OW33629   2.145   0.570   5.611 -0.6288  0.3212 -0.2402
 8466SOL    HW233630   2.099   0.569   5.527 -0.8097  0.6284 -0.1480
 8466SOL    HW333631   2.185   0.484   5.618  1.3075  1.0145 -1.7154
 8466SOL    MW433632   2.144   0.559   5.601 -0.4134  0.1718 -0.0532
 8467SOL     OW33633   1.491   2.354   3.151  0.3558 -0.2605 -0.0329
 8467SOL    HW233634   1.494   2.411   3.074  0.7866  0.3051  0.3963
 8467SOL    HW333635   1.440   2.278   3.122  2.0221 -0.9062 -1.4293
 8467SOL    MW433636   1.485   2.352   3.137 -0.1091  0.4798 -0.4223
 8468SOL     OW33637   4.680   4.675   4.347 -0.0842  0.0405 -0.1532
 8468SOL    HW233638   4.760   4.629   4.373 -0.5279 -0.1368  0.9098
 8468SOL    HW333639   4.609   4.630   4.392 -0.8476 -0.0082 -1.3479
 8468SOL    MW433640   4.682   4.663   4.356 -0.4660 -0.2347 -0.9331
 8469SOL     OW33641   0.183   5.106   3.684  0.0393  0.2957  0.3563
 8469SOL    HW233642   0.235   5.154   3.748  1.8249  1.2468 -1.6505
 8469SOL    HW333643   0.162   5.171   3.616 -2.9037 -0.3447  0.5199
 8469SOL    MW433644   0.187   5.121   3.683  0.2392 -0.4969 -0.0888
 8470SOL     OW33645   3.554   2.328   6.120 -0.1468 -0.0407 -0.1561
 8470SOL    HW233646   3.583   2.283   6.040  2.9429 -0.0196  0.8086
 8470SOL    HW333647   3.600   2.411   6.118 -0.3457  0.1295  1.4371
 8470SOL    MW433648   3.564   2.333   6.109 -0.4225 -0.0472  0.2711
 8471SOL     OW33649   4.244   2.933   3.697  0.2520 -0.4337 -0.4485
 8471SOL    HW233650   4.187   2.865   3.733  0.7758 -0.7376 -0.1750
 8471SOL    HW333651   4.322   2.886   3.668  0.8624  0.1117  0.2572
 8471SOL    MW433652   4.246   2.918   3.698  0.1660  0.7181  0.1933
 8472SOL     OW33653   1.048   6.127   2.706 -0.4966 -0.2413 -0.1323
 8472SOL    HW233654   1.060   6.204   2.650  1.7601 -1.1279 -1.0013
 8472SOL    HW333655   0.996   6.067   2.653 -1.7077  0.3957  0.2959
 8472SOL    MW433656   1.043   6.129   2.691 -0.2591  0.1309 -0.7285
 8473SOL     OW33657   5.119   6.404   2.035 -0.3864  0.3875 -0.0530
 8473SOL    HW233658   5.057   6.469   2.001 -0.0488  1.1884  0.7981
 8473SOL    HW333659   5.183   6.394   1.965 -0.4742  0.9435 -0.2226
 8473SOL    MW433660   5.119   6.412   2.021  0.0910 -0.1381 -0.4256
 8474SOL     OW33661   0.481   0.563   4.024 -0.1667 -0.4773  0.2585
 8474SOL    HW233662   0.426   0.498   3.980  0.0665  0.2559 -1.1902
 8474SOL    HW333663   0.549   0.512   4.067 -2.2295 -1.4610  2.5827
 8474SOL    MW433664   0.483   0.548   4.024  0.3248 -0.5509  0.5322
 8475SOL     OW33665   5.138   5.352   3.327 -0.1621  0.3220  0.6481
 8475SOL    HW233666   5.174   5.306   3.251  0.2848 -1.2924  1.7790
 8475SOL    HW333667   5.079   5.289   3.368  1.2055  0.3405  2.8090
 8475SOL    MW433668   5.135   5.338   3.322 -0.2682 -1.0038 -0.0495
 8476SOL     OW33669   1.247   4.406   3.597  0.4874  0.1453  0.4786
 8476SOL    HW233670   1.178   4.392   3.663 -1.0496 -2.6480 -1.5097
 8476SOL    HW333671   1.279   4.319   3.577  1.4591  0.9675 -1.9006
 8476SOL    MW433672   1.242   4.393   3.603 -0.3653 -0.0402 -0.0298
 8477SOL     OW33673   0.639   4.261   3.290  0.2827  0.3146 -0.2277
 8477SOL    HW233674   0.645   4.191   3.225 -1.8935  0.0490 -0.2323
 8477SOL    HW333675   0.704   4.326   3.262  0.1437 -0.2863 -2.0456
 8477SOL    MW433676   0.648   4.260   3.278 -0.0018 -0.4035  0.0455
 8478SOL     OW33677   4.320   5.187   4.802 -0.0188 -0.3248  0.4956
 8478SOL    HW233678   4.291   5.266   4.757  1.9966  0.5547  0.6312
 8478SOL    HW333679   4.307   5.205   4.895  4.3572  1.7854  0.9532
 8478SOL    MW433680   4.314   5.200   4.808 -0.1931  0.5923  0.8711
 8479SOL     OW33681   4.238   4.797   3.357  0.5604  0.2697 -0.3017
 8479SOL    HW233682   4.157   4.768   3.398  0.1970  0.0635 -1.1431
 8479SOL    HW333683   4.243   4.746   3.276  1.0293  0.9886 -0.7353
 8479SOL    MW433684   4.228   4.786   3.352 -0.1282  0.4875 -0.8147
 8480SOL     OW33685   5.581   1.825   6.244  0.4962  0.3810 -0.0441
 8480SOL    HW233686   5.615   1.851   6.158 -0.6286 -1.1235 -0.9964
 8480SOL    HW333687   5.549   1.736   6.231  0.5722  0.0085  2.0365
 8480SOL    MW433688   5.581   1.817   6.231 -0.1346  0.5175 -0.3046
 8481SOL     OW33689   4.550   1.791   3.160 -0.2757 -0.0694 -0.3865
 8481SOL    HW233690   4.580   1.826   3.244  2.6706  0.6483 -1.5942
 8481SOL    HW333691   4.494   1.860   3.124  0.8474  0.9606 -0.2378
 8481SOL    MW433692   4.546   1.805   3.166  0.7930 -0.4952 -0.1312
 8482SOL     OW33693   3.151   0.855   1.992  0.3841  0.2370  0.0338
 8482SOL    HW233694   3.202   0.861   1.911  1.4923 -0.5586  0.6445
 8482SOL    HW333695   3.071   0.905   1.974  2.1077  3.0078 -0.3764
 8482SOL    MW433696   3.147   0.862   1.979 -0.5642 -0.2045  0.5610
 8483SOL     OW33697   0.890   3.659   4.147  0.5565  0.7324  0.1431
 8483SOL    HW233698   0.963   3.607   4.115 -1.0569 -0.8234 -1.2083
 8483SOL    HW333699   0.879   3.728   4.081  0.2912  0.4631 -0.0965
 8483SOL    MW433700   0.898   3.662   4.134 -0.0623  0.3491  0.3835
 8484SOL     OW33701   2.277   0.708   5.234  0.7409 -0.0606  0.0882
 8484SOL    HW233702   2.314   0.784   5.191  0.4856 -0.2995 -0.5609
 8484SOL    HW333703   2.252   0.649   5.163 -2.2133  0.6912  0.3800
 8484SOL    MW433704   2.279   0.710   5.219 -0.1894 -0.2985  1.2900
 8485SOL     OW33705   0.546   1.635   0.753  0.1653 -0.7612  0.5721
 8485SOL    HW233706   0.495   1.713   0.731 -0.1595 -0.6855  1.5471
 8485SOL    HW333707   0.637   1.660   0.732 -0.1566 -0.9124 -1.2048
 8485SOL    MW433708   0.551   1.649   0.747 -0.3056  0.2459 -0.4696
 8486SOL     OW33709   5.130   5.517   0.275  0.2612  0.1683 -0.2960
 8486SOL    HW233710   5.091   5.515   0.187  0.0401 -0.6019 -0.1816
 8486SOL    HW333711   5.141   5.610   0.293  0.6900  0.3305 -1.3111
 8486SOL    MW433712   5.127   5.529   0.266 -0.3940  0.1397 -0.5020
 8487SOL     OW33713   6.215   5.525   2.487 -0.5288  0.9361  0.2481
 8487SOL    HW233714   6.143   5.536   2.549 -0.7422  0.0609  0.1705
 8487SOL    HW333715   6.290   5.499   2.541 -1.2268 -1.9366  0.0004
 8487SOL    MW433716   6.215   5.523   2.502 -0.3428  0.3046 -0.4282
 8488SOL     OW33717   6.234   1.986   2.532 -0.0047  0.2207 -0.4196
 8488SOL    HW233718   6.306   2.001   2.470 -0.7642  0.8894 -1.1665
 8488SOL    HW333719   6.156   1.981   2.476 -0.3832 -2.0045  0.2143
 8488SOL    MW433720   6.233   1.987   2.516 -0.7274  0.2488  0.4529
 8489SOL     OW33721   3.772   3.675   6.158  0.1763  0.4159 -0.6940
 8489SOL    HW233722   3.843   3.682   6.094  0.0391 -1.3310 -1.0876
 8489SOL    HW333723   3.702   3.630   6.111 -1.1824  1.9529 -0.2721
 8489SOL    MW433724   3.772   3.670   6.143 -0.1176 -0.5519  0.1454
 8490SOL     OW33725   2.323   5.084   0.880  0.2439  0.6807 -0.3308
 8490SOL    HW233726   2.407   5.046   0.902  0.0864 -0.1510 -1.0894
 8490SOL    HW333727   2.268   5.069   0.957  0.6800  0.9317  0.0355
 8490SOL    MW433728   2.327   5.077   0.893 -0.3168  0.3110  0.2460
 8491SOL     OW33729   1.066   3.744   2.929 -0.0570  0.2183  0.0693
 8491SOL    HW233730   1.054   3.665   2.983 -0.4578 -0.4613 -0.9767
 8491SOL    HW333731   1.131   3.718   2.863  0.2248  0.9489  0.0526
 8491SOL    MW433732   1.073   3.730   2.928 -0.4311 -0.3900  0.4773
 8492SOL     OW33733   6.364   3.528   6.204 -0.2037 -0.1710  0.3617
 8492SOL    HW233734   6.338   3.455   6.148 -0.0221  1.3904 -1.9071
 8492SOL    HW333735   6.286   3.583   6.211  0.1184  0.2644  0.6197
 8492SOL    MW433736   6.350   3.526   6.197  0.1663 -0.3504  0.3356
 8493SOL     OW33737   5.565   4.425   3.827  0.0488  0.2394  0.1412
 8493SOL    HW233738   5.652   4.409   3.863 -0.7504 -2.2060  1.1550
 8493SOL    HW333739   5.551   4.354   3.765 -2.0912 -0.7697  1.7031
 8493SOL    MW433740   5.575   4.414   3.823 -0.5222  0.9622  0.0448
 8494SOL     OW33741   0.096   1.676   2.373 -0.2828 -0.4955  0.0221
 8494SOL    HW233742   0.098   1.583   2.347 -0.8133  0.0472 -2.1573
 8494SOL    HW333743   0.038   1.677   2.449 -0.6783 -1.9111 -0.2119
 8494SOL    MW433744   0.088   1.664   2.379  0.3165 -0.3434 -0.2956
 8495SOL     OW33745   3.517   5.529   4.265 -0.3801 -0.2914  0.7824
 8495SOL    HW233746   3.602   5.486   4.254  0.7029  1.9766 -0.4589
 8495SOL    HW333747   3.517   5.558   4.356 -0.2306 -1.0868  1.0437
 8495SOL    MW433748   3.528   5.527   4.276 -0.0417 -0.2747  0.6067
 8496SOL     OW33749   0.069   0.859   3.589  0.3506 -0.3172 -0.6336
 8496SOL    HW233750   0.010   0.791   3.620 -0.0128  0.0589 -0.4929
 8496SOL    HW333751   0.126   0.815   3.527  0.0204 -0.7159 -0.6549
 8496SOL    MW433752   0.069   0.844   3.585  0.8045  0.0227 -0.1849
 8497SOL     OW33753   4.928   0.184   3.040 -0.4773  0.3398 -0.2088
 8497SOL    HW233754   4.977   0.102   3.030 -1.5108 -0.3173 -0.0998
 8497SOL    HW333755   4.851   0.172   2.984  0.9055  2.5485 -2.8248
 8497SOL    MW433756   4.924   0.171   3.031 -0.0506  0.1317 -0.6275
 8498SOL     OW33757   6.349   0.180   1.765 -0.2484  0.2747 -0.0709
 8498SOL    HW233758   6.282   0.132   1.813  1.5629 -2.7824 -0.3062
 8498SOL    HW333759   6.370   0.123   1.690  1.2268  2.0482 -1.0884
 8498SOL    MW433760   6.343   0.166   1.761 -0.2096 -0.0685 -0.0707
 8499SOL     OW33761   4.234   0.225   3.729 -0.0432  0.6133  0.0474
 8499SOL    HW233762   4.322   0.206   3.696 -0.7526  0.8261 -2.1279
 8499SOL    HW333763   4.243   0.310   3.773  1.0817 -0.0040  1.0806
 8499SOL    MW433764   4.247   0.234   3.731 -0.3518 -0.5075  0.3516
 8500SOL     OW33765   4.738   1.269   1.668  0.2555  0.4410 -0.2745
 8500SOL    HW233766   4.647   1.271   1.699  0.3595 -0.3607  0.0932
 8500SOL    HW333767   4.788   1.306   1.741  0.3457 -0.1504 -0.0350
 8500SOL    MW433768   4.732   1.274   1.682  0.1211 -0.1604 -0.3743
 8501SOL     OW33769   3.051   6.083   3.404  0.4521  0.4893 -0.9457
 8501SOL    HW233770   3.017   6.004   3.362  0.1783 -1.0676  1.9809
 8501SOL    HW333771   2.974   6.138   3.417 -0.3494 -1.0751  1.5941
 8501SOL    MW433772   3.036   6.080   3.400 -0.1388 -0.6778 -0.2253
 8502SOL     OW33773   5.548   3.927   6.257  0.3066 -0.0967 -0.0706
 8502SOL    HW233774   5.491   3.990   6.302  1.0297  0.6662 -0.1811
 8502SOL    HW333775   5.635   3.943   6.294  0.5288 -0.9182 -0.2324
 8502SOL    MW433776   5.552   3.938   6.268 -0.0053 -0.0942 -0.3944
 8503SOL     OW33777   0.443   5.162   1.634  0.2859 -0.0511 -0.0940
 8503SOL    HW233778   0.356   5.140   1.667 -0.1351 -1.2915 -1.8543
 8503SOL    HW333779   0.500   5.158   1.710 -1.1216  0.3696  1.0174
 8503SOL    MW433780   0.439   5.158   1.648 -0.4795  0.1380  0.8116
 8504SOL     OW33781   5.019   0.492   2.719 -0.9316 -0.3500 -0.3151
 8504SOL    HW233782   5.100   0.542   2.728 -0.5579 -0.9046 -0.5867
 8504SOL    HW333783   4.992   0.473   2.809 -0.4786 -0.6221 -0.2377
 8504SOL    MW433784   5.026   0.496   2.732  0.3610  0.2607  0.1572
 8505SOL     OW33785   0.126   5.256   4.452  0.3196  0.2539  0.1737
 8505SOL    HW233786   0.082   5.178   4.484  1.4734 -0.9505 -1.0688
 8505SOL    HW333787   0.218   5.232   4.447  0.5394  1.2729 -1.4295
 8505SOL    MW433788   0.132   5.243   4.456  0.4914  0.7167  0.1860
 8506SOL     OW33789   1.238   2.955   0.496 -0.1178 -0.0111 -0.2513
 8506SOL    HW233790   1.330   2.971   0.476 -0.2269  3.7207  1.3839
 8506SOL    HW333791   1.203   2.915   0.417  2.1696  1.8273 -2.3687
 8506SOL    MW433792   1.245   2.952   0.483  0.1644  0.4055  0.4266
 8507SOL     OW33793   3.315   0.195   5.043 -0.3540  0.7075  0.0376
 8507SOL    HW233794   3.338   0.110   5.082  0.0174 -0.0677 -1.7768
 8507SOL    HW333795   3.227   0.213   5.077 -0.8487 -0.8948 -0.2717
 8507SOL    MW433796   3.307   0.186   5.053  0.3798 -0.2618 -0.3371
 8508SOL     OW33797   4.316   1.278   5.473  0.2634 -0.1956  0.1698
 8508SOL    HW233798   4.229   1.315   5.487 -0.4895 -2.8888  4.4461
 8508SOL    HW333799   4.304   1.215   5.402 -0.8949  0.4110 -0.2002
 8508SOL    MW433800   4.303   1.275   5.465 -0.0680 -0.3050  0.3867
 8509SOL     OW33801   2.957   3.268   6.209 -0.6584 -0.4376 -0.2506
 8509SOL    HW233802   2.893   3.334   6.183  1.3085  1.4389 -0.6227
 8509SOL    HW333803   2.953   3.201   6.141 -4.2033 -1.9508  1.2282
 8509SOL    MW433804   2.948   3.268   6.196  0.3108 -0.4755 -0.4726
 8510SOL     OW33805   5.726   4.422   6.107  0.4602 -0.8362  0.4685
 8510SOL    HW233806   5.763   4.452   6.190  0.3382 -1.9209  0.9335
 8510SOL    HW333807   5.631   4.419   6.123  0.4654 -1.3886  0.4091
 8510SOL    MW433808   5.718   4.425   6.120  0.0102  0.5281 -0.2231
 8511SOL     OW33809   4.691   6.255   4.784 -0.2873 -0.5770 -0.2629
 8511SOL    HW233810   4.607   6.250   4.829 -0.7094 -0.7040 -1.0371
 8511SOL    HW333811   4.683   6.192   4.712 -0.0515  0.3874 -1.1627
 8511SOL    MW433812   4.679   6.246   4.780  0.3935  0.6235 -0.2069
 8512SOL     OW33813   5.805   0.060   2.130  0.3068  0.5352  0.7798
 8512SOL    HW233814   5.846   0.056   2.217 -0.6985 -1.1641  1.2143
 8512SOL    HW333815   5.713   0.037   2.146  0.2789 -0.6272 -0.8480
 8512SOL    MW433816   5.798   0.057   2.144 -0.2168 -0.3634 -0.6714
 8513SOL     OW33817   4.394   0.876   2.030 -0.2671 -0.2305 -0.0925
 8513SOL    HW233818   4.442   0.958   2.040 -1.3854  0.3627  0.6333
 8513SOL    HW333819   4.462   0.808   2.029  0.6691  0.6891 -0.6477
 8513SOL    MW433820   4.409   0.878   2.031 -0.2445  0.6033 -0.4608
 8514SOL     OW33821   6.048   5.192   4.191 -0.2197 -0.1433  0.1063
 8514SOL    HW233822   5.976   5.175   4.251  0.6928 -0.6217  1.0991
 8514SOL    HW333823   6.032   5.132   4.118  0.4904 -2.1026  1.4688
 8514SOL    MW433824   6.036   5.182   4.189  0.8390  0.4335 -0.1025
 8515SOL     OW33825   5.448   0.589   6.421 -0.4554  0.0016 -0.2767
 8515SOL    HW233826   5.394   0.587   6.500 -1.4362  0.5327 -0.9050
 8515SOL    HW333827   5.509   0.661   6.435  0.1558 -0.6514  0.4776
 8515SOL    MW433828   5.449   0.598   6.433 -0.0093  0.2553  0.5787
 8516SOL     OW33829   2.012   4.504   5.346  0.3217  0.4534 -0.4148
 8516SOL    HW233830   2.075   4.432   5.343 -0.2466 -0.0900  0.3006
 8516SOL    HW333831   2.026   4.546   5.431 -0.1657  0.4287 -0.3145
 8516SOL    MW433832   2.022   4.500   5.357  0.2813  0.1621  0.0822
 8517SOL     OW33833   2.169   1.240   6.377 -0.2637 -0.0884 -0.7398
 8517SOL    HW233834   2.159   1.149   6.349 -0.7150  0.5868 -2.9949
 8517SOL    HW333835   2.080   1.274   6.379 -0.0924  0.3180  0.0758
 8517SOL    MW433836   2.156   1.232   6.374 -0.0877 -0.3265  0.4308
 8518SOL     OW33837   0.954   4.084   1.305 -0.5053  0.6227 -0.5968
 8518SOL    HW233838   0.946   4.086   1.400  1.4009  0.3806 -0.3854
 8518SOL    HW333839   1.018   4.014   1.288 -2.0836 -0.5462 -2.1823
 8518SOL    MW433840   0.962   4.075   1.315 -0.0446  0.0082 -0.0942
 8519SOL     OW33841   3.545   5.965   2.658 -0.4498 -0.4366 -0.2625
 8519SOL    HW233842   3.569   5.887   2.608 -0.2521 -0.1316 -0.6479
 8519SOL    HW333843   3.451   5.976   2.641 -0.2030  0.1775 -1.2994
 8519SOL    MW433844   3.536   5.956   2.649  0.2703 -0.0700 -0.0412
 8520SOL     OW33845   3.117   1.775   1.552 -0.2947 -0.0367  0.0117
 8520SOL    HW233846   3.123   1.699   1.610  0.1982 -0.2999 -0.3744
 8520SOL    HW333847   3.078   1.741   1.472 -0.0648  0.1091 -0.1655
 8520SOL    MW433848   3.113   1.760   1.549 -0.2850 -0.0575  0.0757
 8521SOL     OW33849   3.349   4.253   1.584 -0.2332  0.5647  0.4280
 8521SOL    HW233850   3.430   4.280   1.541 -0.8885  1.5557 -0.2542
 8521SOL    HW333851   3.355   4.292   1.672  1.1695 -1.5802  1.3737
 8521SOL    MW433852   3.360   4.262   1.590 -0.2494 -0.0657  0.6649
 8522SOL     OW33853   5.246   3.853   3.097  0.1552 -0.0219 -0.0049
 8522SOL    HW233854   5.162   3.826   3.059  0.3933 -0.8867  0.0556
 8522SOL    HW333855   5.228   3.937   3.139 -0.8028 -0.4345  0.4450
 8522SOL    MW433856   5.232   3.860   3.097  0.3618  0.5060 -0.8259
 8523SOL     OW33857   3.834   2.354   5.121  0.3389 -0.3571  0.1592
 8523SOL    HW233858   3.821   2.432   5.066 -0.1846 -1.2513 -1.0533
 8523SOL    HW333859   3.914   2.314   5.087  0.2679 -0.6634  0.3529
 8523SOL    MW433860   3.843   2.359   5.109 -0.2995 -0.1158  0.3204
 8524SOL     OW33861   4.886   2.288   3.132 -0.1587 -0.2364 -0.0327
 8524SOL    HW233862   4.975   2.322   3.142  0.0260 -0.7111 -0.0110
 8524SOL    HW333863   4.852   2.333   3.055  0.4444 -0.7340 -0.6086
 8524SOL    MW433864   4.893   2.298   3.123 -0.1336 -0.3404  0.1718
 8525SOL     OW33865   3.151   1.449   3.252  0.0647  0.3625  0.0359
 8525SOL    HW233866   3.116   1.497   3.328 -0.9092  0.7292 -0.6264
 8525SOL    HW333867   3.104   1.366   3.253  3.7187 -1.9550  2.8361
 8525SOL    MW433868   3.140   1.445   3.262  0.3726  0.8971 -0.0655
 8526SOL     OW33869   1.199   5.180   2.956  0.3102 -0.7942 -0.6464
 8526SOL    HW233870   1.155   5.262   2.932  1.6383  0.7338  1.6901
 8526SOL    HW333871   1.129   5.125   2.992 -0.1219  0.7841  1.0997
 8526SOL    MW433872   1.184   5.184   2.957  0.7902  0.2133  0.2241
 8527SOL     OW33873   5.432   3.468   2.643 -0.1720  0.3880 -0.0802
 8527SOL    HW233874   5.418   3.376   2.621  0.0107  0.2335  0.4370
 8527SOL    HW333875   5.517   3.489   2.606 -0.4348  0.4870 -0.6277
 8527SOL    MW433876   5.442   3.459   2.636 -0.0282 -0.0421 -0.7523
 8528SOL     OW33877   5.619   6.170   2.156 -0.2465  0.2602  0.2651
 8528SOL    HW233878   5.712   6.186   2.173 -0.2437  0.1159  0.3778
 8528SOL    HW333879   5.579   6.257   2.160 -0.3140  0.1819  1.3906
 8528SOL    MW433880   5.626   6.184   2.158 -0.4891 -0.0305  0.0187
 8529SOL     OW33881   1.162   5.120   4.558  0.7322  0.7880 -0.0238
 8529SOL    HW233882   1.067   5.116   4.548  0.7548  1.5356 -0.5846
 8529SOL    HW333883   1.196   5.117   4.468  1.1932  1.6211  0.1184
 8529SOL    MW433884   1.154   5.119   4.545 -0.1585  0.0031 -0.1468
 8530SOL     OW33885   2.351   0.201   3.748  0.5392 -0.6216 -0.3004
 8530SOL    HW233886   2.377   0.241   3.665  2.2612  1.0078  0.9315
 8530SOL    HW333887   2.329   0.274   3.805 -1.5639 -1.7518  0.4415
 8530SOL    MW433888   2.352   0.216   3.745  0.3043  0.4622  0.0452
 8531SOL     OW33889   0.297   5.783   5.186  0.8731 -0.4420  0.3867
 8531SOL    HW233890   0.308   5.689   5.201  1.3623 -0.5830 -0.7010
 8531SOL    HW333891   0.386   5.814   5.165  0.7608  0.3157  0.9706
 8531SOL    MW433892   0.310   5.775   5.185 -0.2314 -0.0024  0.6702
 8532SOL     OW33893   5.865   2.975   3.152 -0.0726 -0.1112  0.1185
 8532SOL    HW233894   5.951   2.936   3.134 -0.6101 -1.7091  0.7907
 8532SOL    HW333895   5.884   3.050   3.208  0.8723 -0.7482  0.6943
 8532SOL    MW433896   5.879   2.980   3.157  0.7378  0.1415 -0.5600
 8533SOL     OW33897   4.523   3.552   0.394 -0.2280  0.5684 -0.5195
 8533SOL    HW233898   4.608   3.584   0.423 -0.2681  0.4247 -0.2392
 8533SOL    HW333899   4.505   3.601   0.314 -0.6520  1.8471  0.3176
 8533SOL    MW433900   4.532   3.563   0.387  0.7130  0.4879 -0.1978
 8534SOL     OW33901   5.970   5.996   3.720  0.0351 -0.2827 -0.2046
 8534SOL    HW233902   5.892   5.941   3.720 -0.9733  1.0919 -0.5339
 8534SOL    HW333903   5.990   6.010   3.812  1.3374 -2.5336 -0.0702
 8534SOL    MW433904   5.962   5.990   3.732 -0.2908  0.1899  0.2211
 8535SOL     OW33905   2.523   4.058   5.884 -0.2966  0.3305  0.0205
 8535SOL    HW233906   2.443   4.014   5.857  0.1693 -0.0153 -0.8385
 8535SOL    HW333907   2.590   4.028   5.822  0.8152 -0.4235  1.5066
 8535SOL    MW433908   2.522   4.048   5.872  0.5887  0.3738  0.2454
 8536SOL     OW33909   1.473   2.541   0.085  0.5380 -0.1059 -0.0649
 8536SOL    HW233910   1.385   2.518   0.111  1.0769 -0.3877  1.6022
 8536SOL    HW333911   1.462   2.608   0.017 -0.9516 -1.1718 -0.9129
 8536SOL    MW433912   1.460   2.547   0.079 -0.8680 -0.2247 -0.3428
 8537SOL     OW33913   5.393   5.270   6.253 -0.5576 -0.3342  0.0653
 8537SOL    HW233914   5.464   5.299   6.310 -1.3684 -0.0716  0.9536
 8537SOL    HW333915   5.380   5.178   6.276 -1.8903  0.1569  1.4070
 8537SOL    MW433916   5.401   5.262   6.263  0.4132  0.0441 -0.2983
 8538SOL     OW33917   3.610   5.190   0.758  0.5889 -0.5247  0.4263
 8538SOL    HW233918   3.693   5.214   0.717 -1.3521  1.9702 -2.4516
 8538SOL    HW333919   3.579   5.115   0.708  0.2470 -0.2651  0.2480
 8538SOL    MW433920   3.617   5.184   0.746  0.5650 -0.0306  0.7434
 8539SOL     OW33921   2.667   0.876   0.245 -0.3348  0.1351 -0.1371
 8539SOL    HW233922   2.695   0.966   0.264 -0.5294 -0.1022  1.4691
 8539SOL    HW333923   2.673   0.868   0.150  3.0373  0.7703 -0.1022
 8539SOL    MW433924   2.671   0.887   0.235  0.0065 -0.1716 -0.0632
 8540SOL     OW33925   5.425   3.134   1.705 -0.3248  0.1676 -0.0975
 8540SOL    HW233926   5.380   3.063   1.659 -0.4265  1.1391 -1.5600
 8540SOL    HW333927   5.364   3.208   1.700 -0.1617  0.4249  1.2824
 8540SOL    MW433928   5.411   3.134   1.699 -0.0978  0.0284 -0.9797
 8541SOL     OW33929   0.124   4.168   4.032 -0.3469 -0.0909  0.4186
 8541SOL    HW233930   0.203   4.117   4.014  0.1937  0.8820 -0.0068
 8541SOL    HW333931   0.133   4.247   3.978 -1.1325  0.4947  1.1195
 8541SOL    MW433932   0.136   4.172   4.023  0.2868 -1.0417 -0.3104
 8542SOL     OW33933   4.494   3.015   3.917  0.1656 -0.3572 -0.0416
 8542SOL    HW233934   4.441   2.989   3.993 -0.3943 -1.6025 -0.8267
 8542SOL    HW333935   4.534   2.933   3.887  0.4603  0.1350 -1.0285
 8542SOL    MW433936   4.493   3.001   3.923 -0.4599  0.5450 -0.0508
 8543SOL     OW33937   5.271   4.060   1.653  0.4187 -0.1471 -0.3479
 8543SOL    HW233938   5.246   3.968   1.638 -0.0655  0.1051 -1.1774
 8543SOL    HW333939   5.206   4.110   1.604  0.5470  0.6506  0.2890
 8543SOL    MW433940   5.259   4.054   1.645 -0.2396 -0.0159 -0.6787
 8544SOL     OW33941   4.788   0.853   2.991  0.1788  0.1587 -0.4031
 8544SOL    HW233942   4.844   0.842   3.068 -1.1266 -4.0996  0.1707
 8544SOL    HW333943   4.699   0.857   3.027 -0.2671  1.3253 -1.5778
 8544SOL    MW433944   4.783   0.852   3.006 -0.1360 -0.6472 -0.1035
 8545SOL     OW33945   3.248   0.904   1.743 -0.1399  0.0037  0.0026
 8545SOL    HW233946   3.317   0.965   1.717  0.5058 -0.0871  1.3979
 8545SOL    HW333947   3.254   0.832   1.680  0.4516  0.4165 -0.4230
 8545SOL    MW433948   3.258   0.902   1.732  0.6460  0.5752  0.4154
 8546SOL     OW33949   1.530   1.819   3.482  0.3721 -0.3651  0.3394
 8546SOL    HW233950   1.529   1.798   3.576  0.6611  0.0738  0.4432
 8546SOL    HW333951   1.610   1.778   3.450  1.4332  1.3211  0.7276
 8546SOL    MW433952   1.541   1.811   3.490  0.3379  0.1035 -0.0412
 8547SOL     OW33953   5.758   2.202   4.546 -0.0763 -0.2787  0.1148
 8547SOL    HW233954   5.845   2.165   4.532 -0.8542 -2.4990  0.6522
 8547SOL    HW333955   5.743   2.192   4.640 -0.7646  0.4159  0.0866
 8547SOL    MW433956   5.768   2.196   4.557 -0.3861  0.4464 -0.3710
 8548SOL     OW33957   3.377   5.590   3.027  0.0791  0.5394 -0.1198
 8548SOL    HW233958   3.441   5.560   3.092  0.4740 -0.3675 -0.9019
 8548SOL    HW333959   3.430   5.635   2.962 -0.1087  0.0662 -0.6047
 8548SOL    MW433960   3.393   5.592   3.027  0.0577  0.0682  0.2542
 8549SOL     OW33961   1.149   3.228   0.460  0.3652  0.0689  0.2109
 8549SOL    HW233962   1.131   3.266   0.546 -0.2669 -0.7390  0.4538
 8549SOL    HW333963   1.164   3.135   0.479  0.5008 -0.0604 -0.5191
 8549SOL    MW433964   1.149   3.221   0.474 -0.6054 -0.3525 -0.3021
 8550SOL     OW33965   5.149   3.869   0.655 -0.0978 -0.2721  0.2750
 8550SOL    HW233966   5.170   3.804   0.588  0.0196  1.5552 -1.5579
 8550SOL    HW333967   5.063   3.902   0.630 -0.3435  0.0049  1.4231
 8550SOL    MW433968   5.141   3.865   0.643 -0.4747  0.1387 -0.1409
 8551SOL     OW33969   1.647   5.045   4.054  0.1557  0.1198  0.3274
 8551SOL    HW233970   1.553   5.038   4.036  0.0715 -2.1251  1.3102
 8551SOL    HW333971   1.680   4.956   4.041  2.1010  0.8162  0.2927
 8551SOL    MW433972   1.639   5.032   4.050 -0.0070 -0.0269 -0.3631
 8552SOL     OW33973   1.673   5.935   5.628  0.5937  0.3914  0.2930
 8552SOL    HW233974   1.667   5.932   5.724 -1.8359  0.9638  0.2119
 8552SOL    HW333975   1.652   5.846   5.600  2.1299 -0.0025  0.2556
 8552SOL    MW433976   1.670   5.923   5.637  0.6304  0.0622 -0.4041
 8553SOL     OW33977   2.482   2.046   1.016  0.1022  0.2167  0.1781
 8553SOL    HW233978   2.532   1.975   1.057 -2.6189 -2.1924 -0.2518
 8553SOL    HW333979   2.436   2.003   0.943 -1.7994  2.3817 -0.0194
 8553SOL    MW433980   2.482   2.031   1.012 -0.0524 -0.3605  0.0832
 8554SOL     OW33981   4.188   4.405   4.977 -0.3056 -0.1981 -0.2361
 8554SOL    HW233982   4.274   4.440   5.001 -0.9278  0.7022  0.8381
 8554SOL    HW333983   4.135   4.483   4.958 -1.2841 -0.6280  0.6057
 8554SOL    MW433984   4.192   4.420   4.978  0.3859 -0.5967 -0.5719
 8555SOL     OW33985   3.841   2.826   3.679 -0.1023  0.1116 -0.3330
 8555SOL    HW233986   3.791   2.792   3.753 -2.1434  0.5962 -1.4195
 8555SOL    HW333987   3.787   2.897   3.644  1.9415  1.5396 -0.8385
 8555SOL    MW433988   3.828   2.831   3.684 -0.9141  0.3076 -0.3536
 8556SOL     OW33989   2.821   6.222   2.640  0.1187  0.0381  0.1252
 8556SOL    HW233990   2.908   6.209   2.677  0.0601  0.1948  0.3190
 8556SOL    HW333991   2.763   6.226   2.717  0.0326  0.6477  0.0270
 8556SOL    MW433992   2.825   6.221   2.655  0.0853  0.3799 -0.3170
 8557SOL     OW33993   3.937   1.352   5.955  0.8127  0.5080 -0.2997
 8557SOL    HW233994   3.870   1.374   5.891  0.7660 -0.3789 -0.5580
 8557SOL    HW333995   3.890   1.349   6.039  0.8121  1.3248 -0.2580
 8557SOL    MW433996   3.922   1.355   5.958 -0.0419 -0.2970  0.0102
 8558SOL     OW33997   1.758   3.408   0.043 -0.5455  0.3187 -0.1244
 8558SOL    HW233998   1.823   3.338   0.038  0.2437  1.0413 -0.2605
 8558SOL    HW333999   1.733   3.410   0.136  0.0064  0.3605  0.0296
 8558SOL    MW434000   1.763   3.399   0.055  0.3006  0.6332 -0.0762
 8559SOL     OW34001   4.464   2.137   0.008  0.0717  0.1778 -0.6165
 8559SOL    HW234002   4.425   2.146   0.095  0.7724  1.4017 -0.4068
 8559SOL    HW334003   4.391   2.110  -0.048 -0.1042 -2.0446  0.5738
 8559SOL    MW434004   4.449   2.134   0.012  0.4120  0.4094 -0.2604
 8560SOL     OW34005   4.278   3.228   4.653  0.5750  0.2578  0.5771
 8560SOL    HW234006   4.343   3.295   4.672  1.4232 -0.6257  0.9006
 8560SOL    HW334007   4.318   3.147   4.684  0.4845 -0.7162 -1.6705
 8560SOL    MW434008   4.292   3.226   4.659 -0.2656  1.2804 -0.4159
 8561SOL     OW34009   3.368   1.922   6.100  0.1389  0.2753  0.3405
 8561SOL    HW234010   3.327   1.848   6.055  0.1786 -0.6623  1.7677
 8561SOL    HW334011   3.306   1.994   6.090 -0.5736 -0.3520  0.1507
 8561SOL    MW434012   3.355   1.921   6.092  0.2613 -0.3528  0.1280
 8562SOL     OW34013   4.956   2.160   4.835 -0.0138  0.1207  0.3743
 8562SOL    HW234014   5.049   2.169   4.817  0.1239 -2.6096 -0.6075
 8562SOL    HW334015   4.920   2.248   4.819  2.2486  1.0427  0.0498
 8562SOL    MW434016   4.963   2.173   4.830 -0.2821  0.1638  0.0497
 8563SOL     OW34017   2.131   0.972   6.270 -0.3168 -0.5049 -0.0383
 8563SOL    HW234018   2.191   0.924   6.328 -0.2184 -0.8491 -0.4213
 8563SOL    HW334019   2.048   0.925   6.278 -0.5132 -0.0993  0.4004
 8563SOL    MW434020   2.128   0.959   6.279  0.0283  0.0991 -0.0825
 8564SOL     OW34021   3.965   3.304   2.936 -0.3620 -0.2293 -0.2905
 8564SOL    HW234022   3.975   3.209   2.929 -0.1390 -0.0864 -4.6509
 8564SOL    HW334023   4.054   3.338   2.947 -0.2766 -0.4474 -0.3136
 8564SOL    MW434024   3.978   3.296   2.937  0.1932 -0.3242 -0.7783
 8565SOL     OW34025   5.031   1.669   0.165 -0.4538  0.0567  0.7112
 8565SOL    HW234026   5.050   1.655   0.073  0.5708  0.1796  0.8942
 8565SOL    HW334027   5.111   1.642   0.211 -0.4583  1.2294  1.4553
 8565SOL    MW434028   5.044   1.664   0.159  0.1343 -0.1269 -0.0798
 8566SOL     OW34029   4.376   3.871   0.244  0.1590 -0.4218 -0.7812
 8566SOL    HW234030   4.442   3.808   0.216  0.7458  0.2381 -0.8997
 8566SOL    HW334031   4.312   3.819   0.292  1.1444 -0.9566 -0.0125
 8566SOL    MW434032   4.376   3.856   0.247  0.0408 -0.2527  0.0724
 8567SOL     OW34033   4.741   2.324   2.058  0.1118  0.0568  0.3925
 8567SOL    HW234034   4.731   2.336   1.964  0.3703 -1.4465  0.1429
 8567SOL    HW334035   4.709   2.406   2.096 -1.4126  0.1362 -0.9229
 8567SOL    MW434036   4.735   2.336   2.051 -0.6810 -0.2473  0.5553
 8568SOL     OW34037   4.095   4.121   5.244 -0.2755 -0.0232  0.3595
 8568SOL    HW234038   4.124   4.092   5.158 -0.9449 -0.7146  0.3605
 8568SOL    HW334039   4.047   4.047   5.280 -0.5970  0.5042  1.0429
 8568SOL    MW434040   4.092   4.108   5.237  0.3129 -0.0186 -0.0062
 8569SOL     OW34041   6.229   1.019   6.228 -0.3336  0.2064  0.0287
 8569SOL    HW234042   6.293   1.085   6.202 -1.5947  1.0836 -0.9572
 8569SOL    HW334043   6.178   1.004   6.148 -1.7629 -0.0105  0.9710
 8569SOL    MW434044   6.231   1.025   6.214 -0.7080 -0.0610  0.0782
 8570SOL     OW34045   5.870   6.011   0.322  0.1734 -0.4729 -0.3264
 8570SOL    HW234046   5.798   6.050   0.272  0.0958  2.2811  1.6817
 8570SOL    HW334047   5.945   6.013   0.261 -0.6686 -0.3510 -1.3931
 8570SOL    MW434048   5.871   6.017   0.307  0.5975  0.2593  0.2755
 8571SOL     OW34049   2.431   0.410   0.192 -0.3326  0.1261 -0.2804
 8571SOL    HW234050   2.520   0.437   0.214 -0.6937  1.3634 -0.2691
 8571SOL    HW334051   2.442   0.342   0.125  0.5999  0.9889 -1.0354
 8571SOL    MW434052   2.444   0.404   0.186 -0.6880  0.1181 -0.6886
 8572SOL     OW34053   3.021   2.846   2.277 -0.1768 -0.9067 -0.2013
 8572SOL    HW234054   3.020   2.838   2.182  0.4287 -0.0033 -0.2919
 8572SOL    HW334055   2.979   2.765   2.308 -0.8474 -0.9707 -1.2360
 8572SOL    MW434056   3.015   2.834   2.268 -0.0185 -0.2977 -0.6313
 8573SOL     OW34057   5.538   3.125   1.313 -0.1295 -0.3164 -0.0061
 8573SOL    HW234058   5.503   3.050   1.360 -1.3618  0.3762  0.2074
 8573SOL    HW334059   5.585   3.175   1.379  2.1067 -1.6678 -0.4461
 8573SOL    MW434060   5.540   3.122   1.328  0.1994 -0.1600 -0.2740
 8574SOL     OW34061   2.487   5.610   0.696  0.6339 -0.4679  0.0357
 8574SOL    HW234062   2.542   5.662   0.754 -0.3585  1.0245 -0.3125
 8574SOL    HW334063   2.504   5.645   0.609  0.9594 -1.6625 -0.4002
 8574SOL    MW434064   2.496   5.621   0.692  0.1641 -0.0097  0.4369
 8575SOL     OW34065   3.571   5.864   4.388  0.4334  0.5311  0.3959
 8575SOL    HW234066   3.564   5.864   4.292 -0.6261  1.0343  0.4582
 8575SOL    HW334067   3.492   5.910   4.417 -0.0156 -0.9483  1.5777
 8575SOL    MW434068   3.560   5.870   4.379  0.1521  0.4905  0.7137
 8576SOL     OW34069   2.786   5.000   5.311 -0.6390  0.1617 -0.5061
 8576SOL    HW234070   2.719   5.068   5.314 -0.8258 -0.0499  0.3499
 8576SOL    HW334071   2.785   4.960   5.398 -0.6102 -1.0217 -1.0206
 8576SOL    MW434072   2.777   5.004   5.323  0.3676  0.0708  0.3754
 8577SOL     OW34073   4.192   2.629   2.863  0.3307  0.0176 -0.4764
 8577SOL    HW234074   4.200   2.554   2.922  0.7964  0.0926 -0.4414
 8577SOL    HW334075   4.101   2.656   2.871 -0.2086 -1.3630 -1.4732
 8577SOL    MW434076   4.181   2.622   2.872  0.6014 -0.3209 -0.5874
 8578SOL     OW34077   2.721   4.782   0.380  0.0912 -0.0599  0.0698
 8578SOL    HW234078   2.755   4.701   0.417  0.1102 -0.5345 -0.9719
 8578SOL    HW334079   2.799   4.834   0.360  0.1968 -0.7039 -1.3069
 8578SOL    MW434080   2.736   4.778   0.382 -0.2203 -0.4310 -0.0984
 8579SOL     OW34081   4.080   1.279   2.805 -0.1286 -0.2033 -0.3837
 8579SOL    HW234082   4.036   1.269   2.890  2.4692 -1.5283  0.9336
 8579SOL    HW334083   4.052   1.202   2.755 -0.6175 -0.1505 -0.1947
 8579SOL    MW434084   4.071   1.267   2.810  1.0468 -0.1169  0.0437
 8580SOL     OW34085   3.579   4.411   2.076  0.0975 -0.0448  0.1245
 8580SOL    HW234086   3.520   4.414   2.001  1.2021 -0.1455 -0.7707
 8580SOL    HW334087   3.523   4.383   2.149 -1.3214  1.5504 -0.3029
 8580SOL    MW434088   3.564   4.407   2.076 -0.3105 -0.1895 -0.1341
 8581SOL     OW34089   2.653   4.687   4.202 -0.1405 -0.2828  0.1111
 8581SOL    HW234090   2.591   4.614   4.194  0.1124 -0.5134  0.2024
 8581SOL    HW334091   2.728   4.660   4.150 -0.8393  0.8139 -1.5225
 8581SOL    MW434092   2.655   4.674   4.194  0.6656 -0.1987  0.1771
 8582SOL     OW34093   1.294   0.123   1.292  0.0406 -0.4773 -0.3832
 8582SOL    HW234094   1.326   0.071   1.218 -1.7049 -4.1441  1.1726
 8582SOL    HW334095   1.209   0.155   1.264  0.6914  0.8175 -0.9803
 8582SOL    MW434096   1.287   0.120   1.279  0.6394  0.3067  0.5866
 8583SOL     OW34097   5.751   2.057   1.884 -0.4242 -0.0157 -0.6948
 8583SOL    HW234098   5.682   2.093   1.828  0.0487  0.7070 -0.8338
 8583SOL    HW334099   5.708   2.039   1.968 -1.2301 -1.4876 -1.3918
 8583SOL    MW434100   5.737   2.059   1.888  0.4269 -0.2676 -0.4774
 8584SOL     OW34101   3.350   5.508   5.154 -0.2278 -0.3005  0.0721
 8584SOL    HW234102   3.318   5.425   5.190 -0.2222  0.1461  1.1267
 8584SOL    HW334103   3.392   5.552   5.228  1.7633 -0.3246 -0.9632
 8584SOL    MW434104   3.352   5.503   5.169  0.5652 -0.6262 -0.0246
 8585SOL     OW34105   1.925   0.690   2.890 -0.2867 -0.2247 -0.4389
 8585SOL    HW234106   1.839   0.655   2.915 -0.8097 -0.4384 -2.4160
 8585SOL    HW334107   1.928   0.776   2.934 -1.0446 -0.6501  0.5023
 8585SOL    MW434108   1.914   0.697   2.899  0.1111  0.3042 -0.0672
 8586SOL     OW34109   5.567   2.611   5.779 -0.1713  0.4405  0.2428
 8586SOL    HW234110   5.646   2.577   5.822 -0.6011  0.6678  1.2436
 8586SOL    HW334111   5.594   2.628   5.689  0.7820  0.0270  0.4371
 8586SOL    MW434112   5.581   2.608   5.773  0.0411  0.1252 -0.9031
 8587SOL     OW34113   5.157   1.664   3.731 -0.2136  0.3481  0.0490
 8587SOL    HW234114   5.229   1.724   3.712  0.8772 -0.5297  1.1887
 8587SOL    HW334115   5.100   1.712   3.791  0.7399  0.2206  1.0918
 8587SOL    MW434116   5.159   1.678   3.736 -0.1496 -0.6557 -0.0614
 8588SOL     OW34117   3.895   0.184   0.723  0.3763  0.3544 -0.3863
 8588SOL    HW234118   3.874   0.201   0.815  0.4262  0.9859 -0.4864
 8588SOL    HW334119   3.867   0.093   0.709 -0.7843  0.6403 -0.0774
 8588SOL    MW434120   3.889   0.174   0.734 -0.5693 -0.1582  0.6881
 8589SOL     OW34121   3.561   1.382   4.184  0.1106  0.3586 -0.2289
 8589SOL    HW234122   3.549   1.439   4.260  0.8409  0.7059 -0.3741
 8589SOL    HW334123   3.554   1.440   4.109 -0.5619  0.0216 -0.4398
 8589SOL    MW434124   3.559   1.397   4.184 -0.0391  0.2091  0.3967
 8590SOL     OW34125   5.706   4.436   3.467 -0.3642  0.2492 -0.4071
 8590SOL    HW234126   5.711   4.340   3.463 -3.2027 -0.0395  0.5227
 8590SOL    HW334127   5.748   4.459   3.549 -3.4025 -0.7321  1.5775
 8590SOL    MW434128   5.712   4.426   3.477  0.4321  0.3912  0.4578
 8591SOL     OW34129   1.547   2.098   0.693 -0.2721 -0.0957 -0.1207
 8591SOL    HW234130   1.473   2.051   0.730 -1.1388  1.8496  0.7697
 8591SOL    HW334131   1.602   2.121   0.768  0.4455 -0.2003 -0.5973
 8591SOL    MW434132   1.545   2.095   0.708 -0.0522  0.0518 -0.4019
 8592SOL     OW34133   6.063   4.984   1.114  0.3471  0.2246 -0.3823
 8592SOL    HW234134   6.076   5.007   1.022 -0.6873 -0.4431 -0.7045
 8592SOL    HW334135   5.984   4.931   1.116 -1.0296  2.1656  1.1971
 8592SOL    MW434136   6.055   4.980   1.102 -0.4780  0.4709 -1.0200
 8593SOL     OW34137   1.370   5.163   0.027 -0.0061  0.1622  0.0833
 8593SOL    HW234138   1.320   5.199  -0.047  2.1620  0.7679 -1.2118
 8593SOL    HW334139   1.439   5.229   0.043  1.0368 -1.0983  1.0198
 8593SOL    MW434140   1.373   5.177   0.019 -0.0357  0.1082 -0.2886
 8594SOL     OW34141   5.618   1.416   0.963  0.4631  0.1258  0.1648
 8594SOL    HW234142   5.610   1.511   0.968  0.4003  0.0950  0.8154
 8594SOL    HW334143   5.574   1.384   1.042 -1.4984 -0.5880 -1.1441
 8594SOL    MW434144   5.611   1.424   0.974 -0.7655 -0.1025  0.2368
 8595SOL     OW34145   0.749   1.322   1.540 -0.0719  0.3200  0.1828
 8595SOL    HW234146   0.789   1.307   1.626  1.6228  0.0254 -0.6154
 8595SOL    HW334147   0.663   1.280   1.546  0.2993 -0.3164  1.4991
 8595SOL    MW434148   0.743   1.315   1.553  0.3300 -0.8872 -0.0817
 8596SOL     OW34149   4.627   1.429   0.339 -0.4628  0.6428 -0.4337
 8596SOL    HW234150   4.563   1.369   0.301  1.7233 -3.0455  1.1138
 8596SOL    HW334151   4.584   1.465   0.416 -0.8310 -1.7018  0.5456
 8596SOL    MW434152   4.613   1.426   0.344  0.1107 -0.2689  0.0391
 8597SOL     OW34153   0.199   4.213   4.695  0.3777 -0.1255 -0.5935
 8597SOL    HW234154   0.238   4.297   4.670  0.0254  0.8160  1.7875
 8597SOL    HW334155   0.110   4.217   4.658 -0.4891  1.6719  1.4714
 8597SOL    MW434156   0.192   4.224   4.687  0.1431 -0.0650 -0.1766
 8598SOL     OW34157   3.998   2.895   4.487 -0.1491 -0.0810  0.1730
 8598SOL    HW234158   4.076   2.871   4.538  0.3306  3.6039  1.4543
 8598SOL    HW334159   4.028   2.965   4.429 -1.9229 -0.5677 -1.4292
 8598SOL    MW434160   4.012   2.901   4.486 -0.3448 -0.6068  0.2403
 8599SOL     OW34161   3.466   5.759   2.066  0.5776  0.3710  0.5035
 8599SOL    HW234162   3.549   5.768   2.019 -1.2994  3.0815 -2.7953
 8599SOL    HW334163   3.427   5.678   2.031  0.0192  1.3923 -1.3461
 8599SOL    MW434164   3.472   5.749   2.055 -0.0534 -0.8412  0.2261
 8600SOL     OW34165   6.150   3.867   5.049  0.3753  0.3157  0.4151
 8600SOL    HW234166   6.235   3.910   5.058  0.1982  0.9563 -0.8455
 8600SOL    HW334167   6.140   3.852   4.956 -1.6263  1.8105  0.3297
 8600SOL    MW434168   6.160   3.871   5.038  0.2212 -0.5918 -0.1231
 8601SOL     OW34169   4.269   0.465   0.525 -0.0636 -0.1169  0.0905
 8601SOL    HW234170   4.324   0.401   0.570  0.4748  0.2560 -0.0271
 8601SOL    HW334171   4.180   0.442   0.550  0.1071 -1.0547 -0.1347
 8601SOL    MW434172   4.265   0.454   0.534 -0.5248 -0.0020  0.2220
 8602SOL     OW34173   5.538   0.332   1.719 -0.0642  0.2110 -0.5747
 8602SOL    HW234174   5.603   0.401   1.706 -0.2689  0.4754 -0.2317
 8602SOL    HW334175   5.503   0.350   1.807  0.8304 -1.1202  0.0941
 8602SOL    MW434176   5.542   0.344   1.729 -0.2069  0.1154 -0.8281
 8603SOL     OW34177   3.851   1.891   0.965 -0.3842  0.0349  0.3362
 8603SOL    HW234178   3.856   1.802   0.930  1.7573  1.0859 -2.4885
 8603SOL    HW334179   3.838   1.880   1.059  3.3165 -3.4178  0.7151
 8603SOL    MW434180   3.850   1.878   0.973 -0.2116  0.0040  0.2955
 8604SOL     OW34181   4.512   2.276   4.805  0.5397  0.3531 -0.2142
 8604SOL    HW234182   4.475   2.221   4.735  1.0909  0.1531 -0.3560
 8604SOL    HW334183   4.442   2.284   4.869  0.5584 -0.8113 -0.0276
 8604SOL    MW434184   4.498   2.270   4.804  0.7645 -0.0254 -0.0635
 8605SOL     OW34185   3.629   6.215   1.221  0.3870 -0.0846  0.2161
 8605SOL    HW234186   3.647   6.293   1.273  1.3059 -0.0111 -0.2006
 8605SOL    HW334187   3.650   6.141   1.279 -0.7822 -0.0497  0.7200
 8605SOL    MW434188   3.634   6.215   1.235 -0.5187 -0.4695 -0.0304
 8606SOL     OW34189   5.803   5.521   5.354 -0.3275 -0.2922 -0.2745
 8606SOL    HW234190   5.746   5.537   5.429  0.5162  0.7771  0.1627
 8606SOL    HW334191   5.828   5.608   5.324 -0.2890 -0.7204 -1.5240
 8606SOL    MW434192   5.799   5.534   5.360  0.1560 -0.3364 -0.3370
 8607SOL     OW34193   4.503   1.648   4.546 -0.2391 -0.2875 -0.1596
 8607SOL    HW234194   4.582   1.692   4.517  0.1810 -0.2903  0.9138
 8607SOL    HW334195   4.534   1.573   4.597 -0.9321 -0.6224 -0.2098
 8607SOL    MW434196   4.517   1.644   4.549  0.1609  0.3187  0.0962
 8608SOL     OW34197   5.298   4.680   2.857 -0.6599  0.6509  0.4967
 8608SOL    HW234198   5.219   4.734   2.864 -1.6886 -0.7835  0.5819
 8608SOL    HW334199   5.290   4.638   2.771 -0.7320 -0.5685  1.0787
 8608SOL    MW434200   5.286   4.682   2.846 -0.0866 -0.0642  0.3802
 8609SOL     OW34201   2.888   1.187  -0.001  0.7326 -0.8022 -0.2078
 8609SOL    HW234202   2.958   1.246  -0.027  2.8956 -2.8684  0.6575
 8609SOL    HW334203   2.924   1.136   0.071 -0.9224 -3.3888 -1.0654
 8609SOL    MW434204   2.902   1.188   0.005  0.1833  0.1258  0.2296
 8610SOL     OW34205   5.158   1.900   5.337 -0.2854  0.1908  0.5739
 8610SOL    HW234206   5.229   1.955   5.304 -0.7970  1.1387  1.0014
 8610SOL    HW334207   5.157   1.918   5.431 -3.3230  2.9908  0.1910
 8610SOL    MW434208   5.168   1.910   5.345  0.5687  0.3352  0.5403
 8611SOL     OW34209   3.853   5.252   2.775 -0.6808  0.3299  0.0359
 8611SOL    HW234210   3.827   5.310   2.846 -2.1888  1.8651 -1.6452
 8611SOL    HW334211   3.774   5.202   2.754 -0.1488 -0.3896 -0.2989
 8611SOL    MW434212   3.839   5.253   2.781 -0.0967  0.2996 -0.4151
 8612SOL     OW34213   0.714   4.022   2.230  0.5668  0.0070  0.3441
 8612SOL    HW234214   0.727   4.116   2.229  0.4956  0.0145 -0.5266
 8612SOL    HW334215   0.798   3.986   2.261  0.9476  0.3052 -0.3350
 8612SOL    MW434216   0.727   4.029   2.234  0.3155 -0.3614 -0.4183
 8613SOL     OW34217   0.166   3.940   6.043 -0.0583 -0.5478  0.0470
 8613SOL    HW234218   0.153   3.878   6.115 -1.0571 -0.3044  0.1023
 8613SOL    HW334219   0.123   4.020   6.074 -0.0184 -0.2721 -0.6047
 8613SOL    MW434220   0.159   3.942   6.057 -0.2289 -0.4141 -0.3322
 8614SOL     OW34221   5.321   0.041   0.891 -0.3562 -0.0697  0.2232
 8614SOL    HW234222   5.396   0.037   0.950 -1.4757 -1.1091  1.6710
 8614SOL    HW334223   5.357   0.021   0.805  1.4468  2.1411  0.3818
 8614SOL    MW434224   5.335   0.037   0.888 -0.1798 -0.4373  0.3713
 8615SOL     OW34225   3.126   3.702   5.321 -0.5356 -0.1986 -0.4892
 8615SOL    HW234226   3.174   3.780   5.295 -0.5150  0.1424  0.5068
 8615SOL    HW334227   3.192   3.644   5.360 -0.9445  0.4093  1.1836
 8615SOL    MW434228   3.141   3.704   5.323 -0.7266  0.1644 -0.4900
 8616SOL     OW34229   0.581   6.286   1.740 -0.1240  1.0815  0.0044
 8616SOL    HW234230   0.665   6.241   1.746  0.0040  1.1741 -0.9741
 8616SOL    HW334231   0.578   6.321   1.651 -0.2537  2.9369  0.6900
 8616SOL    MW434232   0.591   6.285   1.729 -0.2199 -0.0148  0.6899
 8617SOL     OW34233   3.036   6.077   4.745  0.2980 -0.1428  0.2686
 8617SOL    HW234234   3.008   6.052   4.833 -0.7837  1.6610  0.4818
 8617SOL    HW334235   3.028   5.996   4.694  0.0945 -1.0045  1.6129
 8617SOL    MW434236   3.031   6.063   4.750  0.1635  0.0054 -0.5326
 8618SOL     OW34237   3.681   4.509   0.357 -0.5717 -0.0259 -0.1057
 8618SOL    HW234238   3.597   4.466   0.372 -0.3499 -0.5398 -0.2835
 8618SOL    HW334239   3.686   4.577   0.424 -1.7872  1.0087 -1.0348
 8618SOL    MW434240   3.671   4.512   0.368  0.4343 -0.3126  0.7401
 8619SOL     OW34241   5.470   4.042   1.087  0.3373  0.1248  0.3533
 8619SOL    HW234242   5.424   3.968   1.047  1.0452  0.0150 -0.2886
 8619SOL    HW334243   5.494   4.098   1.014  0.9796  0.3148  0.7011
 8619SOL    MW434244   5.467   4.040   1.072 -0.9941  0.3662  0.2552
 8620SOL     OW34245   0.009   3.495   3.926 -0.4318  0.1626  0.4118
 8620SOL    HW234246   0.030   3.565   3.864 -0.0236  0.1499  0.5359
 8620SOL    HW334247   0.023   3.534   4.012  1.2846 -0.5289  0.4702
 8620SOL    MW434248   0.013   3.509   3.930 -0.5014 -0.4765  0.5374
 8621SOL     OW34249   1.127   5.848   0.516  0.1295 -0.2624 -0.5051
 8621SOL    HW234250   1.055   5.785   0.516 -1.2491  1.1831 -1.7747
 8621SOL    HW334251   1.122   5.890   0.602 -0.8415  0.0833 -0.7102
 8621SOL    MW434252   1.117   5.846   0.527  0.3934 -0.0394  0.2414
 8622SOL     OW34253   5.577   2.517   0.272 -0.6370  0.0474 -0.2462
 8622SOL    HW234254   5.497   2.470   0.294 -0.0865  0.0790  2.1087
 8622SOL    HW334255   5.646   2.471   0.321  0.4421  1.2923 -0.5282
 8622SOL    MW434256   5.576   2.505   0.281 -0.1644 -0.4370  0.2051
 8623SOL     OW34257   6.328   6.242   1.377 -0.4075 -0.2502 -0.2392
 8623SOL    HW234258   6.414   6.255   1.335  0.2863 -2.1183  0.4834
 8623SOL    HW334259   6.287   6.173   1.326 -1.7400  0.9845 -0.8885
 8623SOL    MW434260   6.334   6.234   1.365  0.6646  0.0539  0.1192
 8624SOL     OW34261   5.195   2.693   6.016  0.6254 -0.3715 -0.0556
 8624SOL    HW234262   5.203   2.756   6.088 -0.6957  1.6694 -1.5717
 8624SOL    HW334263   5.122   2.637   6.042 -1.7695  2.1198 -0.8819
 8624SOL    MW434264   5.187   2.694   6.029  0.1758 -0.1975 -0.4990
 8625SOL     OW34265   1.913   0.208   0.396 -0.7966  0.2075  0.7033
 8625SOL    HW234266   1.981   0.266   0.362 -0.4182 -1.4800 -1.6321
 8625SOL    HW334267   1.954   0.121   0.397 -2.1234 -0.4475  1.7055
 8625SOL    MW434268   1.928   0.204   0.392  0.1545 -0.2566  0.0312
 8626SOL     OW34269   3.169   4.849   2.458  0.6828 -0.3299 -0.3001
 8626SOL    HW234270   3.263   4.833   2.462  0.6365 -0.5507 -0.0208
 8626SOL    HW334271   3.131   4.778   2.510  0.3322 -0.5116 -0.7910
 8626SOL    MW434272   3.176   4.837   2.465 -0.1584  0.6117  0.6943
 8627SOL     OW34273   5.557   5.187   1.374 -0.1118  0.1231  0.4636
 8627SOL    HW234274   5.642   5.225   1.395  0.3337 -1.3009  1.3850
 8627SOL    HW334275   5.515   5.251   1.316  2.1453  0.2160 -1.1878
 8627SOL    MW434276   5.562   5.201   1.369  0.1373  0.6025  0.5594
 8628SOL     OW34277   2.234   2.471   3.467  0.2243  0.3364 -0.2253
 8628SOL    HW234278   2.168   2.480   3.536  1.6454 -1.6474  1.5124
 8628SOL    HW334279   2.207   2.392   3.420  0.3977  0.5183 -0.6293
 8628SOL    MW434280   2.222   2.461   3.470 -0.4233 -0.3001 -0.1980
 8629SOL     OW34281   1.236   0.557   3.603 -0.1200  0.2808  0.0967
 8629SOL    HW234282   1.218   0.640   3.647 -0.6712  1.2632 -1.8440
 8629SOL    HW334283   1.256   0.582   3.512 -0.1563 -1.7059 -0.5110
 8629SOL    MW434284   1.236   0.571   3.597 -0.0983  0.1753 -0.2497
 8630SOL     OW34285   2.426   5.114   3.665  0.7776 -0.6448 -0.2923
 8630SOL    HW234286   2.508   5.149   3.702  1.0204 -2.5818  1.1741
 8630SOL    HW334287   2.357   5.158   3.715  0.9502  0.1316 -0.7253
 8630SOL    MW434288   2.428   5.124   3.677 -0.1649  0.3154 -0.3013
 8631SOL     OW34289   4.752   3.034   4.049  0.1992 -0.4435 -0.5366
 8631SOL    HW234290   4.675   3.019   3.993  0.3825 -1.8597 -0.4537
 8631SOL    HW334291   4.824   3.047   3.988 -0.0295  0.5052 -0.6149
 8631SOL    MW434292   4.751   3.034   4.033  0.0645 -0.5723  0.2456
 8632SOL     OW34293   0.368   0.642   4.730  0.1352  0.1801  0.2258
 8632SOL    HW234294   0.372   0.707   4.800  0.8516 -0.1893  0.5398
 8632SOL    HW334295   0.396   0.560   4.772  0.8674  0.0159 -0.5679
 8632SOL    MW434296   0.372   0.639   4.745 -0.0103  1.0116 -0.1352
 8633SOL     OW34297   6.298   1.699   5.740  0.2109  0.1380  0.5409
 8633SOL    HW234298   6.252   1.655   5.812 -0.6177 -1.6888 -0.9961
 8633SOL    HW334299   6.228   1.741   5.689  0.4572 -0.6235 -0.4770
 8633SOL    MW434300   6.282   1.699   5.742 -1.0203  0.0601  0.2364
 8634SOL     OW34301   6.109   2.976   3.845  0.5894  0.6708  0.1638
 8634SOL    HW234302   6.190   3.027   3.835  0.5553  0.4612 -1.3590
 8634SOL    HW334303   6.099   2.930   3.762 -0.9059  0.4006  0.4695
 8634SOL    MW434304   6.118   2.977   3.833 -0.6055 -0.7138 -0.1365
 8635SOL     OW34305   3.914   0.131   6.279  0.3297  0.0389 -0.0688
 8635SOL    HW234306   3.905   0.081   6.361 -1.8347  1.0860  0.4026
 8635SOL    HW334307   3.950   0.215   6.307  0.1709  0.1817 -0.2993
 8635SOL    MW434308   3.918   0.135   6.294  0.0986 -0.5297  0.2700
 8636SOL     OW34309   3.581   0.040   0.883 -0.1469  0.6459  0.0047
 8636SOL    HW234310   3.589   0.017   0.790 -1.5208 -0.9188  0.2343
 8636SOL    HW334311   3.665   0.078   0.905  0.6229 -0.0227 -1.5971
 8636SOL    MW434312   3.593   0.042   0.873 -0.0128 -0.0697  0.0378
 8637SOL     OW34313   4.705   5.733   5.940 -0.5326  0.0295  0.4946
 8637SOL    HW234314   4.711   5.821   5.902 -1.5356  0.1703  0.6344
 8637SOL    HW334315   4.684   5.676   5.866  0.5923 -0.1772  0.3203
 8637SOL    MW434316   4.703   5.737   5.926  0.0786 -0.1334  0.6779
 8638SOL     OW34317   6.358   1.894   0.208  0.5947  0.2418 -0.3270
 8638SOL    HW234318   6.385   1.925   0.294  1.1611  1.6259 -0.9773
 8638SOL    HW334319   6.281   1.840   0.225  0.4087  0.8926  0.9969
 8638SOL    MW434320   6.351   1.891   0.222 -0.1336 -0.3681 -0.1304
 8639SOL     OW34321   2.749   1.569   6.089  0.2808 -0.3185 -0.1196
 8639SOL    HW234322   2.840   1.543   6.073  0.2037 -1.7332  1.4817
 8639SOL    HW334323   2.749   1.604   6.178 -1.1786 -2.9820  1.0461
 8639SOL    MW434324   2.761   1.570   6.099 -0.1006 -0.0747  0.4273
 8640SOL     OW34325   2.492   3.347   4.800  0.0265  0.0411  0.2037
 8640SOL    HW234326   2.511   3.283   4.731  0.6693 -0.4355  0.8152
 8640SOL    HW334327   2.427   3.305   4.856 -0.5910  0.4794 -0.1687
 8640SOL    MW434328   2.486   3.333   4.798  0.2161  0.1022 -1.1564
 8641SOL     OW34329   1.482   4.825   0.401 -0.1016  0.9809  0.2100
 8641SOL    HW234330   1.509   4.863   0.485  2.8226 -0.0474 -0.1485
 8641SOL    HW334331   1.562   4.827   0.348 -1.0174 -1.4661 -1.3876
 8641SOL    MW434332   1.496   4.830   0.405  0.1388  0.2687  0.2930
 8642SOL     OW34333   1.726   0.352   2.844  0.0238 -0.2187  0.2026
 8642SOL    HW234334   1.722   0.406   2.765 -0.4615 -0.9307 -0.2745
 8642SOL    HW334335   1.813   0.311   2.841  0.3021  0.3368  0.4453
 8642SOL    MW434336   1.737   0.354   2.833  0.9369  0.3639  0.3163
 8643SOL     OW34337   2.372   3.042   0.950 -0.1411 -0.3128 -0.0988
 8643SOL    HW234338   2.288   3.070   0.912  0.4079  0.5205 -0.7499
 8643SOL    HW334339   2.348   2.990   1.026 -1.2499  0.4772  0.1194
 8643SOL    MW434340   2.358   3.039   0.955 -0.0243  0.3014  0.3426
 8644SOL     OW34341   2.585   3.815   2.943  0.1911 -0.1719  0.1336
 8644SOL    HW234342   2.678   3.793   2.955  0.4308  2.0224  3.6690
 8644SOL    HW334343   2.585   3.908   2.919 -1.1186 -0.0910  0.3794
 8644SOL    MW434344   2.598   3.825   2.941 -0.2928 -0.2948 -0.9363
 8645SOL     OW34345   6.393   5.590   5.567  0.1651 -0.3181 -0.3199
 8645SOL    HW234346   6.461   5.650   5.538  0.1815 -0.2470 -0.1378
 8645SOL    HW334347   6.311   5.633   5.544  0.1200  0.6935  1.5406
 8645SOL    MW434348   6.391   5.603   5.560  0.0483  0.5659 -0.3065
 8646SOL     OW34349   0.720   0.550   0.104 -0.3293  0.2235 -0.2631
 8646SOL    HW234350   0.780   0.595   0.044  1.3327 -1.9980 -0.4241
 8646SOL    HW334351   0.666   0.495   0.048  0.6437 -1.2158  0.1613
 8646SOL    MW434352   0.721   0.549   0.089  0.4516  0.5099  0.5077
 8647SOL     OW34353   4.816   2.019   3.194 -0.4433 -0.2503 -0.4476
 8647SOL    HW234354   4.841   1.958   3.125 -0.2704  0.4343 -0.9993
 8647SOL    HW334355   4.843   2.105   3.161  2.6900 -0.1736  1.8057
 8647SOL    MW434356   4.823   2.022   3.181 -0.5871 -0.5016  0.8205
 8648SOL     OW34357   1.991   4.791   6.383 -0.4197  0.4219 -0.6038
 8648SOL    HW234358   2.049   4.830   6.449  0.8560 -0.0621 -1.4084
 8648SOL    HW334359   1.951   4.867   6.340  0.9541  0.8640 -1.1921
 8648SOL    MW434360   1.994   4.806   6.386  0.4177  0.3789  0.0608
 8649SOL     OW34361   5.856   5.346   5.577 -0.2088  0.2004 -0.2216
 8649SOL    HW234362   5.834   5.266   5.530  1.0184 -0.4921  0.3463
 8649SOL    HW334363   5.901   5.400   5.512  1.9238 -0.9576  0.2253
 8649SOL    MW434364   5.859   5.343   5.562 -0.2008  0.4733  0.2424
 8650SOL     OW34365   1.621   3.532   6.172  0.6794  0.1639 -0.3248
 8650SOL    HW234366   1.529   3.529   6.200  1.0739 -0.4185  0.9866
 8650SOL    HW334367   1.618   3.511   6.079 -0.3596 -2.0652  0.1390
 8650SOL    MW434368   1.608   3.529   6.164  0.8786  0.0885  0.3871
 8651SOL     OW34369   5.510   1.100   6.244 -0.3650  0.0354  0.5824
 8651SOL    HW234370   5.472   1.170   6.190 -0.9274 -0.5554  0.1900
 8651SOL    HW334371   5.603   1.121   6.248 -0.5423  0.8553  0.5434
 8651SOL    MW434372   5.517   1.112   6.237  0.1891 -0.1102 -0.1790
 8652SOL     OW34373   4.253   0.843   0.287 -0.3684 -0.1839 -0.2213
 8652SOL    HW234374   4.185   0.783   0.318 -1.3386  1.0378  0.1269
 8652SOL    HW334375   4.334   0.792   0.288 -1.1015 -1.3553  0.4301
 8652SOL    MW434376   4.255   0.829   0.291  0.2559  0.9758 -0.0847
 8653SOL     OW34377   5.694   3.371   5.853  0.5994 -0.1915 -0.0335
 8653SOL    HW234378   5.628   3.318   5.809  1.0196 -0.6002 -0.1908
 8653SOL    HW334379   5.766   3.376   5.790  1.2857 -0.9413  0.6591
 8653SOL    MW434380   5.695   3.364   5.839  0.2881 -0.3325  0.1200
 8654SOL     OW34381   4.325   2.702   4.359 -0.0597  0.3046  0.4818
 8654SOL    HW234382   4.419   2.697   4.345 -0.1183  1.2354 -0.4145
 8654SOL    HW334383   4.306   2.634   4.424  1.3157  0.5546  1.1744
 8654SOL    MW434384   4.335   2.692   4.365 -0.2998  0.2570  0.1759
 8655SOL     OW34385   4.009   1.081   6.286  0.0868  0.2456 -0.1822
 8655SOL    HW234386   4.078   1.076   6.353 -0.9508 -0.3472  0.8945
 8655SOL    HW334387   3.972   1.168   6.296  1.0274  0.7690 -1.1416
 8655SOL    MW434388   4.013   1.092   6.296 -0.1564 -0.0599  0.5899
 8656SOL     OW34389   1.086   5.405   0.151 -0.3223  0.0446 -0.1315
 8656SOL    HW234390   1.138   5.356   0.215 -0.8168  1.2774  1.2631
 8656SOL    HW334391   1.127   5.491   0.148  0.2073 -0.2408 -2.1524
 8656SOL    MW434392   1.098   5.410   0.159 -0.5152  0.9893  0.2497
 8657SOL     OW34393   2.735   5.571   4.124 -0.0663  0.0712 -0.3028
 8657SOL    HW234394   2.650   5.545   4.088 -0.1015 -0.6349  0.2873
 8657SOL    HW334395   2.799   5.517   4.076  0.0231  0.3083 -0.4556
 8657SOL    MW434396   2.733   5.561   4.113  0.4816  0.2216 -0.5073
 8658SOL     OW34397   2.555   3.537   1.896 -0.1598  0.4183  0.2043
 8658SOL    HW234398   2.559   3.576   1.809  0.7907  0.7654  0.3812
 8658SOL    HW334399   2.633   3.570   1.940  0.7614 -1.7476  0.3427
 8658SOL    MW434400   2.566   3.546   1.891 -0.4819 -0.9659  0.1676
 8659SOL     OW34401   5.678   0.181   0.884  0.2519  0.1393  0.0935
 8659SOL    HW234402   5.649   0.272   0.889 -0.4889  0.0170 -1.5111
 8659SOL    HW334403   5.648   0.141   0.966  0.3600  1.2655  0.6952
 8659SOL    MW434404   5.670   0.188   0.895  0.2342  0.1232  0.7439
 8660SOL     OW34405   0.450   5.466   2.750  0.4287  0.3266  0.3961
 8660SOL    HW234406   0.421   5.470   2.659 -1.0202 -1.0294  0.7494
 8660SOL    HW334407   0.443   5.556   2.781  2.5793  1.1559 -1.2532
 8660SOL    MW434408   0.445   5.478   2.742 -0.5569  0.4443 -0.4472
 8661SOL     OW34409   1.709   1.554   0.645  0.3003  0.4931 -0.3258
 8661SOL    HW234410   1.735   1.644   0.665  0.5183  0.0169  1.7854
 8661SOL    HW334411   1.756   1.533   0.564  1.6185  1.7061  0.0800
 8661SOL    MW434412   1.719   1.563   0.637  0.1291  0.2155 -0.1565
 8662SOL     OW34413   0.688   6.197   0.990 -0.1535  0.3709 -0.4168
 8662SOL    HW234414   0.616   6.138   1.012 -0.8163  0.7297 -1.5111
 8662SOL    HW334415   0.745   6.196   1.067 -0.5068 -1.1420 -0.1473
 8662SOL    MW434416   0.686   6.189   1.003 -0.9122 -0.4829 -0.1311
 8663SOL     OW34417   3.490   4.915   5.187  0.2624 -0.1254 -0.2878
 8663SOL    HW234418   3.527   4.989   5.139  0.9330 -0.5070 -0.3695
 8663SOL    HW334419   3.411   4.951   5.229  0.0009  0.3698 -1.1646
 8663SOL    MW434420   3.484   4.930   5.186  0.5749  0.1079 -0.5573
 8664SOL     OW34421   4.297   2.976   5.445 -0.3532 -0.5230 -0.2881
 8664SOL    HW234422   4.211   3.017   5.457  0.0986 -0.0855  1.8261
 8664SOL    HW334423   4.279   2.897   5.395 -1.8436  0.0593 -0.7275
 8664SOL    MW434424   4.283   2.971   5.440  0.1079  0.4565  0.1924
 8665SOL     OW34425   6.414   5.842   1.879  0.6616  0.3945  0.5033
 8665SOL    HW234426   6.377   5.930   1.869 -0.8738 -0.2220  0.3475
 8665SOL    HW334427   6.472   5.831   1.803  1.7580  1.6608  1.1320
 8665SOL    MW434428   6.416   5.852   1.868  0.0997 -0.1082 -0.0367
 8666SOL     OW34429   3.612   2.661   1.570 -0.3131  0.1517  0.2933
 8666SOL    HW234430   3.690   2.621   1.532 -0.8100  0.5341 -1.1593
 8666SOL    HW334431   3.646   2.737   1.618  0.1594  0.6424 -0.7986
 8666SOL    MW434432   3.627   2.666   1.572 -0.9513  0.7810 -0.2994
 8667SOL     OW34433   2.035   5.960   5.044 -0.1215  0.2775  0.0220
 8667SOL    HW234434   1.978   6.013   4.987 -2.1373 -2.0795 -0.3183
 8667SOL    HW334435   2.038   6.009   5.126 -1.0314  1.4487 -0.6079
 8667SOL    MW434436   2.028   5.974   5.048  0.3193  0.6800  0.4697
 8668SOL     OW34437   3.023   4.773   5.396  0.0405  0.8578 -1.1894
 8668SOL    HW234438   3.016   4.678   5.386  0.0291  0.4907  1.5024
 8668SOL    HW334439   2.944   4.798   5.442  1.6253  1.5496  1.3719
 8668SOL    MW434440   3.012   4.764   5.401  0.8456 -0.7422  0.0268
 8669SOL     OW34441   5.055   0.863   5.075  0.1854  0.4129 -0.0349
 8669SOL    HW234442   5.096   0.943   5.042 -0.0975  0.0269 -1.4130
 8669SOL    HW334443   4.978   0.893   5.124  0.3024  0.9970 -0.2050
 8669SOL    MW434444   5.050   0.877   5.077 -0.3243  0.4771 -0.0248
 8670SOL     OW34445   4.330   1.328   2.900  0.7664  0.3281  0.5679
 8670SOL    HW234446   4.246   1.308   2.859  0.7825  1.2221  0.0779
 8670SOL    HW334447   4.351   1.249   2.951  0.9474 -0.9982 -1.4501
 8670SOL    MW434448   4.322   1.315   2.902 -0.3578 -0.0980  0.0452
 8671SOL     OW34449   0.409   1.706   1.168  0.0428  0.0159  0.3592
 8671SOL    HW234450   0.398   1.653   1.247 -1.6253  0.0504  0.1717
 8671SOL    HW334451   0.336   1.768   1.170  0.9752  1.1822 -0.3255
 8671SOL    MW434452   0.398   1.707   1.179  0.2629  0.5372 -0.3425
 8672SOL     OW34453   2.061   3.126   4.349 -0.8784  0.1212 -0.2581
 8672SOL    HW234454   2.003   3.086   4.413 -0.8656  0.8194  0.2079
 8672SOL    HW334455   2.140   3.149   4.398 -0.1539 -0.9082 -0.9072
 8672SOL    MW434456   2.064   3.124   4.364  0.1027  0.4301  0.7249
 8673SOL     OW34457   5.106   5.000   0.807 -0.3032 -0.5360 -0.4686
 8673SOL    HW234458   5.146   5.054   0.738  0.4632  0.1019  0.4420
 8673SOL    HW334459   5.060   5.063   0.863  1.0791 -0.7137  0.9368
 8673SOL    MW434460   5.105   5.015   0.805  0.1299 -0.2016 -0.0076
 8674SOL     OW34461   2.008   4.125   1.057  0.3192 -0.7574  0.1622
 8674SOL    HW234462   2.020   4.142   1.151  2.8594 -0.9203 -0.0634
 8674SOL    HW334463   2.061   4.191   1.014 -1.0168 -0.5304 -1.2163
 8674SOL    MW434464   2.017   4.136   1.064  0.5034 -0.1013 -0.0627
 8675SOL     OW34465   4.814   5.139   0.783 -0.8476  0.2327 -0.2073
 8675SOL    HW234466   4.885   5.163   0.723  0.2970 -0.7940  0.6801
 8675SOL    HW334467   4.799   5.218   0.835  0.2743  0.2144  0.1794
 8675SOL    MW434468   4.821   5.153   0.782  0.4735  0.0086  0.3452
 8676SOL     OW34469   3.526   3.908   1.756 -0.2509 -0.0425  0.2856
 8676SOL    HW234470   3.438   3.877   1.732  0.3060 -1.5116  0.0390
 8676SOL    HW334471   3.548   3.858   1.835  0.6592 -0.2570 -0.0932
 8676SOL    MW434472   3.517   3.897   1.763 -0.5465  0.4011  0.1374
 8677SOL     OW34473   0.859   6.330   0.657 -0.4829 -0.7078 -0.3723
 8677SOL    HW234474   0.896   6.322   0.745 -0.4459  2.1319 -0.0284
 8677SOL    HW334475   0.935   6.322   0.599 -0.2272 -0.8676 -0.0207
 8677SOL    MW434476   0.874   6.328   0.661  0.1634  0.4294 -0.1618
 8678SOL     OW34477   1.219   0.060   0.856  0.2880 -0.0873 -0.2417
 8678SOL    HW234478   1.281   0.074   0.785  0.0138 -0.5278 -0.5705
 8678SOL    HW334479   1.191   0.149   0.882  1.5302  0.1515  0.3450
 8678SOL    MW434480   1.223   0.074   0.850 -0.0571  0.2323  0.3688
 8679SOL     OW34481   5.003   4.671   3.249  0.1057  0.3049 -0.2925
 8679SOL    HW234482   5.031   4.648   3.160 -2.8490 -0.3664 -1.1377
 8679SOL    HW334483   4.966   4.758   3.241 -1.1902 -0.2022  0.0297
 8679SOL    MW434484   5.002   4.679   3.236 -0.0506  0.5147  0.5648
 8680SOL     OW34485   3.607   5.395   5.078  0.6648  0.0220  0.2002
 8680SOL    HW234486   3.642   5.447   5.005  0.4364  2.0599  1.4685
 8680SOL    HW334487   3.515   5.419   5.083  0.7751  0.2600  1.4130
 8680SOL    MW434488   3.600   5.405   5.069  0.2244 -0.3517 -0.3916
 8681SOL     OW34489   0.995   1.927   1.357  0.2072 -0.0873 -0.1320
 8681SOL    HW234490   0.924   1.874   1.321 -0.4276 -0.0008  0.9528
 8681SOL    HW334491   0.993   1.909   1.451 -1.2860  3.2652  0.6195
 8681SOL    MW434492   0.985   1.918   1.365 -0.0671  0.0262  0.3718
 8682SOL     OW34493   6.271   1.261   1.794 -0.1516 -0.1564 -0.1557
 8682SOL    HW234494   6.329   1.188   1.813 -1.8379 -1.1573  1.6199
 8682SOL    HW334495   6.185   1.232   1.827 -1.1781  2.0763 -0.6674
 8682SOL    MW434496   6.267   1.247   1.801  0.8969 -0.0170  0.1825
 8683SOL     OW34497   0.444   1.118   3.626 -0.6113 -0.2218 -0.2026
 8683SOL    HW234498   0.525   1.071   3.606 -0.3541  0.3339 -0.4831
 8683SOL    HW334499   0.382   1.049   3.650 -0.0688 -0.6536 -0.0224
 8683SOL    MW434500   0.447   1.103   3.626 -0.3188 -0.1940 -0.1287
 8684SOL     OW34501   5.870   2.173   0.261 -0.2515 -0.3251 -0.1121
 8684SOL    HW234502   5.920   2.201   0.185 -3.2811  0.0787 -2.1200
 8684SOL    HW334503   5.853   2.080   0.245  0.3261 -0.6195  0.8799
 8684SOL    MW434504   5.875   2.164   0.249 -0.1195 -0.1284  0.5373
 8685SOL     OW34505   3.866   4.944   4.226  0.5482  0.3216  0.2333
 8685SOL    HW234506   3.773   4.925   4.241  0.1655  2.0999  0.2435
 8685SOL    HW334507   3.905   4.858   4.211 -1.0067 -0.5086  0.7043
 8685SOL    MW434508   3.859   4.930   4.226 -0.0899 -0.1539  0.0306
 8686SOL     OW34509   4.402   0.365   2.851 -0.2112  0.4152 -0.1574
 8686SOL    HW234510   4.405   0.442   2.793 -0.5444  0.5219 -0.0378
 8686SOL    HW334511   4.377   0.293   2.793  2.2512 -0.0806 -0.7418
 8686SOL    MW434512   4.399   0.366   2.836 -0.7843 -0.2080  0.1207
 8687SOL     OW34513   3.063   0.277   5.396 -0.3512  0.1579  0.5733
 8687SOL    HW234514   2.973   0.268   5.426  0.0766 -2.3137  1.3557
 8687SOL    HW334515   3.070   0.218   5.321  0.4469  0.8879  0.0429
 8687SOL    MW434516   3.052   0.268   5.390 -0.5821 -0.3912 -0.5695
 8688SOL     OW34517   1.125   4.271   5.919  0.0803  0.6115  0.1351
 8688SOL    HW234518   1.042   4.309   5.892 -0.3750 -0.7382 -0.4290
 8688SOL    HW334519   1.124   4.277   6.015 -0.9691  0.0226  0.1737
 8688SOL    MW434520   1.114   4.277   5.928 -1.0041 -0.2432  0.5604
 8689SOL     OW34521   4.695   3.979   4.072  0.1196  0.2231 -0.1966
 8689SOL    HW234522   4.627   3.931   4.024  0.5787 -0.7692  0.1163
 8689SOL    HW334523   4.711   4.057   4.019  0.9009 -1.0274 -1.9028
 8689SOL    MW434524   4.688   3.983   4.059 -0.0271  0.4141  0.5676
 8690SOL     OW34525   4.945   0.249   4.731 -0.2459  0.1372 -0.1173
 8690SOL    HW234526   4.872   0.190   4.714  0.2757  0.3183 -3.7791
 8690SOL    HW334527   5.001   0.201   4.792 -2.2902 -0.9276  1.0020
 8690SOL    MW434528   4.943   0.235   4.737 -0.3345 -0.1235 -0.2177
 8691SOL     OW34529   2.572   5.162   5.318  0.0018 -0.2122  0.1154
 8691SOL    HW234530   2.538   5.200   5.399  0.5941 -0.3258  0.4214
 8691SOL    HW334531   2.496   5.124   5.275 -0.5700  1.0994 -0.0757
 8691SOL    MW434532   2.558   5.162   5.323 -0.5944  0.7590  0.1621
 8692SOL     OW34533   0.802   3.307   2.137 -0.1860  0.2821  0.1446
 8692SOL    HW234534   0.889   3.328   2.102 -0.4265 -0.3181 -0.8516
 8692SOL    HW334535   0.793   3.212   2.124 -0.0154 -0.1281  2.5170
 8692SOL    MW434536   0.812   3.297   2.131 -0.4279  0.0612 -0.3353
 8693SOL     OW34537   3.325   2.933   3.017 -0.1687 -0.3129  0.2348
 8693SOL    HW234538   3.416   2.919   2.990 -0.9912 -1.7451 -2.1817
 8693SOL    HW334539   3.276   2.934   2.935 -2.5007 -0.9069  1.5289
 8693SOL    MW434540   3.331   2.931   3.003 -0.0147 -0.0992  0.3389
 8694SOL     OW34541   3.647   3.263   6.168 -0.5880  0.1712  0.4906
 8694SOL    HW234542   3.593   3.236   6.243 -0.8574  0.4086  0.3836
 8694SOL    HW334543   3.722   3.307   6.207  0.8400 -2.3418  0.7807
 8694SOL    MW434544   3.650   3.265   6.183 -0.0704  0.2250 -0.5465
 8695SOL     OW34545   2.049   1.588   4.781  0.3724 -0.0032  0.0659
 8695SOL    HW234546   2.033   1.524   4.712 -1.2348 -2.6305  2.6592
 8695SOL    HW334547   2.132   1.562   4.821  0.4927  0.5163  0.1697
 8695SOL    MW434548   2.058   1.576   4.777  0.3581 -0.3532 -0.1318
 8696SOL     OW34549   4.553   2.748   1.720  0.3631 -0.1496 -0.1655
 8696SOL    HW234550   4.553   2.664   1.673  1.5515  0.7871 -1.9787
 8696SOL    HW334551   4.470   2.750   1.767 -1.3470 -0.8218 -2.9452
 8696SOL    MW434552   4.542   2.737   1.720 -0.0640 -0.1654 -0.3911
 8697SOL     OW34553   5.483   1.510   4.635 -0.0983  0.0885 -0.1002
 8697SOL    HW234554   5.567   1.515   4.590 -0.2697  0.5521 -0.3771
 8697SOL    HW334555   5.504   1.472   4.721  0.2801 -0.4884 -0.4354
 8697SOL    MW434556   5.497   1.505   4.641  0.2015  0.4290  0.2418
 8698SOL     OW34557   4.687   0.531   3.880 -0.4079 -0.5922  0.5398
 8698SOL    HW234558   4.774   0.567   3.899 -0.2485 -0.2869 -0.6608
 8698SOL    HW334559   4.703   0.441   3.854 -0.4193 -0.4634  0.0801
 8698SOL    MW434560   4.701   0.524   3.879 -0.1588 -0.7010  0.3325
 8699SOL     OW34561   1.540   2.811   5.116 -0.0475 -0.2434 -0.6313
 8699SOL    HW234562   1.513   2.888   5.065  0.0101  0.2584  0.0790
 8699SOL    HW334563   1.503   2.737   5.068 -3.2577  0.4214  0.5684
 8699SOL    MW434564   1.531   2.811   5.103 -0.3025  0.2251 -0.1972
 8700SOL     OW34565   2.591   5.867   0.145  1.0718 -0.1268 -0.0370
 8700SOL    HW234566   2.644   5.790   0.162  0.4000 -0.5496  0.1972
 8700SOL    HW334567   2.583   5.910   0.231  2.0374  0.6046 -0.2958
 8700SOL    MW434568   2.597   5.863   0.159  0.2666  0.9931  0.3381
 8701SOL     OW34569   4.985   1.238   2.924 -0.3682 -0.5608 -0.1272
 8701SOL    HW234570   5.061   1.238   2.866  0.3679 -0.3124  0.7995
 8701SOL    HW334571   4.914   1.276   2.872 -0.0402 -1.3912 -1.2156
 8701SOL    MW434572   4.986   1.243   2.910 -0.3725  0.1150  1.1259
 8702SOL     OW34573   1.018   2.757   4.035 -0.0923  0.4085 -0.1931
 8702SOL    HW234574   0.954   2.807   3.985 -0.1783  1.0123  0.4916
 8702SOL    HW334575   1.103   2.793   4.010 -0.1173  0.5332 -0.0982
 8702SOL    MW434576   1.021   2.768   4.025  0.0318 -0.8503 -0.5819
 8703SOL     OW34577   2.834   5.277   2.084  0.0984  0.3674  0.1610
 8703SOL    HW234578   2.902   5.323   2.134 -0.2028  0.8004  0.1768
 8703SOL    HW334579   2.758   5.336   2.087  0.2082  0.6094 -1.1739
 8703SOL    MW434580   2.833   5.291   2.091 -0.8809 -0.6313  0.6456
 8704SOL     OW34581   1.222   0.979   1.108  0.0781 -0.6196 -0.0105
 8704SOL    HW234582   1.301   0.928   1.092 -0.1104 -0.4831 -1.5073
 8704SOL    HW334583   1.166   0.920   1.159  1.1003 -0.7348  1.0145
 8704SOL    MW434584   1.225   0.964   1.113 -0.1148  0.2706  0.1993
 8705SOL     OW34585   5.675   5.448   4.162  0.2857 -0.0250 -0.2547
 8705SOL    HW234586   5.740   5.452   4.232  0.7359 -1.5522 -0.5368
 8705SOL    HW334587   5.615   5.378   4.189 -1.0300  1.0604 -0.2073
 8705SOL    MW434588   5.675   5.439   4.175 -0.7369 -0.1910  0.7487
 8706SOL     OW34589   4.607   2.787   0.172 -0.1203  0.1147  0.3113
 8706SOL    HW234590   4.549   2.812   0.101  0.5349  2.1903  0.4280
 8706SOL    HW334591   4.656   2.712   0.139 -0.4377  0.5028 -1.0836
 8706SOL    MW434592   4.606   2.781   0.159 -0.2155  0.0598  0.1557
 8707SOL     OW34593   5.382   3.335   3.778  0.0969  0.3865 -0.1412
 8707SOL    HW234594   5.338   3.312   3.696 -0.1067  2.0863 -0.5604
 8707SOL    HW334595   5.461   3.380   3.750 -0.5082  1.9582  0.5502
 8707SOL    MW434596   5.386   3.338   3.763  1.0054 -0.7561  0.3494
 8708SOL     OW34597   3.595   2.685   4.235 -0.1145  0.1576  0.1319
 8708SOL    HW234598   3.566   2.638   4.157  0.6203  0.1808 -0.1718
 8708SOL    HW334599   3.548   2.769   4.231  0.6347  0.5613 -0.8280
 8708SOL    MW434600   3.585   2.690   4.224  0.0091  0.5451  0.7745
 8709SOL     OW34601   4.082   3.867   4.358  0.0464 -0.1546 -0.9377
 8709SOL    HW234602   4.077   3.890   4.451  0.9522  1.1297 -1.1826
 8709SOL    HW334603   4.160   3.812   4.350 -0.9221 -1.6307 -0.7101
 8709SOL    MW434604   4.091   3.863   4.369  0.2971 -0.1364  0.0964
 8710SOL     OW34605   4.893   4.657   2.807  0.4969  0.1270 -0.1420
 8710SOL    HW234606   4.847   4.665   2.723  0.1505 -0.2151  0.0156
 8710SOL    HW334607   4.842   4.594   2.857  0.4071  0.7313  0.5377
 8710SOL    MW434608   4.880   4.650   2.802 -0.1595  0.1251 -0.0248
 8711SOL     OW34609   6.223   0.526   4.055 -0.7106  0.1192 -1.0679
 8711SOL    HW234610   6.167   0.595   4.091 -0.3543  0.2085 -0.6717
 8711SOL    HW334611   6.235   0.465   4.128 -0.5340 -0.0498 -1.2365
 8711SOL    MW434612   6.217   0.527   4.070 -0.3520  0.0475 -1.0687
 8712SOL     OW34613   1.915   6.084   5.323  0.6363 -0.5763  0.2284
 8712SOL    HW234614   1.976   6.158   5.321 -0.2744  0.1870 -0.9942
 8712SOL    HW334615   1.828   6.125   5.322  0.0997 -1.6621  0.5284
 8712SOL    MW434616   1.912   6.099   5.323  0.1448 -0.1405  0.9508
 8713SOL     OW34617   2.584   0.441   4.659 -0.4402  0.4006 -0.5031
 8713SOL    HW234618   2.552   0.387   4.586 -1.1771  0.9687 -0.6176
 8713SOL    HW334619   2.673   0.466   4.635  0.7093 -2.3557  0.4339
 8713SOL    MW434620   2.591   0.437   4.647 -0.2603  0.5395 -0.0733
 8714SOL     OW34621   1.852   0.411   4.213 -0.0766 -0.0992  0.0840
 8714SOL    HW234622   1.914   0.424   4.141 -0.9524  0.6209 -0.5654
 8714SOL    HW334623   1.788   0.350   4.178 -0.1745 -0.2213  0.4719
 8714SOL    MW434624   1.852   0.405   4.199  0.6032 -0.2199 -0.3028
 8715SOL     OW34625   3.769   3.694   0.743  0.3737 -0.6077  0.0506
 8715SOL    HW234626   3.682   3.725   0.769  0.5990  0.7635 -0.7508
 8715SOL    HW334627   3.807   3.659   0.824 -0.4778 -0.1540  0.6630
 8715SOL    MW434628   3.763   3.693   0.757 -0.2529 -0.3559 -0.5174
 8716SOL     OW34629   3.418   0.775   4.074 -0.4841 -0.6237 -0.2702
 8716SOL    HW234630   3.375   0.743   4.154 -2.3078 -0.4155 -1.1077
 8716SOL    HW334631   3.506   0.799   4.101 -0.9804 -0.8126  1.6164
 8716SOL    MW434632   3.424   0.774   4.088  0.1133  0.0585 -0.2599
 8717SOL     OW34633   1.477   5.159   6.114 -0.3272 -0.7332 -0.6701
 8717SOL    HW234634   1.551   5.201   6.158  0.1629 -1.5361 -0.7189
 8717SOL    HW334635   1.510   5.074   6.086 -1.6948 -1.7206  0.5871
 8717SOL    MW434636   1.491   5.154   6.116  0.2279  0.0474 -0.0913
 8718SOL     OW34637   0.854   2.523   6.069 -1.1085  0.2724 -0.4408
 8718SOL    HW234638   0.923   2.575   6.027 -1.3950  0.7501 -0.3314
 8718SOL    HW334639   0.878   2.521   6.161 -1.1382  0.2839 -0.4327
 8718SOL    MW434640   0.866   2.530   6.075 -0.1399  0.3289 -0.0929
 8719SOL     OW34641   3.342   0.413   0.145 -0.7552  0.0131 -0.8689
 8719SOL    HW234642   3.395   0.492   0.134 -2.0320  1.1264  0.4839
 8719SOL    HW334643   3.406   0.343   0.160  0.3773  1.0119 -0.8876
 8719SOL    MW434644   3.357   0.414   0.146  0.4125 -0.4763  0.5437
 8720SOL     OW34645   4.849   4.712   4.854  0.2155 -0.3440  0.4955
 8720SOL    HW234646   4.808   4.786   4.899  0.1399 -0.4923  0.6738
 8720SOL    HW334647   4.851   4.643   4.920 -2.8888 -1.6768 -0.6125
 8720SOL    MW434648   4.844   4.713   4.869  0.6470 -0.1811  0.1433
 8721SOL     OW34649   4.621   0.160   6.338  0.1002 -0.3409  0.1751
 8721SOL    HW234650   4.572   0.197   6.264 -1.0865 -2.1944 -0.0267
 8721SOL    HW334651   4.558   0.158   6.410  1.0159  0.6948  1.0403
 8721SOL    MW434652   4.606   0.165   6.338  0.5005 -0.1497 -0.0899
 8722SOL     OW34653   5.535   5.544   1.975 -0.4751  0.6956  0.2560
 8722SOL    HW234654   5.611   5.486   1.974  0.1507  1.3154  3.1394
 8722SOL    HW334655   5.541   5.594   1.893  1.5725 -0.0591 -0.0984
 8722SOL    MW434656   5.546   5.543   1.964 -0.0547  0.4648  0.0572
 8723SOL     OW34657   6.408   6.258   6.346  0.3087  0.0476  0.3781
 8723SOL    HW234658   6.348   6.333   6.344 -0.2215 -0.3555  1.0202
 8723SOL    HW334659   6.491   6.293   6.312 -0.2665  0.6213 -0.4833
 8723SOL    MW434660   6.411   6.273   6.341  0.4124 -0.5350  0.2753
 8724SOL     OW34661   0.282   2.269   1.305 -0.2262 -0.6541 -0.0503
 8724SOL    HW234662   0.312   2.195   1.358 -2.6169 -1.8629 -0.2522
 8724SOL    HW334663   0.229   2.229   1.236 -0.0945  1.1440 -1.2497
 8724SOL    MW434664   0.279   2.254   1.303  0.0990  0.1617  0.1672
 8725SOL     OW34665   6.333   3.848   4.218  0.1801 -0.1875 -0.3248
 8725SOL    HW234666   6.395   3.775   4.211  0.1905 -0.3817  1.3960
 8725SOL    HW334667   6.274   3.822   4.288  0.7586  1.8498  1.0095
 8725SOL    MW434668   6.334   3.835   4.226 -0.3027 -0.5454  0.0438
 8726SOL     OW34669   5.872   5.155   1.821 -0.1776 -0.0413  0.3014
 8726SOL    HW234670   5.892   5.170   1.914  0.9564 -0.1299  0.0792
 8726SOL    HW334671   5.879   5.242   1.781  1.3893 -0.3073 -0.0632
 8726SOL    MW434672   5.876   5.169   1.828  0.2162 -0.3140 -0.0512
 8727SOL     OW34673   3.434   2.034   2.884 -0.1137 -0.5852  0.1562
 8727SOL    HW234674   3.452   1.942   2.903  0.0247 -0.4478  0.7198
 8727SOL    HW334675   3.359   2.056   2.940  0.3771 -0.1380  0.6565
 8727SOL    MW434676   3.427   2.025   2.894 -0.2838  0.3806  0.2103
 8728SOL     OW34677   4.494   2.429   2.930 -0.1159 -0.4354  0.1057
 8728SOL    HW234678   4.522   2.410   2.841  0.7040  0.0560  0.2451
 8728SOL    HW334679   4.399   2.419   2.929 -0.0436 -1.0919 -0.6532
 8728SOL    MW434680   4.485   2.425   2.918  0.4914 -0.1338  0.2242
 8729SOL     OW34681   2.965   0.774   6.280 -0.3915 -0.2824 -0.0939
 8729SOL    HW234682   2.982   0.691   6.325  0.1774  0.2387  0.6922
 8729SOL    HW334683   2.880   0.803   6.315  0.6615  0.7952  1.7886
 8729SOL    MW434684   2.956   0.767   6.291  0.0900 -0.2724 -0.3110
 8730SOL     OW34685   4.948   2.068   5.332 -0.5099 -0.0017  0.8242
 8730SOL    HW234686   5.023   2.017   5.363 -0.5534  0.2230  1.2972
 8730SOL    HW334687   4.972   2.093   5.242  0.4810  1.0189  1.3490
 8730SOL    MW434688   4.961   2.065   5.324  0.4591  0.0916 -0.4640
 8731SOL     OW34689   2.082   3.240   5.005 -0.1054  0.5589 -0.0058
 8731SOL    HW234690   2.050   3.199   4.925  2.5705  0.6033 -1.2028
 8731SOL    HW334691   2.097   3.331   4.980  1.0582  0.5017  0.4426
 8731SOL    MW434692   2.079   3.247   4.991  0.3185  0.2718 -0.7118
 8732SOL     OW34693   1.222   1.388   1.178 -0.5012  0.0650  0.3382
 8732SOL    HW234694   1.308   1.372   1.139 -1.0935  1.8064 -1.9168
 8732SOL    HW334695   1.232   1.468   1.228 -0.3499 -0.8722  1.8768
 8732SOL    MW434696   1.235   1.396   1.179 -0.2680 -0.7130  0.2718
 8733SOL     OW34697   4.392   3.981   6.159 -0.2391  0.0853 -0.0655
 8733SOL    HW234698   4.402   4.076   6.156 -1.0505  0.2001  0.4050
 8733SOL    HW334699   4.321   3.967   6.222 -0.2095 -0.8250 -0.2232
 8733SOL    MW434700   4.384   3.991   6.167  0.1862  0.8117  0.2482
 8734SOL     OW34701   4.982   0.694   5.722  0.1156 -0.2194 -0.1783
 8734SOL    HW234702   4.965   0.693   5.816 -2.2940 -2.2759 -0.5365
 8734SOL    HW334703   4.924   0.763   5.687  0.3817 -0.0386 -0.2701
 8734SOL    MW434704   4.972   0.703   5.730  0.1974  0.2910 -0.4056
 8735SOL     OW34705   0.106   4.157   0.493  0.1552  0.5891 -0.5077
 8735SOL    HW234706   0.058   4.166   0.576 -0.4320  0.2618 -0.8077
 8735SOL    HW334707   0.198   4.161   0.519  0.0002  2.7935 -0.0965
 8735SOL    MW434708   0.112   4.159   0.508  0.3394  0.1727  0.7260
 8736SOL     OW34709   4.192   5.779   1.727  0.3174 -0.1873  0.4908
 8736SOL    HW234710   4.221   5.694   1.759  0.8902 -0.0753  0.2907
 8736SOL    HW334711   4.260   5.806   1.666 -0.4350 -0.0992 -0.3212
 8736SOL    MW434712   4.205   5.771   1.723 -0.7874 -0.3840 -0.3531
 8737SOL     OW34713   3.739   0.220   5.259 -0.3169 -0.0284 -0.5884
 8737SOL    HW234714   3.658   0.269   5.268 -0.4457 -0.5407  1.4513
 8737SOL    HW334715   3.786   0.237   5.341 -0.0639 -2.7118 -0.1067
 8737SOL    MW434716   3.735   0.229   5.271  0.0299 -0.1515 -0.4656
 8738SOL     OW34717   5.782   5.139   6.244  0.1396  0.0727  1.0874
 8738SOL    HW234718   5.874   5.150   6.267  0.2601 -0.1145  0.7108
 8738SOL    HW334719   5.753   5.226   6.215 -0.3301  0.5915  3.0098
 8738SOL    MW434720   5.790   5.152   6.243 -0.4124 -0.0220 -0.8501
 8739SOL     OW34721   0.371   5.071   4.747 -0.3888 -0.2696 -0.1082
 8739SOL    HW234722   0.466   5.059   4.743 -0.3496  0.0078 -0.0486
 8739SOL    HW334723   0.359   5.143   4.808 -0.6005  0.1490 -0.6377
 8739SOL    MW434724   0.382   5.079   4.754 -0.0310 -0.1275 -0.3236
 8740SOL     OW34725   3.783   2.052   6.337  0.2694 -0.0543 -0.2275
 8740SOL    HW234726   3.697   2.010   6.339  0.9259 -1.4323  0.0038
 8740SOL    HW334727   3.771   2.134   6.385 -1.1280  0.2283 -0.9886
 8740SOL    MW434728   3.770   2.057   6.344 -0.5088  0.1868 -0.2879
 8741SOL     OW34729   5.530   2.758   2.100 -0.2165  0.1080  0.2749
 8741SOL    HW234730   5.505   2.846   2.071 -0.6739  0.4235  1.5519
 8741SOL    HW334731   5.607   2.773   2.155  0.2436 -0.3929 -0.2366
 8741SOL    MW434732   5.537   2.772   2.104 -0.3228  0.7853 -0.0526
 8742SOL     OW34733   1.722   6.243   4.178 -0.4037  0.1629 -0.3788
 8742SOL    HW234734   1.630   6.261   4.197 -0.5321 -1.6696  1.0407
 8742SOL    HW334735   1.736   6.153   4.210  1.5426 -0.0988 -1.7859
 8742SOL    MW434736   1.712   6.233   4.185 -0.0967  0.1470  0.2316
 8743SOL     OW34737   6.199   2.001   4.340  0.0128 -0.3752  0.0432
 8743SOL    HW234738   6.227   2.074   4.284 -0.4297 -1.1120 -1.1858
 8743SOL    HW334739   6.278   1.972   4.384  0.3271  0.3846 -0.0179
 8743SOL    MW434740   6.213   2.007   4.338 -0.0182 -0.8803 -0.3934
 8744SOL     OW34741   2.800   1.481   0.958  0.3392 -0.3021 -0.2256
 8744SOL    HW234742   2.704   1.484   0.962  0.1564 -0.4869 -2.7501
 8744SOL    HW334743   2.828   1.474   1.049 -1.9716  1.2657  0.6947
 8744SOL    MW434744   2.791   1.480   0.970 -0.1002  0.3807 -0.4068
 8745SOL     OW34745   2.035   6.019   1.564 -0.2057 -0.4034  0.1352
 8745SOL    HW234746   1.940   6.012   1.574 -0.3885  1.9003  0.5331
 8745SOL    HW334747   2.066   6.048   1.649  0.6266  0.4926 -0.4528
 8745SOL    MW434748   2.027   6.022   1.576 -0.5059 -0.2606  0.1958
 8746SOL     OW34749   3.624   1.450   1.865  0.8548  0.7650  0.2207
 8746SOL    HW234750   3.569   1.389   1.913  0.4649 -0.5805 -1.7964
 8746SOL    HW334751   3.564   1.514   1.827  0.8791  0.4567 -0.3545
 8746SOL    MW434752   3.609   1.450   1.866  0.0207  0.0489 -0.2447
 8747SOL     OW34753   1.711   0.661   4.222 -0.0630 -0.4203  0.0837
 8747SOL    HW234754   1.774   0.589   4.228  2.2043  1.4989  1.2448
 8747SOL    HW334755   1.716   0.704   4.308 -2.8780 -0.0364  0.1456
 8747SOL    MW434756   1.720   0.657   4.234 -0.0339  0.1481 -0.0881
 8748SOL     OW34757   1.714   0.895   5.312  0.4122  0.3938  0.3079
 8748SOL    HW234758   1.754   0.871   5.395  1.1655 -1.9008 -0.6543
 8748SOL    HW334759   1.770   0.964   5.277  1.4756 -0.2708  0.6486
 8748SOL    MW434760   1.727   0.901   5.318  0.0613  0.4977  0.0308
 8749SOL     OW34761   2.315   4.581   5.898 -0.1431  0.1352 -0.5386
 8749SOL    HW234762   2.268   4.659   5.868 -1.1511 -0.3191 -0.2063
 8749SOL    HW334763   2.297   4.515   5.831  1.6918  0.5013 -1.4357
 8749SOL    MW434764   2.306   4.582   5.885 -0.1201  0.1322 -0.1196
 8750SOL     OW34765   4.335   3.926   4.726 -0.4522 -0.1982 -0.2784
 8750SOL    HW234766   4.336   3.979   4.647 -0.6654 -0.9938 -0.8302
 8750SOL    HW334767   4.410   3.957   4.778  0.1666 -0.2056 -1.1529
 8750SOL    MW434768   4.345   3.937   4.723 -0.4659 -0.4069 -0.5904
 8751SOL     OW34769   5.019   2.138   0.690 -0.1205  0.1269 -0.5063
 8751SOL    HW234770   4.996   2.231   0.696 -1.0125 -0.0457 -1.0551
 8751SOL    HW334771   4.992   2.112   0.602 -0.1314 -0.7221 -0.2629
 8751SOL    MW434772   5.012   2.147   0.679 -0.0351 -0.2553 -0.7085
 8752SOL     OW34773   1.336   0.964   1.555 -0.1419 -0.0180 -0.3998
 8752SOL    HW234774   1.266   0.898   1.551 -0.2628  0.0536  0.3526
 8752SOL    HW334775   1.327   1.013   1.473 -1.4513  0.4556  0.0042
 8752SOL    MW434776   1.325   0.962   1.543 -1.0790 -0.6652 -0.0840
 8753SOL     OW34777   0.687   4.273   4.358 -0.1628 -0.7296  0.6144
 8753SOL    HW234778   0.676   4.313   4.272 -0.1665  0.0540  0.9690
 8753SOL    HW334779   0.720   4.185   4.340 -0.9126 -0.8581 -0.2138
 8753SOL    MW434780   0.690   4.267   4.344  0.2315  0.6042 -0.3537
 8754SOL     OW34781   5.330   4.574   4.866  0.3030 -0.1170 -0.1276
 8754SOL    HW234782   5.425   4.578   4.874  0.1716  0.1580  1.9093
 8754SOL    HW334783   5.304   4.510   4.933 -1.0787  1.4898  0.9386
 8754SOL    MW434784   5.339   4.566   4.876 -0.3572  0.3984 -0.3985
 8755SOL     OW34785   1.839   0.903   1.143 -1.1476 -0.0753  0.1629
 8755SOL    HW234786   1.868   0.870   1.058  0.5088  1.3139  0.1344
 8755SOL    HW334787   1.795   0.986   1.123  1.0735  1.3466  0.7239
 8755SOL    MW434788   1.837   0.910   1.129  0.7015  0.1328  0.0126
 8756SOL     OW34789   2.196   0.404   0.559 -0.4419 -0.1218  0.1378
 8756SOL    HW234790   2.119   0.373   0.607  0.7999 -1.8920  1.1017
 8756SOL    HW334791   2.232   0.325   0.518  0.9186  0.6530 -0.2081
 8756SOL    MW434792   2.190   0.390   0.560  0.6735 -0.0262 -0.1006
 8757SOL     OW34793   5.891   4.161   0.866  0.1884 -0.7845 -0.6341
 8757SOL    HW234794   5.942   4.080   0.870 -1.6090 -1.9061  0.9380
 8757SOL    HW334795   5.943   4.219   0.810  2.4569 -2.3383 -0.2597
 8757SOL    MW434796   5.905   4.158   0.859 -0.5675 -0.5950  0.1633
 8758SOL     OW34797   2.038   5.912   0.882  0.1856  0.0765 -0.3400
 8758SOL    HW234798   2.005   5.948   0.800 -0.4891  0.8265  0.2431
 8758SOL    HW334799   1.986   5.955   0.950  2.0992  0.9964  0.6015
 8758SOL    MW434800   2.027   5.922   0.880 -0.1505 -0.5408  0.4032
 8759SOL     OW34801   5.109   2.047   0.952 -0.9169 -0.0552  0.1459
 8759SOL    HW234802   5.102   2.110   0.880 -1.4101 -2.5082 -2.1040
 8759SOL    HW334803   5.030   2.061   1.004 -0.1556  2.3148  0.8266
 8759SOL    MW434804   5.098   2.057   0.950  0.6378  0.3637 -0.2552
 8760SOL     OW34805   3.717   3.037   3.459 -0.8224  0.3317  0.1389
 8760SOL    HW234806   3.803   3.072   3.438 -0.9477  0.2425 -0.5541
 8760SOL    HW334807   3.656   3.105   3.430 -0.9753  0.5018  0.8535
 8760SOL    MW434808   3.720   3.051   3.452  0.8445  0.1792 -0.0133
 8761SOL     OW34809   0.854   1.876   3.457 -0.3932 -0.0798 -0.2997
 8761SOL    HW234810   0.864   1.902   3.365 -2.5683  1.8633 -0.0593
 8761SOL    HW334811   0.903   1.793   3.463  0.6628  0.2336 -2.9303
 8761SOL    MW434812   0.862   1.868   3.445  0.1103 -0.5533  0.1569
 8762SOL     OW34813   5.432   2.908   1.429  0.4274  0.7097 -0.1032
 8762SOL    HW234814   5.383   2.902   1.511  0.6950  1.2140  0.0931
 8762SOL    HW334815   5.499   2.840   1.436  0.5687  0.8766  0.1771
 8762SOL    MW434816   5.434   2.898   1.441 -0.1641 -0.4910 -0.2383
 8763SOL     OW34817   5.289   3.513   0.231  0.5693 -0.0291  0.2409
 8763SOL    HW234818   5.235   3.513   0.153 -1.6812  0.1577  1.7246
 8763SOL    HW334819   5.376   3.541   0.200  0.3127 -1.8820 -2.4775
 8763SOL    MW434820   5.294   3.517   0.217 -0.6082 -0.0860  0.5027
 8764SOL     OW34821   3.116   0.256   1.663  0.2475 -0.3473  0.2616
 8764SOL    HW234822   3.106   0.310   1.741  1.2015  0.8758 -0.4149
 8764SOL    HW334823   3.211   0.247   1.652  0.1600  0.1887 -1.1780
 8764SOL    MW434824   3.128   0.262   1.672  1.2901 -0.2196  0.0210
 8765SOL     OW34825   0.661   2.254   2.431 -0.4040 -0.5489  0.3059
 8765SOL    HW234826   0.754   2.234   2.421 -0.5771 -0.3811 -2.3583
 8765SOL    HW334827   0.657   2.349   2.439 -0.3548 -0.5443  0.2763
 8765SOL    MW434828   0.673   2.264   2.430 -0.1475  0.5382  0.3245
 8766SOL     OW34829   5.566   2.879   5.971 -0.0131 -0.4988  0.0805
 8766SOL    HW234830   5.585   2.961   6.016 -2.4132  1.8480 -2.7355
 8766SOL    HW334831   5.650   2.854   5.932  0.7968  0.5563  1.0576
 8766SOL    MW434832   5.580   2.887   5.972  0.4882 -0.2858  0.5008
 8767SOL     OW34833   3.264   2.143   5.421 -0.4891 -0.4017  0.0177
 8767SOL    HW234834   3.223   2.186   5.496  3.1291  1.7706  0.9616
 8767SOL    HW334835   3.277   2.213   5.357 -1.2524 -1.7343 -1.6769
 8767SOL    MW434836   3.260   2.158   5.423 -0.4136  0.2367 -0.0599
 8768SOL     OW34837   6.401   4.646   1.975  0.0601 -0.2598 -0.4298
 8768SOL    HW234838   6.496   4.647   1.988  0.1117  1.6244 -0.6444
 8768SOL    HW334839   6.387   4.586   1.903  1.0053 -1.1567  0.1038
 8768SOL    MW434840   6.411   4.638   1.967 -0.2538  0.0904 -0.1027
 8769SOL     OW34841   3.671   5.492   4.822  0.0222  0.5400 -0.2387
 8769SOL    HW234842   3.703   5.576   4.855 -1.5155  1.2012 -0.3183
 8769SOL    HW334843   3.600   5.516   4.762  1.0513 -0.7438 -2.0421
 8769SOL    MW434844   3.666   5.506   4.818 -0.6948  0.0497  0.7018
 8770SOL     OW34845   5.204   0.318   0.017 -0.0353  0.1366 -0.2249
 8770SOL    HW234846   5.159   0.369  -0.050 -1.7473 -0.3744  0.4901
 8770SOL    HW334847   5.144   0.246   0.037  0.1971  0.5357  2.1706
 8770SOL    MW434848   5.190   0.315   0.011  0.2998  0.1768 -0.2590
 8771SOL     OW34849   1.320   5.990   2.662  1.2414  0.2672  0.6275
 8771SOL    HW234850   1.230   6.020   2.667 -0.1188 -2.5700 -2.4715
 8771SOL    HW334851   1.365   6.057   2.609 -0.6913 -0.8831 -2.8033
 8771SOL    MW434852   1.314   6.003   2.656 -0.0061  0.2791  0.2410
 8772SOL     OW34853   2.903   1.895   4.879  0.6438 -0.5887  0.5960
 8772SOL    HW234854   2.961   1.873   4.806 -1.1162 -0.8447 -0.7936
 8772SOL    HW334855   2.815   1.880   4.845 -0.2387 -1.4561  3.0334
 8772SOL    MW434856   2.899   1.890   4.865  0.8775  0.0455  0.0212
 8773SOL     OW34857   0.627   6.366   4.374  0.7286 -0.3428  0.2165
 8773SOL    HW234858   0.665   6.310   4.306 -2.1236 -2.1062 -0.1117
 8773SOL    HW334859   0.567   6.423   4.327 -0.0457 -0.4438  1.0511
 8773SOL    MW434860   0.624   6.366   4.359  0.2127 -0.1845  0.2113
 8774SOL     OW34861   0.771   4.610   3.949  0.0294  0.0445 -0.0470
 8774SOL    HW234862   0.806   4.672   3.886 -1.5190  0.1988 -0.7996
 8774SOL    HW334863   0.744   4.664   4.024  0.3694  0.0528  0.0710
 8774SOL    MW434864   0.772   4.625   3.951 -0.2985  0.1937 -0.4915
 8775SOL     OW34865   5.337   6.420   0.357  0.1433  0.5423  0.2546
 8775SOL    HW234866   5.374   6.498   0.316  0.2863 -0.3045 -1.2913
 8775SOL    HW334867   5.242   6.434   0.354  0.1895  0.9312  0.5524
 8775SOL    MW434868   5.330   6.432   0.351 -0.8118  0.2898  0.3061
 8776SOL     OW34869   3.496   3.779   4.774 -0.2748  0.1771 -0.3599
 8776SOL    HW234870   3.418   3.775   4.829  0.0375 -0.7495  0.0454
 8776SOL    HW334871   3.531   3.867   4.787  0.2428 -0.2739  1.5882
 8776SOL    MW434872   3.490   3.790   4.783 -0.4035  0.3104  0.1480
 8777SOL     OW34873   0.155   3.736   5.707 -0.2916  0.0380 -0.1143
 8777SOL    HW234874   0.232   3.787   5.730 -0.4566  0.5049 -0.5917
 8777SOL    HW334875   0.182   3.683   5.633 -0.9947  1.7025 -1.6288
 8777SOL    MW434876   0.168   3.736   5.700 -0.3159 -0.0927  0.7544
 8778SOL     OW34877   2.644   3.744   0.000 -0.1373 -0.1879  0.3085
 8778SOL    HW234878   2.704   3.689  -0.051  0.1227  0.0589  0.3493
 8778SOL    HW334879   2.669   3.834  -0.022 -0.7669 -0.0785 -0.0031
 8778SOL    MW434880   2.655   3.749  -0.010 -0.6464  0.0860 -0.0845
 8779SOL     OW34881   2.417   4.402   5.399 -0.5992  0.1266 -0.0553
 8779SOL    HW234882   2.441   4.359   5.317  0.2176  0.5459 -0.0460
 8779SOL    HW334883   2.464   4.353   5.466 -0.6993  0.2271  0.0872
 8779SOL    MW434884   2.427   4.390   5.397 -0.0151  0.2566  0.2059
 8780SOL     OW34885   5.702   0.946   2.657  0.1858 -0.6397  0.0107
 8780SOL    HW234886   5.763   0.873   2.643  1.8901  0.7529 -0.1472
 8780SOL    HW334887   5.665   0.964   2.570  1.2895 -0.0457 -0.3513
 8780SOL    MW434888   5.705   0.939   2.643  0.1483  0.7796 -0.0430
 8781SOL     OW34889   0.854   0.721   0.850 -0.6928  0.1562  0.5855
 8781SOL    HW234890   0.800   0.752   0.923 -0.4343  0.6150  0.5841
 8781SOL    HW334891   0.794   0.718   0.775 -0.4810  1.8277  0.2893
 8781SOL    MW434892   0.839   0.725   0.850 -0.0516  0.0878 -0.2861
 8782SOL     OW34893   0.317   2.991   1.854 -0.1974  0.4274 -0.2307
 8782SOL    HW234894   0.399   2.947   1.873 -1.4032 -1.2783  1.4260
 8782SOL    HW334895   0.274   2.999   1.940 -1.5771  1.6466 -0.9848
 8782SOL    MW434896   0.322   2.987   1.868  0.6766 -0.6084 -0.6950
 8783SOL     OW34897   6.165   2.896   2.414 -0.5533  0.4632 -0.7070
 8783SOL    HW234898   6.180   2.881   2.508  0.8574 -1.8377 -1.2147
 8783SOL    HW334899   6.147   2.990   2.408 -2.0423  0.4640  2.0023
 8783SOL    MW434900   6.165   2.907   2.426 -0.1985 -0.1228  0.0244
 8784SOL     OW34901   0.374   0.622   4.295  0.3163 -0.2668 -0.2061
 8784SOL    HW234902   0.440   0.640   4.362 -0.7977 -0.0129  0.8775
 8784SOL    HW334903   0.421   0.627   4.212  1.6140  0.0299  0.5188
 8784SOL    MW434904   0.389   0.625   4.293 -0.1601 -0.5321 -0.4944
 8785SOL     OW34905   2.549   0.958   6.023  0.0529 -0.3160 -0.8808
 8785SOL    HW234906   2.588   1.029   5.972  0.1778  0.9733  0.9470
 8785SOL    HW334907   2.624   0.908   6.055  0.3101  1.5270  1.7171
 8785SOL    MW434908   2.564   0.961   6.020  0.9006  0.5766 -0.0245
 8786SOL     OW34909   6.379   3.169   4.913 -0.0152 -0.4813  0.0218
 8786SOL    HW234910   6.440   3.199   4.845 -0.3357  1.3973  0.5102
 8786SOL    HW334911   6.294   3.167   4.869 -0.0965 -0.0552  0.1628
 8786SOL    MW434912   6.376   3.173   4.898  0.4555 -0.0191 -0.4714
 8787SOL     OW34913   2.125   4.528   5.610  0.3019  0.0630 -0.1458
 8787SOL    HW234914   2.199   4.467   5.605  0.6216  0.3927  0.4555
 8787SOL    HW334915   2.073   4.495   5.683  1.0652  1.1266  0.9284
 8787SOL    MW434916   2.128   4.516   5.619 -0.0331  0.1879 -0.5778
 8788SOL     OW34917   5.820   5.041   5.529  0.3487  0.2804  0.1467
 8788SOL    HW234918   5.755   4.976   5.557 -0.1548  1.2939  1.4398
 8788SOL    HW334919   5.885   4.991   5.480  0.9359 -1.5239  2.6307
 8788SOL    MW434920   5.820   5.026   5.526 -0.3778 -0.5016 -0.2133
 8789SOL     OW34921   1.143   0.470   5.154 -0.5103  0.3931  0.5604
 8789SOL    HW234922   1.237   0.471   5.171  0.6241 -2.4100 -3.8173
 8789SOL    HW334923   1.125   0.557   5.116  1.3754 -0.2804 -2.1671
 8789SOL    MW434924   1.153   0.482   5.151  0.1180  0.2050 -0.0135
 8790SOL     OW34925   1.728   5.227   6.257 -0.1340  0.3212 -0.3317
 8790SOL    HW234926   1.794   5.163   6.283 -1.0143 -0.0026  1.2050
 8790SOL    HW334927   1.746   5.304   6.311 -0.1446  0.7495 -0.9294
 8790SOL    MW434928   1.739   5.228   6.267 -0.2163  0.1686 -0.0475
 8791SOL     OW34929   6.114   0.407   3.345  0.9791 -0.3104 -0.2832
 8791SOL    HW234930   6.031   0.359   3.350  0.9158 -0.1763 -0.0489
 8791SOL    HW334931   6.095   0.483   3.290  1.2632 -0.9263 -1.2706
 8791SOL    MW434932   6.101   0.410   3.338  0.0457  0.1867  0.4176
 8792SOL     OW34933   0.657   5.187   5.173 -0.3662  0.1551 -0.2148
 8792SOL    HW234934   0.677   5.254   5.107 -0.5890  0.5310  0.0918
 8792SOL    HW334935   0.709   5.111   5.147 -0.1606  0.4256 -0.6076
 8792SOL    MW434936   0.666   5.186   5.161 -0.2460  0.0237 -0.1442
 8793SOL     OW34937   1.983   4.853   3.759  0.2471 -0.0711 -0.0902
 8793SOL    HW234938   1.977   4.945   3.732 -3.4214 -0.0167  0.4412
 8793SOL    HW334939   2.067   4.847   3.804  0.3088  3.2119  0.4784
 8793SOL    MW434940   1.993   4.864   3.761  0.4980 -0.4306 -0.2438
 8794SOL     OW34941   1.254   4.739   3.618 -0.3915 -0.2049 -0.3108
 8794SOL    HW234942   1.340   4.768   3.589 -0.7166  2.1911  0.8548
 8794SOL    HW334943   1.245   4.775   3.706 -2.3028 -1.0043 -0.1222
 8794SOL    MW434944   1.264   4.748   3.626  0.2517  0.6186 -0.6981
 8795SOL     OW34945   6.365   5.156   5.630  0.2318 -0.2131  0.5099
 8795SOL    HW234946   6.396   5.121   5.714  0.7841 -1.6294 -0.2576
 8795SOL    HW334947   6.425   5.228   5.612  0.5035 -0.3017  1.0257
 8795SOL    MW434948   6.377   5.161   5.639  0.8388 -0.5748 -0.2808
 8796SOL     OW34949   1.308   1.899   5.064  0.1172  0.0982  0.5370
 8796SOL    HW234950   1.293   1.991   5.086 -0.7774  0.0031  0.3536
 8796SOL    HW334951   1.362   1.867   5.136 -0.7230  0.4218  1.3399
 8796SOL    MW434952   1.313   1.907   5.076 -0.4086 -0.3443  0.0813
 8797SOL     OW34953   0.429   4.978   2.022 -0.4854  0.1434 -0.2771
 8797SOL    HW234954   0.491   4.977   2.095  0.8058  0.6630 -1.3244
 8797SOL    HW334955   0.385   5.063   2.029 -1.2297 -0.3008  0.5739
 8797SOL    MW434956   0.432   4.989   2.033  0.3424 -0.3196 -0.0321
 8798SOL     OW34957   5.112   0.178   3.317 -0.4088  0.1288 -0.6935
 8798SOL    HW234958   5.018   0.177   3.339 -0.0950  0.4641  0.8269
 8798SOL    HW334959   5.147   0.251   3.368  0.8907 -0.7615 -0.2446
 8798SOL    MW434960   5.104   0.187   3.327 -0.2001 -0.5958 -0.1991
 8799SOL     OW34961   3.389   4.364   3.659  0.3599  0.3995  0.3227
 8799SOL    HW234962   3.354   4.296   3.601  0.6145 -0.2095  0.8794
 8799SOL    HW334963   3.484   4.355   3.652  0.4761  2.1087 -1.2598
 8799SOL    MW434964   3.397   4.354   3.650 -0.1139 -0.5336  0.1801
 8800SOL     OW34965   3.811   0.661   4.018 -0.3715  0.0988  0.5761
 8800SOL    HW234966   3.756   0.596   4.061  0.6068  0.4836  2.5465
 8800SOL    HW334967   3.784   0.745   4.056  0.2453  0.5114  0.1353
 8800SOL    MW434968   3.800   0.663   4.028  0.1548 -0.2316 -0.3919
 8801SOL     OW34969   0.378   1.022   0.994 -0.3068  0.4409  0.4194
 8801SOL    HW234970   0.336   0.992   0.913  2.0573  2.4491 -1.7378
 8801SOL    HW334971   0.364   0.950   1.056 -2.6245 -1.0064 -1.5705
 8801SOL    MW434972   0.371   1.008   0.991 -0.1590 -0.4082  0.2158
 8802SOL     OW34973   4.390   3.262   4.293 -0.1978 -0.2121  0.2276
 8802SOL    HW234974   4.478   3.238   4.264 -0.0940  1.4683 -0.9546
 8802SOL    HW334975   4.347   3.178   4.310  1.3782 -1.0854  0.1023
 8802SOL    MW434976   4.396   3.248   4.291  0.0450 -0.2180  0.3084
 8803SOL     OW34977   1.076   1.193   4.220  0.7200 -0.5550 -0.1125
 8803SOL    HW234978   1.084   1.258   4.290  2.2432 -1.1630  0.3145
 8803SOL    HW334979   0.992   1.150   4.237 -0.1667  1.0533 -0.2199
 8803SOL    MW434980   1.066   1.196   4.232  0.1495  0.1203  0.1527
 8804SOL     OW34981   4.683   4.686   3.347 -0.1069  0.0859  0.0020
 8804SOL    HW234982   4.698   4.594   3.371 -2.0405  0.0809  1.4960
 8804SOL    HW334983   4.664   4.683   3.253  2.5985 -0.6205 -0.5948
 8804SOL    MW434984   4.682   4.673   3.338  0.4186 -0.4272  0.1720
 8805SOL     OW34985   3.553   2.000   3.596 -0.3122  0.1170  0.0991
 8805SOL    HW234986   3.478   1.955   3.558  0.2182 -1.0399  0.3853
 8805SOL    HW334987   3.614   2.012   3.524  2.7913 -6.2033  0.9576
 8805SOL    MW434988   3.552   1.996   3.582 -0.5630 -0.2914 -0.2044
 8806SOL     OW34989   4.247   3.017   1.696  0.3920 -0.6446  0.1906
 8806SOL    HW234990   4.313   3.001   1.629  0.9981 -1.4836  0.9747
 8806SOL    HW334991   4.163   3.014   1.649  0.8601 -0.3187 -0.6769
 8806SOL    MW434992   4.244   3.015   1.681 -0.0194  0.0298  0.4501
 8807SOL     OW34993   4.477   6.373   3.957 -0.2314  0.4190  0.1971
 8807SOL    HW234994   4.433   6.296   3.994 -0.3788  0.7126  0.6444
 8807SOL    HW334995   4.570   6.352   3.962 -0.3108 -0.3816 -1.1329
 8807SOL    MW434996   4.483   6.360   3.962  0.3491  0.3223 -0.2333
 8808SOL     OW34997   2.234   5.157   1.342 -0.1556  0.2551  0.0236
 8808SOL    HW234998   2.313   5.208   1.325  1.0347 -0.4682  2.7805
 8808SOL    HW334999   2.266   5.069   1.360 -1.8050 -0.5295 -0.6734
 8808SOL    MW435000   2.249   5.152   1.342  0.1217 -0.2666  0.3448
 8809SOL     OW35001   6.114   3.017   2.876  0.3216  0.5082 -0.0376
 8809SOL    HW235002   6.060   3.061   2.810 -0.7394  0.6400  0.8847
 8809SOL    HW335003   6.201   3.054   2.864 -0.0531  1.1836 -0.7779
 8809SOL    MW435004   6.118   3.028   2.865  0.5156  0.1240 -0.8109
 8810SOL     OW35005   2.622   4.702   1.488 -0.0512 -0.2735  0.1642
 8810SOL    HW235006   2.590   4.761   1.420 -1.2987 -2.4713 -1.2841
 8810SOL    HW335007   2.552   4.701   1.554  0.0869  0.0216  0.3198
 8810SOL    MW435008   2.609   4.710   1.488 -0.5311  0.1784  0.2717
 8811SOL     OW35009   0.402   1.647   4.892  0.6362  0.0455 -0.3614
 8811SOL    HW235010   0.419   1.611   4.805  0.2387 -0.0371 -0.4071
 8811SOL    HW335011   0.481   1.627   4.942  0.7036 -0.2706 -0.5885
 8811SOL    MW435012   0.415   1.639   4.887  0.0909 -0.0446 -0.4088
 8812SOL     OW35013   3.194   3.459   3.573  0.5491  0.4605 -0.8501
 8812SOL    HW235014   3.204   3.503   3.657 -0.9242 -0.7503  0.0228
 8812SOL    HW335015   3.134   3.515   3.524 -2.0217 -0.8657  0.5835
 8812SOL    MW435016   3.187   3.472   3.577 -0.1187  0.5171  0.2993
 8813SOL     OW35017   2.396   2.844   5.473  0.0174 -0.4935  0.0758
 8813SOL    HW235018   2.449   2.923   5.486  0.0413 -0.3631 -0.7879
 8813SOL    HW335019   2.330   2.848   5.542 -0.6627  0.8473 -0.6160
 8813SOL    MW435020   2.395   2.855   5.484 -0.6842  0.4003  0.1954
 8814SOL     OW35021   2.994   5.810   1.130  0.2162  0.1700 -0.2129
 8814SOL    HW235022   2.979   5.874   1.199 -1.5479  0.6871 -1.0386
 8814SOL    HW335023   3.010   5.862   1.052  1.0054 -0.4216 -0.4619
 8814SOL    MW435024   2.994   5.825   1.129 -0.5546  0.1519  0.1572
 8815SOL     OW35025   0.359   5.769   4.309 -0.2575  0.0136 -0.5731
 8815SOL    HW235026   0.395   5.822   4.381 -1.1208 -1.0911  0.7213
 8815SOL    HW335027   0.275   5.811   4.289 -0.2062  0.0744 -0.6638
 8815SOL    MW435028   0.353   5.782   4.316 -0.1687  0.3106 -0.5469
 8816SOL     OW35029   5.466   0.592   2.922  0.2047 -0.0446  0.5564
 8816SOL    HW235030   5.394   0.615   2.864  1.3109  1.2488 -0.3679
 8816SOL    HW335031   5.424   0.549   2.997 -1.2757 -1.7386 -1.1258
 8816SOL    MW435032   5.451   0.589   2.924 -0.2454  0.2849  0.4813
 8817SOL     OW35033   4.396   1.578   1.441  0.0873 -0.0286 -0.2093
 8817SOL    HW235034   4.321   1.542   1.393  0.0755 -0.4673  0.1334
 8817SOL    HW335035   4.465   1.513   1.429  0.8234  0.9630 -1.5874
 8817SOL    MW435036   4.395   1.564   1.433  0.3551  0.2043 -0.1098
 8818SOL     OW35037   4.940   0.625   3.991  0.3522  0.5673 -0.3733
 8818SOL    HW235038   4.906   0.592   4.075  0.7116 -0.0285 -0.4555
 8818SOL    HW335039   4.914   0.717   3.990 -0.7170  0.2925 -0.1518
 8818SOL    MW435040   4.932   0.633   4.002  0.6175 -0.9564  0.1438
 8819SOL     OW35041   5.136   5.404   2.207  0.0348 -0.1581 -0.1202
 8819SOL    HW235042   5.125   5.309   2.198  1.8861 -0.2815 -1.7948
 8819SOL    HW335043   5.192   5.414   2.284 -0.4309 -0.3698  0.2577
 8819SOL    MW435044   5.142   5.392   2.216  0.2384  0.5500  0.1989
 8820SOL     OW35045   2.135   5.284   2.648  0.4665 -0.5010 -0.1905
 8820SOL    HW235046   2.082   5.288   2.568 -0.5885  0.1378  0.5180
 8820SOL    HW335047   2.082   5.233   2.709  1.0229 -0.5261  0.2759
 8820SOL    MW435048   2.121   5.278   2.645  0.3884  0.6203  0.0907
 8821SOL     OW35049   2.685   1.544   2.154 -0.2684 -0.5460 -0.2436
 8821SOL    HW235050   2.769   1.497   2.152 -0.4415 -0.9607  1.1604
 8821SOL    HW335051   2.620   1.478   2.131 -0.3945 -0.7467  0.6322
 8821SOL    MW435052   2.688   1.529   2.151  0.2816  0.0929  0.8232
 8822SOL     OW35053   2.375   6.048   1.985  0.3657  0.4381  0.0254
 8822SOL    HW235054   2.368   6.009   1.898 -0.3722  1.1777 -0.2697
 8822SOL    HW335055   2.423   6.130   1.970  0.2785  0.5440  0.3194
 8822SOL    MW435056   2.380   6.054   1.972 -0.3003  0.5992 -0.2513
 8823SOL     OW35057   2.001   4.799   2.105 -0.2293  0.6849 -0.1371
 8823SOL    HW235058   2.019   4.888   2.134 -1.3381  0.9063 -0.1022
 8823SOL    HW335059   1.907   4.787   2.120 -0.2747 -0.1634 -1.0192
 8823SOL    MW435060   1.991   4.809   2.111  0.2147  0.6440  0.2601
 8824SOL     OW35061   1.247   3.854   4.047 -0.0799 -0.0774 -0.0840
 8824SOL    HW235062   1.216   3.764   4.036  0.0698  0.0556 -2.0814
 8824SOL    HW335063   1.187   3.906   3.993  0.0348  0.9776  0.7856
 8824SOL    MW435064   1.235   3.849   4.038  0.3300  0.4022  0.3681
 8825SOL     OW35065   0.216   1.647   5.561 -0.5225  0.5060  0.7778
 8825SOL    HW235066   0.200   1.635   5.467 -1.1192  0.8169  0.8333
 8825SOL    HW335067   0.193   1.739   5.577  2.7436  1.5037  0.5893
 8825SOL    MW435068   0.211   1.658   5.551 -0.0232  0.0510  0.2192
 8826SOL     OW35069   0.237   6.047   5.313 -0.1019  0.2912 -0.3376
 8826SOL    HW235070   0.327   6.068   5.338 -0.1281 -1.2985  1.3642
 8826SOL    HW335071   0.235   5.951   5.308 -1.2183  0.3700 -2.4187
 8826SOL    MW435072   0.248   6.037   5.316 -0.2002  0.5626  0.2307
 8827SOL     OW35073   5.856   3.079   3.840  0.4060  0.1464 -0.0683
 8827SOL    HW235074   5.833   3.154   3.895  0.8809 -0.1000  0.4761
 8827SOL    HW335075   5.950   3.068   3.852  0.2391 -0.9721  0.4270
 8827SOL    MW435076   5.865   3.087   3.849 -0.3374  0.2133  0.4883
 8828SOL     OW35077   0.701   0.037   2.942  0.0937 -0.2194  0.2409
 8828SOL    HW235078   0.717   0.038   3.036  0.4976 -1.0162  0.1881
 8828SOL    HW335079   0.775   0.084   2.904  0.7175 -1.1791  0.2261
 8828SOL    MW435080   0.713   0.043   2.949 -0.4858 -0.2703  0.3535
 8829SOL     OW35081   3.764   1.894   1.572 -0.1206 -0.5098 -0.6084
 8829SOL    HW235082   3.701   1.940   1.517  0.2713  1.4803  0.5181
 8829SOL    HW335083   3.832   1.865   1.510 -0.5692  0.0899 -1.4050
 8829SOL    MW435084   3.765   1.896   1.556  0.8368 -0.2015 -0.3234
 8830SOL     OW35085   0.671   0.795   5.916  0.3537  0.2315 -0.0464
 8830SOL    HW235086   0.744   0.848   5.946 -0.1042  0.5572  0.5332
 8830SOL    HW335087   0.641   0.749   5.995  1.1275 -1.3796 -0.6557
 8830SOL    MW435088   0.676   0.796   5.931  0.0360  0.3457 -0.7512
 8831SOL     OW35089   5.234   2.555   5.546  0.4060 -0.0737 -0.4856
 8831SOL    HW235090   5.293   2.608   5.600  0.2358 -1.4111  1.1145
 8831SOL    HW335091   5.217   2.477   5.599 -0.7466 -0.9186 -2.0069
 8831SOL    MW435092   5.240   2.551   5.560 -0.0159 -0.0441  0.2779
 8832SOL     OW35093   4.206   4.530   2.674 -0.0218 -0.1394 -0.3148
 8832SOL    HW235094   4.166   4.459   2.624 -0.0584  1.3391 -2.5570
 8832SOL    HW335095   4.133   4.567   2.724 -0.1613 -1.1915  0.2759
 8832SOL    MW435096   4.191   4.526   2.674 -0.3023  0.2570 -0.3045
 8833SOL     OW35097   5.723   2.669   4.598 -0.3026 -0.2175  0.2545
 8833SOL    HW235098   5.787   2.598   4.599  0.5964  0.5332  2.4586
 8833SOL    HW335099   5.771   2.745   4.564 -0.7444 -0.2250 -0.3990
 8833SOL    MW435100   5.738   2.670   4.594  0.3347 -0.6490  0.2937
 8834SOL     OW35101   1.665   4.107   3.160 -0.2492  0.6112 -0.1464
 8834SOL    HW235102   1.758   4.129   3.160  0.3618 -1.6302  1.3720
 8834SOL    HW335103   1.644   4.091   3.068  1.8671 -2.2904 -0.2761
 8834SOL    MW435104   1.675   4.108   3.148  0.5056  0.2521 -0.0275
 8835SOL     OW35105   0.893   3.674   1.061 -0.2507  0.1550  0.1802
 8835SOL    HW235106   0.885   3.705   0.971 -4.0333 -0.6325  0.1109
 8835SOL    HW335107   0.867   3.749   1.115  3.6877  1.2269  0.9071
 8835SOL    MW435108   0.889   3.688   1.056 -0.1743 -0.0037  0.5126
 8836SOL     OW35109   5.199   0.048   2.782  0.4609 -0.6396 -0.3919
 8836SOL    HW235110   5.177   0.023   2.872  1.0261  1.1728  0.3096
 8836SOL    HW335111   5.115   0.067   2.741  0.2416 -0.8226 -0.0334
 8836SOL    MW435112   5.185   0.047   2.789 -0.0445  0.2104  0.8590
 8837SOL     OW35113   2.599   6.026   1.338  0.2403  0.1833  0.0200
 8837SOL    HW235114   2.675   6.053   1.286 -0.9988  1.0036 -1.4189
 8837SOL    HW335115   2.608   5.930   1.345  0.9503  0.1709 -0.8452
 8837SOL    MW435116   2.610   6.017   1.332 -1.0649 -0.5907 -0.2524
 8838SOL     OW35117   4.331   3.880   2.218  0.1181 -0.0113  0.6372
 8838SOL    HW235118   4.413   3.927   2.236  0.7372  0.4765 -2.8388
 8838SOL    HW335119   4.356   3.810   2.158 -1.9155 -0.3596  0.1428
 8838SOL    MW435120   4.345   3.877   2.213  0.0018 -0.6690  0.2730
 8839SOL     OW35121   1.068   4.996   6.290 -0.1132 -0.3639  0.2617
 8839SOL    HW235122   0.994   4.991   6.229  0.0045 -0.2819  0.1137
 8839SOL    HW335123   1.028   4.986   6.377 -0.0526 -2.7976  0.0827
 8839SOL    MW435124   1.053   4.994   6.294  0.7920  0.2987  0.2202
 8840SOL     OW35125   3.230   2.770   4.409  0.2280  0.3999 -0.5413
 8840SOL    HW235126   3.284   2.797   4.484 -0.6928  1.3541 -0.1984
 8840SOL    HW335127   3.211   2.851   4.362  1.9098 -0.3298 -2.6381
 8840SOL    MW435128   3.235   2.784   4.413  0.2913  0.5244 -0.1724
 8841SOL     OW35129   5.720   0.166   6.336 -0.6161 -0.0387 -0.6632
 8841SOL    HW235130   5.789   0.131   6.279  0.1843  1.7810 -0.8887
 8841SOL    HW335131   5.664   0.217   6.278 -1.1268 -0.0323 -0.1766
 8841SOL    MW435132   5.722   0.168   6.321 -0.4949 -0.3991 -0.3664
 8842SOL     OW35133   5.431   2.177   6.151 -0.2343  0.1884  0.1524
 8842SOL    HW235134   5.371   2.246   6.123 -0.5704  0.0192  0.4356
 8842SOL    HW335135   5.378   2.097   6.148 -0.6043  0.3015  2.1977
 8842SOL    MW435136   5.416   2.176   6.147  0.4167  0.5753 -0.1577
 8843SOL     OW35137   1.244   2.970   0.895 -0.1849 -0.1723 -0.4233
 8843SOL    HW235138   1.239   2.975   0.990 -0.4862  1.6223 -0.5115
 8843SOL    HW335139   1.317   2.910   0.878 -1.8626 -2.7570  0.8962
 8843SOL    MW435140   1.253   2.963   0.905 -0.1485 -0.1302 -0.9201
 8844SOL     OW35141   5.890   3.521   2.340  0.2397  0.0376  0.1949
 8844SOL    HW235142   5.951   3.479   2.279  0.9003  1.3571 -0.0945
 8844SOL    HW335143   5.943   3.585   2.387 -1.0129  1.6301 -0.4647
 8844SOL    MW435144   5.905   3.524   2.338 -0.2342  0.0929 -0.7393
 8845SOL     OW35145   2.362   6.267   1.502  0.4709  0.5020  0.9575
 8845SOL    HW235146   2.317   6.351   1.509  0.4051  0.7447 -1.5993
 8845SOL    HW335147   2.454   6.290   1.488  0.3528  0.2190 -0.4502
 8845SOL    MW435148   2.368   6.281   1.501  0.1814  0.0456 -0.1683
 8846SOL     OW35149   0.196   1.767   2.718  0.5462  0.4644 -0.0548
 8846SOL    HW235150   0.225   1.855   2.692 -0.1169  1.2856  1.7919
 8846SOL    HW335151   0.105   1.763   2.689  0.2921  0.7714  0.6679
 8846SOL    MW435152   0.188   1.778   2.711  0.2559 -0.0386 -0.2157
 8847SOL     OW35153   0.888   0.387   1.662  0.4102 -0.0992  0.1776
 8847SOL    HW235154   0.825   0.327   1.702  0.3523 -0.5717 -0.5930
 8847SOL    HW335155   0.957   0.330   1.628  0.5797  0.3070 -0.1701
 8847SOL    MW435156   0.888   0.371   1.663  0.0492  0.1479  0.2034
 8848SOL     OW35157   5.083   4.205   1.510  0.5593 -0.0530  0.0819
 8848SOL    HW235158   5.141   4.274   1.478 -0.2959  0.2257 -0.9069
 8848SOL    HW335159   5.019   4.251   1.565  0.1183 -0.0841 -0.4030
 8848SOL    MW435160   5.082   4.220   1.513  0.6890 -0.6840  0.2391
 8849SOL     OW35161   1.381   0.421   1.494 -0.4694 -0.5372 -0.0402
 8849SOL    HW235162   1.360   0.496   1.438 -2.7474 -1.3123 -0.3559
 8849SOL    HW335163   1.439   0.456   1.561  0.9831  0.7904 -1.8981
 8849SOL    MW435164   1.386   0.436   1.495 -0.0415  0.3605  0.4108
 8850SOL     OW35165   3.302   4.249   0.783  0.7374 -0.0790  0.4371
 8850SOL    HW235166   3.310   4.250   0.878 -0.2069  0.0444  0.5263
 8850SOL    HW335167   3.307   4.157   0.759 -2.1939 -0.4601  0.9360
 8850SOL    MW435168   3.304   4.237   0.792 -0.1172  0.2165  0.1392
 8851SOL     OW35169   4.754   0.784   2.481 -0.1779  0.0188 -0.0809
 8851SOL    HW235170   4.729   0.852   2.543 -0.0068  1.2539 -1.3160
 8851SOL    HW335171   4.689   0.790   2.411  1.3208  0.7089 -1.4691
 8851SOL    MW435172   4.742   0.794   2.480 -0.3156 -0.1031 -0.2565
 8852SOL     OW35173   5.697   5.978   2.857 -0.1127 -0.1833  0.2558
 8852SOL    HW235174   5.719   5.982   2.764  0.8682 -0.8733  0.4352
 8852SOL    HW335175   5.749   6.048   2.896 -1.5450  0.9885  0.1227
 8852SOL    MW435176   5.707   5.988   2.850 -0.3052 -0.0567  0.0244
 8853SOL     OW35177   0.177   3.604   0.930 -0.0091 -0.0899 -0.1641
 8853SOL    HW235178   0.162   3.576   1.020 -3.3318  0.8163 -0.2956
 8853SOL    HW335179   0.215   3.528   0.886  1.0418 -0.7549  1.7951
 8853SOL    MW435180   0.180   3.590   0.936  0.6155  0.2388  0.1148
 8854SOL     OW35181   2.046   1.969   5.874  0.4832 -0.0345  0.0770
 8854SOL    HW235182   2.057   2.064   5.873  0.2568 -0.0037 -1.3112
 8854SOL    HW335183   2.072   1.941   5.786  0.2417 -1.2218  0.3701
 8854SOL    MW435184   2.051   1.978   5.862  0.0219 -0.0122 -0.3779
 8855SOL     OW35185   3.347   5.985   3.089  0.0604 -0.0110  0.3226
 8855SOL    HW235186   3.414   5.944   3.144  0.9094  0.6706 -0.1663
 8855SOL    HW335187   3.332   6.070   3.130 -1.7963 -0.8053  1.4224
 8855SOL    MW435188   3.354   5.991   3.102  0.5891 -0.0794 -0.2062
 8856SOL     OW35189   0.931   3.106   2.653  0.1062  0.1479  0.0982
 8856SOL    HW235190   0.942   3.094   2.747  0.7054  0.7444  0.1213
 8856SOL    HW335191   1.018   3.134   2.623 -0.1770  0.3364 -0.5654
 8856SOL    MW435192   0.944   3.108   2.661 -0.3495  0.8512  0.7221
 8857SOL     OW35193   5.724   3.627   5.241  0.4357 -0.4524 -0.2014
 8857SOL    HW235194   5.715   3.712   5.197 -0.8470 -1.0186 -1.0680
 8857SOL    HW335195   5.658   3.630   5.310  2.7939  0.6611  2.2083
 8857SOL    MW435196   5.714   3.639   5.244 -0.2286  0.4045  0.2252
 8858SOL     OW35197   1.137   3.580   3.716  0.0647  0.2644  0.1981
 8858SOL    HW235198   1.073   3.652   3.709 -0.1599  0.0047 -0.5497
 8858SOL    HW335199   1.221   3.621   3.697  0.2608  0.7800  1.9989
 8858SOL    MW435200   1.140   3.595   3.712  0.0495  0.0756 -0.2359
 8859SOL     OW35201   6.382   3.081   2.857 -0.5392 -0.2138 -0.7670
 8859SOL    HW235202   6.414   3.009   2.912 -2.2563 -0.1286  0.3969
 8859SOL    HW335203   6.396   3.160   2.909 -0.5907  0.0814 -1.1899
 8859SOL    MW435204   6.388   3.082   2.871 -0.8358  0.6388 -0.1695
 8860SOL     OW35205   2.230   1.787   0.501  0.1803 -0.1488 -0.0591
 8860SOL    HW235206   2.169   1.753   0.567 -3.3057 -0.4689 -3.1143
 8860SOL    HW335207   2.209   1.880   0.496 -0.3115 -0.3016 -1.2859
 8860SOL    MW435208   2.219   1.795   0.509  0.3029  0.0716  0.3659
 8861SOL     OW35209   5.756   5.556   0.167 -0.6159 -0.4722  0.2318
 8861SOL    HW235210   5.704   5.637   0.163 -1.0664 -0.7232  0.9257
 8861SOL    HW335211   5.696   5.488   0.137  0.2036 -0.3730 -1.8088
 8861SOL    MW435212   5.741   5.558   0.162 -0.0871 -0.7689  0.4984
 8862SOL     OW35213   5.654   0.826   1.308 -0.9452 -0.5331 -0.4785
 8862SOL    HW235214   5.661   0.810   1.402 -2.4479 -0.6344 -0.3650
 8862SOL    HW335215   5.673   0.919   1.299 -0.3822 -0.6070 -0.1367
 8862SOL    MW435216   5.658   0.836   1.320 -0.6226  0.0246  0.2881
 8863SOL     OW35217   5.746   2.768   5.183  0.3891  0.5937 -0.0691
 8863SOL    HW235218   5.839   2.757   5.161  0.3169 -0.8926  0.2859
 8863SOL    HW335219   5.699   2.732   5.108  0.1107  0.2811  0.2529
 8863SOL    MW435220   5.752   2.762   5.170 -0.0422 -0.2202  0.0950
 8864SOL     OW35221   0.557   1.952   0.350 -0.4696 -0.5041 -0.1209
 8864SOL    HW235222   0.549   1.993   0.436  0.6281 -0.1293 -0.1757
 8864SOL    HW335223   0.489   1.993   0.297 -0.6960 -0.2228  0.3783
 8864SOL    MW435224   0.547   1.963   0.355 -0.1408  0.3254  0.0903
 8865SOL     OW35225   3.500   0.711   0.353 -0.0095  0.2886 -0.3604
 8865SOL    HW235226   3.514   0.800   0.385  0.0360 -0.2449  1.1543
 8865SOL    HW335227   3.409   0.691   0.376 -0.2088  0.1445 -1.2301
 8865SOL    MW435228   3.490   0.720   0.360  0.1756  0.0763 -0.2600
 8866SOL     OW35229   0.754   4.103   4.741 -0.4025 -0.1834  0.3844
 8866SOL    HW235230   0.661   4.085   4.723 -0.1905 -0.1355 -0.8525
 8866SOL    HW335231   0.756   4.197   4.760 -0.5556 -0.0994  0.0009
 8866SOL    MW435232   0.742   4.113   4.741  0.2887  0.5071 -0.2431
 8867SOL     OW35233   1.528   3.766   1.384  0.1567  0.5533 -0.0425
 8867SOL    HW235234   1.589   3.693   1.392 -0.9474 -0.2115  2.7133
 8867SOL    HW335235   1.571   3.839   1.427 -0.3564  0.3287  0.8868
 8867SOL    MW435236   1.542   3.766   1.391  0.3333 -0.6262 -0.3527
 8868SOL     OW35237   3.958   3.308   1.678 -0.9220 -0.2058 -0.4470
 8868SOL    HW235238   3.959   3.241   1.610  0.2366 -0.2980 -0.3725
 8868SOL    HW335239   4.047   3.306   1.714 -0.4762  2.1489 -1.2295
 8868SOL    MW435240   3.970   3.299   1.673  0.0061  0.3367  0.1993
 8869SOL     OW35241   5.346   5.807   1.712  0.0901 -0.0987 -0.0855
 8869SOL    HW235242   5.265   5.783   1.667 -0.6836  0.1081  1.1385
 8869SOL    HW335243   5.348   5.902   1.710  0.0750 -0.0888  0.2500
 8869SOL    MW435244   5.336   5.816   1.706  0.1194 -0.2380 -0.1793
 8870SOL     OW35245   3.141   2.871   5.971  1.0209  0.1456  0.4986
 8870SOL    HW235246   3.182   2.820   5.901 -0.2997 -0.6609  0.2876
 8870SOL    HW335247   3.182   2.838   6.051 -0.2502 -1.7955  0.4336
 8870SOL    MW435248   3.152   2.860   5.972  0.5061 -0.0442 -0.0588
 8871SOL     OW35249   4.501   1.592   1.922  0.1282 -0.6358  0.5737
 8871SOL    HW235250   4.438   1.563   1.856 -0.3995 -2.2417  1.7136
 8871SOL    HW335251   4.451   1.648   1.981  0.3601  0.0085  0.1640
 8871SOL    MW435252   4.486   1.596   1.921  0.1645  0.2902 -0.6695
 8872SOL     OW35253   4.918   4.139   5.165  0.1776 -0.1069 -0.1276
 8872SOL    HW235254   5.011   4.142   5.142  0.0665 -0.2847 -0.5996
 8872SOL    HW335255   4.915   4.086   5.245  0.2800 -1.7589 -1.1843
 8872SOL    MW435256   4.930   4.133   5.173 -0.6440 -0.2198  0.7791
 8873SOL     OW35257   5.491   0.856   4.253 -0.2413 -0.3719  0.1064
 8873SOL    HW235258   5.464   0.798   4.324  0.6548  1.3634  1.9745
 8873SOL    HW335259   5.469   0.808   4.173 -0.2564 -2.9156  1.5187
 8873SOL    MW435260   5.485   0.842   4.252  0.5272  0.0791  0.1788
 8874SOL     OW35261   4.253   0.517   0.241  0.2303  0.4642  0.3676
 8874SOL    HW235262   4.233   0.488   0.331  0.0354 -0.1743  0.1219
 8874SOL    HW335263   4.200   0.596   0.230 -1.0197 -0.3661  0.2550
 8874SOL    MW435264   4.243   0.524   0.252 -0.3311  0.1819 -0.1391
 8875SOL     OW35265   2.238   0.877   0.574 -0.0145  0.3595 -0.0720
 8875SOL    HW235266   2.152   0.915   0.558 -0.1526  0.6703  1.2604
 8875SOL    HW335267   2.299   0.949   0.560 -0.1281  0.6137  0.6862
 8875SOL    MW435268   2.235   0.892   0.570  0.0523 -0.1547 -0.6138
 8876SOL     OW35269   6.381   4.287   1.957 -0.0881  0.2198 -0.0586
 8876SOL    HW235270   6.407   4.227   2.028 -0.1237  0.2509 -0.0190
 8876SOL    HW335271   6.365   4.230   1.882  2.0499  0.3371 -0.6765
 8876SOL    MW435272   6.382   4.272   1.957  0.3347 -0.1882  0.3588
 8877SOL     OW35273   0.342   6.124   1.678  0.5699 -0.1861  0.0528
 8877SOL    HW235274   0.376   6.055   1.622 -0.6518 -1.8959  1.3274
 8877SOL    HW335275   0.420   6.166   1.714  1.3352 -0.6672 -1.0040
 8877SOL    MW435276   0.357   6.121   1.676  0.3439 -0.3582 -0.5425
 8878SOL     OW35277   2.961   3.937   3.413 -0.6217  0.4147 -0.5135
 8878SOL    HW235278   2.941   3.955   3.321  1.2221  1.3510 -0.7742
 8878SOL    HW335279   2.968   4.023   3.454  0.6131  0.0781  0.0237
 8878SOL    MW435280   2.959   3.951   3.407  0.1030  0.1837 -0.1247
 8879SOL     OW35281   0.989   1.730   6.264  0.2939  0.5541 -0.0254
 8879SOL    HW235282   0.982   1.686   6.349 -1.8968  0.7700 -0.0336
 8879SOL    HW335283   1.073   1.701   6.229  0.6061 -0.6604  1.6013
 8879SOL    MW435284   0.999   1.720   6.270  0.0697 -0.8373 -0.4829
 8880SOL     OW35285   3.839   4.320   3.144  0.5513 -0.2446  0.5414
 8880SOL    HW235286   3.913   4.262   3.161  0.2520 -0.5800  0.7265
 8880SOL    HW335287   3.868   4.406   3.176  0.6892 -0.4707  1.0350
 8880SOL    MW435288   3.853   4.324   3.150 -0.5812  0.7432 -0.0494
 8881SOL     OW35289   0.682   2.692   3.958  0.4498 -0.4019  0.1189
 8881SOL    HW235290   0.671   2.604   3.922 -2.5891 -0.0411 -0.0919
 8881SOL    HW335291   0.701   2.677   4.051 -0.3731 -1.3137  0.1563
 8881SOL    MW435292   0.683   2.678   3.966 -0.2919 -0.6978  0.7670
 8882SOL     OW35293   1.841   0.662   0.885 -0.7283  0.4178  0.1900
 8882SOL    HW235294   1.779   0.598   0.849  0.5809 -1.7127  1.4936
 8882SOL    HW335295   1.915   0.661   0.826 -1.0269  1.3864 -0.2225
 8882SOL    MW435296   1.842   0.653   0.873 -0.2143  0.1041  0.3601
 8883SOL     OW35297   0.202   2.124   1.071 -0.3541 -0.2077  0.0386
 8883SOL    HW235298   0.237   2.038   1.047 -2.3645 -1.0959 -0.0009
 8883SOL    HW335299   0.247   2.185   1.013  2.0207 -1.0376  0.9070
 8883SOL    MW435300   0.212   2.121   1.060 -0.6149  0.5639 -0.0963
 8884SOL     OW35301   4.446   2.185   3.289 -0.1351  0.5646 -0.8702
 8884SOL    HW235302   4.365   2.176   3.239  0.7788  2.1203 -2.7694
 8884SOL    HW335303   4.515   2.166   3.225  1.0412  0.4177  0.4031
 8884SOL    MW435304   4.445   2.181   3.274  0.3112 -0.0376 -0.2321
 8885SOL     OW35305   4.247   2.069   6.283 -0.0922 -0.3119  0.2629
 8885SOL    HW235306   4.207   2.156   6.277 -0.8178 -0.7176 -1.2855
 8885SOL    HW335307   4.174   2.011   6.305 -0.3600 -0.9931 -2.1116
 8885SOL    MW435308   4.232   2.072   6.285  0.8580 -0.9242 -0.5674
 8886NA      NA35309   1.539   0.061   3.154 -0.0935  0.0096 -0.1450
 8887NA      NA35310   2.332   0.899   1.135  0.6029 -0.5677 -0.1629
 8888NA      NA35311   5.304   1.021   3.507  0.5879  0.4077  0.5243
 8889NA      NA35312   4.504   1.156   2.668 -0.3352  0.1573  0.1230
 8890NA      NA35313   0.713   2.953   1.770  0.0565  0.6637  0.1082
 8891NA      NA35314   2.629   1.002   0.592  0.2832 -0.3673 -0.4155
 8892NA      NA35315   3.621   1.442   2.766 -0.6399  0.1227  0.1168
   6.42900   6.42900   6.42900
