A-SYNC WITH FASUDIL
35315
  121NASP     N    1   3.720   5.849   3.382  0.7160  0.1721 -0.4127
  121NASP    H1    2   3.764   5.761   3.404  0.8177 -0.1066 -1.6382
  121NASP    H2    3   3.734   5.859   3.282  0.7598  0.7140 -0.3551
  121NASP    H3    4   3.624   5.853   3.412  0.9146 -2.6977  0.9823
  121NASP    CA    5   3.797   5.958   3.451  0.1393  0.6685 -0.7912
  121NASP    HA    6   3.898   5.953   3.409  0.2071  0.8907 -0.6572
  121NASP    CB    7   3.723   6.089   3.414  0.3595  0.1234 -0.4152
  121NASP   HB1    8   3.757   6.121   3.315  2.4240  1.3361  0.6333
  121NASP   HB2    9   3.752   6.174   3.475 -1.7347 -0.5231  1.6620
  121NASP    CG   10   3.568   6.089   3.416 -0.1039  0.2006  0.0478
  121NASP   OD1   11   3.507   5.984   3.446 -0.6631 -0.3785 -0.4929
  121NASP   OD2   12   3.507   6.197   3.390  0.2482  0.1898 -0.4899
  121NASP     C   13   3.799   5.932   3.598 -0.8774 -0.2002 -0.6888
  121NASP     O   14   3.737   5.840   3.653  0.1131  0.1121 -0.2210
  122ASN      N   15   3.866   6.014   3.677  0.1628 -0.3345  0.6818
  122ASN      H   16   3.898   6.098   3.631  0.3222 -0.3986  0.6731
  122ASN     CA   17   3.868   6.010   3.822 -0.0674  0.1961 -0.0832
  122ASN     HA   18   3.786   5.944   3.852 -0.2737 -0.4132 -1.8636
  122ASN     CB   19   4.015   5.956   3.864  0.5314 -0.1628 -0.1832
  122ASN    HB1   20   4.026   5.970   3.972 -0.4679  0.6089 -0.1699
  122ASN    HB2   21   4.090   6.013   3.809  1.4060 -0.4943  0.6311
  122ASN     CG   22   4.034   5.808   3.825 -0.2193  0.1223  0.9020
  122ASN    OD1   23   4.125   5.766   3.752  0.0821  0.4584 -0.3508
  122ASN    ND2   24   3.946   5.725   3.876 -0.1720  0.0888  0.1634
  122ASN   HD21   25   3.963   5.628   3.855  1.6173  0.9090 -2.8354
  122ASN   HD22   26   3.869   5.753   3.934  0.4527  0.9054  0.6347
  122ASN      C   27   3.838   6.151   3.876 -0.4211  0.1559 -0.1632
  122ASN      O   28   3.846   6.256   3.804 -0.2738  0.5763  0.5112
  123GLU      N   29   3.790   6.157   4.003  0.0618  0.1747 -0.1673
  123GLU      H   30   3.767   6.064   4.033 -0.0353 -0.2404 -1.4536
  123GLU     CA   31   3.786   6.279   4.095 -0.4743  0.4835  0.2670
  123GLU     HA   32   3.703   6.345   4.070  0.1145  0.9881 -0.3783
  123GLU     CB   33   3.771   6.230   4.246 -0.2008  0.9273  0.2026
  123GLU    HB1   34   3.809   6.300   4.321 -0.0669  2.6106 -1.3592
  123GLU    HB2   35   3.822   6.135   4.262 -0.4762  0.9554  1.3542
  123GLU     CG   36   3.624   6.208   4.279 -0.0027 -0.3187 -0.6243
  123GLU    HG1   37   3.580   6.151   4.197 -1.9189  0.2000 -0.0238
  123GLU    HG2   38   3.575   6.305   4.289  0.8432  0.0406  0.1773
  123GLU     CD   39   3.609   6.125   4.408 -0.3551  0.4182  0.8461
  123GLU    OE1   40   3.512   6.048   4.418  0.4483  0.4127 -0.5396
  123GLU    OE2   41   3.698   6.128   4.493  0.1211 -0.7232  0.5981
  123GLU      C   42   3.902   6.372   4.081  0.1307  0.2451  0.0239
  123GLU      O   43   4.018   6.334   4.068  0.2087 -0.9655  0.6113
  124ALA      N   44   3.879   6.505   4.094 -0.0065  0.0515  0.0174
  124ALA      H   45   3.780   6.525   4.104 -0.1642 -0.6731 -0.0707
  124ALA     CA   46   3.984   6.615   4.093 -0.2178 -0.3464  0.2787
  124ALA     HA   47   4.056   6.585   4.017  0.9109 -1.2384  1.6602
  124ALA     CB   48   3.907   6.743   4.049 -0.1228 -0.4459 -0.4497
  124ALA    HB1   49   3.980   6.801   3.992 -0.8923 -1.6330 -2.7340
  124ALA    HB2   50   3.881   6.813   4.129  0.5936 -1.3602  0.6299
  124ALA    HB3   51   3.822   6.711   3.989  0.1794 -2.2724  0.0330
  124ALA      C   52   4.066   6.626   4.213  0.1932  0.8208  0.1015
  124ALA      O   53   4.082   6.730   4.267  0.9843  0.0092  0.1267
  125TYR      N   54   4.119   6.513   4.262  0.7225  0.3987 -0.0437
  125TYR      H   55   4.123   6.429   4.207 -1.3162  0.5717 -0.5134
  125TYR     CA   56   4.179   6.490   4.395  0.0528 -0.5374  0.3444
  125TYR     HA   57   4.133   6.565   4.460 -3.0383 -0.9988 -1.1032
  125TYR     CB   58   4.134   6.346   4.437 -0.5307  0.1755  0.4944
  125TYR    HB1   59   4.025   6.348   4.436 -0.5240  0.9906 -0.1125
  125TYR    HB2   60   4.157   6.326   4.542 -0.4132 -0.6906  0.3049
  125TYR     CG   61   4.173   6.225   4.345 -0.7982  0.2954 -0.2685
  125TYR    CD1   62   4.086   6.121   4.347  0.5987  0.6795 -0.5860
  125TYR    HD1   63   4.001   6.132   4.413  1.0555 -0.2367  0.1874
  125TYR    CE1   64   4.111   6.008   4.271  0.7221  0.3995 -0.1416
  125TYR    HE1   65   4.035   5.931   4.267 -1.0045  2.0725 -1.7162
  125TYR     CZ   66   4.225   5.996   4.188  0.3098  0.4657 -0.3221
  125TYR     OH   67   4.235   5.882   4.113 -0.0088 -0.1128  0.9775
  125TYR     HH   68   4.176   5.809   4.131  1.4879 -1.4425  0.7450
  125TYR    CE2   69   4.317   6.106   4.184  0.3065 -0.0362 -0.4296
  125TYR    HE2   70   4.410   6.090   4.131  0.9657 -0.1430  0.7123
  125TYR    CD2   71   4.289   6.219   4.263 -0.1707 -0.1012  0.9570
  125TYR    HD2   72   4.368   6.293   4.263  1.1864 -1.4996  1.2325
  125TYR      C   73   4.327   6.513   4.406  0.1314  0.6307  0.7560
  125TYR      O   74   4.405   6.540   4.313  0.2789  0.2110 -0.3034
  126GLU      N   75   4.371   6.510   4.528 -0.2713  0.0601  0.4358
  126GLU      H   76   4.298   6.497   4.597  0.7927 -1.2262  1.3796
  126GLU     CA   77   4.514   6.499   4.587  0.2979  0.1190  0.2535
  126GLU     HA   78   4.578   6.559   4.524  2.4330  0.2574  2.4324
  126GLU     CB   79   4.516   6.550   4.729  0.1493  0.0480 -0.3548
  126GLU    HB1   80   4.473   6.480   4.801 -1.0421  0.5617 -0.5484
  126GLU    HB2   81   4.443   6.630   4.739  0.6087  0.2689  1.4960
  126GLU     CG   82   4.658   6.592   4.778  0.1357  0.1240  0.4315
  126GLU    HG1   83   4.685   6.682   4.723 -0.7890 -1.1438 -2.2475
  126GLU    HG2   84   4.730   6.513   4.757 -0.1598  0.0003 -0.1259
  126GLU     CD   85   4.667   6.614   4.933  0.6755  0.4527  0.3182
  126GLU    OE1   86   4.570   6.623   5.011 -0.3395  0.1293 -0.1286
  126GLU    OE2   87   4.776   6.618   4.987  1.1408 -0.1241  0.1889
  126GLU      C   88   4.558   6.353   4.563  0.2605  0.2810  0.5491
  126GLU      O   89   4.670   6.327   4.509  0.5480  0.0830 -0.3844
  127MET      N   90   4.481   6.261   4.609 -0.5017  0.3185  0.6219
  127MET      H   91   4.391   6.289   4.644 -0.9277  0.0562 -0.2211
  127MET     CA   92   4.517   6.119   4.601 -0.5083 -0.5557 -0.1922
  127MET     HA   93   4.579   6.105   4.512 -0.3209  0.9569 -0.3325
  127MET     CB   94   4.603   6.084   4.723  0.1979  0.1248 -0.0845
  127MET    HB1   95   4.590   5.976   4.733  0.1822  0.0826 -0.5548
  127MET    HB2   96   4.572   6.127   4.818  0.2293  0.3468 -0.1747
  127MET     CG   97   4.754   6.117   4.712 -0.2807 -0.0832 -0.0309
  127MET    HG1   98   4.775   6.223   4.728 -1.9511 -0.1163  3.1764
  127MET    HG2   99   4.781   6.063   4.621 -1.3552 -3.8562  1.6855
  127MET     SD  100   4.843   6.028   4.842  0.0762  0.2648  0.1184
  127MET     CE  101   5.007   6.036   4.760  0.1362  0.2899 -0.1000
  127MET    HE1  102   5.029   6.139   4.731 -1.2115  0.6214 -0.0035
  127MET    HE2  103   5.012   5.966   4.677 -1.0450  0.4419 -0.3139
  127MET    HE3  104   5.086   6.004   4.828 -0.3951  2.1349  1.4802
  127MET      C  105   4.391   6.035   4.612  0.0146  0.5160  0.1889
  127MET      O  106   4.287   6.075   4.667  0.0519  0.2084 -0.1933
  128PRO      N  107   4.387   5.917   4.546 -0.7092 -0.3258  0.7531
  128PRO     CD  108   4.478   5.864   4.443  0.5748 -0.6117  0.3333
  128PRO    HD1  109   4.577   5.862   4.489  0.4874  1.1826  0.6862
  128PRO    HD2  110   4.470   5.928   4.356  2.1714 -0.2881  0.3881
  128PRO     CG  111   4.439   5.721   4.412 -0.1088 -0.2003 -0.0264
  128PRO    HG1  112   4.479   5.652   4.487  0.3945  1.8438  1.7107
  128PRO    HG2  113   4.481   5.681   4.320  1.7920 -0.5539  0.9262
  128PRO     CB  114   4.289   5.730   4.428 -0.1259  0.4994  0.7979
  128PRO    HB1  115   4.245   5.761   4.333  1.2120 -2.1486 -0.8247
  128PRO    HB2  116   4.252   5.631   4.457  0.4439  0.6042  1.9150
  128PRO     CA  117   4.264   5.829   4.541  0.1136 -0.1189  0.7443
  128PRO     HA  118   4.172   5.875   4.505  0.2975 -0.5169 -0.2655
  128PRO      C  119   4.237   5.765   4.673 -0.4382  0.7754  0.0515
  128PRO      O  120   4.321   5.684   4.712 -0.4687 -0.4200 -0.1780
  129SER      N  121   4.123   5.796   4.742 -0.5002  0.5404  0.2376
  129SER      H  122   4.049   5.851   4.701  1.3956  1.7306 -1.7891
  129SER     CA  123   4.094   5.743   4.879  0.1788  0.1303  0.6716
  129SER     HA  124   4.174   5.769   4.948  0.6850 -1.7602  0.8520
  129SER     CB  125   3.960   5.800   4.920  0.0333  0.4132  0.1747
  129SER    HB1  126   3.947   5.906   4.896 -1.1089  0.8612  2.4898
  129SER    HB2  127   3.952   5.784   5.027 -2.6046  0.2986  0.0411
  129SER     OG  128   3.859   5.731   4.850 -0.5189  0.0509  0.1778
  129SER    HG1  129   3.839   5.649   4.896  0.1697 -0.2056  0.0253
  129SER      C  130   4.091   5.586   4.889 -0.0860 -0.5178 -0.0703
  129SER      O  131   4.136   5.537   4.992 -0.1764  0.0021  0.0507
  130GLU      N  132   4.053   5.519   4.779 -0.4181 -0.0700  0.0340
  130GLU      H  133   4.026   5.573   4.699  3.6185  1.6811 -0.3795
  130GLU     CA  134   4.049   5.373   4.769 -0.0061  0.1127  0.1530
  130GLU     HA  135   3.990   5.332   4.851 -1.0041  0.0775 -0.5532
  130GLU     CB  136   3.976   5.333   4.641  0.5553  0.4146  0.0449
  130GLU    HB1  137   3.879   5.383   4.644 -0.7187 -1.5048 -3.2938
  130GLU    HB2  138   3.961   5.226   4.645 -0.9258  0.6134  0.3529
  130GLU     CG  139   4.045   5.361   4.508  0.5497 -0.3314 -0.4492
  130GLU    HG1  140   4.119   5.286   4.480  2.0577  0.4790  1.1311
  130GLU    HG2  141   4.092   5.459   4.519 -0.6563  0.4567 -1.9251
  130GLU     CD  142   3.943   5.375   4.398 -0.1617  0.3195  0.2149
  130GLU    OE1  143   3.946   5.482   4.338  0.3007 -0.3015  0.0207
  130GLU    OE2  144   3.863   5.281   4.376  0.1896  0.3062  0.3627
  130GLU      C  145   4.181   5.307   4.783 -0.0890  0.1500  0.0619
  130GLU      O  146   4.200   5.196   4.831  0.7048 -0.1227  0.1751
  131GLU      N  147   4.291   5.373   4.745  0.4082  0.3985 -0.2963
  131GLU      H  148   4.263   5.454   4.691 -0.8292  0.6084  0.6141
  131GLU     CA  149   4.431   5.330   4.750 -0.5568  0.3098 -0.5517
  131GLU     HA  150   4.437   5.222   4.763 -1.1575  0.3235 -0.1188
  131GLU     CB  151   4.507   5.359   4.613 -0.4599  0.4077 -0.0999
  131GLU    HB1  152   4.615   5.357   4.624 -0.6856 -0.4830  2.7243
  131GLU    HB2  153   4.487   5.461   4.581  0.8096  0.8327  0.4264
  131GLU     CG  154   4.460   5.246   4.517  0.3230 -0.2133  0.2055
  131GLU    HG1  155   4.353   5.251   4.498  0.4674  2.9898 -0.2336
  131GLU    HG2  156   4.478   5.146   4.558 -1.7667 -0.7351 -0.0363
  131GLU     CD  157   4.528   5.255   4.379  0.3927 -1.1803  0.1358
  131GLU    OE1  158   4.574   5.364   4.329  0.2320  0.2303 -0.5458
  131GLU    OE2  159   4.555   5.153   4.313 -0.0445 -0.1068 -0.2817
  131GLU      C  160   4.508   5.358   4.883 -0.2331  0.1316 -0.0133
  131GLU      O  161   4.628   5.332   4.889  0.3393 -0.1621 -0.1190
  132GLY      N  162   4.439   5.421   4.985 -0.1887 -0.5701  0.2727
  132GLY      H  163   4.341   5.440   4.971 -0.1393  0.2460  1.0042
  132GLY     CA  164   4.497   5.416   5.125 -0.8130 -0.2616 -0.3167
  132GLY    HA1  165   4.592   5.364   5.120  0.1371  1.4938 -3.6949
  132GLY    HA2  166   4.437   5.356   5.193 -0.2481 -0.7850 -0.2763
  132GLY      C  167   4.524   5.562   5.175 -0.8764  0.5113  0.0985
  132GLY      O  168   4.589   5.584   5.282  0.5108  0.3683  0.0626
  133TYR      N  169   4.473   5.663   5.108 -0.3816  0.0161 -0.3504
  133TYR      H  170   4.437   5.632   5.019 -0.5972  0.2500 -0.3473
  133TYR     CA  171   4.461   5.807   5.145 -0.0338  1.0603  0.1599
  133TYR     HA  172   4.550   5.831   5.204 -1.4883  2.6508  1.8251
  133TYR     CB  173   4.450   5.901   5.021 -0.9447  0.8944  0.0459
  133TYR    HB1  174   4.373   5.861   4.954  0.3959 -0.5768 -0.7095
  133TYR    HB2  175   4.538   5.893   4.958 -1.6393 -0.7772 -0.7815
  133TYR     CG  176   4.424   6.050   5.045  0.4686 -0.5268  0.5177
  133TYR    CD1  177   4.524   6.132   5.099  0.1570 -0.4163  0.2243
  133TYR    HD1  178   4.623   6.091   5.116 -0.4457 -2.0167  0.0552
  133TYR    CE1  179   4.504   6.272   5.092 -0.1550 -0.4301  0.2178
  133TYR    HE1  180   4.580   6.349   5.096 -0.5501  0.2380 -2.8250
  133TYR     CZ  181   4.376   6.326   5.043 -1.0833 -0.3231 -0.2766
  133TYR     OH  182   4.365   6.459   5.020 -0.0763 -0.8049  0.5363
  133TYR     HH  183   4.445   6.510   5.030 -1.7745  1.9295  1.5936
  133TYR    CE2  184   4.280   6.237   5.009  0.4627 -0.6298  0.0737
  133TYR    HE2  185   4.179   6.268   4.988 -0.5466  0.1639  5.0597
  133TYR    CD2  186   4.294   6.098   5.017 -0.0333 -0.3339  0.2989
  133TYR    HD2  187   4.219   6.026   4.988  0.3853 -1.2801  1.5203
  133TYR      C  188   4.341   5.828   5.238 -0.0291  0.1643  0.3777
  133TYR      O  189   4.235   5.779   5.219  0.2705 -0.1019  0.2898
  134GLN      N  190   4.371   5.905   5.343  0.9243  0.0574  0.5631
  134GLN      H  191   4.467   5.936   5.344  0.3953  1.7936  1.8747
  134GLN     CA  192   4.284   5.934   5.456 -0.0184 -0.1436 -0.4267
  134GLN     HA  193   4.347   5.979   5.533  2.4763 -3.7093 -0.1193
  134GLN     CB  194   4.180   6.044   5.420 -0.7798  0.0528 -0.1627
  134GLN    HB1  195   4.096   6.048   5.489 -0.7283  2.3558 -0.1473
  134GLN    HB2  196   4.137   6.006   5.327 -0.7053 -1.1003  0.2541
  134GLN     CG  197   4.239   6.186   5.404  0.1869 -0.4952  0.2851
  134GLN    HG1  198   4.293   6.189   5.309 -0.7426  1.1355 -0.2345
  134GLN    HG2  199   4.299   6.211   5.491 -1.5873  1.2168  1.0837
  134GLN     CD  200   4.134   6.300   5.400 -1.5937 -0.4383  0.1868
  134GLN    OE1  201   4.017   6.273   5.382 -0.1613 -0.1150 -0.5503
  134GLN    NE2  202   4.176   6.425   5.414 -0.0896 -0.3378 -0.1270
  134GLN   HE21  203   4.116   6.506   5.414 -1.1062 -1.0343 -2.0775
  134GLN   HE22  204   4.273   6.440   5.440 -0.5852  0.2977  1.4600
  134GLN      C  205   4.237   5.806   5.521 -0.3542  0.5960  0.0275
  134GLN      O  206   4.117   5.787   5.547  0.4060  0.7396 -0.2059
  135ASP      N  207   4.329   5.714   5.548 -0.0773  0.3031  0.2838
  135ASP      H  208   4.427   5.732   5.533  0.4439 -2.1308  0.2809
  135ASP     CA  209   4.298   5.572   5.587 -0.1011 -0.2774 -0.4772
  135ASP     HA  210   4.222   5.529   5.521 -2.1238 -1.7834  2.5550
  135ASP     CB  211   4.426   5.482   5.592  0.0915  0.2000 -0.3937
  135ASP    HB1  212   4.463   5.478   5.490 -0.1129 -0.6315 -0.4418
  135ASP    HB2  213   4.392   5.381   5.614  1.3772 -0.8806 -3.0383
  135ASP     CG  214   4.556   5.520   5.668 -0.4991  0.5287  0.0908
  135ASP    OD1  215   4.562   5.638   5.709  0.5825 -0.0895 -0.0475
  135ASP    OD2  216   4.648   5.437   5.689 -0.0119 -0.0434 -0.2210
  135ASP      C  217   4.241   5.552   5.726 -0.3928  0.6534  0.5650
  135ASP      O  218   4.183   5.443   5.745  0.3631 -0.5921 -0.4852
  136TYR      N  219   4.253   5.649   5.814 -0.4899  0.6335 -0.2170
  136TYR      H  220   4.316   5.726   5.793 -1.1277  1.4820  0.8737
  136TYR     CA  221   4.204   5.650   5.946  0.3320 -0.6592  0.1081
  136TYR     HA  222   4.122   5.579   5.956  1.0296 -1.6155 -0.8391
  136TYR     CB  223   4.320   5.616   6.045 -0.1625  0.0784  0.0256
  136TYR    HB1  224   4.289   5.646   6.145 -0.8703 -0.9843  0.1424
  136TYR    HB2  225   4.409   5.674   6.021  0.0636 -0.6630 -0.9885
  136TYR     CG  226   4.349   5.471   6.054  0.4298  0.2824  0.5784
  136TYR    CD1  227   4.246   5.380   6.085 -0.0684 -0.3974 -0.5866
  136TYR    HD1  228   4.144   5.405   6.111 -0.1745 -2.2586  1.0056
  136TYR    CE1  229   4.279   5.245   6.089  0.5891  0.3712  0.2472
  136TYR    HE1  230   4.207   5.170   6.118  1.0247  0.0447  0.5049
  136TYR     CZ  231   4.404   5.195   6.063  0.2499  0.0978 -0.1942
  136TYR     OH  232   4.415   5.056   6.053  0.0987  0.0059 -0.3824
  136TYR     HH  233   4.503   5.019   6.052  0.8115  1.5087  1.2553
  136TYR    CE2  234   4.507   5.287   6.043 -0.1054  0.7292  0.0149
  136TYR    HE2  235   4.604   5.254   6.008 -0.5753 -0.6234 -0.0553
  136TYR    CD2  236   4.478   5.424   6.044 -0.1932  0.1417  0.0636
  136TYR    HD2  237   4.555   5.500   6.031 -1.2255  1.2457  0.2202
  136TYR      C  238   4.144   5.796   5.982 -0.4125  0.6973  0.2981
  136TYR      O  239   4.186   5.896   5.925 -0.3749  0.2834 -0.4672
  137GLU      N  240   4.059   5.797   6.081 -0.2934  0.3857  0.3776
  137GLU      H  241   4.027   5.705   6.109  0.1836 -1.6322 -4.7082
  137GLU     CA  242   3.999   5.912   6.152 -0.0409 -0.3399 -0.0024
  137GLU     HA  243   3.972   5.992   6.083  0.0480 -0.2474  0.0702
  137GLU     CB  244   3.870   5.860   6.220  0.4610 -0.0347 -0.2778
  137GLU    HB1  245   3.826   5.935   6.286  2.7511 -0.6068  2.0904
  137GLU    HB2  246   3.890   5.776   6.286 -0.7539 -0.3242 -0.2561
  137GLU     CG  247   3.752   5.841   6.120 -0.5596  0.6884  0.8376
  137GLU    HG1  248   3.658   5.830   6.174 -2.7073 -1.6327 -2.8982
  137GLU    HG2  249   3.773   5.747   6.069  0.9955  0.7430  1.3309
  137GLU     CD  250   3.741   5.958   6.014 -0.0559  0.9303  0.4080
  137GLU    OE1  251   3.766   5.938   5.896  0.1452 -0.7422  0.1449
  137GLU    OE2  252   3.694   6.065   6.059  0.4724  0.2066 -0.3547
  137GLU      C  253   4.091   5.994   6.242  0.2139 -0.7500 -0.2866
  137GLU      O  254   4.192   5.941   6.275 -0.3641  0.0881  0.1154
  138PRO      N  255   4.061   6.126   6.277 -0.3443 -0.3996 -0.4787
  138PRO     CD  256   3.942   6.198   6.247  0.2508  0.6171  0.2055
  138PRO    HD1  257   3.849   6.141   6.247  1.2861 -1.2272 -1.6995
  138PRO    HD2  258   3.953   6.250   6.152 -1.2714 -1.7215 -1.3775
  138PRO     CG  259   3.931   6.317   6.339  0.3151  0.6314 -0.7218
  138PRO    HG1  260   3.894   6.287   6.436 -1.0074 -0.0060 -1.4063
  138PRO    HG2  261   3.875   6.396   6.288  0.0443 -0.1923 -1.7338
  138PRO     CB  262   4.077   6.356   6.350 -0.8724  0.9270 -0.3919
  138PRO    HB1  263   4.106   6.421   6.268  1.5364 -0.1125 -0.4488
  138PRO    HB2  264   4.085   6.398   6.451 -1.8499 -2.7091  1.3534
  138PRO     CA  265   4.156   6.220   6.337  0.0333 -0.1868  0.3617
  138PRO     HA  266   4.238   6.239   6.269 -1.8344  1.7967 -1.5013
  138PRO      C  267   4.206   6.168   6.476 -0.0344 -0.2976 -0.8684
  138PRO      O  268   4.130   6.169   6.571 -0.3649  0.5287  0.0249
  139GLU      N  269   4.329   6.108   6.486 -0.0868 -0.4382  0.0105
  139GLU      H  270   4.387   6.098   6.404  1.5701 -1.2545  1.2215
  139GLU     CA  271   4.376   6.048   6.620  0.1904 -1.0398  0.1775
  139GLU     HA  272   4.299   5.989   6.670 -0.8607  2.5350  3.2172
  139GLU     CB  273   4.500   5.963   6.584 -0.2684 -0.3509 -0.1180
  139GLU    HB1  274   4.578   6.037   6.567 -1.6227  1.3922  0.8809
  139GLU    HB2  275   4.481   5.903   6.494 -0.9998 -0.8221  0.3476
  139GLU     CG  276   4.554   5.866   6.692 -0.2588  0.3930 -0.1712
  139GLU    HG1  277   4.485   5.783   6.710  1.9848 -1.3553  0.8713
  139GLU    HG2  278   4.582   5.927   6.778  1.1201 -0.2656 -0.1317
  139GLU     CD  279   4.678   5.800   6.645 -0.2813  0.0038  0.2024
  139GLU    OE1  280   4.762   5.753   6.724  0.2223  0.2626 -0.5218
  139GLU    OE2  281   4.700   5.791   6.522 -0.1484 -0.6418  0.5105
  139GLU      C  282   4.405   6.141   6.739  0.1110 -0.9476  0.3189
  139GLU      O  283   4.380   6.101   6.851 -0.3155 -0.1621  0.1328
  140CALA     N  284   4.459   6.264   6.722  0.4574 -0.1426 -0.1596
  140CALA     H  285   4.480   6.309   6.635  2.6478  2.4045  1.5171
  140CALA    CA  286   4.504   6.351   6.829 -0.1857 -0.6367 -0.5574
  140CALA    HA  287   4.581   6.301   6.888  0.5123  1.5764  0.5162
  140CALA    CB  288   4.580   6.474   6.769  0.3203 -0.1613  0.0823
  140CALA   HB1  289   4.513   6.531   6.704  0.2673 -0.3925 -0.0660
  140CALA   HB2  290   4.664   6.446   6.705  2.1974 -0.1563  2.4108
  140CALA   HB3  291   4.623   6.536   6.848 -0.3427  0.2539  0.1262
  140CALA     C  292   4.403   6.392   6.940 -0.4540 -0.3058  0.1098
  140CALA   OC1  293   4.445   6.383   7.059  0.1442 -0.0629 -0.2085
  140CALA   OC2  294   4.288   6.431   6.904 -0.4348  0.1496  0.0494
  141FAS      C  295   1.411   0.680   5.100 -0.1209  0.1375 -0.5554
  141FAS     C1  296   1.293   0.572   5.130  0.1310 -0.5229 -0.4173
  141FAS      N  297   1.286   0.465   5.021 -1.1220  0.0851  0.5303
  141FAS     C2  298   1.221   0.504   4.892 -0.8238 -0.0727  0.3023
  141FAS     C3  299   1.230   0.656   4.854 -0.4176 -0.2644  0.4543
  141FAS     N1  300   1.369   0.703   4.852 -0.3246 -0.6619  0.4835
  141FAS     C4  301   1.475   0.677   4.955  0.5035 -0.2875 -0.3438
  141FAS      S  302   1.432   0.742   4.702  0.2786 -0.0553  0.1380
  141FAS      O  303   1.499   0.867   4.720 -0.6119  0.1477  0.2731
  141FAS     O1  304   1.481   0.615   4.633  0.6443 -0.0664 -0.0176
  141FAS     C5  305   1.281   0.802   4.615  0.1427  0.6254 -0.5700
  141FAS     C6  306   1.254   0.739   4.493 -0.2079 -0.1684 -1.0623
  141FAS     C7  307   1.146   0.787   4.417  0.2672  0.1998 -0.0210
  141FAS     C8  308   1.058   0.884   4.462 -0.1669  0.7831 -0.0907
  141FAS     C9  309   1.084   0.940   4.584 -0.5777 -0.3725  0.0397
  141FAS    C10  310   1.195   0.905   4.668 -0.1695  0.0756  0.3602
  141FAS    C11  311   1.207   0.980   4.783  0.3456 -0.1145 -0.2529
  141FAS    C12  312   1.107   1.071   4.819 -0.2107 -1.3698  0.1931
  141FAS     N2  313   0.996   1.091   4.746  0.1350 -0.5379  0.0798
  141FAS    C13  314   0.991   1.037   4.626 -0.1416 -1.5526  0.7329
  141FAS      H  315   1.490   0.661   5.173  1.0228 -1.2130 -2.0870
  141FAS     H1  316   1.362   0.778   5.113 -3.6417 -1.1136 -2.7974
  141FAS     H2  317   1.201   0.630   5.122  0.1511 -0.4120  0.1274
  141FAS     H3  318   1.296   0.518   5.225 -0.4818 -0.8171 -0.5616
  141FAS     H4  319   1.381   0.430   5.004 -2.0840 -0.8544 -4.1815
  141FAS     H5  320   1.117   0.474   4.907 -1.7934  2.2092 -1.2726
  141FAS     H6  321   1.268   0.445   4.814  0.5574  1.7621 -0.3016
  141FAS     H7  322   1.171   0.710   4.929 -0.1560  4.5341 -2.3655
  141FAS     H8  323   1.180   0.659   4.757  2.1457  0.2429 -0.9307
  141FAS     H9  324   1.550   0.756   4.965 -0.4658  0.4073  2.3804
  141FAS    H10  325   1.526   0.582   4.936 -0.2862 -0.4177 -1.9776
  141FAS    H11  326   1.317   0.661   4.452 -0.9977 -0.9067 -0.9106
  141FAS    H12  327   1.132   0.746   4.317  3.3387 -0.7343 -0.1678
  141FAS    H13  328   0.968   0.911   4.407 -0.8518 -0.0599  0.5795
  141FAS    H14  329   1.288   0.962   4.853 -0.4462 -1.1558  0.4401
  141FAS    H15  330   1.108   1.116   4.918  0.4056  0.1220 -0.4657
  141FAS    H16  331   0.907   1.062   4.562  0.4114 -0.1727  0.4998
  141FAS    H17  332   1.231   0.389   5.064  1.7839 -0.1218  4.3556
  142SOL     OW  333   5.222   2.207   3.119  0.6612 -0.3313  0.1313
  142SOL    HW2  334   5.271   2.214   3.036  0.1826 -0.0540 -0.1286
  142SOL    HW3  335   5.277   2.150   3.173  1.1000 -0.3209 -0.2876
  142SOL    MW4  336   5.236   2.200   3.115  0.1801  0.8370  0.0751
  143SOL     OW  337   6.049   5.409   0.061  0.1861 -0.3260  0.1364
  143SOL    HW2  338   6.088   5.480   0.111  0.6738 -0.3370 -0.2219
  143SOL    HW3  339   6.110   5.335   0.073  0.1451 -0.4196 -0.2105
  143SOL    MW4  340   6.062   5.408   0.069  0.3213 -0.3809  1.1304
  144SOL     OW  341   3.115   1.354   5.801 -0.2638 -0.4230  0.2043
  144SOL    HW2  342   3.139   1.346   5.709  0.6548  0.5092  0.3447
  144SOL    HW3  343   3.193   1.325   5.849 -0.9203 -1.4069  0.7023
  144SOL    MW4  344   3.128   1.349   5.795  0.2943 -0.2846 -0.8292
  145SOL     OW  345   1.942   0.907   2.121 -0.8106  0.4809 -0.0255
  145SOL    HW2  346   1.986   0.858   2.051 -1.1638 -1.9526  1.3474
  145SOL    HW3  347   1.978   0.996   2.114  1.1851 -0.3683 -1.5677
  145SOL    MW4  348   1.953   0.912   2.111 -0.2917 -0.0152 -0.6465
  146SOL     OW  349   0.265   2.424   2.745 -0.2159 -0.0619  0.2913
  146SOL    HW2  350   0.262   2.364   2.820 -0.4416 -0.8347 -0.3232
  146SOL    HW3  351   0.329   2.490   2.770  0.5523 -0.9357  0.7184
  146SOL    MW4  352   0.273   2.424   2.758  0.1422  0.4040  0.2120
  147SOL     OW  353   2.874   3.270   2.494 -0.3358 -0.0946 -0.4321
  147SOL    HW2  354   2.954   3.239   2.453 -0.4051 -0.2080 -0.4810
  147SOL    HW3  355   2.883   3.245   2.586 -0.7681 -1.0211 -0.6299
  147SOL    MW4  356   2.885   3.263   2.501  0.1403 -0.1303  0.0697
  148SOL     OW  357   0.538   4.036   1.021 -0.0997 -0.0679 -0.8355
  148SOL    HW2  358   0.621   4.083   1.010 -0.1153 -0.4238 -2.7939
  148SOL    HW3  359   0.473   4.091   0.977 -0.5413 -0.7586 -1.0614
  148SOL    MW4  360   0.541   4.050   1.014  0.2152  0.4795  0.8808
  149SOL     OW  361   4.991   2.349   6.226 -0.0492  0.1004 -0.0182
  149SOL    HW2  362   5.057   2.366   6.294  0.7569  1.0825 -1.0199
  149SOL    HW3  363   4.962   2.259   6.243  0.6200  0.0905  1.2074
  149SOL    MW4  364   4.996   2.339   6.237  0.2446 -0.2292 -0.1579
  150SOL     OW  365   6.243   3.391   0.919 -0.2609  0.0125  0.3245
  150SOL    HW2  366   6.167   3.433   0.878 -0.0367  0.3845  0.2909
  150SOL    HW3  367   6.254   3.437   1.002  0.5710  0.6804 -0.1345
  150SOL    MW4  368   6.234   3.403   0.925 -0.4356 -0.1014 -0.4426
  151SOL     OW  369   5.704   3.592   0.762  0.2110  0.0288  0.2198
  151SOL    HW2  370   5.680   3.534   0.834 -1.5505  0.2992 -0.1120
  151SOL    HW3  371   5.672   3.547   0.683 -0.1176  0.8817 -0.1444
  151SOL    MW4  372   5.697   3.578   0.761  0.4505 -0.1855  0.3846
  152SOL     OW  373   1.082   5.456   3.635  0.3214  0.7417  0.0682
  152SOL    HW2  374   1.048   5.434   3.548  2.5305  3.6295 -1.7443
  152SOL    HW3  375   1.032   5.533   3.662 -1.7685 -1.2781  2.4949
  152SOL    MW4  376   1.071   5.463   3.627  0.6234 -0.2222  0.4046
  153SOL     OW  377   5.348   0.331   1.655 -0.3957  0.0027 -0.3805
  153SOL    HW2  378   5.333   0.336   1.561 -1.5265 -0.7381 -0.2567
  153SOL    HW3  379   5.375   0.240   1.671 -0.6165  0.0087  0.0608
  153SOL    MW4  380   5.349   0.320   1.645 -0.2119  0.8280 -0.6334
  154SOL     OW  381   0.000   5.180   3.090  0.5340  0.0227  0.3895
  154SOL    HW2  382  -0.086   5.141   3.077  1.1082 -1.0983 -0.2261
  154SOL    HW3  383  -0.016   5.255   3.146 -0.6207 -1.1446  1.6885
  154SOL    MW4  384  -0.013   5.185   3.095 -0.6058  0.3590  0.0451
  155SOL     OW  385   2.534   5.946   6.172  0.3170  0.0574 -0.2264
  155SOL    HW2  386   2.542   5.885   6.099 -1.2190 -0.3951 -0.0434
  155SOL    HW3  387   2.540   6.033   6.133 -0.5257 -0.1817 -0.8995
  155SOL    MW4  388   2.536   5.949   6.158  0.3274 -0.0405  0.7196
  156SOL     OW  389   4.732   2.852   5.446  0.5099  0.1206 -0.5274
  156SOL    HW2  390   4.768   2.809   5.368  1.6818  1.1026 -0.5560
  156SOL    HW3  391   4.638   2.837   5.440  0.5600  0.2862 -2.1976
  156SOL    MW4  392   4.724   2.844   5.435 -0.7448 -0.2533  0.2587
  157SOL     OW  393   4.913   4.020   2.457 -0.0215 -0.3799  0.1722
  157SOL    HW2  394   4.838   3.984   2.503 -0.9869 -1.6642 -2.2478
  157SOL    HW3  395   4.902   4.115   2.464 -1.4766 -0.5461  0.4425
  157SOL    MW4  396   4.902   4.028   2.464  0.4305  0.3752  0.4743
  158SOL     OW  397   6.309   5.217   5.248  0.1571 -0.2683 -0.0757
  158SOL    HW2  398   6.390   5.252   5.288 -0.1291  1.1452 -0.6641
  158SOL    HW3  399   6.325   5.123   5.240  1.2519 -0.2021  0.9555
  158SOL    MW4  400   6.322   5.209   5.252 -0.5056  0.6695  0.2743
  159SOL     OW  401   3.295   4.533   1.467  0.3478  0.0798  0.1328
  159SOL    HW2  402   3.354   4.512   1.394 -0.4443 -2.8093  0.1724
  159SOL    HW3  403   3.220   4.575   1.425  0.1695 -0.9939 -0.7019
  159SOL    MW4  404   3.293   4.536   1.452  0.1989  0.2129 -0.3307
  160SOL     OW  405   5.473   2.832   3.553 -0.1776  0.1115  0.1622
  160SOL    HW2  406   5.378   2.823   3.556 -0.0256 -2.5500 -0.0553
  160SOL    HW3  407   5.492   2.911   3.604 -2.5632  1.6072 -1.1207
  160SOL    MW4  408   5.463   2.841   3.560  0.7022 -0.8081  0.0697
  161SOL     OW  409   4.523   0.153   5.275 -0.5842 -0.3704 -0.2631
  161SOL    HW2  410   4.556   0.166   5.186  2.4218  1.7032  0.9767
  161SOL    HW3  411   4.570   0.075   5.306  0.9743  0.8353  0.5222
  161SOL    MW4  412   4.534   0.144   5.267  0.5886  0.2998 -0.8518
  162SOL     OW  413   0.346   4.153   3.262  0.3860 -0.9284 -0.0484
  162SOL    HW2  414   0.432   4.114   3.274  1.4747  1.8342  2.4576
  162SOL    HW3  415   0.362   4.230   3.207 -0.3262 -0.0554  0.9205
  162SOL    MW4  416   0.360   4.158   3.257  0.2592 -0.4664 -0.3389
  163SOL     OW  417   1.514   3.734   2.315 -0.3632 -0.5542 -0.0180
  163SOL    HW2  418   1.483   3.677   2.385 -1.8013  0.7550  0.4651
  163SOL    HW3  419   1.435   3.776   2.281  0.5625  0.5677 -0.8645
  163SOL    MW4  420   1.500   3.732   2.320 -0.1348 -0.4178 -0.1623
  164SOL     OW  421   4.489   3.217   1.318 -0.3118  0.2311  0.4178
  164SOL    HW2  422   4.571   3.172   1.337 -0.7357 -0.9064 -0.2956
  164SOL    HW3  423   4.491   3.296   1.372  0.7921 -0.2823  1.1594
  164SOL    MW4  424   4.500   3.222   1.328  0.2636  0.2046 -0.2109
  165SOL     OW  425   1.464   3.195   5.775  0.3157 -0.7355 -0.0924
  165SOL    HW2  426   1.533   3.230   5.719  2.1619 -1.9055  1.3191
  165SOL    HW3  427   1.510   3.136   5.835 -1.4870  0.5679  2.7799
  165SOL    MW4  428   1.479   3.192   5.775  0.4004 -0.1599 -0.3789
  166SOL     OW  429   3.643   5.468   6.238 -0.0750 -0.1421  0.0153
  166SOL    HW2  430   3.627   5.543   6.295  0.0783 -1.2542  1.5530
  166SOL    HW3  431   3.556   5.442   6.209 -0.4629 -1.3058  2.0542
  166SOL    MW4  432   3.629   5.474   6.241  0.2438 -0.2658  0.2560
  167SOL     OW  433   3.347   5.348   1.153 -0.4024 -0.1625  0.3525
  167SOL    HW2  434   3.287   5.284   1.115 -0.2566 -0.3674  0.4565
  167SOL    HW3  435   3.328   5.430   1.108 -1.4850  0.0294  1.1281
  167SOL    MW4  436   3.337   5.350   1.142 -0.7723 -0.1594  0.4059
  168SOL     OW  437   0.207   4.108   3.509  0.3334  0.4162  0.2928
  168SOL    HW2  438   0.130   4.163   3.520 -0.1772 -0.5448  1.8297
  168SOL    HW3  439   0.237   4.126   3.419 -1.4708  1.0637 -0.2205
  168SOL    MW4  440   0.201   4.117   3.498 -0.5197 -0.5822 -0.1474
  169SOL     OW  441   2.390   5.901   4.654 -0.4715 -0.3243  0.1505
  169SOL    HW2  442   2.373   5.950   4.574  0.9048 -1.3815 -0.8413
  169SOL    HW3  443   2.303   5.873   4.684 -1.0262  0.2900 -0.8396
  169SOL    MW4  444   2.376   5.904   4.647 -0.0496 -0.0917 -0.3228
  170SOL     OW  445   1.165   2.588   5.774  0.4528  0.1979 -0.1056
  170SOL    HW2  446   1.110   2.568   5.698 -0.9507 -0.3059  0.9982
  170SOL    HW3  447   1.140   2.677   5.799  0.1029 -0.0391  0.4112
  170SOL    MW4  448   1.155   2.597   5.767 -0.2313 -0.7322  0.2939
  171SOL     OW  449   6.328   1.471   2.984 -0.0372  0.3162 -0.0698
  171SOL    HW2  450   6.298   1.562   2.984 -0.2541  0.2462 -0.2907
  171SOL    HW3  451   6.341   1.450   2.891 -2.5466 -0.7050 -0.2879
  171SOL    MW4  452   6.326   1.480   2.972  0.5559  0.5354  0.3217
  172SOL     OW  453   3.982   2.440   0.992  0.2772  0.6756 -0.4166
  172SOL    HW2  454   3.945   2.484   0.916  0.9335  2.7212  0.3794
  172SOL    HW3  455   3.915   2.450   1.060 -0.6547 -1.8319 -0.8573
  172SOL    MW4  456   3.968   2.447   0.991 -0.0111 -0.8448  0.5267
  173SOL     OW  457   4.136   1.115   1.387  0.0081 -0.0563 -0.0875
  173SOL    HW2  458   4.094   1.139   1.470 -0.8124 -1.2558 -0.1369
  173SOL    HW3  459   4.087   1.165   1.321 -1.8501 -1.9046 -0.2145
  173SOL    MW4  460   4.124   1.125   1.389  0.3956  0.1376 -0.2001
  174SOL     OW  461   5.515   2.328   5.125 -0.0966 -0.1003 -0.1528
  174SOL    HW2  462   5.524   2.233   5.128 -1.1927 -0.2261 -0.3800
  174SOL    HW3  463   5.430   2.345   5.166  0.5077  0.8579  0.7654
  174SOL    MW4  464   5.505   2.318   5.131 -0.2194  0.1143 -0.0221
  175SOL     OW  465   1.867   1.198   3.288  0.5628  0.1068  0.4500
  175SOL    HW2  466   1.903   1.233   3.369  0.8155 -0.0538  0.4060
  175SOL    HW3  467   1.899   1.108   3.284  1.3591  0.4133 -0.3196
  175SOL    MW4  468   1.876   1.191   3.298  0.1058 -0.1176  0.3855
  176SOL     OW  469   4.057   3.872   2.710  0.5878 -0.3394  0.2743
  176SOL    HW2  470   4.016   3.902   2.629  1.1221 -1.4409 -0.4261
  176SOL    HW3  471   3.985   3.832   2.759  0.5487 -1.0526 -0.3496
  176SOL    MW4  472   4.042   3.871   2.706 -0.1754 -0.1079  0.0542
  177SOL     OW  473   2.710   4.015   4.632  0.4435 -0.0928 -0.1745
  177SOL    HW2  474   2.673   4.001   4.545  0.8342  0.1596 -0.3880
  177SOL    HW3  475   2.669   4.096   4.663  0.9904  0.3171 -0.5111
  177SOL    MW4  476   2.700   4.024   4.625  0.3772 -0.3771 -0.3536
  178SOL     OW  477   0.913   4.776   5.896 -0.3962 -0.0483 -0.1752
  178SOL    HW2  478   0.867   4.693   5.902 -2.0806  0.8367 -0.2270
  178SOL    HW3  479   0.949   4.790   5.984  0.3797 -1.0644 -0.3128
  178SOL    MW4  480   0.912   4.767   5.908  0.1222 -0.0488 -0.2844
  179SOL     OW  481   3.042   3.218   4.630 -0.1819  0.1885  0.3100
  179SOL    HW2  482   2.983   3.284   4.667 -0.3983  0.0526  0.2039
  179SOL    HW3  483   3.112   3.269   4.589 -0.9060  0.3810 -0.7211
  179SOL    MW4  484   3.043   3.234   4.630 -0.4496  0.5874  0.3474
  180SOL     OW  485   4.187   5.306   0.862 -0.4286  0.0798 -0.2426
  180SOL    HW2  486   4.153   5.386   0.904 -0.7825 -0.3488  0.2926
  180SOL    HW3  487   4.241   5.265   0.929  0.4585  0.3071 -0.8050
  180SOL    MW4  488   4.190   5.311   0.876 -0.0550  0.1910  0.1828
  181SOL     OW  489   3.696   2.581   5.071 -0.2112  0.2710 -0.0296
  181SOL    HW2  490   3.754   2.599   4.997  0.5357 -0.7092  0.2888
  181SOL    HW3  491   3.731   2.633   5.143  0.6336 -0.7314  0.3091
  181SOL    MW4  492   3.708   2.590   5.071 -0.1118 -0.0576 -0.4655
  182SOL     OW  493   6.149   3.107   2.779 -0.0582  0.0929  0.3036
  182SOL    HW2  494   6.166   3.013   2.790  0.2752  0.2330  1.0679
  182SOL    HW3  495   6.131   3.117   2.686 -0.8626 -0.8525  0.3427
  182SOL    MW4  496   6.149   3.096   2.768  0.2969  0.0961 -0.0358
  183SOL     OW  497   4.499   4.750   2.021 -0.3335 -0.2228 -0.0891
  183SOL    HW2  498   4.565   4.796   1.969  1.5797 -1.0464  1.4783
  183SOL    HW3  499   4.514   4.657   2.002  0.5326 -0.5589  1.9869
  183SOL    MW4  500   4.510   4.743   2.012 -0.7166 -0.1530  0.1911
  184SOL     OW  501   5.978   1.530   6.270 -0.6230  0.4381 -0.3681
  184SOL    HW2  502   6.063   1.527   6.226 -0.0457 -0.8657  0.7420
  184SOL    HW3  503   5.914   1.529   6.199  0.2901 -0.4641 -1.2155
  184SOL    MW4  504   5.980   1.529   6.255 -0.2858  0.2588  0.4493
  185SOL     OW  505   0.401   4.535   5.877 -0.0035 -0.6492 -0.3693
  185SOL    HW2  506   0.412   4.505   5.967 -0.2814  0.4595  0.0576
  185SOL    HW3  507   0.360   4.621   5.886  0.3253 -0.3522 -1.5425
  185SOL    MW4  508   0.397   4.542   5.890 -0.4524  0.1535  0.0284
  186SOL     OW  509   5.654   4.889   4.567  0.3808 -0.5251 -0.1900
  186SOL    HW2  510   5.700   4.968   4.595  0.2304 -0.2360 -0.7437
  186SOL    HW3  511   5.715   4.817   4.584  0.5164 -0.2900  0.3158
  186SOL    MW4  512   5.668   4.890   4.573 -0.1965 -0.0720  0.3114
  187SOL     OW  513   4.151   1.767   1.900 -0.0743  0.3811 -0.2550
  187SOL    HW2  514   4.195   1.850   1.919  0.9373  0.3686 -2.3142
  187SOL    HW3  515   4.212   1.700   1.932  0.5555  0.3983 -1.3866
  187SOL    MW4  516   4.165   1.769   1.907 -0.0167 -0.4723  0.1338
  188SOL     OW  517   1.357   4.211   5.292  0.2624  0.6803  0.7782
  188SOL    HW2  518   1.283   4.240   5.346 -0.2022 -0.5133  0.8245
  188SOL    HW3  519   1.326   4.221   5.202  1.3059  3.3796  0.6274
  188SOL    MW4  520   1.343   4.216   5.288 -0.2187 -0.0796  0.2666
  189SOL     OW  521   3.963   1.032   6.314  0.3155  0.0901  0.0410
  189SOL    HW2  522   3.955   1.115   6.362  1.9581 -0.4208  1.3000
  189SOL    HW3  523   3.886   1.029   6.258 -0.1636  2.1233  0.5076
  189SOL    MW4  524   3.952   1.043   6.313 -0.2913  0.0007  0.4885
  190SOL     OW  525   4.912   0.084   3.196 -0.2183  0.3836  0.1539
  190SOL    HW2  526   4.952   0.112   3.113 -0.3072  2.6431  0.8080
  190SOL    HW3  527   4.959   0.005   3.219  0.3960  0.1766 -1.6289
  190SOL    MW4  528   4.923   0.078   3.188  0.1729 -1.0047 -0.3322
  191SOL     OW  529   3.258   0.392   3.704  0.5354  0.1214  0.0034
  191SOL    HW2  530   3.236   0.457   3.637  2.1494  0.0767 -0.6165
  191SOL    HW3  531   3.318   0.332   3.660  0.3492 -0.8597  1.0479
  191SOL    MW4  532   3.263   0.393   3.689 -0.4547  0.3399 -0.0020
  192SOL     OW  533   2.829   3.370   1.227  0.3122  0.1211  0.1074
  192SOL    HW2  534   2.773   3.368   1.306  0.5172 -0.9068  0.2394
  192SOL    HW3  535   2.917   3.381   1.261  0.7355 -2.8739  0.2677
  192SOL    MW4  536   2.833   3.371   1.242 -0.0073  0.2623  0.0386
  193SOL     OW  537   5.421   4.044   2.716  0.0991 -0.2664  0.4001
  193SOL    HW2  538   5.469   3.969   2.682 -0.8237 -0.8856  0.4105
  193SOL    HW3  539   5.332   4.032   2.683 -0.9423 -1.0592  3.1756
  193SOL    MW4  540   5.415   4.033   2.707  0.6839 -0.2603 -0.1400
  194SOL     OW  541   3.966   0.605   6.135 -0.4265 -0.2783  0.3624
  194SOL    HW2  542   4.056   0.606   6.167 -0.5540 -1.6906  0.8175
  194SOL    HW3  543   3.944   0.697   6.124  1.3968  0.0789 -0.7007
  194SOL    MW4  544   3.975   0.617   6.138  0.2973 -0.0524 -0.2440
  195SOL     OW  545   5.602   4.483   3.374 -0.3380 -0.4196  0.0626
  195SOL    HW2  546   5.672   4.420   3.391  1.8093  2.0581  1.0712
  195SOL    HW3  547   5.607   4.500   3.280  1.5786  0.8891  0.3472
  195SOL    MW4  548   5.612   4.477   3.363  0.7059  0.5449  0.2713
  196SOL     OW  549   5.779   5.591   2.640 -0.2240 -0.8026 -0.1112
  196SOL    HW2  550   5.712   5.653   2.611 -0.0329 -0.3354  0.4207
  196SOL    HW3  551   5.794   5.535   2.565 -0.2684 -0.0784 -0.6712
  196SOL    MW4  552   5.772   5.592   2.627 -0.4312 -0.7171 -0.0858
  197SOL     OW  553   3.316   1.905   2.232  0.0237  0.3395  0.1265
  197SOL    HW2  554   3.346   1.948   2.152 -1.7906  1.9132  0.2163
  197SOL    HW3  555   3.390   1.851   2.260  1.5807  1.6550 -1.2667
  197SOL    MW4  556   3.329   1.904   2.225 -0.3569 -0.2410  0.1394
  198SOL     OW  557   3.366   4.219   2.513 -0.4509 -0.4703 -0.2015
  198SOL    HW2  558   3.418   4.143   2.486  0.4455  0.3091 -0.7307
  198SOL    HW3  559   3.340   4.199   2.603  1.9912 -0.2805  0.6355
  198SOL    MW4  560   3.370   4.206   2.521 -1.0172 -0.2737  0.3219
  199SOL     OW  561   3.085   5.109   3.201  0.1309 -0.6673  0.3921
  199SOL    HW2  562   3.118   5.107   3.291  1.1943  0.1319  0.0445
  199SOL    HW3  563   3.050   5.021   3.186 -2.5821 -0.0598  2.4523
  199SOL    MW4  564   3.085   5.097   3.210  0.1638  0.2110 -0.2117
  200SOL     OW  565   1.180   5.070   4.539  0.2996  0.5903  0.4186
  200SOL    HW2  566   1.086   5.065   4.526  0.4548 -0.8984 -0.3018
  200SOL    HW3  567   1.194   5.157   4.577 -1.4185  0.5671  1.2022
  200SOL    MW4  568   1.170   5.081   4.542 -0.3201 -0.4119  0.2958
  201SOL     OW  569   5.041   2.445   2.773 -0.1526  0.0068  0.1269
  201SOL    HW2  570   4.995   2.434   2.690 -0.3092  0.2926  0.1736
  201SOL    HW3  571   5.014   2.371   2.826 -0.3071  0.0016  0.0396
  201SOL    MW4  572   5.032   2.434   2.769  0.1818 -0.2723 -0.1281
  202SOL     OW  573   6.111   3.057   0.214 -0.0430 -0.1669  0.1113
  202SOL    HW2  574   6.096   2.997   0.142  0.3335 -0.0788 -0.0397
  202SOL    HW3  575   6.206   3.068   0.219 -0.1424  1.7566 -0.9999
  202SOL    MW4  576   6.121   3.051   0.205  0.1895 -0.1326  0.1507
  203SOL     OW  577   3.858   2.347   5.093  0.0192  1.0345  0.2315
  203SOL    HW2  578   3.928   2.350   5.158 -0.3400 -1.2447  0.7942
  203SOL    HW3  579   3.815   2.432   5.101  0.6756  1.2381  2.2033
  203SOL    MW4  580   3.862   2.359   5.102  0.3552 -0.7218  0.1935
  204SOL     OW  581   2.339   4.989   5.278 -0.1096 -0.6826 -0.1698
  204SOL    HW2  582   2.262   5.043   5.293  1.3802  1.4165  0.4176
  204SOL    HW3  583   2.370   4.965   5.365  1.9067  1.6256 -0.1346
  204SOL    MW4  584   2.333   4.993   5.291 -0.1442  0.2957  0.2791
  205SOL     OW  585   3.281   0.450   6.428 -0.2889 -0.3594  0.7200
  205SOL    HW2  586   3.242   0.496   6.353 -0.3226  1.1527  1.6380
  205SOL    HW3  587   3.365   0.493   6.442  0.0710 -1.1619  1.0704
  205SOL    MW4  588   3.287   0.461   6.420 -0.8126 -0.1467  0.2560
  206SOL     OW  589   5.028   0.788   1.610  0.0994  0.3846  0.2604
  206SOL    HW2  590   5.116   0.752   1.602  0.1208  0.2977  0.8730
  206SOL    HW3  591   4.976   0.738   1.548  0.6131  0.8761 -0.5884
  206SOL    MW4  592   5.033   0.777   1.601 -0.1409 -0.6872 -1.1260
  207SOL     OW  593   4.683   2.102   2.270 -0.8883  0.2990 -0.5727
  207SOL    HW2  594   4.706   2.163   2.200 -0.5690  2.7282  1.5112
  207SOL    HW3  595   4.588   2.104   2.273 -0.8507  2.0238  0.5112
  207SOL    MW4  596   4.674   2.110   2.261 -0.3260  0.0446 -0.1408
  208SOL     OW  597   3.811   3.816   5.261 -0.2171  0.4770 -0.4776
  208SOL    HW2  598   3.847   3.883   5.319 -1.6470  1.5420 -0.7805
  208SOL    HW3  599   3.750   3.863   5.205 -2.2792 -1.2531  0.1843
  208SOL    MW4  600   3.808   3.831   5.261  0.5551 -0.6047 -0.0610
  209SOL     OW  601   6.202   4.205   5.083 -0.5383 -0.5848  0.0395
  209SOL    HW2  602   6.174   4.143   5.015 -0.3610 -0.7505  0.1160
  209SOL    HW3  603   6.121   4.227   5.129 -0.5379 -1.1083  0.2977
  209SOL    MW4  604   6.188   4.200   5.080 -0.3879  0.4591 -0.2360
  210SOL     OW  605   2.838   1.359   0.205 -0.1147  0.0024 -0.0704
  210SOL    HW2  606   2.815   1.320   0.289  0.2787 -0.7729 -0.3129
  210SOL    HW3  607   2.805   1.449   0.211  3.8518  1.5859  2.7910
  210SOL    MW4  608   2.831   1.366   0.217 -0.1532 -0.2464  0.2781
  211SOL     OW  609   4.081   2.337   4.520 -0.1441 -0.2327 -0.6481
  211SOL    HW2  610   4.056   2.426   4.547  0.6338 -0.4819  1.0078
  211SOL    HW3  611   4.024   2.318   4.445 -0.8712  1.3527 -0.5463
  211SOL    MW4  612   4.070   2.347   4.513  0.0142 -0.2409 -0.5881
  212SOL     OW  613   3.862   3.648   1.774 -0.1897  0.2128 -0.5892
  212SOL    HW2  614   3.875   3.553   1.777  2.5984  0.5300  1.9558
  212SOL    HW3  615   3.910   3.677   1.697  0.7009 -0.2820 -0.2327
  212SOL    MW4  616   3.870   3.639   1.765 -0.1596 -0.1389  0.1991
  213SOL     OW  617   1.657   6.334   4.365 -0.3839 -0.9225 -0.5321
  213SOL    HW2  618   1.598   6.265   4.336 -1.1517 -0.4594 -0.0884
  213SOL    HW3  619   1.654   6.330   4.461 -1.1957  0.3345 -0.4784
  213SOL    MW4  620   1.649   6.324   4.374 -0.2513 -0.2120  0.3436
  214SOL     OW  621   4.575   3.254   1.049 -0.3124 -0.4485  0.1211
  214SOL    HW2  622   4.664   3.275   1.079  0.2950 -2.1214 -0.4333
  214SOL    HW3  623   4.526   3.239   1.130 -0.5815  2.0574  0.5232
  214SOL    MW4  624   4.580   3.255   1.064  0.2725 -0.0252  0.3646
  215SOL     OW  625   0.611   3.348   1.161 -0.0908  0.1677 -0.3801
  215SOL    HW2  626   0.544   3.306   1.108 -1.2192  0.7431  0.5409
  215SOL    HW3  627   0.605   3.441   1.137 -0.9567  0.5184  1.0415
  215SOL    MW4  628   0.601   3.355   1.151  0.2988  0.4609  0.6192
  216SOL     OW  629   6.175   4.221   0.645  0.7332  0.1727 -0.4530
  216SOL    HW2  630   6.167   4.268   0.562  0.5881  1.6308  0.3544
  216SOL    HW3  631   6.260   4.248   0.680  0.5530  0.0105  0.1297
  216SOL    MW4  632   6.185   4.231   0.639 -0.3338 -0.4293 -0.0546
  217SOL     OW  633   4.336   3.803   6.293 -0.6595  0.5926 -0.1251
  217SOL    HW2  634   4.364   3.841   6.377 -1.5509 -0.0866  0.4936
  217SOL    HW3  635   4.351   3.873   6.229 -0.4172  1.2898  0.6778
  217SOL    MW4  636   4.342   3.818   6.296 -0.5514 -0.3338  0.0573
  218SOL     OW  637   2.577   3.919   0.192  0.0366 -0.2386 -0.0140
  218SOL    HW2  638   2.517   3.860   0.146  0.9082 -1.0925 -0.0654
  218SOL    HW3  639   2.528   3.948   0.269 -0.6456 -0.4791 -0.3523
  218SOL    MW4  640   2.562   3.915   0.196  0.3960  0.1171 -0.0642
  219SOL     OW  641   5.465   4.637   2.325  0.4365  0.7567  0.3744
  219SOL    HW2  642   5.385   4.623   2.375  0.6439  2.5295  1.2921
  219SOL    HW3  643   5.534   4.642   2.391  1.2916 -0.5093 -0.3930
  219SOL    MW4  644   5.463   4.636   2.340 -0.4714 -0.3293  0.0618
  220SOL     OW  645   0.023   5.691   1.263  0.3455 -0.3845  0.4103
  220SOL    HW2  646   0.007   5.785   1.255 -0.2738 -0.6018 -1.3136
  220SOL    HW3  647   0.101   5.685   1.317  0.5713  1.1355  0.3085
  220SOL    MW4  648   0.031   5.703   1.269 -0.1344  0.1612 -0.3365
  221SOL     OW  649   2.017   1.405   4.235 -0.5285  0.5364  0.1699
  221SOL    HW2  650   2.024   1.488   4.282  0.5441  1.2157 -1.1243
  221SOL    HW3  651   1.997   1.341   4.303  4.5746  0.8213  2.3773
  221SOL    MW4  652   2.016   1.407   4.250 -0.3989  0.5703  0.2605
  222SOL     OW  653   1.385   3.949   2.550 -0.1879 -0.1223  0.7384
  222SOL    HW2  654   1.410   4.016   2.486  0.9181 -0.7376  0.5064
  222SOL    HW3  655   1.295   3.927   2.527  0.4275 -0.9204 -1.1845
  222SOL    MW4  656   1.376   3.955   2.538  0.2486  0.0991 -0.1355
  223SOL     OW  657   5.064   2.464   4.163  0.3004 -0.7435  0.6273
  223SOL    HW2  658   5.073   2.541   4.219 -0.8565 -0.0005 -0.1671
  223SOL    HW3  659   5.152   2.428   4.158  1.1194  1.1858  0.1266
  223SOL    MW4  660   5.077   2.469   4.170  0.3803 -0.8132  0.2461
  224SOL     OW  661   1.609   4.831   3.498  0.2052 -0.3710  0.2452
  224SOL    HW2  662   1.593   4.890   3.423 -0.6911 -0.3026  0.4777
  224SOL    HW3  663   1.678   4.773   3.468 -2.9136 -3.1824 -2.3452
  224SOL    MW4  664   1.616   4.831   3.484 -0.0697  0.4467 -0.3160
  225SOL     OW  665   4.886   6.356   5.029  0.6498 -1.0126 -0.1154
  225SOL    HW2  666   4.836   6.436   5.015  1.0188 -0.6937  0.3654
  225SOL    HW3  667   4.926   6.337   4.944  1.1263 -0.3027 -0.0557
  225SOL    MW4  668   4.885   6.364   5.016 -0.2045  0.4329 -0.2542
  226SOL     OW  669   2.293   3.154   0.131  0.0950 -0.3191  0.3483
  226SOL    HW2  670   2.384   3.157   0.158  0.2012 -1.0842  0.0902
  226SOL    HW3  671   2.244   3.189   0.205  0.5130 -0.8703  0.8890
  226SOL    MW4  672   2.298   3.159   0.144 -0.7153  0.3060  0.1397
  227SOL     OW  673   0.861   3.343   3.257 -0.8574 -0.2236 -0.0543
  227SOL    HW2  674   0.862   3.324   3.350  0.9175  0.1060  0.0315
  227SOL    HW3  675   0.921   3.417   3.247 -2.2740  0.8215 -1.2575
  227SOL    MW4  676   0.869   3.350   3.268 -0.2092  0.1363  0.3940
  228SOL     OW  677   4.135   4.421   3.109 -0.6295 -0.1416  0.1503
  228SOL    HW2  678   4.175   4.341   3.143  1.7442  0.4411 -0.9901
  228SOL    HW3  679   4.175   4.432   3.022  0.4154  3.0607  0.8898
  228SOL    MW4  680   4.146   4.412   3.102  0.1280 -0.4861  0.1333
  229SOL     OW  681   3.714   1.648   5.476 -0.3075 -0.3449 -0.1550
  229SOL    HW2  682   3.627   1.664   5.514 -0.2437  1.5857 -0.6827
  229SOL    HW3  683   3.756   1.734   5.476  0.6956 -0.7725 -2.1127
  229SOL    MW4  684   3.708   1.662   5.481  0.0261  0.1084  0.1873
  230SOL     OW  685   0.141   5.715   0.700 -0.0654 -0.0596  0.4613
  230SOL    HW2  686   0.060   5.741   0.656 -0.7257 -0.9320  1.1407
  230SOL    HW3  687   0.202   5.787   0.681 -0.0846 -0.6687 -2.4180
  230SOL    MW4  688   0.139   5.728   0.692 -0.6612 -0.0854 -0.3325
  231SOL     OW  689   1.169   0.036   3.244 -0.4944 -0.0445 -0.0136
  231SOL    HW2  690   1.260   0.016   3.225 -0.3349  0.7545 -0.1524
  231SOL    HW3  691   1.156   0.007   3.334 -0.5276 -1.5078 -0.4755
  231SOL    MW4  692   1.179   0.030   3.254  0.1412  0.0428  0.0021
  232SOL     OW  693   3.032   4.676   0.501  0.4526 -0.4456 -0.1288
  232SOL    HW2  694   2.986   4.611   0.554  0.9952 -1.3980 -0.8134
  232SOL    HW3  695   2.984   4.758   0.518  0.6257 -0.7096  1.8234
  232SOL    MW4  696   3.019   4.678   0.510 -0.1583 -0.2841  0.1547
  233SOL     OW  697   4.015   5.893   2.602 -0.3153 -0.0250  0.4598
  233SOL    HW2  698   4.042   5.922   2.515 -0.3050  0.9873  0.7907
  233SOL    HW3  699   3.937   5.840   2.586 -0.8775  0.9452 -0.0950
  233SOL    MW4  700   4.008   5.890   2.588  0.5084 -0.4683  0.8045
  234SOL     OW  701   4.507   4.705   3.735  0.0124 -0.2124  0.3443
  234SOL    HW2  702   4.516   4.754   3.653  0.8323 -0.4620  0.2694
  234SOL    HW3  703   4.432   4.647   3.721 -0.4350  0.4140  0.1221
  234SOL    MW4  704   4.498   4.704   3.722 -0.3472  0.2223 -0.3613
  235SOL     OW  705   5.703   2.373   0.971  0.1846  0.1361 -0.1037
  235SOL    HW2  706   5.701   2.376   0.876  0.1308  1.1578 -0.0794
  235SOL    HW3  707   5.659   2.291   0.993 -0.9260  0.4950 -0.9209
  235SOL    MW4  708   5.697   2.363   0.962  0.0703 -0.5729 -0.5388
  236SOL     OW  709   3.988   2.353   1.930  0.3392  0.1256  0.4733
  236SOL    HW2  710   4.024   2.341   2.018 -0.7384  0.9782  1.0546
  236SOL    HW3  711   3.943   2.437   1.934 -0.8790 -0.4478 -0.4991
  236SOL    MW4  712   3.987   2.362   1.942 -0.6190  0.4617  0.2854
  237SOL     OW  713   1.159   1.456   2.743 -0.2868 -0.1259  0.1494
  237SOL    HW2  714   1.154   1.480   2.836 -0.9427 -0.0490  0.0949
  237SOL    HW3  715   1.081   1.495   2.704  0.3615  0.4685 -0.5855
  237SOL    MW4  716   1.148   1.464   2.750 -0.4571  0.1514  0.1944
  238SOL     OW  717   3.884   3.372   1.768  0.2657  0.4702 -0.2127
  238SOL    HW2  718   3.950   3.386   1.700 -0.0709  0.6423 -0.5092
  238SOL    HW3  719   3.907   3.288   1.807  0.5676  0.4559 -0.4238
  238SOL    MW4  720   3.895   3.363   1.764 -0.4734 -0.4518  0.1912
  239SOL     OW  721   4.989   5.210   5.211  0.4142 -0.5686 -0.0484
  239SOL    HW2  722   4.963   5.293   5.170  1.7079  0.3089  0.8416
  239SOL    HW3  723   4.928   5.146   5.174 -0.1341  0.6306 -1.3428
  239SOL    MW4  724   4.977   5.213   5.200 -0.1820  0.2263  0.0785
  240SOL     OW  725   0.716   4.584   4.332  0.7192 -0.1834 -0.1569
  240SOL    HW2  726   0.811   4.579   4.337  0.7374  0.7795  0.5380
  240SOL    HW3  727   0.687   4.601   4.421 -0.0701  0.1510 -0.4647
  240SOL    MW4  728   0.724   4.586   4.344  0.0747  0.1362  0.0824
  241SOL     OW  729   1.361   1.902   3.867 -0.1740 -0.3034  0.0394
  241SOL    HW2  730   1.387   1.879   3.956 -0.3013 -0.2440  0.0914
  241SOL    HW3  731   1.444   1.924   3.823 -0.1860  0.3811  0.3516
  241SOL    MW4  732   1.376   1.902   3.873  0.2465 -0.0365  0.1090
  242SOL     OW  733   5.968   0.989   4.046 -0.2012 -0.2054  0.1773
  242SOL    HW2  734   5.946   1.074   4.008 -1.4194 -0.6296 -0.1271
  242SOL    HW3  735   5.883   0.947   4.061  0.1757 -0.0581  3.4583
  242SOL    MW4  736   5.954   0.994   4.043 -0.0914 -0.7293  0.6096
  243SOL     OW  737   1.877   1.621   4.861  0.5309 -0.0234 -0.2096
  243SOL    HW2  738   1.903   1.540   4.817 -0.5081 -1.9334  2.3934
  243SOL    HW3  739   1.807   1.656   4.807  0.9383 -0.8839 -1.3523
  243SOL    MW4  740   1.872   1.615   4.848 -0.3289  0.5399 -0.1528
  244SOL     OW  741   5.930   4.399   6.153 -0.2992 -0.3739 -0.3018
  244SOL    HW2  742   5.972   4.317   6.178  0.8013  0.0901 -0.5611
  244SOL    HW3  743   5.865   4.374   6.088 -0.9397 -1.1975  0.6258
  244SOL    MW4  744   5.927   4.385   6.148  0.0956 -0.0506 -0.1547
  245SOL     OW  745   2.041   0.186   4.290  0.3094 -0.3266 -0.3855
  245SOL    HW2  746   1.991   0.237   4.353  0.1741 -1.7389  0.7101
  245SOL    HW3  747   2.122   0.164   4.336  0.5941 -0.6508 -1.0281
  245SOL    MW4  748   2.045   0.190   4.304 -0.5517  0.0458 -0.5331
  246SOL     OW  749   0.838   2.219   0.802  0.3852 -0.3552  0.0599
  246SOL    HW2  750   0.923   2.204   0.759  0.9377  0.4790  0.8234
  246SOL    HW3  751   0.803   2.132   0.818  1.0511 -0.7082 -0.3752
  246SOL    MW4  752   0.845   2.206   0.798  0.3040 -0.1989  0.3312
  247SOL     OW  753   1.860   1.224   0.911 -0.6978 -0.7223 -0.4550
  247SOL    HW2  754   1.939   1.277   0.900 -1.0449 -0.0579  0.1877
  247SOL    HW3  755   1.892   1.139   0.943 -0.2488 -0.4406 -0.1430
  247SOL    MW4  756   1.875   1.220   0.914  0.1470 -0.0871  0.7459
  248SOL     OW  757   3.642   2.535   2.565 -0.2291  0.1799 -0.5727
  248SOL    HW2  758   3.671   2.446   2.584  0.2302  0.1698 -1.2598
  248SOL    HW3  759   3.718   2.576   2.523 -0.4259  0.9047 -0.2392
  248SOL    MW4  760   3.656   2.528   2.562  0.0337  0.1109  0.2769
  249SOL     OW  761   2.407   5.822   2.595  0.3293 -0.3330  0.3110
  249SOL    HW2  762   2.314   5.844   2.598  0.1467 -1.1906  1.4919
  249SOL    HW3  763   2.413   5.746   2.537  0.4712  0.3975 -0.6763
  249SOL    MW4  764   2.396   5.815   2.588 -0.0053  0.2671 -0.2153
  250SOL     OW  765   5.310   1.462   0.087 -0.4905  0.1736 -0.1880
  250SOL    HW2  766   5.367   1.537   0.103  0.3170 -0.9795  3.2384
  250SOL    HW3  767   5.228   1.500   0.057  0.0581  2.4042  0.9528
  250SOL    MW4  768   5.307   1.477   0.085 -0.0335  0.5768  0.3185
  251SOL     OW  769   2.838   1.340   1.649 -0.6647 -0.5546  0.0865
  251SOL    HW2  770   2.864   1.408   1.712 -0.1276 -2.2948  1.8617
  251SOL    HW3  771   2.743   1.348   1.644 -0.5752  0.5515 -0.0115
  251SOL    MW4  772   2.829   1.350   1.657  0.2434  0.3823  0.2733
  252SOL     OW  773   5.845   2.958   4.973  0.3484  0.0880  0.5421
  252SOL    HW2  774   5.867   3.041   5.014  0.6064  0.7988 -0.9922
  252SOL    HW3  775   5.774   2.979   4.913 -0.3326 -1.0225  0.9271
  252SOL    MW4  776   5.839   2.972   4.971  0.4055  0.3954  0.0401
  253SOL     OW  777   1.839   2.288   4.979  0.4567 -0.0619  0.1119
  253SOL    HW2  778   1.819   2.373   5.019  0.9966  0.0903  0.0745
  253SOL    HW3  779   1.921   2.303   4.932  0.3171 -0.4899 -0.2708
  253SOL    MW4  780   1.847   2.301   4.978 -0.1862  0.2870 -0.9152
  254SOL     OW  781   0.578   4.781   5.966  0.4652 -0.0722 -0.2094
  254SOL    HW2  782   0.566   4.760   5.873  0.2353 -0.8577 -0.0048
  254SOL    HW3  783   0.607   4.699   6.006  0.0168  0.1165  0.5177
  254SOL    MW4  784   0.580   4.768   5.959 -0.0059  0.1470  0.2582
  255SOL     OW  785   5.239   3.113   2.525  0.2728  0.0999  0.2264
  255SOL    HW2  786   5.301   3.184   2.543  1.0800 -0.6806  0.6340
  255SOL    HW3  787   5.160   3.157   2.495  0.9392  1.1393 -0.0621
  255SOL    MW4  788   5.237   3.128   2.524 -0.1770 -0.1003  0.4431
  256SOL     OW  789   3.449   5.762   0.323  0.0997 -0.1179  0.2692
  256SOL    HW2  790   3.356   5.786   0.326  0.0649  0.0117 -0.9330
  256SOL    HW3  791   3.478   5.765   0.414 -0.8294  0.8516  0.5597
  256SOL    MW4  792   3.440   5.766   0.335  0.1782  0.1206 -0.4991
  257SOL     OW  793   5.042   2.509   1.333 -0.0934 -0.5251 -0.5310
  257SOL    HW2  794   5.109   2.442   1.318 -0.1033 -0.5331 -0.5392
  257SOL    HW3  795   5.081   2.567   1.399  0.1021 -0.2738 -0.8632
  257SOL    MW4  796   5.056   2.508   1.340  0.8926  0.2338  0.2543
  258SOL     OW  797   3.131   2.064   1.831 -0.0649  0.6418 -0.4075
  258SOL    HW2  798   3.080   2.010   1.770  0.1108 -0.7819  0.6759
  258SOL    HW3  799   3.070   2.087   1.900  0.1794  0.8052 -0.2445
  258SOL    MW4  800   3.116   2.060   1.832  0.2922 -0.6977 -0.3696
  259SOL     OW  801   1.548   1.752   5.646  0.7409  0.8005  0.0503
  259SOL    HW2  802   1.590   1.725   5.728  1.7223 -2.0198 -1.2543
  259SOL    HW3  803   1.618   1.795   5.597  1.0511 -0.3165 -0.5173
  259SOL    MW4  804   1.563   1.754   5.650 -0.0822  0.3454 -1.0796
  260SOL     OW  805   4.996   2.183   3.295 -0.7684 -0.5462 -0.4025
  260SOL    HW2  806   4.919   2.155   3.245  0.0122 -1.4466 -1.1361
  260SOL    HW3  807   5.068   2.180   3.232  0.0060 -0.4211  0.4560
  260SOL    MW4  808   4.995   2.179   3.280  0.4405  0.2531 -0.4146
  261SOL     OW  809   4.607   0.213   3.528 -0.4660  0.5211 -0.2815
  261SOL    HW2  810   4.545   0.160   3.578 -0.2293  0.3585 -0.1589
  261SOL    HW3  811   4.666   0.249   3.594 -0.1062  0.2440 -0.4453
  261SOL    MW4  812   4.606   0.211   3.544  0.1974  0.3724 -0.0995
  262SOL     OW  813   5.294   1.737   5.274  0.0608  0.6114 -0.1068
  262SOL    HW2  814   5.386   1.714   5.261  0.5288  1.4530  1.5126
  262SOL    HW3  815   5.262   1.672   5.337 -0.3565  0.5852 -0.3410
  262SOL    MW4  816   5.302   1.725   5.281  0.4717 -0.3894  0.1486
  263SOL     OW  817   0.522   1.319   5.621  0.8813  0.1121 -0.2061
  263SOL    HW2  818   0.557   1.396   5.577  0.5190  1.1509  1.2807
  263SOL    HW3  819   0.437   1.346   5.654  1.0297 -0.7242  0.9038
  263SOL    MW4  820   0.516   1.333   5.619  0.3036  0.2312  0.1153
  264SOL     OW  821   3.185   5.281   0.770  0.0116  0.2936 -0.3757
  264SOL    HW2  822   3.183   5.186   0.758  2.2209  0.0767  0.4280
  264SOL    HW3  823   3.177   5.317   0.682  0.6271 -0.7075 -0.8559
  264SOL    MW4  824   3.184   5.273   0.757  0.9274 -0.4074 -0.5214
  265SOL     OW  825   0.823   0.427   2.731  0.2842  0.5381  0.1135
  265SOL    HW2  826   0.866   0.510   2.749  1.5409 -0.1580  0.4199
  265SOL    HW3  827   0.886   0.378   2.677 -1.1650  0.4599 -1.6130
  265SOL    MW4  828   0.837   0.432   2.726 -0.4247  0.7639  0.0539
  266SOL     OW  829   5.640   4.957   0.350 -0.1093  0.4424 -0.0020
  266SOL    HW2  830   5.574   4.985   0.413  1.1303 -0.3252  1.7172
  266SOL    HW3  831   5.596   4.892   0.295 -1.8152  2.5821 -1.3744
  266SOL    MW4  832   5.626   4.952   0.351 -0.7327 -0.1748 -0.1345
  267SOL     OW  833   3.955   1.253   2.919 -1.1204 -0.2393 -0.8537
  267SOL    HW2  834   4.011   1.288   2.988 -1.1295 -0.4159 -0.7580
  267SOL    HW3  835   4.016   1.217   2.854 -1.1432 -1.3411 -0.2761
  267SOL    MW4  836   3.970   1.253   2.919  0.4886 -0.3915  0.2832
  268SOL     OW  837   3.888   4.357   4.210 -0.2336 -0.3424 -0.1990
  268SOL    HW2  838   3.834   4.412   4.265  0.2610  0.1297 -0.1747
  268SOL    HW3  839   3.836   4.278   4.195 -1.1403  0.3214 -0.6195
  268SOL    MW4  840   3.874   4.353   4.215  0.3647 -0.1444 -0.2874
  269SOL     OW  841   4.919   5.814   5.976 -0.4330  0.0580 -0.0042
  269SOL    HW2  842   4.857   5.760   6.025  0.8538 -0.8991  0.6434
  269SOL    HW3  843   5.005   5.787   6.009  0.3301  1.4616 -0.7402
  269SOL    MW4  844   4.922   5.803   5.987 -0.3846 -0.0166  0.2946
  270SOL     OW  845   2.750   2.112   4.269 -0.3207 -0.1617 -0.2740
  270SOL    HW2  846   2.753   2.019   4.292 -0.9901 -0.0760  0.1859
  270SOL    HW3  847   2.833   2.128   4.224 -1.0291 -1.4521 -2.1832
  270SOL    MW4  848   2.761   2.102   4.266  0.2550  0.0300  0.2259
  271SOL     OW  849   3.030   3.650   4.251  0.3278  0.2932  0.2724
  271SOL    HW2  850   3.071   3.678   4.333  0.3077 -0.4073  0.5354
  271SOL    HW3  851   2.960   3.591   4.279  0.0500  0.3769 -0.2364
  271SOL    MW4  852   3.026   3.646   4.266  0.1899 -0.2340  0.2260
  272SOL     OW  853   4.513   0.836   0.804 -0.4586 -0.1604  0.1091
  272SOL    HW2  854   4.539   0.878   0.723 -0.3069  0.7143  0.6029
  272SOL    HW3  855   4.506   0.743   0.782  1.2666 -0.1803 -0.4982
  272SOL    MW4  856   4.515   0.829   0.791  0.1526  0.3074 -0.1683
  273SOL     OW  857   5.971   2.461   6.399  0.4908 -0.2373  0.5202
  273SOL    HW2  858   5.933   2.539   6.359  0.9462  0.1170  0.7690
  273SOL    HW3  859   5.896   2.411   6.430  0.2135  0.3562  0.8270
  273SOL    MW4  860   5.957   2.465   6.398 -0.3860  0.2223  0.4233
  274SOL     OW  861   6.280   2.190   4.361  0.7842  0.6877  0.1620
  274SOL    HW2  862   6.350   2.250   4.385  1.5968 -0.4679  0.7767
  274SOL    HW3  863   6.324   2.107   4.344 -0.0801  0.6871 -2.5814
  274SOL    MW4  864   6.295   2.187   4.362  0.6216  0.2666 -0.1532
  275SOL     OW  865   0.122   5.167   5.538  0.5516  0.6769  0.1381
  275SOL    HW2  866   0.157   5.224   5.469 -0.2235  2.0095  0.8199
  275SOL    HW3  867   0.183   5.177   5.611 -0.2869  1.6769  0.7225
  275SOL    MW4  868   0.135   5.176   5.538 -0.2915 -0.5057 -0.5743
  276SOL     OW  869   2.234   3.745   0.195 -0.5105 -0.3613 -0.3545
  276SOL    HW2  870   2.240   3.655   0.162  2.2025 -0.4930  0.2691
  276SOL    HW3  871   2.268   3.799   0.123 -0.8025  0.0334 -0.1995
  276SOL    MW4  872   2.239   3.740   0.181 -0.0633  0.3799  0.3401
  277SOL     OW  873   1.777   3.906   0.049 -0.6704  0.1472 -0.3565
  277SOL    HW2  874   1.817   3.832   0.095  0.9053  1.8081  1.0617
  277SOL    HW3  875   1.749   3.869  -0.035 -0.6464 -2.2187  0.5988
  277SOL    MW4  876   1.779   3.891   0.044  0.6276 -0.2939 -0.0616
  278SOL     OW  877   1.660   2.813   0.416 -0.2638 -0.2223 -0.5440
  278SOL    HW2  878   1.736   2.760   0.440  1.7849  1.6674 -2.3393
  278SOL    HW3  879   1.635   2.857   0.498 -0.1233 -1.6308  0.2953
  278SOL    MW4  880   1.667   2.812   0.430 -0.3733  0.3987  0.0428
  279SOL     OW  881   2.908   1.851   2.877 -0.2591  0.1335  0.1261
  279SOL    HW2  882   2.936   1.920   2.817 -1.6222 -0.3852 -1.1701
  279SOL    HW3  883   2.813   1.859   2.880 -0.4310 -1.5711  0.0788
  279SOL    MW4  884   2.899   1.861   2.870  0.0657  0.0464 -0.4602
  280SOL     OW  885   0.949   3.324   5.031  0.0708  0.4598  0.3775
  280SOL    HW2  886   0.889   3.254   5.006 -0.3200  0.8129  0.3182
  280SOL    HW3  887   0.983   3.357   4.948  2.1748 -1.2826  0.4442
  280SOL    MW4  888   0.945   3.319   5.017 -0.0232 -0.0640 -0.0402
  281SOL     OW  889   2.159   5.538   6.070  0.4716  0.1483  0.3537
  281SOL    HW2  890   2.107   5.615   6.091  1.6054  1.3506 -1.0658
  281SOL    HW3  891   2.188   5.552   5.980  2.7477 -0.7312  0.8829
  281SOL    MW4  892   2.156   5.550   6.061  0.1776  0.2337 -0.2023
  282SOL     OW  893   0.408   0.451   6.211  0.2899  0.4715 -0.0740
  282SOL    HW2  894   0.499   0.477   6.198  0.8739 -0.0741  2.4092
  282SOL    HW3  895   0.369   0.522   6.262 -0.2354 -0.0261  0.2297
  282SOL    MW4  896   0.415   0.463   6.216 -0.4337  0.7392  0.1647
  283SOL     OW  897   5.352   3.546   3.594 -0.5578 -0.2698 -0.0019
  283SOL    HW2  898   5.442   3.546   3.628 -0.6295  1.0467  0.2203
  283SOL    HW3  899   5.337   3.455   3.569  0.5244 -0.6935  0.7842
  283SOL    MW4  900   5.362   3.534   3.595 -0.0074 -0.2085 -0.1881
  284SOL     OW  901   0.163   1.041   3.538  0.1094  0.0468  0.0247
  284SOL    HW2  902   0.068   1.036   3.551  0.2677 -0.4239  1.1850
  284SOL    HW3  903   0.191   1.114   3.593  0.4499  0.0303 -0.1248
  284SOL    MW4  904   0.154   1.050   3.547  0.0595  0.0804 -0.2347
  285SOL     OW  905   1.196   5.323   4.643 -0.2179  0.2475 -0.1813
  285SOL    HW2  906   1.102   5.307   4.642  0.1677 -2.4779  0.5146
  285SOL    HW3  907   1.220   5.320   4.736  0.5250  1.3074 -0.3148
  285SOL    MW4  908   1.187   5.321   4.655 -0.2124  0.2647 -0.0303
  286SOL     OW  909   2.495   4.834   3.965  0.0951  0.0328  0.1555
  286SOL    HW2  910   2.534   4.922   3.971  0.2948 -0.0071 -0.5337
  286SOL    HW3  911   2.404   4.847   3.993  0.6395  0.0842  1.9941
  286SOL    MW4  912   2.488   4.848   3.970 -0.1109 -0.0076 -0.3225
  287SOL     OW  913   5.965   5.209   5.205  0.2734  0.2340  0.1483
  287SOL    HW2  914   6.027   5.186   5.275 -0.0263 -1.1015  0.0006
  287SOL    HW3  915   5.880   5.210   5.248  0.0897 -0.5669 -0.1826
  287SOL    MW4  916   5.962   5.206   5.220  0.4651  0.1272  0.3712
  288SOL     OW  917   1.692   2.833   1.364 -0.0434 -0.2067  0.0211
  288SOL    HW2  918   1.661   2.923   1.377 -0.2215 -0.0438 -1.4556
  288SOL    HW3  919   1.710   2.827   1.271  3.2130 -0.6633  0.5564
  288SOL    MW4  920   1.690   2.844   1.354 -0.0134 -0.2280 -0.2421
  289SOL     OW  921   4.068   2.889   6.081  0.2408 -0.1272 -0.2445
  289SOL    HW2  922   4.144   2.856   6.032 -1.7787 -2.3591 -2.1324
  289SOL    HW3  923   4.033   2.960   6.027  0.8864  0.8744  0.6062
  289SOL    MW4  924   4.073   2.894   6.067  0.0858  0.2673 -0.5466
  290SOL     OW  925   1.691   6.200   2.701 -0.3516  0.9090  0.8283
  290SOL    HW2  926   1.775   6.222   2.660  0.6145 -0.2293  2.1046
  290SOL    HW3  927   1.626   6.246   2.648  1.1508  2.8091  0.4893
  290SOL    MW4  928   1.694   6.209   2.689  0.1411 -0.2340  0.3270
  291SOL     OW  929   5.274   0.385   3.477  0.3343  0.0701 -0.4123
  291SOL    HW2  930   5.210   0.451   3.506  1.3822  1.3232 -0.8560
  291SOL    HW3  931   5.221   0.320   3.431 -0.6668  0.9039 -0.4968
  291SOL    MW4  932   5.258   0.385   3.475  0.2118 -0.5999  0.0885
  292SOL     OW  933   1.242   1.747   2.517  0.0525  0.1396 -0.1875
  292SOL    HW2  934   1.293   1.722   2.595  1.8160  3.1132 -0.2511
  292SOL    HW3  935   1.167   1.796   2.553  0.5585  1.0216 -0.3308
  292SOL    MW4  936   1.238   1.750   2.532 -0.4926 -0.1899 -0.3234
  293SOL     OW  937   0.958   2.530   2.063 -0.0631  0.2780 -0.1193
  293SOL    HW2  938   0.942   2.436   2.072  0.8546  0.0194 -1.0119
  293SOL    HW3  939   0.883   2.571   2.106 -0.4265 -0.8583  0.3728
  293SOL    MW4  940   0.946   2.523   2.070  0.6145 -0.5398 -0.2111
  294SOL     OW  941   4.847   4.034   5.736  0.2271  1.2237 -0.7338
  294SOL    HW2  942   4.847   4.096   5.808  0.1686 -0.0544  0.4135
  294SOL    HW3  943   4.770   4.056   5.684 -1.8932 -0.0913  1.6645
  294SOL    MW4  944   4.837   4.045   5.738  0.1993 -0.2409 -0.0338
  295SOL     OW  945   3.297   2.180   4.390  0.5588 -0.0233  0.0054
  295SOL    HW2  946   3.355   2.160   4.465  0.0606 -0.5011  0.2664
  295SOL    HW3  947   3.229   2.235   4.427 -0.1993 -1.0077  0.1087
  295SOL    MW4  948   3.296   2.185   4.405  0.2348 -0.0590 -0.0399
  296SOL     OW  949   5.200   4.348   1.506 -0.0368 -0.3748  0.3613
  296SOL    HW2  950   5.234   4.373   1.420  1.3898  1.8189  1.4406
  296SOL    HW3  951   5.108   4.374   1.505  0.7079  2.6728  0.4413
  296SOL    MW4  952   5.193   4.355   1.495 -0.2003 -0.1575 -0.0216
  297SOL     OW  953   3.018   4.891   3.506 -0.5121 -0.0198 -0.0216
  297SOL    HW2  954   3.075   4.866   3.579  1.3510  1.3202 -0.9233
  297SOL    HW3  955   3.030   4.985   3.498  1.3193 -0.3805 -3.5256
  297SOL    MW4  956   3.027   4.900   3.514  0.2338 -0.0591  0.1859
  298SOL     OW  957   4.328   0.527   2.055  0.0220 -0.0977 -0.1263
  298SOL    HW2  958   4.354   0.571   2.135  1.7581 -1.7535  0.2973
  298SOL    HW3  959   4.309   0.598   1.993  1.4195  1.2289  0.8986
  298SOL    MW4  960   4.329   0.542   2.057  0.2301 -0.4495 -0.5542
  299SOL     OW  961   5.561   5.294   0.384  0.2524  0.0040  0.1790
  299SOL    HW2  962   5.578   5.201   0.396  0.5092 -0.1467 -1.2211
  299SOL    HW3  963   5.584   5.333   0.468  2.0466 -0.9332  0.1708
  299SOL    MW4  964   5.566   5.287   0.397  0.5975 -0.1969  0.3282
  300SOL     OW  965   3.192   0.792   6.363  0.5695  0.0909  0.0562
  300SOL    HW2  966   3.210   0.872   6.315  0.6638  0.3041  0.4406
  300SOL    HW3  967   3.173   0.727   6.296 -0.9115  0.7698 -0.2068
  300SOL    MW4  968   3.192   0.794   6.348  0.3170  0.9260  0.3114
  301SOL     OW  969   0.813   1.492   0.088  0.5311  0.4356 -0.0754
  301SOL    HW2  970   0.791   1.501  -0.004 -0.3649 -0.7163  0.0011
  301SOL    HW3  971   0.904   1.461   0.089  0.5444  0.4615 -0.5647
  301SOL    MW4  972   0.822   1.489   0.076 -0.4700  0.6055  0.7140
  302SOL     OW  973   2.985   6.030   4.666 -0.8527 -0.0111 -0.1864
  302SOL    HW2  974   2.980   5.966   4.736  0.0780  0.2526  0.1313
  302SOL    HW3  975   2.924   5.998   4.599 -2.1853  0.0348  0.9629
  302SOL    MW4  976   2.976   6.017   4.666  0.5309 -0.0556 -0.5026
  303SOL     OW  977   6.102   2.727   0.233 -0.0092 -0.5007 -0.2113
  303SOL    HW2  978   6.075   2.651   0.283  0.8373  0.6917  2.1788
  303SOL    HW3  979   6.193   2.710   0.210  0.9543  0.7176  2.3881
  303SOL    MW4  980   6.110   2.715   0.236 -0.0336  0.1161 -0.2003
  304SOL     OW  981   5.533   3.263   0.733  0.4272 -0.3061 -0.3273
  304SOL    HW2  982   5.552   3.320   0.658  1.0085  1.0388  0.8082
  304SOL    HW3  983   5.619   3.247   0.772  0.0502 -0.4112  0.4672
  304SOL    MW4  984   5.547   3.268   0.728  0.4408 -0.2611  0.0708
  305SOL     OW  985   6.326   1.122   0.195 -0.3807 -0.4283 -0.2533
  305SOL    HW2  986   6.318   1.157   0.106 -0.5054 -1.9025 -0.8600
  305SOL    HW3  987   6.236   1.103   0.222 -0.3391 -0.0328  0.1631
  305SOL    MW4  988   6.313   1.124   0.187  0.2281  0.1795  0.3045
  306SOL     OW  989   1.539   2.625   4.189 -0.1995  0.0583 -0.6582
  306SOL    HW2  990   1.587   2.620   4.272 -0.6416 -0.6761 -0.4427
  306SOL    HW3  991   1.506   2.537   4.175 -0.8545  0.3827 -1.1916
  306SOL    MW4  992   1.541   2.613   4.198  0.1278  0.7209  0.6394
  307SOL     OW  993   6.273   3.168   3.920  0.2185  0.3057  0.2031
  307SOL    HW2  994   6.304   3.096   3.865 -2.4155  0.4874 -1.7761
  307SOL    HW3  995   6.318   3.245   3.886 -1.0076  0.3384 -1.5569
  307SOL    MW4  996   6.283   3.169   3.908 -0.1430  0.2296  0.2878
  308SOL     OW  997   3.022   4.810   5.524  0.1831 -0.4514  0.5321
  308SOL    HW2  998   3.096   4.841   5.473  0.7274 -0.9434  1.0116
  308SOL    HW3  999   3.024   4.715   5.514 -0.5288 -0.4514  0.3494
  308SOL    MW4 1000   3.032   4.801   5.516  0.2918  0.2689 -0.2165
  309SOL     OW 1001   2.269   2.106   4.474 -0.4509 -0.1891 -0.4085
  309SOL    HW2 1002   2.276   2.180   4.413 -2.6382 -0.4480 -1.0544
  309SOL    HW3 1003   2.300   2.031   4.424 -2.1251 -0.3791 -1.2449
  309SOL    MW4 1004   2.274   2.106   4.459  0.8919 -0.1533 -0.4348
  310SOL     OW 1005   1.098   0.296   0.362  0.1968  0.3259  0.9869
  310SOL    HW2 1006   1.114   0.338   0.277 -2.1489 -0.5992  0.0064
  310SOL    HW3 1007   1.055   0.363   0.415  1.6265  0.8911  1.4863
  310SOL    MW4 1008   1.094   0.310   0.358 -0.2475 -0.2241 -0.3364
  311SOL     OW 1009   0.143   0.744   3.206  0.2003  0.6048  0.1110
  311SOL    HW2 1010   0.206   0.813   3.228 -0.0654  0.5701  1.0652
  311SOL    HW3 1011   0.160   0.722   3.115  0.0415  2.1966 -0.3238
  311SOL    MW4 1012   0.153   0.750   3.197  0.0698 -0.1737 -0.3576
  312SOL     OW 1013   6.416   2.430   1.073  0.0169  0.0207 -0.2912
  312SOL    HW2 1014   6.419   2.506   1.016 -1.6371  0.7380  0.5212
  312SOL    HW3 1015   6.398   2.465   1.160  0.4352 -1.2051  0.3153
  312SOL    MW4 1016   6.414   2.444   1.077  0.4843  0.1408  0.8568
  313SOL     OW 1017   2.558   2.473   3.069  0.5378 -0.5044  0.4434
  313SOL    HW2 1018   2.598   2.395   3.031  1.0323 -1.2472  2.3529
  313SOL    HW3 1019   2.548   2.452   3.162 -0.3276  1.3106  0.8145
  313SOL    MW4 1020   2.562   2.460   3.076 -0.2180  0.6623  0.2116
  314SOL     OW 1021   2.310   1.810   1.898  0.5372  0.3551 -0.0820
  314SOL    HW2 1022   2.238   1.818   1.835 -0.4914  0.2989  1.0561
  314SOL    HW3 1023   2.352   1.727   1.876  0.9915  0.9179 -1.4743
  314SOL    MW4 1024   2.306   1.800   1.887  0.6953  0.5153  0.0782
  315SOL     OW 1025   2.092   2.374   6.379 -0.1842  0.0023 -0.1878
  315SOL    HW2 1026   2.169   2.430   6.388  1.3296 -2.1742  1.4749
  315SOL    HW3 1027   2.102   2.334   6.293 -0.4570  1.0523 -0.7316
  315SOL    MW4 1028   2.104   2.376   6.369  0.6488 -0.2873  0.3280
  316SOL     OW 1029   4.796   1.322   2.571  0.0553 -0.0590  0.1054
  316SOL    HW2 1030   4.831   1.410   2.556 -1.1796  0.2756 -0.9813
  316SOL    HW3 1031   4.704   1.337   2.594 -0.8236 -1.1376 -2.3676
  316SOL    MW4 1032   4.788   1.336   2.572  0.3052  0.1160  0.2722
  317SOL     OW 1033   5.085   2.104   0.923  0.4232  0.6834  0.2840
  317SOL    HW2 1034   5.055   2.014   0.931 -0.2760  0.9725  1.0276
  317SOL    HW3 1035   5.030   2.154   0.983  1.8027  1.3757  1.0361
  317SOL    MW4 1036   5.074   2.099   0.932  0.1891 -0.3410  0.1771
  318SOL     OW 1037   5.906   5.774   4.032  0.8145  0.3355 -0.3103
  318SOL    HW2 1038   5.956   5.698   4.003 -0.3793  0.1539 -2.1001
  318SOL    HW3 1039   5.818   5.759   3.997 -0.7530  0.3321  3.2102
  318SOL    MW4 1040   5.901   5.762   4.023  0.1314 -0.1816 -0.1645
  319SOL     OW 1041   5.681   4.608   1.954 -0.2543 -0.1331 -0.0680
  319SOL    HW2 1042   5.633   4.686   1.985  1.3867  1.5345 -1.4965
  319SOL    HW3 1043   5.773   4.628   1.971  0.2239 -1.7285 -0.6018
  319SOL    MW4 1044   5.686   4.621   1.960  0.3459 -0.0903 -0.4387
  320SOL     OW 1045   1.470   0.617   6.212 -0.4745 -0.2930 -1.0329
  320SOL    HW2 1046   1.377   0.639   6.212 -0.8647 -1.4499  2.0230
  320SOL    HW3 1047   1.502   0.647   6.296  1.6570 -1.0180 -1.5087
  320SOL    MW4 1048   1.462   0.624   6.223 -0.4411 -0.2421 -0.1610
  321SOL     OW 1049   0.269   2.456   1.382 -0.3384 -0.4621  0.6508
  321SOL    HW2 1050   0.234   2.382   1.332 -0.2145  1.5092 -2.6642
  321SOL    HW3 1051   0.334   2.416   1.441 -0.4854 -3.0260 -0.7651
  321SOL    MW4 1052   0.273   2.441   1.383 -0.0581  0.4978 -0.1940
  322SOL     OW 1053   1.715   1.166   0.663  0.2301  0.2138 -0.0802
  322SOL    HW2 1054   1.755   1.199   0.743  0.0508 -1.1907  0.6205
  322SOL    HW3 1055   1.674   1.242   0.623 -1.3262  0.6251  2.1224
  322SOL    MW4 1056   1.715   1.180   0.668  0.6092 -0.6524  0.1061
  323SOL     OW 1057   0.349   1.290   5.032  0.2117 -0.0903  0.1376
  323SOL    HW2 1058   0.323   1.368   4.983 -0.9537 -0.1385  0.6357
  323SOL    HW3 1059   0.392   1.234   4.967 -0.2354  0.3569 -0.5612
  323SOL    MW4 1060   0.351   1.293   5.017  0.0908  0.0916  0.1851
  324SOL     OW 1061   3.024   5.417   6.124 -0.0090  0.3956 -0.1752
  324SOL    HW2 1062   2.946   5.460   6.090 -0.2691 -0.3288 -0.5150
  324SOL    HW3 1063   3.080   5.405   6.048  0.6301  1.2834  0.1344
  324SOL    MW4 1064   3.021   5.421   6.110  0.1607 -0.0981 -0.3284
  325SOL     OW 1065   0.103   2.857   6.418 -0.1629 -0.1757 -0.4738
  325SOL    HW2 1066   0.196   2.834   6.408  0.4863  1.0305  1.9908
  325SOL    HW3 1067   0.068   2.854   6.329  1.9022 -1.9597 -1.3287
  325SOL    MW4 1068   0.111   2.853   6.405 -0.0847  0.6603  0.0270
  326SOL     OW 1069   3.381   3.876   5.991  0.2559 -0.5007 -0.0857
  326SOL    HW2 1070   3.477   3.872   5.992  0.3246  0.7524 -0.2926
  326SOL    HW3 1071   3.360   3.955   6.040 -0.5691  0.4779 -1.9206
  326SOL    MW4 1072   3.391   3.886   5.998 -0.2857 -0.5375  0.3678
  327SOL     OW 1073   4.629   2.345   4.055  0.2429  0.0087  0.3936
  327SOL    HW2 1074   4.604   2.280   3.989  0.6847 -0.2170  0.4364
  327SOL    HW3 1075   4.669   2.416   4.005 -0.9548  0.6217  0.2763
  327SOL    MW4 1076   4.631   2.345   4.040 -0.5628  0.0410  0.2476
  328SOL     OW 1077   6.125   3.541   5.214  0.3047 -0.1848  0.1789
  328SOL    HW2 1078   6.133   3.601   5.288 -0.3400 -1.6104  1.4526
  328SOL    HW3 1079   6.095   3.459   5.252  1.7265 -1.5341 -1.4203
  328SOL    MW4 1080   6.122   3.538   5.229  0.0860  0.6214  0.1010
  329SOL     OW 1081   1.732   1.564   2.718 -0.2793 -0.3692 -0.4402
  329SOL    HW2 1082   1.795   1.618   2.672  1.4761 -0.0130  2.1852
  329SOL    HW3 1083   1.750   1.475   2.686 -0.0972  0.0093 -1.4439
  329SOL    MW4 1084   1.743   1.559   2.707  0.0477 -0.0353  0.6377
  330SOL     OW 1085   5.298   4.087   0.229  0.2062  0.0358  0.1256
  330SOL    HW2 1086   5.313   3.993   0.226  2.0303  0.2678  0.8348
  330SOL    HW3 1087   5.291   4.107   0.323 -1.0174  0.5094 -0.0430
  330SOL    MW4 1088   5.299   4.077   0.241  0.0474  0.4129  0.3223
  331SOL     OW 1089   2.558   0.452   0.038 -0.0161  0.4510 -0.3424
  331SOL    HW2 1090   2.521   0.533   0.003  1.6927  0.9356 -1.1401
  331SOL    HW3 1091   2.529   0.384  -0.022 -0.1370  0.7173 -0.5887
  331SOL    MW4 1092   2.549   0.454   0.025 -0.0507  0.3231  0.2458
  332SOL     OW 1093   3.301   1.783   2.727  0.3952 -0.2574 -0.2519
  332SOL    HW2 1094   3.266   1.818   2.809  0.0862  0.0659 -0.5159
  332SOL    HW3 1095   3.313   1.690   2.743  2.6298  0.1692  0.9630
  332SOL    MW4 1096   3.298   1.775   2.740 -0.1151 -0.2064 -0.2070
  333SOL     OW 1097   5.506   1.436   3.120  0.0268 -0.6160  0.0793
  333SOL    HW2 1098   5.508   1.412   3.027 -1.4320 -2.5174  0.4704
  333SOL    HW3 1099   5.594   1.466   3.138  0.2484  0.1852 -2.0132
  333SOL    MW4 1100   5.518   1.436   3.110 -0.2259  0.3293 -0.1902
  334SOL     OW 1101   1.241   5.288   1.125 -0.3718  0.1382  0.4023
  334SOL    HW2 1102   1.304   5.220   1.099 -0.2972 -0.4909  2.0535
  334SOL    HW3 1103   1.256   5.298   1.219 -1.0925  1.7371  0.3693
  334SOL    MW4 1104   1.252   5.280   1.134  0.4118  0.3212  0.2918
  335SOL     OW 1105   0.568   0.105   0.442 -0.0269  0.2160 -0.4592
  335SOL    HW2 1106   0.658   0.075   0.439  0.0372  0.4367 -0.8640
  335SOL    HW3 1107   0.537   0.082   0.529 -0.7891 -3.3477 -1.5271
  335SOL    MW4 1108   0.576   0.098   0.453 -0.3546  0.1384 -0.1027
  336SOL     OW 1109   1.950   4.795   0.077  0.4468  0.3074  0.2496
  336SOL    HW2 1110   2.031   4.772   0.122  0.5040 -2.1841 -0.9733
  336SOL    HW3 1111   1.880   4.772   0.138  0.5991 -0.3209  0.1886
  336SOL    MW4 1112   1.951   4.789   0.091  0.0187  0.3108 -0.3377
  337SOL     OW 1113   0.711   2.266   4.941  0.1110 -0.4111 -0.2365
  337SOL    HW2 1114   0.648   2.325   4.899  1.8257  0.7902 -1.2603
  337SOL    HW3 1115   0.736   2.311   5.021  1.8405  0.6031 -1.2914
  337SOL    MW4 1116   0.706   2.280   4.946  0.1002  0.5399 -0.0774
  338SOL     OW 1117   1.044   5.322   5.326 -0.3597 -0.0718 -0.1209
  338SOL    HW2 1118   1.015   5.413   5.333 -1.7731 -0.5668  1.1490
  338SOL    HW3 1119   1.047   5.305   5.232  1.1739  1.6225 -0.4301
  338SOL    MW4 1120   1.040   5.332   5.314  0.3261  0.1096 -0.3096
  339SOL     OW 1121   2.983   1.628   0.396  0.1605 -0.3456  0.0364
  339SOL    HW2 1122   2.896   1.608   0.361  0.3195 -1.4337  0.2196
  339SOL    HW3 1123   2.971   1.634   0.490 -0.0285  1.3070 -0.0623
  339SOL    MW4 1124   2.970   1.626   0.404 -0.0980 -0.0926 -0.0420
  340SOL     OW 1125   4.793   4.127   5.252 -0.6094 -0.0992 -0.0975
  340SOL    HW2 1126   4.808   4.221   5.255 -1.1598 -0.0014 -0.2379
  340SOL    HW3 1127   4.858   4.091   5.312  0.0690  0.3028 -0.5858
  340SOL    MW4 1128   4.804   4.135   5.261 -0.2556  0.2863 -0.2980
  341SOL     OW 1129   1.072   2.302   1.416  0.3920 -0.2625 -0.2927
  341SOL    HW2 1130   0.986   2.278   1.383  0.4217 -0.0415 -0.5361
  341SOL    HW3 1131   1.093   2.384   1.371  1.0829 -0.7289 -0.8689
  341SOL    MW4 1132   1.064   2.310   1.405 -0.4444 -0.3867  0.7408
  342SOL     OW 1133   5.069   4.578   0.257 -0.3165  0.4176  0.8202
  342SOL    HW2 1134   4.992   4.613   0.212 -1.2806 -0.7358  1.4997
  342SOL    HW3 1135   5.136   4.573   0.189 -1.0480  0.8252  0.0459
  342SOL    MW4 1136   5.067   4.582   0.242 -0.1816  0.4514  0.2046
  343SOL     OW 1137   4.748   2.052   4.539  0.0374  0.0607  0.3883
  343SOL    HW2 1138   4.839   2.032   4.564  0.0620  0.1888  0.4004
  343SOL    HW3 1139   4.708   2.085   4.619  0.1292  0.5189  0.2509
  343SOL    MW4 1140   4.755   2.054   4.553 -0.0823 -0.0928  0.6868
  344SOL     OW 1141   6.198   0.838   3.924 -0.1490  0.8938 -0.8650
  344SOL    HW2 1142   6.136   0.909   3.942 -0.7352 -0.0301  1.0065
  344SOL    HW3 1143   6.152   0.782   3.861 -0.5256  1.1095 -0.7876
  344SOL    MW4 1144   6.184   0.840   3.918  0.3356 -0.1179  0.1509
  345SOL     OW 1145   3.552   4.878   4.721 -0.1300  0.3897  0.2266
  345SOL    HW2 1146   3.642   4.869   4.689 -0.2785  1.6512 -0.6314
  345SOL    HW3 1147   3.531   4.970   4.707 -1.6567  0.0604  0.1563
  345SOL    MW4 1148   3.561   4.889   4.715 -0.5022  0.2987 -0.1285
  346SOL     OW 1149   0.160   1.818   3.002 -0.9242  0.1649  0.1754
  346SOL    HW2 1150   0.229   1.882   3.022  1.4470 -1.5696 -1.7738
  346SOL    HW3 1151   0.147   1.772   3.085  0.4748  0.4091  0.5693
  346SOL    MW4 1152   0.168   1.820   3.016 -0.1310  0.3858 -0.1293
  347SOL     OW 1153   2.901   2.573   3.270 -0.0094  0.1905  0.1377
  347SOL    HW2 1154   2.859   2.603   3.189 -0.9341  0.9585  0.8794
  347SOL    HW3 1155   2.914   2.480   3.256  0.4851  0.4281 -1.1719
  347SOL    MW4 1156   2.897   2.565   3.257  0.6829 -0.3576 -0.1110
  348SOL     OW 1157   4.790   0.991   0.204 -0.0846  0.0315 -0.1071
  348SOL    HW2 1158   4.725   1.055   0.174  0.9805  0.5039 -1.5014
  348SOL    HW3 1159   4.846   1.039   0.265  0.0625  0.1405 -0.3259
  348SOL    MW4 1160   4.789   1.006   0.208 -0.5657 -0.3572 -0.1688
  349SOL     OW 1161   3.773   3.282   5.765  0.2456 -0.7354 -0.2209
  349SOL    HW2 1162   3.832   3.352   5.737 -0.3438 -0.5216 -0.9662
  349SOL    HW3 1163   3.792   3.271   5.858  0.2821  0.4914 -0.0608
  349SOL    MW4 1164   3.783   3.290   5.773  0.1729  0.1270 -0.0227
  350SOL     OW 1165   3.550   2.021   0.972 -0.0854 -0.0472  0.2425
  350SOL    HW2 1166   3.518   2.065   0.893 -0.3730 -0.8719 -0.1173
  350SOL    HW3 1167   3.643   2.045   0.977  0.1328 -0.5847 -0.7907
  350SOL    MW4 1168   3.558   2.030   0.962 -0.0886  0.1758  0.8956
  351SOL     OW 1169   0.544   0.412   5.408 -0.6074 -0.2007  0.0421
  351SOL    HW2 1170   0.492   0.489   5.386  1.4309  1.1711 -0.2479
  351SOL    HW3 1171   0.615   0.412   5.344  0.6796 -1.0407  1.4091
  351SOL    MW4 1172   0.546   0.422   5.396 -0.2952 -0.7073 -0.5776
  352SOL     OW 1173   2.884   6.229   3.788  0.1918  0.0550 -0.0226
  352SOL    HW2 1174   2.978   6.222   3.775  0.2444 -0.2616  0.5202
  352SOL    HW3 1175   2.854   6.287   3.717  0.6772 -0.4563 -0.6586
  352SOL    MW4 1176   2.892   6.236   3.777 -0.5380 -0.0649 -0.0599
  353SOL     OW 1177   2.725   2.825   6.135 -0.0241  0.1722 -0.3490
  353SOL    HW2 1178   2.794   2.763   6.113 -0.3465 -0.2102 -0.2975
  353SOL    HW3 1179   2.712   2.814   6.229  0.1935  0.6049 -0.2671
  353SOL    MW4 1180   2.732   2.816   6.145 -0.3116 -0.6239  0.3047
  354SOL     OW 1181   4.419   2.253   4.271  0.1285 -0.3596  1.1483
  354SOL    HW2 1182   4.513   2.255   4.250 -0.0614 -2.9570 -0.3963
  354SOL    HW3 1183   4.415   2.216   4.359  0.5279 -0.8991  0.9431
  354SOL    MW4 1184   4.431   2.248   4.280 -0.3436 -0.2531  0.6114
  355SOL     OW 1185   1.352   0.291   5.927  0.2822  0.1342  0.2511
  355SOL    HW2 1186   1.385   0.337   5.850 -0.6276  1.8361  0.8323
  355SOL    HW3 1187   1.285   0.232   5.894  1.2172 -0.5556 -0.4649
  355SOL    MW4 1188   1.348   0.290   5.913  0.1973  0.2322 -0.1224
  356SOL     OW 1189   1.814   5.417   5.173  0.1843  0.2123 -0.7749
  356SOL    HW2 1190   1.751   5.469   5.123 -0.5929 -0.0147 -0.0524
  356SOL    HW3 1191   1.776   5.329   5.175  0.4217  0.1223 -0.1419
  356SOL    MW4 1192   1.801   5.412   5.166 -0.0188 -0.5842  0.5076
  357SOL     OW 1193   0.881   3.310   4.563  0.7517 -0.0001 -0.4679
  357SOL    HW2 1194   0.810   3.246   4.557  0.8031 -0.0827 -0.2374
  357SOL    HW3 1195   0.911   3.322   4.473 -0.2559  0.8323 -0.7146
  357SOL    MW4 1196   0.875   3.304   4.551 -0.5024 -0.2628 -0.1573
  358SOL     OW 1197   4.887   5.833   6.335  0.1922  0.2638  0.3029
  358SOL    HW2 1198   4.865   5.790   6.253 -1.2112 -0.1489  0.8708
  358SOL    HW3 1199   4.809   5.823   6.390  0.7019  1.4519  1.3110
  358SOL    MW4 1200   4.874   5.826   6.332 -0.1133 -1.2069  0.2563
  359SOL     OW 1201   1.852   2.359   5.802 -0.4387 -0.3056  0.2372
  359SOL    HW2 1202   1.894   2.415   5.868  0.9724 -0.2065 -0.6929
  359SOL    HW3 1203   1.800   2.419   5.749 -0.5914 -0.1968  0.5092
  359SOL    MW4 1204   1.851   2.374   5.804 -0.6928 -0.0665  0.2583
  360SOL     OW 1205   4.436   3.309   5.108 -0.1451 -0.2647 -0.2057
  360SOL    HW2 1206   4.370   3.325   5.175  1.1125 -0.2405  1.0722
  360SOL    HW3 1207   4.511   3.363   5.134 -0.0882  0.8003 -2.3944
  360SOL    MW4 1208   4.437   3.318   5.120  0.4100 -0.1168  0.4096
  361SOL     OW 1209   5.429   1.874   1.986  0.4430 -0.1110 -0.3305
  361SOL    HW2 1210   5.501   1.934   1.966 -0.8971  0.9476 -2.2329
  361SOL    HW3 1211   5.356   1.930   2.009  0.0090 -1.1514  0.9330
  361SOL    MW4 1212   5.429   1.889   1.986 -0.2675  0.1234  0.5482
  362SOL     OW 1213   0.468   0.134   3.608  0.6632  0.3727  0.5988
  362SOL    HW2 1214   0.500   0.169   3.525 -1.5495  1.1220  0.0098
  362SOL    HW3 1215   0.386   0.181   3.624 -1.1346 -2.6838  1.0888
  362SOL    MW4 1216   0.461   0.145   3.599 -0.5862  0.0298 -0.1630
  363SOL     OW 1217   4.818   6.036   3.125 -0.3464  0.0536 -0.6459
  363SOL    HW2 1218   4.885   6.037   3.057  0.1635 -0.9572 -0.1838
  363SOL    HW3 1219   4.745   5.986   3.087  0.0359 -0.7250 -0.3823
  363SOL    MW4 1220   4.817   6.029   3.111 -0.9554  0.5667  0.1664
  364SOL     OW 1221   0.386   1.510   3.093 -0.4597 -0.1476  0.1567
  364SOL    HW2 1222   0.321   1.501   3.163 -1.4126  3.5459 -0.0631
  364SOL    HW3 1223   0.343   1.473   3.016 -1.7059  0.8183  0.3573
  364SOL    MW4 1224   0.371   1.504   3.092 -0.1306  0.4408 -0.4400
  365SOL     OW 1225   0.088   3.195   5.188  0.2816 -0.5595  0.1636
  365SOL    HW2 1226   0.093   3.245   5.270  1.9226 -2.2264  1.1437
  365SOL    HW3 1227   0.007   3.226   5.146  0.1565  1.3853  1.6907
  365SOL    MW4 1228   0.078   3.206   5.193  0.7416 -0.1608  0.7330
  366SOL     OW 1229   5.061   4.313   4.090  0.1830 -0.4225 -0.1213
  366SOL    HW2 1230   5.005   4.318   4.167 -1.9236  0.1293 -1.5955
  366SOL    HW3 1231   5.043   4.394   4.041  0.3612 -1.3819 -1.8721
  366SOL    MW4 1232   5.051   4.324   4.093  0.2161 -0.2707 -0.2195
  367SOL     OW 1233   5.238   1.178   0.118  0.1357  0.4086 -0.4223
  367SOL    HW2 1234   5.294   1.129   0.057  0.8959 -0.7644  1.1584
  367SOL    HW3 1235   5.269   1.268   0.112  2.4018 -0.2403  0.5607
  367SOL    MW4 1236   5.249   1.183   0.109  0.0286  0.2460 -0.6009
  368SOL     OW 1237   4.459   4.844   4.164 -0.1673 -0.0601 -0.2842
  368SOL    HW2 1238   4.446   4.855   4.259 -2.0713  0.7073 -0.6020
  368SOL    HW3 1239   4.386   4.790   4.135  0.1935  0.0111 -1.3752
  368SOL    MW4 1240   4.448   4.839   4.173  0.0165 -0.0642 -0.7505
  369SOL     OW 1241   2.824   0.677   4.866  0.3633 -0.1594  0.6023
  369SOL    HW2 1242   2.738   0.707   4.898  0.6602  0.8865  0.4650
  369SOL    HW3 1243   2.883   0.692   4.940  0.5235 -0.4356  0.5315
  369SOL    MW4 1244   2.820   0.683   4.880 -0.4386  0.3400 -0.2461
  370SOL     OW 1245   5.441   1.354   0.432 -0.1065 -0.1586 -0.1796
  370SOL    HW2 1246   5.383   1.317   0.498 -0.2806  0.2617 -0.0922
  370SOL    HW3 1247   5.511   1.290   0.423 -0.0975 -0.2324  0.3911
  370SOL    MW4 1248   5.442   1.341   0.439  0.1158 -0.1650 -0.3012
  371SOL     OW 1249   0.697   4.550   1.629 -0.2260 -0.2330 -0.1642
  371SOL    HW2 1250   0.786   4.561   1.663 -0.4761 -2.3043  1.3869
  371SOL    HW3 1251   0.705   4.482   1.563 -0.2699  1.5685 -2.1175
  371SOL    MW4 1252   0.710   4.543   1.625  0.1598  0.1893  0.0130
  372SOL     OW 1253   0.000   1.058   4.484  0.1696  0.4298 -0.2134
  372SOL    HW2 1254  -0.072   1.100   4.531  0.5931  2.2965 -1.1620
  372SOL    HW3 1255  -0.029   0.967   4.472 -1.3046  0.7335  0.8412
  372SOL    MW4 1256  -0.013   1.051   4.489 -0.7355 -0.1021  0.1932
  373SOL     OW 1257   6.414   1.690   4.128  0.1288 -0.1637 -0.4794
  373SOL    HW2 1258   6.453   1.603   4.135 -0.1251 -0.2757 -0.4377
  373SOL    HW3 1259   6.322   1.674   4.108  0.4055  0.1207 -2.0725
  373SOL    MW4 1260   6.407   1.677   4.127  0.7612  0.4188 -0.3074
  374SOL     OW 1261   3.961   5.680   3.375  0.0934 -0.0543  0.5472
  374SOL    HW2 1262   4.019   5.728   3.315 -1.2809  1.6850  0.4999
  374SOL    HW3 1263   4.019   5.643   3.441  1.3690  0.5805 -0.1787
  374SOL    MW4 1264   3.976   5.682   3.375  0.1396 -0.3368 -0.4767
  375SOL     OW 1265   3.662   5.018   5.101  0.0772  0.3311 -0.6472
  375SOL    HW2 1266   3.747   4.977   5.116  0.4920  1.1892 -0.6266
  375SOL    HW3 1267   3.618   4.959   5.039  0.0750 -0.9149  0.4834
  375SOL    MW4 1268   3.667   5.005   5.095 -0.3572 -0.7024 -0.0079
  376SOL     OW 1269   4.933   6.076   2.490  0.0277 -0.5798 -0.2276
  376SOL    HW2 1270   4.869   6.075   2.562  1.2120 -1.5364  0.8630
  376SOL    HW3 1271   4.947   5.983   2.470  2.0387 -0.4619  0.4660
  376SOL    MW4 1272   4.926   6.064   2.497  0.4002 -0.5697 -0.0450
  377SOL     OW 1273   4.445   1.397   0.501  0.3531 -0.6381 -0.5285
  377SOL    HW2 1274   4.527   1.419   0.455  0.7837 -0.1598  0.4286
  377SOL    HW3 1275   4.448   1.302   0.511  1.0065 -0.5755 -0.1094
  377SOL    MW4 1276   4.457   1.387   0.496 -0.6853 -0.2786 -0.7495
  378SOL     OW 1277   6.094   6.165   3.775  0.1998 -0.0214 -0.0219
  378SOL    HW2 1278   6.186   6.140   3.786  0.3977 -0.7812 -2.6725
  378SOL    HW3 1279   6.090   6.256   3.803  1.2233 -0.6332  2.3228
  378SOL    MW4 1280   6.106   6.173   3.780  0.1781  0.0381  0.3788
  379SOL     OW 1281   0.656   5.161   3.106 -0.0072 -0.0590  0.7134
  379SOL    HW2 1282   0.720   5.190   3.042 -0.7116  2.9944  1.2297
  379SOL    HW3 1283   0.589   5.116   3.054  1.3266 -1.1806 -0.1085
  379SOL    MW4 1284   0.655   5.159   3.091  0.1129 -0.3256 -0.3993
  380SOL     OW 1285   5.531   0.463   6.402  0.3348  0.3513  0.3792
  380SOL    HW2 1286   5.460   0.411   6.441  0.7074  0.1357  0.7799
  380SOL    HW3 1287   5.554   0.415   6.323  2.0380 -1.2649  1.7488
  380SOL    MW4 1288   5.524   0.450   6.397 -0.2547  0.3957 -0.8047
  381SOL     OW 1289   5.482   2.111   1.311  0.3161  0.0926  0.5227
  381SOL    HW2 1290   5.464   2.019   1.330  2.1960 -1.4170 -3.6760
  381SOL    HW3 1291   5.562   2.131   1.359  0.5318 -0.8456  0.5711
  381SOL    MW4 1292   5.490   2.101   1.320 -0.0317 -0.2854  0.7472
  382SOL     OW 1293   2.497   3.067   3.014  0.0510  0.2656  0.5743
  382SOL    HW2 1294   2.427   3.008   3.042 -1.4048  1.2513 -0.8375
  382SOL    HW3 1295   2.511   3.125   3.089 -1.8540  1.1202  0.3210
  382SOL    MW4 1296   2.490   3.067   3.027 -0.3043  0.1139  0.0221
  383SOL     OW 1297   3.899   3.887   0.520  0.2027 -0.1111  0.6608
  383SOL    HW2 1298   3.833   3.908   0.453  0.7027 -2.4448 -0.6917
  383SOL    HW3 1299   3.983   3.900   0.476  0.5898  0.1903  1.4763
  383SOL    MW4 1300   3.901   3.891   0.505 -0.0953 -0.1251 -0.7558
  384SOL     OW 1301   3.159   0.533   4.625 -1.0245 -0.0247  0.3742
  384SOL    HW2 1302   3.147   0.612   4.572 -1.2316  0.1145  0.6280
  384SOL    HW3 1303   3.171   0.565   4.714  0.7718 -0.1770  0.2183
  384SOL    MW4 1304   3.159   0.548   4.630 -0.2032  0.1824 -0.5989
  385SOL     OW 1305   3.451   4.861   4.984 -0.5930 -0.3249 -0.1376
  385SOL    HW2 1306   3.400   4.782   5.001  0.8050 -0.8588  1.9634
  385SOL    HW3 1307   3.496   4.843   4.901  2.3542 -3.3437  1.8408
  385SOL    MW4 1308   3.450   4.848   4.975 -0.1683  0.0470 -0.4058
  386SOL     OW 1309   5.106   0.182   5.614 -0.1735 -0.7137 -0.2095
  386SOL    HW2 1310   5.193   0.209   5.584 -0.7566 -0.3333 -1.6093
  386SOL    HW3 1311   5.058   0.264   5.627 -0.6798 -0.9537 -0.5407
  386SOL    MW4 1312   5.111   0.196   5.612 -0.6530 -0.2781  0.7579
  387SOL     OW 1313   0.206   0.937   4.130  0.5781  0.0904 -0.0848
  387SOL    HW2 1314   0.285   0.892   4.101 -0.2962 -1.1090 -0.6990
  387SOL    HW3 1315   0.147   0.932   4.055 -1.1968 -1.7851  1.3198
  387SOL    MW4 1316   0.208   0.930   4.117 -0.0066  0.3295 -0.1065
  388SOL     OW 1317   5.965   3.902   5.120 -0.3730  0.5159 -0.4089
  388SOL    HW2 1318   5.950   3.819   5.076 -0.1646  1.0832 -1.5989
  388SOL    HW3 1319   6.046   3.889   5.170 -1.4827 -0.6454  1.1653
  388SOL    MW4 1320   5.974   3.890   5.121  0.2069  0.0772  0.0912
  389SOL     OW 1321   4.350   3.708   3.977  0.2707 -0.2954 -0.5468
  389SOL    HW2 1322   4.425   3.761   3.948  1.6287 -1.1722  1.1316
  389SOL    HW3 1323   4.376   3.618   3.957  0.0394 -0.6786  0.7559
  389SOL    MW4 1324   4.364   3.703   3.970  0.9254 -0.6864 -0.3484
  390SOL     OW 1325   5.464   0.525   2.482 -0.5109 -0.0662 -0.1257
  390SOL    HW2 1326   5.509   0.496   2.403 -1.3133  1.2765 -1.1182
  390SOL    HW3 1327   5.484   0.618   2.489 -1.4261  0.0926  0.5806
  390SOL    MW4 1328   5.472   0.533   2.472 -0.2676 -0.4451  0.1298
  391SOL     OW 1329   3.757   1.489   5.912  0.0174 -0.5160 -0.1724
  391SOL    HW2 1330   3.790   1.492   5.822 -1.3785 -1.8797 -0.7768
  391SOL    HW3 1331   3.779   1.401   5.942  2.8810  0.7623  1.8531
  391SOL    MW4 1332   3.764   1.477   5.904  0.1683  0.2230  0.2354
  392SOL     OW 1333   5.061   4.381   5.052 -0.5993  0.5471 -0.2595
  392SOL    HW2 1334   5.054   4.337   5.137 -0.4003  0.7320 -0.1472
  392SOL    HW3 1335   5.008   4.327   4.993 -1.5231  0.9362  0.1833
  392SOL    MW4 1336   5.053   4.368   5.056  0.5808 -0.5169 -0.1733
  393SOL     OW 1337   0.816   1.786   3.194  0.0299  0.4467 -0.8617
  393SOL    HW2 1338   0.723   1.808   3.196  0.2646  1.4514 -0.0947
  393SOL    HW3 1339   0.819   1.695   3.166 -1.1738  0.4307 -0.9835
  393SOL    MW4 1340   0.805   1.777   3.190 -0.2631 -0.2378 -0.2569
  394SOL     OW 1341   0.799   2.283   1.347 -0.3496 -0.2690 -0.1268
  394SOL    HW2 1342   0.815   2.376   1.368  3.3715 -0.6473 -0.6364
  394SOL    HW3 1343   0.816   2.277   1.254 -1.3245 -1.3852 -0.2503
  394SOL    MW4 1344   0.803   2.295   1.338  0.4189 -0.0025 -0.0867
  395SOL     OW 1345   4.481   4.484   4.748 -0.0598  0.0116  0.2786
  395SOL    HW2 1346   4.561   4.503   4.699 -0.4396 -0.7268 -0.6622
  395SOL    HW3 1347   4.483   4.545   4.822  1.8730 -0.6763  0.8487
  395SOL    MW4 1348   4.492   4.495   4.751 -0.0209  0.4508  0.0972
  396SOL     OW 1349   1.600   1.379   0.546 -0.3758  0.5275 -0.8117
  396SOL    HW2 1350   1.522   1.354   0.595 -0.0487  0.5435 -0.2727
  396SOL    HW3 1351   1.571   1.382   0.455 -0.9211  0.2044 -0.6555
  396SOL    MW4 1352   1.586   1.376   0.540 -0.0764 -0.2681 -0.7073
  397SOL     OW 1353   6.354   4.845   2.379 -0.4638 -0.1973  0.1175
  397SOL    HW2 1354   6.261   4.863   2.362 -0.7512  0.7807  2.3254
  397SOL    HW3 1355   6.386   4.806   2.298 -2.4836  0.6421 -1.1758
  397SOL    MW4 1356   6.346   4.842   2.366 -0.1609 -0.1679 -0.1830
  398SOL     OW 1357   2.127   0.406   0.648 -0.6500 -0.0824  0.2073
  398SOL    HW2 1358   2.179   0.424   0.727  1.0140 -0.7053 -0.7050
  398SOL    HW3 1359   2.123   0.491   0.603 -0.4781 -0.0151  0.3168
  398SOL    MW4 1360   2.133   0.420   0.652 -0.3042  0.3042 -0.3615
  399SOL     OW 1361   2.565   0.045   4.209 -0.2056 -0.7884  0.1047
  399SOL    HW2 1362   2.523   0.114   4.261  1.4298  0.8067 -0.5809
  399SOL    HW3 1363   2.573   0.083   4.121  3.2444 -0.6533  0.3431
  399SOL    MW4 1364   2.560   0.059   4.204 -0.3225  0.4992  0.3004
  400SOL     OW 1365   1.848   2.934   4.391 -0.2325  0.4329  0.2204
  400SOL    HW2 1366   1.817   2.999   4.454 -0.0005  1.2261 -0.4723
  400SOL    HW3 1367   1.804   2.853   4.417 -1.5817  1.1580  0.2722
  400SOL    MW4 1368   1.838   2.932   4.403 -0.2824 -0.3991 -0.0209
  401SOL     OW 1369   3.628   2.031   2.940  1.2538 -0.4316  0.1199
  401SOL    HW2 1370   3.619   1.951   2.992 -0.6918  0.6273  1.5574
  401SOL    HW3 1371   3.568   2.093   2.982  0.2961  0.8095 -2.8458
  401SOL    MW4 1372   3.619   2.029   2.953 -0.6376  0.0472 -0.0342
  402SOL     OW 1373   4.622   5.545   0.443 -0.4228  0.4562 -0.1564
  402SOL    HW2 1374   4.669   5.600   0.380 -0.7814  1.5541  0.5061
  402SOL    HW3 1375   4.691   5.496   0.489  0.1504  2.2289  0.9764
  402SOL    MW4 1376   4.638   5.546   0.441  0.0982 -0.2198 -0.1757
  403SOL     OW 1377   2.542   6.165   3.003 -0.2062  0.1725 -0.1634
  403SOL    HW2 1378   2.623   6.209   2.978  0.6537 -2.1111 -1.7471
  403SOL    HW3 1379   2.570   6.086   3.048 -1.6698  0.6649  1.7291
  403SOL    MW4 1380   2.556   6.160   3.006  0.5977  0.4635  0.0135
  404SOL     OW 1381   6.106   1.925   5.658 -0.2625 -0.2561 -0.4463
  404SOL    HW2 1382   6.159   2.004   5.646 -0.5959  0.5356  2.4347
  404SOL    HW3 1383   6.169   1.853   5.652  0.3422  0.3407 -1.4620
  404SOL    MW4 1384   6.122   1.926   5.656 -0.1594 -0.2500  0.0490
  405SOL     OW 1385   2.463   2.741   5.503  0.1744 -0.3378  0.3631
  405SOL    HW2 1386   2.371   2.763   5.511  0.5457  0.9790  1.3881
  405SOL    HW3 1387   2.477   2.726   5.409 -0.9811 -0.1268  0.1511
  405SOL    MW4 1388   2.453   2.742   5.492 -0.0897  0.3279 -0.5020
  406SOL     OW 1389   3.942   0.410   3.737  0.2044 -0.5679  0.1051
  406SOL    HW2 1390   3.970   0.319   3.735  0.8683 -0.4101  1.2831
  406SOL    HW3 1391   4.018   0.458   3.771 -0.1084  0.4336 -0.5644
  406SOL    MW4 1392   3.956   0.404   3.742  0.2986  0.1418  0.7622
  407SOL     OW 1393   2.027   3.227   1.172  0.3676  0.4351 -0.4385
  407SOL    HW2 1394   2.038   3.321   1.186  0.5664  0.1779  1.3795
  407SOL    HW3 1395   2.020   3.190   1.260  2.4451 -1.5039 -0.9766
  407SOL    MW4 1396   2.028   3.234   1.186  0.3245 -0.2080  0.0585
  408SOL     OW 1397   4.147   1.129   4.148  0.3529 -0.2182  0.0178
  408SOL    HW2 1398   4.220   1.096   4.095  0.6563  0.4987 -0.0153
  408SOL    HW3 1399   4.131   1.059   4.212 -0.2492 -1.2623 -1.2212
  408SOL    MW4 1400   4.154   1.115   4.149 -0.3265  0.1260 -0.1959
  409SOL     OW 1401   3.325   2.566   3.117  0.1142  0.3490 -0.1343
  409SOL    HW2 1402   3.356   2.566   3.207  1.8466  1.5938 -0.6718
  409SOL    HW3 1403   3.323   2.659   3.092  0.4637 -0.0055 -1.5997
  409SOL    MW4 1404   3.329   2.579   3.125 -0.2286 -0.0879  0.0046
  410SOL     OW 1405   0.052   1.851   5.629 -0.1460 -0.4194 -0.4680
  410SOL    HW2 1406  -0.011   1.782   5.609  1.1585 -2.5558  2.1171
  410SOL    HW3 1407   0.100   1.864   5.547 -1.3279 -1.5754 -1.3921
  410SOL    MW4 1408   0.050   1.843   5.616 -0.5408 -0.9343 -0.1661
  411SOL     OW 1409   0.720   5.828   1.213 -0.2898 -0.0534 -0.1184
  411SOL    HW2 1410   0.719   5.740   1.174 -2.5977 -0.0463 -0.2350
  411SOL    HW3 1411   0.701   5.813   1.305 -1.8933  0.3602 -0.3560
  411SOL    MW4 1412   0.717   5.814   1.220  0.1106  0.0686  0.2436
  412SOL     OW 1413   1.336   5.933   4.745 -0.4302 -0.3527  0.3371
  412SOL    HW2 1414   1.392   5.912   4.670  0.8111  0.6849  0.9448
  412SOL    HW3 1415   1.389   5.911   4.822 -1.0473  0.1884  0.9309
  412SOL    MW4 1416   1.350   5.927   4.745  0.2907  0.1074  0.3759
  413SOL     OW 1417   2.034   4.942   3.457  0.0094 -0.5869  0.0539
  413SOL    HW2 1418   2.092   4.878   3.416  0.3199  0.1910 -0.7530
  413SOL    HW3 1419   2.077   5.026   3.442 -1.1162 -0.0362 -0.1823
  413SOL    MW4 1420   2.048   4.945   3.450  0.4401  0.2708 -0.0039
  414SOL     OW 1421   4.090   1.618   3.591  0.4370  0.1001  0.2060
  414SOL    HW2 1422   4.003   1.637   3.627  0.1651 -1.8294  0.7146
  414SOL    HW3 1423   4.150   1.669   3.644 -0.3851  1.7086 -0.3520
  414SOL    MW4 1424   4.087   1.627   3.603  0.1987  0.2147 -0.0273
  415SOL     OW 1425   4.213   1.515   0.066  0.4089  0.1659  0.5316
  415SOL    HW2 1426   4.200   1.458  -0.009 -0.8802  1.5355 -0.3516
  415SOL    HW3 1427   4.223   1.456   0.140  0.4610 -1.1988 -0.5285
  415SOL    MW4 1428   4.213   1.500   0.066  0.5673  0.5006 -0.2793
  416SOL     OW 1429   5.533   5.933   3.355 -1.1823 -0.2169 -0.6775
  416SOL    HW2 1430   5.469   6.001   3.335 -0.9873 -0.3164 -1.7396
  416SOL    HW3 1431   5.584   5.925   3.274  0.1907 -0.1196  0.1593
  416SOL    MW4 1432   5.531   5.941   3.341  0.4461  0.4038  0.1162
  417SOL     OW 1433   1.411   1.308   0.982 -0.7427  0.0318 -0.6433
  417SOL    HW2 1434   1.413   1.305   0.886 -0.2948 -0.3741 -0.6248
  417SOL    HW3 1435   1.360   1.386   1.003 -2.3034 -0.8057 -1.2072
  417SOL    MW4 1436   1.405   1.318   0.972 -0.4557  0.8982 -0.2904
  418SOL     OW 1437   1.705   3.789   3.468  0.5473  0.3465 -1.2010
  418SOL    HW2 1438   1.740   3.863   3.517 -0.9843 -0.9761  2.2943
  418SOL    HW3 1439   1.621   3.820   3.434 -0.1785  0.2364  0.4120
  418SOL    MW4 1440   1.698   3.803   3.470 -0.8855  0.4639 -0.3541
  419SOL     OW 1441   4.892   1.414   5.244  0.4467  0.4163  0.4061
  419SOL    HW2 1442   4.980   1.382   5.222  1.0658  2.1427  0.1798
  419SOL    HW3 1443   4.908   1.490   5.300 -0.8885  1.0248  0.0023
  419SOL    MW4 1444   4.906   1.420   5.249 -0.0084 -0.3918  0.2225
  420SOL     OW 1445   2.415   0.789   4.008 -0.0676 -0.8045  0.0249
  420SOL    HW2 1446   2.448   0.736   3.936 -0.0723  0.2711 -0.8073
  420SOL    HW3 1447   2.468   0.869   4.004 -0.0525 -0.7375  1.2395
  420SOL    MW4 1448   2.426   0.793   3.998  0.4249 -0.0172 -0.4992
  421SOL     OW 1449   2.653   6.002   0.342 -0.2396 -0.1759 -0.0767
  421SOL    HW2 1450   2.595   5.926   0.341  1.5663 -1.6370  0.3711
  421SOL    HW3 1451   2.655   6.030   0.433  1.0537 -1.2400  0.2598
  421SOL    MW4 1452   2.646   5.995   0.354 -0.1706 -0.3846  0.3070
  422SOL     OW 1453   0.968   4.003   5.436 -0.0877  0.1641  0.3627
  422SOL    HW2 1454   0.972   3.923   5.490 -1.0605 -0.0101  0.1936
  422SOL    HW3 1455   1.014   3.980   5.355 -0.1011 -0.1272  0.4370
  422SOL    MW4 1456   0.975   3.989   5.433 -0.4238 -0.5533 -0.0374
  423SOL     OW 1457   0.950   5.574   5.379 -0.0885 -0.1007 -0.3583
  423SOL    HW2 1458   0.997   5.651   5.348  0.0187 -0.0761 -0.1388
  423SOL    HW3 1459   0.873   5.568   5.322  2.5776 -2.9828 -4.1643
  423SOL    MW4 1460   0.946   5.583   5.368 -0.0020 -0.0153 -0.0130
  424SOL     OW 1461   5.665   2.295   1.406 -0.5990  0.6012 -0.0277
  424SOL    HW2 1462   5.759   2.308   1.392 -0.4539 -0.6920 -0.3786
  424SOL    HW3 1463   5.647   2.336   1.491  0.6383 -0.6492  0.8665
  424SOL    MW4 1464   5.675   2.302   1.415  0.0120  0.2317 -0.5541
  425SOL     OW 1465   3.199   0.845   2.189 -0.1305  0.1450 -0.2856
  425SOL    HW2 1466   3.210   0.755   2.218  0.4483  0.8721  1.9221
  425SOL    HW3 1467   3.284   0.867   2.149  0.8094  0.5422  1.7709
  425SOL    MW4 1468   3.212   0.836   2.187  0.2084  0.4416  0.0762
  426SOL     OW 1469   0.058   1.351   1.219 -0.5843  0.2412 -0.3814
  426SOL    HW2 1470   0.115   1.332   1.144 -1.1272  1.8139 -1.2336
  426SOL    HW3 1471   0.115   1.395   1.282 -0.1092 -1.1465  0.1879
  426SOL    MW4 1472   0.073   1.354   1.217 -0.0835  0.4335  0.8216
  427SOL     OW 1473   6.148   1.721   1.290 -0.3863 -0.0046  0.3258
  427SOL    HW2 1474   6.232   1.691   1.324  0.2614 -0.1472 -1.3081
  427SOL    HW3 1475   6.169   1.761   1.206 -2.0312 -0.7102 -0.4680
  427SOL    MW4 1476   6.162   1.722   1.284  0.2126  0.0854 -0.6732
  428SOL     OW 1477   2.425   0.007   6.098 -0.4280 -0.1321 -0.3121
  428SOL    HW2 1478   2.467  -0.078   6.108 -1.4469 -0.6361 -0.2674
  428SOL    HW3 1479   2.363  -0.004   6.026 -0.6704  0.5268 -0.2121
  428SOL    MW4 1480   2.422  -0.005   6.090  0.1343  0.4044  0.1875
  429SOL     OW 1481   5.837   2.923   2.875  0.3502  0.0891 -0.1619
  429SOL    HW2 1482   5.865   2.930   2.966  1.0123  1.2984 -0.4308
  429SOL    HW3 1483   5.888   2.851   2.839  0.1800 -0.3104  0.3944
  429SOL    MW4 1484   5.847   2.915   2.882  0.6628  0.4018  1.5948
  430SOL     OW 1485   4.282   2.153   0.314  0.3542  0.3885 -0.1454
  430SOL    HW2 1486   4.223   2.107   0.254  0.4846  0.9981 -0.7445
  430SOL    HW3 1487   4.254   2.244   0.312 -0.6148  0.1920  1.8955
  430SOL    MW4 1488   4.271   2.159   0.306  0.4785  0.3231 -0.1040
  431SOL     OW 1489   1.703   3.452   3.096 -0.2219  0.4567  0.4823
  431SOL    HW2 1490   1.678   3.544   3.097 -0.5394  0.5115 -2.4547
  431SOL    HW3 1491   1.777   3.448   3.036  1.0286 -0.9829  2.0456
  431SOL    MW4 1492   1.709   3.463   3.088 -0.2788 -0.0671  0.5078
  432SOL     OW 1493   2.307   4.947   2.571  0.0028 -0.3802  0.3881
  432SOL    HW2 1494   2.356   5.028   2.586  1.0441 -0.8516 -0.3655
  432SOL    HW3 1495   2.235   4.973   2.514  0.6993 -0.0944 -0.3789
  432SOL    MW4 1496   2.304   4.961   2.566 -0.0740  0.5373 -0.0355
  433SOL     OW 1497   2.265   0.209   5.394  0.2290 -0.0344 -0.0526
  433SOL    HW2 1498   2.252   0.292   5.439 -1.8555 -0.9754  1.2810
  433SOL    HW3 1499   2.237   0.226   5.303 -0.8998  0.5594  0.3866
  433SOL    MW4 1500   2.259   0.222   5.388 -0.5800  0.4621 -0.6131
  434SOL     OW 1501   5.437   4.665   1.415  0.9634  0.1240  0.3820
  434SOL    HW2 1502   5.483   4.725   1.357  0.1250  1.7329  1.3155
  434SOL    HW3 1503   5.344   4.683   1.400  0.7089 -0.5708  1.0594
  434SOL    MW4 1504   5.431   4.675   1.405  0.1525  0.0963  0.4788
  435SOL     OW 1505   3.203   4.031   1.246 -0.1975  0.1325  0.1994
  435SOL    HW2 1506   3.152   4.109   1.270  0.3642  0.6712 -0.3286
  435SOL    HW3 1507   3.290   4.048   1.282  0.1230  0.0746 -0.5335
  435SOL    MW4 1508   3.207   4.044   1.254  0.1870 -0.6247 -0.3592
  436SOL     OW 1509   4.739   3.971   2.944 -0.7453  0.2054 -0.1930
  436SOL    HW2 1510   4.744   3.996   2.852  1.0897 -0.5048 -0.3336
  436SOL    HW3 1511   4.771   4.048   2.992 -1.2060  0.3887 -0.1751
  436SOL    MW4 1512   4.744   3.984   2.938 -0.3101  0.1627  0.2191
  437SOL     OW 1513   4.299   2.164   3.457 -0.2178 -0.1222 -0.5351
  437SOL    HW2 1514   4.214   2.122   3.444 -0.0074  0.1511 -3.4247
  437SOL    HW3 1515   4.359   2.091   3.473 -0.7713 -0.4012  0.3731
  437SOL    MW4 1516   4.295   2.149   3.458  0.4062  0.0230  0.9745
  438SOL     OW 1517   1.744   5.953   5.247  0.0427  0.1906 -0.0149
  438SOL    HW2 1518   1.695   5.871   5.253 -0.3052  0.3039 -1.0828
  438SOL    HW3 1519   1.832   5.925   5.219  0.4070  0.0470  1.2386
  438SOL    MW4 1520   1.749   5.938   5.244  0.0871  0.0899 -0.4436
  439SOL     OW 1521   0.567   2.400   5.484 -0.3718  0.8418  0.0605
  439SOL    HW2 1522   0.481   2.359   5.490  0.1591 -0.6652 -1.5569
  439SOL    HW3 1523   0.582   2.410   5.389  1.6492  0.0760  0.2506
  439SOL    MW4 1524   0.558   2.396   5.472 -0.4588  0.3067 -0.4260
  440SOL     OW 1525   5.710   6.279   1.658  0.2492 -0.3511  0.0259
  440SOL    HW2 1526   5.719   6.290   1.564 -0.6621 -1.9013 -0.2852
  440SOL    HW3 1527   5.705   6.184   1.670 -1.4948 -0.1242  1.4424
  440SOL    MW4 1528   5.711   6.268   1.647  0.0423 -0.6887  0.4990
  441SOL     OW 1529   1.585   3.418   3.834  0.3587  0.1861  0.1884
  441SOL    HW2 1530   1.672   3.387   3.812  0.3219  0.6391 -0.6457
  441SOL    HW3 1531   1.550   3.452   3.752 -0.9772 -0.8550  0.2829
  441SOL    MW4 1532   1.592   3.418   3.821 -0.0986 -0.0649 -0.8705
  442SOL     OW 1533   3.785   1.006   4.142 -0.3257  0.1353 -0.1534
  442SOL    HW2 1534   3.827   1.089   4.118  0.1413  0.4113  1.4912
  442SOL    HW3 1535   3.730   1.028   4.217 -1.1909 -0.8120 -0.4852
  442SOL    MW4 1536   3.783   1.020   4.149 -0.5687 -0.3325 -0.1007
  443SOL     OW 1537   2.549   2.518   4.746 -0.4000  0.1376 -0.4629
  443SOL    HW2 1538   2.515   2.447   4.800 -0.3660 -0.4464 -1.1892
  443SOL    HW3 1539   2.499   2.512   4.664 -2.5065  2.8023  0.4820
  443SOL    MW4 1540   2.538   2.508   4.742 -0.0640 -0.8054  0.5229
  444SOL     OW 1541   5.997   0.494   2.019 -0.3392 -0.3357  0.2183
  444SOL    HW2 1542   5.995   0.445   1.937 -0.9391 -1.8149  1.0865
  444SOL    HW3 1543   6.090   0.503   2.040 -0.1880 -0.0430 -0.5530
  444SOL    MW4 1544   6.009   0.489   2.011 -0.2009 -0.5942  0.6945
  445SOL     OW 1545   2.549   3.021   5.521  0.6517 -0.5774 -0.0772
  445SOL    HW2 1546   2.554   2.925   5.524  1.3519 -0.6621 -2.2231
  445SOL    HW3 1547   2.476   3.039   5.462  1.3697  0.1773 -0.7565
  445SOL    MW4 1548   2.540   3.011   5.513 -0.0837 -0.5549  0.1043
  446SOL     OW 1549   1.020   2.632   4.341  0.4125  0.1547 -0.1431
  446SOL    HW2 1550   1.058   2.547   4.321 -2.4747 -1.3737  0.2388
  446SOL    HW3 1551   0.987   2.664   4.257 -1.7979 -0.9602  0.2276
  446SOL    MW4 1552   1.021   2.625   4.327 -0.0000  0.2636 -0.4192
  447SOL     OW 1553   2.511   0.375   2.880 -0.0669  0.2431 -0.0813
  447SOL    HW2 1554   2.543   0.465   2.889  0.5346  0.0765 -0.5302
  447SOL    HW3 1555   2.416   0.384   2.879  0.0052  1.0219 -1.5246
  447SOL    MW4 1556   2.503   0.388   2.881  0.1813 -0.3418 -0.3923
  448SOL     OW 1557   1.308   5.036   6.250  0.3082 -0.2228 -0.0040
  448SOL    HW2 1558   1.356   5.110   6.212  1.0807 -0.9147 -0.4021
  448SOL    HW3 1559   1.228   5.075   6.285  0.0414  0.5874 -1.4493
  448SOL    MW4 1560   1.304   5.051   6.250  0.0939 -0.1173 -0.1805
  449SOL     OW 1561   3.574   2.668   4.047  0.3954 -0.2706 -0.3356
  449SOL    HW2 1562   3.576   2.585   4.095 -0.0496 -1.2368 -1.9105
  449SOL    HW3 1563   3.509   2.721   4.093  2.0232 -0.0207  1.8367
  449SOL    MW4 1564   3.566   2.664   4.059  0.7817  0.7827  0.1961
  450SOL     OW 1565   4.480   4.242   3.673  0.0189  0.2392  0.3434
  450SOL    HW2 1566   4.513   4.179   3.737  1.8723  1.1940  0.3978
  450SOL    HW3 1567   4.435   4.308   3.725 -0.7393 -0.3051  0.4017
  450SOL    MW4 1568   4.479   4.242   3.688 -0.5214  0.0388  0.2076
  451SOL     OW 1569   4.567   1.441   3.187  0.1887 -0.3322 -0.4648
  451SOL    HW2 1570   4.496   1.466   3.127 -0.4011 -0.9716 -0.0564
  451SOL    HW3 1571   4.612   1.369   3.142 -1.8768 -2.6574  0.8814
  451SOL    MW4 1572   4.563   1.435   3.173  0.4334  0.6236 -0.3157
  452SOL     OW 1573   1.975   5.720   6.101  0.3771 -0.0021  0.0015
  452SOL    HW2 1574   1.938   5.748   6.185 -0.1981  0.2988 -0.3441
  452SOL    HW3 1575   1.907   5.664   6.063 -0.1018  1.2315 -1.0173
  452SOL    MW4 1576   1.961   5.716   6.107 -0.9385  0.1099  0.1106
  453SOL     OW 1577   1.017   3.261   2.147  0.5044 -0.0375 -0.1244
  453SOL    HW2 1578   0.968   3.290   2.223 -0.3914  0.9621 -1.0583
  453SOL    HW3 1579   1.005   3.166   2.145 -1.3553  0.1778 -0.2950
  453SOL    MW4 1580   1.009   3.252   2.157 -0.1493  0.1748  0.5997
  454SOL     OW 1581   1.659   4.767   3.912  0.5000 -0.6022 -0.1663
  454SOL    HW2 1582   1.577   4.785   3.958  1.6472  1.6880  1.1918
  454SOL    HW3 1583   1.682   4.851   3.872  3.8942 -0.0291  2.4826
  454SOL    MW4 1584   1.651   4.781   3.913 -0.1906 -0.5158 -0.1365
  455SOL     OW 1585   2.794   5.296   4.111 -0.2859 -0.6453 -0.1850
  455SOL    HW2 1586   2.793   5.354   4.035 -0.9493  0.9986  1.0188
  455SOL    HW3 1587   2.826   5.351   4.182  0.7646 -2.2757  0.6531
  455SOL    MW4 1588   2.798   5.311   4.110  0.3471  0.4072 -0.2535
  456SOL     OW 1589   2.373   5.572   1.745 -0.2458 -0.2067  0.1538
  456SOL    HW2 1590   2.463   5.561   1.774  0.0932  0.4629 -0.5780
  456SOL    HW3 1591   2.381   5.612   1.658 -1.2584  0.7233  0.4618
  456SOL    MW4 1592   2.386   5.576   1.737 -0.1983 -0.0442 -0.4170
  457SOL     OW 1593   5.555   4.165   2.117  0.3593 -0.0013  0.2292
  457SOL    HW2 1594   5.532   4.257   2.129  2.2138  0.7229 -1.2290
  457SOL    HW3 1595   5.582   4.160   2.025  0.1261 -2.0548  0.2412
  457SOL    MW4 1596   5.555   4.177   2.106  0.0763 -0.1136  0.0932
  458SOL     OW 1597   5.887   6.117   5.409 -0.4719  0.6680 -0.2265
  458SOL    HW2 1598   5.942   6.136   5.485 -1.0662  1.8627 -0.0712
  458SOL    HW3 1599   5.949   6.085   5.343  0.4141  1.8686 -0.0224
  458SOL    MW4 1600   5.903   6.115   5.411 -0.9818 -0.7680 -0.1969
  459SOL     OW 1601   5.754   0.026   3.718 -0.1136 -0.6104  0.2779
  459SOL    HW2 1602   5.763  -0.064   3.751  0.0622 -0.8054 -0.2882
  459SOL    HW3 1603   5.835   0.041   3.669 -0.6396 -0.5611 -0.6099
  459SOL    MW4 1604   5.766   0.016   3.716  0.1186 -0.2999  1.0194
  460SOL     OW 1605   6.268   3.482   4.409  0.3083  0.2803 -0.0958
  460SOL    HW2 1606   6.340   3.422   4.391  0.1503 -0.0765  0.4406
  460SOL    HW3 1607   6.228   3.498   4.323  1.6380  1.2912 -0.5637
  460SOL    MW4 1608   6.272   3.476   4.395 -0.1110 -0.6605 -0.4204
  461SOL     OW 1609   6.281   3.109   4.424 -0.1500 -0.5198 -0.5585
  461SOL    HW2 1610   6.259   3.018   4.445  1.2442 -1.0721 -1.3242
  461SOL    HW3 1611   6.229   3.129   4.346 -0.5781 -0.5940 -0.2970
  461SOL    MW4 1612   6.271   3.100   4.417 -0.0315  0.1999  0.1087
  462SOL     OW 1613   1.024   3.217   5.300  0.3929 -0.5282  0.4579
  462SOL    HW2 1614   0.968   3.264   5.238  1.7506  1.1625  0.4546
  462SOL    HW3 1615   0.973   3.139   5.323 -1.0849 -0.0797 -1.0705
  462SOL    MW4 1616   1.010   3.213   5.295  0.5994 -0.0228  0.3590
  463SOL     OW 1617   1.247   2.251   3.592  0.0627  0.1364 -0.4496
  463SOL    HW2 1618   1.204   2.216   3.669  1.1086 -1.3363 -0.4979
  463SOL    HW3 1619   1.182   2.246   3.522 -0.6742  0.8812  0.1611
  463SOL    MW4 1620   1.233   2.246   3.593  0.4967  0.0320  0.0086
  464SOL     OW 1621   2.575   5.702   4.566 -0.1950 -0.1978 -0.5994
  464SOL    HW2 1622   2.513   5.767   4.600 -1.6018 -0.6129 -2.2567
  464SOL    HW3 1623   2.659   5.749   4.562 -1.2316  1.6838 -2.0523
  464SOL    MW4 1624   2.578   5.717   4.570 -0.6878  0.5549  0.4981
  465SOL     OW 1625   1.532   0.136   6.096  0.2880 -0.4249  0.4900
  465SOL    HW2 1626   1.467   0.164   6.031  1.2563 -0.3135 -0.4546
  465SOL    HW3 1627   1.542   0.212   6.154  0.6664  0.0968 -0.2535
  465SOL    MW4 1628   1.525   0.150   6.095  0.4757  0.7856  0.1201
  466SOL     OW 1629   1.275   0.109   4.265 -0.0934 -0.5798 -0.1175
  466SOL    HW2 1630   1.216   0.060   4.323 -0.2300 -1.2878 -0.8379
  466SOL    HW3 1631   1.352   0.127   4.319 -0.3065 -1.0380  0.3472
  466SOL    MW4 1632   1.277   0.105   4.280 -0.0767 -0.2805  0.0506
  467SOL     OW 1633   2.408   6.163   5.826  0.6758 -0.5283  0.3369
  467SOL    HW2 1634   2.458   6.245   5.821  0.0938 -0.1070  1.1115
  467SOL    HW3 1635   2.330   6.179   5.772 -0.4831  0.2331  2.1441
  467SOL    MW4 1636   2.405   6.176   5.818 -0.2711 -0.3753  0.7956
  468SOL     OW 1637   6.231   4.297   0.963 -0.1914 -0.4647 -0.0928
  468SOL    HW2 1638   6.226   4.201   0.958 -0.4593 -0.4737  0.3194
  468SOL    HW3 1639   6.141   4.326   0.950 -0.1154 -0.2678 -0.1843
  468SOL    MW4 1640   6.218   4.288   0.961  0.7457  0.2492 -0.0224
  469SOL     OW 1641   2.361   3.804   1.412 -0.5508  0.5372 -0.1458
  469SOL    HW2 1642   2.277   3.844   1.438 -0.3016  1.3578 -0.5782
  469SOL    HW3 1643   2.383   3.847   1.330 -0.2268 -0.4531 -0.5853
  469SOL    MW4 1644   2.353   3.815   1.405 -0.0102 -0.4200  0.7606
  470SOL     OW 1645   0.438   0.768   4.102 -0.0194 -0.0279 -0.6120
  470SOL    HW2 1646   0.446   0.758   4.197 -0.4337  0.3410 -0.5335
  470SOL    HW3 1647   0.511   0.824   4.078  2.1940 -2.8171 -1.0234
  470SOL    MW4 1648   0.449   0.774   4.112  0.1046  0.1237  0.3920
  471SOL     OW 1649   2.054   2.716   5.265  0.7555  0.4334 -0.6042
  471SOL    HW2 1650   1.971   2.675   5.289  0.6881 -1.9698 -4.1756
  471SOL    HW3 1651   2.029   2.794   5.215  0.7424  0.9152  0.1362
  471SOL    MW4 1652   2.040   2.721   5.261  0.0329  0.4457 -0.1609
  472SOL     OW 1653   5.127   1.034   5.133  0.4778 -0.5800 -0.2260
  472SOL    HW2 1654   5.112   1.014   5.041  2.1141  0.1515 -0.6870
  472SOL    HW3 1655   5.206   0.986   5.155  1.3987  1.0118  0.1359
  472SOL    MW4 1656   5.135   1.025   5.124 -0.0927  0.1379 -0.2661
  473SOL     OW 1657   2.323   0.298   1.739 -0.1337  0.2757  0.2239
  473SOL    HW2 1658   2.243   0.245   1.746  0.6752 -1.6130 -2.8633
  473SOL    HW3 1659   2.302   0.364   1.673  0.2010  1.2364  1.0503
  473SOL    MW4 1660   2.309   0.300   1.732  0.1874 -0.0498  0.0163
  474SOL     OW 1661   5.570   0.568   0.724 -0.0434  0.1082  0.4689
  474SOL    HW2 1662   5.547   0.548   0.633 -3.3014  0.9182  0.9993
  474SOL    HW3 1663   5.585   0.482   0.764  0.0205 -0.3397 -0.4948
  474SOL    MW4 1664   5.569   0.554   0.717 -0.3963  0.5371 -0.8319
  475SOL     OW 1665   4.749   4.751   5.114  0.3500 -0.2859 -0.1687
  475SOL    HW2 1666   4.836   4.716   5.097  0.8591  1.2231 -0.8656
  475SOL    HW3 1667   4.715   4.699   5.187  1.5886 -1.2799 -0.2767
  475SOL    MW4 1668   4.756   4.740   5.121  0.2513 -0.2411  0.2061
  476SOL     OW 1669   3.872   5.091   5.559 -0.3721  0.4873  0.1527
  476SOL    HW2 1670   3.817   5.092   5.637 -0.8165  0.6757 -0.1539
  476SOL    HW3 1671   3.812   5.115   5.488 -0.0829 -0.1425 -0.3125
  476SOL    MW4 1672   3.857   5.094   5.560 -0.5378  0.4406  0.0100
  477SOL     OW 1673   1.855   3.324   3.278 -0.6500 -0.4301  0.1864
  477SOL    HW2 1674   1.940   3.367   3.286 -0.2927 -0.6133 -2.0500
  477SOL    HW3 1675   1.800   3.388   3.233 -1.3295 -0.7928  0.4894
  477SOL    MW4 1676   1.859   3.338   3.273 -0.1975 -0.1117  0.0671
  478SOL     OW 1677   0.113   5.879   4.815 -0.2055  0.0755 -0.0578
  478SOL    HW2 1678   0.057   5.928   4.875 -1.5937 -1.3225 -0.1655
  478SOL    HW3 1679   0.061   5.871   4.735  0.7743  0.0589 -0.7141
  478SOL    MW4 1680   0.099   5.884   4.812 -0.2545  0.3992  0.1217
  479SOL     OW 1681   0.585   0.230   4.838 -0.0122 -0.6317 -0.4955
  479SOL    HW2 1682   0.501   0.203   4.876  0.2373  0.4063  0.8771
  479SOL    HW3 1683   0.574   0.216   4.744 -1.0262 -2.3347 -0.1677
  479SOL    MW4 1684   0.572   0.224   4.831 -0.5358 -0.0534 -0.6605
  480SOL     OW 1685   0.509   0.892   2.715 -0.1999  0.1577 -0.0247
  480SOL    HW2 1686   0.419   0.866   2.692 -0.5170  0.5025  0.7951
  480SOL    HW3 1687   0.503   0.986   2.729  0.3421  0.2154 -0.1721
  480SOL    MW4 1688   0.496   0.901   2.714  0.4151 -0.5762  0.1022
  481SOL     OW 1689   2.748   1.440   0.627  0.0090  0.1616 -0.0801
  481SOL    HW2 1690   2.810   1.512   0.626  0.1326  0.0810  0.7306
  481SOL    HW3 1691   2.664   1.482   0.646 -0.0349  0.1716 -0.2986
  481SOL    MW4 1692   2.745   1.455   0.630  0.3773 -1.0611  0.5735
  482SOL     OW 1693   4.340   3.301   6.140 -0.3236  0.3201 -0.8408
  482SOL    HW2 1694   4.377   3.379   6.182 -1.4845  0.5465 -0.1997
  482SOL    HW3 1695   4.402   3.231   6.162  0.8473  1.0867 -1.6047
  482SOL    MW4 1696   4.353   3.302   6.149  0.1792  0.0684  0.2279
  483SOL     OW 1697   3.362   5.451   3.389 -0.8874 -0.0248  0.4634
  483SOL    HW2 1698   3.384   5.368   3.348  0.6082  0.8081 -0.5001
  483SOL    HW3 1699   3.435   5.469   3.449 -1.8684 -0.0520  1.7137
  483SOL    MW4 1700   3.375   5.443   3.392 -0.0910  0.1128  0.3087
  484SOL     OW 1701   5.871   4.514   2.243 -0.4536 -0.1066 -0.7086
  484SOL    HW2 1702   5.861   4.425   2.274  1.3241 -0.1014 -0.0379
  484SOL    HW3 1703   5.944   4.510   2.181  0.3181  1.0533  0.1010
  484SOL    MW4 1704   5.879   4.502   2.239  0.0202  0.2823 -0.4347
  485SOL     OW 1705   5.736   2.662   3.210 -0.4043 -0.0853  0.0731
  485SOL    HW2 1706   5.725   2.596   3.277  0.8831  0.0270  0.4335
  485SOL    HW3 1707   5.651   2.667   3.165 -2.0728  1.4389  3.1064
  485SOL    MW4 1708   5.723   2.654   3.213  0.3105 -0.1444 -0.0661
  486SOL     OW 1709   4.516   1.129   0.149 -0.1833  0.1798 -0.0335
  486SOL    HW2 1710   4.528   1.064   0.080  0.0167  0.7619 -0.5558
  486SOL    HW3 1711   4.483   1.207   0.104 -1.8614 -0.0148  0.7906
  486SOL    MW4 1712   4.513   1.131   0.134 -0.3511  0.7734 -0.1096
  487SOL     OW 1713   1.624   1.352   1.474 -0.2884  0.3547  0.1860
  487SOL    HW2 1714   1.667   1.417   1.418  2.8505 -0.8771  0.9932
  487SOL    HW3 1715   1.646   1.268   1.435 -0.3860 -0.4179  1.7272
  487SOL    MW4 1716   1.632   1.350   1.462  0.0704 -0.4399 -0.0868
  488SOL     OW 1717   0.939   4.990   2.408  0.0009 -0.0390  0.2444
  488SOL    HW2 1718   0.992   4.910   2.401  0.6121  0.3448  0.4509
  488SOL    HW3 1719   0.851   4.962   2.382  0.3941 -0.5858 -0.5540
  488SOL    MW4 1720   0.935   4.976   2.404 -0.4863  0.3014 -0.0425
  489SOL     OW 1721   5.105   4.283   5.307  0.7091  0.1995 -0.1007
  489SOL    HW2 1722   5.092   4.372   5.341  0.2452  0.3417 -0.6481
  489SOL    HW3 1723   5.200   4.273   5.304  0.8106 -0.2198  2.2899
  489SOL    MW4 1724   5.116   4.293   5.311 -0.4434 -0.8931  0.0694
  490SOL     OW 1725   5.036   0.246   2.066 -0.1293  0.3612 -0.5488
  490SOL    HW2 1726   5.079   0.202   1.993 -1.2614 -0.1803 -0.9226
  490SOL    HW3 1727   5.090   0.224   2.143  0.5872  0.2259 -1.0832
  490SOL    MW4 1728   5.049   0.237   2.067 -0.1001 -0.1776 -0.3025
  491SOL     OW 1729   1.026   2.546   5.259  0.0196  0.4671  0.2596
  491SOL    HW2 1730   1.025   2.635   5.222  1.8616  0.0669 -0.8737
  491SOL    HW3 1731   1.119   2.525   5.269 -0.3757 -1.3754  0.3931
  491SOL    MW4 1732   1.038   2.555   5.255 -0.5756  0.5693  0.0462
  492SOL     OW 1733   4.014   0.301   4.968 -0.0027 -0.1161 -0.1688
  492SOL    HW2 1734   3.966   0.286   5.050  0.3299 -3.0878 -0.4247
  492SOL    HW3 1735   4.105   0.284   4.991  0.1634 -0.3967 -1.0345
  492SOL    MW4 1736   4.020   0.297   4.982  0.6438  0.3129 -0.4540
  493SOL     OW 1737   3.577   1.544   2.944  0.2701 -0.4322 -0.0810
  493SOL    HW2 1738   3.544   1.620   2.895  0.2264  0.2783  1.0287
  493SOL    HW3 1739   3.665   1.569   2.972 -0.4279  0.0014  1.8988
  493SOL    MW4 1740   3.584   1.557   2.941  0.3956  0.5647 -0.1072
  494SOL     OW 1741   1.661   4.050   0.269  0.1446 -0.1516 -0.1720
  494SOL    HW2 1742   1.594   3.985   0.292  1.2718 -0.7444  1.6399
  494SOL    HW3 1743   1.712   4.008   0.200 -0.1999 -0.4868 -0.2244
  494SOL    MW4 1744   1.659   4.036   0.263 -0.4109 -0.4935  0.5307
  495SOL     OW 1745   0.743   5.711   2.199 -0.6136 -0.4237  0.0458
  495SOL    HW2 1746   0.820   5.669   2.238  0.1810  0.1994 -0.8081
  495SOL    HW3 1747   0.779   5.766   2.129 -1.8590 -0.2411 -0.4648
  495SOL    MW4 1748   0.758   5.713   2.195 -0.2283 -0.6257 -0.1477
  496SOL     OW 1749   4.585   4.513   1.100 -0.3820  0.5147 -0.0009
  496SOL    HW2 1750   4.503   4.562   1.102 -0.0017  1.1935 -0.4936
  496SOL    HW3 1751   4.626   4.537   1.017  0.8063  1.0448  0.6959
  496SOL    MW4 1752   4.580   4.523   1.090 -0.3262 -0.0764 -0.1331
  497SOL     OW 1753   2.324   1.466   5.787  0.3968 -0.2605 -0.9095
  497SOL    HW2 1754   2.290   1.493   5.702  3.0380  0.9377 -1.7031
  497SOL    HW3 1755   2.414   1.437   5.768  0.9712 -0.2042  1.4424
  497SOL    MW4 1756   2.331   1.465   5.773 -0.3860 -0.8113  0.0278
  498SOL     OW 1757   0.904   1.148   5.935  0.0093  0.1549 -0.2665
  498SOL    HW2 1758   0.815   1.168   5.908  0.5372  2.5662 -0.4223
  498SOL    HW3 1759   0.915   1.192   6.019  0.4036 -1.9851  0.8891
  498SOL    MW4 1760   0.894   1.156   5.943 -0.8339 -0.1257 -0.1907
  499SOL     OW 1761   1.466   1.284   5.899 -0.1818 -0.2657  0.0652
  499SOL    HW2 1762   1.392   1.262   5.842 -0.5572 -1.6355  1.0214
  499SOL    HW3 1763   1.542   1.245   5.855 -0.1753  0.2744 -0.4120
  499SOL    MW4 1764   1.466   1.276   5.886 -0.9482 -0.2813 -0.2781
  500SOL     OW 1765   2.531   5.804   2.269 -0.1196  0.2268  0.6669
  500SOL    HW2 1766   2.522   5.898   2.255  0.0601  0.1739  0.1642
  500SOL    HW3 1767   2.493   5.765   2.191  1.1156 -0.0797  0.1950
  500SOL    MW4 1768   2.525   5.811   2.257 -0.1923  0.3599  0.0173
  501SOL     OW 1769   0.240   4.462   4.604 -0.3628  0.6479 -0.0677
  501SOL    HW2 1770   0.272   4.446   4.515 -0.1132 -1.5091  0.3533
  501SOL    HW3 1771   0.145   4.453   4.598 -0.1948 -3.6771  0.4694
  501SOL    MW4 1772   0.232   4.458   4.592 -0.0449 -0.9266  0.8025
  502SOL     OW 1773   3.481   2.752   5.001  0.3145 -0.0220  0.1283
  502SOL    HW2 1774   3.549   2.685   5.005 -1.6271 -2.3257 -1.9146
  502SOL    HW3 1775   3.401   2.706   5.024 -1.0923  1.6317 -1.1548
  502SOL    MW4 1776   3.479   2.737   5.005 -0.4059  0.3874  0.2247
  503SOL     OW 1777   4.453   4.159   4.802 -0.0906 -0.4524  0.4674
  503SOL    HW2 1778   4.378   4.120   4.847  0.2266 -0.8174  0.6887
  503SOL    HW3 1779   4.415   4.226   4.745 -0.4521  0.4834  1.7712
  503SOL    MW4 1780   4.438   4.163   4.800 -0.5589  0.4486 -0.3002
  504SOL     OW 1781   2.523   2.751   1.444  0.4140  0.2181 -0.6553
  504SOL    HW2 1782   2.578   2.771   1.368  2.2545  1.6733  0.9579
  504SOL    HW3 1783   2.584   2.715   1.509 -0.4449  1.9411  1.2310
  504SOL    MW4 1784   2.539   2.749   1.443 -0.1298  0.3895  0.4887
  505SOL     OW 1785   3.940   0.108   1.510  0.5728 -0.7528 -0.2851
  505SOL    HW2 1786   3.857   0.146   1.540 -0.3101 -1.9160 -1.1408
  505SOL    HW3 1787   4.005   0.140   1.572 -0.4801  0.3239  0.3209
  505SOL    MW4 1788   3.937   0.117   1.522  0.5072 -0.5101  0.2637
  506SOL     OW 1789   6.341   1.417   2.713  0.6229  0.1329 -0.2766
  506SOL    HW2 1790   6.362   1.325   2.700 -1.9437 -0.6491  0.4239
  506SOL    HW3 1791   6.299   1.443   2.631 -0.9225 -0.0911  0.4158
  506SOL    MW4 1792   6.338   1.408   2.701  0.0510  0.5628  0.0915
  507SOL     OW 1793   0.184   2.121   3.543  0.3365 -0.7779 -0.5534
  507SOL    HW2 1794   0.118   2.056   3.566 -0.9014  0.1549 -1.3506
  507SOL    HW3 1795   0.184   2.123   3.447  1.3274 -0.5653 -0.5594
  507SOL    MW4 1796   0.176   2.113   3.533 -0.1866  0.9367 -0.1210
  508SOL     OW 1797   1.752   1.152   4.085 -0.2487  0.3856 -0.5710
  508SOL    HW2 1798   1.710   1.075   4.048  0.1660  0.2404 -0.7520
  508SOL    HW3 1799   1.700   1.174   4.162  0.0202 -0.4906 -0.1205
  508SOL    MW4 1800   1.740   1.145   4.090  0.0079  0.3108  0.6506
  509SOL     OW 1801   1.816   1.507   5.883  0.8171  0.0505  0.1171
  509SOL    HW2 1802   1.837   1.526   5.792  0.6159  0.2182  0.1052
  509SOL    HW3 1803   1.869   1.569   5.933 -0.5698  1.3575  0.0485
  509SOL    MW4 1804   1.826   1.517   5.878 -0.0635 -0.4586 -0.1112
  510SOL     OW 1805   1.114   3.628   5.056 -0.4675 -0.2824 -0.0630
  510SOL    HW2 1806   1.020   3.621   5.040 -0.3888 -1.8740 -0.0126
  510SOL    HW3 1807   1.147   3.539   5.045  0.8836  0.0649  0.8554
  510SOL    MW4 1808   1.106   3.615   5.053 -0.4221  0.1214 -0.1595
  511SOL     OW 1809   5.733   3.212   2.175  0.3071  1.1603 -0.2280
  511SOL    HW2 1810   5.704   3.253   2.094 -0.5493  1.0350  0.0084
  511SOL    HW3 1811   5.767   3.127   2.149 -2.3792 -0.0086 -0.2026
  511SOL    MW4 1812   5.734   3.206   2.161 -0.3829 -0.2848 -0.0166
  512SOL     OW 1813   0.934   4.993   2.097 -0.8087 -0.7462 -0.2378
  512SOL    HW2 1814   0.885   5.024   2.173  0.5910 -2.2536  1.3644
  512SOL    HW3 1815   0.939   4.899   2.109 -0.6215 -1.0291 -2.2790
  512SOL    MW4 1816   0.928   4.985   2.109  1.0658 -0.2054 -0.3160
  513SOL     OW 1817   6.121   5.230   5.443  0.0721 -0.3623  0.2807
  513SOL    HW2 1818   6.187   5.222   5.374 -0.9633 -2.3860 -0.5635
  513SOL    HW3 1819   6.158   5.182   5.517 -0.8727 -2.5555 -0.5932
  513SOL    MW4 1820   6.135   5.223   5.444  0.6979  0.1154  0.2161
  514SOL     OW 1821   4.687   1.178   4.648 -0.4034  0.0936  0.0603
  514SOL    HW2 1822   4.686   1.225   4.732  0.4642  0.5944 -0.1937
  514SOL    HW3 1823   4.596   1.155   4.632 -0.8610  1.6337  0.2457
  514SOL    MW4 1824   4.675   1.181   4.657 -0.5498  0.1553 -0.4433
  515SOL     OW 1825   4.195   4.560   1.256 -0.1500 -0.3579 -0.4614
  515SOL    HW2 1826   4.105   4.585   1.240 -0.1704 -0.4416 -0.4807
  515SOL    HW3 1827   4.245   4.641   1.247 -0.2091 -0.3331 -0.5691
  515SOL    MW4 1828   4.190   4.574   1.252 -1.1862 -0.1383  0.7212
  516SOL     OW 1829   5.100   2.929   6.326 -0.1941 -0.3919 -0.2674
  516SOL    HW2 1830   5.195   2.940   6.329  0.0236 -1.9368 -0.3702
  516SOL    HW3 1831   5.083   2.900   6.236 -0.8031  0.2052 -0.3442
  516SOL    MW4 1832   5.111   2.926   6.315 -0.3661 -0.4486 -0.1557
  517SOL     OW 1833   2.065   3.324   2.134 -0.0466  0.1217 -0.3100
  517SOL    HW2 1834   2.117   3.293   2.060  1.7233  1.0270  0.5114
  517SOL    HW3 1835   2.016   3.399   2.100 -1.6037 -1.2607 -1.3253
  517SOL    MW4 1836   2.065   3.329   2.120  0.0327 -0.5679  0.5432
  518SOL     OW 1837   5.859   6.428   2.541 -0.2846 -0.1986  0.0295
  518SOL    HW2 1838   5.945   6.388   2.528  0.2172  0.5908  0.8040
  518SOL    HW3 1839   5.798   6.365   2.505  0.6174 -0.7862 -0.5215
  518SOL    MW4 1840   5.863   6.415   2.534  0.2598 -0.0136  0.2566
  519SOL     OW 1841   2.982   2.159   2.305  0.0709 -0.1588 -0.0595
  519SOL    HW2 1842   3.066   2.127   2.339  1.1497  1.0385 -1.5067
  519SOL    HW3 1843   2.984   2.138   2.212 -1.0351  0.3329 -0.2053
  519SOL    MW4 1844   2.993   2.152   2.297  1.0253 -0.0244 -0.0795
  520SOL     OW 1845   6.328   4.902   3.852  0.3826 -0.2676  0.5439
  520SOL    HW2 1846   6.424   4.899   3.852  0.4266  0.3139 -0.8607
  520SOL    HW3 1847   6.302   4.811   3.833  0.5662 -0.8774  2.9079
  520SOL    MW4 1848   6.338   4.889   3.849 -0.3906 -0.4616  0.1504
  521SOL     OW 1849   1.542   3.980   5.005 -0.5590 -0.0301  0.8549
  521SOL    HW2 1850   1.467   3.967   5.063 -0.3388 -1.4537  0.8552
  521SOL    HW3 1851   1.548   4.075   4.995 -1.4315  0.1810  2.0620
  521SOL    MW4 1852   1.533   3.991   5.011  0.1104  0.1728 -0.8687
  522SOL     OW 1853   0.686   3.427   0.588 -0.5725 -0.4341  0.4671
  522SOL    HW2 1854   0.706   3.433   0.494  1.2860  0.3575  0.8613
  522SOL    HW3 1855   0.730   3.346   0.616  2.4093  1.3350  1.3568
  522SOL    MW4 1856   0.695   3.417   0.579 -0.0114 -0.0072  0.1711
  523SOL     OW 1857   3.004   5.212   4.386  0.2056  0.7221  0.2308
  523SOL    HW2 1858   3.050   5.133   4.355  0.9865  0.5013  1.8397
  523SOL    HW3 1859   3.072   5.263   4.430 -0.7201  1.2908  1.0355
  523SOL    MW4 1860   3.019   5.208   4.388 -0.0431 -0.0051  0.1947
  524SOL     OW 1861   2.290   4.164   6.142 -0.3729 -0.3372  0.2009
  524SOL    HW2 1862   2.208   4.115   6.143 -1.7536  1.7864 -0.7956
  524SOL    HW3 1863   2.283   4.225   6.215  0.6552 -0.5980  0.5368
  524SOL    MW4 1864   2.278   4.165   6.152  0.0805  0.0680  0.8492
  525SOL     OW 1865   4.556   3.517   2.964 -0.1073 -0.3161 -0.3184
  525SOL    HW2 1866   4.507   3.588   3.005  1.0052  0.0674  0.3954
  525SOL    HW3 1867   4.499   3.441   2.971 -0.1491 -0.1573  1.5654
  525SOL    MW4 1868   4.542   3.517   2.970  0.9456  0.2904 -0.7091
  526SOL     OW 1869   1.627   3.378   3.440 -0.6084 -0.2034  0.2847
  526SOL    HW2 1870   1.570   3.386   3.363  0.3083  0.0908 -0.3807
  526SOL    HW3 1871   1.713   3.359   3.404  0.0913  1.1575  1.1775
  526SOL    MW4 1872   1.630   3.376   3.425 -0.3534  0.4787 -0.2743
  527SOL     OW 1873   0.918   0.061   2.688 -0.0183  0.2764 -0.0083
  527SOL    HW2 1874   0.828   0.095   2.687  0.4268  1.5507  0.8732
  527SOL    HW3 1875   0.916  -0.014   2.629 -1.4397  0.8616 -0.7409
  527SOL    MW4 1876   0.906   0.055   2.680 -0.1238 -0.5826 -0.2276
  528SOL     OW 1877   5.908   3.761   1.810  0.2530  0.2256  0.3463
  528SOL    HW2 1878   5.868   3.802   1.887  1.1768  3.7359 -0.8706
  528SOL    HW3 1879   5.982   3.712   1.846 -0.1676  0.6298  1.8386
  528SOL    MW4 1880   5.913   3.760   1.825  0.4366 -0.2053  0.1691
  529SOL     OW 1881   1.493   1.758   3.409  0.2193  0.5057 -0.2398
  529SOL    HW2 1882   1.536   1.738   3.326 -0.4867  0.4005 -0.5938
  529SOL    HW3 1883   1.407   1.792   3.384 -1.4625 -2.7845  0.4245
  529SOL    MW4 1884   1.487   1.759   3.395 -0.1179  0.1216  0.2136
  530SOL     OW 1885   1.936   2.274   1.771 -0.5292 -0.2019  0.2253
  530SOL    HW2 1886   1.843   2.251   1.767 -0.6512  0.0494  1.3175
  530SOL    HW3 1887   1.939   2.366   1.748 -0.6452 -0.0214  0.9118
  530SOL    MW4 1888   1.924   2.283   1.768  0.1908 -0.0868  0.6836
  531SOL     OW 1889   0.035   6.318   5.844  0.4418 -0.0882 -0.0023
  531SOL    HW2 1890   0.091   6.241   5.846  1.6180  0.6930 -1.0341
  531SOL    HW3 1891  -0.054   6.284   5.835  0.9293 -1.3208 -0.2727
  531SOL    MW4 1892   0.031   6.303   5.843 -0.1189 -0.0008 -0.2255
  532SOL     OW 1893   3.584   0.467   6.094 -0.2404  0.0592  0.9325
  532SOL    HW2 1894   3.541   0.446   6.011 -2.1758 -0.5945  2.0458
  532SOL    HW3 1895   3.678   0.463   6.074 -0.6525 -0.2035 -1.1704
  532SOL    MW4 1896   3.591   0.464   6.080 -0.1012 -0.3016  0.7304
  533SOL     OW 1897   4.146   4.762   1.974  0.0739  0.2779 -0.0274
  533SOL    HW2 1898   4.121   4.693   1.913 -0.4485 -1.4655  2.0542
  533SOL    HW3 1899   4.149   4.720   2.060 -1.6957  3.1287  1.6090
  533SOL    MW4 1900   4.143   4.748   1.977  0.1034 -0.5460  0.2425
  534SOL     OW 1901   3.403   4.693   2.283  0.1856  0.3094 -0.0488
  534SOL    HW2 1902   3.431   4.766   2.338  1.0683 -1.4074  1.9179
  534SOL    HW3 1903   3.374   4.627   2.345  0.4876 -1.4436 -1.6952
  534SOL    MW4 1904   3.403   4.694   2.298 -0.3356 -0.6424  0.1069
  535SOL     OW 1905   4.393   4.818   6.222  0.2074  0.2067 -0.1744
  535SOL    HW2 1906   4.474   4.767   6.218  0.6773  0.9056  0.1354
  535SOL    HW3 1907   4.366   4.811   6.314  0.2408  0.4705 -0.1456
  535SOL    MW4 1908   4.400   4.810   6.234 -0.2508  0.0340 -0.1520
  536SOL     OW 1909   0.585   0.189   1.708 -0.4295  0.1787 -0.3159
  536SOL    HW2 1910   0.519   0.251   1.678 -0.3983  0.5457  0.3667
  536SOL    HW3 1911   0.634   0.236   1.776 -0.4588 -0.6129  0.2694
  536SOL    MW4 1912   0.583   0.203   1.713  0.2590 -0.5186 -0.1747
  537SOL     OW 1913   5.786   0.593   3.880  0.4334 -0.7039  0.1099
  537SOL    HW2 1914   5.863   0.639   3.846  0.0039  0.3303  0.5032
  537SOL    HW3 1915   5.713   0.627   3.828  0.2695 -2.0162 -0.5804
  537SOL    MW4 1916   5.786   0.603   3.869  0.9369 -0.8155 -0.6817
  538SOL     OW 1917   0.339   4.353   2.084 -0.3149  0.2106 -0.0683
  538SOL    HW2 1918   0.257   4.395   2.058 -0.4510 -0.4264 -0.6957
  538SOL    HW3 1919   0.392   4.353   2.005 -0.3682 -0.9154 -0.1157
  538SOL    MW4 1920   0.335   4.358   2.070  0.0147 -0.0271  0.2839
  539SOL     OW 1921   1.141   2.142   1.084  0.2106  0.0196  0.3659
  539SOL    HW2 1922   1.226   2.142   1.128  1.3085  0.7231 -1.6479
  539SOL    HW3 1923   1.143   2.067   1.025 -0.5305  0.1086  0.2081
  539SOL    MW4 1924   1.152   2.132   1.082 -0.4108 -0.3140  0.0266
  540SOL     OW 1925   5.361   5.607   4.464 -0.1566  0.6638 -0.3312
  540SOL    HW2 1926   5.297   5.661   4.511  1.5243  2.3449  0.1655
  540SOL    HW3 1927   5.403   5.668   4.403  0.4396 -0.5751 -1.1999
  540SOL    MW4 1928   5.358   5.623   4.462 -0.0227 -0.1482  0.0594
  541SOL     OW 1929   2.064   1.066   0.066  0.6530 -0.5305 -0.3850
  541SOL    HW2 1930   2.056   1.000  -0.003  0.8839  1.1514 -2.0956
  541SOL    HW3 1931   2.070   1.150   0.019  3.1999  0.5177  1.5606
  541SOL    MW4 1932   2.064   1.068   0.051  0.3108 -0.2046  0.5960
  542SOL     OW 1933   5.074   3.607   4.568  0.0522 -0.0030 -0.1929
  542SOL    HW2 1934   5.046   3.588   4.478  1.2928  0.8078 -0.7909
  542SOL    HW3 1935   5.000   3.651   4.608 -0.8066 -1.0624 -0.5540
  542SOL    MW4 1936   5.061   3.610   4.561 -0.3891  0.0565 -0.0075
  543SOL     OW 1937   1.149   0.598   2.883 -0.2298  0.6667 -0.4232
  543SOL    HW2 1938   1.098   0.672   2.916 -1.5712 -0.1110 -0.6638
  543SOL    HW3 1939   1.118   0.585   2.794  0.2964  0.0730 -0.5266
  543SOL    MW4 1940   1.138   0.606   2.876 -0.1399 -0.3625  0.2062
  544SOL     OW 1941   5.263   2.023   3.396 -0.0189  0.7600  0.0723
  544SOL    HW2 1942   5.266   2.042   3.489 -1.0828  2.1104 -0.1429
  544SOL    HW3 1943   5.346   1.979   3.378 -0.0466 -0.0535  1.7482
  544SOL    MW4 1944   5.274   2.019   3.406 -0.1403 -0.4529  0.1868
  545SOL     OW 1945   5.307   2.350   2.734 -0.5653  0.1937 -0.1452
  545SOL    HW2 1946   5.233   2.410   2.740 -0.5050  0.3992 -1.2683
  545SOL    HW3 1947   5.273   2.265   2.762 -1.0604  0.4201 -0.0602
  545SOL    MW4 1948   5.293   2.347   2.738 -0.3165 -0.7630 -0.3946
  546SOL     OW 1949   0.411   0.512   1.136  0.2312 -0.3603 -0.1060
  546SOL    HW2 1950   0.405   0.446   1.067 -0.4999  0.9689 -1.3762
  546SOL    HW3 1951   0.326   0.510   1.179  0.4254 -0.6596  0.2735
  546SOL    MW4 1952   0.399   0.503   1.132 -0.1497 -0.0394  0.0890
  547SOL     OW 1953   0.284   0.932   0.850  0.8879 -0.3292 -0.1407
  547SOL    HW2 1954   0.369   0.920   0.892  1.5867 -0.3565 -1.4856
  547SOL    HW3 1955   0.275   1.027   0.839  0.3605 -0.2684  0.7128
  547SOL    MW4 1956   0.294   0.943   0.854 -0.4085  0.0757  0.0884
  548SOL     OW 1957   3.046   1.941   0.158 -0.3162  0.0168  0.8563
  548SOL    HW2 1958   2.963   1.953   0.204 -1.4705  1.1401 -1.3646
  548SOL    HW3 1959   3.036   1.857   0.113 -1.3741  1.2843 -1.4389
  548SOL    MW4 1960   3.034   1.932   0.158 -0.5473 -0.1980 -0.3745
  549SOL     OW 1961   4.787   4.276   3.820  0.4544 -0.4730  0.3711
  549SOL    HW2 1962   4.779   4.249   3.729 -0.8053  0.6185  0.1355
  549SOL    HW3 1963   4.754   4.365   3.822 -1.1402 -1.0325  2.1738
  549SOL    MW4 1964   4.781   4.284   3.808  0.2628 -0.2778  0.1711
  550SOL     OW 1965   3.711   2.546   3.226 -0.1441 -0.7366  0.4503
  550SOL    HW2 1966   3.703   2.508   3.139 -0.1407 -0.3626  0.2883
  550SOL    HW3 1967   3.622   2.573   3.249  0.1590  1.0239 -0.2782
  550SOL    MW4 1968   3.698   2.544   3.218  0.6687 -0.2193 -0.6497
  551SOL     OW 1969   4.102   1.328   3.580 -0.3034 -0.5001 -0.2343
  551SOL    HW2 1970   4.060   1.319   3.494 -1.1622  1.3284 -0.0603
  551SOL    HW3 1971   4.118   1.422   3.589  0.8435 -0.7879  1.1358
  551SOL    MW4 1972   4.099   1.339   3.570 -0.6555 -0.2636  0.2040
  552SOL     OW 1973   0.084   5.643   4.393 -0.2320 -0.5389 -0.2270
  552SOL    HW2 1974   0.060   5.614   4.481 -2.0614  1.1038 -0.1183
  552SOL    HW3 1975   0.176   5.667   4.400  0.0046 -1.6729  0.8712
  552SOL    MW4 1976   0.093   5.642   4.405 -0.2285  0.5305  0.0096
  553SOL     OW 1977   1.444   3.434   0.580 -0.1804  0.0503  0.2670
  553SOL    HW2 1978   1.441   3.345   0.544 -0.7634 -0.7345  2.1561
  553SOL    HW3 1979   1.500   3.428   0.657 -0.9018  1.1318  0.9064
  553SOL    MW4 1980   1.451   3.422   0.585 -0.2653 -0.5392 -0.2516
  554SOL     OW 1981   3.277   4.384   3.643 -0.5908 -0.1322  0.3412
  554SOL    HW2 1982   3.182   4.379   3.653 -0.5312  0.4834  1.3522
  554SOL    HW3 1983   3.299   4.473   3.670  0.2645 -0.2343  0.0047
  554SOL    MW4 1984   3.267   4.395   3.648  0.1427 -0.3063 -0.0795
  555SOL     OW 1985   1.806   5.466   4.205  0.3629  0.0073  0.5783
  555SOL    HW2 1986   1.833   5.375   4.222  0.7630  0.4236  2.4596
  555SOL    HW3 1987   1.725   5.458   4.155  1.3282 -1.3442 -0.8966
  555SOL    MW4 1988   1.799   5.453   4.201 -1.0764 -0.0818  0.4056
  556SOL     OW 1989   6.329   6.017   5.949  0.3523  0.3005 -0.4720
  556SOL    HW2 1990   6.306   5.929   5.979  1.2971 -0.6169 -2.2119
  556SOL    HW3 1991   6.407   6.040   6.000  0.8415 -0.4264 -0.8722
  556SOL    MW4 1992   6.336   6.008   5.959  0.5776 -0.0602 -0.0594
  557SOL     OW 1993   4.857   5.010   5.074 -0.4363 -0.0716  0.9893
  557SOL    HW2 1994   4.907   4.984   4.996 -0.1744  1.1195  0.7386
  557SOL    HW3 1995   4.811   4.931   5.100 -0.1440 -0.6207 -0.0905
  557SOL    MW4 1996   4.858   4.996   5.067 -0.2596  0.2393 -0.0428
  558SOL     OW 1997   5.790   4.238   2.940 -0.2546  0.4922  0.1001
  558SOL    HW2 1998   5.811   4.149   2.966 -0.1835 -0.0492 -1.6665
  558SOL    HW3 1999   5.834   4.293   3.005  1.4408 -0.7139  0.0343
  558SOL    MW4 2000   5.799   4.234   2.952 -0.4651  0.0013 -0.4458
  559SOL     OW 2001   4.883   3.243   2.674 -0.4208 -0.1099 -0.1003
  559SOL    HW2 2002   4.933   3.225   2.594 -0.1736  0.1833 -0.0146
  559SOL    HW3 2003   4.839   3.326   2.656 -1.8415 -0.9498 -0.6333
  559SOL    MW4 2004   4.884   3.252   2.661 -0.4264  0.3305  0.3925
  560SOL     OW 2005   5.094   2.590   3.388  0.1965 -0.2024  0.0024
  560SOL    HW2 2006   5.117   2.553   3.303  0.8631 -2.0189  0.9197
  560SOL    HW3 2007   4.999   2.600   3.385  0.2408  0.0378 -1.0422
  560SOL    MW4 2008   5.085   2.587   3.377 -0.1187 -0.1314  0.4085
  561SOL     OW 2009   1.510   4.767   5.955 -0.0922  0.3163  0.3307
  561SOL    HW2 2010   1.416   4.747   5.962 -0.0567  0.1876  0.4462
  561SOL    HW3 2011   1.525   4.835   6.020  0.0217 -0.1134  0.7516
  561SOL    MW4 2012   1.499   4.773   5.964 -0.1762  0.3665 -0.1046
  562SOL     OW 2013   6.159   2.473   4.806 -0.6802 -0.7245  0.2069
  562SOL    HW2 2014   6.177   2.393   4.757 -0.1581 -0.3093 -0.2920
  562SOL    HW3 2015   6.106   2.444   4.880 -1.8573 -1.3191 -0.8212
  562SOL    MW4 2016   6.154   2.459   4.809 -0.1896  0.2918 -0.0379
  563SOL     OW 2017   3.027   2.035   2.709 -0.2319  0.4032  0.4808
  563SOL    HW2 2018   2.988   2.104   2.656 -0.2177 -0.5264 -0.7772
  563SOL    HW3 2019   3.091   2.081   2.764  0.9138  1.2296 -1.4252
  563SOL    MW4 2020   3.030   2.050   2.709  0.1194 -0.0465  0.3374
  564SOL     OW 2021   4.406   0.914   1.040  0.4154 -0.0167 -0.3912
  564SOL    HW2 2022   4.437   1.004   1.046 -0.1370  0.2103 -0.8004
  564SOL    HW3 2023   4.432   0.885   0.953  0.8835 -0.3643 -0.1340
  564SOL    MW4 2024   4.413   0.922   1.029  0.1875  0.6349 -0.0688
  565SOL     OW 2025   0.005   5.148   1.241  0.6563  0.0700 -0.0635
  565SOL    HW2 2026   0.061   5.080   1.203  1.0146  0.5167 -0.3420
  565SOL    HW3 2027  -0.029   5.108   1.321  0.5261 -0.5936 -0.4399
  565SOL    MW4 2028   0.008   5.134   1.246  0.1326  0.0412  0.0243
  566SOL     OW 2029   3.439   1.652   0.403  0.5257 -0.0157 -0.3022
  566SOL    HW2 2030   3.358   1.687   0.366  1.7273  0.9822 -2.1182
  566SOL    HW3 2031   3.428   1.662   0.497 -1.8082 -0.7213 -0.4393
  566SOL    MW4 2032   3.427   1.658   0.410  0.5423  0.1429  0.1761
  567SOL     OW 2033   5.089   0.555   3.571 -0.3069 -0.2029  0.3367
  567SOL    HW2 2034   5.078   0.517   3.658  0.6115  2.0764  1.5426
  567SOL    HW3 2035   5.002   0.548   3.530 -0.4704 -2.3382  0.9431
  567SOL    MW4 2036   5.076   0.549   3.577 -0.6025  0.2123 -0.4478
  568SOL     OW 2037   0.534   0.514   3.627  0.3821 -0.6986  0.0963
  568SOL    HW2 2038   0.514   0.509   3.534 -0.2077 -2.5340  0.2696
  568SOL    HW3 2039   0.581   0.596   3.638  0.1944 -0.3077 -1.7604
  568SOL    MW4 2040   0.538   0.524   3.617 -0.1768  0.0577  0.0498
  569SOL     OW 2041   0.351   0.998   3.816 -0.3712  0.1131 -0.4675
  569SOL    HW2 2042   0.317   0.909   3.804 -0.5272  0.2106 -0.7633
  569SOL    HW3 2043   0.383   1.024   3.730 -0.8596  0.5592 -0.5211
  569SOL    MW4 2044   0.350   0.990   3.803 -0.0583  0.0082  0.8463
  570SOL     OW 2045   1.382   2.470   2.104  0.1846  0.1907  0.0797
  570SOL    HW2 2046   1.340   2.530   2.166 -0.5998  1.0133 -1.1919
  570SOL    HW3 2047   1.334   2.388   2.115 -0.2962  0.4808  0.1923
  570SOL    MW4 2048   1.370   2.467   2.114 -0.4140  1.0693  0.0403
  571SOL     OW 2049   0.234   2.230   1.955 -0.3526  0.4273 -0.1985
  571SOL    HW2 2050   0.208   2.219   1.863  2.1742 -1.1546 -0.8170
  571SOL    HW3 2051   0.159   2.273   1.996 -2.5351 -0.9606 -2.4681
  571SOL    MW4 2052   0.221   2.234   1.948 -0.1847  0.4876 -0.8793
  572SOL     OW 2053   2.099   5.200   5.655  0.2244 -0.1773 -0.2253
  572SOL    HW2 2054   2.175   5.197   5.597  0.9550 -0.5073  0.7035
  572SOL    HW3 2055   2.136   5.223   5.741 -0.8568  0.6305  0.0430
  572SOL    MW4 2056   2.114   5.203   5.659 -0.6389  0.1827  0.0912
  573SOL     OW 2057   0.526   0.025   0.912 -0.8555  0.0135  0.6425
  573SOL    HW2 2058   0.473  -0.038   0.962 -0.7414  0.8601  1.8723
  573SOL    HW3 2059   0.479   0.035   0.829 -0.8857 -1.6663  0.4193
  573SOL    MW4 2060   0.513   0.018   0.908  0.0495 -0.3761 -0.0900
  574SOL     OW 2061   2.542   0.900   6.166  1.1092  0.1729 -0.0667
  574SOL    HW2 2062   2.551   0.823   6.222  1.4114  1.3685  1.6346
  574SOL    HW3 2063   2.510   0.866   6.083  0.6130 -1.6997  0.8238
  574SOL    MW4 2064   2.539   0.886   6.163 -0.4227  0.0139 -0.2176
  575SOL     OW 2065   4.543   5.731   2.720 -0.4708  0.1280 -0.3847
  575SOL    HW2 2066   4.556   5.708   2.627  3.0402  0.1231 -0.0306
  575SOL    HW3 2067   4.596   5.667   2.768  0.0291  1.7881  1.4113
  575SOL    MW4 2068   4.552   5.720   2.714  0.0792 -0.3173 -0.1010
  576SOL     OW 2069   4.645   4.397   6.384  0.4210  0.1728  0.6347
  576SOL    HW2 2070   4.674   4.477   6.341  1.8535 -0.6847 -0.0562
  576SOL    HW3 2071   4.595   4.428   6.460 -0.6249  1.7004 -0.6084
  576SOL    MW4 2072   4.642   4.412   6.389 -0.1784 -0.4690 -0.2554
  577SOL     OW 2073   2.309   5.574   3.234  0.4040 -0.0723  0.0742
  577SOL    HW2 2074   2.395   5.546   3.265  1.4871  0.0708 -2.4904
  577SOL    HW3 2075   2.309   5.669   3.245  1.2904  0.1335 -1.3328
  577SOL    MW4 2076   2.321   5.582   3.239  0.0353 -0.2043 -0.1465
  578SOL     OW 2077   1.484   0.538   3.530 -0.0378  0.2806 -0.4185
  578SOL    HW2 2078   1.482   0.505   3.440  1.6457 -0.5792 -0.1770
  578SOL    HW3 2079   1.467   0.461   3.585  0.2404  0.5323  0.0300
  578SOL    MW4 2080   1.482   0.523   3.525 -0.4108  0.1585 -0.4616
  579SOL     OW 2081   0.887   1.257   0.720 -0.3403  0.4047 -0.4248
  579SOL    HW2 2082   0.929   1.237   0.636  0.1503 -0.2928 -0.0234
  579SOL    HW3 2083   0.852   1.345   0.709 -2.9116 -0.6893 -2.4504
  579SOL    MW4 2084   0.888   1.266   0.707  0.1739 -0.5808  0.1978
  580SOL     OW 2085   5.848   4.820   4.905  0.6107 -0.0688  0.3081
  580SOL    HW2 2086   5.844   4.916   4.899 -1.0818  0.0178  2.0483
  580SOL    HW3 2087   5.912   4.803   4.974  1.2235 -0.2236 -0.2893
  580SOL    MW4 2088   5.856   4.831   4.913 -0.4891 -0.3111 -0.0335
  581SOL     OW 2089   6.107   3.906   3.447  0.0512  0.1749 -0.3824
  581SOL    HW2 2090   6.111   3.934   3.538 -0.8490 -0.5928 -0.0869
  581SOL    HW3 2091   6.155   3.973   3.398 -2.2648  2.4232  0.2384
  581SOL    MW4 2092   6.114   3.918   3.452 -0.4531  0.3209 -0.2962
  582SOL     OW 2093   5.896   0.261   2.651 -0.2629 -1.0505 -0.6892
  582SOL    HW2 2094   5.883   0.185   2.595 -2.3068 -1.7662  0.6421
  582SOL    HW3 2095   5.833   0.250   2.722 -0.0850  1.4960 -0.0194
  582SOL    MW4 2096   5.886   0.250   2.653  0.1856 -0.1960  0.2678
  583SOL     OW 2097   3.727   2.907   4.065 -0.4209 -0.1752  0.3780
  583SOL    HW2 2098   3.683   2.964   4.001 -1.2285  0.0446  1.1105
  583SOL    HW3 2099   3.683   2.823   4.057  0.7959 -0.7336 -0.7264
  583SOL    MW4 2100   3.715   2.904   4.056  0.4299  0.1403 -0.8661
  584SOL     OW 2101   0.645   3.911   3.053 -0.2696  0.0796 -0.0965
  584SOL    HW2 2102   0.633   3.995   3.008  1.9283  1.1784  1.2298
  584SOL    HW3 2103   0.668   3.850   2.983 -0.6583  0.8501 -0.9243
  584SOL    MW4 2104   0.646   3.914   3.038 -0.1422  0.0567 -0.2064
  585SOL     OW 2105   5.031   2.186   4.745  0.0729 -0.2364  0.2435
  585SOL    HW2 2106   5.061   2.241   4.672  0.1107 -0.1522  0.3222
  585SOL    HW3 2107   5.042   2.097   4.713 -0.6436 -0.1939 -0.1508
  585SOL    MW4 2108   5.037   2.182   4.731 -0.0944 -0.3661  0.1718
  586SOL     OW 2109   0.957   1.546   3.172  0.3189 -0.6203  0.2518
  586SOL    HW2 2110   0.993   1.520   3.257 -0.9911  0.3280  1.1327
  586SOL    HW3 2111   0.929   1.464   3.132  1.2622 -1.1204  0.5716
  586SOL    MW4 2112   0.958   1.532   3.178  0.3959 -0.0478  0.0229
  587SOL     OW 2113   5.178   2.804   0.379 -0.3101  0.5772  0.4131
  587SOL    HW2 2114   5.175   2.709   0.388  1.0960  0.4457 -0.3472
  587SOL    HW3 2115   5.170   2.837   0.469  0.7168 -0.3058  0.8393
  587SOL    MW4 2116   5.176   2.796   0.392 -0.2081 -0.4930 -0.2486
  588SOL     OW 2117   2.390   1.929   3.454 -0.6710 -0.1321 -0.3324
  588SOL    HW2 2118   2.403   1.835   3.469 -1.1643 -0.0637  0.5597
  588SOL    HW3 2119   2.296   1.940   3.445 -0.7992  0.4988  1.3230
  588SOL    MW4 2120   2.380   1.918   3.455 -0.1978 -0.0507  0.0384
  589SOL     OW 2121   2.635   1.386   2.977  0.2056  0.0993  0.3032
  589SOL    HW2 2122   2.606   1.477   2.985 -1.2113 -0.3466  0.3557
  589SOL    HW3 2123   2.597   1.356   2.895  2.4829  0.1717 -0.8797
  589SOL    MW4 2124   2.626   1.394   2.967 -0.0289  0.5930  0.5607
  590SOL     OW 2125   0.229   0.620   0.550 -0.0333 -0.1292  0.4368
  590SOL    HW2 2126   0.292   0.692   0.550  0.1868 -0.3199  1.1080
  590SOL    HW3 2127   0.245   0.574   0.468 -0.1704  0.5813  0.0050
  590SOL    MW4 2128   0.239   0.624   0.539 -0.1084 -0.1775  0.7791
  591SOL     OW 2129   6.166   3.977   0.506 -0.2950 -0.3454  0.2648
  591SOL    HW2 2130   6.172   4.053   0.563 -0.3528 -0.3136  0.2279
  591SOL    HW3 2131   6.250   3.975   0.461 -0.5978  0.1808 -0.3486
  591SOL    MW4 2132   6.178   3.987   0.508  0.1537  0.3792 -0.0199
  592SOL     OW 2133   1.112   2.277   5.496 -0.3126  0.2202 -0.1622
  592SOL    HW2 2134   1.081   2.366   5.516  0.3183  0.2521  0.7271
  592SOL    HW3 2135   1.074   2.222   5.564 -1.6080 -0.4038 -1.3402
  592SOL    MW4 2136   1.103   2.282   5.507  0.5591 -0.4106  0.6001
  593SOL     OW 2137   0.857   3.602   5.616  0.1147  0.0788 -0.3547
  593SOL    HW2 2138   0.949   3.625   5.632  0.3941 -1.2935  0.1533
  593SOL    HW3 2139   0.842   3.628   5.525  1.3077 -0.5511 -0.7568
  593SOL    MW4 2140   0.867   3.608   5.606 -0.4391  0.4429 -0.0907
  594SOL     OW 2141   1.144   5.209   3.757 -0.6807 -0.4253 -0.5849
  594SOL    HW2 2142   1.147   5.256   3.674  0.4999 -0.7893 -0.7512
  594SOL    HW3 2143   1.215   5.146   3.753 -0.9035 -0.7749  0.5143
  594SOL    MW4 2144   1.154   5.207   3.746 -0.2212 -0.0058  0.3545
  595SOL     OW 2145   3.746   4.560   2.787  0.6453  0.0372 -0.1964
  595SOL    HW2 2146   3.819   4.620   2.774 -0.0576  0.6089 -1.7124
  595SOL    HW3 2147   3.686   4.607   2.846 -0.1866  1.1518 -1.8472
  595SOL    MW4 2148   3.747   4.574   2.793  0.1548 -0.5217 -0.2585
  596SOL     OW 2149   1.675   1.202   4.518 -0.1309 -0.2820  0.3981
  596SOL    HW2 2150   1.731   1.151   4.459 -0.3643 -0.4313  0.3056
  596SOL    HW3 2151   1.720   1.199   4.602 -0.4181 -1.1005  0.5311
  596SOL    MW4 2152   1.688   1.195   4.521  0.8908 -0.1765  0.1059
  597SOL     OW 2153   2.804   4.656   4.700  0.1722  0.2258 -0.1988
  597SOL    HW2 2154   2.882   4.711   4.693  0.5147  0.0133  1.5614
  597SOL    HW3 2155   2.837   4.567   4.705 -0.2607  0.0321 -0.6797
  597SOL    MW4 2156   2.818   4.652   4.699 -0.1116 -0.2067  0.1798
  598SOL     OW 2157   5.371   2.662   5.538  0.4068 -0.4165  0.1804
  598SOL    HW2 2158   5.289   2.695   5.503  0.1539 -1.0523  0.1613
  598SOL    HW3 2159   5.423   2.640   5.461  0.9985  0.9291  0.1744
  598SOL    MW4 2160   5.367   2.663   5.523 -0.2423 -0.4073  0.3285
  599SOL     OW 2161   1.042   3.950   1.165 -0.1521 -0.3094  0.4079
  599SOL    HW2 2162   0.947   3.962   1.152 -0.3491 -0.1141  1.9121
  599SOL    HW3 2163   1.048   3.890   1.239  0.9098 -1.4957 -0.6146
  599SOL    MW4 2164   1.030   3.944   1.173  0.1676  0.1211 -0.3279
  600SOL     OW 2165   2.679   4.214   5.868  0.2922 -0.0790 -0.1829
  600SOL    HW2 2166   2.593   4.252   5.888  0.5977  1.2812 -1.2383
  600SOL    HW3 2167   2.725   4.214   5.952 -0.5134 -0.2290  0.2712
  600SOL    MW4 2168   2.673   4.219   5.882 -0.5766 -0.7172 -0.2987
  601SOL     OW 2169   1.724   6.393   2.199 -0.1720 -0.7558 -0.7708
  601SOL    HW2 2170   1.649   6.336   2.218 -2.0100  1.5820 -0.5787
  601SOL    HW3 2171   1.686   6.468   2.153  1.7370  1.4167  0.9733
  601SOL    MW4 2172   1.709   6.395   2.195  0.3502 -0.6949 -0.9044
  602SOL     OW 2173   0.568   4.394   0.387  0.0128 -0.3712 -0.1759
  602SOL    HW2 2174   0.660   4.411   0.408 -0.3141 -0.3109  1.2970
  602SOL    HW3 2175   0.567   4.386   0.291  1.3449  0.7731 -0.3200
  602SOL    MW4 2176   0.580   4.395   0.377 -0.0792 -0.0534  0.9858
  603SOL     OW 2177   0.333   2.985   3.788  0.1411 -0.6266 -0.0145
  603SOL    HW2 2178   0.301   3.002   3.699 -0.9807 -0.1634  0.4599
  603SOL    HW3 2179   0.426   2.968   3.777  0.5936  1.9717 -1.0392
  603SOL    MW4 2180   0.341   2.985   3.775  0.4118  0.2785  0.3711
  604SOL     OW 2181   3.079   2.316   4.508 -0.8916  0.3020 -0.0495
  604SOL    HW2 2182   3.122   2.332   4.592 -0.0682  0.9736 -0.5742
  604SOL    HW3 2183   3.018   2.244   4.525  0.4261 -0.6851  0.7479
  604SOL    MW4 2184   3.077   2.308   4.521  0.1042  0.2040 -0.7780
  605SOL     OW 2185   6.341   4.530   0.874  0.6438 -0.1551 -0.0809
  605SOL    HW2 2186   6.322   4.445   0.913 -0.2900  0.4890  0.8909
  605SOL    HW3 2187   6.264   4.583   0.892  1.9144  1.4504  0.8926
  605SOL    MW4 2188   6.329   4.525   0.881 -0.2278  0.0724 -0.0655
  606SOL     OW 2189   4.864   5.053   2.884  0.0769 -0.7253  0.2060
  606SOL    HW2 2190   4.828   4.971   2.918  0.4773 -0.9522  0.0832
  606SOL    HW3 2191   4.958   5.037   2.876  0.6709  0.7490  3.0897
  606SOL    MW4 2192   4.871   5.040   2.888 -0.5324 -0.5928  0.2925
  607SOL     OW 2193   5.612   4.693   1.638  0.2430  0.1141 -0.2623
  607SOL    HW2 2194   5.569   4.707   1.722  1.5514 -0.1419  0.4871
  607SOL    HW3 2195   5.541   4.688   1.575 -0.8713 -1.1013  1.0180
  607SOL    MW4 2196   5.597   4.694   1.641  0.3074 -0.2542  0.3228
  608SOL     OW 2197   0.149   3.303   2.182 -0.0998 -0.5350 -0.1604
  608SOL    HW2 2198   0.098   3.223   2.169 -0.9853  0.1425 -0.9618
  608SOL    HW3 2199   0.090   3.362   2.229  0.6257 -0.4187  0.6281
  608SOL    MW4 2200   0.134   3.300   2.187 -0.4510  0.3632  0.1313
  609SOL     OW 2201   2.571   0.265   1.531 -0.9488  0.2936  0.5532
  609SOL    HW2 2202   2.539   0.222   1.611 -3.3857  0.0097 -0.5043
  609SOL    HW3 2203   2.597   0.352   1.560  1.2970 -0.8109  2.2005
  609SOL    MW4 2204   2.571   0.271   1.545  0.0883 -0.4062 -0.1042
  610SOL     OW 2205   0.365   0.055   0.223  0.2821 -0.1126  0.3274
  610SOL    HW2 2206   0.380  -0.033   0.189  0.6442 -0.0273  0.2521
  610SOL    HW3 2207   0.438   0.069   0.284 -0.1886 -0.1480  0.9072
  610SOL    MW4 2208   0.377   0.045   0.226  0.3654 -0.0208  0.1436
  611SOL     OW 2209   2.064   1.542   2.153 -0.1361  0.3289 -0.1943
  611SOL    HW2 2210   2.136   1.597   2.124 -2.1508  2.6756 -1.1362
  611SOL    HW3 2211   2.001   1.604   2.191 -2.2184 -1.4264 -0.6193
  611SOL    MW4 2212   2.065   1.558   2.154  0.5072 -0.1100 -0.1904
  612SOL     OW 2213   1.987   6.020   4.889 -0.1623 -0.1936 -0.1512
  612SOL    HW2 2214   2.033   6.050   4.810 -1.7551 -1.2217 -1.5293
  612SOL    HW3 2215   1.977   6.099   4.942 -1.6538  1.1925 -2.3261
  612SOL    MW4 2216   1.992   6.034   4.885  0.1236 -0.6470  0.2221
  613SOL     OW 2217   2.843   6.356   0.298 -0.2924 -0.2788  0.0726
  613SOL    HW2 2218   2.756   6.387   0.324 -0.3860 -0.1936 -0.3339
  613SOL    HW3 2219   2.903   6.399   0.359 -0.5938 -0.9129  0.8253
  613SOL    MW4 2220   2.839   6.366   0.309  0.1139 -0.7416  0.2164
  614SOL     OW 2221   2.261   1.819   3.056  0.1695  0.6041  0.2268
  614SOL    HW2 2222   2.274   1.724   3.057  2.0235  0.8167 -0.5183
  614SOL    HW3 2223   2.263   1.842   2.963 -0.8431  1.3201  0.3686
  614SOL    MW4 2224   2.263   1.809   3.043 -0.2042 -0.4483  0.5701
  615SOL     OW 2225   3.856   3.165   3.357  0.3932  0.0842  0.1165
  615SOL    HW2 2226   3.803   3.154   3.436 -2.3257 -3.7926 -1.8721
  615SOL    HW3 2227   3.939   3.123   3.377  1.8962  3.7230  2.3779
  615SOL    MW4 2228   3.860   3.158   3.370 -0.4935 -0.2843  0.1527
  616SOL     OW 2229   3.816   5.540   2.934 -0.1060  0.3197  0.3932
  616SOL    HW2 2230   3.832   5.488   2.855  0.1387 -0.3869  0.8910
  616SOL    HW3 2231   3.750   5.490   2.983 -0.6911  1.0470  0.3693
  616SOL    MW4 2232   3.809   5.526   2.930  0.0047  0.3176  0.1675
  617SOL     OW 2233   5.121   3.007   4.189 -0.3739  0.3973  0.5903
  617SOL    HW2 2234   5.125   2.975   4.279 -0.7987  1.2922  0.9360
  617SOL    HW3 2235   5.031   2.991   4.162  0.2885 -1.9592 -0.4909
  617SOL    MW4 2236   5.110   3.001   4.197 -0.2775  0.5907  0.0776
  618SOL     OW 2237   5.410   3.138   0.045 -0.6343 -0.2280 -0.2686
  618SOL    HW2 2238   5.430   3.110  -0.044 -1.9294 -2.6121  0.0977
  618SOL    HW3 2239   5.346   3.208   0.035 -0.3338 -0.0867 -1.2274
  618SOL    MW4 2240   5.404   3.143   0.032  0.3124  0.0221  0.0811
  619SOL     OW 2241   2.690   4.141   2.494 -0.2342  0.5025 -0.2576
  619SOL    HW2 2242   2.760   4.202   2.472  1.4059 -1.5626 -1.1300
  619SOL    HW3 2243   2.720   4.098   2.574  0.1368 -1.2304 -1.2760
  619SOL    MW4 2244   2.703   4.143   2.502 -0.0087  0.0692 -0.1096
  620SOL     OW 2245   1.352   2.412   1.831  0.2969  0.5002  0.0756
  620SOL    HW2 2246   1.358   2.447   1.920  0.1163  0.6013  0.0475
  620SOL    HW3 2247   1.430   2.447   1.787  0.2508  0.6626  0.1204
  620SOL    MW4 2248   1.363   2.421   1.837 -0.4690 -0.5633 -0.5593
  621SOL     OW 2249   2.158   0.954   2.862 -0.1854  0.1275  0.5318
  621SOL    HW2 2250   2.149   0.902   2.942  0.2909  0.4422  0.7993
  621SOL    HW3 2251   2.209   1.031   2.889 -0.7133  0.6420  0.1041
  621SOL    MW4 2252   2.163   0.958   2.876  0.4952  0.0720 -0.0216
  622SOL     OW 2253   5.482   2.781   6.113 -0.3960 -0.1492  0.0448
  622SOL    HW2 2254   5.561   2.827   6.086 -0.2955 -0.6550 -0.5518
  622SOL    HW3 2255   5.501   2.751   6.202  0.5205 -1.1960 -0.4754
  622SOL    MW4 2256   5.495   2.783   6.122  0.1345 -0.0352  0.8512
  623SOL     OW 2257   2.842   2.714   2.219 -0.0207 -0.3945 -0.4312
  623SOL    HW2 2258   2.895   2.741   2.144 -0.2360  1.9594  0.2021
  623SOL    HW3 2259   2.897   2.651   2.266  0.8659 -0.4734 -1.5334
  623SOL    MW4 2260   2.856   2.709   2.215 -0.6609 -0.2774  0.1296
  624SOL     OW 2261   1.206   5.601   5.961  0.2124  0.4312 -0.4527
  624SOL    HW2 2262   1.145   5.534   5.991  2.3401 -1.7286 -0.6152
  624SOL    HW3 2263   1.242   5.639   6.041 -0.6307  1.0508 -0.3581
  624SOL    MW4 2264   1.203   5.598   5.975  0.0263  0.2232 -0.7596
  625SOL     OW 2265   4.106   6.110   3.501 -0.5326  0.5552  0.4415
  625SOL    HW2 2266   4.114   6.173   3.572  0.7576  1.0971 -0.1544
  625SOL    HW3 2267   4.172   6.044   3.520  0.2874  1.0589 -0.5952
  625SOL    MW4 2268   4.116   6.109   3.513  0.3210 -0.1441  0.5317
  626SOL     OW 2269   1.485   1.535   5.465  0.3096  0.2665 -0.3447
  626SOL    HW2 2270   1.497   1.602   5.532  0.6266 -1.9249  1.9710
  626SOL    HW3 2271   1.399   1.552   5.429 -0.0918  1.2627  1.0010
  626SOL    MW4 2272   1.476   1.546   5.469 -0.3434 -0.1438 -0.0828
  627SOL     OW 2273   3.528   5.784   2.187  0.1428 -0.1670 -0.0347
  627SOL    HW2 2274   3.606   5.817   2.141 -0.0334 -0.4428 -0.5470
  627SOL    HW3 2275   3.493   5.861   2.232  1.1901 -0.2244  0.9081
  627SOL    MW4 2276   3.534   5.799   2.187  0.2878  0.0345 -0.3471
  628SOL     OW 2277   2.063   5.001   2.423 -0.2561  0.4185  0.3157
  628SOL    HW2 2278   2.041   4.915   2.459  0.5916 -0.3010 -0.8027
  628SOL    HW3 2279   2.074   4.986   2.330 -1.2119  1.9935 -0.0908
  628SOL    MW4 2280   2.062   4.988   2.416 -0.1721 -0.1719 -0.3481
  629SOL     OW 2281   4.281   2.035   3.837 -0.5109  0.0945  0.2697
  629SOL    HW2 2282   4.335   2.084   3.775 -0.8623  0.3040  0.1243
  629SOL    HW3 2283   4.332   2.032   3.918  0.3486 -0.9464 -0.2815
  629SOL    MW4 2284   4.295   2.041   3.839  0.1094 -0.3911  0.1805
  630SOL     OW 2285   1.320   4.796   1.698 -0.2937 -0.1348 -0.4776
  630SOL    HW2 2286   1.296   4.882   1.733  0.8545  1.3079 -2.9256
  630SOL    HW3 2287   1.287   4.798   1.608  3.2832 -0.5284 -1.9644
  630SOL    MW4 2288   1.312   4.808   1.691  0.3689  0.0643 -0.0912
  631SOL     OW 2289   5.028   0.941   5.969 -0.0429 -0.2886 -0.0349
  631SOL    HW2 2290   5.040   1.004   5.898  0.0785  0.2508  0.4563
  631SOL    HW3 2291   5.112   0.896   5.975 -0.1314 -0.5030 -0.3909
  631SOL    MW4 2292   5.041   0.943   5.961  0.4155  0.3416  0.3034
  632SOL     OW 2293   3.425   0.955   3.729  0.1928  0.0671  0.0118
  632SOL    HW2 2294   3.430   0.861   3.712  0.5267  0.1926 -0.6143
  632SOL    HW3 2295   3.443   0.963   3.823  1.3694 -0.4026 -0.1602
  632SOL    MW4 2296   3.428   0.944   3.739 -0.0819  0.4326  0.7320
  633SOL     OW 2297   0.459   5.990   3.766  0.1335  0.4573  0.5562
  633SOL    HW2 2298   0.385   6.038   3.729 -1.0954 -0.3358  1.8963
  633SOL    HW3 2299   0.427   5.901   3.778  1.2454  0.1414  1.3277
  633SOL    MW4 2300   0.445   5.985   3.763  0.1667  0.3233  0.1049
  634SOL     OW 2301   0.403   2.770   1.524  0.9386 -0.4619 -0.4135
  634SOL    HW2 2302   0.426   2.832   1.593 -0.0714 -0.7013  0.1539
  634SOL    HW3 2303   0.451   2.690   1.546  0.2904 -0.6763  0.2663
  634SOL    MW4 2304   0.412   2.768   1.536  0.4998 -0.5168  0.6775
  635SOL     OW 2305   0.395   2.475   4.361 -0.3177  0.1068  0.2034
  635SOL    HW2 2306   0.448   2.520   4.295 -0.8370 -0.0052 -0.2979
  635SOL    HW3 2307   0.382   2.387   4.325 -1.7076  0.4486 -0.1728
  635SOL    MW4 2308   0.401   2.469   4.347  0.5047 -0.3441 -0.0680
  636SOL     OW 2309   5.455   3.422   5.066 -0.1521  0.4572  0.2582
  636SOL    HW2 2310   5.382   3.390   5.119 -0.5768 -0.4269 -0.8220
  636SOL    HW3 2311   5.449   3.518   5.072 -0.0157  0.3869  1.9958
  636SOL    MW4 2312   5.445   3.431   5.074  0.3337 -0.1920 -0.1898
  637SOL     OW 2313   2.242   1.430   4.716 -0.2531  0.5099 -0.0460
  637SOL    HW2 2314   2.267   1.457   4.805 -0.5237 -0.5363  0.3614
  637SOL    HW3 2315   2.325   1.410   4.674 -0.2473 -3.1629  1.3718
  637SOL    MW4 2316   2.257   1.431   4.722 -0.2303 -0.4030  0.2124
  638SOL     OW 2317   3.563   3.489   3.991 -0.1010  0.5868 -0.6095
  638SOL    HW2 2318   3.561   3.419   4.057 -1.7425  0.2031 -1.0260
  638SOL    HW3 2319   3.603   3.563   4.037 -0.6600  0.1396  0.6510
  638SOL    MW4 2320   3.568   3.490   4.006 -0.5786 -0.1357  0.2881
  639SOL     OW 2321   2.246   2.267   2.135 -0.2139 -0.2738 -0.4925
  639SOL    HW2 2322   2.337   2.291   2.119  0.4236 -0.6718  2.0975
  639SOL    HW3 2323   2.250   2.201   2.204 -2.4528 -0.3410 -0.3472
  639SOL    MW4 2324   2.258   2.262   2.142  0.9801 -0.6188  0.3282
  640SOL     OW 2325   1.349   4.046   1.266  0.3227  0.7749  0.0385
  640SOL    HW2 2326   1.335   3.952   1.277 -0.6614  0.8646 -0.3293
  640SOL    HW3 2327   1.378   4.055   1.176 -1.7324  1.0032 -0.6555
  640SOL    MW4 2328   1.351   4.035   1.256  0.1359 -0.5156  0.2587
  641SOL     OW 2329   0.375   1.547   4.375 -0.3736 -0.3755 -0.3596
  641SOL    HW2 2330   0.428   1.474   4.344 -0.8402 -1.0995  0.4903
  641SOL    HW3 2331   0.294   1.541   4.323 -0.5807 -0.7202  0.0012
  641SOL    MW4 2332   0.371   1.536   4.364 -0.0110  0.0248  0.2373
  642SOL     OW 2333   5.757   3.196   2.935 -0.3674  0.1722 -0.4268
  642SOL    HW2 2334   5.795   3.108   2.930 -0.6715 -0.0489  0.8592
  642SOL    HW3 2335   5.818   3.251   2.887  0.3535 -0.5677 -0.3862
  642SOL    MW4 2336   5.770   3.191   2.928 -0.3167  1.0749  0.9062
  643SOL     OW 2337   0.019   4.857   0.835  0.6535 -0.4242  0.2262
  643SOL    HW2 2338  -0.055   4.903   0.795  0.6099 -0.4643  0.2612
  643SOL    HW3 2339  -0.020   4.779   0.875  0.6528 -0.2255  0.6135
  643SOL    MW4 2340   0.004   4.852   0.835  0.0803 -0.1473  0.0900
  644SOL     OW 2341   5.328   2.508   6.142  0.0762  0.0228 -0.0299
  644SOL    HW2 2342   5.372   2.445   6.199  0.7014 -1.1883 -1.7778
  644SOL    HW3 2343   5.391   2.579   6.132  0.3293 -0.1845  0.0715
  644SOL    MW4 2344   5.342   2.509   6.148  0.5627  0.0853 -0.1746
  645SOL     OW 2345   2.381   4.476   4.694  0.0485  0.0893  0.0019
  645SOL    HW2 2346   2.445   4.544   4.715  0.6808  0.5825 -3.0526
  645SOL    HW3 2347   2.431   4.394   4.701  0.0357  0.1525  0.9802
  645SOL    MW4 2348   2.396   4.474   4.698  0.0162  0.1449 -0.3554
  646SOL     OW 2349   5.995   1.874   0.063  0.0815  0.3958 -0.3908
  646SOL    HW2 2350   5.983   1.779   0.062  1.1795  0.2530 -0.4159
  646SOL    HW3 2351   5.970   1.900   0.152 -1.5084  0.2729 -0.7677
  646SOL    MW4 2352   5.990   1.865   0.075  0.4557 -0.0218  0.2863
  647SOL     OW 2353   3.417   4.460   1.780  0.4113 -0.3264  0.2932
  647SOL    HW2 2354   3.333   4.502   1.797 -0.0580 -1.1892  0.1704
  647SOL    HW3 2355   3.417   4.383   1.836  1.1290 -0.3292  0.2982
  647SOL    MW4 2356   3.406   4.455   1.790  0.0773  0.1567 -0.5167
  648SOL     OW 2357   2.476   4.334   5.324  0.5843  0.2197 -0.1808
  648SOL    HW2 2358   2.385   4.349   5.352  0.7841 -0.1818  0.6979
  648SOL    HW3 2359   2.490   4.400   5.256 -0.1481  0.7364  0.1505
  648SOL    MW4 2360   2.466   4.345   5.319 -0.1925  0.3646 -0.3751
  649SOL     OW 2361   3.239   0.322   0.273 -0.2847 -0.0073 -0.0291
  649SOL    HW2 2362   3.301   0.301   0.342 -0.1077  1.0241  0.1531
  649SOL    HW3 2363   3.158   0.345   0.319 -0.4567 -0.2453 -0.2102
  649SOL    MW4 2364   3.236   0.323   0.288 -0.5739  0.3292 -0.2585
  650SOL     OW 2365   4.042   1.772   0.343  0.4333  0.7600 -0.0831
  650SOL    HW2 2366   4.043   1.708   0.414  1.1143  0.2399 -0.5509
  650SOL    HW3 2367   4.133   1.775   0.312  0.1329  0.9098 -0.9810
  650SOL    MW4 2368   4.054   1.764   0.348 -0.1985  0.1518  0.2062
  651SOL     OW 2369   2.876   1.109   1.447 -0.0473 -0.2262  0.5231
  651SOL    HW2 2370   2.856   1.016   1.444  0.6919 -0.3769  0.1380
  651SOL    HW3 2371   2.922   1.122   1.530  0.6195 -0.3703  0.1849
  651SOL    MW4 2372   2.880   1.099   1.457  0.3724  0.0958  0.4674
  652SOL     OW 2373   4.989   0.089   2.918  0.0751  0.0105  0.0524
  652SOL    HW2 2374   4.940   0.168   2.894 -2.3896 -1.3211  0.3396
  652SOL    HW3 2375   5.059   0.083   2.853 -0.9890  1.2773 -1.2839
  652SOL    MW4 2376   4.992   0.098   2.906  0.7038  0.0019  0.0319
  653SOL     OW 2377   6.258   5.301   4.525  0.1494 -0.4439 -0.4885
  653SOL    HW2 2378   6.175   5.330   4.564  0.4776  1.1824 -0.8866
  653SOL    HW3 2379   6.252   5.330   4.434  1.5903  0.7832 -0.2432
  653SOL    MW4 2380   6.246   5.309   4.518  0.0479  0.4399  0.1473
  654SOL     OW 2381   2.072   1.500   0.216 -0.1712  0.0795 -0.3465
  654SOL    HW2 2382   2.160   1.521   0.246 -0.6532  0.2559  1.0377
  654SOL    HW3 2383   2.016   1.563   0.262 -1.1561 -1.0555  0.0477
  654SOL    MW4 2384   2.076   1.511   0.226  0.4373  0.0915  0.3561
  655SOL     OW 2385   2.857   0.382   4.855  0.3456  0.0404  0.1398
  655SOL    HW2 2386   2.851   0.478   4.863 -1.2456  0.0131 -0.2775
  655SOL    HW3 2387   2.889   0.367   4.766  0.2678  0.1920  0.0855
  655SOL    MW4 2388   2.860   0.393   4.844 -0.1871  0.1890  0.0031
  656SOL     OW 2389   5.651   1.052   0.205  0.3507  0.1092  0.4129
  656SOL    HW2 2390   5.678   1.116   0.271 -1.0740 -0.0781  1.2264
  656SOL    HW3 2391   5.733   1.016   0.171  1.2296  2.8431 -0.6045
  656SOL    MW4 2392   5.665   1.056   0.209 -0.7874 -0.2208  0.3426
  657SOL     OW 2393   6.367   2.535   3.531  0.3936  0.4742 -0.2263
  657SOL    HW2 2394   6.419   2.614   3.516 -0.2764  0.5010 -3.0830
  657SOL    HW3 2395   6.314   2.526   3.452 -2.2238 -0.8852  1.5368
  657SOL    MW4 2396   6.367   2.544   3.518  0.2878 -0.0136  0.0758
  658SOL     OW 2397   2.743   1.386   4.517  0.0325  0.0526  0.6776
  658SOL    HW2 2398   2.787   1.465   4.547  1.9688 -0.9670  0.6192
  658SOL    HW3 2399   2.796   1.314   4.549 -1.1422 -1.2273 -0.1225
  658SOL    MW4 2400   2.756   1.387   4.525 -0.2215 -0.1406  0.2022
  659SOL     OW 2401   2.653   5.473   3.926 -0.0334 -0.1072  0.2052
  659SOL    HW2 2402   2.720   5.542   3.924  1.7130 -1.6462  1.3760
  659SOL    HW3 2403   2.615   5.480   4.014  1.8507 -2.0287  1.2743
  659SOL    MW4 2404   2.657   5.483   3.937  0.6000 -0.4369  0.5395
  660SOL     OW 2405   6.424   1.620   1.873  0.2463 -0.3574  0.2252
  660SOL    HW2 2406   6.392   1.544   1.922 -0.8113  0.5127  0.9426
  660SOL    HW3 2407   6.355   1.637   1.808 -0.5560  1.2244  1.4382
  660SOL    MW4 2408   6.411   1.612   1.871  1.0005 -0.5025 -0.0924
  661SOL     OW 2409   3.852   0.813   3.249  0.3728 -0.0069  0.0531
  661SOL    HW2 2410   3.767   0.804   3.206  0.6015  0.8352 -0.6027
  661SOL    HW3 2411   3.835   0.872   3.322  0.5688  0.9786 -0.6662
  661SOL    MW4 2412   3.838   0.820   3.253 -0.1193  0.0918  0.1792
  662SOL     OW 2413   5.927   0.226   1.454 -0.8409  0.1356  0.4122
  662SOL    HW2 2414   5.886   0.266   1.377 -1.0019  0.0074  0.4312
  662SOL    HW3 2415   5.854   0.209   1.513 -0.8787 -0.9000  0.0923
  662SOL    MW4 2416   5.912   0.229   1.451 -0.5897  1.0778 -0.2474
  663SOL     OW 2417   5.991   1.068   4.816 -0.2381 -0.6369 -0.1878
  663SOL    HW2 2418   6.056   1.005   4.847  0.5640  0.4969  0.5349
  663SOL    HW3 2419   5.954   1.105   4.896 -1.8051 -1.2561 -0.5875
  663SOL    MW4 2420   5.995   1.065   4.831  0.2341 -0.4397 -0.7609
  664SOL     OW 2421   0.122   3.146   0.409 -0.6471 -0.7201 -0.2051
  664SOL    HW2 2422   0.062   3.149   0.483 -1.2081 -1.6856 -0.6056
  664SOL    HW3 2423   0.207   3.172   0.445 -1.4614  1.7268  0.1660
  664SOL    MW4 2424   0.126   3.150   0.423  0.1662  0.2582 -0.3875
  665SOL     OW 2425   0.310   5.168   3.873 -0.3117  0.5248 -0.5516
  665SOL    HW2 2426   0.366   5.211   3.809  0.5175  0.8221  0.3541
  665SOL    HW3 2427   0.267   5.239   3.920 -0.6748  0.3130 -0.5563
  665SOL    MW4 2428   0.312   5.183   3.871  0.2470  0.4098 -0.1075
  666SOL     OW 2429   2.588   0.905   2.462 -0.2642  0.1969  0.0106
  666SOL    HW2 2430   2.656   0.922   2.527 -2.7674  1.5292  2.5079
  666SOL    HW3 2431   2.564   0.814   2.475 -1.1855  0.6223  1.5097
  666SOL    MW4 2432   2.594   0.896   2.472 -0.3649  0.1221  0.0970
  667SOL     OW 2433   1.850   1.564   1.540  0.0813  0.1384 -0.5392
  667SOL    HW2 2434   1.833   1.473   1.567  0.7912  0.4580  1.0880
  667SOL    HW3 2435   1.926   1.590   1.591 -2.4166  2.9234  2.1910
  667SOL    MW4 2436   1.858   1.555   1.551  0.0722 -0.0289 -0.2396
  668SOL     OW 2437   6.067   3.556   2.423  0.1406  1.2623  0.0020
  668SOL    HW2 2438   6.053   3.608   2.344 -0.4411  0.9163 -0.1308
  668SOL    HW3 2439   6.019   3.475   2.407  0.3503  1.0233  0.5489
  668SOL    MW4 2440   6.059   3.552   2.410 -0.0057 -0.2032 -0.3189
  669SOL     OW 2441   3.330   6.069   3.115  0.2028 -0.5066 -0.1786
  669SOL    HW2 2442   3.252   6.071   3.059 -0.5975 -2.7977  0.7296
  669SOL    HW3 2443   3.303   6.111   3.196  0.0062 -1.0209  0.0233
  669SOL    MW4 2444   3.316   6.075   3.118  0.1750 -0.6638  0.7285
  670SOL     OW 2445   1.291   2.458   4.264 -0.0028 -0.1720 -0.0336
  670SOL    HW2 2446   1.274   2.515   4.189  0.3199 -1.0006 -0.7508
  670SOL    HW3 2447   1.255   2.373   4.238  0.1808 -0.4852  0.7179
  670SOL    MW4 2448   1.284   2.454   4.250  0.3781 -0.2369 -0.2373
  671SOL     OW 2449   5.893   2.076   1.236  0.1758  0.8724  0.5664
  671SOL    HW2 2450   5.967   2.134   1.216 -0.4622  1.0681 -1.3281
  671SOL    HW3 2451   5.821   2.109   1.182 -0.5614 -0.9186  0.4114
  671SOL    MW4 2452   5.894   2.088   1.227 -0.3535 -0.8925 -0.0467
  672SOL     OW 2453   3.567   2.499   0.780 -0.6089  0.1364  0.2007
  672SOL    HW2 2454   3.573   2.580   0.730  0.7306 -0.0553  0.0223
  672SOL    HW3 2455   3.610   2.434   0.726 -0.8172 -0.4925  0.7776
  672SOL    MW4 2456   3.573   2.501   0.767  0.2893 -0.1488 -0.2777
  673SOL     OW 2457   5.479   2.559   2.857  0.3344  0.5016 -0.2576
  673SOL    HW2 2458   5.434   2.476   2.839 -2.1667  1.4435  1.2522
  673SOL    HW3 2459   5.486   2.562   2.953  1.5352  1.5141 -0.3447
  673SOL    MW4 2460   5.474   2.548   2.868  0.0161  0.1747 -0.2081
  674SOL     OW 2461   5.468   4.723   3.759  0.5300 -0.4176  0.1986
  674SOL    HW2 2462   5.397   4.716   3.823  0.2803  0.8500  0.0802
  674SOL    HW3 2463   5.459   4.645   3.705  0.3759 -1.2144  1.3249
  674SOL    MW4 2464   5.458   4.711   3.761 -0.4287 -0.4654  0.0461
  675SOL     OW 2465   5.799   3.572   1.578 -0.1903 -0.0375  0.2370
  675SOL    HW2 2466   5.732   3.607   1.637  0.7079 -0.8092  1.7872
  675SOL    HW3 2467   5.750   3.535   1.505 -1.6347 -1.8035  1.9683
  675SOL    MW4 2468   5.784   3.571   1.576  0.1837  0.3901 -0.5054
  676SOL     OW 2469   5.725   3.916   1.387 -0.0515 -1.0513 -0.1050
  676SOL    HW2 2470   5.819   3.901   1.400  1.0896  3.8210 -0.7148
  676SOL    HW3 2471   5.702   3.864   1.310  2.0390 -2.5586  0.2105
  676SOL    MW4 2472   5.734   3.907   1.379  0.3558 -0.4726  0.1521
  677SOL     OW 2473   2.860   4.485   2.778 -0.5453  0.5965 -0.4176
  677SOL    HW2 2474   2.900   4.417   2.725 -0.1284  0.1244  0.4862
  677SOL    HW3 2475   2.933   4.535   2.813 -0.7800  0.4563  0.2903
  677SOL    MW4 2476   2.875   4.483   2.775  0.0965 -0.2602 -0.3495
  678SOL     OW 2477   2.327   2.652   3.436 -0.1911 -0.4021 -0.2281
  678SOL    HW2 2478   2.274   2.660   3.515 -0.9009 -2.3115 -0.4721
  678SOL    HW3 2479   2.297   2.724   3.380 -0.5531  0.2098  0.7252
  678SOL    MW4 2480   2.316   2.663   3.439 -0.0766 -0.3085 -0.2034
  679SOL     OW 2481   6.263   5.335   1.621 -0.9917 -0.1370 -0.3213
  679SOL    HW2 2482   6.272   5.379   1.705  1.0425 -1.7654  0.4191
  679SOL    HW3 2483   6.201   5.265   1.637 -1.0797 -0.0636 -0.3437
  679SOL    MW4 2484   6.256   5.332   1.634  0.3333  0.3811 -0.1035
  680SOL     OW 2485   4.853   1.370   4.333  0.6785  0.3719 -0.3033
  680SOL    HW2 2486   4.932   1.346   4.380  0.3742  0.9034  0.4986
  680SOL    HW3 2487   4.837   1.461   4.357 -0.3983  0.1476 -0.1253
  680SOL    MW4 2488   4.861   1.379   4.342 -0.2362 -0.4497 -0.1173
  681SOL     OW 2489   0.266   3.451   2.717  0.4667 -0.7021  0.3448
  681SOL    HW2 2490   0.328   3.506   2.765  0.2935  0.1995 -0.4105
  681SOL    HW3 2491   0.192   3.440   2.777 -0.8055  2.3923 -0.4373
  681SOL    MW4 2492   0.264   3.457   2.731 -0.5870  0.4697  0.4753
  682SOL     OW 2493   1.519   0.117   3.364 -0.0438 -0.5057 -0.3820
  682SOL    HW2 2494   1.524   0.075   3.278 -0.0741 -3.1789  0.8313
  682SOL    HW3 2495   1.602   0.095   3.407  0.0894  1.0160  0.2277
  682SOL    MW4 2496   1.531   0.109   3.358  0.2767  0.5107  0.5657
  683SOL     OW 2497   6.332   0.851   1.921 -0.0856  0.0101 -0.3064
  683SOL    HW2 2498   6.376   0.791   1.862  0.4386 -2.4295  2.3412
  683SOL    HW3 2499   6.239   0.828   1.913 -0.3955  1.6316 -2.1172
  683SOL    MW4 2500   6.325   0.840   1.912 -0.0095  0.8926  0.0469
  684SOL     OW 2501   5.627   1.228   6.412 -0.0463  0.2402  0.0772
  684SOL    HW2 2502   5.621   1.178   6.494 -0.4337 -1.7756 -1.0998
  684SOL    HW3 2503   5.719   1.253   6.406 -0.0200  0.4482  1.1211
  684SOL    MW4 2504   5.638   1.225   6.422  0.3071  0.7529  0.6431
  685SOL     OW 2505   2.265   2.282   0.840  0.3026  0.1182 -0.5531
  685SOL    HW2 2506   2.213   2.202   0.848 -0.3487  0.4439 -1.3525
  685SOL    HW3 2507   2.258   2.324   0.925  0.1264 -0.3694 -0.3237
  685SOL    MW4 2508   2.257   2.277   0.852  0.1460  0.1351 -0.4363
  686SOL     OW 2509   3.370   3.161   4.630 -0.1235 -0.0849  0.0239
  686SOL    HW2 2510   3.402   3.094   4.692  0.4805 -0.4420 -0.6494
  686SOL    HW3 2511   3.386   3.244   4.675  1.6663 -0.2586 -0.2148
  686SOL    MW4 2512   3.377   3.163   4.644 -0.5031  0.2376  0.9916
  687SOL     OW 2513   0.876   2.196   4.730 -0.1274  0.4315  0.1543
  687SOL    HW2 2514   0.825   2.243   4.796  1.1007  2.6281 -0.3279
  687SOL    HW3 2515   0.923   2.129   4.778 -0.8239  0.6448  1.1646
  687SOL    MW4 2516   0.875   2.194   4.745  0.3666 -0.6573  0.1859
  688SOL     OW 2517   4.238   1.473   1.888  0.5991  0.8588 -0.0105
  688SOL    HW2 2518   4.310   1.486   1.950  0.0477  0.8516  0.6475
  688SOL    HW3 2519   4.280   1.470   1.803  1.3527  1.1155  0.3415
  688SOL    MW4 2520   4.253   1.475   1.885 -0.0589 -0.2893 -0.6950
  689SOL     OW 2521   2.613   3.268   1.415 -0.2258  0.6634  0.7024
  689SOL    HW2 2522   2.663   3.291   1.493 -1.0047 -0.1443  1.4707
  689SOL    HW3 2523   2.663   3.198   1.373  0.4794  1.4762  0.1464
  689SOL    MW4 2524   2.626   3.262   1.420 -0.0309 -0.0897 -0.5525
  690SOL     OW 2525   1.600   1.752   4.469  0.2850 -0.1930 -0.0419
  690SOL    HW2 2526   1.596   1.659   4.448 -1.0481  0.1027 -1.1978
  690SOL    HW3 2527   1.688   1.779   4.441  0.4379 -0.9539 -0.3180
  690SOL    MW4 2528   1.611   1.744   4.463  0.9157  0.4233 -0.2728
  691SOL     OW 2529   2.870   6.273   2.593 -0.1658 -0.9140  0.1117
  691SOL    HW2 2530   2.966   6.268   2.589  0.0036  1.6539 -0.7394
  691SOL    HW3 2531   2.840   6.198   2.541  1.4077 -1.0159 -0.7077
  691SOL    MW4 2532   2.879   6.262   2.586  0.5410  0.0916 -0.5402
  692SOL     OW 2533   2.506   0.223   1.009 -0.5196  0.4533  0.2089
  692SOL    HW2 2534   2.576   0.252   0.950 -0.7166  0.5386  0.0170
  692SOL    HW3 2535   2.441   0.293   1.005 -1.1726 -0.1662 -0.5453
  692SOL    MW4 2536   2.507   0.236   1.000  0.2118 -0.0476 -0.1632
  693SOL     OW 2537   1.372   3.682   6.414 -0.6433 -0.1990 -0.5943
  693SOL    HW2 2538   1.432   3.695   6.341 -1.8913  2.5991 -1.2500
  693SOL    HW3 2539   1.297   3.635   6.376 -0.7624  0.1956 -0.8577
  693SOL    MW4 2540   1.370   3.678   6.399 -0.3281  0.3393 -0.6239
  694SOL     OW 2541   1.011   2.522   5.554 -0.2980  0.6379 -0.3408
  694SOL    HW2 2542   1.036   2.573   5.476 -2.0375 -0.2857 -1.5826
  694SOL    HW3 2543   0.919   2.544   5.568 -0.2075  0.2223  1.0334
  694SOL    MW4 2544   1.002   2.532   5.545 -0.3561 -0.2634  0.4567
  695SOL     OW 2545   2.517   6.409   0.117 -0.3460 -0.0876 -0.7193
  695SOL    HW2 2546   2.456   6.471   0.158 -0.0364 -0.7284  0.7845
  695SOL    HW3 2547   2.524   6.337   0.180  2.0295  0.0067 -0.7902
  695SOL    MW4 2548   2.510   6.408   0.131  0.3144 -0.0153 -0.2170
  696SOL     OW 2549   2.541   0.092   4.607 -0.2225  0.7763  0.2993
  696SOL    HW2 2550   2.632   0.075   4.580 -0.1779 -0.7250  1.2652
  696SOL    HW3 2551   2.508   0.154   4.542  0.6723 -0.6994 -1.6846
  696SOL    MW4 2552   2.549   0.098   4.595  0.3582 -0.4359  0.5251
  697SOL     OW 2553   3.784   2.759   6.231  0.0627 -0.1110 -0.6569
  697SOL    HW2 2554   3.855   2.696   6.217  1.0622  0.1598  2.3360
  697SOL    HW3 2555   3.761   2.749   6.323 -1.5404  2.1149 -0.7277
  697SOL    MW4 2556   3.791   2.749   6.241  0.1878  0.2662  0.0429
  698SOL     OW 2557   4.829   4.411   5.304  0.0420  0.8267  0.0984
  698SOL    HW2 2558   4.752   4.460   5.275 -0.4855 -0.1940 -0.2439
  698SOL    HW3 2559   4.828   4.419   5.400 -1.9085 -1.2014  0.3252
  698SOL    MW4 2560   4.819   4.419   5.313 -0.6105 -0.5418 -0.7138
  699SOL     OW 2561   2.077   3.274   0.609  0.0379 -0.1934  0.7630
  699SOL    HW2 2562   2.149   3.295   0.668  0.4420  2.4837 -0.5033
  699SOL    HW3 2563   1.999   3.310   0.651  0.4355  2.4341 -0.4889
  699SOL    MW4 2564   2.076   3.282   0.622 -0.2352  0.0033  0.0138
  700SOL     OW 2565   2.825   6.043   1.376 -0.6801 -0.1749  0.1560
  700SOL    HW2 2566   2.910   6.041   1.331 -0.7972 -2.2483 -0.0476
  700SOL    HW3 2567   2.791   5.955   1.367 -2.0918  0.1612  1.7490
  700SOL    MW4 2568   2.832   6.031   1.369  0.1728  0.3566  0.2619
  701SOL     OW 2569   3.605   4.743   2.938 -0.1233  0.3896 -0.4289
  701SOL    HW2 2570   3.514   4.722   2.916 -0.5236 -0.2508  1.6588
  701SOL    HW3 2571   3.633   4.803   2.868 -3.1017  3.0052  0.3992
  701SOL    MW4 2572   3.596   4.748   2.926 -0.3585  0.4163 -0.0675
  702SOL     OW 2573   2.468   5.317   4.388  0.0560 -0.4281  0.3035
  702SOL    HW2 2574   2.517   5.260   4.330 -0.2088  1.1573 -1.6018
  702SOL    HW3 2575   2.385   5.271   4.401 -0.5923 -0.0915 -2.0810
  702SOL    MW4 2576   2.463   5.304   4.382 -0.0974  0.1168 -0.3112
  703SOL     OW 2577   3.521   2.192   1.781 -0.3715 -0.1633  0.3590
  703SOL    HW2 2578   3.437   2.216   1.742 -0.4891 -1.4680 -0.2269
  703SOL    HW3 2579   3.500   2.174   1.873 -0.3276  1.5751  0.7568
  703SOL    MW4 2580   3.507   2.193   1.788  0.5296  0.1462  0.1762
  704SOL     OW 2581   2.082   3.874   1.422  0.0553 -0.2937 -0.4418
  704SOL    HW2 2582   2.056   3.966   1.411 -0.8746 -0.6464 -1.2275
  704SOL    HW3 2583   2.065   3.856   1.515 -1.3783 -0.1548 -0.6552
  704SOL    MW4 2584   2.077   3.884   1.433  0.8865 -0.1316 -0.1318
  705SOL     OW 2585   4.932   3.006   1.625 -0.0837 -0.3916  0.1326
  705SOL    HW2 2586   4.939   2.934   1.562  1.0029  0.9274 -1.3395
  705SOL    HW3 2587   5.023   3.034   1.638 -0.4400  0.3041  1.1899
  705SOL    MW4 2588   4.945   3.000   1.618 -0.1937  0.3656  0.3897
  706SOL     OW 2589   3.046   4.651   1.374 -0.2615  0.4514  0.2290
  706SOL    HW2 2590   3.006   4.705   1.307 -0.2330  0.3905  0.1630
  706SOL    HW3 2591   3.034   4.700   1.455 -1.5693 -0.1228  0.4080
  706SOL    MW4 2592   3.039   4.664   1.376  0.8894  0.1202  0.3550
  707SOL     OW 2593   5.271   5.114   5.157 -0.2168  0.1238 -0.6896
  707SOL    HW2 2594   5.187   5.158   5.168  0.5988  1.6016 -0.0649
  707SOL    HW3 2595   5.267   5.078   5.069 -1.4455  0.2784 -0.7227
  707SOL    MW4 2596   5.259   5.115   5.147 -0.1469  0.1728 -0.1548
  708SOL     OW 2597   3.620   0.188   4.155  0.5791  0.1046  0.8233
  708SOL    HW2 2598   3.637   0.233   4.238  0.0498 -0.5224  1.2805
  708SOL    HW3 2599   3.600   0.259   4.093  0.1111  0.5262  1.4452
  708SOL    MW4 2600   3.620   0.203   4.158 -0.4871  0.3816  0.0734
  709SOL     OW 2601   1.412   3.552   2.501 -0.3201  0.1860 -0.1355
  709SOL    HW2 2602   1.373   3.583   2.582  1.9748 -0.1698  1.2066
  709SOL    HW3 2603   1.340   3.511   2.453 -1.6650  0.0155  1.9245
  709SOL    MW4 2604   1.398   3.550   2.505 -0.1482  0.6657 -0.4193
  710SOL     OW 2605   6.171   5.257   2.798 -0.2670  0.3146 -0.1885
  710SOL    HW2 2606   6.176   5.351   2.816 -0.9482  0.1033  1.2378
  710SOL    HW3 2607   6.087   5.244   2.754 -0.7345  0.2266  0.7120
  710SOL    MW4 2608   6.161   5.267   2.795  0.0777  0.2820 -0.2500
  711SOL     OW 2609   3.151   1.687   2.467  0.4191  0.1095  0.1874
  711SOL    HW2 2610   3.068   1.666   2.509  0.6676 -0.4783  0.3945
  711SOL    HW3 2611   3.205   1.726   2.536  0.4999  0.0029  0.1856
  711SOL    MW4 2612   3.147   1.689   2.482 -0.7902  0.0056 -0.3972
  712SOL     OW 2613   3.805   0.084   0.580  0.2226  0.4756  0.7092
  712SOL    HW2 2614   3.883   0.121   0.541 -0.4087 -0.3623 -1.5177
  712SOL    HW3 2615   3.733   0.141   0.551 -0.1337  0.6152  1.8125
  712SOL    MW4 2616   3.806   0.096   0.571  0.0421 -0.2910  0.2018
  713SOL     OW 2617   1.939   2.365   1.361 -0.4917  0.5025  0.3075
  713SOL    HW2 2618   1.903   2.281   1.388 -0.1066  0.7618  1.7474
  713SOL    HW3 2619   1.919   2.371   1.268 -1.6996 -0.5789  0.4610
  713SOL    MW4 2620   1.932   2.355   1.352 -0.0145 -0.0606 -0.0974
  714SOL     OW 2621   4.669   1.905   2.084 -0.1053 -0.6896  0.2721
  714SOL    HW2 2622   4.668   1.933   2.175  1.5673 -0.7540  0.3493
  714SOL    HW3 2623   4.743   1.844   2.079  0.5664  0.1798 -1.3396
  714SOL    MW4 2624   4.679   1.901   2.095  0.3004 -0.4648  0.3368
  715SOL     OW 2625   0.254   3.337   6.011 -0.4537  0.7195  0.2798
  715SOL    HW2 2626   0.258   3.296   6.098 -1.2518 -0.9090 -0.4086
  715SOL    HW3 2627   0.199   3.278   5.959  0.4318  1.3909 -1.4948
  715SOL    MW4 2628   0.247   3.324   6.016  0.4441 -0.0662  0.0104
  716SOL     OW 2629   4.527   5.634   1.669 -0.1976 -0.0441  0.5231
  716SOL    HW2 2630   4.607   5.648   1.620 -0.0093 -0.4061  0.7161
  716SOL    HW3 2631   4.556   5.627   1.760 -0.5508  0.7185  0.7013
  716SOL    MW4 2632   4.541   5.635   1.675  0.3284  0.6348  0.1254
  717SOL     OW 2633   5.016   4.078   3.942  0.0945 -0.3520 -0.5852
  717SOL    HW2 2634   4.954   4.091   3.870 -1.0630 -0.0691  0.4268
  717SOL    HW3 2635   5.009   4.157   3.995  0.8939 -0.5809 -0.1197
  717SOL    MW4 2636   5.007   4.090   3.940  0.1780 -0.2878 -0.5119
  718SOL     OW 2637   3.640   5.413   3.121 -0.1929 -0.0318 -0.0720
  718SOL    HW2 2638   3.666   5.322   3.108  1.3569  0.6438 -2.4176
  718SOL    HW3 2639   3.547   5.415   3.098 -0.3713 -1.0673  0.4655
  718SOL    MW4 2640   3.631   5.401   3.116  0.1255 -0.2459  0.0238
  719SOL     OW 2641   1.426   2.462   0.910  0.5233  0.3221 -0.2827
  719SOL    HW2 2642   1.475   2.380   0.913 -0.1417 -0.0808 -0.2440
  719SOL    HW3 2643   1.440   2.494   0.821  0.4272 -0.0597 -0.4394
  719SOL    MW4 2644   1.434   2.455   0.899  0.4659  0.0474  0.2285
  720SOL     OW 2645   5.487   1.383   5.906  0.0159  0.3120  0.3511
  720SOL    HW2 2646   5.498   1.359   5.998  2.8783  2.4592  0.7108
  720SOL    HW3 2647   5.424   1.455   5.907 -2.0635 -1.4093  0.2193
  720SOL    MW4 2648   5.480   1.389   5.918  0.0642  0.0662 -0.6715
  721SOL     OW 2649   4.371   2.340   2.308  0.3844 -0.3236  0.0155
  721SOL    HW2 2650   4.347   2.422   2.350  1.9004  0.2288 -0.1214
  721SOL    HW3 2651   4.428   2.366   2.236  1.2408 -1.5114  0.2301
  721SOL    MW4 2652   4.375   2.354   2.304  0.2241 -0.0475 -0.0654
  722SOL     OW 2653   1.616   5.367   0.101  0.1654 -0.3793  0.3074
  722SOL    HW2 2654   1.595   5.314   0.179 -1.0436  1.7382  1.5004
  722SOL    HW3 2655   1.685   5.426   0.130 -0.2753  0.4153 -0.2466
  722SOL    MW4 2656   1.622   5.368   0.115 -0.0777 -0.2448 -0.2616
  723SOL     OW 2657   1.771   2.160   2.264  0.7930 -0.7036 -0.3389
  723SOL    HW2 2658   1.731   2.189   2.346 -0.2243  0.2510 -1.1598
  723SOL    HW3 2659   1.839   2.225   2.246  1.3676 -1.1985 -0.0039
  723SOL    MW4 2660   1.775   2.172   2.273  0.1757 -0.2246  0.0011
  724SOL     OW 2661   0.788   0.963   3.762  0.0217  0.1301 -0.0415
  724SOL    HW2 2662   0.873   0.920   3.759  0.3298  0.7648 -0.7528
  724SOL    HW3 2663   0.729   0.900   3.719 -0.0693 -0.7066  1.2697
  724SOL    MW4 2664   0.791   0.949   3.756  0.0669  0.0931  0.4439
  725SOL     OW 2665   2.277   5.307   3.961 -0.2376  0.2887  0.3829
  725SOL    HW2 2666   2.296   5.235   4.022  0.5297  0.8798  0.8630
  725SOL    HW3 2667   2.358   5.319   3.912 -1.0200 -0.5514 -1.1885
  725SOL    MW4 2668   2.290   5.299   3.963 -0.3354 -0.5968 -0.2669
  726SOL     OW 2669   6.040   5.122   6.302 -1.2660 -0.4359  0.3596
  726SOL    HW2 2670   5.950   5.125   6.334 -1.5457  1.8737 -0.5061
  726SOL    HW3 2671   6.038   5.060   6.229 -1.9912 -0.9093  0.7751
  726SOL    MW4 2672   6.028   5.114   6.296 -0.0770 -0.2818 -0.5447
  727SOL     OW 2673   2.721   3.560   2.859  0.4937  0.5169 -0.4586
  727SOL    HW2 2674   2.719   3.545   2.764 -1.7051  0.6018 -0.4726
  727SOL    HW3 2675   2.800   3.612   2.873  0.5543  1.0134 -2.3249
  727SOL    MW4 2676   2.731   3.565   2.848  0.2612  0.4296 -0.4593
  728SOL     OW 2677   4.661   0.841   4.253 -0.1747  0.0918 -0.3069
  728SOL    HW2 2678   4.751   0.864   4.273  0.3694  0.2779 -2.6565
  728SOL    HW3 2679   4.667   0.757   4.207 -1.1696  0.1764 -0.6243
  728SOL    MW4 2680   4.674   0.833   4.249 -0.4894  0.1651 -0.3632
  729SOL     OW 2681   5.135   6.007   2.085  0.0935 -0.3657  0.1189
  729SOL    HW2 2682   5.046   5.973   2.073 -0.0009 -0.3126  0.6369
  729SOL    HW3 2683   5.128   6.101   2.067  0.2586 -0.5284 -0.8497
  729SOL    MW4 2684   5.122   6.015   2.081 -0.0157  0.0076 -0.0738
  730SOL     OW 2685   0.763   0.747   4.258 -0.0097  0.7225 -0.0987
  730SOL    HW2 2686   0.730   0.818   4.312 -3.2936  0.3940 -1.4513
  730SOL    HW3 2687   0.685   0.704   4.224  1.8248 -0.1413 -3.7348
  730SOL    MW4 2688   0.748   0.751   4.261 -0.0992  0.1015  0.5702
  731SOL     OW 2689   3.764   4.826   4.131  0.4165  0.5450 -0.5972
  731SOL    HW2 2690   3.836   4.890   4.132 -1.4266  2.7072  0.2451
  731SOL    HW3 2691   3.689   4.876   4.099 -1.0351 -1.3313 -0.2223
  731SOL    MW4 2692   3.764   4.841   4.127 -0.0058  0.3699  0.0186
  732SOL     OW 2693   0.863   4.131   3.790  0.2017  0.1624 -0.2095
  732SOL    HW2 2694   0.876   4.041   3.760 -2.7944 -0.2750 -0.4974
  732SOL    HW3 2695   0.853   4.183   3.710  0.2655  0.4433 -0.0380
  732SOL    MW4 2696   0.863   4.126   3.776 -0.8061 -0.5243 -0.0931
  733SOL     OW 2697   0.274   2.820   2.796  0.1647 -0.2872  0.0044
  733SOL    HW2 2698   0.327   2.746   2.828 -1.3063 -1.3587  0.0742
  733SOL    HW3 2699   0.193   2.779   2.765 -0.3246  1.2267 -0.7978
  733SOL    MW4 2700   0.270   2.805   2.796  0.0275 -0.0202  0.1176
  734SOL     OW 2701   1.100   1.980   2.363 -0.1931  0.2532  0.3774
  734SOL    HW2 2702   1.177   2.001   2.415 -0.7337  2.1867  0.4489
  734SOL    HW3 2703   1.032   2.040   2.394 -1.3498 -0.4673 -0.6346
  734SOL    MW4 2704   1.101   1.990   2.374  0.1339 -0.0139  0.0723
  735SOL     OW 2705   4.927   5.365   2.681  0.1751  0.1186 -0.2203
  735SOL    HW2 2706   4.875   5.290   2.710  1.1897 -0.5933 -0.2000
  735SOL    HW3 2707   4.912   5.370   2.587  1.7839 -1.4966 -0.6211
  735SOL    MW4 2708   4.918   5.356   2.672  0.4630  0.4511  0.3125
  736SOL     OW 2709   2.766   4.441   5.374  0.0301 -0.5490  0.2076
  736SOL    HW2 2710   2.687   4.491   5.353  0.1627 -0.2451  0.4253
  736SOL    HW3 2711   2.768   4.439   5.469  1.5893  1.5668  0.2856
  736SOL    MW4 2712   2.756   4.447   5.384  0.0809 -0.2486  0.3394
  737SOL     OW 2713   1.329   5.209   2.632  0.0528 -0.2594 -0.0375
  737SOL    HW2 2714   1.390   5.237   2.701  0.8512 -0.8706 -0.4810
  737SOL    HW3 2715   1.352   5.262   2.556  0.6280 -1.1165 -0.4663
  737SOL    MW4 2716   1.340   5.220   2.631  0.0340 -0.4315 -0.0725
  738SOL     OW 2717   4.515   4.814   0.227  0.5317  0.3129  0.1894
  738SOL    HW2 2718   4.584   4.879   0.211  0.9278 -0.2245 -0.3585
  738SOL    HW3 2719   4.486   4.831   0.316  1.3740  0.5608  0.4301
  738SOL    MW4 2720   4.520   4.825   0.237 -0.6419  0.0386 -0.0819
  739SOL     OW 2721   1.118   3.535   3.921  0.3222 -0.3340 -0.3432
  739SOL    HW2 2722   1.163   3.538   4.006  0.0720 -0.5495 -0.1999
  739SOL    HW3 2723   1.083   3.624   3.910 -0.7344 -0.6317  0.3867
  739SOL    MW4 2724   1.119   3.547   3.931 -0.3331 -0.3445 -0.2384
  740SOL     OW 2725   5.176   0.310   5.220  0.3341  0.2808  0.0486
  740SOL    HW2 2726   5.241   0.368   5.180 -2.5910  1.8103 -2.9548
  740SOL    HW3 2727   5.167   0.343   5.310  1.6343  1.8435 -0.3497
  740SOL    MW4 2728   5.183   0.322   5.227 -0.0503 -0.5177  0.0728
  741SOL     OW 2729   2.099   5.272   3.750 -0.0586 -0.1049 -0.7953
  741SOL    HW2 2730   2.160   5.292   3.821 -1.5417  0.7545  0.3164
  741SOL    HW3 2731   2.128   5.188   3.716  0.9101 -0.3806  0.6242
  741SOL    MW4 2732   2.111   5.264   3.755 -0.2716 -0.0963 -0.4051
  742SOL     OW 2733   0.854   3.271   0.042 -0.1929  0.1956  0.1134
  742SOL    HW2 2734   0.824   3.325  -0.031 -1.8364 -1.1468 -0.2617
  742SOL    HW3 2735   0.822   3.316   0.120  0.0983  0.7492 -0.0816
  742SOL    MW4 2736   0.846   3.284   0.043 -0.4237 -0.3178  0.0199
  743SOL     OW 2737   6.425   3.176   2.829  0.0104  0.3736  0.1161
  743SOL    HW2 2738   6.451   3.268   2.824 -1.4446  0.8076 -4.2509
  743SOL    HW3 2739   6.330   3.178   2.819  0.0883 -1.5592 -1.7368
  743SOL    MW4 2740   6.416   3.189   2.827 -0.0639 -0.9452 -0.0997
  744SOL     OW 2741   0.073   4.532   0.134  0.6327  0.1788  0.3561
  744SOL    HW2 2742   0.020   4.497   0.062 -1.3177  1.2073  1.2083
  744SOL    HW3 2743   0.098   4.620   0.104  1.4318 -0.1011  0.1813
  744SOL    MW4 2744   0.069   4.539   0.120 -0.1648  0.2028 -0.7734
  745SOL     OW 2745   3.194   3.968   2.084  0.7780 -0.1064  0.0001
  745SOL    HW2 2746   3.123   3.909   2.109  0.0410  0.6197 -0.3206
  745SOL    HW3 2747   3.164   4.055   2.112  1.2935  0.2875 -0.6376
  745SOL    MW4 2748   3.181   3.972   2.091 -0.6309 -0.1661 -0.0769
  746SOL     OW 2749   6.249   2.255   4.630  0.2267 -0.2851  0.5667
  746SOL    HW2 2750   6.255   2.229   4.538  0.5937  0.7491  0.2905
  746SOL    HW3 2751   6.313   2.200   4.675  1.2510  0.3567 -0.0636
  746SOL    MW4 2752   6.258   2.244   4.624 -0.0121 -0.5359 -0.3619
  747SOL     OW 2753   4.239   5.255   2.478 -0.4443 -0.1272  0.0568
  747SOL    HW2 2754   4.262   5.168   2.511 -0.5185 -0.3453 -0.4559
  747SOL    HW3 2755   4.230   5.309   2.557 -0.6573 -0.6444  0.3927
  747SOL    MW4 2756   4.241   5.250   2.493  0.2863  0.5713 -0.4429
  748SOL     OW 2757   3.194   3.206   2.928 -0.0347 -0.0105 -0.2192
  748SOL    HW2 2758   3.156   3.195   3.016 -0.3123 -0.7295 -0.4271
  748SOL    HW3 2759   3.150   3.284   2.893  0.8667  0.9399  0.6862
  748SOL    MW4 2760   3.183   3.215   2.935  0.5103  0.3580 -0.3628
  749SOL     OW 2761   4.059   1.347   5.262 -0.0351  0.7281  0.5278
  749SOL    HW2 2762   4.075   1.298   5.181  0.9734 -0.5145  1.4167
  749SOL    HW3 2763   3.992   1.296   5.308  0.5621  0.5150  1.1813
  749SOL    MW4 2764   4.052   1.334   5.258 -0.6379 -0.6382 -0.0728
  750SOL     OW 2765   3.509   0.913   5.185  0.2588 -0.1137  0.2066
  750SOL    HW2 2766   3.465   0.996   5.168 -0.0931 -0.0635  1.2600
  750SOL    HW3 2767   3.602   0.933   5.179  0.2555  0.8694  2.4792
  750SOL    MW4 2768   3.515   0.927   5.182  1.0144  0.2082  0.1364
  751SOL     OW 2769   5.182   4.376   2.372  0.0642 -0.4214  0.4380
  751SOL    HW2 2770   5.132   4.454   2.349 -0.4351 -1.0805 -0.8570
  751SOL    HW3 2771   5.182   4.324   2.292  0.5826 -1.6422  1.2035
  751SOL    MW4 2772   5.175   4.379   2.358 -0.3389 -0.2049 -0.0235
  752SOL     OW 2773   2.911   3.312   0.185  0.1619 -0.0588 -0.2598
  752SOL    HW2 2774   2.958   3.300   0.103 -0.1240  1.3062 -0.6494
  752SOL    HW3 2775   2.920   3.405   0.205  0.2703 -0.3774  1.2954
  752SOL    MW4 2776   2.918   3.323   0.177 -0.0395 -0.3631  0.3894
  753SOL     OW 2777   5.870   4.492   0.285  0.1196  0.1324 -0.2385
  753SOL    HW2 2778   5.793   4.473   0.340  1.0396 -2.9658  0.1735
  753SOL    HW3 2779   5.852   4.579   0.249 -3.2518 -0.1445  0.3804
  753SOL    MW4 2780   5.857   4.501   0.287 -0.4712 -0.1028  0.2692
  754SOL     OW 2781   3.839   1.527   2.091  0.1752 -0.5045  0.6375
  754SOL    HW2 2782   3.744   1.528   2.103  0.2422  0.6598  1.1658
  754SOL    HW3 2783   3.854   1.574   2.009  0.3130 -0.5295  0.6477
  754SOL    MW4 2784   3.828   1.533   2.082 -0.0511  0.3461 -0.2354
  755SOL     OW 2785   5.776   3.970   3.265  0.0662 -0.0480  0.1961
  755SOL    HW2 2786   5.688   4.001   3.246 -0.3781 -0.9514  0.7071
  755SOL    HW3 2787   5.774   3.948   3.359  0.9516  0.2975  0.3088
  755SOL    MW4 2788   5.764   3.971   3.275  0.5290  0.3379 -0.9902
  756SOL     OW 2789   2.947   3.583   0.217  0.4659 -0.1419 -0.1084
  756SOL    HW2 2790   2.915   3.641   0.286 -1.1299  0.4416 -1.2876
  756SOL    HW3 2791   2.908   3.618   0.136 -0.2993 -2.6770 -0.9062
  756SOL    MW4 2792   2.938   3.595   0.215  0.3104 -0.4953 -0.0922
  757SOL     OW 2793   3.406   5.015   3.604  0.9163 -0.1408 -0.1890
  757SOL    HW2 2794   3.474   5.052   3.661  1.6082 -1.6452 -0.0012
  757SOL    HW3 2795   3.335   4.992   3.664  0.9174 -0.1073 -0.1746
  757SOL    MW4 2796   3.405   5.017   3.619  0.4092 -0.6432 -0.0292
  758SOL     OW 2797   2.881   4.391   1.129 -0.3164  0.0932  0.0208
  758SOL    HW2 2798   2.868   4.315   1.185  0.4333 -1.1182 -1.3687
  758SOL    HW3 2799   2.976   4.405   1.130 -0.1808 -0.5216 -1.6095
  758SOL    MW4 2800   2.892   4.383   1.137 -0.1070  0.1145  0.2012
  759SOL     OW 2801   0.226   4.476   3.178  0.5050 -0.2859 -0.3541
  759SOL    HW2 2802   0.196   4.567   3.184  1.2428  0.0584 -1.4287
  759SOL    HW3 2803   0.286   4.466   3.252  0.5363  0.1570 -0.3127
  759SOL    MW4 2804   0.230   4.487   3.188 -0.6730 -0.3413  0.2479
  760SOL     OW 2805   2.332   1.316   1.625  0.0033  0.1526 -0.2427
  760SOL    HW2 2806   2.241   1.293   1.639  1.0777 -6.0197 -0.8133
  760SOL    HW3 2807   2.339   1.332   1.531 -0.1869 -2.1475 -0.7025
  760SOL    MW4 2808   2.321   1.315   1.614  0.6924 -0.1527 -0.2469
  761SOL     OW 2809   3.760   3.388   0.568  0.5608  0.7104  0.3474
  761SOL    HW2 2810   3.809   3.345   0.639 -1.4683  2.2339  2.8552
  761SOL    HW3 2811   3.801   3.474   0.560  0.1186  0.9321  0.4427
  761SOL    MW4 2812   3.772   3.393   0.576  0.1090 -0.2756  0.1295
  762SOL     OW 2813   6.104   5.210   4.758  0.2947 -0.4906 -0.1883
  762SOL    HW2 2814   6.136   5.135   4.708  1.5123  0.5525 -1.0607
  762SOL    HW3 2815   6.176   5.230   4.818 -0.9496 -1.4150  1.6845
  762SOL    MW4 2816   6.118   5.203   4.759  0.0965 -0.3563 -0.3566
  763SOL     OW 2817   4.300   0.961   2.259 -0.1390  0.3065 -0.5619
  763SOL    HW2 2818   4.266   0.941   2.346 -3.1050 -0.3292 -1.7751
  763SOL    HW3 2819   4.307   1.056   2.258  0.7664  0.2841  0.6114
  763SOL    MW4 2820   4.297   0.971   2.271 -0.1377  0.4896 -0.1201
  764SOL     OW 2821   0.001   1.268   3.349 -0.3980  0.0302 -0.0889
  764SOL    HW2 2822  -0.021   1.212   3.275  0.6314  0.1122 -0.4802
  764SOL    HW3 2823  -0.036   1.224   3.425 -0.1568 -0.8488 -0.4670
  764SOL    MW4 2824  -0.006   1.255   3.349  0.0983 -0.1092 -0.0881
  765SOL     OW 2825   5.116   2.529   5.250  0.5077  0.7823  0.3707
  765SOL    HW2 2826   5.174   2.453   5.256 -2.8068 -1.9313  1.3555
  765SOL    HW3 2827   5.109   2.561   5.341  0.9356  1.5405  0.1476
  765SOL    MW4 2828   5.122   2.523   5.263  0.4065 -0.2231  0.2144
  766SOL     OW 2829   6.340   4.207   5.723  0.0974 -0.6686 -0.0715
  766SOL    HW2 2830   6.287   4.264   5.779  0.9687 -1.0763  1.2219
  766SOL    HW3 2831   6.289   4.127   5.714  0.1028 -0.7328  0.4410
  766SOL    MW4 2832   6.327   4.204   5.729 -0.1420 -0.4080 -0.0218
  767SOL     OW 2833   4.507   2.612   0.090 -0.7506  0.2043  0.0740
  767SOL    HW2 2834   4.582   2.654   0.048  0.3538 -0.3997  1.3731
  767SOL    HW3 2835   4.506   2.523   0.054 -0.8999  0.2313  0.0082
  767SOL    MW4 2836   4.517   2.605   0.080  0.7233 -0.1320  0.6516
  768SOL     OW 2837   4.627   1.402   4.835  0.3836 -0.3667  0.1856
  768SOL    HW2 2838   4.685   1.438   4.902  0.0964  0.0468  0.2151
  768SOL    HW3 2839   4.539   1.414   4.872  0.2418 -0.3976 -0.1424
  768SOL    MW4 2840   4.623   1.408   4.849 -0.0643  0.5993  0.1574
  769SOL     OW 2841   3.507   5.276   0.144 -0.1950  0.3106 -0.0100
  769SOL    HW2 2842   3.451   5.220   0.197  0.3223  0.7457  1.0327
  769SOL    HW3 2843   3.591   5.229   0.139  0.3238  1.0853  1.0913
  769SOL    MW4 2844   3.511   5.262   0.150  0.0195 -0.0964  0.1590
  770SOL     OW 2845   1.479   5.948   2.684 -0.5774 -0.3276  0.3308
  770SOL    HW2 2846   1.512   6.027   2.640 -0.0963 -1.5602 -1.6302
  770SOL    HW3 2847   1.388   5.942   2.655 -0.9797  0.1381  1.4517
  770SOL    MW4 2848   1.471   5.958   2.674  0.3035  0.3578 -0.3645
  771SOL     OW 2849   1.907   4.118   5.845 -0.1532  0.7911 -0.1774
  771SOL    HW2 2850   1.835   4.177   5.865 -1.5187 -0.9560  0.3001
  771SOL    HW3 2851   1.912   4.116   5.750 -0.4664  1.2313 -0.2037
  771SOL    MW4 2852   1.898   4.125   5.835  0.0665  0.4693 -0.5925
  772SOL     OW 2853   3.058   0.968   4.743 -0.1277 -0.4658  0.2355
  772SOL    HW2 2854   3.078   0.877   4.761 -0.7514 -0.1646  2.9753
  772SOL    HW3 2855   3.142   1.013   4.749  0.1815 -0.8360 -1.1327
  772SOL    MW4 2856   3.071   0.962   4.746  0.2672  0.1630 -0.1235
  773SOL     OW 2857   4.865   4.271   1.094  0.6738  0.1850  0.1353
  773SOL    HW2 2858   4.769   4.275   1.092  0.5055 -2.0814  1.0631
  773SOL    HW3 2859   4.889   4.243   1.005  0.3742 -0.4418  0.2454
  773SOL    MW4 2860   4.856   4.268   1.082  0.0273  0.1801  0.1720
  774SOL     OW 2861   1.783   2.202   0.144  0.2496 -0.1908  0.1595
  774SOL    HW2 2862   1.878   2.190   0.145  0.2411 -0.2338  0.6333
  774SOL    HW3 2863   1.749   2.125   0.099  0.4590 -0.0163 -0.3052
  774SOL    MW4 2864   1.791   2.190   0.138  0.0364 -0.4096  0.4765
  775SOL     OW 2865   3.243   4.593   4.001  0.2760 -0.0062  0.1352
  775SOL    HW2 2866   3.161   4.548   4.022  0.6545 -0.6319  0.3005
  775SOL    HW3 2867   3.225   4.685   4.017 -1.2881  0.2643 -2.4594
  775SOL    MW4 2868   3.230   4.599   4.006  0.3063  0.6938 -0.5280
  776SOL     OW 2869   5.142   5.346   4.872  0.0047  0.3535 -0.2993
  776SOL    HW2 2870   5.209   5.411   4.893 -0.1518  0.4917 -0.2224
  776SOL    HW3 2871   5.182   5.262   4.894 -0.0223  0.4692  0.2043
  776SOL    MW4 2872   5.156   5.343   4.878  0.5050 -0.0133  0.1711
  777SOL     OW 2873   0.501   5.120   4.067  0.0520 -0.5575  0.6544
  777SOL    HW2 2874   0.432   5.117   4.001  1.7420 -2.3417 -1.1662
  777SOL    HW3 2875   0.570   5.173   4.027  1.0729 -1.5917  1.0149
  777SOL    MW4 2876   0.501   5.127   4.053  0.2823 -0.4545  0.0097
  778SOL     OW 2877   4.250   5.942   2.023  0.6261 -0.5289 -0.3563
  778SOL    HW2 2878   4.224   6.034   2.024 -1.7853 -1.1430 -0.1627
  778SOL    HW3 2879   4.265   5.921   1.931 -0.6989 -0.3938 -0.6151
  778SOL    MW4 2880   4.249   5.951   2.011  0.1243 -0.1507 -0.4760
  779SOL     OW 2881   5.909   5.560   3.085  0.2626  0.3069  0.4633
  779SOL    HW2 2882   5.948   5.499   3.148 -0.9428  0.4477  1.3911
  779SOL    HW3 2883   5.834   5.597   3.131 -1.0320 -0.0202 -1.2723
  779SOL    MW4 2884   5.904   5.557   3.099 -0.0803 -0.1629 -0.0487
  780SOL     OW 2885   3.780   3.964   5.674  0.1776 -0.2309 -0.3140
  780SOL    HW2 2886   3.821   3.995   5.593  1.1020 -0.5223  0.0350
  780SOL    HW3 2887   3.781   4.040   5.732  0.1738 -0.2236 -0.3235
  780SOL    MW4 2888   3.785   3.978   5.671 -0.2751 -0.3278  0.4078
  781SOL     OW 2889   3.281   0.272   2.069  0.4494  0.2475 -0.1119
  781SOL    HW2 2890   3.294   0.182   2.040 -1.8097 -0.0921 -0.2202
  781SOL    HW3 2891   3.223   0.264   2.144  2.1740  1.4885  1.4433
  781SOL    MW4 2892   3.275   0.259   2.075  0.5019  0.0754  0.5917
  782SOL     OW 2893   0.170   4.973   1.029  0.3395 -0.2779  0.2273
  782SOL    HW2 2894   0.235   5.024   0.981 -1.0540  0.2062 -1.2264
  782SOL    HW3 2895   0.112   4.938   0.962 -1.1185 -0.4053  1.4882
  782SOL    MW4 2896   0.171   4.975   1.014 -0.2395  0.9415 -0.6943
  783SOL     OW 2897   4.322   4.510   3.747 -0.0619  0.0136  0.7133
  783SOL    HW2 2898   4.244   4.562   3.765  0.2015  0.4552  0.6039
  783SOL    HW3 2899   4.347   4.473   3.831  0.8096  1.5654  1.1759
  783SOL    MW4 2900   4.315   4.512   3.760 -0.3331 -0.3551 -0.8042
  784SOL     OW 2901   6.073   3.576   1.512  0.0670  0.6190 -0.1922
  784SOL    HW2 2902   5.986   3.587   1.550 -0.0338  0.0831 -0.2562
  784SOL    HW3 2903   6.118   3.517   1.573  0.5863  1.3580  0.1525
  784SOL    MW4 2904   6.067   3.570   1.525  0.0298 -0.4561  0.7980
  785SOL     OW 2905   3.643   5.105   5.725 -0.1006  0.3262  0.0739
  785SOL    HW2 2906   3.651   5.106   5.821  4.1981 -0.2083 -0.0690
  785SOL    HW3 2907   3.599   5.023   5.705  0.5359 -0.4080  1.5676
  785SOL    MW4 2908   3.638   5.095   5.735  0.2861  0.6083 -0.5196
  786SOL     OW 2909   5.090   1.310   0.784 -0.0414  0.5731  0.1986
  786SOL    HW2 2910   5.028   1.344   0.719  0.8697  0.5612 -0.6954
  786SOL    HW3 2911   5.036   1.259   0.844 -0.9737  0.9908 -0.2607
  786SOL    MW4 2912   5.074   1.308   0.783  0.1050  0.3024  0.4776
  787SOL     OW 2913   5.977   0.222   4.115  0.3461  0.4263 -0.2733
  787SOL    HW2 2914   5.909   0.170   4.073  0.1183  0.4899  0.0093
  787SOL    HW3 2915   6.005   0.169   4.190  1.6532 -0.2669 -1.2174
  787SOL    MW4 2916   5.972   0.208   4.120  0.1561 -0.2121 -0.3986
  788SOL     OW 2917   6.008   3.787   0.651 -0.3283 -0.2936 -0.0456
  788SOL    HW2 2918   6.072   3.847   0.613  0.2524 -1.1749 -0.4755
  788SOL    HW3 2919   5.928   3.803   0.601 -0.4457  0.7406  0.4309
  788SOL    MW4 2920   6.006   3.797   0.639  0.2928 -0.0461 -0.1292
  789SOL     OW 2921   2.818   4.633   1.016  0.8829  0.1956  0.1142
  789SOL    HW2 2922   2.828   4.549   1.062  1.1623 -0.2034 -0.6553
  789SOL    HW3 2923   2.836   4.612   0.925  0.4620  1.0046 -0.1602
  789SOL    MW4 2924   2.822   4.619   1.010 -0.0133 -0.9596 -0.2691
  790SOL     OW 2925   5.500   6.428   1.706 -0.2621  0.3318 -0.6643
  790SOL    HW2 2926   5.434   6.390   1.763 -0.5440  1.6480 -0.0674
  790SOL    HW3 2927   5.567   6.361   1.698 -0.4918 -0.0881  0.7598
  790SOL    MW4 2928   5.500   6.414   1.712 -0.1228 -0.3244 -0.3049
  791SOL     OW 2929   1.487   5.519   3.813 -0.0644 -1.0165 -0.5028
  791SOL    HW2 2930   1.440   5.478   3.740 -1.5538 -0.3130  0.0370
  791SOL    HW3 2931   1.450   5.479   3.891  0.9643 -1.1704 -0.0758
  791SOL    MW4 2932   1.476   5.508   3.813  1.1084  0.1832 -0.1937
  792SOL     OW 2933   1.668   1.546   1.278 -0.1432 -0.2081 -0.1215
  792SOL    HW2 2934   1.735   1.614   1.287  0.5790 -0.9271  0.1688
  792SOL    HW3 2935   1.683   1.508   1.192  0.5676 -1.0990  0.3656
  792SOL    MW4 2936   1.679   1.550   1.268  0.3697  0.0279  0.2399
  793SOL     OW 2937   1.837   1.649   3.858  0.2460 -0.5053 -0.6137
  793SOL    HW2 2938   1.837   1.600   3.776 -3.0802 -1.7107 -0.0525
  793SOL    HW3 2939   1.902   1.604   3.912  0.2036 -1.7015 -1.5096
  793SOL    MW4 2940   1.845   1.636   3.854 -0.0523 -0.3006 -0.9388
  794SOL     OW 2941   1.566   0.448   0.774  0.7483 -0.2509 -0.4932
  794SOL    HW2 2942   1.659   0.426   0.764  0.7553 -1.6870  1.9041
  794SOL    HW3 2943   1.520   0.367   0.751  0.3922 -0.9302  2.2532
  794SOL    MW4 2944   1.572   0.434   0.770 -0.2316  0.2961 -0.1990
  795SOL     OW 2945   2.085   1.661   6.313 -0.0320 -0.4120  0.2870
  795SOL    HW2 2946   2.100   1.569   6.288  0.7953 -0.8264  2.1732
  795SOL    HW3 2947   2.014   1.656   6.377 -1.1495  0.4776 -0.8337
  795SOL    MW4 2948   2.077   1.648   6.318 -0.1130  0.7588  0.5093
  796SOL     OW 2949   4.715   3.390   0.227  0.3566  0.5036  0.5281
  796SOL    HW2 2950   4.693   3.480   0.254  0.2023  0.2085  1.4237
  796SOL    HW3 2951   4.635   3.341   0.240  0.8451 -0.0687  1.4559
  796SOL    MW4 2952   4.702   3.396   0.232  0.0718 -0.4727 -0.6477
  797SOL     OW 2953   5.566   4.850   1.232 -0.2137 -0.4560  0.6377
  797SOL    HW2 2954   5.549   4.880   1.143 -1.5063  0.8723  1.2942
  797SOL    HW3 2955   5.535   4.921   1.288  1.6472 -0.7450  2.1442
  797SOL    MW4 2956   5.560   4.863   1.228 -0.3868  0.3799  0.0583
  798SOL     OW 2957   1.406   1.897   1.953  0.4118 -0.0112 -0.1326
  798SOL    HW2 2958   1.382   1.908   2.045  1.6196 -0.6510  0.2830
  798SOL    HW3 2959   1.355   1.963   1.907 -0.4658  0.1049  0.9531
  798SOL    MW4 2960   1.396   1.907   1.959 -0.3554 -0.4356 -0.4239
  799SOL     OW 2961   2.411   4.788   3.693  0.0425  0.2518 -0.3842
  799SOL    HW2 2962   2.371   4.702   3.709 -1.2992  1.1844  1.5507
  799SOL    HW3 2963   2.444   4.816   3.778 -0.5422  2.1329 -0.7342
  799SOL    MW4 2964   2.410   4.780   3.706  0.2107 -0.2330  0.3515
  800SOL     OW 2965   0.898   3.692   3.094 -0.4858  0.4548  0.1629
  800SOL    HW2 2966   0.891   3.762   3.160  0.0935 -1.2833  2.2014
  800SOL    HW3 2967   0.979   3.646   3.116 -1.5615 -1.7401 -0.1082
  800SOL    MW4 2968   0.908   3.695   3.106 -0.2732  0.2559  0.1590
  801SOL     OW 2969   5.895   1.607   0.913 -0.1402 -0.1062  0.2354
  801SOL    HW2 2970   5.981   1.579   0.882 -0.3945  1.4817 -2.2459
  801SOL    HW3 2971   5.913   1.683   0.968  0.0753 -0.4032  0.5840
  801SOL    MW4 2972   5.909   1.613   0.916 -0.3229 -0.0552 -1.0199
  802SOL     OW 2973   2.964   1.044   2.386 -0.0902  0.2888 -0.4147
  802SOL    HW2 2974   2.947   1.111   2.320 -4.0202  0.3617  0.4309
  802SOL    HW3 2975   2.972   0.963   2.335  0.3814  0.7798 -1.1516
  802SOL    MW4 2976   2.963   1.042   2.370 -0.3392 -0.0339  0.4529
  803SOL     OW 2977   2.708   6.340   2.814  0.3639 -0.4048  0.4814
  803SOL    HW2 2978   2.642   6.394   2.770 -0.6754 -1.3341  0.8732
  803SOL    HW3 2979   2.772   6.321   2.745 -0.4302 -0.5447 -0.2328
  803SOL    MW4 2980   2.708   6.345   2.799 -0.6903  0.5364 -0.1514
  804SOL     OW 2981   3.497   2.996   2.710 -0.2964  0.9127 -0.0217
  804SOL    HW2 2982   3.437   2.983   2.783 -0.6934  1.7784 -0.1708
  804SOL    HW3 2983   3.451   2.959   2.635  0.3421 -0.4645  0.2386
  804SOL    MW4 2984   3.483   2.990   2.710 -0.2803 -0.4935  0.1328
  805SOL     OW 2985   3.764   3.707   5.784 -0.1122  0.3336  0.7136
  805SOL    HW2 2986   3.776   3.790   5.737  0.4315 -1.7178 -3.1775
  805SOL    HW3 2987   3.678   3.675   5.754  0.7180 -1.5700  0.2236
  805SOL    MW4 2988   3.754   3.714   5.774  0.7356 -0.2808  0.0754
  806SOL     OW 2989   1.459   5.399   4.610 -0.5487 -0.5288 -0.5820
  806SOL    HW2 2990   1.375   5.352   4.607 -1.6444  1.1477  1.1457
  806SOL    HW3 2991   1.449   5.469   4.546 -1.5648  1.1739  1.2902
  806SOL    MW4 2992   1.446   5.402   4.601  0.4396 -0.5380  0.4678
  807SOL     OW 2993   6.291   0.432   4.994  0.2500  0.4689  0.1968
  807SOL    HW2 2994   6.235   0.425   5.071 -1.2238 -1.9546 -0.9668
  807SOL    HW3 2995   6.381   0.428   5.028 -0.3587  0.0917  1.8182
  807SOL    MW4 2996   6.296   0.430   5.009 -0.1434 -0.2554  0.2772
  808SOL     OW 2997   5.038   2.345   1.936  0.5596 -0.1593 -0.3595
  808SOL    HW2 2998   5.082   2.359   1.852  1.0595 -2.6678 -0.6037
  808SOL    HW3 2999   5.107   2.356   2.002 -0.2214  3.8471  0.0659
  808SOL    MW4 3000   5.053   2.348   1.934  0.0733  0.7325 -0.2599
  809SOL     OW 3001   0.118   5.636   0.989 -0.3207 -0.4476  0.2947
  809SOL    HW2 3002   0.053   5.639   1.059 -2.9062 -2.5591 -1.8013
  809SOL    HW3 3003   0.079   5.685   0.917 -0.4499 -3.0003 -1.5374
  809SOL    MW4 3004   0.105   5.643   0.989 -0.2968  0.3842 -0.1148
  810SOL     OW 3005   5.330   6.116   3.383 -0.2395  0.6954 -0.0793
  810SOL    HW2 3006   5.248   6.087   3.342 -0.2762 -0.1635  0.5737
  810SOL    HW3 3007   5.332   6.210   3.367 -1.2837  0.7097 -0.2398
  810SOL    MW4 3008   5.319   6.124   3.375 -0.6140 -0.0849 -0.3968
  811SOL     OW 3009   3.538   0.876   1.746 -0.0189  0.0435  0.4433
  811SOL    HW2 3010   3.533   0.790   1.789  0.6001  0.4028  1.2412
  811SOL    HW3 3011   3.497   0.936   1.808  0.6481  0.5226  0.4214
  811SOL    MW4 3012   3.532   0.872   1.760  0.0348  0.1047 -0.0796
  812SOL     OW 3013   0.590   5.330   5.231 -0.1693 -0.6425 -0.1260
  812SOL    HW2 3014   0.512   5.315   5.284  0.1667  1.0861  0.9443
  812SOL    HW3 3015   0.662   5.298   5.285  0.1045  0.3369  0.0916
  812SOL    MW4 3016   0.589   5.324   5.245 -0.2941  0.1460  0.7816
  813SOL     OW 3017   2.316   4.121   1.580  0.2501 -0.4538  0.4824
  813SOL    HW2 3018   2.301   4.102   1.673 -0.3479 -0.7059  0.3375
  813SOL    HW3 3019   2.266   4.201   1.563  1.8014  0.6390  0.8007
  813SOL    MW4 3020   2.308   4.129   1.590  0.6070  0.2811  0.2128
  814SOL     OW 3021   3.590   3.943   4.104 -0.0977 -0.2019  1.0816
  814SOL    HW2 3022   3.501   3.958   4.071  0.2896  1.7793  0.8113
  814SOL    HW3 3023   3.592   3.989   4.188  1.0862  1.0978  0.3788
  814SOL    MW4 3024   3.578   3.951   4.110  0.4155  0.7197  0.3521
  815SOL     OW 3025   4.794   3.395   4.644  0.9870 -0.0834 -0.4841
  815SOL    HW2 3026   4.786   3.475   4.695 -0.4803 -2.0920  2.7994
  815SOL    HW3 3027   4.880   3.360   4.668  0.5212 -0.7701  0.2135
  815SOL    MW4 3028   4.804   3.401   4.654 -0.3512 -0.7798  0.1611
  816SOL     OW 3029   4.452   5.362   2.138 -0.1396 -0.1266 -0.3452
  816SOL    HW2 3030   4.392   5.292   2.164 -0.4650 -0.6069 -2.2655
  816SOL    HW3 3031   4.410   5.403   2.062 -0.7984  3.3268  1.6911
  816SOL    MW4 3032   4.439   5.358   2.131 -0.0604  0.3377 -0.5265
  817SOL     OW 3033   4.933   1.180   0.372 -0.0550 -0.3396  0.4770
  817SOL    HW2 3034   4.954   1.252   0.312  0.7870  0.3687  1.5781
  817SOL    HW3 3035   5.013   1.127   0.373 -0.7738 -1.5026 -0.5618
  817SOL    MW4 3036   4.946   1.183   0.364  0.0689  0.1261  0.3229
  818SOL     OW 3037   2.543   0.956   1.971  0.3625  0.0998 -0.3564
  818SOL    HW2 3038   2.583   0.980   2.055  1.2035 -0.6059 -0.5303
  818SOL    HW3 3039   2.609   0.901   1.929 -0.6688 -0.8257 -0.8200
  818SOL    MW4 3040   2.557   0.952   1.977 -0.1343 -0.0707  0.3872
  819SOL     OW 3041   1.017   3.744   1.368  0.5992 -0.2952 -0.3493
  819SOL    HW2 3042   0.955   3.675   1.343  0.4954 -0.5564  0.5827
  819SOL    HW3 3043   1.078   3.700   1.429  1.1088  0.1987 -0.4940
  819SOL    MW4 3044   1.017   3.729   1.373 -0.3484 -0.3416 -0.3605
  820SOL     OW 3045   5.005   3.688   1.443  0.0853  1.0001 -0.3624
  820SOL    HW2 3046   4.956   3.760   1.404  0.0021  0.5912 -1.0384
  820SOL    HW3 3047   4.965   3.674   1.529  0.1851  1.8303 -0.1745
  820SOL    MW4 3048   4.994   3.696   1.449  0.8331  0.1865 -0.0330
  821SOL     OW 3049   5.476   1.730   4.275  0.7339  0.2197  0.2842
  821SOL    HW2 3050   5.419   1.725   4.199 -0.3192  2.0467  0.9008
  821SOL    HW3 3051   5.476   1.641   4.311  1.2490 -0.6843 -1.7888
  821SOL    MW4 3052   5.469   1.718   4.270  0.0483 -0.3721  0.3786
  822SOL     OW 3053   3.652   0.500   5.029  0.3480 -0.3081  0.0716
  822SOL    HW2 3054   3.725   0.514   4.969  0.2990 -1.1447 -0.1968
  822SOL    HW3 3055   3.574   0.509   4.974  0.2211  0.8346  0.4075
  822SOL    MW4 3056   3.651   0.503   5.014 -0.0932  0.3900 -0.2175
  823SOL     OW 3057   3.979   3.653   3.368 -0.2872 -0.2504  0.5897
  823SOL    HW2 3058   3.946   3.667   3.456 -2.3025 -2.0116  0.2189
  823SOL    HW3 3059   3.966   3.559   3.352 -0.0219  0.0176 -1.5687
  823SOL    MW4 3060   3.973   3.642   3.377 -0.0680  0.0011  0.3325
  824SOL     OW 3061   1.685   2.074   3.996 -0.1213 -0.5380 -0.5589
  824SOL    HW2 3062   1.733   2.155   3.980  0.3325 -0.3973  1.3190
  824SOL    HW3 3063   1.656   2.080   4.087 -2.7071 -1.1422 -1.2356
  824SOL    MW4 3064   1.687   2.085   4.006  0.2524  0.1916 -0.1114
  825SOL     OW 3065   4.840   3.999   2.200 -0.3468  0.1731  0.2531
  825SOL    HW2 3066   4.872   4.005   2.290 -0.4344  0.6676  0.2536
  825SOL    HW3 3067   4.853   3.907   2.176 -0.0296  0.1079  0.6607
  825SOL    MW4 3068   4.846   3.988   2.209 -0.2698  0.6373  0.4467
  826SOL     OW 3069   3.570   4.540   0.554  0.2697 -0.1930  0.7692
  826SOL    HW2 3070   3.620   4.458   0.560  1.3918  0.4494  0.5629
  826SOL    HW3 3071   3.489   4.515   0.510  1.2067 -0.9500 -0.6324
  826SOL    MW4 3072   3.566   4.526   0.549 -0.5287 -0.7327  0.4648
  827SOL     OW 3073   4.131   1.522   5.579 -0.3339 -0.2736 -0.2349
  827SOL    HW2 3074   4.139   1.618   5.582 -1.7712 -0.0203 -2.4127
  827SOL    HW3 3075   4.222   1.491   5.577  0.1567  1.1156 -0.7911
  827SOL    MW4 3076   4.144   1.531   5.579 -0.3834 -0.5945  0.0260
  828SOL     OW 3077   2.877   3.645   0.741 -0.7401 -0.3551  0.0633
  828SOL    HW2 3078   2.935   3.680   0.809  0.0515 -0.2939 -0.6207
  828SOL    HW3 3079   2.897   3.552   0.739  1.5264  0.0772 -2.1484
  828SOL    MW4 3080   2.887   3.638   0.750  0.2153  0.2885  0.2987
  829SOL     OW 3081   3.446   0.152   4.560  0.2855  0.7899 -0.1367
  829SOL    HW2 3082   3.436   0.190   4.647  0.1973  1.1171 -0.2853
  829SOL    HW3 3083   3.493   0.219   4.510  1.0610  0.2687 -0.1211
  829SOL    MW4 3084   3.451   0.166   4.565  0.1543  0.6596  0.0394
  830SOL     OW 3085   3.406   0.193   2.517 -0.2574  0.3302 -0.2828
  830SOL    HW2 3086   3.331   0.214   2.571 -0.5742 -0.0508 -0.5677
  830SOL    HW3 3087   3.407   0.097   2.513  0.4733  0.3109  0.0397
  830SOL    MW4 3088   3.396   0.183   2.523 -0.1455  0.3222 -0.0729
  831SOL     OW 3089   1.006   2.804   5.131  0.6501  0.6096 -0.5429
  831SOL    HW2 3090   0.960   2.860   5.193 -0.5223 -1.1438  0.2672
  831SOL    HW3 3091   0.957   2.810   5.050  0.4315  0.6416 -0.4082
  831SOL    MW4 3092   0.994   2.812   5.129  0.0760  0.2253  0.4950
  832SOL     OW 3093   0.597   1.556   1.311 -0.6476  0.1825  0.0738
  832SOL    HW2 3094   0.677   1.602   1.336 -1.1304  0.7244  0.6604
  832SOL    HW3 3095   0.527   1.620   1.327 -1.2131 -0.3309 -0.3001
  832SOL    MW4 3096   0.598   1.571   1.316 -0.0548 -0.1118  0.2554
  833SOL     OW 3097   5.941   0.989   1.077 -0.4517  0.3251  0.3156
  833SOL    HW2 3098   5.958   1.073   1.118  0.3323 -0.5497  1.8702
  833SOL    HW3 3099   5.997   0.927   1.125 -1.7657 -1.2504 -0.1034
  833SOL    MW4 3100   5.951   0.992   1.089 -0.5594  0.0210 -0.5840
  834SOL     OW 3101   5.492   2.268   6.221  0.1023 -0.5861 -0.6692
  834SOL    HW2 3102   5.526   2.191   6.174 -1.3315 -1.9040  0.3458
  834SOL    HW3 3103   5.475   2.236   6.309 -0.2427  1.0035 -0.1397
  834SOL    MW4 3104   5.494   2.253   6.226  0.0795 -0.2649 -0.7057
  835SOL     OW 3105   4.248   4.970   5.822 -0.1031  0.1140  0.3656
  835SOL    HW2 3106   4.292   4.978   5.906 -2.5132  1.6521  1.6067
  835SOL    HW3 3107   4.194   5.049   5.815  0.0258  0.0798 -2.6842
  835SOL    MW4 3108   4.247   4.981   5.832  0.2044 -0.3325  0.6007
  836SOL     OW 3109   3.764   1.928   4.779  0.1888  0.0699  0.4359
  836SOL    HW2 3110   3.791   1.987   4.849 -0.2075 -0.2416  0.8603
  836SOL    HW3 3111   3.681   1.891   4.810 -0.4384  0.5801 -0.5832
  836SOL    MW4 3112   3.756   1.931   4.792 -0.3417  0.4361  0.0746
  837SOL     OW 3113   1.382   1.407   1.367  0.4043 -0.1655 -0.7999
  837SOL    HW2 3114   1.469   1.374   1.389  0.2444 -0.2436 -0.2669
  837SOL    HW3 3115   1.328   1.328   1.358  0.7509 -0.2251 -2.8127
  837SOL    MW4 3116   1.386   1.392   1.369  0.3616 -0.3466 -0.4691
  838SOL     OW 3117   4.953   3.901   6.159 -0.2209  0.1167  0.5184
  838SOL    HW2 3118   4.925   3.826   6.107  0.3325  1.5646 -2.0385
  838SOL    HW3 3119   4.873   3.934   6.200 -0.7431 -0.8845  0.3223
  838SOL    MW4 3120   4.939   3.896   6.157 -0.0622  0.2766 -0.6145
  839SOL     OW 3121   2.923   6.423   0.031  0.0692 -0.4925  0.1762
  839SOL    HW2 3122   2.901   6.388   0.117 -0.4948 -1.6676 -0.4112
  839SOL    HW3 3123   2.860   6.381  -0.028 -0.1559  0.9969 -0.6819
  839SOL    MW4 3124   2.912   6.413   0.034  0.5322  0.0119  0.5357
  840SOL     OW 3125   3.126   4.847   2.418  0.2601  0.2661  0.2262
  840SOL    HW2 3126   3.117   4.865   2.512  3.1581 -1.0147  0.8468
  840SOL    HW3 3127   3.091   4.758   2.408  1.7559 -0.3831  0.5268
  840SOL    MW4 3128   3.120   4.837   2.429  0.5874 -0.4490 -0.2031
  841SOL     OW 3129   5.132   0.821   0.469  0.4569 -0.4473 -0.3488
  841SOL    HW2 3130   5.171   0.819   0.556 -0.8520  1.5453  0.3373
  841SOL    HW3 3131   5.159   0.905   0.433 -1.3574  0.0082 -0.7182
  841SOL    MW4 3132   5.141   0.832   0.475 -0.0725  0.3669  0.8011
  842SOL     OW 3133   1.614   3.878   5.753 -0.2625  0.1153  0.0600
  842SOL    HW2 3134   1.531   3.893   5.707  0.5749  1.9373 -0.9798
  842SOL    HW3 3135   1.632   3.785   5.740 -0.4275  0.3829 -2.8281
  842SOL    MW4 3136   1.605   3.868   5.745  0.1867 -0.2237 -0.4235
  843SOL     OW 3137   3.318   3.464   4.985  0.0470 -0.3636  0.3830
  843SOL    HW2 3138   3.232   3.484   4.948  0.2033  0.7998  0.6030
  843SOL    HW3 3139   3.316   3.370   5.001 -1.2849 -0.3123  0.6289
  843SOL    MW4 3140   3.307   3.454   4.982  0.4040 -0.2583 -0.1237
  844SOL     OW 3141   3.239   5.200   1.880 -0.5908 -0.0599  0.1148
  844SOL    HW2 3142   3.265   5.157   1.961  0.3132  0.2058 -0.0258
  844SOL    HW3 3143   3.241   5.130   1.814  0.7348  0.1455 -0.0848
  844SOL    MW4 3144   3.243   5.185   1.882 -0.3112 -0.4535 -0.2742
  845SOL     OW 3145   2.659   5.890   0.700  0.8070  0.2006 -0.2750
  845SOL    HW2 3146   2.683   5.814   0.647  0.9184  0.3168 -0.3908
  845SOL    HW3 3147   2.607   5.853   0.772  1.0146 -0.0060 -0.2307
  845SOL    MW4 3148   2.655   5.875   0.703 -0.4898  0.1544  0.3801
  846SOL     OW 3149   5.348   0.949   3.182  0.1627  0.1517 -0.2704
  846SOL    HW2 3150   5.401   1.027   3.201  1.2626 -0.8255  0.7986
  846SOL    HW3 3151   5.401   0.876   3.214 -2.0533 -0.8360  1.3738
  846SOL    MW4 3152   5.362   0.950   3.189 -0.3241 -0.0338  0.2673
  847SOL     OW 3153   3.039   0.036   1.738  0.8011 -0.2487 -0.0070
  847SOL    HW2 3154   3.035   0.099   1.810  1.8970 -1.2526  0.9871
  847SOL    HW3 3155   2.948   0.010   1.725  0.6330 -0.5955  1.5665
  847SOL    MW4 3156   3.027   0.041   1.746 -0.2102  0.9162  0.0621
  848SOL     OW 3157   2.566   5.354   4.773  0.0023 -0.1958 -0.2562
  848SOL    HW2 3158   2.605   5.407   4.703 -1.0436 -1.0333 -1.5153
  848SOL    HW3 3159   2.608   5.269   4.765  2.0059  0.4732  2.0467
  848SOL    MW4 3160   2.577   5.350   4.763  0.4267 -0.2451  0.1435
  849SOL     OW 3161   4.932   2.445   3.193 -0.2270  0.0383  0.9315
  849SOL    HW2 3162   4.919   2.448   3.098 -2.9213 -0.6676  1.1942
  849SOL    HW3 3163   4.982   2.364   3.208  0.6840  0.4281  0.1134
  849SOL    MW4 3164   4.937   2.435   3.183 -0.2317  0.1467 -0.1065
  850SOL     OW 3165   4.587   5.097   5.169 -0.4180  0.3398 -0.3054
  850SOL    HW2 3166   4.513   5.092   5.107 -0.5917  0.9456 -0.1586
  850SOL    HW3 3167   4.662   5.064   5.120 -0.7138  0.0673 -0.5802
  850SOL    MW4 3168   4.587   5.092   5.154 -0.0516 -0.2026  0.0395
  851SOL     OW 3169   1.985   5.677   1.584 -0.3190 -0.5035 -0.1923
  851SOL    HW2 3170   2.007   5.676   1.677 -0.0689  1.3086 -0.1950
  851SOL    HW3 3171   1.987   5.585   1.558  2.0962 -0.8926  1.0295
  851SOL    MW4 3172   1.988   5.664   1.593  0.5505 -0.6273 -0.2457
  852SOL     OW 3173   3.943   1.900   3.250 -0.9067 -0.7248  0.7190
  852SOL    HW2 3174   3.974   1.977   3.297 -0.8759  0.0224 -0.4838
  852SOL    HW3 3175   3.864   1.873   3.297 -1.8088  0.9963  0.2564
  852SOL    MW4 3176   3.937   1.906   3.262 -0.0570  0.0231  0.3401
  853SOL     OW 3177   5.139   5.713   4.586  0.2906  0.2123 -0.5443
  853SOL    HW2 3178   5.168   5.804   4.590 -0.4838  0.4555 -0.2097
  853SOL    HW3 3179   5.108   5.694   4.674 -0.2774 -0.1288 -0.8129
  853SOL    MW4 3180   5.139   5.723   4.598  0.3558 -0.0251  0.8370
  854SOL     OW 3181   3.017   0.271   0.064  0.1374 -0.0844  0.0119
  854SOL    HW2 3182   2.996   0.358   0.098 -0.5940 -0.1229 -0.3265
  854SOL    HW3 3183   2.948   0.214   0.099  1.4327 -0.8427  1.4774
  854SOL    MW4 3184   3.006   0.275   0.073  0.0032 -0.9795  0.1048
  855SOL     OW 3185   2.174   1.357   2.933  0.2724  0.3352 -0.0735
  855SOL    HW2 3186   2.168   1.413   2.856  0.1838 -0.0921 -0.3798
  855SOL    HW3 3187   2.083   1.335   2.954  0.3354 -0.1618 -0.3025
  855SOL    MW4 3188   2.161   1.361   2.926  0.0436  0.1471  0.4592
  856SOL     OW 3189   3.578   5.555   0.822  0.2516 -0.4398 -0.0800
  856SOL    HW2 3190   3.518   5.483   0.803 -1.0254  0.8074 -1.0025
  856SOL    HW3 3191   3.553   5.586   0.909 -1.0395  0.5867 -0.7812
  856SOL    MW4 3192   3.567   5.550   0.831 -0.9363 -0.2023 -0.0547
  857SOL     OW 3193   6.232   0.855   3.499  0.1722 -0.3167  0.3870
  857SOL    HW2 3194   6.250   0.948   3.511 -0.1439 -0.5573  3.4791
  857SOL    HW3 3195   6.298   0.810   3.552 -0.4345 -1.7957 -0.0467
  857SOL    MW4 3196   6.243   0.861   3.508  0.1599 -0.4657  0.0757
  858SOL     OW 3197   1.555   2.793   3.034  0.3857  0.5646 -0.4315
  858SOL    HW2 3198   1.529   2.873   2.990  0.7816  1.0097  0.1245
  858SOL    HW3 3199   1.558   2.727   2.965  0.7741  1.1927 -1.0213
  858SOL    MW4 3200   1.552   2.795   3.019  0.8540  0.8384  0.1385
  859SOL     OW 3201   3.480   5.908   4.172 -0.3031 -0.1853 -0.5546
  859SOL    HW2 3202   3.481   5.943   4.261 -0.4526 -0.7692 -0.3191
  859SOL    HW3 3203   3.390   5.919   4.142 -0.3536 -0.3743 -0.4753
  859SOL    MW4 3204   3.468   5.914   4.179 -0.5729  0.0235  0.0494
  860SOL     OW 3205   3.436   3.349   3.697  0.2790  0.0814 -0.3624
  860SOL    HW2 3206   3.461   3.381   3.783 -0.3466 -1.8097  0.5817
  860SOL    HW3 3207   3.518   3.319   3.658  0.5758  1.0140 -0.4768
  860SOL    MW4 3208   3.450   3.349   3.703 -0.3726 -0.2001  0.1023
  861SOL     OW 3209   0.974   4.710   4.417  0.0271 -0.0816  0.2676
  861SOL    HW2 3210   0.979   4.693   4.511 -0.3297 -0.4372  0.2238
  861SOL    HW3 3211   1.065   4.712   4.388  0.1235 -0.3414  0.5536
  861SOL    MW4 3212   0.987   4.708   4.425 -0.1555  0.6422 -0.6687
  862SOL     OW 3213   6.125   2.817   2.024 -0.9111 -0.1462 -0.7765
  862SOL    HW2 3214   6.049   2.774   2.064 -1.7955  1.7364 -0.2903
  862SOL    HW3 3215   6.162   2.870   2.094  0.1320 -0.1195 -1.3339
  862SOL    MW4 3216   6.120   2.819   2.038  0.3657 -0.2234 -0.6010
  863SOL     OW 3217   1.027   2.167   6.262 -0.1382  0.9533  0.2012
  863SOL    HW2 3218   0.979   2.163   6.179 -0.9255 -1.0155  0.7145
  863SOL    HW3 3219   1.111   2.126   6.243 -1.2859 -1.9302  0.9446
  863SOL    MW4 3220   1.032   2.161   6.248 -0.3890  0.0551 -0.2557
  864SOL     OW 3221   1.269   1.277   3.118  0.3761  0.0220 -0.1500
  864SOL    HW2 3222   1.307   1.235   3.041 -2.4442 -0.2490 -1.4970
  864SOL    HW3 3223   1.204   1.215   3.150  2.1107 -0.3149  3.1614
  864SOL    MW4 3224   1.266   1.264   3.112  0.1114  0.3787 -0.3081
  865SOL     OW 3225   0.675   0.501   4.114 -0.4901 -0.4885  0.2258
  865SOL    HW2 3226   0.740   0.502   4.044  0.2256  0.7507  0.8588
  865SOL    HW3 3227   0.722   0.466   4.190 -1.1679 -1.5279  0.1863
  865SOL    MW4 3228   0.690   0.497   4.115  0.1504  0.1454  0.4766
  866SOL     OW 3229   0.096   0.322   5.839  0.1651  0.2665 -0.4566
  866SOL    HW2 3230   0.129   0.257   5.901 -1.9094 -0.0209  0.4098
  866SOL    HW3 3231   0.130   0.405   5.871 -0.6806  0.0908  0.9779
  866SOL    MW4 3232   0.105   0.324   5.851  0.1205 -0.0215  0.1836
  867SOL     OW 3233   6.215   2.924   0.742  0.2283 -0.3210 -0.5748
  867SOL    HW2 3234   6.146   2.987   0.722  0.3047  0.7669  2.1155
  867SOL    HW3 3235   6.186   2.843   0.701 -1.3901  0.7122 -1.6052
  867SOL    MW4 3236   6.202   2.922   0.734  0.0831  0.1791 -0.0410
  868SOL     OW 3237   2.769   2.255   1.112 -0.5138 -0.0103  0.2197
  868SOL    HW2 3238   2.767   2.315   1.037  0.5078 -0.0366  0.1454
  868SOL    HW3 3239   2.716   2.298   1.179  2.0432  2.2251  1.0424
  868SOL    MW4 3240   2.762   2.269   1.111 -0.0557  0.2380  0.1824
  869SOL     OW 3241   0.336   6.351   2.331 -0.5611  0.0752 -0.0902
  869SOL    HW2 3242   0.375   6.431   2.294 -1.2137  0.2388 -0.4339
  869SOL    HW3 3243   0.291   6.310   2.257  1.0436 -1.4314 -0.3007
  869SOL    MW4 3244   0.335   6.356   2.316 -0.0923  0.1736  0.0061
  870SOL     OW 3245   0.031   4.627   6.079 -0.3990 -0.1476 -0.4108
  870SOL    HW2 3246   0.025   4.531   6.075 -0.7194 -0.1236 -0.5547
  870SOL    HW3 3247   0.024   4.655   5.988 -2.2043  0.1077 -0.2360
  870SOL    MW4 3248   0.029   4.618   6.066 -0.1359 -0.3330  0.4324
  871SOL     OW 3249   5.972   5.183   4.051 -0.4437  0.3710  0.6182
  871SOL    HW2 3250   5.885   5.143   4.052 -0.8012  1.1420  0.6214
  871SOL    HW3 3251   5.960   5.266   4.005  0.2702  0.5309  0.7113
  871SOL    MW4 3252   5.959   5.189   4.045  0.1817 -0.1901 -0.4029
  872SOL     OW 3253   4.066   2.535   4.229 -0.0336  0.4957 -0.1984
  872SOL    HW2 3254   4.088   2.573   4.314  1.8433  1.3424 -0.9853
  872SOL    HW3 3255   4.151   2.509   4.192 -0.7173  0.8026 -2.0993
  872SOL    MW4 3256   4.080   2.537   4.235  0.1513 -0.4177  0.4209
  873SOL     OW 3257   2.308   2.824   1.610 -0.0704  0.2091 -0.6436
  873SOL    HW2 3258   2.319   2.916   1.586  0.7351  0.0426 -0.9480
  873SOL    HW3 3259   2.372   2.777   1.556 -0.8344 -0.5928 -0.8818
  873SOL    MW4 3260   2.318   2.830   1.599  0.3121  0.2128 -0.6539
  874SOL     OW 3261   4.640   2.436   6.177  0.5569  0.0814 -0.1721
  874SOL    HW2 3262   4.714   2.496   6.160  0.5612  0.4537  1.0882
  874SOL    HW3 3263   4.569   2.471   6.124  0.9008  0.5126 -0.3591
  874SOL    MW4 3264   4.641   2.449   6.168  0.6519 -0.0835 -0.0088
  875SOL     OW 3265   5.977   2.657   2.454  0.5486 -0.1365  0.4974
  875SOL    HW2 3266   5.905   2.600   2.427 -0.1008  1.3773 -1.2025
  875SOL    HW3 3267   5.957   2.680   2.545 -1.2399  0.4031  0.0037
  875SOL    MW4 3268   5.965   2.652   2.463  0.0056 -0.3369 -0.0912
  876SOL     OW 3269   0.212   6.176   0.259 -0.4605  0.1616  0.6637
  876SOL    HW2 3270   0.243   6.117   0.191  2.3116  2.4775 -0.3086
  876SOL    HW3 3271   0.157   6.239   0.213  0.5347  1.0977  0.7035
  876SOL    MW4 3272   0.209   6.177   0.244 -0.9085  0.2310 -0.0607
  877SOL     OW 3273   5.034   1.873   3.634 -0.0932  0.5131  0.0567
  877SOL    HW2 3274   5.044   1.835   3.547  1.3130  0.3197  0.2771
  877SOL    HW3 3275   5.105   1.938   3.640  0.6005 -0.3246  1.4791
  877SOL    MW4 3276   5.045   1.876   3.624  0.5105  0.2819  0.9329
  878SOL     OW 3277   3.473   2.164   3.232  0.1114 -0.0913 -0.0429
  878SOL    HW2 3278   3.418   2.198   3.161  1.8500 -1.6970 -2.3075
  878SOL    HW3 3279   3.416   2.105   3.280 -1.3419  1.6442  0.4798
  878SOL    MW4 3280   3.458   2.161   3.229 -0.2663 -0.2216 -0.2372
  879SOL     OW 3281   5.851   4.578   2.912 -0.2562 -0.8472 -0.9118
  879SOL    HW2 3282   5.853   4.605   3.004 -2.3868 -1.2919 -0.6894
  879SOL    HW3 3283   5.943   4.577   2.885  0.2752  1.9199  0.4291
  879SOL    MW4 3284   5.864   4.582   2.920 -0.4545  0.0602  0.3106
  880SOL     OW 3285   4.676   0.599   4.555 -0.2549 -0.4402 -0.6145
  880SOL    HW2 3286   4.750   0.554   4.516  0.3339  0.6290 -0.7894
  880SOL    HW3 3287   4.607   0.533   4.561  1.0038 -1.7213  0.4437
  880SOL    MW4 3288   4.676   0.585   4.551 -0.0283  0.0390 -0.0697
  881SOL     OW 3289   1.163   0.287   3.358 -0.1105  0.4781 -0.2197
  881SOL    HW2 3290   1.168   0.214   3.296 -2.6694  0.5080 -0.5604
  881SOL    HW3 3291   1.224   0.264   3.427  0.3043 -1.2131 -1.0965
  881SOL    MW4 3292   1.172   0.274   3.359 -0.1261  0.2939  0.1156
  882SOL     OW 3293   0.703   3.164   3.706  0.4669  0.3577  0.2409
  882SOL    HW2 3294   0.627   3.213   3.738  0.3572  0.2136  0.2025
  882SOL    HW3 3295   0.738   3.217   3.634  1.3654  1.2457  1.2785
  882SOL    MW4 3296   0.698   3.178   3.701  0.0298 -0.0535  0.3775
  883SOL     OW 3297   6.253   0.510   5.728 -0.4147  0.2988 -0.5237
  883SOL    HW2 3298   6.338   0.544   5.702  0.1061 -1.1359 -0.7849
  883SOL    HW3 3299   6.193   0.584   5.716  0.8304  1.4286 -0.0127
  883SOL    MW4 3300   6.256   0.525   5.723  0.6379  0.5837 -0.0835
  884SOL     OW 3301   4.133   2.635   4.787  0.1311  0.4050 -0.2952
  884SOL    HW2 3302   4.137   2.699   4.857 -0.3914 -1.3017  1.3787
  884SOL    HW3 3303   4.221   2.599   4.781 -0.2153 -0.6955  0.7678
  884SOL    MW4 3304   4.145   2.638   4.795  0.0268  0.1331 -0.5099
  885SOL     OW 3305   0.942   2.719   3.749 -0.1838  0.5459  0.0365
  885SOL    HW2 3306   1.011   2.725   3.683 -0.6571  0.7432 -0.4518
  885SOL    HW3 3307   0.913   2.810   3.761  0.1010  0.5453  0.7358
  885SOL    MW4 3308   0.947   2.732   3.742  0.3918 -0.3774 -0.0966
  886SOL     OW 3309   5.384   5.853   3.849  0.1012  0.0943  0.0512
  886SOL    HW2 3310   5.301   5.860   3.895  0.1013 -0.9602  0.2347
  886SOL    HW3 3311   5.374   5.910   3.772 -0.5390  0.4799  0.4114
  886SOL    MW4 3312   5.372   5.862   3.845 -0.2754 -0.1569 -0.5048
  887SOL     OW 3313   5.271   2.185   5.729 -0.2560 -0.0483  0.2381
  887SOL    HW2 3314   5.344   2.207   5.671  0.2291  0.3021  0.9609
  887SOL    HW3 3315   5.264   2.260   5.788 -3.1012  1.3032 -1.5916
  887SOL    MW4 3316   5.280   2.198   5.729 -0.1575  0.2012  0.8226
  888SOL     OW 3317   5.736   2.114   2.178 -0.0458 -0.4176 -0.3113
  888SOL    HW2 3318   5.729   2.077   2.090  0.9588  0.0329 -0.5944
  888SOL    HW3 3319   5.755   2.207   2.163 -1.9856  0.1267  0.3854
  888SOL    MW4 3320   5.738   2.121   2.164 -0.3775 -0.5652  0.3197
  889SOL     OW 3321   2.992   0.401   1.191 -0.3687 -0.3811 -0.3080
  889SOL    HW2 3322   3.075   0.367   1.159 -0.3009 -0.7362  0.2294
  889SOL    HW3 3323   2.976   0.480   1.139 -0.0993 -0.7579 -0.9727
  889SOL    MW4 3324   3.001   0.407   1.180  0.0387 -0.1818 -0.0857
  890SOL     OW 3325   1.665   1.274   5.218  0.0094 -0.5864 -0.3006
  890SOL    HW2 3326   1.597   1.229   5.268  0.3222  0.1474  0.8138
  890SOL    HW3 3327   1.711   1.204   5.172 -0.8167 -1.1927 -0.2229
  890SOL    MW4 3328   1.662   1.259   5.219  0.1878  0.2141  0.0624
  891SOL     OW 3329   0.892   2.841   2.328  0.3025  0.1116  0.0831
  891SOL    HW2 3330   0.848   2.909   2.380 -1.6977 -0.7280 -0.3965
  891SOL    HW3 3331   0.941   2.889   2.262 -2.2544  1.2043 -1.1971
  891SOL    MW4 3332   0.892   2.856   2.326 -0.1338 -0.2318 -0.7353
  892SOL     OW 3333   5.902   1.283   0.821  0.5420  0.2993 -0.2330
  892SOL    HW2 3334   5.923   1.190   0.814  0.0043  0.2708 -2.3819
  892SOL    HW3 3335   5.844   1.289   0.897  1.5810 -0.8923  0.7001
  892SOL    MW4 3336   5.897   1.272   0.830 -0.0452  0.1570  0.2586
  893SOL     OW 3337   3.692   1.094   1.608 -0.8565  0.8759 -0.4515
  893SOL    HW2 3338   3.637   1.029   1.653  1.6649  0.2263  2.0189
  893SOL    HW3 3339   3.755   1.042   1.558  2.1157  1.0630  2.6780
  893SOL    MW4 3340   3.693   1.078   1.608  0.3845 -0.0156 -0.0116
  894SOL     OW 3341   1.112   5.812   1.758 -0.6854 -0.4105 -0.1897
  894SOL    HW2 3342   1.192   5.865   1.765 -1.1767  0.3883 -0.5196
  894SOL    HW3 3343   1.074   5.838   1.674 -1.1143 -1.0454 -0.1963
  894SOL    MW4 3344   1.118   5.823   1.748  0.0926  0.0362 -0.1049
  895SOL     OW 3345   0.336   4.806   1.192 -0.3779  0.0769 -0.5917
  895SOL    HW2 3346   0.346   4.845   1.279 -0.2871  0.4048 -0.7454
  895SOL    HW3 3347   0.263   4.854   1.152 -1.2792 -0.9512 -0.2196
  895SOL    MW4 3348   0.328   4.818   1.198 -0.6983 -0.1583 -0.0521
  896SOL     OW 3349   6.112   2.388   5.509 -0.3906 -0.2472 -0.1190
  896SOL    HW2 3350   6.018   2.393   5.525 -0.3645 -0.1283  0.0032
  896SOL    HW3 3351   6.147   2.470   5.545 -0.4511  0.4675 -1.6122
  896SOL    MW4 3352   6.105   2.400   5.516  0.5325 -0.0378  0.0116
  897SOL     OW 3353   1.053   0.620   2.089 -0.5436 -0.3938  0.1022
  897SOL    HW2 3354   0.978   0.668   2.122  0.1705  1.6402 -1.0827
  897SOL    HW3 3355   1.124   0.641   2.150  0.0214  0.9403 -0.9637
  897SOL    MW4 3356   1.053   0.629   2.102 -0.2923  0.5494 -0.0790
  898SOL     OW 3357   4.809   3.199   1.386 -0.3162  0.2351 -0.4380
  898SOL    HW2 3358   4.835   3.109   1.368 -1.1276  0.1668 -1.3549
  898SOL    HW3 3359   4.787   3.235   1.300  0.3886  1.4386 -0.1313
  898SOL    MW4 3360   4.810   3.192   1.373  0.5644  0.6648  0.2602
  899SOL     OW 3361   1.407   3.375   5.370  0.1683  0.4965  0.7161
  899SOL    HW2 3362   1.473   3.342   5.309 -0.4044  1.0512 -0.2248
  899SOL    HW3 3363   1.368   3.296   5.408  0.8061  0.1528  0.6761
  899SOL    MW4 3364   1.411   3.360   5.367 -0.2398  0.0567 -0.0713
  900SOL     OW 3365   3.347   5.594   3.163 -0.7657 -0.2512 -0.7103
  900SOL    HW2 3366   3.359   5.558   3.251  0.5090 -1.8351 -1.4626
  900SOL    HW3 3367   3.406   5.669   3.159  1.4453 -1.9121 -1.0798
  900SOL    MW4 3368   3.356   5.599   3.174 -0.4218  0.0429  0.2228
  901SOL     OW 3369   2.011   0.972   0.995  0.4674 -0.1241  0.0737
  901SOL    HW2 3370   2.021   0.914   0.919 -1.2731  0.1490 -0.4061
  901SOL    HW3 3371   1.973   0.917   1.063 -0.1431  0.1876 -0.0149
  901SOL    MW4 3372   2.007   0.957   0.994 -0.6179 -0.2534 -0.1561
  902SOL     OW 3373   2.441   1.090   4.177  0.3043  1.0611 -0.4149
  902SOL    HW2 3374   2.515   1.090   4.117  0.9326 -0.9356  0.3057
  902SOL    HW3 3375   2.480   1.100   4.264 -0.2540 -0.0044 -0.0304
  902SOL    MW4 3376   2.456   1.091   4.180 -0.2409  0.2237 -0.3011
  903SOL     OW 3377   3.194   2.730   1.405 -0.3639  0.0321  0.0651
  903SOL    HW2 3378   3.228   2.665   1.343 -0.3991 -0.9778  1.0803
  903SOL    HW3 3379   3.272   2.772   1.441 -0.2382 -1.0139  1.0477
  903SOL    MW4 3380   3.209   2.727   1.402 -0.4991  0.0902 -0.8428
  904SOL     OW 3381   2.539   3.100   5.792 -0.2376  0.3138  0.2340
  904SOL    HW2 3382   2.547   3.086   5.698 -0.5012  0.8035  0.1365
  904SOL    HW3 3383   2.473   3.169   5.801  0.7160  1.1961  0.7141
  904SOL    MW4 3384   2.532   3.107   5.781  0.0136 -0.0792  0.6759
  905SOL     OW 3385   4.924   4.576   0.635  0.1210  0.1423  0.0840
  905SOL    HW2 3386   4.869   4.622   0.572 -0.2523 -1.9656 -1.2577
  905SOL    HW3 3387   4.922   4.630   0.713 -3.9401  0.1841  0.1379
  905SOL    MW4 3388   4.917   4.589   0.637  0.6458 -0.8239 -0.5410
  906SOL     OW 3389   2.418   3.487   5.412  0.1395  0.2084 -0.4493
  906SOL    HW2 3390   2.345   3.547   5.401  0.9691  0.9091 -2.7466
  906SOL    HW3 3391   2.452   3.473   5.323  2.1737 -0.8628  0.4097
  906SOL    MW4 3392   2.413   3.493   5.399 -0.0290  0.0343 -0.1616
  907SOL     OW 3393   4.463   5.865   5.822  0.0840  0.2261 -0.0597
  907SOL    HW2 3394   4.474   5.890   5.913 -0.8363  0.5665 -0.0247
  907SOL    HW3 3395   4.518   5.788   5.810 -0.1178 -0.0746  0.8978
  907SOL    MW4 3396   4.472   5.859   5.832  0.5390 -0.1926  0.4601
  908SOL     OW 3397   0.344   4.955   2.420 -0.1617  0.6495  0.0469
  908SOL    HW2 3398   0.347   4.860   2.413 -0.4295  0.6088  0.4909
  908SOL    HW3 3399   0.384   4.986   2.339 -1.5752  0.1658 -0.8815
  908SOL    MW4 3400   0.349   4.947   2.408  0.2502  0.0978 -0.1680
  909SOL     OW 3401   4.793   0.677   1.425  0.4930 -0.3250 -0.7398
  909SOL    HW2 3402   4.821   0.737   1.357  0.2020 -0.9373 -1.4119
  909SOL    HW3 3403   4.734   0.729   1.480 -0.8316 -0.3381 -2.0834
  909SOL    MW4 3404   4.789   0.692   1.423 -0.2122 -0.1529  0.4096
  910SOL     OW 3405   5.218   4.111   5.818 -0.2401  0.1784  0.4773
  910SOL    HW2 3406   5.295   4.152   5.780 -1.1594 -1.0721 -3.2123
  910SOL    HW3 3407   5.149   4.126   5.754 -2.7586  0.0399  2.9580
  910SOL    MW4 3408   5.219   4.118   5.804 -0.0977 -0.4273  0.3246
  911SOL     OW 3409   0.547   1.035   1.945 -0.0537 -0.4721 -0.0480
  911SOL    HW2 3410   0.538   1.008   1.854  0.1911  1.5507 -0.7179
  911SOL    HW3 3411   0.461   1.018   1.983 -1.5476  2.3606 -1.7817
  911SOL    MW4 3412   0.534   1.030   1.938 -0.0390 -0.2807 -0.0710
  912SOL     OW 3413   3.138   2.588   2.139 -0.1338  0.0286  0.6880
  912SOL    HW2 3414   3.103   2.526   2.204  2.8279 -2.7296 -0.0760
  912SOL    HW3 3415   3.233   2.584   2.152  0.3544  1.8945 -1.6998
  912SOL    MW4 3416   3.146   2.579   2.150  0.1605  0.4787  0.0559
  913SOL     OW 3417   4.130   4.186   2.510  0.3768 -0.5990  0.4332
  913SOL    HW2 3418   4.053   4.130   2.503  0.1889 -0.2053 -0.9632
  913SOL    HW3 3419   4.203   4.132   2.480  0.0621  0.1169 -1.7858
  913SOL    MW4 3420   4.130   4.172   2.505 -0.4094 -0.0001  0.4188
  914SOL     OW 3421   2.404   6.314   1.437  0.1656 -0.1637  0.3816
  914SOL    HW2 3422   2.497   6.329   1.453 -0.1750  1.9501  0.6742
  914SOL    HW3 3423   2.379   6.382   1.374 -0.9773 -1.3461 -0.4851
  914SOL    MW4 3424   2.413   6.325   1.431 -0.0165  0.3499  0.1298
  915SOL     OW 3425   2.984   0.903   3.101 -0.2380  0.2289 -0.4762
  915SOL    HW2 3426   3.028   0.819   3.087 -0.8110 -0.6548  2.3102
  915SOL    HW3 3427   3.054   0.963   3.125 -0.1953 -0.6377  1.8459
  915SOL    MW4 3428   2.999   0.900   3.103  0.0328 -0.1853 -0.4562
  916SOL     OW 3429   0.320   4.214   2.933 -0.5942 -0.0546 -0.0002
  916SOL    HW2 3430   0.299   4.203   2.840  2.2116 -1.1837 -0.6273
  916SOL    HW3 3431   0.246   4.175   2.979 -0.7270 -2.2865 -1.8810
  916SOL    MW4 3432   0.308   4.207   2.927  0.1082  0.3354  0.0810
  917SOL     OW 3433   3.412   0.739   1.532  0.7071 -0.0600 -0.0397
  917SOL    HW2 3434   3.448   0.782   1.609  1.8310  0.2734 -0.7170
  917SOL    HW3 3435   3.482   0.745   1.467  0.6101 -2.2589 -0.4149
  917SOL    MW4 3436   3.426   0.746   1.533  0.3555  0.2542  0.5467
  918SOL     OW 3437   5.706   6.087   0.131  1.1356 -0.1520 -0.6230
  918SOL    HW2 3438   5.707   6.178   0.159  0.8521 -0.3511  0.0729
  918SOL    HW3 3439   5.795   6.068   0.103  1.0967  0.4546 -1.1635
  918SOL    MW4 3440   5.718   6.096   0.131  0.1448  0.1095 -0.2900
  919SOL     OW 3441   6.400   1.601   1.056  0.4912  0.2952  0.1259
  919SOL    HW2 3442   6.458   1.676   1.071 -0.7466  0.7631  3.6027
  919SOL    HW3 3443   6.450   1.526   1.090  1.0802 -0.2559 -1.8408
  919SOL    MW4 3444   6.414   1.601   1.063  0.0031  0.2968 -0.0721
  920SOL     OW 3445   4.601   2.947   1.486 -0.3342  0.0996  0.0277
  920SOL    HW2 3446   4.616   3.018   1.549  2.5862  1.3676 -1.8363
  920SOL    HW3 3447   4.662   2.878   1.513  1.0818  0.7331 -1.4183
  920SOL    MW4 3448   4.611   2.947   1.498 -0.0726 -0.1526 -0.1016
  921SOL     OW 3449   4.494   2.515   0.366 -0.3460  0.4346 -0.2691
  921SOL    HW2 3450   4.583   2.547   0.377 -0.9971  2.3214  0.0063
  921SOL    HW3 3451   4.467   2.550   0.281 -1.4723  1.6335  0.5454
  921SOL    MW4 3452   4.502   2.524   0.356  0.3752  0.0127 -0.3756
  922SOL     OW 3453   0.250   4.671   4.265  0.6899  0.3356 -0.3724
  922SOL    HW2 3454   0.306   4.716   4.201  0.3915 -1.9674 -2.3937
  922SOL    HW3 3455   0.162   4.679   4.229  0.3148  0.1378  0.4800
  922SOL    MW4 3456   0.246   4.678   4.252  0.3469  0.2735 -0.2566
  923SOL     OW 3457   2.190   0.207   3.902 -0.1248 -0.5669 -0.0820
  923SOL    HW2 3458   2.213   0.135   3.961 -0.7630  0.9949  2.2060
  923SOL    HW3 3459   2.250   0.277   3.925 -0.5304  0.1730 -1.2010
  923SOL    MW4 3460   2.201   0.206   3.912 -0.2138 -0.0830  0.3076
  924SOL     OW 3461   1.447   3.193   1.230 -0.5242  0.8651  0.2972
  924SOL    HW2 3462   1.431   3.144   1.150 -2.3774  0.0680  1.0965
  924SOL    HW3 3463   1.523   3.150   1.270 -0.9991 -0.1971  0.0810
  924SOL    MW4 3464   1.455   3.181   1.225 -0.3013  0.0657 -0.3339
  925SOL     OW 3465   3.043   5.083   6.099 -0.5747  0.3554  0.1532
  925SOL    HW2 3466   3.050   4.987   6.095 -1.7596  0.2714 -0.7589
  925SOL    HW3 3467   3.094   5.113   6.024  3.1966  0.7555  2.6258
  925SOL    MW4 3468   3.050   5.074   6.088  0.0850  0.5963  0.6671
  926SOL     OW 3469   1.292   3.813   4.721  0.6437 -0.4411 -0.0281
  926SOL    HW2 3470   1.270   3.871   4.793 -0.2261 -2.2372  1.2361
  926SOL    HW3 3471   1.264   3.726   4.750  0.6615 -1.3161 -2.3553
  926SOL    MW4 3472   1.285   3.809   4.734 -0.1459 -0.4328  0.3582
  927SOL     OW 3473   0.418   5.007   3.406  0.0144  0.4393 -0.3331
  927SOL    HW2 3474   0.391   5.048   3.324 -1.7963  1.4229  0.7040
  927SOL    HW3 3475   0.439   5.081   3.464 -0.0281 -0.1913  0.5070
  927SOL    MW4 3476   0.417   5.022   3.403  0.4298 -0.5878  0.3946
  928SOL     OW 3477   3.033   0.183   1.504  0.4981  0.2405 -0.5191
  928SOL    HW2 3478   2.943   0.194   1.473  0.5409 -0.3048 -0.8517
  928SOL    HW3 3479   3.025   0.148   1.592  0.3676 -2.3461 -1.4896
  928SOL    MW4 3480   3.020   0.180   1.511  0.7915 -0.0289  0.2928
  929SOL     OW 3481   1.561   2.548   3.750 -0.4701 -0.6916  0.1138
  929SOL    HW2 3482   1.643   2.501   3.767  0.5432  0.5520 -1.1112
  929SOL    HW3 3483   1.566   2.625   3.807 -0.5973 -0.3945 -0.2800
  929SOL    MW4 3484   1.573   2.552   3.760 -0.7034  0.0526 -0.5398
  930SOL     OW 3485   6.330   1.471   3.816  1.0262 -0.7303 -0.1098
  930SOL    HW2 3486   6.304   1.502   3.903  0.0629 -1.6460 -0.0530
  930SOL    HW3 3487   6.264   1.507   3.757  1.6625 -0.1345 -0.4641
  930SOL    MW4 3488   6.317   1.480   3.820 -0.6061  0.5536  0.0187
  931SOL     OW 3489   4.418   2.930   2.611 -0.1569  0.4204 -0.5621
  931SOL    HW2 3490   4.409   2.879   2.692 -0.7100  0.5667 -0.5275
  931SOL    HW3 3491   4.504   2.906   2.577 -0.4620 -0.6538 -0.6188
  931SOL    MW4 3492   4.428   2.920   2.617  0.7853 -0.5497 -0.1517
  932SOL     OW 3493   3.228   4.885   5.357 -0.2626  0.0899 -0.2152
  932SOL    HW2 3494   3.304   4.942   5.360  0.8905 -1.2608 -1.8048
  932SOL    HW3 3495   3.184   4.906   5.275 -1.1317  0.2394  0.2653
  932SOL    MW4 3496   3.232   4.895   5.347 -0.1738  0.0990  0.1796
  933SOL     OW 3497   5.102   5.965   1.620 -0.1538  0.3296 -0.3437
  933SOL    HW2 3498   5.040   6.018   1.569 -0.4339 -0.1766 -0.5400
  933SOL    HW3 3499   5.064   5.960   1.707 -0.3702  0.0672 -0.4493
  933SOL    MW4 3500   5.089   5.971   1.625  0.1823  0.4123  0.4593
  934SOL     OW 3501   4.598   5.168   0.435  0.4801 -0.1718  0.3735
  934SOL    HW2 3502   4.529   5.145   0.374 -0.0424  0.1525  0.8358
  934SOL    HW3 3503   4.635   5.085   0.463  1.7684 -0.3040 -1.5420
  934SOL    MW4 3504   4.594   5.154   0.431 -0.7446  0.7438  0.3577
  935SOL     OW 3505   1.153   6.420   2.091  0.8051 -0.2204 -0.4845
  935SOL    HW2 3506   1.075   6.421   2.036  1.3013 -0.8836 -1.2187
  935SOL    HW3 3507   1.226   6.410   2.029  1.5723  1.4515  0.0849
  935SOL    MW4 3508   1.152   6.419   2.076  0.2711 -0.1183 -0.4826
  936SOL     OW 3509   0.517   0.467   4.390  0.1887  0.0283 -0.5077
  936SOL    HW2 3510   0.593   0.450   4.446 -0.6470 -0.5129  0.4962
  936SOL    HW3 3511   0.482   0.550   4.421 -0.3076 -0.2982 -0.1731
  936SOL    MW4 3512   0.523   0.475   4.401 -0.7207  0.2400 -0.4655
  937SOL     OW 3513   3.120   3.000   1.025  0.4145 -0.0882  0.1794
  937SOL    HW2 3514   3.131   2.938   0.953 -1.3544 -1.5997  1.1254
  937SOL    HW3 3515   3.065   3.069   0.988 -1.1841 -1.2743  0.2362
  937SOL    MW4 3516   3.114   3.001   1.010  0.2392 -0.5814 -0.0153
  938SOL     OW 3517   1.225   1.653   1.567 -0.2586  0.2075 -0.7379
  938SOL    HW2 3518   1.305   1.611   1.534 -0.5922 -1.0494 -0.0048
  938SOL    HW3 3519   1.251   1.694   1.649 -0.1451  0.6551 -0.9950
  938SOL    MW4 3520   1.239   1.653   1.573 -0.0339  0.6326 -0.2567
  939SOL     OW 3521   2.927   4.136   5.577 -0.1445 -0.2166  0.5671
  939SOL    HW2 3522   2.998   4.101   5.631  1.0873  1.8074  0.3745
  939SOL    HW3 3523   2.876   4.191   5.637  0.2667  0.7448  0.0589
  939SOL    MW4 3524   2.929   4.138   5.592  1.0159  0.1374 -0.1438
  940SOL     OW 3525   3.426   3.306   6.056 -0.4982 -0.5207  0.0781
  940SOL    HW2 3526   3.440   3.360   6.134  2.8000 -0.9089 -0.1030
  940SOL    HW3 3527   3.417   3.369   5.984  5.3146  0.2603 -0.4728
  940SOL    MW4 3528   3.427   3.321   6.056 -0.4508  0.0560 -0.1716
  941SOL     OW 3529   2.831   0.281   6.267 -0.2938 -0.3073 -0.3951
  941SOL    HW2 3530   2.908   0.273   6.324  0.1515 -0.9407 -1.0644
  941SOL    HW3 3531   2.763   0.230   6.311 -0.5191  0.6996  0.4784
  941SOL    MW4 3532   2.832   0.273   6.281 -0.0274 -0.6103 -0.2071
  942SOL     OW 3533   0.266   3.438   0.816 -0.1834 -0.1036 -0.0156
  942SOL    HW2 3534   0.173   3.420   0.809 -0.1057  0.1148 -2.0483
  942SOL    HW3 3535   0.294   3.461   0.727  1.4697  1.4525  0.8269
  942SOL    MW4 3536   0.258   3.439   0.804 -0.5520 -0.0817  0.0402
  943SOL     OW 3537   3.451   0.198   6.342 -0.3278  0.2102  0.1149
  943SOL    HW2 3538   3.521   0.188   6.406  0.1641  1.7636 -0.1481
  943SOL    HW3 3539   3.474   0.137   6.271 -0.8399 -1.4620  1.3313
  943SOL    MW4 3540   3.463   0.189   6.341  0.1115 -0.2556  0.6151
  944SOL     OW 3541   3.413   1.353   0.348 -0.0409  0.0930 -0.3794
  944SOL    HW2 3542   3.318   1.343   0.347 -0.1068  0.6329  0.2067
  944SOL    HW3 3543   3.428   1.440   0.385  0.6551  0.4094 -1.3777
  944SOL    MW4 3544   3.403   1.363   0.353 -0.2792  0.4817 -0.1253
  945SOL     OW 3545   5.648   4.064   3.535 -0.3502 -0.3746  0.4174
  945SOL    HW2 3546   5.558   4.080   3.561 -0.5438 -1.5714  0.5443
  945SOL    HW3 3547   5.695   4.051   3.618 -0.2608 -0.7176  0.3144
  945SOL    MW4 3548   5.642   4.064   3.549  0.2408  0.3177 -0.0140
  946SOL     OW 3549   0.567   1.097   0.005  0.1228  0.3816  0.6692
  946SOL    HW2 3550   0.569   1.179  -0.045 -1.4013 -0.4190 -0.8019
  946SOL    HW3 3551   0.479   1.063  -0.009  0.5486 -1.2331  1.7233
  946SOL    MW4 3552   0.556   1.103  -0.004 -0.0445  0.6451  0.1020
  947SOL     OW 3553   3.531   1.553   4.780  0.0762  0.0050  0.0107
  947SOL    HW2 3554   3.517   1.626   4.841 -0.6497 -0.8833  0.9504
  947SOL    HW3 3555   3.626   1.537   4.783  0.1268  0.3714  0.4383
  947SOL    MW4 3556   3.542   1.561   4.789 -0.2587  0.3237  0.1468
  948SOL     OW 3557   3.330   2.847   4.587 -0.2161  0.4628  0.2528
  948SOL    HW2 3558   3.339   2.752   4.593 -1.7502  0.3583  1.3134
  948SOL    HW3 3559   3.411   2.882   4.625 -0.1158 -0.4034  0.8408
  948SOL    MW4 3560   3.342   2.839   4.593 -0.1051 -0.1674  0.0661
  949SOL     OW 3561   5.358   0.886   2.190 -0.1011 -0.3581 -0.1491
  949SOL    HW2 3562   5.305   0.944   2.244  2.5338  1.6166  0.5158
  949SOL    HW3 3563   5.431   0.860   2.247  0.6983 -1.4086 -1.5710
  949SOL    MW4 3564   5.361   0.890   2.205 -0.1473 -0.1750  0.2924
  950SOL     OW 3565   3.694   1.786   5.993  0.4788  0.0817 -0.4261
  950SOL    HW2 3566   3.780   1.806   6.031  1.7261 -1.2139 -2.3656
  950SOL    HW3 3567   3.705   1.699   5.953 -2.0865 -0.6062  0.2104
  950SOL    MW4 3568   3.707   1.777   5.992  0.2276  0.4155 -0.0151
  951SOL     OW 3569   0.308   5.208   2.687  0.1146  0.2393 -0.2355
  951SOL    HW2 3570   0.336   5.255   2.608 -0.5096 -0.0887 -0.6548
  951SOL    HW3 3571   0.258   5.133   2.654 -0.1891  0.1271  0.4723
  951SOL    MW4 3572   0.305   5.204   2.672 -0.4739  0.4170 -0.6137
  952SOL     OW 3573   1.984   5.844   0.591  0.3713 -0.1866 -0.1725
  952SOL    HW2 3574   1.986   5.830   0.686  2.9052  2.1542  0.2449
  952SOL    HW3 3575   1.998   5.938   0.581  2.2432 -0.6600 -2.9035
  952SOL    MW4 3576   1.986   5.855   0.602  0.0270 -0.4130  0.5828
  953SOL     OW 3577   4.462   0.172   1.793  0.2916  0.5343 -0.0784
  953SOL    HW2 3578   4.453   0.184   1.888 -1.9921 -0.4887 -0.0959
  953SOL    HW3 3579   4.451   0.078   1.779 -0.5088  0.7976 -1.4382
  953SOL    MW4 3580   4.459   0.161   1.804 -0.4135  0.3737 -0.1993
  954SOL     OW 3581   5.435   2.144   0.066 -0.6181  0.3625  0.2082
  954SOL    HW2 3582   5.509   2.088   0.088  0.2071  0.1622 -2.6653
  954SOL    HW3 3583   5.364   2.083   0.045 -0.6697  0.4745  0.0533
  954SOL    MW4 3584   5.435   2.129   0.066 -0.1635 -0.2412  0.0905
  955SOL     OW 3585   2.345   0.156   0.255  0.4306  0.1887 -0.0320
  955SOL    HW2 3586   2.349   0.252   0.250 -1.6887  0.5121  2.5588
  955SOL    HW3 3587   2.300   0.138   0.337  1.2336 -3.0880 -0.1825
  955SOL    MW4 3588   2.340   0.167   0.265  0.1721 -0.3713  0.8058
  956SOL     OW 3589   2.890   0.636   1.053 -0.2194 -0.1214  0.5227
  956SOL    HW2 3590   2.944   0.714   1.068 -0.4772  0.1332  0.1179
  956SOL    HW3 3591   2.803   0.661   1.084  0.0067 -0.7134  1.6854
  956SOL    MW4 3592   2.886   0.649   1.059  0.2278 -0.3085 -0.1167
  957SOL     OW 3593   4.419   0.478   5.516  0.4417  0.8809  0.1087
  957SOL    HW2 3594   4.376   0.430   5.587  0.2232 -0.1016 -0.6602
  957SOL    HW3 3595   4.424   0.415   5.445 -0.7331  2.2982 -1.2915
  957SOL    MW4 3596   4.414   0.463   5.516  0.2875  0.6114  0.9056
  958SOL     OW 3597   5.558   5.750   2.629  0.1979 -0.1315  0.0077
  958SOL    HW2 3598   5.550   5.806   2.705  1.7802 -0.3826  0.4035
  958SOL    HW3 3599   5.481   5.770   2.575 -1.3345 -0.4773  1.9725
  958SOL    MW4 3600   5.547   5.760   2.632  0.1973  0.0489  0.5853
  959SOL     OW 3601   1.270   1.970   6.117  0.4786  0.2328  0.1932
  959SOL    HW2 3602   1.272   1.881   6.084 -0.3463  0.2718  0.0379
  959SOL    HW3 3603   1.335   1.970   6.188  0.9945 -0.2954 -0.2661
  959SOL    MW4 3604   1.279   1.958   6.122  0.2489 -0.2756 -0.5294
  960SOL     OW 3605   5.600   3.443   0.546  0.3082  0.7460  0.0491
  960SOL    HW2 3606   5.675   3.426   0.489  0.9690  1.7906  0.5782
  960SOL    HW3 3607   5.532   3.476   0.488  0.4607  0.3677 -0.3498
  960SOL    MW4 3608   5.601   3.445   0.531 -0.1644 -0.1642 -0.3184
  961SOL     OW 3609   2.173   2.529   2.396 -0.3776  0.2074 -0.2338
  961SOL    HW2 3610   2.137   2.587   2.464 -2.6264 -0.9501 -0.3287
  961SOL    HW3 3611   2.204   2.588   2.328  1.1295  1.3755  1.3815
  961SOL    MW4 3612   2.172   2.545   2.396 -0.4658  0.8782 -0.6849
  962SOL     OW 3613   5.341   3.727   4.704 -0.2494  0.1266 -0.3412
  962SOL    HW2 3614   5.337   3.753   4.612  0.2875 -1.9727 -0.9931
  962SOL    HW3 3615   5.409   3.783   4.742 -0.0778  0.6182 -1.3518
  962SOL    MW4 3616   5.349   3.738   4.697 -0.2405  0.1812  0.0238
  963SOL     OW 3617   0.540   4.557   6.144 -0.2115  0.3892 -0.5433
  963SOL    HW2 3618   0.463   4.610   6.165  0.2947  1.4839 -1.3350
  963SOL    HW3 3619   0.587   4.549   6.226  0.4151  2.3903 -0.6433
  963SOL    MW4 3620   0.536   4.563   6.157 -0.0713  0.3857 -0.2031
  964SOL     OW 3621   5.644   3.369   6.378  0.3118 -0.1693 -0.0104
  964SOL    HW2 3622   5.721   3.318   6.406  0.0355  0.0762  1.2704
  964SOL    HW3 3623   5.633   3.346   6.286  1.4875 -0.7672 -0.0302
  964SOL    MW4 3624   5.653   3.359   6.370 -0.2897  0.0028  0.0198
  965SOL     OW 3625   5.010   5.789   0.181 -0.6000 -0.4708 -0.2044
  965SOL    HW2 3626   5.006   5.840   0.100  0.1026  0.1608  0.1409
  965SOL    HW3 3627   4.921   5.792   0.216 -0.4025  1.2831  0.2459
  965SOL    MW4 3628   4.998   5.796   0.175 -0.2989 -0.0309 -0.1046
  966SOL     OW 3629   5.451   1.876   3.831  0.2053 -0.2655 -0.0291
  966SOL    HW2 3630   5.479   1.940   3.895 -0.8892 -0.2527  0.4574
  966SOL    HW3 3631   5.529   1.859   3.778  0.6103  1.1681  0.0681
  966SOL    MW4 3632   5.465   1.882   3.832  0.5676  0.1470 -0.8008
  967SOL     OW 3633   2.348   3.899   1.875  0.1694  0.1331  0.2869
  967SOL    HW2 3634   2.339   3.836   1.947 -0.6700 -0.0499  0.0324
  967SOL    HW3 3635   2.419   3.863   1.821  0.4960  0.0311  0.7680
  967SOL    MW4 3636   2.356   3.886   1.878  0.0176 -0.5058  0.1989
  968SOL     OW 3637   3.742   0.115   0.836 -0.0222  0.0291  0.7015
  968SOL    HW2 3638   3.750   0.110   0.741  1.5626  0.5811  0.7699
  968SOL    HW3 3639   3.790   0.039   0.869  2.1460  1.4647  1.0845
  968SOL    MW4 3640   3.749   0.104   0.828 -0.2460  0.4939 -0.2299
  969SOL     OW 3641   2.533   0.171   5.354 -0.3674 -0.8938  0.0808
  969SOL    HW2 3642   2.438   0.181   5.353 -0.6175 -2.4604 -2.7019
  969SOL    HW3 3643   2.563   0.212   5.272  1.4587  0.0693  1.1585
  969SOL    MW4 3644   2.524   0.178   5.343  0.4098  0.4259  0.7769
  970SOL     OW 3645   2.015   4.398   4.635  0.5436 -0.0758 -0.4273
  970SOL    HW2 3646   2.049   4.308   4.636  1.0664  0.1208  0.1341
  970SOL    HW3 3647   1.945   4.397   4.570 -0.6284 -1.3091  0.7934
  970SOL    MW4 3648   2.011   4.386   4.626  1.3166 -0.1354  0.3175
  971SOL     OW 3649   5.874   1.460   0.397  0.0455 -0.3765 -0.2881
  971SOL    HW2 3650   5.954   1.442   0.446 -0.1568 -1.5951 -0.3897
  971SOL    HW3 3651   5.841   1.541   0.436  1.2314  0.0605 -0.1416
  971SOL    MW4 3652   5.880   1.468   0.409 -0.3902 -0.3974  0.2324
  972SOL     OW 3653   3.515   0.583   4.778 -0.4298  0.2732  0.2186
  972SOL    HW2 3654   3.446   0.596   4.844 -0.9987  0.6629 -0.4293
  972SOL    HW3 3655   3.468   0.590   4.694  0.3815  0.4023 -0.2284
  972SOL    MW4 3656   3.499   0.586   4.775 -0.0022 -0.0161  0.4777
  973SOL     OW 3657   2.278   4.979   1.412 -0.5048 -0.4720 -0.3072
  973SOL    HW2 3658   2.224   4.901   1.425  1.4436 -1.6905  1.1456
  973SOL    HW3 3659   2.368   4.947   1.414  0.4229  1.9117  1.3900
  973SOL    MW4 3660   2.283   4.965   1.414  0.1655  0.0680 -0.2882
  974SOL     OW 3661   4.637   4.090   2.359  0.2236  0.1403  0.0585
  974SOL    HW2 3662   4.694   4.054   2.291  0.1511  2.6329 -1.4176
  974SOL    HW3 3663   4.690   4.156   2.403 -0.3190 -0.2158  1.3091
  974SOL    MW4 3664   4.652   4.094   2.356  0.4488  0.7630  1.1026
  975SOL     OW 3665   4.633   0.466   0.014 -0.1254  0.0139  0.0360
  975SOL    HW2 3666   4.703   0.522   0.047  2.0839 -1.7916 -1.2289
  975SOL    HW3 3667   4.604   0.507  -0.067  0.2210  0.2575  0.0353
  975SOL    MW4 3668   4.638   0.479   0.008 -0.7705  0.5345  0.7235
  976SOL     OW 3669   0.998   2.708   3.113 -0.1950  0.8868  0.6751
  976SOL    HW2 3670   1.039   2.633   3.156 -0.8151  0.1510  0.0056
  976SOL    HW3 3671   1.071   2.766   3.093  0.0604  1.5941  3.2853
  976SOL    MW4 3672   1.013   2.706   3.116  0.4208 -0.1818 -0.2071
  977SOL     OW 3673   1.034   2.981   2.132 -0.2162  0.4364  0.0071
  977SOL    HW2 3674   1.126   2.984   2.158 -0.1867  2.3611 -0.2069
  977SOL    HW3 3675   1.033   2.921   2.057  0.7683 -0.0277  0.3428
  977SOL    MW4 3676   1.046   2.973   2.125  0.4032  0.0578  0.1429
  978SOL     OW 3677   1.367   5.688   3.001  0.4790 -0.1349 -0.0447
  978SOL    HW2 3678   1.397   5.682   3.092 -0.9252 -2.2000  0.3742
  978SOL    HW3 3679   1.298   5.755   3.003 -0.1190 -0.7544  0.6199
  978SOL    MW4 3680   1.362   5.696   3.013 -0.0810 -1.0383  0.1836
  979SOL     OW 3681   0.515   1.527   0.385  0.2994 -0.2437 -0.3613
  979SOL    HW2 3682   0.512   1.622   0.389  0.3624 -0.1651 -1.8265
  979SOL    HW3 3683   0.477   1.498   0.468 -1.2862  1.0370 -0.6065
  979SOL    MW4 3684   0.510   1.535   0.397  0.1387 -0.2134 -0.1676
  980SOL     OW 3685   4.868   2.098   6.279  0.5030 -0.0863  0.6982
  980SOL    HW2 3686   4.905   2.117   6.366  0.9689  0.3334  0.4179
  980SOL    HW3 3687   4.774   2.108   6.290  0.4786 -0.9513  1.3798
  980SOL    MW4 3688   4.861   2.102   6.292  0.1190 -0.1189 -0.3897
  981SOL     OW 3689   6.408   2.880   5.536  0.1558  0.0927  0.0927
  981SOL    HW2 3690   6.416   2.903   5.444  1.6359 -1.6842 -0.2895
  981SOL    HW3 3691   6.477   2.930   5.580 -0.8214  1.2649  0.3411
  981SOL    MW4 3692   6.418   2.889   5.529  0.5156 -0.3882 -0.3178
  982SOL     OW 3693   3.012   5.778   0.693 -0.4656  0.1795  0.1353
  982SOL    HW2 3694   3.006   5.868   0.660  0.0016 -0.0438 -0.5758
  982SOL    HW3 3695   3.100   5.749   0.669 -0.1114 -0.0093  1.5704
  982SOL    MW4 3696   3.023   5.786   0.686  0.3222  0.3700 -0.0892
  983SOL     OW 3697   0.428   6.355   5.766 -0.2384 -0.0273 -0.1532
  983SOL    HW2 3698   0.434   6.349   5.670  0.0964 -0.2795 -0.1197
  983SOL    HW3 3699   0.368   6.285   5.790 -1.7239  1.1535 -0.3178
  983SOL    MW4 3700   0.421   6.345   5.757  0.6566 -0.1767 -0.0289
  984SOL     OW 3701   3.131   3.950   4.688  0.0546 -0.4445 -0.5166
  984SOL    HW2 3702   3.074   3.934   4.763 -0.9590 -0.6479 -1.3038
  984SOL    HW3 3703   3.086   4.018   4.638  1.7620  1.2363  0.1258
  984SOL    MW4 3704   3.118   3.957   4.691 -0.6455  0.0906 -0.1698
  985SOL     OW 3705   2.837   5.342   0.330  0.0400 -0.6717  0.4666
  985SOL    HW2 3706   2.764   5.298   0.288  0.6033 -1.4629  0.2924
  985SOL    HW3 3707   2.811   5.349   0.422 -1.6430  1.9813 -0.0808
  985SOL    MW4 3708   2.824   5.337   0.337  0.2268  0.7013  0.3255
  986SOL     OW 3709   4.011   3.630   0.993  0.1723  0.5043  0.3438
  986SOL    HW2 3710   4.032   3.546   0.953 -1.2946 -0.7508  2.1028
  986SOL    HW3 3711   4.087   3.650   1.048  0.0592 -0.2027  0.7575
  986SOL    MW4 3712   4.024   3.622   0.995 -0.0158 -0.5203 -0.4000
  987SOL     OW 3713   3.811   2.146   0.898  0.3487 -0.1672  0.0330
  987SOL    HW2 3714   3.836   2.161   0.990  1.9998  2.8983 -0.7744
  987SOL    HW3 3715   3.885   2.100   0.860 -0.5454 -1.8889  0.2574
  987SOL    MW4 3716   3.824   2.142   0.905 -0.1462  0.0750 -0.3594
  988SOL     OW 3717   6.160   3.463   4.134  0.5776 -0.3787 -0.2248
  988SOL    HW2 3718   6.085   3.518   4.157  0.3518 -1.3631  1.6098
  988SOL    HW3 3719   6.130   3.412   4.059  0.2155  0.7976 -0.8988
  988SOL    MW4 3720   6.146   3.463   4.127 -0.4011  0.2051 -0.1736
  989SOL     OW 3721   5.299   1.709   4.060  0.6504 -0.1513 -0.3687
  989SOL    HW2 3722   5.371   1.712   3.997  1.0180  1.7421  0.0810
  989SOL    HW3 3723   5.245   1.785   4.038 -0.0526 -0.3403  0.6322
  989SOL    MW4 3724   5.301   1.719   4.048 -0.8040 -0.0469  0.0256
  990SOL     OW 3725   3.682   4.618   3.218  0.6442 -0.2358  0.4646
  990SOL    HW2 3726   3.625   4.608   3.294 -1.3152  1.4945 -0.6658
  990SOL    HW3 3727   3.725   4.702   3.230 -0.1507  0.3445 -0.5863
  990SOL    MW4 3728   3.680   4.628   3.230  0.0123  0.7763 -0.0514
  991SOL     OW 3729   5.248   1.075   3.815 -0.3236  0.0423  0.2279
  991SOL    HW2 3730   5.177   1.063   3.752 -0.7386 -1.5559  0.9455
  991SOL    HW3 3731   5.208   1.124   3.887 -0.2927  0.4201 -0.0082
  991SOL    MW4 3732   5.233   1.080   3.816  0.0788  0.0929 -0.5814
  992SOL     OW 3733   5.384   5.252   0.173 -0.1311  0.0619 -0.3427
  992SOL    HW2 3734   5.439   5.269   0.249 -1.6773 -0.4680  0.9396
  992SOL    HW3 3735   5.314   5.317   0.178 -0.8848 -0.7085 -0.6434
  992SOL    MW4 3736   5.382   5.262   0.184  0.3257 -0.3740  0.2578
  993SOL     OW 3737   3.700   4.131   3.634 -0.6386  0.1608 -0.2721
  993SOL    HW2 3738   3.656   4.206   3.673 -0.9933 -0.8536  1.3873
  993SOL    HW3 3739   3.678   4.136   3.541 -0.3228  2.3033 -0.2927
  993SOL    MW4 3740   3.692   4.142   3.627  0.4447 -0.3140  0.2080
  994SOL     OW 3741   4.667   3.472   1.650  0.1773  0.0314 -0.0438
  994SOL    HW2 3742   4.645   3.380   1.668  0.1896  0.1188  0.4119
  994SOL    HW3 3743   4.756   3.482   1.681 -0.3383  0.5939  1.3416
  994SOL    MW4 3744   4.676   3.461   1.656 -0.2988  0.5148  0.0240
  995SOL     OW 3745   6.304   4.763   4.181  0.7088 -0.0886  0.2948
  995SOL    HW2 3746   6.311   4.810   4.265 -0.1643  1.4213 -0.4354
  995SOL    HW3 3747   6.213   4.736   4.176  0.7610 -0.1861 -0.1666
  995SOL    MW4 3748   6.293   4.766   4.192  0.3462 -0.0329  0.3599
  996SOL     OW 3749   3.495   6.047   2.294 -0.4482 -0.5662  0.2877
  996SOL    HW2 3750   3.575   6.082   2.333 -2.6726  1.6937  3.3701
  996SOL    HW3 3751   3.494   6.081   2.205  0.5031  2.1800  1.2350
  996SOL    MW4 3752   3.505   6.056   2.287  0.3694  0.0541  0.4716
  997SOL     OW 3753   3.803   2.563   5.857  0.4085 -0.1981 -0.0354
  997SOL    HW2 3754   3.890   2.551   5.821  0.8473  1.3521  0.4404
  997SOL    HW3 3755   3.744   2.536   5.786  1.2546  1.4678 -1.4562
  997SOL    MW4 3756   3.806   2.558   5.843  0.5314 -0.1204  0.7601
  998SOL     OW 3757   0.391   4.148   2.252  0.2876 -0.3446  1.0174
  998SOL    HW2 3758   0.484   4.139   2.271  0.2462 -1.8601  0.5762
  998SOL    HW3 3759   0.385   4.228   2.198  1.1385  0.5051  2.1407
  998SOL    MW4 3760   0.402   4.158   2.247 -0.0126  0.2750  0.1632
  999SOL     OW 3761   1.270   3.809   4.331  0.5774 -0.0698  0.0978
  999SOL    HW2 3762   1.190   3.823   4.382 -0.5846 -1.6110 -1.1947
  999SOL    HW3 3763   1.314   3.736   4.374  0.4131 -0.3132 -0.1370
  999SOL    MW4 3764   1.265   3.801   4.343  0.3035  0.0874 -0.0918
 1000SOL     OW 3765   5.921   3.943   5.744 -0.0715 -0.5761 -0.3618
 1000SOL    HW2 3766   5.893   3.900   5.662 -0.2505  0.7186 -1.0012
 1000SOL    HW3 3767   5.956   3.871   5.797  0.9761 -1.3240 -1.9584
 1000SOL    MW4 3768   5.922   3.928   5.740 -0.3614  0.0659  0.0944
 1001SOL     OW 3769   3.021   4.293   4.231 -0.5062  0.0795  0.0013
 1001SOL    HW2 3770   3.080   4.366   4.250  1.1390 -0.9828 -0.7281
 1001SOL    HW3 3771   3.036   4.274   4.138 -2.6343  0.2653 -0.4307
 1001SOL    MW4 3772   3.031   4.300   4.221 -0.0944 -0.4225  0.6218
 1002SOL     OW 3773   2.190   1.585   5.560  0.2837 -0.0245  0.1707
 1002SOL    HW2 3774   2.205   1.564   5.468 -1.1722 -0.9158  0.1168
 1002SOL    HW3 3775   2.095   1.586   5.570  0.4187 -0.4507  1.7884
 1002SOL    MW4 3776   2.179   1.583   5.549  0.3490 -0.1543  0.3408
 1003SOL     OW 3777   5.829   1.120   3.254 -0.6765 -0.3202 -0.0490
 1003SOL    HW2 3778   5.814   1.058   3.325 -0.3728  0.1593  0.4487
 1003SOL    HW3 3779   5.841   1.204   3.298  1.1625 -0.2845 -0.5380
 1003SOL    MW4 3780   5.829   1.123   3.269  0.1594 -0.3856 -0.4104
 1004SOL     OW 3781   4.660   0.587   1.024 -0.4867 -0.0158 -0.2272
 1004SOL    HW2 3782   4.569   0.591   0.996 -0.2314  0.5082 -1.0464
 1004SOL    HW3 3783   4.707   0.636   0.957  0.4195 -0.4260  0.0897
 1004SOL    MW4 3784   4.654   0.594   1.011  0.5185 -0.3096  0.0381
 1005SOL     OW 3785   5.313   1.722   2.197 -0.5128  0.1962  0.0717
 1005SOL    HW2 3786   5.282   1.632   2.188 -3.4494  1.2603 -1.8284
 1005SOL    HW3 3787   5.348   1.744   2.111 -1.0708  1.2437  0.0968
 1005SOL    MW4 3788   5.313   1.713   2.185 -0.0346 -0.4040 -0.4287
 1006SOL     OW 3789   0.016   1.110   3.808 -0.0946 -0.2731  0.7051
 1006SOL    HW2 3790   0.080   1.181   3.802 -1.0612  0.6308  0.7916
 1006SOL    HW3 3791  -0.062   1.152   3.843 -0.9491 -1.2166 -0.0346
 1006SOL    MW4 3792   0.014   1.125   3.812  1.0309 -0.5309 -0.3515
 1007SOL     OW 3793   5.204   4.743   2.488 -0.3819 -0.0807 -0.4847
 1007SOL    HW2 3794   5.211   4.679   2.559  0.0589  0.7195  0.2202
 1007SOL    HW3 3795   5.141   4.705   2.427  1.8908 -2.4860 -1.5216
 1007SOL    MW4 3796   5.197   4.729   2.489 -0.8477  0.9658 -0.8078
 1008SOL     OW 3797   4.733   2.911   6.164 -0.6058  0.3731 -0.7798
 1008SOL    HW2 3798   4.704   3.001   6.173 -0.8495  0.1522  1.1244
 1008SOL    HW3 3799   4.823   2.917   6.133 -0.0902  1.3355  0.8343
 1008SOL    MW4 3800   4.741   2.923   6.161  0.4174  0.1889  0.7014
 1009SOL     OW 3801   2.871   1.504   1.885  0.5027  0.3221 -0.2011
 1009SOL    HW2 3802   2.863   1.598   1.900 -0.1328 -0.1422  3.1870
 1009SOL    HW3 3803   2.965   1.487   1.889  0.6703  0.8390 -1.4519
 1009SOL    MW4 3804   2.882   1.514   1.888 -0.6556  0.9311  1.3990
 1010SOL     OW 3805   3.895   3.198   2.651 -0.0763 -0.4920 -0.3406
 1010SOL    HW2 3806   3.928   3.276   2.607 -0.7910 -0.2667 -0.4953
 1010SOL    HW3 3807   3.800   3.204   2.642 -0.3173 -0.0546  1.8534
 1010SOL    MW4 3808   3.887   3.209   2.644  0.0531 -0.2882  0.4361
 1011SOL     OW 3809   6.334   1.397   2.032  0.0353 -0.1307  0.0309
 1011SOL    HW2 3810   6.375   1.312   2.015  0.0211  0.0401 -0.8892
 1011SOL    HW3 3811   6.241   1.377   2.044 -0.1210 -0.1503 -1.1166
 1011SOL    MW4 3812   6.327   1.383   2.032 -0.0642  0.0948 -0.0130
 1012SOL     OW 3813   2.673   0.989   0.362  0.7683  0.3757  0.1996
 1012SOL    HW2 3814   2.619   0.948   0.429 -1.1628  1.2661 -0.7365
 1012SOL    HW3 3815   2.677   1.081   0.386 -0.6838  0.8789 -1.3143
 1012SOL    MW4 3816   2.667   0.996   0.374  0.2079  0.5754 -0.1281
 1013SOL     OW 3817   1.668   3.805   1.323 -0.2751 -0.2176  0.4220
 1013SOL    HW2 3818   1.574   3.801   1.304 -0.4539  1.0148  0.9415
 1013SOL    HW3 3819   1.695   3.892   1.294  1.1542 -1.2138 -1.5042
 1013SOL    MW4 3820   1.659   3.816   1.317 -0.2257  0.2502  0.0289
 1014SOL     OW 3821   2.087   3.835   1.706 -0.1110  0.0434 -0.0386
 1014SOL    HW2 3822   2.074   3.741   1.716  1.1359 -0.0785  0.6277
 1014SOL    HW3 3823   2.170   3.853   1.750 -1.4112  1.8185  1.8863
 1014SOL    MW4 3824   2.096   3.825   1.713 -0.0105 -0.1727  0.0580
 1015SOL     OW 3825   6.201   3.932   6.074  0.5852 -0.2759  0.1471
 1015SOL    HW2 3826   6.286   3.961   6.042  0.0079  1.1272 -0.1631
 1015SOL    HW3 3827   6.169   4.005   6.127 -0.7727 -0.4659 -0.3852
 1015SOL    MW4 3828   6.208   3.945   6.077  0.2723 -0.7544  0.4048
 1016SOL     OW 3829   0.779   6.348   3.047 -0.0429  0.4449 -0.6946
 1016SOL    HW2 3830   0.769   6.265   3.000  0.3024  0.6870 -1.2058
 1016SOL    HW3 3831   0.874   6.361   3.052 -0.1024  1.1144 -1.1760
 1016SOL    MW4 3832   0.790   6.339   3.042  0.1072 -0.2948 -0.4998
 1017SOL     OW 3833   2.357   1.933   5.903  0.2780  0.5140  0.0562
 1017SOL    HW2 3834   2.294   1.993   5.864  1.9367  1.9298 -0.5595
 1017SOL    HW3 3835   2.443   1.972   5.885  1.3243 -0.9873  1.4346
 1017SOL    MW4 3836   2.360   1.946   5.896 -0.0374 -0.2788  0.2350
 1018SOL     OW 3837   1.545   0.917   1.655 -0.2202  0.0564 -0.6248
 1018SOL    HW2 3838   1.544   0.823   1.634 -1.3698 -0.1540  0.2839
 1018SOL    HW3 3839   1.558   0.920   1.750  1.5381  0.8941 -0.8446
 1018SOL    MW4 3840   1.547   0.905   1.665  0.4855  0.0093 -0.6201
 1019SOL     OW 3841   4.092   2.621   3.361  0.1597 -0.2816 -0.0725
 1019SOL    HW2 3842   4.061   2.544   3.407  0.5852 -0.4873 -0.1247
 1019SOL    HW3 3843   4.018   2.681   3.361 -0.9104 -1.5183 -1.9079
 1019SOL    MW4 3844   4.078   2.619   3.367  0.1443  0.1232 -0.3462
 1020SOL     OW 3845   2.140   5.216   0.554  0.2071 -0.7904  0.4576
 1020SOL    HW2 3846   2.150   5.134   0.504  1.7968  0.4481 -1.4258
 1020SOL    HW3 3847   2.072   5.264   0.508  0.6629 -0.2289  0.3711
 1020SOL    MW4 3848   2.133   5.211   0.541  0.3156 -0.4106  0.2096
 1021SOL     OW 3849   4.738   2.054   5.093  0.1162  0.0995  0.0515
 1021SOL    HW2 3850   4.686   2.134   5.082  0.3057 -0.0538 -2.6173
 1021SOL    HW3 3851   4.827   2.084   5.111 -0.3818  0.3955  2.2107
 1021SOL    MW4 3852   4.743   2.068   5.094 -0.3570 -0.4890 -0.2602
 1022SOL     OW 3853   3.708   0.800   2.836  0.2777  0.5552 -0.1780
 1022SOL    HW2 3854   3.780   0.740   2.819  0.3778  0.7377 -0.3920
 1022SOL    HW3 3855   3.740   0.857   2.906  0.8328  1.4683 -1.1363
 1022SOL    MW4 3856   3.722   0.800   2.843  0.1509  0.1934 -0.4507
 1023SOL     OW 3857   1.810   5.312   0.688 -0.4061  0.4079 -0.0835
 1023SOL    HW2 3858   1.726   5.328   0.730 -1.6370 -1.0826 -1.7865
 1023SOL    HW3 3859   1.818   5.217   0.686  0.8130  0.5056 -0.8521
 1023SOL    MW4 3860   1.800   5.302   0.693 -0.3233 -0.0165 -0.4039
 1024SOL     OW 3861   4.476   2.794   6.129 -0.2464  0.3741 -0.5797
 1024SOL    HW2 3862   4.568   2.814   6.146  0.1289  0.2937 -2.2642
 1024SOL    HW3 3863   4.448   2.861   6.067 -1.3856  0.4809  0.0215
 1024SOL    MW4 3864   4.484   2.805   6.123  0.6193  0.4348 -0.0084
 1025SOL     OW 3865   5.301   3.738   4.090 -0.0267 -0.6998  0.6399
 1025SOL    HW2 3866   5.288   3.713   3.998  1.2731  1.4284 -0.2011
 1025SOL    HW3 3867   5.215   3.766   4.119  0.0254  1.2866 -0.8780
 1025SOL    MW4 3868   5.288   3.738   4.081  0.3941 -0.4231  0.5020
 1026SOL     OW 3869   3.266   1.630   4.126 -0.6424 -0.1065 -0.3163
 1026SOL    HW2 3870   3.309   1.678   4.056 -0.4815  2.0203  1.1413
 1026SOL    HW3 3871   3.195   1.687   4.155 -0.4853 -0.7502  1.4712
 1026SOL    MW4 3872   3.262   1.644   4.121 -0.0321 -0.0035 -0.4131
 1027SOL     OW 3873   5.341   4.330   4.053 -0.2175  0.2218  0.8957
 1027SOL    HW2 3874   5.365   4.422   4.058  0.8740 -0.0491  0.8839
 1027SOL    HW3 3875   5.246   4.329   4.067 -0.6557  1.5540 -1.5275
 1027SOL    MW4 3876   5.331   4.342   4.055 -0.6760 -0.4391  0.5506
 1028SOL     OW 3877   4.727   4.355   0.588 -0.0989 -0.1740  0.2708
 1028SOL    HW2 3878   4.662   4.406   0.539 -0.2455  0.2672  0.9112
 1028SOL    HW3 3879   4.781   4.421   0.630 -0.1664 -0.5481  0.9543
 1028SOL    MW4 3880   4.725   4.371   0.587  0.0739  0.0752  0.7186
 1029SOL     OW 3881   1.093   1.612   0.362 -0.4616  0.1040  0.0534
 1029SOL    HW2 3882   1.001   1.588   0.362 -0.7600  1.1602 -0.5703
 1029SOL    HW3 3883   1.093   1.707   0.348  0.7430 -0.0363 -1.1214
 1029SOL    MW4 3884   1.081   1.622   0.360 -0.7986 -0.3860 -1.0853
 1030SOL     OW 3885   3.217   1.135   3.656  0.6339 -0.3335 -0.1803
 1030SOL    HW2 3886   3.287   1.076   3.685  0.3388 -1.0882 -0.9750
 1030SOL    HW3 3887   3.258   1.221   3.652  1.2819 -0.6171  0.2131
 1030SOL    MW4 3888   3.231   1.139   3.659 -0.1372  0.0079  0.1427
 1031SOL     OW 3889   1.796   2.149   1.434  0.4370 -0.0417  0.5238
 1031SOL    HW2 3890   1.804   2.074   1.494 -2.8912  0.1035  1.3290
 1031SOL    HW3 3891   1.713   2.190   1.457  1.6524  3.4034 -0.5440
 1031SOL    MW4 3892   1.786   2.144   1.445 -0.3867 -0.4560  0.4410
 1032SOL     OW 3893   2.527   1.638   0.078 -0.3300 -0.8117 -0.0555
 1032SOL    HW2 3894   2.512   1.695   0.002 -0.6545 -1.6394 -0.6273
 1032SOL    HW3 3895   2.553   1.554   0.041  1.4218 -0.6905  0.8204
 1032SOL    MW4 3896   2.528   1.635   0.063 -0.1023  0.1062  0.6064
 1033SOL     OW 3897   1.256   0.751   2.266 -0.1517 -0.5532  0.2911
 1033SOL    HW2 3898   1.290   0.810   2.199 -1.1573 -1.7886 -1.3612
 1033SOL    HW3 3899   1.186   0.801   2.309  2.1518  1.2373  2.3388
 1033SOL    MW4 3900   1.251   0.766   2.263 -0.0099  0.2657  0.2533
 1034SOL     OW 3901   5.277   4.849   1.996  0.2716 -0.3876  0.6804
 1034SOL    HW2 3902   5.303   4.895   1.915 -1.8900  0.5482  0.4533
 1034SOL    HW3 3903   5.295   4.757   1.978 -1.8496 -0.4485 -1.6619
 1034SOL    MW4 3904   5.283   4.843   1.983 -0.5253 -0.6222  0.3867
 1035SOL     OW 3905   2.388   1.324   2.069 -0.0848 -0.1447  0.0143
 1035SOL    HW2 3906   2.483   1.311   2.061 -0.0335  0.2243  0.0033
 1035SOL    HW3 3907   2.351   1.274   1.996  0.0148 -1.2538  0.6900
 1035SOL    MW4 3908   2.396   1.316   2.059 -0.2349  0.2288  0.0377
 1036SOL     OW 3909   1.779   2.598   5.251  0.2904 -0.0362 -0.2408
 1036SOL    HW2 3910   1.699   2.604   5.304  1.1172  1.4439  0.9169
 1036SOL    HW3 3911   1.826   2.523   5.289  0.7800  0.8848  1.0537
 1036SOL    MW4 3912   1.775   2.589   5.263 -0.2451 -0.0419  0.1717
 1037SOL     OW 3913   1.400   4.993   5.282 -0.4124  0.1700 -0.0909
 1037SOL    HW2 3914   1.306   4.979   5.287 -0.4974 -0.3242 -2.0601
 1037SOL    HW3 3915   1.412   5.087   5.297 -1.3223  0.3942 -0.7412
 1037SOL    MW4 3916   1.389   5.003   5.285  0.1003  0.3687  0.4673
 1038SOL     OW 3917   4.845   6.197   0.196  0.0247  0.3987  0.0049
 1038SOL    HW2 3918   4.756   6.204   0.162 -0.0356 -2.0582 -0.5627
 1038SOL    HW3 3919   4.834   6.195   0.291 -0.3741  1.4264 -0.0075
 1038SOL    MW4 3920   4.832   6.198   0.204  0.2822 -0.3563  0.3440
 1039SOL     OW 3921   6.158   2.865   4.469  0.2914  0.0514  0.4997
 1039SOL    HW2 3922   6.110   2.928   4.523  1.3127  0.8972  0.4497
 1039SOL    HW3 3923   6.151   2.782   4.517  1.7595  0.9187  2.3390
 1039SOL    MW4 3924   6.151   2.862   4.483  0.0823 -0.1704 -0.4403
 1040SOL     OW 3925   1.037   5.388   6.006  0.0964 -0.7111 -0.1275
 1040SOL    HW2 3926   1.035   5.349   5.918  0.8536 -2.4296  0.5705
 1040SOL    HW3 3927   0.957   5.354   6.048 -0.2017  0.0110 -0.0982
 1040SOL    MW4 3928   1.026   5.378   6.000 -0.1468 -0.1830 -0.4292
 1041SOL     OW 3929   1.593   0.050   0.244  0.2523 -0.4379  0.0876
 1041SOL    HW2 3930   1.682   0.076   0.221  0.8406 -0.5647  2.0793
 1041SOL    HW3 3931   1.545   0.133   0.253  0.7109 -0.2570  0.9980
 1041SOL    MW4 3932   1.598   0.064   0.242  0.0796  0.0170  0.3319
 1042SOL     OW 3933   0.263   1.536   6.204 -0.1334 -0.0683 -0.2930
 1042SOL    HW2 3934   0.190   1.597   6.204 -1.0124 -1.0789 -0.9230
 1042SOL    HW3 3935   0.320   1.566   6.133  0.3109  0.9759  0.4843
 1042SOL    MW4 3936   0.261   1.548   6.194 -0.1774  0.7655 -0.1182
 1043SOL     OW 3937   4.845   1.815   3.831  0.4874 -0.0033 -0.3672
 1043SOL    HW2 3938   4.917   1.832   3.770  1.7754  1.3852  1.4136
 1043SOL    HW3 3939   4.840   1.720   3.837  1.5097 -0.1336 -1.2685
 1043SOL    MW4 3940   4.854   1.805   3.824 -0.4819 -0.1106 -0.1053
 1044SOL     OW 3941   3.283   5.928   4.469 -0.1128  0.0680 -0.4612
 1044SOL    HW2 3942   3.266   5.936   4.563 -1.7562  1.0716 -0.7901
 1044SOL    HW3 3943   3.364   5.977   4.456  0.1146 -0.0446  0.4332
 1044SOL    MW4 3944   3.291   5.936   4.480  0.4879  0.2767  0.2321
 1045SOL     OW 3945   1.016   5.035   0.335  0.3578  0.0346 -0.3817
 1045SOL    HW2 3946   1.074   5.101   0.297 -0.2617 -0.3303 -2.0317
 1045SOL    HW3 3947   0.989   4.981   0.261 -1.1239 -0.5513  0.5415
 1045SOL    MW4 3948   1.020   5.037   0.320  0.1182  0.0307 -0.0802
 1046SOL     OW 3949   5.801   1.256   4.011 -0.4902 -0.0994 -0.9406
 1046SOL    HW2 3950   5.736   1.229   4.076 -1.7356  1.1959 -1.5787
 1046SOL    HW3 3951   5.767   1.338   3.976  2.2535  1.4181 -0.2885
 1046SOL    MW4 3952   5.788   1.263   4.015 -0.3176  0.0924  0.3676
 1047SOL     OW 3953   2.564   2.193   3.493  0.7022  0.5144  0.0674
 1047SOL    HW2 3954   2.524   2.106   3.481  0.0797  0.4546  2.0928
 1047SOL    HW3 3955   2.505   2.238   3.554  2.4078  1.3540  1.1933
 1047SOL    MW4 3956   2.551   2.187   3.500 -0.4150 -0.8518 -0.3269
 1048SOL     OW 3957   5.196   4.716   3.910  0.6299 -0.3892  0.3661
 1048SOL    HW2 3958   5.178   4.809   3.891 -0.5789 -0.3888  1.3673
 1048SOL    HW3 3959   5.110   4.674   3.905  0.7095 -0.9252  2.7436
 1048SOL    MW4 3960   5.182   4.723   3.907  0.2158 -0.3172  0.1539
 1049SOL     OW 3961   5.946   0.562   4.969  0.0839  0.4958 -0.5515
 1049SOL    HW2 3962   5.951   0.622   5.043 -0.3087  2.4391 -1.9906
 1049SOL    HW3 3963   6.025   0.581   4.918  0.9936 -1.7002 -0.0612
 1049SOL    MW4 3964   5.957   0.573   4.972 -0.5197  0.5638 -0.4086
 1050SOL     OW 3965   2.332   3.685   3.500  0.3300  0.2263  0.5493
 1050SOL    HW2 3966   2.395   3.708   3.568  2.9901 -1.8931 -0.9879
 1050SOL    HW3 3967   2.380   3.695   3.418 -2.0846  0.6372 -0.9316
 1050SOL    MW4 3968   2.346   3.689   3.498  0.1299  0.0795 -0.8797
 1051SOL     OW 3969   3.116   4.399   5.010 -0.1277 -0.0005 -0.1595
 1051SOL    HW2 3970   3.030   4.432   5.035 -0.7033 -2.1219  0.9805
 1051SOL    HW3 3971   3.132   4.435   4.923 -1.5602  1.4879  0.1424
 1051SOL    MW4 3972   3.107   4.408   5.002  0.4367 -0.1231  0.1982
 1052SOL     OW 3973   4.713   4.031   0.284 -0.2095  0.4860 -0.0463
 1052SOL    HW2 3974   4.705   3.957   0.224 -0.2832  0.3954  0.0751
 1052SOL    HW3 3975   4.721   4.107   0.227 -2.9901  0.7476 -0.2362
 1052SOL    MW4 3976   4.713   4.031   0.269  0.0019 -0.3452 -0.0996
 1053SOL     OW 3977   2.764   4.921   5.490 -0.5339 -0.0180 -0.0728
 1053SOL    HW2 3978   2.852   4.882   5.489 -0.4624  0.1099  0.6888
 1053SOL    HW3 3979   2.776   5.007   5.448 -0.6842 -0.7661 -1.7219
 1053SOL    MW4 3980   2.777   4.927   5.484  0.3615  0.0320 -0.2458
 1054SOL     OW 3981   2.008   3.947   2.432  0.0635  0.4769 -0.2527
 1054SOL    HW2 3982   1.918   3.955   2.402  0.0952 -0.1770 -0.5561
 1054SOL    HW3 3983   2.059   4.000   2.371  0.3624 -2.2637 -2.6300
 1054SOL    MW4 3984   2.003   3.955   2.420  0.5275  0.4322  0.1598
 1055SOL     OW 3985   4.357   0.569   3.034 -0.2936  0.3990  0.4982
 1055SOL    HW2 3986   4.315   0.502   3.089  1.7469 -0.6649  0.8794
 1055SOL    HW3 3987   4.288   0.598   2.974 -1.6726 -0.8765  1.3915
 1055SOL    MW4 3988   4.342   0.564   3.033  0.4596 -0.9155 -0.1820
 1056SOL     OW 3989   5.057   4.167   5.595  0.0534 -0.1617  0.4185
 1056SOL    HW2 3990   4.979   4.125   5.631 -2.2385  2.1355 -1.4615
 1056SOL    HW3 3991   5.073   4.122   5.512 -0.4581  0.5594 -0.0837
 1056SOL    MW4 3992   5.049   4.155   5.589 -0.3986  0.0979 -0.1267
 1057SOL     OW 3993   0.978   1.968   1.688  0.5157 -0.1560 -0.1887
 1057SOL    HW2 3994   1.011   1.944   1.601  1.4959  0.2017  0.0681
 1057SOL    HW3 3995   0.964   2.062   1.683  2.2083  0.1670  0.5338
 1057SOL    MW4 3996   0.981   1.977   1.675  0.2610  0.5771 -0.2478
 1058SOL     OW 3997   5.040   1.661   4.383 -0.1513  0.7106 -0.5305
 1058SOL    HW2 3998   5.065   1.610   4.307 -2.3765  0.3967 -1.1143
 1058SOL    HW3 3999   5.076   1.748   4.367  1.2420  0.0941 -0.8706
 1058SOL    MW4 4000   5.048   1.666   4.371 -0.2834 -0.0208 -0.8309
 1059SOL     OW 4001   5.534   5.429   1.086  0.0839  0.1385  0.0570
 1059SOL    HW2 4002   5.613   5.376   1.071  0.7483  1.1488 -0.0714
 1059SOL    HW3 4003   5.566   5.519   1.094 -0.8109  0.3221  2.2129
 1059SOL    MW4 4004   5.549   5.434   1.085 -0.6752  0.2071 -0.0381
 1060SOL     OW 4005   3.150   3.650   2.371  0.4925 -0.0004  0.3555
 1060SOL    HW2 4006   3.234   3.607   2.388  0.0750 -1.0519 -0.1412
 1060SOL    HW3 4007   3.115   3.604   2.295  0.3312  1.7105 -0.6483
 1060SOL    MW4 4008   3.157   3.638   2.363  0.1010  0.3996  0.5490
 1061SOL     OW 4009   1.090   5.770   5.758 -0.1340  0.4559  0.1298
 1061SOL    HW2 4010   1.158   5.819   5.711 -1.8218  1.9059 -0.9305
 1061SOL    HW3 4011   1.138   5.716   5.820  1.9802  1.4165 -0.5741
 1061SOL    MW4 4012   1.106   5.769   5.760  0.0244 -0.0652  0.0407
 1062SOL     OW 4013   2.370   2.621   2.916  0.4357 -0.4414  0.2900
 1062SOL    HW2 4014   2.435   2.557   2.945  1.7019  0.2393 -0.9467
 1062SOL    HW3 4015   2.313   2.572   2.857  0.0857 -0.9155  0.9972
 1062SOL    MW4 4016   2.371   2.606   2.912  0.0281 -0.0138 -0.2716
 1063SOL     OW 4017   3.788   2.565   4.300  0.2576  0.3748  0.0642
 1063SOL    HW2 4018   3.766   2.633   4.363  1.4670 -1.8090  3.0857
 1063SOL    HW3 4019   3.882   2.576   4.284 -0.1045  1.1758 -1.8568
 1063SOL    MW4 4020   3.797   2.575   4.306  0.2496  0.2360  0.0644
 1064SOL     OW 4021   2.611   0.043   0.405 -0.7608  0.7153 -0.2106
 1064SOL    HW2 4022   2.539  -0.016   0.385 -0.2351 -0.7905  2.0060
 1064SOL    HW3 4023   2.637   0.021   0.494  3.5281  0.0085 -1.3985
 1064SOL    MW4 4024   2.605   0.032   0.414 -0.5456  0.3885 -0.1376
 1065SOL     OW 4025   5.561   0.823   2.413  0.4058 -0.3004 -0.6646
 1065SOL    HW2 4026   5.656   0.831   2.413  0.2703  1.9673 -0.5604
 1065SOL    HW3 4027   5.535   0.855   2.499 -0.5196  0.0704 -1.0779
 1065SOL    MW4 4028   5.570   0.828   2.424 -0.5040 -0.2059  0.3932
 1066SOL     OW 4029   0.686   6.194   4.710 -0.6078  0.2649 -0.0992
 1066SOL    HW2 4030   0.685   6.253   4.785 -1.4195 -0.9997  0.9252
 1066SOL    HW3 4031   0.712   6.109   4.747 -0.7166 -0.3141 -1.3031
 1066SOL    MW4 4032   0.690   6.190   4.725 -0.0315  0.5781  0.2003
 1067SOL     OW 4033   2.562   1.350   5.733 -0.5381 -0.1993 -0.0658
 1067SOL    HW2 4034   2.556   1.299   5.814  1.1504 -2.0961 -1.0353
 1067SOL    HW3 4035   2.651   1.335   5.703 -0.4810  2.1103 -1.2814
 1067SOL    MW4 4036   2.573   1.341   5.740 -0.1476  0.1854 -0.8015
 1068SOL     OW 4037   6.346   1.937   1.698  0.1325 -0.1594 -0.7158
 1068SOL    HW2 4038   6.269   1.882   1.715 -1.0217  1.5552 -0.2168
 1068SOL    HW3 4039   6.348   1.945   1.603  0.1715 -0.8401 -0.7818
 1068SOL    MW4 4040   6.336   1.931   1.688 -0.4442  0.8501  0.8000
 1069SOL     OW 4041   0.929   0.548   0.367  0.3540  0.3261 -0.1584
 1069SOL    HW2 4042   0.986   0.581   0.298  2.4963 -0.6197  1.0534
 1069SOL    HW3 4043   0.857   0.505   0.320  3.1899 -2.9113 -2.0354
 1069SOL    MW4 4044   0.927   0.547   0.352 -0.2586 -0.1496 -0.1796
 1070SOL     OW 4045   2.514   2.056   5.085  0.1127 -0.0460 -0.8779
 1070SOL    HW2 4046   2.533   2.016   5.170  0.4157  0.9825 -0.4491
 1070SOL    HW3 4047   2.441   2.116   5.102 -0.1759 -0.2237 -1.4604
 1070SOL    MW4 4048   2.507   2.059   5.099 -0.3922 -0.0843 -0.2260
 1071SOL     OW 4049   5.314   3.762   5.645  0.2841  0.4292 -0.0856
 1071SOL    HW2 4050   5.328   3.723   5.559  0.7942  0.4151 -0.0008
 1071SOL    HW3 4051   5.221   3.784   5.647  0.4992  1.5347 -1.1073
 1071SOL    MW4 4052   5.303   3.760   5.634  0.2531 -0.3735 -0.1947
 1072SOL     OW 4053   3.276   4.840   0.521  0.4699  0.1703  1.1144
 1072SOL    HW2 4054   3.217   4.767   0.540  0.9640 -0.3884  0.5246
 1072SOL    HW3 4055   3.238   4.914   0.569 -1.7984  0.3304 -0.7400
 1072SOL    MW4 4056   3.263   4.840   0.530  0.3545 -0.8123 -0.2634
 1073SOL     OW 4057   3.154   0.852   3.464  0.0286  0.2764  0.2945
 1073SOL    HW2 4058   3.249   0.839   3.460  0.1899  1.4060  0.2211
 1073SOL    HW3 4059   3.118   0.765   3.447  1.0498 -0.2540  0.7158
 1073SOL    MW4 4060   3.162   0.839   3.461  0.5009  0.2507 -0.5233
 1074SOL     OW 4061   0.266   0.756   0.158 -0.4349  0.2452 -0.3834
 1074SOL    HW2 4062   0.185   0.792   0.122 -0.2029  1.4432  0.2367
 1074SOL    HW3 4063   0.310   0.831   0.199  0.1456 -0.7164  0.8331
 1074SOL    MW4 4064   0.262   0.771   0.158  0.8997  0.0658  0.0209
 1075SOL     OW 4065   0.369   4.939   6.078 -0.7747  0.0693 -0.3013
 1075SOL    HW2 4066   0.436   4.885   6.036 -1.6363 -0.5536 -0.9090
 1075SOL    HW3 4067   0.395   4.942   6.170 -0.5393 -1.1283 -0.3137
 1075SOL    MW4 4068   0.382   4.933   6.085 -0.0201 -0.0873 -0.5263
 1076SOL     OW 4069   5.647   1.689   0.734  0.5958  0.0686  0.1674
 1076SOL    HW2 4070   5.573   1.629   0.726  1.2235 -0.6179 -0.6828
 1076SOL    HW3 4071   5.718   1.635   0.768  1.7414 -0.2224 -2.4051
 1076SOL    MW4 4072   5.647   1.674   0.737  0.9354  0.7420  0.2188
 1077SOL     OW 4073   0.335   2.210   4.308 -0.5697  0.1619 -0.1931
 1077SOL    HW2 4074   0.387   2.193   4.386  1.2633  1.2452 -1.1074
 1077SOL    HW3 4075   0.306   2.124   4.278  0.4842 -0.4558  0.5089
 1077SOL    MW4 4076   0.338   2.197   4.314  0.0128  0.0646  0.6671
 1078SOL     OW 4077   6.170   3.699   2.656 -0.2547  0.0742  0.4501
 1078SOL    HW2 4078   6.258   3.714   2.620 -0.1021  2.2111  1.6014
 1078SOL    HW3 4079   6.121   3.661   2.583  0.8998  1.3765 -1.0749
 1078SOL    MW4 4080   6.175   3.696   2.641  0.0141 -0.0384  0.1308
 1079SOL     OW 4081   4.956   0.479   2.606 -0.3483 -0.1688 -0.0861
 1079SOL    HW2 4082   5.050   0.463   2.616 -0.1854  0.0990 -1.0774
 1079SOL    HW3 4083   4.949   0.573   2.590 -0.8683 -0.0409  0.8200
 1079SOL    MW4 4084   4.967   0.490   2.606  0.3131 -0.0893 -0.4462
 1080SOL     OW 4085   1.396   2.124   1.187 -0.0101 -0.0345 -0.1219
 1080SOL    HW2 4086   1.444   2.206   1.193 -1.4609  0.8148  0.4815
 1080SOL    HW3 4087   1.399   2.088   1.276 -1.0938  0.4087  0.1088
 1080SOL    MW4 4088   1.403   2.130   1.199 -0.5368  0.2588 -0.1294
 1081SOL     OW 4089   0.132   4.107   0.918 -0.7139 -0.5683 -0.1982
 1081SOL    HW2 4090   0.104   4.037   0.858 -1.8878 -0.2339 -0.0789
 1081SOL    HW3 4091   0.093   4.083   1.002 -0.7069 -0.0377 -0.0383
 1081SOL    MW4 4092   0.123   4.095   0.921  0.3094 -0.4039  0.3849
 1082SOL     OW 4093   3.759   6.318   5.971  0.0538 -0.3537 -0.3342
 1082SOL    HW2 4094   3.852   6.308   5.951 -0.0316 -2.3466  0.0785
 1082SOL    HW3 4095   3.731   6.231   5.999 -1.3489  0.7449  2.0133
 1082SOL    MW4 4096   3.768   6.305   5.972 -0.0165 -0.1810  0.2724
 1083SOL     OW 4097   1.539   4.766   1.387 -0.8118 -0.7830  0.3136
 1083SOL    HW2 4098   1.458   4.817   1.389 -0.8450 -0.7633  3.7272
 1083SOL    HW3 4099   1.517   4.690   1.332 -2.6772 -0.1116  0.0417
 1083SOL    MW4 4100   1.525   4.762   1.380 -0.3014 -0.6924  0.5208
 1084SOL     OW 4101   4.867   0.884   0.790 -0.0065  0.1283 -0.7277
 1084SOL    HW2 4102   4.850   0.790   0.792 -0.5457  0.2324  0.6761
 1084SOL    HW3 4103   4.798   0.920   0.734 -1.3383 -0.0624  0.7047
 1084SOL    MW4 4104   4.855   0.876   0.783  0.0810  0.5845  0.5320
 1085SOL     OW 4105   0.843   1.596   3.676  0.2818 -0.3629  0.0760
 1085SOL    HW2 4106   0.937   1.611   3.666  0.4612 -1.7357 -0.5675
 1085SOL    HW3 4107   0.802   1.656   3.613  0.8323 -0.9717 -0.8774
 1085SOL    MW4 4108   0.850   1.606   3.666 -0.6408  0.1778 -0.2824
 1086SOL     OW 4109   2.428   2.077   5.477  0.6084 -0.1149  0.2058
 1086SOL    HW2 4110   2.485   2.122   5.540 -0.4397  1.4715  0.0820
 1086SOL    HW3 4111   2.374   2.019   5.531  0.6668  0.2041  0.6128
 1086SOL    MW4 4112   2.429   2.075   5.493 -0.3494 -0.4236 -0.1538
 1087SOL     OW 4113   1.676   1.518   3.007  0.6932  0.2579  0.2564
 1087SOL    HW2 4114   1.669   1.534   2.913 -0.4954  1.6203  0.5485
 1087SOL    HW3 4115   1.717   1.431   3.014 -0.4239 -0.4539 -1.5295
 1087SOL    MW4 4116   1.681   1.508   2.996  0.2197 -0.3890 -0.3487
 1088SOL     OW 4117   5.368   0.268   5.570 -0.2021 -0.0548 -0.0482
 1088SOL    HW2 4118   5.375   0.347   5.623 -0.7697 -0.3817  0.5225
 1088SOL    HW3 4119   5.458   0.237   5.562  0.0655  0.7914 -0.5178
 1088SOL    MW4 4120   5.381   0.274   5.576 -0.3053  0.0770  0.1462
 1089SOL     OW 4121   0.101   6.037   1.390 -0.0249 -0.6207  0.1095
 1089SOL    HW2 4122   0.040   6.024   1.318  1.4505  1.3966 -1.6351
 1089SOL    HW3 4123   0.050   6.083   1.457 -0.8765 -0.5398 -0.5790
 1089SOL    MW4 4124   0.086   6.041   1.389  0.2119 -0.2848  0.5078
 1090SOL     OW 4125   5.159   2.923   3.914 -0.2670  0.3498  0.2751
 1090SOL    HW2 4126   5.132   2.831   3.920 -0.6631  0.4917  0.8294
 1090SOL    HW3 4127   5.158   2.953   4.005 -1.9902  1.4153 -0.0651
 1090SOL    MW4 4128   5.155   2.915   3.927  0.8758 -0.1716  0.3759
 1091SOL     OW 4129   1.918   1.559   5.629 -0.1742 -0.2696  0.1120
 1091SOL    HW2 4130   1.878   1.637   5.591 -0.3761 -0.5262 -0.2091
 1091SOL    HW3 4131   1.915   1.494   5.559 -0.9854 -0.9039  0.7223
 1091SOL    MW4 4132   1.912   1.561   5.615 -0.6356  0.1130 -0.3971
 1092SOL     OW 4133   3.552   2.477   4.722  0.1573  0.2022  0.5553
 1092SOL    HW2 4134   3.542   2.468   4.627  0.9952  0.3404  0.4442
 1092SOL    HW3 4135   3.465   2.502   4.753  0.1441  1.3240 -0.3204
 1092SOL    MW4 4136   3.540   2.479   4.714  0.2327  1.1497  0.2488
 1093SOL     OW 4137   4.672   2.461   1.075  0.4224  0.0042  0.0010
 1093SOL    HW2 4138   4.761   2.485   1.102  0.4976  0.6708 -0.8258
 1093SOL    HW3 4139   4.684   2.406   0.998  0.1065  0.3956 -0.3309
 1093SOL    MW4 4140   4.685   2.457   1.069  0.1820  0.6491  0.5103
 1094SOL     OW 4141   6.394   5.607   0.131  0.0058 -0.7332  0.1501
 1094SOL    HW2 4142   6.301   5.612   0.152  0.2191 -1.0614  1.2331
 1094SOL    HW3 4143   6.434   5.564   0.206  1.1306 -0.0315 -0.0083
 1094SOL    MW4 4144   6.387   5.602   0.143 -0.4007 -0.6114  0.0991
 1095SOL     OW 4145   4.669   3.651   3.341  0.1804 -0.0617 -0.0318
 1095SOL    HW2 4146   4.578   3.630   3.363  0.1747  0.4448  0.4509
 1095SOL    HW3 4147   4.711   3.566   3.327 -0.2651 -0.3141  0.1390
 1095SOL    MW4 4148   4.662   3.637   3.342  0.2503 -0.9641 -0.0602
 1096SOL     OW 4149   0.177   4.128   4.860  0.0455  0.4956 -0.1180
 1096SOL    HW2 4150   0.140   4.163   4.941  1.2545 -0.1991  0.7514
 1096SOL    HW3 4151   0.228   4.200   4.823 -1.0565  1.0359 -0.6520
 1096SOL    MW4 4152   0.179   4.142   4.866 -0.3953 -0.2897 -1.0389
 1097SOL     OW 4153   1.278   1.133   5.109  0.3139  0.4788  0.0867
 1097SOL    HW2 4154   1.231   1.203   5.154  0.0113 -0.9121  2.0802
 1097SOL    HW3 4155   1.339   1.099   5.175  1.4516 -0.2355 -1.2613
 1097SOL    MW4 4156   1.280   1.137   5.124  0.3052  0.1722  0.4640
 1098SOL     OW 4157   1.064   3.987   3.032 -0.3373 -0.2716  0.3266
 1098SOL    HW2 4158   1.127   4.035   3.087  2.2229 -1.7053 -1.1399
 1098SOL    HW3 4159   1.030   3.918   3.090 -0.2582  0.2677  1.0335
 1098SOL    MW4 4160   1.068   3.984   3.047 -0.1037  0.0633  0.4472
 1099SOL     OW 4161   1.644   2.950   5.769  0.2848  0.3078  0.6422
 1099SOL    HW2 4162   1.721   3.003   5.790 -0.7213  1.7534  0.8617
 1099SOL    HW3 4163   1.594   3.004   5.707 -0.9432 -0.2152  1.1448
 1099SOL    MW4 4164   1.648   2.964   5.764 -0.0612  0.0538 -0.0225
 1100SOL     OW 4165   3.618   4.893   1.103  0.5570 -0.3437  0.5636
 1100SOL    HW2 4166   3.607   4.801   1.126  1.1219  0.2464  3.5488
 1100SOL    HW3 4167   3.712   4.910   1.117  0.4233  0.7480  0.2390
 1100SOL    MW4 4168   3.629   4.883   1.108 -0.7202  0.6602  0.1710
 1101SOL     OW 4169   6.110   0.643   2.801  0.1851  0.6412  0.2128
 1101SOL    HW2 4170   6.049   0.615   2.869  1.9440 -0.2489  1.4985
 1101SOL    HW3 4171   6.139   0.730   2.828  0.9913  0.2294  0.6983
 1101SOL    MW4 4172   6.105   0.651   2.814  0.5547  0.2410 -0.3048
 1102SOL     OW 4173   1.140   0.949   3.474  0.0452  0.2041  0.2450
 1102SOL    HW2 4174   1.119   0.879   3.412 -1.1807  0.6064  0.1839
 1102SOL    HW3 4175   1.199   0.908   3.537  0.1920 -0.5939 -0.3938
 1102SOL    MW4 4176   1.145   0.935   3.474  0.2454 -0.3623  0.6408
 1103SOL     OW 4177   0.484   2.260   5.815  0.4115 -0.1713  0.6665
 1103SOL    HW2 4178   0.527   2.177   5.838  0.0900 -0.7308 -0.6178
 1103SOL    HW3 4179   0.448   2.243   5.728  1.7393  1.8477 -0.3476
 1103SOL    MW4 4180   0.485   2.247   5.806 -0.0550 -0.1325 -0.2812
 1104SOL     OW 4181   3.549   1.036   2.384  0.4574  0.1924 -0.3275
 1104SOL    HW2 4182   3.583   1.030   2.473  1.4810 -0.0615 -0.7281
 1104SOL    HW3 4183   3.456   1.014   2.393  0.5980 -0.0512  0.6468
 1104SOL    MW4 4184   3.541   1.032   2.397  0.7568  0.6918 -0.4064
 1105SOL     OW 4185   1.560   0.268   3.029  0.2357  1.0134 -0.4599
 1105SOL    HW2 4186   1.494   0.200   3.031  1.0010  0.2615  0.4829
 1105SOL    HW3 4187   1.520   0.340   2.980  0.3128 -0.9962 -3.7054
 1105SOL    MW4 4188   1.546   0.269   3.023  0.0713  0.0221  0.3740
 1106SOL     OW 4189   0.663   3.316   2.597  0.8105  0.3981  0.0845
 1106SOL    HW2 4190   0.696   3.243   2.543  0.1758  1.4070 -1.7744
 1106SOL    HW3 4191   0.632   3.274   2.677  0.6078 -1.3682 -0.8518
 1106SOL    MW4 4192   0.663   3.301   2.600  0.0732 -0.0221 -0.5308
 1107SOL     OW 4193   5.463   3.690   2.452 -0.1731  0.5521  0.0136
 1107SOL    HW2 4194   5.491   3.604   2.420 -1.1212  1.0113 -2.2221
 1107SOL    HW3 4195   5.511   3.701   2.534  0.9034 -1.5756 -0.2436
 1107SOL    MW4 4196   5.473   3.680   2.459  0.2182  0.1007  0.2266
 1108SOL     OW 4197   1.916   1.661   2.558  0.0888 -0.2310 -0.0674
 1108SOL    HW2 4198   1.954   1.711   2.630 -1.0495 -1.7817  1.7192
 1108SOL    HW3 4199   1.918   1.720   2.483  1.0585  1.5584  1.3031
 1108SOL    MW4 4200   1.921   1.675   2.558 -0.2774 -0.1928  0.0487
 1109SOL     OW 4201   5.911   5.227   2.612  0.1408 -0.6197  0.4663
 1109SOL    HW2 4202   5.963   5.152   2.583 -1.6608 -1.9063  0.3994
 1109SOL    HW3 4203   5.845   5.190   2.670 -0.8399  0.9166  0.3962
 1109SOL    MW4 4204   5.909   5.212   2.616  0.4882  0.1334  0.0259
 1110SOL     OW 4205   2.848   2.221   0.635 -0.4969  0.2499 -0.0268
 1110SOL    HW2 4206   2.872   2.234   0.543  0.3727  1.0291  0.2938
 1110SOL    HW3 4207   2.841   2.126   0.644 -0.8182  0.1723 -0.9453
 1110SOL    MW4 4208   2.850   2.210   0.624  0.3958 -0.3867 -0.6133
 1111SOL     OW 4209   3.877   3.532   4.233 -0.2983 -0.3081  0.2243
 1111SOL    HW2 4210   3.812   3.590   4.193  1.2277  1.8231  0.6909
 1111SOL    HW3 4211   3.844   3.516   4.321 -0.4103  0.3910  0.3120
 1111SOL    MW4 4212   3.864   3.538   4.239  0.1986 -0.0340 -0.0567
 1112SOL     OW 4213   0.990   6.084   6.315  0.4801  0.5079 -0.3364
 1112SOL    HW2 4214   1.066   6.134   6.346  0.3700 -0.5347  1.8244
 1112SOL    HW3 4215   0.924   6.151   6.294  0.8138  1.3473  1.1416
 1112SOL    MW4 4216   0.991   6.099   6.316  0.1246 -0.5319  0.5998
 1113SOL     OW 4217   2.353   3.943   2.541 -0.0404 -0.1496 -0.8205
 1113SOL    HW2 4218   2.438   3.931   2.498  0.2334  1.8678 -0.9489
 1113SOL    HW3 4219   2.367   4.015   2.602 -1.2186 -0.9866  0.5026
 1113SOL    MW4 4220   2.366   3.951   2.544  0.3907 -0.1649  0.5132
 1114SOL     OW 4221   3.861   3.965   4.623  0.7331 -0.2258 -0.0687
 1114SOL    HW2 4222   3.837   3.886   4.672 -2.7596 -1.1439 -2.8528
 1114SOL    HW3 4223   3.919   3.932   4.554  2.2936  0.3776  0.8978
 1114SOL    MW4 4224   3.866   3.950   4.621 -0.0533 -0.0502 -0.0003
 1115SOL     OW 4225   5.744   2.762   5.299 -0.8082  0.2609 -0.1664
 1115SOL    HW2 4226   5.807   2.716   5.354 -0.6571 -2.4806 -2.4291
 1115SOL    HW3 4227   5.689   2.810   5.361  2.3081  1.3593  2.0250
 1115SOL    MW4 4228   5.745   2.762   5.315  0.2377 -0.2495 -0.1273
 1116SOL     OW 4229   3.006   3.910   0.266  0.3179  0.4291 -0.8673
 1116SOL    HW2 4230   3.062   3.845   0.224  0.0843 -0.0645 -0.4329
 1116SOL    HW3 4231   2.937   3.858   0.308  1.5103  0.7388  1.6293
 1116SOL    MW4 4232   3.004   3.895   0.266  0.3447  0.4459 -0.5255
 1117SOL     OW 4233   0.577   4.811   3.905  0.2262 -0.5816 -0.3440
 1117SOL    HW2 4234   0.616   4.725   3.891  0.3406 -0.7506  0.8506
 1117SOL    HW3 4235   0.622   4.869   3.844  1.0163 -1.1361 -0.2932
 1117SOL    MW4 4236   0.588   4.807   3.895  0.0884  0.5173 -0.0389
 1118SOL     OW 4237   6.046   3.439   6.252 -0.3891 -0.3962 -0.0321
 1118SOL    HW2 4238   6.130   3.460   6.292 -1.4491 -0.1236  2.1919
 1118SOL    HW3 4239   5.995   3.520   6.259 -1.2987 -0.9401 -0.0773
 1118SOL    MW4 4240   6.050   3.453   6.258  0.1624  0.2584 -0.0278
 1119SOL     OW 4241   6.304   5.001   2.074 -0.4232  0.0734  0.1763
 1119SOL    HW2 4242   6.348   5.064   2.017  0.5500 -0.7233  0.0323
 1119SOL    HW3 4243   6.352   4.920   2.062 -2.7167 -1.2074 -1.0174
 1119SOL    MW4 4244   6.316   4.999   2.065 -0.9577 -0.1055  0.1100
 1120SOL     OW 4245   2.622   3.764   4.760  0.2640  0.5185  0.0203
 1120SOL    HW2 4246   2.649   3.698   4.696  1.3796  0.2614  0.7188
 1120SOL    HW3 4247   2.671   3.842   4.735  0.0071  0.6801  0.0225
 1120SOL    MW4 4248   2.632   3.765   4.748 -0.8846 -0.3153  0.2201
 1121SOL     OW 4249   4.481   4.250   2.828 -0.1031  0.6954 -0.0313
 1121SOL    HW2 4250   4.397   4.293   2.843 -1.2840 -0.7608 -1.9695
 1121SOL    HW3 4251   4.530   4.311   2.774 -1.1910  0.3075 -1.5244
 1121SOL    MW4 4252   4.476   4.263   2.823 -0.3447  0.4782  0.3939
 1122SOL     OW 4253   5.915   4.690   5.769  0.1079  0.3130  0.1580
 1122SOL    HW2 4254   5.831   4.713   5.810  0.6840  0.4681  1.3022
 1122SOL    HW3 4255   5.896   4.685   5.676 -1.5055 -0.9978  0.5016
 1122SOL    MW4 4256   5.901   4.692   5.762 -0.2723  0.0715  0.0886
 1123SOL     OW 4257   2.517   1.246   3.240 -0.0758 -0.4996  0.2933
 1123SOL    HW2 4258   2.506   1.154   3.218 -1.8396 -0.0610 -0.8292
 1123SOL    HW3 4259   2.566   1.283   3.166  1.4764 -0.6713  1.1781
 1123SOL    MW4 4260   2.522   1.239   3.227 -0.3628 -0.0306 -0.2544
 1124SOL     OW 4261   1.140   0.774   5.948 -0.0384 -0.0311 -0.1810
 1124SOL    HW2 4262   1.048   0.791   5.928 -0.4558  0.7668  2.0392
 1124SOL    HW3 4263   1.142   0.765   6.044  1.9970 -1.4123 -0.2970
 1124SOL    MW4 4264   1.128   0.775   5.958 -0.4331 -0.1492  0.2738
 1125SOL     OW 4265   0.643   3.530   3.566  0.3800 -0.0711  0.3512
 1125SOL    HW2 4266   0.612   3.554   3.654 -1.2926  1.6962 -0.6480
 1125SOL    HW3 4267   0.573   3.476   3.530  0.9045 -0.4958 -0.0478
 1125SOL    MW4 4268   0.629   3.526   3.573 -0.3727  0.3233  0.1512
 1126SOL     OW 4269   1.234   3.906   5.811  0.3504  0.3235  0.4185
 1126SOL    HW2 4270   1.309   3.952   5.772 -0.6176  1.2065 -0.4427
 1126SOL    HW3 4271   1.186   3.973   5.858  1.0258 -0.5774  2.5114
 1126SOL    MW4 4272   1.238   3.921   5.812 -0.0576  0.7591  0.4474
 1127SOL     OW 4273   0.250   0.974   2.060 -0.4305 -0.5990 -0.1366
 1127SOL    HW2 4274   0.292   0.902   2.105 -0.7727 -0.2561  0.7536
 1127SOL    HW3 4275   0.252   1.047   2.123 -1.0609 -0.1590 -0.6053
 1127SOL    MW4 4276   0.255   0.974   2.074 -0.3126  0.1949  0.1754
 1128SOL     OW 4277   5.035   2.595   0.624 -0.0803 -0.0947  0.0061
 1128SOL    HW2 4278   5.068   2.554   0.543 -1.5752  0.6056 -1.0025
 1128SOL    HW3 4279   5.060   2.687   0.616  0.1425 -0.1054  0.5585
 1128SOL    MW4 4280   5.043   2.602   0.612  0.6747 -0.0320  0.3460
 1129SOL     OW 4281   4.448   2.590   5.118 -0.1299  0.5962 -0.5610
 1129SOL    HW2 4282   4.457   2.672   5.166  0.1008  0.3501 -0.1727
 1129SOL    HW3 4283   4.534   2.577   5.077 -0.1735  0.5599 -0.6420
 1129SOL    MW4 4284   4.461   2.599   5.119  0.0194  0.2781  0.2195
 1130SOL     OW 4285   1.514   5.082   3.335 -0.1088  0.0003 -0.3185
 1130SOL    HW2 4286   1.546   5.058   3.248 -1.0074  0.3218 -0.7439
 1130SOL    HW3 4287   1.513   5.178   3.335 -2.6141  0.0380 -0.9258
 1130SOL    MW4 4288   1.518   5.092   3.323  0.6827 -0.2734  0.1156
 1131SOL     OW 4289   6.414   5.099   0.538  0.3000 -0.6243  0.1921
 1131SOL    HW2 4290   6.352   5.069   0.606  1.2644  0.8049  1.7937
 1131SOL    HW3 4291   6.500   5.082   0.576  0.8713 -0.3774 -0.9734
 1131SOL    MW4 4292   6.417   5.093   0.552 -0.1610 -0.2256 -0.2620
 1132SOL     OW 4293   1.927   2.661   3.736  0.5405  0.0099  0.1667
 1132SOL    HW2 4294   1.908   2.596   3.803 -1.6857  0.6220  0.2105
 1132SOL    HW3 4295   1.920   2.745   3.782 -0.3185  0.4045 -0.6682
 1132SOL    MW4 4296   1.924   2.663   3.751  0.1990  0.4033 -0.7707
 1133SOL     OW 4297   3.200   6.012   2.874  0.1439 -0.4901 -0.0247
 1133SOL    HW2 4298   3.227   5.963   2.797  0.7111 -0.9556  0.4660
 1133SOL    HW3 4299   3.104   6.010   2.871  0.1426  0.0940 -1.0843
 1133SOL    MW4 4300   3.191   6.005   2.863 -0.3109  0.2367 -0.0049
 1134SOL     OW 4301   4.286   3.079   3.209  0.3450  0.0344 -0.2075
 1134SOL    HW2 4302   4.212   3.074   3.148 -2.4584  0.4129  2.8302
 1134SOL    HW3 4303   4.350   3.018   3.175 -2.8516 -3.0552 -1.3327
 1134SOL    MW4 4304   4.284   3.071   3.197 -0.0911 -0.3897  0.5684
 1135SOL     OW 4305   1.886   3.673   5.322  0.0138  0.1400  0.1546
 1135SOL    HW2 4306   1.898   3.607   5.390 -0.0144 -0.8313 -0.7604
 1135SOL    HW3 4307   1.950   3.649   5.254  0.2466  1.2599 -0.0395
 1135SOL    MW4 4308   1.896   3.661   5.322 -0.0187 -0.2538 -0.8715
 1136SOL     OW 4309   2.355   2.229   5.241 -0.3187 -0.8268 -0.3884
 1136SOL    HW2 4310   2.271   2.186   5.221 -0.4253 -0.7212 -0.1704
 1136SOL    HW3 4311   2.373   2.205   5.332 -1.0216  0.6258  0.1677
 1136SOL    MW4 4312   2.346   2.220   5.250 -0.3290  0.7709  0.1740
 1137SOL     OW 4313   1.336   6.321   2.382 -0.3337 -0.0276 -0.8225
 1137SOL    HW2 4314   1.241   6.326   2.391 -0.4278  0.0735 -1.7629
 1137SOL    HW3 4315   1.370   6.336   2.471 -1.2201 -1.1046 -0.2823
 1137SOL    MW4 4316   1.328   6.324   2.395 -0.1266  0.1706 -0.6737
 1138SOL     OW 4317   4.466   2.829   5.274 -0.3705 -0.3559  0.9923
 1138SOL    HW2 4318   4.485   2.915   5.239 -0.9568 -0.6308 -0.0248
 1138SOL    HW3 4319   4.428   2.845   5.360  0.2746  0.3544  1.1548
 1138SOL    MW4 4320   4.464   2.842   5.281  0.1170  0.2686 -0.0868
 1139SOL     OW 4321   0.623   4.012   0.165  0.4813  0.2561  0.1689
 1139SOL    HW2 4322   0.590   3.922   0.153  0.1867  0.2704  0.8052
 1139SOL    HW3 4323   0.717   4.005   0.153  0.2402  0.2586 -1.9829
 1139SOL    MW4 4324   0.631   3.999   0.162  0.7695 -0.0715  0.0302
 1140SOL     OW 4325   5.266   0.851   2.499  0.4461 -0.2958  0.2933
 1140SOL    HW2 4326   5.240   0.783   2.437 -0.9804 -0.6502  1.2447
 1140SOL    HW3 4327   5.312   0.803   2.568  0.5071 -0.1257  0.3708
 1140SOL    MW4 4328   5.269   0.836   2.500  0.0904  0.0710  0.1878
 1141SOL     OW 4329   3.408   2.821   4.233 -0.6727  0.3794 -0.3224
 1141SOL    HW2 4330   3.410   2.916   4.228 -1.9995  0.4086 -0.6778
 1141SOL    HW3 4331   3.388   2.802   4.324 -0.1563  0.4345 -0.1973
 1141SOL    MW4 4332   3.405   2.831   4.244 -0.7114 -0.0201 -0.1143
 1142SOL     OW 4333   1.427   1.698   3.049 -0.1542  0.1890  0.2752
 1142SOL    HW2 4334   1.342   1.655   3.042 -0.3079  0.5563 -0.0970
 1142SOL    HW3 4335   1.471   1.678   2.967  0.0297  0.1934  0.3728
 1142SOL    MW4 4336   1.421   1.690   3.037 -0.2784  0.4239  0.8810
 1143SOL     OW 4337   4.778   0.050   4.159 -0.5939 -0.3771 -0.1719
 1143SOL    HW2 4338   4.775   0.036   4.064  1.3965  0.0498 -0.3467
 1143SOL    HW3 4339   4.751  -0.034   4.196  0.5698 -1.2080 -1.1432
 1143SOL    MW4 4340   4.774   0.037   4.151 -0.1043 -0.1626 -0.3667
 1144SOL     OW 4341   1.249   6.358   0.608  0.1692 -0.1418  0.0737
 1144SOL    HW2 4342   1.245   6.417   0.532  0.4969 -1.8514 -1.3562
 1144SOL    HW3 4343   1.174   6.300   0.598 -0.3977  0.2715  1.6898
 1144SOL    MW4 4344   1.239   6.358   0.596 -0.5696  0.6612  1.0036
 1145SOL     OW 4345   2.281   0.440   4.013 -0.0609 -0.2947 -0.0448
 1145SOL    HW2 4346   2.281   0.479   3.926  0.5104  0.2394  0.1895
 1145SOL    HW3 4347   2.373   0.421   4.031 -0.2975 -1.6787 -0.1103
 1145SOL    MW4 4348   2.293   0.442   4.004  0.1602  0.3710  0.2217
 1146SOL     OW 4349   1.247   1.438   4.763 -0.0344  0.4994 -0.6906
 1146SOL    HW2 4350   1.278   1.529   4.767 -0.4940  0.5996  1.0846
 1146SOL    HW3 4351   1.309   1.389   4.818 -2.1385  0.4868  1.8368
 1146SOL    MW4 4352   1.259   1.444   4.771 -0.0884  0.0737 -0.1136
 1147SOL     OW 4353   1.846   1.780   1.259  0.9230  0.4028 -0.2230
 1147SOL    HW2 4354   1.884   1.763   1.172  0.2014 -0.5488 -0.3682
 1147SOL    HW3 4355   1.773   1.838   1.242  0.6552  0.0507 -0.2815
 1147SOL    MW4 4356   1.842   1.785   1.245 -0.2593  0.0191  0.0642
 1148SOL     OW 4357   4.064   5.177   5.865 -0.0415  0.0414 -1.1313
 1148SOL    HW2 4358   4.053   5.130   5.948 -1.0107 -1.9260 -2.3165
 1148SOL    HW3 4359   4.102   5.262   5.891 -0.6012 -0.3785  1.3325
 1148SOL    MW4 4360   4.068   5.182   5.880 -0.4850  0.0922  0.4370
 1149SOL     OW 4361   3.256   4.058   6.416 -0.5830 -0.2554  0.2297
 1149SOL    HW2 4362   3.256   3.963   6.426  1.7347 -0.0456  3.5345
 1149SOL    HW3 4363   3.253   4.072   6.321 -0.3549 -3.5968 -0.3695
 1149SOL    MW4 4364   3.255   4.048   6.404  0.0238  0.1837  0.7573
 1150SOL     OW 4365   4.508   1.741   4.976  0.2047  0.7722  0.3949
 1150SOL    HW2 4366   4.432   1.796   4.956  0.2315  0.1378 -1.7093
 1150SOL    HW3 4367   4.472   1.653   4.982  0.6512  0.5765  0.2051
 1150SOL    MW4 4368   4.493   1.737   4.974 -0.5156  0.0289 -0.8914
 1151SOL     OW 4369   4.535   4.988   0.939 -0.9909 -0.4294 -0.3837
 1151SOL    HW2 4370   4.616   5.007   0.987 -0.4873 -1.4198 -0.8085
 1151SOL    HW3 4371   4.512   5.070   0.898  0.4941 -0.4095 -1.2567
 1151SOL    MW4 4372   4.543   5.001   0.940  0.0109 -0.2291  0.5284
 1152SOL     OW 4373   1.873   4.674   3.774  0.5017 -0.2001  0.6120
 1152SOL    HW2 4374   1.851   4.649   3.684 -0.0802 -0.0895  0.7188
 1152SOL    HW3 4375   1.788   4.686   3.817  0.7298 -1.6644  1.5747
 1152SOL    MW4 4376   1.859   4.672   3.768 -0.2725  1.1420  0.6622
 1153SOL     OW 4377   0.296   2.838   4.611 -0.2504 -0.1433  0.5050
 1153SOL    HW2 4378   0.253   2.834   4.525  0.9212  2.3542 -0.2668
 1153SOL    HW3 4379   0.229   2.872   4.670 -1.4313 -2.9437  0.9599
 1153SOL    MW4 4380   0.281   2.842   4.607 -0.3089  0.0029  0.2137
 1154SOL     OW 4381   3.021   0.388   5.438  0.3258  0.1393 -0.2690
 1154SOL    HW2 4382   2.964   0.420   5.368 -1.6529 -0.8256  0.8069
 1154SOL    HW3 4383   3.068   0.466   5.468 -0.9148  1.1220 -0.7686
 1154SOL    MW4 4384   3.019   0.403   5.432  0.0893  0.0511  0.0826
 1155SOL     OW 4385   2.586   1.705   2.256 -0.0432  0.1390  0.5803
 1155SOL    HW2 4386   2.519   1.676   2.318  0.4895  1.2316  1.7078
 1155SOL    HW3 4387   2.641   1.764   2.307  0.3223  1.2030 -0.9902
 1155SOL    MW4 4388   2.584   1.709   2.271  0.4705 -0.4405  0.2184
 1156SOL     OW 4389   3.589   1.539   1.894 -0.1655 -0.1700 -0.4590
 1156SOL    HW2 4390   3.652   1.468   1.881 -0.1315 -0.7373  2.1916
 1156SOL    HW3 4391   3.520   1.522   1.830  0.3774 -1.9703 -0.6248
 1156SOL    MW4 4392   3.588   1.527   1.884 -0.6550 -0.2883  0.2274
 1157SOL     OW 4393   1.654   5.709   1.967  0.2426  0.5250 -0.2719
 1157SOL    HW2 4394   1.563   5.688   1.945  0.9789  0.2912 -3.4924
 1157SOL    HW3 4395   1.660   5.804   1.953  0.5822  0.4939 -0.3304
 1157SOL    MW4 4396   1.643   5.719   1.963  0.0716 -0.6501  0.3163
 1158SOL     OW 4397   3.035   0.823   1.965  0.1748  0.1062  0.3593
 1158SOL    HW2 4398   3.089   0.765   1.911  0.8797  1.2957 -0.2488
 1158SOL    HW3 4399   3.088   0.839   2.044 -0.1610 -0.3301  0.6780
 1158SOL    MW4 4400   3.049   0.817   1.969  0.6657  0.2846 -0.3684
 1159SOL     OW 4401   5.272   0.119   3.779 -0.2472  0.2833 -0.0633
 1159SOL    HW2 4402   5.206   0.153   3.719  0.1938  0.8054 -0.2513
 1159SOL    HW3 4403   5.221   0.084   3.852 -0.7120  1.1827  0.0538
 1159SOL    MW4 4404   5.256   0.119   3.781  0.1863 -0.2760 -0.1734
 1160SOL     OW 4405   0.894   2.537   2.672 -0.0329 -0.1978 -0.6187
 1160SOL    HW2 4406   0.870   2.449   2.701 -0.6649  0.5490  1.2821
 1160SOL    HW3 4407   0.979   2.553   2.711 -0.6287  0.6048  0.4010
 1160SOL    MW4 4408   0.902   2.527   2.681 -0.3078  0.4006 -0.6011
 1161SOL     OW 4409   2.345   0.152   1.378  0.4039 -0.3214  0.3057
 1161SOL    HW2 4410   2.419   0.192   1.423  0.8727 -1.6590  0.7769
 1161SOL    HW3 4411   2.359   0.172   1.286  1.3467 -0.5200  0.3964
 1161SOL    MW4 4412   2.356   0.160   1.372  0.0822 -0.2081  0.1163
 1162SOL     OW 4413   5.447   3.776   1.124  0.6991  0.3054  0.1263
 1162SOL    HW2 4414   5.437   3.716   1.197 -0.0516 -0.0295 -0.2362
 1162SOL    HW3 4415   5.541   3.790   1.116  0.8076  0.0056  0.8781
 1162SOL    MW4 4416   5.458   3.770   1.132 -0.2380  0.6052  0.4873
 1163SOL     OW 4417   0.351   2.036   1.059  0.7797 -0.1781 -0.6039
 1163SOL    HW2 4418   0.353   1.989   1.142  1.4419  0.1562 -0.4187
 1163SOL    HW3 4419   0.270   2.086   1.061 -0.9694 -2.7814 -1.6572
 1163SOL    MW4 4420   0.341   2.036   1.070  0.4888  0.0149  0.0269
 1164SOL     OW 4421   5.649   5.952   4.965  0.6815  0.6951 -0.0357
 1164SOL    HW2 4422   5.620   5.925   5.052  0.9739  2.2404  0.5830
 1164SOL    HW3 4423   5.728   6.004   4.981  0.5411  1.2957 -1.1755
 1164SOL    MW4 4424   5.655   5.956   4.978 -0.4459 -0.4399 -0.5487
 1165SOL     OW 4425   4.109   3.912   5.639 -0.2730  0.0825 -0.2588
 1165SOL    HW2 4426   4.057   3.988   5.667 -2.2040 -0.8427 -1.1812
 1165SOL    HW3 4427   4.073   3.887   5.554  2.0846 -0.2978 -1.2338
 1165SOL    MW4 4428   4.097   3.919   5.632 -0.3107 -0.0572  0.3420
 1166SOL     OW 4429   0.789   0.020   3.394 -0.1259  0.1887 -1.0652
 1166SOL    HW2 4430   0.730  -0.027   3.336 -0.5422  0.7910 -1.1368
 1166SOL    HW3 4431   0.843  -0.048   3.434 -0.9057 -0.3695 -0.9552
 1166SOL    MW4 4432   0.788   0.005   3.392  0.4875  0.0080  0.1757
 1167SOL     OW 4433   1.853   5.822   3.255  0.4885  0.2156 -0.3839
 1167SOL    HW2 4434   1.924   5.859   3.203  0.4308  0.2351 -0.4491
 1167SOL    HW3 4435   1.857   5.728   3.238  1.0074  0.1159  0.2397
 1167SOL    MW4 4436   1.863   5.814   3.246 -0.2312  0.0959 -0.6138
 1168SOL     OW 4437   2.130   0.996   2.597  0.1358 -0.5864 -0.3615
 1168SOL    HW2 4438   2.219   1.022   2.574  0.3665 -0.3764  0.7014
 1168SOL    HW3 4439   2.139   0.957   2.685 -0.8791 -0.1757 -0.0690
 1168SOL    MW4 4440   2.143   0.994   2.606  0.1923  0.3712 -0.1612
 1169SOL     OW 4441   4.910   2.359   5.001 -0.0605 -0.1373  0.5220
 1169SOL    HW2 4442   4.993   2.407   4.999 -0.1954  0.0878 -0.6027
 1169SOL    HW3 4443   4.876   2.367   4.911 -0.6444 -1.3686  0.6187
 1169SOL    MW4 4444   4.916   2.367   4.989 -0.1922  0.4150  0.0252
 1170SOL     OW 4445   1.441   6.328   1.423 -0.3258  0.4286  0.2352
 1170SOL    HW2 4446   1.364   6.382   1.441  1.8212  4.0681 -0.6173
 1170SOL    HW3 4447   1.449   6.327   1.328 -0.3861 -1.7021  0.1904
 1170SOL    MW4 4448   1.432   6.335   1.413  0.6527  1.0626 -0.3308
 1171SOL     OW 4449   1.995   1.490   1.302 -0.0560  0.1146 -0.9566
 1171SOL    HW2 4450   2.018   1.567   1.250  0.7060 -0.5992 -1.7155
 1171SOL    HW3 4451   1.935   1.523   1.368  1.2631  1.6083 -0.4418
 1171SOL    MW4 4452   1.990   1.504   1.304 -0.3047 -0.0551  0.1686
 1172SOL     OW 4453   5.270   5.860   5.252 -0.3871 -0.3062 -0.3693
 1172SOL    HW2 4454   5.244   5.814   5.172 -0.5572 -2.0994  0.6803
 1172SOL    HW3 4455   5.363   5.878   5.239 -0.1612 -1.5221 -0.5464
 1172SOL    MW4 4456   5.279   5.857   5.239 -0.0402 -0.5906  0.0052
 1173SOL     OW 4457   4.127   3.403   2.551 -0.1160  0.2334 -0.2171
 1173SOL    HW2 4458   4.184   3.360   2.615  0.2402 -0.3432 -0.9027
 1173SOL    HW3 4459   4.188   3.446   2.491 -0.3385 -1.2338 -1.5443
 1173SOL    MW4 4460   4.143   3.403   2.552 -0.6860  0.2850  0.8770
 1174SOL     OW 4461   1.961   1.015   3.719  0.2630  0.4840 -0.4524
 1174SOL    HW2 4462   1.931   0.953   3.785 -1.3034  1.6810 -0.0066
 1174SOL    HW3 4463   2.033   1.062   3.761  1.0674 -0.5628 -0.5895
 1174SOL    MW4 4464   1.967   1.013   3.733  0.4036 -0.2590  0.2866
 1175SOL     OW 4465   0.105   5.090   3.486  0.0914 -0.2118 -0.1382
 1175SOL    HW2 4466   0.027   5.143   3.467 -0.0203  0.3208  1.6189
 1175SOL    HW3 4467   0.163   5.105   3.412 -0.4463  1.4159 -0.2607
 1175SOL    MW4 4468   0.102   5.099   3.474  0.4428 -0.5460  0.0659
 1176SOL     OW 4469   6.296   3.409   6.392  0.2085 -0.2619 -0.2731
 1176SOL    HW2 4470   6.257   3.465   6.459 -0.3350 -1.0016  0.0376
 1176SOL    HW3 4471   6.391   3.421   6.403  0.1118  0.0195  0.2794
 1176SOL    MW4 4472   6.303   3.418   6.403 -0.9027 -0.2626 -0.2193
 1177SOL     OW 4473   0.566   3.256   0.295 -0.0267 -0.2159 -0.5282
 1177SOL    HW2 4474   0.610   3.184   0.250 -1.5823 -1.0556 -0.7635
 1177SOL    HW3 4475   0.632   3.325   0.300  1.0044 -1.0758 -1.7095
 1177SOL    MW4 4476   0.581   3.255   0.290 -0.5976  0.1474  0.6316
 1178SOL     OW 4477   6.230   0.207   3.951 -0.2284  0.1712  0.0305
 1178SOL    HW2 4478   6.183   0.230   4.031  2.2638  2.9178  0.8885
 1178SOL    HW3 4479   6.290   0.137   3.977 -0.4941 -0.0105  0.1533
 1178SOL    MW4 4480   6.232   0.201   3.965  0.1092  0.2309 -0.3361
 1179SOL     OW 4481   1.735   1.684   3.229  0.2361 -0.1339  0.0499
 1179SOL    HW2 4482   1.711   1.638   3.148  0.4890 -1.2636  0.6051
 1179SOL    HW3 4483   1.740   1.776   3.203 -0.6044 -0.3655 -1.0132
 1179SOL    MW4 4484   1.732   1.690   3.215  0.2136 -0.7959  0.1347
 1180SOL     OW 4485   1.125   1.068   2.943  0.3316 -0.0675  0.0018
 1180SOL    HW2 4486   1.179   1.019   3.005 -1.0648  0.2384  1.5306
 1180SOL    HW3 4487   1.042   1.080   2.988 -0.2557  1.4287 -1.3921
 1180SOL    MW4 4488   1.122   1.063   2.957  0.5274  0.4401  0.5510
 1181SOL     OW 4489   2.798   6.024   5.719 -0.2473  0.0724  0.5382
 1181SOL    HW2 4490   2.857   6.053   5.650 -0.1978 -0.8945  0.1620
 1181SOL    HW3 4491   2.856   5.990   5.787 -0.3497 -0.5130  0.3376
 1181SOL    MW4 4492   2.813   6.023   5.719 -0.1542  0.3352 -0.4244
 1182SOL     OW 4493   5.092   0.238   5.988 -0.6511  0.1627  0.3611
 1182SOL    HW2 4494   5.003   0.207   5.972 -0.1124 -1.3087  0.0848
 1182SOL    HW3 4495   5.147   0.162   5.973  0.6298  0.9381  0.9565
 1182SOL    MW4 4496   5.087   0.224   5.984 -0.0684 -0.0873 -0.9972
 1183SOL     OW 4497   1.405   0.809   4.122 -0.5668 -0.0389 -0.8975
 1183SOL    HW2 4498   1.484   0.836   4.076  1.5634  0.0814  2.5143
 1183SOL    HW3 4499   1.371   0.890   4.161 -1.5447 -0.3161 -1.1607
 1183SOL    MW4 4500   1.411   0.823   4.121 -0.7429 -0.0707  0.4094
 1184SOL     OW 4501   6.356   4.928   5.789  0.2680 -0.5375 -0.3674
 1184SOL    HW2 4502   6.334   5.000   5.731  3.6752  0.3057 -0.8238
 1184SOL    HW3 4503   6.368   4.968   5.875  2.7501 -0.2927 -0.7340
 1184SOL    MW4 4504   6.355   4.943   5.793  0.6112  0.5571 -0.3229
 1185SOL     OW 4505   2.164   0.922   5.867  0.0808  0.2920 -0.1870
 1185SOL    HW2 4506   2.084   0.926   5.813  1.2673  0.5897 -2.0189
 1185SOL    HW3 4507   2.145   0.854   5.931 -0.8817 -1.2324 -1.9614
 1185SOL    MW4 4508   2.151   0.913   5.868 -0.7363 -0.3332 -0.0395
 1186SOL     OW 4509   3.196   2.533   4.205  0.2076 -0.4675 -0.5202
 1186SOL    HW2 4510   3.190   2.606   4.144 -1.0391  0.3582  0.5342
 1186SOL    HW3 4511   3.227   2.459   4.152 -1.7365 -0.0472 -2.3592
 1186SOL    MW4 4512   3.200   2.533   4.190  0.1202 -0.2046 -0.5735
 1187SOL     OW 4513   3.077   1.110   2.780 -0.7256  0.0775 -0.2411
 1187SOL    HW2 4514   3.074   1.017   2.757 -0.7305 -0.1964  0.7940
 1187SOL    HW3 4515   3.168   1.125   2.808 -0.7881  0.3224 -0.1633
 1187SOL    MW4 4516   3.089   1.100   2.781 -0.1774 -0.6238 -0.4037
 1188SOL     OW 4517   2.727   2.580   2.502 -0.9163  0.2698  0.8324
 1188SOL    HW2 4518   2.751   2.509   2.563  0.5790 -1.7104 -1.8293
 1188SOL    HW3 4519   2.793   2.647   2.517  0.8910 -1.1963 -0.0779
 1188SOL    MW4 4520   2.739   2.579   2.512 -0.6966 -0.4879  0.0253
 1189SOL     OW 4521   4.585   1.642   1.216 -0.8703 -0.1653 -0.2161
 1189SOL    HW2 4522   4.618   1.651   1.305 -0.4350  1.2243 -0.4992
 1189SOL    HW3 4523   4.600   1.550   1.194 -0.5705 -0.4175  0.9714
 1189SOL    MW4 4524   4.591   1.631   1.225 -0.2919  0.0161  0.1252
 1190SOL     OW 4525   1.806   1.778   5.491 -0.2842  0.5762  0.1142
 1190SOL    HW2 4526   1.852   1.842   5.436  1.1182 -1.8446 -1.6955
 1190SOL    HW3 4527   1.763   1.719   5.429 -0.0199 -1.3067  1.6515
 1190SOL    MW4 4528   1.806   1.779   5.476 -0.5877  0.0584 -0.5333
 1191SOL     OW 4529   4.281   3.257   2.714 -0.1693  0.2354 -0.5366
 1191SOL    HW2 4530   4.223   3.181   2.720  0.0378  0.1892  1.2056
 1191SOL    HW3 4531   4.313   3.271   2.803 -1.1091  3.0668 -0.5429
 1191SOL    MW4 4532   4.277   3.249   2.726  0.0082 -0.0809 -0.5294
 1192SOL     OW 4533   0.832   3.527   1.318 -0.2466  0.5144 -0.5197
 1192SOL    HW2 4534   0.874   3.441   1.320 -0.0482  0.5907 -1.2284
 1192SOL    HW3 4535   0.794   3.533   1.230 -0.3911  1.0883 -0.4202
 1192SOL    MW4 4536   0.832   3.516   1.306 -0.5423  0.1309 -0.3679
 1193SOL     OW 4537   0.655   1.752   6.267 -0.4536  0.1697 -0.0227
 1193SOL    HW2 4538   0.689   1.760   6.356  0.7241  0.9073 -0.5098
 1193SOL    HW3 4539   0.568   1.792   6.270  0.1380  1.4540  0.5047
 1193SOL    MW4 4540   0.648   1.759   6.279  0.7031  0.1923  0.5703
 1194SOL     OW 4541   1.932   4.410   0.626  0.2780 -0.0450  0.5548
 1194SOL    HW2 4542   1.843   4.442   0.614  0.1792 -1.0679 -2.1526
 1194SOL    HW3 4543   1.980   4.486   0.660 -1.1099  1.2490 -0.2377
 1194SOL    MW4 4544   1.927   4.424   0.629 -0.1569 -0.2603  0.0501
 1195SOL     OW 4545   4.879   0.702   2.275 -0.1891 -0.1343  0.6286
 1195SOL    HW2 4546   4.920   0.695   2.361  0.4617  1.2063  0.4531
 1195SOL    HW3 4547   4.914   0.628   2.226  2.5661  1.2511  0.3077
 1195SOL    MW4 4548   4.889   0.692   2.280 -0.1122  0.4152  0.4522
 1196SOL     OW 4549   2.124   6.394   5.195  0.2214  0.4444  0.0757
 1196SOL    HW2 4550   2.070   6.465   5.229 -0.0046 -0.5268  1.8635
 1196SOL    HW3 4551   2.183   6.372   5.267  1.1586 -0.3485 -0.8927
 1196SOL    MW4 4552   2.125   6.400   5.209 -0.1638  0.0318 -0.1619
 1197SOL     OW 4553   1.887   4.020   1.812 -0.0849 -0.2043 -0.4356
 1197SOL    HW2 4554   1.849   3.966   1.882 -1.4484  0.3547 -0.7072
 1197SOL    HW3 4555   1.950   3.963   1.770 -1.8531 -1.8089 -1.0431
 1197SOL    MW4 4556   1.890   4.005   1.816 -0.2017 -0.2877 -0.8059
 1198SOL     OW 4557   4.670   3.464   6.362  0.0561  0.1562 -0.0892
 1198SOL    HW2 4558   4.684   3.557   6.347 -1.1081  0.1610 -1.3198
 1198SOL    HW3 4559   4.690   3.451   6.455 -4.1837  2.5758  1.4180
 1198SOL    MW4 4560   4.675   3.475   6.372  0.5229 -0.1005  0.0637
 1199SOL     OW 4561   3.354   2.706   0.745  0.3861  0.1492  0.3008
 1199SOL    HW2 4562   3.407   2.756   0.682 -0.3704 -0.5735 -0.9450
 1199SOL    HW3 4563   3.273   2.757   0.753  0.9686  0.9148  1.7143
 1199SOL    MW4 4564   3.350   2.720   0.738  0.2094 -0.0508 -0.1588
 1200SOL     OW 4565   2.122   2.345   4.844  0.0581 -0.2756  0.3642
 1200SOL    HW2 4566   2.173   2.426   4.847 -0.8921  0.3093  2.3470
 1200SOL    HW3 4567   2.182   2.280   4.809  1.2407  0.9961 -0.0735
 1200SOL    MW4 4568   2.137   2.347   4.840 -0.4997  0.0912 -0.5819
 1201SOL     OW 4569   3.446   2.274   2.966  0.3659 -0.5444 -0.0112
 1201SOL    HW2 4570   3.527   2.322   2.981 -0.7099  1.1009  0.8270
 1201SOL    HW3 4571   3.385   2.339   2.933 -1.4266 -1.0945  2.0396
 1201SOL    MW4 4572   3.449   2.289   2.963  0.1868  0.3416 -0.6668
 1202SOL     OW 4573   1.188   6.160   2.212 -0.1746 -0.1451  0.6687
 1202SOL    HW2 4574   1.159   6.235   2.159 -1.5965 -0.0426  1.5321
 1202SOL    HW3 4575   1.267   6.192   2.257  0.9799 -0.1937 -1.2243
 1202SOL    MW4 4576   1.195   6.174   2.211  0.0127 -0.0569  0.4840
 1203SOL     OW 4577   3.241   2.255   4.131  0.5937  0.0656  0.0137
 1203SOL    HW2 4578   3.284   2.232   4.049 -0.9918 -1.2150 -0.4980
 1203SOL    HW3 4579   3.297   2.216   4.199  1.4270  0.3625 -0.4787
 1203SOL    MW4 4580   3.254   2.247   4.129  0.2631  0.2809 -0.1400
 1204SOL     OW 4581   5.214   3.960   5.233 -0.0732  0.2083 -0.3115
 1204SOL    HW2 4582   5.252   3.986   5.317 -0.1843  1.0618 -0.5086
 1204SOL    HW3 4583   5.246   4.027   5.172  0.7702 -0.9109 -1.1488
 1204SOL    MW4 4584   5.223   3.973   5.236 -0.1755  0.3343  0.3503
 1205SOL     OW 4585   0.674   3.801   6.293 -0.5073  0.1303 -0.0983
 1205SOL    HW2 4586   0.742   3.777   6.356 -1.0065  0.4915  0.5897
 1205SOL    HW3 4587   0.690   3.893   6.274 -0.5481  0.1048 -0.2610
 1205SOL    MW4 4588   0.685   3.810   6.299 -0.1450  0.0568 -0.7283
 1206SOL     OW 4589   0.225   5.951   3.189 -0.3467 -0.1325 -0.0565
 1206SOL    HW2 4590   0.255   5.881   3.247 -1.1091 -0.8846 -0.5558
 1206SOL    HW3 4591   0.158   5.910   3.134  0.6264  0.4571 -1.7561
 1206SOL    MW4 4592   0.220   5.936   3.190 -0.2123  0.1232 -0.3656
 1207SOL     OW 4593   4.292   2.573   0.984  0.1044  0.1046 -0.6149
 1207SOL    HW2 4594   4.228   2.639   0.957  0.7705  1.1230  0.2140
 1207SOL    HW3 4595   4.377   2.615   0.971  0.6130 -1.1199 -1.4159
 1207SOL    MW4 4596   4.295   2.588   0.979  0.6765 -0.1611 -0.1563
 1208SOL     OW 4597   2.617   2.891   2.285 -0.6942 -0.2598  0.0709
 1208SOL    HW2 4598   2.569   2.897   2.367 -0.8711 -0.3177 -0.0272
 1208SOL    HW3 4599   2.671   2.813   2.294 -1.0200 -0.4980 -0.0288
 1208SOL    MW4 4600   2.618   2.882   2.297  0.1651 -0.3271 -0.0684
 1209SOL     OW 4601   3.227   0.261   1.049  0.5103 -0.0081 -0.7995
 1209SOL    HW2 4602   3.280   0.297   0.978  0.5411 -1.2227 -1.4136
 1209SOL    HW3 4603   3.283   0.195   1.091 -1.1198 -2.9212 -2.8284
 1209SOL    MW4 4604   3.242   0.257   1.045 -0.1669 -0.1068 -0.6921
 1210SOL     OW 4605   5.583   2.906   0.967  0.2695  0.1248 -0.1618
 1210SOL    HW2 4606   5.650   2.936   0.905 -1.0008 -0.3338 -1.8365
 1210SOL    HW3 4607   5.566   2.815   0.942  0.8616 -0.6226  1.9460
 1210SOL    MW4 4608   5.589   2.898   0.956 -0.0716  0.2710  0.2684
 1211SOL     OW 4609   1.823   4.296   6.424 -0.6156  0.1548 -0.0042
 1211SOL    HW2 4610   1.792   4.334   6.342 -1.0217  0.3740  0.2469
 1211SOL    HW3 4611   1.793   4.357   6.492 -2.5853 -1.3378  0.5593
 1211SOL    MW4 4612   1.815   4.309   6.422 -0.3426 -0.0143 -0.7279
 1212SOL     OW 4613   6.006   2.887   1.280  0.4567 -0.0247  0.2275
 1212SOL    HW2 4614   6.079   2.839   1.239 -0.2883 -0.8237 -0.2053
 1212SOL    HW3 4615   5.965   2.822   1.337  0.9668  0.8421  1.6354
 1212SOL    MW4 4616   6.010   2.872   1.282  0.1075 -0.4417 -0.5387
 1213SOL     OW 4617   1.137   2.845   4.048  0.6003  0.1693  0.1372
 1213SOL    HW2 4618   1.045   2.823   4.061  0.6978  0.1673  0.8281
 1213SOL    HW3 4619   1.178   2.763   4.021  0.7133 -0.2241  1.4529
 1213SOL    MW4 4620   1.130   2.831   4.046 -0.1107  0.0237 -0.2801
 1214SOL     OW 4621   2.102   3.749   2.127 -0.3020  0.3286 -0.2942
 1214SOL    HW2 4622   2.062   3.836   2.117  0.7530  0.8390 -0.2147
 1214SOL    HW3 4623   2.085   3.725   2.218  1.9599  1.8200  0.6338
 1214SOL    MW4 4624   2.095   3.758   2.138 -0.6448 -0.4909 -0.5134
 1215SOL     OW 4625   2.275   0.048   4.367  0.3818  0.2406  0.3937
 1215SOL    HW2 4626   2.275   0.063   4.461  0.9674  0.0373  0.4282
 1215SOL    HW3 4627   2.334  -0.026   4.354  0.4703  0.3989 -0.1511
 1215SOL    MW4 4628   2.283   0.040   4.377  0.5351  0.1856 -0.0678
 1216SOL     OW 4629   3.940   0.011   5.667  0.3560 -0.5664  0.6979
 1216SOL    HW2 4630   3.848  -0.012   5.653  0.8315 -2.0162 -0.2115
 1216SOL    HW3 4631   3.975  -0.059   5.722  1.0850 -0.3845  0.4788
 1216SOL    MW4 4632   3.932  -0.001   5.672  0.0160 -0.5463  0.1651
 1217SOL     OW 4633   1.706   3.362   2.260  0.1090  0.0963  0.0273
 1217SOL    HW2 4634   1.786   3.401   2.296  0.3247  1.1558 -1.5075
 1217SOL    HW3 4635   1.656   3.436   2.226 -1.5198 -0.5661  0.8881
 1217SOL    MW4 4636   1.710   3.377   2.260  0.2798 -0.0978 -0.1067
 1218SOL     OW 4637   6.283   4.357   5.454  0.0555  0.0412  0.1585
 1218SOL    HW2 4638   6.307   4.324   5.541  2.2989  1.6549  0.2573
 1218SOL    HW3 4639   6.193   4.327   5.441 -0.2560 -0.5303  2.8825
 1218SOL    MW4 4640   6.275   4.348   5.464 -0.1647 -0.7391 -0.1720
 1219SOL     OW 4641   2.742   3.317   3.734  0.3646 -0.5086 -0.4107
 1219SOL    HW2 4642   2.729   3.229   3.699  0.4073 -1.3141  1.4745
 1219SOL    HW3 4643   2.661   3.363   3.714 -0.2533 -1.4464 -0.1441
 1219SOL    MW4 4644   2.729   3.312   3.727  0.3112 -0.4652  0.1960
 1220SOL     OW 4645   0.282   6.063   4.383  0.3709  0.0787  0.3173
 1220SOL    HW2 4646   0.271   6.118   4.305  0.9007 -0.1701  0.0635
 1220SOL    HW3 4647   0.367   6.088   4.418  0.9030 -0.9982 -0.1516
 1220SOL    MW4 4648   0.291   6.073   4.377 -0.8289 -0.2849 -0.2574
 1221SOL     OW 4649   0.995   0.782   4.081 -0.1539  0.5680 -0.5271
 1221SOL    HW2 4650   0.906   0.772   4.115  0.2818  2.1093  1.2327
 1221SOL    HW3 4651   1.021   0.870   4.108  2.0315  0.0341 -0.7097
 1221SOL    MW4 4652   0.987   0.793   4.089  0.1210 -0.3559  0.1128
 1222SOL     OW 4653   3.086   1.267   2.014 -0.6105 -0.2183 -0.7619
 1222SOL    HW2 4654   3.065   1.299   2.102 -0.1870  2.0082 -1.4113
 1222SOL    HW3 4655   3.021   1.198   1.998 -2.0779  0.7956  0.4860
 1222SOL    MW4 4656   3.074   1.262   2.023 -0.9003  0.5556  0.0782
 1223SOL     OW 4657   4.218   3.711   3.169  0.3763  0.3973 -0.0343
 1223SOL    HW2 4658   4.196   3.760   3.249  2.7554  0.1604  0.8647
 1223SOL    HW3 4659   4.300   3.750   3.140  0.3083 -0.5357 -1.5301
 1223SOL    MW4 4660   4.226   3.723   3.176  0.0747 -0.0874  0.3836
 1224SOL     OW 4661   5.263   1.572   0.606  0.0861 -0.6580 -0.7334
 1224SOL    HW2 4662   5.238   1.554   0.515  1.2309  1.5529 -1.5627
 1224SOL    HW3 4663   5.338   1.514   0.622 -0.4006 -1.3800 -1.0336
 1224SOL    MW4 4664   5.270   1.562   0.596 -1.2633  0.0970  0.1966
 1225SOL     OW 4665   3.388   4.251   1.569 -0.3117  0.0818  0.1607
 1225SOL    HW2 4666   3.416   4.219   1.483 -0.6558 -0.7273  0.3427
 1225SOL    HW3 4667   3.371   4.344   1.555 -0.6462 -0.0997 -0.7149
 1225SOL    MW4 4668   3.390   4.259   1.556 -0.1822  0.0797 -0.2456
 1226SOL     OW 4669   0.051   2.608   3.060 -0.0963  0.3015  0.3327
 1226SOL    HW2 4670   0.048   2.513   3.076 -1.3818  0.1528 -0.5841
 1226SOL    HW3 4671   0.137   2.635   3.092  0.1633 -1.1169  0.9214
 1226SOL    MW4 4672   0.062   2.599   3.066  0.0016  0.4729 -0.0672
 1227SOL     OW 4673   0.274   1.812   0.112 -0.0123 -0.3836  0.8811
 1227SOL    HW2 4674   0.241   1.785   0.197  1.6950 -0.7642  1.4425
 1227SOL    HW3 4675   0.356   1.857   0.130  0.9132 -1.3669 -0.6350
 1227SOL    MW4 4676   0.280   1.815   0.125  0.5191 -0.2062 -0.0454
 1228SOL     OW 4677   4.364   6.425   6.133 -0.1244 -0.3388 -0.0990
 1228SOL    HW2 4678   4.397   6.415   6.043  0.6366 -0.9978  0.2423
 1228SOL    HW3 4679   4.344   6.519   6.140 -1.2489 -0.4571 -1.3002
 1228SOL    MW4 4680   4.366   6.436   6.122  0.8675 -0.6039 -0.4490
 1229SOL     OW 4681   1.891   6.309   1.972 -0.0942 -0.1264  0.1118
 1229SOL    HW2 4682   1.842   6.346   2.045 -0.5588 -1.1487  0.3316
 1229SOL    HW3 4683   1.916   6.385   1.919  0.0916  0.6162  1.2272
 1229SOL    MW4 4684   1.888   6.324   1.974 -0.0160 -0.8459  0.1416
 1230SOL     OW 4685   0.541   6.208   2.435 -0.5497  0.2741 -0.7247
 1230SOL    HW2 4686   0.476   6.265   2.394 -0.0023  0.7429 -0.9622
 1230SOL    HW3 4687   0.550   6.134   2.374 -2.0449 -0.6377  0.0990
 1230SOL    MW4 4688   0.534   6.206   2.422 -0.4400 -0.4809  0.1127
 1231SOL     OW 4689   6.114   1.793   1.791  0.2902 -0.0326 -0.0339
 1231SOL    HW2 4690   6.044   1.855   1.775  1.4597  1.2987 -0.2094
 1231SOL    HW3 4691   6.106   1.729   1.720 -0.8911 -0.0734  0.1135
 1231SOL    MW4 4692   6.104   1.792   1.780  0.2401  0.0056 -0.0767
 1232SOL     OW 4693   4.480   2.981   2.181 -0.1990 -0.5560 -0.2962
 1232SOL    HW2 4694   4.452   3.044   2.248  0.7899 -1.5409  1.1095
 1232SOL    HW3 4695   4.553   3.024   2.138  1.3989 -1.1964  1.6058
 1232SOL    MW4 4696   4.486   2.995   2.184 -0.0270  0.1131  0.1322
 1233SOL     OW 4697   6.186   5.426   4.192  0.5061 -0.2599  0.3148
 1233SOL    HW2 4698   6.199   5.517   4.217 -0.0025 -0.1272  0.1213
 1233SOL    HW3 4699   6.157   5.430   4.101 -1.5892 -0.4475  0.9042
 1233SOL    MW4 4700   6.184   5.438   4.183  0.1277  0.1259 -0.0530
 1234SOL     OW 4701   1.335   4.375   4.835 -0.0391 -0.7236  0.4572
 1234SOL    HW2 4702   1.301   4.379   4.746  0.2309 -0.3291  0.3731
 1234SOL    HW3 4703   1.321   4.463   4.871 -2.5413 -1.5041  1.6991
 1234SOL    MW4 4704   1.329   4.387   4.828 -0.0656  1.0701 -0.0655
 1235SOL     OW 4705   4.240   0.319   2.816  0.4722  0.0208  0.6449
 1235SOL    HW2 4706   4.228   0.291   2.725  3.4540  1.9714 -0.5191
 1235SOL    HW3 4707   4.238   0.238   2.867  3.3479 -1.7941 -1.7942
 1235SOL    MW4 4708   4.238   0.305   2.811 -0.1639 -0.4345 -0.2959
 1236SOL     OW 4709   5.330   1.605   5.933 -0.0242  0.2510 -0.6991
 1236SOL    HW2 4710   5.326   1.683   5.987  1.3771 -0.0078 -0.1877
 1236SOL    HW3 4711   5.260   1.548   5.967  0.7343  0.1579  0.7480
 1236SOL    MW4 4712   5.320   1.608   5.945  0.0644  0.1813 -0.2923
 1237SOL     OW 4713   6.351   1.650   1.461  0.0727  0.4804 -0.1001
 1237SOL    HW2 4714   6.400   1.570   1.478 -2.1907 -1.1884 -1.0782
 1237SOL    HW3 4715   6.419   1.714   1.438  1.8980 -1.2832  0.0717
 1237SOL    MW4 4716   6.367   1.648   1.460  0.4444  0.1006  0.2248
 1238SOL     OW 4717   6.266   2.007   4.968 -0.2223  0.2325  0.0192
 1238SOL    HW2 4718   6.232   2.095   4.985  0.4289  0.2984  1.0478
 1238SOL    HW3 4719   6.353   2.007   5.007  0.2041 -0.5445 -0.8993
 1238SOL    MW4 4720   6.273   2.019   4.975  0.2954  0.3536 -0.6462
 1239SOL     OW 4721   3.117   1.936   4.412 -0.8349  0.1086  0.6943
 1239SOL    HW2 4722   3.175   1.923   4.486  0.9409 -0.2803 -0.6882
 1239SOL    HW3 4723   3.148   2.016   4.371  0.9290 -1.7039 -1.8713
 1239SOL    MW4 4724   3.129   1.945   4.416 -0.1974  0.2560 -0.3966
 1240SOL     OW 4725   6.218   4.117   2.090  0.5323 -0.1258  0.4320
 1240SOL    HW2 4726   6.220   4.035   2.139 -0.2141 -1.0752 -1.0545
 1240SOL    HW3 4727   6.199   4.091   2.000 -0.0842  1.7096 -0.0135
 1240SOL    MW4 4728   6.216   4.103   2.084 -0.5183  0.0861  0.1327
 1241SOL     OW 4729   5.517   6.187   1.140  0.1053 -0.3336 -0.2196
 1241SOL    HW2 4730   5.601   6.234   1.147  0.7837 -1.6180  0.5434
 1241SOL    HW3 4731   5.451   6.253   1.162  0.9615  0.5220 -0.1496
 1241SOL    MW4 4732   5.519   6.202   1.144  0.0892 -0.2345  0.2668
 1242SOL     OW 4733   3.419   5.329   6.011  0.0504  0.1061  0.0529
 1242SOL    HW2 4734   3.443   5.257   6.070 -1.5354 -0.1116  0.4759
 1242SOL    HW3 4735   3.348   5.293   5.958  0.0416  0.9952 -0.5575
 1242SOL    MW4 4736   3.413   5.315   6.012  0.1959  0.3993  0.2394
 1243SOL     OW 4737   1.560   0.360   5.040 -0.1970 -0.2545  0.3375
 1243SOL    HW2 4738   1.564   0.264   5.043 -0.3536 -0.2474  1.0969
 1243SOL    HW3 4739   1.593   0.388   5.125  1.0900  0.4251 -0.3567
 1243SOL    MW4 4740   1.565   0.351   5.052 -0.6549  0.3463 -0.1421
 1244SOL     OW 4741   0.612   2.880   5.071 -0.6455  0.2493  0.0358
 1244SOL    HW2 4742   0.530   2.876   5.022 -0.1604  0.7762 -0.8630
 1244SOL    HW3 4743   0.633   2.789   5.091 -0.8380  0.0118 -0.8032
 1244SOL    MW4 4744   0.604   2.867   5.067 -0.0821  0.6622 -0.0382
 1245SOL     OW 4745   5.305   1.687   3.194 -0.4861 -0.2616 -0.2302
 1245SOL    HW2 4746   5.250   1.632   3.250  0.1516 -1.1293 -0.4226
 1245SOL    HW3 4747   5.373   1.627   3.162  0.2737  0.6639 -0.3933
 1245SOL    MW4 4748   5.307   1.672   3.197  0.1667  0.2207 -0.2645
 1246SOL     OW 4749   4.750   2.753   6.387 -0.2523  0.4867 -0.2135
 1246SOL    HW2 4750   4.796   2.800   6.457  1.1027 -1.0741  0.0329
 1246SOL    HW3 4751   4.747   2.815   6.314  1.6159  0.9401  0.0325
 1246SOL    MW4 4752   4.756   2.767   6.386 -0.0351 -0.1521  0.0615
 1247SOL     OW 4753   5.770   4.961   2.127  0.3338 -0.1695 -0.0084
 1247SOL    HW2 4754   5.686   4.915   2.125 -0.7616  1.7298  0.4963
 1247SOL    HW3 4755   5.802   4.948   2.217 -0.1641  0.3651  0.2507
 1247SOL    MW4 4756   5.763   4.953   2.139  0.4657 -0.2112 -0.1341
 1248SOL     OW 4757   2.396   2.094   2.458 -0.5774  0.3116 -0.4885
 1248SOL    HW2 4758   2.475   2.114   2.407  0.7107  1.6528  1.8797
 1248SOL    HW3 4759   2.362   2.180   2.484 -1.5178 -0.3257  0.4676
 1248SOL    MW4 4760   2.402   2.108   2.455 -0.1805 -0.3888  0.0108
 1249SOL     OW 4761   0.157   2.466   1.656  0.5702  0.1392 -0.3250
 1249SOL    HW2 4762   0.195   2.487   1.571  2.8201 -0.5276  0.4249
 1249SOL    HW3 4763   0.115   2.382   1.644 -0.2101  0.6195 -1.0545
 1249SOL    MW4 4764   0.157   2.458   1.643  0.0170  0.1076  0.3049
 1250SOL     OW 4765   4.461   2.523   2.753  0.3902  0.3704  0.2728
 1250SOL    HW2 4766   4.444   2.610   2.790 -0.9596  0.3298 -0.1759
 1250SOL    HW3 4767   4.520   2.481   2.815  1.8047  1.9117  0.0557
 1250SOL    MW4 4768   4.467   2.529   2.766 -0.2501 -0.3453  0.2275
 1251SOL     OW 4769   2.299   1.756   0.505 -0.5644  0.1596  0.2200
 1251SOL    HW2 4770   2.330   1.829   0.560  0.4467  0.0099 -0.1269
 1251SOL    HW3 4771   2.311   1.787   0.415 -0.6050 -0.2403  0.0753
 1251SOL    MW4 4772   2.305   1.770   0.500 -0.1718  0.3780  0.3843
 1252SOL     OW 4773   2.189   5.936   5.957  0.4713 -0.4900 -0.2575
 1252SOL    HW2 4774   2.263   5.988   5.926  1.0704 -2.6259 -2.7862
 1252SOL    HW3 4775   2.225   5.848   5.969 -0.6481 -0.6282  3.1926
 1252SOL    MW4 4776   2.204   5.931   5.954 -0.3854 -0.5242 -0.3665
 1253SOL     OW 4777   1.162   0.515   1.472 -0.4353 -0.0865 -0.3546
 1253SOL    HW2 4778   1.241   0.558   1.438 -0.4820  0.2866 -0.0092
 1253SOL    HW3 4779   1.106   0.502   1.395  0.3948 -1.3187 -0.7723
 1253SOL    MW4 4780   1.165   0.519   1.458  0.4093 -0.1396  0.1925
 1254SOL     OW 4781   5.760   4.708   4.272  0.0925 -0.1851 -0.0508
 1254SOL    HW2 4782   5.770   4.678   4.182  0.3974  0.3498 -0.1977
 1254SOL    HW3 4783   5.669   4.735   4.279 -0.2371 -1.2716  0.1301
 1254SOL    MW4 4784   5.750   4.708   4.261 -0.6116  0.7279  0.2382
 1255SOL     OW 4785   3.184   3.754   5.382  0.2674 -0.1779  0.6415
 1255SOL    HW2 4786   3.196   3.681   5.321  0.5881  0.2424  0.1954
 1255SOL    HW3 4787   3.187   3.713   5.469  1.9906 -0.4964  0.4554
 1255SOL    MW4 4788   3.186   3.739   5.386  0.1195  0.0048 -0.4265
 1256SOL     OW 4789   2.778   4.823   1.784 -0.3256  0.0867 -0.1846
 1256SOL    HW2 4790   2.719   4.890   1.749  0.5709  0.3061 -1.3552
 1256SOL    HW3 4791   2.818   4.864   1.860 -1.1439  0.1871  0.2089
 1256SOL    MW4 4792   2.775   4.837   1.789 -0.2808  0.2252  0.1895
 1257SOL     OW 4793   0.654   0.524   6.181  0.1365 -0.3435 -0.2445
 1257SOL    HW2 4794   0.708   0.577   6.123  0.5282 -0.0361  0.3835
 1257SOL    HW3 4795   0.712   0.453   6.209  0.5481  0.5149  1.1879
 1257SOL    MW4 4796   0.669   0.522   6.177 -0.4171  0.0555 -0.8384
 1258SOL     OW 4797   4.486   2.160   3.114 -0.6012 -0.0942 -0.2739
 1258SOL    HW2 4798   4.435   2.235   3.143 -0.3582  0.2194 -0.6355
 1258SOL    HW3 4799   4.422   2.101   3.074 -0.8458 -0.2549  0.3539
 1258SOL    MW4 4800   4.471   2.162   3.112  1.3175 -0.6103 -0.0368
 1259SOL     OW 4801   6.100   5.833   1.232  0.8604 -0.2691  0.2151
 1259SOL    HW2 4802   6.087   5.813   1.139 -1.1677  0.0125  0.4081
 1259SOL    HW3 4803   6.088   5.750   1.277  0.1688 -0.0967  0.3570
 1259SOL    MW4 4804   6.097   5.820   1.225 -0.3834 -0.3691  0.5346
 1260SOL     OW 4805   1.037   1.593   5.106  0.6550  0.1960  0.1382
 1260SOL    HW2 4806   1.029   1.514   5.053  1.5783 -0.3754  0.8222
 1260SOL    HW3 4807   1.130   1.597   5.129  0.1500 -0.0195  2.3781
 1260SOL    MW4 4808   1.048   1.583   5.102 -0.1766 -0.4694  0.6149
 1261SOL     OW 4809   2.643   1.581   1.107  0.5758 -0.5075 -0.1103
 1261SOL    HW2 4810   2.676   1.491   1.108  1.1275 -0.3071  0.5635
 1261SOL    HW3 4811   2.670   1.618   1.191  1.7970  0.7952 -1.0079
 1261SOL    MW4 4812   2.651   1.574   1.118  0.7523  0.3698  0.0497
 1262SOL     OW 4813   2.921   0.589   1.381 -0.3117  0.0698  0.2673
 1262SOL    HW2 4814   3.009   0.613   1.408 -0.6198  1.7342 -0.1054
 1262SOL    HW3 4815   2.934   0.522   1.314  0.8333  2.1826 -1.7554
 1262SOL    MW4 4816   2.934   0.583   1.376 -0.1477 -0.1258 -0.7315
 1263SOL     OW 4817   5.180   0.884   5.569 -0.1308  0.0712 -0.5802
 1263SOL    HW2 4818   5.140   0.876   5.483 -1.1750 -1.2932 -0.0094
 1263SOL    HW3 4819   5.174   0.796   5.607 -1.2442  0.9744  1.5168
 1263SOL    MW4 4820   5.174   0.871   5.563  0.3234 -0.1136 -0.6658
 1264SOL     OW 4821   2.345   0.070   2.918 -0.2175  0.1582 -0.4792
 1264SOL    HW2 4822   2.335  -0.013   2.965  0.3265  0.4414  0.1454
 1264SOL    HW3 4823   2.265   0.078   2.867  0.4562 -1.6204 -1.9411
 1264SOL    MW4 4824   2.333   0.060   2.917  0.1295 -0.3151  0.1592
 1265SOL     OW 4825   5.771   3.239   3.218  0.6948 -0.5044  0.1664
 1265SOL    HW2 4826   5.770   3.227   3.123 -2.2148  2.6170 -0.3920
 1265SOL    HW3 4827   5.736   3.157   3.252 -1.0853 -0.6353 -1.7517
 1265SOL    MW4 4828   5.766   3.227   3.210  0.3245 -0.1502  0.3751
 1266SOL     OW 4829   5.689   4.128   1.855 -0.0784 -0.4878  0.1021
 1266SOL    HW2 4830   5.678   4.204   1.798 -0.6246 -2.0384 -1.9653
 1266SOL    HW3 4831   5.693   4.054   1.796  0.9602 -2.0626  2.0208
 1266SOL    MW4 4832   5.688   4.129   1.840  0.3834 -0.1609 -0.4472
 1267SOL     OW 4833   0.022   3.716   2.858 -0.0982 -0.5181 -0.1339
 1267SOL    HW2 4834  -0.021   3.799   2.840  0.2502 -0.3208 -0.0599
 1267SOL    HW3 4835   0.115   3.734   2.849  0.0526 -0.6096  1.0639
 1267SOL    MW4 4836   0.028   3.729   2.854 -0.6741  1.1144 -0.1729
 1268SOL     OW 4837   1.334   2.767   3.264  0.0742 -0.0801  0.1321
 1268SOL    HW2 4838   1.312   2.859   3.277 -1.2518 -0.2714 -0.5504
 1268SOL    HW3 4839   1.311   2.750   3.172  0.9314 -0.9234  0.0618
 1268SOL    MW4 4840   1.328   2.777   3.254  0.3762 -0.3917 -0.0435
 1269SOL     OW 4841   5.384   0.834   3.669  0.0896 -0.0484 -0.3811
 1269SOL    HW2 4842   5.382   0.870   3.758 -0.6161 -1.1615  0.0716
 1269SOL    HW3 4843   5.295   0.805   3.653  0.5697 -1.3341 -0.8306
 1269SOL    MW4 4844   5.372   0.835   3.678  0.4984 -0.9359 -0.1568
 1270SOL     OW 4845   4.889   0.656   0.458  0.3325 -0.2987  0.1765
 1270SOL    HW2 4846   4.856   0.662   0.547  3.3078  0.3490  1.3392
 1270SOL    HW3 4847   4.960   0.721   0.453  0.0540 -0.0660 -2.7806
 1270SOL    MW4 4848   4.894   0.665   0.469 -0.0253 -0.7635  0.0945
 1271SOL     OW 4849   4.428   5.646   3.565  0.2352 -0.4211  0.4471
 1271SOL    HW2 4850   4.430   5.634   3.470 -0.1154  0.1144  0.3643
 1271SOL    HW3 4851   4.375   5.573   3.597 -1.4703  0.5736  0.0092
 1271SOL    MW4 4852   4.421   5.635   3.556 -0.5547  0.0496 -0.1349
 1272SOL     OW 4853   4.797   0.196   5.966  0.1261  0.3022 -0.6426
 1272SOL    HW2 4854   4.773   0.122   5.910  0.6233  0.0632 -0.5398
 1272SOL    HW3 4855   4.778   0.273   5.913  0.3131  0.0852 -1.0269
 1272SOL    MW4 4856   4.791   0.197   5.952  0.3867 -0.1219  0.2535
 1273SOL     OW 4857   2.885   2.428   1.718  0.4044  0.1294  0.1779
 1273SOL    HW2 4858   2.928   2.414   1.633 -0.3387 -0.5452 -0.0894
 1273SOL    HW3 4859   2.957   2.452   1.777  0.9650  0.3378 -0.5737
 1273SOL    MW4 4860   2.900   2.429   1.714 -0.1034  0.3578  0.2011
 1274SOL     OW 4861   0.467   6.290   3.542  0.0956 -0.0914 -0.0154
 1274SOL    HW2 4862   0.522   6.279   3.619 -2.3325  0.5569  1.9599
 1274SOL    HW3 4863   0.435   6.380   3.548 -2.0041 -0.7413 -0.3850
 1274SOL    MW4 4864   0.470   6.300   3.553  0.0102  0.3195 -0.8103
 1275SOL     OW 4865   1.675   5.202   6.245  0.6594 -0.1180  0.0843
 1275SOL    HW2 4866   1.683   5.139   6.316 -0.1254 -0.4098 -0.0765
 1275SOL    HW3 4867   1.651   5.149   6.169  0.9358  0.2630 -0.2723
 1275SOL    MW4 4868   1.673   5.187   6.244  0.1754  0.1225  0.4133
 1276SOL     OW 4869   0.061   3.987   0.063  0.4919  0.0470 -0.2874
 1276SOL    HW2 4870   0.095   3.905   0.028  2.1363 -0.8462  3.0180
 1276SOL    HW3 4871   0.138   4.036   0.089 -0.5422  0.8796  1.4011
 1276SOL    MW4 4872   0.076   3.982   0.062 -0.2652  0.1024 -0.5665
 1277SOL     OW 4873   2.781   2.392   2.689  0.2700  0.4575 -0.3721
 1277SOL    HW2 4874   2.808   2.320   2.632 -0.3261  0.0663 -0.1706
 1277SOL    HW3 4875   2.715   2.353   2.747 -0.2798  1.2449 -0.4640
 1277SOL    MW4 4876   2.776   2.377   2.689  0.5580 -0.1234 -0.0577
 1278SOL     OW 4877   5.021   1.132   2.466  0.2487 -0.0283  0.3881
 1278SOL    HW2 4878   5.012   1.213   2.517  0.6925  1.0265 -1.1067
 1278SOL    HW3 4879   4.938   1.087   2.476  0.9039 -0.7930  3.4539
 1278SOL    MW4 4880   5.009   1.137   2.474 -0.1641 -0.3771 -0.0536
 1279SOL     OW 4881   4.749   4.621   2.369  0.2574 -0.0968  0.0961
 1279SOL    HW2 4882   4.746   4.645   2.461  2.4776  1.3145 -0.1092
 1279SOL    HW3 4883   4.681   4.674   2.328 -0.5834 -0.5602  0.8610
 1279SOL    MW4 4884   4.740   4.631   2.375  0.4055  0.1071  0.3602
 1280SOL     OW 4885   5.723   4.979   5.644 -0.3707  0.3174 -0.3888
 1280SOL    HW2 4886   5.635   4.994   5.677  0.4490  0.2337  2.0974
 1280SOL    HW3 4887   5.746   5.059   5.596 -0.9836  1.3298  0.9474
 1280SOL    MW4 4888   5.715   4.992   5.642  0.3675  0.1233 -0.4987
 1281SOL     OW 4889   1.502   6.178   3.560 -0.2148  0.1462 -0.0901
 1281SOL    HW2 4890   1.533   6.097   3.600 -0.3392 -1.4928 -3.0632
 1281SOL    HW3 4891   1.413   6.189   3.595 -0.5641 -1.5525 -0.3568
 1281SOL    MW4 4892   1.494   6.169   3.570 -0.1984 -0.3412  0.3100
 1282SOL     OW 4893   1.245   3.850   0.578  0.3168  0.7646  0.0104
 1282SOL    HW2 4894   1.238   3.944   0.590 -2.3318  0.5745  0.7186
 1282SOL    HW3 4895   1.226   3.813   0.664  0.9929 -0.4329 -0.3216
 1282SOL    MW4 4896   1.241   3.857   0.591 -0.3117  0.2373  0.0039
 1283SOL     OW 4897   4.027   5.409   0.626 -0.1843  0.4036 -0.2932
 1283SOL    HW2 4898   4.090   5.384   0.693 -0.3720  0.2340 -0.1796
 1283SOL    HW3 4899   3.987   5.326   0.599 -2.0340  0.7187  1.2964
 1283SOL    MW4 4900   4.030   5.394   0.631 -0.3699 -0.2275  0.5548
 1284SOL     OW 4901   4.720   5.602   3.872 -0.4253 -0.3208  0.0704
 1284SOL    HW2 4902   4.719   5.673   3.807  0.1658 -0.4288 -0.0666
 1284SOL    HW3 4903   4.807   5.608   3.912 -0.9216 -0.0097  1.1370
 1284SOL    MW4 4904   4.731   5.612   3.869 -0.0539  0.0168  0.2330
 1285SOL     OW 4905   2.637   1.454   4.862 -0.1158  0.2385 -0.9873
 1285SOL    HW2 4906   2.641   1.457   4.958  0.4605 -0.3180 -0.9870
 1285SOL    HW3 4907   2.728   1.454   4.834 -0.1942 -1.9468 -1.4280
 1285SOL    MW4 4908   2.649   1.454   4.871  0.2108 -0.0414 -0.0208
 1286SOL     OW 4909   2.524   4.270   3.158 -0.4992  0.2582 -0.2613
 1286SOL    HW2 4910   2.484   4.338   3.103 -1.8602 -1.0834 -0.9920
 1286SOL    HW3 4911   2.600   4.240   3.108  0.8264  1.9959  0.5956
 1286SOL    MW4 4912   2.528   4.275   3.144 -0.2348 -0.3556  0.1251
 1287SOL     OW 4913   6.013   4.052   4.260 -0.1970 -0.1723  0.2824
 1287SOL    HW2 4914   6.079   3.987   4.240 -0.7003 -0.9960  1.2244
 1287SOL    HW3 4915   6.033   4.125   4.201  1.7004 -0.2828  0.7266
 1287SOL    MW4 4916   6.024   4.053   4.249 -0.5084 -0.1201 -0.2142
 1288SOL     OW 4917   0.700   2.859   6.076  0.0107  0.5431 -0.0988
 1288SOL    HW2 4918   0.756   2.917   6.025 -0.2905 -0.0878 -1.1638
 1288SOL    HW3 4919   0.748   2.846   6.158 -0.6969  3.6646  0.9430
 1288SOL    MW4 4920   0.714   2.865   6.080 -0.1516 -0.5353  0.3555
 1289SOL     OW 4921   2.244   5.100   3.377 -0.3424  0.2046  0.3265
 1289SOL    HW2 4922   2.265   5.160   3.448  0.9712  0.4403 -0.2197
 1289SOL    HW3 4923   2.283   5.017   3.403  1.3087  0.6194 -0.6578
 1289SOL    MW4 4924   2.252   5.097   3.390 -0.3015 -0.4006  0.0755
 1290SOL     OW 4925   2.623   1.218   1.482 -0.2893 -0.2426 -0.0211
 1290SOL    HW2 4926   2.617   1.178   1.568 -1.4327 -0.1101 -0.0219
 1290SOL    HW3 4927   2.715   1.207   1.456  0.3268  0.6841  1.6587
 1290SOL    MW4 4928   2.635   1.211   1.490  0.0024  0.6565 -0.1483
 1291SOL     OW 4929   3.470   4.642   4.374 -0.0724 -0.0911 -0.3882
 1291SOL    HW2 4930   3.499   4.732   4.362  1.4339 -0.5572 -0.4357
 1291SOL    HW3 4931   3.472   4.604   4.286  3.6387 -1.3741  0.0718
 1291SOL    MW4 4932   3.474   4.649   4.361  0.6203 -0.3454 -0.7154
 1292SOL     OW 4933   2.527   4.997   1.021 -0.0448 -0.1921  0.0674
 1292SOL    HW2 4934   2.524   4.905   0.995  2.2583  0.5246 -3.4656
 1292SOL    HW3 4935   2.583   4.998   1.098 -1.1657 -1.8156  0.9653
 1292SOL    MW4 4936   2.534   4.985   1.027  0.3533  0.3785  0.1769
 1293SOL     OW 4937   3.927   3.238   0.829 -0.3468 -0.3751  0.2725
 1293SOL    HW2 4938   3.832   3.227   0.835 -0.2859 -0.6861  0.7331
 1293SOL    HW3 4939   3.955   3.167   0.771 -0.3965 -0.2558  0.0999
 1293SOL    MW4 4940   3.918   3.227   0.822  0.1623 -0.1439 -0.6982
 1294SOL     OW 4941   6.199   5.561   2.444 -0.3218  0.1319  0.4257
 1294SOL    HW2 4942   6.262   5.524   2.505  0.2833  0.4460  0.0121
 1294SOL    HW3 4943   6.130   5.597   2.499 -0.0381 -0.0381  0.8981
 1294SOL    MW4 4944   6.198   5.561   2.459 -0.2842  0.0907 -0.1913
 1295SOL     OW 4945   6.278   4.998   1.717  0.0600  0.4614  0.2644
 1295SOL    HW2 4946   6.191   5.039   1.714 -0.2970 -0.2918 -0.1742
 1295SOL    HW3 4947   6.332   5.058   1.768 -0.5925  1.1858  0.1186
 1295SOL    MW4 4948   6.273   5.011   1.723  0.3306  0.4027 -0.0490
 1296SOL     OW 4949   0.297   2.101   0.285  0.1285  0.5039 -0.0500
 1296SOL    HW2 4950   0.322   2.191   0.265  1.3304 -0.2400 -2.2337
 1296SOL    HW3 4951   0.258   2.068   0.204 -1.0710 -0.6991  0.9704
 1296SOL    MW4 4952   0.295   2.109   0.272 -0.2571  0.1826 -0.5125
 1297SOL     OW 4953   6.282   4.059   2.542 -0.0319 -0.1470  0.3002
 1297SOL    HW2 4954   6.266   4.022   2.455 -0.4941 -1.3375  0.8691
 1297SOL    HW3 4955   6.338   4.135   2.526 -0.4451 -0.1106 -1.0712
 1297SOL    MW4 4956   6.287   4.064   2.529  0.1842 -0.6799 -0.3075
 1298SOL     OW 4957   1.521   1.755   5.249  0.4350  0.2225 -0.0840
 1298SOL    HW2 4958   1.558   1.803   5.175  0.0500 -0.2628 -0.6035
 1298SOL    HW3 4959   1.574   1.676   5.255 -1.4305 -1.3091 -1.8951
 1298SOL    MW4 4960   1.533   1.750   5.240  0.2222 -0.3551  0.4309
 1299SOL     OW 4961   5.216   0.192   4.460 -0.0904 -0.9680 -0.0705
 1299SOL    HW2 4962   5.174   0.139   4.393  0.4049  1.3297 -2.3478
 1299SOL    HW3 4963   5.305   0.207   4.428 -0.2905  1.4405  0.2677
 1299SOL    MW4 4964   5.222   0.187   4.447  0.0981 -0.0833 -0.3408
 1300SOL     OW 4965   6.257   0.541   3.306 -0.3675  0.4707  0.4489
 1300SOL    HW2 4966   6.292   0.553   3.217 -2.5252 -1.3469 -0.7490
 1300SOL    HW3 4967   6.306   0.467   3.341 -0.1849  0.5627  0.3896
 1300SOL    MW4 4968   6.268   0.533   3.299  0.5433 -0.6149 -0.0136
 1301SOL     OW 4969   2.723   0.610   2.249 -0.1857 -0.0996 -0.3833
 1301SOL    HW2 4970   2.782   0.684   2.263 -0.1915 -0.0222 -0.7548
 1301SOL    HW3 4971   2.760   0.564   2.174  0.0015 -0.6626  0.0524
 1301SOL    MW4 4972   2.736   0.614   2.241  0.2258 -0.6548  1.1474
 1302SOL     OW 4973   3.136   5.876   1.785 -0.0645  0.2415 -0.1790
 1302SOL    HW2 4974   3.051   5.866   1.743 -0.4188  0.9346  0.3680
 1302SOL    HW3 4975   3.195   5.900   1.713 -0.3086 -0.3123 -0.5711
 1302SOL    MW4 4976   3.133   5.878   1.770 -0.2231 -0.2629 -0.3561
 1303SOL     OW 4977   6.245   4.676   6.233  0.2376 -0.0992 -0.0807
 1303SOL    HW2 4978   6.177   4.681   6.166  0.5430  0.2149 -0.3703
 1303SOL    HW3 4979   6.325   4.656   6.184  0.4581  0.1140  0.1928
 1303SOL    MW4 4980   6.247   4.674   6.218  0.1207 -0.2688 -0.3119
 1304SOL     OW 4981   2.141   0.238   3.623 -0.1180 -0.2006 -0.5970
 1304SOL    HW2 4982   2.194   0.207   3.697  0.1914  1.4530 -0.0941
 1304SOL    HW3 4983   2.186   0.204   3.546  0.8311 -0.0641 -0.1148
 1304SOL    MW4 4984   2.154   0.229   3.623 -0.1844 -0.2921  0.2721
 1305SOL     OW 4985   4.114   1.207   1.647  0.4200 -0.5589 -0.5603
 1305SOL    HW2 4986   4.063   1.159   1.713 -0.0689 -0.9683 -1.2242
 1305SOL    HW3 4987   4.196   1.158   1.640 -0.1638 -1.4600 -1.3932
 1305SOL    MW4 4988   4.118   1.194   1.655  0.1743 -0.2619  0.3842
 1306SOL     OW 4989   0.630   1.943   1.221  0.0205 -1.1328 -0.2597
 1306SOL    HW2 4990   0.714   1.953   1.267 -1.3364  0.0651  2.1796
 1306SOL    HW3 4991   0.587   2.027   1.232 -1.0161 -1.2852 -2.6334
 1306SOL    MW4 4992   0.636   1.955   1.229 -0.4453 -0.4986  0.6339
 1307SOL     OW 4993   1.177   1.512   3.016  0.6071 -0.2900 -0.4276
 1307SOL    HW2 4994   1.215   1.428   3.044  2.1808  0.8286  1.0001
 1307SOL    HW3 4995   1.106   1.527   3.078  1.8923  0.5441  0.9096
 1307SOL    MW4 4996   1.173   1.503   3.028 -0.4741 -0.2567  0.3249
 1308SOL     OW 4997   1.161   6.329   3.899  0.1375  0.5780  0.2466
 1308SOL    HW2 4998   1.210   6.408   3.875 -0.9791  1.3226  0.3414
 1308SOL    HW3 4999   1.203   6.298   3.979  0.8037  0.8703  0.0236
 1308SOL    MW4 5000   1.173   6.336   3.906  0.3288  0.5231 -0.2935
 1309SOL     OW 5001   3.428   3.003   0.848  0.1656  0.9508 -0.2368
 1309SOL    HW2 5002   3.346   2.988   0.894 -0.1838  0.1382 -1.0903
 1309SOL    HW3 5003   3.417   3.088   0.805 -1.1744 -0.1678 -2.2475
 1309SOL    MW4 5004   3.416   3.012   0.848 -0.2207  0.0148 -0.7079
 1310SOL     OW 5005   4.197   4.720   5.548 -0.1733 -0.4023 -0.0633
 1310SOL    HW2 5006   4.107   4.724   5.580  0.0809 -2.2696  0.9853
 1310SOL    HW3 5007   4.200   4.786   5.478 -2.4517 -0.5558 -0.3858
 1310SOL    MW4 5008   4.186   4.729   5.543 -0.3691  0.5488 -0.0915
 1311SOL     OW 5009   4.391   1.495   4.197  0.5931 -0.5169 -0.2645
 1311SOL    HW2 5010   4.471   1.476   4.148  1.6107 -1.1941  1.5546
 1311SOL    HW3 5011   4.400   1.587   4.222  0.1054 -0.1904 -1.2444
 1311SOL    MW4 5012   4.403   1.505   4.194  0.2283  0.5406 -0.3111
 1312SOL     OW 5013   6.179   2.848   4.888  0.2525  0.5026  0.3028
 1312SOL    HW2 5014   6.242   2.780   4.909  0.3433  0.3987 -0.2909
 1312SOL    HW3 5015   6.231   2.928   4.879  0.2044  0.5612  0.5213
 1312SOL    MW4 5016   6.194   2.850   4.890  0.0033 -0.3306  0.5493
 1313SOL     OW 5017   5.925   2.594   2.970  0.3041 -0.2660 -0.7407
 1313SOL    HW2 5018   5.886   2.627   3.051  0.8555 -2.2609  0.3932
 1313SOL    HW3 5019   6.002   2.545   2.999 -0.7039 -2.8816 -2.2500
 1313SOL    MW4 5020   5.930   2.592   2.984 -0.3022 -0.5188  0.2719
 1314SOL     OW 5021   2.872   5.013   4.112 -0.4991 -0.1982 -0.1141
 1314SOL    HW2 5022   2.859   5.106   4.131  0.3837  0.0701 -0.7172
 1314SOL    HW3 5023   2.944   4.987   4.170  0.5541  0.0063 -1.2819
 1314SOL    MW4 5024   2.880   5.022   4.122  0.4347 -0.4466 -0.0605
 1315SOL     OW 5025   6.059   2.191   1.505  0.2110 -0.1858 -0.3474
 1315SOL    HW2 5026   6.048   2.216   1.413  0.6704 -1.6107 -0.8221
 1315SOL    HW3 5027   5.986   2.233   1.550 -0.1171  0.4003 -1.3928
 1315SOL    MW4 5028   6.048   2.200   1.499  0.2134  0.0563 -0.0577
 1316SOL     OW 5029   4.630   0.974   0.588  0.6498 -0.3343 -0.0495
 1316SOL    HW2 5030   4.659   0.910   0.523 -0.5927 -0.8346 -0.1356
 1316SOL    HW3 5031   4.548   1.009   0.553  0.1133 -0.3967  1.0920
 1316SOL    MW4 5032   4.623   0.970   0.575  0.0729  0.8111 -0.4867
 1317SOL     OW 5033   5.848   0.654   2.188  0.3780  0.5135  0.2665
 1317SOL    HW2 5034   5.906   0.585   2.156 -0.6727  0.1322 -0.9437
 1317SOL    HW3 5035   5.767   0.608   2.211 -0.4122  1.3267 -0.7623
 1317SOL    MW4 5036   5.845   0.639   2.187 -0.6813  0.0971 -0.4185
 1318SOL     OW 5037   2.758   2.614   5.857 -0.1212  0.1227  0.0560
 1318SOL    HW2 5038   2.785   2.591   5.946 -0.2724  0.2501  0.1348
 1318SOL    HW3 5039   2.838   2.647   5.815  0.3915 -1.6568 -0.4350
 1318SOL    MW4 5040   2.772   2.615   5.863  0.1888  0.0044  0.3344
 1319SOL     OW 5041   1.914   0.852   4.602 -0.0255  0.1264  0.2351
 1319SOL    HW2 5042   1.851   0.867   4.531  1.1169  0.2325 -0.7813
 1319SOL    HW3 5043   1.985   0.803   4.561  1.4862  1.7128  0.8479
 1319SOL    MW4 5044   1.915   0.848   4.587  0.4180 -0.2020 -0.2973
 1320SOL     OW 5045   4.243   1.754   5.361 -0.2342  0.2458 -0.3568
 1320SOL    HW2 5046   4.330   1.788   5.338 -0.5178  0.0518 -1.7801
 1320SOL    HW3 5047   4.239   1.668   5.319 -1.8452  1.0583 -1.9860
 1320SOL    MW4 5048   4.254   1.747   5.352 -0.1871 -0.4841 -0.8130
 1321SOL     OW 5049   6.180   6.379   2.501 -0.3654 -0.0163  0.2911
 1321SOL    HW2 5050   6.180   6.470   2.471 -1.2620  0.3603  1.3701
 1321SOL    HW3 5051   6.208   6.384   2.593 -1.9072 -0.6324  0.8318
 1321SOL    MW4 5052   6.184   6.392   2.509  0.2712  0.2568 -0.7893
 1322SOL     OW 5053   5.440   5.015   3.557 -0.6766 -0.0836 -0.5280
 1322SOL    HW2 5054   5.529   4.988   3.536 -1.1014 -0.5268 -1.9429
 1322SOL    HW3 5055   5.386   4.941   3.527 -1.6090  0.7728 -1.0075
 1322SOL    MW4 5056   5.444   5.002   3.550 -0.5909 -0.3368  0.4551
 1323SOL     OW 5057   4.454   5.947   6.120  0.1547 -0.0650  0.2572
 1323SOL    HW2 5058   4.360   5.941   6.135  0.0219 -0.4678 -0.6611
 1323SOL    HW3 5059   4.493   5.896   6.191 -0.3631 -0.5592  0.1961
 1323SOL    MW4 5060   4.447   5.940   6.131 -0.0334 -0.3692  0.1102
 1324SOL     OW 5061   3.334   1.737   3.406 -0.0731 -0.7019  0.3869
 1324SOL    HW2 5062   3.294   1.693   3.331 -0.2215 -0.9222  0.5944
 1324SOL    HW3 5063   3.423   1.703   3.409 -0.6239 -2.1258  1.4352
 1324SOL    MW4 5064   3.341   1.727   3.396  0.6189  0.0952 -0.7355
 1325SOL     OW 5065   2.032   0.461   1.694  0.2856 -0.6024  0.3247
 1325SOL    HW2 5066   2.065   0.419   1.614 -1.5129  0.9227 -1.3212
 1325SOL    HW3 5067   2.027   0.554   1.672 -3.8191 -0.5430  0.7768
 1325SOL    MW4 5068   2.036   0.467   1.680  0.4067  0.1504 -0.0627
 1326SOL     OW 5069   3.870   2.925   0.405 -0.4549  0.5586 -0.4714
 1326SOL    HW2 5070   3.904   2.837   0.422 -0.0637  0.9672  0.9419
 1326SOL    HW3 5071   3.901   2.946   0.317 -0.1667 -0.5353 -0.6456
 1326SOL    MW4 5072   3.878   2.916   0.396 -0.1698 -0.3081 -0.1154
 1327SOL     OW 5073   5.436   4.222   5.691  0.7607 -0.1011 -0.0423
 1327SOL    HW2 5074   5.377   4.297   5.697 -0.7325 -1.2887  0.6711
 1327SOL    HW3 5075   5.509   4.254   5.638 -0.0651  1.6978 -0.1822
 1327SOL    MW4 5076   5.438   4.236   5.684 -0.0749  0.1890 -0.5971
 1328SOL     OW 5077   6.254   2.047   6.035 -0.2068 -0.0342 -0.4045
 1328SOL    HW2 5078   6.208   2.119   5.992  0.2265 -0.1600 -1.0916
 1328SOL    HW3 5079   6.312   2.012   5.968 -0.0479 -0.7056  0.0736
 1328SOL    MW4 5080   6.256   2.052   6.021 -0.1788 -0.2264  0.0404
 1329SOL     OW 5081   2.794   0.672   0.651  0.0046  0.3280 -1.1915
 1329SOL    HW2 5082   2.854   0.629   0.711  0.6082  1.3112 -1.0675
 1329SOL    HW3 5083   2.837   0.667   0.566  1.3804  2.9446 -0.7514
 1329SOL    MW4 5084   2.808   0.666   0.648  0.2005  0.4871  0.0640
 1330SOL     OW 5085   0.214   5.651   4.907 -0.4644 -0.2696 -0.4306
 1330SOL    HW2 5086   0.183   5.726   4.856  0.1378 -2.0124 -3.6049
 1330SOL    HW3 5087   0.302   5.635   4.875  0.8183 -0.2686  2.7489
 1330SOL    MW4 5088   0.221   5.659   4.896 -0.0137  0.2041 -0.2594
 1331SOL     OW 5089   3.219   1.336   5.555  0.1742 -0.1008  0.6908
 1331SOL    HW2 5090   3.311   1.329   5.530 -0.1007  0.6052 -0.6028
 1331SOL    HW3 5091   3.174   1.269   5.503 -0.1174 -0.0718  0.9027
 1331SOL    MW4 5092   3.225   1.327   5.545  0.0100 -0.0258 -0.2270
 1332SOL     OW 5093   5.407   2.905   3.144 -0.0270  0.3723 -0.1506
 1332SOL    HW2 5094   5.339   2.936   3.203  0.2559  2.1044 -0.6726
 1332SOL    HW3 5095   5.381   2.941   3.058  0.7442 -0.2182 -0.6384
 1332SOL    MW4 5096   5.394   2.914   3.140 -0.0382 -0.1609 -0.0977
 1333SOL     OW 5097   5.265   1.105   6.074 -0.1868  0.4135  0.4154
 1333SOL    HW2 5098   5.290   1.102   5.982  1.5983  0.0020  0.8693
 1333SOL    HW3 5099   5.170   1.095   6.074 -0.0580 -1.4047 -1.3029
 1333SOL    MW4 5100   5.255   1.103   6.062 -0.0576  0.5508 -0.0828
 1334SOL     OW 5101   5.306   3.533   5.843 -0.3953 -0.0496 -0.5038
 1334SOL    HW2 5102   5.256   3.565   5.918  0.2107  0.1897 -0.1902
 1334SOL    HW3 5103   5.326   3.611   5.792  0.0446 -0.0829 -0.3849
 1334SOL    MW4 5104   5.302   3.547   5.846 -0.0229 -0.0340 -0.2421
 1335SOL     OW 5105   6.095   4.564   2.783  0.0346 -0.4824 -0.3392
 1335SOL    HW2 5106   6.098   4.508   2.705 -0.5695 -1.3797  0.2680
 1335SOL    HW3 5107   6.177   4.613   2.779  1.5792 -2.8451  0.1325
 1335SOL    MW4 5108   6.107   4.563   2.772 -0.2862  0.5157  0.0539
 1336SOL     OW 5109   3.185   4.331   3.244  0.4064 -0.1825  0.1442
 1336SOL    HW2 5110   3.186   4.272   3.169 -1.2266 -0.7511  0.5399
 1336SOL    HW3 5111   3.253   4.296   3.303  1.1361 -0.2014 -0.6876
 1336SOL    MW4 5112   3.194   4.319   3.242 -0.2010 -0.7510  0.0339
 1337SOL     OW 5113   1.890   2.596   3.022 -0.1930 -0.4941 -0.1204
 1337SOL    HW2 5114   1.861   2.514   2.982 -1.7107 -0.5607  1.0181
 1337SOL    HW3 5115   1.976   2.577   3.058 -0.5649 -1.6197  0.2009
 1337SOL    MW4 5116   1.897   2.583   3.021  0.4354 -0.8716  0.1060
 1338SOL     OW 5117   6.284   4.306   4.093 -0.4095 -0.4733 -0.6951
 1338SOL    HW2 5118   6.308   4.279   4.181  0.7134  0.1942 -0.7818
 1338SOL    HW3 5119   6.317   4.395   4.084 -0.0025 -0.7263 -1.9796
 1338SOL    MW4 5120   6.291   4.314   4.103  0.0779  0.3568  0.3449
 1339SOL     OW 5121   2.270   4.566   3.730 -0.0999  0.5557 -0.0291
 1339SOL    HW2 5122   2.175   4.555   3.734 -0.1784  1.1919 -0.0699
 1339SOL    HW3 5123   2.301   4.491   3.680 -0.7871  1.3792 -1.7788
 1339SOL    MW4 5124   2.262   4.555   3.724  0.0673 -0.8428  0.1902
 1340SOL     OW 5125   0.991   2.630   0.788  0.3672 -0.3131 -0.1017
 1340SOL    HW2 5126   1.012   2.723   0.779 -1.2960  0.1353  0.1638
 1340SOL    HW3 5127   1.037   2.603   0.867  1.9214 -0.0723 -0.8994
 1340SOL    MW4 5128   1.000   2.639   0.797  0.0176 -0.1732 -0.1928
 1341SOL     OW 5129   3.551   1.832   2.010  0.2536 -0.1149 -0.3095
 1341SOL    HW2 5130   3.610   1.853   2.083 -0.3698 -1.5505  0.6594
 1341SOL    HW3 5131   3.584   1.748   1.977 -1.1746 -0.9200  0.2258
 1341SOL    MW4 5132   3.563   1.823   2.015 -0.4638  0.1068  0.0798
 1342SOL     OW 5133   4.626   0.319   2.594 -0.0665 -0.1107 -0.7511
 1342SOL    HW2 5134   4.561   0.318   2.523 -0.1258 -1.0963 -0.6974
 1342SOL    HW3 5135   4.709   0.296   2.551 -0.1843 -1.1669 -0.4440
 1342SOL    MW4 5136   4.628   0.316   2.579 -0.2640  0.9451 -0.0565
 1343SOL     OW 5137   0.720   2.777   3.515 -0.3061  0.2409  0.1281
 1343SOL    HW2 5138   0.799   2.792   3.463 -0.1438  0.1099  0.3342
 1343SOL    HW3 5139   0.749   2.720   3.586 -0.6025  0.1383  0.1670
 1343SOL    MW4 5140   0.734   2.772   3.517  0.2663  0.0703  1.0449
 1344SOL     OW 5141   4.791   3.111   3.284 -0.2268  0.2231  0.2402
 1344SOL    HW2 5142   4.793   3.108   3.380 -1.2969  1.1887  0.3211
 1344SOL    HW3 5143   4.707   3.153   3.264  0.7262  1.6117 -1.0669
 1344SOL    MW4 5144   4.780   3.116   3.294  0.2304  0.1401 -0.5900
 1345SOL     OW 5145   1.360   3.102   1.731  0.1455 -0.1770 -0.1831
 1345SOL    HW2 5146   1.355   3.124   1.638 -0.4765 -1.3556 -0.4605
 1345SOL    HW3 5147   1.270   3.077   1.754  0.2310  0.3922  0.8215
 1345SOL    MW4 5148   1.347   3.101   1.722  0.3822 -0.7660 -0.4155
 1346SOL     OW 5149   3.834   4.164   2.962  0.0765  0.0509  0.2184
 1346SOL    HW2 5150   3.840   4.240   3.019 -0.5687  1.7775 -1.8965
 1346SOL    HW3 5151   3.918   4.160   2.917  0.0008 -0.3090  0.0994
 1346SOL    MW4 5152   3.846   4.173   2.964  0.0239 -0.4148 -0.7369
 1347SOL     OW 5153   3.798   3.624   1.173 -0.0692  0.5724  0.4942
 1347SOL    HW2 5154   3.863   3.628   1.103 -0.1760 -1.2798  0.2466
 1347SOL    HW3 5155   3.829   3.555   1.232 -1.0454  0.6795  1.1573
 1347SOL    MW4 5156   3.810   3.615   1.172 -0.1739  0.1563 -0.0812
 1348SOL     OW 5157   4.040   2.788   0.080  0.1967 -0.2590  0.0341
 1348SOL    HW2 5158   4.070   2.742   0.159  0.2943 -0.8983 -0.3710
 1348SOL    HW3 5159   4.091   2.750   0.009 -0.0114  0.1993 -0.3651
 1348SOL    MW4 5160   4.051   2.777   0.081  0.3400  0.2469 -0.2401
 1349SOL     OW 5161   0.341   4.915   1.815  0.1472  0.0558 -0.4774
 1349SOL    HW2 5162   0.288   4.859   1.758  0.0984 -0.8219  0.4050
 1349SOL    HW3 5163   0.303   5.002   1.805 -1.1193 -0.4570 -0.2717
 1349SOL    MW4 5164   0.329   4.919   1.806  0.6310  0.1173 -0.0192
 1350SOL     OW 5165   1.941   3.498   0.398  0.3447  0.3385  0.1840
 1350SOL    HW2 5166   1.945   3.487   0.493 -1.7671  1.7965  0.5106
 1350SOL    HW3 5167   1.944   3.593   0.384  2.0263  0.1230 -1.3495
 1350SOL    MW4 5168   1.942   3.509   0.408  0.0230 -0.0518 -0.4474
 1351SOL     OW 5169   1.531   0.764   0.015 -0.4053 -0.0761  0.5329
 1351SOL    HW2 5170   1.458   0.812  -0.024 -1.1088  0.4499  2.3681
 1351SOL    HW3 5171   1.606   0.824   0.007 -0.2033 -0.5116 -1.1188
 1351SOL    MW4 5172   1.531   0.778   0.009 -0.0597  0.2100  0.1599
 1352SOL     OW 5173   5.473   1.440   0.731 -0.3549  0.0865  0.9748
 1352SOL    HW2 5174   5.516   1.363   0.695 -1.4762  0.1602 -0.6440
 1352SOL    HW3 5175   5.427   1.408   0.808 -0.1692 -0.7130  0.7611
 1352SOL    MW4 5176   5.472   1.425   0.736  0.3376  0.2075  0.3015
 1353SOL     OW 5177   2.411   0.758   1.300 -0.0800  0.4519 -0.4278
 1353SOL    HW2 5178   2.439   0.849   1.294  1.9075 -0.1708 -1.1853
 1353SOL    HW3 5179   2.481   0.708   1.258 -0.8334 -1.4897  0.5153
 1353SOL    MW4 5180   2.424   0.763   1.294 -0.2367  0.6325 -0.4891
 1354SOL     OW 5181   4.596   0.183   6.373  0.1577 -0.5511  0.5056
 1354SOL    HW2 5182   4.611   0.277   6.369 -0.5852 -0.4463  0.0791
 1354SOL    HW3 5183   4.676   0.144   6.338 -0.4288 -0.0129 -1.5770
 1354SOL    MW4 5184   4.608   0.190   6.368  0.1206 -0.2819 -0.1206
 1355SOL     OW 5185   0.379   0.243   4.297 -0.1225 -1.0270  0.1486
 1355SOL    HW2 5186   0.453   0.302   4.309 -0.1805 -1.0506  0.6149
 1355SOL    HW3 5187   0.355   0.254   4.205 -1.2550  1.0033  0.6489
 1355SOL    MW4 5188   0.386   0.252   4.286 -0.1826  0.0303  0.3769
 1356SOL     OW 5189   5.413   2.651   5.071  0.4218  0.3167 -0.1525
 1356SOL    HW2 5190   5.453   2.735   5.048 -1.8751  1.4903 -0.1738
 1356SOL    HW3 5191   5.323   2.658   5.039  0.4146 -2.5981 -1.1012
 1356SOL    MW4 5192   5.407   2.663   5.063  0.3998 -0.2498 -0.2516
 1357SOL     OW 5193   1.720   3.582   1.043 -0.0567 -0.2060 -0.0431
 1357SOL    HW2 5194   1.676   3.582   1.128  0.4490 -0.3327  0.2237
 1357SOL    HW3 5195   1.807   3.547   1.061  1.0049  2.1846 -0.1108
 1357SOL    MW4 5196   1.725   3.578   1.057  0.3000 -0.1222  0.3142
 1358SOL     OW 5197   2.600   6.222   6.134  0.7547  0.0907  0.5336
 1358SOL    HW2 5198   2.641   6.209   6.049 -1.7504 -0.3734 -0.6979
 1358SOL    HW3 5199   2.673   6.222   6.196  2.4038 -3.2906 -1.1709
 1358SOL    MW4 5200   2.615   6.221   6.131 -0.0671  0.4965 -0.4284
 1359SOL     OW 5201   2.724   0.474   1.917  0.1393 -0.2341 -0.4924
 1359SOL    HW2 5202   2.756   0.432   1.837 -1.8161 -0.7637 -1.0607
 1359SOL    HW3 5203   2.635   0.441   1.927  1.3057 -2.8705  3.7770
 1359SOL    MW4 5204   2.716   0.464   1.908 -0.3235  0.1941 -0.3356
 1360SOL     OW 5205   2.529   0.901   0.578  0.6017  0.4556  0.4571
 1360SOL    HW2 5206   2.480   0.821   0.599 -0.5800  1.0943  0.2507
 1360SOL    HW3 5207   2.611   0.892   0.626 -0.2773 -0.0470  1.9436
 1360SOL    MW4 5208   2.533   0.889   0.587  0.0308  0.0443  1.1231
 1361SOL     OW 5209   5.329   0.403   2.214 -0.1511  0.3070 -0.2683
 1361SOL    HW2 5210   5.344   0.372   2.125  2.8118 -0.1784  0.3007
 1361SOL    HW3 5211   5.261   0.345   2.248 -0.1985 -0.5267 -1.7066
 1361SOL    MW4 5212   5.322   0.391   2.207  0.4140  0.9309  0.2191
 1362SOL     OW 5213   0.587   1.329   3.187  0.7831  0.0170 -0.0192
 1362SOL    HW2 5214   0.541   1.259   3.232  0.4978  0.4841  0.4288
 1362SOL    HW3 5215   0.518   1.379   3.143  0.7925  0.9758  1.0118
 1362SOL    MW4 5216   0.572   1.327   3.187 -0.1649 -0.2857 -0.3365
 1363SOL     OW 5217   6.264   3.206   3.332 -0.3087 -0.2503  0.0408
 1363SOL    HW2 5218   6.180   3.251   3.342 -0.0304  0.2228  0.2479
 1363SOL    HW3 5219   6.316   3.263   3.275 -0.1918 -0.6363 -0.2442
 1363SOL    MW4 5220   6.259   3.219   3.326 -0.4572  0.2302 -0.3869
 1364SOL     OW 5221   0.670   4.187   2.935  0.4292  0.0602  0.0060
 1364SOL    HW2 5222   0.603   4.255   2.947  0.4006 -0.0239  0.3336
 1364SOL    HW3 5223   0.748   4.235   2.909  0.9161  0.4222  1.9901
 1364SOL    MW4 5224   0.671   4.203   2.933 -0.3127 -0.1365  0.3428
 1365SOL     OW 5225   3.932   2.245   5.549 -0.3070  0.3118 -0.2414
 1365SOL    HW2 5226   3.987   2.196   5.610 -0.0343 -1.3831 -1.7763
 1365SOL    HW3 5227   3.954   2.337   5.566  1.7862 -0.2362  0.3184
 1365SOL    MW4 5228   3.942   2.250   5.560 -0.0606 -0.2123  0.2020
 1366SOL     OW 5229   3.878   0.292   3.341 -0.2916  0.3931 -0.0572
 1366SOL    HW2 5230   3.843   0.216   3.388 -0.1232  0.9359  0.9579
 1366SOL    HW3 5231   3.806   0.355   3.342 -0.5790  0.1206 -1.2603
 1366SOL    MW4 5232   3.864   0.290   3.347  0.0170 -0.1721 -0.4709
 1367SOL     OW 5233   1.894   0.796   0.185  0.4275 -0.5394 -0.3884
 1367SOL    HW2 5234   1.879   0.889   0.200  2.0055 -0.3886  0.4349
 1367SOL    HW3 5235   1.844   0.776   0.105 -0.8308  0.7340  0.0512
 1367SOL    MW4 5236   1.885   0.805   0.176  0.2341  0.2257 -0.3177
 1368SOL     OW 5237   1.666   2.277   5.982 -0.1235  0.1234  0.2833
 1368SOL    HW2 5238   1.629   2.354   6.026  1.6076  0.1869  1.7479
 1368SOL    HW3 5239   1.728   2.313   5.919  0.9611 -0.0294  1.2251
 1368SOL    MW4 5240   1.669   2.292   5.980  0.1463  0.5674 -0.1446
 1369SOL     OW 5241   0.412   0.997   5.307  0.1314 -0.1478 -0.0238
 1369SOL    HW2 5242   0.494   0.984   5.260 -0.0978 -0.3521 -0.3782
 1369SOL    HW3 5243   0.391   1.090   5.294 -0.2571 -0.3387 -0.8903
 1369SOL    MW4 5244   0.420   1.008   5.299  0.0785  0.2152 -0.1280
 1370SOL     OW 5245   2.783   3.887   0.882  0.4574  0.1820 -0.0453
 1370SOL    HW2 5246   2.815   3.908   0.795  1.6255  0.5085  0.4385
 1370SOL    HW3 5247   2.729   3.809   0.870  0.4760  0.3133 -1.0737
 1370SOL    MW4 5248   2.781   3.879   0.869 -0.3720  0.4895 -0.5670
 1371SOL     OW 5249   3.679   2.418   2.974  0.3896  0.8150 -0.1691
 1371SOL    HW2 5250   3.646   2.486   2.916 -2.0785  0.6168  0.8473
 1371SOL    HW3 5251   3.769   2.403   2.946  0.8996  4.1372 -0.7337
 1371SOL    MW4 5252   3.686   2.425   2.963 -0.3073 -0.5327 -0.2280
 1372SOL     OW 5253   3.623   3.042   1.532  0.2070 -0.3526 -0.4635
 1372SOL    HW2 5254   3.630   3.136   1.545 -0.4559 -0.2654 -0.7176
 1372SOL    HW3 5255   3.714   3.011   1.532  0.3659  0.0099  1.5451
 1372SOL    MW4 5256   3.636   3.050   1.534  0.4457 -0.6642  0.2573
 1373SOL     OW 5257   3.557   5.136   3.821  0.2086 -0.1088  0.5523
 1373SOL    HW2 5258   3.601   5.221   3.823 -1.6715  0.9046  1.0516
 1373SOL    HW3 5259   3.467   5.154   3.849 -0.8461 -1.9004 -1.3430
 1373SOL    MW4 5260   3.551   5.149   3.825 -0.2677  0.4367  0.0193
 1374SOL     OW 5261   0.786   5.143   4.215  0.1747 -0.6538 -0.3182
 1374SOL    HW2 5262   0.738   5.199   4.154 -0.7543  1.4464  2.1146
 1374SOL    HW3 5263   0.718   5.106   4.271  1.0727 -1.2817  0.3827
 1374SOL    MW4 5264   0.771   5.146   4.215 -0.4419  0.0072 -0.0654
 1375SOL     OW 5265   2.955   2.440   6.359 -0.4573 -0.0809 -1.1119
 1375SOL    HW2 5266   2.932   2.349   6.377 -1.5435  0.2333 -0.8739
 1375SOL    HW3 5267   2.884   2.473   6.305 -1.3945  1.3331  0.8678
 1375SOL    MW4 5268   2.943   2.433   6.355  0.5627  0.1853 -0.2043
 1376SOL     OW 5269   4.066   2.728   0.566 -0.3787 -0.2561 -0.0429
 1376SOL    HW2 5270   4.081   2.770   0.651 -1.2349 -1.4967  0.7611
 1376SOL    HW3 5271   4.126   2.653   0.566  0.5455  0.4488 -1.1106
 1376SOL    MW4 5272   4.076   2.724   0.577  0.5356  1.0255 -0.1163
 1377SOL     OW 5273   1.936   2.714   4.700  0.0639  0.0748  0.2062
 1377SOL    HW2 5274   1.875   2.645   4.676 -0.5932  0.2848  1.2240
 1377SOL    HW3 5275   1.991   2.725   4.622  1.5410 -2.9939  0.6753
 1377SOL    MW4 5276   1.935   2.706   4.686 -0.4182  0.3566  0.1990
 1378SOL     OW 5277   2.923   3.093   3.493  0.3059 -0.0191 -0.5358
 1378SOL    HW2 5278   3.006   3.063   3.456  0.9025 -3.4914  3.0180
 1378SOL    HW3 5279   2.862   3.020   3.479 -2.5058  2.5910 -3.4370
 1378SOL    MW4 5280   2.925   3.079   3.486  0.0577  0.7686  0.2658
 1379SOL     OW 5281   4.083   3.002   1.335 -0.2826  0.2672  0.5100
 1379SOL    HW2 5282   4.025   3.073   1.309  1.2141  0.9958 -1.0575
 1379SOL    HW3 5283   4.039   2.922   1.305 -0.8108  0.7420  0.0020
 1379SOL    MW4 5284   4.070   3.001   1.327  0.1578 -0.4342 -0.5825
 1380SOL     OW 5285   2.607   2.256   5.600  0.3449  0.1377 -0.7185
 1380SOL    HW2 5286   2.635   2.340   5.636  1.1385 -0.5099  0.2323
 1380SOL    HW3 5287   2.644   2.254   5.512 -0.1966  1.0359 -0.9722
 1380SOL    MW4 5288   2.616   2.267   5.593 -0.3810  0.4297  0.1639
 1381SOL     OW 5289   2.351   5.372   0.620  0.2010 -0.0763  0.5230
 1381SOL    HW2 5290   2.272   5.326   0.588  0.5507  0.1404 -0.7283
 1381SOL    HW3 5291   2.356   5.349   0.712  0.3462 -2.5927 -0.0277
 1381SOL    MW4 5292   2.341   5.363   0.628 -0.4007  0.4170  0.1880
 1382SOL     OW 5293   5.867   1.821   5.582 -0.0556  0.3930 -0.0674
 1382SOL    HW2 5294   5.790   1.860   5.623  0.4593 -0.1401  1.5229
 1382SOL    HW3 5295   5.941   1.860   5.629  0.5109 -1.3782  0.6191
 1382SOL    MW4 5296   5.866   1.831   5.594 -0.3348 -0.0477 -0.7706
 1383SOL     OW 5297   0.349   1.174   1.161  0.1873  0.1346  0.5637
 1383SOL    HW2 5298   0.280   1.127   1.209  0.1148 -0.9817 -0.5683
 1383SOL    HW3 5299   0.392   1.228   1.227 -0.6409 -0.4886  1.6463
 1383SOL    MW4 5300   0.346   1.175   1.176 -0.0346  1.2482  0.3925
 1384SOL     OW 5301   4.103   5.696   2.022 -0.3786 -0.7711  0.0457
 1384SOL    HW2 5302   4.044   5.670   2.093  0.4524  0.3220  1.1855
 1384SOL    HW3 5303   4.141   5.779   2.051  1.0802 -1.0172 -1.0225
 1384SOL    MW4 5304   4.101   5.703   2.035  0.4024  0.0103 -0.0340
 1385SOL     OW 5305   4.682   0.422   0.349 -0.1739  0.1707 -0.2133
 1385SOL    HW2 5306   4.619   0.439   0.279 -1.0289 -2.0192 -0.0551
 1385SOL    HW3 5307   4.629   0.420   0.429  0.1912 -0.8601  0.0210
 1385SOL    MW4 5308   4.666   0.424   0.350  0.2471 -0.5083  0.0298
 1386SOL     OW 5309   0.217   1.380   0.993 -0.0428  0.2625  0.2868
 1386SOL    HW2 5310   0.250   1.467   1.017 -0.5667 -0.0848  2.5153
 1386SOL    HW3 5311   0.276   1.319   1.038  2.2263 -0.7951 -3.6302
 1386SOL    MW4 5312   0.229   1.383   1.002 -0.2666  0.0097  0.1350
 1387SOL     OW 5313   1.770   4.787   0.809 -0.4917  0.2355  0.2350
 1387SOL    HW2 5314   1.702   4.756   0.751 -0.0386  0.0282 -0.1875
 1387SOL    HW3 5315   1.838   4.720   0.806 -0.0071  0.7197  0.1922
 1387SOL    MW4 5316   1.770   4.774   0.801 -0.1345 -0.0699  0.5054
 1388SOL     OW 5317   0.531   1.652   3.693 -0.0676  0.0933  0.3331
 1388SOL    HW2 5318   0.604   1.702   3.728 -0.9878  2.0536 -0.3606
 1388SOL    HW3 5319   0.559   1.626   3.605 -0.6934  2.1614 -0.5354
 1388SOL    MW4 5320   0.544   1.655   3.686 -0.3593 -0.2701 -0.1747
 1389SOL     OW 5321   1.950   1.193   1.287 -0.0093  0.5139  0.1864
 1389SOL    HW2 5322   1.922   1.281   1.260 -1.3386  0.1930  0.4458
 1389SOL    HW3 5323   1.870   1.142   1.287  0.8248 -0.8567 -0.4617
 1389SOL    MW4 5324   1.936   1.198   1.283  0.7927 -0.2060 -0.1679
 1390SOL     OW 5325   1.436   6.029   0.610 -0.7014  0.2343  0.5129
 1390SOL    HW2 5326   1.387   6.109   0.592  1.2616  0.9214 -2.3655
 1390SOL    HW3 5327   1.526   6.059   0.623  0.1662 -1.4921 -1.1354
 1390SOL    MW4 5328   1.441   6.044   0.610  0.5480  0.3391 -0.0029
 1391SOL     OW 5329   0.371   0.322   1.529  0.0597 -0.8554 -0.1397
 1391SOL    HW2 5330   0.342   0.279   1.448 -0.4526  0.4115 -0.6598
 1391SOL    HW3 5331   0.357   0.415   1.513  0.9227 -0.4963  1.0378
 1391SOL    MW4 5332   0.365   0.329   1.516  0.1098 -0.5732  0.0512
 1392SOL     OW 5333   3.190   3.043   5.767 -0.0056 -0.1267  0.2191
 1392SOL    HW2 5334   3.188   3.077   5.856 -1.9551  1.0332 -0.2177
 1392SOL    HW3 5335   3.262   2.980   5.767  1.9976  1.9752  1.8251
 1392SOL    MW4 5336   3.199   3.039   5.779  0.1595 -0.5839  0.5175
 1393SOL     OW 5337   2.777   3.964   0.587 -0.4259  0.7463  1.0264
 1393SOL    HW2 5338   2.750   3.919   0.507 -5.2601  3.9117  0.4519
 1393SOL    HW3 5339   2.870   3.945   0.594 -0.8426 -4.5858 -1.9342
 1393SOL    MW4 5340   2.786   3.956   0.577  0.5826 -0.0367 -0.5243
 1394SOL     OW 5341   2.442   0.439   1.959  0.0727  0.8575  0.6162
 1394SOL    HW2 5342   2.405   0.374   1.899  0.0146  1.4753 -0.0312
 1394SOL    HW3 5343   2.397   0.521   1.937  0.0215  1.0953  1.5319
 1394SOL    MW4 5344   2.431   0.441   1.948 -0.3262  0.3883  0.0967
 1395SOL     OW 5345   5.543   0.802   4.819  0.6167  0.3978  0.5983
 1395SOL    HW2 5346   5.472   0.810   4.755  2.4180  2.1859 -1.3404
 1395SOL    HW3 5347   5.554   0.890   4.854  1.5059  0.0367  1.2618
 1395SOL    MW4 5348   5.536   0.815   4.815 -0.1377 -0.1214  0.9904
 1396SOL     OW 5349   3.569   1.257   4.616  0.3204 -0.3691 -0.5686
 1396SOL    HW2 5350   3.562   1.188   4.550  1.1805 -3.0459  1.9412
 1396SOL    HW3 5351   3.660   1.254   4.644 -0.2084  0.0868  1.3052
 1396SOL    MW4 5352   3.580   1.248   4.611  0.1040  0.1598  0.3997
 1397SOL     OW 5353   2.571   4.125   0.695  0.4821  0.9446  0.1274
 1397SOL    HW2 5354   2.623   4.061   0.647  0.8871  0.6274  0.9699
 1397SOL    HW3 5355   2.582   4.101   0.787 -0.8506  1.1056  0.3480
 1397SOL    MW4 5356   2.579   4.113   0.701  0.0966 -0.3666  0.5587
 1398SOL     OW 5357   3.627   1.806   4.457  0.1279 -0.3938  0.4621
 1398SOL    HW2 5358   3.611   1.803   4.363 -1.4914  1.3831  0.6164
 1398SOL    HW3 5359   3.546   1.774   4.497  0.2699  0.1799  1.2448
 1398SOL    MW4 5360   3.614   1.802   4.450  0.2288  0.2141  0.0677
 1399SOL     OW 5361   3.402   3.722   0.941 -0.2246  0.4447 -0.1647
 1399SOL    HW2 5362   3.367   3.647   0.894 -1.8930  0.4886  0.9274
 1399SOL    HW3 5363   3.404   3.694   1.033 -2.2165  2.1364  0.4838
 1399SOL    MW4 5364   3.398   3.708   0.947  0.4929 -0.4952 -0.4042
 1400SOL     OW 5365   0.303   1.499   0.219  0.3565  0.6557 -0.3327
 1400SOL    HW2 5366   0.389   1.500   0.260  0.7961 -1.4840 -1.0970
 1400SOL    HW3 5367   0.256   1.572   0.260  1.7296  0.4089  1.7942
 1400SOL    MW4 5368   0.308   1.509   0.230 -0.0181  0.0837  0.3861
 1401SOL     OW 5369   0.069   2.120   1.125 -0.2936 -0.0423 -0.1539
 1401SOL    HW2 5370   0.083   2.147   1.216  1.4385  1.2674 -0.7575
 1401SOL    HW3 5371  -0.005   2.172   1.096  0.2719  0.8853  0.0088
 1401SOL    MW4 5372   0.061   2.131   1.133  0.0342  0.1950 -0.1856
 1402SOL     OW 5373   1.250   4.729   5.899  0.3108  0.4710 -0.4392
 1402SOL    HW2 5374   1.209   4.772   5.824  1.5928  0.7293 -1.0296
 1402SOL    HW3 5375   1.236   4.635   5.883  1.4246  0.4600 -1.5705
 1402SOL    MW4 5376   1.243   4.722   5.887 -0.1643 -0.0042 -0.3818
 1403SOL     OW 5377   0.114   0.869   2.845  0.4372 -0.6544  0.0619
 1403SOL    HW2 5378   0.134   0.780   2.873 -0.5778 -0.9254 -0.0447
 1403SOL    HW3 5379   0.022   0.867   2.821 -0.2657  0.9570  2.2215
 1403SOL    MW4 5380   0.105   0.857   2.846  0.1789  0.4242 -0.1267
 1404SOL     OW 5381   0.121   1.312   4.402 -0.0226 -0.6181 -0.7282
 1404SOL    HW2 5382   0.186   1.324   4.471  0.2310  0.1459 -1.0911
 1404SOL    HW3 5383   0.061   1.246   4.437 -0.5888  0.6122  0.7339
 1404SOL    MW4 5384   0.122   1.305   4.416  0.6061 -0.1081 -0.0140
 1405SOL     OW 5385   1.451   1.016   3.773  0.4255 -0.7113 -0.2381
 1405SOL    HW2 5386   1.424   0.964   3.697  0.5655 -1.9494  0.5348
 1405SOL    HW3 5387   1.525   1.068   3.742 -0.1818 -0.4178 -1.2301
 1405SOL    MW4 5388   1.457   1.016   3.759  0.4007  0.2131 -0.4708
 1406SOL     OW 5389   2.748   2.401   3.806 -0.3079 -0.6632 -0.5280
 1406SOL    HW2 5390   2.666   2.372   3.846 -0.0445 -2.4829 -1.2103
 1406SOL    HW3 5391   2.720   2.446   3.726 -0.6827 -0.5062 -0.3105
 1406SOL    MW4 5392   2.734   2.403   3.800 -0.3256 -0.0420 -0.4628
 1407SOL     OW 5393   0.258   4.740   2.036 -0.3494  0.2591 -0.2811
 1407SOL    HW2 5394   0.241   4.663   1.982  1.3304 -0.2069 -0.2256
 1407SOL    HW3 5395   0.257   4.813   1.974 -0.0251 -0.0676 -0.6815
 1407SOL    MW4 5396   0.256   4.739   2.020  0.3993 -0.0727  0.1436
 1408SOL     OW 5397   3.693   0.077   1.915 -0.1359  0.3975 -0.3929
 1408SOL    HW2 5398   3.622   0.080   1.980  0.1750  1.1865 -0.0786
 1408SOL    HW3 5399   3.772   0.090   1.967  0.0801  1.5298 -0.9979
 1408SOL    MW4 5400   3.694   0.079   1.931 -0.2338  0.8228 -0.7655
 1409SOL     OW 5401   2.596   3.704   0.748  0.1107  0.6805 -0.5879
 1409SOL    HW2 5402   2.571   3.678   0.660 -0.8516  1.1068 -0.4497
 1409SOL    HW3 5403   2.681   3.662   0.762 -1.6876 -3.1400 -0.0315
 1409SOL    MW4 5404   2.604   3.695   0.738  0.2665 -0.2085  0.2120
 1410SOL     OW 5405   4.665   3.727   6.268  0.2568  0.4568  0.0379
 1410SOL    HW2 5406   4.597   3.738   6.202 -0.5373  2.0093  1.0455
 1410SOL    HW3 5407   4.689   3.817   6.292  0.9866 -0.0701  1.3913
 1410SOL    MW4 5408   4.659   3.741   6.262  0.1424  0.2732 -0.6397
 1411SOL     OW 5409   4.666   3.460   5.267  0.2596  0.0657 -0.3707
 1411SOL    HW2 5410   4.678   3.438   5.359 -0.1617  3.2266  0.5561
 1411SOL    HW3 5411   4.750   3.497   5.240 -0.5080  1.9333 -0.3146
 1411SOL    MW4 5412   4.679   3.462   5.275  0.2102  0.1533 -0.1457
 1412SOL     OW 5413   6.194   6.245   5.853 -0.9037 -0.1854  0.5914
 1412SOL    HW2 5414   6.229   6.167   5.895 -0.8280  0.7000  2.2224
 1412SOL    HW3 5415   6.142   6.211   5.779 -0.5993 -1.7394  1.0644
 1412SOL    MW4 5416   6.192   6.230   5.849  0.3823  0.2382 -0.6794
 1413SOL     OW 5417   2.044   1.278   1.589 -0.7418  0.2997 -0.6168
 1413SOL    HW2 5418   1.971   1.228   1.627 -0.3446  0.1919  0.0166
 1413SOL    HW3 5419   2.039   1.259   1.495 -1.0981 -0.2707 -0.4881
 1413SOL    MW4 5420   2.033   1.269   1.581  0.5651 -0.3891 -0.2357
 1414SOL     OW 5421   3.148   5.192   2.939 -0.6286  0.3876 -0.1407
 1414SOL    HW2 5422   3.105   5.174   3.022 -0.0500 -0.5130 -0.0253
 1414SOL    HW3 5423   3.241   5.183   2.958 -0.5096 -0.2999 -0.9844
 1414SOL    MW4 5424   3.155   5.188   2.952 -0.0783 -0.1079 -0.2029
 1415SOL     OW 5425   5.337   2.776   1.211  0.4858  0.4909  0.2936
 1415SOL    HW2 5426   5.343   2.681   1.214 -1.4692  0.2453 -1.3594
 1415SOL    HW3 5427   5.319   2.796   1.119 -4.4928  1.9478  1.2703
 1415SOL    MW4 5428   5.335   2.766   1.199  0.3012 -1.0252  0.1923
 1416SOL     OW 5429   0.938   2.198   2.421  0.2673  0.3501  0.4224
 1416SOL    HW2 5430   0.856   2.247   2.429  0.8084  1.3798 -0.1378
 1416SOL    HW3 5431   0.988   2.246   2.354  1.6914  0.2598  1.3857
 1416SOL    MW4 5432   0.934   2.211   2.413  0.2709 -0.4835  0.2656
 1417SOL     OW 5433   3.004   0.998   5.754 -0.3446  0.1797 -0.0484
 1417SOL    HW2 5434   2.953   1.079   5.760  0.1353  0.4770  0.0137
 1417SOL    HW3 5435   2.990   0.955   5.839  1.2966  1.3337  0.8630
 1417SOL    MW4 5436   2.995   1.003   5.766 -0.6329  0.2456 -0.6167
 1418SOL     OW 5437   0.811   4.690   4.078  0.0036 -0.2201 -0.2822
 1418SOL    HW2 5438   0.784   4.682   4.169  0.3084 -0.3443 -0.2025
 1418SOL    HW3 5439   0.838   4.782   4.069  1.0395 -0.4765  0.0503
 1418SOL    MW4 5440   0.811   4.701   4.088  0.1028 -0.0951 -0.1072
 1419SOL     OW 5441   5.511   4.849   4.316  0.3877 -0.2969 -0.7657
 1419SOL    HW2 5442   5.553   4.883   4.395 -0.2298 -1.6760  0.1885
 1419SOL    HW3 5443   5.463   4.772   4.346 -2.0647  0.6508 -1.9639
 1419SOL    MW4 5444   5.510   4.844   4.331 -0.2194 -0.0951 -0.1596
 1420SOL     OW 5445   2.949   4.581   4.056 -0.1506  0.0320  0.5229
 1420SOL    HW2 5446   2.890   4.655   4.070 -0.1588  0.3434 -0.9808
 1420SOL    HW3 5447   2.950   4.569   3.961  1.0425 -0.9333  0.6320
 1420SOL    MW4 5448   2.941   4.589   4.045 -0.0057  0.5816  0.1869
 1421SOL     OW 5449   1.628   0.456   4.274  0.4860 -0.4804 -0.3476
 1421SOL    HW2 5450   1.678   0.439   4.354  1.0810 -0.5515 -0.7306
 1421SOL    HW3 5451   1.543   0.416   4.290  0.9561 -1.4330 -0.1616
 1421SOL    MW4 5452   1.624   0.449   4.287  0.1100  0.0765 -0.6152
 1422SOL     OW 5453   1.937   2.799   0.632 -0.1977  0.2865  0.3498
 1422SOL    HW2 5454   1.860   2.761   0.674  0.9057  0.1690  2.4153
 1422SOL    HW3 5455   1.981   2.848   0.702  0.6295  1.9312 -1.2233
 1422SOL    MW4 5456   1.933   2.801   0.647 -0.3886 -0.2432 -0.5654
 1423SOL     OW 5457   4.152   4.302   4.305 -0.1316 -0.4972 -0.2744
 1423SOL    HW2 5458   4.193   4.385   4.327  0.9530 -0.9327 -0.5947
 1423SOL    HW3 5459   4.062   4.325   4.281  0.0857  0.5459 -0.1304
 1423SOL    MW4 5460   4.146   4.316   4.305  0.1167  0.4198  0.5266
 1424SOL     OW 5461   3.020   5.892   2.536  0.3110 -0.2343  0.4125
 1424SOL    HW2 5462   2.953   5.932   2.481  0.3281 -0.6727  0.0646
 1424SOL    HW3 5463   3.102   5.928   2.503  0.1637  1.7537  2.0444
 1424SOL    MW4 5464   3.022   5.902   2.524 -0.1095  0.2666 -0.3317
 1425SOL     OW 5465   0.165   4.481   1.917 -0.0474  0.3297 -0.1550
 1425SOL    HW2 5466   0.179   4.423   1.842 -0.2757 -0.6966  0.5748
 1425SOL    HW3 5467   0.071   4.477   1.934 -0.2066  1.5945 -0.6092
 1425SOL    MW4 5468   0.155   4.473   1.909  0.0551  0.0356  0.1405
 1426SOL     OW 5469   3.605   1.860   5.187 -0.9038 -0.7553 -0.1721
 1426SOL    HW2 5470   3.601   1.956   5.185  2.2769 -0.4489  1.3056
 1426SOL    HW3 5471   3.688   1.839   5.144 -0.6940 -2.7071  1.0694
 1426SOL    MW4 5472   3.616   1.870   5.181  0.3492  0.5734  0.1691
 1427SOL     OW 5473   4.181   2.251   4.762 -0.0655 -0.1666  0.2467
 1427SOL    HW2 5474   4.157   2.158   4.761  0.0570 -0.2015  0.4445
 1427SOL    HW3 5475   4.124   2.291   4.697 -0.7200 -0.2356  0.7715
 1427SOL    MW4 5476   4.170   2.244   4.754  0.5769  1.2095  0.2069
 1428SOL     OW 5477   6.192   3.942   5.317 -0.6572 -0.3197 -0.3289
 1428SOL    HW2 5478   6.271   3.967   5.270  0.1415 -2.0386  0.0005
 1428SOL    HW3 5479   6.147   4.024   5.335  1.2699  0.7402 -0.1470
 1428SOL    MW4 5480   6.196   3.956   5.313 -0.3838  0.3683  0.1360
 1429SOL     OW 5481   4.431   5.123   0.199  0.1807  0.1533  0.5369
 1429SOL    HW2 5482   4.344   5.146   0.231 -0.8630 -2.6521  0.0209
 1429SOL    HW3 5483   4.419   5.105   0.106  1.1156 -1.0260  0.6123
 1429SOL    MW4 5484   4.418   5.123   0.191 -0.0482  0.6855  0.2943
 1430SOL     OW 5485   1.132   2.960   1.299  0.0924  0.2271  0.7717
 1430SOL    HW2 5486   1.178   3.031   1.255 -0.3028 -0.4285 -0.7975
 1430SOL    HW3 5487   1.089   3.001   1.374 -0.3164  1.6915 -0.2169
 1430SOL    MW4 5488   1.132   2.974   1.303 -0.5483 -0.8093 -0.1387
 1431SOL     OW 5489   2.966   5.225   5.199 -1.1751 -0.0857 -0.0388
 1431SOL    HW2 5490   3.019   5.288   5.247 -0.8055 -2.2546  2.6802
 1431SOL    HW3 5491   3.016   5.208   5.119  0.3402  0.6731  0.7007
 1431SOL    MW4 5492   2.979   5.231   5.195 -0.4639  0.4824 -0.3223
 1432SOL     OW 5493   4.058   4.643   3.749  0.3232 -0.0392 -0.0401
 1432SOL    HW2 5494   4.003   4.607   3.819  0.6214 -1.6400 -0.6038
 1432SOL    HW3 5495   4.001   4.646   3.672  0.8164 -1.0496 -0.4531
 1432SOL    MW4 5496   4.043   4.639   3.748 -0.0705 -0.0873  0.3729
 1433SOL     OW 5497   3.454   4.120   1.335 -0.6236 -0.5195 -0.3575
 1433SOL    HW2 5498   3.519   4.184   1.307  0.4605 -1.0503  0.8710
 1433SOL    HW3 5499   3.502   4.038   1.344 -1.4339 -0.9098  0.6570
 1433SOL    MW4 5500   3.469   4.118   1.333 -0.5471  0.0707 -0.0233
 1434SOL     OW 5501   2.924   2.109   4.579  0.0800  0.3459  0.0347
 1434SOL    HW2 5502   2.961   2.032   4.535 -0.2570 -0.9015  1.8272
 1434SOL    HW3 5503   2.829   2.098   4.569 -0.0528 -0.4382  1.7288
 1434SOL    MW4 5504   2.916   2.097   4.572 -0.0372 -0.4201 -0.6163
 1435SOL     OW 5505   4.412   5.530   6.417  0.4170  0.2488  0.8921
 1435SOL    HW2 5506   4.467   5.459   6.384  2.2295  1.8734  0.2066
 1435SOL    HW3 5507   4.329   5.519   6.371  0.9766 -0.8876  0.0985
 1435SOL    MW4 5508   4.409   5.519   6.407 -0.3320 -0.0352 -0.3707
 1436SOL     OW 5509   2.478   6.357   3.357  0.4388  0.0513  0.4632
 1436SOL    HW2 5510   2.562   6.385   3.321  1.2376 -2.1639  0.4803
 1436SOL    HW3 5511   2.437   6.307   3.286 -1.4747  2.0875  0.0168
 1436SOL    MW4 5512   2.483   6.354   3.343 -0.0492 -0.0826 -0.5388
 1437SOL     OW 5513   2.509   3.760   2.699  0.4549  0.2967  0.4473
 1437SOL    HW2 5514   2.479   3.751   2.789 -0.4774 -0.7537  0.0523
 1437SOL    HW3 5515   2.438   3.806   2.654  0.9737  0.9411  0.2709
 1437SOL    MW4 5516   2.496   3.765   2.705 -0.4915 -0.9200  0.4137
 1438SOL     OW 5517   2.582   3.557   2.527 -0.2080 -0.1604 -0.3108
 1438SOL    HW2 5518   2.576   3.641   2.573 -1.0191 -0.1723 -0.3892
 1438SOL    HW3 5519   2.513   3.503   2.567  0.8585 -1.0923  0.3537
 1438SOL    MW4 5520   2.572   3.561   2.539 -0.3119 -0.2742 -0.3883
 1439SOL     OW 5521   1.856   3.623   1.614 -0.6119 -0.2341  0.0914
 1439SOL    HW2 5522   1.923   3.564   1.648  0.8618  1.1809 -0.2438
 1439SOL    HW3 5523   1.885   3.644   1.525 -1.6298  0.2273 -0.1495
 1439SOL    MW4 5524   1.869   3.618   1.607  0.4783  0.0297 -0.0549
 1440SOL     OW 5525   5.251   3.777   2.649 -0.0129  0.7836 -0.3939
 1440SOL    HW2 5526   5.176   3.744   2.600 -1.1757  1.3012  0.9614
 1440SOL    HW3 5527   5.325   3.765   2.590 -1.2804  1.0574 -2.1156
 1440SOL    MW4 5528   5.251   3.771   2.635 -0.0712  0.1587 -0.0677
 1441SOL     OW 5529   4.629   3.767   0.927  0.1177 -0.4701  0.0161
 1441SOL    HW2 5530   4.695   3.823   0.966  0.2748  0.0836 -1.0085
 1441SOL    HW3 5531   4.642   3.775   0.832  0.4920 -2.6300 -0.1835
 1441SOL    MW4 5532   4.639   3.775   0.920  0.3710 -0.2256  0.1739
 1442SOL     OW 5533   1.937   5.437   0.886  0.2534  0.0755 -0.7399
 1442SOL    HW2 5534   1.858   5.444   0.940  0.3807 -2.5803 -0.0432
 1442SOL    HW3 5535   1.905   5.408   0.801  0.2036  2.7161 -1.6969
 1442SOL    MW4 5536   1.922   5.434   0.882  0.6572 -0.4495 -0.0418
 1443SOL     OW 5537   1.259   0.478   3.187 -0.2737  0.0847  0.4535
 1443SOL    HW2 5538   1.205   0.465   3.109 -0.5962  0.1370  0.6656
 1443SOL    HW3 5539   1.224   0.415   3.251  1.7402 -1.9436 -0.2993
 1443SOL    MW4 5540   1.247   0.468   3.185  0.0019 -0.1132  0.0550
 1444SOL     OW 5541   5.770   6.335   3.426 -0.3707 -0.0803 -0.3343
 1444SOL    HW2 5542   5.734   6.384   3.353  0.9987 -1.1009 -1.7574
 1444SOL    HW3 5543   5.851   6.296   3.392 -0.1626 -1.3483  1.4409
 1444SOL    MW4 5544   5.776   6.336   3.412 -0.2489 -0.0478 -0.1903
 1445SOL     OW 5545   0.016   0.744   3.650 -0.6969 -0.0056 -0.2474
 1445SOL    HW2 5546   0.044   0.784   3.731 -0.6144  1.2009 -0.8532
 1445SOL    HW3 5547   0.090   0.755   3.590 -1.4630  0.8934 -1.0712
 1445SOL    MW4 5548   0.029   0.751   3.652 -0.0938  0.2328 -0.2966
 1446SOL     OW 5549   4.080   2.023   4.436 -0.0727 -0.0086 -0.0465
 1446SOL    HW2 5550   4.160   2.070   4.460  0.6658 -1.8389  1.3925
 1446SOL    HW3 5551   4.011   2.066   4.486  0.3287  0.4640  0.1089
 1446SOL    MW4 5552   4.082   2.034   4.446  0.0547  0.2650  0.1790
 1447SOL     OW 5553   1.298   4.961   3.443  0.4194  0.4426 -0.8701
 1447SOL    HW2 5554   1.383   4.987   3.409  2.2597 -3.5381  0.0524
 1447SOL    HW3 5555   1.295   4.998   3.532  0.2622  2.1609 -1.5552
 1447SOL    MW4 5556   1.309   4.969   3.451  0.0399  0.3407 -0.5151
 1448SOL     OW 5557   1.949   3.842   5.823 -0.3631  0.2451 -0.1223
 1448SOL    HW2 5558   1.917   3.813   5.737 -0.8969  0.1144  0.1164
 1448SOL    HW3 5559   1.900   3.921   5.842 -2.1314 -1.0775  1.1804
 1448SOL    MW4 5560   1.938   3.848   5.814  0.1034  0.7936 -0.5077
 1449SOL     OW 5561   4.167   5.966   0.564  0.2534  0.9842  0.1609
 1449SOL    HW2 5562   4.236   6.027   0.538  2.0765  0.1898  2.7855
 1449SOL    HW3 5563   4.207   5.879   0.555 -1.2140  0.3314 -0.4572
 1449SOL    MW4 5564   4.182   5.963   0.559 -0.1919 -0.0913 -0.3160
 1450SOL     OW 5565   5.268   5.544   0.836 -0.2897  0.4587  0.0780
 1450SOL    HW2 5566   5.351   5.497   0.824  0.4454  1.0454  2.3884
 1450SOL    HW3 5567   5.262   5.601   0.759  2.1737  1.4161  0.5152
 1450SOL    MW4 5568   5.278   5.545   0.824 -0.4360 -0.2465  0.5869
 1451SOL     OW 5569   6.114   2.572   2.228  0.0870 -1.0647  0.4127
 1451SOL    HW2 5570   6.084   2.600   2.315  0.1224 -3.3791  1.2597
 1451SOL    HW3 5571   6.045   2.603   2.169 -0.1767  0.1642  1.3088
 1451SOL    MW4 5572   6.101   2.580   2.232 -0.3154 -0.1875  0.1253
 1452SOL     OW 5573   2.749   0.967   3.239 -0.0479 -0.1343  0.2598
 1452SOL    HW2 5574   2.827   0.940   3.191 -0.8348 -1.0673 -0.5276
 1452SOL    HW3 5575   2.775   0.965   3.331  0.6422 -1.1931  0.0561
 1452SOL    MW4 5576   2.763   0.963   3.245  0.2583 -0.3128  0.6242
 1453SOL     OW 5577   3.965   3.613   4.540  0.6393 -0.6244 -0.1535
 1453SOL    HW2 5578   3.883   3.564   4.547  1.9606 -2.9161  0.7693
 1453SOL    HW3 5579   3.985   3.639   4.630 -0.0703  1.8013 -0.6417
 1453SOL    MW4 5580   3.957   3.610   4.553 -0.0500 -0.0667  0.0337
 1454SOL     OW 5581   5.155   1.081   4.828  0.3043  0.2552 -0.0311
 1454SOL    HW2 5582   5.133   1.161   4.876 -1.7012  0.9814 -1.9713
 1454SOL    HW3 5583   5.220   1.108   4.763 -1.3342  0.7095 -1.5659
 1454SOL    MW4 5584   5.160   1.095   4.826  0.1381  0.5837  0.7460
 1455SOL     OW 5585   6.296   6.415   3.461 -0.4154  0.5676 -0.3843
 1455SOL    HW2 5586   6.309   6.460   3.544  2.7323  0.2201 -0.5800
 1455SOL    HW3 5587   6.230   6.348   3.479  0.1617  0.5376  1.7871
 1455SOL    MW4 5588   6.289   6.412   3.474  0.1685 -0.2247 -0.4398
 1456SOL     OW 5589   4.114   0.899   0.954 -0.3539 -0.1749  0.1638
 1456SOL    HW2 5590   4.205   0.919   0.979 -0.7072 -0.7949  2.0445
 1456SOL    HW3 5591   4.110   0.804   0.951 -1.1395 -0.1759  0.9168
 1456SOL    MW4 5592   4.126   0.889   0.956  0.0127  0.3390  0.2735
 1457SOL     OW 5593   5.066   5.884   3.057  0.0908  0.4203 -0.1176
 1457SOL    HW2 5594   5.043   5.938   2.981  0.6436  1.7472  0.6297
 1457SOL    HW3 5595   5.145   5.837   3.029  0.4276  1.0776 -0.2921
 1457SOL    MW4 5596   5.073   5.885   3.043  0.1206 -0.0305  0.5049
 1458SOL     OW 5597   0.326   5.883   2.253  0.5302 -0.7492 -0.4578
 1458SOL    HW2 5598   0.330   5.831   2.172  0.7164 -0.0289 -0.9273
 1458SOL    HW3 5599   0.412   5.925   2.258  0.5752 -0.9150  0.2063
 1458SOL    MW4 5600   0.338   5.882   2.243 -0.1982 -0.0491 -0.3974
 1459SOL     OW 5601   0.550   6.350   5.130  0.4652 -0.3334  0.3126
 1459SOL    HW2 5602   0.455   6.347   5.116 -0.1229  0.5605  3.2937
 1459SOL    HW3 5603   0.575   6.259   5.140 -0.2604 -0.5341  0.3933
 1459SOL    MW4 5604   0.541   6.338   5.129 -0.0057  0.5728 -0.8880
 1460SOL     OW 5605   3.652   6.174   0.739 -0.0015  0.3791 -0.1673
 1460SOL    HW2 5606   3.675   6.153   0.648 -0.6481 -1.9473  0.1598
 1460SOL    HW3 5607   3.735   6.202   0.778  0.6678 -0.3777 -0.9927
 1460SOL    MW4 5608   3.666   6.175   0.732  0.0916  0.0498  0.3195
 1461SOL     OW 5609   0.513   4.186   6.322 -0.0469 -0.2940 -0.1111
 1461SOL    HW2 5610   0.449   4.118   6.343  0.3459 -0.7343 -0.2897
 1461SOL    HW3 5611   0.495   4.209   6.231  0.5793 -1.0452 -0.4468
 1461SOL    MW4 5612   0.502   4.180   6.313  0.4547  0.4870  0.0250
 1462SOL     OW 5613   3.482   5.630   1.702 -0.0024  0.1064  0.4707
 1462SOL    HW2 5614   3.450   5.597   1.618 -0.1029  0.1287  0.4997
 1462SOL    HW3 5615   3.445   5.570   1.767  2.5614 -1.8065  0.3064
 1462SOL    MW4 5616   3.473   5.618   1.700  0.0236  0.2290 -0.2465
 1463SOL     OW 5617   6.054   5.141   1.671 -0.3370  0.4792 -0.3865
 1463SOL    HW2 5618   5.969   5.177   1.695 -1.3298 -1.9468  0.0934
 1463SOL    HW3 5619   6.039   5.102   1.584  0.1755 -0.2022 -0.1774
 1463SOL    MW4 5620   6.040   5.141   1.663 -0.6173  0.0727  0.5303
 1464SOL     OW 5621   0.181   0.619   2.932  0.0912  0.4487 -0.3049
 1464SOL    HW2 5622   0.242   0.568   2.987  0.8964  2.7867  1.1054
 1464SOL    HW3 5623   0.101   0.566   2.931  0.8815 -0.8649  1.0753
 1464SOL    MW4 5624   0.178   0.605   2.939 -0.1893 -0.3333 -0.4726
 1465SOL     OW 5625   4.844   3.297   1.113 -0.0745 -0.0138 -0.5478
 1465SOL    HW2 5626   4.913   3.246   1.068 -0.8202 -1.5896  0.0156
 1465SOL    HW3 5627   4.871   3.388   1.101  1.6931 -0.5406 -1.0243
 1465SOL    MW4 5628   4.857   3.302   1.105 -0.3701  0.6209 -0.0040
 1466SOL     OW 5629   1.461   6.061   4.286 -1.0149  0.3612  0.3513
 1466SOL    HW2 5630   1.448   5.994   4.353 -0.0886  1.8868  2.1690
 1466SOL    HW3 5631   1.506   6.017   4.215 -2.0867 -1.3363  0.6763
 1466SOL    MW4 5632   1.465   6.047   4.285 -0.4593  0.2103  0.3750
 1467SOL     OW 5633   5.243   3.363   4.590  0.4833  0.0567  0.1963
 1467SOL    HW2 5634   5.314   3.405   4.638 -0.5796  0.9946  0.9953
 1467SOL    HW3 5635   5.187   3.435   4.561 -0.0639 -0.6493 -0.5720
 1467SOL    MW4 5636   5.245   3.378   4.592  0.0080  0.1024 -0.0221
 1468SOL     OW 5637   1.199   2.866   4.796  0.0675  0.2593 -0.5919
 1468SOL    HW2 5638   1.286   2.904   4.789 -0.9226  2.9124 -0.0303
 1468SOL    HW3 5639   1.209   2.794   4.858  1.6027  1.5458  0.7605
 1468SOL    MW4 5640   1.212   2.862   4.803 -0.0047  0.5000 -0.3848
 1469SOL     OW 5641   4.908   2.737   2.705 -0.3174  0.8960  0.1468
 1469SOL    HW2 5642   4.906   2.805   2.772 -1.2695  0.6815  0.3472
 1469SOL    HW3 5643   4.873   2.780   2.626  0.7392  1.1307 -0.2115
 1469SOL    MW4 5644   4.903   2.752   2.703 -0.3111  0.0513  0.2710
 1470SOL     OW 5645   5.902   5.128   3.514  0.2324 -0.2496  0.0297
 1470SOL    HW2 5646   5.987   5.117   3.472  0.7141 -3.1997  1.4963
 1470SOL    HW3 5647   5.910   5.080   3.597 -2.4533  0.5065  0.8281
 1470SOL    MW4 5648   5.914   5.121   3.520  0.1389 -0.4675  0.3483
 1471SOL     OW 5649   2.166   2.268   6.121  0.1251  0.3462  0.1691
 1471SOL    HW2 5650   2.178   2.311   6.037  0.7859 -0.1457  0.0043
 1471SOL    HW3 5651   2.235   2.201   6.124  0.8944  1.1619  1.6151
 1471SOL    MW4 5652   2.177   2.265   6.110  0.3051 -0.3038 -0.6144
 1472SOL     OW 5653   3.896   5.939   4.552  0.9417 -0.0061 -0.5175
 1472SOL    HW2 5654   3.819   5.987   4.523  0.5455 -0.0845  0.3784
 1472SOL    HW3 5655   3.886   5.852   4.513 -0.3104 -0.5656  0.9549
 1472SOL    MW4 5656   3.885   5.934   4.543  0.6421 -0.9742  0.0293
 1473SOL     OW 5657   3.150   0.030   4.798  0.7594  0.2392  0.5620
 1473SOL    HW2 5658   3.200  -0.007   4.725  1.3545  1.4651  0.3295
 1473SOL    HW3 5659   3.059   0.012   4.775  0.9134  0.9268 -0.6862
 1473SOL    MW4 5660   3.145   0.023   4.785 -0.0856  0.2639  0.2302
 1474SOL     OW 5661   1.824   0.792   2.555 -0.0536 -0.5119  0.2539
 1474SOL    HW2 5662   1.830   0.845   2.634  0.7657  2.1481 -1.4623
 1474SOL    HW3 5663   1.734   0.802   2.525 -0.0111 -0.4518  0.1471
 1474SOL    MW4 5664   1.813   0.800   2.561 -0.3193  0.7859  0.4130
 1475SOL     OW 5665   0.470   1.156   4.816  0.7330 -0.4839 -0.5365
 1475SOL    HW2 5666   0.512   1.091   4.760 -0.5204 -0.7728 -1.1830
 1475SOL    HW3 5667   0.419   1.211   4.756 -0.1406 -0.4199  0.2357
 1475SOL    MW4 5668   0.469   1.155   4.801  0.2998  0.2151  0.3691
 1476SOL     OW 5669   1.163   1.883   0.280 -0.3510 -0.1154 -0.1506
 1476SOL    HW2 5670   1.124   1.956   0.233  0.4778  0.2115 -0.3468
 1476SOL    HW3 5671   1.234   1.922   0.331 -1.7136 -0.3124  2.0229
 1476SOL    MW4 5672   1.168   1.898   0.281 -0.0211  0.0046  0.3625
 1477SOL     OW 5673   4.297   5.702   0.636  0.4958 -0.0429  0.3279
 1477SOL    HW2 5674   4.389   5.677   0.634  0.6980  0.6833 -1.1853
 1477SOL    HW3 5675   4.271   5.703   0.544 -1.1476 -0.6578  0.7598
 1477SOL    MW4 5676   4.306   5.699   0.624 -0.3118 -0.0681  0.4809
 1478SOL     OW 5677   0.415   2.395   3.150 -0.4214  0.0887 -0.5701
 1478SOL    HW2 5678   0.485   2.454   3.121 -0.2914 -0.0807 -0.6074
 1478SOL    HW3 5679   0.369   2.443   3.219 -1.8731  1.2526 -2.2572
 1478SOL    MW4 5680   0.418   2.409   3.155 -0.0554  0.1327  0.1969
 1479SOL     OW 5681   3.917   0.592   2.648  0.3472 -0.1844 -0.1505
 1479SOL    HW2 5682   3.935   0.588   2.742 -0.1387  0.1863 -0.0380
 1479SOL    HW3 5683   3.834   0.545   2.636 -2.7799  4.4897  0.5023
 1479SOL    MW4 5684   3.909   0.585   2.659  0.2308 -0.9531  0.6225
 1480SOL     OW 5685   0.672   3.915   5.427  0.0387 -0.1440  0.5604
 1480SOL    HW2 5686   0.577   3.919   5.436  0.0180 -0.8864  0.7496
 1480SOL    HW3 5687   0.703   3.898   5.516  0.3792  0.5047  0.5704
 1480SOL    MW4 5688   0.664   3.914   5.440 -0.3157  0.1692  0.7758
 1481SOL     OW 5689   2.876   1.002   3.482  0.2339 -0.2696 -0.9895
 1481SOL    HW2 5690   2.909   1.086   3.449  1.9481 -0.5628 -0.1016
 1481SOL    HW3 5691   2.949   0.942   3.473 -0.4710 -1.2889 -0.1437
 1481SOL    MW4 5692   2.890   1.005   3.476  0.2358  0.6118 -0.6888
 1482SOL     OW 5693   5.796   4.328   1.432  0.0586 -0.0699  0.9871
 1482SOL    HW2 5694   5.814   4.286   1.348 -1.9424 -1.8313  1.3507
 1482SOL    HW3 5695   5.872   4.309   1.486 -0.1124 -1.9396  0.6263
 1482SOL    MW4 5696   5.808   4.320   1.428 -0.0518 -0.7121 -0.7028
 1483SOL     OW 5697   3.431   3.414   2.674 -0.8629 -0.4117 -0.4132
 1483SOL    HW2 5698   3.497   3.347   2.654 -0.3073  0.4634 -1.6642
 1483SOL    HW3 5699   3.350   3.381   2.635 -1.5195 -2.0104  2.0548
 1483SOL    MW4 5700   3.429   3.401   2.666 -0.6958  0.4486  0.4968
 1484SOL     OW 5701   1.908   0.128   1.863  0.1136 -0.0719  0.3292
 1484SOL    HW2 5702   2.002   0.116   1.850  0.0083  1.1693 -2.0898
 1484SOL    HW3 5703   1.897   0.222   1.874 -1.0033  0.1323 -1.8879
 1484SOL    MW4 5704   1.919   0.139   1.863 -0.8806  0.1237  0.5705
 1485SOL     OW 5705   1.098   3.061   3.588 -0.0809 -0.4652 -0.5969
 1485SOL    HW2 5706   1.188   3.039   3.612 -0.2784 -1.6358 -0.8579
 1485SOL    HW3 5707   1.083   3.147   3.627  1.2501 -0.1057 -0.8333
 1485SOL    MW4 5708   1.108   3.069   3.596 -0.1987 -0.1353  0.8286
 1486SOL     OW 5709   2.168   3.484   3.087  0.6960  0.2214 -0.0247
 1486SOL    HW2 5710   2.159   3.579   3.079  1.5541  0.3589  0.5043
 1486SOL    HW3 5711   2.233   3.460   3.021 -1.1095 -0.3276 -1.6878
 1486SOL    MW4 5712   2.175   3.493   3.077 -0.1429 -0.4666  0.2814
 1487SOL     OW 5713   5.682   5.116   4.069  0.5543 -0.0905  0.0520
 1487SOL    HW2 5714   5.655   5.075   3.986  0.7741  0.3390 -0.2334
 1487SOL    HW3 5715   5.636   5.200   4.070 -0.1696 -0.4805  0.7972
 1487SOL    MW4 5716   5.672   5.122   4.058 -0.1461  0.0764  0.2054
 1488SOL     OW 5717   1.030   5.798   5.217  0.6705 -0.2755  0.3644
 1488SOL    HW2 5718   1.021   5.739   5.142  0.7020  0.4791 -0.2412
 1488SOL    HW3 5719   1.124   5.817   5.222  0.7286 -0.6789  0.8762
 1488SOL    MW4 5720   1.041   5.793   5.208 -0.2426  0.2794  0.3877
 1489SOL     OW 5721   3.611   5.660   1.332  0.5026 -0.3729 -0.2431
 1489SOL    HW2 5722   3.517   5.652   1.316  0.6475 -0.6505 -1.0330
 1489SOL    HW3 5723   3.620   5.739   1.386 -0.1940 -0.4440 -0.0155
 1489SOL    MW4 5724   3.600   5.669   1.337  0.0527 -0.2403  0.9398
 1490SOL     OW 5725   0.228   3.625   4.321  0.1000  0.1763  0.3581
 1490SOL    HW2 5726   0.263   3.703   4.365 -0.0604 -0.1690  1.1186
 1490SOL    HW3 5727   0.171   3.660   4.253  1.1369  0.7397 -0.2490
 1490SOL    MW4 5728   0.225   3.640   4.318  0.0367  0.0307 -0.3274
 1491SOL     OW 5729   5.833   3.822   4.795 -0.4780 -0.1132 -0.3749
 1491SOL    HW2 5730   5.894   3.888   4.761  0.4213 -0.9039 -0.3367
 1491SOL    HW3 5731   5.874   3.738   4.773 -1.1571 -0.6581  0.3895
 1491SOL    MW4 5732   5.846   3.819   4.787 -0.1890 -0.0024 -0.3674
 1492SOL     OW 5733   1.176   5.988   0.251  0.2060  0.2113 -0.5276
 1492SOL    HW2 5734   1.259   5.949   0.221  0.4346  0.3232 -0.0514
 1492SOL    HW3 5735   1.110   5.950   0.194  0.7090  0.9496 -1.6593
 1492SOL    MW4 5736   1.178   5.978   0.240 -0.1796  0.2851  0.2417
 1493SOL     OW 5737   0.993   1.742   5.923 -0.7892  0.3171 -0.1627
 1493SOL    HW2 5738   0.986   1.651   5.953 -0.4615 -0.2487 -1.7138
 1493SOL    HW3 5739   0.950   1.793   5.991  1.6119 -0.6585  2.2492
 1493SOL    MW4 5740   0.986   1.736   5.936 -0.2107 -0.6025  0.2947
 1494SOL     OW 5741   1.005   0.370   2.972 -0.3916 -0.3307  0.1091
 1494SOL    HW2 5742   0.918   0.391   3.005 -1.7014 -0.8700 -2.7164
 1494SOL    HW3 5743   1.041   0.454   2.942 -0.0975 -0.1856  0.8371
 1494SOL    MW4 5744   0.999   0.384   2.972  0.6738  0.5131  0.8293
 1495SOL     OW 5745   1.273   0.093   5.613 -0.2122  0.0515 -0.8498
 1495SOL    HW2 5746   1.209   0.119   5.679  0.5593  2.2115 -0.8740
 1495SOL    HW3 5747   1.349   0.064   5.664  0.1516  1.1095 -0.7772
 1495SOL    MW4 5748   1.275   0.093   5.628  0.1513 -0.0856 -0.0150
 1496SOL     OW 5749   2.803   2.949   1.612  0.2520 -0.3370 -0.0851
 1496SOL    HW2 5750   2.798   2.855   1.628  1.4455 -0.5397 -0.8625
 1496SOL    HW3 5751   2.862   2.982   1.680 -0.5191 -0.0526  0.4736
 1496SOL    MW4 5752   2.810   2.941   1.623  0.0151 -0.0394  0.3703
 1497SOL     OW 5753   4.659   2.541   5.716 -0.9786 -0.3913  0.2546
 1497SOL    HW2 5754   4.588   2.478   5.725 -0.5744 -1.0444 -0.9208
 1497SOL    HW3 5755   4.662   2.560   5.622 -1.1539  1.4571  0.5931
 1497SOL    MW4 5756   4.650   2.535   5.705 -0.2191 -0.0540  0.0386
 1498SOL     OW 5757   5.947   1.753   5.297 -0.2817 -0.2199 -0.3033
 1498SOL    HW2 5758   6.022   1.812   5.293  0.2433 -0.9340 -1.5904
 1498SOL    HW3 5759   5.901   1.778   5.377  0.8571  0.7893  0.0647
 1498SOL    MW4 5760   5.951   1.764   5.307  0.1296  0.0877  0.3701
 1499SOL     OW 5761   3.029   4.789   1.633  0.1044  0.3896  0.3455
 1499SOL    HW2 5762   2.942   4.792   1.671  0.0413  3.5337  0.2035
 1499SOL    HW3 5763   3.054   4.881   1.621  3.7338 -0.3221  1.0546
 1499SOL    MW4 5764   3.021   4.802   1.637 -0.4008  0.2804 -0.0426
 1500SOL     OW 5765   3.197   0.577   0.795 -0.0238 -0.1624 -0.2844
 1500SOL    HW2 5766   3.221   0.613   0.710  0.0868  0.4634  0.0010
 1500SOL    HW3 5767   3.102   0.570   0.793 -0.1533  1.1924  0.0375
 1500SOL    MW4 5768   3.188   0.581   0.784  0.7064  0.0666  0.4018
 1501SOL     OW 5769   0.756   6.238   6.227 -0.3510  0.0234  0.1469
 1501SOL    HW2 5770   0.781   6.322   6.267  0.7026  0.5083 -1.4131
 1501SOL    HW3 5771   0.666   6.224   6.255  0.0811  0.6878  2.0207
 1501SOL    MW4 5772   0.747   6.247   6.236 -0.3948 -0.4707  0.6999
 1502SOL     OW 5773   5.215   4.942   5.357 -0.1255  0.3506 -0.3789
 1502SOL    HW2 5774   5.276   4.983   5.419 -1.0794  0.9463  0.2070
 1502SOL    HW3 5775   5.225   4.993   5.277  1.4736 -0.7306 -0.9175
 1502SOL    MW4 5776   5.224   4.954   5.355  0.0871  0.0736 -0.0498
 1503SOL     OW 5777   2.792   5.131   5.917  0.0439  0.4536 -0.2148
 1503SOL    HW2 5778   2.841   5.109   5.996  0.5327 -0.2223 -0.6961
 1503SOL    HW3 5779   2.782   5.048   5.871  0.4176  0.9498 -1.2248
 1503SOL    MW4 5780   2.797   5.118   5.921 -0.2676  0.2409 -0.4196
 1504SOL     OW 5781   5.183   3.567   2.193 -0.1518 -0.3003  0.4735
 1504SOL    HW2 5782   5.213   3.658   2.194  1.1510 -0.6960  0.9049
 1504SOL    HW3 5783   5.226   3.529   2.117  0.2615 -0.8281  0.9591
 1504SOL    MW4 5784   5.193   3.574   2.183  0.4390  0.1271  0.4255
 1505SOL     OW 5785   2.290   4.019   5.296 -0.1821 -0.0710  0.1620
 1505SOL    HW2 5786   2.242   4.097   5.267  1.2809  0.3137 -1.4218
 1505SOL    HW3 5787   2.366   4.055   5.343  0.6082 -0.4956 -0.7505
 1505SOL    MW4 5788   2.294   4.034   5.298  0.6883 -0.6457 -0.1689
 1506SOL     OW 5789   4.650   5.305   4.057 -0.2844 -0.6865 -0.0716
 1506SOL    HW2 5790   4.605   5.365   3.997  1.1790 -0.0776 -0.5993
 1506SOL    HW3 5791   4.616   5.328   4.144  0.4368  1.1416 -0.2245
 1506SOL    MW4 5792   4.639   5.316   4.061 -0.1572  0.4058 -0.0414
 1507SOL     OW 5793   2.273   3.405   0.356  0.0914  0.2149 -0.5154
 1507SOL    HW2 5794   2.255   3.419   0.263  1.4411 -2.0724 -1.2190
 1507SOL    HW3 5795   2.186   3.394   0.395 -0.5054  1.2037 -1.4995
 1507SOL    MW4 5796   2.259   3.405   0.349  0.1925 -0.3651 -0.3563
 1508SOL     OW 5797   2.635   6.018   3.665 -0.1457  0.2297 -0.8739
 1508SOL    HW2 5798   2.604   5.956   3.731  1.1674  1.7917  1.3882
 1508SOL    HW3 5799   2.726   5.992   3.650  0.0012  0.7818 -0.9489
 1508SOL    MW4 5800   2.643   6.007   3.672  0.1911 -0.2072 -0.9322
 1509SOL     OW 5801   2.743   3.075   5.041 -0.1292  0.2678  0.2647
 1509SOL    HW2 5802   2.712   3.133   5.111  1.4347  1.9269 -0.3396
 1509SOL    HW3 5803   2.749   3.131   4.965  0.0907 -1.0655 -0.7347
 1509SOL    MW4 5804   2.739   3.090   5.041 -0.5611  0.4672 -0.2258
 1510SOL     OW 5805   0.756   6.136   2.869  0.1245  0.0703  0.0909
 1510SOL    HW2 5806   0.736   6.185   2.789 -0.7198  0.3870  0.4729
 1510SOL    HW3 5807   0.683   6.074   2.877  0.6306 -0.5126  0.1827
 1510SOL    MW4 5808   0.744   6.134   2.860  0.1637  0.0399 -0.4689
 1511SOL     OW 5809   2.744   4.438   6.188  0.0659 -0.2966 -0.4397
 1511SOL    HW2 5810   2.697   4.435   6.271 -1.7321 -0.6959 -1.4232
 1511SOL    HW3 5811   2.794   4.357   6.185  0.2606 -0.2107  0.3025
 1511SOL    MW4 5812   2.744   4.427   6.198  0.0741 -0.1037 -0.4854
 1512SOL     OW 5813   5.748   4.239   0.253  0.1344 -0.1166 -0.0211
 1512SOL    HW2 5814   5.799   4.314   0.222 -0.4440  0.2244 -0.1697
 1512SOL    HW3 5815   5.814   4.174   0.278  0.6532  0.5399  0.3667
 1512SOL    MW4 5816   5.764   4.241   0.252  0.1275 -0.2209  0.1218
 1513SOL     OW 5817   3.346   3.497   1.412  0.5159  0.1408 -0.9107
 1513SOL    HW2 5818   3.385   3.505   1.500 -1.8770  0.2630  0.2200
 1513SOL    HW3 5819   3.376   3.412   1.381  1.6341  0.2079 -0.0923
 1513SOL    MW4 5820   3.355   3.487   1.420  0.5488  0.6826  0.0136
 1514SOL     OW 5821   2.213   1.281   3.576  0.1530  0.3759 -0.0038
 1514SOL    HW2 5822   2.268   1.207   3.602 -2.5029 -1.8422 -0.1938
 1514SOL    HW3 5823   2.208   1.336   3.655  0.8452 -0.5366  0.7034
 1514SOL    MW4 5824   2.220   1.278   3.590 -0.1985 -0.9000  0.1442
 1515SOL     OW 5825   4.420   3.517   6.275 -0.4101  0.3487  0.3932
 1515SOL    HW2 5826   4.512   3.499   6.291 -0.6014 -0.5968  0.5228
 1515SOL    HW3 5827   4.410   3.611   6.290  0.2031  0.1802  2.0192
 1515SOL    MW4 5828   4.431   3.527   6.279  0.1972  0.4091  0.0746
 1516SOL     OW 5829   0.540   3.771   4.321  0.3683  0.0888  0.1085
 1516SOL    HW2 5830   0.594   3.706   4.367  3.7784  2.4458 -0.2289
 1516SOL    HW3 5831   0.488   3.812   4.389  0.2011 -1.1126  0.7325
 1516SOL    MW4 5832   0.541   3.768   4.336 -0.1892  0.1651 -0.0121
 1517SOL     OW 5833   3.523   5.300   2.367 -0.0170  0.2632 -0.0882
 1517SOL    HW2 5834   3.495   5.389   2.346  3.0538  0.8173 -2.6924
 1517SOL    HW3 5835   3.447   5.246   2.345 -0.5332  1.8986 -2.9647
 1517SOL    MW4 5836   3.509   5.305   2.361 -0.5018 -0.0340 -0.2736
 1518SOL     OW 5837   2.693   3.072   0.438 -0.4876 -0.1170 -0.0121
 1518SOL    HW2 5838   2.621   3.068   0.375 -0.1536  1.2082 -0.4999
 1518SOL    HW3 5839   2.651   3.054   0.522 -1.1048 -0.9146 -0.4683
 1518SOL    MW4 5840   2.678   3.069   0.441  0.3978  0.4152 -0.1232
 1519SOL     OW 5841   0.541   4.795   4.229 -0.6540 -0.0049 -0.0830
 1519SOL    HW2 5842   0.562   4.799   4.135  1.0840  0.5898  0.3018
 1519SOL    HW3 5843   0.578   4.712   4.258 -0.3844  0.2385  0.2639
 1519SOL    MW4 5844   0.549   4.785   4.220  0.1220 -0.1408 -0.4338
 1520SOL     OW 5845   2.411   4.625   2.315 -0.8120  0.7379 -0.1086
 1520SOL    HW2 5846   2.335   4.566   2.306 -0.5195  0.3370  0.0043
 1520SOL    HW3 5847   2.411   4.650   2.407 -1.0608  1.0920 -0.2008
 1520SOL    MW4 5848   2.401   4.620   2.326  0.6523  0.2778 -0.4824
 1521SOL     OW 5849   0.373   3.094   5.275  0.0705 -0.0532 -0.0102
 1521SOL    HW2 5850   0.369   3.114   5.182 -1.0461 -0.2017 -0.0067
 1521SOL    HW3 5851   0.463   3.114   5.300  0.0080  1.3699 -0.8112
 1521SOL    MW4 5852   0.384   3.099   5.266 -0.3605 -0.2290 -0.1612
 1522SOL     OW 5853   1.313   3.634   5.775  0.2110 -0.2087  0.2780
 1522SOL    HW2 5854   1.303   3.566   5.840  0.1372 -0.0481  0.4351
 1522SOL    HW3 5855   1.271   3.711   5.813  0.0766 -0.1426 -0.0012
 1522SOL    MW4 5856   1.306   3.635   5.788 -0.1509  0.2296 -0.2921
 1523SOL     OW 5857   1.227   0.622   0.819  0.2709  0.2978  0.4776
 1523SOL    HW2 5858   1.173   0.680   0.765 -1.3128 -1.1620  0.4079
 1523SOL    HW3 5859   1.165   0.578   0.876  1.7034  0.3547  2.1649
 1523SOL    MW4 5860   1.212   0.624   0.819 -0.0036 -0.0356  0.1699
 1524SOL     OW 5861   4.930   4.398   1.493 -0.4554  0.4297  0.1173
 1524SOL    HW2 5862   4.905   4.306   1.487 -2.2782  0.7442  1.7289
 1524SOL    HW3 5863   4.881   4.441   1.424 -0.3260  0.3235 -0.0414
 1524SOL    MW4 5864   4.920   4.392   1.483  0.0137 -0.5790 -0.2624
 1525SOL     OW 5865   6.293   2.709   0.582 -0.0757  0.3754 -0.2879
 1525SOL    HW2 5866   6.212   2.668   0.550  0.3249 -0.1724 -0.6307
 1525SOL    HW3 5867   6.352   2.705   0.507  0.1981  0.9664 -0.1035
 1525SOL    MW4 5868   6.290   2.703   0.568 -0.3510 -0.2546 -0.1779
 1526SOL     OW 5869   1.476   5.062   1.751  0.2114  0.4863  0.4417
 1526SOL    HW2 5870   1.512   4.973   1.748 -0.2313  0.2193  2.1603
 1526SOL    HW3 5871   1.501   5.095   1.837  1.1138  2.3808 -0.4916
 1526SOL    MW4 5872   1.484   5.054   1.762 -0.7271  0.1435  0.1732
 1527SOL     OW 5873   2.871   1.184   0.788  0.4706  0.3789  0.1075
 1527SOL    HW2 5874   2.837   1.106   0.743 -0.8804  1.1970 -0.3799
 1527SOL    HW3 5875   2.840   1.257   0.734  0.3645  1.3184  1.3879
 1527SOL    MW4 5876   2.862   1.184   0.775  0.3317 -0.5546 -0.5836
 1528SOL     OW 5877   2.522   3.795   3.677 -0.5649 -0.2684 -0.1445
 1528SOL    HW2 5878   2.603   3.823   3.636 -0.8358 -1.0137 -1.2497
 1528SOL    HW3 5879   2.549   3.742   3.751 -0.0543  0.4420  0.1804
 1528SOL    MW4 5880   2.536   3.792   3.681 -0.1465 -0.1932 -0.1869
 1529SOL     OW 5881   3.790   3.369   2.151  0.2616  0.0866 -0.4784
 1529SOL    HW2 5882   3.881   3.390   2.173  0.3957  0.1546 -1.0767
 1529SOL    HW3 5883   3.772   3.289   2.200  0.5567  0.2232 -0.1395
 1529SOL    MW4 5884   3.800   3.361   2.160 -0.2422 -0.4994 -0.3617
 1530SOL     OW 5885   4.676   3.872   3.531 -0.7524 -0.3353  0.7024
 1530SOL    HW2 5886   4.678   3.812   3.456 -0.2074 -0.6150  0.9340
 1530SOL    HW3 5887   4.586   3.864   3.565 -0.8431 -0.6172  0.4105
 1530SOL    MW4 5888   4.664   3.863   3.525 -0.0947  0.4468  0.2963
 1531SOL     OW 5889   1.165   1.803   3.696  0.4837  0.3975 -0.3176
 1531SOL    HW2 5890   1.169   1.708   3.698  1.8529  0.4227  2.2345
 1531SOL    HW3 5891   1.238   1.832   3.750 -0.3419  2.8799 -0.3800
 1531SOL    MW4 5892   1.175   1.794   3.703 -0.3815  0.5725 -0.0056
 1532SOL     OW 5893   4.076   3.995   1.221  0.4598  0.2096  0.0197
 1532SOL    HW2 5894   4.146   3.931   1.229  1.2938  1.2110  1.0496
 1532SOL    HW3 5895   4.102   4.051   1.148  0.7740  0.6088  0.4306
 1532SOL    MW4 5896   4.088   3.994   1.212  0.3491 -0.0235  0.1758
 1533SOL     OW 5897   0.921   1.848   5.016  0.0818  0.1203  0.1768
 1533SOL    HW2 5898   0.986   1.918   5.023  0.7473 -0.0631 -2.8863
 1533SOL    HW3 5899   0.967   1.770   5.046  0.5248  0.3922  0.2166
 1533SOL    MW4 5900   0.935   1.847   5.021  0.0083 -0.1296  0.5257
 1534SOL     OW 5901   2.327   6.350   4.705  0.4564 -0.6045  0.0770
 1534SOL    HW2 5902   2.323   6.388   4.793 -0.5774  1.1720 -0.6922
 1534SOL    HW3 5903   2.418   6.365   4.677  0.7688 -1.1055  0.7932
 1534SOL    MW4 5904   2.339   6.357   4.713 -0.9190  0.0082 -0.1833
 1535SOL     OW 5905   0.199   4.448   5.697  0.0858 -0.5700 -0.4580
 1535SOL    HW2 5906   0.282   4.472   5.737 -0.0144  1.1298 -1.2047
 1535SOL    HW3 5907   0.158   4.388   5.760  1.9713 -1.6771 -0.2065
 1535SOL    MW4 5908   0.204   4.443   5.710  0.2559 -0.2580 -0.0407
 1536SOL     OW 5909   1.460   3.041   0.125  0.1191  0.3780  0.6204
 1536SOL    HW2 5910   1.548   3.005   0.121  0.0320  0.2395 -0.2241
 1536SOL    HW3 5911   1.407   2.972   0.166  1.0050  1.7393  4.5272
 1536SOL    MW4 5912   1.465   3.027   0.130 -0.2518  0.3394 -0.7026
 1537SOL     OW 5913   5.943   2.871   3.597 -0.5040 -0.1017  0.2610
 1537SOL    HW2 5914   5.931   2.793   3.650 -0.1430  0.6038  1.4331
 1537SOL    HW3 5915   5.884   2.936   3.635 -1.8791 -0.1987 -1.6047
 1537SOL    MW4 5916   5.934   2.869   3.609 -0.5039 -0.8070 -0.0992
 1538SOL     OW 5917   1.847   0.931   2.792  0.1233 -0.2789  0.3041
 1538SOL    HW2 5918   1.810   1.009   2.834  1.3464  0.5665 -0.1435
 1538SOL    HW3 5919   1.937   0.927   2.825 -0.5495 -2.8046  2.0846
 1538SOL    MW4 5920   1.854   0.941   2.802  0.6184  1.4165  0.2130
 1539SOL     OW 5921   5.097   1.639   5.098  0.1280 -0.6066  0.4718
 1539SOL    HW2 5922   5.159   1.693   5.146 -0.3749  0.5768 -0.1640
 1539SOL    HW3 5923   5.029   1.700   5.070 -0.7224 -1.6681  0.1579
 1539SOL    MW4 5924   5.096   1.654   5.101  0.0094  0.0634 -0.0368
 1540SOL     OW 5925   1.715   0.514   4.546 -0.1467 -0.5143  0.1638
 1540SOL    HW2 5926   1.656   0.589   4.538  0.8087  0.4409  1.5934
 1540SOL    HW3 5927   1.710   0.489   4.638  0.6641 -1.2684  0.0203
 1540SOL    MW4 5928   1.707   0.521   4.557  0.0728  0.5393 -0.1713
 1541SOL     OW 5929   1.673   2.721   4.454 -0.4055 -0.1962 -0.3006
 1541SOL    HW2 5930   1.598   2.764   4.495 -0.9398 -0.4913 -0.9453
 1541SOL    HW3 5931   1.694   2.648   4.512  0.1583  0.5932  0.5120
 1541SOL    MW4 5932   1.666   2.717   4.467  0.1670  0.3645 -0.2361
 1542SOL     OW 5933   4.261   0.606   0.517  0.2494  0.2720  0.2304
 1542SOL    HW2 5934   4.260   0.689   0.564  0.3991  0.4677 -0.1021
 1542SOL    HW3 5935   4.244   0.540   0.584  0.6445  0.5289  0.5913
 1542SOL    MW4 5936   4.259   0.608   0.532 -0.4419 -0.1447  0.4094
 1543SOL     OW 5937   1.062   1.629   1.168  0.2550  0.2622  0.0216
 1543SOL    HW2 5938   1.056   1.570   1.243  0.4985  0.1329 -0.0572
 1543SOL    HW3 5939   1.096   1.574   1.097 -2.7750 -0.4010 -1.0366
 1543SOL    MW4 5940   1.066   1.614   1.168  0.1786 -0.0142 -0.4791
 1544SOL     OW 5941   4.421   2.402   3.363 -0.2850  0.4006 -0.3280
 1544SOL    HW2 5942   4.506   2.390   3.407 -0.2738  1.6092  0.0313
 1544SOL    HW3 5943   4.365   2.334   3.400  0.3296  0.0463 -0.0269
 1544SOL    MW4 5944   4.425   2.392   3.374  0.3203  0.4333  0.1380
 1545SOL     OW 5945   1.725   5.662   5.030  0.5853  0.2244 -0.0879
 1545SOL    HW2 5946   1.656   5.658   4.964  0.7514 -0.4770 -0.2268
 1545SOL    HW3 5947   1.685   5.706   5.105 -0.3506 -1.1029  0.2239
 1545SOL    MW4 5948   1.711   5.668   5.031 -0.3429  0.8377 -0.4620
 1546SOL     OW 5949   2.401   1.363   2.468 -0.0928 -0.4220 -0.0699
 1546SOL    HW2 5950   2.345   1.290   2.441  3.2392 -3.2884  0.0268
 1546SOL    HW3 5951   2.486   1.343   2.431  2.2175  0.8629  3.8905
 1546SOL    MW4 5952   2.405   1.350   2.460  0.1178 -0.2128 -0.2528
 1547SOL     OW 5953   6.017   2.865   5.686  0.3567  0.2064 -0.2627
 1547SOL    HW2 5954   5.958   2.925   5.639  0.6601  0.5959 -0.1509
 1547SOL    HW3 5955   6.016   2.785   5.634 -1.0956 -0.1737  0.2872
 1547SOL    MW4 5956   6.009   2.862   5.673 -0.0451 -0.6698 -0.0736
 1548SOL     OW 5957   2.368   6.042   3.412 -0.1160 -0.2878  0.1936
 1548SOL    HW2 5958   2.296   6.024   3.472 -0.8421 -0.5352 -0.7346
 1548SOL    HW3 5959   2.337   6.114   3.357 -0.7044 -2.0574 -1.9053
 1548SOL    MW4 5960   2.355   6.049   3.412 -0.0458  0.0817  0.1146
 1549SOL     OW 5961   0.351   2.669   5.816 -0.1049 -0.0696  0.2437
 1549SOL    HW2 5962   0.408   2.696   5.744 -0.8169  0.9592  0.0369
 1549SOL    HW3 5963   0.285   2.613   5.774  0.0411 -0.2594  0.2669
 1549SOL    MW4 5964   0.350   2.665   5.801 -0.0510 -0.2544 -0.3453
 1550SOL     OW 5965   5.834   0.548   6.074 -0.4336  0.6031 -0.1891
 1550SOL    HW2 5966   5.866   0.621   6.021 -0.5450  0.9488  0.2092
 1550SOL    HW3 5967   5.765   0.587   6.128  1.0276  0.7646  1.6687
 1550SOL    MW4 5968   5.829   0.563   6.074  1.0873 -0.0903 -0.0201
 1551SOL     OW 5969   0.055   2.577   0.758  0.1653 -0.5540 -0.5190
 1551SOL    HW2 5970   0.123   2.538   0.704  0.3640 -1.0921  0.1076
 1551SOL    HW3 5971   0.002   2.629   0.697  0.7818 -0.6092 -1.1041
 1551SOL    MW4 5972   0.057   2.578   0.743 -0.6146  0.6310 -0.2424
 1552SOL     OW 5973   4.230   2.303   1.067 -0.0854  0.1295  0.4118
 1552SOL    HW2 5974   4.140   2.309   1.033  0.0237  1.7089  0.3286
 1552SOL    HW3 5975   4.267   2.390   1.051  0.8048  0.1305  2.2831
 1552SOL    MW4 5976   4.223   2.315   1.060 -0.6552 -0.0018 -0.0304
 1553SOL     OW 5977   3.639   0.872   5.927 -0.3057 -0.0742 -0.0076
 1553SOL    HW2 5978   3.612   0.956   5.889 -2.1191 -0.0016  1.3072
 1553SOL    HW3 5979   3.616   0.808   5.860 -0.5746  0.3186 -0.2968
 1553SOL    MW4 5980   3.632   0.875   5.913 -0.8083  0.3184  0.5036
 1554SOL     OW 5981   5.999   2.425   3.523 -0.0059 -0.5685  0.3453
 1554SOL    HW2 5982   6.056   2.363   3.568  0.3890 -1.6474 -1.5176
 1554SOL    HW3 5983   6.054   2.460   3.452 -0.8689  0.3668  0.1071
 1554SOL    MW4 5984   6.014   2.422   3.519  0.7799 -0.1120  0.1708
 1555SOL     OW 5985   6.097   3.967   3.729 -0.5515 -0.2653 -0.4401
 1555SOL    HW2 5986   6.150   3.913   3.787 -0.5303  0.1841 -0.0274
 1555SOL    HW3 5987   6.143   4.051   3.727 -2.1293  0.7299  1.3304
 1555SOL    MW4 5988   6.110   3.971   3.737  0.4626  0.2226 -0.0181
 1556SOL     OW 5989   3.469   0.467   1.509  0.3883  0.3094 -0.0208
 1556SOL    HW2 5990   3.401   0.427   1.456  1.3449  0.2832 -1.2592
 1556SOL    HW3 5991   3.429   0.548   1.542 -0.8118 -0.5421  0.7292
 1556SOL    MW4 5992   3.455   0.473   1.507 -0.5371 -0.3549 -0.8887
 1557SOL     OW 5993   1.804   6.329   6.397 -1.0087  0.1620  0.1624
 1557SOL    HW2 5994   1.713   6.326   6.426 -1.5472 -0.6484 -1.5029
 1557SOL    HW3 5995   1.831   6.237   6.394 -0.3642  0.3523 -0.0773
 1557SOL    MW4 5996   1.796   6.316   6.400  0.1378  0.5066 -0.6258
 1558SOL     OW 5997   5.694   4.977   3.423 -0.2308 -0.4389 -0.6631
 1558SOL    HW2 5998   5.714   4.884   3.421  0.7065 -0.2641  0.0024
 1558SOL    HW3 5999   5.777   5.019   3.448 -0.9798  0.4640  0.3774
 1558SOL    MW4 6000   5.708   4.970   3.426  0.0778 -0.2936 -0.7770
 1559SOL     OW 6001   3.209   3.600   0.157 -0.2877  0.7341 -0.3191
 1559SOL    HW2 6002   3.259   3.541   0.215  0.6798  2.6573  0.9235
 1559SOL    HW3 6003   3.118   3.587   0.183  0.0624  0.9880  1.1235
 1559SOL    MW4 6004   3.204   3.590   0.168 -0.2810 -0.3770 -0.0440
 1560SOL     OW 6005   4.863   1.787   5.062  0.0388 -0.3235 -0.0116
 1560SOL    HW2 6006   4.889   1.794   5.154 -2.0207 -0.2372  0.6213
 1560SOL    HW3 6007   4.839   1.877   5.037  3.1258  0.2010 -1.5284
 1560SOL    MW4 6008   4.863   1.800   5.071 -0.3016 -0.0028 -0.0284
 1561SOL     OW 6009   1.189   3.147   0.385 -0.1146  0.3155 -0.0721
 1561SOL    HW2 6010   1.280   3.158   0.412 -0.0992  2.2445 -0.7724
 1561SOL    HW3 6011   1.191   3.152   0.290 -0.7352 -1.7157 -0.2275
 1561SOL    MW4 6012   1.201   3.149   0.376 -0.0536 -0.0142 -0.8688
 1562SOL     OW 6013   2.989   3.019   4.205  0.5344  0.4261  0.1511
 1562SOL    HW2 6014   3.009   2.946   4.264  2.3540  0.5332 -0.2606
 1562SOL    HW3 6015   2.920   2.987   4.148  0.6291 -0.6174  0.6075
 1562SOL    MW4 6016   2.983   3.005   4.206  0.0934 -0.3319 -0.5443
 1563SOL     OW 6017   5.044   1.479   5.824  0.8249 -0.1667  0.0262
 1563SOL    HW2 6018   5.032   1.431   5.742 -0.0866  0.3072 -0.1242
 1563SOL    HW3 6019   5.044   1.571   5.799 -0.6462  0.0312  0.6842
 1563SOL    MW4 6020   5.043   1.484   5.810 -0.3040 -1.0307  0.3272
 1564SOL     OW 6021   5.812   4.941   5.899 -0.0806 -0.1203 -0.4911
 1564SOL    HW2 6022   5.802   4.942   5.804 -1.0020  2.7983 -0.4595
 1564SOL    HW3 6023   5.897   4.981   5.915  0.7031 -1.8743 -0.0748
 1564SOL    MW4 6024   5.822   4.947   5.889  0.6964 -0.3231 -0.0966
 1565SOL     OW 6025   4.946   6.293   6.140  0.0515 -0.3147  0.0211
 1565SOL    HW2 6026   4.949   6.225   6.208 -2.3988  0.9549  1.5697
 1565SOL    HW3 6027   4.858   6.285   6.103  1.1710 -0.6681 -2.8287
 1565SOL    MW4 6028   4.935   6.283   6.144  0.0649  0.0157  0.0317
 1566SOL     OW 6029   1.837   2.821   5.920  0.3324 -0.1810  0.4231
 1566SOL    HW2 6030   1.779   2.837   5.846 -0.0336  0.3310  0.8167
 1566SOL    HW3 6031   1.890   2.900   5.927  1.3798 -0.8003 -0.1836
 1566SOL    MW4 6032   1.836   2.833   5.911 -0.1037 -0.5738  0.6212
 1567SOL     OW 6033   5.439   1.616   4.935  0.3076 -0.4183  0.0377
 1567SOL    HW2 6034   5.407   1.684   4.875  1.2813  0.0375  0.0110
 1567SOL    HW3 6035   5.364   1.595   4.990  0.0343  0.8411  0.1889
 1567SOL    MW4 6036   5.425   1.623   4.934  0.3933 -0.4395  0.7697
 1568SOL     OW 6037   5.649   2.443   4.477  0.0249 -0.1362  0.2741
 1568SOL    HW2 6038   5.602   2.501   4.418  0.4891  2.0319  1.9050
 1568SOL    HW3 6039   5.724   2.413   4.426  0.5580  1.8675 -0.2277
 1568SOL    MW4 6040   5.653   2.447   4.463  0.0319  0.1832 -0.1161
 1569SOL     OW 6041   4.323   2.151   5.109 -0.1680  0.3361  0.8022
 1569SOL    HW2 6042   4.274   2.133   5.189 -0.0491 -0.5285  0.6856
 1569SOL    HW3 6043   4.281   2.229   5.073 -0.0416  0.9065  1.8439
 1569SOL    MW4 6044   4.311   2.159   5.115  0.6452  0.3842  0.1552
 1570SOL     OW 6045   4.461   3.440   5.915 -0.0065  0.4810  0.0820
 1570SOL    HW2 6046   4.401   3.388   5.968 -1.1879  1.2574 -0.4531
 1570SOL    HW3 6047   4.547   3.404   5.935 -0.7200 -1.3682  0.0749
 1570SOL    MW4 6048   4.464   3.428   5.924  0.7182 -0.1526  0.0236
 1571SOL     OW 6049   5.564   2.193   0.454  0.6324  0.2342 -0.2140
 1571SOL    HW2 6050   5.516   2.270   0.487 -0.2547 -0.8339  1.1117
 1571SOL    HW3 6051   5.496   2.128   0.438  1.3835 -0.3252 -1.2398
 1571SOL    MW4 6052   5.548   2.195   0.456 -0.2702  0.1258 -0.2090
 1572SOL     OW 6053   0.313   3.554   1.883 -0.2274  0.5092 -0.3758
 1572SOL    HW2 6054   0.334   3.461   1.893  0.5867  0.7073 -0.1098
 1572SOL    HW3 6055   0.218   3.559   1.886 -0.2783 -0.3315 -0.5280
 1572SOL    MW4 6056   0.303   3.543   1.885  0.5839  0.0735 -0.1577
 1573SOL     OW 6057   1.392   1.907   4.566 -0.0534 -0.4268 -0.3490
 1573SOL    HW2 6058   1.323   1.903   4.500 -0.2716 -1.4119 -0.0861
 1573SOL    HW3 6059   1.463   1.855   4.529 -0.6990 -2.1821  0.7433
 1573SOL    MW4 6060   1.392   1.900   4.552  0.6464  0.4951  0.0012
 1574SOL     OW 6061   3.083   2.985   5.512 -0.2500 -0.0577  0.0367
 1574SOL    HW2 6062   3.000   3.032   5.499  0.4507  1.9813  2.2434
 1574SOL    HW3 6063   3.121   3.025   5.591  0.8406 -3.8174  1.6091
 1574SOL    MW4 6064   3.077   2.997   5.521  0.2416  0.1446 -0.6167
 1575SOL     OW 6065   1.828   5.552   3.186  0.0425 -0.2583  0.1701
 1575SOL    HW2 6066   1.905   5.531   3.238  1.2828  1.2770 -0.9434
 1575SOL    HW3 6067   1.756   5.506   3.230  1.7229 -2.6990  0.5761
 1575SOL    MW4 6068   1.828   5.543   3.198 -0.3723 -0.3777  0.3385
 1576SOL     OW 6069   0.855   1.249   1.154 -0.4828  0.2644  0.1691
 1576SOL    HW2 6070   0.812   1.330   1.126  0.1868  0.6634  0.2711
 1576SOL    HW3 6071   0.923   1.235   1.088 -1.0416 -0.6091 -0.2468
 1576SOL    MW4 6072   0.858   1.258   1.141  0.1561 -0.2136  0.1905
 1577SOL     OW 6073   2.907   2.305   3.200 -0.6945  0.9520 -0.1776
 1577SOL    HW2 6074   2.994   2.275   3.173  0.1854  0.0928  3.2348
 1577SOL    HW3 6075   2.850   2.231   3.181  0.3015 -0.5049  2.1441
 1577SOL    MW4 6076   2.911   2.291   3.194  0.0044 -0.3767  0.0701
 1578SOL     OW 6077   3.077   4.897   2.743  0.7072 -0.0646  0.1932
 1578SOL    HW2 6078   3.033   4.951   2.809  0.6955  0.9244 -0.5822
 1578SOL    HW3 6079   3.170   4.909   2.760  0.6983 -0.2154  0.3458
 1578SOL    MW4 6080   3.083   4.906   2.754 -0.2005 -0.4914 -0.1570
 1579SOL     OW 6081   3.548   6.116   2.003  0.5784  0.6916 -0.1674
 1579SOL    HW2 6082   3.459   6.096   1.974 -0.3963  0.5829  2.5636
 1579SOL    HW3 6083   3.605   6.066   1.943 -1.1395  0.8900 -2.0676
 1579SOL    MW4 6084   3.544   6.106   1.991 -0.2083 -0.1701 -0.7297
 1580SOL     OW 6085   4.352   0.493   1.278 -0.6804 -0.3107  0.3789
 1580SOL    HW2 6086   4.383   0.538   1.357 -0.0297 -0.6220  0.3056
 1580SOL    HW3 6087   4.334   0.403   1.308  1.4098 -0.9698 -0.2206
 1580SOL    MW4 6088   4.353   0.487   1.293 -0.2608  0.1026 -0.3072
 1581SOL     OW 6089   6.381   5.160   2.492  0.9381 -0.0743  0.5172
 1581SOL    HW2 6090   6.460   5.107   2.500  0.5184 -0.8184 -0.1036
 1581SOL    HW3 6091   6.378   5.186   2.400 -0.8555 -2.2108 -0.1138
 1581SOL    MW4 6092   6.391   5.157   2.481  0.2378 -0.3016  0.7824
 1582SOL     OW 6093   4.577   4.441   3.495  0.2717  0.3628 -0.4102
 1582SOL    HW2 6094   4.544   4.375   3.556  1.7206  0.4144  0.4873
 1582SOL    HW3 6095   4.669   4.454   3.521  0.1792  2.3377 -0.9041
 1582SOL    MW4 6096   4.585   4.434   3.507 -0.2262  0.0518  0.1206
 1583SOL     OW 6097   5.788   4.862   6.209 -0.4853  0.5556 -0.1579
 1583SOL    HW2 6098   5.743   4.944   6.187  1.1507  1.1033 -1.7376
 1583SOL    HW3 6099   5.863   4.860   6.149 -0.6425 -2.2575 -0.3582
 1583SOL    MW4 6100   5.792   4.873   6.198 -0.0807  0.1470  0.5359
 1584SOL     OW 6101   5.916   4.225   0.766  0.6452  0.4186 -0.0296
 1584SOL    HW2 6102   5.989   4.209   0.705  1.0151  0.5452  0.3803
 1584SOL    HW3 6103   5.939   4.307   0.810 -1.0335  1.9456 -1.7990
 1584SOL    MW4 6104   5.929   4.234   0.764 -0.4359 -0.0266 -0.3503
 1585SOL     OW 6105   2.857   1.763   1.929  0.5269 -0.4594  0.1305
 1585SOL    HW2 6106   2.783   1.818   1.955  0.6329 -0.0739 -0.3743
 1585SOL    HW3 6107   2.921   1.773   2.000 -0.3053 -1.6083  1.0925
 1585SOL    MW4 6108   2.856   1.772   1.942  0.2169  0.5095 -0.3145
 1586SOL     OW 6109   4.272   0.849   5.584  0.0732  0.1071 -0.1391
 1586SOL    HW2 6110   4.312   0.793   5.651  0.1566 -0.8882 -1.0070
 1586SOL    HW3 6111   4.183   0.863   5.615  0.4937  0.7462  0.8343
 1586SOL    MW4 6112   4.266   0.843   5.597  0.0521  0.3457 -0.1119
 1587SOL     OW 6113   1.896   3.200   0.842 -0.3733 -0.6794 -0.0031
 1587SOL    HW2 6114   1.884   3.207   0.937 -2.8540 -1.9927 -0.1583
 1587SOL    HW3 6115   1.982   3.159   0.833  0.3340  0.3219  1.6154
 1587SOL    MW4 6116   1.906   3.195   0.854  0.2638 -0.2069 -0.7821
 1588SOL     OW 6117   3.689   3.275   3.587 -0.0757 -0.0231 -0.1576
 1588SOL    HW2 6118   3.733   3.358   3.606 -0.0189  0.4157 -2.0292
 1588SOL    HW3 6119   3.748   3.208   3.623  1.4765  0.6248 -1.3536
 1588SOL    MW4 6120   3.703   3.277   3.594 -0.0721  0.2423  0.5536
 1589SOL     OW 6121   5.727   0.987   3.012  0.0495 -0.5409  0.4877
 1589SOL    HW2 6122   5.724   1.013   3.104 -1.0842  0.2275  0.2641
 1589SOL    HW3 6123   5.651   1.030   2.973  0.1237 -1.4010 -0.6683
 1589SOL    MW4 6124   5.716   0.996   3.019  0.0763 -0.3551  0.0810
 1590SOL     OW 6125   3.793   5.418   5.593 -0.0145 -1.2254 -0.2084
 1590SOL    HW2 6126   3.834   5.498   5.625 -0.4084 -0.0076 -2.5336
 1590SOL    HW3 6127   3.866   5.364   5.564  0.1438 -0.6808 -0.8391
 1590SOL    MW4 6128   3.808   5.422   5.594  0.4049 -0.3840  0.5045
 1591SOL     OW 6129   4.354   0.162   3.984  0.0877  0.2011 -0.0528
 1591SOL    HW2 6130   4.420   0.174   4.052 -0.7297 -1.0636  0.9979
 1591SOL    HW3 6131   4.307   0.082   4.008 -0.7544  0.1536 -1.6704
 1591SOL    MW4 6132   4.356   0.153   3.996  0.3095  0.4960 -0.3052
 1592SOL     OW 6133   2.490   4.515   5.126  0.0356  0.4051  0.2969
 1592SOL    HW2 6134   2.423   4.506   5.059  2.3228  2.6547 -2.5952
 1592SOL    HW3 6135   2.465   4.593   5.176  0.2443  0.9716 -0.4761
 1592SOL    MW4 6136   2.478   4.524   5.124 -0.1367  0.5697 -0.6008
 1593SOL     OW 6137   3.732   2.277   1.627 -0.7728 -0.5029  0.5599
 1593SOL    HW2 6138   3.711   2.214   1.558  0.7782 -0.8548  0.3580
 1593SOL    HW3 6139   3.675   2.253   1.700 -1.5391 -0.9365 -0.1669
 1593SOL    MW4 6140   3.722   2.265   1.627  0.6553  0.7480  0.2077
 1594SOL     OW 6141   0.466   3.072   6.371 -0.7746 -0.1222 -0.3604
 1594SOL    HW2 6142   0.451   2.994   6.425 -0.1706 -0.3729 -0.5347
 1594SOL    HW3 6143   0.540   3.116   6.413 -0.4018 -0.2355 -0.8841
 1594SOL    MW4 6144   0.474   3.067   6.383  0.3632  0.1090  0.0805
 1595SOL     OW 6145   4.291   6.275   2.850 -0.0256 -0.0586  0.5644
 1595SOL    HW2 6146   4.196   6.261   2.845  0.0254  0.1106 -1.1275
 1595SOL    HW3 6147   4.301   6.364   2.884 -0.5473  1.0724 -2.0647
 1595SOL    MW4 6148   4.280   6.285   2.854  0.0284 -0.2837 -0.5507
 1596SOL     OW 6149   0.462   2.983   2.932 -0.3349 -0.2473  0.2048
 1596SOL    HW2 6150   0.529   2.994   2.864 -0.1161  1.0864  0.5979
 1596SOL    HW3 6151   0.386   2.947   2.886  0.6844 -2.0024 -0.2132
 1596SOL    MW4 6152   0.461   2.980   2.917 -0.2435  0.6433  0.1584
 1597SOL     OW 6153   5.204   0.489   5.894  0.5769 -0.3445 -0.0116
 1597SOL    HW2 6154   5.180   0.407   5.936 -0.0454 -0.2473 -0.1664
 1597SOL    HW3 6155   5.120   0.533   5.877  0.9189  0.5384  0.5086
 1597SOL    MW4 6156   5.189   0.484   5.897  0.3806  0.0605  0.8235
 1598SOL     OW 6157   4.076   0.180   0.502 -0.5033 -0.7835 -0.1391
 1598SOL    HW2 6158   4.116   0.246   0.444  0.1867 -1.1699 -0.1099
 1598SOL    HW3 6159   4.147   0.120   0.522 -0.9895 -1.2113  0.3147
 1598SOL    MW4 6160   4.091   0.181   0.497  0.1248  0.2077  0.2188
 1599SOL     OW 6161   1.562   4.310   0.368 -1.0655  0.4303 -0.1082
 1599SOL    HW2 6162   1.601   4.232   0.329 -0.5025  0.8201 -0.3328
 1599SOL    HW3 6163   1.484   4.278   0.414  0.3131 -0.6058  1.6068
 1599SOL    MW4 6164   1.556   4.296   0.369  0.4774  0.2727  0.2420
 1600SOL     OW 6165   0.894   2.023   3.399  0.2503 -0.3230 -0.2952
 1600SOL    HW2 6166   0.838   2.053   3.327  1.2955  0.0680 -0.9732
 1600SOL    HW3 6167   0.959   1.966   3.357 -0.1443 -1.4763  0.6084
 1600SOL    MW4 6168   0.895   2.020   3.384 -0.0131  0.0766  0.6438
 1601SOL     OW 6169   0.047   2.708   5.166 -0.0969 -0.1427  0.0180
 1601SOL    HW2 6170   0.012   2.670   5.246  0.7472  1.1915  1.0722
 1601SOL    HW3 6171   0.142   2.693   5.171 -0.1402 -1.0259 -1.3007
 1601SOL    MW4 6172   0.055   2.701   5.177  0.3137  0.1946 -0.1168
 1602SOL     OW 6173   4.185   3.517   2.901  0.1295  0.4762 -0.0053
 1602SOL    HW2 6174   4.238   3.506   2.980  0.4613  1.0900 -0.1344
 1602SOL    HW3 6175   4.249   3.532   2.832 -0.2325  2.7075  0.0879
 1602SOL    MW4 6176   4.201   3.518   2.903  0.2517 -0.5322  0.4297
 1603SOL     OW 6177   1.540   2.236   4.469  0.9118  0.7026  0.4781
 1603SOL    HW2 6178   1.582   2.248   4.554  0.5645 -2.0911  1.1350
 1603SOL    HW3 6179   1.450   2.263   4.482  0.6236 -0.5806  1.3148
 1603SOL    MW4 6180   1.534   2.241   4.482  0.1748  0.1517  0.0411
 1604SOL     OW 6181   6.352   0.481   2.914  0.0773 -0.3764 -0.1573
 1604SOL    HW2 6182   6.320   0.392   2.928 -0.8546 -0.1796 -0.9583
 1604SOL    HW3 6183   6.273   0.533   2.900  0.7200  0.0480 -2.5553
 1604SOL    MW4 6184   6.337   0.476   2.914 -0.0693 -0.3713  0.3280
 1605SOL     OW 6185   4.523   0.189   2.999 -0.3150 -0.0743  0.0231
 1605SOL    HW2 6186   4.572   0.176   3.081  1.0050  0.2865 -0.6880
 1605SOL    HW3 6187   4.579   0.151   2.931 -0.2990  1.6893 -1.0067
 1605SOL    MW4 6188   4.537   0.182   3.001  0.3787  0.0960 -0.3063
 1606SOL     OW 6189   3.035   1.457   4.350  0.0342  0.0493  0.0469
 1606SOL    HW2 6190   2.944   1.428   4.355  0.9198 -2.9935  0.2718
 1606SOL    HW3 6191   3.065   1.458   4.441  0.4372  0.3998 -0.0861
 1606SOL    MW4 6192   3.027   1.454   4.363 -0.8029 -0.0459  0.1068
 1607SOL     OW 6193   1.864   3.056   0.541  0.4622 -0.0126  0.3125
 1607SOL    HW2 6194   1.876   3.104   0.622  0.3675 -0.2199  0.4503
 1607SOL    HW3 6195   1.881   2.964   0.564 -0.8749 -0.2568  0.4153
 1607SOL    MW4 6196   1.868   3.050   0.555 -0.3221 -0.0995 -0.3177
 1608SOL     OW 6197   5.734   4.268   4.977  0.1992 -0.1890  0.2678
 1608SOL    HW2 6198   5.694   4.312   5.052 -0.9988 -0.5764 -0.1187
 1608SOL    HW3 6199   5.673   4.284   4.905  1.2998  0.1316 -0.6179
 1608SOL    MW4 6200   5.720   4.276   4.977  0.6066 -0.4175  0.1406
 1609SOL     OW 6201   3.444   4.467   5.990 -0.2716 -0.4199 -0.2191
 1609SOL    HW2 6202   3.487   4.457   5.906  0.6335  0.1940  0.1531
 1609SOL    HW3 6203   3.423   4.561   5.995 -1.5211 -0.6736 -0.3214
 1609SOL    MW4 6204   3.447   4.478   5.980  0.3338 -0.2738 -0.2418
 1610SOL     OW 6205   1.793   2.408   3.846 -0.0292 -0.2055  0.2010
 1610SOL    HW2 6206   1.861   2.352   3.811  0.0419 -0.3372  0.5408
 1610SOL    HW3 6207   1.800   2.398   3.941  1.1130  1.6621  0.3694
 1610SOL    MW4 6208   1.803   2.400   3.854  0.4314 -0.2989  0.0025
 1611SOL     OW 6209   5.032   3.029   5.574  0.4157 -0.8590 -0.3326
 1611SOL    HW2 6210   5.060   2.970   5.644 -1.2399 -0.4018  0.7779
 1611SOL    HW3 6211   4.939   3.046   5.593  0.3400  0.5096 -1.7645
 1611SOL    MW4 6212   5.023   3.024   5.586 -0.3477  0.0526  0.2185
 1612SOL     OW 6213   3.885   6.065   2.135 -0.0843  0.2186 -0.2537
 1612SOL    HW2 6214   3.942   6.019   2.198  0.6568  0.2017 -0.9244
 1612SOL    HW3 6215   3.835   5.995   2.093  1.0741 -0.0184 -1.3047
 1612SOL    MW4 6216   3.886   6.050   2.138  0.2674 -0.5385  0.7725
 1613SOL     OW 6217   3.323   1.121   3.408 -0.2489 -0.0256 -0.7756
 1613SOL    HW2 6218   3.278   1.113   3.492 -0.5359  1.6344 -0.7311
 1613SOL    HW3 6219   3.253   1.115   3.343 -0.0148 -1.4126 -0.9324
 1613SOL    MW4 6220   3.307   1.119   3.411  0.1768 -0.5325  0.0375
 1614SOL     OW 6221   0.829   5.325   3.749  0.3675  0.4268 -0.6036
 1614SOL    HW2 6222   0.880   5.248   3.772  0.0299  0.6434  1.0600
 1614SOL    HW3 6223   0.890   5.383   3.704 -0.0727 -1.9337 -4.7143
 1614SOL    MW4 6224   0.843   5.323   3.746 -0.3758 -1.0163 -0.1413
 1615SOL     OW 6225   5.532   2.669   0.297 -0.2145  0.0402  0.1126
 1615SOL    HW2 6226   5.628   2.671   0.287 -0.4189 -0.6950 -3.0711
 1615SOL    HW3 6227   5.504   2.757   0.274 -0.2613  1.4072  4.4612
 1615SOL    MW4 6228   5.541   2.681   0.293  0.1275  0.0916  0.1248
 1616SOL     OW 6229   1.460   2.367   0.147 -0.4437 -0.1716  0.5188
 1616SOL    HW2 6230   1.403   2.331   0.079 -1.6080  2.6196 -0.1061
 1616SOL    HW3 6231   1.459   2.461   0.131  2.8261  0.1721  1.7143
 1616SOL    MW4 6232   1.452   2.375   0.136  0.3540  0.6664 -0.2396
 1617SOL     OW 6233   3.058   0.540   0.156 -0.2501 -0.1558 -0.1939
 1617SOL    HW2 6234   3.140   0.492   0.169 -0.6162 -0.8990 -0.5627
 1617SOL    HW3 6235   3.075   0.597   0.081 -0.1771 -0.5644 -0.4902
 1617SOL    MW4 6236   3.071   0.541   0.148 -0.2237  0.6500 -0.5190
 1618SOL     OW 6237   0.534   6.049   2.192  0.2245 -0.5585 -0.2958
 1618SOL    HW2 6238   0.593   5.996   2.245 -0.2690 -0.3738  0.4508
 1618SOL    HW3 6239   0.591   6.094   2.130  1.1091  0.9457  1.5153
 1618SOL    MW4 6240   0.549   6.048   2.191 -0.7560  0.1923  0.0983
 1619SOL     OW 6241   5.207   3.840   4.462  0.4879 -0.5336  0.0031
 1619SOL    HW2 6242   5.146   3.770   4.484 -3.1060  2.5837  0.9847
 1619SOL    HW3 6243   5.170   3.881   4.385  1.1932  1.6465  0.7608
 1619SOL    MW4 6244   5.194   3.836   4.455 -0.2183 -0.2053 -0.4336
 1620SOL     OW 6245   1.771   0.441   1.630  0.9039 -0.4209  0.2185
 1620SOL    HW2 6246   1.754   0.360   1.581  1.1338 -0.8669  0.8780
 1620SOL    HW3 6247   1.859   0.430   1.665  0.3224 -0.6065  1.6965
 1620SOL    MW4 6248   1.780   0.429   1.628  0.5387  0.3757 -0.8570
 1621SOL     OW 6249   0.976   5.702   0.670  0.0568  0.1486 -0.3593
 1621SOL    HW2 6250   1.020   5.664   0.593 -1.4073 -0.1315 -1.0982
 1621SOL    HW3 6251   1.037   5.769   0.702  0.9482 -0.1215 -1.4178
 1621SOL    MW4 6252   0.990   5.705   0.664  0.3660 -0.0250 -0.3668
 1622SOL     OW 6253   1.712   5.960   1.426 -0.5837 -0.2636 -0.3408
 1622SOL    HW2 6254   1.757   5.966   1.510 -1.6500 -0.3246  0.2479
 1622SOL    HW3 6255   1.729   6.044   1.384 -0.7054  0.0787  0.2800
 1622SOL    MW4 6256   1.720   5.972   1.431 -0.4252 -0.2334 -0.1415
 1623SOL     OW 6257   0.013   4.588   5.039 -0.4780 -0.0824 -0.1839
 1623SOL    HW2 6258   0.107   4.603   5.032 -0.6101  1.2914  0.6000
 1623SOL    HW3 6259   0.003   4.522   5.108 -0.0800 -0.5740 -0.5915
 1623SOL    MW4 6260   0.024   4.581   5.047  0.0760  0.4045  0.2984
 1624SOL     OW 6261   5.404   1.318   2.313 -0.1426 -0.2339  0.0202
 1624SOL    HW2 6262   5.379   1.392   2.369 -1.3154 -0.6302  0.0427
 1624SOL    HW3 6263   5.365   1.242   2.355 -0.0118 -0.7000 -0.6919
 1624SOL    MW4 6264   5.396   1.318   2.326 -0.1228  0.2498 -0.0703
 1625SOL     OW 6265   2.227   5.924   2.887 -0.4882  0.4270 -0.3679
 1625SOL    HW2 6266   2.166   5.938   2.959 -1.4978 -1.6032 -0.7439
 1625SOL    HW3 6267   2.180   5.955   2.809 -0.9577 -0.8305 -0.6129
 1625SOL    MW4 6268   2.213   5.930   2.886 -0.3397  0.2150  0.0380
 1626SOL     OW 6269   5.916   2.006   0.856 -0.4262  0.7813 -0.3161
 1626SOL    HW2 6270   5.904   2.092   0.896  1.5612 -0.0127  2.2414
 1626SOL    HW3 6271   5.866   1.946   0.911  1.0919 -0.1334  0.1435
 1626SOL    MW4 6272   5.908   2.009   0.868  0.2140  0.0444 -0.5932
 1627SOL     OW 6273   3.382   2.582   3.852  0.1128 -0.4916  0.5446
 1627SOL    HW2 6274   3.459   2.607   3.904  0.4291 -1.3229  0.4901
 1627SOL    HW3 6275   3.345   2.665   3.822  1.4280 -0.1123 -0.0640
 1627SOL    MW4 6276   3.387   2.597   3.855 -0.0275  0.6055  0.2797
 1628SOL     OW 6277   3.619   1.285   4.163 -0.4612  0.7000 -0.0908
 1628SOL    HW2 6278   3.631   1.311   4.254 -0.6935  1.3725 -0.2480
 1628SOL    HW3 6279   3.533   1.243   4.161  0.0330 -0.3835  0.2183
 1628SOL    MW4 6280   3.610   1.283   4.175  0.8960  0.5360 -0.1445
 1629SOL     OW 6281   3.441   1.957   6.051 -0.4505 -0.1239 -0.1495
 1629SOL    HW2 6282   3.518   1.904   6.032 -1.3961 -1.0809 -1.5503
 1629SOL    HW3 6283   3.389   1.905   6.111 -0.4869  0.0614 -0.0186
 1629SOL    MW4 6284   3.445   1.943   6.056  0.2345  0.3285 -0.0140
 1630SOL     OW 6285   2.296   0.015   4.967 -0.0962  0.4248  0.5346
 1630SOL    HW2 6286   2.381  -0.026   4.982 -0.4796 -0.3623  0.5784
 1630SOL    HW3 6287   2.236  -0.033   5.024 -1.0060 -0.5241 -1.1734
 1630SOL    MW4 6288   2.299   0.003   4.977 -0.3272  0.0520 -0.5582
 1631SOL     OW 6289   0.582   0.967   3.976  0.5945 -0.5893  0.3893
 1631SOL    HW2 6290   0.653   0.987   3.915  0.8734  0.3956  1.0210
 1631SOL    HW3 6291   0.504   0.965   3.921  1.2709 -3.5334 -0.6541
 1631SOL    MW4 6292   0.581   0.969   3.960 -0.2290  0.3499 -0.0280
 1632SOL     OW 6293   0.151   6.133   5.479  0.4775 -0.1699  0.0393
 1632SOL    HW2 6294   0.241   6.162   5.488  0.3094  0.4335 -0.1314
 1632SOL    HW3 6295   0.135   6.078   5.556  0.5124  1.0079  0.9202
 1632SOL    MW4 6296   0.160   6.130   5.490  0.0720  0.1852 -0.4340
 1633SOL     OW 6297   5.326   2.856   2.473 -0.3211  0.5207 -0.2703
 1633SOL    HW2 6298   5.302   2.830   2.384  1.8381 -1.0968 -0.4544
 1633SOL    HW3 6299   5.304   2.949   2.478 -3.1738  0.0055 -1.4844
 1633SOL    MW4 6300   5.320   2.865   2.462  0.3326  0.3480  0.4308
 1634SOL     OW 6301   3.127   2.800   2.734 -0.0599  0.1190  0.0353
 1634SOL    HW2 6302   3.094   2.730   2.678  0.0907  0.2326 -0.1955
 1634SOL    HW3 6303   3.050   2.833   2.780 -0.5509  1.4752 -1.6830
 1634SOL    MW4 6304   3.113   2.795   2.733  0.1826  0.5034  0.3582
 1635SOL     OW 6305   2.696   6.087   1.144 -0.2321 -0.5044  0.1686
 1635SOL    HW2 6306   2.766   6.069   1.081  0.1149 -1.4564  0.8051
 1635SOL    HW3 6307   2.732   6.058   1.228 -0.5290  1.1317  0.8867
 1635SOL    MW4 6308   2.710   6.081   1.147  0.3956  0.1003 -0.0082
 1636SOL     OW 6309   2.659   3.921   5.818 -0.1938  0.0628  0.5118
 1636SOL    HW2 6310   2.663   3.907   5.724  0.7662  3.7213 -0.1802
 1636SOL    HW3 6311   2.662   4.017   5.828  0.5760 -0.1782  4.2931
 1636SOL    MW4 6312   2.660   3.932   5.807  0.0078  0.9092 -0.5160
 1637SOL     OW 6313   2.565   4.638   3.043 -0.1345  0.4091 -0.3467
 1637SOL    HW2 6314   2.605   4.714   3.084 -0.2595  0.3038 -0.0284
 1637SOL    HW3 6315   2.486   4.621   3.094 -1.8755  2.0084 -2.3126
 1637SOL    MW4 6316   2.560   4.646   3.055  0.1571 -0.3987 -1.0348
 1638SOL     OW 6317   2.701   5.259   1.916 -0.3312 -0.4207  0.2281
 1638SOL    HW2 6318   2.791   5.249   1.884  0.0241 -0.6469  1.2558
 1638SOL    HW3 6319   2.679   5.351   1.898  0.6154  0.0221  1.2043
 1638SOL    MW4 6320   2.710   5.270   1.910  0.3182 -0.5366 -0.1173
 1639SOL     OW 6321   0.494   0.198   3.314 -0.6997  0.8131  0.0813
 1639SOL    HW2 6322   0.534   0.181   3.229 -1.0285  1.7656 -0.2839
 1639SOL    HW3 6323   0.407   0.159   3.308 -0.4872  0.3057  0.2287
 1639SOL    MW4 6324   0.488   0.191   3.302 -0.2809  0.1800  0.1906
 1640SOL     OW 6325   1.883   0.594   3.086 -0.1651  0.0413 -0.4080
 1640SOL    HW2 6326   1.795   0.619   3.116  0.3377 -0.1449  1.3025
 1640SOL    HW3 6327   1.872   0.579   2.992 -2.1021 -0.6002 -0.1277
 1640SOL    MW4 6328   1.870   0.596   3.077  0.4558 -0.0449 -0.2441
 1641SOL     OW 6329   2.706   6.288   1.404 -0.2857  0.2098  0.1747
 1641SOL    HW2 6330   2.688   6.301   1.311 -0.3257 -1.5998 -0.0930
 1641SOL    HW3 6331   2.748   6.202   1.410 -0.9138 -0.0322  1.8968
 1641SOL    MW4 6332   2.709   6.279   1.393  0.1234 -0.2170  0.1655
 1642SOL     OW 6333   0.785   2.897   1.372  0.1563  0.3068  0.3870
 1642SOL    HW2 6334   0.729   2.821   1.362  1.0955 -0.3259 -0.2207
 1642SOL    HW3 6335   0.735   2.969   1.334  0.8542 -0.7702 -2.9737
 1642SOL    MW4 6336   0.771   2.897   1.366  0.6272  0.1711 -0.3900
 1643SOL     OW 6337   0.928   0.948   6.353 -0.1936  0.3256 -0.2321
 1643SOL    HW2 6338   0.916   0.862   6.393  1.9830 -0.9415 -2.0552
 1643SOL    HW3 6339   0.849   0.960   6.299 -1.0307  0.0170  0.8854
 1643SOL    MW4 6340   0.916   0.938   6.351 -0.5170 -0.1830  0.6763
 1644SOL     OW 6341   5.642   3.641   2.864  0.4244 -0.0905  0.2378
 1644SOL    HW2 6342   5.695   3.631   2.944  1.1106 -0.4195 -0.2419
 1644SOL    HW3 6343   5.562   3.593   2.882  1.1332 -1.3029  0.2444
 1644SOL    MW4 6344   5.639   3.634   2.877 -0.1032  0.0982  0.5055
 1645SOL     OW 6345   1.161   3.741   1.939  0.6077 -0.1508  0.9045
 1645SOL    HW2 6346   1.074   3.761   1.973  0.6658  0.9213  0.4498
 1645SOL    HW3 6347   1.190   3.822   1.896  0.7484 -1.2807 -1.2486
 1645SOL    MW4 6348   1.154   3.754   1.938  0.0080  0.6026  0.6691
 1646SOL     OW 6349   0.167   1.874   4.740 -0.6364 -0.5445  0.5293
 1646SOL    HW2 6350   0.253   1.866   4.698  0.0137  1.1089  1.4322
 1646SOL    HW3 6351   0.183   1.929   4.816 -2.9319  1.9654 -0.6306
 1646SOL    MW4 6352   0.181   1.880   4.744  0.2196 -0.6466 -0.0821
 1647SOL     OW 6353   2.345   5.321   0.925 -0.0341 -0.0410  0.0197
 1647SOL    HW2 6354   2.286   5.367   0.985  0.2238  2.0455 -1.2366
 1647SOL    HW3 6355   2.301   5.238   0.907 -1.0152  0.1050  1.6027
 1647SOL    MW4 6356   2.331   5.316   0.930 -0.7793  0.1690 -0.2952
 1648SOL     OW 6357   3.947   1.734   4.739 -0.1141 -0.0050  0.0252
 1648SOL    HW2 6358   3.909   1.694   4.660 -0.7302 -0.1759  0.4035
 1648SOL    HW3 6359   3.875   1.785   4.777  0.1879  0.0943  0.4653
 1648SOL    MW4 6360   3.933   1.735   4.734  0.1770  0.0080 -0.7785
 1649SOL     OW 6361   5.096   1.446   3.838  0.5132 -0.5442  0.2262
 1649SOL    HW2 6362   5.146   1.413   3.913  1.2249  0.4882  0.2282
 1649SOL    HW3 6363   5.017   1.483   3.877  0.4601 -0.8205  0.3819
 1649SOL    MW4 6364   5.093   1.447   3.853 -0.1417 -0.0680  0.6508
 1650SOL     OW 6365   5.668   0.630   5.211 -0.0566  0.0734  0.1243
 1650SOL    HW2 6366   5.607   0.689   5.166  1.6916  1.0021 -1.1608
 1650SOL    HW3 6367   5.659   0.547   5.164 -0.5855  0.1104  0.1604
 1650SOL    MW4 6368   5.659   0.627   5.199  0.2108  0.1676  0.5102
 1651SOL     OW 6369   4.596   4.399   5.551 -0.4153 -0.9700  0.2892
 1651SOL    HW2 6370   4.600   4.304   5.559 -1.2794 -0.8713  2.7590
 1651SOL    HW3 6371   4.504   4.417   5.532 -0.2999 -0.5926  0.0740
 1651SOL    MW4 6372   4.584   4.389   5.549  0.4594 -0.3571 -0.5769
 1652SOL     OW 6373   1.312   5.377   0.004 -0.2995 -0.3809 -0.0354
 1652SOL    HW2 6374   1.406   5.394   0.011  0.2019 -2.4360 -0.9314
 1652SOL    HW3 6375   1.294   5.380  -0.090 -1.5597  1.8182  0.2287
 1652SOL    MW4 6376   1.322   5.379  -0.008  0.5459  0.6788 -0.4708
 1653SOL     OW 6377   4.942   2.863   3.633  0.2199  0.2247 -0.2422
 1653SOL    HW2 6378   4.887   2.798   3.589 -0.7831  0.1673  1.0287
 1653SOL    HW3 6379   4.909   2.865   3.723  1.1093  1.5369  0.0840
 1653SOL    MW4 6380   4.930   2.855   3.639  0.0884  0.1691 -0.0194
 1654SOL     OW 6381   4.148   4.807   1.546 -0.1386 -0.0088  0.4653
 1654SOL    HW2 6382   4.090   4.741   1.508 -0.5258  0.5912  0.0086
 1654SOL    HW3 6383   4.223   4.810   1.487 -0.2250  0.1173  0.3605
 1654SOL    MW4 6384   4.150   4.799   1.533 -0.6259 -0.3155 -0.2188
 1655SOL     OW 6385   2.243   2.921   3.311 -0.0205  0.2756  0.1290
 1655SOL    HW2 6386   2.171   2.946   3.368 -1.7873  0.4162 -2.0692
 1655SOL    HW3 6387   2.321   2.953   3.357 -0.9228 -2.3506  4.0105
 1655SOL    MW4 6388   2.244   2.928   3.325 -0.0319 -0.8778 -0.6380
 1656SOL     OW 6389   3.888   5.271   5.146  0.0020  0.0758  0.0954
 1656SOL    HW2 6390   3.815   5.275   5.208 -0.7726 -0.0403 -0.7884
 1656SOL    HW3 6391   3.939   5.350   5.164 -0.6722  0.4726  0.3273
 1656SOL    MW4 6392   3.885   5.282   5.157 -0.4017  0.5057 -0.2535
 1657SOL     OW 6393   1.491   0.659   3.834 -0.3413  0.0302 -0.5096
 1657SOL    HW2 6394   1.417   0.652   3.894 -1.2945  2.3217 -1.3265
 1657SOL    HW3 6395   1.454   0.695   3.753  1.7142  1.8771 -0.7366
 1657SOL    MW4 6396   1.477   0.663   3.831 -0.6103  0.1709  0.1888
 1658SOL     OW 6397   5.658   2.379   2.654 -0.3467 -0.5116  0.3142
 1658SOL    HW2 6398   5.606   2.305   2.683 -0.4425 -0.3437  0.5730
 1658SOL    HW3 6399   5.621   2.455   2.700  2.2986 -0.8250  3.3470
 1658SOL    MW4 6400   5.646   2.380   2.664  0.3990  0.5702  0.0282
 1659SOL     OW 6401   4.178   5.948   2.825  0.4449 -0.4942 -0.3260
 1659SOL    HW2 6402   4.103   5.973   2.771  0.3527 -0.0956 -0.0137
 1659SOL    HW3 6403   4.200   6.027   2.874  0.8191 -0.7244 -0.1210
 1659SOL    MW4 6404   4.171   5.962   2.824  0.6183 -0.8675  0.7535
 1660SOL     OW 6405   2.320   4.878   0.629  0.0803 -0.1911 -0.0220
 1660SOL    HW2 6406   2.405   4.919   0.644 -0.2882  0.7368 -0.3414
 1660SOL    HW3 6407   2.340   4.797   0.583  0.7655  0.2760 -0.5719
 1660SOL    MW4 6408   2.334   4.873   0.625 -0.7105 -0.0053  0.1779
 1661SOL     OW 6409   6.413   2.954   5.259  0.3623  0.3193  0.0140
 1661SOL    HW2 6410   6.437   2.867   5.229 -0.1642  0.0491  0.3492
 1661SOL    HW3 6411   6.477   3.013   5.218  0.8026 -0.2350 -0.1043
 1661SOL    MW4 6412   6.424   2.951   5.250  0.1780  0.2242 -1.0320
 1662SOL     OW 6413   1.637   3.154   2.463  0.3494  0.4396  0.2587
 1662SOL    HW2 6414   1.645   3.233   2.410  0.2421 -0.4825 -1.2179
 1662SOL    HW3 6415   1.642   3.184   2.554  0.3120  2.1162 -0.2662
 1662SOL    MW4 6416   1.639   3.168   2.468  0.0519  0.2291 -0.4523
 1663SOL     OW 6417   5.089   6.375   5.754  0.8908 -0.4343  0.1250
 1663SOL    HW2 6418   5.098   6.452   5.697  0.8753 -0.1934  0.4443
 1663SOL    HW3 6419   5.102   6.300   5.696 -2.9678 -0.3794 -1.0559
 1663SOL    MW4 6420   5.092   6.375   5.739 -0.8016 -0.1400 -0.0446
 1664SOL     OW 6421   0.910   2.295   1.090 -0.0240 -0.3712  0.1837
 1664SOL    HW2 6422   0.889   2.269   1.000 -0.6076  1.3717 -0.2277
 1664SOL    HW3 6423   1.001   2.271   1.101  0.2296 -0.0890 -1.1016
 1664SOL    MW4 6424   0.919   2.288   1.079  0.3849  0.6881 -0.2008
 1665SOL     OW 6425   2.631   2.984   3.770 -0.1206 -0.8954 -0.5139
 1665SOL    HW2 6426   2.596   2.921   3.707 -1.0434 -0.1877 -0.7251
 1665SOL    HW3 6427   2.665   2.929   3.842  0.4015 -1.6789 -1.3319
 1665SOL    MW4 6428   2.631   2.968   3.771  0.7367 -0.0842 -0.2152
 1666SOL     OW 6429   4.995   4.663   5.073 -0.0316  0.0692  0.0565
 1666SOL    HW2 6430   5.002   4.568   5.084  0.0146 -0.0663 -1.0273
 1666SOL    HW3 6431   5.069   4.686   5.017  1.1951  1.0694  1.9858
 1666SOL    MW4 6432   5.006   4.653   5.067  0.0106 -0.2851  0.4141
 1667SOL     OW 6433   4.415   4.963   5.613 -0.0376  0.7027  0.0185
 1667SOL    HW2 6434   4.342   4.961   5.675  1.0058 -0.4728  1.2751
 1667SOL    HW3 6435   4.462   5.044   5.633  0.5846  0.0863  1.1643
 1667SOL    MW4 6436   4.412   4.973   5.624  0.0948  0.5904 -0.1863
 1668SOL     OW 6437   0.957   4.320   4.558  0.0646 -0.2891  0.4004
 1668SOL    HW2 6438   1.040   4.362   4.580 -0.7133  1.4902  0.0754
 1668SOL    HW3 6439   0.964   4.300   4.465  0.2263 -0.3665  0.4294
 1668SOL    MW4 6440   0.969   4.323   4.549  0.3588 -0.5038  0.2040
 1669SOL     OW 6441   5.172   2.953   3.316  0.2881 -0.2146  0.6002
 1669SOL    HW2 6442   5.203   2.920   3.400  2.7501 -0.9658 -0.5335
 1669SOL    HW3 6443   5.152   3.045   3.332  2.3517  0.0886  1.6470
 1669SOL    MW4 6444   5.173   2.961   3.329  0.3531 -0.3004 -0.2184
 1670SOL     OW 6445   1.176   1.045   5.979  0.1587  0.5890 -0.4559
 1670SOL    HW2 6446   1.177   0.951   5.959 -1.6450  0.5580 -0.5903
 1670SOL    HW3 6447   1.091   1.075   5.948  0.4623  2.1664  0.1294
 1670SOL    MW4 6448   1.165   1.036   5.972  0.2202 -0.3773 -0.1984
 1671SOL     OW 6449   6.358   3.673   4.113  0.0277 -0.7516  0.3054
 1671SOL    HW2 6450   6.297   3.599   4.112 -1.1206  0.1629 -1.1693
 1671SOL    HW3 6451   6.419   3.654   4.041 -0.6049 -0.0292 -0.4390
 1671SOL    MW4 6452   6.358   3.661   4.103  0.0897  0.1212  0.3364
 1672SOL     OW 6453   5.974   4.059   0.282 -0.1898 -0.9118 -0.1082
 1672SOL    HW2 6454   5.969   3.990   0.348 -0.9439  0.5621  1.4857
 1672SOL    HW3 6455   6.060   4.047   0.240  0.4265 -1.7593  1.3297
 1672SOL    MW4 6456   5.985   4.049   0.285 -0.9533 -0.5016 -0.1507
 1673SOL     OW 6457   5.092   5.504   5.482  0.2866  0.4297  0.1813
 1673SOL    HW2 6458   5.058   5.415   5.468  0.7246  0.1832  0.6736
 1673SOL    HW3 6459   5.043   5.558   5.419  1.8592 -0.5616 -2.0532
 1673SOL    MW4 6460   5.081   5.499   5.472 -0.4738  0.7299  0.1008
 1674SOL     OW 6461   2.976   6.056   0.622  0.2985  0.4349 -0.2399
 1674SOL    HW2 6462   3.072   6.056   0.618  0.3330 -1.9627 -0.6803
 1674SOL    HW3 6463   2.948   6.059   0.531 -0.1063  2.0433 -0.0906
 1674SOL    MW4 6464   2.985   6.056   0.610  0.2187 -0.2387  0.2880
 1675SOL     OW 6465   0.396   0.819   0.611  0.8398  0.3805  0.8115
 1675SOL    HW2 6466   0.406   0.898   0.559 -0.3908  0.6746  1.0027
 1675SOL    HW3 6467   0.344   0.846   0.686 -1.4511 -1.0215 -0.1769
 1675SOL    MW4 6468   0.390   0.833   0.614  0.5418  0.1350  0.4220
 1676SOL     OW 6469   1.183   5.003   4.197 -0.0264 -0.2081 -0.4077
 1676SOL    HW2 6470   1.225   5.089   4.207 -1.5217  0.4375  0.5710
 1676SOL    HW3 6471   1.226   4.947   4.262 -1.5373  0.8127  1.5724
 1676SOL    MW4 6472   1.194   5.007   4.207 -0.2413 -0.7108  0.3766
 1677SOL     OW 6473   0.749   1.758   3.463  0.2833  0.4475  0.2354
 1677SOL    HW2 6474   0.787   1.778   3.377  0.1774 -0.4886 -0.0424
 1677SOL    HW3 6475   0.700   1.837   3.486  2.0159  1.5330  0.4143
 1677SOL    MW4 6476   0.748   1.771   3.455 -0.0609 -0.6060  0.0252
 1678SOL     OW 6477   5.215   1.889   3.042  0.0578  0.3637 -0.8707
 1678SOL    HW2 6478   5.234   1.845   3.124  0.8637 -0.0349 -1.2630
 1678SOL    HW3 6479   5.119   1.888   3.036  0.0438 -1.2207 -0.7939
 1678SOL    MW4 6480   5.205   1.883   3.052  0.4475  0.2154 -0.3245
 1679SOL     OW 6481   4.997   4.045   0.384  0.3808 -0.2673 -0.7786
 1679SOL    HW2 6482   5.029   4.130   0.354 -2.1128  0.7560 -0.8044
 1679SOL    HW3 6483   4.918   4.030   0.332 -0.3348 -1.6280  0.6303
 1679SOL    MW4 6484   4.991   4.054   0.374 -0.0073  0.0394  0.6945
 1680SOL     OW 6485   1.602   5.517   2.650 -0.3253  0.1407 -0.1983
 1680SOL    HW2 6486   1.691   5.505   2.617  0.2201 -0.3657  1.3458
 1680SOL    HW3 6487   1.611   5.582   2.720 -1.6041  1.9564 -1.6230
 1680SOL    MW4 6488   1.615   5.524   2.655 -0.3521  0.0936 -0.2812
 1681SOL     OW 6489   2.572   2.070   0.833  0.0660 -0.6653 -0.5575
 1681SOL    HW2 6490   2.655   2.077   0.881  0.1229  1.4513 -0.8637
 1681SOL    HW3 6491   2.508   2.044   0.899  0.5091  0.2813  0.2672
 1681SOL    MW4 6492   2.575   2.068   0.848 -0.2261  0.2494 -1.0916
 1682SOL     OW 6493   3.405   4.120   0.921  0.7523 -0.0667  0.0646
 1682SOL    HW2 6494   3.462   4.064   0.974  0.0126  0.5181  1.5476
 1682SOL    HW3 6495   3.412   4.084   0.833  1.9765 -1.1368  0.5523
 1682SOL    MW4 6496   3.414   4.108   0.916 -0.0305  0.7667 -0.0607
 1683SOL     OW 6497   0.056   6.379   3.797 -0.1153 -0.1704 -0.3440
 1683SOL    HW2 6498   0.052   6.401   3.890 -0.7981 -1.1267 -0.1395
 1683SOL    HW3 6499   0.006   6.449   3.754 -0.5995 -0.2397  0.1005
 1683SOL    MW4 6500   0.049   6.391   3.803 -0.2794  0.3471 -0.3238
 1684SOL     OW 6501   3.924   4.042   4.934  0.2833 -0.1095 -0.5712
 1684SOL    HW2 6502   3.862   3.973   4.908  1.5297 -1.0145 -1.2611
 1684SOL    HW3 6503   3.974   4.060   4.854  1.5615 -0.0946  0.2144
 1684SOL    MW4 6504   3.922   4.035   4.920  0.6386  0.3435 -0.3993
 1685SOL     OW 6505   5.692   6.194   3.785  0.1927 -0.6510 -0.4036
 1685SOL    HW2 6506   5.765   6.137   3.812  0.6136 -0.2749 -0.7344
 1685SOL    HW3 6507   5.677   6.171   3.694 -0.7723 -1.4291 -0.0654
 1685SOL    MW4 6508   5.700   6.183   3.777 -0.4244  0.0617  0.2574
 1686SOL     OW 6509   2.670   0.034   0.677 -0.5871 -0.2658  0.2644
 1686SOL    HW2 6510   2.604   0.002   0.738 -0.5375 -1.6350 -0.3499
 1686SOL    HW3 6511   2.753   0.004   0.713 -0.2621  1.4283  1.0203
 1686SOL    MW4 6512   2.672   0.026   0.690 -0.0273 -0.2610  0.7342
 1687SOL     OW 6513   4.228   1.238   6.301  0.2914  0.2402  0.1619
 1687SOL    HW2 6514   4.213   1.222   6.208  1.7106 -0.5346  0.0368
 1687SOL    HW3 6515   4.217   1.152   6.342  2.6801 -0.1153  0.2366
 1687SOL    MW4 6516   4.225   1.224   6.294 -0.2946 -0.7286  0.0908
 1688SOL     OW 6517   0.665   6.209   1.967 -0.5258 -0.2423  0.2006
 1688SOL    HW2 6518   0.602   6.280   1.957  1.1814  1.4180  0.5287
 1688SOL    HW3 6519   0.693   6.189   1.877 -0.2619  0.2539  0.1662
 1688SOL    MW4 6520   0.661   6.216   1.954 -0.0639 -0.1249 -0.0320
 1689SOL     OW 6521   0.779   4.520   5.885  0.2026  0.0510  0.2104
 1689SOL    HW2 6522   0.760   4.455   5.953 -0.3341  1.3206  1.3122
 1689SOL    HW3 6523   0.707   4.510   5.822  0.4281 -0.7858  0.0706
 1689SOL    MW4 6524   0.767   4.510   5.885 -0.0072 -0.1667 -0.3237
 1690SOL     OW 6525   5.625   4.068   5.462 -0.0255 -0.3613  0.3985
 1690SOL    HW2 6526   5.667   4.109   5.387  1.4591  2.0763  2.4004
 1690SOL    HW3 6527   5.676   3.989   5.479 -0.6765 -1.1980 -1.3715
 1690SOL    MW4 6528   5.637   4.063   5.455 -0.4781  0.1026 -0.2122
 1691SOL     OW 6529   1.309   3.630   5.297 -0.4543  0.3623 -0.2512
 1691SOL    HW2 6530   1.260   3.641   5.215  0.6222  0.5176 -0.8935
 1691SOL    HW3 6531   1.338   3.538   5.295 -2.6939 -0.4659  1.2842
 1691SOL    MW4 6532   1.306   3.619   5.286 -0.2616  0.0726  0.0886
 1692SOL     OW 6533   1.730   4.402   6.170  0.5256 -0.1979 -0.7194
 1692SOL    HW2 6534   1.661   4.468   6.183 -0.6027 -1.4531  0.0166
 1692SOL    HW3 6535   1.809   4.453   6.153 -0.1096  1.3771  0.7335
 1692SOL    MW4 6536   1.731   4.417   6.170  0.0312 -0.2441  0.6470
 1693SOL     OW 6537   0.402   0.736   6.325 -0.2412 -0.4698  0.4185
 1693SOL    HW2 6538   0.344   0.746   6.401  0.6604 -1.0651  1.2240
 1693SOL    HW3 6539   0.486   0.711   6.364  0.4149 -0.1167 -0.7516
 1693SOL    MW4 6540   0.405   0.734   6.340  0.0056 -0.3572  0.1070
 1694SOL     OW 6541   0.840   3.326   3.531 -0.3330  0.1901 -0.2985
 1694SOL    HW2 6542   0.785   3.402   3.552 -2.4804 -1.9817  2.9720
 1694SOL    HW3 6543   0.911   3.329   3.595 -0.1294 -0.2635 -0.4966
 1694SOL    MW4 6544   0.842   3.337   3.543 -0.3363 -0.1347  0.2250
 1695SOL     OW 6545   0.539   3.943   4.032 -0.9787 -0.2187 -0.3100
 1695SOL    HW2 6546   0.518   3.903   3.947 -3.5725  1.3284 -0.4995
 1695SOL    HW3 6547   0.515   3.877   4.096 -1.5727 -0.4148 -0.7231
 1695SOL    MW4 6548   0.533   3.929   4.029  0.4633  0.1225  0.0293
 1696SOL     OW 6549   2.025   1.012   1.757 -0.1860  0.0398 -0.0119
 1696SOL    HW2 6550   2.089   1.062   1.807  0.5784  0.0158 -0.9373
 1696SOL    HW3 6551   2.075   0.975   1.684 -1.2291 -0.0496 -0.7038
 1696SOL    MW4 6552   2.040   1.014   1.754  0.3346 -0.4847 -0.1682
 1697SOL     OW 6553   6.212   3.211   4.676 -0.2373  0.0470 -0.3790
 1697SOL    HW2 6554   6.270   3.194   4.602 -1.3186  0.6317 -1.4069
 1697SOL    HW3 6555   6.195   3.306   4.673  0.6933  0.3132  1.4039
 1697SOL    MW4 6556   6.217   3.222   4.666 -0.1096  0.6634 -0.0841
 1698SOL     OW 6557   3.840   3.278   4.090  0.1159 -0.0713 -0.0927
 1698SOL    HW2 6558   3.916   3.250   4.039 -0.3643 -0.1980 -0.7493
 1698SOL    HW3 6559   3.856   3.371   4.107 -0.4563  0.3807 -1.8403
 1698SOL    MW4 6560   3.853   3.286   4.085  0.4559 -0.3951  0.0783
 1699SOL     OW 6561   2.948   6.157   2.177 -0.4095 -0.1605  0.7974
 1699SOL    HW2 6562   2.904   6.129   2.257 -1.4435 -0.7965  0.0388
 1699SOL    HW3 6563   2.963   6.076   2.128 -1.7040  0.3730 -0.5742
 1699SOL    MW4 6564   2.944   6.143   2.181  0.1342 -0.3650  0.3051
 1700SOL     OW 6565   3.331   4.577   5.023  0.2758  0.0299  0.9539
 1700SOL    HW2 6566   3.270   4.504   5.037 -1.7646  1.3295 -0.6408
 1700SOL    HW3 6567   3.360   4.567   4.932 -0.6404  1.5845  0.4509
 1700SOL    MW4 6568   3.327   4.566   5.013 -0.3639  0.3539 -0.3449
 1701SOL     OW 6569   1.584   1.180   2.219  0.3524 -0.0935 -0.0565
 1701SOL    HW2 6570   1.630   1.196   2.137 -0.5817 -2.4833 -1.1412
 1701SOL    HW3 6571   1.619   1.097   2.250 -2.3461 -1.4716 -0.3884
 1701SOL    MW4 6572   1.595   1.171   2.212 -0.6173 -0.1872 -0.9839
 1702SOL     OW 6573   2.214   4.318   3.264  0.3580 -1.0157  0.0883
 1702SOL    HW2 6574   2.198   4.371   3.343  0.3277 -2.5063  1.1101
 1702SOL    HW3 6575   2.260   4.241   3.296 -0.9737 -2.3680 -1.1240
 1702SOL    MW4 6576   2.218   4.315   3.279  0.2916  0.5860 -0.7473
 1703SOL     OW 6577   0.368   5.696   3.779 -0.5250 -0.7326 -0.2979
 1703SOL    HW2 6578   0.446   5.674   3.830 -0.3677 -0.1824 -0.3016
 1703SOL    HW3 6579   0.392   5.677   3.689 -0.8551 -1.8572 -0.1736
 1703SOL    MW4 6580   0.381   5.690   3.774 -0.3320  0.0999 -0.3537
 1704SOL     OW 6581   5.074   1.848   5.537  0.5425 -0.0336  0.3970
 1704SOL    HW2 6582   5.152   1.815   5.580 -0.2589  0.0918  2.0082
 1704SOL    HW3 6583   5.041   1.916   5.595 -1.5102 -1.0092  0.4959
 1704SOL    MW4 6584   5.080   1.852   5.550  0.6756  0.1689 -0.2774
 1705SOL     OW 6585   3.239   5.518   0.078 -0.1193 -0.6644 -0.0523
 1705SOL    HW2 6586   3.244   5.548  -0.013  1.1115 -1.3972 -0.2511
 1705SOL    HW3 6587   3.178   5.444   0.076 -1.7843  0.6324  0.1341
 1705SOL    MW4 6588   3.231   5.513   0.066 -0.1538  0.1743 -0.0087
 1706SOL     OW 6589   5.040   3.474   5.386 -0.3191  0.2233  0.7683
 1706SOL    HW2 6590   5.000   3.543   5.334  0.7193  1.2159  1.2280
 1706SOL    HW3 6591   4.987   3.470   5.465  0.2726  1.3267  1.2497
 1706SOL    MW4 6592   5.028   3.483   5.389  0.5978  0.5895  0.2846
 1707SOL     OW 6593   0.971   4.524   3.307  0.1279 -0.0691  0.1241
 1707SOL    HW2 6594   0.988   4.618   3.298  0.7980 -0.3106 -1.4961
 1707SOL    HW3 6595   0.993   4.487   3.221 -1.1365 -1.5670  0.3962
 1707SOL    MW4 6596   0.976   4.531   3.295  0.2185  0.3007  0.1561
 1708SOL     OW 6597   6.363   0.259   5.340  0.4779  0.6230  0.5823
 1708SOL    HW2 6598   6.330   0.256   5.430 -0.1864  1.2333  0.3683
 1708SOL    HW3 6599   6.302   0.317   5.294  0.7523  0.2403 -0.2855
 1708SOL    MW4 6600   6.350   0.266   5.346  0.2944 -0.5112 -0.7112
 1709SOL     OW 6601   2.615   1.415   6.372  0.3083 -0.1179  0.4815
 1709SOL    HW2 6602   2.595   1.439   6.281  0.5339 -0.0758  0.4437
 1709SOL    HW3 6603   2.703   1.379   6.369 -0.5920 -2.4524  0.2767
 1709SOL    MW4 6604   2.624   1.414   6.359 -0.3764  0.3238  0.2734
 1710SOL     OW 6605   5.198   1.352   4.975 -0.3310 -0.2972 -0.4646
 1710SOL    HW2 6606   5.276   1.312   5.015 -0.4448  0.7981  0.9424
 1710SOL    HW3 6607   5.160   1.405   5.045 -0.7780  1.4250 -1.9287
 1710SOL    MW4 6608   5.204   1.354   4.990 -0.5547 -0.0540 -0.0650
 1711SOL     OW 6609   2.519   2.812   1.974  0.5135 -0.1364 -0.0204
 1711SOL    HW2 6610   2.430   2.822   1.941  1.1562  0.5497 -1.6307
 1711SOL    HW3 6611   2.517   2.853   2.061 -1.0089 -1.2304  0.5075
 1711SOL    MW4 6612   2.507   2.818   1.981 -0.7244  0.5329 -0.4054
 1712SOL     OW 6613   4.012   2.114   3.413  0.3950  0.0982 -0.1759
 1712SOL    HW2 6614   3.982   2.058   3.484  0.3042 -0.9094 -0.9951
 1712SOL    HW3 6615   3.938   2.174   3.397  0.2070 -0.0299  0.2068
 1712SOL    MW4 6616   3.998   2.115   3.420 -0.1566 -0.0197 -0.1995
 1713SOL     OW 6617   1.439   5.703   5.718 -0.1655 -0.2298 -0.0419
 1713SOL    HW2 6618   1.377   5.635   5.692 -0.4881  1.0360 -2.9224
 1713SOL    HW3 6619   1.515   5.689   5.662 -0.2385  1.7526 -0.6873
 1713SOL    MW4 6620   1.441   5.692   5.707  0.5724  0.0411 -0.5080
 1714SOL     OW 6621   4.192   6.094   3.233 -0.3948  0.0202  0.5417
 1714SOL    HW2 6622   4.153   6.102   3.320  2.3370  0.0553  1.8691
 1714SOL    HW3 6623   4.259   6.162   3.231 -1.4161  1.1133 -2.2800
 1714SOL    MW4 6624   4.195   6.104   3.244 -0.0370 -0.5325  0.4362
 1715SOL     OW 6625   0.100   1.685   0.678  0.3094 -0.0768  0.2220
 1715SOL    HW2 6626   0.160   1.720   0.744 -0.0840 -1.5274  1.4103
 1715SOL    HW3 6627   0.129   1.594   0.666  0.0771  0.0240 -1.2829
 1715SOL    MW4 6628   0.112   1.677   0.685 -0.1282 -0.0119  0.1006
 1716SOL     OW 6629   1.648   2.381   0.590 -0.2333  0.0791 -0.1990
 1716SOL    HW2 6630   1.561   2.418   0.600  0.0084  1.0642 -1.4877
 1716SOL    HW3 6631   1.680   2.370   0.680 -1.0922  1.1397  0.2585
 1716SOL    MW4 6632   1.641   2.384   0.603 -0.0269  0.2511 -0.0285
 1717SOL     OW 6633   1.681   3.751   3.786 -1.0156 -0.5580  0.4139
 1717SOL    HW2 6634   1.764   3.712   3.811  0.0950  0.8878 -0.8190
 1717SOL    HW3 6635   1.625   3.741   3.863  1.2853  1.1720  2.4657
 1717SOL    MW4 6636   1.684   3.745   3.799  0.1788 -0.1267  0.3564
 1718SOL     OW 6637   1.877   6.048   0.866  0.0623  0.0224  0.4403
 1718SOL    HW2 6638   1.969   6.073   0.878  0.4494  0.7624 -2.9303
 1718SOL    HW3 6639   1.829   6.132   0.869  0.0030  0.0722 -1.0472
 1718SOL    MW4 6640   1.883   6.063   0.868  0.4364 -0.2617  0.3353
 1719SOL     OW 6641   4.519   3.260   0.645  0.3674 -0.0211 -0.1163
 1719SOL    HW2 6642   4.562   3.184   0.686  1.6292  0.7372  0.0180
 1719SOL    HW3 6643   4.543   3.334   0.700 -0.3823  0.5692 -0.5634
 1719SOL    MW4 6644   4.528   3.260   0.657 -0.0970 -0.2025 -0.3999
 1720SOL     OW 6645   2.172   2.431   1.475  0.3285 -0.6989 -0.1631
 1720SOL    HW2 6646   2.083   2.409   1.450 -0.5986  0.3069  2.0148
 1720SOL    HW3 6647   2.192   2.373   1.548  1.0164 -0.0916  0.1507
 1720SOL    MW4 6648   2.163   2.421   1.481  0.4251  0.2123  0.3729
 1721SOL     OW 6649   5.950   2.211   4.431 -0.0397  0.1969  0.3703
 1721SOL    HW2 6650   6.007   2.134   4.439 -0.8594 -0.2425  2.5375
 1721SOL    HW3 6651   6.008   2.280   4.397  1.2692 -0.7786  0.5374
 1721SOL    MW4 6652   5.965   2.210   4.427  0.2125  0.2884 -0.3476
 1722SOL     OW 6653   2.870   0.301   5.878  0.4216  0.3807 -0.7157
 1722SOL    HW2 6654   2.939   0.292   5.943  0.3597 -0.6387 -0.7814
 1722SOL    HW3 6655   2.804   0.237   5.903 -0.6483  1.5330 -0.4961
 1722SOL    MW4 6656   2.870   0.291   5.890  0.4707 -0.3148 -0.2279
 1723SOL     OW 6657   1.906   5.446   5.783 -0.2130 -0.0575 -0.1605
 1723SOL    HW2 6658   1.998   5.463   5.804  0.0596 -1.9612  0.3956
 1723SOL    HW3 6659   1.901   5.351   5.774 -2.2190 -0.0306  0.2790
 1723SOL    MW4 6660   1.918   5.436   5.785  0.0165  0.0374 -0.3408
 1724SOL     OW 6661   2.788   6.242   4.997  0.0918  0.1102 -0.6249
 1724SOL    HW2 6662   2.693   6.253   4.990 -0.2598 -0.8795  1.6719
 1724SOL    HW3 6663   2.823   6.277   4.915 -2.1457  1.6663 -0.9816
 1724SOL    MW4 6664   2.780   6.248   4.985  0.1821 -0.4788 -0.1055
 1725SOL     OW 6665   5.013   6.115   5.925  0.1882 -0.3109 -0.4382
 1725SOL    HW2 6666   4.984   6.030   5.958 -1.9272  0.2798 -0.6269
 1725SOL    HW3 6667   5.013   6.173   6.002  3.7477 -0.8821  0.1521
 1725SOL    MW4 6668   5.009   6.112   5.939  0.6906 -0.1272  0.3836
 1726SOL     OW 6669   1.065   0.927   5.109  0.0137 -0.0514  0.2461
 1726SOL    HW2 6670   1.042   0.895   5.196 -1.8227  0.1725 -0.1027
 1726SOL    HW3 6671   1.131   0.994   5.125 -1.0282  0.7147  1.5851
 1726SOL    MW4 6672   1.071   0.932   5.123  0.5704 -0.0391 -0.9697
 1727SOL     OW 6673   1.006   5.550   0.002 -0.9491  0.4883  0.3048
 1727SOL    HW2 6674   0.951   5.578  -0.071 -1.2555 -2.1956 -0.5627
 1727SOL    HW3 6675   1.092   5.587  -0.017 -0.6577 -1.2726 -2.2044
 1727SOL    MW4 6676   1.010   5.559  -0.010  0.2420 -0.2634  0.3062
 1728SOL     OW 6677   2.412   6.379   2.263 -0.6343  0.2977 -0.2526
 1728SOL    HW2 6678   2.449   6.458   2.301 -0.8427 -0.0164  0.6140
 1728SOL    HW3 6679   2.379   6.329   2.338  0.6870 -1.2351 -0.6534
 1728SOL    MW4 6680   2.412   6.383   2.278 -0.3107 -0.4171 -0.3979
 1729SOL     OW 6681   0.026   1.386   1.634  0.1648  0.3007 -0.5301
 1729SOL    HW2 6682  -0.057   1.389   1.682  0.2199  0.0611 -0.4210
 1729SOL    HW3 6683   0.010   1.326   1.561  0.7531 -1.0837  0.4569
 1729SOL    MW4 6684   0.013   1.379   1.630 -0.3935  0.3036 -0.7823
 1730SOL     OW 6685   4.206   4.826   3.495  0.8076  0.0503 -0.0586
 1730SOL    HW2 6686   4.115   4.807   3.517  0.6127  0.6788 -0.2956
 1730SOL    HW3 6687   4.242   4.867   3.574  1.1972 -1.1638  0.4148
 1730SOL    MW4 6688   4.199   4.829   3.509 -0.7340  0.5098 -0.0478
 1731SOL     OW 6689   4.586   5.693   4.813 -0.1919 -0.1354 -0.1090
 1731SOL    HW2 6690   4.651   5.672   4.745 -1.5376  2.7483 -2.5253
 1731SOL    HW3 6691   4.503   5.661   4.777 -0.6185 -0.9390  1.4848
 1731SOL    MW4 6692   4.584   5.686   4.799 -0.0573 -0.2062  0.4054
 1732SOL     OW 6693   0.620   4.679   4.598  0.2436  0.5649 -0.3207
 1732SOL    HW2 6694   0.658   4.748   4.651 -0.8698 -0.3477  1.7729
 1732SOL    HW3 6695   0.661   4.599   4.630 -0.3826 -0.0029 -0.8952
 1732SOL    MW4 6696   0.630   4.677   4.609  0.0203 -0.1570 -0.2775
 1733SOL     OW 6697   2.535   1.941   1.744 -0.0881 -0.6478 -0.6558
 1733SOL    HW2 6698   2.603   1.878   1.720 -0.3742 -0.7739 -1.1502
 1733SOL    HW3 6699   2.460   1.887   1.768  0.5541 -0.5642  1.7197
 1733SOL    MW4 6700   2.534   1.925   1.744 -0.1361  0.0640  0.3776
 1734SOL     OW 6701   5.385   5.125   2.528 -0.1052  0.0174  0.0753
 1734SOL    HW2 6702   5.446   5.148   2.458 -0.6924 -0.1277 -0.4887
 1734SOL    HW3 6703   5.419   5.172   2.605  2.0180 -1.7892  0.3583
 1734SOL    MW4 6704   5.398   5.134   2.529 -0.2568  0.4623 -0.1375
 1735SOL     OW 6705   3.138   0.773   5.304 -0.5809  0.1224  0.0894
 1735SOL    HW2 6706   3.074   0.774   5.375 -1.9240 -3.6054 -0.8108
 1735SOL    HW3 6707   3.199   0.703   5.328  2.5901  2.6936  0.2822
 1735SOL    MW4 6708   3.138   0.764   5.316 -0.2682  0.6012  0.3164
 1736SOL     OW 6709   0.888   1.008   2.589 -0.0596  0.2769 -0.3230
 1736SOL    HW2 6710   0.940   1.084   2.614 -0.8767  0.5839  0.4936
 1736SOL    HW3 6711   0.931   0.935   2.635 -0.6332  0.6063  0.7614
 1736SOL    MW4 6712   0.901   1.008   2.599  0.0601  0.1076  0.1006
 1737SOL     OW 6713   3.692   6.297   5.617 -0.1947 -0.9274 -0.3553
 1737SOL    HW2 6714   3.648   6.258   5.692 -0.2054 -0.9296 -0.3631
 1737SOL    HW3 6715   3.735   6.224   5.573 -0.2989 -0.9451 -0.4265
 1737SOL    MW4 6716   3.692   6.282   5.621  0.1208 -0.2027 -0.0083
 1738SOL     OW 6717   4.209   0.331   4.666 -0.4511 -0.3618  0.4595
 1738SOL    HW2 6718   4.146   0.403   4.663  1.5047  1.4102 -0.8947
 1738SOL    HW3 6719   4.177   0.274   4.736 -1.8156  2.0851  1.9674
 1738SOL    MW4 6720   4.196   0.333   4.675 -0.0997 -0.2757  0.3278
 1739SOL     OW 6721   5.571   2.837   2.809  0.0397  1.3188  0.3108
 1739SOL    HW2 6722   5.662   2.847   2.838  0.4147  2.0411 -1.0744
 1739SOL    HW3 6723   5.551   2.746   2.830  1.7490  0.5418 -1.1248
 1739SOL    MW4 6724   5.581   2.826   2.816  0.4861 -0.1076 -0.2209
 1740SOL     OW 6725   3.048   3.413   6.393 -0.3737 -0.1118  0.3097
 1740SOL    HW2 6726   3.020   3.457   6.313  0.4005  0.3533  0.2837
 1740SOL    HW3 6727   3.100   3.479   6.440  0.3019 -0.7990  0.5527
 1740SOL    MW4 6728   3.051   3.428   6.388  0.0318  0.3074  0.3967
 1741SOL     OW 6729   0.320   4.795   4.524 -0.2295  0.5525 -0.2075
 1741SOL    HW2 6730   0.413   4.819   4.514 -0.6181  1.8131 -1.1429
 1741SOL    HW3 6731   0.300   4.746   4.444  0.2805 -2.1375  1.2164
 1741SOL    MW4 6732   0.330   4.792   4.512 -0.4807  0.2522 -0.1510
 1742SOL     OW 6733   0.274   0.765   5.123 -0.5913 -0.1041  0.1011
 1742SOL    HW2 6734   0.195   0.780   5.073 -0.9788  0.0550  0.7504
 1742SOL    HW3 6735   0.294   0.849   5.163 -0.3283 -0.2463  0.2744
 1742SOL    MW4 6736   0.266   0.778   5.122 -0.4384 -0.3989 -0.6459
 1743SOL     OW 6737   6.192   6.229   3.139 -0.1309 -0.2050  0.0820
 1743SOL    HW2 6738   6.215   6.159   3.200  1.3404 -1.2914 -1.6423
 1743SOL    HW3 6739   6.251   6.301   3.163  0.5231 -0.6658 -0.1306
 1743SOL    MW4 6740   6.203   6.229   3.150 -0.0478  0.0066  0.4365
 1744SOL     OW 6741   2.865   0.475   3.185 -0.1909 -0.2510  0.6585
 1744SOL    HW2 6742   2.795   0.516   3.135 -2.2550 -0.3768  3.2466
 1744SOL    HW3 6743   2.943   0.526   3.162 -1.8047  2.3479  0.4666
 1744SOL    MW4 6744   2.866   0.487   3.175 -1.0074  0.2075  0.1064
 1745SOL     OW 6745   4.880   2.848   0.200 -0.4384 -0.1151  0.5473
 1745SOL    HW2 6746   4.899   2.761   0.234 -0.0628 -0.4252 -0.4062
 1745SOL    HW3 6747   4.807   2.880   0.253 -1.4308 -1.5348  0.0843
 1745SOL    MW4 6748   4.873   2.841   0.211  0.0613 -0.8129 -0.7996
 1746SOL     OW 6749   6.161   0.082   5.806 -0.2358  0.2274 -0.0295
 1746SOL    HW2 6750   6.141  -0.011   5.811  0.3145  0.0866 -0.3742
 1746SOL    HW3 6751   6.192   0.105   5.894 -0.5122  0.1174  0.0946
 1746SOL    MW4 6752   6.163   0.073   5.818  0.2995  0.2889 -0.0986
 1747SOL     OW 6753   1.749   6.003   4.541 -0.4240 -0.1930 -0.1234
 1747SOL    HW2 6754   1.771   6.008   4.448  0.5411 -0.1766  0.0917
 1747SOL    HW3 6755   1.778   6.087   4.577  2.1614 -1.3483  0.7533
 1747SOL    MW4 6756   1.756   6.014   4.533 -0.4825 -0.9416 -0.3839
 1748SOL     OW 6757   0.857   4.964   4.500 -0.2476  0.8422 -0.3916
 1748SOL    HW2 6758   0.887   4.873   4.493  1.4685  1.4681 -2.0981
 1748SOL    HW3 6759   0.851   4.980   4.594 -0.3919 -0.9657 -0.0561
 1748SOL    MW4 6760   0.860   4.954   4.512 -0.5768 -0.3192 -0.0679
 1749SOL     OW 6761   1.096   6.396   0.134 -0.0228  0.1243 -0.4792
 1749SOL    HW2 6762   1.161   6.330   0.108 -0.1789 -0.6823  1.0713
 1749SOL    HW3 6763   1.013   6.349   0.130 -0.0948  0.0757  1.0128
 1749SOL    MW4 6764   1.094   6.381   0.130 -0.6507  0.1071 -0.1021
 1750SOL     OW 6765   1.354   3.384   1.757  0.5773 -0.1728 -0.0529
 1750SOL    HW2 6766   1.363   3.288   1.755  1.2239 -0.0982 -1.5373
 1750SOL    HW3 6767   1.436   3.415   1.795  0.1576 -0.2179  0.9130
 1750SOL    MW4 6768   1.366   3.375   1.762 -0.5005 -0.0325 -0.9653
 1751SOL     OW 6769   4.111   6.349   1.770 -0.4114  0.1600 -0.4006
 1751SOL    HW2 6770   4.121   6.436   1.732 -1.1526  0.2241 -0.4730
 1751SOL    HW3 6771   4.055   6.303   1.708 -0.8071 -0.0629  0.1158
 1751SOL    MW4 6772   4.105   6.354   1.757  0.1511 -0.1103  0.6808
 1752SOL     OW 6773   4.492   0.776   3.299  0.0172 -0.2563  0.0116
 1752SOL    HW2 6774   4.529   0.708   3.243  0.3123 -0.8638  0.9275
 1752SOL    HW3 6775   4.398   0.759   3.300  0.0043 -0.2127 -0.3265
 1752SOL    MW4 6776   4.484   0.765   3.292  0.3250 -0.0479 -0.1581
 1753SOL     OW 6777   0.465   4.577   2.234  0.1165 -0.0311 -0.4377
 1753SOL    HW2 6778   0.427   4.505   2.184 -1.2801  0.3168  0.0496
 1753SOL    HW3 6779   0.458   4.653   2.177  0.2201  0.0039 -0.4036
 1753SOL    MW4 6780   0.459   4.578   2.220  0.3535  0.0445 -0.0667
 1754SOL     OW 6781   0.390   3.492   4.064  0.6127  0.0444 -0.6246
 1754SOL    HW2 6782   0.414   3.501   4.156  2.6794 -1.4220 -0.9503
 1754SOL    HW3 6783   0.301   3.457   4.066  0.4167  0.5709  0.7957
 1754SOL    MW4 6784   0.381   3.488   4.076  0.4418 -0.1195 -0.5623
 1755SOL     OW 6785   1.775   4.801   1.113 -0.0428 -0.4059  0.3671
 1755SOL    HW2 6786   1.864   4.821   1.141 -0.0588  1.2260 -0.6163
 1755SOL    HW3 6787   1.782   4.789   1.018 -0.8930 -0.1532  0.2668
 1755SOL    MW4 6788   1.788   4.802   1.104 -0.5506  0.6290  0.1087
 1756SOL     OW 6789   0.273   3.294   5.428  0.1446 -0.0329  0.0246
 1756SOL    HW2 6790   0.350   3.347   5.448  0.0486  0.5492 -1.0612
 1756SOL    HW3 6791   0.305   3.227   5.367 -0.3195  0.6031 -0.9400
 1756SOL    MW4 6792   0.287   3.292   5.423  0.1366 -0.6462  0.3991
 1757SOL     OW 6793   5.470   3.235   2.926  0.3246 -0.3778 -0.1077
 1757SOL    HW2 6794   5.566   3.236   2.933  0.3948  1.8692 -0.8255
 1757SOL    HW3 6795   5.449   3.146   2.899  2.1110 -1.2197  1.0734
 1757SOL    MW4 6796   5.480   3.223   2.924 -0.0699 -0.0626 -0.0541
 1758SOL     OW 6797   4.378   4.008   1.152 -0.1020 -0.4532 -0.0178
 1758SOL    HW2 6798   4.362   3.940   1.087 -1.8210 -0.0844 -0.0245
 1758SOL    HW3 6799   4.455   4.055   1.119  1.1200 -2.3257 -0.0227
 1758SOL    MW4 6800   4.386   4.005   1.139  0.1131  0.2340 -0.7459
 1759SOL     OW 6801   4.097   2.403   5.247  0.1809  0.6653  0.1977
 1759SOL    HW2 6802   4.105   2.478   5.305  0.1543  2.3974 -1.8939
 1759SOL    HW3 6803   4.168   2.414   5.183 -0.7779 -0.2124 -1.0735
 1759SOL    MW4 6804   4.108   2.414   5.246  0.6122 -0.2701 -0.4163
 1760SOL     OW 6805   2.418   4.037   2.922 -0.3878 -0.7644  0.5433
 1760SOL    HW2 6806   2.346   4.096   2.946 -0.2543 -0.5092  0.3292
 1760SOL    HW3 6807   2.376   3.964   2.877 -0.6383 -1.2388  1.5182
 1760SOL    MW4 6808   2.403   4.035   2.920 -0.1367  0.0367 -0.3609
 1761SOL     OW 6809   3.368   2.076   5.734  0.6788 -1.1930  0.7333
 1761SOL    HW2 6810   3.301   2.125   5.782 -0.1088 -1.3665 -0.1659
 1761SOL    HW3 6811   3.390   2.002   5.792 -0.3094 -1.4397  0.8026
 1761SOL    MW4 6812   3.362   2.072   5.748 -0.3098 -0.1962  0.3617
 1762SOL     OW 6813   6.259   2.698   1.825  0.1825  0.0449 -0.6179
 1762SOL    HW2 6814   6.196   2.738   1.884  1.4787  0.8708  0.2502
 1762SOL    HW3 6815   6.249   2.604   1.840 -2.2902 -0.0249 -2.0613
 1762SOL    MW4 6816   6.249   2.691   1.835  0.1292 -0.6108  0.2449
 1763SOL     OW 6817   6.346   1.432   0.019 -0.2785  0.2819 -0.4613
 1763SOL    HW2 6818   6.423   1.385   0.050 -0.9217  1.0120  2.5705
 1763SOL    HW3 6819   6.380   1.518  -0.006 -0.0035  0.4334  0.3916
 1763SOL    MW4 6820   6.361   1.437   0.020  0.4971  0.0339  0.7887
 1764SOL     OW 6821   1.785   0.397   2.619  0.0817  0.5011  0.3543
 1764SOL    HW2 6822   1.696   0.430   2.631 -0.0849  0.0405  0.4474
 1764SOL    HW3 6823   1.833   0.428   2.695 -0.0364  0.6295  0.3767
 1764SOL    MW4 6824   1.780   0.405   2.630  0.0157 -0.1548  0.0047
 1765SOL     OW 6825   4.518   4.994   2.306 -0.3053  0.1060  0.2010
 1765SOL    HW2 6826   4.575   5.018   2.233 -0.3211 -1.7147 -0.4463
 1765SOL    HW3 6827   4.430   5.021   2.279 -0.4800 -1.5026 -0.9569
 1765SOL    MW4 6828   4.514   5.001   2.293 -0.3495 -0.4209  0.3733
 1766SOL     OW 6829   2.458   2.299   0.091  0.1297  0.0397 -0.5398
 1766SOL    HW2 6830   2.396   2.238   0.132  1.0769 -1.6266 -1.4771
 1766SOL    HW3 6831   2.542   2.277   0.131  0.8363 -0.6984 -2.3453
 1766SOL    MW4 6832   2.461   2.288   0.102 -0.5963  0.0128  0.4569
 1767SOL     OW 6833   4.985   5.207   4.239  0.2993  0.4357 -0.1453
 1767SOL    HW2 6834   5.054   5.231   4.301  1.8818  0.4914 -1.8302
 1767SOL    HW3 6835   5.018   5.129   4.195 -0.7368  0.4176 -0.9384
 1767SOL    MW4 6836   4.998   5.200   4.241  0.0181  0.6644 -0.6403
 1768SOL     OW 6837   5.915   1.276   5.769 -0.7615  0.2072 -0.0816
 1768SOL    HW2 6838   5.898   1.364   5.734  0.0675  0.2076 -0.5346
 1768SOL    HW3 6839   6.011   1.271   5.772 -0.7922 -0.8386 -0.4831
 1768SOL    MW4 6840   5.926   1.287   5.765  0.1301  0.1232 -0.0047
 1769SOL     OW 6841   0.563   3.087   4.063 -0.1765  0.4544 -0.0980
 1769SOL    HW2 6842   0.491   3.038   4.102 -0.1782  1.4344  1.1674
 1769SOL    HW3 6843   0.579   3.042   3.979 -1.5352 -0.4206  0.0738
 1769SOL    MW4 6844   0.556   3.074   4.057  0.2953  0.6038 -0.1396
 1770SOL     OW 6845   5.591   6.304   6.246 -0.2941 -0.1408 -0.4187
 1770SOL    HW2 6846   5.560   6.299   6.156  0.5370  0.2217 -0.7370
 1770SOL    HW3 6847   5.620   6.215   6.267 -1.3862 -0.4496 -0.1651
 1770SOL    MW4 6848   5.591   6.292   6.237  0.4559 -0.1926  0.2455
 1771SOL     OW 6849   4.746   4.420   2.150 -0.4131 -0.6090  0.0833
 1771SOL    HW2 6850   4.660   4.379   2.158  0.1041 -1.6607  0.4696
 1771SOL    HW3 6851   4.743   4.495   2.208 -0.7269 -1.2529  0.9218
 1771SOL    MW4 6852   4.735   4.424   2.158 -0.3991  0.4009  0.1391
 1772SOL     OW 6853   5.593   1.960   0.878 -0.4401 -0.1741  0.4323
 1772SOL    HW2 6854   5.629   1.875   0.852 -2.7166 -1.9887  2.6505
 1772SOL    HW3 6855   5.499   1.943   0.890 -1.1133  2.8799  0.2382
 1772SOL    MW4 6856   5.585   1.946   0.876 -0.4236 -0.0372 -0.0831
 1773SOL     OW 6857   5.063   4.985   4.106 -0.1708 -0.0065  0.2318
 1773SOL    HW2 6858   5.158   4.971   4.106 -0.2635 -0.6662  0.5179
 1773SOL    HW3 6859   5.026   4.900   4.128 -0.7469  0.8420  2.9508
 1773SOL    MW4 6860   5.071   4.972   4.109  0.5276  0.1407 -0.2029
 1774SOL     OW 6861   1.547   2.183   0.887  0.1002 -0.0246  0.4847
 1774SOL    HW2 6862   1.525   2.098   0.926  1.6279 -0.5108  0.3620
 1774SOL    HW3 6863   1.583   2.161   0.801 -2.5661  0.9883 -1.0008
 1774SOL    MW4 6864   1.549   2.169   0.881 -0.2755 -0.0163  0.1657
 1775SOL     OW 6865   3.348   3.880   2.847 -0.2510  0.3368 -0.1273
 1775SOL    HW2 6866   3.430   3.847   2.811 -0.6417 -1.6748  0.7192
 1775SOL    HW3 6867   3.372   3.913   2.934 -0.3120 -0.0609  0.0388
 1775SOL    MW4 6868   3.362   3.880   2.854 -0.4051 -0.0613  0.0728
 1776SOL     OW 6869   5.621   2.333   5.725  0.5728  0.2513  0.1385
 1776SOL    HW2 6870   5.614   2.420   5.766  0.7012  0.3284 -0.0023
 1776SOL    HW3 6871   5.652   2.277   5.796 -1.3239 -0.0819  0.7444
 1776SOL    MW4 6872   5.624   2.337   5.740  0.3062  0.7321 -0.1364
 1777SOL     OW 6873   1.651   3.095   1.388  0.1220  0.4491 -0.3329
 1777SOL    HW2 6874   1.674   3.105   1.480  0.1691  0.0736 -0.3017
 1777SOL    HW3 6875   1.709   3.156   1.342 -0.4790  1.2400 -0.0433
 1777SOL    MW4 6876   1.662   3.104   1.394  0.0455 -0.1049  0.3199
 1778SOL     OW 6877   1.876   3.668   6.053 -0.3856  0.9395  0.1980
 1778SOL    HW2 6878   1.931   3.687   5.977  0.0090 -0.6787  0.0312
 1778SOL    HW3 6879   1.937   3.653   6.125 -0.6889  1.0354  0.4789
 1778SOL    MW4 6880   1.891   3.668   6.052  0.0700  0.1556  0.1228
 1779SOL     OW 6881   2.574   5.195   6.346  0.1367 -0.0466 -0.1233
 1779SOL    HW2 6882   2.661   5.227   6.325  0.2023  0.2438  0.5648
 1779SOL    HW3 6883   2.588   5.114   6.394  0.0283  0.0122  0.0099
 1779SOL    MW4 6884   2.587   5.189   6.349 -0.0741 -0.0197 -0.7178
 1780SOL     OW 6885   0.086   2.879   4.780 -0.1765  1.2279 -0.2372
 1780SOL    HW2 6886   0.057   2.788   4.789 -0.4926  1.2315 -1.1747
 1780SOL    HW3 6887   0.028   2.929   4.838 -2.2329  1.2647 -2.1905
 1780SOL    MW4 6888   0.075   2.874   4.789 -0.0857  0.3540 -0.6619
 1781SOL     OW 6889   2.366   5.898   5.269 -0.2535  0.3389  0.6425
 1781SOL    HW2 6890   2.347   5.807   5.291 -0.7641  0.4861  0.8240
 1781SOL    HW3 6891   2.368   5.943   5.353 -0.8311  0.6469  0.4946
 1781SOL    MW4 6892   2.364   5.892   5.283 -0.1593  0.1363 -0.4061
 1782SOL     OW 6893   2.551   2.849   5.934  0.1852 -0.3423 -0.5386
 1782SOL    HW2 6894   2.633   2.821   5.976  0.8329  0.1132 -1.4626
 1782SOL    HW3 6895   2.576   2.925   5.882 -1.1124  0.6810  0.2601
 1782SOL    MW4 6896   2.565   2.855   5.933  0.5023 -0.0467 -0.2954
 1783SOL     OW 6897   2.997   2.505   2.825 -0.0857  0.4382 -0.0621
 1783SOL    HW2 6898   2.917   2.479   2.779 -0.0927  3.0277 -1.7099
 1783SOL    HW3 6899   2.967   2.561   2.896  0.1764 -0.0862  0.4658
 1783SOL    MW4 6900   2.982   2.509   2.828  0.1020  0.4904  0.2712
 1784SOL     OW 6901   3.715   5.563   0.230  0.0341  0.3096 -0.3834
 1784SOL    HW2 6902   3.726   5.652   0.198 -0.6465  0.2132 -0.9131
 1784SOL    HW3 6903   3.780   5.512   0.181  0.1593  0.4484 -0.3634
 1784SOL    MW4 6904   3.725   5.568   0.219 -0.4411 -0.0016  0.4016
 1785SOL     OW 6905   6.381   5.672   5.554  0.9177  0.3667 -0.3740
 1785SOL    HW2 6906   6.380   5.637   5.465 -3.1006 -1.0996  0.0487
 1785SOL    HW3 6907   6.331   5.754   5.548 -2.3259 -1.3509  0.8853
 1785SOL    MW4 6908   6.374   5.678   5.542 -0.1720 -0.5250 -0.5977
 1786SOL     OW 6909   4.715   5.336   2.104 -0.0778  0.0922 -0.6358
 1786SOL    HW2 6910   4.620   5.348   2.114  0.1728  0.4962  1.8371
 1786SOL    HW3 6911   4.738   5.387   2.027 -1.6226  1.5475 -0.1943
 1786SOL    MW4 6912   4.705   5.344   2.095  0.3528 -0.1141 -0.5567
 1787SOL     OW 6913   5.076   4.357   0.687 -0.4350  0.2786  0.2019
 1787SOL    HW2 6914   5.014   4.298   0.731  0.2290  0.0030  0.7788
 1787SOL    HW3 6915   5.023   4.434   0.665 -1.3197 -0.5224 -0.5934
 1787SOL    MW4 6916   5.061   4.359   0.690  0.0774  0.2217 -0.6114
 1788SOL     OW 6917   3.115   0.067   3.246  0.3008 -0.1342 -0.4004
 1788SOL    HW2 6918   3.077   0.033   3.165 -0.0394 -0.2809 -0.1815
 1788SOL    HW3 6919   3.162  -0.008   3.283  0.5529 -0.0355 -0.5193
 1788SOL    MW4 6920   3.116   0.053   3.240 -0.1525  0.4864 -0.5185
 1789SOL     OW 6921   2.131   4.131   4.592  0.2063  0.1677 -0.9295
 1789SOL    HW2 6922   2.060   4.112   4.530  0.6079 -0.7135 -1.1387
 1789SOL    HW3 6923   2.142   4.050   4.641 -0.6859  1.1177  0.9225
 1789SOL    MW4 6924   2.123   4.118   4.590  0.4176  0.2421  0.1781
 1790SOL     OW 6925   3.054   2.599   0.142  0.4481 -0.5280  0.0269
 1790SOL    HW2 6926   3.114   2.670   0.118 -0.9275  0.4899 -0.5046
 1790SOL    HW3 6927   3.025   2.563   0.059 -0.6585 -0.1664  0.2518
 1790SOL    MW4 6928   3.058   2.603   0.128  0.4419 -0.0709 -0.1272
 1791SOL     OW 6929   3.239   5.587   6.236  0.4187  0.2380  0.4081
 1791SOL    HW2 6930   3.287   5.612   6.157 -2.7186  4.0462 -0.5401
 1791SOL    HW3 6931   3.172   5.526   6.206 -0.4112  1.2451  0.1587
 1791SOL    MW4 6932   3.237   5.582   6.222  0.5078 -0.1358 -0.9865
 1792SOL     OW 6933   3.349   3.262   0.784  0.0261 -0.1432  0.2793
 1792SOL    HW2 6934   3.273   3.242   0.730  0.8901 -1.2933 -0.5802
 1792SOL    HW3 6935   3.401   3.321   0.730  0.6920 -0.9632 -0.0023
 1792SOL    MW4 6936   3.346   3.267   0.769 -0.2225  0.5183  0.0062
 1793SOL     OW 6937   1.327   5.319   1.390 -0.2267 -0.1395 -0.3649
 1793SOL    HW2 6938   1.337   5.285   1.479  1.5648  3.3067  0.9182
 1793SOL    HW3 6939   1.264   5.390   1.399 -0.3786 -0.0369 -1.9778
 1793SOL    MW4 6940   1.320   5.324   1.403  0.7342 -0.1356 -0.1735
 1794SOL     OW 6941   1.764   0.523   1.250  0.2628 -0.2304  0.0917
 1794SOL    HW2 6942   1.855   0.497   1.256  0.0668 -0.7952  0.7545
 1794SOL    HW3 6943   1.715   0.445   1.275 -0.4048  0.0741 -0.2233
 1794SOL    MW4 6944   1.769   0.509   1.254  0.2254 -0.1119 -0.4426
 1795SOL     OW 6945   0.701   5.700   0.114 -0.0798  0.0031  0.1304
 1795SOL    HW2 6946   0.683   5.710   0.021 -0.2516 -0.3126  0.1271
 1795SOL    HW3 6947   0.789   5.736   0.126  0.5082 -1.1973 -0.4088
 1795SOL    MW4 6948   0.711   5.706   0.103 -0.7226 -0.0726 -0.5277
 1796SOL     OW 6949   2.066   4.401   0.931  0.4203  0.2622 -0.0100
 1796SOL    HW2 6950   2.059   4.357   1.015 -0.3461 -1.3714 -0.8920
 1796SOL    HW3 6951   2.123   4.344   0.879 -2.4104 -1.0410 -1.9368
 1796SOL    MW4 6952   2.073   4.388   0.935  0.1709  0.5549 -0.0505
 1797SOL     OW 6953   1.514   4.596   6.165  0.5433  0.1106  0.3377
 1797SOL    HW2 6954   1.432   4.547   6.153 -0.1626  1.1198  0.8317
 1797SOL    HW3 6955   1.523   4.648   6.085  1.4101 -0.9462 -0.2846
 1797SOL    MW4 6956   1.504   4.596   6.153  0.3372 -0.3938  0.0253
 1798SOL     OW 6957   4.148   1.636   2.572 -0.7809 -0.0463 -0.3184
 1798SOL    HW2 6958   4.085   1.640   2.644  0.1938  0.3067  0.5439
 1798SOL    HW3 6959   4.145   1.723   2.533 -0.2171  0.2485  0.2756
 1798SOL    MW4 6960   4.139   1.648   2.576  0.2775 -0.5285  0.1532
 1799SOL     OW 6961   5.316   1.501   1.288  0.4392  0.1478  0.1846
 1799SOL    HW2 6962   5.227   1.473   1.312  0.3157  0.4062  0.0339
 1799SOL    HW3 6963   5.373   1.455   1.350  0.2003 -0.0255  0.2773
 1799SOL    MW4 6964   5.312   1.491   1.300  0.5123  0.2259 -0.6096
 1800SOL     OW 6965   3.506   4.343   5.723 -0.3160 -0.1133  0.4087
 1800SOL    HW2 6966   3.517   4.271   5.786 -1.0710 -0.1531  0.5095
 1800SOL    HW3 6967   3.594   4.376   5.708  0.0992 -1.3386  0.0367
 1800SOL    MW4 6968   3.519   4.337   5.730  0.6132 -0.2671 -0.4284
 1801SOL     OW 6969   3.568   1.120   3.149  0.3735 -0.2517  0.4854
 1801SOL    HW2 6970   3.630   1.069   3.097  1.7656 -0.0835  1.9031
 1801SOL    HW3 6971   3.514   1.054   3.193 -0.3013 -0.4009 -0.5184
 1801SOL    MW4 6972   3.569   1.104   3.148 -0.3993 -0.4389  0.0768
 1802SOL     OW 6973   2.531   5.961   5.695  0.5047  0.0971  0.1024
 1802SOL    HW2 6974   2.484   6.031   5.740 -0.5007  0.5354 -1.5464
 1802SOL    HW3 6975   2.623   5.986   5.699  0.3094  0.6809  0.9292
 1802SOL    MW4 6976   2.537   5.973   5.701  0.8218  0.5622 -0.3422
 1803SOL     OW 6977   3.579   2.165   4.830  0.8323 -0.1507  0.6202
 1803SOL    HW2 6978   3.657   2.211   4.801  0.9712  0.2884  1.6383
 1803SOL    HW3 6979   3.551   2.212   4.909  0.8525 -1.6756  1.5770
 1803SOL    MW4 6980   3.585   2.177   4.837  0.1360 -0.7687 -0.2669
 1804SOL     OW 6981   4.913   4.112   3.139  0.2614 -0.0315  0.1820
 1804SOL    HW2 6982   4.868   4.081   3.217  0.9121 -1.4757  0.0246
 1804SOL    HW3 6983   4.996   4.066   3.139 -0.0347 -0.6872 -1.7574
 1804SOL    MW4 6984   4.918   4.102   3.149  0.5501 -0.2229  0.2503
 1805SOL     OW 6985   4.500   2.071   1.934 -0.0349  0.0171 -0.5398
 1805SOL    HW2 6986   4.417   2.063   1.981 -0.2540 -0.5954 -0.9999
 1805SOL    HW3 6987   4.562   2.020   1.986 -0.1379 -0.1681 -0.5942
 1805SOL    MW4 6988   4.497   2.063   1.947 -0.0879  0.1513  0.0505
 1806SOL     OW 6989   6.094   2.073   2.076 -0.8740 -0.8001  0.2996
 1806SOL    HW2 6990   6.113   2.128   2.152 -1.3411 -0.8533  0.4575
 1806SOL    HW3 6991   6.178   2.063   2.032 -0.3621 -1.6791  1.4163
 1806SOL    MW4 6992   6.107   2.079   2.080  0.0241  0.3343  0.3216
 1807SOL     OW 6993   4.118   1.029   3.560  0.0771  0.3324  0.0107
 1807SOL    HW2 6994   4.032   1.041   3.521  0.1224  0.7991  0.0514
 1807SOL    HW3 6995   4.137   1.112   3.604  0.0443 -0.1641  0.9954
 1807SOL    MW4 6996   4.109   1.042   3.561 -0.1225 -0.2228  0.5455
 1808SOL     OW 6997   3.338   6.333   4.953  0.5538  0.3089 -0.2479
 1808SOL    HW2 6998   3.301   6.270   5.014  0.5506  0.0092 -0.5586
 1808SOL    HW3 6999   3.262   6.375   4.912  0.5544  0.0790 -0.4877
 1808SOL    MW4 7000   3.323   6.330   4.955 -0.1034 -0.5969  0.1874
 1809SOL     OW 7001   4.873   4.801   3.651  0.0703  0.1989 -0.4794
 1809SOL    HW2 7002   4.911   4.713   3.651 -1.5995 -0.5540  0.4093
 1809SOL    HW3 7003   4.930   4.851   3.709  0.1675 -0.7058  0.2349
 1809SOL    MW4 7004   4.886   4.796   3.659  0.1856  0.5159 -0.1948
 1810SOL     OW 7005   2.581   3.694   5.556  0.0736  0.2699  0.3705
 1810SOL    HW2 7006   2.594   3.767   5.495 -1.6971 -0.4097 -0.9155
 1810SOL    HW3 7007   2.550   3.623   5.500 -0.3865 -0.7766  1.9144
 1810SOL    MW4 7008   2.578   3.694   5.540  0.1320 -0.3154  0.2794
 1811SOL     OW 7009   4.243   4.813   0.085 -0.3554  0.3348 -0.6929
 1811SOL    HW2 7010   4.315   4.861   0.124 -1.2629  1.6417 -0.5542
 1811SOL    HW3 7011   4.172   4.878   0.078 -0.8016 -0.3332 -2.8394
 1811SOL    MW4 7012   4.243   4.828   0.090 -0.0850  0.4753 -0.2335
 1812SOL     OW 7013   0.281   6.277   5.098 -0.1380 -0.1199 -0.1584
 1812SOL    HW2 7014   0.266   6.200   5.153  1.4980  0.6096  1.4370
 1812SOL    HW3 7015   0.226   6.345   5.136 -0.5540 -0.1402 -0.7187
 1812SOL    MW4 7016   0.272   6.276   5.110 -0.4448 -0.6329 -0.5134
 1813SOL     OW 7017   5.039   6.280   3.127  0.1879  0.3844  0.2819
 1813SOL    HW2 7018   5.060   6.198   3.171 -0.9919  0.2644  0.6646
 1813SOL    HW3 7019   4.992   6.254   3.048 -1.1690  0.6868  0.9523
 1813SOL    MW4 7020   5.036   6.266   3.122 -0.3303  0.1442 -0.2621
 1814SOL     OW 7021   3.517   3.994   5.567 -0.0218  0.4760  0.0922
 1814SOL    HW2 7022   3.592   3.969   5.620 -0.6925 -1.8492  0.0460
 1814SOL    HW3 7023   3.441   3.967   5.618 -0.6912 -2.1545 -2.0300
 1814SOL    MW4 7024   3.517   3.987   5.581 -0.4412  0.2038  0.7340
 1815SOL     OW 7025   0.519   3.482   6.163 -0.0390  0.5423 -0.2208
 1815SOL    HW2 7026   0.485   3.557   6.212 -0.2183 -0.3928  1.1382
 1815SOL    HW3 7027   0.458   3.411   6.182  0.9319 -0.3355 -0.3068
 1815SOL    MW4 7028   0.507   3.483   6.172  0.1308 -0.1996  0.0006
 1816SOL     OW 7029   3.620   0.401   0.251  0.4698  0.3161 -0.2234
 1816SOL    HW2 7030   3.714   0.418   0.255  0.5016  0.0096  0.4380
 1816SOL    HW3 7031   3.598   0.415   0.159  1.2195  0.0772 -0.4509
 1816SOL    MW4 7032   3.630   0.405   0.239 -0.4122  0.4568 -0.2379
 1817SOL     OW 7033   0.420   3.721   6.324  0.6127  0.2171 -0.2702
 1817SOL    HW2 7034   0.415   3.691   6.415 -0.4775  1.5245  0.1449
 1817SOL    HW3 7035   0.512   3.741   6.310  0.5263  1.8445  1.2100
 1817SOL    MW4 7036   0.431   3.720   6.334  0.0793 -0.3666  0.3165
 1818SOL     OW 7037   3.391   3.515   2.356  0.4577  0.1492 -0.0652
 1818SOL    HW2 7038   3.365   3.423   2.363 -1.0577  0.5592  0.0004
 1818SOL    HW3 7039   3.484   3.515   2.378  0.9696 -1.6221 -1.9171
 1818SOL    MW4 7040   3.400   3.503   2.360 -0.2189 -0.2495  0.4141
 1819SOL     OW 7041   5.125   6.209   0.764 -0.3560  0.0448 -0.1786
 1819SOL    HW2 7042   5.170   6.159   0.832  0.4190  2.9143  1.6030
 1819SOL    HW3 7043   5.032   6.201   0.786 -0.0697  2.4864  2.6436
 1819SOL    MW4 7044   5.119   6.202   0.776  0.4096 -0.6696 -0.1833
 1820SOL     OW 7045   5.919   6.131   5.928 -0.5968  0.0999  0.1528
 1820SOL    HW2 7046   5.838   6.087   5.954 -2.5989  1.3342 -3.4227
 1820SOL    HW3 7047   5.971   6.063   5.885 -0.8265 -0.1250  0.2318
 1820SOL    MW4 7048   5.915   6.116   5.926  0.2108 -0.4078  0.1768
 1821SOL     OW 7049   1.216   2.856   1.036  0.4591 -0.7128 -0.3279
 1821SOL    HW2 7050   1.185   2.842   1.126  1.4781  0.0724  0.1715
 1821SOL    HW3 7051   1.137   2.856   0.983 -0.3754  0.8338  0.8469
 1821SOL    MW4 7052   1.202   2.854   1.041  0.4431  0.3655 -0.3827
 1822SOL     OW 7053   3.416   3.031   6.056  0.0711 -0.0957  0.0559
 1822SOL    HW2 7054   3.455   3.001   5.974  0.0786  1.8443 -0.7088
 1822SOL    HW3 7055   3.426   3.126   6.053 -0.9700  0.1015  1.7935
 1822SOL    MW4 7056   3.423   3.040   6.045 -0.2294 -0.1804 -0.0703
 1823SOL     OW 7057   2.362   4.185   1.885  0.2827 -0.3867 -0.2863
 1823SOL    HW2 7058   2.345   4.091   1.880 -0.7480 -0.2057 -0.3675
 1823SOL    HW3 7059   2.276   4.225   1.882  0.7527  0.6025 -1.0816
 1823SOL    MW4 7060   2.349   4.178   1.884 -0.2191  0.0538 -0.0209
 1824SOL     OW 7061   1.885   1.945   5.912  0.4989  0.0133 -0.7599
 1824SOL    HW2 7062   1.939   1.867   5.897  2.5272  1.5218 -2.0810
 1824SOL    HW3 7063   1.936   1.997   5.975 -0.4739  0.5710 -0.4212
 1824SOL    MW4 7064   1.899   1.942   5.918 -0.3815  0.0033 -0.0242
 1825SOL     OW 7065   3.377   0.787   0.124 -0.4294 -0.2000 -0.2523
 1825SOL    HW2 7066   3.314   0.792   0.052  0.5426  1.0322 -1.0603
 1825SOL    HW3 7067   3.346   0.850   0.188 -0.6043 -0.3802 -0.1590
 1825SOL    MW4 7068   3.365   0.796   0.123  0.6739  0.1245 -0.0985
 1826SOL     OW 7069   5.249   3.972   6.311 -0.1555  0.0331 -0.0486
 1826SOL    HW2 7070   5.247   4.013   6.225  0.9692  0.5005  0.1379
 1826SOL    HW3 7071   5.341   3.969   6.335 -0.0087 -3.5215 -0.4618
 1826SOL    MW4 7072   5.261   3.977   6.303  0.0096  0.0707  0.2079
 1827SOL     OW 7073   3.047   4.936   5.154 -0.3671  0.0816 -0.0017
 1827SOL    HW2 7074   3.010   5.024   5.150 -0.3493  0.0369 -1.8487
 1827SOL    HW3 7075   2.985   4.882   5.104  1.0672 -0.3756 -1.3605
 1827SOL    MW4 7076   3.034   4.940   5.147  0.0739 -0.8528 -0.0874
 1828SOL     OW 7077   4.300   4.581   0.858  0.2795 -0.0621  0.3461
 1828SOL    HW2 7078   4.293   4.500   0.909 -2.0516 -0.6092 -0.7348
 1828SOL    HW3 7079   4.337   4.645   0.920  1.0572 -1.6160  1.5647
 1828SOL    MW4 7080   4.304   4.579   0.873  0.1439 -0.2321 -0.2585
 1829SOL     OW 7081   3.011   1.735   4.221 -0.5980 -0.0692  0.2284
 1829SOL    HW2 7082   2.998   1.649   4.261 -2.0802  0.3226  0.6377
 1829SOL    HW3 7083   3.057   1.786   4.288  1.5122 -0.8970 -0.5110
 1829SOL    MW4 7084   3.015   1.730   4.235 -0.1076  0.6780  0.1015
 1830SOL     OW 7085   4.258   0.936   2.549  0.4150 -0.0412  0.1892
 1830SOL    HW2 7086   4.331   0.920   2.609  0.0893 -0.1294  0.5710
 1830SOL    HW3 7087   4.195   0.867   2.569 -0.8469  1.4221  1.6100
 1830SOL    MW4 7088   4.259   0.925   2.560  0.0059  0.4288 -0.3148
 1831SOL     OW 7089   6.264   0.189   4.793 -0.6490  0.1027 -0.3601
 1831SOL    HW2 7090   6.194   0.202   4.730 -0.4349  2.1491 -0.2331
 1831SOL    HW3 7091   6.249   0.255   4.860 -0.4740 -1.5672  1.4152
 1831SOL    MW4 7092   6.253   0.199   4.794  0.0416 -0.5372  0.6272
 1832SOL     OW 7093   5.550   2.546   4.229  0.2897 -0.2161  0.0338
 1832SOL    HW2 7094   5.489   2.476   4.203  0.3134 -0.3310  0.2820
 1832SOL    HW3 7095   5.605   2.560   4.152  1.5948 -1.8550  0.5974
 1832SOL    MW4 7096   5.549   2.538   4.215 -0.2131 -0.5469 -0.7029
 1833SOL     OW 7097   2.832   3.451   6.091 -0.3207 -0.2641 -0.1757
 1833SOL    HW2 7098   2.769   3.506   6.043 -0.3767  0.1053  0.3140
 1833SOL    HW3 7099   2.844   3.374   6.035 -1.2575 -0.3693 -0.2511
 1833SOL    MW4 7100   2.825   3.448   6.077 -0.3890  0.2614 -0.4481
 1834SOL     OW 7101   5.126   1.809   2.561 -0.0532 -0.2220  0.7666
 1834SOL    HW2 7102   5.212   1.785   2.596 -0.4342  0.9795  2.6999
 1834SOL    HW3 7103   5.132   1.904   2.545 -1.4940  0.2294  2.5791
 1834SOL    MW4 7104   5.138   1.818   2.563 -0.1945 -0.1499  1.0319
 1835SOL     OW 7105   4.815   5.848   1.826 -0.2860  0.0961 -0.1693
 1835SOL    HW2 7106   4.899   5.804   1.838  0.2921  0.9874 -0.8750
 1835SOL    HW3 7107   4.758   5.780   1.788  0.5744 -0.0751 -1.2079
 1835SOL    MW4 7108   4.818   5.833   1.823 -0.4781  0.2794 -0.2836
 1836SOL     OW 7109   4.219   5.858   1.519  0.2966 -0.3911 -0.0692
 1836SOL    HW2 7110   4.299   5.841   1.469  0.6520  1.7326 -0.3265
 1836SOL    HW3 7111   4.187   5.942   1.486 -2.1816 -1.2808 -0.0972
 1836SOL    MW4 7112   4.225   5.867   1.508  0.2128 -0.1827  0.4914
 1837SOL     OW 7113   3.004   2.191   1.286 -0.1023  0.3740  0.0894
 1837SOL    HW2 7114   2.948   2.123   1.323  0.8815 -1.3094 -1.3951
 1837SOL    HW3 7115   2.947   2.239   1.226 -0.6333  0.4943  0.6669
 1837SOL    MW4 7116   2.989   2.189   1.283 -0.1885  0.7045  0.1056
 1838SOL     OW 7117   5.702   0.157   2.285 -0.4593 -0.6316 -0.5254
 1838SOL    HW2 7118   5.771   0.090   2.278 -1.4166 -1.9487  1.5527
 1838SOL    HW3 7119   5.666   0.165   2.197  1.6085 -0.6873 -1.4326
 1838SOL    MW4 7120   5.707   0.149   2.273  0.2055  0.5072  0.0562
 1839SOL     OW 7121   1.021   4.132   0.476  0.0710  0.1959  0.5459
 1839SOL    HW2 7122   0.990   4.214   0.438 -0.5385 -0.6298 -0.8251
 1839SOL    HW3 7123   1.046   4.154   0.565 -1.2615  1.6041  0.5951
 1839SOL    MW4 7124   1.021   4.145   0.483 -0.3456 -0.2145 -0.1420
 1840SOL     OW 7125   4.469   4.522   0.142  0.1534  0.0038 -0.0198
 1840SOL    HW2 7126   4.380   4.509   0.109 -0.3541  1.4205  0.6873
 1840SOL    HW3 7127   4.480   4.618   0.145  1.6933 -0.1427 -0.0601
 1840SOL    MW4 7128   4.459   4.533   0.138 -0.1318  0.1441 -0.3776
 1841SOL     OW 7129   2.230   0.449   5.579  0.5257 -0.2947  0.2138
 1841SOL    HW2 7130   2.298   0.410   5.634  0.9315 -1.1594 -0.8734
 1841SOL    HW3 7131   2.154   0.457   5.637  0.7650 -1.6967  0.7607
 1841SOL    MW4 7132   2.229   0.445   5.594  0.1253  0.5690 -0.8595
 1842SOL     OW 7133   2.276   6.199   0.600  0.3109 -0.2279 -0.4649
 1842SOL    HW2 7134   2.332   6.157   0.665 -0.0886 -0.6067 -0.3629
 1842SOL    HW3 7135   2.328   6.198   0.519  0.2104 -1.1393 -0.5240
 1842SOL    MW4 7136   2.291   6.193   0.598  0.6765 -0.5060  0.5021
 1843SOL     OW 7137   4.423   0.361   2.377  0.5721  0.0258 -0.1909
 1843SOL    HW2 7138   4.470   0.367   2.293 -1.8379 -0.4072 -1.6622
 1843SOL    HW3 7139   4.371   0.441   2.381  0.3792 -0.1370  0.7238
 1843SOL    MW4 7140   4.422   0.372   2.366 -0.0798  0.1261 -0.2548
 1844SOL     OW 7141   6.235   2.751   3.077  0.8670  0.0744 -0.3674
 1844SOL    HW2 7142   6.213   2.844   3.087  0.1431 -0.1816  0.4808
 1844SOL    HW3 7143   6.331   2.749   3.083  0.9004  0.7762 -0.5510
 1844SOL    MW4 7144   6.245   2.763   3.079  0.2168  1.0418 -0.6906
 1845SOL     OW 7145   4.825   4.234   5.929 -0.2090  0.5196 -0.1981
 1845SOL    HW2 7146   4.811   4.321   5.892 -1.0040  0.6382  0.3410
 1845SOL    HW3 7147   4.782   4.238   6.015  0.0134 -0.3092 -0.0434
 1845SOL    MW4 7148   4.817   4.246   5.936  0.4528 -0.4171  0.2455
 1846SOL     OW 7149   1.314   4.251   1.554  0.4922 -0.4016 -0.1256
 1846SOL    HW2 7150   1.377   4.205   1.498 -1.2830 -0.9036 -1.8268
 1846SOL    HW3 7151   1.364   4.322   1.594  2.2678 -1.1719 -0.8761
 1846SOL    MW4 7152   1.329   4.254   1.552 -0.1836  0.8919 -0.0275
 1847SOL     OW 7153   1.992   6.009   0.253  0.0721 -0.1331 -0.4563
 1847SOL    HW2 7154   2.015   6.051   0.336  1.4339 -0.3571 -0.6972
 1847SOL    HW3 7155   2.063   5.946   0.238  1.2245  1.5925 -2.9777
 1847SOL    MW4 7156   2.005   6.006   0.262  0.1297 -0.0289 -0.1508
 1848SOL     OW 7157   5.062   4.151   4.389 -0.0460 -0.7826  0.1791
 1848SOL    HW2 7158   5.148   4.186   4.367 -0.4498 -0.5802 -1.1937
 1848SOL    HW3 7159   5.052   4.075   4.331 -0.2992 -1.5425  1.1917
 1848SOL    MW4 7160   5.072   4.146   4.378  0.0139 -0.4419  0.3056
 1849SOL     OW 7161   4.729   4.708   4.409 -0.3123  0.0828  1.0011
 1849SOL    HW2 7162   4.807   4.764   4.405 -0.2010 -0.1127 -1.9976
 1849SOL    HW3 7163   4.656   4.769   4.415 -0.2132  0.8021 -2.5649
 1849SOL    MW4 7164   4.730   4.723   4.409 -0.2234  0.6436 -0.0420
 1850SOL     OW 7165   6.054   0.793   1.825 -0.2834 -0.1593  0.3889
 1850SOL    HW2 7166   6.059   0.874   1.774 -0.4926  0.4505  1.3203
 1850SOL    HW3 7167   6.009   0.732   1.767  2.4647 -0.5811 -1.5420
 1850SOL    MW4 7168   6.049   0.796   1.810 -0.0265  0.0373 -0.0444
 1851SOL     OW 7169   4.078   2.633   4.500  0.3216  0.6186 -0.5731
 1851SOL    HW2 7170   4.091   2.664   4.590 -2.1355  3.1713 -0.9444
 1851SOL    HW3 7171   4.061   2.713   4.450 -1.8212 -0.9674 -2.5966
 1851SOL    MW4 7172   4.077   2.648   4.505  0.0778 -0.3835 -0.5305
 1852SOL     OW 7173   6.090   6.232   3.498 -0.2734  0.5906 -0.3061
 1852SOL    HW2 7174   6.122   6.157   3.448 -0.6754  1.3512 -1.7436
 1852SOL    HW3 7175   6.090   6.202   3.589  2.5921 -0.1143 -0.4427
 1852SOL    MW4 7176   6.094   6.218   3.504  0.4010 -0.1474 -0.5841
 1853SOL     OW 7177   3.379   2.967   0.520 -0.3938  0.4363 -0.4187
 1853SOL    HW2 7178   3.313   3.027   0.555 -0.0348  1.6495 -1.7190
 1853SOL    HW3 7179   3.329   2.897   0.479 -0.8711  0.9972 -0.8053
 1853SOL    MW4 7180   3.364   2.966   0.520 -0.4056  0.3556  0.0270
 1854SOL     OW 7181   3.868   4.375   3.132 -0.5668  0.4775  0.0174
 1854SOL    HW2 7182   3.963   4.376   3.136 -0.5611 -0.9776  1.1180
 1854SOL    HW3 7183   3.841   4.464   3.155  0.5059  0.6144  0.7825
 1854SOL    MW4 7184   3.877   4.386   3.136 -0.0232  0.1719 -1.0675
 1855SOL     OW 7185   2.277   1.846   2.498  0.0593  0.2077 -0.3631
 1855SOL    HW2 7186   2.184   1.858   2.480 -0.1640  0.2898  0.7952
 1855SOL    HW3 7187   2.319   1.925   2.463 -0.5040  0.9117  0.5130
 1855SOL    MW4 7188   2.270   1.858   2.491 -0.5488 -0.0930 -0.9464
 1856SOL     OW 7189   6.282   0.168   6.051  0.1134 -0.1411  0.2080
 1856SOL    HW2 7190   6.360   0.170   5.996 -0.2883 -0.4405 -0.3824
 1856SOL    HW3 7191   6.251   0.258   6.054  0.3539 -0.0604  0.2600
 1856SOL    MW4 7192   6.288   0.180   6.044  0.0611  0.0718 -0.3761
 1857SOL     OW 7193   6.268   2.482   4.104  0.1897 -0.2910  0.1530
 1857SOL    HW2 7194   6.336   2.417   4.085  0.7982  0.2621  0.3957
 1857SOL    HW3 7195   6.278   2.548   4.035 -0.1199 -0.2243  0.1708
 1857SOL    MW4 7196   6.278   2.482   4.092  0.4341  0.0579 -0.2181
 1858SOL     OW 7197   3.195   0.215   2.704 -0.4711 -0.7384  0.1741
 1858SOL    HW2 7198   3.123   0.241   2.648  0.2234  1.0480  0.0550
 1858SOL    HW3 7199   3.212   0.291   2.759  2.0028 -0.6680 -0.5453
 1858SOL    MW4 7200   3.188   0.228   2.704  0.1351  0.3695 -0.6093
 1859SOL     OW 7201   3.769   5.859   4.071 -0.1834 -0.1536 -0.2030
 1859SOL    HW2 7202   3.679   5.890   4.079 -0.8604 -2.1365  0.5014
 1859SOL    HW3 7203   3.774   5.783   4.129  1.7991 -0.4212 -0.6382
 1859SOL    MW4 7204   3.758   5.853   4.079 -0.6331  0.6366  0.0178
 1860SOL     OW 7205   0.793   0.172   3.977 -0.3749  0.2621 -0.0355
 1860SOL    HW2 7206   0.821   0.201   3.890  0.0385  2.5911  0.8157
 1860SOL    HW3 7207   0.700   0.193   3.981 -0.2813  0.6247  0.2640
 1860SOL    MW4 7208   0.784   0.178   3.966  0.2745  0.9333 -0.4119
 1861SOL     OW 7209   5.268   2.185   4.405  0.7674 -0.3577  0.6030
 1861SOL    HW2 7210   5.198   2.241   4.438  0.3962 -0.1055 -0.5693
 1861SOL    HW3 7211   5.344   2.207   4.460 -0.2107 -1.1342  2.3347
 1861SOL    MW4 7212   5.269   2.195   4.417  0.2739 -0.4741 -0.0079
 1862SOL     OW 7213   0.627   3.840   4.892  0.2400 -0.2771 -0.2066
 1862SOL    HW2 7214   0.548   3.892   4.900 -0.1983 -1.2034  2.4578
 1862SOL    HW3 7215   0.604   3.755   4.929  2.2569 -0.8299 -0.0791
 1862SOL    MW4 7216   0.614   3.835   4.898  0.7748  0.0028  0.3923
 1863SOL     OW 7217   0.671   6.135   5.503 -0.1486  0.3365 -0.5569
 1863SOL    HW2 7218   0.757   6.092   5.506 -0.5813 -0.5535 -0.7092
 1863SOL    HW3 7219   0.692   6.229   5.506  0.7952  0.1247  0.0812
 1863SOL    MW4 7220   0.685   6.142   5.504 -0.1469  0.7148 -0.9720
 1864SOL     OW 7221   3.673   1.138   5.813 -0.3690 -0.1428  0.1937
 1864SOL    HW2 7222   3.621   1.218   5.799 -2.0123 -1.0009  1.1027
 1864SOL    HW3 7223   3.693   1.108   5.724 -1.0557  0.4695 -0.1877
 1864SOL    MW4 7224   3.669   1.145   5.799  0.5486  0.2347  0.0144
 1865SOL     OW 7225   3.647   0.810   3.470 -0.1401 -0.3545 -0.1031
 1865SOL    HW2 7226   3.669   0.717   3.471  1.3887 -0.0101 -0.0165
 1865SOL    HW3 7227   3.651   0.837   3.561  0.6863  0.0676 -0.2562
 1865SOL    MW4 7228   3.650   0.801   3.482  0.1938  0.0216 -0.3846
 1866SOL     OW 7229   1.037   4.970   3.105 -0.4147 -0.2179 -0.3353
 1866SOL    HW2 7230   1.065   4.883   3.078  0.9947  0.5314 -1.4036
 1866SOL    HW3 7231   0.947   4.957   3.136 -0.7523 -1.8114 -1.7923
 1866SOL    MW4 7232   1.029   4.957   3.105 -0.5411  0.1497  0.1155
 1867SOL     OW 7233   5.324   0.566   1.871 -0.1345  0.3449  0.6366
 1867SOL    HW2 7234   5.296   0.654   1.896 -0.9493 -0.2994  2.1400
 1867SOL    HW3 7235   5.404   0.551   1.920  0.4199  0.4996 -0.1949
 1867SOL    MW4 7236   5.331   0.576   1.881 -0.6293 -0.7453  0.3442
 1868SOL     OW 7237   2.539   0.382   3.333 -0.2832 -0.0134 -0.8913
 1868SOL    HW2 7238   2.489   0.307   3.366  1.1742  0.4864  3.0398
 1868SOL    HW3 7239   2.594   0.345   3.264 -0.7053 -2.2745 -0.1122
 1868SOL    MW4 7240   2.540   0.367   3.328  0.1243 -0.4851 -0.3531
 1869SOL     OW 7241   1.854   5.844   2.793 -0.0192 -0.0757  0.4815
 1869SOL    HW2 7242   1.897   5.777   2.847 -1.0305 -1.3474 -0.2510
 1869SOL    HW3 7243   1.761   5.836   2.814 -0.4835 -0.8251 -1.6440
 1869SOL    MW4 7244   1.848   5.834   2.803 -0.2342 -0.2580 -0.2801
 1870SOL     OW 7245   6.073   4.936   6.071 -0.0910  0.1395 -0.5239
 1870SOL    HW2 7246   6.162   4.967   6.058  1.1605 -2.1273  1.5848
 1870SOL    HW3 7247   6.064   4.863   6.010  0.1735 -0.6939  0.3956
 1870SOL    MW4 7248   6.084   4.930   6.061  0.0917  0.2119  0.0556
 1871SOL     OW 7249   0.061   3.654   0.499 -0.3880 -0.3691  0.0831
 1871SOL    HW2 7250   0.151   3.624   0.485  0.0764  0.7357  0.5660
 1871SOL    HW3 7251   0.045   3.639   0.592 -0.8888 -1.0179 -0.1029
 1871SOL    MW4 7252   0.071   3.648   0.509  0.0622  0.0293 -0.5776
 1872SOL     OW 7253   5.040   3.695   3.556  0.1599  0.4870  0.5846
 1872SOL    HW2 7254   5.134   3.705   3.569  0.1235 -0.9403  2.3910
 1872SOL    HW3 7255   5.030   3.678   3.462  1.6175  1.3731  0.2446
 1872SOL    MW4 7256   5.051   3.694   3.545 -0.3801  0.3288  0.1859
 1873SOL     OW 7257   2.883   2.053   6.083 -0.0431 -0.3172  0.9696
 1873SOL    HW2 7258   2.894   1.988   6.014  0.5041  2.0091 -1.3097
 1873SOL    HW3 7259   2.971   2.069   6.116 -0.4028 -2.1689  3.1091
 1873SOL    MW4 7260   2.896   2.047   6.078  0.0564 -0.2876 -0.0101
 1874SOL     OW 7261   2.197   0.206   5.848  0.2111  0.0801  0.1242
 1874SOL    HW2 7262   2.253   0.150   5.795  0.5265 -0.2764  0.8259
 1874SOL    HW3 7263   2.118   0.154   5.861  0.1554  0.1468  0.0559
 1874SOL    MW4 7264   2.194   0.192   5.842 -0.0293  0.4601  0.4272
 1875SOL     OW 7265   3.130   5.418   4.765 -0.2006 -0.3869 -0.0463
 1875SOL    HW2 7266   3.035   5.418   4.756 -0.4541 -0.4421  2.2779
 1875SOL    HW3 7267   3.149   5.491   4.824  1.0325 -1.4929  0.9696
 1875SOL    MW4 7268   3.120   5.428   4.771  0.0830  0.4980  0.2718
 1876SOL     OW 7269   1.999   2.013   1.287  0.4539  0.6068  0.1732
 1876SOL    HW2 7270   1.950   1.932   1.275  2.0739 -0.4459  0.3651
 1876SOL    HW3 7271   1.939   2.071   1.334 -0.9494 -0.2375 -0.5044
 1876SOL    MW4 7272   1.985   2.010   1.291 -0.0877 -0.0235 -0.1233
 1877SOL     OW 7273   0.386   3.952   4.960  0.3587  0.4714  0.7617
 1877SOL    HW2 7274   0.334   3.872   4.947  0.6731  0.1019  1.6781
 1877SOL    HW3 7275   0.331   4.022   4.927 -1.0060  0.1642  2.2644
 1877SOL    MW4 7276   0.372   3.950   4.954  0.0961 -0.6545 -0.2648
 1878SOL     OW 7277   2.434   4.901   3.219 -0.0078  0.2588 -0.5862
 1878SOL    HW2 7278   2.479   4.919   3.137 -1.3545  1.2284 -1.1399
 1878SOL    HW3 7279   2.374   4.829   3.199  0.8776 -0.6725  0.0140
 1878SOL    MW4 7280   2.432   4.894   3.206  0.4849  0.6617  0.2579
 1879SOL     OW 7281   1.110   3.196   1.106 -0.0571  0.4037 -0.1762
 1879SOL    HW2 7282   1.104   3.283   1.067  0.3138  1.1030  1.2702
 1879SOL    HW3 7283   1.086   3.209   1.197  0.3180 -0.9585  0.1378
 1879SOL    MW4 7284   1.106   3.209   1.113 -0.7190 -0.1281  0.2830
 1880SOL     OW 7285   0.210   5.143   6.010  0.3871 -0.0223 -0.9309
 1880SOL    HW2 7286   0.123   5.107   5.993 -0.7659  2.0964  0.2157
 1880SOL    HW3 7287   0.258   5.070   6.050 -1.1781 -0.9211 -0.5998
 1880SOL    MW4 7288   0.205   5.129   6.013 -0.0336  0.1315 -0.5275
 1881SOL     OW 7289   2.773   2.079   3.115 -0.0848 -0.6303  0.0975
 1881SOL    HW2 7290   2.702   2.030   3.156  0.1960  0.3177  1.8471
 1881SOL    HW3 7291   2.852   2.027   3.132  0.4186  0.8534  3.0928
 1881SOL    MW4 7292   2.774   2.066   3.123  0.0200  0.1814  0.3163
 1882SOL     OW 7293   0.849   0.758   5.289  0.3695 -0.3788  0.0603
 1882SOL    HW2 7294   0.786   0.822   5.258  0.0702 -0.1361  1.1215
 1882SOL    HW3 7295   0.850   0.690   5.221 -1.0074 -0.3714 -0.0000
 1882SOL    MW4 7296   0.841   0.757   5.276 -0.7599 -0.0758  0.8625
 1883SOL     OW 7297   4.882   6.328   1.151 -0.1503 -0.2932  0.2930
 1883SOL    HW2 7298   4.859   6.236   1.158  0.5929 -0.3680  2.4453
 1883SOL    HW3 7299   4.934   6.333   1.071 -0.6713 -1.6171 -0.1611
 1883SOL    MW4 7300   4.886   6.317   1.141 -0.2389  0.6039 -0.7648
 1884SOL     OW 7301   1.455   1.435   5.101 -0.3587  0.0970  0.4870
 1884SOL    HW2 7302   1.448   1.367   5.034 -1.0975 -0.4528  1.0865
 1884SOL    HW3 7303   1.499   1.391   5.174 -4.2292 -1.0652  2.4020
 1884SOL    MW4 7304   1.460   1.420   5.102 -0.5290  0.3242  0.7394
 1885SOL     OW 7305   2.002   6.353   0.171 -0.7767  0.2693  0.1947
 1885SOL    HW2 7306   2.066   6.282   0.165 -1.2446 -0.1018 -0.6917
 1885SOL    HW3 7307   1.940   6.335   0.100 -1.0554  1.4226  0.1216
 1885SOL    MW4 7308   2.002   6.341   0.161  0.6227  0.3707 -0.2298
 1886SOL     OW 7309   5.007   1.638   3.153  0.2358 -0.1917 -0.5170
 1886SOL    HW2 7310   4.918   1.631   3.188  0.3456  1.3502  0.1280
 1886SOL    HW3 7311   5.003   1.710   3.091  1.0714 -0.0177 -0.3697
 1886SOL    MW4 7312   4.995   1.646   3.150  0.2889  0.0021  0.2555
 1887SOL     OW 7313   3.275   0.994   5.842  0.0619 -0.0144 -0.2856
 1887SOL    HW2 7314   3.192   0.997   5.795  0.1583  1.2437 -0.4109
 1887SOL    HW3 7315   3.260   0.934   5.915 -0.6264 -0.6059 -0.8987
 1887SOL    MW4 7316   3.262   0.987   5.845 -0.6825 -0.4438 -0.0704
 1888SOL     OW 7317   3.573   2.861   2.357 -0.0110 -0.3221 -0.4680
 1888SOL    HW2 7318   3.594   2.907   2.276  1.2195  0.7463  0.4257
 1888SOL    HW3 7319   3.655   2.820   2.384 -0.1514  0.1413  0.7270
 1888SOL    MW4 7320   3.587   2.862   2.350  0.7373  0.5262  0.3069
 1889SOL     OW 7321   2.080   2.977   2.876 -0.0255 -0.6700 -0.4719
 1889SOL    HW2 7322   2.032   2.899   2.850 -1.1209  0.0548 -0.6798
 1889SOL    HW3 7323   2.147   2.945   2.936  1.0622 -2.0818 -2.3187
 1889SOL    MW4 7324   2.083   2.963   2.880 -0.6974 -0.1240 -0.0554
 1890SOL     OW 7325   4.358   6.284   3.355  0.3416  0.4376  0.0581
 1890SOL    HW2 7326   4.349   6.286   3.450 -0.3408 -0.4812  0.0262
 1890SOL    HW3 7327   4.422   6.215   3.338  1.8676  1.8285 -0.0857
 1890SOL    MW4 7328   4.365   6.275   3.365  0.0607 -0.2016  0.0508
 1891SOL     OW 7329   5.937   3.223   4.363 -0.1141 -1.1085  0.1107
 1891SOL    HW2 7330   5.998   3.201   4.293 -0.6872  0.7007 -1.0111
 1891SOL    HW3 7331   5.968   3.171   4.438  2.0231 -1.2199 -0.7613
 1891SOL    MW4 7332   5.949   3.213   4.364  0.2011  0.3268 -0.0110
 1892SOL     OW 7333   0.716   5.862   3.480  0.3930  0.1797 -0.0172
 1892SOL    HW2 7334   0.667   5.934   3.520 -1.1429 -1.0472  0.3589
 1892SOL    HW3 7335   0.791   5.848   3.538  0.3116  0.9777  0.2903
 1892SOL    MW4 7336   0.720   5.870   3.493  0.0819  0.4444  0.3676
 1893SOL     OW 7337   4.365   1.359   0.891  0.5822  0.6691  0.3539
 1893SOL    HW2 7338   4.429   1.393   0.829 -0.4803  0.8907 -0.6715
 1893SOL    HW3 7339   4.316   1.294   0.840  1.1450 -0.8159  1.6359
 1893SOL    MW4 7340   4.367   1.355   0.876 -0.0357 -0.3747  0.0043
 1894SOL     OW 7341   4.488   3.629   2.126 -0.2085 -0.3561  0.5208
 1894SOL    HW2 7342   4.492   3.717   2.089  1.9935 -0.6135  0.0271
 1894SOL    HW3 7343   4.502   3.642   2.220  1.1339 -0.2404  0.3154
 1894SOL    MW4 7344   4.490   3.642   2.134 -0.1820 -0.1046  0.5793
 1895SOL     OW 7345   3.051   2.779   4.346  0.1846  0.0384  0.0472
 1895SOL    HW2 7346   3.062   2.821   4.431  0.7586  0.6968 -0.3355
 1895SOL    HW3 7347   2.966   2.734   4.351 -1.2718  2.5905 -0.0464
 1895SOL    MW4 7348   3.041   2.779   4.358 -0.0300  0.5403  0.1801
 1896SOL     OW 7349   0.840   5.334   1.599  0.4412  0.1766 -0.4288
 1896SOL    HW2 7350   0.879   5.286   1.672 -0.1463 -0.6741 -0.6675
 1896SOL    HW3 7351   0.747   5.313   1.603  0.0135  1.9905 -0.0269
 1896SOL    MW4 7352   0.833   5.325   1.609  0.2922  0.1675  0.0973
 1897SOL     OW 7353   3.832   2.133   4.577 -0.1938  0.3509 -0.0006
 1897SOL    HW2 7354   3.783   2.112   4.498 -0.1846 -0.1319  0.1215
 1897SOL    HW3 7355   3.830   2.053   4.629  0.4910  0.4134  0.1283
 1897SOL    MW4 7356   3.825   2.120   4.573  0.0575 -0.2241  0.4181
 1898SOL     OW 7357   5.684   0.255   1.602  0.2885  0.1306  0.0527
 1898SOL    HW2 7358   5.702   0.210   1.684 -1.1529  1.0659  0.9263
 1898SOL    HW3 7359   5.663   0.345   1.628 -1.0361  0.2292 -1.2495
 1898SOL    MW4 7360   5.684   0.261   1.616 -0.1670  0.7082  0.1191
 1899SOL     OW 7361   2.224   3.493   0.077 -0.8303  0.2905  0.3256
 1899SOL    HW2 7362   2.173   3.426   0.033  1.3552 -0.9358 -0.5116
 1899SOL    HW3 7363   2.315   3.463   0.070  0.1728  2.9167  0.6765
 1899SOL    MW4 7364   2.229   3.480   0.071 -0.2806  0.0888 -0.1405
 1900SOL     OW 7365   0.181   4.222   0.200  0.4005  0.3091 -0.3321
 1900SOL    HW2 7366   0.235   4.284   0.151  0.5712  0.4758  0.0645
 1900SOL    HW3 7367   0.243   4.173   0.254  0.0352  1.7349  1.5094
 1900SOL    MW4 7368   0.196   4.224   0.201  0.1082  0.4715 -0.0569
 1901SOL     OW 7369   2.686   5.787   5.964 -0.1556 -0.3485  0.3202
 1901SOL    HW2 7370   2.723   5.711   6.010  0.0339 -0.1691  0.4689
 1901SOL    HW3 7371   2.694   5.764   5.872 -0.8745 -0.8649  0.3821
 1901SOL    MW4 7372   2.692   5.774   5.958 -0.1928 -0.1636  0.2019
 1902SOL     OW 7373   4.041   5.047   5.054 -0.3848 -0.0775  0.1137
 1902SOL    HW2 7374   4.005   5.128   5.088 -1.3192 -1.2631  2.1827
 1902SOL    HW3 7375   4.111   5.025   5.115  2.0410  0.7072 -2.2145
 1902SOL    MW4 7376   4.045   5.054   5.066  0.6744  0.3370  0.1121
 1903SOL     OW 7377   1.073   3.529   6.409  0.1048 -0.5805  0.0763
 1903SOL    HW2 7378   1.070   3.456   6.348 -0.1871  0.2918 -1.0001
 1903SOL    HW3 7379   1.108   3.492   6.490  0.8670 -1.6837 -0.7335
 1903SOL    MW4 7380   1.077   3.515   6.412 -0.3172 -0.3998 -0.0464
 1904SOL     OW 7381   3.005   6.089   5.086  0.6215  0.4398 -0.2312
 1904SOL    HW2 7382   2.925   6.132   5.058 -0.4100 -1.0028  0.3980
 1904SOL    HW3 7383   2.981   6.042   5.166  1.0947 -2.9677 -1.9193
 1904SOL    MW4 7384   2.992   6.089   5.093  0.0118 -0.1474 -0.2603
 1905SOL     OW 7385   2.137   3.622   5.083 -0.1886 -0.0120  0.2477
 1905SOL    HW2 7386   2.170   3.535   5.105  1.6700  0.0631 -1.9492
 1905SOL    HW3 7387   2.215   3.677   5.076 -0.9578  0.8766 -2.2833
 1905SOL    MW4 7388   2.151   3.618   5.085  0.1501 -0.1553  0.2664
 1906SOL     OW 7389   0.634   1.463   2.697 -0.4197 -0.0872  0.4068
 1906SOL    HW2 7390   0.685   1.385   2.720 -1.4102 -0.3669  1.7886
 1906SOL    HW3 7391   0.591   1.440   2.615  1.2373 -0.0345 -0.5216
 1906SOL    MW4 7392   0.635   1.449   2.689 -0.3316  0.1559 -0.1757
 1907SOL     OW 7393   0.299   0.594   1.484  0.1202 -0.0089  0.8753
 1907SOL    HW2 7394   0.345   0.649   1.420  2.1508 -1.4765  0.9829
 1907SOL    HW3 7395   0.206   0.613   1.469  0.5833  0.6911 -1.5833
 1907SOL    MW4 7396   0.293   0.604   1.474 -0.1909  0.0068  0.3121
 1908SOL     OW 7397   5.670   0.980   4.544 -0.2135 -0.5702  0.2045
 1908SOL    HW2 7398   5.755   0.937   4.558 -0.0077  0.3121  1.9278
 1908SOL    HW3 7399   5.683   1.034   4.467  0.5781 -0.9960  0.0243
 1908SOL    MW4 7400   5.683   0.981   4.536  0.0912  0.3235 -0.1508
 1909SOL     OW 7401   1.011   3.711   2.342 -0.0222  0.4585  0.3828
 1909SOL    HW2 7402   0.973   3.624   2.353 -1.2674  1.1008  1.6447
 1909SOL    HW3 7403   0.972   3.745   2.261  0.3449 -0.0893 -0.0263
 1909SOL    MW4 7404   1.001   3.704   2.333  0.0507 -0.2093  0.2002
 1910SOL     OW 7405   5.070   4.313   0.301 -0.1874 -0.3597  0.2413
 1910SOL    HW2 7406   5.141   4.320   0.365 -2.1765  2.3017  2.4137
 1910SOL    HW3 7407   5.051   4.404   0.276 -0.7818 -1.1912 -2.7533
 1910SOL    MW4 7408   5.077   4.326   0.306  0.1905  0.1400  0.4329
 1911SOL     OW 7409   0.596   4.898   0.768  0.0299  0.1065  0.2341
 1911SOL    HW2 7410   0.649   4.824   0.738 -0.1638 -1.2339  2.8731
 1911SOL    HW3 7411   0.506   4.866   0.762 -0.0498  0.0536  1.4412
 1911SOL    MW4 7412   0.591   4.884   0.763 -0.1303 -0.2318  0.4487
 1912SOL     OW 7413   1.040   5.283   1.785  0.3447  0.2974 -0.2826
 1912SOL    HW2 7414   1.083   5.215   1.838 -1.3358 -0.3901  0.2558
 1912SOL    HW3 7415   1.068   5.365   1.825  1.9275 -0.0729 -0.5654
 1912SOL    MW4 7416   1.049   5.285   1.797  0.4339 -0.6407 -0.1978
 1913SOL     OW 7417   6.240   0.538   3.601  0.3612  0.4374  0.1894
 1913SOL    HW2 7418   6.302   0.600   3.639  0.2387 -0.0047  1.1457
 1913SOL    HW3 7419   6.248   0.551   3.507 -0.3847  2.5946  0.3613
 1913SOL    MW4 7420   6.250   0.548   3.594  0.0103 -0.2011 -0.2033
 1914SOL     OW 7421   3.611   2.661   2.823  0.1825 -0.0730 -0.6205
 1914SOL    HW2 7422   3.618   2.630   2.733 -0.3745 -0.6994 -0.4568
 1914SOL    HW3 7423   3.537   2.721   2.822 -1.8142 -2.3288 -0.0279
 1914SOL    MW4 7424   3.602   2.664   2.811 -0.0789  0.0065  0.3863
 1915SOL     OW 7425   0.684   0.645   0.992 -0.1515 -0.1280  0.1994
 1915SOL    HW2 7426   0.706   0.552   0.995 -1.4785 -0.5688 -1.6258
 1915SOL    HW3 7427   0.666   0.669   1.083 -0.4833 -1.8378  0.6207
 1915SOL    MW4 7428   0.685   0.636   1.004 -0.0378  0.0174  0.2081
 1916SOL     OW 7429   5.084   4.914   1.624  0.1477  0.4070  0.2828
 1916SOL    HW2 7430   5.076   4.988   1.563 -0.8626  0.9628  1.0609
 1916SOL    HW3 7431   5.062   4.951   1.709 -2.7064 -1.2409  0.3829
 1916SOL    MW4 7432   5.080   4.928   1.627 -0.0992  0.3314 -0.3666
 1917SOL     OW 7433   4.292   1.764   3.704  0.3677  0.4398 -0.3429
 1917SOL    HW2 7434   4.309   1.841   3.759  1.3601  0.2492 -0.3556
 1917SOL    HW3 7435   4.370   1.757   3.648  0.0523 -0.2585 -0.7101
 1917SOL    MW4 7436   4.305   1.773   3.704 -0.0831 -0.8216  0.1236
 1918SOL     OW 7437   2.104   1.383   0.900 -0.1317 -0.2493 -0.3609
 1918SOL    HW2 7438   2.182   1.403   0.848 -1.0478  1.9817 -1.0061
 1918SOL    HW3 7439   2.129   1.404   0.990 -0.1606  1.0755 -0.6512
 1918SOL    MW4 7440   2.118   1.388   0.905  0.3013 -0.5987  0.8657
 1919SOL     OW 7441   1.232   3.528   3.650 -0.2714  1.3772 -0.7830
 1919SOL    HW2 7442   1.214   3.524   3.744 -0.0431  0.7266 -0.7580
 1919SOL    HW3 7443   1.322   3.496   3.642 -0.5012  0.8413 -1.2835
 1919SOL    MW4 7444   1.242   3.523   3.661  0.7571  0.4733  0.2737
 1920SOL     OW 7445   0.730   0.698   3.697  0.0925  0.1893 -0.4389
 1920SOL    HW2 7446   0.746   0.629   3.761 -0.1633 -0.9535 -1.5460
 1920SOL    HW3 7447   0.773   0.666   3.617  0.5125  1.6211 -0.8158
 1920SOL    MW4 7448   0.738   0.685   3.695 -0.7136 -0.0856 -0.3340
 1921SOL     OW 7449   2.788   4.150   4.262  0.0792 -0.1653  0.0388
 1921SOL    HW2 7450   2.716   4.202   4.227  0.0878  1.7121  2.5358
 1921SOL    HW3 7451   2.865   4.206   4.253  1.2089 -1.8970 -2.0089
 1921SOL    MW4 7452   2.789   4.164   4.256  0.1114  0.2038 -0.0245
 1922SOL     OW 7453   1.024   1.847   6.409  0.0981  0.3886  0.1326
 1922SOL    HW2 7454   1.115   1.826   6.433 -0.3966  0.0505  1.8705
 1922SOL    HW3 7455   1.032   1.893   6.326  1.6437 -2.0082 -1.1616
 1922SOL    MW4 7456   1.037   1.850   6.401 -0.1588 -0.4537  0.3787
 1923SOL     OW 7457   1.926   2.149   2.978  0.1075  0.4562 -0.1784
 1923SOL    HW2 7458   1.974   2.078   3.021  0.4257  1.6072  1.4405
 1923SOL    HW3 7459   1.992   2.214   2.957 -0.5114  1.4264  0.7652
 1923SOL    MW4 7460   1.941   2.148   2.981  0.9273  0.8837  0.0747
 1924SOL     OW 7461   6.153   5.539   2.875  0.1517  0.1590 -0.6777
 1924SOL    HW2 7462   6.094   5.547   2.949  0.9582 -0.8595  0.0924
 1924SOL    HW3 7463   6.118   5.600   2.810 -0.7035  0.8851  0.4341
 1924SOL    MW4 7464   6.141   5.548   2.876  0.0293 -0.8959 -0.7022
 1925SOL     OW 7465   6.213   4.581   5.612  0.1238 -0.1129  0.1062
 1925SOL    HW2 7466   6.287   4.602   5.669  0.7465 -0.0817 -0.6923
 1925SOL    HW3 7467   6.245   4.509   5.557  0.3753  1.3556 -1.7711
 1925SOL    MW4 7468   6.227   4.574   5.612  0.3014 -0.4350  0.7512
 1926SOL     OW 7469   4.260   3.239   1.143 -0.0072  0.6822 -0.0694
 1926SOL    HW2 7470   4.264   3.143   1.149 -1.0359  0.5781 -0.7028
 1926SOL    HW3 7471   4.295   3.270   1.227  0.1317 -0.2536  0.2314
 1926SOL    MW4 7472   4.265   3.230   1.155 -0.8110  0.7135 -0.1472
 1927SOL     OW 7473   0.393   2.915   1.003 -0.3729 -0.4972 -0.0667
 1927SOL    HW2 7474   0.467   2.974   1.022  0.0414 -1.0128 -0.0580
 1927SOL    HW3 7475   0.316   2.968   1.021 -0.0374 -0.7535  2.5235
 1927SOL    MW4 7476   0.393   2.930   1.008 -0.1078  0.1274  0.1587
 1928SOL     OW 7477   3.497   4.375   2.329 -0.2410  0.1101 -0.5902
 1928SOL    HW2 7478   3.452   4.310   2.383  2.0787 -0.6707  0.5340
 1928SOL    HW3 7479   3.536   4.436   2.391  0.1921  0.7949 -1.5028
 1928SOL    MW4 7480   3.496   4.375   2.344 -0.1855 -0.3286 -0.0652
 1929SOL     OW 7481   5.404   4.935   2.853  0.1945 -0.0242 -0.1149
 1929SOL    HW2 7482   5.428   4.920   2.762 -0.8038 -0.9903 -0.2376
 1929SOL    HW3 7483   5.480   4.904   2.903  0.8905  0.8502 -0.6179
 1929SOL    MW4 7484   5.417   4.929   2.848 -0.0626 -0.5614 -1.0972
 1930SOL     OW 7485   4.082   4.174   3.542  0.4348 -0.2959  0.8749
 1930SOL    HW2 7486   4.154   4.231   3.516  0.0466  0.0316  0.4959
 1930SOL    HW3 7487   4.014   4.189   3.476  0.4508 -1.4467  0.5638
 1930SOL    MW4 7488   4.082   4.183   3.530 -0.3820 -0.6686 -0.1750
 1931SOL     OW 7489   1.905   5.214   4.272  0.1547 -0.0509 -0.2827
 1931SOL    HW2 7490   1.913   5.164   4.190  0.7232  0.4176 -0.5278
 1931SOL    HW3 7491   1.974   5.178   4.328  1.0665  0.9224 -0.7280
 1931SOL    MW4 7492   1.915   5.203   4.268 -0.1494 -0.2328  0.4987
 1932SOL     OW 7493   2.739   4.131   1.853  0.6074  0.0424 -0.7778
 1932SOL    HW2 7494   2.695   4.212   1.829  0.8841 -0.3118 -2.6553
 1932SOL    HW3 7495   2.821   4.159   1.894  0.0006  0.6973  0.0105
 1932SOL    MW4 7496   2.744   4.145   1.855 -0.5287  0.6765  0.0714
 1933SOL     OW 7497   5.770   3.475   5.289  0.7305 -0.0476 -1.0109
 1933SOL    HW2 7498   5.778   3.561   5.247  1.7944 -0.9694 -2.8247
 1933SOL    HW3 7499   5.722   3.422   5.225 -0.0876 -0.7659  0.1646
 1933SOL    MW4 7500   5.765   3.479   5.275 -0.6962 -0.0083  0.0555
 1934SOL     OW 7501   1.467   3.994   1.028  0.2093 -0.2835 -0.4212
 1934SOL    HW2 7502   1.471   4.039   0.943  0.0021  0.5778  0.0082
 1934SOL    HW3 7503   1.544   3.937   1.029  1.4282  1.2943 -0.3213
 1934SOL    MW4 7504   1.478   3.992   1.017  0.0400 -0.1755 -0.5460
 1935SOL     OW 7505   5.657   1.097   1.238 -0.1578 -0.0688 -0.1794
 1935SOL    HW2 7506   5.726   1.034   1.257  0.4228 -0.1846 -2.3633
 1935SOL    HW3 7507   5.575   1.050   1.255  0.2616 -0.2250  1.5518
 1935SOL    MW4 7508   5.655   1.082   1.242  0.3542 -0.5407  0.0386
 1936SOL     OW 7509   0.425   2.207   5.109  0.1158  0.2892  0.0860
 1936SOL    HW2 7510   0.459   2.137   5.054 -1.9117 -1.6229  1.1335
 1936SOL    HW3 7511   0.501   2.263   5.127  2.1701 -2.4235  0.3936
 1936SOL    MW4 7512   0.440   2.205   5.104 -0.7785 -0.0678  0.0456
 1937SOL     OW 7513   4.870   0.391   4.443  0.3617 -0.2237  0.2257
 1937SOL    HW2 7514   4.927   0.316   4.463  0.9446 -0.2116 -1.2841
 1937SOL    HW3 7515   4.794   0.352   4.401  0.5455 -0.0006 -0.3195
 1937SOL    MW4 7516   4.868   0.376   4.440 -0.1011  0.0291 -0.8787
 1938SOL     OW 7517   3.921   4.809   0.478 -0.7703 -0.7502 -0.5919
 1938SOL    HW2 7518   4.004   4.779   0.516 -1.1246 -0.3362  0.5558
 1938SOL    HW3 7519   3.908   4.752   0.402  1.4681  0.3811 -1.9191
 1938SOL    MW4 7520   3.930   4.797   0.473  0.4268  0.3033 -0.0726
 1939SOL     OW 7521   5.616   4.406   5.176  0.0800  0.3936  0.4095
 1939SOL    HW2 7522   5.617   4.483   5.119 -0.4384  0.4655  0.4858
 1939SOL    HW3 7523   5.570   4.435   5.255 -1.7883 -0.4527 -0.2897
 1939SOL    MW4 7524   5.610   4.420   5.179  0.3820 -0.1599  0.0720
 1940SOL     OW 7525   5.767   1.427   4.943 -0.4867 -0.4403  0.1173
 1940SOL    HW2 7526   5.749   1.337   4.918 -1.1011 -0.6098  1.0850
 1940SOL    HW3 7527   5.754   1.478   4.863  0.5113 -1.2695 -0.5997
 1940SOL    MW4 7528   5.763   1.422   4.929 -0.0660 -0.2477  0.0433
 1941SOL     OW 7529   3.431   1.338   2.040 -0.3857  0.5614 -0.6842
 1941SOL    HW2 7530   3.445   1.243   2.050 -2.1265  0.2831 -0.6509
 1941SOL    HW3 7531   3.438   1.352   1.945  0.1042  0.4473 -0.6696
 1941SOL    MW4 7532   3.434   1.327   2.029  0.7492  0.0782  0.5497
 1942SOL     OW 7533   3.563   2.241   2.089 -0.7350 -0.2469 -0.2234
 1942SOL    HW2 7534   3.474   2.207   2.094 -1.2127  1.1189  2.1167
 1942SOL    HW3 7535   3.556   2.320   2.035 -0.6584 -0.8776 -1.1716
 1942SOL    MW4 7536   3.550   2.247   2.083  0.1040  0.1136  0.2243
 1943SOL     OW 7537   4.869   0.347   3.942  0.5542  0.6149  0.2380
 1943SOL    HW2 7538   4.897   0.388   4.024  1.2531  1.0886 -0.2340
 1943SOL    HW3 7539   4.784   0.387   3.924  0.0851  0.0327  1.0576
 1943SOL    MW4 7540   4.861   0.358   3.950 -0.1826  0.7713  0.1341
 1944SOL     OW 7541   5.066   5.581   4.310 -0.3052 -0.2909 -0.1834
 1944SOL    HW2 7542   5.040   5.669   4.284 -0.5001 -0.3474 -0.1835
 1944SOL    HW3 7543   5.122   5.594   4.386  0.1001 -0.1353 -0.5045
 1944SOL    MW4 7544   5.070   5.594   4.316  0.2861  0.2720 -0.4877
 1945SOL     OW 7545   1.890   0.928   5.758 -0.0614 -0.1555 -0.3631
 1945SOL    HW2 7546   1.860   0.938   5.667 -1.9430 -2.0815 -0.0411
 1945SOL    HW3 7547   1.836   0.988   5.808 -1.3568 -1.4219 -0.1696
 1945SOL    MW4 7548   1.879   0.937   5.752  0.1131 -0.6249  0.5457
 1946SOL     OW 7549   4.565   0.348   2.127 -0.3822  0.6911  0.5901
 1946SOL    HW2 7550   4.549   0.426   2.074 -0.5972 -0.2940 -0.8754
 1946SOL    HW3 7551   4.640   0.306   2.085 -1.1772 -0.6348  0.4298
 1946SOL    MW4 7552   4.572   0.353   2.114 -0.7331 -0.0479 -0.2957
 1947SOL     OW 7553   0.359   0.539   3.954  0.0101  0.0989  0.1567
 1947SOL    HW2 7554   0.413   0.601   4.003 -0.1943 -0.7903  1.5660
 1947SOL    HW3 7555   0.275   0.538   4.000  0.5494 -2.4441  1.2581
 1947SOL    MW4 7556   0.355   0.547   3.966 -0.2061  0.6570 -0.4229
 1948SOL     OW 7557   1.344   2.872   4.248  0.0466  0.5769  0.4137
 1948SOL    HW2 7558   1.272   2.870   4.185  0.0195  1.1187  0.4192
 1948SOL    HW3 7559   1.398   2.797   4.225 -0.9321 -0.3116  0.9067
 1948SOL    MW4 7560   1.341   2.862   4.237  0.1528  0.8717  0.0031
 1949SOL     OW 7561   2.742   2.662   1.651  0.1083 -0.3901  0.5806
 1949SOL    HW2 7562   2.825   2.627   1.616  0.4236  0.0311  0.8951
 1949SOL    HW3 7563   2.762   2.685   1.742 -0.0953  0.5727  0.3941
 1949SOL    MW4 7564   2.756   2.661   1.658  0.5460 -0.1026  0.2703
 1950SOL     OW 7565   4.826   4.088   0.607 -0.0282 -0.0574  0.0827
 1950SOL    HW2 7566   4.895   4.065   0.545  0.6620 -0.0556  0.8405
 1950SOL    HW3 7567   4.802   4.178   0.583  1.9721  0.8927  1.3280
 1950SOL    MW4 7568   4.832   4.097   0.596 -0.3410 -0.4007 -0.0788
 1951SOL     OW 7569   2.276   3.131   6.283 -0.3638  0.2411  0.2408
 1951SOL    HW2 7570   2.311   3.045   6.262 -1.3638 -0.3431  0.8734
 1951SOL    HW3 7571   2.284   3.137   6.378 -0.3579  0.8181  0.2068
 1951SOL    MW4 7572   2.281   3.121   6.293  0.2715 -0.0786  0.2666
 1952SOL     OW 7573   3.062   3.437   2.843  0.7006 -0.2186  0.6107
 1952SOL    HW2 7574   3.136   3.493   2.867  0.7195 -0.5313  1.3031
 1952SOL    HW3 7575   3.030   3.473   2.760  2.1804 -0.6079 -0.1654
 1952SOL    MW4 7576   3.068   3.449   2.835  0.1426  0.2707  0.4121
 1953SOL     OW 7577   0.633   4.360   3.995 -0.4003  0.1884  0.6079
 1953SOL    HW2 7578   0.691   4.411   3.938 -0.8633  0.0283 -0.0167
 1953SOL    HW3 7579   0.672   4.272   3.997 -0.3176  0.2261  0.6336
 1953SOL    MW4 7580   0.646   4.355   3.988  0.3879  0.3202 -0.4238
 1954SOL     OW 7581   2.742   4.194   5.265 -0.0628  0.0771 -0.3412
 1954SOL    HW2 7582   2.826   4.191   5.218  0.6392 -0.2666  0.8945
 1954SOL    HW3 7583   2.748   4.271   5.321 -0.9001  0.4836 -0.7798
 1954SOL    MW4 7584   2.754   4.204   5.266 -0.0010 -0.4167  0.1849
 1955SOL     OW 7585   0.876   6.099   2.440  0.4517 -0.4404  0.4677
 1955SOL    HW2 7586   0.791   6.055   2.437  1.1126 -1.8280  1.3190
 1955SOL    HW3 7587   0.936   6.041   2.394  0.6372  1.4028 -1.8335
 1955SOL    MW4 7588   0.873   6.086   2.434 -0.2780 -0.9488  0.2988
 1956SOL     OW 7589   1.410   1.108   6.113 -0.0662  0.2156  0.5236
 1956SOL    HW2 7590   1.444   1.178   6.057 -1.0481  0.8202  0.6591
 1956SOL    HW3 7591   1.325   1.086   6.075  0.6561 -1.6206 -0.1068
 1956SOL    MW4 7592   1.403   1.114   6.101 -0.4382  0.1359 -0.1705
 1957SOL     OW 7593   1.565   5.343   0.808 -0.2302  0.2322  0.2234
 1957SOL    HW2 7594   1.505   5.270   0.823 -0.1307 -0.0465 -0.6800
 1957SOL    HW3 7595   1.515   5.404   0.754  0.1914  0.1408 -0.2727
 1957SOL    MW4 7596   1.550   5.342   0.803 -0.1311 -0.4268 -0.5367
 1958SOL     OW 7597   1.518   6.031   1.108  0.3026  0.0345  0.4637
 1958SOL    HW2 7598   1.465   6.008   1.032  0.9841 -0.9198  0.2499
 1958SOL    HW3 7599   1.471   5.993   1.182  0.7495 -0.9706  0.2543
 1958SOL    MW4 7600   1.505   6.023   1.108  0.4358  0.0038 -0.5779
 1959SOL     OW 7601   3.661   1.120   6.317 -1.0913  0.0451  0.0460
 1959SOL    HW2 7602   3.593   1.174   6.276  0.0248  2.1960  0.8538
 1959SOL    HW3 7603   3.616   1.040   6.343 -2.5346 -0.0780 -2.4821
 1959SOL    MW4 7604   3.646   1.117   6.315  0.0898  0.3603 -0.1304
 1960SOL     OW 7605   4.751   3.073   5.663 -0.5561  0.2038 -0.4851
 1960SOL    HW2 7606   4.736   3.126   5.584  0.9328 -1.4786 -1.9836
 1960SOL    HW3 7607   4.675   3.015   5.668 -1.2217  1.0892  0.0298
 1960SOL    MW4 7608   4.739   3.072   5.653  0.6177 -0.2870 -0.5823
 1961SOL     OW 7609   5.784   2.388   5.283  0.1497  0.2091  0.1294
 1961SOL    HW2 7610   5.842   2.416   5.213  0.3333 -0.9061 -0.1861
 1961SOL    HW3 7611   5.696   2.391   5.245 -0.1323  2.4930  0.7915
 1961SOL    MW4 7612   5.780   2.392   5.269  0.1073  0.1311  1.0148
 1962SOL     OW 7613   0.039   3.304   4.364  0.3135 -0.2832  0.4512
 1962SOL    HW2 7614   0.061   3.315   4.271 -1.2739  1.2345  0.2049
 1962SOL    HW3 7615  -0.001   3.217   4.369 -0.2902 -0.0691 -0.4394
 1962SOL    MW4 7616   0.037   3.294   4.352  0.4101  0.2406  0.2778
 1963SOL     OW 7617   4.642   1.593   1.822 -0.4715  0.0121  0.0702
 1963SOL    HW2 7618   4.710   1.527   1.837 -0.5877  0.1980  1.5765
 1963SOL    HW3 7619   4.603   1.568   1.738 -0.1512 -1.5239  0.3350
 1963SOL    MW4 7620   4.646   1.581   1.813 -0.6762  0.4293 -0.3218
 1964SOL     OW 7621   5.044   3.904   4.207 -0.1895  0.3271 -0.1298
 1964SOL    HW2 7622   5.034   3.924   4.114 -0.7976  2.1008  0.2968
 1964SOL    HW3 7623   4.955   3.899   4.241 -0.0600 -1.9811  0.0875
 1964SOL    MW4 7624   5.031   3.906   4.199 -0.0033 -0.2633 -0.4848
 1965SOL     OW 7625   0.365   3.998   1.781  0.4717 -0.1091  0.3879
 1965SOL    HW2 7626   0.371   3.909   1.746 -0.6203 -0.2730  0.5873
 1965SOL    HW3 7627   0.453   4.034   1.770  0.7004 -0.9032 -0.5138
 1965SOL    MW4 7628   0.378   3.991   1.775  0.1642 -0.2504 -0.1543
 1966SOL     OW 7629   1.287   3.517   1.254 -0.3266  0.4397 -0.3617
 1966SOL    HW2 7630   1.232   3.499   1.178  0.9614 -1.0876 -0.9920
 1966SOL    HW3 7631   1.376   3.502   1.224  0.2492  0.1210  1.3546
 1966SOL    MW4 7632   1.292   3.512   1.240  0.0363 -0.9790  0.1920
 1967SOL     OW 7633   1.767   3.949   4.235 -0.4045  0.3767 -0.2823
 1967SOL    HW2 7634   1.673   3.951   4.249 -0.2760  0.6290  0.5485
 1967SOL    HW3 7635   1.781   4.003   4.157 -0.9869 -0.0541 -0.6924
 1967SOL    MW4 7636   1.757   3.956   4.226 -0.7902  0.2193  0.0151
 1968SOL     OW 7637   5.525   5.288   2.725 -0.0652 -0.8715  0.2464
 1968SOL    HW2 7638   5.568   5.371   2.743 -0.2869 -0.4665 -1.0075
 1968SOL    HW3 7639   5.592   5.222   2.742  0.0151 -0.4755  1.5695
 1968SOL    MW4 7640   5.539   5.290   2.730 -0.3745  0.4390  0.5278
 1969SOL     OW 7641   2.203   2.996   2.534 -0.4074  0.4894  0.2857
 1969SOL    HW2 7642   2.178   3.054   2.607 -1.8401 -0.0958  0.3088
 1969SOL    HW3 7643   2.297   2.985   2.543 -0.2503  2.0766  0.8223
 1969SOL    MW4 7644   2.212   3.002   2.545 -0.0129 -0.1332  0.0719
 1970SOL     OW 7645   3.206   1.795   0.341 -0.2676  0.2623  0.0433
 1970SOL    HW2 7646   3.182   1.855   0.270  0.0556  0.6765  0.2722
 1970SOL    HW3 7647   3.126   1.747   0.361 -0.8082  1.3003  0.5023
 1970SOL    MW4 7648   3.192   1.797   0.334  0.5503 -0.4579  0.1054
 1971SOL     OW 7649   4.970   3.186   5.291  0.7144  0.0455 -0.6058
 1971SOL    HW2 7650   4.986   3.280   5.302  1.0977 -0.1853  1.1142
 1971SOL    HW3 7651   4.919   3.179   5.210 -1.0658  1.9022  0.2948
 1971SOL    MW4 7652   4.966   3.198   5.282 -0.3152 -0.2358  0.7301
 1972SOL     OW 7653   3.228   0.643   0.497  0.1097  0.3600 -0.1290
 1972SOL    HW2 7654   3.269   0.727   0.520 -0.1668  0.7828 -1.1607
 1972SOL    HW3 7655   3.286   0.606   0.431  0.1999 -0.2406  0.2874
 1972SOL    MW4 7656   3.241   0.650   0.492 -0.3014 -0.3456 -0.6462
 1973SOL     OW 7657   2.744   4.784   3.229  0.0029  0.1968 -0.1125
 1973SOL    HW2 7658   2.744   4.703   3.281  0.0747  0.4244  0.2471
 1973SOL    HW3 7659   2.723   4.853   3.292  2.2979  0.7859  0.0907
 1973SOL    MW4 7660   2.741   4.782   3.244 -0.1189  0.3017  0.3467
 1974SOL     OW 7661   4.690   6.109   2.673 -0.4407 -0.0016  0.1429
 1974SOL    HW2 7662   4.695   6.152   2.758  2.1804 -0.2919  0.2282
 1974SOL    HW3 7663   4.619   6.045   2.683 -1.6311  1.4343  1.3552
 1974SOL    MW4 7664   4.681   6.106   2.686  0.0689 -0.4922 -0.0639
 1975SOL     OW 7665   3.117   4.431   0.819 -0.5340 -0.0047 -0.0692
 1975SOL    HW2 7666   3.211   4.427   0.799 -0.4614  1.5247 -0.1827
 1975SOL    HW3 7667   3.114   4.450   0.913 -0.7916 -1.8539  0.3373
 1975SOL    MW4 7668   3.129   4.433   0.829 -0.0338  0.0573  0.5154
 1976SOL     OW 7669   5.090   6.230   4.144  0.1095  0.0429  0.1142
 1976SOL    HW2 7670   5.047   6.170   4.082  1.1474 -0.1025 -0.4874
 1976SOL    HW3 7671   5.183   6.206   4.140  0.4988  1.4655  0.1197
 1976SOL    MW4 7672   5.097   6.219   4.135  0.4637  0.2342 -0.0011
 1977SOL     OW 7673   2.029   3.831   1.124  0.8382 -0.2352  0.3852
 1977SOL    HW2 7674   2.032   3.869   1.212  3.0883  3.2834 -0.9828
 1977SOL    HW3 7675   2.113   3.784   1.116  1.2979  0.6767 -0.3009
 1977SOL    MW4 7676   2.041   3.830   1.135  0.0561 -0.7099  0.1393
 1978SOL     OW 7677   1.042   5.873   2.397 -0.0444  0.2633  0.3218
 1978SOL    HW2 7678   1.084   5.871   2.311  0.4285 -2.4755  0.5256
 1978SOL    HW3 7679   1.114   5.863   2.459 -0.6929 -2.0884  0.7844
 1978SOL    MW4 7680   1.057   5.872   2.393 -0.5950 -0.3779 -0.6435
 1979SOL     OW 7681   4.687   5.637   1.275  0.4950  0.1954 -0.6851
 1979SOL    HW2 7682   4.696   5.675   1.187  0.6093 -1.3170 -1.3576
 1979SOL    HW3 7683   4.668   5.545   1.259 -1.0241  0.2000  0.8834
 1979SOL    MW4 7684   4.686   5.630   1.261 -0.0446  0.0736 -0.4029
 1980SOL     OW 7685   5.923   6.026   3.118  0.0126  0.0396  0.1966
 1980SOL    HW2 7686   6.003   5.975   3.102  0.3458  0.5170  0.3238
 1980SOL    HW3 7687   5.953   6.117   3.125 -0.6850  0.3749 -0.9156
 1980SOL    MW4 7688   5.938   6.031   3.117 -0.3039  0.3063  0.5458
 1981SOL     OW 7689   2.963   1.015   5.024  0.4838  0.4608  0.0681
 1981SOL    HW2 7690   2.874   1.011   5.060  0.8686 -0.7747  0.9578
 1981SOL    HW3 7691   2.953   0.984   4.934  0.1132 -0.4958  0.4183
 1981SOL    MW4 7692   2.950   1.010   5.017 -0.0770  0.4019 -0.0577
 1982SOL     OW 7693   0.690   0.476   1.343  0.5349 -0.7508 -0.4792
 1982SOL    HW2 7694   0.596   0.457   1.350  0.1665  0.8534 -0.6130
 1982SOL    HW3 7695   0.732   0.406   1.393 -0.7785 -1.1462  0.1316
 1982SOL    MW4 7696   0.683   0.464   1.351  0.0206  0.1015  0.2137
 1983SOL     OW 7697   5.617   6.213   2.069 -0.0268  0.4586  0.4150
 1983SOL    HW2 7698   5.549   6.238   2.007  0.6010  1.0929 -0.0334
 1983SOL    HW3 7699   5.574   6.151   2.128 -1.2919  1.7263  0.8543
 1983SOL    MW4 7700   5.603   6.208   2.068 -0.7262 -0.2614 -0.1241
 1984SOL     OW 7701   4.574   2.088   6.262 -0.2227 -0.2902 -0.0744
 1984SOL    HW2 7702   4.557   2.000   6.230 -0.4160 -0.8181  1.4140
 1984SOL    HW3 7703   4.577   2.079   6.358  3.3105  0.6520  0.0569
 1984SOL    MW4 7704   4.573   2.075   6.271 -0.5788  0.3409 -0.1008
 1985SOL     OW 7705   3.199   4.310   5.974  0.5970 -0.4463  0.1496
 1985SOL    HW2 7706   3.279   4.363   5.976  0.6590 -0.5427  0.2098
 1985SOL    HW3 7707   3.131   4.369   6.006  0.7170 -0.4882  0.4819
 1985SOL    MW4 7708   3.201   4.325   5.978  0.3348  0.3393  0.5068
 1986SOL     OW 7709   1.914   1.315   3.032  0.0552  0.3460 -0.5598
 1986SOL    HW2 7710   1.911   1.298   3.127  1.5270 -0.1546 -0.5832
 1986SOL    HW3 7711   1.866   1.241   2.994 -1.2558  0.9704 -0.1896
 1986SOL    MW4 7712   1.907   1.303   3.040  0.1003  0.3748 -0.4387
 1987SOL     OW 7713   6.164   3.491   4.662  0.1975 -0.5947  0.0271
 1987SOL    HW2 7714   6.191   3.484   4.570 -0.4002  1.5783 -0.3675
 1987SOL    HW3 7715   6.246   3.493   4.711  0.5173 -2.9247 -0.2835
 1987SOL    MW4 7716   6.179   3.490   4.656  0.2729  0.3223 -0.3161
 1988SOL     OW 7717   4.956   4.365   3.298 -1.0110 -0.0994  0.6415
 1988SOL    HW2 7718   4.934   4.439   3.240 -0.4505 -1.1111 -0.9293
 1988SOL    HW3 7719   4.967   4.291   3.238 -0.0367 -1.1207  2.0431
 1988SOL    MW4 7720   4.954   4.365   3.282 -0.2298  0.0632  0.3671
 1989SOL     OW 7721   1.848   2.904   3.856  0.2101  0.1886  0.7255
 1989SOL    HW2 7722   1.807   2.938   3.777  1.5522 -1.4182 -0.7370
 1989SOL    HW3 7723   1.923   2.961   3.871 -0.4412  0.9296  1.3173
 1989SOL    MW4 7724   1.852   2.916   3.848 -0.0353  0.9305 -0.0201
 1990SOL     OW 7725   3.236   3.258   5.591  0.3789  0.5033  0.2987
 1990SOL    HW2 7726   3.256   3.168   5.618  0.5433  0.7382  0.9834
 1990SOL    HW3 7727   3.192   3.296   5.667 -1.1051  0.5403 -0.5477
 1990SOL    MW4 7728   3.233   3.251   5.605  0.1482 -0.2286 -0.7483
 1991SOL     OW 7729   0.784   0.249   1.509 -0.5279 -0.7585  0.2742
 1991SOL    HW2 7730   0.720   0.232   1.578  0.7295 -0.1197  1.6738
 1991SOL    HW3 7731   0.853   0.299   1.553  1.4660 -2.3482 -0.8751
 1991SOL    MW4 7732   0.785   0.254   1.524  0.0537  0.7982  0.1512
 1992SOL     OW 7733   4.630   1.387   4.037 -0.1864  0.2953 -0.2017
 1992SOL    HW2 7734   4.661   1.352   4.121  2.2496  1.0058 -0.7323
 1992SOL    HW3 7735   4.647   1.317   3.974  0.1318  0.6123 -0.4726
 1992SOL    MW4 7736   4.636   1.373   4.040 -0.1557 -0.1557 -0.1149
 1993SOL     OW 7737   3.928   3.621   0.600 -0.0263  0.1721  0.0106
 1993SOL    HW2 7738   3.902   3.705   0.563 -1.4710 -0.2878 -0.0847
 1993SOL    HW3 7739   3.876   3.612   0.679  1.4756  0.1727  1.0410
 1993SOL    MW4 7740   3.918   3.631   0.605  0.2903 -0.1337  0.3118
 1994SOL     OW 7741   2.502   5.805   3.459 -0.5927 -0.2354 -0.3529
 1994SOL    HW2 7742   2.566   5.792   3.528 -0.8377  1.1084  0.1532
 1994SOL    HW3 7743   2.482   5.899   3.461 -0.7589 -0.1914 -2.1079
 1994SOL    MW4 7744   2.508   5.816   3.468 -0.1649 -0.2799  0.9939
 1995SOL     OW 7745   3.101   2.438   5.896  0.2092  0.0355 -0.1307
 1995SOL    HW2 7746   3.021   2.457   5.946  1.0453  1.8675  0.6069
 1995SOL    HW3 7747   3.071   2.423   5.807 -1.0843 -0.7000  0.4121
 1995SOL    MW4 7748   3.086   2.439   5.891 -0.4557 -0.5516  0.1881
 1996SOL     OW 7749   1.329   5.772   3.896  0.0535 -0.0016 -0.6065
 1996SOL    HW2 7750   1.352   5.751   3.805  0.3019 -1.9725 -0.1423
 1996SOL    HW3 7751   1.239   5.741   3.905 -0.2356  0.8947 -0.3852
 1996SOL    MW4 7752   1.320   5.765   3.885 -0.2187 -0.6811 -0.4828
 1997SOL     OW 7753   4.745   6.124   2.277 -0.0485 -0.4755 -0.5156
 1997SOL    HW2 7754   4.659   6.130   2.317 -0.4101 -0.2624 -1.3067
 1997SOL    HW3 7755   4.805   6.116   2.351 -0.8461 -2.0186  0.0104
 1997SOL    MW4 7756   4.742   6.124   2.292 -0.5780  0.1796  0.5373
 1998SOL     OW 7757   5.247   2.075   4.890 -0.0029  0.0196  0.5423
 1998SOL    HW2 7758   5.185   2.134   4.847  0.7310  0.1427 -0.3838
 1998SOL    HW3 7759   5.263   2.005   4.827 -1.2045 -1.4586  1.8018
 1998SOL    MW4 7760   5.241   2.074   4.876 -0.4798 -0.2183  0.0263
 1999SOL     OW 7761   2.495   3.568   1.669 -0.8954  0.1512  0.1619
 1999SOL    HW2 7762   2.559   3.534   1.605  0.3893 -1.3503  2.1296
 1999SOL    HW3 7763   2.498   3.663   1.657  0.9314  0.0498 -0.5604
 1999SOL    MW4 7764   2.504   3.576   1.659 -0.0251 -0.8762 -0.1607
 2000SOL     OW 7765   5.001   4.188   4.685 -0.1659 -0.0303  0.1993
 2000SOL    HW2 7766   4.999   4.198   4.589 -1.1677  0.1585  0.2290
 2000SOL    HW3 7767   4.931   4.246   4.716  0.7424  0.6138  1.1197
 2000SOL    MW4 7768   4.991   4.197   4.676  0.1663 -0.2076  0.2009
 2001SOL     OW 7769   2.366   4.212   0.399  0.0594 -0.0022  0.1590
 2001SOL    HW2 7770   2.416   4.275   0.451 -0.0913 -0.2566  0.6242
 2001SOL    HW3 7771   2.279   4.252   0.392  0.0860  0.0424  0.0814
 2001SOL    MW4 7772   2.361   4.226   0.405 -0.4249  0.1284 -0.4501
 2002SOL     OW 7773   1.979   5.612   1.256 -0.2815  0.4676 -0.0139
 2002SOL    HW2 7774   1.988   5.552   1.330 -0.1684  1.1317  0.5213
 2002SOL    HW3 7775   2.033   5.688   1.279  0.1587  0.4734 -1.0039
 2002SOL    MW4 7776   1.987   5.614   1.268  0.3864 -0.1594 -0.0693
 2003SOL     OW 7777   1.550   1.308   0.295 -0.0591  0.4885  0.1024
 2003SOL    HW2 7778   1.609   1.352   0.234 -0.7493  0.4840 -0.5936
 2003SOL    HW3 7779   1.601   1.236   0.331  0.6651  1.0672  0.2660
 2003SOL    MW4 7780   1.565   1.305   0.292 -0.2663 -0.6226  0.3915
 2004SOL     OW 7781   3.914   2.735   1.744 -0.2270  0.1810 -0.1374
 2004SOL    HW2 7782   3.910   2.687   1.661 -0.0876  1.6454 -1.0208
 2004SOL    HW3 7783   3.997   2.708   1.783 -0.3608 -0.6274 -0.3825
 2004SOL    MW4 7784   3.924   2.725   1.738  0.4761  0.0115 -0.2781
 2005SOL     OW 7785   6.175   5.431   0.718  0.0214  0.0981 -0.3719
 2005SOL    HW2 7786   6.256   5.414   0.671  0.0578  0.3974 -0.4220
 2005SOL    HW3 7787   6.108   5.382   0.669 -0.0647  0.9894 -1.1753
 2005SOL    MW4 7788   6.177   5.422   0.705  0.3706 -0.2850 -0.5183
 2006SOL     OW 7789   1.045   1.226   0.947  0.0995  0.1354  0.4133
 2006SOL    HW2 7790   1.122   1.173   0.930 -0.2571 -0.1644 -0.3021
 2006SOL    HW3 7791   1.000   1.232   0.862  0.6123  2.3596  0.2335
 2006SOL    MW4 7792   1.049   1.220   0.933 -0.1097 -0.0727  0.4652
 2007SOL     OW 7793   1.908   2.802   5.617 -0.0526  0.0676 -0.1101
 2007SOL    HW2 7794   1.831   2.762   5.657 -0.0342  0.0919 -0.0498
 2007SOL    HW3 7795   1.971   2.809   5.688  0.8751 -2.1062 -0.6567
 2007SOL    MW4 7796   1.906   2.798   5.631 -0.3243 -0.2069  0.2334
 2008SOL     OW 7797   0.946   3.008   6.011  0.0438 -0.0071 -0.7478
 2008SOL    HW2 7798   1.024   3.012   6.067 -1.0418 -0.0277  0.8378
 2008SOL    HW3 7799   0.919   3.099   6.001 -0.8455 -0.1180  0.4029
 2008SOL    MW4 7800   0.953   3.020   6.017 -0.4971  0.1077 -0.0041
 2009SOL     OW 7801   5.091   6.103   3.694 -0.0774  0.6172  0.6372
 2009SOL    HW2 7802   5.109   6.189   3.656 -1.1609  0.7555  0.4093
 2009SOL    HW3 7803   5.167   6.050   3.670 -0.5946  0.7549 -1.5965
 2009SOL    MW4 7804   5.103   6.107   3.686  0.0743 -0.1724 -0.5297
 2010SOL     OW 7805   4.373   2.006   5.728 -0.1950 -0.2242 -0.9713
 2010SOL    HW2 7806   4.416   1.971   5.806 -0.6539 -0.8614 -0.9886
 2010SOL    HW3 7807   4.445   2.024   5.667  0.0710 -1.2595 -0.9973
 2010SOL    MW4 7808   4.388   2.004   5.730 -1.0227  0.0386 -0.0567
 2011SOL     OW 7809   2.025   0.220   3.064  0.6583  0.1350  0.3732
 2011SOL    HW2 7810   1.956   0.183   3.009  1.5026  0.5614 -1.0353
 2011SOL    HW3 7811   1.979   0.276   3.126 -0.2337  1.1214 -1.1142
 2011SOL    MW4 7812   2.010   0.222   3.065 -0.7810  0.0701 -0.0795
 2012SOL     OW 7813   5.380   4.724   5.326  0.3380 -0.7377 -0.0775
 2012SOL    HW2 7814   5.470   4.756   5.328  0.0998 -0.0552  0.5389
 2012SOL    HW3 7815   5.327   4.804   5.331 -0.3246 -1.0238 -1.9187
 2012SOL    MW4 7816   5.385   4.739   5.327  0.4948  0.1253  0.4630
 2013SOL     OW 7817   0.024   3.724   4.528 -0.5228 -1.0457 -0.5730
 2013SOL    HW2 7818   0.097   3.683   4.482 -0.1617 -0.4044 -0.5908
 2013SOL    HW3 7819   0.059   3.809   4.557 -1.7013 -0.0323 -1.9584
 2013SOL    MW4 7820   0.038   3.730   4.525  0.3021  0.8964  0.4569
 2014SOL     OW 7821   1.054   3.734   0.799 -0.6761  0.5183 -0.5856
 2014SOL    HW2 7822   1.113   3.789   0.850 -0.8155 -0.3562  0.5449
 2014SOL    HW3 7823   0.969   3.778   0.807 -1.5046 -1.3304  2.9082
 2014SOL    MW4 7824   1.050   3.747   0.807  0.0626  0.1787  0.7846
 2015SOL     OW 7825   0.231   5.025   0.357 -0.0507 -0.2729 -0.1607
 2015SOL    HW2 7826   0.244   5.056   0.446  0.2114  1.1064 -0.6402
 2015SOL    HW3 7827   0.155   5.074   0.326 -0.8463 -1.5744 -0.3421
 2015SOL    MW4 7828   0.223   5.036   0.364  0.2637  0.0176  0.2211
 2016SOL     OW 7829   3.043   3.411   0.719  0.2629  0.6984 -0.2633
 2016SOL    HW2 7830   2.981   3.360   0.667  0.8030 -1.3004  0.9591
 2016SOL    HW3 7831   3.043   3.369   0.805  0.9084  2.6661  0.7744
 2016SOL    MW4 7832   3.035   3.399   0.724 -0.3263 -0.5985 -0.3881
 2017SOL     OW 7833   1.268   2.233   2.245 -0.1992  0.1088  0.4751
 2017SOL    HW2 7834   1.279   2.186   2.327 -1.3784 -0.2952  0.4156
 2017SOL    HW3 7835   1.226   2.170   2.186 -0.0142  0.6157 -0.2121
 2017SOL    MW4 7836   1.264   2.219   2.248 -1.3347  0.1848 -0.7176
 2018SOL     OW 7837   4.750   6.040   1.096 -0.6151  0.3925  0.0675
 2018SOL    HW2 7838   4.690   5.985   1.146 -1.4351  0.4508 -0.8327
 2018SOL    HW3 7839   4.775   5.986   1.021 -1.8752  1.3974 -1.1376
 2018SOL    MW4 7840   4.746   6.026   1.093  0.2921  0.1355  0.1213
 2019SOL     OW 7841   2.733   4.379   5.666  0.6370 -0.1652 -0.4346
 2019SOL    HW2 7842   2.764   4.452   5.720 -0.1182 -1.0211  1.2077
 2019SOL    HW3 7843   2.712   4.310   5.728 -0.7544 -1.0223 -1.7925
 2019SOL    MW4 7844   2.735   4.379   5.681  0.3723  0.5708 -0.1624
 2020SOL     OW 7845   0.556   0.094   2.304 -0.8323 -0.4528 -0.1996
 2020SOL    HW2 7846   0.617   0.048   2.246 -0.7803  0.3634 -0.8057
 2020SOL    HW3 7847   0.611   0.130   2.373 -0.7761 -0.6209 -0.1544
 2020SOL    MW4 7848   0.571   0.092   2.305  0.1378 -1.0457 -0.8375
 2021SOL     OW 7849   2.657   4.494   2.362 -0.1143  0.1113 -0.1545
 2021SOL    HW2 7850   2.662   4.446   2.280  0.9512  0.8177 -0.5262
 2021SOL    HW3 7851   2.575   4.543   2.356 -0.2309 -0.1338 -0.6292
 2021SOL    MW4 7852   2.647   4.495   2.351  0.1967  0.1952  0.4114
 2022SOL     OW 7853   2.190   4.974   0.402 -1.3484  0.4165  0.6686
 2022SOL    HW2 7854   2.231   4.929   0.475 -0.1604 -0.9540 -0.7813
 2022SOL    HW3 7855   2.259   5.028   0.364 -1.4277 -0.2668 -0.5099
 2022SOL    MW4 7856   2.204   4.976   0.406 -0.5742  0.5853  0.4091
 2023SOL     OW 7857   1.283   2.874   5.975 -0.5731 -0.5365 -0.0006
 2023SOL    HW2 7858   1.259   2.796   6.025 -0.3750 -0.0366  0.8940
 2023SOL    HW3 7859   1.217   2.879   5.906 -0.9815 -1.1176  0.3367
 2023SOL    MW4 7860   1.271   2.864   5.973  0.4066  0.0588 -0.1810
 2024SOL     OW 7861   4.027   6.280   5.887 -0.0537 -0.0504 -0.1884
 2024SOL    HW2 7862   4.109   6.246   5.922 -0.7648 -1.4558  0.1548
 2024SOL    HW3 7863   3.992   6.210   5.832 -0.0980  1.2547 -1.9028
 2024SOL    MW4 7864   4.033   6.267   5.884  0.2291 -0.3141 -0.2230
 2025SOL     OW 7865   4.851   5.668   5.756 -0.0282  0.4284 -0.1133
 2025SOL    HW2 7866   4.867   5.715   5.838 -0.4678  0.1356  0.1480
 2025SOL    HW3 7867   4.759   5.644   5.760 -0.4196  1.5961 -1.3205
 2025SOL    MW4 7868   4.841   5.671   5.767  0.0847  0.0893  0.2696
 2026SOL     OW 7869   1.331   0.950   2.086  0.1192 -0.0620  0.3677
 2026SOL    HW2 7870   1.341   1.037   2.124 -0.2417  0.4479 -0.6723
 2026SOL    HW3 7871   1.303   0.966   1.996  0.1851 -1.2527  0.1183
 2026SOL    MW4 7872   1.329   0.963   2.079  0.2762  0.1199  0.2809
 2027SOL     OW 7873   1.746   6.303   3.127 -0.7377 -0.0226  0.2070
 2027SOL    HW2 7874   1.754   6.228   3.068 -1.1443  0.7258 -0.8284
 2027SOL    HW3 7875   1.707   6.267   3.207  0.3809 -1.1617  0.2527
 2027SOL    MW4 7876   1.742   6.288   3.130  0.1466  0.4959 -0.0032
 2028SOL     OW 7877   4.835   5.367   5.861 -0.0889 -0.6185 -0.7992
 2028SOL    HW2 7878   4.863   5.284   5.824 -1.0652 -1.3262 -0.0068
 2028SOL    HW3 7879   4.784   5.408   5.791  0.7477 -0.4698 -1.3409
 2028SOL    MW4 7880   4.832   5.362   5.847 -0.4124 -0.2546  0.0732
 2029SOL     OW 7881   2.564   3.064   1.717 -0.1107  0.2242  0.1458
 2029SOL    HW2 7882   2.632   3.019   1.666  0.5369 -0.7798  1.8206
 2029SOL    HW3 7883   2.482   3.024   1.687  0.2352 -0.1873 -0.2720
 2029SOL    MW4 7884   2.562   3.053   1.706  0.4265 -0.7172  0.0135
 2030SOL     OW 7885   0.191   2.154   0.606  0.1022 -0.7453 -0.4877
 2030SOL    HW2 7886   0.187   2.151   0.701 -0.5238 -0.2423 -0.4984
 2030SOL    HW3 7887   0.102   2.135   0.577  0.0165  0.3157 -0.9464
 2030SOL    MW4 7888   0.179   2.151   0.614  0.0183  0.1127  0.0779
 2031SOL     OW 7889   0.293   6.285   0.989 -0.1664  0.4502 -0.3935
 2031SOL    HW2 7890   0.223   6.329   0.940 -0.1121  0.0879 -0.8089
 2031SOL    HW3 7891   0.264   6.287   1.080 -0.7975  0.1698 -0.5807
 2031SOL    MW4 7892   0.280   6.291   0.994 -0.0737 -0.2960  0.1691
 2032SOL     OW 7893   1.262   4.789   2.300  0.3286  0.0644  0.2522
 2032SOL    HW2 7894   1.329   4.722   2.287 -0.0393 -0.2561 -0.0274
 2032SOL    HW3 7895   1.277   4.822   2.389 -1.1481 -2.2846  1.4635
 2032SOL    MW4 7896   1.272   4.785   2.310 -0.1370  0.0857  0.3920
 2033SOL     OW 7897   5.564   0.192   1.335 -0.2143 -0.1308  0.4414
 2033SOL    HW2 7898   5.475   0.158   1.344 -1.4954  2.8304  0.0054
 2033SOL    HW3 7899   5.596   0.200   1.425  0.1788 -2.3786  0.5624
 2033SOL    MW4 7900   5.556   0.188   1.348  0.2950 -0.0747  0.2354
 2034SOL     OW 7901   4.577   1.836   3.847 -0.3579  0.0952 -0.4649
 2034SOL    HW2 7902   4.668   1.864   3.850 -0.6962  1.2134 -0.3277
 2034SOL    HW3 7903   4.535   1.882   3.919 -0.8012 -1.3051  0.2130
 2034SOL    MW4 7904   4.583   1.845   3.857  0.1667 -0.1542  0.3710
 2035SOL     OW 7905   4.169   1.785   0.818  0.3415  0.6220 -0.0753
 2035SOL    HW2 7906   4.133   1.700   0.845  0.3982  0.3269 -0.9092
 2035SOL    HW3 7907   4.218   1.766   0.739  2.4504  1.0061  1.0750
 2035SOL    MW4 7908   4.171   1.771   0.811  0.4861 -0.6644 -0.0081
 2036SOL     OW 7909   1.676   0.884   5.296  0.1118 -0.8224 -0.2281
 2036SOL    HW2 7910   1.734   0.948   5.338 -1.9165  1.5475 -0.7781
 2036SOL    HW3 7911   1.667   0.814   5.361  0.9985  0.3360  1.2096
 2036SOL    MW4 7912   1.682   0.883   5.310  0.6117  0.4943  0.2353
 2037SOL     OW 7913   1.512   4.863   4.259  0.0998  0.2543  0.0862
 2037SOL    HW2 7914   1.450   4.839   4.327 -0.0983  2.5093  0.7707
 2037SOL    HW3 7915   1.557   4.781   4.238 -4.0008 -1.8722 -1.5176
 2037SOL    MW4 7916   1.510   4.849   4.265  0.4940 -0.0228 -0.2686
 2038SOL     OW 7917   4.884   5.413   5.035  0.1108  0.6422 -0.2551
 2038SOL    HW2 7918   4.798   5.393   4.997  0.4541  0.0791 -0.7558
 2038SOL    HW3 7919   4.947   5.377   4.972  0.7044  0.4898  0.4135
 2038SOL    MW4 7920   4.881   5.406   5.022  0.4256 -0.0846  0.3023
 2039SOL     OW 7921   0.711   5.228   2.240 -0.6944 -0.0112 -0.6222
 2039SOL    HW2 7922   0.776   5.281   2.193  0.7378 -0.3390  0.9051
 2039SOL    HW3 7923   0.703   5.271   2.325 -0.0833 -1.7659  0.3577
 2039SOL    MW4 7924   0.719   5.241   2.245  0.4093 -0.3025  0.5407
 2040SOL     OW 7925   6.373   3.548   5.054 -0.5529  0.1304 -0.6997
 2040SOL    HW2 7926   6.438   3.574   5.119 -1.3754  1.9794 -0.5484
 2040SOL    HW3 7927   6.297   3.520   5.105 -0.7629  0.4037 -0.8574
 2040SOL    MW4 7928   6.371   3.548   5.069  0.2293 -0.0097  0.0157
 2041SOL     OW 7929   5.019   3.394   4.994  0.0336 -0.1278 -0.7724
 2041SOL    HW2 7930   5.090   3.450   4.962 -0.0552 -0.6098 -1.8551
 2041SOL    HW3 7931   4.939   3.443   4.972 -0.0021 -0.0258 -0.4199
 2041SOL    MW4 7932   5.018   3.408   4.987 -0.4336  1.1801 -0.2252
 2042SOL     OW 7933   4.961   4.919   4.821  0.2855  0.9162  0.0041
 2042SOL    HW2 7934   4.943   4.828   4.796 -0.0355  1.0355 -0.1988
 2042SOL    HW3 7935   4.897   4.970   4.772  0.5944  1.2702 -0.0281
 2042SOL    MW4 7936   4.950   4.913   4.811  0.1768 -0.6917  0.4140
 2043SOL     OW 7937   6.121   1.812   4.319  0.3936 -0.0858  0.1642
 2043SOL    HW2 7938   6.112   1.889   4.263 -0.2886 -0.9529 -0.9492
 2043SOL    HW3 7939   6.068   1.832   4.396  0.6591  0.7780  0.1292
 2043SOL    MW4 7940   6.113   1.825   4.322 -0.1931 -0.2164  0.5464
 2044SOL     OW 7941   0.983   0.438   2.394 -0.0127 -0.1225 -0.2349
 2044SOL    HW2 7942   0.892   0.452   2.368 -0.2504 -1.5612 -0.2441
 2044SOL    HW3 7943   0.978   0.401   2.482  0.6281  0.7177  0.1828
 2044SOL    MW4 7944   0.971   0.435   2.403 -0.3061  0.0428 -0.2731
 2045SOL     OW 7945   0.632   5.116   2.591 -0.4976  0.0781  0.0041
 2045SOL    HW2 7946   0.706   5.069   2.628  0.5457  0.4288 -1.5280
 2045SOL    HW3 7947   0.637   5.203   2.631  0.6797  0.4896 -0.9762
 2045SOL    MW4 7948   0.642   5.122   2.601 -0.3839  0.4741  0.0684
 2046SOL     OW 7949   5.266   5.160   5.691 -0.0282  0.2642  0.3090
 2046SOL    HW2 7950   5.219   5.193   5.768  0.7101 -2.8289  2.2564
 2046SOL    HW3 7951   5.203   5.166   5.620 -2.0457 -0.1708  1.9701
 2046SOL    MW4 7952   5.252   5.165   5.692 -0.0065  0.0341  0.6491
 2047SOL     OW 7953   5.790   0.671   4.741  0.1324 -0.1804 -0.1501
 2047SOL    HW2 7954   5.840   0.657   4.822  0.0305  0.9950  0.1295
 2047SOL    HW3 7955   5.718   0.729   4.766 -0.2699 -0.3200 -0.9513
 2047SOL    MW4 7956   5.787   0.677   4.755  0.0854  0.2237  0.4578
 2048SOL     OW 7957   2.926   6.297   4.741 -0.1324 -0.0736  0.6198
 2048SOL    HW2 7958   2.895   6.334   4.658  2.4773  0.1524 -0.3552
 2048SOL    HW3 7959   2.959   6.211   4.718 -0.3597 -0.4461  1.6566
 2048SOL    MW4 7960   2.926   6.291   4.727 -0.1840 -0.0562  0.3260
 2049SOL     OW 7961   1.672   2.844   0.149 -0.2994 -0.2500  0.3880
 2049SOL    HW2 7962   1.760   2.815   0.126  0.2688  0.9144  0.9670
 2049SOL    HW3 7963   1.670   2.842   0.245  0.0198  2.1281  0.5160
 2049SOL    MW4 7964   1.683   2.840   0.159 -0.2209 -0.6935  0.2290
 2050SOL     OW 7965   4.538   0.185   5.844  0.0498 -0.2734  0.0390
 2050SOL    HW2 7966   4.534   0.201   5.939  3.0751 -1.0060  0.3950
 2050SOL    HW3 7967   4.520   0.091   5.836  2.1283 -0.7394  0.2300
 2050SOL    MW4 7968   4.535   0.174   5.856  0.2960 -0.5678 -0.3810
 2051SOL     OW 7969   1.731   0.795   0.544 -0.5992 -0.2616  0.7554
 2051SOL    HW2 7970   1.736   0.752   0.629  0.0370 -0.8169  0.4424
 2051SOL    HW3 7971   1.790   0.745   0.488  0.9215  1.5525  0.6186
 2051SOL    MW4 7972   1.740   0.783   0.548  0.5412  0.6155  0.2040
 2052SOL     OW 7973   0.961   4.272   4.235 -0.4206 -0.0443 -0.0870
 2052SOL    HW2 7974   0.977   4.357   4.194  0.5047 -0.5323 -0.7913
 2052SOL    HW3 7975   0.883   4.238   4.191 -0.8535  0.4791  0.2704
 2052SOL    MW4 7976   0.953   4.279   4.223 -0.0167  0.2038 -0.1105
 2053SOL     OW 7977   5.113   2.500   0.376 -0.0730 -0.1453  0.1784
 2053SOL    HW2 7978   5.173   2.427   0.360  1.8679  1.1397  1.1538
 2053SOL    HW3 7979   5.028   2.468   0.346  1.3158 -1.5524 -2.6739
 2053SOL    MW4 7980   5.110   2.486   0.370  0.2203  0.2291  0.5099
 2054SOL     OW 7981   2.331   1.157   0.968  0.3493 -0.7652  0.3824
 2054SOL    HW2 7982   2.304   1.213   1.040  2.3129  0.6836  0.0993
 2054SOL    HW3 7983   2.341   1.217   0.893  0.3359 -1.8706 -0.5362
 2054SOL    MW4 7984   2.329   1.173   0.968  0.0416 -0.0973 -0.2823
 2055SOL     OW 7985   5.356   6.326   1.492  0.1488 -0.3412 -0.1738
 2055SOL    HW2 7986   5.410   6.380   1.550 -1.8471  0.4651  1.0258
 2055SOL    HW3 7987   5.307   6.388   1.439  0.2548 -1.0534 -1.1435
 2055SOL    MW4 7988   5.357   6.341   1.492  0.4546 -0.7921 -0.0755
 2056SOL     OW 7989   1.884   0.285   1.029 -0.0571 -0.0677  0.2638
 2056SOL    HW2 7990   1.923   0.317   1.111 -1.1123 -0.4393  0.9458
 2056SOL    HW3 7991   1.928   0.203   1.011  0.9709  0.5636 -0.1676
 2056SOL    MW4 7992   1.895   0.278   1.038  0.5036  0.6689 -0.5878
 2057SOL     OW 7993   4.518   3.819   1.935  0.4551  0.1244 -0.0528
 2057SOL    HW2 7994   4.457   3.771   1.879  0.2452  1.1484 -0.7425
 2057SOL    HW3 7995   4.595   3.834   1.879  1.5129 -1.4182  0.8994
 2057SOL    MW4 7996   4.520   3.815   1.920 -0.0972 -0.1759  0.2305
 2058SOL     OW 7997   4.496   4.888   3.132  0.8075 -0.1479 -0.0512
 2058SOL    HW2 7998   4.427   4.826   3.155  1.2452 -0.3376  0.7814
 2058SOL    HW3 7999   4.569   4.832   3.103  1.5378 -0.0891  1.5951
 2058SOL    MW4 8000   4.497   4.872   3.131  0.5115  0.0687  0.2537
 2059SOL     OW 8001   0.190   6.141   2.192  0.2598  0.2887 -0.4746
 2059SOL    HW2 8002   0.151   6.141   2.279 -1.1511  0.5174 -1.0758
 2059SOL    HW3 8003   0.229   6.054   2.183  2.3322  0.9701  1.1558
 2059SOL    MW4 8004   0.190   6.130   2.202  0.2019  0.2510 -0.5235
 2060SOL     OW 8005   2.572   6.054   5.417  0.0113  0.3074  0.1385
 2060SOL    HW2 8006   2.522   6.033   5.496 -0.4877 -0.2704 -0.3168
 2060SOL    HW3 8007   2.650   5.999   5.423  0.3754  0.8672  0.6227
 2060SOL    MW4 8008   2.575   6.044   5.428  0.2441 -0.0449 -0.0109
 2061SOL     OW 8009   0.838   0.996   1.759 -0.3188 -0.0974  0.7547
 2061SOL    HW2 8010   0.846   1.087   1.732  1.1441 -0.4117  0.0425
 2061SOL    HW3 8011   0.747   0.987   1.787 -0.5571  1.4994  0.5658
 2061SOL    MW4 8012   0.827   1.007   1.759 -0.1965 -0.2175  0.3328
 2062SOL     OW 8013   5.932   3.869   2.673 -0.2230 -0.8039  0.7293
 2062SOL    HW2 8014   5.998   3.821   2.622  1.2281  2.0109 -0.2098
 2062SOL    HW3 8015   5.937   3.829   2.760  1.8713 -1.4917  0.3695
 2062SOL    MW4 8016   5.942   3.857   2.677  0.3399 -0.3057 -0.7414
 2063SOL     OW 8017   5.475   2.653   1.487  0.3972 -0.1054  0.0181
 2063SOL    HW2 8018   5.462   2.741   1.452 -0.6506 -0.3789 -0.3107
 2063SOL    HW3 8019   5.493   2.598   1.411 -1.6073 -0.6471 -0.1281
 2063SOL    MW4 8020   5.476   2.657   1.473 -0.4866 -0.5092 -0.1911
 2064SOL     OW 8021   4.119   3.289   4.473  0.3738  0.2543 -0.2915
 2064SOL    HW2 8022   4.058   3.312   4.544  1.0991  2.0491 -0.1870
 2064SOL    HW3 8023   4.149   3.374   4.440  1.4647 -0.5816 -1.5216
 2064SOL    MW4 8024   4.115   3.303   4.478 -0.9453  0.0363  0.1481
 2065SOL     OW 8025   2.496   3.651   2.991  0.1278 -0.7686  0.6548
 2065SOL    HW2 8026   2.582   3.633   2.952 -0.3141 -0.6570 -0.4108
 2065SOL    HW3 8027   2.443   3.574   2.967 -0.9771  0.5515 -1.5167
 2065SOL    MW4 8028   2.500   3.638   2.982 -0.2707 -0.5515 -0.0304
 2066SOL     OW 8029   5.125   5.117   3.135  0.0132  0.1002 -0.1062
 2066SOL    HW2 8030   5.218   5.120   3.157  0.0962  0.4804 -0.4903
 2066SOL    HW3 8031   5.124   5.124   3.039 -0.4195  0.3625 -0.0834
 2066SOL    MW4 8032   5.137   5.118   3.125 -0.2604  0.4227 -0.2696
 2067SOL     OW 8033   1.136   3.032   6.209  0.2123  0.3998  0.8052
 2067SOL    HW2 8034   1.228   3.011   6.222  0.2684 -0.1108 -0.3071
 2067SOL    HW3 8035   1.134   3.128   6.204  0.5904  0.4449  1.3856
 2067SOL    MW4 8036   1.148   3.042   6.210 -0.3652 -0.0065  0.3513
 2068SOL     OW 8037   5.050   1.239   4.485  0.0182 -0.5185 -0.3329
 2068SOL    HW2 8038   5.101   1.271   4.559  1.5668 -1.0006 -1.1422
 2068SOL    HW3 8039   4.988   1.177   4.524  0.0320  0.0844  0.6876
 2068SOL    MW4 8040   5.049   1.235   4.500  0.1122  0.5380 -0.4395
 2069SOL     OW 8041   3.755   6.173   2.588  0.3983  0.0697 -0.3238
 2069SOL    HW2 8042   3.704   6.114   2.643 -0.8601 -0.1952 -1.7285
 2069SOL    HW3 8043   3.831   6.197   2.642 -0.2090 -1.0692  1.0769
 2069SOL    MW4 8044   3.759   6.168   2.602 -0.2529 -0.0725  1.0056
 2070SOL     OW 8045   4.032   3.467   1.548 -0.1809 -0.7576 -0.0251
 2070SOL    HW2 8046   3.969   3.466   1.476  2.9811  0.1944 -3.0924
 2070SOL    HW3 8047   4.066   3.556   1.550  1.4734 -1.3577  1.0619
 2070SOL    MW4 8048   4.028   3.478   1.539 -0.1094 -0.0129  0.2224
 2071SOL     OW 8049   3.183   0.045   2.927  0.5587  0.4397  0.5294
 2071SOL    HW2 8050   3.188   0.101   2.850 -2.1324 -0.1148 -0.1499
 2071SOL    HW3 8051   3.089   0.035   2.944  0.9992  1.5072  4.6617
 2071SOL    MW4 8052   3.171   0.051   2.919 -0.3648 -0.0392 -0.1442
 2072SOL     OW 8053   1.837   5.939   2.150 -0.4614 -0.3045 -0.0059
 2072SOL    HW2 8054   1.870   6.026   2.172  0.8330 -0.5562 -0.8127
 2072SOL    HW3 8055   1.822   5.897   2.235 -1.9422  0.9663  0.4138
 2072SOL    MW4 8056   1.839   5.945   2.164 -0.3337  0.3075  0.7344
 2073SOL     OW 8057   4.474   4.396   4.076 -0.2368 -0.2523 -0.0200
 2073SOL    HW2 8058   4.432   4.440   4.150 -1.1882 -1.5358  0.2306
 2073SOL    HW3 8059   4.407   4.337   4.042  0.6837 -0.7779 -0.9666
 2073SOL    MW4 8060   4.460   4.394   4.081 -0.2532  0.0536 -0.2717
 2074SOL     OW 8061   4.083   1.871   5.549  0.1961 -0.1924  0.6479
 2074SOL    HW2 8062   4.100   1.964   5.564 -2.2366  0.7048 -1.3547
 2074SOL    HW3 8063   4.141   1.847   5.477 -0.3096  0.2550  0.0813
 2074SOL    MW4 8064   4.093   1.880   5.541 -0.3637 -0.2894 -0.3485
 2075SOL     OW 8065   0.745   4.972   6.314  0.0236  0.1886 -0.4589
 2075SOL    HW2 8066   0.782   5.057   6.339 -1.2841  1.0927 -1.4465
 2075SOL    HW3 8067   0.729   4.979   6.220 -1.9894 -0.3674 -0.2088
 2075SOL    MW4 8068   0.748   4.984   6.305 -0.0472 -0.4577 -0.3832
 2076SOL     OW 8069   2.076   1.689   1.130 -0.2541 -0.1125  0.5078
 2076SOL    HW2 8070   2.170   1.683   1.114 -0.5144 -2.5318 -0.5098
 2076SOL    HW3 8071   2.036   1.668   1.045 -1.7964  3.5062  0.1475
 2076SOL    MW4 8072   2.083   1.686   1.117  0.1031  0.6413  0.3374
 2077SOL     OW 8073   3.914   6.176   1.614  0.2509 -0.0909  0.3532
 2077SOL    HW2 8074   3.971   6.133   1.551 -0.9862 -1.3015  0.0196
 2077SOL    HW3 8075   3.846   6.217   1.560 -0.7299 -1.0047  0.8509
 2077SOL    MW4 8076   3.912   6.176   1.599  0.5075  0.0750 -0.3598
 2078SOL     OW 8077   4.457   5.018   2.718  0.2340 -0.3742 -0.2773
 2078SOL    HW2 8078   4.373   4.993   2.680  0.2918 -0.6210 -0.2445
 2078SOL    HW3 8079   4.439   5.032   2.811  0.4329 -1.4303 -0.0733
 2078SOL    MW4 8080   4.444   5.017   2.726  0.5152  0.0829  0.0327
 2079SOL     OW 8081   4.568   4.446   1.766 -0.1538  0.1939 -0.4171
 2079SOL    HW2 8082   4.533   4.362   1.739 -1.0305  0.3815  0.0868
 2079SOL    HW3 8083   4.565   4.500   1.687  2.0796 -0.7244 -1.2247
 2079SOL    MW4 8084   4.563   4.442   1.752  0.0042 -0.0666  0.3054
 2080SOL     OW 8085   3.252   5.641   0.625 -0.3343 -0.2608 -0.1789
 2080SOL    HW2 8086   3.347   5.644   0.633 -0.1564  1.0646 -2.2128
 2080SOL    HW3 8087   3.234   5.560   0.578 -0.2043 -0.4284  0.0594
 2080SOL    MW4 8088   3.262   5.631   0.620 -0.3184 -0.0381  0.2087
 2081SOL     OW 8089   5.518   0.830   0.254  0.3778 -0.7520 -0.0978
 2081SOL    HW2 8090   5.471   0.800   0.176 -1.8590 -0.2298  0.9710
 2081SOL    HW3 8091   5.549   0.917   0.230 -1.4412 -0.0401 -0.0305
 2081SOL    MW4 8092   5.516   0.838   0.241 -0.0234 -0.3960 -0.0161
 2082SOL     OW 8093   1.837   1.700   2.238  0.2823  0.4130 -0.2851
 2082SOL    HW2 8094   1.791   1.641   2.178  1.7435 -1.0673 -0.0263
 2082SOL    HW3 8095   1.825   1.787   2.200 -0.9079 -0.1830 -1.3546
 2082SOL    MW4 8096   1.829   1.704   2.225  1.4778 -0.4565  0.3431
 2083SOL     OW 8097   3.399   3.073   3.879 -0.1752  0.1150 -0.2930
 2083SOL    HW2 8098   3.351   3.134   3.823 -0.6015 -0.4885 -0.6020
 2083SOL    HW3 8099   3.483   3.116   3.896 -1.5051  2.1144  1.8643
 2083SOL    MW4 8100   3.404   3.087   3.874  0.0659  0.4295 -0.1754
 2084SOL     OW 8101   2.048   4.531   1.354 -0.3764  0.0149  0.3695
 2084SOL    HW2 8102   2.051   4.588   1.430  0.7739  0.6095 -0.0914
 2084SOL    HW3 8103   1.955   4.523   1.333 -0.6532  0.4193  1.3984
 2084SOL    MW4 8104   2.036   4.538   1.361  0.1683  0.0198  0.3606
 2085SOL     OW 8105   2.763   0.740   6.419 -0.4527  0.8142  0.9102
 2085SOL    HW2 8106   2.681   0.773   6.457  0.1946  1.4120  1.8254
 2085SOL    HW3 8107   2.832   0.790   6.463  0.5275 -1.1376  1.7008
 2085SOL    MW4 8108   2.761   0.751   6.430  0.6135  0.3820  0.2702
 2086SOL     OW 8109   2.274   2.895   0.048 -0.5079  0.0996 -0.4676
 2086SOL    HW2 8110   2.302   2.975   0.093 -0.9737  0.2198 -0.3876
 2086SOL    HW3 8111   2.180   2.907   0.034 -0.3979 -0.0152 -1.3208
 2086SOL    MW4 8112   2.266   2.907   0.052 -0.4516 -0.3037 -0.0822
 2087SOL     OW 8113   1.415   0.859   0.279  0.4046  0.2559  0.4467
 2087SOL    HW2 8114   1.484   0.909   0.324 -0.2270 -0.0449  1.8012
 2087SOL    HW3 8115   1.459   0.821   0.203  1.5699  0.6276  0.9106
 2087SOL    MW4 8116   1.430   0.861   0.275  0.3724 -0.4888  0.8365
 2088SOL     OW 8117   5.424   4.027   2.332  0.8117 -0.1699  0.2070
 2088SOL    HW2 8118   5.450   4.093   2.268 -0.1443 -0.2435 -0.2593
 2088SOL    HW3 8119   5.377   4.076   2.399 -1.0186 -0.5233 -0.7702
 2088SOL    MW4 8120   5.421   4.042   2.333  0.3837 -0.4431 -0.2732
 2089SOL     OW 8121   2.247   5.000   6.046 -0.1566  0.9981 -0.3697
 2089SOL    HW2 8122   2.271   5.052   6.122 -0.1287  0.6368 -0.1297
 2089SOL    HW3 8123   2.312   4.929   6.043 -1.1993 -0.0233  0.3157
 2089SOL    MW4 8124   2.259   4.997   6.055  0.4613 -0.2260 -0.3013
 2090SOL     OW 8125   5.410   3.591   1.323  0.0946  0.0864 -0.2692
 2090SOL    HW2 8126   5.344   3.533   1.287 -0.3058 -1.9701  3.2894
 2090SOL    HW3 8127   5.363   3.644   1.388  1.4088  0.6570  0.2662
 2090SOL    MW4 8128   5.395   3.590   1.327 -0.0900  0.6094  0.4993
 2091SOL     OW 8129   6.152   2.025   3.558 -0.6107  0.1971  0.1957
 2091SOL    HW2 8130   6.153   2.109   3.604 -3.3036  1.2537 -1.4228
 2091SOL    HW3 8131   6.166   2.048   3.466 -2.6211 -0.9368 -0.4416
 2091SOL    MW4 8132   6.154   2.039   3.552  0.8818 -0.1832  0.5481
 2092SOL     OW 8133   1.897   5.909   2.530 -0.1789  0.1036 -0.2450
 2092SOL    HW2 8134   1.938   5.834   2.487  0.3750  0.7983 -0.9650
 2092SOL    HW3 8135   1.874   5.877   2.617  0.0872 -0.8845 -0.5229
 2092SOL    MW4 8136   1.900   5.895   2.536 -0.2827 -0.0385 -0.4787
 2093SOL     OW 8137   6.410   2.905   3.778  0.1088  0.8090  0.3596
 2093SOL    HW2 8138   6.483   2.934   3.832 -0.6951  3.2283  0.2536
 2093SOL    HW3 8139   6.425   2.946   3.693 -0.0680 -0.7423 -0.4540
 2093SOL    MW4 8140   6.422   2.914   3.774 -0.4040 -0.2163 -0.0538
 2094SOL     OW 8141   1.967   0.938   3.329  0.2429  0.5934 -0.3276
 2094SOL    HW2 8142   1.977   0.874   3.258  1.7108  1.0320 -0.5617
 2094SOL    HW3 8143   1.940   0.886   3.405  0.3086 -0.1332 -0.7888
 2094SOL    MW4 8144   1.965   0.923   3.329  0.0589  0.5088  0.0323
 2095SOL     OW 8145   3.459   3.589   3.133  0.2228 -0.3788 -0.2100
 2095SOL    HW2 8146   3.548   3.593   3.099  0.2539 -0.5004 -0.1421
 2095SOL    HW3 8147   3.438   3.496   3.135  0.8550 -0.5257  1.7650
 2095SOL    MW4 8148   3.468   3.577   3.129 -0.3284 -0.0669  0.1918
 2096SOL     OW 8149   3.132   0.243   4.236 -0.5196 -0.5348 -0.2687
 2096SOL    HW2 8150   3.054   0.288   4.203  0.2559  1.0951  0.0282
 2096SOL    HW3 8151   3.181   0.311   4.282  0.1689 -1.9511  1.1798
 2096SOL    MW4 8152   3.128   0.258   4.237  0.8464 -0.4228  0.5692
 2097SOL     OW 8153   1.176   3.431   1.491  0.4371 -0.0652  0.4710
 2097SOL    HW2 8154   1.222   3.461   1.413 -0.0497 -0.7214 -0.0879
 2097SOL    HW3 8155   1.192   3.499   1.557 -0.5321  1.3386 -0.6956
 2097SOL    MW4 8156   1.184   3.444   1.489  0.3173 -0.1242  0.2171
 2098SOL     OW 8157   5.712   2.929   3.987  0.6198  0.3755  0.1652
 2098SOL    HW2 8158   5.620   2.937   3.962  0.0859  0.4109  2.0501
 2098SOL    HW3 8159   5.716   2.960   4.077  2.4502  0.1365  0.2128
 2098SOL    MW4 8160   5.701   2.934   3.995  0.2382 -0.8339  0.1142
 2099SOL     OW 8161   4.701   3.615   2.703 -0.1858 -0.6999 -0.2014
 2099SOL    HW2 8162   4.654   3.589   2.783  0.5291 -0.6245  0.2431
 2099SOL    HW3 8163   4.674   3.550   2.639  0.1643 -1.4846  0.4242
 2099SOL    MW4 8164   4.691   3.603   2.705  0.3012  0.1894 -0.7140
 2100SOL     OW 8165   2.551   1.303   2.716  0.0434  0.0840 -1.0062
 2100SOL    HW2 8166   2.632   1.297   2.666  0.5642 -1.8657 -0.0356
 2100SOL    HW3 8167   2.484   1.265   2.658  0.2354 -0.2124 -1.0370
 2100SOL    MW4 8168   2.553   1.297   2.702  0.0499 -0.2600 -0.1334
 2101SOL     OW 8169   0.636   5.592   3.127  0.0418  0.0179  0.6301
 2101SOL    HW2 8170   0.596   5.608   3.042  1.1302 -1.3325 -0.1765
 2101SOL    HW3 8171   0.660   5.679   3.159 -0.4168  0.5431 -0.4189
 2101SOL    MW4 8172   0.634   5.606   3.120  0.4998 -0.0646  0.1844
 2102SOL     OW 8173   1.732   4.540   2.458 -0.0144 -0.4238 -0.7044
 2102SOL    HW2 8174   1.729   4.465   2.518  0.0186 -0.4669 -0.7564
 2102SOL    HW3 8175   1.640   4.563   2.443 -0.0649 -1.0677 -1.4532
 2102SOL    MW4 8176   1.719   4.533   2.464  0.2323 -0.7616 -0.6395
 2103SOL     OW 8177   4.795   6.230   3.322 -0.4622  0.0155  0.0591
 2103SOL    HW2 8178   4.820   6.195   3.236 -1.8117 -1.2441  0.1198
 2103SOL    HW3 8179   4.820   6.161   3.384 -1.7840 -0.2168  0.3655
 2103SOL    MW4 8180   4.801   6.216   3.319  0.3949  0.3658  0.2026
 2104SOL     OW 8181   0.399   6.066   4.023  0.2388  0.6752 -0.2763
 2104SOL    HW2 8182   0.422   6.028   3.938 -0.3692 -0.6869  0.1415
 2104SOL    HW3 8183   0.482   6.098   4.058  1.0658 -1.5516 -0.0505
 2104SOL    MW4 8184   0.413   6.065   4.016 -0.5843  0.1794  0.7050
 2105SOL     OW 8185   4.823   0.029   3.515  0.0064  0.2026  0.3378
 2105SOL    HW2 8186   4.814  -0.045   3.456  2.4776 -0.3164  0.5228
 2105SOL    HW3 8187   4.741   0.078   3.505 -0.7808 -1.3716 -1.3876
 2105SOL    MW4 8188   4.811   0.026   3.506  0.0809  0.0585 -0.1807
 2106SOL     OW 8189   0.834   3.085   2.976  0.2546  0.1846  0.1690
 2106SOL    HW2 8190   0.794   3.037   3.049 -0.2208  0.1374 -0.1174
 2106SOL    HW3 8191   0.906   3.134   3.016  0.3763 -0.3108  0.5650
 2106SOL    MW4 8192   0.838   3.085   2.991  0.0731  0.2920  0.9082
 2107SOL     OW 8193   1.789   3.096   4.602  0.1782  0.3156 -0.6434
 2107SOL    HW2 8194   1.884   3.087   4.606  0.3143  1.8046  2.6650
 2107SOL    HW3 8195   1.756   3.035   4.668 -1.0343  0.8639 -0.7152
 2107SOL    MW4 8196   1.797   3.087   4.611  0.1064  0.0407  0.0569
 2108SOL     OW 8197   3.418   2.476   1.457  0.5483 -0.3072 -0.4738
 2108SOL    HW2 8198   3.413   2.546   1.523  3.4037  0.6355 -1.0787
 2108SOL    HW3 8199   3.361   2.505   1.387  2.6909  2.3186 -1.3420
 2108SOL    MW4 8200   3.410   2.489   1.457  0.1752  0.1941  0.4910
 2109SOL     OW 8201   4.807   0.399   1.421  0.5365 -0.1766 -0.1118
 2109SOL    HW2 8202   4.769   0.366   1.339 -0.6554 -0.5195  0.5631
 2109SOL    HW3 8203   4.803   0.494   1.412 -0.0826 -0.2116 -0.2302
 2109SOL    MW4 8204   4.801   0.407   1.409  0.1596  0.1066 -0.1106
 2110SOL     OW 8205   3.638   3.035   4.348  0.2605  0.1025  0.3295
 2110SOL    HW2 8206   3.639   2.947   4.386  0.0420 -0.4893 -0.9673
 2110SOL    HW3 8207   3.670   3.022   4.258 -1.1552  1.1112 -0.3529
 2110SOL    MW4 8208   3.643   3.021   4.341  0.1119  0.1113 -0.2377
 2111SOL     OW 8209   5.655   5.489   2.868  0.1412  0.3534 -0.0038
 2111SOL    HW2 8210   5.714   5.438   2.924 -0.7532 -0.2909  0.3753
 2111SOL    HW3 8211   5.708   5.513   2.792  0.7106 -0.7419  0.0331
 2111SOL    MW4 8212   5.670   5.486   2.866  0.2320 -0.6816 -0.0461
 2112SOL     OW 8213   3.243   1.417   3.353  0.6011  0.0338 -0.7991
 2112SOL    HW2 8214   3.280   1.375   3.431  1.1727  1.9165  0.0175
 2112SOL    HW3 8215   3.299   1.388   3.281  1.8167  0.4046 -0.0522
 2112SOL    MW4 8216   3.256   1.408   3.354  0.3726  0.0132 -0.1403
 2113SOL     OW 8217   0.341   0.395   2.772 -0.0148  0.5538 -0.8713
 2113SOL    HW2 8218   0.407   0.338   2.732 -1.4120 -0.0128 -2.5029
 2113SOL    HW3 8219   0.267   0.337   2.790 -0.3730  1.3178  0.1779
 2113SOL    MW4 8220   0.340   0.380   2.769  0.2997 -0.2735  0.4188
 2114SOL     OW 8221   3.044   4.618   2.994 -0.0636  0.0792  0.6871
 2114SOL    HW2 8222   3.036   4.703   3.038 -0.7599 -0.2586  1.2255
 2114SOL    HW3 8223   3.111   4.572   3.044  0.4660  0.3804  0.2677
 2114SOL    MW4 8224   3.052   4.623   3.007 -0.0509 -0.2011 -0.0121
 2115SOL     OW 8225   4.085   4.452   5.255 -0.0168  0.2562 -0.6020
 2115SOL    HW2 8226   4.095   4.437   5.161 -1.0105  0.0627 -0.6868
 2115SOL    HW3 8227   4.045   4.538   5.262 -1.5512 -0.4299 -0.4513
 2115SOL    MW4 8228   4.081   4.461   5.244 -0.1250 -0.2495 -0.0398
 2116SOL     OW 8229   1.546   2.974   3.751 -1.0108  0.0345 -0.3099
 2116SOL    HW2 8230   1.573   2.886   3.775 -3.1264 -1.2550 -2.1668
 2116SOL    HW3 8231   1.541   3.022   3.834  2.5440 -0.7714  0.5181
 2116SOL    MW4 8232   1.549   2.969   3.765 -0.1604  0.0575 -0.2470
 2117SOL     OW 8233   3.509   2.932   4.798 -0.2131  0.3156 -0.4470
 2117SOL    HW2 8234   3.466   2.883   4.868  1.5490  1.0873  1.2576
 2117SOL    HW3 8235   3.586   2.880   4.777 -0.1453  0.6525 -1.0517
 2117SOL    MW4 8236   3.513   2.918   4.805 -0.4033  0.0610  0.4345
 2118SOL     OW 8237   6.290   6.353   1.084 -0.3102 -0.2469 -0.3037
 2118SOL    HW2 8238   6.232   6.416   1.127  1.4716  0.1756  1.6363
 2118SOL    HW3 8239   6.231   6.286   1.049 -2.0196  0.6575  0.6879
 2118SOL    MW4 8240   6.274   6.353   1.085 -0.1588 -0.1692 -0.4147
 2119SOL     OW 8241   1.804   2.532   0.435  0.3123  0.3986  0.0800
 2119SOL    HW2 8242   1.741   2.482   0.488 -1.0177  2.0421  0.1322
 2119SOL    HW3 8243   1.771   2.524   0.346  0.1434  1.0988  0.0776
 2119SOL    MW4 8244   1.791   2.524   0.430 -0.2872 -0.1395 -0.2491
 2120SOL     OW 8245   1.560   2.360   1.182 -0.0138  0.0877 -0.7131
 2120SOL    HW2 8246   1.578   2.368   1.088  1.4885 -0.2146 -0.4820
 2120SOL    HW3 8247   1.643   2.329   1.219 -1.0368 -1.3259  0.5033
 2120SOL    MW4 8248   1.574   2.357   1.175 -0.3257 -0.7071 -0.5309
 2121SOL     OW 8249   5.697   0.947   0.954 -0.2818 -0.2959 -0.4698
 2121SOL    HW2 8250   5.628   1.004   0.989 -1.2398 -2.3284  1.1808
 2121SOL    HW3 8251   5.774   0.968   1.006 -0.3363  0.2032 -0.5810
 2121SOL    MW4 8252   5.698   0.957   0.965 -0.2472  0.4849  0.3709
 2122SOL     OW 8253   1.002   6.421   1.835 -0.2722  0.4079  0.7070
 2122SOL    HW2 8254   0.911   6.415   1.805 -0.0983  2.3023 -0.3202
 2122SOL    HW3 8255   1.043   6.342   1.801 -1.5125 -0.5189  1.2397
 2122SOL    MW4 8256   0.995   6.409   1.827  0.2059 -0.0657  0.1300
 2123SOL     OW 8257   5.275   0.136   1.371  0.4768 -0.7942  0.5185
 2123SOL    HW2 8258   5.264   0.114   1.279  1.2522 -2.8561  0.8619
 2123SOL    HW3 8259   5.193   0.178   1.396 -0.7553 -2.4822 -0.5104
 2123SOL    MW4 8260   5.263   0.138   1.362 -0.6876  0.2494  0.0550
 2124SOL     OW 8261   5.662   0.017   0.712 -0.2666 -0.3538 -0.1047
 2124SOL    HW2 8262   5.726   0.088   0.710  0.6399 -1.1292  0.2758
 2124SOL    HW3 8263   5.660  -0.016   0.621  0.1721 -0.5704 -0.0394
 2124SOL    MW4 8264   5.670   0.022   0.699  0.0270  0.5109 -0.0774
 2125SOL     OW 8265   1.365   4.955   2.098  0.1145 -0.0556 -0.1955
 2125SOL    HW2 8266   1.459   4.940   2.105 -0.0676 -1.4419 -0.3756
 2125SOL    HW3 8267   1.327   4.900   2.166 -0.5459  0.9401  0.2596
 2125SOL    MW4 8268   1.372   4.946   2.108  0.4597 -0.1657  0.4542
 2126SOL     OW 8269   4.799   2.089   1.758 -0.2678  0.2142 -0.2138
 2126SOL    HW2 8270   4.753   2.006   1.767 -0.4080  0.2543 -0.5482
 2126SOL    HW3 8271   4.878   2.079   1.812 -1.5095  0.7918  1.8202
 2126SOL    MW4 8272   4.803   2.077   1.766 -0.2678 -0.3114  0.5894
 2127SOL     OW 8273   0.550   6.076   4.506 -0.0773  0.4240 -0.8097
 2127SOL    HW2 8274   0.608   6.128   4.562  0.4906 -0.3490 -0.6536
 2127SOL    HW3 8275   0.568   5.985   4.532 -1.2534  0.1625 -0.8702
 2127SOL    MW4 8276   0.560   6.071   4.517  0.3656  0.2611  0.2936
 2128SOL     OW 8277   6.104   1.641   3.150  0.5457  0.2245  0.6500
 2128SOL    HW2 8278   6.145   1.610   3.231 -2.0303  0.1378  1.9968
 2128SOL    HW3 8279   6.176   1.681   3.102  3.0330 -3.2432  1.0790
 2128SOL    MW4 8280   6.119   1.642   3.154  0.4457 -0.5923  0.2106
 2129SOL     OW 8281   4.391   0.529   0.984 -0.1137  0.1463  0.6710
 2129SOL    HW2 8282   4.368   0.521   1.076  0.9361  0.1612  0.9546
 2129SOL    HW3 8283   4.314   0.568   0.943 -0.0736  1.5185  1.8077
 2129SOL    MW4 8284   4.378   0.533   0.991 -0.0960 -0.5231 -0.0221
 2130SOL     OW 8285   3.971   1.424   0.187 -0.2063 -0.7262 -0.0233
 2130SOL    HW2 8286   3.966   1.412   0.093 -1.8728  1.8905 -0.3598
 2130SOL    HW3 8287   4.028   1.500   0.199  1.2451 -1.9352  1.2411
 2130SOL    MW4 8288   3.978   1.432   0.176  0.2173 -0.4843  0.2999
 2131SOL     OW 8289   3.502   3.490   1.665  0.4518 -0.4054 -0.0657
 2131SOL    HW2 8290   3.442   3.440   1.721 -0.8825  1.2526  0.0962
 2131SOL    HW3 8291   3.515   3.572   1.713  1.9687 -0.2672 -0.6659
 2131SOL    MW4 8292   3.496   3.494   1.679  0.3479 -0.2062  0.1007
 2132SOL     OW 8293   5.354   5.236   4.057  0.1191 -0.1068 -0.1957
 2132SOL    HW2 8294   5.313   5.317   4.088 -3.2257 -1.7762  0.1409
 2132SOL    HW3 8295   5.324   5.228   3.966  0.2330 -1.0727 -0.1558
 2132SOL    MW4 8296   5.345   5.246   4.049 -0.3377  0.3692 -0.0770
 2133SOL     OW 8297   1.345   3.114   5.416 -0.2841 -0.5189  0.9593
 2133SOL    HW2 8298   1.425   3.086   5.462  0.0464  0.8618  1.2637
 2133SOL    HW3 8299   1.332   3.047   5.348  3.0326  0.8904 -1.3380
 2133SOL    MW4 8300   1.354   3.101   5.413  0.5341  0.6718 -0.0857
 2134SOL     OW 8301   3.397   0.119   5.202 -0.0197  0.1890 -0.3194
 2134SOL    HW2 8302   3.303   0.138   5.192 -0.4113 -1.3812  0.0513
 2134SOL    HW3 8303   3.412   0.044   5.145  0.8093 -0.1257  0.3023
 2134SOL    MW4 8304   3.386   0.112   5.193 -0.2453  0.1887  0.6825
 2135SOL     OW 8305   1.379   2.738   1.905  0.5947  0.0689 -0.1431
 2135SOL    HW2 8306   1.446   2.759   1.969  0.3298  1.8417 -0.4107
 2135SOL    HW3 8307   1.422   2.750   1.820  0.2091  0.3157 -0.3077
 2135SOL    MW4 8308   1.394   2.742   1.902  0.4181 -0.0939  0.5824
 2136SOL     OW 8309   5.087   3.962   4.829  0.3249  0.4821 -0.5820
 2136SOL    HW2 8310   5.032   4.025   4.784  0.1036 -0.2959 -1.4486
 2136SOL    HW3 8311   5.141   3.923   4.760  2.6757  1.8773  0.3541
 2136SOL    MW4 8312   5.087   3.965   4.814  0.1878  0.2261 -0.1721
 2137SOL     OW 8313   0.784   6.420   2.116  0.2071  0.1485 -0.1107
 2137SOL    HW2 8314   0.762   6.339   2.069  0.5773 -0.6179  0.9970
 2137SOL    HW3 8315   0.781   6.488   2.048 -0.7731 -0.6723 -0.9370
 2137SOL    MW4 8316   0.781   6.418   2.101  0.0559  0.0961 -0.5552
 2138SOL     OW 8317   6.171   6.061   4.723 -0.0950 -0.1561 -0.2803
 2138SOL    HW2 8318   6.122   6.140   4.699  0.5876  1.1181  2.1850
 2138SOL    HW3 8319   6.110   6.011   4.778  1.0290  1.1593  2.3181
 2138SOL    MW4 8320   6.156   6.065   4.727  0.4906  0.0141  0.1135
 2139SOL     OW 8321   0.090   5.724   1.688  0.0089 -0.3333 -0.0865
 2139SOL    HW2 8322   0.111   5.688   1.775 -1.4852 -0.3253  0.2964
 2139SOL    HW3 8323   0.150   5.798   1.678 -0.3163  0.1389  1.2771
 2139SOL    MW4 8324   0.101   5.729   1.698  0.4838  0.1292  0.7102
 2140SOL     OW 8325   4.971   0.566   5.140 -0.3594 -0.1401 -1.0453
 2140SOL    HW2 8326   5.064   0.582   5.153 -0.7292  1.6424 -0.1418
 2140SOL    HW3 8327   4.959   0.474   5.162  1.0633 -0.2001 -0.3921
 2140SOL    MW4 8328   4.981   0.556   5.145 -0.0284  0.2317 -0.0863
 2141SOL     OW 8329   4.045   0.392   2.485  0.1075 -0.2501 -0.4807
 2141SOL    HW2 8330   3.997   0.417   2.406  0.2337  2.2934  0.1650
 2141SOL    HW3 8331   4.025   0.461   2.548  2.9166 -0.2561  0.5350
 2141SOL    MW4 8332   4.036   0.404   2.483 -0.2782 -0.2524  0.3435
 2142SOL     OW 8333   2.460   4.669   1.810 -0.2553 -0.2211  0.4462
 2142SOL    HW2 8334   2.447   4.577   1.787  0.9261 -0.5753  1.0874
 2142SOL    HW3 8335   2.491   4.709   1.729  2.8423 -1.2338  0.9614
 2142SOL    MW4 8336   2.462   4.662   1.796  0.2946 -0.1929  0.0617
 2143SOL     OW 8337   4.292   1.909   4.964 -0.4713  0.1508  0.3667
 2143SOL    HW2 8338   4.233   1.934   4.892 -0.4264 -0.1963  0.2072
 2143SOL    HW3 8339   4.329   1.992   4.994  0.8895  0.1724 -1.1987
 2143SOL    MW4 8340   4.289   1.924   4.958  0.2106  1.0540 -0.0095
 2144SOL     OW 8341   4.215   4.369   2.851 -0.1178  0.4730 -0.0521
 2144SOL    HW2 8342   4.176   4.425   2.785  1.3422  0.3590 -1.0696
 2144SOL    HW3 8343   4.162   4.289   2.850 -1.2800  1.2156  0.3250
 2144SOL    MW4 8344   4.203   4.365   2.842 -0.3294 -1.0024  0.1573
 2145SOL     OW 8345   4.488   1.788   6.406 -0.2322 -0.0263  0.1855
 2145SOL    HW2 8346   4.429   1.748   6.342 -2.3024  2.8042  0.1165
 2145SOL    HW3 8347   4.441   1.782   6.489  2.0452 -2.8768  1.4570
 2145SOL    MW4 8348   4.474   1.782   6.409  0.0509  0.0515  0.7394
 2146SOL     OW 8349   1.155   3.276   2.534  0.1871  0.5705 -0.2237
 2146SOL    HW2 8350   1.207   3.212   2.487  0.5625  1.1081 -0.5539
 2146SOL    HW3 8351   1.144   3.349   2.472 -2.4033 -0.2034 -0.8104
 2146SOL    MW4 8352   1.160   3.277   2.520 -0.0825  0.2315 -0.4421
 2147SOL     OW 8353   4.273   2.407   5.030  0.1295  0.3871  0.4590
 2147SOL    HW2 8354   4.291   2.400   4.936  1.9646  0.9305  0.7178
 2147SOL    HW3 8355   4.316   2.489   5.056  1.1452 -0.5871  2.0575
 2147SOL    MW4 8356   4.281   2.417   5.021 -0.3558  0.2848 -0.2939
 2148SOL     OW 8357   2.203   1.918   6.260 -0.0085  0.5927  0.2049
 2148SOL    HW2 8358   2.187   1.824   6.268  0.2433  0.6743  2.2694
 2148SOL    HW3 8359   2.124   1.953   6.221 -0.6121 -0.3283  0.5683
 2148SOL    MW4 8360   2.191   1.910   6.256  0.0925  0.4059 -0.0379
 2149SOL     OW 8361   0.543   0.332   2.116  0.0942 -0.6957 -0.2288
 2149SOL    HW2 8362   0.468   0.370   2.072  0.3210  3.2356  2.3411
 2149SOL    HW3 8363   0.506   0.271   2.180 -0.6775 -0.6864 -0.6575
 2149SOL    MW4 8364   0.528   0.329   2.119 -0.2181 -0.5856 -0.5790
 2150SOL     OW 8365   6.394   4.312   0.357 -0.0302  0.5635  0.0166
 2150SOL    HW2 8366   6.473   4.304   0.303 -0.1201  0.4807 -0.1021
 2150SOL    HW3 8367   6.384   4.227   0.399  0.6157  0.9413  0.9636
 2150SOL    MW4 8368   6.403   4.300   0.355 -0.0848 -0.1612  0.1593
 2151SOL     OW 8369   2.822   0.529   3.900 -0.2854  0.0924 -0.7371
 2151SOL    HW2 8370   2.810   0.438   3.871 -1.3442 -1.2058  3.2002
 2151SOL    HW3 8371   2.735   0.567   3.898 -1.1673 -1.1649  3.5068
 2151SOL    MW4 8372   2.809   0.522   3.896 -0.3105  0.3008 -0.2164
 2152SOL     OW 8373   3.415   6.014   5.574  0.3626 -0.2567  0.1983
 2152SOL    HW2 8374   3.448   5.926   5.589  0.1729 -0.5357 -0.9396
 2152SOL    HW3 8375   3.448   6.065   5.649  1.3758 -1.0411  0.3117
 2152SOL    MW4 8376   3.424   6.009   5.586 -0.3104  0.2314  0.1228
 2153SOL     OW 8377   2.339   5.728   1.527  0.0161 -0.5066 -0.2213
 2153SOL    HW2 8378   2.300   5.798   1.581 -2.5045 -1.7162 -0.3314
 2153SOL    HW3 8379   2.264   5.688   1.483  1.5131 -2.5869 -0.9988
 2153SOL    MW4 8380   2.324   5.732   1.528  0.0537 -0.2982  0.4756
 2154SOL     OW 8381   4.943   2.003   4.213  0.3747 -0.0145 -0.1405
 2154SOL    HW2 8382   4.856   1.984   4.249  0.5988 -1.1165 -0.1348
 2154SOL    HW3 8383   4.941   2.097   4.194 -0.9094 -0.0694 -0.3927
 2154SOL    MW4 8384   4.931   2.013   4.215  0.3414 -0.1264  0.6223
 2155SOL     OW 8385   3.307   6.111   1.844 -0.1872 -0.1597  0.1387
 2155SOL    HW2 8386   3.306   6.181   1.778 -0.2803 -0.3525 -0.0673
 2155SOL    HW3 8387   3.354   6.039   1.802  0.8065  0.1249  0.7194
 2155SOL    MW4 8388   3.313   6.111   1.830  0.7461  0.4593  0.6262
 2156SOL     OW 8389   1.712   5.798   1.124 -0.5823  0.5429 -0.0226
 2156SOL    HW2 8390   1.649   5.869   1.132 -1.0754  0.0915  0.1523
 2156SOL    HW3 8391   1.705   5.750   1.207  2.0509  2.1337  1.2670
 2156SOL    MW4 8392   1.703   5.801   1.136 -0.1474 -0.2812  0.0943
 2157SOL     OW 8393   3.571   5.984   2.785  0.3584 -0.5256 -0.0890
 2157SOL    HW2 8394   3.613   5.919   2.841  2.0431 -0.7597 -1.5489
 2157SOL    HW3 8395   3.575   6.065   2.836  0.9823 -0.9232  0.5079
 2157SOL    MW4 8396   3.577   5.986   2.799  0.1155 -0.1178 -0.2491
 2158SOL     OW 8397   0.695   6.081   0.069 -0.1930  0.0618  0.2283
 2158SOL    HW2 8398   0.760   6.145   0.096 -0.1540 -0.3952  1.2429
 2158SOL    HW3 8399   0.649   6.057   0.149 -0.1594 -1.2454 -0.1203
 2158SOL    MW4 8400   0.697   6.087   0.083  0.6924 -0.3378 -0.6733
 2159SOL     OW 8401   5.282   3.150   1.275  0.4910  0.2883  0.3064
 2159SOL    HW2 8402   5.316   3.169   1.362 -0.1525 -0.9191  0.8413
 2159SOL    HW3 8403   5.210   3.088   1.290  1.5569 -1.4046 -1.2108
 2159SOL    MW4 8404   5.277   3.144   1.288 -0.5055  0.0326 -0.3543
 2160SOL     OW 8405   5.351   4.412   1.731  0.0429  0.1078  0.4259
 2160SOL    HW2 8406   5.439   4.374   1.731 -0.8519 -2.1199 -0.8967
 2160SOL    HW3 8407   5.314   4.386   1.647 -2.8712 -1.4701  2.0516
 2160SOL    MW4 8408   5.358   4.404   1.720  0.1897 -0.1550 -0.0948
 2161SOL     OW 8409   3.833   4.092   1.685 -0.3902 -0.0951 -0.3828
 2161SOL    HW2 8410   3.880   4.097   1.768 -0.5694  2.9295 -0.3329
 2161SOL    HW3 8411   3.900   4.076   1.619 -0.2924 -2.9241  0.2954
 2161SOL    MW4 8412   3.848   4.091   1.687 -0.3593 -0.7201  0.7200
 2162SOL     OW 8413   0.701   5.256   1.917  0.1122 -0.4232  0.0881
 2162SOL    HW2 8414   0.669   5.238   2.005  1.0810 -1.1460  0.3002
 2162SOL    HW3 8415   0.735   5.173   1.886  0.9720  0.1225 -0.4706
 2162SOL    MW4 8416   0.701   5.243   1.924  0.2343  0.0564  0.0960
 2163SOL     OW 8417   0.138   5.855   2.516  0.1320  0.9246  0.1039
 2163SOL    HW2 8418   0.140   5.759   2.511 -0.8932  0.9232 -0.6478
 2163SOL    HW3 8419   0.182   5.884   2.436  0.5206  1.0818  0.3751
 2163SOL    MW4 8420   0.144   5.846   2.505 -0.2813 -0.1817  0.0251
 2164SOL     OW 8421   2.116   0.147   2.766  0.6793  0.2997 -0.1990
 2164SOL    HW2 8422   2.047   0.081   2.769 -0.0989  1.0782 -0.3347
 2164SOL    HW3 8423   2.119   0.174   2.674  0.0819  1.3460  0.0611
 2164SOL    MW4 8424   2.107   0.142   2.754  0.0363 -0.3373 -0.5384
 2165SOL     OW 8425   1.758   4.021   0.514  0.1606 -0.1232  0.4494
 2165SOL    HW2 8426   1.726   4.018   0.423 -0.4876 -1.2314  0.6861
 2165SOL    HW3 8427   1.717   4.099   0.551 -2.7092 -1.6843  0.8416
 2165SOL    MW4 8428   1.748   4.031   0.507 -0.0718 -0.2686  0.3910
 2166SOL     OW 8429   1.168   5.874   3.029 -0.3845  0.1910  0.5864
 2166SOL    HW2 8430   1.162   5.900   3.121 -0.2523  1.5439  0.2366
 2166SOL    HW3 8431   1.187   5.955   2.983  1.0308 -0.7090 -0.4828
 2166SOL    MW4 8432   1.170   5.888   3.035 -0.3633  0.4075  0.0016
 2167SOL     OW 8433   2.697   0.895   5.814  0.6860  0.3352 -0.0880
 2167SOL    HW2 8434   2.643   0.841   5.872 -0.6477  1.5896 -0.1200
 2167SOL    HW3 8435   2.725   0.835   5.745 -1.3580 -0.2028 -0.5120
 2167SOL    MW4 8436   2.693   0.880   5.813  0.2186  0.1486  0.1738
 2168SOL     OW 8437   6.343   4.766   1.242 -0.1564 -0.2863  0.9042
 2168SOL    HW2 8438   6.301   4.824   1.180  1.2060  0.9781  1.1033
 2168SOL    HW3 8439   6.344   4.815   1.324  0.6979 -0.7148  1.1686
 2168SOL    MW4 8440   6.338   4.780   1.245 -0.5777 -0.0055 -0.1436
 2169SOL     OW 8441   6.424   4.355   2.863  0.1255 -0.0163 -0.3377
 2169SOL    HW2 8442   6.512   4.320   2.852  0.2099 -0.0081  0.2665
 2169SOL    HW3 8443   6.384   4.348   2.776  1.3944  1.8387 -1.1435
 2169SOL    MW4 8444   6.430   4.350   2.850 -0.1362  0.3222 -0.2733
 2170SOL     OW 8445   5.287   4.195   4.655  0.0296  0.1016  0.1721
 2170SOL    HW2 8446   5.308   4.177   4.563  0.1451  0.8499  0.0395
 2170SOL    HW3 8447   5.193   4.181   4.661  0.1085 -0.4701  0.0660
 2170SOL    MW4 8448   5.277   4.191   4.643  0.3291  0.5578 -0.0857
 2171SOL     OW 8449   3.440   2.178   2.482  0.1506  0.0208 -0.7196
 2171SOL    HW2 8450   3.366   2.131   2.441  0.1133  1.3336 -2.2868
 2171SOL    HW3 8451   3.469   2.121   2.553 -1.8266 -0.9302 -0.6104
 2171SOL    MW4 8452   3.434   2.164   2.486  0.2758  0.3867  0.0156
 2172SOL     OW 8453   3.695   3.066   2.907  0.0421 -0.0844  0.6959
 2172SOL    HW2 8454   3.734   3.148   2.875  0.0333  0.2289  1.4646
 2172SOL    HW3 8455   3.623   3.049   2.845 -0.2999  0.7846  0.8308
 2172SOL    MW4 8456   3.690   3.075   2.894 -0.3192  0.1764  0.3799
 2173SOL     OW 8457   0.090   2.447   6.340  0.0580  0.8258  0.4766
 2173SOL    HW2 8458  -0.002   2.432   6.319  0.5562 -3.0295  0.2727
 2173SOL    HW3 8459   0.095   2.436   6.435  0.2148  2.0230  0.6245
 2173SOL    MW4 8460   0.079   2.443   6.350 -0.2294  0.4595 -0.4164
 2174SOL     OW 8461   3.708   4.794   1.862  0.1902 -0.6371 -0.3492
 2174SOL    HW2 8462   3.735   4.856   1.930  0.5147  0.1318 -1.1696
 2174SOL    HW3 8463   3.616   4.777   1.881  0.5936 -1.4549  1.0644
 2174SOL    MW4 8464   3.699   4.800   1.874 -0.1675 -0.7309  0.2132
 2175SOL     OW 8465   0.617   3.277   2.882  0.8740 -0.3921  0.0921
 2175SOL    HW2 8466   0.636   3.343   2.949  1.2632  0.4887 -0.8774
 2175SOL    HW3 8467   0.686   3.211   2.894  0.3199 -0.7993  1.2446
 2175SOL    MW4 8468   0.629   3.277   2.893 -0.0578  0.1188  0.0719
 2176SOL     OW 8469   5.984   4.780   2.596 -0.0999  0.2809 -0.1913
 2176SOL    HW2 8470   6.000   4.692   2.630 -2.3148  0.1518  0.6703
 2176SOL    HW3 8471   5.935   4.766   2.515  0.9679  0.7140 -0.9342
 2176SOL    MW4 8472   5.980   4.767   2.589 -0.3896 -0.3596 -0.4324
 2177SOL     OW 8473   5.707   0.662   2.699 -0.2255 -0.0848  0.0201
 2177SOL    HW2 8474   5.796   0.656   2.664 -0.2677  0.7035 -0.2401
 2177SOL    HW3 8475   5.676   0.571   2.700 -0.6944 -0.0661 -3.2316
 2177SOL    MW4 8476   5.715   0.649   2.695 -0.4772  0.5377 -0.1447
 2178SOL     OW 8477   2.761   0.088   2.502 -0.8161 -0.5128 -0.4161
 2178SOL    HW2 8478   2.796   0.014   2.553  0.1603 -0.3821 -0.8623
 2178SOL    HW3 8479   2.721   0.145   2.568  0.5670 -0.2659  0.2724
 2178SOL    MW4 8480   2.761   0.086   2.518 -0.1501 -0.4207 -0.6136
 2179SOL     OW 8481   5.909   1.879   3.513  0.8084  0.2190  0.1728
 2179SOL    HW2 8482   5.991   1.896   3.559  1.8838  0.6422 -1.7803
 2179SOL    HW3 8483   5.844   1.867   3.582  2.4898 -0.0504  1.7797
 2179SOL    MW4 8484   5.911   1.879   3.528 -0.1351  0.1482 -0.2158
 2180SOL     OW 8485   4.764   4.040   4.971  0.6791 -0.0694 -0.1565
 2180SOL    HW2 8486   4.728   4.123   4.938  1.1852  0.2118 -0.0093
 2180SOL    HW3 8487   4.782   4.058   5.064 -0.9364 -0.9140  0.3602
 2180SOL    MW4 8488   4.762   4.053   4.979 -0.2434  0.2508  0.5461
 2181SOL     OW 8489   1.130   2.170   0.194 -0.1465  0.4431  0.1057
 2181SOL    HW2 8490   1.046   2.206   0.163 -0.3677 -0.1219  0.0300
 2181SOL    HW3 8491   1.174   2.243   0.236 -0.7802  0.6940  0.3452
 2181SOL    MW4 8492   1.125   2.184   0.195  0.8226 -0.2948  0.2011
 2182SOL     OW 8493   0.595   4.101   0.424  0.1581 -0.0177 -0.5487
 2182SOL    HW2 8494   0.607   4.195   0.410 -1.6895  0.4076  0.4713
 2182SOL    HW3 8495   0.621   4.062   0.340  1.3298  1.3381 -0.8707
 2182SOL    MW4 8496   0.600   4.108   0.411  0.6845  0.6603  0.2043
 2183SOL     OW 8497   6.020   4.059   4.868 -0.0047 -0.3100  0.4213
 2183SOL    HW2 8498   6.086   4.032   4.805 -0.8299  0.5978 -0.8917
 2183SOL    HW3 8499   6.023   3.993   4.937  2.6861  0.0560  0.7442
 2183SOL    MW4 8500   6.029   4.047   4.869  0.1739  0.1719 -0.2370
 2184SOL     OW 8501   6.368   3.666   1.412  0.3202 -0.6711 -0.2801
 2184SOL    HW2 8502   6.278   3.633   1.416  0.3021 -0.6095 -0.1722
 2184SOL    HW3 8503   6.405   3.645   1.498 -0.3184  1.3642  0.5379
 2184SOL    MW4 8504   6.361   3.659   1.424 -0.0160  0.7331 -0.4014
 2185SOL     OW 8505   1.602   2.137   3.313 -0.2111 -0.6390 -0.0452
 2185SOL    HW2 8506   1.532   2.179   3.262 -0.0565  0.9349  0.9750
 2185SOL    HW3 8507   1.575   2.147   3.404  0.4780 -1.6421  0.2845
 2185SOL    MW4 8508   1.589   2.144   3.318  0.0988 -0.5604  0.5242
 2186SOL     OW 8509   1.791   4.567   1.287 -0.1071 -0.0014  0.3427
 2186SOL    HW2 8510   1.768   4.645   1.237  1.3719 -0.4594 -1.1116
 2186SOL    HW3 8511   1.768   4.590   1.377 -0.4193  1.8144 -0.1518
 2186SOL    MW4 8512   1.785   4.580   1.292  0.2962 -0.4017  0.2140
 2187SOL     OW 8513   3.761   1.918   2.511 -0.0344  0.3958 -0.0798
 2187SOL    HW2 8514   3.758   1.824   2.527 -0.4477  0.1505 -1.4984
 2187SOL    HW3 8515   3.688   1.953   2.562 -1.3046 -0.3536 -1.3285
 2187SOL    MW4 8516   3.751   1.911   2.520 -1.2052  0.4596 -0.1633
 2188SOL     OW 8517   4.294   0.196   2.570  0.2200  0.8703  0.0365
 2188SOL    HW2 8518   4.327   0.243   2.493  0.0683  0.8997 -0.0106
 2188SOL    HW3 8519   4.228   0.136   2.535  0.4671  0.5643  0.0862
 2188SOL    MW4 8520   4.290   0.194   2.555  0.3994 -0.0040 -0.2838
 2189SOL     OW 8521   0.374   3.743   5.831  0.3878  0.2310  0.1959
 2189SOL    HW2 8522   0.298   3.692   5.860 -0.6914  2.1813  1.0304
 2189SOL    HW3 8523   0.449   3.686   5.846 -0.6184 -0.6526  2.3453
 2189SOL    MW4 8524   0.374   3.729   5.837 -0.7570  0.6262  0.1474
 2190SOL     OW 8525   2.829   5.663   1.968  0.1154 -0.2158  0.0739
 2190SOL    HW2 8526   2.813   5.680   2.061  0.0025 -0.9776  0.2014
 2190SOL    HW3 8527   2.816   5.747   1.925 -0.1321  0.0731  0.7136
 2190SOL    MW4 8528   2.825   5.676   1.975 -0.2489 -0.6621  0.6615
 2191SOL     OW 8529   4.539   3.862   3.874 -0.6511  0.6407 -0.3025
 2191SOL    HW2 8530   4.495   3.882   3.792  1.8970  2.8951 -1.2754
 2191SOL    HW3 8531   4.566   3.948   3.908  1.3306 -0.4549  1.0913
 2191SOL    MW4 8532   4.537   3.876   3.868 -0.5348  0.5125 -0.0062
 2192SOL     OW 8533   6.214   3.782   0.900 -0.1998 -0.6847 -0.2331
 2192SOL    HW2 8534   6.145   3.803   0.837 -1.8637 -0.4524  1.5849
 2192SOL    HW3 8535   6.228   3.863   0.949 -0.2562 -1.3309  0.8963
 2192SOL    MW4 8536   6.207   3.796   0.898 -0.1530 -0.4255  0.1014
 2193SOL     OW 8537   3.413   5.535   2.158  0.6780  0.1659 -0.0380
 2193SOL    HW2 8538   3.465   5.615   2.146  0.0671  0.3605 -1.5903
 2193SOL    HW3 8539   3.401   5.501   2.070 -1.8339  0.1244  0.2405
 2193SOL    MW4 8540   3.418   5.541   2.145  0.2137 -0.4393 -0.0057
 2194SOL     OW 8541   3.530   2.467   3.599 -0.3218  0.0180  0.5936
 2194SOL    HW2 8542   3.531   2.374   3.576 -0.0100 -0.0758  0.9858
 2194SOL    HW3 8543   3.458   2.475   3.662 -0.4598  0.0785  0.4318
 2194SOL    MW4 8544   3.521   2.456   3.604  0.2949 -0.0149  0.2819
 2195SOL     OW 8545   0.083   6.057   3.396 -0.5007 -0.6582 -0.1813
 2195SOL    HW2 8546   0.104   6.021   3.482  0.4509 -1.1583 -0.6126
 2195SOL    HW3 8547   0.133   6.004   3.334 -0.2467  0.4291 -0.9500
 2195SOL    MW4 8548   0.092   6.045   3.399 -0.3071 -0.0330 -0.2668
 2196SOL     OW 8549   2.497   2.453   1.051  0.4844  0.5884  0.1606
 2196SOL    HW2 8550   2.516   2.361   1.067  0.0665  0.4714  0.0006
 2196SOL    HW3 8551   2.474   2.489   1.137  1.6221  0.7855  0.3952
 2196SOL    MW4 8552   2.496   2.446   1.065 -0.5752  0.9201  0.0568
 2197SOL     OW 8553   1.564   2.970   5.493  0.1879  0.7274  0.1673
 2197SOL    HW2 8554   1.580   2.875   5.496 -0.4368  0.6299  0.6137
 2197SOL    HW3 8555   1.652   3.008   5.490  0.4427  0.1227 -0.8204
 2197SOL    MW4 8556   1.578   2.962   5.493 -0.3645 -0.5796 -0.0391
 2198SOL     OW 8557   5.289   5.351   4.325  0.1879  0.1571 -0.6919
 2198SOL    HW2 8558   5.240   5.294   4.384  0.1187 -0.2137 -1.1048
 2198SOL    HW3 8559   5.327   5.418   4.382  1.1126 -0.8744 -0.0783
 2198SOL    MW4 8560   5.287   5.353   4.341 -0.1427  0.0512 -0.3904
 2199SOL     OW 8561   5.246   4.540   2.676 -0.1151  0.0064 -0.0239
 2199SOL    HW2 8562   5.304   4.583   2.739 -0.5855  0.3742  0.1581
 2199SOL    HW3 8563   5.305   4.485   2.624  0.3381  0.0541  0.4326
 2199SOL    MW4 8564   5.262   4.538   2.677  0.4859  0.3944  0.0757
 2200SOL     OW 8565   3.320   2.586   2.594 -0.4848  0.1311 -0.1768
 2200SOL    HW2 8566   3.373   2.538   2.530  0.1138  0.4647  0.0600
 2200SOL    HW3 8567   3.314   2.527   2.669 -0.1615  0.2204 -0.0767
 2200SOL    MW4 8568   3.326   2.572   2.596  0.0421 -0.6274 -0.0252
 2201SOL     OW 8569   4.116   3.936   0.365  0.2255  0.1695 -0.2712
 2201SOL    HW2 8570   4.136   3.891   0.283  0.2623 -0.3669  0.0272
 2201SOL    HW3 8571   4.185   3.907   0.425 -0.8397 -0.8974  0.4844
 2201SOL    MW4 8572   4.128   3.926   0.362  0.0928  0.4525  0.4594
 2202SOL     OW 8573   1.951   1.000   0.562  0.2928  0.2101  0.5035
 2202SOL    HW2 8574   1.863   1.031   0.581  0.2526  0.9006 -0.7644
 2202SOL    HW3 8575   2.007   1.051   0.621 -0.1479 -0.4060  1.4904
 2202SOL    MW4 8576   1.947   1.011   0.573  0.1855 -0.4501  0.1160
 2203SOL     OW 8577   5.454   4.927   4.764  0.3279 -0.0159  0.2214
 2203SOL    HW2 8578   5.528   4.908   4.706  0.1508  0.4496 -0.1626
 2203SOL    HW3 8579   5.491   4.925   4.852  1.1531  1.8100 -0.0393
 2203SOL    MW4 8580   5.468   4.924   4.768 -0.2076  0.6809 -0.7387
 2204SOL     OW 8581   5.949   2.506   4.558 -0.5547  0.7235 -0.3769
 2204SOL    HW2 8582   5.861   2.542   4.546 -1.1375 -0.4256  0.3393
 2204SOL    HW3 8583   5.936   2.429   4.613  1.0322  1.1811  0.7184
 2204SOL    MW4 8584   5.936   2.501   4.564  0.0324  0.0246  0.4533
 2205SOL     OW 8585   2.354   4.503   0.936 -0.3597 -0.3431  0.0554
 2205SOL    HW2 8586   2.300   4.545   1.002 -0.5818 -0.5869  0.0310
 2205SOL    HW3 8587   2.401   4.434   0.984  0.6221  0.4561  0.2609
 2205SOL    MW4 8588   2.353   4.499   0.951 -0.2727  0.1612 -0.4055
 2206SOL     OW 8589   4.460   5.130   3.882  0.9069 -0.2052  0.5219
 2206SOL    HW2 8590   4.475   5.223   3.869 -0.1485  0.0551  1.0744
 2206SOL    HW3 8591   4.518   5.087   3.819  0.5160  0.8528 -0.5907
 2206SOL    MW4 8592   4.470   5.136   3.872  0.3651  0.0719 -0.6592
 2207SOL     OW 8593   0.128   1.377   0.639 -0.7200  0.2391  0.0662
 2207SOL    HW2 8594   0.059   1.367   0.703 -0.1056 -2.5537  0.3989
 2207SOL    HW3 8595   0.084   1.372   0.554 -1.0532 -0.6308  0.2823
 2207SOL    MW4 8596   0.113   1.375   0.636 -0.3924 -0.2171 -0.1021
 2208SOL     OW 8597   0.687   5.858   3.200  0.5336 -0.3055  0.4026
 2208SOL    HW2 8598   0.708   5.841   3.292  1.3674  1.8829  0.6952
 2208SOL    HW3 8599   0.627   5.933   3.203  0.4614 -0.2964 -0.8253
 2208SOL    MW4 8600   0.682   5.866   3.213  0.0810 -0.1509  0.1134
 2209SOL     OW 8601   6.252   3.416   1.709 -0.0800 -0.0663 -0.1750
 2209SOL    HW2 8602   6.223   3.361   1.782  1.4160 -0.5450  0.0922
 2209SOL    HW3 8603   6.292   3.354   1.647  0.1866  0.5288 -0.6036
 2209SOL    MW4 8604   6.254   3.400   1.711  0.2875  0.0045 -0.0671
 2210SOL     OW 8605   3.500   0.734   6.139 -0.1460 -0.1054 -0.1713
 2210SOL    HW2 8606   3.501   0.639   6.140  0.2888 -0.1025  0.0693
 2210SOL    HW3 8607   3.561   0.758   6.069 -0.2754 -0.0006 -0.2504
 2210SOL    MW4 8608   3.508   0.725   6.130 -0.2748 -0.0830  0.3991
 2211SOL     OW 8609   6.280   5.696   0.809  0.2758 -0.0884  0.0541
 2211SOL    HW2 8610   6.299   5.761   0.742  2.3726 -0.8276 -0.1376
 2211SOL    HW3 8611   6.237   5.625   0.762  0.9528 -0.2264 -0.3719
 2211SOL    MW4 8612   6.277   5.695   0.794  0.1091  0.6138  0.3454
 2212SOL     OW 8613   1.221   2.589   4.019 -0.1864 -0.5227 -0.1501
 2212SOL    HW2 8614   1.134   2.572   3.982  0.5246 -1.7645 -1.3075
 2212SOL    HW3 8615   1.274   2.515   3.992  0.9441 -0.4114  1.6018
 2212SOL    MW4 8616   1.216   2.577   4.011  0.1663 -0.3712 -0.3033
 2213SOL     OW 8617   4.493   0.969   2.721 -0.0213  0.2517 -0.3735
 2213SOL    HW2 8618   4.583   0.974   2.688 -0.3047 -0.2199 -1.2492
 2213SOL    HW3 8619   4.501   0.926   2.806  0.3421 -2.2819 -1.5982
 2213SOL    MW4 8620   4.506   0.964   2.728  0.1776 -0.2129 -0.4190
 2214SOL     OW 8621   4.857   5.389   6.119  0.2708 -0.0561 -0.0004
 2214SOL    HW2 8622   4.853   5.377   6.024 -1.7524  0.7585 -0.0745
 2214SOL    HW3 8623   4.950   5.402   6.138  0.6572  0.3216 -1.9471
 2214SOL    MW4 8624   4.868   5.389   6.109 -0.2955  0.3636  0.0441
 2215SOL     OW 8625   1.757   1.440   0.149  0.1394 -0.5529 -0.3766
 2215SOL    HW2 8626   1.775   1.516   0.093  0.4923 -0.7967 -0.6028
 2215SOL    HW3 8627   1.803   1.459   0.231  0.8238 -0.8383 -0.6881
 2215SOL    MW4 8628   1.766   1.452   0.152 -0.0637 -0.0688 -0.1495
 2216SOL     OW 8629   2.840   3.213   2.800 -0.2116  0.1904 -0.1470
 2216SOL    HW2 8630   2.877   3.247   2.881 -4.2617 -1.6994  2.9060
 2216SOL    HW3 8631   2.873   3.123   2.794 -1.8957 -0.5638  1.0388
 2216SOL    MW4 8632   2.849   3.205   2.810  1.1286  0.2630 -0.2300
 2217SOL     OW 8633   1.811   1.965   2.678  0.2475 -0.0746  0.0657
 2217SOL    HW2 8634   1.876   1.937   2.613 -0.0320  1.3653 -0.8964
 2217SOL    HW3 8635   1.861   2.023   2.736  0.2701 -0.5529  0.5195
 2217SOL    MW4 8636   1.826   1.969   2.677  0.2717  0.0325  0.3080
 2218SOL     OW 8637   2.975   1.732   5.682 -0.0246 -0.0863  0.6350
 2218SOL    HW2 8638   2.918   1.693   5.616  0.0451 -0.8953  1.0324
 2218SOL    HW3 8639   2.996   1.819   5.648 -0.6290 -0.1871 -0.0207
 2218SOL    MW4 8640   2.970   1.738   5.669 -0.0346 -0.2579  0.2486
 2219SOL     OW 8641   0.577   5.161   5.008  0.3773  0.4991  0.5795
 2219SOL    HW2 8642   0.585   5.194   5.098 -1.0027  0.3366  0.7865
 2219SOL    HW3 8643   0.571   5.066   5.018  0.1195  0.4881  0.3146
 2219SOL    MW4 8644   0.577   5.153   5.021  0.7214 -0.0182  0.3302
 2220SOL     OW 8645   2.833   5.024   3.689 -0.6515  0.7028 -0.2006
 2220SOL    HW2 8646   2.807   5.083   3.618 -0.7300  0.7072 -0.1676
 2220SOL    HW3 8647   2.859   4.943   3.644  1.8490  1.5569 -0.4730
 2220SOL    MW4 8648   2.833   5.021   3.674 -0.0454 -0.2345  0.1758
 2221SOL     OW 8649   4.046   1.082   3.856  0.6027 -0.2727  0.0657
 2221SOL    HW2 8650   4.009   1.158   3.901  2.0914 -0.0842  1.0278
 2221SOL    HW3 8651   4.026   1.008   3.914  0.3092 -0.4259 -0.2268
 2221SOL    MW4 8652   4.038   1.083   3.870 -0.2970 -0.4433  0.4212
 2222SOL     OW 8653   5.920   0.840   3.315  0.0993 -0.0470  0.1635
 2222SOL    HW2 8654   5.926   0.745   3.310  0.8689 -0.0682  1.3021
 2222SOL    HW3 8655   5.987   0.871   3.253  0.5566 -0.2594  0.5421
 2222SOL    MW4 8656   5.930   0.832   3.306  0.2000  0.2194  0.5219
 2223SOL     OW 8657   0.462   2.585   6.307  0.1705 -0.6730  0.9056
 2223SOL    HW2 8658   0.385   2.578   6.252 -0.2940 -0.4790  1.5137
 2223SOL    HW3 8659   0.533   2.609   6.247 -0.0335 -1.7782  0.1976
 2223SOL    MW4 8660   0.461   2.587   6.292  0.8444 -0.5701 -0.9855
 2224SOL     OW 8661   1.502   4.689   0.675  0.5843 -0.2743 -0.6144
 2224SOL    HW2 8662   1.448   4.610   0.670 -1.2613  0.9754 -2.1045
 2224SOL    HW3 8663   1.445   4.754   0.717  2.1812  0.2298  0.8765
 2224SOL    MW4 8664   1.487   4.687   0.680 -0.3343 -0.2551 -0.0667
 2225SOL     OW 8665   4.059   6.110   1.390 -0.3320 -0.0030 -0.4542
 2225SOL    HW2 8666   4.061   6.050   1.315 -0.0559 -0.5787  0.0002
 2225SOL    HW3 8667   4.137   6.164   1.379 -0.4977  0.1704 -0.7845
 2225SOL    MW4 8668   4.070   6.109   1.379  0.2194 -0.0686  0.0369
 2226SOL     OW 8669   0.329   4.672   5.509  0.1976 -0.1660  0.4237
 2226SOL    HW2 8670   0.270   4.738   5.473  0.5644  0.1778  0.4499
 2226SOL    HW3 8671   0.274   4.618   5.565 -0.1138  0.0936  0.3682
 2226SOL    MW4 8672   0.314   4.674   5.511 -0.7738 -0.2166  0.0408
 2227SOL     OW 8673   1.679   3.463   5.986  0.6625  0.6437  0.2385
 2227SOL    HW2 8674   1.751   3.525   5.999  0.8521  0.4041  0.3574
 2227SOL    HW3 8675   1.602   3.506   6.023  0.8459  0.6922  0.5664
 2227SOL    MW4 8676   1.679   3.477   5.992 -0.0549  0.6236 -0.1753
 2228SOL     OW 8677   0.350   5.285   2.425  0.0720  0.1509 -0.1080
 2228SOL    HW2 8678   0.412   5.356   2.411  0.1604  0.4931  1.6901
 2228SOL    HW3 8679   0.386   5.212   2.376  1.4180  0.6053  0.1399
 2228SOL    MW4 8680   0.363   5.285   2.417 -0.0632 -0.1673  0.0747
 2229SOL     OW 8681   1.426   3.307   6.177 -0.0191 -0.2139  0.3168
 2229SOL    HW2 8682   1.505   3.360   6.191 -0.5082  0.6576 -0.1534
 2229SOL    HW3 8683   1.459   3.227   6.137  0.6179  0.2287 -0.0659
 2229SOL    MW4 8684   1.441   3.304   6.173 -0.4490 -0.4408  0.4102
 2230SOL     OW 8685   4.709   5.148   1.790 -0.0675 -0.7051  0.1462
 2230SOL    HW2 8686   4.674   5.059   1.785 -1.1467 -0.2410 -1.0672
 2230SOL    HW3 8687   4.635   5.202   1.816  1.0248 -0.3614  2.8072
 2230SOL    MW4 8688   4.695   5.143   1.793  0.3413  0.1488  0.4205
 2231SOL     OW 8689   3.623   3.897   3.771  0.3184 -0.7642 -0.0567
 2231SOL    HW2 8690   3.621   3.981   3.725 -0.9307 -0.4456  0.5444
 2231SOL    HW3 8691   3.557   3.843   3.727  0.6615 -1.2145 -0.0282
 2231SOL    MW4 8692   3.614   3.901   3.759 -0.2169 -0.2571  0.2640
 2232SOL     OW 8693   0.655   0.921   5.160 -0.0354  0.9830 -0.5884
 2232SOL    HW2 8694   0.724   0.943   5.097  1.2347 -0.5272  0.1844
 2232SOL    HW3 8695   0.630   0.831   5.137 -1.3511  1.2986 -0.4821
 2232SOL    MW4 8696   0.661   0.912   5.149  0.3447  0.0330 -0.7535
 2233SOL     OW 8697   6.367   3.868   1.954  0.3541  0.2818  0.1774
 2233SOL    HW2 8698   6.388   3.801   1.890 -0.1950 -1.1955  1.4779
 2233SOL    HW3 8699   6.382   3.951   1.908 -0.4476 -0.6929 -1.9739
 2233SOL    MW4 8700   6.372   3.870   1.940  0.3248  0.0683  0.0137
 2234SOL     OW 8701   4.816   6.308   2.923  0.0851  0.5802 -0.3280
 2234SOL    HW2 8702   4.857   6.395   2.922 -1.0936  1.1451 -0.1490
 2234SOL    HW3 8703   4.746   6.314   2.987  0.3974 -0.7170  0.1779
 2234SOL    MW4 8704   4.812   6.320   2.931  0.1637 -0.6418  0.4113
 2235SOL     OW 8705   2.142   0.666   0.113  0.7829 -0.9258  0.5527
 2235SOL    HW2 8706   2.076   0.735   0.123  0.6702 -0.4190 -2.8268
 2235SOL    HW3 8707   2.203   0.681   0.185  0.0435  1.8884  0.6900
 2235SOL    MW4 8708   2.141   0.677   0.124 -0.0943 -0.0558 -0.8194
 2236SOL     OW 8709   5.078   1.528   6.396 -0.1572  0.5017 -0.4040
 2236SOL    HW2 8710   5.099   1.534   6.303 -1.7448  1.2890 -0.7507
 2236SOL    HW3 8711   5.031   1.445   6.405  0.7959 -0.0151 -0.1210
 2236SOL    MW4 8712   5.075   1.518   6.385  0.0857 -0.0924  0.4034
 2237SOL     OW 8713   5.810   1.188   1.674 -0.1987  0.2850  0.0115
 2237SOL    HW2 8714   5.887   1.130   1.674  0.6902  1.3312 -2.0029
 2237SOL    HW3 8715   5.743   1.139   1.626 -0.4287 -0.1959  0.8146
 2237SOL    MW4 8716   5.812   1.174   1.667  0.1564 -0.1437 -0.0424
 2238SOL     OW 8717   1.042   3.378   5.834  0.1610 -0.0704  0.3802
 2238SOL    HW2 8718   1.132   3.355   5.855  0.0178 -0.6447  0.3748
 2238SOL    HW3 8719   1.035   3.368   5.739 -0.0182 -0.4271  0.4288
 2238SOL    MW4 8720   1.053   3.374   5.824 -0.3505  0.3383 -0.0060
 2239SOL     OW 8721   3.807   2.749   2.433  0.5661  0.1185  0.3282
 2239SOL    HW2 8722   3.856   2.823   2.468 -1.0721  1.8504 -0.9179
 2239SOL    HW3 8723   3.845   2.734   2.346 -1.7794  2.3196 -1.2077
 2239SOL    MW4 8724   3.819   2.756   2.426  0.3587 -0.0202 -0.1437
 2240SOL     OW 8725   3.780   3.510   3.789 -0.4298 -0.4951 -0.4372
 2240SOL    HW2 8726   3.717   3.485   3.857 -0.0791  1.3677  0.6643
 2240SOL    HW3 8727   3.852   3.448   3.797 -0.0034  0.1844  1.5292
 2240SOL    MW4 8728   3.781   3.499   3.799  1.0125  0.5906 -0.4141
 2241SOL     OW 8729   1.218   3.489   0.260 -0.5825  0.2068 -0.3561
 2241SOL    HW2 8730   1.176   3.417   0.308 -0.2891 -0.2242 -0.7285
 2241SOL    HW3 8731   1.298   3.450   0.226 -0.2673  0.8082 -0.2980
 2241SOL    MW4 8732   1.223   3.474   0.262  0.0266 -0.4268  0.4208
 2242SOL     OW 8733   1.511   5.771   0.453 -0.5135  0.0902  0.3171
 2242SOL    HW2 8734   1.604   5.776   0.432  0.0026 -2.1028  1.7677
 2242SOL    HW3 8735   1.491   5.855   0.493  0.9716  0.4498  0.3702
 2242SOL    MW4 8736   1.521   5.782   0.456 -0.7274 -0.0499  0.5132
 2243SOL     OW 8737   0.775   5.667   5.949 -0.0477  0.2741 -0.5133
 2243SOL    HW2 8738   0.825   5.649   6.029 -0.0473  0.0390 -0.5665
 2243SOL    HW3 8739   0.686   5.684   5.980 -0.3912 -1.2440 -0.5624
 2243SOL    MW4 8740   0.770   5.667   5.964 -0.2373  0.6446  0.6929
 2244SOL     OW 8741   0.901   2.255   0.073 -0.3302  0.1003 -0.5657
 2244SOL    HW2 8742   0.939   2.242  -0.014 -0.5556  1.3836 -0.8707
 2244SOL    HW3 8743   0.814   2.215   0.067 -0.2556 -0.0223 -0.8553
 2244SOL    MW4 8744   0.895   2.248   0.061 -0.4531  0.3318  1.4064
 2245SOL     OW 8745   1.529   5.228   3.706  0.2542 -0.0717  0.2487
 2245SOL    HW2 8746   1.602   5.185   3.661 -0.8739 -0.4242 -1.3213
 2245SOL    HW3 8747   1.479   5.270   3.636  0.4942  2.6180  1.5688
 2245SOL    MW4 8748   1.532   5.228   3.691  0.5249  0.1919 -0.5466
 2246SOL     OW 8749   4.481   5.345   1.717  0.1473 -0.1082  0.0117
 2246SOL    HW2 8750   4.516   5.432   1.701 -0.1551  0.0517  0.2262
 2246SOL    HW3 8751   4.458   5.312   1.630 -2.6051  1.2205  0.1213
 2246SOL    MW4 8752   4.482   5.352   1.703  0.1390  0.2434 -0.0042
 2247SOL     OW 8753   4.471   2.681   3.515  0.1359  0.1720 -0.3818
 2247SOL    HW2 8754   4.442   2.687   3.424 -1.3973  2.1979  0.1806
 2247SOL    HW3 8755   4.544   2.742   3.521  0.9416 -0.7463 -0.4506
 2247SOL    MW4 8756   4.477   2.690   3.504  0.2864 -0.5316 -0.2186
 2248SOL     OW 8757   3.906   5.644   0.409 -0.5987  0.2416  0.2736
 2248SOL    HW2 8758   3.925   5.581   0.479  1.5669 -0.6363 -1.0136
 2248SOL    HW3 8759   3.834   5.604   0.360 -1.2326  0.2305  1.1780
 2248SOL    MW4 8760   3.899   5.630   0.412 -0.3610 -0.0597  0.4515
 2249SOL     OW 8761   4.894   1.368   0.600 -0.0452  0.0134  0.0307
 2249SOL    HW2 8762   4.902   1.310   0.525  0.2400 -0.2797  0.2821
 2249SOL    HW3 8763   4.827   1.328   0.655 -2.3130  1.6697 -1.3471
 2249SOL    MW4 8764   4.886   1.355   0.598 -0.3273  0.7645 -0.8795
 2250SOL     OW 8765   1.871   4.579   2.089 -0.3165 -0.5914  0.2035
 2250SOL    HW2 8766   1.874   4.506   2.150 -0.4136 -0.6407  0.1504
 2250SOL    HW3 8767   1.882   4.657   2.144 -0.1182 -0.6516  0.2484
 2250SOL    MW4 8768   1.873   4.580   2.104  0.7485  0.2167  1.0264
 2251SOL     OW 8769   2.503   4.318   1.080 -0.1232 -0.3978 -0.4118
 2251SOL    HW2 8770   2.543   4.232   1.068  0.0979 -0.4766  0.7886
 2251SOL    HW3 8771   2.463   4.314   1.166  0.1585  0.8086 -0.2066
 2251SOL    MW4 8772   2.503   4.306   1.089 -0.2512  0.0737  0.0158
 2252SOL     OW 8773   5.526   4.346   2.561 -0.0752 -0.4527 -0.1482
 2252SOL    HW2 8774   5.613   4.385   2.565 -0.3349  0.1474 -0.3558
 2252SOL    HW3 8775   5.506   4.324   2.652 -0.5079  1.1891  0.1857
 2252SOL    MW4 8776   5.535   4.348   2.573  0.0310 -0.6463 -0.2669
 2253SOL     OW 8777   2.302   6.303   1.693 -0.0235  0.4974 -0.3308
 2253SOL    HW2 8778   2.226   6.246   1.684  0.1985  0.2469 -0.6587
 2253SOL    HW3 8779   2.322   6.331   1.604  0.3917  0.3952 -0.2722
 2253SOL    MW4 8780   2.295   6.299   1.680  0.2635 -0.0202 -0.4785
 2254SOL     OW 8781   1.555   5.499   0.549 -0.9067  0.0694 -0.5410
 2254SOL    HW2 8782   1.510   5.574   0.510  3.0376  1.2715 -3.3087
 2254SOL    HW3 8783   1.618   5.538   0.610 -1.1494 -1.3166  0.6567
 2254SOL    MW4 8784   1.557   5.514   0.552 -0.3234 -0.1543  0.4558
 2255SOL     OW 8785   2.644   1.012   2.230 -0.1043  0.3840 -0.2238
 2255SOL    HW2 8786   2.659   1.103   2.256  1.3028  0.4069 -1.0155
 2255SOL    HW3 8787   2.608   0.970   2.308  1.1793  1.1358  0.8088
 2255SOL    MW4 8788   2.641   1.019   2.244  0.3421 -0.7000  0.0179
 2256SOL     OW 8789   0.738   0.455   4.543 -0.4256  0.0296  0.8069
 2256SOL    HW2 8790   0.798   0.474   4.470 -0.9588 -2.2332 -0.3103
 2256SOL    HW3 8791   0.769   0.372   4.579 -1.4319  0.0644  1.8139
 2256SOL    MW4 8792   0.750   0.446   4.538 -0.0083 -0.1314 -0.0202
 2257SOL     OW 8793   1.767   2.629   1.896 -0.3669 -0.3873  0.5434
 2257SOL    HW2 8794   1.819   2.653   1.972 -0.1310  1.1317 -0.0610
 2257SOL    HW3 8795   1.831   2.621   1.825 -0.9605  2.9575 -0.5560
 2257SOL    MW4 8796   1.782   2.631   1.896 -0.1933 -0.1659  0.2310
 2258SOL     OW 8797   1.711   5.307   3.020  0.7213  0.5982 -0.1530
 2258SOL    HW2 8798   1.626   5.309   2.975  0.8995  0.3943 -0.5043
 2258SOL    HW3 8799   1.721   5.395   3.056 -0.8057 -0.0623  2.1011
 2258SOL    MW4 8800   1.701   5.319   3.019 -0.8117  0.0827 -1.0036
 2259SOL     OW 8801   1.043   5.331   5.746 -0.3363 -0.2927 -1.0383
 2259SOL    HW2 8802   1.136   5.347   5.735 -0.3595  1.2554  0.6096
 2259SOL    HW3 8803   1.000   5.398   5.693 -0.4913  0.0611 -0.4744
 2259SOL    MW4 8804   1.049   5.342   5.737 -0.5950  0.3067  0.8797
 2260SOL     OW 8805   0.112   5.347   2.833  0.2611  0.5683 -0.0166
 2260SOL    HW2 8806   0.075   5.274   2.883  0.0076 -0.1669 -1.2186
 2260SOL    HW3 8807   0.192   5.310   2.795  1.0106  1.4368  0.6956
 2260SOL    MW4 8808   0.118   5.332   2.835  0.2892  0.4729  0.2349
 2261SOL     OW 8809   5.091   4.156   0.014 -0.3549 -0.2531 -0.1041
 2261SOL    HW2 8810   5.153   4.109  -0.041  1.3119  2.0322 -0.3144
 2261SOL    HW3 8811   5.126   4.147   0.103 -0.5828 -0.2264 -0.0105
 2261SOL    MW4 8812   5.104   4.148   0.019 -0.0228 -0.3671  0.3074
 2262SOL     OW 8813   0.024   4.990   6.328 -0.2515 -0.2026 -0.6210
 2262SOL    HW2 8814   0.064   5.075   6.344  0.2119 -0.3835 -0.7877
 2262SOL    HW3 8815  -0.052   4.987   6.387  0.6501 -0.3196  0.5856
 2262SOL    MW4 8816   0.019   5.001   6.338  0.4350 -0.0365 -0.2972
 2263SOL     OW 8817   2.961   1.245   3.349  0.1946  0.0198  0.4170
 2263SOL    HW2 8818   2.923   1.286   3.271 -0.6400 -1.1019  0.1972
 2263SOL    HW3 8819   2.995   1.318   3.401  2.0348  0.7391 -1.6048
 2263SOL    MW4 8820   2.961   1.260   3.345  0.0983  0.3075 -0.7186
 2264SOL     OW 8821   4.641   6.047   3.870  0.6884  0.5719 -0.3757
 2264SOL    HW2 8822   4.546   6.036   3.859  0.5100 -0.1212  1.3558
 2264SOL    HW3 8823   4.660   6.134   3.837 -1.0681  1.8667  1.7625
 2264SOL    MW4 8824   4.631   6.057   3.864 -0.6319  0.2255  0.3517
 2265SOL     OW 8825   2.352   1.612   2.369  0.4363 -0.7046  0.0650
 2265SOL    HW2 8826   2.313   1.668   2.436  2.9456 -0.1664  1.1885
 2265SOL    HW3 8827   2.346   1.524   2.405  0.5754 -0.5813  0.3945
 2265SOL    MW4 8828   2.346   1.608   2.382 -0.3731 -0.2079 -0.1140
 2266SOL     OW 8829   0.684   3.619   0.773  0.3828  0.4381 -0.7272
 2266SOL    HW2 8830   0.659   3.569   0.695  0.3172  1.7940 -1.5929
 2266SOL    HW3 8831   0.619   3.688   0.780  0.1250  0.0771  0.8174
 2266SOL    MW4 8832   0.672   3.621   0.764 -0.3353 -0.2546  0.5694
 2267SOL     OW 8833   2.992   1.826   1.284  0.5012  0.4154 -0.3438
 2267SOL    HW2 8834   3.036   1.784   1.211 -0.3992  2.0398 -1.9310
 2267SOL    HW3 8835   3.062   1.871   1.333  0.8790  1.3366 -1.6740
 2267SOL    MW4 8836   3.007   1.827   1.281 -0.5031 -0.0419 -0.5526
 2268SOL     OW 8837   5.138   2.898   1.361  0.0573  0.3645 -0.9230
 2268SOL    HW2 8838   5.062   2.895   1.304 -0.0676  0.3359 -0.7577
 2268SOL    HW3 8839   5.206   2.851   1.313 -0.5566 -1.2508 -0.2936
 2268SOL    MW4 8840   5.137   2.891   1.347 -0.0997 -0.1518 -0.1828
 2269SOL     OW 8841   3.774   0.632   6.378 -0.0358 -0.4401 -0.7692
 2269SOL    HW2 8842   3.716   0.708   6.372 -0.3163 -0.6402 -0.6308
 2269SOL    HW3 8843   3.804   0.617   6.289  1.4941  0.9590 -0.5391
 2269SOL    MW4 8844   3.770   0.640   6.366  0.0539  0.0604  0.5493
 2270SOL     OW 8845   1.610   2.906   3.368 -0.5006 -0.3158  0.3551
 2270SOL    HW2 8846   1.680   2.908   3.432 -0.6746 -1.0612  0.5852
 2270SOL    HW3 8847   1.636   2.969   3.301  0.8349 -1.2365 -0.0243
 2270SOL    MW4 8848   1.622   2.914   3.368 -0.1975 -0.5394  0.2515
 2271SOL     OW 8849   0.335   4.672   2.470  0.0077 -0.3523  0.0308
 2271SOL    HW2 8850   0.393   4.668   2.546  0.2828 -1.3216 -0.2155
 2271SOL    HW3 8851   0.385   4.631   2.400  0.1200  1.3811 -0.9282
 2271SOL    MW4 8852   0.349   4.666   2.471  0.0318  1.1469  0.4317
 2272SOL     OW 8853   5.145   5.876   3.983 -0.2318 -0.0207 -0.2790
 2272SOL    HW2 8854   5.130   5.879   4.077 -0.1111  0.5509 -0.2779
 2272SOL    HW3 8855   5.094   5.948   3.947 -2.1416 -1.5875 -0.9232
 2272SOL    MW4 8856   5.136   5.886   3.990  0.2860 -0.2130  0.7066
 2273SOL     OW 8857   1.453   3.431   0.090  0.3499  0.1663  0.0588
 2273SOL    HW2 8858   1.422   3.519   0.066  1.0462  0.4633  0.2296
 2273SOL    HW3 8859   1.530   3.447   0.143  0.3535 -0.5539  0.2756
 2273SOL    MW4 8860   1.459   3.445   0.094  0.3851 -0.4556  0.0106
 2274SOL     OW 8861   0.782   5.250   2.872 -0.4419  0.4821  0.3759
 2274SOL    HW2 8862   0.859   5.307   2.872  0.8683 -1.2094  0.7751
 2274SOL    HW3 8863   0.722   5.291   2.809  1.3151  1.1505 -0.9415
 2274SOL    MW4 8864   0.784   5.263   2.864  0.1530 -0.0924 -0.1888
 2275SOL     OW 8865   2.571   5.463   3.280 -0.0038 -0.3012 -0.5363
 2275SOL    HW2 8866   2.568   5.378   3.237  1.9009 -0.6939 -0.0135
 2275SOL    HW3 8867   2.556   5.443   3.373  2.6062 -0.4560 -0.0638
 2275SOL    MW4 8868   2.569   5.449   3.287 -0.2304  0.0945 -0.0473
 2276SOL     OW 8869   5.333   2.965   2.892 -0.2746 -0.3289 -0.0105
 2276SOL    HW2 8870   5.416   2.926   2.863 -0.7508 -2.9213  1.8006
 2276SOL    HW3 8871   5.267   2.922   2.837 -0.6514 -0.5629  0.6245
 2276SOL    MW4 8872   5.335   2.954   2.881  0.2659  0.2753 -0.1182
 2277SOL     OW 8873   6.366   1.377   0.850 -0.1961  0.0953  0.3437
 2277SOL    HW2 8874   6.347   1.290   0.887 -1.2302  0.1316 -0.0678
 2277SOL    HW3 8875   6.450   1.401   0.887  0.0475 -1.0407  0.5591
 2277SOL    MW4 8876   6.374   1.368   0.860 -0.2435  0.3623 -0.3770
 2278SOL     OW 8877   5.940   0.588   3.036 -0.5245  0.5700  0.1471
 2278SOL    HW2 8878   5.979   0.666   3.076 -1.9957  0.8838  1.0414
 2278SOL    HW3 8879   5.852   0.615   3.012 -1.1312 -0.8577  0.6592
 2278SOL    MW4 8880   5.934   0.602   3.038 -0.3978 -0.2047 -0.1880
 2279SOL     OW 8881   2.914   0.584   2.715 -0.3422  0.1322  0.0096
 2279SOL    HW2 8882   2.996   0.549   2.748 -1.0243 -1.2581  0.2816
 2279SOL    HW3 8883   2.883   0.642   2.785  0.7684  1.3136 -0.4314
 2279SOL    MW4 8884   2.921   0.587   2.729 -0.0689 -0.0194 -0.3189
 2280SOL     OW 8885   3.121   0.538   6.235  0.0041  0.0444  0.0855
 2280SOL    HW2 8886   3.142   0.498   6.151  1.4809  0.6543  0.1466
 2280SOL    HW3 8887   3.025   0.538   6.238 -0.0565 -1.3248 -0.9352
 2280SOL    MW4 8888   3.111   0.533   6.224 -0.2694  0.0322  0.8402
 2281SOL     OW 8889   4.993   0.621   6.164 -0.2798  0.1615  0.2267
 2281SOL    HW2 8890   4.983   0.695   6.223 -0.8397 -0.3274  0.7579
 2281SOL    HW3 8891   5.088   0.616   6.149  0.1875 -1.0482  2.9037
 2281SOL    MW4 8892   5.004   0.630   6.170  0.5976  0.5376  0.9031
 2282SOL     OW 8893   4.786   4.983   0.511  0.8467  0.1765  0.3289
 2282SOL    HW2 8894   4.840   5.050   0.555  0.6493 -0.7803  2.1449
 2282SOL    HW3 8895   4.742   4.937   0.583 -0.3949 -0.7641 -0.9707
 2282SOL    MW4 8896   4.787   4.986   0.527 -0.4244 -0.1823  0.1766
 2283SOL     OW 8897   3.486   4.629   1.138 -0.0981 -0.1753 -0.1999
 2283SOL    HW2 8898   3.506   4.548   1.185  0.1891  0.1743  0.2988
 2283SOL    HW3 8899   3.504   4.608   1.046 -0.2617 -0.7460 -0.1088
 2283SOL    MW4 8900   3.491   4.615   1.132 -0.6052  0.0446  0.4434
 2284SOL     OW 8901   0.242   2.003   4.984 -0.3334  0.1668  0.3174
 2284SOL    HW2 8902   0.189   2.033   5.058  1.7703  1.6492  1.2939
 2284SOL    HW3 8903   0.295   1.932   5.021  0.9032  1.0792  0.3358
 2284SOL    MW4 8904   0.242   1.997   4.999  0.4714  0.6111  0.4886
 2285SOL     OW 8905   0.444   2.154   2.555 -0.7555 -0.2367 -0.8582
 2285SOL    HW2 8906   0.374   2.213   2.530  0.6433  0.8829 -2.3033
 2285SOL    HW3 8907   0.448   2.090   2.484 -1.9608 -1.8764  0.4710
 2285SOL    MW4 8908   0.435   2.153   2.542  0.8121  0.3992  0.6865
 2286SOL     OW 8909   1.882   2.303   1.097 -0.3012  0.4168 -1.0508
 2286SOL    HW2 8910   1.832   2.357   1.036 -2.9197 -1.8763 -1.1643
 2286SOL    HW3 8911   1.876   2.214   1.060  2.1442 -0.3149  0.0946
 2286SOL    MW4 8912   1.875   2.298   1.084  0.1217 -0.4360 -0.0270
 2287SOL     OW 8913   5.011   5.373   1.727  0.1667 -0.2781  0.4098
 2287SOL    HW2 8914   5.034   5.362   1.635  0.4742 -0.2814  0.4862
 2287SOL    HW3 8915   5.026   5.287   1.766  1.3111  0.0559  0.7350
 2287SOL    MW4 8916   5.016   5.360   1.720  0.2094  0.4937 -0.2597
 2288SOL     OW 8917   4.982   3.651   2.671 -0.3960 -0.4669  0.3304
 2288SOL    HW2 8918   5.034   3.592   2.725 -1.5276 -1.2191  0.6535
 2288SOL    HW3 8919   4.891   3.627   2.691 -0.8597 -0.5341 -1.6135
 2288SOL    MW4 8920   4.977   3.640   2.680  0.5164  0.4022 -0.3098
 2289SOL     OW 8921   4.237   4.936   4.634  0.2392 -0.3236  0.2660
 2289SOL    HW2 8922   4.162   4.990   4.661 -0.6469 -0.1950 -2.2248
 2289SOL    HW3 8923   4.304   4.955   4.699 -1.5339  0.3374  2.0186
 2289SOL    MW4 8924   4.236   4.945   4.646  0.6384  0.1018  0.4616
 2290SOL     OW 8925   4.516   2.887   3.111  0.2274  0.3863  0.5810
 2290SOL    HW2 8926   4.601   2.860   3.145  0.7092  2.1536  0.8521
 2290SOL    HW3 8927   4.454   2.822   3.145  1.5046 -1.2496 -0.0758
 2290SOL    MW4 8928   4.519   2.875   3.120 -0.2398  0.4433  0.9394
 2291SOL     OW 8929   0.395   4.573   1.708  0.2275  0.1514  0.0766
 2291SOL    HW2 8930   0.383   4.494   1.760  0.6531  0.4171  0.5798
 2291SOL    HW3 8931   0.483   4.564   1.671  0.1645  0.2553 -0.1010
 2291SOL    MW4 8932   0.405   4.561   1.710  0.3111  0.2112  0.2759
 2292SOL     OW 8933   5.539   3.002   0.516 -0.0121 -0.5664 -0.3575
 2292SOL    HW2 8934   5.608   3.010   0.451  0.1214 -0.3298 -0.1867
 2292SOL    HW3 8935   5.463   3.046   0.476  0.4979  0.9491  0.2621
 2292SOL    MW4 8936   5.538   3.009   0.502  0.3816 -0.5605 -0.4492
 2293SOL     OW 8937   2.829   4.170   6.142  0.4167  0.2735 -0.3181
 2293SOL    HW2 8938   2.766   4.097   6.143 -1.1603  1.5798  0.3443
 2293SOL    HW3 8939   2.893   4.147   6.209 -0.0153 -0.5270 -0.1620
 2293SOL    MW4 8940   2.829   4.157   6.151  0.0775  0.4539  0.2474
 2294SOL     OW 8941   5.366   0.928   5.171  0.3268 -0.0777 -0.1738
 2294SOL    HW2 8942   5.380   0.918   5.265  1.0538  0.6993 -0.1846
 2294SOL    HW3 8943   5.354   0.838   5.138  0.4384 -0.3799  0.6002
 2294SOL    MW4 8944   5.366   0.915   5.179  0.2929  0.1891 -0.3211
 2295SOL     OW 8945   3.742   5.070   2.458 -0.2645 -0.4582  0.0902
 2295SOL    HW2 8946   3.771   5.159   2.438 -0.3944 -0.5444 -0.4896
 2295SOL    HW3 8947   3.724   5.030   2.373  0.7348 -1.3635  0.2750
 2295SOL    MW4 8948   3.744   5.076   2.444  0.4051  0.5816  0.0877
 2296SOL     OW 8949   1.645   1.094   3.405  0.2108 -0.4550  0.0410
 2296SOL    HW2 8950   1.578   1.161   3.422 -0.7810 -1.1553 -0.9217
 2296SOL    HW3 8951   1.705   1.136   3.344 -1.2408 -0.8679 -1.7684
 2296SOL    MW4 8952   1.644   1.108   3.399  0.3888 -0.2402  0.3321
 2297SOL     OW 8953   3.217   2.093   2.928 -0.0460 -0.2322  0.0079
 2297SOL    HW2 8954   3.301   2.126   2.896  0.2168  0.1203  1.0450
 2297SOL    HW3 8955   3.175   2.169   2.969 -0.8186 -0.4362 -0.3787
 2297SOL    MW4 8956   3.223   2.108   2.929 -0.2314  0.1404 -0.8502
 2298SOL     OW 8957   6.376   2.695   2.295 -0.0868  0.3652  0.1472
 2298SOL    HW2 8958   6.338   2.609   2.276 -0.5295  0.3603  0.9636
 2298SOL    HW3 8959   6.458   2.675   2.341  1.2305  0.3679 -2.0460
 2298SOL    MW4 8960   6.382   2.681   2.299 -0.0588 -0.1246  0.1288
 2299SOL     OW 8961   1.495   0.720   0.747  0.0715  0.2034  0.2110
 2299SOL    HW2 8962   1.455   0.692   0.664 -1.8134  0.7223  0.8985
 2299SOL    HW3 8963   1.546   0.644   0.775 -1.5770 -1.0611 -0.0314
 2299SOL    MW4 8964   1.496   0.706   0.739 -0.6956  0.2399  0.5072
 2300SOL     OW 8965   1.087   6.125   1.449  0.0281  0.3050  0.1626
 2300SOL    HW2 8966   1.085   6.141   1.355  2.3799  1.4342  0.2410
 2300SOL    HW3 8967   1.068   6.031   1.458 -2.7038  0.6327 -1.1765
 2300SOL    MW4 8968   1.085   6.115   1.438 -0.4324 -0.3508 -1.2090
 2301SOL     OW 8969   4.582   0.545   6.152 -0.0377 -0.3194  0.0353
 2301SOL    HW2 8970   4.555   0.607   6.084 -0.2691  0.5479  0.8886
 2301SOL    HW3 8971   4.677   0.541   6.144 -0.1445 -1.2565 -1.1814
 2301SOL    MW4 8972   4.591   0.553   6.142 -0.0017 -0.3026  0.0894
 2302SOL     OW 8973   2.050   0.817   0.757 -0.2395 -0.0378 -0.0331
 2302SOL    HW2 8974   1.990   0.750   0.790  0.4429  0.0405  1.4374
 2302SOL    HW3 8975   2.006   0.851   0.678 -0.9737 -1.6318 -0.3657
 2302SOL    MW4 8976   2.036   0.813   0.751  0.0043  0.3468 -0.0317
 2303SOL     OW 8977   1.725   3.889   5.190 -0.4063  0.2889  0.6147
 2303SOL    HW2 8978   1.681   3.940   5.258  0.5206  1.3376  0.4453
 2303SOL    HW3 8979   1.662   3.885   5.118 -0.3688  1.4992  0.4976
 2303SOL    MW4 8980   1.711   3.895   5.189  0.7210 -0.3361 -0.2166
 2304SOL     OW 8981   2.805   0.467   5.230 -0.4947  0.2006  0.0784
 2304SOL    HW2 8982   2.773   0.385   5.193 -1.6415  0.9184 -0.5933
 2304SOL    HW3 8983   2.726   0.522   5.238  0.3450  1.4715 -0.1309
 2304SOL    MW4 8984   2.790   0.463   5.227 -0.0755  0.6197 -0.1819
 2305SOL     OW 8985   3.307   4.762   0.247  0.0961 -0.2206  0.4740
 2305SOL    HW2 8986   3.288   4.793   0.336  1.4863 -0.4317  0.8665
 2305SOL    HW3 8987   3.241   4.695   0.231  0.1184 -0.5268  1.5443
 2305SOL    MW4 8988   3.296   4.758   0.257 -0.2907 -0.3507 -0.2198
 2306SOL     OW 8989   4.176   3.983   5.323  0.2141 -0.2915 -0.2403
 2306SOL    HW2 8990   4.162   3.894   5.356  0.9728 -0.1018  0.6501
 2306SOL    HW3 8991   4.181   3.973   5.228 -0.6769 -1.0589 -0.2199
 2306SOL    MW4 8992   4.175   3.970   5.315  0.0861  0.5121 -0.1463
 2307SOL     OW 8993   0.238   0.225   1.766 -0.0552  0.3673 -0.1765
 2307SOL    HW2 8994   0.151   0.266   1.764  0.5558  1.8651  1.2349
 2307SOL    HW3 8995   0.282   0.259   1.688  0.4270  2.5350  0.9483
 2307SOL    MW4 8996   0.232   0.235   1.755  0.0242 -0.0341 -0.0162
 2308SOL     OW 8997   0.121   2.122   3.283  0.4010 -0.2750  0.4762
 2308SOL    HW2 8998   0.036   2.114   3.240  0.4136  1.3391  0.0910
 2308SOL    HW3 8999   0.182   2.076   3.225 -0.1911 -1.4488  0.7611
 2308SOL    MW4 9000   0.118   2.115   3.270  0.0815  0.1121  0.2672
 2309SOL     OW 9001   1.079   3.835   4.538 -0.1594 -0.2876 -0.3349
 2309SOL    HW2 9002   1.072   3.917   4.490  1.9658 -0.1362 -0.4829
 2309SOL    HW3 9003   1.150   3.849   4.600 -1.9930 -0.8979  2.0808
 2309SOL    MW4 9004   1.087   3.848   4.540  0.0531  0.3712  0.7702
 2310SOL     OW 9005   4.792   0.925   2.944 -0.5528 -0.4423 -0.3517
 2310SOL    HW2 9006   4.837   0.880   3.016 -1.1096  1.8643  1.5782
 2310SOL    HW3 9007   4.857   0.983   2.907 -1.0648  0.6376  0.3921
 2310SOL    MW4 9008   4.806   0.927   2.949 -0.0281 -0.3194  0.0926
 2311SOL     OW 9009   5.212   0.480   4.523  0.4061  0.1459  0.3221
 2311SOL    HW2 9010   5.213   0.388   4.497  1.0460  0.1485  0.3308
 2311SOL    HW3 9011   5.302   0.510   4.510  0.3026  0.6530  0.7415
 2311SOL    MW4 9012   5.224   0.472   4.518  0.7717  0.3527 -0.0563
 2312SOL     OW 9013   5.205   3.291   0.607  0.4683 -0.0420  0.4310
 2312SOL    HW2 9014   5.271   3.228   0.577  1.8739 -0.5065  3.9595
 2312SOL    HW3 9015   5.254   3.356   0.657 -1.3511  2.0612 -0.3513
 2312SOL    MW4 9016   5.220   3.291   0.610  0.0504  0.2351  0.1446
 2313SOL     OW 9017   2.874   2.937   2.791  0.2979 -0.5345 -0.4190
 2313SOL    HW2 9018   2.794   2.928   2.843  0.8794 -1.3507  0.3784
 2313SOL    HW3 9019   2.851   2.899   2.706 -1.0007  1.7994 -1.2067
 2313SOL    MW4 9020   2.860   2.931   2.787  0.0347  0.2878  0.5884
 2314SOL     OW 9021   3.469   1.727   3.823  0.0730  0.2844 -0.3026
 2314SOL    HW2 9022   3.402   1.703   3.758 -1.4023 -0.2504  1.3062
 2314SOL    HW3 9023   3.532   1.655   3.820 -0.3811 -0.1075 -0.6227
 2314SOL    MW4 9024   3.468   1.714   3.814 -0.1428  0.3672 -0.1462
 2315SOL     OW 9025   3.998   4.992   4.118  0.0150  0.0259  0.1149
 2315SOL    HW2 9026   4.038   4.925   4.063  0.1499 -0.0522  0.3025
 2315SOL    HW3 9027   4.060   5.002   4.191 -0.3615 -0.1738  0.4665
 2315SOL    MW4 9028   4.012   4.985   4.121  0.3399 -0.2637 -0.0017
 2316SOL     OW 9029   3.744   1.502   6.296 -0.1212 -0.3991 -0.4460
 2316SOL    HW2 9030   3.708   1.480   6.382 -0.5157  1.2007 -0.1677
 2316SOL    HW3 9031   3.668   1.526   6.244  0.2742  0.3191 -0.7050
 2316SOL    MW4 9032   3.729   1.503   6.300  0.2127  0.2650  0.0236
 2317SOL     OW 9033   0.677   4.673   2.557  0.3255  0.0032  0.0530
 2317SOL    HW2 9034   0.600   4.632   2.595  0.2538  1.8128  2.0740
 2317SOL    HW3 9035   0.685   4.635   2.470 -1.9462 -1.3286  0.3652
 2317SOL    MW4 9036   0.668   4.663   2.551 -0.0698 -0.1185 -0.2932
 2318SOL     OW 9037   1.734   1.852   3.558  0.2779  0.0997 -0.2591
 2318SOL    HW2 9038   1.776   1.922   3.507  0.1813  0.2177 -0.1786
 2318SOL    HW3 9039   1.647   1.843   3.519  0.2939  0.0169 -0.2758
 2318SOL    MW4 9040   1.728   1.860   3.546 -0.1453 -0.9130 -0.3208
 2319SOL     OW 9041   2.607   5.812   0.974  0.2255 -0.0729  0.0829
 2319SOL    HW2 9042   2.545   5.852   1.035 -0.5587  0.3148 -0.9431
 2319SOL    HW3 9043   2.672   5.880   0.957  0.4395 -0.1779  0.4575
 2319SOL    MW4 9044   2.608   5.826   0.980  0.7111  0.0644  0.2512
 2320SOL     OW 9045   6.230   4.204   3.650 -0.0611 -0.7375 -0.0426
 2320SOL    HW2 9046   6.175   4.272   3.689  0.8415 -0.5490  0.9807
 2320SOL    HW3 9047   6.291   4.252   3.594  2.5052 -0.2105  2.8753
 2320SOL    MW4 9048   6.231   4.219   3.648 -0.2144 -0.5592 -0.3208
 2321SOL     OW 9049   1.526   3.551   3.616 -0.5504 -0.2647 -0.1726
 2321SOL    HW2 9050   1.579   3.500   3.555 -1.5471 -0.3748 -0.9769
 2321SOL    HW3 9051   1.580   3.626   3.639 -0.4772  0.2524 -1.9102
 2321SOL    MW4 9052   1.540   3.554   3.611  0.6687 -0.0246  0.2603
 2322SOL     OW 9053   3.140   5.432   5.836  0.1267  0.5028 -0.1494
 2322SOL    HW2 9054   3.133   5.363   5.771  0.5901 -0.0898  0.4066
 2322SOL    HW3 9055   3.220   5.480   5.813  0.7241 -0.1951  0.4200
 2322SOL    MW4 9056   3.150   5.429   5.825  0.9143 -0.1118 -1.0439
 2323SOL     OW 9057   6.315   6.424   2.772  0.5828  0.0171  0.0977
 2323SOL    HW2 9058   6.336   6.517   2.765  1.4734 -0.1836 -0.0016
 2323SOL    HW3 9059   6.338   6.401   2.862 -1.8937  0.4139  0.9268
 2323SOL    MW4 9060   6.321   6.433   2.783  0.0872 -0.2146 -0.3573
 2324SOL     OW 9061   1.015   0.376   0.657  0.0792 -0.3328 -0.2887
 2324SOL    HW2 9062   0.986   0.466   0.672 -0.1986 -0.6898  1.5966
 2324SOL    HW3 9063   1.109   0.384   0.640  0.1698  0.2712  0.4325
 2324SOL    MW4 9064   1.024   0.389   0.657  0.3922  1.0269 -0.0354
 2325SOL     OW 9065   2.844   6.012   0.900  0.5892  0.2462  0.5409
 2325SOL    HW2 9066   2.843   5.993   0.806  0.1592 -1.2397  0.8227
 2325SOL    HW3 9067   2.932   5.991   0.928  0.6335  0.4149  0.5311
 2325SOL    MW4 9068   2.855   6.007   0.891 -0.5576  0.5943  0.3350
 2326SOL     OW 9069   2.983   0.318   4.599  0.2490  0.1133 -0.0259
 2326SOL    HW2 9070   3.057   0.378   4.602  0.1803  0.1770  0.7315
 2326SOL    HW3 9071   3.023   0.231   4.590  0.3583  0.2470 -0.8663
 2326SOL    MW4 9072   2.998   0.314   4.598  0.2349 -0.5248 -0.5317
 2327SOL     OW 9073   2.165   0.691   1.205  0.1653  0.0096  0.4564
 2327SOL    HW2 9074   2.105   0.763   1.225 -0.0727 -0.2646  0.7387
 2327SOL    HW3 9075   2.252   0.727   1.221  0.1254  0.6114 -0.5556
 2327SOL    MW4 9076   2.169   0.705   1.209  0.1609  0.0352 -0.4367
 2328SOL     OW 9077   3.552   5.343   2.646 -0.2320 -0.8571 -0.4865
 2328SOL    HW2 9078   3.547   5.366   2.554  1.6173 -1.9000 -0.8784
 2328SOL    HW3 9079   3.637   5.375   2.675 -1.0287  0.0127  1.0532
 2328SOL    MW4 9080   3.562   5.351   2.638 -0.7746 -0.4780  0.9364
 2329SOL     OW 9081   4.813   5.213   3.866 -0.0691 -0.0385 -0.0868
 2329SOL    HW2 9082   4.768   5.248   3.943 -0.4194 -0.9787  0.1432
 2329SOL    HW3 9083   4.797   5.278   3.798 -1.5380 -0.2074  0.0719
 2329SOL    MW4 9084   4.805   5.226   3.867  0.3260 -0.2631 -0.0845
 2330SOL     OW 9085   0.173   5.242   0.809  0.6587 -0.0411  0.3861
 2330SOL    HW2 9086   0.229   5.316   0.784  0.0374 -0.3646 -2.2515
 2330SOL    HW3 9087   0.100   5.282   0.857  0.5862  1.0099 -0.5658
 2330SOL    MW4 9088   0.171   5.257   0.812 -0.0429 -0.8606 -0.5380
 2331SOL     OW 9089   4.310   5.607   3.310  0.1183 -0.3506  0.1213
 2331SOL    HW2 9090   4.304   5.519   3.274 -0.7072  0.0756 -0.8210
 2331SOL    HW3 9091   4.222   5.643   3.302  0.1664  0.1722  1.5478
 2331SOL    MW4 9092   4.298   5.600   3.304  0.2149  0.5265 -0.2979
 2332SOL     OW 9093   2.535   0.588   5.268  0.0403 -0.1561  0.1057
 2332SOL    HW2 9094   2.539   0.569   5.362 -0.2086 -0.8478 -0.0203
 2332SOL    HW3 9095   2.450   0.556   5.241  0.6376 -1.1958 -0.6148
 2332SOL    MW4 9096   2.525   0.582   5.277 -0.2789  0.3827  0.2485
 2333SOL     OW 9097   4.209   5.709   0.356 -0.7122 -0.1896  0.0959
 2333SOL    HW2 9098   4.136   5.648   0.346  0.1456 -1.0358 -1.5319
 2333SOL    HW3 9099   4.223   5.742   0.267  1.2888 -0.5624  0.2310
 2333SOL    MW4 9100   4.201   5.705   0.343 -0.5712 -0.0091  0.1201
 2334SOL     OW 9101   5.291   5.825   6.394 -0.0693 -0.3383  0.2495
 2334SOL    HW2 9102   5.264   5.776   6.317 -1.5940 -0.4012  0.8031
 2334SOL    HW3 9103   5.284   5.917   6.368  0.1725 -0.3668  0.0769
 2334SOL    MW4 9104   5.287   5.831   6.380  0.0358  0.1769  0.2244
 2335SOL     OW 9105   5.877   1.601   0.088 -0.2196 -0.3442  0.1848
 2335SOL    HW2 9106   5.918   1.553   0.160 -0.2150 -2.3736 -1.0960
 2335SOL    HW3 9107   5.917   1.564   0.009 -0.1381  1.8917 -0.8959
 2335SOL    MW4 9108   5.888   1.589   0.087 -0.5223 -0.1133 -0.0507
 2336SOL     OW 9109   0.735   5.202   5.676 -0.4749  0.3022 -0.2034
 2336SOL    HW2 9110   0.807   5.153   5.715 -0.3448  0.4649 -0.2360
 2336SOL    HW3 9111   0.715   5.270   5.741 -1.0318 -0.1403  0.0953
 2336SOL    MW4 9112   0.742   5.205   5.690 -0.0137  0.4438 -0.4389
 2337SOL     OW 9113   1.742   3.317   5.296  0.0887  0.0853  0.9316
 2337SOL    HW2 9114   1.732   3.396   5.349  1.1705  0.3644  0.7535
 2337SOL    HW3 9115   1.793   3.258   5.351  0.2325 -0.0626  0.6418
 2337SOL    MW4 9116   1.748   3.320   5.310  0.3893 -0.1878 -0.4007
 2338SOL     OW 9117   6.347   5.860   0.612  0.0076  0.0587  0.0470
 2338SOL    HW2 9118   6.343   5.918   0.536  1.5944 -0.5509 -0.5460
 2338SOL    HW3 9119   6.414   5.899   0.669  1.4317 -1.3733 -0.5736
 2338SOL    MW4 9120   6.355   5.873   0.610 -0.6368 -0.1261 -1.0764
 2339SOL     OW 9121   3.552   4.560   0.849 -0.1952 -0.3566  0.1067
 2339SOL    HW2 9122   3.497   4.483   0.834 -1.7679  0.5969  0.7278
 2339SOL    HW3 9123   3.588   4.581   0.763 -0.2607 -1.3923 -0.1910
 2339SOL    MW4 9124   3.550   4.553   0.836 -0.0738  0.0246  1.1191
 2340SOL     OW 9125   1.803   1.932   1.627 -0.1313  0.5419 -0.0252
 2340SOL    HW2 9126   1.880   1.936   1.684  0.1798  0.8129 -0.4516
 2340SOL    HW3 9127   1.801   1.842   1.596  0.7498  0.8253 -0.9783
 2340SOL    MW4 9128   1.813   1.921   1.630  0.0577 -0.3214  0.2689
 2341SOL     OW 9129   6.388   0.675   0.549  0.3902  0.5641 -0.2271
 2341SOL    HW2 9130   6.371   0.746   0.487  1.0688  2.7316  1.8972
 2341SOL    HW3 9131   6.483   0.662   0.545  0.5130  1.0970  0.6971
 2341SOL    MW4 9132   6.398   0.683   0.541  0.0207  0.6477 -0.3611
 2342SOL     OW 9133   4.756   5.561   4.369 -0.1909  0.2301  0.0325
 2342SOL    HW2 9134   4.838   5.537   4.324 -0.5454  0.7221 -0.8939
 2342SOL    HW3 9135   4.697   5.488   4.351  0.0415 -0.1343  0.7181
 2342SOL    MW4 9136   4.759   5.548   4.361  0.3244  0.1331  0.1949
 2343SOL     OW 9137   2.963   5.507   5.360 -0.6405  0.3885  0.2130
 2343SOL    HW2 9138   3.024   5.554   5.416 -1.5928  1.5703  0.3118
 2343SOL    HW3 9139   2.923   5.575   5.306 -0.0139 -0.6838 -1.6789
 2343SOL    MW4 9140   2.965   5.522   5.361 -0.2733  0.0537 -0.4305
 2344SOL     OW 9141   3.526   4.976   4.055 -0.3678  0.2148  0.1303
 2344SOL    HW2 9142   3.508   5.047   4.116 -0.5737  0.2839 -0.0058
 2344SOL    HW3 9143   3.548   5.020   3.973  2.5445  0.2026  0.7876
 2344SOL    MW4 9144   3.526   4.991   4.052  0.0976  0.0797  0.3619
 2345SOL     OW 9145   3.553   1.001   3.994  0.1407 -0.3053 -0.2564
 2345SOL    HW2 9146   3.486   1.043   4.048  1.2710  0.9804  0.1917
 2345SOL    HW3 9147   3.632   1.003   4.048  0.8366 -0.6972 -1.2384
 2345SOL    MW4 9148   3.554   1.007   4.008  0.1972  0.0158  0.3555
 2346SOL     OW 9149   5.887   3.752   3.558  0.0727 -0.0764 -0.0572
 2346SOL    HW2 9150   5.876   3.711   3.473  0.2834  0.5486 -0.3890
 2346SOL    HW3 9151   5.970   3.800   3.552 -1.0181  1.9156 -0.3261
 2346SOL    MW4 9152   5.896   3.753   3.546 -0.1015  0.5003  0.1421
 2347SOL     OW 9153   0.083   1.134   5.986  0.6659  0.7342 -0.1653
 2347SOL    HW2 9154   0.088   1.185   6.067  1.7082 -0.9255  0.8925
 2347SOL    HW3 9155   0.174   1.115   5.964  0.3221 -0.7927 -0.3996
 2347SOL    MW4 9156   0.096   1.138   5.994  0.0041  0.4959  1.4244
 2348SOL     OW 9157   3.353   5.119   4.937  0.0260 -0.5409  0.2117
 2348SOL    HW2 9158   3.406   5.142   4.860  0.3435  0.4394  0.7082
 2348SOL    HW3 9159   3.395   5.042   4.974  0.6040 -0.2806  0.1045
 2348SOL    MW4 9160   3.365   5.112   4.931 -0.2687  0.4432 -0.3591
 2349SOL     OW 9161   3.734   2.159   3.377  0.0064 -0.4607  0.6011
 2349SOL    HW2 9162   3.664   2.169   3.313 -0.7855 -0.7195  1.4139
 2349SOL    HW3 9163   3.690   2.156   3.461  0.8903 -1.7916  1.0527
 2349SOL    MW4 9164   3.719   2.160   3.379 -0.0463 -0.1801 -0.2935
 2350SOL     OW 9165   0.454   2.207   3.599 -0.0568 -0.4263 -0.1283
 2350SOL    HW2 9166   0.457   2.177   3.690 -1.1582 -0.0103  0.0555
 2350SOL    HW3 9167   0.363   2.232   3.584  0.2753  0.2741 -1.1086
 2350SOL    MW4 9168   0.443   2.206   3.609 -0.1207  0.2959 -0.4125
 2351SOL     OW 9169   5.794   4.924   1.754 -0.1990 -0.4562 -0.1745
 2351SOL    HW2 9170   5.877   4.907   1.797 -0.4062  0.2983  0.5461
 2351SOL    HW3 9171   5.763   4.837   1.727  0.7908 -0.7456 -0.4208
 2351SOL    MW4 9172   5.801   4.910   1.756 -0.3981 -0.2508 -0.1614
 2352SOL     OW 9173   2.233   1.793   2.181  0.7567  0.3412  0.3195
 2352SOL    HW2 9174   2.284   1.811   2.102  0.4397  1.8007  0.4160
 2352SOL    HW3 9175   2.295   1.751   2.241  1.8965  2.1095  0.4450
 2352SOL    MW4 9176   2.248   1.790   2.179  0.2182 -0.0644  0.4347
 2353SOL     OW 9177   0.666   5.920   2.424  0.6692  0.2565 -0.1669
 2353SOL    HW2 9178   0.639   5.860   2.493 -1.6686 -0.4750 -1.5540
 2353SOL    HW3 9179   0.738   5.875   2.379  1.0605 -0.0328  0.7344
 2353SOL    MW4 9180   0.672   5.906   2.427 -0.1262 -0.3013 -0.0795
 2354SOL     OW 9181   3.673   3.163   3.912  0.6832 -0.3304 -0.2468
 2354SOL    HW2 9182   3.730   3.186   3.985  0.5727  0.0865 -0.2879
 2354SOL    HW3 9183   3.733   3.153   3.838  0.7190 -0.0135 -0.2625
 2354SOL    MW4 9184   3.689   3.165   3.912  0.2179 -0.4191  0.0074
 2355SOL     OW 9185   6.025   4.706   4.131  0.4418 -0.1085  0.1122
 2355SOL    HW2 9186   5.993   4.656   4.056 -0.7382  0.5427  0.1692
 2355SOL    HW3 9187   6.057   4.788   4.094  1.0854 -0.3244  0.1792
 2355SOL    MW4 9188   6.025   4.710   4.116  0.3473  0.2113 -0.0499
 2356SOL     OW 9189   4.257   5.478   1.925  0.2399 -0.4927 -0.7073
 2356SOL    HW2 9190   4.200   5.537   1.975  0.2261 -2.2636  1.5488
 2356SOL    HW3 9191   4.207   5.459   1.845 -0.9339  0.4112 -0.2334
 2356SOL    MW4 9192   4.243   5.484   1.921  0.0398  0.2241  0.1615
 2357SOL     OW 9193   1.845   1.891   0.306  0.3168 -0.1667 -0.8308
 2357SOL    HW2 9194   1.754   1.888   0.278 -0.0284  0.1005  0.2409
 2357SOL    HW3 9195   1.860   1.982   0.332  0.5010 -0.4885  0.2315
 2357SOL    MW4 9196   1.835   1.902   0.305  0.3822 -0.1934  0.5244
 2358SOL     OW 9197   4.515   6.204   6.209 -0.4309 -0.0365 -0.1760
 2358SOL    HW2 9198   4.485   6.128   6.159  0.6688  0.2728 -1.3545
 2358SOL    HW3 9199   4.447   6.270   6.194  0.3534  0.3831 -2.1357
 2358SOL    MW4 9200   4.502   6.203   6.200 -0.2460  0.1825  0.4223
 2359SOL     OW 9201   5.911   0.352   1.179 -0.4289  0.4949 -0.1790
 2359SOL    HW2 9202   5.983   0.291   1.163  0.2833  0.5522  2.3390
 2359SOL    HW3 9203   5.936   0.431   1.131 -0.5962 -0.6334 -2.1998
 2359SOL    MW4 9204   5.924   0.354   1.171 -0.0317 -0.0521  0.1667
 2360SOL     OW 9205   0.019   0.721   4.720  0.5353 -0.0446 -0.0279
 2360SOL    HW2 9206  -0.070   0.692   4.740 -0.1222  1.8149 -0.0112
 2360SOL    HW3 9207   0.021   0.730   4.625  0.5421  0.3648  0.0080
 2360SOL    MW4 9208   0.008   0.718   4.710 -0.5205 -0.5595  0.0797
 2361SOL     OW 9209   3.883   1.615   1.799  0.3079  0.0783  0.2252
 2361SOL    HW2 9210   3.884   1.710   1.801 -1.1483  0.1170  1.2917
 2361SOL    HW3 9211   3.970   1.589   1.829  0.0406  1.1098  2.0666
 2361SOL    MW4 9212   3.895   1.624   1.803  0.1084  0.3495  0.5436
 2362SOL     OW 9213   1.856   4.989   4.050 -0.1450 -0.0422  0.1354
 2362SOL    HW2 9214   1.877   4.933   3.975  0.2909 -0.7362  0.7533
 2362SOL    HW3 9215   1.808   5.063   4.013  0.7702  0.0352 -0.9267
 2362SOL    MW4 9216   1.852   4.991   4.035  0.5009  0.4757 -0.2978
 2363SOL     OW 9217   0.338   2.240   2.947  0.2800 -0.2926  0.1724
 2363SOL    HW2 9218   0.428   2.239   2.914 -0.2214  1.5926 -1.4357
 2363SOL    HW3 9219   0.341   2.300   3.023  0.1811  0.7950 -0.6559
 2363SOL    MW4 9220   0.350   2.248   2.953  0.2587 -0.3208  0.0191
 2364SOL     OW 9221   2.240   2.473   2.723 -0.2372 -0.8490 -0.1461
 2364SOL    HW2 9222   2.214   2.418   2.797  0.3638  0.5958  1.1794
 2364SOL    HW3 9223   2.303   2.420   2.674  0.1014 -1.4613  0.9283
 2364SOL    MW4 9224   2.245   2.459   2.726  0.3904 -0.2087 -0.2177
 2365SOL     OW 9225   2.344   1.964   0.683  0.4691  0.1006  0.3756
 2365SOL    HW2 9226   2.297   2.025   0.740  3.0324  0.4013  2.3040
 2365SOL    HW3 9227   2.426   2.008   0.663  0.8101 -1.2021 -1.3096
 2365SOL    MW4 9228   2.348   1.978   0.688 -0.3756 -0.2878 -0.5875
 2366SOL     OW 9229   4.417   3.855   4.519  0.2537 -0.1214 -0.6411
 2366SOL    HW2 9230   4.425   3.794   4.446  0.6148 -0.1210 -0.6061
 2366SOL    HW3 9231   4.345   3.913   4.495  0.3118 -0.1776 -0.9547
 2366SOL    MW4 9232   4.409   3.855   4.506  0.2511 -0.1181  0.2851
 2367SOL     OW 9233   3.277   0.868   4.462 -0.4793 -0.6106 -0.4660
 2367SOL    HW2 9234   3.185   0.895   4.474 -0.3611 -0.6632  0.6979
 2367SOL    HW3 9235   3.327   0.946   4.483 -0.2141 -1.0445  0.5985
 2367SOL    MW4 9236   3.271   0.882   4.466 -0.1728  0.8507 -0.0199
 2368SOL     OW 9237   1.203   2.709   6.204 -0.1380  0.2453 -0.1663
 2368SOL    HW2 9238   1.280   2.748   6.247  0.5710 -2.0897  0.8033
 2368SOL    HW3 9239   1.223   2.616   6.198 -0.9229  0.1642 -4.1666
 2368SOL    MW4 9240   1.216   2.702   6.209  0.2214  0.1094 -0.0497
 2369SOL     OW 9241   5.630   0.602   3.516 -0.0053 -0.2422 -0.0898
 2369SOL    HW2 9242   5.708   0.547   3.517  1.2992  1.4426 -1.6953
 2369SOL    HW3 9243   5.649   0.672   3.579 -0.2434  0.1418 -0.4417
 2369SOL    MW4 9244   5.643   0.604   3.525  0.6362 -0.0553  0.3779
 2370SOL     OW 9245   5.966   4.617   1.910  0.7027 -0.3507 -0.2992
 2370SOL    HW2 9246   5.966   4.711   1.925 -0.7387 -0.3231 -0.3115
 2370SOL    HW3 9247   6.009   4.580   1.987 -1.0596  0.1728  1.0027
 2370SOL    MW4 9248   5.972   4.625   1.922  0.4729 -0.1933 -0.2102
 2371SOL     OW 9249   1.059   4.974   5.001 -0.1296  0.4426 -0.1866
 2371SOL    HW2 9250   1.102   4.924   5.070  3.1184 -0.0966 -2.3797
 2371SOL    HW3 9251   1.057   5.064   5.034  0.8493  0.1082  0.8337
 2371SOL    MW4 9252   1.064   4.979   5.014 -0.6291  0.5152 -0.0898
 2372SOL     OW 9253   2.174   2.054   5.087 -0.4773 -0.0537  0.1078
 2372SOL    HW2 9254   2.221   2.006   5.018 -1.3599  0.5449 -0.9569
 2372SOL    HW3 9255   2.083   2.025   5.078 -0.5207 -0.3615  1.3954
 2372SOL    MW4 9256   2.168   2.044   5.076 -0.1491 -0.7782  0.1091
 2373SOL     OW 9257   0.818   0.318   6.153 -0.0321  0.0590 -0.7169
 2373SOL    HW2 9258   0.864   0.236   6.135 -1.4713 -0.9515  0.0053
 2373SOL    HW3 9259   0.750   0.323   6.086 -0.7295  0.0094 -0.0351
 2373SOL    MW4 9260   0.815   0.308   6.142  0.4509 -0.0717 -0.5180
 2374SOL     OW 9261   1.413   4.605   1.903  0.4414 -0.2879  0.2203
 2374SOL    HW2 9262   1.368   4.669   1.848  1.9504 -1.1635 -2.1720
 2374SOL    HW3 9263   1.419   4.648   1.988 -1.7711  1.2319 -0.2864
 2374SOL    MW4 9264   1.408   4.619   1.907 -0.4707  0.4539  0.9493
 2375SOL     OW 9265   1.434   4.409   5.655 -0.4429 -0.3945  0.2279
 2375SOL    HW2 9266   1.403   4.486   5.607  1.5357  1.4757  1.7638
 2375SOL    HW3 9267   1.528   4.406   5.637 -0.3070 -1.8541  1.0409
 2375SOL    MW4 9268   1.442   4.419   5.646 -0.1438  0.6272 -0.2557
 2376SOL     OW 9269   0.300   1.783   2.349  0.3111 -0.0026  0.5808
 2376SOL    HW2 9270   0.238   1.742   2.409 -1.1484  0.7939 -0.3462
 2376SOL    HW3 9271   0.288   1.738   2.266  0.4231  0.6797  0.1909
 2376SOL    MW4 9272   0.290   1.772   2.346  0.1093  0.6489  0.3692
 2377SOL     OW 9273   3.096   2.266   5.270  0.1530  0.3180 -0.2987
 2377SOL    HW2 9274   3.028   2.229   5.214 -0.8215 -0.4761  1.3326
 2377SOL    HW3 9275   3.069   2.356   5.286 -0.2167  0.1845 -0.1491
 2377SOL    MW4 9276   3.084   2.273   5.265  0.7941  0.5194  0.2141
 2378SOL     OW 9277   3.702   3.236   0.347  0.1415 -0.2269 -0.2608
 2378SOL    HW2 9278   3.663   3.167   0.401 -1.0313  1.3349  0.9710
 2378SOL    HW3 9279   3.724   3.306   0.409  1.0730  0.6390 -1.5002
 2378SOL    MW4 9280   3.700   3.236   0.363  0.1587 -0.2856  0.6647
 2379SOL     OW 9281   1.732   2.710   0.778  0.1301 -0.4661  0.1437
 2379SOL    HW2 9282   1.697   2.644   0.718 -1.0698 -0.5124  0.8781
 2379SOL    HW3 9283   1.677   2.787   0.765 -0.0005 -0.4017  1.0019
 2379SOL    MW4 9284   1.720   2.711   0.768  0.2130 -0.3573 -0.6249
 2380SOL     OW 9285   0.452   1.698   1.936  0.7782 -0.4458 -0.8810
 2380SOL    HW2 9286   0.477   1.782   1.899 -0.0676  1.4437  2.4159
 2380SOL    HW3 9287   0.529   1.668   1.983 -0.2632  1.1728  2.1703
 2380SOL    MW4 9288   0.465   1.705   1.937  0.0666 -0.2170  0.2564
 2381SOL     OW 9289   3.693   5.202   0.954  0.3355  0.3755  0.5973
 2381SOL    HW2 9290   3.768   5.184   0.898 -0.4602  1.7253 -1.0144
 2381SOL    HW3 9291   3.628   5.135   0.930  0.8653 -0.5775  1.7409
 2381SOL    MW4 9292   3.694   5.191   0.943  0.4108  0.1438  0.1167
 2382SOL     OW 9293   4.425   0.574   1.527  0.3171 -0.1412  0.1977
 2382SOL    HW2 9294   4.476   0.495   1.544 -1.0307 -0.7465  1.7669
 2382SOL    HW3 9295   4.488   0.646   1.535  0.8718 -0.7814  2.9291
 2382SOL    MW4 9296   4.440   0.573   1.531  0.0391  0.0567  0.2632
 2383SOL     OW 9297   5.378   3.749   3.100 -0.4428  0.1384 -0.4537
 2383SOL    HW2 9298   5.383   3.670   3.154 -1.6636 -0.5245 -1.2660
 2383SOL    HW3 9299   5.373   3.820   3.163 -0.3965 -0.5094  0.3047
 2383SOL    MW4 9300   5.378   3.748   3.115  0.1297 -0.1006 -0.6504
 2384SOL     OW 9301   2.867   6.269   0.757  0.6446 -0.4251 -0.6577
 2384SOL    HW2 9302   2.939   6.220   0.718  0.1997 -1.3171 -0.3790
 2384SOL    HW3 9303   2.839   6.216   0.832 -0.7629 -0.4481 -1.1717
 2384SOL    MW4 9304   2.873   6.256   0.762  0.0191  0.3547 -0.4147
 2385SOL     OW 9305   2.332   3.655   2.034  0.9170 -0.2160  0.3250
 2385SOL    HW2 9306   2.245   3.679   2.064  0.5544 -0.8226 -0.1951
 2385SOL    HW3 9307   2.370   3.606   2.106  0.2242 -1.2828 -0.0061
 2385SOL    MW4 9308   2.325   3.652   2.047 -0.0616 -0.0919 -0.1144
 2386SOL     OW 9309   0.814   0.474   3.851  0.2843  0.0040  0.3333
 2386SOL    HW2 9310   0.765   0.413   3.796 -0.3181  0.2443  0.5904
 2386SOL    HW3 9311   0.906   0.448   3.840  0.0923 -0.5332 -0.0592
 2386SOL    MW4 9312   0.820   0.463   3.842 -0.3079  0.4250 -0.3518
 2387SOL     OW 9313   6.240   3.694   6.231  0.2880 -0.0172  0.0114
 2387SOL    HW2 9314   6.251   3.777   6.186 -1.8098 -0.1723 -0.9035
 2387SOL    HW3 9315   6.265   3.628   6.165 -0.0935 -0.1646  0.0127
 2387SOL    MW4 9316   6.245   3.696   6.216 -0.1359 -0.1269  0.1111
 2388SOL     OW 9317   0.020   0.029   4.062 -0.0038  0.4483  0.2108
 2388SOL    HW2 9318   0.032  -0.064   4.083  2.6184  0.9369  1.3052
 2388SOL    HW3 9319   0.003   0.071   4.146  0.7091  1.1941 -0.0057
 2388SOL    MW4 9320   0.019   0.022   4.076 -0.3618 -0.0345 -0.4068
 2389SOL     OW 9321   4.422   6.325   5.834 -0.0919  0.3513  0.1942
 2389SOL    HW2 9322   4.367   6.351   5.760 -0.8898 -0.5365  0.4555
 2389SOL    HW3 9323   4.470   6.249   5.803  2.1482  1.9537 -0.5286
 2389SOL    MW4 9324   4.421   6.318   5.820 -0.3442 -0.1148  0.0047
 2390SOL     OW 9325   5.594   4.816   3.036 -0.0867 -0.0702 -0.5790
 2390SOL    HW2 9326   5.532   4.799   3.107 -0.6827 -0.2926 -1.1474
 2390SOL    HW3 9327   5.639   4.896   3.063 -0.9372  0.3458 -0.3820
 2390SOL    MW4 9328   5.592   4.824   3.049 -0.5826 -0.7559 -0.0935
 2391SOL     OW 9329   0.446   3.006   6.079 -0.3373 -0.1574 -0.1923
 2391SOL    HW2 9330   0.434   3.028   6.171  0.8998 -0.4943  0.0649
 2391SOL    HW3 9331   0.519   2.945   6.078 -0.9843 -0.9514 -1.3109
 2391SOL    MW4 9332   0.454   3.001   6.091 -0.1468  0.6969 -0.4443
 2392SOL     OW 9333   0.885   0.590   6.025 -0.2578 -0.3099 -0.4163
 2392SOL    HW2 9334   0.936   0.545   6.092 -0.1380 -0.7037 -0.7662
 2392SOL    HW3 9335   0.924   0.561   5.942  0.4778  1.2107 -0.6289
 2392SOL    MW4 9336   0.897   0.580   6.023  0.3211  0.1977 -0.0853
 2393SOL     OW 9337   0.855   3.168   1.835 -0.5070  0.5773 -0.0949
 2393SOL    HW2 9338   0.841   3.109   1.910  2.4626 -0.6295 -0.3423
 2393SOL    HW3 9339   0.862   3.255   1.874 -2.0058  0.4039  0.6357
 2393SOL    MW4 9340   0.854   3.171   1.850 -0.5591 -0.3946  0.5349
 2394SOL     OW 9341   4.684   4.098   1.722 -0.0036  0.4207  0.1483
 2394SOL    HW2 9342   4.686   4.007   1.691  0.7914  1.0423 -1.7274
 2394SOL    HW3 9343   4.721   4.093   1.811 -0.3323 -1.1266  0.2275
 2394SOL    MW4 9344   4.689   4.085   1.730 -0.2919  0.0996  0.1844
 2395SOL     OW 9345   5.554   5.236   5.604  0.6776 -0.3572 -0.6488
 2395SOL    HW2 9346   5.630   5.279   5.642  1.5588 -0.9702 -1.6644
 2395SOL    HW3 9347   5.501   5.210   5.680  1.2026  0.5430  0.0519
 2395SOL    MW4 9348   5.557   5.239   5.619 -0.1371 -0.0994  0.9665
 2396SOL     OW 9349   0.908   5.570   5.676 -0.1409 -0.1363 -0.3705
 2396SOL    HW2 9350   0.971   5.638   5.697  0.3506 -0.5680 -0.4249
 2396SOL    HW3 9351   0.918   5.555   5.582  2.4184 -2.8465  0.1894
 2396SOL    MW4 9352   0.917   5.577   5.666 -0.0115  0.6214  0.2851
 2397SOL     OW 9353   0.635   4.160   2.615 -0.1435 -0.0781  0.2489
 2397SOL    HW2 9354   0.633   4.163   2.710 -0.1219 -0.0194  0.2472
 2397SOL    HW3 9355   0.573   4.091   2.592  2.0799 -2.2768  0.4235
 2397SOL    MW4 9356   0.627   4.151   2.624  0.5017  0.0347 -0.5035
 2398SOL     OW 9357   0.314   5.730   2.981 -0.2049 -0.4907  0.3871
 2398SOL    HW2 9358   0.234   5.726   2.929  0.0025 -1.1931  0.1021
 2398SOL    HW3 9359   0.284   5.727   3.072 -0.4725 -1.8561  0.2735
 2398SOL    MW4 9360   0.300   5.729   2.986 -0.1566  0.2407 -0.1050
 2399SOL     OW 9361   2.708   2.781   5.018 -0.2930  0.1459  0.4984
 2399SOL    HW2 9362   2.745   2.868   5.025 -0.8249  0.3981  0.2267
 2399SOL    HW3 9363   2.660   2.781   4.935 -0.3765 -0.3705  0.5398
 2399SOL    MW4 9364   2.707   2.792   5.008 -0.2972  0.2216 -0.0041
 2400SOL     OW 9365   0.428   3.261   0.950  0.5108  0.5697 -0.1909
 2400SOL    HW2 9366   0.368   3.318   0.902  1.1256  0.0286 -1.6723
 2400SOL    HW3 9367   0.379   3.235   1.028 -2.1501 -1.6185 -2.3366
 2400SOL    MW4 9368   0.413   3.265   0.954  0.8891  0.5849  0.3330
 2401SOL     OW 9369   5.908   2.077   2.411 -0.2268 -0.1475 -0.1355
 2401SOL    HW2 9370   5.950   2.163   2.415 -0.3324 -0.0500 -0.9597
 2401SOL    HW3 9371   5.846   2.084   2.338  0.2551 -1.1298 -0.6709
 2401SOL    MW4 9372   5.906   2.089   2.402  0.0971  0.3001 -0.2289
 2402SOL     OW 9373   2.158   3.300   5.057 -0.4109  0.5300  0.8179
 2402SOL    HW2 9374   2.072   3.306   5.017  0.1811  0.7067 -0.4710
 2402SOL    HW3 9375   2.201   3.228   5.012 -0.4622 -0.6975  2.6396
 2402SOL    MW4 9376   2.152   3.292   5.046 -0.2243  0.1539  0.4273
 2403SOL     OW 9377   3.125   1.353   0.368  0.5544  0.3084 -0.6551
 2403SOL    HW2 9378   3.119   1.311   0.454  1.0861  1.5207  0.0032
 2403SOL    HW3 9379   3.090   1.441   0.383  2.6285  1.2534 -1.1426
 2403SOL    MW4 9380   3.119   1.359   0.382  0.9295 -0.3251  0.1867
 2404SOL     OW 9381   1.658   4.407   0.880 -0.0905  0.0177 -0.5236
 2404SOL    HW2 9382   1.621   4.442   0.799 -2.0610 -1.1372 -0.1796
 2404SOL    HW3 9383   1.726   4.347   0.852 -0.0412  0.4214 -1.2767
 2404SOL    MW4 9384   1.662   4.404   0.866  0.0937  0.4358 -0.0573
 2405SOL     OW 9385   4.898   0.979   4.000 -0.4151 -0.3656  0.4524
 2405SOL    HW2 9386   4.805   1.003   4.007 -0.4986 -0.6641  0.4107
 2405SOL    HW3 9387   4.912   0.969   3.906  0.0432  1.1288  0.3393
 2405SOL    MW4 9388   4.887   0.981   3.988  0.0690  0.8320  0.0885
 2406SOL     OW 9389   4.599   3.125   5.932 -0.4148 -0.3692 -0.9122
 2406SOL    HW2 9390   4.615   3.160   6.020  0.0675  0.2305 -1.2273
 2406SOL    HW3 9391   4.663   3.170   5.877 -0.2862 -1.2125 -1.4634
 2406SOL    MW4 9392   4.610   3.136   5.936  0.2262 -0.3510  0.2321
 2407SOL     OW 9393   5.339   4.552   0.117  0.1782 -0.0120  0.5385
 2407SOL    HW2 9394   5.357   4.466   0.154  0.0383 -0.4548 -0.4005
 2407SOL    HW3 9395   5.391   4.612   0.171 -0.2988 -0.5857  1.6627
 2407SOL    MW4 9396   5.348   4.549   0.129 -0.1439  0.3490 -0.0707
 2408SOL     OW 9397   5.467   4.356   6.057  0.1213 -0.2783  0.5828
 2408SOL    HW2 9398   5.444   4.271   6.020 -1.5613  0.0806  0.7020
 2408SOL    HW3 9399   5.461   4.344   6.152 -1.2787  0.2186  0.5904
 2408SOL    MW4 9400   5.463   4.343   6.065  0.1280 -0.5057 -0.2284
 2409SOL     OW 9401   6.114   1.598   1.602 -0.1698  0.0403  0.0348
 2409SOL    HW2 9402   6.195   1.627   1.560 -1.2118  1.7017 -0.9589
 2409SOL    HW3 9403   6.045   1.629   1.543 -1.5377 -1.3619  0.8376
 2409SOL    MW4 9404   6.116   1.606   1.588  0.4840  0.0494  0.0582
 2410SOL     OW 9405   4.982   5.758   3.459 -0.0416  0.4688  0.1873
 2410SOL    HW2 9406   4.902   5.732   3.414  0.6310 -2.7654  0.6407
 2410SOL    HW3 9407   5.053   5.738   3.398  0.5609  1.6145  0.4703
 2410SOL    MW4 9408   4.981   5.752   3.445 -0.0535 -0.5240 -0.1451
 2411SOL     OW 9409   2.788   5.267   2.916  0.3868  0.2066  0.2481
 2411SOL    HW2 9410   2.701   5.266   2.957  0.4842  0.5856  0.4616
 2411SOL    HW3 9411   2.771   5.284   2.824  0.1940 -0.2709  0.1929
 2411SOL    MW4 9412   2.774   5.269   2.909 -0.0464  0.5220  0.8559
 2412SOL     OW 9413   2.820   5.395   5.034  0.1173  0.5127 -0.3020
 2412SOL    HW2 9414   2.778   5.348   4.961 -1.1344 -0.2496  0.8603
 2412SOL    HW3 9415   2.847   5.326   5.094  1.5958  1.1050 -0.2467
 2412SOL    MW4 9416   2.818   5.380   5.032 -0.2581 -0.1046  1.4090
 2413SOL     OW 9417   4.896   5.633   2.089 -0.2494  0.3162 -0.0187
 2413SOL    HW2 9418   4.959   5.580   2.138 -0.0419  0.3244 -0.2727
 2413SOL    HW3 9419   4.935   5.721   2.087 -0.6166  0.4928  0.4463
 2413SOL    MW4 9420   4.909   5.638   2.095  0.7937 -0.3276  0.6607
 2414SOL     OW 9421   6.137   0.118   3.220  0.0429  0.5850 -0.6731
 2414SOL    HW2 9422   6.178   0.114   3.307  0.4650  0.5126 -0.8764
 2414SOL    HW3 9423   6.051   0.156   3.237 -0.5262 -0.9238  0.0136
 2414SOL    MW4 9424   6.131   0.122   3.234 -0.2672 -0.0593 -0.0939
 2415SOL     OW 9425   3.422   3.813   3.598 -0.2939  0.6242  0.3243
 2415SOL    HW2 9426   3.339   3.862   3.607 -0.8180  0.1022 -1.4427
 2415SOL    HW3 9427   3.423   3.783   3.508  1.1905 -0.5838  0.7082
 2415SOL    MW4 9428   3.411   3.816   3.588  0.0591  0.5613 -0.3931
 2416SOL     OW 9429   5.236   2.835   2.201 -0.0256 -0.3578  0.8372
 2416SOL    HW2 9430   5.141   2.835   2.214 -0.1969 -0.6741 -0.3146
 2416SOL    HW3 9431   5.259   2.927   2.191 -0.3043 -0.3277  0.4807
 2416SOL    MW4 9432   5.226   2.847   2.202  0.2966  0.6698 -0.6660
 2417SOL     OW 9433   1.771   3.055   3.601 -0.2802  0.2657 -0.2752
 2417SOL    HW2 9434   1.678   3.054   3.622 -0.2988  0.9170 -0.2920
 2417SOL    HW3 9435   1.803   3.139   3.635  0.6262 -0.5887  1.0560
 2417SOL    MW4 9436   1.763   3.066   3.608  0.6754 -0.1638  0.4753
 2418SOL     OW 9437   1.284   2.912   5.174 -0.3337 -0.5866 -0.3497
 2418SOL    HW2 9438   1.267   2.999   5.138  4.1123  0.2404 -1.0264
 2418SOL    HW3 9439   1.197   2.873   5.185 -2.3994  2.8952 -2.4888
 2418SOL    MW4 9440   1.270   2.919   5.171 -0.0180  0.1434 -0.0400
 2419SOL     OW 9441   0.319   2.624   2.083 -0.2238  0.1562 -0.1959
 2419SOL    HW2 9442   0.364   2.544   2.057  0.6990  0.8037 -0.6282
 2419SOL    HW3 9443   0.232   2.617   2.043  0.6194  0.4040 -2.2046
 2419SOL    MW4 9444   0.313   2.612   2.074  0.2197 -0.1291  0.3903
 2420SOL     OW 9445   5.337   5.680   1.584 -0.3987 -0.5886 -0.3875
 2420SOL    HW2 9446   5.250   5.667   1.548 -0.2601  0.3505 -1.1115
 2420SOL    HW3 9447   5.380   5.595   1.574 -0.9853 -0.8545 -0.7099
 2420SOL    MW4 9448   5.332   5.667   1.578  0.1999 -0.1338 -0.4416
 2421SOL     OW 9449   0.200   3.728   4.886  0.8844  0.7366 -0.1932
 2421SOL    HW2 9450   0.241   3.719   4.800  1.8022 -0.8103  0.3694
 2421SOL    HW3 9451   0.107   3.715   4.871  0.9111  1.4824 -1.0811
 2421SOL    MW4 9452   0.193   3.725   4.873 -0.3915 -0.3540  0.1457
 2422SOL     OW 9453   3.974   5.177   2.800 -0.0452  0.1547 -0.3048
 2422SOL    HW2 9454   4.032   5.122   2.748  0.7382 -0.2422  0.9410
 2422SOL    HW3 9455   3.983   5.265   2.761  1.1884  0.0443 -0.3024
 2422SOL    MW4 9456   3.983   5.182   2.788 -0.2079 -0.5663 -0.3443
 2423SOL     OW 9457   0.132   1.385   5.498 -0.4278 -0.7617  0.1983
 2423SOL    HW2 9458   0.194   1.332   5.448 -0.3459 -0.9654  0.5104
 2423SOL    HW3 9459   0.102   1.327   5.568 -0.2813 -0.3755  0.5879
 2423SOL    MW4 9460   0.136   1.370   5.501  0.1445  1.1501  0.0634
 2424SOL     OW 9461   1.453   5.460   5.941 -0.1608 -0.0885 -0.0573
 2424SOL    HW2 9462   1.510   5.456   5.864  0.2167 -0.2919  0.2268
 2424SOL    HW3 9463   1.377   5.510   5.913 -0.2434 -0.5723 -0.7005
 2424SOL    MW4 9464   1.451   5.466   5.928  0.0225 -0.2957  0.1523
 2425SOL     OW 9465   2.771   2.277   5.951 -0.4017 -0.0319 -0.3240
 2425SOL    HW2 9466   2.804   2.195   5.989  1.7279  0.8988 -0.0195
 2425SOL    HW3 9467   2.804   2.276   5.861  1.4613  1.3835  0.2840
 2425SOL    MW4 9468   2.780   2.266   5.944  0.5083 -0.2561 -0.2878
 2426SOL     OW 9469   5.526   1.755   5.554  0.4348 -0.4858 -0.4165
 2426SOL    HW2 9470   5.529   1.705   5.473  1.2484 -0.1861 -0.5851
 2426SOL    HW3 9471   5.582   1.705   5.614  0.9516  0.0104 -0.4734
 2426SOL    MW4 9472   5.534   1.742   5.551  0.2013  0.6715 -0.1602
 2427SOL     OW 9473   2.919   2.246   0.341  0.2375  0.3084  0.3632
 2427SOL    HW2 9474   2.855   2.258   0.271  0.7953 -0.5619 -0.3086
 2427SOL    HW3 9475   3.001   2.279   0.304  0.3065  0.9130  1.0273
 2427SOL    MW4 9476   2.921   2.252   0.327  0.2152 -0.3943  0.2405
 2428SOL     OW 9477   2.491   1.076   5.660 -0.6177 -0.1555 -0.4564
 2428SOL    HW2 9478   2.493   1.171   5.663  0.4364 -0.1980  0.5822
 2428SOL    HW3 9479   2.557   1.048   5.722 -2.8190 -1.5834  1.4277
 2428SOL    MW4 9480   2.500   1.085   5.669  0.0358 -0.0436  0.4909
 2429SOL     OW 9481   0.553   0.950   4.628  0.1665 -0.1714 -0.4367
 2429SOL    HW2 9482   0.469   0.937   4.584  0.1914 -0.0035 -0.5356
 2429SOL    HW3 9483   0.579   0.862   4.656 -0.7540 -0.0528  0.9157
 2429SOL    MW4 9484   0.545   0.937   4.626  0.1247 -0.5752  0.6132
 2430SOL     OW 9485   1.978   3.935   5.063  0.0546  0.0759  0.4390
 2430SOL    HW2 9486   2.011   3.871   5.000  0.4199  1.0601 -0.4143
 2430SOL    HW3 9487   1.897   3.896   5.097 -0.0256 -0.5901 -0.4728
 2430SOL    MW4 9488   1.971   3.922   5.059  0.3069 -0.2497 -0.5132
 2431SOL     OW 9489   5.881   6.264   2.914 -0.0156  0.8294  0.5364
 2431SOL    HW2 9490   5.875   6.347   2.866  1.5032  1.8232  1.9728
 2431SOL    HW3 9491   5.959   6.221   2.879 -0.7106  0.0487 -0.0918
 2431SOL    MW4 9492   5.890   6.270   2.903 -0.2269 -0.5204  0.1500
 2432SOL     OW 9493   1.890   5.949   1.641 -0.0783  0.2136  0.1337
 2432SOL    HW2 9494   1.913   5.949   1.734  2.1625 -0.8482 -0.3671
 2432SOL    HW3 9495   1.907   5.860   1.612 -1.1453  0.4284 -1.2410
 2432SOL    MW4 9496   1.895   5.937   1.650 -0.1776  0.6177 -0.4999
 2433SOL     OW 9497   4.584   3.754   5.563  0.0546  0.4522  0.4207
 2433SOL    HW2 9498   4.601   3.833   5.511 -1.0854  0.6406  0.3133
 2433SOL    HW3 9499   4.496   3.727   5.537  0.2383 -0.5704  0.8295
 2433SOL    MW4 9500   4.575   3.761   5.552 -0.2480 -0.1041 -0.3458
 2434SOL     OW 9501   3.600   1.121   4.872 -0.2624  0.1118 -0.2001
 2434SOL    HW2 9502   3.662   1.056   4.840  0.2943  0.9196 -0.8045
 2434SOL    HW3 9503   3.567   1.164   4.792 -2.8702 -1.3769 -0.0597
 2434SOL    MW4 9504   3.604   1.118   4.857  0.5647 -0.0377  0.2526
 2435SOL     OW 9505   2.922   6.151   4.338  0.0885 -0.2354 -0.1846
 2435SOL    HW2 9506   2.976   6.198   4.402 -0.6174  0.2632  0.0559
 2435SOL    HW3 9507   2.927   6.204   4.259  1.9596 -1.4771 -0.9794
 2435SOL    MW4 9508   2.930   6.164   4.336  0.4582 -0.3056  0.2426
 2436SOL     OW 9509   0.934   4.352   5.715 -0.5267  0.2225 -0.3133
 2436SOL    HW2 9510   0.883   4.334   5.636 -2.7462 -0.8883  1.2490
 2436SOL    HW3 9511   0.872   4.395   5.774  0.5977 -0.3666  1.3692
 2436SOL    MW4 9512   0.919   4.355   5.712 -0.3102 -0.5033 -0.3433
 2437SOL     OW 9513   4.175   4.691   5.878  0.1140 -0.1967  0.1451
 2437SOL    HW2 9514   4.175   4.776   5.835 -0.9721 -0.7674 -1.0462
 2437SOL    HW3 9515   4.165   4.711   5.971 -0.7705  0.9647 -0.1764
 2437SOL    MW4 9516   4.174   4.705   5.885  0.0413 -0.3831  0.8386
 2438SOL     OW 9517   4.927   2.192   2.889  0.1844 -0.5397  0.2505
 2438SOL    HW2 9518   4.866   2.181   2.962  0.8466 -0.1266  0.8761
 2438SOL    HW3 9519   4.883   2.151   2.814 -1.7441  1.4787  0.1875
 2438SOL    MW4 9520   4.913   2.185   2.889 -0.5829  0.3078 -0.1453
 2439SOL     OW 9521   1.763   0.444   4.849  0.4138 -0.2559  0.3258
 2439SOL    HW2 9522   1.691   0.422   4.908  0.9344 -0.9717  0.7094
 2439SOL    HW3 9523   1.837   0.393   4.882  0.3633 -1.8234 -1.7948
 2439SOL    MW4 9524   1.763   0.435   4.861  0.2267 -0.0571 -0.4031
 2440SOL     OW 9525   4.008   6.161   4.688 -0.4754 -0.1427 -0.4399
 2440SOL    HW2 9526   4.104   6.162   4.693 -0.5101 -0.6028  0.4718
 2440SOL    HW3 9527   3.988   6.076   4.647 -0.5300 -0.6552  0.6195
 2440SOL    MW4 9528   4.018   6.150   4.683 -0.2616  0.0122 -0.2311
 2441SOL     OW 9529   6.324   1.547   5.885  0.1317  0.3115 -0.1770
 2441SOL    HW2 9530   6.239   1.541   5.928  0.4261 -2.1603  0.1984
 2441SOL    HW3 9531   6.384   1.575   5.954  0.3464 -2.2332  0.7414
 2441SOL    MW4 9532   6.321   1.550   5.900  0.1123 -0.1172 -0.1436
 2442SOL     OW 9533   5.751   6.266   1.384 -0.1403  0.0203 -0.3399
 2442SOL    HW2 9534   5.677   6.206   1.382  0.0291 -0.2332  0.3967
 2442SOL    HW3 9535   5.777   6.276   1.293 -2.6872  2.1691 -0.9533
 2442SOL    MW4 9536   5.745   6.259   1.372  0.6905 -0.0898 -0.1186
 2443SOL     OW 9537   1.451   5.664   2.401 -0.7174  0.1395  0.2383
 2443SOL    HW2 9538   1.408   5.580   2.382  0.0673 -0.2048 -0.0407
 2443SOL    HW3 9539   1.487   5.653   2.489 -0.3706  0.0828  0.0894
 2443SOL    MW4 9540   1.450   5.651   2.410 -0.0287 -0.3148  0.0336
 2444SOL     OW 9541   1.854   0.351   3.530 -0.0464  0.4980  0.2894
 2444SOL    HW2 9542   1.814   0.422   3.581 -0.3250 -0.3150  1.2413
 2444SOL    HW3 9543   1.934   0.329   3.578 -0.8947 -1.0596  1.0748
 2444SOL    MW4 9544   1.860   0.357   3.543 -0.1002 -0.4711 -0.6618
 2445SOL     OW 9545   2.785   3.990   3.333  0.3429  0.0734  0.1685
 2445SOL    HW2 9546   2.776   3.946   3.248 -0.5565  0.9830 -0.2298
 2445SOL    HW3 9547   2.856   4.053   3.320  1.3408 -0.9242  0.6117
 2445SOL    MW4 9548   2.793   3.993   3.320  0.0119  0.4572 -0.8107
 2446SOL     OW 9549   6.203   3.105   5.634  0.3394 -0.3453 -1.2393
 2446SOL    HW2 9550   6.292   3.074   5.620  0.0228 -1.6429 -0.5412
 2446SOL    HW3 9551   6.160   3.034   5.681 -0.7516  0.7134 -0.5754
 2446SOL    MW4 9552   6.209   3.092   5.639  0.2915 -0.3354 -0.2209
 2447SOL     OW 9553   3.223   3.186   3.647  0.2149 -0.1553 -0.0527
 2447SOL    HW2 9554   3.148   3.245   3.646 -0.1387 -0.5951  0.4162
 2447SOL    HW3 9555   3.299   3.244   3.639 -0.1803  0.2611 -1.0906
 2447SOL    MW4 9556   3.223   3.202   3.646  0.7327 -0.1700  0.4649
 2448SOL     OW 9557   4.646   0.136   3.261 -0.0988  0.5382  0.3303
 2448SOL    HW2 9558   4.643   0.166   3.351  0.2891  0.5484  0.3419
 2448SOL    HW3 9559   4.740   0.125   3.242 -0.0831  1.9575 -0.5366
 2448SOL    MW4 9560   4.658   0.139   3.270 -0.2501 -0.3383  0.1030
 2449SOL     OW 9561   1.001   4.498   4.072  0.4791 -0.2385 -0.5319
 2449SOL    HW2 9562   0.926   4.546   4.038 -0.4635 -1.2182  0.0984
 2449SOL    HW3 9563   1.036   4.451   3.997  0.6543  0.4707 -0.8932
 2449SOL    MW4 9564   0.996   4.498   4.058 -0.3581  0.3891  1.2899
 2450SOL     OW 9565   4.894   3.472   2.056  0.0955 -0.4654  0.3784
 2450SOL    HW2 9566   4.808   3.484   2.016  0.1871  0.6166  0.4671
 2450SOL    HW3 9567   4.914   3.557   2.095  1.2306 -0.6856  0.3122
 2450SOL    MW4 9568   4.885   3.485   2.056  0.2507 -0.1465  0.3722
 2451SOL     OW 9569   1.934   0.739   1.593  0.0562 -0.3827 -0.2201
 2451SOL    HW2 9570   2.016   0.768   1.552  0.2687 -0.0482  0.4328
 2451SOL    HW3 9571   1.870   0.739   1.521  0.6969 -0.9510 -0.8001
 2451SOL    MW4 9572   1.936   0.743   1.578  0.0004 -0.4752  0.7342
 2452SOL     OW 9573   2.982   0.880   5.510 -0.8320  0.5862  0.0618
 2452SOL    HW2 9574   2.996   0.917   5.597 -0.4704  0.2862  0.1315
 2452SOL    HW3 9575   2.890   0.852   5.511 -0.6187 -0.1222  0.6171
 2452SOL    MW4 9576   2.971   0.881   5.522  0.1593  0.5316 -0.2531
 2453SOL     OW 9577   0.308   0.240   4.930 -0.1406 -0.2359  0.5901
 2453SOL    HW2 9578   0.220   0.204   4.934 -0.1694 -0.1479  0.7976
 2453SOL    HW3 9579   0.329   0.262   5.021  0.1647 -0.4263  0.5695
 2453SOL    MW4 9580   0.299   0.238   4.943 -0.1641  0.7862 -0.4339
 2454SOL     OW 9581   2.355   0.830   5.634  0.2391  0.1329 -0.0704
 2454SOL    HW2 9582   2.322   0.834   5.724  1.2440  1.3824  0.2591
 2454SOL    HW3 9583   2.431   0.888   5.633  0.4155 -0.0787 -1.6652
 2454SOL    MW4 9584   2.360   0.838   5.646  0.2542  0.3512  0.2581
 2455SOL     OW 9585   1.828   4.331   5.219  0.1935  0.5823  0.0237
 2455SOL    HW2 9586   1.850   4.285   5.138  1.1011  1.5688 -0.3066
 2455SOL    HW3 9587   1.732   4.337   5.218  0.0670 -0.9206 -0.1121
 2455SOL    MW4 9588   1.818   4.325   5.208  0.9476 -0.2137 -0.3411
 2456SOL     OW 9589   2.302   2.718   2.244 -0.1760 -0.3885 -0.2434
 2456SOL    HW2 9590   2.342   2.717   2.331  0.2551 -1.8317 -0.4202
 2456SOL    HW3 9591   2.286   2.810   2.226  0.0841 -0.0255  1.1997
 2456SOL    MW4 9592   2.305   2.730   2.253  0.5536  0.4174  0.5263
 2457SOL     OW 9593   0.694   0.999   6.192  0.0673  0.2826  0.0933
 2457SOL    HW2 9594   0.760   1.068   6.183 -2.1519  2.3505 -1.5874
 2457SOL    HW3 9595   0.642   1.026   6.268  0.9144 -1.2206  1.2760
 2457SOL    MW4 9596   0.696   1.012   6.201 -0.2322  0.3430 -0.1293
 2458SOL     OW 9597   5.922   2.987   1.009  0.5118  0.2562  0.2157
 2458SOL    HW2 9598   5.909   2.954   1.098 -0.9217  3.1730  1.2250
 2458SOL    HW3 9599   6.016   3.000   1.001  0.7050 -0.5246  1.1071
 2458SOL    MW4 9600   5.932   2.985   1.020  0.3225  0.3707 -0.4078
 2459SOL     OW 9601   0.791   3.415   6.225 -0.3213  0.1045 -0.0998
 2459SOL    HW2 9602   0.809   3.340   6.168 -2.5524 -0.4788 -0.1235
 2459SOL    HW3 9603   0.704   3.444   6.199 -0.8051  0.7266  2.0275
 2459SOL    MW4 9604   0.782   3.409   6.214  0.5167 -0.2091 -0.3495
 2460SOL     OW 9605   4.286   5.081   2.173 -0.4820  0.1758  0.5034
 2460SOL    HW2 9606   4.314   5.106   2.085  1.0912  0.3361  1.0189
 2460SOL    HW3 9607   4.195   5.055   2.163 -0.0195 -0.8751 -1.3689
 2460SOL    MW4 9608   4.278   5.081   2.160  0.0751 -0.0856 -0.6871
 2461SOL     OW 9609   0.402   2.791   0.050 -0.6389  0.0024 -0.1676
 2461SOL    HW2 9610   0.484   2.780   0.099 -0.8383 -0.7774  0.0134
 2461SOL    HW3 9611   0.414   2.738  -0.029 -1.7717 -1.9608  0.8918
 2461SOL    MW4 9612   0.415   2.782   0.046  0.2746  0.2188 -0.1397
 2462SOL     OW 9613   0.130   4.579   0.450  0.1326 -0.3452 -0.1201
 2462SOL    HW2 9614   0.181   4.551   0.526 -0.6258  1.1506  0.9982
 2462SOL    HW3 9615   0.110   4.498   0.404  1.8614 -1.1544  0.4492
 2462SOL    MW4 9616   0.134   4.565   0.454 -0.0772  0.6262  0.6173
 2463SOL     OW 9617   6.076   0.884   3.039  0.0809 -0.0270 -0.3321
 2463SOL    HW2 9618   6.083   0.977   3.019  1.8857 -0.3360 -1.3313
 2463SOL    HW3 9619   6.157   0.863   3.086 -0.2442 -1.1129 -0.2208
 2463SOL    MW4 9620   6.087   0.893   3.043  0.2285 -0.0715  0.6853
 2464SOL     OW 9621   0.583   4.560   4.979 -0.1278 -0.4775  0.0182
 2464SOL    HW2 9622   0.541   4.610   4.910  1.7703 -1.1830 -1.7475
 2464SOL    HW3 9623   0.595   4.473   4.942  1.8503 -0.5983  0.8192
 2464SOL    MW4 9624   0.579   4.555   4.965  0.0671  0.8408 -0.1819
 2465SOL     OW 9625   0.788   3.419   0.289 -0.0602  0.1058  0.4664
 2465SOL    HW2 9626   0.793   3.515   0.291  1.9850  0.0760 -0.3321
 2465SOL    HW3 9627   0.871   3.390   0.326  0.0859 -1.3233 -0.8744
 2465SOL    MW4 9628   0.800   3.428   0.294  0.4699  0.3751  0.1951
 2466SOL     OW 9629   5.343   6.151   2.850  0.0880 -0.6630  0.3771
 2466SOL    HW2 9630   5.425   6.189   2.819  0.6875 -1.6145  0.7474
 2466SOL    HW3 9631   5.285   6.153   2.773  1.7045 -3.4631 -1.1002
 2466SOL    MW4 9632   5.346   6.156   2.835  0.6997 -0.5505  0.1310
 2467SOL     OW 9633   1.013   3.350   5.557  0.2128 -0.2656 -0.2126
 2467SOL    HW2 9634   1.085   3.410   5.538 -1.5871  1.4570 -1.9910
 2467SOL    HW3 9635   0.988   3.314   5.472 -1.0039 -0.8641  0.3763
 2467SOL    MW4 9636   1.019   3.353   5.544  0.2409 -0.3672  0.0560
 2468SOL     OW 9637   0.498   5.209   3.622 -0.6656  1.0434  0.0443
 2468SOL    HW2 9638   0.565   5.145   3.648 -1.1713  0.8448  0.9140
 2468SOL    HW3 9639   0.547   5.280   3.580 -0.2355 -0.7550 -2.7960
 2468SOL    MW4 9640   0.513   5.210   3.620 -0.8410  0.5369 -0.8358
 2469SOL     OW 9641   2.927   6.032   2.900 -0.4192 -0.5728  0.0231
 2469SOL    HW2 9642   2.887   5.962   2.849  2.2899 -2.4788  0.3261
 2469SOL    HW3 9643   2.871   6.040   2.977 -1.7073 -1.2066 -0.8208
 2469SOL    MW4 9644   2.914   6.024   2.904 -0.1497  0.1599 -0.2562
 2470SOL     OW 9645   6.191   0.481   5.269  0.2969  0.2279 -0.7725
 2470SOL    HW2 9646   6.252   0.536   5.319 -0.4893 -0.4776  1.0722
 2470SOL    HW3 9647   6.131   0.447   5.336 -0.1135 -1.7100 -2.0756
 2470SOL    MW4 9648   6.191   0.484   5.285  1.0307 -0.2366  0.1661
 2471SOL     OW 9649   1.603   1.975   2.871  0.1745 -0.0786  0.2398
 2471SOL    HW2 9650   1.662   1.953   2.799 -0.4204  3.1223 -1.4250
 2471SOL    HW3 9651   1.515   1.962   2.835 -0.1340  0.2690  0.8524
 2471SOL    MW4 9652   1.599   1.970   2.857 -0.6470  0.7265  0.2183
 2472SOL     OW 9653   0.568   1.506   2.359 -0.1070  0.4911  0.2712
 2472SOL    HW2 9654   0.602   1.556   2.285  0.9911  0.3391  0.6502
 2472SOL    HW3 9655   0.622   1.426   2.360 -2.3971 -1.1853 -0.8846
 2472SOL    MW4 9656   0.580   1.502   2.349  0.0941  0.0570 -0.0307
 2473SOL     OW 9657   5.791   1.570   4.267 -0.0177  0.0630 -0.4583
 2473SOL    HW2 9658   5.796   1.546   4.174 -1.0402  0.5924 -0.6693
 2473SOL    HW3 9659   5.797   1.665   4.267  0.4496  0.0376  0.0724
 2473SOL    MW4 9660   5.792   1.579   4.255  0.1532  0.2980 -0.4782
 2474SOL     OW 9661   1.863   2.021   4.995 -0.1225  0.1302 -0.4585
 2474SOL    HW2 9662   1.829   2.110   4.998 -0.5657 -0.0179 -0.8398
 2474SOL    HW3 9663   1.788   1.968   4.968  0.8524  0.0675 -3.4577
 2474SOL    MW4 9664   1.849   2.026   4.992 -0.0706 -0.4235 -0.5862
 2475SOL     OW 9665   5.876   2.934   1.844 -0.0060 -0.0988 -0.2766
 2475SOL    HW2 9666   5.944   2.972   1.900 -0.7345 -0.5456  0.9512
 2475SOL    HW3 9667   5.868   2.997   1.772 -1.2628  2.2377  1.7352
 2475SOL    MW4 9668   5.884   2.948   1.842 -0.5848 -0.5327  0.2899
 2476SOL     OW 9669   0.540   5.527   2.091  0.4348 -0.0199 -0.4886
 2476SOL    HW2 9670   0.487   5.606   2.081 -1.6999 -1.3102  0.0049
 2476SOL    HW3 9671   0.630   5.558   2.086 -0.3296  2.3958 -0.5991
 2476SOL    MW4 9672   0.545   5.541   2.089 -0.7581  0.7415 -0.1794
 2477SOL     OW 9673   1.312   6.214   4.700  0.3141 -0.3604  0.1164
 2477SOL    HW2 9674   1.288   6.235   4.610 -0.6686 -0.8418  0.2586
 2477SOL    HW3 9675   1.324   6.119   4.700 -0.2171 -0.4356  0.6068
 2477SOL    MW4 9676   1.311   6.204   4.688 -0.1047 -0.5055 -0.4031
 2478SOL     OW 9677   2.353   4.749   0.021 -0.3599  0.1582  0.1694
 2478SOL    HW2 9678   2.312   4.693  -0.044 -1.3025 -0.6089  1.3799
 2478SOL    HW3 9679   2.286   4.763   0.088  0.5456  0.9742  0.9552
 2478SOL    MW4 9680   2.339   4.744   0.021 -0.0139 -0.4581 -0.0867
 2479SOL     OW 9681   1.562   0.716   4.344 -0.0069  0.5053  0.2760
 2479SOL    HW2 9682   1.582   0.627   4.315 -2.0910  0.3642 -0.8713
 2479SOL    HW3 9683   1.506   0.752   4.276  1.6365  3.1352  0.1629
 2479SOL    MW4 9684   1.557   0.709   4.332 -0.3135  0.1883 -0.8818
 2480SOL     OW 9685   6.300   5.863   5.224 -0.3282 -0.4023 -0.4579
 2480SOL    HW2 9686   6.219   5.828   5.187 -0.5356 -0.4213 -0.0021
 2480SOL    HW3 9687   6.370   5.822   5.173 -0.6289  1.0296 -2.0911
 2480SOL    MW4 9688   6.298   5.853   5.213 -0.9911  0.2582  0.6273
 2481SOL     OW 9689   3.502   4.255   4.009  0.9473 -0.1992 -0.0319
 2481SOL    HW2 9690   3.504   4.320   4.079 -1.4617 -0.2203  0.1216
 2481SOL    HW3 9691   3.573   4.195   4.031  1.1373  0.5626  1.6152
 2481SOL    MW4 9692   3.512   4.256   4.021  0.4454 -0.1640  0.6356
 2482SOL     OW 9693   6.012   2.663   0.530  0.6896 -0.1708 -0.1368
 2482SOL    HW2 9694   6.004   2.580   0.484  0.5722 -0.6234  0.6859
 2482SOL    HW3 9695   5.936   2.666   0.588  0.7780  0.4393 -0.0412
 2482SOL    MW4 9696   6.001   2.653   0.532  0.3526  0.3908  0.8414
 2483SOL     OW 9697   4.885   1.642   5.389  0.4477 -0.9402  0.5925
 2483SOL    HW2 9698   4.869   1.632   5.483 -0.1428  1.3725  0.8057
 2483SOL    HW3 9699   4.965   1.694   5.383 -0.8430  1.1420 -0.0210
 2483SOL    MW4 9700   4.893   1.648   5.400 -0.1115  0.5031  0.6457
 2484SOL     OW 9701   3.904   0.341   0.827 -0.0648  0.1349  0.4003
 2484SOL    HW2 9702   3.941   0.357   0.913  1.9131 -1.9932  0.0337
 2484SOL    HW3 9703   3.873   0.250   0.830  0.6839 -0.2277 -1.2975
 2484SOL    MW4 9704   3.905   0.331   0.838  0.8214 -0.0600  0.3098
 2485SOL     OW 9705   3.344   5.455   1.890  0.6121  0.4619  0.3828
 2485SOL    HW2 9706   3.329   5.360   1.884  0.3597  0.5676 -1.0359
 2485SOL    HW3 9707   3.256   5.493   1.893  0.5778  0.7980 -2.4828
 2485SOL    MW4 9708   3.331   5.447   1.890 -0.2761 -0.0695  0.3139
 2486SOL     OW 9709   3.269   2.282   1.694 -0.4412  0.0757 -0.1334
 2486SOL    HW2 9710   3.263   2.344   1.767 -1.9821 -0.8217  0.5397
 2486SOL    HW3 9711   3.233   2.201   1.728  0.1771 -0.7931 -1.4625
 2486SOL    MW4 9712   3.263   2.280   1.708  0.0335  0.3175 -0.8773
 2487SOL     OW 9713   3.362   2.578   5.910 -0.1851 -0.4841 -0.3972
 2487SOL    HW2 9714   3.399   2.620   5.987 -0.5981 -0.7076 -0.0746
 2487SOL    HW3 9715   3.277   2.543   5.939 -1.0006  0.6582 -1.3069
 2487SOL    MW4 9716   3.356   2.579   5.924  0.3075  0.0938 -0.1264
 2488SOL     OW 9717   5.750   1.830   2.317  0.1901 -0.2549  0.3327
 2488SOL    HW2 9718   5.802   1.845   2.238 -2.8620  1.4365 -1.5871
 2488SOL    HW3 9719   5.813   1.803   2.383  3.5014  1.9198 -1.6415
 2488SOL    MW4 9720   5.765   1.829   2.315  0.3466 -0.6143  0.1441
 2489SOL     OW 9721   0.761   4.218   0.971 -0.2236  0.5218 -0.1001
 2489SOL    HW2 9722   0.742   4.288   0.909  1.7223  0.8935 -0.3401
 2489SOL    HW3 9723   0.767   4.139   0.916 -3.3311 -0.1091  0.2749
 2489SOL    MW4 9724   0.760   4.217   0.955  0.0591  0.0914 -0.5106
 2490SOL     OW 9725   4.351   2.474   4.509  0.1680 -0.4776  0.4785
 2490SOL    HW2 9726   4.269   2.443   4.473  0.2766 -0.4766  0.2316
 2490SOL    HW3 9727   4.416   2.454   4.442 -0.2094  3.3516 -1.3367
 2490SOL    MW4 9728   4.349   2.467   4.496 -0.0647 -0.3286  0.3194
 2491SOL     OW 9729   6.229   3.891   3.995  0.4473  0.0309  0.2297
 2491SOL    HW2 9730   6.299   3.835   4.030  1.8553 -0.8784 -3.5735
 2491SOL    HW3 9731   6.274   3.964   3.955 -1.0058  0.8025 -0.0648
 2491SOL    MW4 9732   6.244   3.893   3.995 -0.0762  0.1184  0.2390
 2492SOL     OW 9733   2.521   6.321   5.265 -0.2157 -0.6777 -0.4798
 2492SOL    HW2 9734   2.561   6.403   5.294  1.0547 -1.1575 -0.8267
 2492SOL    HW3 9735   2.545   6.257   5.332  0.6032 -1.2245 -1.2666
 2492SOL    MW4 9736   2.529   6.324   5.277 -0.1750 -0.1794  0.3579
 2493SOL     OW 9737   1.473   3.990   4.213  0.3633 -0.5657  0.1842
 2493SOL    HW2 9738   1.417   4.024   4.143  0.6677  0.3578  0.3753
 2493SOL    HW3 9739   1.413   3.941   4.269  0.1208 -1.3320 -0.7229
 2493SOL    MW4 9740   1.458   3.988   4.211 -0.1048  1.0486  0.0454
 2494SOL     OW 9741   2.406   1.820   4.083  0.1205  0.4760  0.3140
 2494SOL    HW2 9742   2.453   1.903   4.082 -0.5005  0.8358 -1.2925
 2494SOL    HW3 9743   2.314   1.844   4.081 -0.0707 -0.2037 -2.0099
 2494SOL    MW4 9744   2.400   1.834   4.083  0.0839  0.4101 -0.1237
 2495SOL     OW 9745   4.285   4.727   3.232  0.4119 -0.8336 -0.1018
 2495SOL    HW2 9746   4.245   4.754   3.314 -1.1359 -0.7467 -0.8634
 2495SOL    HW3 9747   4.299   4.633   3.242 -2.9973 -1.5646 -0.9547
 2495SOL    MW4 9748   4.282   4.718   3.244 -0.0382  0.2766  0.2763
 2496SOL     OW 9749   0.647   5.664   3.878  0.0325 -0.0269  0.8346
 2496SOL    HW2 9750   0.684   5.736   3.928  0.2100  0.4452  0.0369
 2496SOL    HW3 9751   0.602   5.610   3.944  2.1219 -0.6486  1.8484
 2496SOL    MW4 9752   0.646   5.666   3.893  0.0454 -0.7018 -0.6600
 2497SOL     OW 9753   1.717   0.957   0.018  0.3226 -0.4756 -0.3104
 2497SOL    HW2 9754   1.701   1.049  -0.002 -1.1277 -0.5005  0.5825
 2497SOL    HW3 9755   1.803   0.939  -0.019  1.7415  1.8754  1.5660
 2497SOL    MW4 9756   1.726   0.967   0.010 -0.0672  0.0128 -0.2714
 2498SOL     OW 9757   4.405   2.518   6.065 -0.2111 -0.4892 -0.0081
 2498SOL    HW2 9758   4.315   2.493   6.046 -0.0487 -1.8408  0.8443
 2498SOL    HW3 9759   4.404   2.613   6.066 -1.3936 -0.4643 -1.0479
 2498SOL    MW4 9760   4.393   2.527   6.063 -0.8402  0.0648 -0.3557
 2499SOL     OW 9761   4.546   3.708   5.186 -0.0345 -0.4110  0.1094
 2499SOL    HW2 9762   4.579   3.633   5.235 -2.0897 -2.7818 -1.8628
 2499SOL    HW3 9763   4.602   3.714   5.108 -0.4630 -0.5114 -0.2096
 2499SOL    MW4 9764   4.558   3.699   5.182 -0.3287  0.1896 -0.4387
 2500SOL     OW 9765   5.155   2.699   0.072  0.0531 -0.3432 -0.0930
 2500SOL    HW2 9766   5.119   2.776   0.027  0.6754 -0.8749 -1.5402
 2500SOL    HW3 9767   5.135   2.714   0.165  1.6824  2.4159 -0.0890
 2500SOL    MW4 9768   5.147   2.711   0.079  0.6927 -0.2522  0.1864
 2501SOL     OW 9769   1.618   5.421   5.694  0.8596 -0.2881 -0.0960
 2501SOL    HW2 9770   1.647   5.332   5.713  0.6366 -0.5088 -0.7614
 2501SOL    HW3 9771   1.698   5.467   5.666  0.9621 -0.2880  0.1869
 2501SOL    MW4 9772   1.632   5.415   5.693 -0.2565 -0.3428  0.6047
 2502SOL     OW 9773   3.064   2.566   3.818 -0.4277 -0.1985 -0.0747
 2502SOL    HW2 9774   3.104   2.620   3.886  0.2830 -0.2485 -0.4428
 2502SOL    HW3 9775   3.135   2.550   3.755 -0.9772 -0.4605 -0.6377
 2502SOL    MW4 9776   3.079   2.571   3.819 -0.0540 -0.1954 -0.8315
 2503SOL     OW 9777   3.811   0.812   1.820 -0.0281  0.1356 -0.0025
 2503SOL    HW2 9778   3.856   0.840   1.740 -0.1412  0.5610  0.0773
 2503SOL    HW3 9779   3.726   0.858   1.817 -0.0368  0.1457  0.3537
 2503SOL    MW4 9780   3.805   0.822   1.809 -0.4554  0.2191 -0.0422
 2504SOL     OW 9781   3.002   2.844   6.375 -0.2991  0.2983 -0.8386
 2504SOL    HW2 9782   3.018   2.841   6.280  2.5578 -0.5975 -0.4323
 2504SOL    HW3 9783   3.078   2.890   6.410 -0.8107 -0.2612  1.1226
 2504SOL    MW4 9784   3.014   2.850   6.367  0.5009  0.2280  0.4106
 2505SOL     OW 9785   5.340   2.020   0.467  0.0072 -0.0592  0.1448
 2505SOL    HW2 9786   5.331   1.978   0.552 -2.6643 -2.2535 -1.0821
 2505SOL    HW3 9787   5.393   1.959   0.416 -1.8780 -0.8618 -0.9352
 2505SOL    MW4 9788   5.346   2.007   0.472  0.8480  0.6095 -0.3327
 2506SOL     OW 9789   5.111   1.095   5.743  0.4520 -0.1493 -0.1285
 2506SOL    HW2 9790   5.199   1.128   5.758  0.1691  1.8295 -2.2164
 2506SOL    HW3 9791   5.123   1.016   5.690  0.9768  0.5503 -1.0804
 2506SOL    MW4 9792   5.124   1.089   5.738  0.4095  0.0833  0.1422
 2507SOL     OW 9793   1.977   5.315   2.004  0.3056  0.1710 -0.0756
 2507SOL    HW2 9794   1.959   5.386   1.943  1.8211 -0.2615 -1.0660
 2507SOL    HW3 9795   1.901   5.314   2.063 -1.4387  0.2978 -2.2023
 2507SOL    MW4 9796   1.965   5.324   2.004 -0.3988  0.2764  0.1076
 2508SOL     OW 9797   1.770   3.969   2.287 -0.0736 -0.1036 -0.1355
 2508SOL    HW2 9798   1.703   4.037   2.280  1.1865  1.0643 -1.5410
 2508SOL    HW3 9799   1.802   3.957   2.197 -0.8363 -3.2134 -0.1281
 2508SOL    MW4 9800   1.765   3.976   2.274 -0.8625 -0.4491  0.1477
 2509SOL     OW 9801   5.646   4.695   2.534  0.1345  0.2536 -0.0922
 2509SOL    HW2 9802   5.662   4.624   2.595 -0.7909 -1.1324 -1.3872
 2509SOL    HW3 9803   5.573   4.744   2.572  0.3791  0.1627  0.5077
 2509SOL    MW4 9804   5.639   4.692   2.547 -0.0680 -0.2929 -0.0032
 2510SOL     OW 9805   2.564   4.972   0.757 -0.4111  0.3478  0.0643
 2510SOL    HW2 9806   2.659   4.973   0.752 -0.4725  0.8880 -1.2118
 2510SOL    HW3 9807   2.545   5.003   0.846  0.5991 -0.2643  0.5146
 2510SOL    MW4 9808   2.574   4.976   0.768  0.4744  0.0666  0.5158
 2511SOL     OW 9809   1.987   5.677   2.363 -0.4115  0.1377  0.7751
 2511SOL    HW2 9810   2.027   5.600   2.402  1.5581  0.0322 -1.2282
 2511SOL    HW3 9811   1.905   5.646   2.327  1.1640 -1.5882 -1.6086
 2511SOL    MW4 9812   1.982   5.663   2.363 -0.1725  0.5280 -0.1283
 2512SOL     OW 9813   5.577   6.294   2.750  0.4508  0.2088 -0.5966
 2512SOL    HW2 9814   5.590   6.256   2.663  0.5184 -0.6072 -0.2436
 2512SOL    HW3 9815   5.660   6.279   2.795  0.8785  1.7960 -0.8050
 2512SOL    MW4 9816   5.590   6.287   2.745 -0.1278 -0.8357 -0.1711
 2513SOL     OW 9817   0.893   0.645   3.488  0.1870 -0.5729 -0.3230
 2513SOL    HW2 9818   0.967   0.625   3.545  0.3129 -0.3881 -0.4230
 2513SOL    HW3 9819   0.899   0.581   3.417  0.3778 -0.4147 -0.4488
 2513SOL    MW4 9820   0.903   0.634   3.486  0.1248  0.0481 -0.2872
 2514SOL     OW 9821   3.707   5.557   3.371 -0.4838  0.0675 -0.1188
 2514SOL    HW2 9822   3.693   5.501   3.295  0.1559  0.8025 -0.7948
 2514SOL    HW3 9823   3.802   5.557   3.383 -0.5727  0.0334  0.6236
 2514SOL    MW4 9824   3.718   5.550   3.363 -0.7129  0.3210 -0.2116
 2515SOL     OW 9825   5.760   0.960   0.692 -0.3929 -0.1109  1.0836
 2515SOL    HW2 9826   5.689   0.911   0.650 -1.9158  0.6510  2.6570
 2515SOL    HW3 9827   5.733   0.968   0.783  0.8601  1.7691  1.3488
 2515SOL    MW4 9828   5.747   0.954   0.698 -0.8751 -0.2191  0.2341
 2516SOL     OW 9829   4.273   5.082   5.233  0.5310 -0.1739  0.1631
 2516SOL    HW2 9830   4.341   5.032   5.277  1.5211  0.0631 -1.0511
 2516SOL    HW3 9831   4.293   5.174   5.253 -0.1153 -0.1564  0.7530
 2516SOL    MW4 9832   4.284   5.088   5.241  0.3206 -0.6937 -0.0758
 2517SOL     OW 9833   6.115   4.463   3.486 -0.6063 -0.4017  0.2397
 2517SOL    HW2 9834   6.034   4.492   3.529 -1.2939  0.9154 -1.8156
 2517SOL    HW3 9835   6.097   4.374   3.458 -2.1585  0.4950 -1.8824
 2517SOL    MW4 9836   6.102   4.455   3.488  0.0392 -0.0019  0.1866
 2518SOL     OW 9837   4.822   3.216   6.310 -0.4580  0.2464 -0.0156
 2518SOL    HW2 9838   4.788   3.300   6.342 -0.1354  0.2346  0.3632
 2518SOL    HW3 9839   4.862   3.176   6.387  0.4064  0.2532 -0.4546
 2518SOL    MW4 9840   4.822   3.222   6.324  0.4275  0.1961 -0.2592
 2519SOL     OW 9841   4.219   4.116   0.735  0.0170 -0.1028 -0.1825
 2519SOL    HW2 9842   4.250   4.035   0.694 -1.7543 -0.4504 -0.9112
 2519SOL    HW3 9843   4.299   4.160   0.763  1.0872 -1.5760 -0.7602
 2519SOL    MW4 9844   4.234   4.111   0.733 -0.0047  0.6713 -0.2653
 2520SOL     OW 9845   0.644   2.260   4.204 -0.5004  0.1929  0.4086
 2520SOL    HW2 9846   0.710   2.305   4.150  0.5728 -1.7236  0.0484
 2520SOL    HW3 9847   0.667   2.282   4.294 -0.1796  0.6050  0.2296
 2520SOL    MW4 9848   0.656   2.269   4.208  0.3309 -0.4369  0.4069
 2521SOL     OW 9849   2.163   5.955   2.583 -0.0551 -0.5381 -0.3394
 2521SOL    HW2 9850   2.070   5.936   2.570 -0.1360  0.3415 -1.1152
 2521SOL    HW3 9851   2.165   6.043   2.619  0.4138 -1.1947  1.3309
 2521SOL    MW4 9852   2.151   5.964   2.586  0.0008  0.2402  0.5010
 2522SOL     OW 9853   2.777   3.962   6.428 -0.6679  0.2544  0.0575
 2522SOL    HW2 9854   2.722   3.965   6.350 -0.6510  0.2846  0.0466
 2522SOL    HW3 9855   2.718   3.977   6.501 -0.6458  0.4558  0.0334
 2522SOL    MW4 9856   2.762   3.964   6.427  0.0962  0.2397  0.0862
 2523SOL     OW 9857   0.123   0.437   5.078  0.0457 -0.5184  0.3565
 2523SOL    HW2 9858   0.163   0.464   5.160 -0.1122  0.2442  0.1908
 2523SOL    HW3 9859   0.179   0.474   5.010 -1.3145  1.2197  0.1151
 2523SOL    MW4 9860   0.135   0.445   5.080  0.0656  0.1225  0.3981
 2524SOL     OW 9861   5.030   1.910   5.269  0.0962  0.0374 -0.4127
 2524SOL    HW2 9862   5.039   1.894   5.363 -3.1471 -0.3168 -0.0332
 2524SOL    HW3 9863   5.002   2.001   5.262 -1.4397 -0.4333 -0.8310
 2524SOL    MW4 9864   5.027   1.920   5.280  0.4571 -0.0308  0.0272
 2525SOL     OW 9865   3.221   4.727   3.379 -0.0334 -0.1457 -0.4131
 2525SOL    HW2 9866   3.166   4.800   3.406  1.6597  1.6982 -1.6163
 2525SOL    HW3 9867   3.311   4.761   3.389  0.9600 -2.9804  1.4424
 2525SOL    MW4 9868   3.226   4.741   3.384  0.8519 -0.2750  0.2443
 2526SOL     OW 9869   3.265   1.898   3.113 -0.8110 -0.6979  0.6964
 2526SOL    HW2 9870   3.257   1.969   3.048  1.7613  0.0698  1.1018
 2526SOL    HW3 9871   3.242   1.819   3.064 -0.1674  0.0089 -0.8461
 2526SOL    MW4 9872   3.261   1.897   3.098  0.3273  0.0623 -0.2752
 2527SOL     OW 9873   2.321   5.222   5.496  0.1875  0.3151 -0.0740
 2527SOL    HW2 9874   2.367   5.295   5.539  0.6540  0.1657 -0.3092
 2527SOL    HW3 9875   2.380   5.147   5.506  1.2129  0.6833 -2.5715
 2527SOL    MW4 9876   2.335   5.222   5.503 -0.1895  0.2183  0.1257
 2528SOL     OW 9877   6.043   0.175   0.237 -0.1971 -0.4400  0.4859
 2528SOL    HW2 9878   6.006   0.202   0.153 -1.5921 -2.2782  0.4402
 2528SOL    HW3 9879   6.135   0.157   0.218 -0.5881 -1.2400 -0.7831
 2528SOL    MW4 9880   6.050   0.176   0.223 -0.4764  0.8043 -0.3115
 2529SOL     OW 9881   4.006   5.508   5.214  0.0053 -0.4676 -0.1955
 2529SOL    HW2 9882   4.059   5.517   5.135  0.2609 -1.1589 -0.1044
 2529SOL    HW3 9883   3.982   5.598   5.237  0.7409 -0.1891 -0.5019
 2529SOL    MW4 9884   4.009   5.521   5.206  0.3149 -0.3227 -1.0187
 2530SOL     OW 9885   6.035   6.316   4.648 -0.2469  0.0453  0.0847
 2530SOL    HW2 9886   5.951   6.277   4.626 -1.1358  2.6404 -1.6385
 2530SOL    HW3 9887   6.026   6.343   4.740 -1.0759 -0.2376  0.0933
 2530SOL    MW4 9888   6.023   6.315   4.657  0.2127  0.2944 -0.5077
 2531SOL     OW 9889   0.140   0.212   2.848  0.1973  0.2403 -0.5638
 2531SOL    HW2 9890   0.182   0.163   2.918  1.2527 -0.2345 -1.4867
 2531SOL    HW3 9891   0.070   0.261   2.891  1.6693  1.0328  1.0717
 2531SOL    MW4 9892   0.137   0.212   2.862 -0.4907  0.5005 -0.1176
 2532SOL     OW 9893   4.943   2.205   1.143 -0.3961  0.6077  0.0360
 2532SOL    HW2 9894   5.006   2.173   1.207 -0.2834 -2.8821 -1.5724
 2532SOL    HW3 9895   4.879   2.134   1.134 -1.4564  1.7339 -2.3078
 2532SOL    MW4 9896   4.943   2.192   1.150 -0.0940 -0.3144 -0.2116
 2533SOL     OW 9897   3.920   1.929   1.522  0.7309 -0.3857 -0.2552
 2533SOL    HW2 9898   3.948   2.002   1.468 -0.6373  0.0334 -0.4432
 2533SOL    HW3 9899   3.882   1.970   1.600 -0.0319 -0.8727 -0.3565
 2533SOL    MW4 9900   3.919   1.944   1.525  0.8740 -0.3541 -0.2085
 2534SOL     OW 9901   1.185   4.483   5.799 -0.1767  0.1581  0.3645
 2534SOL    HW2 9902   1.106   4.437   5.770 -0.4996  0.7292  0.3224
 2534SOL    HW3 9903   1.255   4.448   5.744 -0.1514 -1.2626  1.2297
 2534SOL    MW4 9904   1.184   4.472   5.788 -0.1924  0.6235  0.0581
 2535SOL     OW 9905   3.080   1.653   6.226  0.3920 -0.3305  0.5906
 2535SOL    HW2 9906   3.079   1.670   6.132  1.9728  0.0686  0.6208
 2535SOL    HW3 9907   3.101   1.560   6.234 -1.1039 -0.6921  0.5467
 2535SOL    MW4 9908   3.083   1.643   6.215 -0.3167  0.5425  0.0731
 2536SOL     OW 9909   0.254   1.653   2.791  0.3735 -0.5507 -0.0322
 2536SOL    HW2 9910   0.239   1.716   2.862 -1.0356 -1.3178  0.3881
 2536SOL    HW3 9911   0.190   1.677   2.724 -0.2208 -1.5530  0.1592
 2536SOL    MW4 9912   0.244   1.664   2.792  0.0456 -0.5010  0.2091
 2537SOL     OW 9913   4.567   6.112   5.751  0.3707 -0.1921 -0.2236
 2537SOL    HW2 9914   4.655   6.096   5.716  0.1760 -1.9962  0.0371
 2537SOL    HW3 9915   4.537   6.026   5.781 -0.5039  0.8022  1.9715
 2537SOL    MW4 9916   4.575   6.099   5.750  0.5254  0.0097 -0.8192
 2538SOL     OW 9917   3.909   3.458   0.241  0.0019  0.1100 -0.2390
 2538SOL    HW2 9918   3.974   3.442   0.310 -0.8577 -1.8076  0.1899
 2538SOL    HW3 9919   3.960   3.490   0.167  1.3054 -0.3391  0.4318
 2538SOL    MW4 9920   3.925   3.460   0.240  0.5835 -0.3751 -0.6434
 2539SOL     OW 9921   4.135   3.332   5.912 -0.3817 -0.4008  0.2996
 2539SOL    HW2 9922   4.079   3.399   5.873  0.1276  0.4486  0.9864
 2539SOL    HW3 9923   4.150   3.362   6.001  1.0237 -0.7036  0.1830
 2539SOL    MW4 9924   4.130   3.344   5.918  0.0420  0.6737 -0.4661
 2540SOL     OW 9925   3.557   3.855   1.352 -0.2425 -0.0471  0.2127
 2540SOL    HW2 9926   3.650   3.844   1.334 -0.1994  0.8432 -0.1365
 2540SOL    HW3 9927   3.514   3.796   1.290 -0.0422  2.0551 -2.0426
 2540SOL    MW4 9928   3.564   3.846   1.341 -0.1240 -0.3114  0.2176
 2541SOL     OW 9929   0.781   3.868   5.682 -0.3370 -0.0656 -0.6017
 2541SOL    HW2 9930   0.830   3.887   5.762  0.0579 -1.2250 -0.5434
 2541SOL    HW3 9931   0.806   3.779   5.659  1.7587  1.1284 -3.6165
 2541SOL    MW4 9932   0.790   3.859   5.689  0.0443  0.5268  0.1844
 2542SOL     OW 9933   4.372   3.842   1.401  0.0178  0.1794  0.6649
 2542SOL    HW2 9934   4.389   3.911   1.336 -0.3957 -0.1593  0.1925
 2542SOL    HW3 9935   4.451   3.789   1.400 -0.7632 -1.0710 -1.1314
 2542SOL    MW4 9936   4.384   3.844   1.392 -0.4030  0.2611 -0.1906
 2543SOL     OW 9937   4.232   2.804   3.629 -0.1461  0.3569 -0.3481
 2543SOL    HW2 9938   4.302   2.753   3.588  0.3783  0.3069  0.5762
 2543SOL    HW3 9939   4.161   2.741   3.643  0.3288 -0.0343  0.3729
 2543SOL    MW4 9940   4.232   2.789   3.625  0.4054 -0.1099  0.0346
 2544SOL     OW 9941   3.062   3.547   3.490 -0.0459 -0.4483 -0.3890
 2544SOL    HW2 9942   3.115   3.545   3.570 -0.3014 -0.9581 -0.2258
 2544SOL    HW3 9943   3.117   3.505   3.424 -0.6260 -1.9630  0.0355
 2544SOL    MW4 9944   3.076   3.541   3.492  0.4123 -0.1657 -0.3121
 2545SOL     OW 9945   5.628   1.507   0.009  0.2829  0.0045 -0.6386
 2545SOL    HW2 9946   5.603   1.414   0.008 -0.7326  0.1611  1.7084
 2545SOL    HW3 9947   5.719   1.506   0.040  0.8431 -0.2526 -2.2290
 2545SOL    MW4 9948   5.637   1.495   0.013 -0.1446 -0.3523  0.1478
 2546SOL     OW 9949   4.850   2.328   5.833  0.4025  0.0742  0.2510
 2546SOL    HW2 9950   4.882   2.288   5.752 -0.1500 -0.1786  0.1497
 2546SOL    HW3 9951   4.779   2.386   5.803  0.5359  0.3672  0.5018
 2546SOL    MW4 9952   4.845   2.331   5.818 -0.3956  0.0944 -0.0579
 2547SOL     OW 9953   2.209   5.400   0.256 -0.5946  0.1234  0.0560
 2547SOL    HW2 9954   2.132   5.446   0.290  0.0686  1.1589  0.2035
 2547SOL    HW3 9955   2.199   5.405   0.161 -1.6182 -1.3408  0.0642
 2547SOL    MW4 9956   2.198   5.407   0.248  0.3637  0.0813  0.5628
 2548SOL     OW 9957   2.514   0.730   5.927  0.3601 -0.2779 -0.2900
 2548SOL    HW2 9958   2.559   0.646   5.920  1.2021  0.0542  0.9145
 2548SOL    HW3 9959   2.428   0.709   5.963  1.0483 -0.5057  1.2745
 2548SOL    MW4 9960   2.508   0.716   5.931  0.4286 -0.0666 -0.0600
 2549SOL     OW 9961   6.153   2.687   1.538 -0.2021 -0.2167  0.0776
 2549SOL    HW2 9962   6.061   2.676   1.514 -0.2101  0.5781 -0.2601
 2549SOL    HW3 9963   6.154   2.671   1.633 -0.6389 -0.4667  0.0475
 2549SOL    MW4 9964   6.141   2.683   1.548 -0.2357 -0.3728 -0.4419
 2550SOL     OW 9965   3.980   4.692   2.737  0.0898 -0.5701  0.7566
 2550SOL    HW2 9966   4.027   4.632   2.680  2.2143  0.7387  1.0364
 2550SOL    HW3 9967   3.944   4.759   2.679 -1.4330 -1.5226  0.5527
 2550SOL    MW4 9968   3.981   4.693   2.722 -0.0826  0.8981  0.2138
 2551SOL     OW 9969   3.590   1.526   2.205 -0.2444 -0.0537 -0.2792
 2551SOL    HW2 9970   3.549   1.489   2.127 -2.4368  1.0678  0.2556
 2551SOL    HW3 9971   3.584   1.457   2.271  0.7267 -0.6531 -0.7968
 2551SOL    MW4 9972   3.583   1.512   2.203  0.1941 -0.8586  0.8593
 2552SOL     OW 9973   5.390   2.873   0.178 -0.1444  0.0347 -0.2309
 2552SOL    HW2 9974   5.308   2.870   0.226  0.2598  0.3807  0.4924
 2552SOL    HW3 9975   5.399   2.965   0.152  1.0552  0.4748  1.5623
 2552SOL    MW4 9976   5.380   2.885   0.181  0.4420  0.0340  0.3499
 2553SOL     OW 9977   1.869   3.295   4.090  0.4415  0.1488 -0.5207
 2553SOL    HW2 9978   1.839   3.342   4.167  0.1950  0.4848 -0.8182
 2553SOL    HW3 9979   1.826   3.210   4.095 -0.0540  0.3910 -0.6006
 2553SOL    MW4 9980   1.859   3.290   4.101 -0.2396 -0.2281  0.1985
 2554SOL     OW 9981   3.201   0.546   2.817 -0.4865  0.1420 -0.0622
 2554SOL    HW2 9982   3.264   0.614   2.791 -0.2384  0.4716  1.3238
 2554SOL    HW3 9983   3.254   0.480   2.861 -1.1968  1.0050  2.2389
 2554SOL    MW4 9984   3.216   0.546   2.819 -0.0515 -0.4927 -0.0214
 2555SOL     OW 9985   4.448   0.594   0.272  0.3009 -0.0367  0.2388
 2555SOL    HW2 9986   4.529   0.644   0.286  0.9749 -1.0805  0.1951
 2555SOL    HW3 9987   4.383   0.637   0.327  1.4854 -0.6148  2.1712
 2555SOL    MW4 9988   4.450   0.606   0.281 -0.1531  0.0821 -0.7293
 2556SOL     OW 9989   4.017   0.547   4.638 -0.2806 -0.0081  0.5760
 2556SOL    HW2 9990   3.992   0.558   4.729 -2.6887 -3.2196  0.4877
 2556SOL    HW3 9991   3.934   0.534   4.591  1.0137 -2.7673 -1.2690
 2556SOL    MW4 9992   4.003   0.547   4.644 -0.2222 -0.5714  0.1974
 2557SOL     OW 9993   5.702   2.769   1.186  0.1507 -0.0448  0.3129
 2557SOL    HW2 9994   5.636   2.804   1.125 -0.0030  2.0681  1.6063
 2557SOL    HW3 9995   5.667   2.684   1.212 -1.7226  0.6858  0.3675
 2557SOL    MW4 9996   5.688   2.762   1.181 -0.4746  0.6762 -0.2519
 2558SOL     OW 9997   5.997   5.727   1.672  0.2526 -0.3145  0.3326
 2558SOL    HW2 9998   6.072   5.782   1.694 -0.2589  0.4895  0.1074
 2558SOL    HW3 9999   5.944   5.781   1.613 -0.7072 -0.7079  0.8113
 2558SOL    MW410000   6.000   5.742   1.667 -0.3600 -0.5741  0.1568
 2559SOL     OW10001   6.140   2.013   0.718 -0.4343  0.2568  0.4143
 2559SOL    HW210002   6.177   1.925   0.714 -1.4252 -0.1659  0.2618
 2559SOL    HW310003   6.059   2.003   0.767 -0.7172  1.0330  0.1280
 2559SOL    MW410004   6.134   2.000   0.724 -0.1242 -0.0195 -0.1448
 2560SOL     OW10005   2.189   6.408   2.080  0.0326  0.0355 -0.5814
 2560SOL    HW210006   2.194   6.316   2.054 -1.5654 -0.0822 -0.5512
 2560SOL    HW310007   2.273   6.424   2.124 -0.8724 -2.3755  2.4534
 2560SOL    MW410008   2.201   6.398   2.083 -0.1234 -0.7302 -0.0939
 2561SOL     OW10009   1.103   6.366   4.515  0.4131  0.0566  0.0067
 2561SOL    HW210010   1.040   6.427   4.477  1.1133  1.3192  0.7860
 2561SOL    HW310011   1.051   6.291   4.543 -0.5226  0.4326 -0.6705
 2561SOL    MW410012   1.088   6.364   4.513 -0.3396  0.0066  0.0223
 2562SOL     OW10013   1.562   3.820   4.438 -0.5438 -0.2667 -0.1814
 2562SOL    HW210014   1.645   3.772   4.429  0.2210 -0.1808  4.3616
 2562SOL    HW310015   1.495   3.751   4.438  0.1613 -1.0347  2.0748
 2562SOL    MW410016   1.564   3.804   4.437  0.3129  0.4061 -0.7765
 2563SOL     OW10017   5.686   1.665   1.514 -0.4388 -0.1449 -0.0163
 2563SOL    HW210018   5.593   1.658   1.534 -0.1710 -1.6881  0.8314
 2563SOL    HW310019   5.730   1.615   1.583  0.9524 -0.2461 -0.9288
 2563SOL    MW410020   5.680   1.657   1.525  0.6221  0.2310  0.3461
 2564SOL     OW10021   3.377   3.716   4.283  0.4345  0.2145 -0.2276
 2564SOL    HW210022   3.342   3.629   4.264 -1.5293  0.8181  0.3974
 2564SOL    HW310023   3.334   3.773   4.220 -1.1450  1.2441  1.6797
 2564SOL    MW410024   3.367   3.712   4.272  0.2360 -0.8851  0.3257
 2565SOL     OW10025   5.977   1.177   4.393  0.2225 -0.2228  0.3647
 2565SOL    HW210026   6.001   1.270   4.384  0.1288 -0.0859  1.4193
 2565SOL    HW310027   5.895   1.169   4.343  0.6874  0.0529 -0.4690
 2565SOL    MW410028   5.969   1.189   4.385  0.0525  0.0331 -0.3873
 2566SOL     OW10029   2.041   6.184   1.633 -0.4526  0.2392 -0.3509
 2566SOL    HW210030   1.985   6.107   1.622  1.0150 -1.0832  0.8882
 2566SOL    HW310031   2.029   6.234   1.552 -0.0722 -2.2227 -2.0513
 2566SOL    MW410032   2.032   6.180   1.621 -0.0701  0.1268 -0.5367
 2567SOL     OW10033   6.267   4.627   3.768 -0.7275 -0.4103  0.2029
 2567SOL    HW210034   6.310   4.619   3.683 -0.9347  2.1150 -0.2005
 2567SOL    HW310035   6.200   4.558   3.767  0.2948 -1.4396 -0.9964
 2567SOL    MW410036   6.264   4.617   3.756 -0.1995 -0.1979 -0.1845
 2568SOL     OW10037   1.080   1.410   0.058  0.3504 -0.6539 -0.6402
 2568SOL    HW210038   1.168   1.448   0.065  0.1782  0.2802 -2.7546
 2568SOL    HW310039   1.094   1.324   0.018  0.2619 -0.0976 -1.9113
 2568SOL    MW410040   1.093   1.404   0.054 -0.2061  0.7704  0.4361
 2569SOL     OW10041   2.964   3.813   3.764  0.5988 -0.6780 -0.7687
 2569SOL    HW210042   2.925   3.864   3.835 -1.5293 -1.8104 -1.0452
 2569SOL    HW310043   2.986   3.729   3.805  0.5742 -0.8758 -1.1576
 2569SOL    MW410044   2.962   3.809   3.779  0.3521  0.1809  0.0562
 2570SOL     OW10045   6.396   5.502   4.635 -0.2381  0.1699  0.2053
 2570SOL    HW210046   6.334   5.550   4.691 -1.8246 -3.7584  2.1860
 2570SOL    HW310047   6.349   5.422   4.612  2.4779 -0.8493 -2.2683
 2570SOL    MW410048   6.381   5.498   4.639  0.4458 -0.2234  0.1260
 2571SOL     OW10049   5.607   3.833   0.116  0.2786 -0.1912 -0.0017
 2571SOL    HW210050   5.655   3.770   0.062 -0.0558 -1.1125  0.7471
 2571SOL    HW310051   5.521   3.793   0.129  1.2491 -1.4618  3.6436
 2571SOL    MW410052   5.602   3.820   0.111 -0.4413 -0.1885  0.4902
 2572SOL     OW10053   3.639   2.145   5.180 -0.7498  0.0486 -0.2152
 2572SOL    HW210054   3.663   2.154   5.272  0.7758 -2.6550 -0.2444
 2572SOL    HW310055   3.714   2.180   5.132 -0.2349 -1.1838 -0.3579
 2572SOL    MW410056   3.652   2.151   5.186 -0.5016 -0.1696  0.1767
 2573SOL     OW10057   0.950   4.626   2.721  0.2579  0.6786 -0.1051
 2573SOL    HW210058   1.014   4.580   2.667  0.4875  1.9923 -1.0046
 2573SOL    HW310059   0.869   4.623   2.670 -0.3364 -0.6473  0.8568
 2573SOL    MW410060   0.948   4.620   2.707  0.2892  0.1813 -0.2590
 2574SOL     OW10061   3.780   1.961   5.784  0.1737  0.0612 -0.0220
 2574SOL    HW210062   3.757   1.897   5.852 -1.2837  0.7981  0.2123
 2574SOL    HW310063   3.875   1.960   5.783  0.2513  0.1207  2.1439
 2574SOL    MW410064   3.789   1.952   5.793  0.3102 -0.7139 -0.1087
 2575SOL     OW10065   5.318   2.245   1.014 -1.1127 -0.1764  0.2964
 2575SOL    HW210066   5.383   2.187   1.053 -0.4499 -0.0111 -0.5487
 2575SOL    HW310067   5.250   2.187   0.980 -1.8986 -0.3119  2.0012
 2575SOL    MW410068   5.318   2.230   1.015  0.5486  0.2340 -0.2671
 2576SOL     OW10069   1.522   0.237   3.991 -0.4840 -0.3681 -0.2113
 2576SOL    HW210070   1.597   0.296   4.002 -2.0822  1.4374  2.3502
 2576SOL    HW310071   1.545   0.159   4.041 -0.5391  0.5191  1.2734
 2576SOL    MW410072   1.535   0.235   3.999 -0.4295 -0.1653  0.7657
 2577SOL     OW10073   2.893   3.337   3.402  0.2307  0.0433  0.0931
 2577SOL    HW210074   2.953   3.392   3.453 -0.0588  0.3506  0.1068
 2577SOL    HW310075   2.904   3.249   3.439  1.6683 -0.1817 -0.7954
 2577SOL    MW410076   2.902   3.333   3.414 -0.3602  0.0231 -0.0039
 2578SOL     OW10077   2.659   4.408   1.450  0.0149  0.7377 -0.0522
 2578SOL    HW210078   2.566   4.390   1.439 -0.9273  4.8183 -0.0711
 2578SOL    HW310079   2.701   4.356   1.381 -2.2638 -0.6143 -0.5380
 2578SOL    MW410080   2.653   4.399   1.440 -0.1132 -0.5959 -0.1234
 2579SOL     OW10081   3.647   2.995   5.460 -0.6414  0.3410 -0.1055
 2579SOL    HW210082   3.572   2.936   5.451 -0.1405 -0.1856 -0.9642
 2579SOL    HW310083   3.704   2.950   5.523 -0.4606  0.1122 -0.4291
 2579SOL    MW410084   3.645   2.981   5.467  0.1348 -0.1612  0.1962
 2580SOL     OW10085   0.740   1.940   2.541  0.0581  0.5956 -0.4318
 2580SOL    HW210086   0.726   2.026   2.502 -1.3320  0.6877  0.2044
 2580SOL    HW310087   0.653   1.901   2.544  0.8123 -1.2938 -1.6841
 2580SOL    MW410088   0.726   1.946   2.537 -0.3095 -0.8408  0.7237
 2581SOL     OW10089   4.888   1.808   2.274 -0.0014 -0.0531  0.8052
 2581SOL    HW210090   4.823   1.785   2.341  1.2926  0.8468  2.4383
 2581SOL    HW310091   4.959   1.746   2.287  0.4661  0.4265  0.5879
 2581SOL    MW410092   4.889   1.797   2.284  0.0024  0.0974  0.4142
 2582SOL     OW10093   0.737   2.560   5.628  0.1552 -0.5050 -0.4105
 2582SOL    HW210094   0.660   2.524   5.583  0.8447 -2.5694 -0.0388
 2582SOL    HW310095   0.705   2.586   5.714  0.1788 -3.0552  0.4260
 2582SOL    MW410096   0.723   2.559   5.633  0.1136 -0.6255  0.2122
 2583SOL     OW10097   5.574   5.695   1.034 -0.2178  0.0649 -0.2880
 2583SOL    HW210098   5.619   5.704   0.950  0.0047 -0.0012 -0.1769
 2583SOL    HW310099   5.515   5.770   1.038  0.1277  0.3409 -0.2828
 2583SOL    MW410100   5.572   5.706   1.023  0.1146 -0.5630  0.2071
 2584SOL     OW10101   3.157   1.487   0.108 -0.4937 -0.2164  0.0837
 2584SOL    HW210102   3.133   1.436   0.186  3.2388 -1.2682  0.7502
 2584SOL    HW310103   3.135   1.430   0.035  0.8180 -1.5810  0.6916
 2584SOL    MW410104   3.151   1.472   0.109  0.1907  0.1800  0.0233
 2585SOL     OW10105   2.664   6.158   1.830  0.2416 -0.4164 -0.1198
 2585SOL    HW210106   2.622   6.103   1.764 -1.9365 -2.4428  2.7331
 2585SOL    HW310107   2.593   6.215   1.861  1.0256 -0.0286  0.9857
 2585SOL    MW410108   2.649   6.158   1.825  0.0402  0.2628  0.5410
 2586SOL     OW10109   4.959   2.170   0.135 -0.2151  0.1914  0.8452
 2586SOL    HW210110   5.043   2.214   0.146  1.3866 -2.3863 -0.3496
 2586SOL    HW310111   4.948   2.118   0.214  0.6597 -1.5020 -0.1014
 2586SOL    MW410112   4.968   2.169   0.147  0.2268  0.2781  0.5754
 2587SOL     OW10113   2.015   4.127   5.526 -0.4132 -0.2279 -0.5121
 2587SOL    HW210114   2.021   4.077   5.445 -2.1385 -1.4387  0.0536
 2587SOL    HW310115   2.104   4.129   5.560 -0.3326 -3.6457 -0.1765
 2587SOL    MW410116   2.027   4.121   5.520  0.1222  0.5593 -0.1556
 2588SOL     OW10117   2.426   4.199   0.118 -0.3081 -0.3569  0.4257
 2588SOL    HW210118   2.409   4.186   0.212 -0.9381 -3.5328  0.0027
 2588SOL    HW310119   2.517   4.228   0.114 -0.4995  0.5918  2.0305
 2588SOL    MW410120   2.436   4.201   0.130 -0.9310  0.3739 -0.8126
 2589SOL     OW10121   5.070   2.988   1.970  0.6370 -0.0874  0.2057
 2589SOL    HW210122   5.086   2.909   2.021 -0.4147  0.3417  1.2478
 2589SOL    HW310123   5.102   2.967   1.882 -1.4970 -2.4475 -0.1285
 2589SOL    MW410124   5.076   2.975   1.965  0.2862 -0.0096 -0.2217
 2590SOL     OW10125   3.458   2.136   0.737 -0.0354  0.2801 -0.1754
 2590SOL    HW210126   3.392   2.084   0.691 -0.7472 -0.3429  1.4811
 2590SOL    HW310127   3.541   2.107   0.700 -0.5841 -0.2113 -1.0445
 2590SOL    MW410128   3.460   2.125   0.726  0.2434  0.1666  0.2503
 2591SOL     OW10129   1.358   1.073   4.215 -0.0183 -0.0030  0.1027
 2591SOL    HW210130   1.370   1.050   4.308  0.5764  1.7415  0.4915
 2591SOL    HW310131   1.422   1.142   4.199 -0.6002  0.2115 -1.4257
 2591SOL    MW410132   1.368   1.079   4.225  0.0532  0.4053 -0.0910
 2592SOL     OW10133   3.408   0.416   5.551  0.0992 -0.5400 -0.2856
 2592SOL    HW210134   3.386   0.328   5.583 -0.9856  0.2177  1.1649
 2592SOL    HW310135   3.503   0.421   5.558 -0.0225 -0.6472  2.3804
 2592SOL    MW410136   3.418   0.405   5.556  0.2784  0.0601  0.3343
 2593SOL     OW10137   1.056   4.145   5.907 -0.0159 -0.3844 -0.3064
 2593SOL    HW210138   0.984   4.083   5.894  0.6239 -1.3994  0.7754
 2593SOL    HW310139   1.055   4.199   5.829 -1.4512 -0.8947 -0.6753
 2593SOL    MW410140   1.046   4.144   5.895 -0.0604  0.0931  0.0060
 2594SOL     OW10141   3.035   2.938   0.263  0.4402  0.6453 -0.3587
 2594SOL    HW210142   2.944   2.958   0.240  0.4474 -0.2557 -1.2513
 2594SOL    HW310143   3.083   3.020   0.249 -0.3171  1.3048  0.7158
 2594SOL    MW410144   3.029   2.951   0.258  0.4014 -0.7812  0.5139
 2595SOL     OW10145   1.298   5.523   0.990  0.3708 -0.1391 -0.0525
 2595SOL    HW210146   1.241   5.497   0.917 -1.1401  1.0048  0.6766
 2595SOL    HW310147   1.309   5.443   1.041 -1.0050 -0.2908  0.0450
 2595SOL    MW410148   1.292   5.509   0.987  0.1110  0.9271  0.1805
 2596SOL     OW10149   0.121   0.292   3.150 -0.2825 -0.0964 -0.4233
 2596SOL    HW210150   0.049   0.254   3.100 -2.1289 -0.4276  2.2765
 2596SOL    HW310151   0.174   0.216   3.177  0.4957  0.0508 -1.4441
 2596SOL    MW410152   0.119   0.277   3.147  0.2170 -0.1563 -0.5095
 2597SOL     OW10153   5.552   6.085   1.427 -0.1994 -0.3597  0.3575
 2597SOL    HW210154   5.499   6.109   1.351  0.6079 -0.8007 -0.3596
 2597SOL    HW310155   5.489   6.076   1.499 -0.9557  0.1838 -0.2300
 2597SOL    MW410156   5.537   6.087   1.427 -0.1410  0.4989 -1.1279
 2598SOL     OW10157   0.594   1.991   5.429  0.2119 -0.4157 -0.3395
 2598SOL    HW210158   0.567   1.955   5.513  2.0261 -0.4258  0.2694
 2598SOL    HW310159   0.640   2.072   5.451  1.7623 -1.0365 -1.2165
 2598SOL    MW410160   0.596   1.997   5.443  0.7510  0.6078  0.5774
 2599SOL     OW10161   1.983   3.507   1.143  0.0880  0.0013 -0.1698
 2599SOL    HW210162   2.071   3.540   1.126  0.2346 -0.1818  0.2458
 2599SOL    HW310163   1.950   3.561   1.215  0.0407 -0.2495 -0.0017
 2599SOL    MW410164   1.990   3.519   1.150 -0.1505  0.0656 -0.4883
 2600SOL     OW10165   6.374   2.142   5.445  0.0209  0.4191  0.1286
 2600SOL    HW210166   6.373   2.233   5.476  0.0790  0.7332 -0.7754
 2600SOL    HW310167   6.400   2.092   5.522 -0.4204  1.1210  0.7533
 2600SOL    MW410168   6.378   2.148   5.459 -0.1751  0.1123 -0.6570
 2601SOL     OW10169   5.680   1.270   1.005 -0.1717 -0.0762  0.2216
 2601SOL    HW210170   5.657   1.358   1.033  0.5596 -0.3802  1.9269
 2601SOL    HW310171   5.669   1.216   1.084  0.1516 -1.3608 -0.5740
 2601SOL    MW410172   5.676   1.274   1.019  0.2321  0.0302 -0.3700
 2602SOL     OW10173   6.178   2.315   2.759  0.2178 -0.2918 -0.3297
 2602SOL    HW210174   6.092   2.286   2.729  0.4981 -0.6947 -0.7708
 2602SOL    HW310175   6.205   2.381   2.695  0.5758 -0.7483 -0.6609
 2602SOL    MW410176   6.170   2.320   2.746  0.2479 -0.1135  0.6647
 2603SOL     OW10177   2.565   0.812   3.414  0.1681  0.8845 -0.5847
 2603SOL    HW210178   2.605   0.873   3.351 -0.2690  0.0485 -1.7150
 2603SOL    HW310179   2.621   0.735   3.410  0.1707  0.8494  0.1167
 2603SOL    MW410180   2.578   0.810   3.405  0.4922 -0.2636 -0.3838
 2604SOL     OW10181   5.920   2.237   2.706 -0.6470  0.1320  0.7722
 2604SOL    HW210182   5.927   2.142   2.704  1.5509  0.2387 -1.6263
 2604SOL    HW310183   5.835   2.256   2.667 -0.3724 -0.8658 -0.3737
 2604SOL    MW410184   5.910   2.227   2.700  0.5624 -0.0039 -0.2024
 2605SOL     OW10185   5.424   3.586   6.356  0.4965 -0.4652 -0.6501
 2605SOL    HW210186   5.503   3.539   6.381  0.8104  0.9637  1.3119
 2605SOL    HW310187   5.449   3.637   6.279  0.8313 -1.6002 -1.3210
 2605SOL    MW410188   5.438   3.587   6.349  0.1653 -0.1071  0.1378
 2606SOL     OW10189   2.947   2.139   2.022  0.1159 -0.4935 -0.7576
 2606SOL    HW210190   2.892   2.070   1.984  1.2975 -0.6918 -2.2071
 2606SOL    HW310191   2.896   2.220   2.008 -0.9031 -0.9407  0.2068
 2606SOL    MW410192   2.933   2.141   2.015  0.2609  0.1663 -0.6687
 2607SOL     OW10193   1.962   1.349   3.492  0.0755  0.1796  0.0332
 2607SOL    HW210194   1.904   1.369   3.565  0.4059 -1.0185  0.6453
 2607SOL    HW310195   2.047   1.329   3.533  1.0784  2.3383 -0.8710
 2607SOL    MW410196   1.966   1.349   3.507  0.1428 -0.1478 -0.0893
 2608SOL     OW10197   2.974   0.664   0.423  0.4322 -0.2175  0.0562
 2608SOL    HW210198   3.064   0.660   0.456  0.4865  1.5326  0.2177
 2608SOL    HW310199   2.982   0.651   0.329  0.6284 -2.0046  0.2971
 2608SOL    MW410200   2.987   0.662   0.415  0.5352 -0.1553 -0.0062
 2609SOL     OW10201   2.842   2.843   2.526 -0.0353 -0.4237 -0.1659
 2609SOL    HW210202   2.797   2.917   2.485  0.2334 -1.1799 -1.9045
 2609SOL    HW310203   2.930   2.844   2.487  0.1342 -1.3481  0.1723
 2609SOL    MW410204   2.848   2.853   2.515  0.0436  0.3825 -0.5617
 2610SOL     OW10205   1.154   0.905   0.185  0.0360  0.5427 -0.1014
 2610SOL    HW210206   1.083   0.956   0.224 -0.0580  0.4692 -0.1756
 2610SOL    HW310207   1.232   0.931   0.234 -0.4411 -1.3313  1.8461
 2610SOL    MW410208   1.155   0.915   0.197  0.0973 -0.5771  0.1866
 2611SOL     OW10209   2.285   2.520   4.242 -0.6267 -0.4779  0.6290
 2611SOL    HW210210   2.290   2.428   4.268  0.4970 -0.6212 -0.0022
 2611SOL    HW310211   2.218   2.523   4.175 -0.2437 -0.9591  0.2178
 2611SOL    MW410212   2.277   2.508   4.237  0.4939 -0.0937  0.0486
 2612SOL     OW10213   0.141   3.981   4.007 -0.0744  0.3018  0.7959
 2612SOL    HW210214   0.065   4.026   3.971 -0.6055 -0.7986  0.5018
 2612SOL    HW310215   0.204   4.051   4.026  0.5036  0.9717 -2.7942
 2612SOL    MW410216   0.139   3.996   4.004  0.2202 -0.6051  0.3989
 2613SOL     OW10217   1.562   2.016   4.265  0.4164 -0.0978 -0.1294
 2613SOL    HW210218   1.561   1.928   4.303 -0.1039  0.7602  1.9776
 2613SOL    HW310219   1.569   2.074   4.341  1.2987  1.6738 -1.5086
 2613SOL    MW410220   1.563   2.012   4.280  0.6737 -0.0534  0.3132
 2614SOL     OW10221   0.807   1.222   0.181  0.0656 -0.1023 -0.1876
 2614SOL    HW210222   0.788   1.164   0.107  1.7272 -0.2202 -0.5618
 2614SOL    HW310223   0.792   1.310   0.147  1.0407 -0.1426 -0.7736
 2614SOL    MW410224   0.803   1.226   0.166 -0.4513  0.2454 -0.4806
 2615SOL     OW10225   1.135   2.424   0.637  0.3543  0.1471 -0.1648
 2615SOL    HW210226   1.105   2.470   0.716 -0.3251  0.1154 -0.4007
 2615SOL    HW310227   1.096   2.473   0.565 -1.8331 -1.7394 -0.4013
 2615SOL    MW410228   1.126   2.437   0.638 -0.4449  0.2196  0.2748
 2616SOL     OW10229   3.369   1.433   1.265  0.1648  0.0285  0.1802
 2616SOL    HW210230   3.273   1.434   1.260  0.1945 -0.4291 -0.8038
 2616SOL    HW310231   3.397   1.500   1.202  0.5019 -0.9584 -0.7545
 2616SOL    MW410232   3.360   1.442   1.256  0.0211 -0.2363  0.5687
 2617SOL     OW10233   1.634   4.451   4.018 -0.4815  0.3882 -0.2588
 2617SOL    HW210234   1.554   4.409   4.048 -0.3502 -0.9446 -1.6369
 2617SOL    HW310235   1.649   4.521   4.080 -1.2150 -1.0575  1.6485
 2617SOL    MW410236   1.626   4.454   4.030  0.2625 -0.4519  0.4940
 2618SOL     OW10237   3.579   1.868   0.291 -0.5595  0.5915  0.1968
 2618SOL    HW210238   3.543   1.788   0.331 -0.1082  0.9050  1.2487
 2618SOL    HW310239   3.670   1.846   0.273 -0.8722  0.2995 -1.1070
 2618SOL    MW410240   3.586   1.854   0.294  0.5650 -0.1264  0.7495
 2619SOL     OW10241   5.304   3.527   0.456 -0.3023 -0.1190 -0.2959
 2619SOL    HW210242   5.350   3.508   0.374  1.4474 -0.4184  0.6895
 2619SOL    HW310243   5.250   3.450   0.472  1.1268 -1.1217 -0.0442
 2619SOL    MW410244   5.303   3.514   0.447 -0.4015  0.4074 -0.1595
 2620SOL     OW10245   5.588   5.176   4.883  0.2927 -0.0912  0.1076
 2620SOL    HW210246   5.558   5.234   4.812 -1.0020 -1.1044 -0.2050
 2620SOL    HW310247   5.683   5.183   4.879  0.2381  0.3684 -1.3297
 2620SOL    MW410248   5.596   5.185   4.873  0.5016 -0.4153  0.9011
 2621SOL     OW10249   6.065   5.526   2.043  0.1303 -0.7221 -0.1219
 2621SOL    HW210250   6.108   5.567   2.118  0.4863  0.1865 -0.8019
 2621SOL    HW310251   6.004   5.593   2.012  0.4256 -0.8555 -1.0035
 2621SOL    MW410252   6.062   5.540   2.049  0.1406 -0.2101 -1.3232
 2622SOL     OW10253   3.400   3.323   3.114  0.3259  0.1371  0.3054
 2622SOL    HW210254   3.362   3.281   3.037  2.7667  0.8295 -1.4308
 2622SOL    HW310255   3.477   3.270   3.134 -0.1288  0.1291  2.1582
 2622SOL    MW410256   3.406   3.311   3.106 -0.4565  0.9415  0.7047
 2623SOL     OW10257   4.659   1.733   2.448  0.2850  0.2416 -0.4435
 2623SOL    HW210258   4.612   1.667   2.396  1.4787 -2.9555  2.1765
 2623SOL    HW310259   4.593   1.764   2.511  0.0637  0.6499 -0.8647
 2623SOL    MW410260   4.644   1.728   2.449  0.4708  0.0439 -0.1727
 2624SOL     OW10261   6.007   4.448   0.907  0.2961 -0.0613 -0.1858
 2624SOL    HW210262   5.943   4.492   0.850 -0.9709 -1.7030 -0.0743
 2624SOL    HW310263   5.984   4.476   0.995 -0.5554 -0.9971 -0.1082
 2624SOL    MW410264   5.996   4.458   0.911  0.3966 -0.1234 -0.5323
 2625SOL     OW10265   2.258   4.458   4.976  0.1701  0.3026 -0.2861
 2625SOL    HW210266   2.271   4.494   4.888  0.1319 -0.2102 -0.5065
 2625SOL    HW310267   2.245   4.365   4.961 -0.0089  0.2415  0.2540
 2625SOL    MW410268   2.258   4.451   4.962  0.6933 -0.6537 -0.3880
 2626SOL     OW10269   4.303   3.499   0.291  0.1299  0.1662  0.0486
 2626SOL    HW210270   4.310   3.437   0.218 -0.7015 -0.0974  0.1745
 2626SOL    HW310271   4.242   3.457   0.351  0.4810  0.5756  0.7004
 2626SOL    MW410272   4.296   3.485   0.289 -0.1882  0.4958  0.4219
 2627SOL     OW10273   5.395   1.841   1.355 -0.1122  0.4861 -0.3484
 2627SOL    HW210274   5.375   1.810   1.444 -0.6874  1.4753 -0.1100
 2627SOL    HW310275   5.312   1.833   1.308  0.3633 -0.6914 -1.0115
 2627SOL    MW410276   5.381   1.836   1.361  0.4469  0.3867  0.5358
 2628SOL     OW10277   5.550   5.814   5.209  0.1751 -0.2675  0.7645
 2628SOL    HW210278   5.618   5.849   5.268  1.8764  1.3123 -1.9032
 2628SOL    HW310279   5.575   5.723   5.195  2.6109  0.5891 -1.1172
 2628SOL    MW410280   5.563   5.807   5.215 -0.3299  0.1813  0.4422
 2629SOL     OW10281   6.401   0.321   0.769 -0.2489  0.0868  0.7089
 2629SOL    HW210282   6.351   0.372   0.705 -1.2591  0.1210  1.5034
 2629SOL    HW310283   6.487   0.310   0.729 -1.2594 -1.0801 -1.2804
 2629SOL    MW410284   6.406   0.326   0.755 -0.2447 -0.0998 -0.5968
 2630SOL     OW10285   2.751   0.356   4.201  0.0678  0.5313 -0.1209
 2630SOL    HW210286   2.733   0.444   4.168 -1.8228 -0.1304 -1.0427
 2630SOL    HW310287   2.787   0.309   4.126 -0.7005  0.0376 -0.1980
 2630SOL    MW410288   2.753   0.361   4.187  0.0413 -0.6086 -0.2962
 2631SOL     OW10289   1.079   4.344   3.101  0.1037 -1.0510 -0.3594
 2631SOL    HW210290   1.057   4.314   3.012 -1.9580 -0.0150 -0.2619
 2631SOL    HW310291   1.150   4.407   3.088 -2.3555  1.6604 -1.7740
 2631SOL    MW410292   1.086   4.348   3.087  0.1813 -0.4149 -0.1540
 2632SOL     OW10293   2.549   4.716   4.779  0.0680  0.7337  0.0939
 2632SOL    HW210294   2.530   4.776   4.706  1.5148  1.9394  0.6489
 2632SOL    HW310295   2.636   4.681   4.760  0.4604  1.0468  1.2001
 2632SOL    MW410296   2.558   4.720   4.767 -0.2401 -0.0953  0.0737
 2633SOL     OW10297   6.000   5.455   5.542  0.0752  0.4338  0.2706
 2633SOL    HW210298   6.033   5.368   5.520 -0.4547  0.5271 -0.9828
 2633SOL    HW310299   5.914   5.459   5.500  0.2265  1.6658  0.0513
 2633SOL    MW410300   5.993   5.444   5.533  0.1720 -0.5472  0.0271
 2634SOL     OW10301   1.578   3.878   2.881 -0.1429 -0.2393 -0.0758
 2634SOL    HW210302   1.621   3.964   2.877 -1.5825  0.5165 -0.5027
 2634SOL    HW310303   1.642   3.817   2.845  1.2797  0.4937  1.1232
 2634SOL    MW410304   1.592   3.882   2.875 -0.1385 -0.2410  0.0350
 2635SOL     OW10305   6.114   5.058   2.508 -0.2174  0.3261  0.0409
 2635SOL    HW210306   6.108   4.966   2.532 -1.1728  0.3456 -0.0652
 2635SOL    HW310307   6.207   5.079   2.514  0.0307 -0.6860 -0.1087
 2635SOL    MW410308   6.125   5.049   2.512  0.0825 -0.1260 -0.2374
 2636SOL     OW10309   0.556   0.680   5.119 -0.3015 -0.0916  0.6078
 2636SOL    HW210310   0.558   0.630   5.038  1.5113  3.0640 -1.5389
 2636SOL    HW310311   0.463   0.697   5.135 -0.6938 -0.5877 -0.9602
 2636SOL    MW410312   0.544   0.676   5.110  0.3552  0.0011  0.4756
 2637SOL     OW10313   2.452   5.418   5.906  0.4324 -0.0102 -0.0499
 2637SOL    HW210314   2.501   5.414   5.824 -0.1302 -1.1657 -0.3562
 2637SOL    HW310315   2.474   5.336   5.951 -0.5405 -0.1565  0.1897
 2637SOL    MW410316   2.461   5.407   5.901  0.2464  1.0701 -0.6107
 2638SOL     OW10317   5.224   2.764   2.704 -0.3546  0.4460 -0.1356
 2638SOL    HW210318   5.257   2.781   2.616 -0.7609  2.1514  0.0151
 2638SOL    HW310319   5.130   2.781   2.698 -0.2173  1.7590  0.8713
 2638SOL    MW410320   5.216   2.768   2.692  0.0650 -0.5564 -0.8440
 2639SOL     OW10321   3.012   4.542   6.074  0.5897  0.1475  0.0715
 2639SOL    HW210322   2.935   4.486   6.063  1.9516 -1.5267 -1.6964
 2639SOL    HW310323   3.032   4.535   6.168  0.1578 -1.6317  0.0825
 2639SOL    MW410324   3.004   4.534   6.085  0.6847 -0.1191  0.4678
 2640SOL     OW10325   5.557   5.638   4.801 -0.0301 -0.6424  0.4495
 2640SOL    HW210326   5.651   5.652   4.807  0.0645 -1.7539  2.1749
 2640SOL    HW310327   5.546   5.575   4.730  0.6098 -1.0603  0.7136
 2640SOL    MW410328   5.568   5.632   4.793  0.0638  0.4588  0.4706
 2641SOL     OW10329   2.309   2.359   5.657 -0.5065  0.0076  0.5454
 2641SOL    HW210330   2.291   2.390   5.569 -1.9379  0.6856  1.0596
 2641SOL    HW310331   2.404   2.342   5.657 -0.1363  1.7850 -0.5624
 2641SOL    MW410332   2.319   2.361   5.646  0.4368 -0.2460  0.1302
 2642SOL     OW10333   4.172   4.428   6.395 -0.2832  0.5008  0.2919
 2642SOL    HW210334   4.110   4.471   6.454 -0.7453 -1.4001  1.2715
 2642SOL    HW310335   4.141   4.449   6.307 -0.9235  1.4903  0.7340
 2642SOL    MW410336   4.160   4.436   6.391 -0.0238  0.4509 -0.2358
 2643SOL     OW10337   0.369   5.207   1.387 -0.3245 -0.4344 -0.3022
 2643SOL    HW210338   0.413   5.257   1.456  0.7589 -2.1416  0.3110
 2643SOL    HW310339   0.438   5.191   1.322 -0.9022 -0.3180 -0.9518
 2643SOL    MW410340   0.384   5.211   1.387  0.1437  0.0256  0.4866
 2644SOL     OW10341   2.886   1.450   1.409  0.5516 -0.1842  0.9618
 2644SOL    HW210342   2.876   1.545   1.414  3.7926  0.3063  0.1028
 2644SOL    HW310343   2.870   1.419   1.498 -0.6203  1.1029  1.2391
 2644SOL    MW410344   2.882   1.458   1.421 -0.8674  0.4028  0.1914
 2645SOL     OW10345   5.310   5.777   3.027 -0.7884  0.8825  0.0653
 2645SOL    HW210346   5.316   5.806   3.118 -2.0310  1.7961 -0.1253
 2645SOL    HW310347   5.283   5.685   3.032 -0.2137  0.7391  0.6194
 2645SOL    MW410348   5.307   5.768   3.040 -0.3962  0.6506 -0.4166
 2646SOL     OW10349   0.148   5.456   4.165  0.0443 -0.0628 -0.1529
 2646SOL    HW210350   0.161   5.367   4.198  1.6743 -0.0778 -0.7694
 2646SOL    HW310351   0.120   5.506   4.242 -0.3357 -0.9740  0.3213
 2646SOL    MW410352   0.146   5.451   4.180 -0.0267  0.1887  0.3475
 2647SOL     OW10353   3.412   3.471   0.334  0.1969  0.2338 -0.6852
 2647SOL    HW210354   3.495   3.517   0.323  0.3227  0.1263 -0.2110
 2647SOL    HW310355   3.415   3.399   0.270  0.5111  0.1698 -0.5983
 2647SOL    MW410356   3.423   3.467   0.324 -0.2549 -0.4807  0.2519
 2648SOL     OW10357   5.873   1.818   1.097  0.3815 -0.2474 -0.3524
 2648SOL    HW210358   5.898   1.897   1.146  1.4474 -0.4055 -0.6191
 2648SOL    HW310359   5.783   1.801   1.125  0.0667  1.1502 -0.4126
 2648SOL    MW410360   5.864   1.826   1.107  0.2073 -0.2967  0.4447
 2649SOL     OW10361   0.000   1.107   1.949  0.0937  0.4000 -0.3247
 2649SOL    HW210362  -0.049   1.027   1.929 -0.9121  1.3476 -1.7494
 2649SOL    HW310363   0.087   1.075   1.974 -0.6193 -1.1942  0.2699
 2649SOL    MW410364   0.005   1.092   1.950  0.3192  0.9189 -0.0731
 2650SOL     OW10365   3.979   1.118   2.576 -0.2195 -0.1900  0.4160
 2650SOL    HW210366   3.965   1.027   2.549  2.0538 -0.4397 -0.0971
 2650SOL    HW310367   4.033   1.111   2.655 -0.0887  0.7125  0.4099
 2650SOL    MW410368   3.984   1.105   2.583  0.5743 -0.3290  0.0464
 2651SOL     OW10369   4.946   3.512   1.706 -0.9253  0.0394 -0.5039
 2651SOL    HW210370   4.979   3.457   1.635 -0.8634 -1.2783  0.5090
 2651SOL    HW310371   5.024   3.539   1.755 -0.9474  1.1242 -1.0424
 2651SOL    MW410372   4.961   3.508   1.703 -0.1578 -0.4647  0.1534
 2652SOL     OW10373   1.360   3.764   1.353 -0.4114  0.1321  0.1672
 2652SOL    HW210374   1.338   3.677   1.318  0.2544 -0.5559  1.4022
 2652SOL    HW310375   1.322   3.764   1.441  1.0127  0.4498  0.7987
 2652SOL    MW410376   1.352   3.752   1.360  0.1370 -0.4095  0.0952
 2653SOL     OW10377   3.755   1.424   1.143  0.8477  0.1847 -0.2605
 2653SOL    HW210378   3.712   1.384   1.219 -3.0494  1.1482 -1.7365
 2653SOL    HW310379   3.757   1.517   1.163  4.2718  0.0945  0.5299
 2653SOL    MW410380   3.750   1.431   1.156 -0.0314  0.0914  0.2729
 2654SOL     OW10381   2.833   0.037   5.197 -0.3378 -0.1458 -0.2858
 2654SOL    HW210382   2.820  -0.049   5.157  2.6470 -0.8739  0.0640
 2654SOL    HW310383   2.827   0.021   5.291  2.5917 -0.5678 -0.0927
 2654SOL    MW410384   2.830   0.023   5.204  0.2813  0.2979 -0.1485
 2655SOL     OW10385   0.800   4.003   5.183 -0.1349 -0.5564 -0.1623
 2655SOL    HW210386   0.783   3.980   5.274 -0.1171  2.2129  0.6280
 2655SOL    HW310387   0.895   3.991   5.172 -0.2688 -1.7921 -0.1496
 2655SOL    MW410388   0.811   3.998   5.193  0.0235 -0.4038 -0.5151
 2656SOL     OW10389   1.878   4.242   1.604  0.0075 -0.3420 -0.5047
 2656SOL    HW210390   1.809   4.308   1.609  0.6826  0.4301 -1.0315
 2656SOL    HW310391   1.864   4.186   1.680 -1.3125 -0.3221 -0.7189
 2656SOL    MW410392   1.867   4.243   1.614 -0.3954  0.0649  0.4342
 2657SOL     OW10393   1.688   4.667   4.177  0.4551  0.2701  0.0616
 2657SOL    HW210394   1.771   4.635   4.212  0.3722  1.2399  1.1972
 2657SOL    HW310395   1.713   4.739   4.118  0.4008  1.0793  1.0016
 2657SOL    MW410396   1.702   4.672   4.174 -0.0036  0.0410 -0.4699
 2658SOL     OW10397   3.373   3.502   2.060  0.3933 -0.0129  0.1656
 2658SOL    HW210398   3.399   3.508   2.152  0.6588  0.1829  0.0805
 2658SOL    HW310399   3.454   3.479   2.014  0.3820  0.4405 -0.0858
 2658SOL    MW410400   3.387   3.500   2.066 -0.1709  0.5919  0.0517
 2659SOL     OW10401   2.095   4.753   5.609 -0.6214 -0.3945  0.2153
 2659SOL    HW210402   2.026   4.777   5.547  0.9429  0.4738 -1.3082
 2659SOL    HW310403   2.104   4.829   5.666  0.4828  0.4301 -0.9836
 2659SOL    MW410404   2.087   4.767   5.608 -0.3155  0.1085  0.3301
 2660SOL     OW10405   4.133   4.771   2.968  0.1522  0.0879  0.2211
 2660SOL    HW210406   4.124   4.704   3.036 -0.6705 -1.2500 -1.1325
 2660SOL    HW310407   4.070   4.745   2.900 -0.8472  2.7531  0.0185
 2660SOL    MW410408   4.123   4.759   2.968 -0.2135  0.4981  0.5226
 2661SOL     OW10409   3.459   5.316   0.797  0.3853  0.4309  0.3433
 2661SOL    HW210410   3.374   5.276   0.813  0.0130  0.7581 -0.7277
 2661SOL    HW310411   3.512   5.290   0.872 -0.6057  0.0910  0.9461
 2661SOL    MW410412   3.455   5.307   0.809 -0.3761  0.1807 -0.1259
 2662SOL     OW10413   2.357   1.875   4.358  0.5210  0.1260  0.5238
 2662SOL    HW210414   2.413   1.845   4.430 -0.1575  0.4976  1.2205
 2662SOL    HW310415   2.405   1.851   4.279  0.4570 -1.9176  1.0470
 2662SOL    MW410416   2.371   1.868   4.357 -0.4102  0.3835 -0.2668
 2663SOL     OW10417   1.933   3.530   3.678 -0.0653  0.4992  0.1438
 2663SOL    HW210418   1.922   3.544   3.583  0.6502 -1.9246 -0.3674
 2663SOL    HW310419   2.026   3.509   3.688 -0.2615  0.1230  1.3088
 2663SOL    MW410420   1.944   3.529   3.666 -0.1065 -0.4842 -0.4245
 2664SOL     OW10421   4.130   1.480   2.282 -0.2755  0.9326  0.0128
 2664SOL    HW210422   4.143   1.390   2.251  0.3396  1.6066 -1.8356
 2664SOL    HW310423   4.181   1.486   2.362 -1.3476 -0.7065  0.8710
 2664SOL    MW410424   4.138   1.469   2.288  0.0665 -0.2001  0.5710
 2665SOL     OW10425   1.075   4.073   4.418  0.0709 -0.1132  0.0484
 2665SOL    HW210426   1.160   4.095   4.456 -0.2903  0.4804  0.5232
 2665SOL    HW310427   1.066   4.133   4.344  1.9826 -2.9839 -2.8213
 2665SOL    MW410428   1.085   4.084   4.413  0.1984 -0.3109  0.3028
 2666SOL     OW10429   2.073   5.513   3.588  0.3201 -0.0022  0.4259
 2666SOL    HW210430   2.089   5.428   3.629  0.1377 -0.1836  0.1249
 2666SOL    HW310431   2.155   5.561   3.598  0.0499  0.2448  1.6748
 2666SOL    MW410432   2.086   5.508   3.595 -0.7173 -0.0003 -0.0890
 2667SOL     OW10433   2.537   0.479   3.601 -0.0248  0.3297 -0.3636
 2667SOL    HW210434   2.441   0.469   3.599  0.1351 -2.3413  0.9498
 2667SOL    HW310435   2.565   0.456   3.512 -0.5614  1.3799 -0.8323
 2667SOL    MW410436   2.528   0.475   3.589  0.5000  0.2499 -0.2271
 2668SOL     OW10437   5.149   5.924   4.275  0.2062 -0.1429 -0.5398
 2668SOL    HW210438   5.104   5.982   4.337 -0.5965 -0.6575 -0.6275
 2668SOL    HW310439   5.240   5.951   4.280 -0.1096  0.9922 -0.4144
 2668SOL    MW410440   5.155   5.935   4.284  0.2135  0.7131  0.1152
 2669SOL     OW10441   4.295   3.998   5.054  0.3071 -0.2295 -0.2248
 2669SOL    HW210442   4.321   4.054   5.127 -0.1824 -0.1188 -0.1324
 2669SOL    HW310443   4.348   3.919   5.063 -1.4714 -1.3016  1.6983
 2669SOL    MW410444   4.305   3.995   5.065  0.0193 -0.4454  0.6646
 2670SOL     OW10445   4.247   4.371   1.016 -0.0765  0.4591 -0.0342
 2670SOL    HW210446   4.225   4.402   1.104 -0.6455  0.0619 -0.0279
 2670SOL    HW310447   4.189   4.296   1.002  1.1667 -0.5074 -0.1185
 2670SOL    MW410448   4.236   4.365   1.025  0.1635  0.6744  0.3425
 2671SOL     OW10449   3.048   3.366   5.147 -0.4939  0.3376 -0.7091
 2671SOL    HW210450   3.125   3.397   5.196 -0.2901  0.8648 -1.3391
 2671SOL    HW310451   3.037   3.275   5.175 -0.4915  0.6675  0.4387
 2671SOL    MW410452   3.057   3.358   5.157  0.1241 -0.2238 -0.1372
 2672SOL     OW10453   5.520   2.555   2.263 -0.0646  0.2946 -0.1923
 2672SOL    HW210454   5.563   2.636   2.237 -0.0799  0.3413 -0.0732
 2672SOL    HW310455   5.483   2.574   2.349  2.9200 -0.8546  1.5130
 2672SOL    MW410456   5.521   2.568   2.271 -0.0501 -0.1275 -0.3406
 2673SOL     OW10457   0.021   5.624   5.283  0.3575 -0.0136 -0.0981
 2673SOL    HW210458   0.097   5.683   5.284 -0.5882  1.2498 -0.1840
 2673SOL    HW310459  -0.009   5.625   5.192 -1.6026  2.0212  0.4763
 2673SOL    MW410460   0.027   5.632   5.271  0.4746 -0.6052  0.1088
 2674SOL     OW10461   0.719   5.588   5.200 -0.5025  0.1144 -0.0435
 2674SOL    HW210462   0.660   5.628   5.264 -0.1316  0.4740  0.0704
 2674SOL    HW310463   0.685   5.499   5.190 -0.9713  0.2668  0.1430
 2674SOL    MW410464   0.707   5.581   5.207 -0.7152  0.0178 -0.3130
 2675SOL     OW10465   1.210   0.967   1.843  0.0314  0.2298 -0.3030
 2675SOL    HW210466   1.229   0.974   1.749  0.2616 -1.1483 -0.3855
 2675SOL    HW310467   1.167   0.882   1.852 -0.9969  0.8351  0.6943
 2675SOL    MW410468   1.207   0.957   1.831 -0.3837 -0.1178  0.3763
 2676SOL     OW10469   0.192   0.189   5.609  0.6146 -0.2883 -0.1363
 2676SOL    HW210470   0.145   0.106   5.602 -1.0065  0.4235  1.5852
 2676SOL    HW310471   0.146   0.238   5.677  1.3296  2.1583 -1.2792
 2676SOL    MW410472   0.180   0.185   5.617 -0.0994 -0.2034  0.1957
 2677SOL     OW10473   1.260   3.816   2.231  0.0706  0.0100 -0.4810
 2677SOL    HW210474   1.230   3.806   2.141 -2.6019  1.8556  0.0587
 2677SOL    HW310475   1.182   3.797   2.284  1.6922 -1.5364  1.5161
 2677SOL    MW410476   1.245   3.813   2.226  1.0859 -0.4552  0.3025
 2678SOL     OW10477   3.665   2.767   0.692 -0.1731  0.6198 -0.4479
 2678SOL    HW210478   3.662   2.863   0.684 -1.5533  0.5470 -1.2117
 2678SOL    HW310479   3.703   2.737   0.610 -0.0536  0.5070 -0.3509
 2678SOL    MW410480   3.669   2.776   0.680  0.0323 -0.3287 -0.2070
 2679SOL     OW10481   4.104   3.879   6.089 -0.3629  0.1122 -0.3736
 2679SOL    HW210482   4.169   3.810   6.087 -0.0372  0.3002  1.5780
 2679SOL    HW310483   4.135   3.944   6.026  2.7703  1.3432  2.1418
 2679SOL    MW410484   4.116   3.879   6.081 -0.3041  0.3508  0.0466
 2680SOL     OW10485   3.591   2.399   4.451 -0.2393 -0.0930  0.1302
 2680SOL    HW210486   3.564   2.321   4.402 -1.9610 -0.4470  1.5362
 2680SOL    HW310487   3.661   2.437   4.398  0.1400 -2.1605 -0.9856
 2680SOL    MW410488   3.596   2.393   4.437  0.2881 -0.2807 -0.0936
 2681SOL     OW10489   5.113   5.111   2.623 -0.3726 -0.0420  0.4928
 2681SOL    HW210490   5.038   5.055   2.605 -0.9957  0.7172  0.6577
 2681SOL    HW310491   5.187   5.068   2.581 -0.4074 -2.0902  2.3363
 2681SOL    MW410492   5.113   5.098   2.615 -0.0960  0.0975  0.0013
 2682SOL     OW10493   0.316   0.127   1.345 -0.0379 -0.2181 -0.6837
 2682SOL    HW210494   0.246   0.090   1.399 -0.3431 -1.6647 -2.0118
 2682SOL    HW310495   0.391   0.068   1.358  0.6471  0.7642 -0.0398
 2682SOL    MW410496   0.317   0.114   1.354 -0.8871 -0.3156 -0.1853
 2683SOL     OW10497   2.129   5.401   1.099  0.0010 -0.2684 -0.1205
 2683SOL    HW210498   2.066   5.401   1.027  0.2011  0.4963 -0.3063
 2683SOL    HW310499   2.117   5.486   1.142  2.1050  0.7036 -1.2685
 2683SOL    MW410500   2.119   5.412   1.095  0.0560 -0.1987  0.1699
 2684SOL     OW10501   6.091   4.782   0.781  0.1722  0.3137 -0.5717
 2684SOL    HW210502   6.089   4.737   0.696  0.2498 -0.3251 -0.2415
 2684SOL    HW310503   6.032   4.856   0.771  1.3312  1.1313 -1.6829
 2684SOL    MW410504   6.083   4.786   0.768 -0.4995 -0.1155  0.6071
 2685SOL     OW10505   4.532   4.565   1.520  0.4895 -0.0785  0.2494
 2685SOL    HW210506   4.530   4.659   1.541 -3.2434  0.1246 -0.4072
 2685SOL    HW310507   4.441   4.541   1.507  1.3188 -3.8322  0.2040
 2685SOL    MW410508   4.520   4.575   1.521  0.2673 -0.4178  0.3095
 2686SOL     OW10509   1.167   1.536   0.661  0.1790  0.0605 -0.4535
 2686SOL    HW210510   1.093   1.533   0.601 -0.9452  1.1373  0.8149
 2686SOL    HW310511   1.219   1.611   0.633 -0.3059  0.5191 -0.1362
 2686SOL    MW410512   1.164   1.545   0.649  0.1971 -0.2952  0.6104
 2687SOL     OW10513   1.776   0.648   6.148  0.4205  0.1195  0.0498
 2687SOL    HW210514   1.840   0.647   6.076 -0.2568  0.5333 -0.5723
 2687SOL    HW310515   1.702   0.599   6.114  0.5946 -0.8063  0.9628
 2687SOL    MW410516   1.775   0.641   6.134  0.4733 -0.4412 -0.5496
 2688SOL     OW10517   0.880   5.644   6.198 -0.8080 -0.4645  0.9050
 2688SOL    HW210518   0.961   5.692   6.179 -0.6338 -1.0548  0.0974
 2688SOL    HW310519   0.823   5.708   6.240 -1.0458  0.8208 -1.2225
 2688SOL    MW410520   0.883   5.658   6.201 -0.4322 -0.7610 -0.7352
 2689SOL     OW10521   2.136   2.850   5.807 -0.0981  0.0050 -1.0571
 2689SOL    HW210522   2.173   2.932   5.777  0.0144 -0.2404 -1.6075
 2689SOL    HW310523   2.208   2.788   5.805  0.1698  0.2048  0.7292
 2689SOL    MW410524   2.150   2.852   5.802 -0.0259  0.2424 -0.0433
 2690SOL     OW10525   5.122   5.106   2.100  0.1556  0.4181 -0.0239
 2690SOL    HW210526   5.075   5.047   2.159  0.1108 -0.9507 -1.3841
 2690SOL    HW310527   5.194   5.054   2.065 -0.3384  0.9060 -1.8519
 2690SOL    MW410528   5.125   5.091   2.103 -0.5511  0.0049  0.2990
 2691SOL     OW10529   5.362   3.185   0.383 -0.9423 -0.5998  0.0168
 2691SOL    HW210530   5.278   3.182   0.338 -0.6242 -0.3884 -0.6114
 2691SOL    HW310531   5.425   3.203   0.314 -0.4914  0.2082  0.6208
 2691SOL    MW410532   5.359   3.187   0.368 -0.0541  0.8277  0.3891
 2692SOL     OW10533   6.123   6.079   1.457 -0.2118  0.1508 -0.1953
 2692SOL    HW210534   6.207   6.120   1.481 -1.4279  2.0182  1.1379
 2692SOL    HW310535   6.140   6.040   1.371  1.4192  2.4870 -1.0424
 2692SOL    MW410536   6.136   6.079   1.449  0.2019  0.1517 -0.0440
 2693SOL     OW10537   5.860   1.511   1.927  0.8875  1.6461  0.0685
 2693SOL    HW210538   5.800   1.572   1.970  0.0401 -0.0041  1.3295
 2693SOL    HW310539   5.835   1.514   1.835  0.0676  2.3275  0.2983
 2693SOL    MW410540   5.849   1.520   1.921 -0.9758  0.0580  0.6670
 2694SOL     OW10541   0.676   3.033   0.159 -0.2498 -0.2937  0.5521
 2694SOL    HW210542   0.762   3.059   0.128  0.3456  0.1875  2.4632
 2694SOL    HW310543   0.687   2.942   0.188 -0.8298 -0.7845 -0.6839
 2694SOL    MW410544   0.689   3.024   0.159 -0.8135 -0.5443  0.2434
 2695SOL     OW10545   2.787   2.339   1.963  0.9681 -0.0035 -0.2346
 2695SOL    HW210546   2.771   2.421   2.009 -0.0600 -1.0095  1.2987
 2695SOL    HW310547   2.806   2.365   1.873  1.0682  1.9235  0.3101
 2695SOL    MW410548   2.787   2.353   1.957  0.1555  0.3164  0.1114
 2696SOL     OW10549   5.008   1.338   2.157  0.2814  0.1466 -0.8367
 2696SOL    HW210550   4.927   1.312   2.200  0.7355 -0.5129 -0.3558
 2696SOL    HW310551   5.066   1.262   2.168  1.8532  1.5083  1.0871
 2696SOL    MW410552   5.005   1.324   2.164 -0.3509 -0.1860  0.1450
 2697SOL     OW10553   4.988   5.183   0.640 -0.2786 -0.0405 -0.3029
 2697SOL    HW210554   4.950   5.190   0.727 -0.7300 -0.3144 -0.4767
 2697SOL    HW310555   4.959   5.262   0.594 -2.6744 -1.3616 -1.2152
 2697SOL    MW410556   4.979   5.194   0.645  0.8003  0.2430 -0.1397
 2698SOL     OW10557   2.229   3.349   0.844  0.4365 -0.1431 -0.2087
 2698SOL    HW210558   2.232   3.281   0.912  1.9370  1.2059  1.1519
 2698SOL    HW310559   2.320   3.376   0.833  0.1238  0.2546 -2.2158
 2698SOL    MW410560   2.241   3.344   0.851 -0.0992 -0.2601 -0.2022
 2699SOL     OW10561   4.733   3.387   5.961 -0.0827 -0.2098 -0.5843
 2699SOL    HW210562   4.783   3.453   6.009 -1.0623  1.0676 -1.2422
 2699SOL    HW310563   4.799   3.330   5.920  0.8069 -1.8155  2.7676
 2699SOL    MW410564   4.748   3.388   5.962 -0.3513 -0.9929  0.2478
 2700SOL     OW10565   3.072   3.522   4.867  0.3122  0.1217  0.2827
 2700SOL    HW210566   3.028   3.575   4.933 -1.5529  2.6875 -2.7886
 2700SOL    HW310567   3.044   3.432   4.886 -1.9679  1.0389  1.6192
 2700SOL    MW410568   3.063   3.517   4.878  0.6791 -0.0189  0.4282
 2701SOL     OW10569   1.752   5.007   5.476 -0.2282  0.1962 -0.1469
 2701SOL    HW210570   1.806   5.080   5.444  1.1577 -0.6179  0.2543
 2701SOL    HW310571   1.793   4.929   5.439  0.2991 -0.6266  2.0632
 2701SOL    MW410572   1.764   5.007   5.467  0.5475 -0.3501 -0.2465
 2702SOL     OW10573   1.696   6.236   5.217 -0.4453 -0.4336  0.0575
 2702SOL    HW210574   1.731   6.283   5.293  0.4719 -1.0160  0.0040
 2702SOL    HW310575   1.704   6.144   5.240 -4.2270 -0.6623  1.0829
 2702SOL    MW410576   1.702   6.230   5.230  0.4500  0.2849 -0.4656
 2703SOL     OW10577   4.082   3.426   0.455  0.0980  0.5831  0.4411
 2703SOL    HW210578   4.109   3.364   0.523  0.6289  0.6754  0.3187
 2703SOL    HW310579   4.032   3.493   0.502 -0.0573  0.3265  0.6474
 2703SOL    MW410580   4.079   3.426   0.470 -0.2114  0.3662 -0.3244
 2704SOL     OW10581   3.894   4.297   3.702  0.5043  0.0992  0.1345
 2704SOL    HW210582   3.827   4.237   3.666  1.5700 -1.9890  1.4213
 2704SOL    HW310583   3.974   4.274   3.654  1.0436  0.0936  1.0244
 2704SOL    MW410584   3.895   4.286   3.691  0.1084 -0.5701 -0.7562
 2705SOL     OW10585   4.705   5.119   6.345 -0.1107  0.3091  0.1320
 2705SOL    HW210586   4.743   5.110   6.258 -0.1624  1.8337 -0.0780
 2705SOL    HW310587   4.678   5.211   6.351 -5.6518 -0.8902 -0.5211
 2705SOL    MW410588   4.706   5.130   6.335  0.2727 -0.4408 -0.3322
 2706SOL     OW10589   4.236   3.261   0.655  0.4777 -0.5037  0.2346
 2706SOL    HW210590   4.213   3.197   0.722  2.2811 -1.9582 -0.4294
 2706SOL    HW310591   4.332   3.265   0.657  0.8676 -2.4338 -3.6808
 2706SOL    MW410592   4.246   3.253   0.664  0.6678 -0.8330 -0.0873
 2707SOL     OW10593   0.180   1.078   3.024  0.4020  0.3601  0.5158
 2707SOL    HW210594   0.163   1.028   2.945 -1.2500 -1.5914  1.9775
 2707SOL    HW310595   0.175   1.170   2.996 -0.2640 -0.2625 -1.5938
 2707SOL    MW410596   0.177   1.084   3.010 -1.1046 -0.4961  0.6688
 2708SOL     OW10597   5.234   0.067   3.108 -0.1063 -0.2181 -0.0281
 2708SOL    HW210598   5.161   0.005   3.111 -0.1046 -0.1828  1.7633
 2708SOL    HW310599   5.193   0.153   3.109 -0.0653 -0.1787 -0.8874
 2708SOL    MW410600   5.219   0.070   3.109 -0.0191  0.4710 -0.1240
 2709SOL     OW10601   5.181   6.173   5.593  0.3608  0.1976 -0.1485
 2709SOL    HW210602   5.263   6.190   5.546  1.3782 -2.5246  0.4216
 2709SOL    HW310603   5.160   6.082   5.572 -0.3420 -0.4440  2.8047
 2709SOL    MW410604   5.189   6.163   5.584  0.0866  0.8228 -0.3131
 2710SOL     OW10605   2.986   1.350   3.807  0.6745 -0.0554  0.0124
 2710SOL    HW210606   3.006   1.432   3.852 -1.2303  0.3594  0.2080
 2710SOL    HW310607   2.897   1.329   3.836  1.5913 -2.9432  1.0572
 2710SOL    MW410608   2.977   1.358   3.817  0.0846  0.1797 -0.0260
 2711SOL     OW10609   5.372   6.282   3.799 -0.8193 -0.4945  0.4570
 2711SOL    HW210610   5.325   6.356   3.762 -0.7013  0.4495  2.0879
 2711SOL    HW310611   5.344   6.279   3.891  2.0504 -0.0241  1.4767
 2711SOL    MW410612   5.362   6.291   3.806  0.1151  0.1402  0.1347
 2712SOL     OW10613   1.728   1.151   5.867  0.5017 -0.0546 -0.2626
 2712SOL    HW210614   1.810   1.184   5.902  0.0445  1.3475 -0.4682
 2712SOL    HW310615   1.703   1.080   5.927  1.6939 -0.2983 -0.0395
 2712SOL    MW410616   1.735   1.146   5.880  0.7411  0.2838 -0.1413
 2713SOL     OW10617   2.605   4.588   2.769 -0.0751  0.0726 -0.3758
 2713SOL    HW210618   2.693   4.551   2.769  0.4286  1.2223 -0.2661
 2713SOL    HW310619   2.594   4.624   2.857  0.5613  2.6136 -1.2407
 2713SOL    MW410620   2.615   4.588   2.781 -0.2763  0.0927  0.1055
 2714SOL     OW10621   5.493   0.531   0.468 -0.2964 -0.0207 -0.2555
 2714SOL    HW210622   5.421   0.567   0.416  1.6512  2.5231 -1.4206
 2714SOL    HW310623   5.518   0.451   0.422 -0.4885  0.6535 -1.5861
 2714SOL    MW410624   5.486   0.526   0.455  0.3275  0.0646  0.2342
 2715SOL     OW10625   4.963   5.812   2.376 -0.1833 -0.2415 -0.9531
 2715SOL    HW210626   5.049   5.836   2.341  0.1221  0.3390  0.1313
 2715SOL    HW310627   4.905   5.810   2.300  0.9611 -1.5516 -1.8489
 2715SOL    MW410628   4.967   5.815   2.361  0.1778 -0.7577  0.4998
 2716SOL     OW10629   5.364   2.327   4.862  0.1627 -0.2157  0.6303
 2716SOL    HW210630   5.406   2.300   4.780  0.4788 -0.6745  0.9363
 2716SOL    HW310631   5.321   2.248   4.894 -1.1385  0.3025  0.2166
 2716SOL    MW410632   5.364   2.313   4.855 -0.4516 -0.4361  0.0366
 2717SOL     OW10633   1.673   5.683   0.736 -0.9405  0.3148  0.3622
 2717SOL    HW210634   1.645   5.705   0.825  1.9926  2.2645  0.9289
 2717SOL    HW310635   1.688   5.768   0.693  0.0533 -0.5759 -1.1714
 2717SOL    MW410636   1.671   5.697   0.742  0.4705  0.0880 -0.3172
 2718SOL     OW10637   5.540   1.881   3.102 -0.2015  0.1867 -0.3844
 2718SOL    HW210638   5.631   1.910   3.091 -0.1175 -0.4067 -1.4573
 2718SOL    HW310639   5.536   1.846   3.191  0.6872  0.0161 -0.4041
 2718SOL    MW410640   5.551   1.880   3.112  0.0413 -0.4320 -0.9860
 2719SOL     OW10641   2.228   4.212   4.864 -0.2096  0.3641  0.0994
 2719SOL    HW210642   2.273   4.134   4.894  0.6900  0.9668  0.3421
 2719SOL    HW310643   2.195   4.189   4.776  0.5115 -0.0989 -0.0528
 2719SOL    MW410644   2.229   4.199   4.856 -0.2113 -0.1573  0.6338
 2720SOL     OW10645   4.895   3.729   3.006 -0.6320 -0.0068  0.3081
 2720SOL    HW210646   4.977   3.755   2.964 -0.3267 -1.9215 -0.3723
 2720SOL    HW310647   4.831   3.793   2.975  0.4487  1.1015  0.2967
 2720SOL    MW410648   4.897   3.741   2.997 -0.0738 -0.4267 -0.4732
 2721SOL     OW10649   1.439   3.036   2.908  0.2968  0.2859  0.2146
 2721SOL    HW210650   1.387   3.112   2.882  0.8670  1.3071  1.8841
 2721SOL    HW310651   1.516   3.040   2.851 -0.1797  0.3413 -0.4302
 2721SOL    MW410652   1.442   3.047   2.897  0.5688 -1.4325 -0.1936
 2722SOL     OW10653   0.573   4.341   4.285 -0.4408  0.1022  0.8299
 2722SOL    HW210654   0.595   4.324   4.194  0.8236 -0.0050  1.1308
 2722SOL    HW310655   0.627   4.417   4.309 -1.8936  1.0914  1.0700
 2722SOL    MW410656   0.583   4.349   4.276 -0.2412  0.8549 -0.4243
 2723SOL     OW10657   0.694   2.638   5.003  0.3582  0.3361  0.2626
 2723SOL    HW210658   0.765   2.680   4.954 -0.4551  2.3667  0.7156
 2723SOL    HW310659   0.651   2.581   4.939  0.7864  1.0912 -0.7322
 2723SOL    MW410660   0.698   2.636   4.988  0.5095 -0.2264  0.4022
 2724SOL     OW10661   5.147   6.338   3.574 -0.3404  0.2412  0.3094
 2724SOL    HW210662   5.190   6.358   3.490  0.0896 -0.7193  0.2884
 2724SOL    HW310663   5.129   6.423   3.612 -1.4680  0.7456 -1.2174
 2724SOL    MW410664   5.151   6.352   3.568 -0.2490  0.5889 -0.4739
 2725SOL     OW10665   0.959   2.711   1.208  0.1493 -0.0434 -0.6754
 2725SOL    HW210666   0.931   2.790   1.253 -0.1593  0.5421 -1.8491
 2725SOL    HW310667   0.894   2.699   1.138 -0.2724 -1.7912 -0.0224
 2725SOL    MW410668   0.946   2.720   1.204 -0.0349 -0.9488  0.8434
 2726SOL     OW10669   4.766   5.312   0.247  0.3493  0.0342 -0.1494
 2726SOL    HW210670   4.703   5.255   0.292 -0.6429  0.5785 -0.8038
 2726SOL    HW310671   4.817   5.253   0.191 -0.6490 -0.2393 -0.7984
 2726SOL    MW410672   4.764   5.297   0.245  0.5477  0.1551 -0.0631
 2727SOL     OW10673   4.671   3.944   4.617 -0.1988 -0.8116  0.2151
 2727SOL    HW210674   4.582   3.911   4.600 -0.0762 -0.8240 -0.4169
 2727SOL    HW310675   4.657   4.023   4.669 -0.7292  0.4295 -1.6805
 2727SOL    MW410676   4.657   3.950   4.621  0.4161  0.3323 -0.2779
 2728SOL     OW10677   2.373   2.429   0.633 -0.3559  0.2745 -0.2334
 2728SOL    HW210678   2.349   2.372   0.706 -0.1158 -0.1929 -0.5147
 2728SOL    HW310679   2.443   2.382   0.587 -0.5956  0.4934 -0.8412
 2728SOL    MW410680   2.379   2.415   0.636  0.3534  0.3332 -0.2661
 2729SOL     OW10681   4.750   1.638   3.286  0.0736  0.4784  0.3505
 2729SOL    HW210682   4.696   1.566   3.256  1.2494 -0.4416  0.3642
 2729SOL    HW310683   4.698   1.717   3.268  0.1801 -0.0712 -2.9424
 2729SOL    MW410684   4.736   1.639   3.280  0.2993  0.1080 -0.3680
 2730SOL     OW10685   5.896   6.039   3.940  0.2317 -0.1128  0.0142
 2730SOL    HW210686   5.970   6.063   3.883 -0.0752 -0.6723 -0.6332
 2730SOL    HW310687   5.912   5.947   3.962 -0.3438 -0.2760 -0.2481
 2730SOL    MW410688   5.908   6.030   3.935  0.0738  0.1350  0.2403
 2731SOL     OW10689   1.525   4.477   4.439  0.0297 -0.4207 -0.2704
 2731SOL    HW210690   1.607   4.428   4.444 -0.9439 -2.0804  0.2233
 2731SOL    HW310691   1.536   4.548   4.501 -0.1107 -2.5990  2.4672
 2731SOL    MW410692   1.537   4.480   4.448  0.3995  0.7943 -0.1618
 2732SOL     OW10693   1.716   4.123   5.594  0.0841  0.4392  0.4977
 2732SOL    HW210694   1.795   4.141   5.542 -0.5968  0.7874 -0.4299
 2732SOL    HW310695   1.724   4.031   5.620 -0.4954 -0.3337 -1.8697
 2732SOL    MW410696   1.728   4.114   5.591 -0.3136 -0.1232 -0.1768
 2733SOL     OW10697   0.770   2.484   0.688  0.0633  0.0093 -0.7153
 2733SOL    HW210698   0.747   2.554   0.627  1.3570 -0.6057 -1.9305
 2733SOL    HW310699   0.839   2.521   0.742 -1.8381  0.9609  1.2486
 2733SOL    MW410700   0.776   2.498   0.687  1.0794 -0.9419 -0.4952
 2734SOL     OW10701   3.521   0.739   1.033 -0.1099 -0.2314 -0.5191
 2734SOL    HW210702   3.548   0.647   1.031  2.5146  0.3557  1.6356
 2734SOL    HW310703   3.548   0.773   0.948 -1.1182 -1.4061 -1.3465
 2734SOL    MW410704   3.528   0.731   1.021  0.0915  0.2441  0.3177
 2735SOL     OW10705   1.084   3.920   5.192 -0.2768 -0.0532  0.1049
 2735SOL    HW210706   1.074   3.832   5.156 -0.5847 -0.4567  1.1579
 2735SOL    HW310707   1.176   3.941   5.180 -0.6231  0.4293 -2.2506
 2735SOL    MW410708   1.095   3.911   5.186 -0.2692 -0.5362  0.4162
 2736SOL     OW10709   1.710   4.306   5.921 -0.5261  0.6227 -0.1338
 2736SOL    HW210710   1.688   4.372   5.855  1.8940  2.9888  1.2473
 2736SOL    HW310711   1.705   4.352   6.004 -0.3898 -1.4437  1.0997
 2736SOL    MW410712   1.706   4.321   5.923 -0.4401  0.0433  0.1381
 2737SOL     OW10713   0.714   0.445   0.227  0.2056  0.2191 -0.1453
 2737SOL    HW210714   0.694   0.521   0.172 -0.7989 -0.1819 -0.3669
 2737SOL    HW310715   0.635   0.432   0.279 -0.3469 -1.7045 -1.3555
 2737SOL    MW410716   0.701   0.453   0.226  0.0384 -0.4802  0.3734
 2738SOL     OW10717   0.518   2.369   0.850  0.1182  0.6400  0.0077
 2738SOL    HW210718   0.495   2.454   0.888  0.6425 -0.0836  2.1173
 2738SOL    HW310719   0.612   2.362   0.864 -0.0704 -0.6840  0.8076
 2738SOL    MW410720   0.527   2.379   0.857 -0.0151  0.3154 -0.0729
 2739SOL     OW10721   1.637   0.920   6.009  0.0314  0.5299 -0.1282
 2739SOL    HW210722   1.564   0.965   6.051 -0.9591 -0.1557 -1.0549
 2739SOL    HW310723   1.679   0.870   6.080 -2.0733 -1.2193 -0.0191
 2739SOL    MW410724   1.633   0.919   6.024  0.0410 -0.1115 -0.1799
 2740SOL     OW10725   2.019   1.821   4.703  0.8850  0.7553  0.7310
 2740SOL    HW210726   1.990   1.754   4.765 -2.9219 -0.3154 -1.8064
 2740SOL    HW310727   2.065   1.772   4.635  3.5698  1.6898  1.7745
 2740SOL    MW410728   2.021   1.805   4.702  0.8982 -0.8090 -0.1044
 2741SOL     OW10729   4.038   0.687   2.313 -0.3220 -0.1603  0.0489
 2741SOL    HW210730   4.021   0.734   2.231 -1.2672  1.6461  1.2111
 2741SOL    HW310731   3.998   0.742   2.380  3.6559  0.4942  2.2051
 2741SOL    MW410732   4.031   0.701   2.311  0.3031  0.0288 -0.0839
 2742SOL     OW10733   5.867   4.129   5.937 -0.9082  0.2475 -0.0425
 2742SOL    HW210734   5.888   4.069   5.865  0.1169  1.7601 -1.0895
 2742SOL    HW310735   5.774   4.146   5.927 -0.3603  2.4016 -2.7433
 2742SOL    MW410736   5.858   4.124   5.926  0.2322 -0.2707 -0.0241
 2743SOL     OW10737   2.794   2.790   1.916 -0.1122 -0.2293  0.6820
 2743SOL    HW210738   2.701   2.813   1.916  0.2441  1.3940  1.9076
 2743SOL    HW310739   2.836   2.862   1.961  1.4304 -2.1610  2.5350
 2743SOL    MW410740   2.787   2.802   1.922 -0.0500 -0.3169  0.2414
 2744SOL     OW10741   4.535   5.297   3.441  0.1603  1.0221  0.2901
 2744SOL    HW210742   4.592   5.237   3.393 -1.1540 -0.2375  0.2249
 2744SOL    HW310743   4.577   5.307   3.526  0.0770 -0.5956  0.5646
 2744SOL    MW410744   4.548   5.290   3.446  0.3042 -1.1076 -0.4271
 2745SOL     OW10745   4.800   5.353   3.607 -0.0320  0.0723 -0.2131
 2745SOL    HW210746   4.798   5.365   3.512  1.3724 -0.0075 -0.2763
 2745SOL    HW310747   4.838   5.434   3.641 -0.1633 -0.0561  0.2457
 2745SOL    MW410748   4.804   5.365   3.599 -0.2373  0.3643 -0.4091
 2746SOL     OW10749   1.697   0.910   2.236  0.0911  0.5151 -0.3382
 2746SOL    HW210750   1.784   0.919   2.197  0.6521  0.7613  0.8885
 2746SOL    HW310751   1.653   0.845   2.183  0.7671  0.9150 -1.4207
 2746SOL    MW410752   1.703   0.903   2.224  0.6455  0.5412 -0.0058
 2747SOL     OW10753   4.021   3.294   6.321 -0.0565 -0.1592 -0.1122
 2747SOL    HW210754   3.938   3.286   6.369  0.3534  1.1336  0.8596
 2747SOL    HW310755   4.060   3.206   6.327 -1.7960 -1.1072 -1.5141
 2747SOL    MW410756   4.015   3.281   6.328 -0.4124 -0.0200  0.5827
 2748SOL     OW10757   4.279   2.827   3.888 -0.6478  0.0770  0.5520
 2748SOL    HW210758   4.254   2.835   3.796 -0.3742  2.1178  0.6092
 2748SOL    HW310759   4.278   2.733   3.905 -0.7884 -0.3412 -1.5039
 2748SOL    MW410760   4.275   2.816   3.878  0.5809  0.0576 -0.2623
 2749SOL     OW10761   4.507   4.949   4.739  0.4842  0.6472  0.2436
 2749SOL    HW210762   4.487   4.979   4.828 -0.3652  4.4152 -1.0200
 2749SOL    HW310763   4.591   4.991   4.719 -0.5090  1.9199 -1.4967
 2749SOL    MW410764   4.515   4.959   4.748  0.1208 -0.1968 -0.6815
 2750SOL     OW10765   2.751   5.658   5.709  0.0856  0.0405  0.6282
 2750SOL    HW210766   2.845   5.670   5.702  0.2465 -1.8118 -1.1536
 2750SOL    HW310767   2.740   5.572   5.750 -0.8332  0.1797  0.7155
 2750SOL    MW410768   2.762   5.648   5.714  0.7427 -0.5163  0.4226
 2751SOL     OW10769   4.837   2.851   3.900  0.3249  0.0107 -0.1694
 2751SOL    HW210770   4.742   2.836   3.895  0.1778  0.3522  1.2190
 2751SOL    HW310771   4.870   2.777   3.952  0.3460  1.5019  2.0636
 2751SOL    MW410772   4.829   2.839   3.907  0.0738 -0.2151  0.2064
 2752SOL     OW10773   5.202   3.422   1.226 -0.0488  0.1881 -0.1330
 2752SOL    HW210774   5.135   3.424   1.157 -0.7455 -0.2113  0.5115
 2752SOL    HW310775   5.232   3.331   1.227 -1.3190 -0.2595  1.2520
 2752SOL    MW410776   5.197   3.410   1.217  0.3015  0.3315 -0.1463
 2753SOL     OW10777   2.916   4.152   2.252  0.6816 -0.1439  0.7733
 2753SOL    HW210778   2.994   4.206   2.264  0.8267 -0.0241 -0.5196
 2753SOL    HW310779   2.855   4.208   2.205  0.9908 -1.1961 -0.9757
 2753SOL    MW410780   2.919   4.166   2.247 -0.9900 -0.1253  0.4387
 2754SOL     OW10781   1.339   5.398   2.066 -0.3456  0.9653  0.2519
 2754SOL    HW210782   1.309   5.323   2.117 -0.1664  1.3517  0.9373
 2754SOL    HW310783   1.265   5.421   2.010 -0.9930  1.3106  1.2337
 2754SOL    MW410784   1.325   5.391   2.065 -0.4339  0.4430  0.5888
 2755SOL     OW10785   5.987   3.058   0.664  0.0866 -0.6810 -0.4380
 2755SOL    HW210786   5.982   3.016   0.578  0.1360 -2.1279  0.2519
 2755SOL    HW310787   5.910   3.025   0.711 -0.4852  0.8538 -0.2265
 2755SOL    MW410788   5.976   3.048   0.659 -0.2678  0.1040 -0.0282
 2756SOL     OW10789   2.274   0.873   4.282  0.2556 -0.0127  0.2107
 2756SOL    HW210790   2.232   0.928   4.349 -1.2063 -0.2623 -0.4617
 2756SOL    HW310791   2.331   0.933   4.234 -1.4522  0.9920 -0.6297
 2756SOL    MW410792   2.276   0.888   4.285  0.3750  0.1780 -0.3423
 2757SOL     OW10793   1.951   0.750   5.477 -0.0608 -0.0036  0.2070
 2757SOL    HW210794   2.041   0.758   5.444 -0.4536  0.0544 -0.8660
 2757SOL    HW310795   1.917   0.839   5.477  0.3782  0.2080  2.1193
 2757SOL    MW410796   1.959   0.763   5.473 -0.3606  0.3080  0.3965
 2758SOL     OW10797   5.288   0.210   4.948  0.1016 -0.0489  0.3432
 2758SOL    HW210798   5.199   0.216   4.983 -0.6474  0.8581 -1.5762
 2758SOL    HW310799   5.342   0.190   5.024 -1.7758 -1.0146  1.5014
 2758SOL    MW410800   5.283   0.208   4.963  0.1083 -0.0391  0.5054
 2759SOL     OW10801   5.321   6.414   1.095 -0.0168 -0.0117 -0.0546
 2759SOL    HW210802   5.232   6.389   1.070  0.2707 -1.3523  0.1890
 2759SOL    HW310803   5.366   6.426   1.011 -0.5105  1.0861 -0.1854
 2759SOL    MW410804   5.315   6.412   1.080 -0.0815  0.1034  0.1400
 2760SOL     OW10805   0.529   1.920   0.144 -0.0825 -0.1346  0.1498
 2760SOL    HW210806   0.612   1.891   0.108 -0.2542 -0.1444 -0.2380
 2760SOL    HW310807   0.547   1.933   0.237 -0.0141 -1.5449  0.3564
 2760SOL    MW410808   0.542   1.917   0.152  0.0314 -0.1629  0.1604
 2761SOL     OW10809   0.282   4.763   3.986  0.6574  0.0304 -0.3549
 2761SOL    HW210810   0.365   4.783   3.943 -0.7685  1.6705 -2.6331
 2761SOL    HW310811   0.252   4.683   3.944  1.0239 -0.5124  0.4029
 2761SOL    MW410812   0.289   4.755   3.975 -0.5833 -0.5712 -0.4935
 2762SOL     OW10813   6.289   0.441   0.183  0.7124  0.6540  0.3863
 2762SOL    HW210814   6.351   0.477   0.120 -0.2576  0.9580 -0.4317
 2762SOL    HW310815   6.203   0.451   0.141  0.2935 -1.9055  0.4491
 2762SOL    MW410816   6.286   0.447   0.169  0.0724  0.6556  0.1373
 2763SOL     OW10817   4.891   4.949   2.522  0.0485 -0.5672  0.2442
 2763SOL    HW210818   4.814   5.005   2.526  0.6965  0.3600 -0.0272
 2763SOL    HW310819   4.866   4.870   2.570 -1.2798 -0.5423 -0.3463
 2763SOL    MW410820   4.877   4.946   2.529  0.0576 -0.4567 -0.5940
 2764SOL     OW10821   1.444   2.877   4.526  0.0158  0.7810 -0.0976
 2764SOL    HW210822   1.413   2.857   4.438  1.4417 -0.3172 -0.3868
 2764SOL    HW310823   1.379   2.836   4.584  0.4554 -0.7955 -0.6761
 2764SOL    MW410824   1.431   2.869   4.522 -0.3053 -0.0203  0.0167
 2765SOL     OW10825   4.495   3.587   1.129 -0.0113 -0.3675  0.0967
 2765SOL    HW210826   4.569   3.562   1.185  0.2053 -1.2045 -0.5508
 2765SOL    HW310827   4.534   3.644   1.063 -0.1225 -0.0397  0.3100
 2765SOL    MW410828   4.510   3.591   1.128 -0.1173 -0.6940 -0.0680
 2766SOL     OW10829   5.072   6.378   4.804  0.1204  1.1135  0.3143
 2766SOL    HW210830   5.016   6.380   4.725  0.2959  0.7583  0.1794
 2766SOL    HW310831   5.083   6.470   4.827 -0.7523  1.1796  0.5048
 2766SOL    MW410832   5.066   6.391   4.796 -0.2454 -0.0234 -0.3471
 2767SOL     OW10833   2.877   1.347   3.108 -0.8095  0.2076  0.2605
 2767SOL    HW210834   2.920   1.429   3.132 -1.3391  0.0013  2.0666
 2767SOL    HW310835   2.797   1.374   3.063  0.5490  0.6013 -2.0816
 2767SOL    MW410836   2.872   1.361   3.105 -0.3932  0.4981  0.2481
 2768SOL     OW10837   1.696   3.856   0.980 -0.3399 -0.0612 -0.2760
 2768SOL    HW210838   1.782   3.870   0.941 -0.2283  2.4009  0.6562
 2768SOL    HW310839   1.696   3.764   1.007  2.7339  0.2950  1.3875
 2768SOL    MW410840   1.707   3.846   0.978  0.3205 -0.1247  0.3114
 2769SOL     OW10841   0.932   2.240   3.779  0.3756  0.1210 -0.0054
 2769SOL    HW210842   0.863   2.283   3.730  0.5966 -0.1749 -0.5852
 2769SOL    HW310843   0.949   2.159   3.730  2.3962  1.0356 -0.9322
 2769SOL    MW410844   0.925   2.235   3.766 -0.2765  0.0387  0.6017
 2770SOL     OW10845   3.349   5.374   3.673 -0.2550  0.1275 -0.1323
 2770SOL    HW210846   3.331   5.333   3.758 -0.6715 -1.2456 -0.8511
 2770SOL    HW310847   3.425   5.430   3.689 -0.1444 -0.3362  1.0841
 2770SOL    MW410848   3.357   5.376   3.686 -0.4179  0.0500  0.5502
 2771SOL     OW10849   2.592   3.150   0.049  0.2045  0.1662 -0.2775
 2771SOL    HW210850   2.634   3.183  -0.031  0.3149 -0.8249 -0.6377
 2771SOL    HW310851   2.663   3.108   0.097  0.0799  0.5168  0.2250
 2771SOL    MW410852   2.607   3.149   0.045  1.2139  0.1581 -0.4979
 2772SOL     OW10853   1.683   5.260   2.413  0.0808  1.1236  0.3678
 2772SOL    HW210854   1.766   5.228   2.449  0.0581  0.2215 -0.3412
 2772SOL    HW310855   1.707   5.308   2.334 -0.1499 -0.6427 -0.8458
 2772SOL    MW410856   1.697   5.262   2.407  0.2824 -0.2518  0.3211
 2773SOL     OW10857   6.049   5.694   2.659  0.2508 -0.0228 -0.3616
 2773SOL    HW210858   6.069   5.770   2.713 -0.1791 -0.7384  0.8565
 2773SOL    HW310859   5.957   5.675   2.678  0.7916 -1.8253  0.6651
 2773SOL    MW410860   6.039   5.701   2.669 -0.3916 -0.4690  0.0672
 2774SOL     OW10861   6.036   0.750   5.147 -0.1189  0.3245 -0.5939
 2774SOL    HW210862   5.969   0.773   5.212 -1.4616 -0.0916 -1.7661
 2774SOL    HW310863   6.078   0.672   5.183 -2.0576 -0.9893 -0.9606
 2774SOL    MW410864   6.032   0.743   5.161  0.1588  0.1384 -0.0297
 2775SOL     OW10865   3.363   2.828   2.902  0.1252 -0.1320  0.3061
 2775SOL    HW210866   3.287   2.789   2.857  0.6628 -1.1312  0.2382
 2775SOL    HW310867   3.325   2.872   2.978 -0.6961  0.7950 -0.5929
 2775SOL    MW410868   3.348   2.829   2.906 -0.1215 -0.3568 -0.0382
 2776SOL     OW10869   5.836   5.122   0.075  0.1628  0.4567 -0.1685
 2776SOL    HW210870   5.748   5.085   0.087  0.0357  0.3363 -1.3681
 2776SOL    HW310871   5.837   5.199   0.132 -0.1586 -0.4132  1.0613
 2776SOL    MW410872   5.824   5.127   0.084  0.3194  0.4639  0.1679
 2777SOL     OW10873   3.741   2.745   0.107  0.1422 -0.0760 -0.5670
 2777SOL    HW210874   3.837   2.748   0.105  0.2193 -1.4762 -3.3530
 2777SOL    HW310875   3.716   2.825   0.153  2.6218  1.6759 -2.0115
 2777SOL    MW410876   3.751   2.756   0.113 -0.1216  0.1500  0.1991
 2778SOL     OW10877   0.850   5.989   5.210  0.0315  0.0046 -0.3855
 2778SOL    HW210878   0.863   6.029   5.295 -1.1460 -0.4418  0.0249
 2778SOL    HW310879   0.911   5.915   5.208  1.1736  0.9098 -0.5777
 2778SOL    MW410880   0.860   5.984   5.221  0.0624 -0.2324 -0.0444
 2779SOL     OW10881   0.155   0.484   3.631 -0.5925  0.2981  0.1210
 2779SOL    HW210882   0.191   0.417   3.689  0.5020  0.3238 -0.5037
 2779SOL    HW310883   0.198   0.565   3.659 -0.0005  0.2968 -0.7649
 2779SOL    MW410884   0.165   0.486   3.643 -0.1486  0.4107 -0.0927
 2780SOL     OW10885   2.268   4.074   3.368  0.0714 -0.6191  0.4145
 2780SOL    HW210886   2.186   4.024   3.367 -1.2663  1.4666 -0.3557
 2780SOL    HW310887   2.320   4.036   3.298 -0.5941 -1.4131  0.3388
 2780SOL    MW410888   2.264   4.062   3.359  0.3003  0.1298 -0.1762
 2781SOL     OW10889   5.721   4.660   0.066  0.1749 -0.1932  0.3876
 2781SOL    HW210890   5.748   4.569   0.054 -0.5746 -0.4416  0.5552
 2781SOL    HW310891   5.800   4.711   0.045  0.5637 -0.8688  0.1704
 2781SOL    MW410892   5.735   4.655   0.062 -0.9617  0.1627 -0.1469
 2782SOL     OW10893   5.854   1.230   2.946  0.0939 -0.3610  0.5663
 2782SOL    HW210894   5.816   1.144   2.963  0.2158 -0.4640  0.3338
 2782SOL    HW310895   5.807   1.262   2.869 -0.8942  0.3736  1.4414
 2782SOL    MW410896   5.843   1.223   2.938 -0.4330 -0.4315  0.6045
 2783SOL     OW10897   4.361   2.673   1.630  0.1345 -0.1683  0.2961
 2783SOL    HW210898   4.306   2.749   1.611 -0.3834 -0.4743  0.5752
 2783SOL    HW310899   4.368   2.627   1.546  1.2950  0.7172 -0.1317
 2783SOL    MW410900   4.355   2.677   1.616  0.0298 -0.2317  0.1804
 2784SOL     OW10901   4.584   4.005   5.885 -0.1102 -0.5406  0.1079
 2784SOL    HW210902   4.625   4.091   5.890 -1.3456  0.0076  1.7906
 2784SOL    HW310903   4.534   4.007   5.804  3.3632 -1.4030 -2.2727
 2784SOL    MW410904   4.583   4.016   5.875  0.5008  0.2151 -0.2482
 2785SOL     OW10905   3.245   5.996   3.405 -0.0794  0.1330 -0.4519
 2785SOL    HW210906   3.223   5.907   3.377  1.1432 -0.4526  0.3682
 2785SOL    HW310907   3.339   5.993   3.421  0.1591  1.8553 -1.3618
 2785SOL    MW410908   3.255   5.984   3.403  0.4616 -0.2814  0.6248
 2786SOL     OW10909   5.948   4.797   0.003  0.5203 -0.3253 -0.0608
 2786SOL    HW210910   5.914   4.797  -0.087  1.4604 -0.4843 -0.4415
 2786SOL    HW310911   6.035   4.838  -0.005  1.5633 -2.3172  0.3746
 2786SOL    MW410912   5.955   4.802  -0.010  0.2639 -0.4490 -0.3553
 2787SOL     OW10913   0.154   1.737   3.259 -0.6934 -0.4958 -0.5881
 2787SOL    HW210914   0.071   1.745   3.306 -1.2177 -0.4425 -1.5128
 2787SOL    HW310915   0.165   1.643   3.245 -0.3907 -0.5360 -0.1212
 2787SOL    MW410916   0.144   1.725   3.263  0.4757  0.4467 -0.2150
 2788SOL     OW10917   0.514   5.864   1.776  0.2815 -0.0270 -0.0708
 2788SOL    HW210918   0.589   5.923   1.762  0.3981 -0.4151 -1.2232
 2788SOL    HW310919   0.522   5.799   1.706 -1.6234  0.4114 -0.7569
 2788SOL    MW410920   0.525   5.863   1.765  0.3123  0.2475  0.2027
 2789SOL     OW10921   0.756   3.657   5.351 -0.4139  0.1222 -0.1577
 2789SOL    HW210922   0.793   3.649   5.263 -0.8773 -1.0516 -0.2566
 2789SOL    HW310923   0.736   3.750   5.360  1.7321  0.6704 -0.4246
 2789SOL    MW410924   0.758   3.668   5.340 -0.0753 -0.2652 -0.3576
 2790SOL     OW10925   3.465   1.606   5.884 -0.1050  0.2644  0.1755
 2790SOL    HW210926   3.501   1.599   5.972  0.4681  1.1758  0.0270
 2790SOL    HW310927   3.373   1.629   5.899  0.3236  1.9120  0.5674
 2790SOL    MW410928   3.457   1.608   5.898  0.1104  0.2025  0.1012
 2791SOL     OW10929   5.135   5.437   3.278 -0.5053  0.5918 -0.1603
 2791SOL    HW210930   5.156   5.350   3.244  0.2699  0.3036  0.9940
 2791SOL    HW310931   5.129   5.492   3.200 -0.2343 -0.3381 -0.8576
 2791SOL    MW410932   5.137   5.433   3.263 -1.2506  0.1638 -0.3167
 2792SOL     OW10933   5.932   3.614   4.174 -0.3414 -0.5224 -0.3400
 2792SOL    HW210934   5.906   3.627   4.265  0.9318  0.3606 -0.0717
 2792SOL    HW310935   5.886   3.535   4.147 -1.7325 -0.1031  0.6717
 2792SOL    MW410936   5.922   3.605   4.182  0.0898  0.6218  0.0360
 2793SOL     OW10937   0.350   4.034   0.287  0.5503  0.1439 -0.3280
 2793SOL    HW210938   0.396   4.023   0.204  2.3407 -0.0695  0.6468
 2793SOL    HW310939   0.418   4.061   0.349 -0.6466 -0.1268  1.1689
 2793SOL    MW410940   0.365   4.036   0.284 -0.0531  0.3278 -0.1740
 2794SOL     OW10941   2.823   3.031   2.139 -0.2330  0.0260 -0.0031
 2794SOL    HW210942   2.793   2.954   2.187 -0.5103  0.8036  1.1117
 2794SOL    HW310943   2.750   3.052   2.080  0.8866 -2.1382 -2.3730
 2794SOL    MW410944   2.809   3.024   2.137 -0.1105  0.1355  0.1647
 2795SOL     OW10945   1.633   0.215   5.352  0.2843  0.1274  0.1386
 2795SOL    HW210946   1.557   0.158   5.361 -0.3517  0.8975 -0.2012
 2795SOL    HW310947   1.600   0.303   5.370  0.8349  0.6225 -1.1129
 2795SOL    MW410948   1.619   0.219   5.355 -0.3379 -0.5696  0.0366
 2796SOL     OW10949   1.315   4.945   1.429  0.2250  0.5128 -0.0793
 2796SOL    HW210950   1.362   5.024   1.454  0.1162  0.9973 -1.3150
 2796SOL    HW310951   1.229   4.977   1.401  0.4202  0.0609 -1.2683
 2796SOL    MW410952   1.310   4.960   1.428  0.6539  0.1788  0.3638
 2797SOL     OW10953   0.275   5.078   0.624 -0.2960  0.1780 -0.5394
 2797SOL    HW210954   0.244   5.123   0.702  0.1599  1.1338 -0.9021
 2797SOL    HW310955   0.303   4.992   0.656  2.7754  1.5574  0.9491
 2797SOL    MW410956   0.275   5.072   0.639  0.6358 -0.1275 -0.7227
 2798SOL     OW10957   5.946   3.650   5.030  0.7128  0.1782  0.3067
 2798SOL    HW210958   6.017   3.597   5.066  0.6426 -0.0803  0.0757
 2798SOL    HW310959   5.927   3.609   4.945  1.2052  1.0774 -0.2453
 2798SOL    MW410960   5.953   3.637   5.023 -0.2618 -0.3952 -0.3824
 2799SOL     OW10961   1.177   1.480   0.952  0.3544  0.1879 -0.0349
 2799SOL    HW210962   1.167   1.520   0.866 -4.1484  1.5628  0.8480
 2799SOL    HW310963   1.143   1.391   0.942  0.3512  0.1582  0.2230
 2799SOL    MW410964   1.171   1.473   0.939 -0.0411  0.3593  0.1011
 2800SOL     OW10965   3.302   2.330   6.284 -0.5377  0.2815 -0.3996
 2800SOL    HW210966   3.293   2.405   6.225 -0.3314  0.5507 -0.0933
 2800SOL    HW310967   3.387   2.292   6.262 -0.8902 -0.2048 -0.9419
 2800SOL    MW410968   3.312   2.335   6.273 -0.3963  0.1502 -0.1667
 2801SOL     OW10969   5.592   6.198   5.598  0.0699  0.2618 -0.9732
 2801SOL    HW210970   5.680   6.233   5.611 -1.0113  2.2515  2.4864
 2801SOL    HW310971   5.602   6.104   5.614  1.7186  0.2376 -1.8758
 2801SOL    MW410972   5.605   6.190   5.602 -0.5212 -1.1400  0.5864
 2802SOL     OW10973   3.415   1.030   5.469  0.1614 -0.6634 -0.0243
 2802SOL    HW210974   3.327   1.040   5.431  0.2991  0.8414  0.0174
 2802SOL    HW310975   3.412   0.945   5.513 -1.2372 -0.6993 -0.1425
 2802SOL    MW410976   3.403   1.020   5.470 -0.4129 -0.3963 -0.2382
 2803SOL     OW10977   6.039   1.301   1.412 -0.0278  0.0094  0.0795
 2803SOL    HW210978   5.961   1.252   1.440 -0.6654 -0.1764 -1.8555
 2803SOL    HW310979   6.008   1.390   1.399  1.1254  1.0680  3.5453
 2803SOL    MW410980   6.025   1.306   1.414  0.0447  0.4864  0.3929
 2804SOL     OW10981   1.877   5.937   3.508 -0.3256  0.4438  0.1573
 2804SOL    HW210982   1.870   5.903   3.419 -0.4444 -0.4208  0.4936
 2804SOL    HW310983   1.903   5.862   3.562 -0.0396  1.0029  0.8205
 2804SOL    MW410984   1.879   5.923   3.504 -0.0503  0.6897 -0.4951
 2805SOL     OW10985   6.159   5.800   6.354  0.0631  0.4135  0.2352
 2805SOL    HW210986   6.069   5.821   6.328  0.3062  0.3642 -0.6999
 2805SOL    HW310987   6.171   5.709   6.329  0.4703  0.5116  0.0616
 2805SOL    MW410988   6.149   5.791   6.347 -0.4626  0.0403 -0.5874
 2806SOL     OW10989   0.022   1.603   5.005  0.3649  0.8365 -0.7337
 2806SOL    HW210990   0.114   1.616   4.985  0.5818  1.7574  0.7170
 2806SOL    HW310991   0.017   1.513   5.037  1.1684  1.4041  1.1271
 2806SOL    MW410992   0.033   1.593   5.007  0.1553 -0.0461 -0.5263
 2807SOL     OW10993   5.996   4.214   1.146  0.6188 -0.3015  0.0337
 2807SOL    HW210994   5.910   4.171   1.150  1.5685 -2.4871 -1.0390
 2807SOL    HW310995   5.976   4.305   1.125 -1.4343 -0.9748 -1.3435
 2807SOL    MW410996   5.982   4.220   1.144  0.1212 -0.0772 -0.3229
 2808SOL     OW10997   0.727   4.714   3.073  0.3109 -0.1035  0.5464
 2808SOL    HW210998   0.668   4.662   3.127 -0.6525 -0.4315 -0.7468
 2808SOL    HW310999   0.675   4.734   2.995  2.1531 -1.0675 -1.0091
 2808SOL    MW411000   0.712   4.710   3.070 -0.4089 -0.4060  0.0961
 2809SOL     OW11001   0.116   5.528   3.454  0.5721  0.2721 -0.0988
 2809SOL    HW211002   0.170   5.602   3.427  1.7184 -0.3923  0.2967
 2809SOL    HW311003   0.179   5.460   3.477 -0.4485 -0.5769  0.2474
 2809SOL    MW411004   0.132   5.529   3.454 -0.1527 -0.3516 -0.2793
 2810SOL     OW11005   6.193   5.564   5.723 -0.4789 -0.0325  0.0579
 2810SOL    HW211006   6.121   5.518   5.681 -0.7523  0.3889  0.0601
 2810SOL    HW311007   6.246   5.598   5.651 -1.9968  2.3684 -0.0371
 2810SOL    MW411008   6.190   5.562   5.708 -0.0146  0.5521  0.9587
 2811SOL     OW11009   2.305   4.202   5.621  0.3884  0.1657  0.2768
 2811SOL    HW211010   2.262   4.276   5.664  1.2192  1.1510 -0.5370
 2811SOL    HW311011   2.355   4.160   5.692  1.2236  1.3804  0.4430
 2811SOL    MW411012   2.306   4.206   5.636  0.0308  0.2516  0.2515
 2812SOL     OW11013   4.183   1.228   5.491 -0.1901 -0.6260  0.3737
 2812SOL    HW211014   4.247   1.288   5.530 -0.1847 -1.3166  1.4720
 2812SOL    HW311015   4.131   1.283   5.432  0.8964  0.1079  0.0656
 2812SOL    MW411016   4.185   1.243   5.489 -0.2342 -0.3285 -0.9591
 2813SOL     OW11017   6.320   5.311   2.232 -0.5293 -0.0991 -0.7809
 2813SOL    HW211018   6.301   5.373   2.303  1.0511 -0.2227 -0.2039
 2813SOL    HW311019   6.241   5.258   2.225 -1.5316  1.3289 -0.6039
 2813SOL    MW411020   6.307   5.312   2.241 -0.7725 -0.4126 -0.4776
 2814SOL     OW11021   1.628   1.473   4.435 -0.1579  0.2130  0.4238
 2814SOL    HW211022   1.645   1.386   4.471 -0.2824  0.2020  0.4573
 2814SOL    HW311023   1.613   1.459   4.342  1.2453  0.3715  0.1588
 2814SOL    MW411024   1.628   1.460   4.428 -0.2138  0.2335 -0.6010
 2815SOL     OW11025   6.020   3.333   3.940 -0.3937  0.4892 -0.2342
 2815SOL    HW211026   5.926   3.318   3.950 -0.4123  0.1028 -0.9114
 2815SOL    HW311027   6.054   3.250   3.905  0.0233  0.9785 -1.0011
 2815SOL    MW411028   6.012   3.320   3.937  0.1550  0.2933  0.1244
 2816SOL     OW11029   0.666   0.839   0.713 -0.2686 -0.2890  0.5429
 2816SOL    HW211030   0.575   0.811   0.706 -0.3652  0.2985 -0.6986
 2816SOL    HW311031   0.715   0.769   0.670 -0.3547  0.5010 -0.9000
 2816SOL    MW411032   0.660   0.826   0.706 -0.2769 -0.3310 -0.7760
 2817SOL     OW11033   1.903   0.039   6.187 -0.0938 -0.1683 -0.3252
 2817SOL    HW211034   1.936   0.119   6.227  2.0120 -1.2244  0.1798
 2817SOL    HW311035   1.846   0.000   6.254 -0.8012  0.6708 -0.4213
 2817SOL    MW411036   1.900   0.044   6.201  0.6942  0.3441  0.6664
 2818SOL     OW11037   3.173   0.117   4.493  0.1688 -0.3774 -0.0832
 2818SOL    HW211038   3.170   0.162   4.409  0.3115  1.8945  1.0495
 2818SOL    HW311039   3.264   0.121   4.520  0.5762 -3.0502 -0.7176
 2818SOL    MW411040   3.184   0.123   4.486  0.0662  0.0251  0.1212
 2819SOL     OW11041   5.526   3.453   2.276 -0.4221 -0.2185  0.0014
 2819SOL    HW211042   5.443   3.464   2.229 -1.1975  0.8015  1.5370
 2819SOL    HW311043   5.518   3.367   2.318 -0.4002 -0.4165 -0.3896
 2819SOL    MW411044   5.514   3.443   2.276 -0.3768  0.6387 -0.3659
 2820SOL     OW11045   3.355   0.488   5.007  0.1591 -0.1255  0.2795
 2820SOL    HW211046   3.344   0.506   5.100 -0.0832  1.5669 -0.0398
 2820SOL    HW311047   3.266   0.472   4.975  0.2885 -1.1609  0.4023
 2820SOL    MW411048   3.342   0.488   5.015 -0.6897 -0.3314  0.2846
 2821SOL     OW11049   3.264   0.222   4.002 -0.5846  0.0737  0.2801
 2821SOL    HW211050   3.194   0.242   3.940 -0.4025 -1.8842 -0.6258
 2821SOL    HW311051   3.223   0.233   4.088 -0.7634  3.1030 -0.0700
 2821SOL    MW411052   3.250   0.226   4.005  0.5296  0.0741  0.4659
 2822SOL     OW11053   1.780   5.806   0.402 -0.4237  0.0750 -0.0827
 2822SOL    HW211054   1.860   5.800   0.455 -0.5465  2.2410  0.4652
 2822SOL    HW311055   1.779   5.897   0.372 -1.5225 -0.5236 -1.9977
 2822SOL    MW411056   1.790   5.818   0.405 -0.5460  1.3589  0.5306
 2823SOL     OW11057   3.869   1.496   5.658  0.4634  0.0911  0.1075
 2823SOL    HW211058   3.819   1.546   5.594 -0.0325 -0.1599  0.2846
 2823SOL    HW311059   3.958   1.495   5.624  0.1495 -0.3221 -0.7636
 2823SOL    MW411060   3.874   1.502   5.645  0.0435  0.3822 -0.0378
 2824SOL     OW11061   6.290   5.148   5.644  0.2579 -0.4593  0.0235
 2824SOL    HW211062   6.282   5.220   5.706 -0.2033 -0.9412  0.5344
 2824SOL    HW311063   6.380   5.154   5.611 -0.2665  1.3283 -1.1772
 2824SOL    MW411064   6.301   5.158   5.648 -0.2424  0.0203  0.2974
 2825SOL     OW11065   1.227   5.761   6.418  0.3096  0.0249  0.2064
 2825SOL    HW211066   1.278   5.762   6.337  1.7451  1.7632  1.0550
 2825SOL    HW311067   1.292   5.778   6.487 -0.9924 -0.6503  1.6575
 2825SOL    MW411068   1.242   5.763   6.417  0.0924  0.0364  0.0782
 2826SOL     OW11069   0.845   3.412   1.953  0.2243  0.4794  0.0088
 2826SOL    HW211070   0.923   3.380   1.998 -0.9204 -0.2676  1.5312
 2826SOL    HW311071   0.879   3.457   1.875  2.3186  2.3217  1.8556
 2826SOL    MW411072   0.860   3.414   1.948  0.4063 -0.8511 -0.0758
 2827SOL     OW11073   4.122   4.776   6.129  0.6910 -0.2151 -0.3139
 2827SOL    HW211074   4.198   4.792   6.186  0.4859 -2.7775  0.8124
 2827SOL    HW311075   4.088   4.863   6.110  1.8472  0.8417  2.0338
 2827SOL    MW411076   4.128   4.789   6.134  0.2336 -0.6566 -0.1503
 2828SOL     OW11077   1.101   0.916   5.615  0.1187  0.1231  0.0327
 2828SOL    HW211078   1.031   0.918   5.681  1.1880  0.9431  1.2014
 2828SOL    HW311079   1.091   0.999   5.568 -1.8570 -1.2944 -2.2397
 2828SOL    MW411080   1.090   0.927   5.618 -0.3920 -0.7842 -0.4030
 2829SOL     OW11081   5.002   2.654   3.980 -0.2691 -0.2737  0.3707
 2829SOL    HW211082   5.015   2.616   3.894 -0.6279 -0.2520  0.3075
 2829SOL    HW311083   5.016   2.582   4.041 -1.3420 -0.6137  0.2359
 2829SOL    MW411084   5.006   2.640   3.977  0.5455 -0.7005 -0.4220
 2830SOL     OW11085   4.149   6.418   2.427  0.6629  0.5298  0.2984
 2830SOL    HW211086   4.197   6.375   2.356  0.8780  0.9989  0.1499
 2830SOL    HW311087   4.065   6.442   2.387 -0.4069 -1.7643  1.0172
 2830SOL    MW411088   4.144   6.416   2.412 -0.4543 -0.2895  0.6657
 2831SOL     OW11089   0.366   3.694   4.673 -0.5654 -0.4755  0.0542
 2831SOL    HW211090   0.457   3.666   4.675 -0.4995 -0.2304  0.6297
 2831SOL    HW311091   0.368   3.783   4.639 -0.5737 -0.4075  0.2315
 2831SOL    MW411092   0.378   3.702   4.669  0.0621 -0.3483  0.3899
 2832SOL     OW11093   3.193   5.867   0.349 -0.4181 -0.3874 -0.3907
 2832SOL    HW211094   3.151   5.781   0.361 -0.9602  0.1382  1.9278
 2832SOL    HW311095   3.124   5.930   0.371  0.6840  0.5768  0.3569
 2832SOL    MW411096   3.178   5.864   0.353  0.4418 -0.4303 -0.0580
 2833SOL     OW11097   1.133   2.866   0.416 -1.0521  0.2967 -0.3195
 2833SOL    HW211098   1.073   2.934   0.446 -0.5793  0.0961  1.1812
 2833SOL    HW311099   1.101   2.786   0.457 -0.3876 -0.0057 -0.3735
 2833SOL    MW411100   1.121   2.864   0.425 -0.4627 -0.0106  0.0869
 2834SOL     OW11101   1.288   2.245   6.397 -0.8355 -0.1796  0.4564
 2834SOL    HW211102   1.244   2.309   6.341  0.5600 -0.5556 -1.1463
 2834SOL    HW311103   1.221   2.218   6.460 -2.2899  0.7192 -0.6516
 2834SOL    MW411104   1.273   2.250   6.398  0.1074 -0.1339  0.2944
 2835SOL     OW11105   0.743   1.259   4.821  0.0729 -0.2372  0.1984
 2835SOL    HW211106   0.650   1.239   4.819 -0.4389  1.5595  2.1851
 2835SOL    HW311107   0.762   1.295   4.734 -1.4924  0.9038  0.2954
 2835SOL    MW411108   0.734   1.261   4.809  0.0273 -0.2187 -0.2962
 2836SOL     OW11109   1.725   5.387   2.178  0.1600  0.2605 -0.2188
 2836SOL    HW211110   1.695   5.475   2.200 -1.4642 -0.5824  1.2350
 2836SOL    HW311111   1.678   5.365   2.098 -0.4845  0.2357  0.1581
 2836SOL    MW411112   1.715   5.396   2.170  0.5553  0.0389  0.3741
 2837SOL     OW11113   6.167   1.902   5.234  0.2911  0.1827 -0.3005
 2837SOL    HW211114   6.246   1.848   5.227  0.3168  0.1806 -0.0270
 2837SOL    HW311115   6.143   1.921   5.144  0.9356  0.6546 -0.3837
 2837SOL    MW411116   6.175   1.898   5.221 -0.4984  0.4913  0.3752
 2838SOL     OW11117   5.774   0.116   3.964  0.2661 -0.0417 -0.2869
 2838SOL    HW211118   5.753   0.209   3.959  1.2482  0.2394  0.4410
 2838SOL    HW311119   5.765   0.085   3.874 -2.7483  0.1009 -0.1442
 2838SOL    MW411120   5.770   0.124   3.952  0.2246 -0.6905 -0.3326
 2839SOL     OW11121   6.334   5.864   4.011 -0.6631  0.0840 -0.0276
 2839SOL    HW211122   6.418   5.821   4.025  0.6166  1.4292 -2.8544
 2839SOL    HW311123   6.277   5.795   3.978 -0.1945 -0.5048  0.3706
 2839SOL    MW411124   6.338   5.849   4.008 -0.1771 -0.8199 -0.4009
 2840SOL     OW11125   2.625   5.078   4.766  0.2441 -0.6170  0.3019
 2840SOL    HW211126   2.573   5.005   4.734 -0.3402 -0.2857  0.4807
 2840SOL    HW311127   2.700   5.082   4.706 -2.1634  1.7156 -2.9703
 2840SOL    MW411128   2.628   5.069   4.754 -0.2328  0.3971  0.4277
 2841SOL     OW11129   5.307   4.571   1.974 -0.1406 -0.2957 -0.2666
 2841SOL    HW211130   5.323   4.526   1.891  1.7793  0.6791 -0.4988
 2841SOL    HW311131   5.368   4.529   2.035  1.0635  1.3484 -0.2819
 2841SOL    MW411132   5.317   4.559   1.971  0.2410  0.0747  0.2559
 2842SOL     OW11133   6.139   3.264   1.243 -0.1279  0.7609 -0.2447
 2842SOL    HW211134   6.164   3.233   1.156  0.6595  2.3557 -0.6166
 2842SOL    HW311135   6.140   3.360   1.236 -0.0799  0.9199  1.5089
 2842SOL    MW411136   6.142   3.273   1.230  0.3116 -0.0472  0.2220
 2843SOL     OW11137   2.083   1.669   4.306  0.0123 -0.2894 -0.6487
 2843SOL    HW211138   2.111   1.677   4.216 -1.0658 -1.0152 -1.0753
 2843SOL    HW311139   2.164   1.670   4.357  0.5986  0.6684 -1.5618
 2843SOL    MW411140   2.097   1.670   4.301  0.0407  0.8694  0.2912
 2844SOL     OW11141   4.523   5.434   3.812 -0.3895  0.4882  0.0943
 2844SOL    HW211142   4.588   5.504   3.819 -0.1455  0.1591  1.4239
 2844SOL    HW311143   4.439   5.480   3.809 -0.1419  0.9102 -1.4860
 2844SOL    MW411144   4.521   5.449   3.813  0.0523  0.4397  0.6119
 2845SOL     OW11145   0.893   1.460   5.914 -0.7193 -0.1273  0.2634
 2845SOL    HW211146   0.956   1.435   5.847 -0.9906 -0.6229  0.1911
 2845SOL    HW311147   0.822   1.396   5.907 -1.5934  0.8396 -0.1489
 2845SOL    MW411148   0.892   1.448   5.904  0.0290  1.0015  0.2572
 2846SOL     OW11149   4.911   5.487   1.100 -0.5565  0.3806  0.1470
 2846SOL    HW211150   5.002   5.459   1.092 -0.9721 -0.6532 -1.3962
 2846SOL    HW311151   4.882   5.500   1.010 -1.5707  1.9967  0.6682
 2846SOL    MW411152   4.919   5.485   1.087  0.2432 -0.2907  0.2149
 2847SOL     OW11153   0.281   2.310   6.193 -0.1389  0.2174  0.2966
 2847SOL    HW211154   0.209   2.349   6.243 -0.9692 -1.4701  0.5170
 2847SOL    HW311155   0.309   2.379   6.134 -1.5868  1.1182  0.5965
 2847SOL    MW411156   0.275   2.324   6.192 -0.0214 -0.1693 -0.0060
 2848SOL     OW11157   1.168   3.464   0.999  0.4514 -0.1556 -0.1796
 2848SOL    HW211158   1.246   3.509   0.968  0.0642 -0.6550 -2.0043
 2848SOL    HW311159   1.111   3.459   0.922 -0.6659 -1.2904  0.6749
 2848SOL    MW411160   1.171   3.469   0.985  0.0642 -0.1378  0.3065
 2849SOL     OW11161   3.532   4.329   3.747 -0.5203  0.4264  0.6102
 2849SOL    HW211162   3.509   4.316   3.839 -0.8084  2.9833  0.9752
 2849SOL    HW311163   3.448   4.348   3.704 -0.5007 -1.4522 -0.3988
 2849SOL    MW411164   3.518   4.330   3.753 -0.2716 -0.1476 -0.0797
 2850SOL     OW11165   5.542   5.154   1.350 -0.9552 -0.5347 -0.0964
 2850SOL    HW211166   5.600   5.230   1.351 -0.6587 -0.7687  0.4170
 2850SOL    HW311167   5.463   5.185   1.305 -0.3396 -0.2931 -1.0383
 2850SOL    MW411168   5.539   5.168   1.344 -0.0358 -0.0603 -0.0867
 2851SOL     OW11169   1.122   1.299   5.285 -0.1200 -0.5667 -0.5665
 2851SOL    HW211170   1.037   1.300   5.242  0.3936 -2.0518 -1.7234
 2851SOL    HW311171   1.143   1.391   5.300 -0.6564  0.0147 -2.9057
 2851SOL    MW411172   1.114   1.311   5.281  0.0539  0.1861  0.0608
 2852SOL     OW11173   3.212   6.274   1.148  0.1324 -0.1557 -0.6498
 2852SOL    HW211174   3.232   6.298   1.057 -1.9906 -0.6203 -1.2890
 2852SOL    HW311175   3.173   6.352   1.186  1.4952  0.2086  0.0669
 2852SOL    MW411176   3.210   6.287   1.141  0.4496  0.0369 -0.2927
 2853SOL     OW11177   4.351   2.616   1.997  0.3439 -0.1039 -0.4619
 2853SOL    HW211178   4.270   2.636   1.951 -0.5574 -0.5224  0.8945
 2853SOL    HW311179   4.344   2.662   2.081  1.2210 -0.6618 -0.0649
 2853SOL    MW411180   4.339   2.625   2.002 -0.5677 -0.2973  0.2672
 2854SOL     OW11181   0.206   3.424   3.724  0.2867  0.0972  0.5830
 2854SOL    HW211182   0.169   3.482   3.657  0.8466 -0.7117 -0.4527
 2854SOL    HW311183   0.289   3.465   3.748  0.1334  0.3358  0.7152
 2854SOL    MW411184   0.212   3.437   3.718  0.8385  0.3631  0.3027
 2855SOL     OW11185   3.947   2.504   6.197 -0.4977  0.3177 -0.2043
 2855SOL    HW211186   4.003   2.502   6.120 -0.7051 -1.0381 -0.3460
 2855SOL    HW311187   3.861   2.476   6.166 -0.5826 -0.2603  0.4998
 2855SOL    MW411188   3.943   2.500   6.183  0.1968 -0.0835 -0.3001
 2856SOL     OW11189   1.992   2.717   3.475 -0.3323  0.0712  0.2197
 2856SOL    HW211190   1.934   2.716   3.399  0.0452 -2.1836 -0.0977
 2856SOL    HW311191   1.936   2.692   3.549  0.1061 -1.7962 -0.0357
 2856SOL    MW411192   1.977   2.714   3.475  0.4662 -0.8389  0.1329
 2857SOL     OW11193   0.466   5.963   5.378  0.5611  0.0127 -0.4252
 2857SOL    HW211194   0.521   6.007   5.444  0.5729 -0.8385  0.1434
 2857SOL    HW311195   0.497   5.999   5.295  0.0485  1.6662  0.0488
 2857SOL    MW411196   0.477   5.974   5.376  0.2014  0.5019 -0.3151
 2858SOL     OW11197   3.649   1.566   4.026 -0.4116  0.0128  0.7098
 2858SOL    HW211198   3.739   1.574   3.995 -1.1050 -0.5745 -1.6166
 2858SOL    HW311199   3.641   1.474   4.050 -0.7260 -0.2368 -0.3035
 2858SOL    MW411200   3.660   1.555   4.025  0.0801  0.4207 -0.0656
 2859SOL     OW11201   6.008   0.637   5.607 -0.2045  0.5327 -0.2178
 2859SOL    HW211202   5.973   0.549   5.625 -1.7421  1.4974  1.9498
 2859SOL    HW311203   5.966   0.663   5.525 -2.2882  0.4270  0.7462
 2859SOL    MW411204   5.998   0.628   5.598 -0.1998 -0.4859  0.2566
 2860SOL     OW11205   2.257   3.162   1.950  0.2661  0.4077 -0.2010
 2860SOL    HW211206   2.174   3.141   1.909  0.4591 -0.5581 -0.1144
 2860SOL    HW311207   2.285   3.243   1.907 -1.6362  1.8519  1.1189
 2860SOL    MW411208   2.250   3.170   1.939  0.4514  0.4116 -0.3745
 2861SOL     OW11209   5.742   5.405   4.209  0.0456  0.3704  0.2599
 2861SOL    HW211210   5.740   5.492   4.249  0.0269  0.9591 -0.9625
 2861SOL    HW311211   5.828   5.370   4.233  1.3055  1.9342 -1.5647
 2861SOL    MW411212   5.753   5.412   4.217  0.8530  0.3861  0.4612
 2862SOL     OW11213   1.099   5.557   0.480 -0.3653  0.0156  0.3772
 2862SOL    HW211214   1.175   5.562   0.421  0.7336  1.6839  1.8350
 2862SOL    HW311215   1.054   5.478   0.453  1.9151 -1.0797 -0.5382
 2862SOL    MW411216   1.103   5.547   0.468  0.8887 -0.4246 -0.3340
 2863SOL     OW11217   0.293   1.551   4.927 -0.1813  0.5344  0.1715
 2863SOL    HW211218   0.303   1.555   4.832  1.4173 -0.0470  0.2928
 2863SOL    HW311219   0.339   1.628   4.960  0.3124  0.0848  0.5431
 2863SOL    MW411220   0.300   1.562   4.919  0.3429 -0.4601 -0.5421
 2864SOL     OW11221   3.031   4.522   3.400  0.0719 -0.2686  0.0873
 2864SOL    HW211222   3.092   4.594   3.416 -0.0806 -0.1728  0.2440
 2864SOL    HW311223   3.083   4.456   3.355 -0.2636  0.7655 -1.9549
 2864SOL    MW411224   3.046   4.523   3.396  0.0204  0.8927  0.9765
 2865SOL     OW11225   2.111   2.663   4.051 -0.1729 -0.4309 -0.1111
 2865SOL    HW211226   2.131   2.740   4.105  0.1854 -2.1707  2.3802
 2865SOL    HW311227   2.173   2.668   3.978  0.5968  1.0397  0.6056
 2865SOL    MW411228   2.122   2.674   4.048 -0.6345  0.2764 -0.1370
 2866SOL     OW11229   3.958   3.510   5.706  0.2222 -0.4487 -0.0562
 2866SOL    HW211230   4.043   3.550   5.725  0.7073 -0.9678 -1.0702
 2866SOL    HW311231   3.895   3.581   5.717  1.0528  0.5871 -1.6489
 2866SOL    MW411232   3.960   3.525   5.710  0.2427  0.4779 -0.4450
 2867SOL     OW11233   6.379   4.914   5.275 -0.0225  0.2003 -0.1905
 2867SOL    HW211234   6.338   4.874   5.198  0.2561  0.5235 -0.5137
 2867SOL    HW311235   6.332   4.877   5.349 -1.3652  1.0676 -0.5737
 2867SOL    MW411236   6.367   4.904   5.275  0.2129  0.0839  0.4130
 2868SOL     OW11237   3.962   3.106   1.818 -0.2514  0.4973 -0.2138
 2868SOL    HW211238   4.057   3.104   1.829 -0.2230  1.6033 -0.1298
 2868SOL    HW311239   3.946   3.058   1.736  0.4859  1.3228 -0.8565
 2868SOL    MW411240   3.973   3.099   1.808 -0.2893 -0.2371 -0.1820
 2869SOL     OW11241   0.759   4.583   2.319 -0.3862 -0.3490 -0.3242
 2869SOL    HW211242   0.686   4.610   2.264 -1.6402 -2.3079  0.2537
 2869SOL    HW311243   0.740   4.491   2.340  2.7429 -1.2456 -0.9261
 2869SOL    MW411244   0.747   4.574   2.315 -0.5189  0.9284  0.3454
 2870SOL     OW11245   3.688   0.740   4.473 -0.2615 -0.6412 -0.3469
 2870SOL    HW211246   3.749   0.681   4.430 -0.0531 -1.5491  1.1123
 2870SOL    HW311247   3.605   0.692   4.474  0.3790 -1.9431  2.6854
 2870SOL    MW411248   3.685   0.726   4.467 -0.3505  0.0096  0.5178
 2871SOL     OW11249   1.048   4.380   0.298 -0.2562 -0.5616 -0.1783
 2871SOL    HW211250   1.106   4.315   0.258 -0.0978 -0.2318 -0.4962
 2871SOL    HW311251   0.986   4.403   0.229 -0.5041 -0.6021  0.0296
 2871SOL    MW411252   1.048   4.375   0.284  0.1188 -0.9596  0.2946
 2872SOL     OW11253   4.123   2.501   5.996 -0.1073  0.1907 -0.0772
 2872SOL    HW211254   4.084   2.417   5.968 -0.5156  0.3732 -0.0685
 2872SOL    HW311255   4.128   2.552   5.916  1.0353 -0.1851 -0.2567
 2872SOL    MW411256   4.118   2.496   5.982  0.3613 -0.6079  0.2711
 2873SOL     OW11257   2.283   2.890   3.040  0.2938 -0.3325  0.4802
 2873SOL    HW211258   2.280   2.795   3.025 -0.4510 -0.2707  0.1859
 2873SOL    HW311259   2.256   2.901   3.131 -1.7712 -0.2896 -0.0702
 2873SOL    MW411260   2.279   2.879   3.050 -0.4204  0.1485  0.1077
 2874SOL     OW11261   5.530   0.620   2.069 -0.2242  0.4887 -0.1482
 2874SOL    HW211262   5.502   0.545   2.122  0.8020  0.8456  0.9595
 2874SOL    HW311263   5.594   0.583   2.008 -0.3757  0.3073 -0.1975
 2874SOL    MW411264   5.535   0.605   2.068  0.0098 -0.3912  0.2724
 2875SOL     OW11265   5.107   0.827   3.594  0.4726  0.2546 -0.1085
 2875SOL    HW211266   5.096   0.865   3.507  0.6982 -0.6419 -0.5385
 2875SOL    HW311267   5.098   0.733   3.580  0.9269  0.0766  0.7702
 2875SOL    MW411268   5.104   0.820   3.581  0.1455  0.1597  0.2108
 2876SOL     OW11269   2.008   1.527   5.090 -0.0367  0.3121  0.0255
 2876SOL    HW211270   1.983   1.434   5.089  0.6480  0.1221 -0.3215
 2876SOL    HW311271   1.971   1.563   5.009  0.9722 -0.0253 -0.6116
 2876SOL    MW411272   2.000   1.519   5.079  0.0789  0.7456  0.2584
 2877SOL     OW11273   5.041   2.959   4.742  0.0291 -0.0016 -0.0086
 2877SOL    HW211274   5.022   3.053   4.753  2.7912  0.6003  0.6497
 2877SOL    HW311275   5.066   2.950   4.650  0.6979  0.1343  0.1541
 2877SOL    MW411276   5.042   2.971   4.732 -0.3725 -0.0322  0.0755
 2878SOL     OW11277   3.086   0.839   2.670 -0.0215  0.1359 -0.3306
 2878SOL    HW211278   3.026   0.806   2.738  2.2427 -1.3102  1.0812
 2878SOL    HW311279   3.057   0.796   2.589 -2.4339  1.4660 -0.2524
 2878SOL    MW411280   3.074   0.829   2.668  0.4904 -0.0644 -0.2889
 2879SOL     OW11281   6.112   5.620   0.218  0.2163 -0.3111 -0.0915
 2879SOL    HW211282   6.094   5.556   0.287  1.6807  0.3421  0.9488
 2879SOL    HW311283   6.125   5.703   0.265 -0.2637  0.4789 -1.2961
 2879SOL    MW411284   6.112   5.623   0.233  0.1574  0.0695  0.0335
 2880SOL     OW11285   3.759   1.954   4.120 -0.2625 -0.1825  0.2764
 2880SOL    HW211286   3.685   1.899   4.145 -0.8258  0.7825  0.8072
 2880SOL    HW311287   3.836   1.899   4.136 -0.7434 -0.4473  1.8823
 2880SOL    MW411288   3.759   1.939   4.126 -0.3850 -0.6719 -0.2530
 2881SOL     OW11289   5.845   1.054   5.626 -0.3613 -0.1644  0.0167
 2881SOL    HW211290   5.892   1.128   5.664 -1.0433  1.1055 -1.5089
 2881SOL    HW311291   5.849   0.986   5.694  0.4915  1.1602  1.3641
 2881SOL    MW411292   5.852   1.055   5.640 -0.5270 -0.1196 -0.4282
 2882SOL     OW11293   4.975   1.875   0.616 -0.4843  0.0491 -0.6076
 2882SOL    HW211294   4.911   1.915   0.675  0.3495  0.4828  0.0212
 2882SOL    HW311295   4.970   1.781   0.635 -2.1342 -0.1329 -1.7753
 2882SOL    MW411296   4.966   1.868   0.626  0.1510  0.2466  0.0386
 2883SOL     OW11297   1.326   4.821   3.094 -0.6620  0.2710  0.1798
 2883SOL    HW211298   1.349   4.898   3.042  2.7814  0.2895  1.4215
 2883SOL    HW311299   1.288   4.856   3.175 -0.0455  0.6309  0.3182
 2883SOL    MW411300   1.324   4.836   3.098 -0.3699 -0.0079 -0.7778
 2884SOL     OW11301   2.880   2.184   2.542  0.0117  0.1160  0.6699
 2884SOL    HW211302   2.915   2.152   2.458 -0.0893  1.3301  0.1455
 2884SOL    HW311303   2.819   2.116   2.570  0.5426 -0.6168  0.0861
 2884SOL    MW411304   2.877   2.171   2.534  0.5256  0.5921  0.5729
 2885SOL     OW11305   5.433   4.629   4.070 -0.0073 -0.0394  0.3216
 2885SOL    HW211306   5.349   4.663   4.041  0.0551  0.4825  0.7298
 2885SOL    HW311307   5.425   4.623   4.166  0.7554  0.9677  0.4612
 2885SOL    MW411308   5.421   4.633   4.079 -0.3697 -0.1713  0.7182
 2886SOL     OW11309   2.306   2.183   0.391 -0.0354  0.3980  0.2808
 2886SOL    HW211310   2.324   2.277   0.383  0.4060  0.5317  2.1406
 2886SOL    HW311311   2.238   2.165   0.327 -0.7373  2.1825  0.4670
 2886SOL    MW411312   2.299   2.193   0.382 -0.0586  0.4587 -0.2219
 2887SOL     OW11313   5.931   0.619   1.661  0.4340 -0.4516 -0.2439
 2887SOL    HW211314   5.897   0.593   1.575 -1.2629 -0.0365  0.2713
 2887SOL    HW311315   5.911   0.546   1.718  1.3634 -0.6305 -0.1267
 2887SOL    MW411316   5.924   0.606   1.657  0.3853 -0.3672 -0.0114
 2888SOL     OW11317   1.443   5.096   0.873  0.1316 -0.1088 -0.3524
 2888SOL    HW211318   1.483   5.045   0.943  0.0871  2.0016  1.3313
 2888SOL    HW311319   1.361   5.050   0.853  1.3144 -2.1238 -0.8517
 2888SOL    MW411320   1.438   5.083   0.879  0.3084 -0.2570  0.0786
 2889SOL     OW11321   1.335   1.923   3.193  0.2260  0.0155 -0.3367
 2889SOL    HW211322   1.366   1.844   3.150  0.1419  0.0413 -0.4445
 2889SOL    HW311323   1.243   1.905   3.215  0.2301  0.0520 -0.2892
 2889SOL    MW411324   1.327   1.910   3.190 -0.0271  0.2851 -0.2549
 2890SOL     OW11325   4.680   1.744   0.968  0.1332 -0.1725 -0.2651
 2890SOL    HW211326   4.587   1.747   0.946  0.3259 -1.7192 -1.4116
 2890SOL    HW311327   4.682   1.756   1.063 -1.3394 -1.1983 -0.0658
 2890SOL    MW411328   4.668   1.746   0.978 -0.6727  0.1744  0.0614
 2891SOL     OW11329   3.399   0.084   5.478 -0.2364 -0.0886 -0.3258
 2891SOL    HW211330   3.399   0.120   5.389 -2.0147 -0.5826 -0.5530
 2891SOL    HW311331   3.403  -0.011   5.466 -3.4445 -0.3621 -0.0666
 2891SOL    MW411332   3.400   0.076   5.465 -0.7812 -0.4614 -0.4907
 2892SOL     OW11333   4.929   0.540   1.870 -0.1206  0.2683  0.5232
 2892SOL    HW211334   4.968   0.526   1.956  1.8111  0.4590 -0.2557
 2892SOL    HW311335   4.964   0.625   1.842  0.4482 -0.4187 -0.9911
 2892SOL    MW411336   4.939   0.549   1.877  0.0672 -0.2245 -0.2354
 2893SOL     OW11337   2.196   3.433   3.376  0.5681 -0.1640  0.3974
 2893SOL    HW211338   2.233   3.519   3.397 -2.0417  0.9081  1.0982
 2893SOL    HW311339   2.195   3.431   3.280 -1.7279  1.8540  0.2705
 2893SOL    MW411340   2.200   3.444   3.366 -1.1498 -0.3518 -0.3725
 2894SOL     OW11341   0.976   5.870   0.073  0.0726 -0.1660 -0.0542
 2894SOL    HW211342   0.973   5.943   0.011  0.4281  0.4964  0.6948
 2894SOL    HW311343   1.046   5.814   0.039  0.4818  0.3526 -0.0822
 2894SOL    MW411344   0.985   5.872   0.060  0.0868  0.4137  0.2448
 2895SOL     OW11345   4.440   3.973   2.693  0.3770 -0.0120  0.3791
 2895SOL    HW211346   4.390   3.990   2.613  1.2081 -0.1370 -0.1940
 2895SOL    HW311347   4.456   4.059   2.730  0.9970  0.1525 -0.2443
 2895SOL    MW411348   4.436   3.986   2.687  0.2230  0.0303 -0.0745
 2896SOL     OW11349   0.261   6.314   4.823 -0.4367 -0.6235 -0.0430
 2896SOL    HW211350   0.244   6.312   4.918  0.8242  1.5308  0.3066
 2896SOL    HW311351   0.304   6.231   4.805  1.4405 -0.1762  1.8193
 2896SOL    MW411352   0.265   6.303   4.833 -0.0367 -0.2897  0.4190
 2897SOL     OW11353   4.208   1.516   3.985 -0.2898 -0.2473 -0.4444
 2897SOL    HW211354   4.276   1.515   3.918  0.0464 -1.2557 -0.1122
 2897SOL    HW311355   4.255   1.528   4.067 -0.9073  4.0409 -0.5205
 2897SOL    MW411356   4.223   1.517   3.987  0.5781 -0.0102 -0.3865
 2898SOL     OW11357   5.164   1.608   0.873 -0.2415  0.0225  0.3803
 2898SOL    HW211358   5.190   1.600   0.781 -0.6158  0.7223  0.2021
 2898SOL    HW311359   5.094   1.673   0.872  0.8379  1.2615  1.3487
 2898SOL    MW411360   5.158   1.616   0.860  0.0511  0.3083  0.2699
 2899SOL     OW11361   1.476   6.161   5.859  0.4369  0.6386  0.3332
 2899SOL    HW211362   1.385   6.144   5.884  0.5162 -2.1609 -1.0078
 2899SOL    HW311363   1.528   6.104   5.915  1.6564  3.4366  2.3261
 2899SOL    MW411364   1.471   6.151   5.870  0.8678 -0.1006 -0.6968
 2900SOL     OW11365   5.604   5.923   5.681  0.2057 -0.2360  0.4180
 2900SOL    HW211366   5.636   5.941   5.770 -1.2648 -2.2918  1.4482
 2900SOL    HW311367   5.547   5.847   5.692  0.5059 -0.9582 -2.4252
 2900SOL    MW411368   5.601   5.915   5.694  0.3679  0.9816 -0.0313
 2901SOL     OW11369   5.955   4.438   4.318 -0.9243  0.3866 -0.3960
 2901SOL    HW211370   5.950   4.533   4.306 -0.3569  0.2538 -2.0281
 2901SOL    HW311371   6.017   4.426   4.389 -2.0136  1.2560  0.7351
 2901SOL    MW411372   5.963   4.449   4.326 -0.2936  0.1104  1.0564
 2902SOL     OW11373   1.256   5.962   4.079  0.0835 -0.1824 -0.2628
 2902SOL    HW211374   1.279   5.898   4.011  1.6024 -1.3116  1.2357
 2902SOL    HW311375   1.311   6.038   4.060 -0.5566  0.0831 -1.1152
 2902SOL    MW411376   1.266   5.964   4.067  0.1826  1.1596  0.2032
 2903SOL     OW11377   1.017   4.477   5.444 -0.2269 -0.6841 -0.5264
 2903SOL    HW211378   1.055   4.412   5.504  2.6768 -0.0308 -1.4901
 2903SOL    HW311379   1.019   4.559   5.494  0.4452 -0.4905 -0.8645
 2903SOL    MW411380   1.022   4.479   5.459 -0.3856  0.0746 -0.4806
 2904SOL     OW11381   2.355   0.650   2.827  0.2768  0.5398  0.7125
 2904SOL    HW211382   2.339   0.662   2.921 -0.5770  0.6705  0.5546
 2904SOL    HW311383   2.269   0.630   2.790  0.7862 -0.6202  0.1173
 2904SOL    MW411384   2.342   0.649   2.835 -0.2061 -0.0613  0.4956
 2905SOL     OW11385   4.979   1.022   1.789  0.3696  0.3166  0.1200
 2905SOL    HW211386   4.983   0.949   1.728  0.9797  0.2268  0.2596
 2905SOL    HW311387   5.070   1.049   1.801  0.0230  2.5835 -1.6837
 2905SOL    MW411388   4.991   1.016   1.783  0.2590 -0.6231  0.2677
 2906SOL     OW11389   2.370   3.341   1.269 -0.1393 -0.0537  0.5665
 2906SOL    HW211390   2.350   3.279   1.199  0.5863  0.7957 -0.4259
 2906SOL    HW311391   2.444   3.301   1.316  0.2420 -0.0048  0.0111
 2906SOL    MW411392   2.377   3.327   1.266 -0.2944 -0.0194 -0.0647
 2907SOL     OW11393   3.827   5.016   4.392 -0.2602 -0.4490  0.3894
 2907SOL    HW211394   3.837   5.111   4.380 -1.1170 -0.3563  0.3081
 2907SOL    HW311395   3.892   4.977   4.334 -1.1553  0.0686 -1.0074
 2907SOL    MW411396   3.837   5.023   4.383  0.0866 -0.3647  0.1932
 2908SOL     OW11397   1.718   5.015   0.042  0.1335 -0.3297  0.5776
 2908SOL    HW211398   1.678   4.935   0.007  0.3656 -0.9040  1.5789
 2908SOL    HW311399   1.798   5.027  -0.009 -1.2724  0.8489 -1.4678
 2908SOL    MW411400   1.723   5.006   0.031  0.4845  0.1834  0.0574
 2909SOL     OW11401   6.025   3.757   5.929  0.5980 -0.6553  0.0337
 2909SOL    HW211402   5.967   3.700   5.979  0.2278  0.0783  0.4667
 2909SOL    HW311403   6.063   3.815   5.995  0.7500 -0.2178 -0.4302
 2909SOL    MW411404   6.023   3.757   5.945 -0.1419 -0.7922 -0.3877
 2910SOL     OW11405   4.092   1.738   2.180  0.3571  0.1242 -0.6900
 2910SOL    HW211406   4.106   1.646   2.204  0.5466  0.2408 -0.3507
 2910SOL    HW311407   4.088   1.737   2.084  1.0693 -0.1414 -0.7239
 2910SOL    MW411408   4.093   1.726   2.171 -0.0131 -0.6774  0.0089
 2911SOL     OW11409   1.410   0.635   1.870 -0.2585  0.0215 -0.5195
 2911SOL    HW211410   1.321   0.652   1.841 -0.3671  0.6935  0.1723
 2911SOL    HW311411   1.414   0.540   1.883 -0.3121 -0.2671 -2.3157
 2911SOL    MW411412   1.399   0.625   1.868  0.5764 -0.2757  0.1704
 2912SOL     OW11413   2.922   1.017   3.809 -0.1055 -0.3888 -0.1059
 2912SOL    HW211414   2.928   1.006   3.903  1.2312 -1.0661 -0.2450
 2912SOL    HW311415   2.979   1.090   3.789  0.7471 -1.1437 -0.5203
 2912SOL    MW411416   2.930   1.025   3.818  0.3053  0.5439 -0.1287
 2913SOL     OW11417   3.916   1.955   3.648  0.3628 -0.2020 -0.2366
 2913SOL    HW211418   3.942   1.967   3.739  0.5737 -0.2990 -0.2816
 2913SOL    HW311419   3.839   1.898   3.651 -0.5760  1.0425 -0.0314
 2913SOL    MW411420   3.909   1.949   3.660  0.8501 -0.2133  0.1075
 2914SOL     OW11421   0.055   3.267   0.843 -0.7105 -0.3901 -0.0576
 2914SOL    HW211422  -0.019   3.320   0.871 -0.9879 -1.0558  0.4935
 2914SOL    HW311423   0.026   3.223   0.763 -0.9313 -0.6925  0.1885
 2914SOL    MW411424   0.042   3.268   0.836  0.0389 -0.1907 -0.6297
 2915SOL     OW11425   6.077   1.040   0.815  0.3745 -0.0027 -0.4199
 2915SOL    HW211426   6.033   1.033   0.900  1.7906  0.8900  0.4276
 2915SOL    HW311427   6.077   0.951   0.780  1.0861 -0.6600  1.1996
 2915SOL    MW411428   6.071   1.028   0.821  0.2585  0.0982  0.4618
 2916SOL     OW11429   2.393   5.068   2.143  0.2534  0.6450 -0.5381
 2916SOL    HW211430   2.436   5.013   2.078  2.6006  1.4707  0.2107
 2916SOL    HW311431   2.368   5.147   2.096  1.2787  0.9292 -0.6364
 2916SOL    MW411432   2.395   5.071   2.129  0.8849 -0.2081 -0.9709
 2917SOL     OW11433   2.258   4.099   2.317 -0.4227 -0.8302  0.0843
 2917SOL    HW211434   2.327   4.106   2.251 -0.3573 -0.9101  0.1448
 2917SOL    HW311435   2.299   4.052   2.390  0.3279  1.5870  1.3026
 2917SOL    MW411436   2.273   4.094   2.318  0.4229  0.6714  0.3393
 2918SOL     OW11437   0.513   4.883   5.057  0.5044  0.7582  0.3757
 2918SOL    HW211438   0.597   4.844   5.082  0.5613  0.7008  0.0939
 2918SOL    HW311439   0.478   4.918   5.139  0.7397  0.6620  0.5187
 2918SOL    MW411440   0.520   4.883   5.071  0.3364 -0.0661  0.1199
 2919SOL     OW11441   4.063   3.093   4.035  0.3433 -0.2393  0.1145
 2919SOL    HW211442   4.033   3.012   3.993 -1.4906  0.3793  0.1384
 2919SOL    HW311443   4.014   3.097   4.117  0.5284  0.8286  0.1816
 2919SOL    MW411444   4.053   3.083   4.040  0.4157 -0.8502 -0.3760
 2920SOL     OW11445   4.892   1.559   2.539  0.4468  0.2666 -0.5989
 2920SOL    HW211446   4.804   1.594   2.525 -0.5260 -1.9136 -0.4085
 2920SOL    HW311447   4.919   1.593   2.625 -0.7327  0.0205 -0.1163
 2920SOL    MW411448   4.884   1.568   2.549  0.2372  0.2456 -0.4787
 2921SOL     OW11449   2.381   4.098   3.891 -0.1617  0.2018 -0.0592
 2921SOL    HW211450   2.350   4.076   3.803  0.6589 -0.9976 -0.0680
 2921SOL    HW311451   2.473   4.123   3.879 -0.1093  0.2634  0.4287
 2921SOL    MW411452   2.389   4.098   3.878  0.0143 -0.0105  0.5559
 2922SOL     OW11453   1.110   3.059   4.408  0.3258 -0.4823 -0.7786
 2922SOL    HW211454   1.125   3.118   4.335  1.6763 -0.5914 -0.6044
 2922SOL    HW311455   1.180   2.995   4.403  0.5760 -0.3727  0.7218
 2922SOL    MW411456   1.121   3.059   4.398  0.0285  0.5978  0.3876
 2923SOL     OW11457   1.915   4.919   4.806  0.3503 -0.1106 -0.0239
 2923SOL    HW211458   1.824   4.930   4.780  0.7976  3.1645 -0.6333
 2923SOL    HW311459   1.938   4.831   4.776 -1.9987 -0.2479 -1.6960
 2923SOL    MW411460   1.906   4.909   4.799  0.6740 -0.4760  0.1479
 2924SOL     OW11461   3.400   4.715   5.689 -0.5359  0.7145  0.6026
 2924SOL    HW211462   3.379   4.631   5.647  1.2589  0.0200  1.0035
 2924SOL    HW311463   3.433   4.770   5.618  0.1506  0.3912  0.6640
 2924SOL    MW411464   3.402   4.711   5.674 -1.0472 -0.8063  1.1206
 2925SOL     OW11465   5.217   0.073   1.872  0.1554  0.4108 -0.4572
 2925SOL    HW211466   5.225  -0.004   1.929  1.0022  0.4926 -0.4581
 2925SOL    HW311467   5.171   0.040   1.795 -1.5398  0.4346  0.5048
 2925SOL    MW411468   5.212   0.058   1.870  0.2402  1.1066  0.4498
 2926SOL     OW11469   5.178   5.402   1.074  0.2219 -0.2313  0.3633
 2926SOL    HW211470   5.186   5.308   1.064 -1.2815 -0.2578 -1.0503
 2926SOL    HW311471   5.214   5.439   0.993 -0.4157  0.3178  0.3178
 2926SOL    MW411472   5.184   5.395   1.062 -0.1333 -0.1798 -0.0243
 2927SOL     OW11473   1.755   4.194   4.715 -0.3250 -0.0031 -0.9057
 2927SOL    HW211474   1.798   4.236   4.640 -0.5470  0.8370 -0.5782
 2927SOL    HW311475   1.678   4.151   4.677 -1.5450  2.0729 -0.9341
 2927SOL    MW411476   1.750   4.194   4.700 -0.3762  0.1541  0.6130
 2928SOL     OW11477   1.277   1.672   1.854 -0.8890  0.0792  0.0720
 2928SOL    HW211478   1.307   1.591   1.896  1.5611 -0.1503 -1.8805
 2928SOL    HW311479   1.345   1.736   1.875 -1.2760  0.8147 -0.8556
 2928SOL    MW411480   1.290   1.670   1.863 -0.4551 -0.0365 -0.3148
 2929SOL     OW11481   5.853   1.130   2.359 -0.2355 -0.0530  0.2176
 2929SOL    HW211482   5.801   1.193   2.310 -1.2968  0.0191  1.3788
 2929SOL    HW311483   5.849   1.050   2.307 -0.7676  0.2040 -0.1463
 2929SOL    MW411484   5.845   1.128   2.346 -0.0082  0.2115  0.3897
 2930SOL     OW11485   5.119   5.569   3.023 -0.5172  0.4119 -0.8721
 2930SOL    HW211486   5.151   5.513   2.952 -0.2678  1.3901 -1.5705
 2930SOL    HW311487   5.035   5.603   2.991 -2.0516 -1.6489  0.6887
 2930SOL    MW411488   5.112   5.566   3.009  0.4839  0.0611  0.8887
 2931SOL     OW11489   1.246   4.477   1.142 -0.1899  0.2266 -0.8062
 2931SOL    HW211490   1.211   4.531   1.212  0.6328 -0.6107  0.2891
 2931SOL    HW311491   1.215   4.389   1.161  1.5453 -0.3322 -0.4322
 2931SOL    MW411492   1.237   4.473   1.154  0.1507 -0.0644  0.8093
 2932SOL     OW11493   1.427   1.152   2.910 -0.6062  0.3017  0.6023
 2932SOL    HW211494   1.412   1.212   2.837 -1.2365  1.4496  1.6318
 2932SOL    HW311495   1.383   1.071   2.884 -0.3012  0.4921 -0.5412
 2932SOL    MW411496   1.419   1.149   2.897 -0.0606 -0.1586 -0.1576
 2933SOL     OW11497   2.145   0.195   0.452  0.4287  0.5386 -0.2119
 2933SOL    HW211498   2.109   0.257   0.389 -1.4787 -0.0006  0.2985
 2933SOL    HW311499   2.184   0.250   0.520 -0.5624  1.1818 -0.1467
 2933SOL    MW411500   2.146   0.210   0.453  0.5278 -0.1410 -0.1070
 2934SOL     OW11501   4.188   5.034   4.331  0.7671  0.0553 -0.0498
 2934SOL    HW211502   4.224   5.047   4.419  1.4302  1.1693 -0.4670
 2934SOL    HW311503   4.233   5.098   4.276 -0.0747 -0.2054 -1.0942
 2934SOL    MW411504   4.199   5.044   4.335 -0.0610  0.0692  0.4798
 2935SOL     OW11505   0.774   1.394   4.579 -0.2799  0.4790 -0.5904
 2935SOL    HW211506   0.719   1.384   4.501 -0.2266  1.5582 -0.7747
 2935SOL    HW311507   0.863   1.380   4.548 -0.2930  0.5061 -0.6391
 2935SOL    MW411508   0.778   1.391   4.565 -0.2000 -0.1349 -0.5066
 2936SOL     OW11509   0.349   5.325   2.065 -0.0547 -0.2067 -0.3670
 2936SOL    HW211510   0.359   5.270   2.143  1.9496 -0.9267 -1.0818
 2936SOL    HW311511   0.421   5.387   2.070 -1.2127  1.2089 -0.5385
 2936SOL    MW411512   0.360   5.326   2.076 -0.3933 -0.3070  0.0566
 2937SOL     OW11513   1.716   5.688   2.231 -0.1183 -0.2893  0.0521
 2937SOL    HW211514   1.645   5.740   2.268 -0.8447 -0.1198 -1.5113
 2937SOL    HW311515   1.708   5.700   2.137  1.6794 -0.6789 -0.1913
 2937SOL    MW411516   1.706   5.696   2.224 -0.4258  0.4448 -0.3167
 2938SOL     OW11517   1.122   4.276   2.777 -0.3015 -0.6084 -0.2590
 2938SOL    HW211518   1.156   4.365   2.770  0.1586 -0.6548  1.0672
 2938SOL    HW311519   1.200   4.221   2.786 -0.6324 -0.8433  1.6242
 2938SOL    MW411520   1.137   4.281   2.777 -0.4065 -0.3396 -0.2535
 2939SOL     OW11521   2.605   3.134   1.970 -0.1675 -0.4320  0.8354
 2939SOL    HW211522   2.523   3.134   2.019 -0.5536  2.1887  0.3507
 2939SOL    HW311523   2.583   3.096   1.886 -0.7844 -0.2106  0.8944
 2939SOL    MW411524   2.592   3.129   1.965  0.1634 -0.6436 -0.1010
 2940SOL     OW11525   4.145   5.666   2.684  0.4126 -0.2214 -0.3533
 2940SOL    HW211526   4.148   5.663   2.588 -0.4743  0.5956 -0.4159
 2940SOL    HW311527   4.108   5.752   2.704 -1.7670 -1.3119  0.6520
 2940SOL    MW411528   4.140   5.677   2.674 -0.4746 -0.2526 -0.3713
 2941SOL     OW11529   5.328   4.341   5.001 -0.2691 -0.3190  0.0845
 2941SOL    HW211530   5.236   4.359   5.017 -0.1584 -0.7153  1.2438
 2941SOL    HW311531   5.373   4.369   5.081  0.4422 -1.3996  0.0976
 2941SOL    MW411532   5.322   4.347   5.014  0.3950  0.0117 -0.1304
 2942SOL     OW11533   4.729   2.414   3.414 -0.1919 -0.2002 -0.2466
 2942SOL    HW211534   4.760   2.377   3.331  0.2020  0.4508 -0.3913
 2942SOL    HW311535   4.799   2.398   3.476 -0.5396 -0.8006 -0.0021
 2942SOL    MW411536   4.742   2.407   3.411 -0.1482 -0.8140 -0.3198
 2943SOL     OW11537   4.065   1.593   4.367  0.1272 -0.3307  0.7600
 2943SOL    HW211538   4.065   1.524   4.301 -0.2627 -1.5341  1.9812
 2943SOL    HW311539   3.980   1.587   4.409 -0.5252  1.8991 -0.0640
 2943SOL    MW411540   4.054   1.583   4.364  0.0090  0.3810  0.0763
 2944SOL     OW11541   3.155   4.426   1.167  0.0887  0.2681  0.0846
 2944SOL    HW211542   3.168   4.514   1.202  0.5924 -0.3858  1.6511
 2944SOL    HW311543   3.132   4.373   1.244 -1.8568 -0.6583 -1.0680
 2944SOL    MW411544   3.154   4.430   1.182 -0.4486  0.0828  0.5302
 2945SOL     OW11545   5.164   2.432   0.002 -0.0642  0.1621 -0.0553
 2945SOL    HW211546   5.256   2.407  -0.008 -0.2740  0.3051 -3.2386
 2945SOL    HW311547   5.167   2.521   0.037  0.9612 -0.1372  0.6650
 2945SOL    MW411548   5.177   2.440   0.006 -0.1186 -0.0366 -0.4471
 2946SOL     OW11549   3.953   3.113   5.940  0.4033 -0.1155  0.5336
 2946SOL    HW211550   3.898   3.087   5.865 -0.6233  0.9865  0.8792
 2946SOL    HW311551   4.022   3.167   5.901  0.8122 -0.8504  0.2017
 2946SOL    MW411552   3.955   3.117   5.925 -0.1420  0.7282  0.2584
 2947SOL     OW11553   1.215   1.830   4.347  0.5081 -0.0344  0.2477
 2947SOL    HW211554   1.161   1.755   4.371  1.4744 -0.5342  0.9408
 2947SOL    HW311555   1.251   1.807   4.261 -0.7199  0.5139 -0.4466
 2947SOL    MW411556   1.213   1.817   4.339 -0.3955 -0.5678  0.2798
 2948SOL     OW11557   3.709   3.287   6.040  0.1089 -0.3270  0.1388
 2948SOL    HW211558   3.753   3.215   6.084  0.4992  0.0130  0.3175
 2948SOL    HW311559   3.616   3.271   6.052  0.1796 -1.0799 -0.2729
 2948SOL    MW411560   3.703   3.276   6.047  0.3308 -0.3327 -0.5533
 2949SOL     OW11561   2.427   0.280   6.274  0.3806  0.0987 -0.0312
 2949SOL    HW211562   2.352   0.250   6.327  1.1637 -0.3396  0.8496
 2949SOL    HW311563   2.495   0.214   6.289  1.3526  1.1196  0.1240
 2949SOL    MW411564   2.426   0.267   6.283 -0.5761  0.9729 -0.2575
 2950SOL     OW11565   4.684   5.247   2.824  0.2011  0.1305  0.2801
 2950SOL    HW211566   4.749   5.182   2.850  1.0414  1.4348  1.6275
 2950SOL    HW311567   4.600   5.208   2.847  0.7748  0.1744  2.6870
 2950SOL    MW411568   4.681   5.233   2.830 -0.1353 -0.2519  0.1904
 2951SOL     OW11569   1.401   4.661   3.652  0.1773  0.2735  0.3434
 2951SOL    HW211570   1.435   4.742   3.613 -0.9632 -0.2834 -2.0055
 2951SOL    HW311571   1.476   4.623   3.698  0.8022  2.4983  1.3057
 2951SOL    MW411572   1.416   4.667   3.653  0.3492  0.1668  0.1279
 2952SOL     OW11573   3.154   1.159   3.148 -0.0537  0.3829 -0.8506
 2952SOL    HW211574   3.220   1.222   3.118  2.0347 -1.1831  0.1471
 2952SOL    HW311575   3.091   1.211   3.197  1.2608  1.8056 -0.5930
 2952SOL    MW411576   3.154   1.174   3.151  0.0932  0.1088  0.2075
 2953SOL     OW11577   1.536   1.334   4.201 -0.2332  0.4483  0.1079
 2953SOL    HW211578   1.536   1.324   4.106 -3.0984 -2.4406  0.2449
 2953SOL    HW311579   1.464   1.395   4.219  0.7080  1.4953  0.4652
 2953SOL    MW411580   1.526   1.341   4.191  0.0646  0.0990 -0.9883
 2954SOL     OW11581   4.915   5.817   5.521  0.0577  0.5907 -0.0043
 2954SOL    HW211582   4.904   5.748   5.587  1.0066 -0.6388 -1.0620
 2954SOL    HW311583   4.894   5.774   5.438 -1.1914  2.1277 -0.5354
 2954SOL    MW411584   4.911   5.802   5.519 -0.1155  0.2563 -0.2682
 2955SOL     OW11585   6.255   3.351   2.536  0.2175 -0.2435  0.1046
 2955SOL    HW211586   6.197   3.417   2.497 -0.2446 -0.9920 -0.5051
 2955SOL    HW311587   6.322   3.402   2.582 -2.0081  0.6534  2.5382
 2955SOL    MW411588   6.256   3.366   2.537 -0.0733  0.0283  0.1568
 2956SOL     OW11589   0.319   1.890   0.587  0.3176  0.0204 -0.3803
 2956SOL    HW211590   0.336   1.856   0.675 -0.6803  0.1834 -0.1057
 2956SOL    HW311591   0.283   1.977   0.602  1.0596  0.4403 -0.9991
 2956SOL    MW411592   0.317   1.897   0.601  0.2558  0.5497 -0.0240
 2957SOL     OW11593   2.953   4.795   6.425 -0.3165  0.1852  0.1145
 2957SOL    HW211594   2.904   4.825   6.348  0.9593 -0.2353 -0.9115
 2957SOL    HW311595   2.990   4.711   6.398  0.6522  0.3194  0.9701
 2957SOL    MW411596   2.952   4.788   6.411 -0.0687  0.3237  0.0457
 2958SOL     OW11597   0.001   1.285   0.392 -0.3506 -0.1781 -0.4658
 2958SOL    HW211598   0.007   1.231   0.313 -0.9868 -1.0585  0.0591
 2958SOL    HW311599  -0.048   1.230   0.454 -0.3963  0.7387  0.3279
 2958SOL    MW411600  -0.005   1.270   0.389  0.0029  0.2802  0.3331
 2959SOL     OW11601   5.920   5.359   0.922  0.4423 -0.2007  0.4437
 2959SOL    HW211602   5.891   5.451   0.925  0.0525 -0.3035  0.0029
 2959SOL    HW311603   5.924   5.338   0.829 -1.8690 -1.3514  0.5294
 2959SOL    MW411604   5.917   5.368   0.910  0.1910 -0.4249 -0.0192
 2960SOL     OW11605   3.295   1.850   6.249 -0.2650  0.5144 -0.1708
 2960SOL    HW211606   3.343   1.864   6.330 -0.0160 -0.9281 -0.0577
 2960SOL    HW311607   3.221   1.795   6.274 -0.4048  0.3818 -0.8624
 2960SOL    MW411608   3.291   1.845   6.263 -0.0104 -0.3438  0.4061
 2961SOL     OW11609   3.997   1.289   0.562 -0.2873  0.2708 -0.1057
 2961SOL    HW211610   3.919   1.259   0.609  0.8187 -0.5916  1.2396
 2961SOL    HW311611   3.987   1.254   0.474 -2.3511  1.8171 -0.5695
 2961SOL    MW411612   3.985   1.281   0.557  0.4608 -0.2773  0.4443
 2962SOL     OW11613   0.895   2.944   0.582  0.1493 -0.2624  0.0853
 2962SOL    HW211614   0.954   2.924   0.654 -1.2459 -0.8334  1.1154
 2962SOL    HW311615   0.870   3.035   0.596  1.5255  0.3221 -0.9485
 2962SOL    MW411616   0.900   2.954   0.593 -0.0939  0.1289 -0.1636
 2963SOL     OW11617   4.326   0.699   4.607 -0.2112 -0.1476 -0.1724
 2963SOL    HW211618   4.331   0.608   4.576 -1.1433 -0.3789  0.3199
 2963SOL    HW311619   4.238   0.728   4.583 -0.1092  0.4489  0.1584
 2963SOL    MW411620   4.315   0.691   4.600 -0.3803 -0.4490  0.2449
 2964SOL     OW11621   5.523   4.173   1.431 -0.2393 -0.7195  0.4218
 2964SOL    HW211622   5.617   4.184   1.441 -0.2868 -1.1183  1.3488
 2964SOL    HW311623   5.494   4.254   1.390  0.5278 -0.6656 -0.0296
 2964SOL    MW411624   5.531   4.185   1.427  0.4070 -0.3515 -0.0132
 2965SOL     OW11625   2.965   1.884   3.145  0.0497 -0.1257 -0.4897
 2965SOL    HW211626   2.951   1.851   3.056 -0.0229 -1.0987 -0.1202
 2965SOL    HW311627   3.060   1.897   3.151 -0.1238  2.0061 -1.4121
 2965SOL    MW411628   2.976   1.882   3.134 -0.3595 -0.5229  0.6771
 2966SOL     OW11629   1.976   1.688   6.035  0.0114 -0.6776  0.0348
 2966SOL    HW211630   2.070   1.674   6.043  0.4098  1.2899 -0.6003
 2966SOL    HW311631   1.947   1.704   6.124  0.1706 -1.7832  0.2977
 2966SOL    MW411632   1.985   1.688   6.047  0.1445  0.5837 -0.2032
 2967SOL     OW11633   3.898   5.503   1.037 -0.1940 -0.0552  0.1344
 2967SOL    HW211634   3.807   5.483   1.058 -0.3900  1.0160  0.3301
 2967SOL    HW311635   3.893   5.560   0.961  0.3211  0.0487  0.1757
 2967SOL    MW411636   3.886   5.508   1.029  0.0757  0.2246 -0.4442
 2968SOL     OW11637   3.322   5.193   0.316  0.1217 -0.6596  0.0477
 2968SOL    HW211638   3.371   5.137   0.376  1.3857  0.6950  0.3278
 2968SOL    HW311639   3.230   5.172   0.334  0.4964 -1.0663  1.6909
 2968SOL    MW411640   3.316   5.183   0.326  0.2614  0.1377 -0.0258
 2969SOL     OW11641   5.572   3.803   3.543  0.6873 -0.0159  0.3131
 2969SOL    HW211642   5.605   3.893   3.537  1.1603 -0.2485 -0.8636
 2969SOL    HW311643   5.628   3.753   3.484 -1.9390 -0.3505 -2.1220
 2969SOL    MW411644   5.584   3.809   3.534 -0.4307 -0.3438  0.1541
 2970SOL     OW11645   3.462   1.650   5.236  0.0080  0.0890  0.4454
 2970SOL    HW211646   3.523   1.723   5.230 -0.4135  0.3953 -0.2294
 2970SOL    HW311647   3.376   1.691   5.244 -0.2720 -0.3222 -0.3202
 2970SOL    MW411648   3.459   1.665   5.236 -0.1751  0.1309  0.1830
 2971SOL     OW11649   2.341   3.120   0.545  0.5202 -0.6674 -0.0482
 2971SOL    HW211650   2.273   3.146   0.482 -0.3427 -1.4493  0.5401
 2971SOL    HW311651   2.304   3.045   0.591  1.4496 -0.5779  0.8799
 2971SOL    MW411652   2.327   3.114   0.543 -0.3753  0.0307  0.0380
 2972SOL     OW11653   5.382   0.246   0.044  0.3496 -0.5440 -0.5389
 2972SOL    HW211654   5.355   0.252  -0.047 -1.3872 -1.3473 -0.1117
 2972SOL    HW311655   5.302   0.258   0.094  1.4834  1.3359  0.9626
 2972SOL    MW411656   5.368   0.248   0.039 -0.1226  0.5463 -0.1713
 2973SOL     OW11657   2.542   3.634   0.479  0.0969  0.3318 -0.3812
 2973SOL    HW211658   2.448   3.650   0.487 -0.0515  0.1831 -1.5320
 2973SOL    HW311659   2.548   3.551   0.432  0.8109  0.1093  0.0890
 2973SOL    MW411660   2.531   3.626   0.474 -0.3893 -0.3602  0.5569
 2974SOL     OW11661   1.022   3.461   0.725 -0.1482  0.4653 -0.2686
 2974SOL    HW211662   1.032   3.556   0.737 -0.6456  0.4767  0.1298
 2974SOL    HW311663   0.932   3.444   0.753  0.2001 -0.2451  0.4448
 2974SOL    MW411664   1.011   3.472   0.730 -0.4889 -0.0167 -0.0092
 2975SOL     OW11665   5.873   5.832   6.311 -0.1962 -0.4582 -0.3904
 2975SOL    HW211666   5.860   5.801   6.400 -1.7203  0.0236 -0.4094
 2975SOL    HW311667   5.834   5.920   6.311  0.6516 -0.0659 -1.2885
 2975SOL    MW411668   5.866   5.840   6.323 -0.1789 -0.1458 -0.6263
 2976SOL     OW11669   6.066   6.430   0.690  0.3107 -0.0402 -0.4191
 2976SOL    HW211670   6.057   6.343   0.650  0.9965  0.3497 -1.4333
 2976SOL    HW311671   6.130   6.417   0.760  0.0406 -0.4482 -0.2381
 2976SOL    MW411672   6.073   6.417   0.694 -0.3397 -0.7622 -0.0197
 2977SOL     OW11673   2.680   0.938   3.683  0.1545 -0.7451  0.4928
 2977SOL    HW211674   2.768   0.975   3.681 -0.4732  0.8706 -1.6694
 2977SOL    HW311675   2.651   0.940   3.592 -2.9453  1.0217  1.3326
 2977SOL    MW411676   2.688   0.943   3.671 -0.0257 -0.5117  0.6180
 2978SOL     OW11677   2.696   1.744   1.623 -0.1825  0.7278  0.0970
 2978SOL    HW211678   2.642   1.671   1.656  0.0026  0.9409  0.8719
 2978SOL    HW311679   2.786   1.715   1.635 -0.1090  1.0308  0.2879
 2978SOL    MW411680   2.700   1.730   1.629 -0.3071  0.1452 -0.4750
 2979SOL     OW11681   5.235   6.091   6.346  0.3495 -0.2166  0.3317
 2979SOL    HW211682   5.146   6.113   6.372 -0.0531 -1.4856  0.1131
 2979SOL    HW311683   5.291   6.143   6.404 -0.5289  0.2209  0.8009
 2979SOL    MW411684   5.231   6.101   6.357 -0.1708  0.0503 -0.1352
 2980SOL     OW11685   0.705   0.242   2.491 -0.1579  0.2228  0.2612
 2980SOL    HW211686   0.692   0.317   2.432  0.6555 -0.2524 -0.5468
 2980SOL    HW311687   0.660   0.267   2.572 -2.4024  0.3868 -0.9587
 2980SOL    MW411688   0.697   0.255   2.494 -0.2798 -0.6346 -0.1553
 2981SOL     OW11689   3.209   1.649   3.016  0.9144  0.2201  0.0570
 2981SOL    HW211690   3.160   1.589   3.073  3.0646 -1.1295  0.6154
 2981SOL    HW311691   3.223   1.599   2.935 -0.3181  1.3516 -0.8965
 2981SOL    MW411692   3.205   1.634   3.013  0.3040  0.0818 -0.3551
 2982SOL     OW11693   4.732   5.125   5.415 -0.3506  0.0916  0.2650
 2982SOL    HW211694   4.753   5.218   5.406 -0.3315  0.2234  1.4235
 2982SOL    HW311695   4.673   5.106   5.342 -0.0699  0.9206 -0.1895
 2982SOL    MW411696   4.727   5.135   5.404 -0.4207  0.1747 -0.1057
 2983SOL     OW11697   5.180   1.984   1.646  0.6241  0.2573 -0.2284
 2983SOL    HW211698   5.154   2.032   1.567  0.3416  2.3221  1.0331
 2983SOL    HW311699   5.109   2.000   1.708  1.4330 -0.2572  0.8603
 2983SOL    MW411700   5.167   1.993   1.643  0.1772 -0.1363  0.0638
 2984SOL     OW11701   0.479   3.820   0.861 -0.5210 -0.5656  0.3592
 2984SOL    HW211702   0.490   3.884   0.930 -0.8532  0.3110 -0.3788
 2984SOL    HW311703   0.465   3.872   0.782 -1.0402 -1.5427 -0.2135
 2984SOL    MW411704   0.478   3.835   0.860 -0.0062  0.4148  0.4730
 2985SOL     OW11705   1.125   3.737   0.322 -0.2857 -0.1967 -0.3968
 2985SOL    HW211706   1.151   3.652   0.286  2.9765  0.4437  0.1770
 2985SOL    HW311707   1.161   3.738   0.411  1.3722  2.3989 -0.9809
 2985SOL    MW411708   1.133   3.726   0.329 -1.2187  0.1946  0.2453
 2986SOL     OW11709   0.536   1.275   0.942  0.5379  0.1575 -0.4126
 2986SOL    HW211710   0.483   1.218   0.998  1.3414  0.9081  1.1684
 2986SOL    HW311711   0.571   1.217   0.874 -1.6047 -0.5073 -1.0447
 2986SOL    MW411712   0.534   1.260   0.940 -0.2308 -0.2643  0.0983
 2987SOL     OW11713   4.347   1.837   6.132  0.1711  0.2834  0.3981
 2987SOL    HW211714   4.379   1.778   6.064  0.9807  0.4707  0.6124
 2987SOL    HW311715   4.268   1.793   6.165  0.3258 -0.2963  0.0213
 2987SOL    MW411716   4.340   1.823   6.128 -0.0857  0.2220  0.0932
 2988SOL     OW11717   4.791   1.922   1.249 -0.5129  0.0655 -0.5302
 2988SOL    HW211718   4.831   1.838   1.274 -1.3741 -0.4353 -0.8055
 2988SOL    HW311719   4.798   1.976   1.327  0.0305 -0.2678 -0.3424
 2988SOL    MW411720   4.797   1.918   1.263 -0.4169  0.0205 -0.3576
 2989SOL     OW11721   2.049   0.456   1.238 -0.7915  0.4482 -0.0400
 2989SOL    HW211722   2.096   0.431   1.317 -2.0132  1.3039  0.9963
 2989SOL    HW311723   2.077   0.546   1.221  1.3221 -0.4826 -2.0446
 2989SOL    MW411724   2.059   0.465   1.246 -0.3516 -0.2515 -0.0739
 2990SOL     OW11725   0.761   2.709   1.740  0.4358  0.2841  0.2469
 2990SOL    HW211726   0.842   2.728   1.695 -0.1619  0.1914 -0.8996
 2990SOL    HW311727   0.696   2.700   1.670 -0.4564 -0.1347  1.1065
 2990SOL    MW411728   0.763   2.710   1.725 -0.3220 -0.0197 -0.0291
 2991SOL     OW11729   3.116   4.076   5.787 -0.2614  0.0476  0.4251
 2991SOL    HW211730   3.153   4.161   5.809  0.6110 -0.3877  0.6924
 2991SOL    HW311731   3.191   4.023   5.760 -0.8585 -0.4810 -0.2600
 2991SOL    MW411732   3.131   4.080   5.786 -0.3812  0.5568 -0.6453
 2992SOL     OW11733   4.488   6.144   2.385 -0.1180 -0.3162  0.2901
 2992SOL    HW211734   4.465   6.186   2.467 -0.5968 -1.6513  0.8592
 2992SOL    HW311735   4.444   6.196   2.318 -0.1892  0.4419  0.9157
 2992SOL    MW411736   4.479   6.156   2.387  0.5739 -0.0387 -0.4940
 2993SOL     OW11737   4.859   0.608   0.077  0.5686  0.0544 -0.1950
 2993SOL    HW211738   4.905   0.530   0.046 -0.4595  0.0317 -1.8064
 2993SOL    HW311739   4.928   0.666   0.108  1.3342 -1.5684  1.2790
 2993SOL    MW411740   4.874   0.605   0.077 -0.3073  0.3032 -0.4227
 2994SOL     OW11741   4.778   4.463   5.771  0.4692  0.1311 -0.1058
 2994SOL    HW211742   4.860   4.448   5.723 -0.1834 -1.3737 -0.8392
 2994SOL    HW311743   4.712   4.473   5.702 -0.1211  0.3536  0.4812
 2994SOL    MW411744   4.780   4.462   5.755 -0.0706 -0.1622  0.0828
 2995SOL     OW11745   2.316   6.311   6.360 -0.3760  0.2637 -0.1631
 2995SOL    HW211746   2.314   6.347   6.272  0.0921 -0.1421 -0.3441
 2995SOL    HW311747   2.381   6.363   6.407  1.0482 -0.9510 -0.7098
 2995SOL    MW411748   2.324   6.323   6.355  0.5056 -0.1359  0.4333
 2996SOL     OW11749   2.806   3.054   1.365  0.3718 -0.1952  0.3123
 2996SOL    HW211750   2.888   3.018   1.331 -0.0362 -0.8616  0.0212
 2996SOL    HW311751   2.801   3.022   1.455  0.1197 -0.7014  0.1242
 2996SOL    MW411752   2.816   3.045   1.373  0.4051  0.9345 -0.2250
 2997SOL     OW11753   4.702   6.268   1.998 -0.0126  0.6319 -0.5820
 2997SOL    HW211754   4.651   6.347   1.983 -1.4864 -0.3105 -0.7613
 2997SOL    HW311755   4.663   6.229   2.076  1.3655  0.5941  0.1139
 2997SOL    MW411756   4.690   6.273   2.006  0.0839  0.7133  0.2794
 2998SOL     OW11757   1.713   3.171   1.662  0.3322  0.1212 -0.3606
 2998SOL    HW211758   1.775   3.239   1.689 -1.0070  0.3918  2.4187
 2998SOL    HW311759   1.724   3.102   1.727 -1.0952 -0.5677 -0.8175
 2998SOL    MW411760   1.723   3.171   1.674  0.0331 -0.1752 -0.3971
 2999SOL     OW11761   4.717   1.622   4.665 -0.5054  0.1906  0.0747
 2999SOL    HW211762   4.689   1.532   4.685 -0.5104 -0.3874 -2.2341
 2999SOL    HW311763   4.648   1.677   4.702 -0.8313 -0.7868  0.9769
 2999SOL    MW411764   4.704   1.617   4.672  0.1126  1.1411 -0.0878
 3000SOL     OW11765   4.574   0.820   4.682 -0.7130 -0.2140  0.1347
 3000SOL    HW211766   4.487   0.788   4.704 -1.8410  1.8605 -1.0516
 3000SOL    HW311767   4.604   0.760   4.613 -0.7284 -1.5596  1.2634
 3000SOL    MW411768   4.567   0.808   4.676  0.4011  0.2937 -1.2471
 3001SOL     OW11769   3.154   1.138   3.932  0.1144 -0.1126 -0.0937
 3001SOL    HW211770   3.138   1.230   3.955 -0.8816 -0.1861 -0.4320
 3001SOL    HW311771   3.191   1.142   3.843 -0.1041 -0.0475 -0.1822
 3001SOL    MW411772   3.157   1.151   3.923 -0.3277  0.0743  0.3485
 3002SOL     OW11773   2.572   1.154   4.409  0.4022 -0.1737  0.4593
 3002SOL    HW211774   2.659   1.189   4.390  0.3157  0.3909  1.0719
 3002SOL    HW311775   2.527   1.224   4.456 -1.2202  0.4497 -1.8735
 3002SOL    MW411776   2.577   1.168   4.413 -0.2131  0.6722  0.1585
 3003SOL     OW11777   6.246   5.050   0.783 -0.4066  0.5553 -0.4764
 3003SOL    HW211778   6.153   5.048   0.760 -0.1131  2.4001 -2.0214
 3003SOL    HW311779   6.250   5.102   0.863 -0.6625  1.1268 -0.8252
 3003SOL    MW411780   6.234   5.057   0.790  0.0264 -0.3513 -0.2884
 3004SOL     OW11781   5.951   5.000   0.745 -0.5607  0.3650  0.4012
 3004SOL    HW211782   5.878   5.018   0.804 -0.0640  2.1442  0.5278
 3004SOL    HW311783   5.916   5.019   0.657 -0.2079  1.5171  0.4862
 3004SOL    MW411784   5.936   5.005   0.741 -0.7208  0.1368 -0.0850
 3005SOL     OW11785   2.078   5.103   5.258 -0.3673 -0.0307  0.1360
 3005SOL    HW211786   2.025   5.163   5.311  0.2183  2.2640 -1.6831
 3005SOL    HW311787   2.034   5.100   5.173  0.8758 -0.2980 -0.5372
 3005SOL    MW411788   2.065   5.111   5.254 -0.8364  0.6560 -0.1913
 3006SOL     OW11789   4.826   3.244   3.796  0.6057  0.1596  0.2517
 3006SOL    HW211790   4.827   3.334   3.830 -1.7674  0.4642 -0.2732
 3006SOL    HW311791   4.738   3.212   3.818  0.0288 -0.6860 -2.8159
 3006SOL    MW411792   4.814   3.252   3.803 -0.6394 -0.2920 -0.2694
 3007SOL     OW11793   3.836   4.580   1.993 -0.3350 -0.7406  0.2769
 3007SOL    HW211794   3.925   4.562   1.963  0.5614  0.2241  2.2092
 3007SOL    HW311795   3.804   4.649   1.934  1.0867  0.5643  0.9767
 3007SOL    MW411796   3.843   4.587   1.981 -0.5981  0.0876  0.2956
 3008SOL     OW11797   1.448   3.818   3.362  0.1107  0.6576 -0.3836
 3008SOL    HW211798   1.366   3.776   3.389  1.7021 -0.7381  2.8844
 3008SOL    HW311799   1.420   3.894   3.312 -3.2305  0.5046  0.9601
 3008SOL    MW411800   1.433   3.822   3.359 -0.4010  0.4197  0.3857
 3009SOL     OW11801   3.613   0.691   3.102  0.0536 -0.4750 -0.0500
 3009SOL    HW211802   3.567   0.746   3.039 -0.8367 -1.1124  0.0239
 3009SOL    HW311803   3.663   0.630   3.049 -0.5535 -0.8934 -0.1578
 3009SOL    MW411804   3.613   0.690   3.087  0.7579 -0.2232 -0.0922
 3010SOL     OW11805   3.880   1.470   2.410 -0.2957  0.5956 -0.3061
 3010SOL    HW211806   3.962   1.485   2.362  0.0115  0.0180  0.0362
 3010SOL    HW311807   3.813   1.506   2.352 -0.1650 -1.8387 -2.1414
 3010SOL    MW411808   3.882   1.477   2.396  0.6058 -0.3062 -0.2859
 3011SOL     OW11809   2.690   4.450   4.153 -0.3197  0.0143  0.2719
 3011SOL    HW211810   2.615   4.508   4.138 -0.4237  0.0422  0.8948
 3011SOL    HW311811   2.766   4.506   4.143 -0.3086 -0.2788 -1.6721
 3011SOL    MW411812   2.690   4.465   4.150  0.6154 -0.0231  0.1897
 3012SOL     OW11813   0.374   1.652   5.981 -0.2731  0.1854 -0.1895
 3012SOL    HW211814   0.329   1.695   5.907 -0.2396 -0.1927 -0.4294
 3012SOL    HW311815   0.466   1.649   5.954 -0.3456 -0.4450 -0.3670
 3012SOL    MW411816   0.380   1.658   5.967 -0.0987 -0.4470  0.0032
 3013SOL     OW11817   1.133   4.498   2.569  0.4618 -0.0961 -0.2583
 3013SOL    HW211818   1.139   4.414   2.523  1.6082  0.6191 -1.5165
 3013SOL    HW311819   1.089   4.556   2.507 -0.7744  0.1279  0.7964
 3013SOL    MW411820   1.128   4.495   2.555 -0.2867 -0.0268 -0.3377
 3014SOL     OW11821   2.927   3.781   5.728 -0.5474  0.3673 -0.0090
 3014SOL    HW211822   2.873   3.702   5.732 -1.1738  0.4024 -3.8655
 3014SOL    HW311823   2.884   3.842   5.787 -2.6473 -0.7855 -0.2212
 3014SOL    MW411824   2.914   3.778   5.736  0.0555  0.4555 -0.5568
 3015SOL     OW11825   5.901   1.564   5.735 -0.1299 -0.0336 -0.1217
 3015SOL    HW211826   5.806   1.556   5.738 -0.1197 -0.0643  0.0779
 3015SOL    HW311827   5.918   1.625   5.662 -0.3141  0.2433  0.0668
 3015SOL    MW411828   5.891   1.571   5.726  0.2241  0.6672  0.0338
 3016SOL     OW11829   4.611   2.691   4.761 -0.3409 -0.0405 -0.3576
 3016SOL    HW211830   4.656   2.670   4.843  0.2218 -0.2306 -0.7124
 3016SOL    HW311831   4.664   2.650   4.693 -1.5368 -1.0606 -0.7266
 3016SOL    MW411832   4.624   2.683   4.763  0.1246  0.6301 -0.1845
 3017SOL     OW11833   3.297   6.420   0.931  0.1095  0.2199  0.8632
 3017SOL    HW211834   3.246   6.481   0.878 -0.5629 -0.4927  0.6780
 3017SOL    HW311835   3.380   6.466   0.947 -0.3753  1.1747  0.7237
 3017SOL    MW411836   3.302   6.434   0.926  0.2463  0.4344  0.0033
 3018SOL     OW11837   4.243   2.015   2.019 -0.1754  0.6999 -0.6932
 3018SOL    HW211838   4.256   2.032   2.112  2.5991  1.5027 -1.1454
 3018SOL    HW311839   4.195   2.091   1.987 -0.5381  0.7419 -0.0538
 3018SOL    MW411840   4.238   2.027   2.027  0.5535  0.3039 -0.4856
 3019SOL     OW11841   4.405   3.137   2.402 -0.0164  0.3154  0.2666
 3019SOL    HW211842   4.423   3.125   2.495 -0.4086 -1.1792  0.1806
 3019SOL    HW311843   4.458   3.212   2.376  0.9346  0.0833  1.4545
 3019SOL    MW411844   4.414   3.145   2.411 -0.6638  1.2191 -0.4871
 3020SOL     OW11845   4.109   6.328   3.704  0.0910  0.1499  0.6401
 3020SOL    HW211846   4.187   6.322   3.758  0.4018  0.9270  0.2974
 3020SOL    HW311847   4.036   6.318   3.765  0.3885  2.6531  1.5167
 3020SOL    MW411848   4.110   6.326   3.719  0.0740  0.1121  0.0885
 3021SOL     OW11849   4.333   5.342   3.261  0.3774 -0.1004 -0.2910
 3021SOL    HW211850   4.276   5.265   3.253 -0.0436  0.1842 -0.0666
 3021SOL    HW311851   4.411   5.308   3.306  1.2691 -0.9284 -2.3612
 3021SOL    MW411852   4.336   5.327   3.266 -0.3938  0.0346 -0.0322
 3022SOL     OW11853   0.240   5.315   3.588 -0.0520 -0.2378  0.3879
 3022SOL    HW211854   0.325   5.275   3.569  0.1373  0.8408 -1.2701
 3022SOL    HW311855   0.176   5.247   3.565  0.3127 -0.3501 -0.3227
 3022SOL    MW411856   0.243   5.301   3.582  0.3931  0.6284 -0.3233
 3023SOL     OW11857   3.915   5.637   5.722  0.2965  0.2906 -0.1026
 3023SOL    HW211858   3.980   5.706   5.727  0.9041  0.0953 -3.1905
 3023SOL    HW311859   3.831   5.681   5.737  0.6223  1.9215 -2.4908
 3023SOL    MW411860   3.912   5.652   5.725 -0.0015 -0.2300 -0.2485
 3024SOL     OW11861   1.624   5.652   0.013  0.2857  1.0526 -0.1031
 3024SOL    HW211862   1.613   5.566  -0.027  0.6484 -0.3647  2.6236
 3024SOL    HW311863   1.672   5.703  -0.052  0.6108 -0.9753 -1.5447
 3024SOL    MW411864   1.629   5.647  -0.001 -0.4715  0.3516 -0.2036
 3025SOL     OW11865   4.785   3.299   2.239  0.5510 -0.6389  0.3820
 3025SOL    HW211866   4.692   3.323   2.249  0.9226  0.6104  1.1007
 3025SOL    HW311867   4.822   3.370   2.186  1.5300 -0.0117  1.8669
 3025SOL    MW411868   4.777   3.312   2.233  0.5265  0.3246  0.3146
 3026SOL     OW11869   4.797   4.975   6.058  0.3670 -0.0956 -0.0709
 3026SOL    HW211870   4.763   4.934   5.978 -0.2349  0.2061  0.0271
 3026SOL    HW311871   4.891   4.988   6.040  0.2231  0.0277 -0.7511
 3026SOL    MW411872   4.805   4.971   6.045  0.2501 -0.0414  0.1137
 3027SOL     OW11873   5.088   0.647   4.349 -0.8071 -0.4445 -0.1408
 3027SOL    HW211874   5.157   0.584   4.371 -0.6183  0.0392  0.6966
 3027SOL    HW311875   5.046   0.667   4.433 -0.5046  0.9447 -0.2986
 3027SOL    MW411876   5.092   0.641   4.363 -0.5054  0.0922  1.0210
 3028SOL     OW11877   6.140   1.145   2.921  0.1778  0.0216  0.0796
 3028SOL    HW211878   6.075   1.215   2.918  0.2653  0.0761 -2.5305
 3028SOL    HW311879   6.200   1.172   2.990 -1.9034  0.5081  1.8324
 3028SOL    MW411880   6.139   1.158   2.930 -0.1333  0.0557 -0.2612
 3029SOL     OW11881   5.996   3.037   3.875  0.0133 -0.1220  0.5017
 3029SOL    HW211882   5.902   3.053   3.863 -0.2696  0.3674  2.9792
 3029SOL    HW311883   6.030   3.026   3.786 -2.0926  1.3416 -0.5465
 3029SOL    MW411884   5.988   3.037   3.861  0.6635 -0.0552  0.0312
 3030SOL     OW11885   2.609   1.987   0.168 -0.0680  0.2778 -0.0950
 3030SOL    HW211886   2.672   1.975   0.239 -0.2892 -0.0788  0.0483
 3030SOL    HW311887   2.627   1.915   0.108 -0.9088 -0.3556  0.3848
 3030SOL    MW411888   2.620   1.976   0.169  0.2407 -0.1974 -0.4142
 3031SOL     OW11889   1.977   1.629   0.722 -0.1986  0.0860 -0.5972
 3031SOL    HW211890   2.064   1.659   0.748  0.1910 -2.1280  1.0016
 3031SOL    HW311891   1.929   1.620   0.804 -1.8624  0.9805 -1.4322
 3031SOL    MW411892   1.983   1.631   0.736  0.6011 -0.0362 -0.5194
 3032SOL     OW11893   5.773   4.296   3.846 -0.8177  0.3030 -0.1558
 3032SOL    HW211894   5.776   4.313   3.941 -0.9539  1.6026 -0.3671
 3032SOL    HW311895   5.680   4.287   3.826 -0.8225  0.5511 -0.2477
 3032SOL    MW411896   5.761   4.297   3.856  0.6240 -0.0137  0.0852
 3033SOL     OW11897   1.716   4.869   2.276 -0.3165 -0.6052  0.6186
 3033SOL    HW211898   1.674   4.907   2.352 -0.7336 -1.0033  0.5906
 3033SOL    HW311899   1.725   4.941   2.214 -2.5274 -0.8435 -0.0704
 3033SOL    MW411900   1.712   4.883   2.278 -0.5859 -0.0130 -0.6225
 3034SOL     OW11901   3.077   0.050   1.251  0.3658 -0.0527 -0.2331
 3034SOL    HW211902   3.047   0.079   1.337  2.0590  2.3024 -0.3421
 3034SOL    HW311903   3.007   0.076   1.191 -0.3765 -0.8095  0.2818
 3034SOL    MW411904   3.063   0.057   1.255  0.4519 -0.1537  0.4218
 3035SOL     OW11905   2.315   2.507   0.004 -0.3002  0.2047 -0.3123
 3035SOL    HW211906   2.287   2.570   0.070 -0.2611 -0.7621  0.6515
 3035SOL    HW311907   2.363   2.440   0.053 -2.7796 -2.1168 -0.7837
 3035SOL    MW411908   2.318   2.507   0.019  0.2713 -0.8336  0.6899
 3036SOL     OW11909   0.044   4.218   5.096 -0.3137  0.1832  0.5881
 3036SOL    HW211910   0.078   4.281   5.160  0.2219  0.1236  0.3690
 3036SOL    HW311911  -0.051   4.220   5.109 -0.3176  1.1160  0.5141
 3036SOL    MW411912   0.036   4.227   5.106  0.4389 -0.2347 -0.0185
 3037SOL     OW11913   4.200   4.764   4.255 -0.0336 -0.0825 -0.0001
 3037SOL    HW211914   4.104   4.758   4.250 -0.2012  0.4907  1.8346
 3037SOL    HW311915   4.217   4.855   4.281  1.1044  0.1607 -1.4229
 3037SOL    MW411916   4.190   4.776   4.258  0.1933  0.6615  0.3883
 3038SOL     OW11917   1.739   4.466   5.681 -0.1948 -0.1089 -0.3870
 3038SOL    HW211918   1.788   4.446   5.601  0.8572  2.0176 -0.3504
 3038SOL    HW311919   1.709   4.556   5.669 -3.1040 -0.8994  0.1630
 3038SOL    MW411920   1.742   4.475   5.669 -0.0295  0.6071  0.0555
 3039SOL     OW11921   4.854   5.691   3.031  0.2826 -0.5605  0.0023
 3039SOL    HW211922   4.808   5.683   3.114 -0.5233  1.6983 -0.1467
 3039SOL    HW311923   4.911   5.767   3.042 -1.0861  0.8724 -1.9580
 3039SOL    MW411924   4.855   5.700   3.043  0.0945 -0.2715  0.3331
 3040SOL     OW11925   4.142   0.569   3.373  0.1065  0.0227  0.0195
 3040SOL    HW211926   4.054   0.567   3.408  0.4627 -0.6917  0.8971
 3040SOL    HW311927   4.190   0.628   3.432 -0.1891  1.8920 -1.4985
 3040SOL    MW411928   4.137   0.577   3.385  0.2427 -0.4555 -0.2568
 3041SOL     OW11929   4.633   6.290   0.014  0.2823 -0.8750 -0.8862
 3041SOL    HW211930   4.553   6.343   0.017  0.8697  0.0016  1.1549
 3041SOL    HW311931   4.639   6.261  -0.077 -0.6871  1.6308 -1.8479
 3041SOL    MW411932   4.623   6.293   0.002 -0.3994  0.7819  0.3721
 3042SOL     OW11933   5.840   3.193   5.113 -0.4168 -0.4373  0.4891
 3042SOL    HW211934   5.746   3.181   5.106 -0.1902 -1.5376 -1.3193
 3042SOL    HW311935   5.864   3.146   5.193 -0.9995 -3.3893 -0.9226
 3042SOL    MW411936   5.831   3.185   5.123 -0.8469 -0.8765  0.0694
 3043SOL     OW11937   4.265   1.117   1.935  0.0107  0.3190  0.0914
 3043SOL    HW211938   4.180   1.160   1.937 -0.3100 -0.3390  1.3640
 3043SOL    HW311939   4.323   1.174   1.986  0.4851  1.0123 -1.1655
 3043SOL    MW411940   4.262   1.130   1.942  0.4381  0.1684 -0.1690
 3044SOL     OW11941   2.439   2.734   4.860 -0.0638 -0.3215 -0.0485
 3044SOL    HW211942   2.480   2.652   4.832 -0.6874 -0.2992 -1.0658
 3044SOL    HW311943   2.381   2.710   4.932  1.7725 -0.3411  1.5164
 3044SOL    MW411944   2.437   2.720   4.866 -0.2493 -0.1816 -0.7405
 3045SOL     OW11945   1.735   0.012   1.173  0.2990  0.4137  0.6751
 3045SOL    HW211946   1.828   0.035   1.183  0.4660  0.0961 -0.0651
 3045SOL    HW311947   1.732  -0.037   1.091 -0.2433 -1.1027  1.5519
 3045SOL    MW411948   1.747   0.008   1.164 -0.5647  0.3375  0.1983
 3046SOL     OW11949   1.759   3.021   4.130 -1.0423 -0.2265  0.2861
 3046SOL    HW211950   1.800   2.976   4.204 -2.0263 -3.1618 -0.7881
 3046SOL    HW311951   1.777   2.965   4.055 -1.1912  1.9820 -1.5064
 3046SOL    MW411952   1.766   3.007   4.130  0.0655  0.5401  0.3513
 3047SOL     OW11953   4.176   5.654   2.407 -0.2190  0.4751  0.1934
 3047SOL    HW211954   4.237   5.727   2.406  0.3197  0.0632  1.2607
 3047SOL    HW311955   4.229   5.578   2.382 -0.7080  0.4001 -0.6290
 3047SOL    MW411956   4.191   5.654   2.404 -0.3094  0.9262  0.1343
 3048SOL     OW11957   0.115   0.081   5.176 -0.8040  0.2147 -0.1736
 3048SOL    HW211958   0.130   0.158   5.121  0.7357 -0.2819 -0.4777
 3048SOL    HW311959   0.067   0.115   5.252  1.8463  1.9432  0.8522
 3048SOL    MW411960   0.110   0.096   5.178  0.1681  0.7680 -0.1194
 3049SOL     OW11961   5.821   5.379   4.720 -0.8173  0.1925  0.1296
 3049SOL    HW211962   5.747   5.397   4.663 -0.0584 -2.1346 -1.7632
 3049SOL    HW311963   5.898   5.408   4.670 -0.1310 -1.9377 -0.1779
 3049SOL    MW411964   5.822   5.385   4.706  0.0800 -1.0679  1.2364
 3050SOL     OW11965   2.781   5.654   0.590 -0.0378  0.0093  0.7269
 3050SOL    HW211966   2.863   5.698   0.612  0.2240 -0.1490  0.0778
 3050SOL    HW311967   2.788   5.634   0.497  0.0028 -1.7337  1.0728
 3050SOL    MW411968   2.793   5.657   0.580 -0.1298 -0.5173 -0.0034
 3051SOL     OW11969   3.836   0.511   1.825  0.3006 -0.1206 -0.5533
 3051SOL    HW211970   3.811   0.603   1.836  1.0286  0.3240 -2.2990
 3051SOL    HW311971   3.754   0.463   1.827 -0.1813  0.6865 -0.7491
 3051SOL    MW411972   3.822   0.517   1.827 -0.2391 -0.0822  0.0681
 3052SOL     OW11973   4.927   2.927   2.903  0.1642  0.3446  0.0824
 3052SOL    HW211974   4.960   2.876   2.977  0.6362 -0.4565 -0.6557
 3052SOL    HW311975   4.917   3.015   2.937 -0.6265 -0.2282  1.3855
 3052SOL    MW411976   4.930   2.932   2.917 -0.1777  0.2512 -0.8023
 3053SOL     OW11977   1.925   0.671   4.063 -0.0386 -0.0935 -0.0488
 3053SOL    HW211978   1.881   0.587   4.050  1.6349 -0.8300 -1.4975
 3053SOL    HW311979   2.006   0.649   4.109 -0.3998  1.0004  1.1647
 3053SOL    MW411980   1.930   0.657   4.067  0.1019 -0.0381  0.0371
 3054SOL     OW11981   1.882   3.657   0.128 -0.5338 -0.1847 -0.2286
 3054SOL    HW211982   1.920   3.649   0.041  0.1196 -0.4366  0.0718
 3054SOL    HW311983   1.944   3.711   0.176 -1.9857  1.8910 -0.5433
 3054SOL    MW411984   1.895   3.663   0.123  0.4980  0.3090  0.1411
 3055SOL     OW11985   2.293   0.602   2.364  0.0312  0.2201 -0.1920
 3055SOL    HW211986   2.231   0.674   2.353 -0.6262 -0.1427  0.9279
 3055SOL    HW311987   2.363   0.638   2.418  0.7376  0.5818 -1.3191
 3055SOL    MW411988   2.294   0.616   2.370 -0.3110 -0.2285 -0.0077
 3056SOL     OW11989   6.428   4.313   1.288  0.1774  0.5103  0.2047
 3056SOL    HW211990   6.451   4.388   1.233 -0.4365  0.8648  0.4114
 3056SOL    HW311991   6.334   4.323   1.303 -0.0492 -0.6647 -0.3038
 3056SOL    MW411992   6.418   4.324   1.283  0.4206 -0.5560 -0.0219
 3057SOL     OW11993   3.123   1.498   4.601  0.3519  0.1302 -0.0055
 3057SOL    HW211994   3.143   1.592   4.601  0.8113  0.0529 -1.4382
 3057SOL    HW311995   3.191   1.459   4.656 -0.6034  0.7413  1.7098
 3057SOL    MW411996   3.135   1.505   4.609  0.2042  0.0406 -0.1132
 3058SOL     OW11997   3.323   6.368   2.304  0.2345  0.1728 -0.1471
 3058SOL    HW211998   3.297   6.312   2.231  0.1165  2.4755 -1.9916
 3058SOL    HW311999   3.397   6.419   2.271  0.9107  0.5224  1.7501
 3058SOL    MW412000   3.329   6.368   2.290  0.5631  0.2170 -0.2212
 3059SOL     OW12001   0.957   1.454   2.319  0.4321  0.1608  0.3545
 3059SOL    HW212002   0.958   1.513   2.394  3.8582  0.5275  0.1859
 3059SOL    HW312003   0.968   1.511   2.243  0.5040 -0.4533 -0.1020
 3059SOL    MW412004   0.959   1.469   2.319 -0.1155  0.2115 -0.3059
 3060SOL     OW12005   2.162   3.566   2.772 -0.1091 -0.4920  0.1389
 3060SOL    HW212006   2.078   3.606   2.796 -0.1391 -0.4798  0.0175
 3060SOL    HW312007   2.223   3.639   2.766  0.5004 -0.7344  2.5958
 3060SOL    MW412008   2.159   3.581   2.774 -0.5700 -0.1826  0.1168
 3061SOL     OW12009   4.291   3.363   0.048  0.0139 -0.2137  0.7530
 3061SOL    HW212010   4.201   3.349   0.019 -0.2904 -0.3053  1.7088
 3061SOL    HW312011   4.325   3.431  -0.011 -1.0615  0.6612  1.0972
 3061SOL    MW412012   4.283   3.370   0.037  1.2299 -0.2763 -0.0881
 3062SOL     OW12013   0.777   2.556   1.007 -0.1834 -0.5750 -0.4107
 3062SOL    HW212014   0.747   2.577   0.918 -2.0935 -0.7410  0.1369
 3062SOL    HW312015   0.812   2.467   1.000 -0.9680 -0.8604 -0.8800
 3062SOL    MW412016   0.778   2.547   0.994  0.1161  0.7075 -0.6203
 3063SOL     OW12017   4.576   1.836   2.718  0.2425 -0.1390 -0.0003
 3063SOL    HW212018   4.576   1.851   2.812  0.5626 -0.5539  0.0678
 3063SOL    HW312019   4.509   1.895   2.684 -0.8980 -0.9981  0.6555
 3063SOL    MW412020   4.567   1.845   2.726  0.2970  0.4902  0.1099
 3064SOL     OW12021   5.999   4.772   5.136 -0.2058 -0.3383  0.6543
 3064SOL    HW212022   6.093   4.766   5.118 -0.8054 -0.3058 -3.3422
 3064SOL    HW312023   5.991   4.850   5.192  2.0736  0.1669  0.3830
 3064SOL    MW412024   6.010   4.782   5.141  0.4052 -0.0566  0.0301
 3065SOL     OW12025   5.962   3.148   1.633 -0.9723 -0.1803 -0.1555
 3065SOL    HW212026   5.952   3.166   1.540  0.3079  0.4770 -0.1871
 3065SOL    HW312027   6.045   3.100   1.640 -1.4013 -0.8463  0.5766
 3065SOL    MW412028   5.972   3.144   1.622  0.0284 -0.0833 -0.0185
 3066SOL     OW12029   4.855   5.170   3.168 -0.4943  0.3800 -0.0484
 3066SOL    HW212030   4.831   5.149   3.078  2.1232  3.1470 -1.5592
 3066SOL    HW312031   4.945   5.138   3.177  0.1117  2.2081  0.7658
 3066SOL    MW412032   4.863   5.163   3.157  0.2986  0.0654 -0.3602
 3067SOL     OW12033   2.843   0.345   1.718  0.0474 -0.2377 -0.1017
 3067SOL    HW212034   2.834   0.379   1.629 -0.2765  1.2581  0.4621
 3067SOL    HW312035   2.779   0.274   1.723 -0.3905  0.0865 -0.8711
 3067SOL    MW412036   2.833   0.340   1.707  0.3057  0.2863  0.6477
 3068SOL     OW12037   3.506   6.165   6.210 -0.2460 -0.5352 -0.0897
 3068SOL    HW212038   3.550   6.175   6.294  1.7446  1.4469 -1.2767
 3068SOL    HW312039   3.576   6.143   6.148 -1.6137 -1.6333 -1.3361
 3068SOL    MW412040   3.521   6.163   6.213 -0.3674  0.0375  0.1449
 3069SOL     OW12041   3.588   6.147   3.033 -0.6007  0.7029  0.0915
 3069SOL    HW212042   3.503   6.108   3.051 -1.1707  1.0954 -1.6265
 3069SOL    HW312043   3.576   6.240   3.049 -1.0577  1.0282 -1.9388
 3069SOL    MW412044   3.575   6.154   3.038 -0.0769 -1.0226 -0.1021
 3070SOL     OW12045   3.540   3.251   5.429 -0.8881 -0.2399  0.3501
 3070SOL    HW212046   3.471   3.246   5.363 -0.0460 -0.8574 -0.5043
 3070SOL    HW312047   3.580   3.164   5.430  0.3272  0.2945  0.3280
 3070SOL    MW412048   3.536   3.239   5.421  0.0379 -0.0719 -0.4400
 3071SOL     OW12049   4.045   0.259   5.681 -0.0734 -0.0814  0.3146
 3071SOL    HW212050   4.057   0.282   5.589 -0.4035  0.1489  0.3255
 3071SOL    HW312051   4.011   0.170   5.680  0.2306 -0.1971  0.2273
 3071SOL    MW412052   4.042   0.250   5.669 -0.5098  0.2556  0.4392
 3072SOL     OW12053   0.349   1.679   4.081 -0.2929 -0.2213 -0.4348
 3072SOL    HW212054   0.338   1.585   4.091  0.3324 -0.3494 -0.8316
 3072SOL    HW312055   0.434   1.698   4.120  0.1314 -0.0265 -1.4038
 3072SOL    MW412056   0.359   1.669   4.087 -0.0022 -0.0795  0.2699
 3073SOL     OW12057   3.885   5.199   0.529 -0.5452 -0.3957  0.4015
 3073SOL    HW212058   3.891   5.151   0.611  0.9382 -0.3994  0.3089
 3073SOL    HW312059   3.804   5.250   0.537 -1.8143 -2.3667  0.7532
 3073SOL    MW412060   3.875   5.200   0.541 -0.1773  0.2107 -0.1886
 3074SOL     OW12061   0.794   1.685   0.906  0.6132  0.0557 -0.7624
 3074SOL    HW212062   0.774   1.613   0.965 -1.8374  0.8607 -0.5333
 3074SOL    HW312063   0.869   1.729   0.947  2.2057 -2.2747 -0.9279
 3074SOL    MW412064   0.801   1.681   0.919 -0.1958 -0.0438  0.1266
 3075SOL     OW12065   4.721   6.362   2.536 -0.2312  0.0338  0.2815
 3075SOL    HW212066   4.701   6.269   2.540  3.6018 -1.3061 -3.7245
 3075SOL    HW312067   4.679   6.392   2.455  0.5442  1.0926  0.2464
 3075SOL    MW412068   4.713   6.354   2.526 -0.3078  0.8883 -0.6468
 3076SOL     OW12069   1.215   0.275   0.957  0.1047  0.0002  0.7687
 3076SOL    HW212070   1.265   0.290   1.036 -0.8733  1.8903  1.0936
 3076SOL    HW312071   1.204   0.180   0.952  4.1048 -0.6004  0.3441
 3076SOL    MW412072   1.220   0.265   0.967 -0.6725  0.2299  0.1860
 3077SOL     OW12073   4.447   1.120   0.429  0.0746  0.1611 -0.1218
 3077SOL    HW212074   4.477   1.112   0.338 -0.3033 -2.4820 -0.1046
 3077SOL    HW312075   4.357   1.088   0.428  0.0695  0.0810  1.1899
 3077SOL    MW412076   4.439   1.115   0.417  0.2339 -0.2865 -0.0514
 3078SOL     OW12077   5.767   3.198   5.831 -0.3073  0.8637 -0.2523
 3078SOL    HW212078   5.709   3.272   5.812 -2.3437 -1.0607 -2.1028
 3078SOL    HW312079   5.802   3.172   5.746  2.2102  1.0097  0.6503
 3078SOL    MW412080   5.764   3.205   5.818 -0.1412  0.0329 -0.7650
 3079SOL     OW12081   1.863   6.387   5.439 -0.0895 -0.4235 -0.1954
 3079SOL    HW212082   1.893   6.449   5.372 -0.0317 -1.3935 -1.0854
 3079SOL    HW312083   1.812   6.441   5.500  0.1735  0.5474 -0.8082
 3079SOL    MW412084   1.860   6.402   5.438 -0.1495  0.1183  0.0213
 3080SOL     OW12085   0.056   1.519   2.251 -0.5037 -0.0760  0.2370
 3080SOL    HW212086   0.136   1.541   2.202 -0.5517 -1.3854 -0.4824
 3080SOL    HW312087   0.005   1.467   2.189  0.1190 -3.1702  2.1484
 3080SOL    MW412088   0.060   1.515   2.236  0.0972  0.2828  0.4306
 3081SOL     OW12089   3.298   5.178   3.909  0.3032  0.0214 -0.0027
 3081SOL    HW212090   3.205   5.164   3.890  0.6116  0.6197 -2.1447
 3081SOL    HW312091   3.298   5.237   3.984 -1.0645  0.4661 -0.3168
 3081SOL    MW412092   3.286   5.184   3.917  0.0649  0.0562  0.5380
 3082SOL     OW12093   3.897   4.714   1.391 -0.2356  0.0635  0.2863
 3082SOL    HW212094   3.926   4.643   1.448  0.9071  0.3747  0.1228
 3082SOL    HW312095   3.816   4.745   1.430 -0.8478 -1.4403  0.2624
 3082SOL    MW412096   3.890   4.709   1.404 -0.3410 -0.1276 -0.5273
 3083SOL     OW12097   0.106   4.525   2.557 -1.2997  0.5412  0.7228
 3083SOL    HW212098   0.118   4.544   2.650  1.2973 -0.4050  0.6455
 3083SOL    HW312099   0.175   4.574   2.513 -0.3649 -1.6182 -0.3496
 3083SOL    MW412100   0.117   4.534   2.563 -0.2790 -0.0220 -0.4304
 3084SOL     OW12101   3.409   5.166   4.252  0.0635  0.1579  0.7725
 3084SOL    HW212102   3.360   5.233   4.203 -0.0902 -0.8747 -0.5545
 3084SOL    HW312103   3.462   5.216   4.315 -1.4035  1.4036  1.0835
 3084SOL    MW412104   3.409   5.181   4.254  0.0099  0.7563 -0.3049
 3085SOL     OW12105   3.012   1.935   1.614 -0.1609 -0.1006 -0.7621
 3085SOL    HW212106   2.937   1.959   1.559  0.7470  0.7078 -1.6927
 3085SOL    HW312107   3.088   1.945   1.556  0.7220 -0.3766  0.3198
 3085SOL    MW412108   3.012   1.939   1.599  0.3745  0.3045  0.0213
 3086SOL     OW12109   1.480   0.196   4.433 -0.0899 -0.1342  0.1481
 3086SOL    HW212110   1.539   0.135   4.477  2.5218  2.3262  0.3937
 3086SOL    HW312111   1.456   0.260   4.501  0.1637  1.0903 -0.8720
 3086SOL    MW412112   1.484   0.197   4.448  0.1259  0.5694 -0.4833
 3087SOL     OW12113   5.492   0.050   2.982  0.1352  0.1558  0.1180
 3087SOL    HW212114   5.405   0.064   3.020 -0.1583  1.8542 -1.0733
 3087SOL    HW312115   5.499  -0.045   2.973 -1.8219  0.0123 -0.2779
 3087SOL    MW412116   5.481   0.039   2.986 -0.3109 -0.1392 -0.2023
 3088SOL     OW12117   5.615   0.474   4.655  0.2537  0.0749  0.5249
 3088SOL    HW212118   5.550   0.459   4.725 -0.0980 -1.1049 -0.0144
 3088SOL    HW312119   5.668   0.547   4.686 -0.1980 -0.1199  1.8119
 3088SOL    MW412120   5.613   0.481   4.668  0.1102 -0.1357 -0.2678
 3089SOL     OW12121   6.073   6.317   4.914  0.3733 -0.2389  0.6687
 3089SOL    HW212122   6.028   6.243   4.956  0.9223 -0.6097  0.6037
 3089SOL    HW312123   6.031   6.395   4.952 -0.9953 -0.5629 -0.0931
 3089SOL    MW412124   6.061   6.318   4.924  0.1760  0.1938 -0.2591
 3090SOL     OW12125   2.506   2.261   1.998  0.2010  0.3206  0.6409
 3090SOL    HW212126   2.464   2.265   1.912 -1.0989  2.0586  1.3074
 3090SOL    HW312127   2.599   2.247   1.978 -0.1260  0.3323 -1.0333
 3090SOL    MW412128   2.513   2.260   1.984  0.2831 -0.3220 -0.4538
 3091SOL     OW12129   0.095   4.563   1.185 -0.5263 -0.2690 -0.0046
 3091SOL    HW212130   0.144   4.559   1.267 -2.3684 -1.2562  1.1047
 3091SOL    HW312131   0.030   4.632   1.199 -0.9716 -0.5696 -0.5766
 3091SOL    MW412132   0.093   4.572   1.197  0.1096  0.5224 -0.6824
 3092SOL     OW12133   2.596   5.114   2.340 -0.2740 -0.2583  0.1206
 3092SOL    HW212134   2.528   5.107   2.274 -1.7562  1.0960  1.4305
 3092SOL    HW312135   2.615   5.023   2.365 -1.3477 -0.6704 -0.5094
 3092SOL    MW412136   2.590   5.101   2.335  0.0414 -0.0103  0.0368
 3093SOL     OW12137   2.645   5.965   2.596 -0.3987 -0.1697  0.2555
 3093SOL    HW212138   2.574   5.907   2.566 -1.5424  1.6156 -0.7075
 3093SOL    HW312139   2.600   6.035   2.643  0.8197  0.5365  0.4034
 3093SOL    MW412140   2.629   5.966   2.598 -0.4514  0.6262 -0.1246
 3094SOL     OW12141   4.353   2.661   3.264  0.4969  0.4744 -0.1384
 3094SOL    HW212142   4.369   2.575   3.303  1.7319  0.1618 -1.2704
 3094SOL    HW312143   4.265   2.684   3.293  0.0266 -1.3036 -0.0476
 3094SOL    MW412144   4.344   2.653   3.273 -0.4297  0.5556 -0.5418
 3095SOL     OW12145   1.153   5.867   4.324 -0.0173  0.0637 -0.1974
 3095SOL    HW212146   1.214   5.888   4.253  0.0174  2.5271  0.4630
 3095SOL    HW312147   1.207   5.821   4.389  0.5840  0.1212 -0.6420
 3095SOL    MW412148   1.168   5.864   4.323  0.1888  0.3658 -0.0820
 3096SOL     OW12149   1.493   0.383   2.242 -0.2998 -0.4452  0.5009
 3096SOL    HW212150   1.548   0.461   2.226  2.0236 -1.7479  1.5989
 3096SOL    HW312151   1.421   0.392   2.180  0.6426  1.8793 -0.3841
 3096SOL    MW412152   1.491   0.395   2.232  0.0016 -0.0675  0.2025
 3097SOL     OW12153   5.437   6.146   0.520 -0.3291  0.4991  0.4255
 3097SOL    HW212154   5.342   6.154   0.528 -0.3731  0.7297 -0.2655
 3097SOL    HW312155   5.450   6.093   0.441  0.1240  1.4609 -0.1668
 3097SOL    MW412156   5.426   6.140   0.511  0.2620  0.0827 -0.3612
 3098SOL     OW12157   4.928   5.646   5.301  0.0122 -0.3212  0.5052
 3098SOL    HW212158   4.886   5.570   5.261 -2.4249  0.5258  1.2399
 3098SOL    HW312159   4.910   5.718   5.240  0.8566 -0.0095  0.6068
 3098SOL    MW412160   4.920   5.645   5.288  0.1883  0.4131 -0.1413
 3099SOL     OW12161   5.976   4.721   4.429  0.0360 -1.1344  0.3631
 3099SOL    HW212162   5.905   4.720   4.366  0.2838 -0.0563  0.0336
 3099SOL    HW312163   5.943   4.673   4.504 -0.2329 -2.5222 -0.6129
 3099SOL    MW412164   5.963   4.715   4.431 -0.4065  0.2232 -0.5250
 3100SOL     OW12165   0.184   4.913   5.425 -0.3958 -0.1525 -0.0207
 3100SOL    HW212166   0.163   4.997   5.465 -1.9434 -0.4504 -0.1735
 3100SOL    HW312167   0.109   4.892   5.371 -0.8043 -2.4310  1.3133
 3100SOL    MW412168   0.172   4.921   5.423 -0.5685  0.0671 -0.3986
 3101SOL     OW12169   4.500   1.069   3.141  0.3516 -0.1457  0.4809
 3101SOL    HW212170   4.484   0.979   3.114 -1.8363  0.8488 -1.8814
 3101SOL    HW312171   4.422   1.093   3.191  1.2426  0.2693  1.7341
 3101SOL    MW412172   4.488   1.060   3.144  0.2273  0.0781 -0.6527
 3102SOL     OW12173   3.214   3.950   3.657  0.0070  0.5506  0.1788
 3102SOL    HW212174   3.262   4.011   3.712  1.2516  0.5629 -0.8907
 3102SOL    HW312175   3.141   3.921   3.712  1.3465  0.3608  1.9321
 3102SOL    MW412176   3.210   3.954   3.672 -0.4123  0.2258  0.3324
 3103SOL     OW12177   0.630   1.877   1.818  0.5115  0.5877  0.7429
 3103SOL    HW212178   0.669   1.953   1.860 -0.2837  0.8380  1.0484
 3103SOL    HW312179   0.661   1.880   1.728  0.7112  1.1100  0.8286
 3103SOL    MW412180   0.639   1.887   1.812  0.1490  0.7522  0.1712
 3104SOL     OW12181   5.493   0.345   3.254 -0.0617  0.1295 -0.4654
 3104SOL    HW212182   5.519   0.430   3.219  0.5772  0.1789  0.0952
 3104SOL    HW312183   5.451   0.365   3.338  1.6390 -0.1770  0.5244
 3104SOL    MW412184   5.491   0.359   3.261  0.2937  0.1051  0.0323
 3105SOL     OW12185   1.464   0.899   3.341 -0.2218  0.1763  0.0153
 3105SOL    HW212186   1.522   0.971   3.365 -1.0284  1.2266 -1.0286
 3105SOL    HW312187   1.520   0.839   3.291  0.4073  0.1974  0.6818
 3105SOL    MW412188   1.479   0.901   3.337  0.1175 -0.8510 -0.3912
 3106SOL     OW12189   2.856   3.851   4.211  0.4199 -0.6415  0.0152
 3106SOL    HW212190   2.899   3.924   4.257  1.7440 -1.2057 -0.2688
 3106SOL    HW312191   2.919   3.779   4.217  0.0473 -1.1260 -1.5159
 3106SOL    MW412192   2.870   3.851   4.218  0.1222  0.8098 -0.2009
 3107SOL     OW12193   3.852   0.193   2.559  0.1985 -0.3685  0.5300
 3107SOL    HW212194   3.763   0.230   2.557 -0.0417 -0.9736 -0.2684
 3107SOL    HW312195   3.909   0.267   2.543 -0.3297 -0.4693 -2.2104
 3107SOL    MW412196   3.848   0.208   2.557 -0.1900 -0.4808 -0.0028
 3108SOL     OW12197   2.022   4.897   3.731  0.5500  0.2272 -0.2117
 3108SOL    HW212198   1.981   4.814   3.756 -0.1815  0.2061 -1.4349
 3108SOL    HW312199   2.029   4.894   3.636  2.0747  0.8650 -0.1541
 3108SOL    MW412200   2.017   4.886   3.722  0.7462  0.2388  0.2891
 3109SOL     OW12201   3.639   5.358   1.187  0.6161 -0.2220 -0.9511
 3109SOL    HW212202   3.544   5.366   1.181  0.7354  1.1881 -1.4629
 3109SOL    HW312203   3.662   5.292   1.122 -0.1155 -1.6959  0.2150
 3109SOL    MW412204   3.629   5.351   1.178 -0.2759 -0.0345  0.2624
 3110SOL     OW12205   5.775   2.703   3.804 -0.1774 -0.3426 -0.6623
 3110SOL    HW212206   5.737   2.780   3.847 -0.6367 -0.6079 -0.5901
 3110SOL    HW312207   5.703   2.669   3.750  0.5427  0.3315 -2.1189
 3110SOL    MW412208   5.760   2.709   3.803 -0.1634 -0.0507 -1.0862
 3111SOL     OW12209   1.159   3.987   4.872  0.3528  0.5658  0.3865
 3111SOL    HW212210   1.191   4.043   4.943 -2.0297  0.4310  1.6835
 3111SOL    HW312211   1.065   4.003   4.870 -0.0383 -1.5208 -0.8969
 3111SOL    MW412212   1.151   3.996   4.881 -0.2413 -0.5083 -0.1609
 3112SOL     OW12213   6.305   5.182   3.723 -0.2877 -0.4560 -0.3906
 3112SOL    HW212214   6.292   5.091   3.747  0.1314 -0.4245 -0.0297
 3112SOL    HW312215   6.376   5.212   3.781 -0.3047  0.0444 -0.6262
 3112SOL    MW412216   6.313   5.174   3.734 -0.1592  0.3335 -0.8395
 3113SOL     OW12217   3.894   2.565   0.748 -0.3271  0.5686 -0.2056
 3113SOL    HW212218   3.862   2.482   0.715  1.9650  0.0974 -1.4208
 3113SOL    HW312219   3.925   2.612   0.671  2.0453  0.8624  0.8359
 3113SOL    MW412220   3.894   2.561   0.734  0.5101 -1.0039 -0.1836
 3114SOL     OW12221   2.131   6.107   0.953  0.0859 -0.1742 -0.3741
 3114SOL    HW212222   2.137   6.102   1.048  1.6201  0.9553 -0.3734
 3114SOL    HW312223   2.222   6.102   0.923 -0.1592  1.8829 -1.6176
 3114SOL    MW412224   2.144   6.105   0.962 -0.9302 -0.1328  0.3887
 3115SOL     OW12225   1.549   2.188   2.014 -0.6424 -0.8231  0.3977
 3115SOL    HW212226   1.625   2.205   2.069 -1.1241 -1.4590  1.2754
 3115SOL    HW312227   1.515   2.104   2.045 -1.5466 -0.6757 -0.1640
 3115SOL    MW412228   1.555   2.179   2.025 -0.0938  0.0920 -0.1609
 3116SOL     OW12229   1.137   0.613   2.590 -0.2681  0.3570 -0.1214
 3116SOL    HW212230   1.224   0.643   2.564  1.0109 -2.0792  0.9994
 3116SOL    HW312231   1.098   0.578   2.509  0.3593  0.2223 -0.3669
 3116SOL    MW412232   1.143   0.612   2.576  0.3727  0.3532  0.0826
 3117SOL     OW12233   0.161   0.074   6.258 -0.4635  0.1642  0.3156
 3117SOL    HW212234   0.175   0.091   6.165 -0.6985  2.1389  0.5870
 3117SOL    HW312235   0.221   0.002   6.278  0.6693  0.6641 -1.0628
 3117SOL    MW412236   0.171   0.067   6.248  0.6995  0.1478  0.1702
 3118SOL     OW12237   4.475   0.023   1.457  0.3454 -0.0724  0.0933
 3118SOL    HW212238   4.521  -0.018   1.531 -0.3747 -0.4700  0.3266
 3118SOL    HW312239   4.537   0.016   1.384  0.4609 -1.0589  0.2709
 3118SOL    MW412240   4.489   0.017   1.457  0.4799 -0.3076  0.0243
 3119SOL     OW12241   1.774   4.473   0.213 -0.0258  0.1678  0.0085
 3119SOL    HW212242   1.766   4.568   0.221  0.7126  0.4269 -1.8109
 3119SOL    HW312243   1.697   4.438   0.258 -2.0705  1.7690 -1.9950
 3119SOL    MW412244   1.763   4.481   0.220  0.0653 -0.2280 -0.0633
 3120SOL     OW12245   5.941   5.858   2.180  0.0980 -0.3101  0.2631
 3120SOL    HW212246   5.903   5.809   2.107 -0.1839 -1.2949  1.0405
 3120SOL    HW312247   5.986   5.932   2.139 -2.2287  0.6508 -0.7205
 3120SOL    MW412248   5.942   5.861   2.165  0.3479 -0.8568  0.4833
 3121SOL     OW12249   4.913   0.990   4.530 -0.1217 -0.7535 -0.3120
 3121SOL    HW212250   4.916   0.949   4.444 -1.3923 -0.4133 -0.5530
 3121SOL    HW312251   4.820   1.010   4.543  0.2220  0.3839  0.5706
 3121SOL    MW412252   4.901   0.987   4.520 -0.6214  0.1200 -0.7171
 3122SOL     OW12253   5.145   0.772   0.782 -0.5380 -0.3723  0.6243
 3122SOL    HW212254   5.058   0.811   0.782  0.1161  1.2257  2.7565
 3122SOL    HW312255   5.152   0.727   0.866  1.2721  0.9892  1.2606
 3122SOL    MW412256   5.134   0.771   0.793 -0.5522  0.0027 -0.3540
 3123SOL     OW12257   2.678   1.058   6.343  0.3343 -0.1448  0.0723
 3123SOL    HW212258   2.623   1.018   6.276  2.4037 -1.6445 -0.8529
 3123SOL    HW312259   2.661   1.007   6.422  0.3222 -0.5467 -0.1866
 3123SOL    MW412260   2.669   1.046   6.345  0.3490  0.2383  0.2561
 3124SOL     OW12261   2.325   2.149   4.754 -0.6395 -0.0057 -0.2125
 3124SOL    HW212262   2.309   2.147   4.659  0.1583  1.0480 -0.3844
 3124SOL    HW312263   2.306   2.060   4.783 -1.9777 -0.0749 -1.1749
 3124SOL    MW412264   2.320   2.137   4.745  0.9083 -0.1811  0.0147
 3125SOL     OW12265   2.290   0.254   3.116  0.4111  0.0577  0.1018
 3125SOL    HW212266   2.196   0.234   3.119  0.4014  0.1438  0.5413
 3125SOL    HW312267   2.326   0.193   3.052  0.1931 -0.5548  0.5509
 3125SOL    MW412268   2.282   0.244   3.108  0.3316  0.3076  0.5465
 3126SOL     OW12269   0.204   2.356   4.705 -0.0966 -0.3366 -0.3904
 3126SOL    HW212270   0.218   2.396   4.791 -0.1045 -0.0862 -0.5057
 3126SOL    HW312271   0.143   2.415   4.660  2.6875  1.5940 -1.9686
 3126SOL    MW412272   0.198   2.369   4.710  0.1892  0.0265 -0.1735
 3127SOL     OW12273   5.352   1.374   4.119  0.0405 -0.2963 -0.7285
 3127SOL    HW212274   5.391   1.384   4.206 -0.4446  0.2584 -0.5620
 3127SOL    HW312275   5.343   1.280   4.107  1.4227 -0.4341 -0.7800
 3127SOL    MW412276   5.356   1.363   4.129  0.2166  0.1336 -0.2397
 3128SOL     OW12277   5.903   4.124   6.362 -0.1266 -0.5006  0.0273
 3128SOL    HW212278   5.941   4.088   6.442  1.4054 -1.5361 -1.0834
 3128SOL    HW312279   5.853   4.200   6.390  2.1976  0.5259  1.7403
 3128SOL    MW412280   5.902   4.129   6.376 -0.2216  0.6369  0.1341
 3129SOL     OW12281   1.158   5.083   1.938 -0.3493 -0.2670  0.1904
 3129SOL    HW212282   1.076   5.065   1.984 -0.2739 -0.0884  0.4024
 3129SOL    HW312283   1.226   5.070   2.005 -0.2803  0.5648  0.2916
 3129SOL    MW412284   1.156   5.079   1.953 -1.1756  0.3944 -0.2187
 3130SOL     OW12285   3.067   5.308   2.710 -0.0543  0.6653  0.3731
 3130SOL    HW212286   3.001   5.371   2.738 -2.1072 -1.2141  0.0149
 3130SOL    HW312287   3.088   5.259   2.789 -0.4694  0.0698  0.1198
 3130SOL    MW412288   3.061   5.310   2.724 -0.3781  0.1196  0.4871
 3131SOL     OW12289   2.726   6.226   5.884 -0.1330  0.5522 -0.2554
 3131SOL    HW212290   2.740   6.149   5.828 -0.2246  1.0850 -1.0227
 3131SOL    HW312291   2.811   6.240   5.927 -0.5168 -0.8579  1.0414
 3131SOL    MW412292   2.739   6.218   5.883 -0.3625 -0.5566  0.1629
 3132SOL     OW12293   0.490   5.469   4.305 -0.3573 -0.4446  0.2191
 3132SOL    HW212294   0.446   5.552   4.325 -0.6864 -0.0994 -1.6930
 3132SOL    HW312295   0.421   5.404   4.309 -0.4706 -0.3411 -0.0521
 3132SOL    MW412296   0.475   5.472   4.308 -0.0717 -1.1402 -0.0239
 3133SOL     OW12297   5.699   2.806   4.706 -0.0503  0.4249  0.2483
 3133SOL    HW212298   5.703   2.901   4.715  0.1609  0.3083  1.4431
 3133SOL    HW312299   5.788   2.776   4.724 -0.2499 -0.0496  0.4539
 3133SOL    MW412300   5.711   2.814   4.709  0.5252 -0.8258  0.3446
 3134SOL     OW12301   1.396   0.658   5.950 -0.1297 -0.3582 -0.4274
 3134SOL    HW212302   1.417   0.622   6.036 -0.5042 -0.3210 -0.3213
 3134SOL    HW312303   1.304   0.682   5.955 -0.2738 -0.7828 -0.9900
 3134SOL    MW412304   1.387   0.656   5.962 -0.7500 -0.3814 -0.1374
 3135SOL     OW12305   3.863   5.874   0.729  0.6420  0.6162  0.4082
 3135SOL    HW212306   3.866   5.779   0.736  1.7439  0.6976  1.2523
 3135SOL    HW312307   3.850   5.891   0.635 -2.3736 -0.3694  0.5318
 3135SOL    MW412308   3.862   5.864   0.717 -0.6034 -0.1364  0.5940
 3136SOL     OW12309   4.010   0.380   1.109  0.2279  0.0020 -0.1083
 3136SOL    HW212310   4.068   0.450   1.141  0.1637  0.3861 -0.8046
 3136SOL    HW312311   4.068   0.306   1.094  0.5932  0.4547 -1.0136
 3136SOL    MW412312   4.025   0.380   1.111  0.2095 -0.6469 -0.4613
 3137SOL     OW12313   5.327   5.510   1.283  0.1650  0.3046  0.1041
 3137SOL    HW212314   5.399   5.471   1.234 -0.5846 -0.5898 -0.3152
 3137SOL    HW312315   5.255   5.517   1.220 -0.0113  1.5624  0.4019
 3137SOL    MW412316   5.327   5.506   1.268  0.3649  0.4284 -0.1420
 3138SOL     OW12317   1.602   6.232   4.842 -0.3274 -0.1968 -0.2714
 3138SOL    HW212318   1.651   6.172   4.897  0.7798  1.0669  0.1812
 3138SOL    HW312319   1.511   6.204   4.851  0.0886 -1.4090  0.3977
 3138SOL    MW412320   1.596   6.220   4.851 -0.1328 -0.0598  0.0255
 3139SOL     OW12321   6.151   5.835   3.544 -1.2481  0.4944 -0.5873
 3139SOL    HW212322   6.083   5.812   3.607 -0.9782 -0.8401 -0.7649
 3139SOL    HW312323   6.227   5.783   3.570  0.2948  3.0997  0.5901
 3139SOL    MW412324   6.152   5.825   3.556 -0.8311 -0.1558 -0.4017
 3140SOL     OW12325   0.584   0.618   2.740 -0.0107 -0.0215  0.7073
 3140SOL    HW212326   0.562   0.710   2.723  0.2986 -0.0076  0.3693
 3140SOL    HW312327   0.680   0.618   2.746 -0.0425 -0.2323  1.2423
 3140SOL    MW412328   0.594   0.630   2.738  0.0644  0.9051 -0.2258
 3141SOL     OW12329   5.541   2.714   0.590  0.0195 -0.7589 -0.4066
 3141SOL    HW212330   5.556   2.668   0.508  0.1459  0.3356 -1.0222
 3141SOL    HW312331   5.531   2.806   0.564  2.3346 -0.0250  1.0091
 3141SOL    MW412332   5.542   2.720   0.576 -0.2616 -0.2753  0.1119
 3142SOL     OW12333   0.934   0.558   4.356  0.2962  0.5559 -0.0158
 3142SOL    HW212334   0.875   0.627   4.326 -0.4639  0.2610  0.7546
 3142SOL    HW312335   0.962   0.514   4.276 -1.1880  0.1733 -0.3478
 3142SOL    MW412336   0.930   0.562   4.342 -0.0068 -0.2021 -0.3786
 3143SOL     OW12337   1.722   1.929   2.115  0.2840 -0.0222 -0.3217
 3143SOL    HW212338   1.643   1.925   2.168  0.0309 -1.0062 -0.7484
 3143SOL    HW312339   1.764   2.011   2.140 -0.8718  0.5185 -0.0906
 3143SOL    MW412340   1.717   1.940   2.125 -0.7162 -0.1171 -0.0766
 3144SOL     OW12341   0.825   3.962   0.842 -0.3400 -0.0957 -0.2934
 3144SOL    HW212342   0.733   3.937   0.855 -1.3713  2.8794 -1.0596
 3144SOL    HW312343   0.832   3.980   0.749  0.3292  1.9451  0.0983
 3144SOL    MW412344   0.814   3.961   0.832 -0.3443 -0.4746 -0.7024
 3145SOL     OW12345   2.991   0.323   3.379  0.0030  0.0303 -0.3882
 3145SOL    HW212346   3.042   0.249   3.347 -0.5884  0.0398 -1.4015
 3145SOL    HW312347   2.952   0.361   3.300 -1.0475  0.4061  0.2883
 3145SOL    MW412348   2.993   0.318   3.365 -0.3109  0.4588  0.1428
 3146SOL     OW12349   3.081   1.106   4.517 -0.2493  0.0955 -0.4535
 3146SOL    HW212350   3.016   1.122   4.449  0.9395  2.3853 -1.1658
 3146SOL    HW312351   3.032   1.063   4.587 -1.9006 -0.7063 -2.0015
 3146SOL    MW412352   3.066   1.102   4.517  0.1164  0.2622 -0.4607
 3147SOL     OW12353   3.689   5.141   3.080 -0.6247  0.1007  0.1253
 3147SOL    HW212354   3.655   5.090   3.154 -1.4307  1.4228  0.7012
 3147SOL    HW312355   3.782   5.153   3.099 -0.8186  0.3933  0.8984
 3147SOL    MW412356   3.697   5.136   3.092  0.5603  0.1186 -0.2641
 3148SOL     OW12357   1.887   2.759   6.249  0.3264  0.3892  0.4586
 3148SOL    HW212358   1.962   2.753   6.190  0.7401  0.8764  0.9199
 3148SOL    HW312359   1.916   2.715   6.329  0.2554  0.9005  0.7686
 3148SOL    MW412360   1.901   2.752   6.252  0.1208  0.0685  0.7079
 3149SOL     OW12361   2.503   2.269   3.916  0.9511 -0.0435  0.4164
 3149SOL    HW212362   2.443   2.289   3.844  0.0213  0.1128  1.2044
 3149SOL    HW312363   2.499   2.347   3.972  2.1631  0.1047  0.3230
 3149SOL    MW412364   2.495   2.282   3.914  0.8139 -0.9659 -0.1658
 3150SOL     OW12365   4.211   0.194   1.103 -0.1019 -0.2569 -0.1580
 3150SOL    HW212366   4.247   0.175   1.190  1.2809 -0.8000 -0.8177
 3150SOL    HW312367   4.167   0.113   1.077 -0.0889 -0.2573 -0.1782
 3150SOL    MW412368   4.210   0.181   1.111  0.2332  0.1686 -0.5424
 3151SOL     OW12369   2.237   0.375   2.879 -0.3370 -0.1968  0.5714
 3151SOL    HW212370   2.241   0.339   2.967  0.4120 -0.2727  0.5132
 3151SOL    HW312371   2.205   0.303   2.825  1.7072 -0.9952  0.3603
 3151SOL    MW412372   2.233   0.361   2.883  0.6016 -0.4407  0.1590
 3152SOL     OW12373   2.587   0.834   2.877 -0.2944 -0.0093 -0.0360
 3152SOL    HW212374   2.586   0.914   2.929 -0.3741 -0.5660  0.8469
 3152SOL    HW312375   2.503   0.835   2.830 -1.0494 -0.3959  1.2760
 3152SOL    MW412376   2.575   0.845   2.877  0.6694  0.1919  0.4929
 3153SOL     OW12377   0.330   1.619   1.091  0.1725 -0.0241  0.1143
 3153SOL    HW212378   0.348   1.646   1.181  1.7379  0.5470 -0.3195
 3153SOL    HW312379   0.406   1.650   1.042 -2.0425  2.6097 -1.9966
 3153SOL    MW412380   0.343   1.627   1.096  0.0198 -0.0959  0.0453
 3154SOL     OW12381   4.983   4.725   4.160  0.2306 -0.0193  0.2380
 3154SOL    HW212382   5.018   4.679   4.235  1.4938  0.4429 -0.0405
 3154SOL    HW312383   4.949   4.656   4.103 -1.1589 -0.3450  1.3984
 3154SOL    MW412384   4.983   4.710   4.162 -0.7853 -0.2555  0.2208
 3155SOL     OW12385   3.935   4.725   5.295  0.0958 -0.3384  0.1912
 3155SOL    HW212386   3.966   4.799   5.347  0.0222  0.6510 -1.1230
 3155SOL    HW312387   3.914   4.762   5.209  0.5258 -1.9645 -0.6685
 3155SOL    MW412388   3.936   4.740   5.290 -0.4659  0.4338  0.3141
 3156SOL     OW12389   6.277   3.803   4.332  0.0224  0.1915 -0.4604
 3156SOL    HW212390   6.295   3.757   4.250 -1.0211  2.3410 -2.0099
 3156SOL    HW312391   6.351   3.781   4.389 -0.4838 -3.4317 -0.9467
 3156SOL    MW412392   6.289   3.794   4.329 -0.4541  0.4073 -0.9332
 3157SOL     OW12393   1.818   5.979   4.264 -0.1489  0.3009 -0.2404
 3157SOL    HW212394   1.837   5.888   4.287  0.3580  0.5515  0.3625
 3157SOL    HW312395   1.756   5.973   4.192 -1.3739 -0.5257  0.8275
 3157SOL    MW412396   1.812   5.966   4.258  0.2815  0.1872  0.0107
 3158SOL     OW12397   3.706   5.782   0.985 -0.7014  0.1113  0.4396
 3158SOL    HW212398   3.763   5.843   0.938 -2.6371  2.6912  1.2640
 3158SOL    HW312399   3.747   5.772   1.071 -0.3825  0.2172  0.3024
 3158SOL    MW412400   3.719   5.788   0.990  0.1432 -0.2714  0.5142
 3159SOL     OW12401   0.885   3.876   3.672 -0.3951 -0.5291  0.6908
 3159SOL    HW212402   0.980   3.884   3.658 -0.0482 -2.5085  1.4767
 3159SOL    HW312403   0.878   3.819   3.749 -2.2207 -1.5204 -0.1630
 3159SOL    MW412404   0.897   3.869   3.680 -0.3316 -0.0636 -0.2065
 3160SOL     OW12405   5.195   1.352   4.681  0.7542 -0.3655  0.2252
 3160SOL    HW212406   5.191   1.448   4.677  0.6751 -0.3718  0.1260
 3160SOL    HW312407   5.190   1.331   4.774 -0.5469 -0.3247  0.1849
 3160SOL    MW412408   5.194   1.362   4.692 -0.0756 -0.3182  0.3349
 3161SOL     OW12409   1.999   0.420   3.290 -0.1152  0.2572  0.3191
 3161SOL    HW212410   1.927   0.402   3.349 -0.3875 -0.5887 -0.2515
 3161SOL    HW312411   1.963   0.480   3.225  0.2076  1.2533  1.0393
 3161SOL    MW412412   1.985   0.426   3.289  0.3858  0.0600 -0.0104
 3162SOL     OW12413   4.921   5.307   4.653 -0.0738  0.4202 -0.0375
 3162SOL    HW212414   4.982   5.344   4.717 -0.9500  0.7392  0.6147
 3162SOL    HW312415   4.860   5.377   4.634 -0.6478 -0.1136 -0.1801
 3162SOL    MW412416   4.921   5.321   4.659  0.1662 -0.3428 -0.2891
 3163SOL     OW12417   2.609   0.285   2.623  0.4480 -0.4653  0.6187
 3163SOL    HW212418   2.568   0.320   2.703 -0.4005 -1.7307  0.7614
 3163SOL    HW312419   2.649   0.362   2.581 -1.1910  0.6491  1.0086
 3163SOL    MW412420   2.609   0.300   2.628  0.0338  0.1814 -0.7166
 3164SOL     OW12421   3.469   1.781   4.932  0.6338  0.1594 -0.3970
 3164SOL    HW212422   3.528   1.815   5.000  2.3808 -1.7922 -0.8244
 3164SOL    HW312423   3.394   1.841   4.933  1.6356  1.5041  1.6683
 3164SOL    MW412424   3.467   1.794   4.941 -0.3476 -0.2641 -0.3586
 3165SOL     OW12425   6.144   5.534   6.247  0.1217  0.2156  0.4507
 3165SOL    HW212426   6.078   5.563   6.184 -0.0268  0.8926  0.9132
 3165SOL    HW312427   6.093   5.500   6.321  0.2985  0.2403  0.5831
 3165SOL    MW412428   6.129   5.533   6.248  0.0966 -0.2239 -0.8933
 3166SOL     OW12429   3.934   5.738   1.812  0.3258  0.1477  0.1547
 3166SOL    HW212430   4.000   5.722   1.879 -0.0521 -0.6558  0.3518
 3166SOL    HW312431   3.981   5.729   1.729  0.4822 -0.3611  0.2942
 3166SOL    MW412432   3.949   5.735   1.810  0.0142 -0.2965  0.4442
 3167SOL     OW12433   0.363   6.003   1.460  0.4463 -0.3524 -0.1856
 3167SOL    HW212434   0.271   6.008   1.434  0.0111 -2.9842  0.5499
 3167SOL    HW312435   0.378   6.082   1.512 -1.8572 -0.6070  1.0105
 3167SOL    MW412436   0.353   6.014   1.463 -0.3108  0.5728 -0.2977
 3168SOL     OW12437   3.948   4.835   3.555 -0.0266  0.0308 -0.0908
 3168SOL    HW212438   3.900   4.897   3.610  0.2605  1.3050 -1.2204
 3168SOL    HW312439   3.893   4.824   3.478  1.5126  1.6936 -1.5181
 3168SOL    MW412440   3.934   4.841   3.552 -0.0897  0.8941  0.1137
 3169SOL     OW12441   1.524   6.362   6.425 -0.1762 -0.1200 -0.5714
 3169SOL    HW212442   1.459   6.412   6.375 -0.2444 -0.0815 -0.4451
 3169SOL    HW312443   1.520   6.399   6.513 -1.7330 -1.7039  0.0995
 3169SOL    MW412444   1.515   6.373   6.430  0.0933 -0.2606  0.4164
 3170SOL     OW12445   5.115   2.947   4.472 -1.0017 -0.6988 -0.2248
 3170SOL    HW212446   5.178   3.018   4.476 -2.1073  0.4291 -1.4782
 3170SOL    HW312447   5.164   2.869   4.496  0.2173  0.4924  1.3090
 3170SOL    MW412448   5.130   2.946   4.476 -0.2599 -0.1228  0.1589
 3171SOL     OW12449   3.679   2.008   3.841  0.3487 -0.0544 -0.7103
 3171SOL    HW212450   3.737   1.989   3.915  0.1388 -0.9342 -0.7551
 3171SOL    HW312451   3.591   1.998   3.878  0.1885  1.8532 -0.4891
 3171SOL    MW412452   3.675   2.004   3.856 -0.1556 -0.6098  0.1847
 3172SOL     OW12453   1.901   2.552   5.989 -0.5900  0.0869 -0.3708
 3172SOL    HW212454   1.875   2.640   5.965  1.4676  0.6947 -0.5063
 3172SOL    HW312455   1.989   2.541   5.954 -0.6568 -1.9143 -0.0830
 3172SOL    MW412456   1.909   2.562   5.981 -0.2770 -0.2493 -1.0812
 3173SOL     OW12457   0.624   6.187   3.320  0.7680 -0.4773  0.7672
 3173SOL    HW212458   0.558   6.218   3.382  2.2679  0.0879  2.1673
 3173SOL    HW312459   0.577   6.177   3.238 -1.1003 -0.3299  1.7615
 3173SOL    MW412460   0.609   6.190   3.318 -0.1642 -0.3585  0.5722
 3174SOL     OW12461   3.219   4.747   2.081  0.0237 -0.7070  0.4456
 3174SOL    HW212462   3.286   4.720   2.144  0.2271 -1.2081  0.0257
 3174SOL    HW312463   3.158   4.673   2.078 -1.3450  0.2880  1.8563
 3174SOL    MW412464   3.220   4.734   2.089 -0.4223 -0.3987  0.4279
 3175SOL     OW12465   3.232   0.376   1.386  0.3682  0.1780 -0.2655
 3175SOL    HW212466   3.269   0.296   1.349  0.7638  1.0259 -1.7852
 3175SOL    HW312467   3.150   0.347   1.427  1.1998 -1.2187  0.4643
 3175SOL    MW412468   3.226   0.361   1.386 -0.2122  0.0562  0.0044
 3176SOL     OW12469   5.633   1.793   5.073  0.0832  0.2180  0.0863
 3176SOL    HW212470   5.575   1.737   5.022 -0.0703 -0.4508  0.9822
 3176SOL    HW312471   5.721   1.774   5.039  0.1739 -1.5122  1.2333
 3176SOL    MW412472   5.637   1.783   5.062  0.3877  0.3550 -0.2222
 3177SOL     OW12473   1.310   1.092   2.527  0.3484 -0.0093  0.4171
 3177SOL    HW212474   1.386   1.124   2.576  0.6638 -0.5073  0.2553
 3177SOL    HW312475   1.235   1.128   2.574  0.6504 -0.3401  1.1752
 3177SOL    MW412476   1.310   1.101   2.540 -0.1478  0.8415 -0.0884
 3178SOL     OW12477   0.163   4.956   4.894  0.0764 -0.3841  0.3066
 3178SOL    HW212478   0.127   4.918   4.814  0.0033 -1.4623  0.8470
 3178SOL    HW312479   0.200   4.882   4.942  1.5981  0.4672  0.5130
 3178SOL    MW412480   0.163   4.942   4.890 -0.0211 -0.2640 -0.3787
 3179SOL     OW12481   5.657   3.880   4.431  0.0496 -0.1615 -0.5304
 3179SOL    HW212482   5.713   3.926   4.494 -0.4974 -0.3677  0.1181
 3179SOL    HW312483   5.695   3.901   4.346  1.3979 -0.6680 -0.0893
 3179SOL    MW412484   5.669   3.889   4.428 -0.1028 -0.1243  0.2191
 3180SOL     OW12485   5.522   5.456   1.577  0.6631 -0.0021 -0.2179
 3180SOL    HW212486   5.585   5.496   1.638 -0.3683  0.5932  0.4765
 3180SOL    HW312487   5.468   5.399   1.631 -1.2870  1.7180 -0.2235
 3180SOL    MW412488   5.523   5.454   1.592  0.1628  0.4894  0.0688
 3181SOL     OW12489   5.282   1.450   2.106 -0.1375  0.0169 -0.2118
 3181SOL    HW212490   5.196   1.406   2.104 -0.6771  1.0255 -2.1663
 3181SOL    HW312491   5.330   1.406   2.176 -2.1568 -0.7529  0.7666
 3181SOL    MW412492   5.277   1.438   2.115  0.4143 -0.6147 -0.0079
 3182SOL     OW12493   6.329   0.888   0.350 -0.3837  0.7789  0.8929
 3182SOL    HW212494   6.249   0.840   0.328  0.1433  0.0739  0.4685
 3182SOL    HW312495   6.341   0.948   0.277  0.1443  0.0090  0.3336
 3182SOL    MW412496   6.320   0.890   0.337 -0.4187  0.0468  0.6854
 3183SOL     OW12497   4.454   1.928   4.084  0.0572  0.0264 -0.6813
 3183SOL    HW212498   4.527   1.926   4.146 -0.1214  0.0434 -0.4682
 3183SOL    HW312499   4.383   1.883   4.130  0.5187 -1.8340 -1.6531
 3183SOL    MW412500   4.454   1.922   4.098  0.2517  0.1930 -0.7026
 3184SOL     OW12501   4.614   2.109   3.546  0.3996 -0.1120 -0.0568
 3184SOL    HW212502   4.592   2.018   3.568  1.7211 -0.8813 -1.6383
 3184SOL    HW312503   4.693   2.128   3.595  0.2941  0.0805  0.0406
 3184SOL    MW412504   4.621   2.099   3.555  0.2823 -0.0416 -0.3128
 3185SOL     OW12505   3.083   4.508   2.036 -0.1228 -0.2505  0.4466
 3185SOL    HW212506   3.091   4.541   1.947 -0.7935 -0.6329  0.2331
 3185SOL    HW312507   2.993   4.530   2.061 -0.6480 -2.0087  0.2422
 3185SOL    MW412508   3.072   4.515   2.028  0.1572 -0.0246  0.2561
 3186SOL     OW12509   5.134   5.758   6.183  0.2714  0.4338 -0.0973
 3186SOL    HW212510   5.068   5.758   6.252  0.6851 -0.8070  0.3282
 3186SOL    HW312511   5.152   5.850   6.166 -0.7805  0.7674  0.5326
 3186SOL    MW412512   5.127   5.770   6.190  0.4309  0.3663  0.5224
 3187SOL     OW12513   1.566   4.685   3.124 -0.1252  0.0265 -0.4039
 3187SOL    HW212514   1.473   4.712   3.122 -0.5642 -1.4853 -1.6026
 3187SOL    HW312515   1.612   4.763   3.156 -1.7060  1.0973 -0.6116
 3187SOL    MW412516   1.559   4.699   3.128 -0.2597  0.1042  0.2835
 3188SOL     OW12517   6.032   2.517   0.800  0.2153  0.0009 -0.4228
 3188SOL    HW212518   6.122   2.493   0.779 -0.1007 -1.0445 -0.6467
 3188SOL    HW312519   5.983   2.499   0.720 -0.5425 -1.4639  0.3291
 3188SOL    MW412520   6.037   2.512   0.787 -0.1127  0.0151 -0.1182
 3189SOL     OW12521   0.006   6.192   2.419 -0.6798  0.0198  0.8647
 3189SOL    HW212522  -0.038   6.124   2.469 -1.0792  0.2890  0.8832
 3189SOL    HW312523  -0.054   6.267   2.421  0.3149  0.8383  1.9934
 3189SOL    MW412524  -0.007   6.193   2.426 -0.9476 -0.2004  0.2319
 3190SOL     OW12525   1.527   4.312   1.937 -0.1926  0.0567  0.1069
 3190SOL    HW212526   1.480   4.384   1.895  1.6920  0.3543 -1.6253
 3190SOL    HW312527   1.547   4.251   1.867  3.0813  0.5728  0.4117
 3190SOL    MW412528   1.524   4.314   1.922 -0.5842 -0.2508 -0.5819
 3191SOL     OW12529   4.346   5.904   2.427 -0.3041  0.2635  0.1030
 3191SOL    HW212530   4.385   5.971   2.371 -0.5896 -0.5074 -1.0756
 3191SOL    HW312531   4.368   5.930   2.516  1.9982  0.4115 -0.4607
 3191SOL    MW412532   4.354   5.916   2.431  0.4885  0.2963  0.1617
 3192SOL     OW12533   1.504   5.894   4.513  0.4249  0.1809 -0.3666
 3192SOL    HW212534   1.588   5.939   4.524 -0.1632  1.3376 -0.4633
 3192SOL    HW312535   1.527   5.801   4.513  1.8812  0.4812 -1.8005
 3192SOL    MW412536   1.518   5.888   4.514 -0.1106  0.2077  0.2769
 3193SOL     OW12537   2.030   4.027   0.538  1.0305  0.5386 -0.3810
 3193SOL    HW212538   2.047   3.977   0.617 -0.0346 -1.2314 -1.2175
 3193SOL    HW312539   1.937   4.049   0.543  0.7034 -0.4504 -1.5626
 3193SOL    MW412540   2.020   4.023   0.549  0.4789 -0.1401  0.1071
 3194SOL     OW12541   0.377   5.821   4.644 -0.4956  0.0114 -0.2672
 3194SOL    HW212542   0.425   5.741   4.663  2.6754  1.8826  0.4499
 3194SOL    HW312543   0.298   5.815   4.698  0.2119 -2.0815  0.6378
 3194SOL    MW412544   0.373   5.810   4.654 -0.1587 -0.3808  0.2258
 3195SOL     OW12545   2.772   1.724   0.882 -0.4487  0.5590  0.5059
 3195SOL    HW212546   2.722   1.673   0.946  1.3764  1.0009  2.3934
 3195SOL    HW312547   2.793   1.805   0.928 -0.8098  1.7961 -1.4167
 3195SOL    MW412548   2.768   1.728   0.897  0.1538 -0.1788 -0.1773
 3196SOL     OW12549   5.959   0.964   4.547 -0.9870 -0.3419  0.3839
 3196SOL    HW212550   5.958   1.035   4.483 -0.9661 -0.1923  0.5481
 3196SOL    HW312551   5.975   1.007   4.631 -1.1913 -0.5159  0.5144
 3196SOL    MW412552   5.961   0.979   4.550 -0.2378  0.1610 -0.0530
 3197SOL     OW12553   5.936   3.832   4.009  0.2514  0.3927 -0.2675
 3197SOL    HW212554   5.929   3.757   4.068  0.8919 -1.0019 -1.8600
 3197SOL    HW312555   6.016   3.876   4.036  0.0772  0.2844  0.4499
 3197SOL    MW412556   5.945   3.828   4.020 -0.7107  1.0082  0.0850
 3198SOL     OW12557   2.041   1.281   2.509  0.1185 -0.0959 -0.4395
 3198SOL    HW212558   2.077   1.277   2.421 -3.2071  0.9210 -2.0216
 3198SOL    HW312559   2.041   1.190   2.539  0.8367 -0.5171 -1.6692
 3198SOL    MW412560   2.046   1.268   2.501  0.0823  0.3369 -0.1059
 3199SOL     OW12561   6.416   3.064   3.500 -0.4261 -0.4847  0.5205
 3199SOL    HW212562   6.381   3.132   3.442  0.0715  0.6629  1.5185
 3199SOL    HW312563   6.367   2.985   3.476  0.8300 -0.4909 -2.5384
 3199SOL    MW412564   6.405   3.062   3.489 -0.2803  0.0196 -0.4517
 3200SOL     OW12565   2.532   2.805   0.492 -0.0235  0.1732 -0.1209
 3200SOL    HW212566   2.590   2.729   0.486  1.7763  1.3055  1.8336
 3200SOL    HW312567   2.570   2.859   0.561 -1.6723  2.5120 -0.9272
 3200SOL    MW412568   2.545   2.802   0.500  0.3544  0.4165 -0.0580
 3201SOL     OW12569   2.480   5.824   2.857 -0.1761 -0.1839  0.2308
 3201SOL    HW212570   2.400   5.845   2.905 -0.8053  0.9332 -1.2400
 3201SOL    HW312571   2.451   5.815   2.766  1.1359 -1.2871 -0.1025
 3201SOL    MW412572   2.465   5.825   2.851  0.1455 -0.2008 -0.4175
 3202SOL     OW12573   0.044   5.995   0.823 -0.1961 -0.2067 -0.3574
 3202SOL    HW212574   0.039   6.076   0.772  0.6767 -0.3511 -0.6945
 3202SOL    HW312575   0.107   6.015   0.893 -0.7232 -0.2870  0.1468
 3202SOL    MW412576   0.052   6.009   0.826  0.6100  0.1022 -0.4012
 3203SOL     OW12577   6.239   6.093   0.988  0.1576  0.0203  0.2563
 3203SOL    HW212578   6.321   6.062   0.950  0.0557 -0.9284  0.7747
 3203SOL    HW312579   6.170   6.054   0.933  0.0488  0.6902 -0.0879
 3203SOL    MW412580   6.240   6.084   0.976  0.6776 -0.0391 -0.4049
 3204SOL     OW12581   1.483   3.062   6.057  0.5138  0.0699 -0.1944
 3204SOL    HW212582   1.424   2.988   6.044  1.3878 -0.3835 -1.8953
 3204SOL    HW312583   1.552   3.028   6.114 -0.1901  0.2293  0.7690
 3204SOL    MW412584   1.484   3.048   6.063  0.0677 -0.0975  0.1368
 3205SOL     OW12585   0.388   1.736   5.117  0.0734 -0.0842  0.1735
 3205SOL    HW212586   0.352   1.657   5.158  1.2512 -0.0773  1.3025
 3205SOL    HW312587   0.476   1.744   5.155  0.0802  1.6244 -0.1315
 3205SOL    MW412588   0.395   1.726   5.128 -0.5602  0.1887  0.6568
 3206SOL     OW12589   2.502   3.456   4.317  0.0464  0.0974  0.2792
 3206SOL    HW212590   2.530   3.541   4.284  1.2092 -0.3930 -0.0392
 3206SOL    HW312591   2.583   3.410   4.337 -0.5536 -1.0789  0.1056
 3206SOL    MW412592   2.516   3.461   4.316  0.0029  0.2304  0.3013
 3207SOL     OW12593   2.939   3.881   2.626  0.4721  1.2313 -0.4683
 3207SOL    HW212594   3.024   3.896   2.584  1.4169 -2.5432 -0.2299
 3207SOL    HW312595   2.884   3.844   2.557  0.2903  0.0596  0.2817
 3207SOL    MW412596   2.943   3.878   2.611 -0.0742  0.2103  0.7987
 3208SOL     OW12597   3.339   5.030   1.264  0.1039 -0.3687 -0.4304
 3208SOL    HW212598   3.430   5.029   1.292  0.3025 -1.4916 -1.0421
 3208SOL    HW312599   3.294   5.084   1.328  1.5802  2.1555 -1.3856
 3208SOL    MW412600   3.345   5.037   1.276  0.0850 -0.0746  0.3047
 3209SOL     OW12601   0.375   1.314   2.100  0.2484 -0.2586  0.0754
 3209SOL    HW212602   0.364   1.281   2.011 -0.0626 -0.9567  0.3605
 3209SOL    HW312603   0.466   1.296   2.121  0.1722 -0.6185  0.1016
 3209SOL    MW412604   0.386   1.307   2.091 -0.2175  0.2813 -0.5285
 3210SOL     OW12605   4.412   2.827   0.653 -0.7402  0.3089 -0.0455
 3210SOL    HW212606   4.367   2.839   0.737 -2.8808  1.5252 -1.2701
 3210SOL    HW312607   4.373   2.747   0.616  0.4954 -0.4591  0.2713
 3210SOL    MW412608   4.401   2.818   0.659  0.5758 -0.0527 -0.4514
 3211SOL     OW12609   4.975   3.828   0.006  0.0551 -0.2968 -0.7998
 3211SOL    HW212610   4.986   3.881  -0.073  0.2884  1.0882  0.1256
 3211SOL    HW312611   4.995   3.888   0.078 -0.0870 -1.5432  0.3132
 3211SOL    MW412612   4.979   3.843   0.005 -0.5331  0.0210 -0.1501
 3212SOL     OW12613   4.536   3.269   2.025  0.2130  0.3452  0.3733
 3212SOL    HW212614   4.601   3.331   1.992 -1.6730  1.7162 -0.9766
 3212SOL    HW312615   4.471   3.263   1.955 -2.1107  0.5482  2.3946
 3212SOL    MW412616   4.536   3.276   2.011 -0.0650 -0.5649 -0.3122
 3213SOL     OW12617   2.009   2.971   2.163 -0.4806  0.0323 -0.0556
 3213SOL    HW212618   1.999   3.057   2.123  0.8817  0.2616  0.0434
 3213SOL    HW312619   2.089   2.977   2.214 -2.1532 -0.2509  2.8275
 3213SOL    MW412620   2.018   2.983   2.164 -0.1337 -0.6526  0.4906
 3214SOL     OW12621   1.841   3.491   0.662 -0.3529  0.4129  0.3511
 3214SOL    HW212622   1.818   3.583   0.648 -1.3136  0.1884  0.3664
 3214SOL    HW312623   1.775   3.459   0.723 -0.0697 -0.3063  0.2866
 3214SOL    MW412624   1.829   3.499   0.668  0.2989  0.2507  0.2792
 3215SOL     OW12625   1.658   0.710   5.768 -0.1295  0.0351 -0.0238
 3215SOL    HW212626   1.630   0.751   5.850  2.0467  1.0773  0.2500
 3215SOL    HW312627   1.736   0.758   5.741 -0.2448 -0.8801 -2.2530
 3215SOL    MW412628   1.664   0.721   5.775  0.2378 -0.0313 -0.4690
 3216SOL     OW12629   0.046   2.828   6.139 -0.0529 -0.4692  0.2697
 3216SOL    HW212630   0.102   2.848   6.064 -0.5990 -2.6990 -0.8020
 3216SOL    HW312631  -0.024   2.773   6.103 -0.5422 -1.2794  2.3477
 3216SOL    MW412632   0.044   2.824   6.124  0.2016  0.2223  0.8011
 3217SOL     OW12633   4.749   2.388   5.264  0.4234  0.3990 -0.1057
 3217SOL    HW212634   4.691   2.389   5.188  1.4498 -1.8648 -1.0244
 3217SOL    HW312635   4.837   2.377   5.227  1.6215  4.1940  1.2026
 3217SOL    MW412636   4.753   2.386   5.249  0.1473 -0.0168  0.1882
 3218SOL     OW12637   4.451   5.508   0.927  0.8981 -0.0247 -0.4294
 3218SOL    HW212638   4.508   5.564   0.874  0.3559  0.3133 -0.6734
 3218SOL    HW312639   4.367   5.556   0.929  1.0694  0.2517  1.2182
 3218SOL    MW412640   4.447   5.522   0.920  0.0116  0.3311 -0.2849
 3219SOL     OW12641   5.855   1.976   6.289 -0.5227  0.3710  0.4718
 3219SOL    HW212642   5.907   1.952   6.366  0.1685  0.3720  0.0135
 3219SOL    HW312643   5.778   1.919   6.294  0.0899 -0.4771  0.5205
 3219SOL    MW412644   5.852   1.965   6.300  0.2357 -0.0331 -0.0385
 3220SOL     OW12645   1.819   4.016   3.276  0.1945  0.0691 -0.1858
 3220SOL    HW212646   1.820   3.938   3.221 -0.2357 -0.6697  0.8141
 3220SOL    HW312647   1.844   3.985   3.363  1.5601  1.3297 -0.0948
 3220SOL    MW412648   1.822   4.002   3.280  0.3130 -0.2214 -0.1911
 3221SOL     OW12649   5.095   3.772   5.062  0.0635 -0.5093  0.0519
 3221SOL    HW212650   5.121   3.838   5.126 -0.5883 -1.8225  1.7459
 3221SOL    HW312651   5.076   3.822   4.983 -1.1295  1.4556  1.4804
 3221SOL    MW412652   5.096   3.788   5.060  0.1262  0.3427 -0.0554
 3222SOL     OW12653   0.379   3.149   1.516 -0.2905  0.0943 -0.1796
 3222SOL    HW212654   0.303   3.096   1.493 -0.6055  0.4436  0.0454
 3222SOL    HW312655   0.367   3.169   1.609  1.2173 -1.7064  0.4543
 3222SOL    MW412656   0.367   3.145   1.525 -0.7004 -0.4409 -0.3040
 3223SOL     OW12657   0.630   4.133   5.772  0.1091  0.1936 -0.2385
 3223SOL    HW212658   0.685   4.071   5.725 -1.9970 -0.6272 -1.7327
 3223SOL    HW312659   0.630   4.212   5.717 -0.7508 -0.0627 -0.6187
 3223SOL    MW412660   0.637   4.136   5.759  1.3151  0.2922  0.1842
 3224SOL     OW12661   3.920   5.285   3.208  0.0338 -0.3239 -0.0454
 3224SOL    HW212662   3.971   5.360   3.179  0.1226  0.0809  1.1105
 3224SOL    HW312663   3.978   5.238   3.268 -0.3169 -0.8437 -0.1096
 3224SOL    MW412664   3.934   5.289   3.212 -0.7740  0.5219 -0.1578
 3225SOL     OW12665   2.637   1.767   3.633  0.4267 -0.0130  0.1882
 3225SOL    HW212666   2.651   1.681   3.593 -0.1100 -0.0371  0.0411
 3225SOL    HW312667   2.551   1.795   3.601  0.2141  0.1958  0.9108
 3225SOL    MW412668   2.627   1.759   3.624 -0.4732  0.0419 -0.2816
 3226SOL     OW12669   1.563   3.447   1.521 -0.0169 -0.5779 -0.7657
 3226SOL    HW212670   1.471   3.447   1.548  0.9103 -0.2922  2.9414
 3226SOL    HW312671   1.602   3.374   1.569  2.6385  2.4137  2.1538
 3226SOL    MW412672   1.556   3.437   1.531 -0.0767  0.1813  0.1721
 3227SOL     OW12673   3.142   2.184   5.889 -0.0037  0.3865 -0.7612
 3227SOL    HW212674   3.152   2.146   5.976 -1.6099 -1.0573 -1.1696
 3227SOL    HW312675   3.140   2.279   5.905 -0.0223  0.1629  0.7298
 3227SOL    MW412676   3.143   2.192   5.903 -0.6290  0.0010  0.0822
 3228SOL     OW12677   1.794   3.163   2.070  0.0893 -0.3963  0.2587
 3228SOL    HW212678   1.763   3.222   2.140  1.1068  0.5044 -0.0319
 3228SOL    HW312679   1.714   3.138   2.024 -0.4246  0.3541  0.7111
 3228SOL    MW412680   1.779   3.168   2.074  0.2929 -0.3969  0.0312
 3229SOL     OW12681   5.995   2.273   1.902  0.9902 -0.2106  0.5569
 3229SOL    HW212682   6.043   2.218   1.963 -0.2833 -1.6028  0.3651
 3229SOL    HW312683   5.921   2.306   1.953 -0.9317 -2.5650 -0.4661
 3229SOL    MW412684   5.992   2.270   1.917  0.3596  0.3614 -0.1006
 3230SOL     OW12685   2.354   1.305   6.328 -0.7013 -0.1246  0.4180
 3230SOL    HW212686   2.359   1.217   6.366  2.5726 -0.8193 -1.2106
 3230SOL    HW312687   2.438   1.345   6.349 -0.7169  1.2726 -1.8054
 3230SOL    MW412688   2.366   1.299   6.336  0.0558  0.4518  0.0333
 3231SOL     OW12689   0.758   1.511   6.244 -0.0924  0.2756  0.6820
 3231SOL    HW212690   0.709   1.593   6.248 -0.9945  0.0128 -2.3874
 3231SOL    HW312691   0.693   1.443   6.259 -0.7194 -0.0316 -2.5741
 3231SOL    MW412692   0.743   1.513   6.246 -0.1456  0.3261  0.1874
 3232SOL     OW12693   0.214   5.819   5.327 -0.5407  0.1988 -0.3546
 3232SOL    HW212694   0.200   5.900   5.279  1.8940 -1.0631 -3.5453
 3232SOL    HW312695   0.305   5.826   5.359 -0.7778 -0.7162  0.5882
 3232SOL    MW412696   0.224   5.831   5.325 -0.5808 -0.1711  0.5091
 3233SOL     OW12697   4.382   3.137   4.279  0.3643  0.0224 -0.1799
 3233SOL    HW212698   4.353   3.050   4.252 -0.9759 -0.9085  3.5958
 3233SOL    HW312699   4.345   3.196   4.214  0.4226 -2.0852 -2.2669
 3233SOL    MW412700   4.373   3.133   4.267  0.2048  0.1791  0.3914
 3234SOL     OW12701   6.023   0.931   6.178 -0.1882 -0.9078 -0.1099
 3234SOL    HW212702   6.071   0.900   6.255  1.8801 -0.3559 -1.0910
 3234SOL    HW312703   6.077   1.003   6.144 -1.3539 -0.7426 -1.7242
 3234SOL    MW412704   6.036   0.937   6.184 -0.3132  0.4215 -0.1349
 3235SOL     OW12705   3.500   1.721   5.631  0.2333 -0.4112 -0.2918
 3235SOL    HW212706   3.424   1.678   5.592  1.1697 -1.7941 -0.6807
 3235SOL    HW312707   3.493   1.702   5.725  1.0709 -2.2502 -0.5451
 3235SOL    MW412708   3.489   1.713   5.639 -0.7617 -0.5669 -0.0082
 3236SOL     OW12709   4.190   4.250   4.702 -0.3577  0.0040  0.1321
 3236SOL    HW212710   4.102   4.279   4.727  0.1429  0.9747  0.8334
 3236SOL    HW312711   4.216   4.310   4.632  0.1792  0.4730  0.7136
 3236SOL    MW412712   4.182   4.262   4.696 -0.5626  0.0819 -0.3570
 3237SOL     OW12713   1.657   5.044   3.092 -0.2236 -0.2223 -0.2483
 3237SOL    HW212714   1.689   5.125   3.052  0.2213 -1.6691 -3.0400
 3237SOL    HW312715   1.691   4.974   3.036 -0.5235 -2.3957  2.0953
 3237SOL    MW412716   1.666   5.046   3.079 -0.0782 -0.5162  0.0013
 3238SOL     OW12717   5.293   5.415   2.574 -0.5347  0.2557 -0.7322
 3238SOL    HW212718   5.378   5.373   2.563 -1.1161 -0.9906 -0.6500
 3238SOL    HW312719   5.232   5.358   2.528 -1.3708  0.9951 -0.5674
 3238SOL    MW412720   5.296   5.402   2.567 -0.3839  0.1367  0.0300
 3239SOL     OW12721   4.235   4.179   3.217  0.2381 -0.0243  0.1387
 3239SOL    HW212722   4.252   4.112   3.150  0.0741  1.0694 -1.0191
 3239SOL    HW312723   4.157   4.147   3.264  0.3836 -0.8193 -0.1411
 3239SOL    MW412724   4.227   4.166   3.215 -0.0746  0.4785 -0.2788
 3240SOL     OW12725   0.543   1.351   6.305 -0.2947  0.8600 -0.4096
 3240SOL    HW212726   0.519   1.430   6.354  0.1248  1.4172 -1.0870
 3240SOL    HW312727   0.514   1.369   6.216 -1.1203 -0.1817 -0.3655
 3240SOL    MW412728   0.536   1.364   6.300  0.1979 -0.0319  0.7051
 3241SOL     OW12729   0.117   1.997   2.282  0.0798 -0.6423 -0.7365
 3241SOL    HW212730   0.065   1.933   2.232  1.5721 -1.6893 -1.0073
 3241SOL    HW312731   0.180   1.943   2.330  0.8166  0.5961 -0.2904
 3241SOL    MW412732   0.118   1.981   2.282  0.0840 -0.2381  0.7110
 3242SOL     OW12733   2.566   2.727   3.260  0.0289 -0.1838  0.6280
 3242SOL    HW212734   2.569   2.747   3.166  0.5409  1.6723  1.0024
 3242SOL    HW312735   2.558   2.632   3.264  0.9353 -0.3820 -1.2880
 3242SOL    MW412736   2.565   2.717   3.248 -0.0562 -0.0139 -0.2111
 3243SOL     OW12737   0.738   4.460   4.705 -0.7586  0.2017  0.5459
 3243SOL    HW212738   0.688   4.392   4.751 -0.2105  0.3518  1.4038
 3243SOL    HW312739   0.799   4.411   4.649 -1.7711  0.0195 -0.4237
 3243SOL    MW412740   0.739   4.444   4.704 -0.3959 -0.4175 -0.8301
 3244SOL     OW12741   4.013   5.192   1.365 -0.3409  0.3658  0.7392
 3244SOL    HW212742   3.930   5.228   1.397  0.3585  1.5606  1.2773
 3244SOL    HW312743   4.054   5.265   1.318 -1.5950 -1.3926 -3.7100
 3244SOL    MW412744   4.007   5.206   1.363 -0.0632 -0.0153  0.0974
 3245SOL     OW12745   5.476   2.915   5.010 -0.9158  0.0837 -0.0038
 3245SOL    HW212746   5.444   2.953   4.927  1.8915  0.2386 -1.1152
 3245SOL    HW312747   5.541   2.978   5.041  0.1474 -1.3806  0.8117
 3245SOL    MW412748   5.480   2.929   5.003 -0.2562 -0.5839 -0.0230
 3246SOL     OW12749   3.106   1.653   1.104  0.5157 -0.2616  0.7268
 3246SOL    HW212750   3.059   1.587   1.052 -0.4098  0.0762  1.1169
 3246SOL    HW312751   3.198   1.644   1.076  0.1559 -0.5817 -0.4360
 3246SOL    MW412752   3.112   1.643   1.093 -0.2465  0.0002 -0.5224
 3247SOL     OW12753   6.370   1.342   5.035 -0.6547 -0.3554  0.2673
 3247SOL    HW212754   6.275   1.344   5.037 -0.6317  0.6805  0.7019
 3247SOL    HW312755   6.395   1.305   5.120 -0.6684 -1.0007 -0.0034
 3247SOL    MW412756   6.361   1.337   5.046 -0.4437 -0.5061 -1.0994
 3248SOL     OW12757   3.673   1.410   0.608  0.3803 -0.1232 -0.0564
 3248SOL    HW212758   3.687   1.441   0.519 -0.1488  2.0571  0.5410
 3248SOL    HW312759   3.649   1.318   0.599  2.7969 -0.6531 -1.9431
 3248SOL    MW412760   3.672   1.402   0.595  0.3878 -0.5771 -0.4707
 3249SOL     OW12761   6.317   4.967   1.445 -0.5479  0.1575 -0.4833
 3249SOL    HW212762   6.226   4.988   1.425 -0.1848  1.6857 -0.6680
 3249SOL    HW312763   6.325   4.985   1.539 -0.8679 -1.7499 -0.0463
 3249SOL    MW412764   6.306   4.972   1.455  0.1348 -0.0289 -0.3599
 3250SOL     OW12765   4.261   3.559   4.838  0.4827  0.5713  0.2900
 3250SOL    HW212766   4.183   3.611   4.817 -0.9893 -1.1163  1.3407
 3250SOL    HW312767   4.259   3.548   4.933 -0.5988 -3.2105  0.0073
 3250SOL    MW412768   4.251   3.564   4.848  0.2249 -0.5753  0.3046
 3251SOL     OW12769   0.563   1.933   3.563  0.0726  0.4276 -0.1197
 3251SOL    HW212770   0.524   2.017   3.590 -0.1431 -0.1214  1.3529
 3251SOL    HW312771   0.488   1.880   3.535  0.1975  0.6616 -0.9353
 3251SOL    MW412772   0.548   1.937   3.563 -0.0981  0.1325 -0.4744
 3252SOL     OW12773   3.598   0.842   6.358 -0.3608 -0.6759  0.3309
 3252SOL    HW212774   3.527   0.841   6.422 -1.0281 -2.6982 -0.3610
 3252SOL    HW312775   3.560   0.803   6.279 -0.7556  4.9484 -2.7995
 3252SOL    MW412776   3.584   0.837   6.356 -0.0277 -0.3484 -0.2125
 3253SOL     OW12777   1.644   2.558   2.348 -0.2571  0.1750 -0.2234
 3253SOL    HW212778   1.653   2.508   2.266 -0.4219 -1.5548  0.7747
 3253SOL    HW312779   1.733   2.588   2.368 -0.0059 -0.4589 -0.3843
 3253SOL    MW412780   1.657   2.556   2.340 -0.0715 -0.8578  0.0215
 3254SOL     OW12781   3.372   1.429   1.744 -0.0844 -0.2692 -0.0341
 3254SOL    HW212782   3.288   1.459   1.778 -1.0772  0.3135 -2.7335
 3254SOL    HW312783   3.350   1.350   1.694  1.5300 -1.9830  1.7493
 3254SOL    MW412784   3.358   1.422   1.742 -0.9232 -0.3557 -0.2073
 3255SOL     OW12785   3.210   2.204   0.604  0.2941 -0.4118 -0.3273
 3255SOL    HW212786   3.227   2.298   0.609 -1.1920 -0.1628  1.4643
 3255SOL    HW312787   3.162   2.185   0.685 -0.2930 -2.5289 -1.1174
 3255SOL    MW412788   3.206   2.214   0.616  0.5400 -0.1079 -0.4890
 3256SOL     OW12789   2.574   5.824   3.868  0.2453 -0.7000  0.3690
 3256SOL    HW212790   2.602   5.840   3.958  0.3857  0.3650  0.1501
 3256SOL    HW312791   2.483   5.795   3.876  0.4321 -1.1525  0.8862
 3256SOL    MW412792   2.565   5.822   3.881  0.2992  0.1469  0.3074
 3257SOL     OW12793   6.279   0.888   5.364 -0.2426 -0.3268 -0.7057
 3257SOL    HW212794   6.204   0.888   5.304 -0.6940 -1.8565 -0.1897
 3257SOL    HW312795   6.240   0.875   5.451  0.6344 -2.1073 -0.5254
 3257SOL    MW412796   6.264   0.886   5.368  0.4561  0.2203  0.1810
 3258SOL     OW12797   0.973   5.196   0.608 -0.2638  0.0120  0.3292
 3258SOL    HW212798   1.067   5.179   0.605 -0.4127 -0.7649 -1.7659
 3258SOL    HW312799   0.955   5.247   0.529 -1.5027  0.8366  1.1018
 3258SOL    MW412800   0.983   5.200   0.597  0.7387 -0.0153  0.2691
 3259SOL     OW12801   3.066   0.187   2.255  0.0353 -0.1743  0.6722
 3259SOL    HW212802   3.043   0.249   2.324 -1.0964 -0.0635  0.2040
 3259SOL    HW312803   3.112   0.117   2.300  0.7622  0.6775  1.3010
 3259SOL    MW412804   3.069   0.186   2.270  0.1124  0.5355  0.2462
 3260SOL     OW12805   2.767   3.843   3.557  0.3500 -0.6217 -0.3939
 3260SOL    HW212806   2.849   3.839   3.606 -0.2840  1.6792  1.0387
 3260SOL    HW312807   2.790   3.889   3.476  0.3442  1.0282  0.4936
 3260SOL    MW412808   2.781   3.849   3.553  0.3543 -0.0276 -0.3016
 3261SOL     OW12809   6.217   4.872   0.014 -0.3660  0.5773 -0.0451
 3261SOL    HW212810   6.216   4.797   0.074  1.7376 -0.4722 -1.2214
 3261SOL    HW312811   6.253   4.837  -0.067 -1.5814  2.3552 -1.4049
 3261SOL    MW412812   6.222   4.858   0.011 -0.4306  0.1850  0.3212
 3262SOL     OW12813   2.179   2.561   3.659 -0.2639 -0.8050  0.2418
 3262SOL    HW212814   2.219   2.616   3.727 -0.4210  0.8205 -0.9281
 3262SOL    HW312815   2.088   2.591   3.654 -0.0951 -0.4670 -1.0878
 3262SOL    MW412816   2.172   2.572   3.668  0.1978 -0.0018 -0.1242
 3263SOL     OW12817   2.776   4.671   4.429  0.0665 -0.6871 -0.3479
 3263SOL    HW212818   2.783   4.679   4.524  1.9777 -1.9450 -0.3167
 3263SOL    HW312819   2.744   4.756   4.400  2.3475  0.8304  1.2023
 3263SOL    MW412820   2.773   4.683   4.438  0.2356  0.0836 -0.2041
 3264SOL     OW12821   1.052   1.699   2.161 -0.2865 -0.6243 -0.1252
 3264SOL    HW212822   1.047   1.733   2.072 -1.7334 -0.3763  0.0190
 3264SOL    HW312823   1.142   1.718   2.189 -0.2930  0.7823 -0.9565
 3264SOL    MW412824   1.063   1.706   2.153  0.3523  0.4158  0.2268
 3265SOL     OW12825   6.361   3.720   0.281  0.2997  0.9574 -0.1198
 3265SOL    HW212826   6.289   3.664   0.253  0.1212  0.3663  1.4059
 3265SOL    HW312827   6.394   3.678   0.360  2.1130  1.3996 -0.5948
 3265SOL    MW412828   6.356   3.707   0.288 -0.3784  0.1343 -0.3985
 3266SOL     OW12829   5.853   0.745   0.002 -0.1879 -0.2936 -0.5599
 3266SOL    HW212830   5.912   0.687  -0.046  0.3153 -0.1473 -0.1232
 3266SOL    HW312831   5.840   0.701   0.086  0.0318  0.1226 -0.3063
 3266SOL    MW412832   5.859   0.731   0.006 -0.1710  0.6600 -0.0616
 3267SOL     OW12833   2.339   4.032   3.634 -0.3517  0.0646 -0.5934
 3267SOL    HW212834   2.313   4.022   3.542 -1.2513 -2.0898 -0.1714
 3267SOL    HW312835   2.410   3.968   3.646 -0.8489 -0.3289  0.4002
 3267SOL    MW412836   2.345   4.022   3.623 -0.1148  0.3322  0.6428
 3268SOL     OW12837   6.090   0.316   3.687  0.5263  0.4585  0.0385
 3268SOL    HW212838   6.068   0.337   3.778  1.3401 -0.3093  0.4309
 3268SOL    HW312839   6.153   0.384   3.662  1.0488  0.1055  0.3796
 3268SOL    MW412840   6.096   0.328   3.696 -0.0512 -0.4197 -0.7830
 3269SOL     OW12841   5.632   2.534   5.940 -0.5379 -0.7248 -0.4003
 3269SOL    HW212842   5.669   2.621   5.929  0.3611 -0.6299  2.5627
 3269SOL    HW312843   5.538   2.550   5.949 -0.3333  0.0189  0.5873
 3269SOL    MW412844   5.624   2.548   5.940 -0.2149  0.5153 -0.0787
 3270SOL     OW12845   0.375   4.215   0.903 -0.1784 -0.3497  0.2943
 3270SOL    HW212846   0.281   4.198   0.911 -0.4720  0.6831 -0.6847
 3270SOL    HW312847   0.391   4.218   0.808  0.6874  0.2446  0.4438
 3270SOL    MW412848   0.365   4.213   0.891  0.2378 -0.3117 -0.2172
 3271SOL     OW12849   1.953   5.766   5.104 -0.9385 -0.0839  0.1532
 3271SOL    HW212850   1.883   5.723   5.055 -0.6259  1.8705 -2.2294
 3271SOL    HW312851   2.034   5.733   5.064 -0.5739 -0.3912  1.1239
 3271SOL    MW412852   1.955   5.756   5.092  0.8180  0.0502 -0.2817
 3272SOL     OW12853   2.046   0.393   0.245  0.2704 -0.2996  0.5501
 3272SOL    HW212854   2.016   0.471   0.293 -1.5807 -0.3641 -0.4281
 3272SOL    HW312855   2.117   0.425   0.190 -0.8493  0.8857 -0.2829
 3272SOL    MW412856   2.051   0.408   0.244 -0.2200  0.3444  0.6067
 3273SOL     OW12857   0.164   5.444   1.615  0.2974  0.5361  0.3353
 3273SOL    HW212858   0.149   5.536   1.637  0.8562  0.8537 -0.5718
 3273SOL    HW312859   0.078   5.411   1.586  0.3153  1.0410 -0.2928
 3273SOL    MW412860   0.150   5.451   1.614 -0.2701  0.2405  0.2377
 3274SOL     OW12861   1.951   2.098   5.697  0.1547 -0.7605  0.3107
 3274SOL    HW212862   1.934   2.189   5.721  1.8058 -0.9623  2.6094
 3274SOL    HW312863   1.908   2.046   5.765  1.9555 -1.5237  0.9434
 3274SOL    MW412864   1.943   2.103   5.710  0.7428 -0.4474 -0.1205
 3275SOL     OW12865   4.867   1.556   0.222 -0.0744 -0.3982  0.5848
 3275SOL    HW212866   4.875   1.505   0.141 -0.8231 -0.9520  0.8449
 3275SOL    HW312867   4.951   1.544   0.266  0.3567 -0.0584 -0.1206
 3275SOL    MW412868   4.879   1.547   0.217 -0.6002 -0.2373  0.4741
 3276SOL     OW12869   2.432   3.958   1.194  0.3413 -0.0019 -0.0706
 3276SOL    HW212870   2.363   4.014   1.160  1.7378  2.3511  0.7133
 3276SOL    HW312871   2.478   4.013   1.258  3.0570 -1.3788 -0.7039
 3276SOL    MW412872   2.429   3.972   1.198 -0.5987 -0.1924 -0.0389
 3277SOL     OW12873   5.132   1.246   2.917  0.3681 -0.3598  0.7166
 3277SOL    HW212874   5.178   1.272   2.837 -1.2190  0.7878  0.1134
 3277SOL    HW312875   5.044   1.224   2.888 -0.3452  0.4044  2.1686
 3277SOL    MW412876   5.127   1.247   2.903  0.0341 -0.5873 -0.4740
 3278SOL     OW12877   0.096   5.184   4.250  0.3841  0.2026  0.0068
 3278SOL    HW212878   0.067   5.111   4.196 -0.1606  0.8810 -0.6545
 3278SOL    HW312879   0.191   5.174   4.256  0.5025  0.3034 -1.3852
 3278SOL    MW412880   0.105   5.173   4.244 -0.3243 -0.0928  0.3502
 3279SOL     OW12881   4.624   0.278   4.265  0.2114  0.5814 -0.3343
 3279SOL    HW212882   4.533   0.255   4.285  0.1541  0.8414 -0.2907
 3279SOL    HW312883   4.665   0.195   4.241 -0.0118  0.4466 -0.2536
 3279SOL    MW412884   4.617   0.264   4.265  0.0244 -0.8291 -0.1370
 3280SOL     OW12885   1.843   0.402   6.005 -0.1572 -0.1739 -0.5806
 3280SOL    HW212886   1.933   0.373   5.993  0.2453  0.4903  0.6603
 3280SOL    HW312887   1.801   0.330   6.053  0.3464  0.4612  0.8622
 3280SOL    MW412888   1.849   0.389   6.010 -0.0624 -0.7163 -0.1367
 3281SOL     OW12889   1.746   4.752   0.270  0.0677  0.1288  0.4446
 3281SOL    HW212890   1.806   4.795   0.332  0.2824  2.1897 -1.0998
 3281SOL    HW312891   1.661   4.792   0.288  0.5934  2.7297 -2.1941
 3281SOL    MW412892   1.743   4.763   0.281 -0.2998 -0.3523  0.2772
 3282SOL     OW12893   4.877   2.485   2.546  0.0646 -0.1964  0.5739
 3282SOL    HW212894   4.889   2.579   2.562 -0.9220 -0.2637  1.8580
 3282SOL    HW312895   4.784   2.470   2.559  0.4129 -1.5804  1.7537
 3282SOL    MW412896   4.867   2.496   2.550 -0.2783  0.3157  0.2753
 3283SOL     OW12897   3.331   2.858   2.510 -0.1307 -0.2956 -0.2149
 3283SOL    HW212898   3.399   2.865   2.443 -0.3839  3.0535 -0.2758
 3283SOL    HW312899   3.332   2.765   2.535  1.6439 -1.1648 -3.0521
 3283SOL    MW412900   3.340   2.846   2.505 -0.7488 -0.2694 -0.2541
 3284SOL     OW12901   2.472   6.052   4.881 -0.5253 -0.3949  0.0526
 3284SOL    HW212902   2.511   5.982   4.934  1.3736  0.3107 -0.3196
 3284SOL    HW312903   2.435   6.006   4.805 -0.7499 -1.1351  0.5931
 3284SOL    MW412904   2.472   6.036   4.878 -0.1489  0.2700  0.1596
 3285SOL     OW12905   2.789   2.496   4.622 -0.2965 -0.1495 -0.1944
 3285SOL    HW212906   2.751   2.441   4.555  0.7156  0.2883 -1.1573
 3285SOL    HW312907   2.714   2.538   4.665 -0.9270  0.4145 -1.7896
 3285SOL    MW412908   2.774   2.495   4.619  0.4581 -0.7155  0.8003
 3286SOL     OW12909   5.225   6.227   4.984  0.0424  0.0431 -0.0372
 3286SOL    HW212910   5.170   6.180   5.046  0.4413  0.3904  0.5876
 3286SOL    HW312911   5.169   6.299   4.953 -0.1549 -0.1266 -0.0775
 3286SOL    MW412912   5.210   6.231   4.988 -0.3373  0.1943 -0.1449
 3287SOL     OW12913   2.520   5.460   5.209  0.4646  0.1647  0.7335
 3287SOL    HW212914   2.486   5.374   5.182  0.5832  0.2813  0.2028
 3287SOL    HW312915   2.615   5.448   5.212  0.5158  0.4056  0.1857
 3287SOL    MW412916   2.528   5.447   5.206  0.3638 -0.5679 -0.2371
 3288SOL     OW12917   3.779   5.973   5.228  0.2169  0.0871 -0.4252
 3288SOL    HW212918   3.776   6.022   5.310  0.0410 -0.2093 -0.2525
 3288SOL    HW312919   3.836   5.898   5.248  1.0956  0.6049 -0.9004
 3288SOL    MW412920   3.786   5.969   5.241  1.0102 -0.0622  0.1195
 3289SOL     OW12921   1.445   1.629   0.318 -0.1716 -0.2443  0.0401
 3289SOL    HW212922   1.494   1.707   0.296 -0.5234 -0.2272 -0.7003
 3289SOL    HW312923   1.391   1.655   0.393 -0.7036  0.3979 -0.5481
 3289SOL    MW412924   1.444   1.643   0.325  0.1025 -0.0335  0.7805
 3290SOL     OW12925   0.295   1.295   4.645 -0.0652  0.0904  0.2467
 3290SOL    HW212926   0.307   1.389   4.655 -0.0605  0.1725 -0.4791
 3290SOL    HW312927   0.219   1.274   4.699 -0.0202  0.4940  0.4663
 3290SOL    MW412928   0.287   1.304   4.653 -0.2199  0.0200 -0.1539
 3291SOL     OW12929   1.367   3.905   5.198 -0.1997 -0.1501 -0.2061
 3291SOL    HW212930   1.342   3.819   5.233 -0.5636 -0.3594 -0.9560
 3291SOL    HW312931   1.410   3.949   5.271  0.1773 -1.0505  0.1280
 3291SOL    MW412932   1.369   3.899   5.212  0.9012  0.0438  0.1738
 3292SOL     OW12933   3.065   5.680   4.518 -0.2024 -0.3615  0.1267
 3292SOL    HW212934   3.136   5.707   4.575  1.2612 -1.0184 -1.3162
 3292SOL    HW312935   3.070   5.584   4.517 -0.2918 -0.3734 -0.9572
 3292SOL    MW412936   3.075   5.671   4.525 -0.1708 -0.1970 -0.2148
 3293SOL     OW12937   6.062   0.134   1.096 -0.7557  0.0062  0.2976
 3293SOL    HW212938   6.121   0.115   1.022 -0.8479 -0.0496  0.2374
 3293SOL    HW312939   5.978   0.095   1.070 -0.6777 -0.3844  0.6182
 3293SOL    MW412940   6.059   0.126   1.082 -0.1203  0.1051  0.2487
 3294SOL     OW12941   1.021   2.263   1.706  0.7095 -0.5076  0.1295
 3294SOL    HW212942   1.041   2.313   1.627 -0.5268 -0.5410 -0.2332
 3294SOL    HW312943   0.959   2.318   1.755 -0.0889 -1.3301  0.0881
 3294SOL    MW412944   1.015   2.277   1.702  0.1227 -0.2795 -0.1739
 3295SOL     OW12945   3.585   5.579   4.463 -0.2651 -0.5271  0.3193
 3295SOL    HW212946   3.500   5.604   4.428 -0.2048  0.0516  0.5755
 3295SOL    HW312947   3.586   5.615   4.552  0.6502  0.3880 -0.0443
 3295SOL    MW412948   3.574   5.587   4.470 -0.4399 -0.0342  0.3124
 3296SOL     OW12949   2.641   2.065   4.545 -0.3073  0.0937 -0.6999
 3296SOL    HW212950   2.609   2.068   4.635 -0.6756 -0.8141 -0.7900
 3296SOL    HW312951   2.611   2.147   4.506 -1.2908 -0.0891 -0.3572
 3296SOL    MW412952   2.633   2.076   4.552 -0.5914 -0.1272  0.5445
 3297SOL     OW12953   2.995   2.465   5.644 -0.2901 -0.2532 -0.2080
 3297SOL    HW212954   2.925   2.465   5.580 -0.4961 -1.2036 -0.0000
 3297SOL    HW312955   3.067   2.418   5.601 -0.2857 -0.5333  0.0992
 3297SOL    MW412956   2.995   2.459   5.630 -0.2452  0.2391  0.2722
 3298SOL     OW12957   2.717   5.369   0.575  1.0157  0.5931  0.3917
 3298SOL    HW212958   2.735   5.329   0.660 -1.7428  0.0670  0.8375
 3298SOL    HW312959   2.732   5.462   0.588 -1.3556  0.8225  2.1899
 3298SOL    MW412960   2.721   5.376   0.588  0.0181  0.0509  0.3778
 3299SOL     OW12961   0.953   0.656   3.084 -0.3138 -0.4634 -0.3309
 3299SOL    HW212962   1.029   0.679   3.138  0.2672 -0.8411 -0.9831
 3299SOL    HW312963   0.892   0.615   3.145  0.9259 -2.2088 -0.2072
 3299SOL    MW412964   0.955   0.654   3.099 -0.2667  0.1813 -0.1149
 3300SOL     OW12965   5.981   4.946   5.380 -0.3809 -0.5140  0.8953
 3300SOL    HW212966   5.910   5.010   5.390 -0.9025 -0.5054 -2.0200
 3300SOL    HW312967   5.946   4.865   5.417 -2.1693 -0.6186 -0.8631
 3300SOL    MW412968   5.967   4.944   5.386  0.1922 -0.4542 -0.0617
 3301SOL     OW12969   4.287   2.326   1.875  0.0939  0.7633 -0.2902
 3301SOL    HW212970   4.334   2.279   1.806 -0.3201  0.7620 -0.5728
 3301SOL    HW312971   4.355   2.373   1.922  0.3929  0.6899 -0.6427
 3301SOL    MW412972   4.302   2.326   1.872  0.0682 -0.2592  0.5054
 3302SOL     OW12973   4.785   5.862   3.743 -0.3435 -0.2584  0.5049
 3302SOL    HW212974   4.727   5.923   3.789 -1.5118 -0.6178 -0.4320
 3302SOL    HW312975   4.801   5.904   3.658  0.1732 -0.5080  0.4743
 3302SOL    MW412976   4.779   5.876   3.738 -0.1696 -0.1648 -0.2199
 3303SOL     OW12977   1.357   0.374   4.590 -0.1042  0.1863  0.4573
 3303SOL    HW212978   1.421   0.444   4.601  1.7835 -1.3095 -0.5031
 3303SOL    HW312979   1.278   0.418   4.558  0.8036  1.9286  0.5192
 3303SOL    MW412980   1.355   0.389   4.587 -0.3025 -0.0744 -0.3826
 3304SOL     OW12981   0.329   0.587   5.724  0.4501 -0.2684 -0.0054
 3304SOL    HW212982   0.338   0.636   5.805 -3.5207 -1.7884  1.6083
 3304SOL    HW312983   0.356   0.498   5.746  1.1097 -0.3153 -0.9375
 3304SOL    MW412984   0.334   0.582   5.737  0.1085  0.6154  0.2703
 3305SOL     OW12985   5.835   2.338   2.958  0.4680 -0.2634  0.6112
 3305SOL    HW212986   5.889   2.288   2.897 -2.0016 -0.5047 -1.5539
 3305SOL    HW312987   5.869   2.428   2.952  0.0221 -0.1909 -1.5394
 3305SOL    MW412988   5.847   2.343   2.949  0.0342 -0.5634 -0.6274
 3306SOL     OW12989   0.238   5.556   1.369 -0.5058 -0.3384  0.2657
 3306SOL    HW212990   0.230   5.508   1.452 -1.1251 -2.1379 -0.7663
 3306SOL    HW312991   0.195   5.499   1.305 -0.4833  1.2410 -1.2087
 3306SOL    MW412992   0.232   5.542   1.371  0.3705 -0.1020  0.7221
 3307SOL     OW12993   3.654   2.291   3.847 -0.1185  0.3255 -0.2293
 3307SOL    HW212994   3.684   2.201   3.835  1.1153  0.7733 -0.6690
 3307SOL    HW312995   3.671   2.310   3.939  1.9319  0.8722 -0.6607
 3307SOL    MW412996   3.660   2.282   3.857  0.4061  0.4083  0.1125
 3308SOL     OW12997   3.141   0.796   1.616  0.3398 -0.0161  0.0255
 3308SOL    HW212998   3.231   0.792   1.584  0.6579  1.1100  0.7455
 3308SOL    HW312999   3.112   0.885   1.599  0.5063  0.6474  2.7384
 3308SOL    MW413000   3.149   0.807   1.610  0.4680 -0.3234 -0.0049
 3309SOL     OW13001   1.673   5.349   1.729 -0.2972 -0.0849 -0.1018
 3309SOL    HW213002   1.602   5.408   1.703  0.0462 -0.4021 -1.8892
 3309SOL    HW313003   1.666   5.274   1.670  1.8358  0.1273 -0.7301
 3309SOL    MW413004   1.663   5.347   1.718 -0.2194 -0.4835  0.3545
 3310SOL     OW13005   2.973   3.670   1.033  0.3110 -0.2878  0.2943
 3310SOL    HW213006   3.033   3.597   1.014  2.3722  1.5954 -0.9041
 3310SOL    HW313007   3.017   3.747   0.997 -3.5267  1.0889 -2.0461
 3310SOL    MW413008   2.987   3.671   1.026 -0.1477 -0.4300  0.5709
 3311SOL     OW13009   3.158   1.112   0.154  0.4295  0.2398  0.0890
 3311SOL    HW213010   3.196   1.051   0.217 -1.4163 -0.2471  0.8114
 3311SOL    HW313011   3.115   1.178   0.208 -0.1473  0.4986 -0.6712
 3311SOL    MW413012   3.157   1.112   0.169  0.1428 -0.0820  0.2147
 3312SOL     OW13013   1.219   1.254   1.934 -0.4257 -0.0538  0.4533
 3312SOL    HW213014   1.211   1.172   1.886  0.7363 -0.5099  0.9958
 3312SOL    HW313015   1.129   1.274   1.962 -0.9478 -0.3174 -0.9882
 3312SOL    MW413016   1.206   1.246   1.932  0.3258  0.5899  0.3116
 3313SOL     OW13017   0.653   0.918   0.248 -0.4566 -0.6443  0.1211
 3313SOL    HW213018   0.599   0.961   0.314  0.7695  0.3760  0.5152
 3313SOL    HW313019   0.618   0.949   0.164  0.0650  0.7753  0.3916
 3313SOL    MW413020   0.641   0.928   0.245 -0.3205 -0.4807 -0.0201
 3314SOL     OW13021   6.001   0.429   3.931 -0.4956  0.1740  0.2171
 3314SOL    HW213022   5.980   0.352   3.983  1.3220 -0.8550 -0.4532
 3314SOL    HW313023   5.921   0.481   3.930 -2.1172 -2.1653 -0.1094
 3314SOL    MW413024   5.988   0.426   3.938  0.1612 -0.2727  0.1882
 3315SOL     OW13025   3.678   0.850   4.739  0.1239  0.1614  0.5485
 3315SOL    HW213026   3.687   0.844   4.644 -0.7545  1.2844  0.3681
 3315SOL    HW313027   3.593   0.810   4.758  0.1758  0.1785  0.8223
 3315SOL    MW413028   3.668   0.844   4.729 -0.0698 -0.2150  0.9166
 3316SOL     OW13029   5.069   1.728   1.738  0.0263  0.2333 -0.3052
 3316SOL    HW213030   5.107   1.812   1.713  1.2309 -0.3275 -0.4449
 3316SOL    HW313031   5.036   1.742   1.827 -0.2377  0.9943 -0.5223
 3316SOL    MW413032   5.070   1.741   1.747  0.3359 -0.6199 -0.4001
 3317SOL     OW13033   1.996   0.429   5.208 -0.7799  0.4231  0.5481
 3317SOL    HW213034   2.031   0.417   5.119 -0.6587 -0.5424  0.7198
 3317SOL    HW313035   2.065   0.478   5.254 -0.5594  0.3589  0.2905
 3317SOL    MW413036   2.010   0.434   5.202  0.0419 -0.1636  0.2112
 3318SOL     OW13037   3.306   3.667   6.169 -0.0927  0.4556 -0.1872
 3318SOL    HW213038   3.340   3.738   6.115  0.7970  0.6150  0.5589
 3318SOL    HW313039   3.219   3.650   6.133  0.0896  1.2075 -1.0423
 3318SOL    MW413040   3.299   3.674   6.157 -0.6036 -0.0809 -0.4381
 3319SOL     OW13041   1.002   4.050   1.700  0.3746  0.2104  0.4245
 3319SOL    HW213042   0.960   3.990   1.638 -0.8368  1.3219  0.1343
 3319SOL    HW313043   1.007   4.133   1.654  2.9249  0.1660  0.4618
 3319SOL    MW413044   0.997   4.053   1.686 -0.5439  0.4410  0.3677
 3320SOL     OW13045   5.081   0.801   2.853 -0.0947 -0.1605 -0.1893
 3320SOL    HW213046   5.144   0.868   2.877 -0.2529 -0.8155  2.3503
 3320SOL    HW313047   5.129   0.718   2.863 -0.6500 -0.5524 -0.6837
 3320SOL    MW413048   5.096   0.799   2.857  0.2874  0.1635  0.0283
 3321SOL     OW13049   3.645   0.470   3.718 -0.0377 -0.2268 -0.0162
 3321SOL    HW213050   3.615   0.422   3.795  1.1645 -1.0461 -0.0391
 3321SOL    HW313051   3.740   0.469   3.724  0.0582  0.3831 -1.1032
 3321SOL    MW413052   3.653   0.464   3.729  0.0319 -0.1291 -0.4872
 3322SOL     OW13053   3.698   2.465   6.084  0.1015  0.4682  0.4712
 3322SOL    HW213054   3.734   2.497   6.001  0.0090 -0.5794  0.0086
 3322SOL    HW313055   3.709   2.370   6.079  0.2044  0.4032  1.7170
 3322SOL    MW413056   3.704   2.457   6.072 -0.1914 -0.1033  1.2748
 3323SOL     OW13057   1.652   3.404   6.307  0.0354  0.1035  0.0606
 3323SOL    HW213058   1.604   3.409   6.390  2.2226  1.6333  1.3523
 3323SOL    HW313059   1.641   3.491   6.268 -0.1857 -0.3017 -0.7820
 3323SOL    MW413060   1.644   3.416   6.313 -1.1678 -0.3134  0.0104
 3324SOL     OW13061   0.045   1.234   4.799  0.2093  0.2901  0.1876
 3324SOL    HW213062   0.014   1.289   4.871 -0.4884 -0.2108  0.2806
 3324SOL    HW313063  -0.033   1.218   4.746  0.5826  0.0877 -0.3048
 3324SOL    MW413064   0.031   1.239   4.802 -0.0238 -0.2052 -0.3530
 3325SOL     OW13065   3.528   2.152   3.588  0.0646 -0.4663  0.2895
 3325SOL    HW213066   3.548   2.117   3.675  0.9695  1.4837  0.9088
 3325SOL    HW313067   3.454   2.099   3.557  0.2645 -1.7308  1.8895
 3325SOL    MW413068   3.521   2.140   3.595 -0.6205 -0.2389  0.1933
 3326SOL     OW13069   2.201   1.078   1.316  0.2767 -0.2817 -0.1513
 3326SOL    HW213070   2.290   1.095   1.286 -0.2125 -0.7664 -2.0809
 3326SOL    HW313071   2.146   1.136   1.262 -0.5617  0.4613  1.4245
 3326SOL    MW413072   2.205   1.088   1.305  0.0976  0.3932  0.2728
 3327SOL     OW13073   4.557   3.285   3.275 -0.8413 -0.2642  0.1047
 3327SOL    HW213074   4.633   3.343   3.277  0.0656 -1.3545 -1.3242
 3327SOL    HW313075   4.487   3.339   3.239 -0.3956  0.3581  0.1399
 3327SOL    MW413076   4.558   3.300   3.271 -0.2664  0.5809 -0.1364
 3328SOL     OW13077   5.846   0.411   3.550  0.1710 -0.6759  0.3103
 3328SOL    HW213078   5.770   0.378   3.598  1.7882 -0.4066  3.3304
 3328SOL    HW313079   5.921   0.370   3.593  1.8689  1.2843 -0.5826
 3328SOL    MW413080   5.846   0.401   3.562 -0.7468 -0.2502 -0.2508
 3329SOL     OW13081   4.072   4.270   5.481  0.0304 -0.4230  0.4105
 3329SOL    HW213082   4.040   4.299   5.396  0.6669 -0.4067  0.1737
 3329SOL    HW313083   4.154   4.317   5.494  0.4769 -1.2157  0.5516
 3329SOL    MW413084   4.079   4.280   5.471  0.9198 -0.0189  0.3782
 3330SOL     OW13085   6.154   0.445   6.007  0.6852  0.2058 -0.1953
 3330SOL    HW213086   6.209   0.454   5.929 -0.2858  0.4168 -0.8744
 3330SOL    HW313087   6.085   0.385   5.981  0.1725  0.5271  0.4028
 3330SOL    MW413088   6.153   0.439   5.993  0.4920  0.1376 -0.3478
 3331SOL     OW13089   1.089   1.863   3.301  0.2157 -0.2985 -0.4289
 3331SOL    HW213090   1.131   1.779   3.315  0.3603 -0.0176  0.9503
 3331SOL    HW313091   1.007   1.842   3.256  0.1782 -1.1872  0.0484
 3331SOL    MW413092   1.083   1.849   3.297  0.0532 -0.0081 -0.9362
 3332SOL     OW13093   0.904   4.064   2.801  0.1949 -0.0042 -0.3176
 3332SOL    HW213094   0.964   4.139   2.790 -0.0729  0.6084  1.7822
 3332SOL    HW313095   0.932   4.025   2.884 -2.3215  0.3540  0.7734
 3332SOL    MW413096   0.916   4.069   2.811 -0.3671  0.7726 -0.1598
 3333SOL     OW13097   1.400   2.909   6.304 -0.1259  0.0536 -0.1561
 3333SOL    HW213098   1.477   2.852   6.296 -1.6869 -2.3315  0.5309
 3333SOL    HW313099   1.414   2.955   6.387  0.9899  0.4116 -0.5196
 3333SOL    MW413100   1.412   2.907   6.314 -0.4857  0.0628  0.0432
 3334SOL     OW13101   5.831   0.709   0.582 -0.3106 -0.7019 -0.0721
 3334SOL    HW213102   5.905   0.769   0.582  0.2558 -1.3402 -1.9556
 3334SOL    HW313103   5.787   0.725   0.666  1.4576  0.2846  0.7146
 3334SOL    MW413104   5.835   0.719   0.593 -0.2411  0.0615 -0.0968
 3335SOL     OW13105   5.157   3.288   6.163 -0.1977  0.5866 -0.3450
 3335SOL    HW213106   5.231   3.269   6.106 -0.7437  3.0496 -2.0766
 3335SOL    HW313107   5.194   3.290   6.251  0.8358 -2.5641 -0.5904
 3335SOL    MW413108   5.171   3.286   6.167  0.1760 -0.3562  0.1862
 3336SOL     OW13109   5.283   1.858   0.682 -0.3165  0.1469  0.1727
 3336SOL    HW213110   5.191   1.883   0.667 -0.8544 -1.1415  1.1693
 3336SOL    HW313111   5.283   1.763   0.676  0.4057 -0.0957  2.8424
 3336SOL    MW413112   5.271   1.849   0.679  0.2567  0.6362 -0.8205
 3337SOL     OW13113   4.356   3.570   0.802  0.0774 -0.1765 -0.2342
 3337SOL    HW213114   4.287   3.503   0.802  0.9646 -1.1326 -1.4011
 3337SOL    HW313115   4.358   3.602   0.712  0.4126  0.6316  0.0552
 3337SOL    MW413116   4.347   3.565   0.790  0.3410 -0.2053  0.4753
 3338SOL     OW13117   2.209   0.166   6.428  0.0965 -0.4954 -0.1147
 3338SOL    HW213118   2.191   0.073   6.417 -1.4458 -0.2756  0.3307
 3338SOL    HW313119   2.202   0.181   6.522 -1.2529  0.3604 -0.3309
 3338SOL    MW413120   2.206   0.156   6.439 -0.3182 -0.2494 -0.6010
 3339SOL     OW13121   2.660   4.341   0.154 -0.5555 -0.2864 -0.1942
 3339SOL    HW213122   2.612   4.403   0.100 -1.2313  0.5042  1.2558
 3339SOL    HW313123   2.639   4.366   0.244  0.4435 -1.6188  0.4477
 3339SOL    MW413124   2.651   4.352   0.159  0.1017  0.8422 -0.1551
 3340SOL     OW13125   4.681   1.094   0.948  0.2197  0.7724  0.4816
 3340SOL    HW213126   4.664   1.002   0.927 -1.0345  0.9470  0.6766
 3340SOL    HW313127   4.702   1.094   1.041  3.7812  0.2615 -0.1853
 3340SOL    MW413128   4.681   1.082   0.958  0.4052  0.4539  0.2286
 3341SOL     OW13129   5.596   3.251   0.222  0.4270  0.4993  0.7872
 3341SOL    HW213130   5.574   3.236   0.130 -0.5839  0.2339  1.0545
 3341SOL    HW313131   5.642   3.171   0.249  0.6237  0.5290  0.5450
 3341SOL    MW413132   5.599   3.238   0.213 -0.0207  0.6888  0.0525
 3342SOL     OW13133   0.618   3.247   1.725 -0.1351 -0.3416  0.2127
 3342SOL    HW213134   0.698   3.215   1.768  0.3595  0.5940  0.0086
 3342SOL    HW313135   0.649   3.312   1.663 -1.1867  1.1411  1.1892
 3342SOL    MW413136   0.633   3.251   1.722  0.2593  0.1223 -0.2855
 3343SOL     OW13137   4.414   2.221   1.644  0.0091  0.2718 -0.7028
 3343SOL    HW213138   4.354   2.170   1.590 -0.6970 -1.4743  1.5859
 3343SOL    HW313139   4.501   2.199   1.611 -0.4049 -0.7139 -1.1860
 3343SOL    MW413140   4.417   2.211   1.632  0.5253  0.1079  0.0317
 3344SOL     OW13141   3.947   1.908   6.066 -0.4735  0.7244 -0.7128
 3344SOL    HW213142   3.984   1.963   6.135 -1.5392  1.8102 -0.9621
 3344SOL    HW313143   4.016   1.901   6.001  0.6757 -0.6195  0.5985
 3344SOL    MW413144   3.961   1.915   6.067 -0.2735 -0.2207  0.2354
 3345SOL     OW13145   3.441   1.026   1.385 -0.3057  0.3050  0.2758
 3345SOL    HW213146   3.484   0.957   1.435  0.3121  0.3220 -0.2222
 3345SOL    HW313147   3.354   0.990   1.365  0.1141 -0.4631 -0.2344
 3345SOL    MW413148   3.435   1.012   1.389 -0.5769 -0.6674  0.1432
 3346SOL     OW13149   4.270   1.424   1.202 -0.1409  0.7770 -0.2568
 3346SOL    HW213150   4.185   1.382   1.218  1.2578 -1.1544  3.1440
 3346SOL    HW313151   4.254   1.517   1.222 -1.0984  0.1351  2.3697
 3346SOL    MW413152   4.256   1.431   1.207 -0.1353 -0.2315  0.4014
 3347SOL     OW13153   5.612   0.516   1.668  0.0384 -0.6916 -0.3537
 3347SOL    HW213154   5.617   0.612   1.671  0.1565 -0.6403 -1.5994
 3347SOL    HW313155   5.523   0.498   1.636 -1.1451 -1.1075  2.8577
 3347SOL    MW413156   5.601   0.527   1.664 -0.3382  0.1433  0.1025
 3348SOL     OW13157   5.937   1.486   2.982 -0.2990  0.2965 -0.4532
 3348SOL    HW213158   6.012   1.500   3.040 -2.1199  1.5257  1.7817
 3348SOL    HW313159   5.918   1.392   2.990 -0.3101  0.3790  0.7497
 3348SOL    MW413160   5.944   1.475   2.991 -0.2647  0.2978 -0.1870
 3349SOL     OW13161   4.039   1.440   1.511 -0.0914  0.2926  0.0394
 3349SOL    HW213162   3.957   1.480   1.539  0.7096  2.5309 -0.5833
 3349SOL    HW313163   4.063   1.381   1.583 -1.5650  0.5877  0.8108
 3349SOL    MW413164   4.031   1.437   1.525 -0.2577 -0.4208  0.0052
 3350SOL     OW13165   5.176   5.912   5.532 -0.1653 -0.0605 -0.6219
 3350SOL    HW213166   5.207   5.916   5.441 -0.4787 -0.0508 -0.7288
 3350SOL    HW313167   5.083   5.888   5.525 -0.0096 -0.7826 -0.2728
 3350SOL    MW413168   5.168   5.909   5.519 -0.0463  0.8543  0.4872
 3351SOL     OW13169   0.509   1.039   5.686  0.1069 -0.4276 -0.2001
 3351SOL    HW213170   0.503   1.129   5.655 -2.1281  0.6687  2.8713
 3351SOL    HW313171   0.437   0.993   5.642  0.4783 -0.4054 -0.8372
 3351SOL    MW413172   0.498   1.045   5.676  0.1884  0.4278  0.0102
 3352SOL     OW13173   5.593   2.998   3.352  0.0203 -0.3805 -0.5401
 3352SOL    HW213174   5.577   2.923   3.410 -0.0119  0.1939  0.2140
 3352SOL    HW313175   5.546   2.976   3.271  1.5031 -1.9814 -1.0162
 3352SOL    MW413176   5.585   2.985   3.349 -0.1822 -0.2626  0.1142
 3353SOL     OW13177   3.589   4.103   3.361 -0.3476 -0.0627 -0.5343
 3353SOL    HW213178   3.575   4.027   3.304 -1.9342 -0.5738  0.4679
 3353SOL    HW313179   3.503   4.121   3.398  0.7246 -0.2764  2.3275
 3353SOL    MW413180   3.576   4.095   3.358  0.5966 -0.0240 -0.5573
 3354SOL     OW13181   4.404   1.592   2.739 -0.4474  0.1469 -0.0365
 3354SOL    HW213182   4.453   1.672   2.722 -0.1121  0.0092  0.2655
 3354SOL    HW313183   4.327   1.598   2.683 -1.3680  1.5108  1.3237
 3354SOL    MW413184   4.401   1.603   2.729  0.4348  0.3635  0.3578
 3355SOL     OW13185   4.390   1.220   3.717  0.1278  0.0869  0.3573
 3355SOL    HW213186   4.442   1.184   3.645  1.0604  1.0438  0.5425
 3355SOL    HW313187   4.310   1.252   3.674  0.3763  0.0301 -0.1563
 3355SOL    MW413188   4.386   1.219   3.702  0.0114 -0.6506 -0.2113
 3356SOL     OW13189   6.146   4.775   0.279  0.1841  0.4953  0.9205
 3356SOL    HW213190   6.208   4.771   0.352 -0.0768 -0.0096  1.1148
 3356SOL    HW313191   6.148   4.688   0.240  1.6904  1.2563 -0.8367
 3356SOL    MW413192   6.155   4.763   0.283  0.3657  0.0486  0.8784
 3357SOL     OW13193   0.699   3.653   1.965  0.3464  0.1353  0.1317
 3357SOL    HW213194   0.711   3.571   2.014  0.2751  1.4690  2.5175
 3357SOL    HW313195   0.610   3.681   1.988 -0.1793  0.2150 -1.8067
 3357SOL    MW413196   0.689   3.646   1.974 -0.4338 -0.0682  0.8251
 3358SOL     OW13197   3.735   2.782   4.710  0.0161  0.3225 -0.0463
 3358SOL    HW213198   3.783   2.708   4.747 -1.7752 -0.2514  1.2330
 3358SOL    HW313199   3.804   2.840   4.676  1.5442 -0.9984  0.6461
 3358SOL    MW413200   3.751   2.780   4.710  0.0211  0.4479 -0.0945
 3359SOL     OW13201   4.401   5.411   2.907 -0.2669  0.2460 -0.2151
 3359SOL    HW213202   4.414   5.329   2.954 -0.9069  0.2457 -0.0212
 3359SOL    HW313203   4.483   5.458   2.917 -0.0419 -0.1918  0.0320
 3359SOL    MW413204   4.413   5.407   2.914 -0.3732  0.1143  0.2404
 3360SOL     OW13205   4.128   1.550   5.972  0.0901 -0.3911  0.2047
 3360SOL    HW213206   4.107   1.599   6.051 -0.0421  2.3770 -1.3944
 3360SOL    HW313207   4.219   1.573   5.952 -0.7404  1.4441 -1.9572
 3360SOL    MW413208   4.138   1.560   5.980  0.2194 -0.6266  0.2838
 3361SOL     OW13209   0.629   3.617   4.681 -0.1246 -0.6620  0.3372
 3361SOL    HW213210   0.673   3.681   4.736 -0.2829  0.2652 -0.5757
 3361SOL    HW313211   0.650   3.532   4.720 -1.7967  0.0213  2.9570
 3361SOL    MW413212   0.637   3.614   4.693 -0.6113  0.1489 -0.3648
 3362SOL     OW13213   6.078   4.304   0.400 -0.0805  0.5033  0.2224
 3362SOL    HW213214   6.043   4.230   0.352  1.1501  0.7090 -1.0486
 3362SOL    HW313215   6.008   4.369   0.399  0.3153  1.0157 -2.4990
 3362SOL    MW413216   6.064   4.303   0.394 -0.7419 -0.3916  0.6691
 3363SOL     OW13217   1.615   2.714   6.241  0.5489 -0.0536  0.2437
 3363SOL    HW213218   1.710   2.708   6.240  0.5992 -0.1074 -2.7290
 3363SOL    HW313219   1.586   2.644   6.182 -1.0576  2.3676 -2.0628
 3363SOL    MW413220   1.624   2.704   6.233  0.0685 -0.0384  0.1751
 3364SOL     OW13221   6.111   5.142   2.249 -0.4180  0.4144  0.8222
 3364SOL    HW213222   6.170   5.079   2.207 -0.8292 -0.0957  0.9970
 3364SOL    HW313223   6.092   5.104   2.335 -0.1646  1.0952  1.1852
 3364SOL    MW413224   6.116   5.128   2.255  0.3155 -0.0734 -0.3256
 3365SOL     OW13225   5.224   2.142   3.970  0.1517 -0.3012 -0.2484
 3365SOL    HW213226   5.184   2.058   3.947 -1.0611 -0.0374  0.7793
 3365SOL    HW313227   5.295   2.119   4.030 -1.1246 -0.5207  1.2240
 3365SOL    MW413228   5.228   2.128   3.975  0.1813  0.6883 -0.3079
 3366SOL     OW13229   0.729   1.983   0.824  0.1639 -0.4547 -0.0675
 3366SOL    HW213230   0.635   2.003   0.823  0.2058 -0.0931  1.4794
 3366SOL    HW313231   0.741   1.930   0.902  1.4990  0.8203  0.6267
 3366SOL    MW413232   0.718   1.979   0.834 -0.5242 -0.5550  0.0353
 3367SOL     OW13233   6.217   3.046   3.093  0.7025 -0.0259  0.2008
 3367SOL    HW213234   6.231   3.081   3.181  1.4063  0.4682 -0.0908
 3367SOL    HW313235   6.305   3.022   3.063  0.1673 -3.1754  0.8011
 3367SOL    MW413236   6.231   3.048   3.100 -0.2350  0.0344  0.5476
 3368SOL     OW13237   5.285   0.609   2.887  0.4482 -0.7261  0.0243
 3368SOL    HW213238   5.303   0.529   2.838  0.1188 -0.6947 -0.1550
 3368SOL    HW313239   5.323   0.594   2.973  2.0155 -0.3483 -0.5714
 3368SOL    MW413240   5.292   0.596   2.892 -0.2716  0.0076 -0.2711
 3369SOL     OW13241   2.913   5.945   5.982  0.1685 -0.3170 -0.6301
 3369SOL    HW213242   2.833   5.901   6.011  0.0676  0.2208 -0.0815
 3369SOL    HW313243   2.946   5.989   6.060  0.6396  0.0154 -1.0120
 3369SOL    MW413244   2.907   5.945   5.996 -0.0663  0.2514  0.2500
 3370SOL     OW13245   4.075   5.418   1.712 -0.2907  0.5223 -0.2291
 3370SOL    HW213246   4.060   5.327   1.687 -1.1979  0.8262 -0.8363
 3370SOL    HW313247   4.023   5.469   1.649  0.2375  1.4589  0.0767
 3370SOL    MW413248   4.066   5.413   1.700 -0.3963  0.1215 -0.0617
 3371SOL     OW13249   5.771   4.465   2.648 -0.6454 -0.0952 -0.0158
 3371SOL    HW213250   5.795   4.476   2.740  0.4838  0.1123 -0.3149
 3371SOL    HW313251   5.855   4.457   2.602 -1.2033 -0.6607 -0.9747
 3371SOL    MW413252   5.785   4.466   2.654 -0.2496  0.1849 -0.3148
 3372SOL     OW13253   1.524   3.497   4.098 -0.2990  0.4440 -0.1228
 3372SOL    HW213254   1.565   3.455   4.022  0.0939 -2.2683  1.4428
 3372SOL    HW313255   1.592   3.495   4.166 -0.4889  3.1791  0.2791
 3372SOL    MW413256   1.539   3.491   4.097  0.4552  0.0355 -0.0020
 3373SOL     OW13257   2.842   5.465   3.601  0.0806  0.1105  0.7137
 3373SOL    HW213258   2.825   5.559   3.606  1.9467  0.5181  0.1106
 3373SOL    HW313259   2.918   5.457   3.544 -0.4988 -1.8462  0.1314
 3373SOL    MW413260   2.850   5.476   3.594  0.2045 -0.5160 -0.7527
 3374SOL     OW13261   5.946   1.990   5.070 -0.4049 -0.1456 -0.1613
 3374SOL    HW213262   5.878   2.019   5.131 -0.7936  1.9115 -1.4639
 3374SOL    HW313263   5.925   1.899   5.051 -1.7350 -0.0777  0.8589
 3374SOL    MW413264   5.935   1.982   5.076  0.4936  0.3197  0.3526
 3375SOL     OW13265   1.228   3.536   5.538 -0.7645  0.1789  0.4630
 3375SOL    HW213266   1.266   3.571   5.458 -1.8470 -2.0174 -1.0918
 3375SOL    HW313267   1.283   3.572   5.608 -0.1661  2.6603 -1.1475
 3375SOL    MW413268   1.240   3.546   5.537 -0.2614  0.6413  0.1212
 3376SOL     OW13269   2.685   1.621   2.591 -0.1447  0.1106  0.6154
 3376SOL    HW213270   2.627   1.547   2.609  1.4742 -1.8407 -1.5763
 3376SOL    HW313271   2.772   1.592   2.618  0.5475  1.1729 -0.3536
 3376SOL    MW413272   2.689   1.608   2.597  0.0340 -0.2749  0.4683
 3377SOL     OW13273   5.190   5.225   6.355  0.0433 -0.1558  0.3923
 3377SOL    HW213274   5.157   5.171   6.284 -0.2623 -0.2260  0.5848
 3377SOL    HW313275   5.231   5.163   6.415 -2.3669 -0.5127  1.7947
 3377SOL    MW413276   5.191   5.210   6.354  0.2022 -0.0174 -0.2497
 3378SOL     OW13277   2.207   4.448   2.186 -0.3720 -0.5875  0.6164
 3378SOL    HW213278   2.174   4.393   2.257  0.2704 -2.6523 -0.6043
 3378SOL    HW313279   2.227   4.386   2.115 -0.6963  1.3604 -1.2631
 3378SOL    MW413280   2.205   4.432   2.186  0.2413 -0.4618 -0.7155
 3379SOL     OW13281   3.608   6.385   1.248  0.1953  0.2971 -0.0795
 3379SOL    HW213282   3.699   6.373   1.276 -0.0929 -0.6081  0.5190
 3379SOL    HW313283   3.615   6.423   1.160  1.1239  4.1888  1.4730
 3379SOL    MW413284   3.621   6.388   1.240  0.1298 -0.3942  0.0955
 3380SOL     OW13285   4.213   2.091   6.137  0.0642 -0.0195  0.5315
 3380SOL    HW213286   4.241   2.145   6.211  0.9700 -1.7175  1.5022
 3380SOL    HW313287   4.273   2.017   6.138 -0.0168 -0.1970 -1.8250
 3380SOL    MW413288   4.225   2.089   6.147 -0.5649 -0.2732 -0.3987
 3381SOL     OW13289   4.034   0.712   2.004 -0.6308  0.1420  0.0852
 3381SOL    HW213290   4.101   0.778   2.018 -1.0798  0.3875  1.2010
 3381SOL    HW313291   3.981   0.746   1.931  0.3630 -0.0029 -0.7221
 3381SOL    MW413292   4.036   0.725   1.996  0.7512  0.3502 -1.0265
 3382SOL     OW13293   4.659   3.834   1.685  0.2832  0.7094  0.0821
 3382SOL    HW213294   4.750   3.820   1.709  0.2860 -0.2471 -0.4332
 3382SOL    HW313295   4.646   3.780   1.607 -1.3253 -1.0363  1.4620
 3382SOL    MW413296   4.669   3.825   1.678 -0.0971 -0.0242  0.4426
 3383SOL     OW13297   0.767   6.193   0.910 -0.2454 -0.6612 -0.2655
 3383SOL    HW213298   0.772   6.288   0.914  1.0786 -0.7369  0.6248
 3383SOL    HW313299   0.722   6.174   0.828 -2.7080  0.7624  0.6706
 3383SOL    MW413300   0.762   6.203   0.900  0.7073  0.0030 -0.1154
 3384SOL     OW13301   2.436   5.827   1.194  0.0355  0.3290  0.2428
 3384SOL    HW213302   2.489   5.759   1.236 -1.9853 -0.6441  1.3702
 3384SOL    HW313303   2.431   5.897   1.259  0.0115  0.4399  0.1206
 3384SOL    MW413304   2.442   5.827   1.208  0.0492 -0.0291  0.0380
 3385SOL     OW13305   0.645   5.417   3.531 -0.5300 -0.0521  0.1981
 3385SOL    HW213306   0.702   5.377   3.597  0.2737  0.6407 -0.0493
 3385SOL    HW313307   0.681   5.386   3.447  0.2957  1.3588 -0.0132
 3385SOL    MW413308   0.657   5.408   3.528 -0.1397 -0.6914  0.3737
 3386SOL     OW13309   1.345   5.028   3.721  0.5194 -0.4085 -0.2626
 3386SOL    HW213310   1.419   5.088   3.732 -0.9320  1.3453  0.5523
 3386SOL    HW313311   1.337   4.985   3.806 -0.6887  1.0405  0.4023
 3386SOL    MW413312   1.354   5.030   3.734 -0.3167 -0.2653  0.3444
 3387SOL     OW13313   3.353   4.229   0.512 -0.4708  0.0824  0.0294
 3387SOL    HW213314   3.371   4.310   0.465  0.6226 -0.1577  0.0136
 3387SOL    HW313315   3.262   4.208   0.489  0.1519 -0.2773 -2.3956
 3387SOL    MW413316   3.344   4.237   0.502 -0.1616 -0.1098  0.4835
 3388SOL     OW13317   4.427   6.296   3.646 -0.2405 -0.1514  0.0835
 3388SOL    HW213318   4.414   6.387   3.673  0.5792 -0.1141  0.3841
 3388SOL    HW313319   4.520   6.280   3.661 -0.1644 -0.7281 -0.9080
 3388SOL    MW413320   4.438   6.306   3.651  0.3827 -0.7891  0.4821
 3389SOL     OW13321   5.196   0.701   5.344  0.0823  0.2186 -0.2281
 3389SOL    HW213322   5.272   0.649   5.317 -0.0976  1.0762 -2.6055
 3389SOL    HW313323   5.145   0.641   5.399  0.5600 -1.6993 -1.7596
 3389SOL    MW413324   5.199   0.686   5.347  0.2618 -0.5258  0.1612
 3390SOL     OW13325   3.424   0.874   3.345  0.4293  0.4037  0.5651
 3390SOL    HW213326   3.391   0.957   3.380 -1.2261 -1.0422  2.7258
 3390SOL    HW313327   3.497   0.851   3.403 -1.4339 -1.3205  2.4182
 3390SOL    MW413328   3.430   0.882   3.357 -0.0662 -0.0821  0.3533
 3391SOL     OW13329   1.927   0.769   5.087  0.5313  0.3975 -0.0006
 3391SOL    HW213330   1.844   0.731   5.117  0.9967  0.3248  1.2496
 3391SOL    HW313331   1.933   0.743   4.995  0.0118 -1.1164  0.3641
 3391SOL    MW413332   1.917   0.760   5.079  0.0486 -0.2721  0.1160
 3392SOL     OW13333   2.840   2.849   4.039  0.1613  0.0022 -0.1978
 3392SOL    HW213334   2.843   2.754   4.048  1.4861  0.0825  0.3637
 3392SOL    HW313335   2.877   2.866   3.952 -2.1561 -0.0899 -1.2833
 3392SOL    MW413336   2.845   2.838   4.029 -0.0777  0.8694 -0.2724
 3393SOL     OW13337   0.083   4.076   5.523  0.1161 -0.0663 -0.6748
 3393SOL    HW213338   0.001   4.113   5.554 -0.3172 -1.0619 -0.6031
 3393SOL    HW313339   0.097   3.998   5.577  0.3270 -0.7475 -1.6805
 3393SOL    MW413340   0.074   4.071   5.534  0.0767  0.1018 -0.8253
 3394SOL     OW13341   1.537   0.269   0.543 -0.3472 -0.2674 -0.1824
 3394SOL    HW213342   1.540   0.180   0.579  0.2110  0.6885  2.3215
 3394SOL    HW313343   1.452   0.304   0.572  0.3989  0.7583  0.8561
 3394SOL    MW413344   1.526   0.262   0.551 -0.0824  0.7085 -0.4764
 3395SOL     OW13345   3.939   1.918   2.728 -0.3226 -0.6490 -0.1416
 3395SOL    HW213346   3.907   1.995   2.775 -2.0177 -1.6790  0.4874
 3395SOL    HW313347   3.878   1.908   2.655  0.1537 -1.1597 -0.4782
 3395SOL    MW413348   3.927   1.927   2.725 -0.4519  0.4440  0.4538
 3396SOL     OW13349   3.749   5.158   0.124  0.0779 -0.7442 -0.2563
 3396SOL    HW213350   3.795   5.108   0.192 -0.9414  0.7594  1.6405
 3396SOL    HW313351   3.814   5.220   0.091 -0.2246  0.7810  1.7992
 3396SOL    MW413352   3.764   5.159   0.129 -0.0894 -0.4678 -0.7396
 3397SOL     OW13353   5.023   3.706   3.256  0.0887  0.0213 -0.3038
 3397SOL    HW213354   5.071   3.624   3.244 -0.1267 -0.4011  1.4348
 3397SOL    HW313355   4.956   3.705   3.189  1.2778 -0.3023 -1.5406
 3397SOL    MW413356   5.021   3.695   3.246 -0.1360  0.1147 -0.5563
 3398SOL     OW13357   1.196   1.219   3.385  0.2188  0.0597 -0.0868
 3398SOL    HW213358   1.289   1.220   3.406 -0.0944 -1.6828  1.7626
 3398SOL    HW313359   1.170   1.127   3.397 -1.5392  0.2854 -1.6069
 3398SOL    MW413360   1.205   1.207   3.389  0.0049  0.6580  0.0674
 3399SOL     OW13361   0.191   3.076   3.256  0.4843 -0.0463  0.1746
 3399SOL    HW213362   0.195   3.155   3.310  1.6788  0.1974 -0.2333
 3399SOL    HW313363   0.266   3.084   3.196 -0.9475 -0.1602 -1.7370
 3399SOL    MW413364   0.201   3.087   3.255  0.1973 -0.2878 -0.1870
 3400SOL     OW13365   3.965   2.446   0.432  0.0086 -0.4154  0.3890
 3400SOL    HW213366   3.996   2.396   0.508  0.8408  0.1361  0.4162
 3400SOL    HW313367   4.039   2.449   0.372 -0.2513  0.2128  0.0903
 3400SOL    MW413368   3.979   2.440   0.434  0.3295  0.0796  0.1559
 3401SOL     OW13369   3.222   0.649   1.835 -0.0086  0.2271  0.0351
 3401SOL    HW213370   3.189   0.684   1.752  1.1852 -0.8463 -0.9512
 3401SOL    HW313371   3.166   0.574   1.853 -0.0608  0.2631  0.0229
 3401SOL    MW413372   3.210   0.644   1.826 -0.6017 -0.1428 -0.5907
 3402SOL     OW13373   5.983   2.286   0.952 -0.1280 -0.4997 -0.0153
 3402SOL    HW213374   5.895   2.315   0.977  0.5258  1.9981 -0.3490
 3402SOL    HW313375   6.011   2.348   0.885  2.5261 -0.1428  1.2654
 3402SOL    MW413376   5.975   2.298   0.946 -0.0754 -0.0957 -0.0202
 3403SOL     OW13377   5.505   1.463   4.353 -0.1235 -0.3353 -0.0789
 3403SOL    HW213378   5.508   1.471   4.449  0.6055 -1.5057  0.0195
 3403SOL    HW313379   5.595   1.482   4.326 -0.3202 -0.0553 -0.5377
 3403SOL    MW413380   5.517   1.467   4.362 -0.4073  0.1371 -0.0599
 3404SOL     OW13381   0.498   2.638   0.919 -0.2023  0.6295  0.5885
 3404SOL    HW213382   0.474   2.660   1.009  2.9783  2.9280  1.0155
 3404SOL    HW313383   0.538   2.718   0.884  1.4913 -1.1313 -1.8267
 3404SOL    MW413384   0.500   2.652   0.926 -0.1768 -0.2135  0.0116
 3405SOL     OW13385   2.369   5.716   5.892 -0.2067  0.3052 -0.1359
 3405SOL    HW213386   2.447   5.751   5.850  0.4923 -0.4647  0.4786
 3405SOL    HW313387   2.399   5.637   5.937 -1.0646  0.6954  1.2016
 3405SOL    MW413388   2.383   5.710   5.893  0.3656 -0.0732  0.4267
 3406SOL     OW13389   5.627   0.521   5.733 -0.6411 -0.3043 -0.1962
 3406SOL    HW213390   5.600   0.447   5.787  0.4948 -0.5587  0.0411
 3406SOL    HW313391   5.609   0.598   5.786  2.1379 -0.6188  1.3572
 3406SOL    MW413392   5.621   0.521   5.747 -0.2910  0.6888 -0.3258
 3407SOL     OW13393   5.918   2.642   4.210  0.1883 -0.2080 -0.1187
 3407SOL    HW213394   5.885   2.683   4.290  1.3006 -0.2859  0.4068
 3407SOL    HW313395   5.968   2.711   4.167 -3.1248  0.8928 -2.5361
 3407SOL    MW413396   5.920   2.656   4.215 -0.2831 -0.6902  0.0153
 3408SOL     OW13397   2.442   3.052   3.460 -0.9109 -0.5482 -0.6595
 3408SOL    HW213398   2.393   3.098   3.528 -0.3249 -0.0170 -0.5809
 3408SOL    HW313399   2.463   3.121   3.396 -1.4527 -1.0378 -1.3845
 3408SOL    MW413400   2.438   3.067   3.461  0.4345 -0.0432 -0.1490
 3409SOL     OW13401   3.365   1.398   3.622 -0.0914 -0.0210 -0.6411
 3409SOL    HW213402   3.459   1.408   3.636 -0.2121  1.4336 -0.7647
 3409SOL    HW313403   3.328   1.483   3.643 -1.3062 -0.3610 -1.3134
 3409SOL    MW413404   3.372   1.410   3.627  0.3766 -0.2613 -0.8297
 3410SOL     OW13405   0.775   3.027   4.728  0.5152  0.0900 -0.2190
 3410SOL    HW213406   0.760   2.943   4.685  0.1260  0.2863 -0.4686
 3410SOL    HW313407   0.869   3.029   4.745  0.4187 -0.7617  0.5413
 3410SOL    MW413408   0.785   3.016   4.725  0.2378  0.9891  0.4440
 3411SOL     OW13409   4.751   3.453   2.476  0.0531 -0.0454 -0.2374
 3411SOL    HW213410   4.666   3.411   2.491  0.5999 -1.1519 -0.1315
 3411SOL    HW313411   4.785   3.411   2.397  0.2948  0.7370 -0.5596
 3411SOL    MW413412   4.744   3.442   2.467  0.5042  0.1523  0.0884
 3412SOL     OW13413   2.863   1.917   0.627 -0.3388  0.1854  0.3206
 3412SOL    HW213414   2.915   1.842   0.654  0.1858  0.4061 -0.0455
 3412SOL    HW313415   2.777   1.880   0.605  0.0214 -0.3695 -0.2086
 3412SOL    MW413416   2.859   1.902   0.627  0.2811  0.1483 -0.2249
 3413SOL     OW13417   4.666   2.490   0.651 -0.1254 -0.4331 -0.1053
 3413SOL    HW213418   4.618   2.417   0.690 -0.3722  0.8741  2.2627
 3413SOL    HW313419   4.742   2.502   0.708 -0.5476  1.6387  0.1157
 3413SOL    MW413420   4.670   2.482   0.664  0.1890 -0.5429 -0.6461
 3414SOL     OW13421   1.483   2.770   2.448 -0.8726  0.6064 -0.2316
 3414SOL    HW213422   1.397   2.804   2.425  0.2497  2.2267 -2.5456
 3414SOL    HW313423   1.514   2.728   2.367 -0.0760 -1.3288  1.0174
 3414SOL    MW413424   1.476   2.769   2.434  0.1418 -0.2795  0.1896
 3415SOL     OW13425   4.667   6.342   5.387 -0.2183 -0.1816  0.4458
 3415SOL    HW213426   4.754   6.380   5.401  0.7228 -1.8456 -0.5174
 3415SOL    HW313427   4.682   6.248   5.389 -1.6573 -0.5119 -1.5747
 3415SOL    MW413428   4.680   6.335   5.389 -0.2467 -0.1786 -0.1877
 3416SOL     OW13429   3.281   0.209   5.747 -0.3492 -0.1443 -0.1516
 3416SOL    HW213430   3.221   0.181   5.678  1.6577 -1.2806 -1.5414
 3416SOL    HW313431   3.321   0.128   5.778  0.0205  0.5198  1.1803
 3416SOL    MW413432   3.278   0.195   5.742  0.7174  0.0999  0.8858
 3417SOL     OW13433   0.195   1.479   1.407 -0.0066  0.0884  0.2136
 3417SOL    HW213434   0.162   1.476   1.497  0.7420  0.0904  0.4944
 3417SOL    HW313435   0.251   1.556   1.405  1.6762 -1.0792  0.3625
 3417SOL    MW413436   0.198   1.488   1.419  0.3765 -0.4135  0.3169
 3418SOL     OW13437   0.472   2.390   1.992 -0.0031 -0.4033 -0.7222
 3418SOL    HW213438   0.389   2.345   1.975  0.0105 -0.8571  0.3817
 3418SOL    HW313439   0.535   2.347   1.933 -0.4295 -0.4402 -1.1524
 3418SOL    MW413440   0.470   2.378   1.982 -0.0776  0.1250 -0.1969
 3419SOL     OW13441   1.172   6.292   5.434  0.1271  0.0401 -0.2833
 3419SOL    HW213442   1.134   6.340   5.361 -0.3179 -0.7931 -0.6129
 3419SOL    HW313443   1.191   6.359   5.500  1.8207  1.0206 -1.6680
 3419SOL    MW413444   1.170   6.307   5.433  0.0605  0.0233  0.4047
 3420SOL     OW13445   6.201   6.111   6.351 -0.1886  0.0294  0.7610
 3420SOL    HW213446   6.233   6.021   6.346 -0.5614 -0.0231 -1.9593
 3420SOL    HW313447   6.270   6.164   6.309 -0.9451  0.7114  0.3460
 3420SOL    MW413448   6.215   6.106   6.345  0.5096  0.4889  0.1618
 3421SOL     OW13449   2.144   3.812   4.006  0.2668 -0.2947 -0.2600
 3421SOL    HW213450   2.150   3.834   3.913  1.7785  0.2258 -0.0604
 3421SOL    HW313451   2.056   3.776   4.016  0.6821 -2.0177 -2.2350
 3421SOL    MW413452   2.133   3.810   3.995  0.1262 -0.4188 -0.1496
 3422SOL     OW13453   4.165   1.890   2.383  0.1070 -0.1744 -0.7637
 3422SOL    HW213454   4.139   1.832   2.311 -0.7732 -0.9545  0.1531
 3422SOL    HW313455   4.100   1.961   2.380 -0.2721 -0.5071 -0.3797
 3422SOL    MW413456   4.153   1.892   2.373  0.3385 -0.2940  0.5445
 3423SOL     OW13457   5.106   3.967   0.940  0.7834  0.2197  0.5018
 3423SOL    HW213458   5.147   3.902   0.883  0.0261 -0.8344  1.1326
 3423SOL    HW313459   5.170   3.982   1.009  0.1519 -1.4438  1.5014
 3423SOL    MW413460   5.120   3.960   0.941 -0.0716  0.4753 -0.3945
 3424SOL     OW13461   0.459   5.578   4.790  0.3573  0.1332 -0.1385
 3424SOL    HW213462   0.410   5.524   4.727 -0.2037 -1.1241  1.3068
 3424SOL    HW313463   0.492   5.516   4.854  2.3583  1.1858 -0.0717
 3424SOL    MW413464   0.457   5.563   4.790  0.2294  0.5344 -0.4869
 3425SOL     OW13465   2.939   4.370   0.157  0.6528 -0.6145 -0.1933
 3425SOL    HW213466   2.946   4.310   0.083  2.6431  0.0178 -0.5639
 3425SOL    HW313467   2.846   4.367   0.180  0.5399 -3.3038 -0.6105
 3425SOL    MW413468   2.927   4.361   0.150 -0.3567  0.1090  0.0464
 3426SOL     OW13469   5.591   0.404   2.700  0.2081 -0.0407 -0.0724
 3426SOL    HW213470   5.589   0.308   2.700  2.9241 -0.1836  0.8439
 3426SOL    HW313471   5.546   0.429   2.619  0.0669 -2.1093 -0.6873
 3426SOL    MW413472   5.585   0.395   2.689 -0.2235 -0.5204  0.2665
 3427SOL     OW13473   5.410   0.540   3.724  0.1764 -0.1946  0.2113
 3427SOL    HW213474   5.422   0.597   3.648  0.1159  0.4097  0.6529
 3427SOL    HW313475   5.338   0.483   3.700 -0.5325  0.6809  0.2097
 3427SOL    MW413476   5.402   0.540   3.711  0.0065  0.7293 -0.3381
 3428SOL     OW13477   1.105   4.386   3.478  0.6963 -0.0365  0.4302
 3428SOL    HW213478   1.093   4.430   3.563 -0.4797  0.2915  0.1226
 3428SOL    HW313479   1.045   4.432   3.419  0.5785 -1.0622 -0.2809
 3428SOL    MW413480   1.095   4.398   3.482  0.2024 -0.1834  0.1981
 3429SOL     OW13481   2.552   3.238   0.660 -0.1744 -0.4917  0.5197
 3429SOL    HW213482   2.523   3.309   0.718 -1.2543  0.5997 -1.2771
 3429SOL    HW313483   2.473   3.207   0.617  0.8767  1.1256 -2.9350
 3429SOL    MW413484   2.538   3.244   0.662  0.8708 -0.0813  0.0320
 3430SOL     OW13485   3.833   4.983   6.326  0.7988 -0.2044  0.6136
 3430SOL    HW213486   3.915   4.982   6.376  1.7348  2.6528 -0.6482
 3430SOL    HW313487   3.777   5.045   6.372  1.0264  1.1327 -0.8005
 3430SOL    MW413488   3.837   4.991   6.338 -0.3316 -0.2528 -0.0148
 3431SOL     OW13489   4.684   4.527   3.830 -0.6504 -1.0439  0.0419
 3431SOL    HW213490   4.621   4.587   3.790 -1.1067 -1.8610 -0.4985
 3431SOL    HW313491   4.652   4.512   3.919  0.8876  1.5441  1.1393
 3431SOL    MW413492   4.672   4.533   3.836  0.4217 -0.5164 -0.2348
 3432SOL     OW13493   1.295   2.103   1.475  0.3114  0.9873 -0.4472
 3432SOL    HW213494   1.301   2.096   1.570  0.8600  0.9214 -0.4876
 3432SOL    HW313495   1.222   2.164   1.460  0.5403  1.3798  0.0236
 3432SOL    MW413496   1.286   2.110   1.485  0.1044 -0.0138 -0.4351
 3433SOL     OW13497   3.097   2.911   2.367 -0.1780 -0.0370  0.0846
 3433SOL    HW213498   3.113   3.005   2.365  0.8595 -0.1193 -4.4470
 3433SOL    HW313499   3.179   2.873   2.397  1.1239  0.4449 -2.5886
 3433SOL    MW413500   3.110   2.918   2.371  0.0006  0.2759  0.2115
 3434SOL     OW13501   1.417   5.073   5.850 -0.2898  0.3021 -0.5397
 3434SOL    HW213502   1.358   5.013   5.803  0.3732 -1.5696  0.8882
 3434SOL    HW313503   1.499   5.070   5.801 -0.9468  1.9383 -1.8146
 3434SOL    MW413504   1.420   5.065   5.838 -0.0813  0.2032  0.0420
 3435SOL     OW13505   3.986   3.658   2.317 -0.0222 -0.1411 -0.2877
 3435SOL    HW213506   3.952   3.674   2.405 -0.0122  0.6432 -0.4168
 3435SOL    HW313507   3.928   3.708   2.259 -1.5871 -2.5794 -1.0284
 3435SOL    MW413508   3.974   3.667   2.321 -0.3114  0.2510  0.3817
 3436SOL     OW13509   3.272   3.345   1.760 -0.6294 -0.4711 -0.1632
 3436SOL    HW213510   3.302   3.254   1.752 -0.2490 -0.3796  0.1990
 3436SOL    HW313511   3.209   3.355   1.689  1.5042 -0.1268 -2.1234
 3436SOL    MW413512   3.267   3.334   1.750  0.1207 -0.5014  0.5348
 3437SOL     OW13513   1.594   5.721   5.281 -0.2508 -0.5994  0.5363
 3437SOL    HW213514   1.609   5.718   5.376  1.8457 -1.8520  0.2113
 3437SOL    HW313515   1.499   5.727   5.273 -0.4862 -0.5130  2.7041
 3437SOL    MW413516   1.583   5.722   5.293  0.2713  0.0755 -0.1630
 3438SOL     OW13517   1.385   1.325   0.713 -0.3376 -0.1746  0.4300
 3438SOL    HW213518   1.354   1.247   0.667 -2.6686  0.7215  0.3359
 3438SOL    HW313519   1.331   1.396   0.679  1.0445  1.3307  1.2339
 3438SOL    MW413520   1.374   1.324   0.702  0.0274 -0.0238  0.0341
 3439SOL     OW13521   4.970   3.053   6.090 -0.2927 -0.1499  0.1376
 3439SOL    HW213522   5.001   3.098   6.169 -1.4248  0.7752  0.0916
 3439SOL    HW313523   4.957   3.124   6.027 -0.8563 -0.7041 -0.3716
 3439SOL    MW413524   4.972   3.068   6.092  0.3819 -0.0573 -0.0143
 3440SOL     OW13525   4.380   4.142   0.204  0.4320 -0.1341 -0.2939
 3440SOL    HW213526   4.433   4.186   0.270  0.1247  1.3289 -0.9782
 3440SOL    HW313527   4.306   4.105   0.252  2.0438 -2.2620  0.6852
 3440SOL    MW413528   4.377   4.143   0.219 -0.0024 -0.5790 -0.5207
 3441SOL     OW13529   2.582   1.737   5.691  0.3516  0.3024 -0.0426
 3441SOL    HW213530   2.607   1.827   5.708  0.5709  0.0805  0.8690
 3441SOL    HW313531   2.491   1.742   5.661 -0.3020  0.6947  1.8618
 3441SOL    MW413532   2.573   1.749   5.690  0.0605 -0.0874 -0.2772
 3442SOL     OW13533   4.688   3.119   5.400 -0.2394 -0.2501  0.2215
 3442SOL    HW213534   4.719   3.028   5.403 -0.3522 -0.3036 -0.1491
 3442SOL    HW313535   4.758   3.166   5.355 -0.6161 -0.3409 -0.4702
 3442SOL    MW413536   4.701   3.113   5.394  0.1441 -0.1433  0.7135
 3443SOL     OW13537   0.036   1.689   6.102 -0.4235  0.3036 -0.3923
 3443SOL    HW213538   0.027   1.706   6.196  0.8114  0.4656 -0.2882
 3443SOL    HW313539   0.041   1.776   6.062 -1.3190  0.2419 -0.6642
 3443SOL    MW413540   0.035   1.703   6.109  0.6115  0.2894  0.4046
 3444SOL     OW13541   4.220   0.768   0.168 -0.1900  0.3237 -0.3967
 3444SOL    HW213542   4.222   0.841   0.230  0.8930  1.4396 -1.6883
 3444SOL    HW313543   4.128   0.761   0.142 -1.0868 -1.5126  2.7815
 3444SOL    MW413544   4.208   0.777   0.173  0.8177  0.1580  0.4802
 3445SOL     OW13545   4.987   0.354   0.421  0.0979  0.1069  0.1599
 3445SOL    HW213546   4.981   0.434   0.369 -1.9128  0.0963  0.3154
 3445SOL    HW313547   4.903   0.310   0.408  0.8821 -1.6333  0.6597
 3445SOL    MW413548   4.975   0.359   0.412 -0.1335 -0.3125 -0.1505
 3446SOL     OW13549   1.368   2.345   3.971 -0.3845  0.0908 -0.4164
 3446SOL    HW213550   1.338   2.255   3.988 -0.5252  0.2035 -0.0664
 3446SOL    HW313551   1.395   2.344   3.879 -0.2138 -0.3589 -0.3634
 3446SOL    MW413552   1.367   2.333   3.961 -0.2844  0.1090  0.5569
 3447SOL     OW13553   1.172   5.054   5.973  0.1543 -0.1937 -0.1278
 3447SOL    HW213554   1.172   5.020   6.063 -0.3852 -1.5310 -0.6169
 3447SOL    HW313555   1.262   5.084   5.959 -0.1806  1.7643  1.4684
 3447SOL    MW413556   1.184   5.053   5.983  0.4144 -0.2345 -0.1366
 3448SOL     OW13557   1.414   1.339   2.680 -0.3988 -0.3637 -0.5722
 3448SOL    HW213558   1.331   1.385   2.686  0.0866  0.6119 -1.1657
 3448SOL    HW313559   1.446   1.357   2.591  1.0516  0.3532  0.0606
 3448SOL    MW413560   1.408   1.347   2.669  0.2853 -0.6478 -0.6581
 3449SOL     OW13561   1.145   2.461   0.958 -0.0052  0.4540  0.2171
 3449SOL    HW213562   1.238   2.459   0.936 -0.4760  1.8250 -2.2519
 3449SOL    HW313563   1.142   2.490   1.049  1.9694  0.0663  0.4387
 3449SOL    MW413564   1.157   2.465   0.967 -0.0573  0.0427 -0.0539
 3450SOL     OW13565   0.840   2.351   5.179  0.1591  0.0192  0.0412
 3450SOL    HW213566   0.879   2.267   5.204 -0.5386  0.0080  1.1628
 3450SOL    HW313567   0.888   2.416   5.230 -0.6503  0.0917  0.7286
 3450SOL    MW413568   0.851   2.348   5.189 -0.7397 -0.3451  0.5798
 3451SOL     OW13569   0.948   6.377   4.088  0.3329 -0.7426  0.2160
 3451SOL    HW213570   0.912   6.455   4.046  0.7835  0.0829  1.3302
 3451SOL    HW313571   1.024   6.355   4.034 -0.2284 -0.8718 -0.5415
 3451SOL    MW413572   0.954   6.384   4.075  0.3015  0.5184 -0.3298
 3452SOL     OW13573   5.120   6.293   1.730 -0.4891 -0.4151  0.5349
 3452SOL    HW213574   5.103   6.298   1.636  0.4783 -0.7959  0.3321
 3452SOL    HW313575   5.057   6.228   1.762  0.3364 -1.5919 -0.1563
 3452SOL    MW413576   5.109   6.285   1.722 -0.7687  0.3030  0.0073
 3453SOL     OW13577   0.664   5.402   0.558 -0.1019 -0.0292  0.4092
 3453SOL    HW213578   0.584   5.450   0.541  0.0659 -0.0036 -0.3145
 3453SOL    HW313579   0.648   5.357   0.642 -0.5449  0.6491  0.6935
 3453SOL    MW413580   0.652   5.402   0.567  0.0885  0.4503 -0.4392
 3454SOL     OW13581   0.070   1.821   3.902  0.1637 -0.0173  0.0779
 3454SOL    HW213582   0.165   1.830   3.893  0.1584  0.3458  0.3419
 3454SOL    HW313583   0.058   1.783   3.989  0.0777 -0.3172 -0.0651
 3454SOL    MW413584   0.081   1.817   3.913  0.2444 -0.5758  0.1297
 3455SOL     OW13585   5.166   5.988   0.352  0.7006 -0.0179  0.3541
 3455SOL    HW213586   5.082   5.954   0.323  1.0775 -0.7042  0.0416
 3455SOL    HW313587   5.228   5.957   0.286  1.6630 -2.0417  2.0900
 3455SOL    MW413588   5.163   5.980   0.339  0.1485 -0.7137  0.2488
 3456SOL     OW13589   4.853   2.918   1.296  0.5488  0.2605 -0.2555
 3456SOL    HW213590   4.856   2.879   1.209  1.6836 -1.1022  0.3488
 3456SOL    HW313591   4.809   2.853   1.351  1.3981  0.3248  0.5309
 3456SOL    MW413592   4.848   2.904   1.292 -0.0537  0.0253 -0.1745
 3457SOL     OW13593   0.611   4.594   5.474 -0.0383 -0.5820 -0.3883
 3457SOL    HW213594   0.642   4.605   5.383  0.8828  1.4778  0.1123
 3457SOL    HW313595   0.525   4.635   5.475 -0.1692 -0.8564 -0.3908
 3457SOL    MW413596   0.604   4.601   5.462 -0.6000 -0.0468  0.1297
 3458SOL     OW13597   4.979   0.678   5.811 -0.3384  0.2298  0.0379
 3458SOL    HW213598   5.014   0.756   5.855  3.8974 -0.3106 -1.8875
 3458SOL    HW313599   4.953   0.710   5.725  3.2729 -0.4868 -1.5339
 3458SOL    MW413600   4.980   0.693   5.805 -1.0312  0.1749 -0.0723
 3459SOL     OW13601   5.569   0.654   5.512 -0.5964 -0.2099 -0.2174
 3459SOL    HW213602   5.603   0.604   5.586  1.6706  2.5115  0.7335
 3459SOL    HW313603   5.637   0.646   5.445 -1.3749 -0.3925 -1.0071
 3459SOL    MW413604   5.582   0.646   5.513  0.0678  0.1993 -0.2492
 3460SOL     OW13605   3.838   0.903   0.921 -0.4693 -0.1145 -0.0458
 3460SOL    HW213606   3.931   0.916   0.939 -1.2898  3.5333  2.8922
 3460SOL    HW313607   3.820   0.814   0.950  1.9569 -0.7537 -0.2552
 3460SOL    MW413608   3.848   0.893   0.927 -0.4938 -0.3575 -0.2388
 3461SOL     OW13609   5.541   2.104   2.710 -0.0215  0.2840 -0.0711
 3461SOL    HW213610   5.475   2.111   2.641  0.3660 -0.5211 -0.5401
 3461SOL    HW313611   5.611   2.052   2.671  1.5331  2.2314 -0.0585
 3461SOL    MW413612   5.542   2.098   2.696  0.9170  0.5844 -0.5039
 3462SOL     OW13613   1.975   6.191   4.030 -0.4944  0.4577  0.2845
 3462SOL    HW213614   2.021   6.175   4.112 -1.2170  0.3231  0.6687
 3462SOL    HW313615   1.934   6.277   4.043 -0.3564  0.5760 -0.0556
 3462SOL    MW413616   1.976   6.201   4.042 -0.2249  0.3605  0.3591
 3463SOL     OW13617   2.059   2.202   2.546 -0.2691 -0.1836 -0.0598
 3463SOL    HW213618   2.015   2.255   2.613  0.0661  0.6854 -0.5228
 3463SOL    HW313619   2.016   2.227   2.464  1.4483  1.0978 -0.6065
 3463SOL    MW413620   2.047   2.212   2.544  0.3699  0.0207  0.4318
 3464SOL     OW13621   5.485   1.244   6.145  0.3713 -0.2171  0.4570
 3464SOL    HW213622   5.517   1.201   6.224  1.3082  0.3398  0.3996
 3464SOL    HW313623   5.414   1.188   6.114  1.6370 -1.8066  0.3133
 3464SOL    MW413624   5.480   1.231   6.151  0.1182  0.1803 -0.3886
 3465SOL     OW13625   4.315   2.151   4.504 -0.6977 -0.1568 -0.2660
 3465SOL    HW213626   4.278   2.197   4.579  3.9456  1.5960  1.2716
 3465SOL    HW313627   4.347   2.069   4.539  0.2817  0.0536 -0.6468
 3465SOL    MW413628   4.314   2.147   4.518 -0.2910  0.2528  0.0378
 3466SOL     OW13629   1.280   4.941   2.531 -0.4462  0.2669 -0.0849
 3466SOL    HW213630   1.291   5.034   2.548 -1.1673  0.2712  0.3949
 3466SOL    HW313631   1.225   4.910   2.603  0.4142 -0.6867  0.1863
 3466SOL    MW413632   1.274   4.949   2.543 -0.3987 -0.3358  0.3000
 3467SOL     OW13633   3.070   5.928   4.297  0.2953 -0.3542  0.1175
 3467SOL    HW213634   3.017   6.008   4.300  1.4696  0.4414  0.0931
 3467SOL    HW313635   3.134   5.939   4.367  1.3026 -0.6709 -0.7365
 3467SOL    MW413636   3.071   5.940   4.307 -0.4258  0.0905  0.4656
 3468SOL     OW13637   4.067   3.808   5.071  0.2136 -0.5642 -0.1934
 3468SOL    HW213638   4.053   3.892   5.026  0.6923 -0.5023 -0.2272
 3468SOL    HW313639   4.000   3.807   5.139 -0.3879 -0.5674 -0.7743
 3468SOL    MW413640   4.056   3.819   5.074 -0.3675  0.0919  0.4117
 3469SOL     OW13641   1.868   3.694   4.115 -0.0484 -0.5378 -1.0321
 3469SOL    HW213642   1.832   3.619   4.162 -0.0078 -0.2460 -0.5231
 3469SOL    HW313643   1.836   3.770   4.163  2.4527 -0.2715  0.4367
 3469SOL    MW413644   1.859   3.694   4.128  0.5433 -0.1605  0.9263
 3470SOL     OW13645   2.340   0.416   4.906 -0.0013  0.0493 -0.1889
 3470SOL    HW213646   2.290   0.424   4.824 -0.9054 -1.1753  0.2190
 3470SOL    HW313647   2.419   0.368   4.881  0.2012  0.5357 -0.5134
 3470SOL    MW413648   2.344   0.411   4.892 -0.0158 -0.5452  0.4689
 3471SOL     OW13649   5.262   2.109   1.999 -0.0855 -0.2819 -0.5480
 3471SOL    HW213650   5.259   2.165   2.077 -0.6853 -0.2391 -0.5941
 3471SOL    HW313651   5.297   2.166   1.930 -1.3130  0.2500 -0.7542
 3471SOL    MW413652   5.266   2.124   2.000  0.5784 -0.0124  0.3635
 3472SOL     OW13653   0.743   3.751   6.034  0.0920 -0.0939 -0.1492
 3472SOL    HW213654   0.824   3.705   6.054 -0.4534 -0.3013  1.7901
 3472SOL    HW313655   0.706   3.773   6.120  0.7477  4.8139 -0.8755
 3472SOL    MW413656   0.748   3.747   6.048 -0.2810 -0.2979 -0.6187
 3473SOL     OW13657   5.815   2.113   3.790 -0.2698 -0.6642 -0.0607
 3473SOL    HW213658   5.835   2.134   3.699 -3.3773  2.0855 -0.2562
 3473SOL    HW313659   5.832   2.194   3.838 -2.9651 -0.5988  0.9601
 3473SOL    MW413660   5.820   2.126   3.785 -0.5981 -0.3850 -0.6689
 3474SOL     OW13661   1.972   0.076   4.624 -0.3006  0.3775  0.2895
 3474SOL    HW213662   1.953   0.025   4.545  0.4083 -0.8833  0.9167
 3474SOL    HW313663   1.971   0.013   4.695  1.7308  1.0032  0.9464
 3474SOL    MW413664   1.970   0.061   4.623 -0.0689  0.2595 -0.5691
 3475SOL     OW13665   1.703   3.185   0.334  0.4295  0.2061 -0.4532
 3475SOL    HW213666   1.767   3.127   0.374  0.3332 -0.6713 -1.5135
 3475SOL    HW313667   1.696   3.155   0.243 -1.8151 -0.0432 -0.2688
 3475SOL    MW413668   1.710   3.173   0.327  0.4521 -0.0842 -0.0185
 3476SOL     OW13669   4.160   3.854   4.212 -0.1333 -0.1497  0.6565
 3476SOL    HW213670   4.157   3.766   4.175  0.0178  0.1001  0.0228
 3476SOL    HW313671   4.079   3.862   4.263 -0.4375 -0.4525  0.2291
 3476SOL    MW413672   4.149   3.844   4.214 -0.4529 -0.3104  0.4926
 3477SOL     OW13673   2.950   2.439   2.317  0.0809 -0.4156  0.2387
 3477SOL    HW213674   2.936   2.346   2.296  0.8396 -0.9032  1.7332
 3477SOL    HW313675   2.957   2.440   2.413  0.8551  1.0833  0.1831
 3477SOL    MW413676   2.949   2.427   2.327 -0.4428  1.2049 -0.1929
 3478SOL     OW13677   5.557   3.445   5.485  0.2032  0.7665 -0.1185
 3478SOL    HW213678   5.630   3.445   5.424 -0.0721 -1.5623 -0.5400
 3478SOL    HW313679   5.489   3.497   5.442  0.3228 -0.1278 -1.4383
 3478SOL    MW413680   5.558   3.451   5.471  0.0034 -0.2283 -0.2637
 3479SOL     OW13681   5.895   3.634   3.821  0.9215  0.3531  0.4784
 3479SOL    HW213682   5.902   3.707   3.883 -1.1116  1.2649 -0.3033
 3479SOL    HW313683   5.875   3.675   3.737  0.6549 -1.0585 -0.1793
 3479SOL    MW413684   5.893   3.649   3.818  0.0901  0.1855 -0.0022
 3480SOL     OW13685   6.042   2.847   4.073 -0.4636 -0.3386 -0.0740
 3480SOL    HW213686   6.118   2.798   4.041 -1.0564 -1.5897  0.3264
 3480SOL    HW313687   6.018   2.905   4.000  1.6392  1.0718  0.2748
 3480SOL    MW413688   6.049   2.848   4.059 -0.0953  0.2887 -0.4241
 3481SOL     OW13689   1.078   1.786   4.028  0.3250  0.2309  0.1122
 3481SOL    HW213690   1.010   1.838   4.070 -0.8007 -0.6607 -0.5521
 3481SOL    HW313691   1.032   1.734   3.962  1.8475  0.6468 -1.3643
 3481SOL    MW413692   1.063   1.786   4.025  0.3728 -0.4622 -0.4529
 3482SOL     OW13693   1.338   0.028   6.235 -0.4469 -0.2310  0.4919
 3482SOL    HW213694   1.401   0.069   6.176 -0.0797 -0.3381  0.7989
 3482SOL    HW313695   1.288  -0.031   6.180 -0.3813 -0.0275  0.2131
 3482SOL    MW413696   1.340   0.026   6.220  0.2781  0.4076  0.3576
 3483SOL     OW13697   4.551   2.679   0.980 -0.2041 -0.7527 -0.0093
 3483SOL    HW213698   4.524   2.733   1.054  0.6284 -0.3130 -0.0183
 3483SOL    HW313699   4.603   2.609   1.019 -2.0552 -2.1467  0.1141
 3483SOL    MW413700   4.554   2.677   0.995 -0.2398 -0.4517  0.6520
 3484SOL     OW13701   5.986   4.332   4.911 -0.2468 -0.0903 -0.5028
 3484SOL    HW213702   5.894   4.327   4.935  0.0109 -1.0965  0.3229
 3484SOL    HW313703   6.007   4.246   4.875  0.2383  0.3090 -1.2087
 3484SOL    MW413704   5.977   4.320   4.909  0.5588  1.2779  0.2691
 3485SOL     OW13705   1.893   5.032   1.424 -0.1427 -0.1210  0.7134
 3485SOL    HW213706   1.953   5.062   1.356  0.1638 -1.7701  0.2277
 3485SOL    HW313707   1.947   5.026   1.503 -0.3704  1.2352  1.0012
 3485SOL    MW413708   1.908   5.035   1.426  0.0508 -0.1896  0.2169
 3486SOL     OW13709   0.318   0.677   2.384  0.0009  0.3270 -0.0670
 3486SOL    HW213710   0.353   0.604   2.434  1.5825  0.9202 -0.2426
 3486SOL    HW313711   0.290   0.740   2.451 -0.2177  0.0693  0.0830
 3486SOL    MW413712   0.319   0.676   2.400  0.2224  0.4698  0.2052
 3487SOL     OW13713   5.512   1.380   2.834 -0.0750 -0.6065  0.5851
 3487SOL    HW213714   5.435   1.404   2.782 -0.4011  0.0029  1.3193
 3487SOL    HW313715   5.496   1.289   2.861  0.4288 -1.1651 -0.9325
 3487SOL    MW413716   5.499   1.371   2.831 -0.1182  0.1635 -0.0316
 3488SOL     OW13717   4.971   0.427   0.685 -0.7590  0.0139 -0.3819
 3488SOL    HW213718   5.045   0.488   0.689  0.5191 -1.5130  0.2613
 3488SOL    HW313719   4.980   0.383   0.601  0.5614 -1.9029  0.6914
 3488SOL    MW413720   4.982   0.430   0.674 -0.2123  0.3361  0.4680
 3489SOL     OW13721   5.973   3.424   5.458  0.4107  0.1739 -0.0745
 3489SOL    HW213722   5.945   3.457   5.544  2.1488  1.4065  0.0686
 3489SOL    HW313723   5.901   3.448   5.399 -0.5014 -0.0834  0.9001
 3489SOL    MW413724   5.959   3.431   5.462 -0.1878  0.1606 -0.3901
 3490SOL     OW13725   3.043   2.104   4.840 -0.0242 -0.6471 -0.2357
 3490SOL    HW213726   3.137   2.121   4.838 -0.0256 -0.6575 -0.5866
 3490SOL    HW313727   3.012   2.136   4.755 -0.0896 -1.9722 -0.7475
 3490SOL    MW413728   3.052   2.110   4.828 -0.0416  0.0112  0.2660
 3491SOL     OW13729   4.038   4.474   5.785 -0.6064  0.3261  0.1092
 3491SOL    HW213730   4.090   4.550   5.810  0.3403 -0.3907  0.3821
 3491SOL    HW313731   4.102   4.407   5.761 -1.3912 -0.5556  0.3777
 3491SOL    MW413732   4.053   4.475   5.785 -0.2219 -0.0462 -0.6915
 3492SOL     OW13733   5.559   5.052   1.604  0.5867 -0.0925 -0.0194
 3492SOL    HW213734   5.573   5.086   1.515  1.6279  0.7670  0.4482
 3492SOL    HW313735   5.633   4.994   1.619 -0.9489 -2.3582 -0.6443
 3492SOL    MW413736   5.571   5.049   1.594  0.4702 -0.5866  0.1724
 3493SOL     OW13737   3.926   5.390   2.112  0.4258  0.5103  0.0952
 3493SOL    HW213738   3.836   5.368   2.090  0.9144 -0.4757 -1.0141
 3493SOL    HW313739   3.979   5.334   2.056  1.7409  0.4171  1.3661
 3493SOL    MW413740   3.921   5.380   2.102 -0.6051 -0.2854 -0.0439
 3494SOL     OW13741   3.873   4.809   5.041  0.1564  0.1611  0.0278
 3494SOL    HW213742   3.939   4.878   5.041  0.4527 -0.1235 -0.3931
 3494SOL    HW313743   3.911   4.739   4.989 -0.9290  0.4304 -1.1637
 3494SOL    MW413744   3.887   4.809   5.034 -0.1182 -0.0256 -0.0811
 3495SOL     OW13745   3.245   2.769   5.566 -0.0804 -0.3136  0.2252
 3495SOL    HW213746   3.314   2.809   5.618 -0.4069 -0.3576  0.6923
 3495SOL    HW313747   3.197   2.843   5.528 -0.2595 -0.2743  0.5309
 3495SOL    MW413748   3.248   2.784   5.568  0.3521  0.0214  0.0381
 3496SOL     OW13749   2.739   2.223   5.348 -0.3411 -1.1236  0.1361
 3496SOL    HW213750   2.720   2.254   5.260 -0.0345 -0.9491  0.1346
 3496SOL    HW313751   2.793   2.145   5.335  0.3676 -0.6514  0.1868
 3496SOL    MW413752   2.743   2.217   5.335 -0.7847 -0.1139 -0.2774
 3497SOL     OW13753   0.150   4.981   2.590 -0.0310 -0.0215 -0.6102
 3497SOL    HW213754   0.169   4.914   2.656  0.4089 -0.1543 -0.8687
 3497SOL    HW313755   0.219   4.970   2.525 -0.0501  0.5843 -0.7330
 3497SOL    MW413756   0.161   4.970   2.590 -0.0133 -0.2931 -0.0077
 3498SOL     OW13757   6.159   3.117   3.634 -0.3675 -0.5307  0.3052
 3498SOL    HW213758   6.251   3.125   3.607 -0.3588  0.7810  0.6573
 3498SOL    HW313759   6.129   3.035   3.594  0.7545 -0.6296 -0.3732
 3498SOL    MW413760   6.167   3.107   3.625  0.2392  0.5624 -0.1575
 3499SOL     OW13761   1.428   5.748   0.180 -0.0677 -0.3607  0.6123
 3499SOL    HW213762   1.496   5.703   0.129  0.8639 -0.3831  1.7995
 3499SOL    HW313763   1.460   5.743   0.270 -1.1408  0.5886  1.0675
 3499SOL    MW413764   1.442   5.741   0.185  0.3351  0.5134 -0.0036
 3500SOL     OW13765   1.145   5.132   5.531 -0.5785 -0.1043 -0.1698
 3500SOL    HW213766   1.128   5.196   5.462  1.6247  1.3126  0.5011
 3500SOL    HW313767   1.085   5.156   5.601 -1.7974 -0.6278 -1.0137
 3500SOL    MW413768   1.135   5.144   5.531 -0.2638  0.4152 -0.3208
 3501SOL     OW13769   1.797   5.773   4.708  0.4240 -0.2598 -0.0675
 3501SOL    HW213770   1.793   5.829   4.630  0.4412 -0.2927 -0.0921
 3501SOL    HW313771   1.795   5.834   4.781  0.4842 -0.2248 -0.0948
 3501SOL    MW413772   1.797   5.788   4.707 -0.5842  0.2721  0.3233
 3502SOL     OW13773   1.454   6.124   6.284 -0.4325  0.3793  0.1232
 3502SOL    HW213774   1.521   6.117   6.216  0.9564  0.0954  1.4582
 3502SOL    HW313775   1.474   6.206   6.330 -0.3143 -0.2354  1.2119
 3502SOL    MW413776   1.465   6.134   6.281 -0.6722  0.1649 -0.2170
 3503SOL     OW13777   2.773   1.092   1.025  0.0689  0.1410 -0.6313
 3503SOL    HW213778   2.809   1.122   0.941 -0.8036  3.6971  0.0768
 3503SOL    HW313779   2.779   1.169   1.082 -1.8685 -1.3248  1.7558
 3503SOL    MW413780   2.779   1.106   1.022  0.8626  0.5778  0.5749
 3504SOL     OW13781   1.872   1.812   4.409 -0.2689  0.1107 -0.3713
 3504SOL    HW213782   1.953   1.765   4.388 -0.8369 -0.5197 -1.2034
 3504SOL    HW313783   1.901   1.889   4.458  0.8672  0.1374 -1.0662
 3504SOL    MW413784   1.887   1.816   4.413 -0.6395 -0.0949  0.1057
 3505SOL     OW13785   3.144   1.119   5.376  0.0116 -0.0912 -0.4492
 3505SOL    HW213786   3.085   1.066   5.430 -1.3959 -0.6863 -2.4644
 3505SOL    HW313787   3.150   1.070   5.294  0.4169  1.8001 -1.5778
 3505SOL    MW413788   3.137   1.105   5.372  0.0848 -0.8822  0.4882
 3506SOL     OW13789   5.721   3.028   4.253 -0.6468  0.8065 -0.1538
 3506SOL    HW213790   5.662   3.087   4.301  0.0637  1.4480 -0.0584
 3506SOL    HW313791   5.808   3.064   4.267 -0.0995 -0.7389  0.5784
 3506SOL    MW413792   5.725   3.040   4.261  0.6466  0.2156  0.0497
 3507SOL     OW13793   5.348   0.629   3.971 -0.0661  0.4664  0.9541
 3507SOL    HW213794   5.355   0.612   3.877  1.5278 -1.1998  1.3071
 3507SOL    HW313795   5.289   0.704   3.978 -0.3188  0.5496 -1.3570
 3507SOL    MW413796   5.341   0.637   3.960  0.6670 -0.1701  0.0267
 3508SOL     OW13797   5.906   5.386   1.559 -0.0339  0.3424  0.5119
 3508SOL    HW213798   5.830   5.405   1.503  0.1989 -1.1730 -0.3706
 3508SOL    HW313799   5.870   5.332   1.630  0.3332 -1.1823 -0.4180
 3508SOL    MW413800   5.891   5.382   1.561 -0.2504 -0.2656 -0.1225
 3509SOL     OW13801   2.779   6.375   1.665 -0.4141  0.0731 -0.1754
 3509SOL    HW213802   2.768   6.371   1.570  0.1324  0.4213 -0.2613
 3509SOL    HW313803   2.742   6.293   1.697 -0.6782 -0.0105 -0.6834
 3509SOL    MW413804   2.773   6.364   1.656 -0.1916  0.2882  0.4554
 3510SOL     OW13805   2.513   4.975   2.953  0.5894  0.0149 -0.3758
 3510SOL    HW213806   2.572   4.968   2.878  0.4229  1.5403 -0.6930
 3510SOL    HW313807   2.427   4.953   2.917  0.9736 -2.9541  0.2516
 3510SOL    MW413808   2.509   4.971   2.938  0.8957  0.4413 -0.1941
 3511SOL     OW13809   5.196   6.078   0.999  0.1934 -0.1377  0.1809
 3511SOL    HW213810   5.155   6.055   1.083  0.2886  3.2146  1.3177
 3511SOL    HW313811   5.290   6.071   1.016  0.2226  0.9639  0.5347
 3511SOL    MW413812   5.203   6.074   1.012 -0.2365  0.0776  0.2365
 3512SOL     OW13813   3.396   5.846   3.649  0.4148  0.3543 -0.1828
 3512SOL    HW213814   3.437   5.894   3.577  0.6237 -0.6092 -0.7135
 3512SOL    HW313815   3.375   5.760   3.613  1.6929 -0.6020  1.2533
 3512SOL    MW413816   3.398   5.841   3.635 -0.5019 -0.2442 -0.5810
 3513SOL     OW13817   2.206   1.165   1.930  0.1025  0.5331  0.0221
 3513SOL    HW213818   2.241   1.099   1.989 -1.2995 -0.9433 -0.7314
 3513SOL    HW313819   2.123   1.191   1.969 -0.7644 -0.3485 -1.1870
 3513SOL    MW413820   2.200   1.160   1.943 -0.2865  0.1355 -0.1184
 3514SOL     OW13821   3.590   3.907   3.182  0.7908  0.1765  0.0288
 3514SOL    HW213822   3.597   3.926   3.089  1.5490  0.2109  0.0864
 3514SOL    HW313823   3.500   3.875   3.194  0.8789 -0.4014 -0.8134
 3514SOL    MW413824   3.579   3.905   3.172 -0.6826  0.5619 -0.0213
 3515SOL     OW13825   3.796   1.664   2.601  0.0254  0.0883 -0.6748
 3515SOL    HW213826   3.712   1.622   2.616  1.1705 -1.4268  2.4624
 3515SOL    HW313827   3.851   1.596   2.562  1.2646 -0.8245  2.4090
 3515SOL    MW413828   3.792   1.650   2.598 -0.1785  0.6787  0.0627
 3516SOL     OW13829   0.313   0.012   2.622 -0.4715 -0.1629  0.3679
 3516SOL    HW213830   0.320  -0.040   2.542 -2.0787 -0.4430  0.3865
 3516SOL    HW313831   0.262   0.089   2.597 -0.1721  0.2253  0.9134
 3516SOL    MW413832   0.307   0.016   2.608 -0.0753 -0.1919  0.0625
 3517SOL     OW13833   0.023   1.029   0.703  0.2412  0.3383  0.0781
 3517SOL    HW213834   0.119   1.031   0.708  0.3336 -0.7917 -0.9130
 3517SOL    HW313835  -0.004   0.999   0.790  0.8088  0.3047  0.2494
 3517SOL    MW413836   0.032   1.025   0.715 -0.7354 -0.0899  0.0781
 3518SOL     OW13837   6.304   2.183   6.281 -0.1827 -0.1855 -0.0898
 3518SOL    HW213838   6.234   2.164   6.343  0.9246 -1.1578  0.8959
 3518SOL    HW313839   6.286   2.126   6.206  0.4048 -1.5822  0.8138
 3518SOL    MW413840   6.292   2.173   6.279  0.3200  0.3333 -0.3500
 3519SOL     OW13841   0.990   1.842   1.015  0.7526 -0.4816 -0.2081
 3519SOL    HW213842   1.026   1.773   1.070  1.1515  0.1558  0.3480
 3519SOL    HW313843   0.968   1.912   1.076  2.0129  0.5855 -0.9165
 3519SOL    MW413844   0.992   1.842   1.030 -0.2107  0.2687 -0.2879
 3520SOL     OW13845   1.019   3.033   2.558 -0.3683 -0.0314  0.0035
 3520SOL    HW213846   0.928   3.053   2.537 -0.6835  0.1534  1.4203
 3520SOL    HW313847   1.060   3.118   2.574  0.4750  0.0014 -2.1043
 3520SOL    MW413848   1.012   3.047   2.557 -0.1517 -0.3621 -0.3111
 3521SOL     OW13849   1.491   3.762   3.986  0.0212  0.2080  0.0205
 3521SOL    HW213850   1.512   3.805   4.069 -2.5261  0.4848  0.5892
 3521SOL    HW313851   1.466   3.673   4.011  3.0963 -1.0811 -0.9376
 3521SOL    MW413852   1.491   3.756   4.000  1.0942 -0.2913  0.1258
 3522SOL     OW13853   6.335   5.280   3.467  0.2527  0.6778  0.6727
 3522SOL    HW213854   6.270   5.330   3.417  0.0176 -1.1687 -1.0033
 3522SOL    HW313855   6.298   5.274   3.555 -1.3792  0.5788  0.0293
 3522SOL    MW413856   6.321   5.286   3.472 -0.4843 -0.0434 -0.1202
 3523SOL     OW13857   4.459   2.882   0.194 -0.3083  0.6915 -0.2263
 3523SOL    HW213858   4.435   2.943   0.124  0.2448  0.3544 -0.7200
 3523SOL    HW313859   4.496   2.807   0.148  1.5352  1.1117  0.4787
 3523SOL    MW413860   4.460   2.880   0.179 -0.1090  0.3703  0.0327
 3524SOL     OW13861   3.450   0.625   4.508  0.0171 -0.9877 -0.6215
 3524SOL    HW213862   3.389   0.695   4.483  0.5129 -0.4679 -0.3891
 3524SOL    HW313863   3.421   0.549   4.456 -0.3365 -0.5324 -1.1061
 3524SOL    MW413864   3.438   0.624   4.498 -0.0549  0.1892  0.4691
 3525SOL     OW13865   2.384   3.433   5.125  0.2698  0.0891 -0.1868
 3525SOL    HW213866   2.308   3.382   5.096 -0.3631  0.7456  0.2919
 3525SOL    HW313867   2.411   3.482   5.047  0.2612 -0.2127 -0.3813
 3525SOL    MW413868   2.378   3.432   5.111 -0.8216  0.6907  0.3405
 3526SOL     OW13869   5.305   1.551   3.457 -0.6472  0.1191 -0.5531
 3526SOL    HW213870   5.277   1.585   3.543 -0.0790  0.2970 -0.4308
 3526SOL    HW313871   5.374   1.611   3.430 -0.5049 -0.2128 -0.9248
 3526SOL    MW413872   5.310   1.564   3.465  0.0246  0.0700  0.2701
 3527SOL     OW13873   5.690   1.802   4.630 -0.2487  0.0793  0.2378
 3527SOL    HW213874   5.776   1.813   4.590  0.0824 -0.7975  0.6694
 3527SOL    HW313875   5.702   1.727   4.690 -1.3469 -0.1436  0.1861
 3527SOL    MW413876   5.703   1.793   4.633 -0.3639  0.4334  0.5174
 3528SOL     OW13877   4.089   1.218   4.615 -0.3165  0.5763  0.7626
 3528SOL    HW213878   4.167   1.185   4.660 -0.7735  1.3725  2.1815
 3528SOL    HW313879   4.114   1.305   4.584 -0.0125  0.0452 -0.5565
 3528SOL    MW413880   4.103   1.225   4.617 -0.1985 -0.8954 -0.2148
 3529SOL     OW13881   2.948   2.945   0.548  0.0020 -0.3876  0.1905
 3529SOL    HW213882   2.978   2.936   0.458  1.0873  0.1222  0.4798
 3529SOL    HW313883   2.861   2.985   0.541  0.6993  1.0956 -0.6024
 3529SOL    MW413884   2.940   2.949   0.536  0.0011 -0.2110  0.3335
 3530SOL     OW13885   2.727   5.374   1.314  0.1355  0.2782  0.2613
 3530SOL    HW213886   2.677   5.292   1.322 -1.9279  1.3452 -0.7480
 3530SOL    HW313887   2.721   5.397   1.221  0.2462  1.8041  0.5979
 3530SOL    MW413888   2.719   5.366   1.303  0.3774 -0.6286  0.0334
 3531SOL     OW13889   4.040   2.395   3.105  0.3994 -0.2902 -0.0214
 3531SOL    HW213890   4.024   2.301   3.093 -3.5388  0.1431  0.4505
 3531SOL    HW313891   4.020   2.411   3.197 -0.9124  1.2565 -0.5259
 3531SOL    MW413892   4.035   2.385   3.115 -0.2717 -0.3393  0.9946
 3532SOL     OW13893   1.922   3.420   4.945  0.1457 -0.1524  0.4470
 3532SOL    HW213894   1.888   3.509   4.933 -0.8856 -0.4729  0.9001
 3532SOL    HW313895   1.967   3.401   4.863 -1.9348 -0.1881 -0.7770
 3532SOL    MW413896   1.923   3.429   4.932  0.0176  0.1711  0.0502
 3533SOL     OW13897   0.004   2.756   0.958 -0.2434  0.0404 -0.5253
 3533SOL    HW213898   0.053   2.838   0.954  0.5908 -0.4330 -0.1736
 3533SOL    HW313899   0.041   2.702   0.889  0.0892 -0.5106  0.0818
 3533SOL    MW413900   0.015   2.760   0.949  0.2157 -0.2924  0.1666
 3534SOL     OW13901   4.472   1.325   6.373  0.1391  0.0133 -0.1032
 3534SOL    HW213902   4.385   1.299   6.344  1.7118 -2.0700 -3.6486
 3534SOL    HW313903   4.479   1.417   6.349 -1.0765  0.2254  0.2999
 3534SOL    MW413904   4.462   1.334   6.366 -0.2816  0.1493  0.3089
 3535SOL     OW13905   4.070   5.540   3.596 -0.0110  0.4349  0.0404
 3535SOL    HW213906   4.150   5.491   3.582  0.8807  1.2111  1.9745
 3535SOL    HW313907   4.099   5.625   3.630 -1.6207  0.8130  0.5882
 3535SOL    MW413908   4.084   5.544   3.599 -0.3967 -0.1122  0.1438
 3536SOL     OW13909   5.706   5.394   1.382  0.6161  0.6442 -0.1563
 3536SOL    HW213910   5.695   5.461   1.314  0.9714  1.0137  0.1456
 3536SOL    HW313911   5.632   5.409   1.441 -0.4593 -0.5309 -1.1532
 3536SOL    MW413912   5.695   5.405   1.381 -0.3359 -0.0008 -0.1263
 3537SOL     OW13913   4.414   4.685   2.868 -0.1226 -0.5993  0.2923
 3537SOL    HW213914   4.331   4.713   2.907 -0.1205 -0.9202  0.5218
 3537SOL    HW313915   4.393   4.673   2.775  0.0431  0.8695  0.0359
 3537SOL    MW413916   4.400   4.687   2.861 -0.3603  0.4340 -0.1301
 3538SOL     OW13917   2.257   5.033   3.698 -0.2018 -0.8494 -0.3739
 3538SOL    HW213918   2.338   4.984   3.687 -0.6729 -1.2598 -2.4349
 3538SOL    HW313919   2.188   4.967   3.694 -0.8046 -0.1839 -2.4509
 3538SOL    MW413920   2.259   5.018   3.696  0.3543  0.9019  0.4605
 3539SOL     OW13921   5.279   6.189   5.864  0.2328  0.2538 -0.0026
 3539SOL    HW213922   5.186   6.180   5.888 -0.1724  0.7519 -1.2698
 3539SOL    HW313923   5.280   6.172   5.770  1.3808  0.6201 -0.0622
 3539SOL    MW413924   5.267   6.186   5.855  0.4703  0.3668 -0.0244
 3540SOL     OW13925   0.471   3.875   6.061 -0.2351 -0.3259  0.5937
 3540SOL    HW213926   0.394   3.853   6.113  0.1506  0.4716  1.5304
 3540SOL    HW313927   0.448   3.847   5.972 -1.2748 -0.8490  1.0021
 3540SOL    MW413928   0.458   3.868   6.056 -0.2953 -0.4803  0.3504
 3541SOL     OW13929   5.750   6.381   5.416  0.1583 -0.1272  0.3229
 3541SOL    HW213930   5.776   6.289   5.417  0.9367  0.0896  0.7334
 3541SOL    HW313931   5.827   6.428   5.448 -0.4532  0.6077  0.7497
 3541SOL    MW413932   5.763   6.375   5.420  0.7634  0.0476  0.4304
 3542SOL     OW13933   2.791   1.149   4.701  0.2502 -0.3321  0.1008
 3542SOL    HW213934   2.847   1.216   4.739  0.7476  0.3185 -1.6612
 3542SOL    HW313935   2.707   1.158   4.746  0.6039  0.8401  0.5505
 3542SOL    MW413936   2.787   1.159   4.712 -0.0951  0.1237 -0.2967
 3543SOL     OW13937   5.929   3.137   1.364  0.1898 -0.4478 -1.0267
 3543SOL    HW213938   5.959   3.046   1.363  2.4079  0.2225 -0.0110
 3543SOL    HW313939   5.998   3.186   1.319  0.7343  1.1753  1.3856
 3543SOL    MW413940   5.942   3.132   1.358  0.3559 -0.0591  0.1354
 3544SOL     OW13941   2.957   4.271   2.614  0.3733 -0.0120 -0.0247
 3544SOL    HW213942   3.026   4.227   2.665  0.2628 -0.5925 -0.3653
 3544SOL    HW313943   3.000   4.293   2.531  0.2475 -0.0467 -0.0977
 3544SOL    MW413944   2.972   4.268   2.610  0.0064  0.2398  0.6452
 3545SOL     OW13945   4.698   3.476   1.325 -0.6326 -0.0117  0.4140
 3545SOL    HW213946   4.769   3.508   1.270 -0.4745 -0.6138  0.2575
 3545SOL    HW313947   4.741   3.419   1.389 -0.9846 -0.4502  0.2593
 3545SOL    MW413948   4.713   3.473   1.326 -0.7163  0.3638  0.0370
 3546SOL     OW13949   1.381   5.931   0.876 -0.8959 -0.7240  0.0016
 3546SOL    HW213950   1.420   5.848   0.904  1.1887  0.4336  0.7672
 3546SOL    HW313951   1.428   5.953   0.796 -0.7403  0.1452  0.3205
 3546SOL    MW413952   1.393   5.923   0.869  0.0899  0.1893 -0.5524
 3547SOL     OW13953   4.713   3.750   0.140  0.3825 -0.2655  0.0170
 3547SOL    HW213954   4.661   3.765   0.061 -0.2149 -3.1681 -0.2780
 3547SOL    HW313955   4.800   3.728   0.107 -0.3044 -3.2670 -0.0873
 3547SOL    MW413956   4.717   3.749   0.125 -0.2708  0.1507  0.3687
 3548SOL     OW13957   3.674   3.577   2.974 -0.2598  0.1973 -0.3454
 3548SOL    HW213958   3.730   3.654   2.964 -1.1474  0.7864 -0.8825
 3548SOL    HW313959   3.734   3.503   2.960  1.2726  0.5967  3.0872
 3548SOL    MW413960   3.690   3.578   2.971  0.2929 -0.4772 -0.0913
 3549SOL     OW13961   0.329   3.444   2.430  0.1178  0.2628 -0.2317
 3549SOL    HW213962   0.334   3.352   2.405  1.8254  0.3704 -0.4183
 3549SOL    HW313963   0.294   3.443   2.519 -1.9421 -0.3930 -0.9847
 3549SOL    MW413964   0.325   3.432   2.438 -0.1858 -0.0404 -0.2762
 3550SOL     OW13965   1.233   4.185   0.221  0.0058 -0.0958  0.4337
 3550SOL    HW213966   1.207   4.119   0.157 -0.9379 -0.1826  0.8963
 3550SOL    HW313967   1.202   4.151   0.305 -0.7120  1.0356  0.6473
 3550SOL    MW413968   1.226   4.172   0.223 -0.2139 -0.6270  0.0865
 3551SOL     OW13969   1.747   4.969   3.746 -0.0001 -0.6184 -0.5386
 3551SOL    HW213970   1.729   4.910   3.672 -0.2684 -0.5937 -0.4963
 3551SOL    HW313971   1.842   4.969   3.754  0.0369 -0.5588 -0.9374
 3551SOL    MW413972   1.757   4.961   3.737  0.2043 -0.0450  0.2176
 3552SOL     OW13973   1.196   3.074   5.720 -0.0669  0.2589 -0.7775
 3552SOL    HW213974   1.148   3.154   5.699  0.4358  0.9308  0.4928
 3552SOL    HW313975   1.287   3.102   5.730 -0.0735 -0.1759  1.0063
 3552SOL    MW413976   1.202   3.088   5.719 -0.0739 -0.3248 -0.7830
 3553SOL     OW13977   5.477   1.159   4.390 -0.4887 -0.2866 -0.5069
 3553SOL    HW213978   5.491   1.252   4.407 -1.0635 -0.1401 -0.8107
 3553SOL    HW313979   5.382   1.151   4.376 -0.3323 -0.7524 -1.4238
 3553SOL    MW413980   5.466   1.170   4.390  0.4610 -0.5055 -0.3999
 3554SOL     OW13981   6.023   3.139   6.015 -0.2884 -0.2013  0.3579
 3554SOL    HW213982   5.990   3.219   5.974  0.6237 -0.1533 -0.2974
 3554SOL    HW313983   6.118   3.153   6.022 -0.2629 -0.7567  1.2795
 3554SOL    MW413984   6.031   3.152   6.011  0.0579  0.0964  0.3817
 3555SOL     OW13985   0.891   6.181   0.417 -0.0142 -0.1018  0.3365
 3555SOL    HW213986   0.833   6.154   0.488  0.5448  1.1633  1.3210
 3555SOL    HW313987   0.888   6.277   0.420  3.1068  0.0876  1.3247
 3555SOL    MW413988   0.883   6.190   0.427 -0.1889 -0.7105 -0.2570
 3556SOL     OW13989   3.167   3.458   1.048 -0.8822  0.1524  0.5276
 3556SOL    HW213990   3.147   3.480   1.138  0.4393  1.4641  0.5296
 3556SOL    HW313991   3.262   3.442   1.047 -0.6748  1.2761 -0.8261
 3556SOL    MW413992   3.177   3.459   1.060 -0.0785 -0.0665  0.5741
 3557SOL     OW13993   4.141   4.104   6.342  0.4303  0.4108  0.8906
 3557SOL    HW213994   4.227   4.143   6.325  0.0679  0.3018 -1.5550
 3557SOL    HW313995   4.146   4.017   6.303 -0.0734 -0.5321  2.8067
 3557SOL    MW413996   4.153   4.098   6.335 -0.7828 -0.1893 -0.3107
 3558SOL     OW13997   2.670   1.341   3.849 -0.6137 -0.0734  0.1659
 3558SOL    HW213998   2.608   1.268   3.853  0.0339 -0.6967 -0.7395
 3558SOL    HW313999   2.618   1.416   3.819 -0.7080 -0.8969 -1.9117
 3558SOL    MW414000   2.655   1.341   3.846  0.1915  1.3255  0.4597
 3559SOL     OW14001   3.996   2.132   3.081  0.1036 -0.0226 -0.0730
 3559SOL    HW214002   3.947   2.129   2.999  0.1922 -2.9570 -0.1456
 3559SOL    HW314003   3.948   2.072   3.139  0.8939  0.8232  1.5160
 3559SOL    MW414004   3.983   2.124   3.078 -0.0700 -0.6019 -0.7510
 3560SOL     OW14005   4.881   3.179   2.991 -0.1301  0.1470  0.6500
 3560SOL    HW214006   4.885   3.274   3.002 -2.5130  0.3956  0.0333
 3560SOL    HW314007   4.841   3.148   3.072  2.4654 -0.6453  1.7299
 3560SOL    MW414008   4.876   3.188   3.003 -0.2594 -0.4171  0.0641
 3561SOL     OW14009   0.660   0.776   5.774  0.6956  0.0299  0.2208
 3561SOL    HW214010   0.636   0.800   5.864  3.7999  0.4650  1.0296
 3561SOL    HW314011   0.615   0.841   5.720 -1.3861 -0.3434  1.3731
 3561SOL    MW414012   0.651   0.788   5.779  0.6294 -0.0746 -0.5344
 3562SOL     OW14013   5.727   3.413   4.394  0.2823 -0.3564 -0.4727
 3562SOL    HW214014   5.779   3.491   4.413  1.4366 -1.5050  1.3635
 3562SOL    HW314015   5.790   3.348   4.365 -0.3102 -1.3818  0.4911
 3562SOL    MW414016   5.742   3.415   4.392 -0.2292 -0.2924  0.4691
 3563SOL     OW14017   3.668   3.576   2.334 -0.0967 -0.0333  0.0973
 3563SOL    HW214018   3.701   3.510   2.274 -0.8225  0.7775 -1.2311
 3563SOL    HW314019   3.623   3.640   2.278 -0.3104  1.0437  1.4365
 3563SOL    MW414020   3.667   3.576   2.319  0.1233  0.4887  0.0540
 3564SOL     OW14021   0.938   2.484   3.472  0.1954 -0.4016 -0.2552
 3564SOL    HW214022   0.976   2.398   3.454 -1.5878 -1.5534  1.1167
 3564SOL    HW314023   0.855   2.465   3.516 -0.0064  2.0298  0.5888
 3564SOL    MW414024   0.932   2.470   3.476  0.0369  0.5149  0.2278
 3565SOL     OW14025   1.830   0.073   0.721 -0.4673  0.0810 -0.4033
 3565SOL    HW214026   1.858   0.071   0.630 -0.1897  0.4483 -0.3297
 3565SOL    HW314027   1.836   0.165   0.746 -0.9853  0.0504 -0.1471
 3565SOL    MW414028   1.834   0.085   0.712  0.4816 -0.8712  0.1284
 3566SOL     OW14029   6.124   3.392   2.833  0.0274  0.4781 -0.8335
 3566SOL    HW214030   6.127   3.299   2.810 -1.1519  0.4586 -0.9839
 3566SOL    HW314031   6.035   3.419   2.809 -0.4263  1.0798  1.2635
 3566SOL    MW414032   6.112   3.383   2.827 -0.1331  0.1280 -0.3286
 3567SOL     OW14033   4.808   4.160   1.969 -0.0885  0.7824  0.5553
 3567SOL    HW214034   4.809   4.117   2.054  0.5789  0.8631  0.5931
 3567SOL    HW314035   4.809   4.254   1.989  0.4789  0.8015  0.4638
 3567SOL    MW414036   4.809   4.167   1.983 -0.3253  0.4310  0.6465
 3568SOL     OW14037   4.397   3.650   3.463  0.0916  0.0643  0.1173
 3568SOL    HW214038   4.342   3.727   3.473  1.2669  0.7798  1.3636
 3568SOL    HW314039   4.335   3.578   3.453 -1.1902  0.6209  2.9917
 3568SOL    MW414040   4.382   3.650   3.463 -0.1089 -0.3408 -0.2374
 3569SOL     OW14041   5.103   0.444   5.452 -0.5500 -0.6413  0.0706
 3569SOL    HW214042   5.035   0.444   5.519 -0.1942 -0.0230  0.4503
 3569SOL    HW314043   5.182   0.472   5.499  0.3158 -2.7319 -0.0174
 3569SOL    MW414044   5.105   0.448   5.467 -0.1583  0.2287  0.0773
 3570SOL     OW14045   0.259   5.444   3.838 -0.5545  0.5521 -0.6433
 3570SOL    HW214046   0.244   5.404   3.752 -2.5841  2.0288 -1.0699
 3570SOL    HW314047   0.278   5.536   3.817  0.0886  0.6768  0.4536
 3570SOL    MW414048   0.260   5.451   3.824  0.0093  0.0492 -0.1032
 3571SOL     OW14049   2.384   1.948   1.033 -0.1256  0.6314  0.3829
 3571SOL    HW214050   2.424   2.003   1.101 -0.6362  0.5525  0.7520
 3571SOL    HW314051   2.294   1.980   1.025 -1.1518 -1.5450  2.1982
 3571SOL    MW414052   2.377   1.959   1.041  0.4400 -0.0470  0.5737
 3572SOL     OW14053   2.727   0.296   3.756 -0.2093  0.2398  0.3688
 3572SOL    HW214054   2.664   0.339   3.698  2.1734  3.0878 -0.3490
 3572SOL    HW314055   2.787   0.252   3.697 -0.8319 -1.5245  0.9984
 3572SOL    MW414056   2.726   0.296   3.741  1.2478  0.0411 -0.2371
 3573SOL     OW14057   4.167   0.422   0.723  0.0689 -0.0066 -0.2294
 3573SOL    HW214058   4.218   0.347   0.753  0.5974  0.2902 -0.3669
 3573SOL    HW314059   4.076   0.392   0.725  0.1615 -0.2502  0.8915
 3573SOL    MW414060   4.162   0.408   0.727  0.2108 -0.1572 -0.6576
 3574SOL     OW14061   1.393   2.642   1.123  0.3643  0.1510  0.1557
 3574SOL    HW214062   1.337   2.706   1.080 -1.6286 -0.3761  1.7920
 3574SOL    HW314063   1.403   2.572   1.059 -1.3585  0.0247 -0.0321
 3574SOL    MW414064   1.387   2.641   1.109  0.7035  0.3243  1.1959
 3575SOL     OW14065   4.848   0.264   2.441  0.3639 -0.5213 -0.3588
 3575SOL    HW214066   4.908   0.201   2.482 -0.3498  0.1208  1.7948
 3575SOL    HW314067   4.889   0.349   2.455 -0.1368 -0.2511 -0.5209
 3575SOL    MW414068   4.861   0.267   2.448 -0.0537 -0.2971  1.0326
 3576SOL     OW14069   5.434   2.232   5.504 -0.0364  0.1499 -0.1132
 3576SOL    HW214070   5.493   2.296   5.544 -1.6326  0.2994  2.2334
 3576SOL    HW314071   5.485   2.151   5.500  0.8200  0.6565  0.3992
 3576SOL    MW414072   5.448   2.230   5.509 -0.7219  0.4983 -0.6623
 3577SOL     OW14073   5.434   5.908   4.317 -0.5052 -0.0978  0.6856
 3577SOL    HW214074   5.498   5.974   4.291 -1.3439  0.8123  0.8847
 3577SOL    HW314075   5.478   5.859   4.386  0.5046 -0.4170 -0.1574
 3577SOL    MW414076   5.448   5.910   4.323  0.1356 -0.7050  0.9531
 3578SOL     OW14077   5.566   2.613   3.676  0.6204  0.0873  0.0410
 3578SOL    HW214078   5.618   2.563   3.612 -0.4520  0.2474 -0.9865
 3578SOL    HW314079   5.523   2.681   3.624 -1.3480 -0.5995  0.6920
 3578SOL    MW414080   5.567   2.616   3.661 -0.1362  0.0133  0.4724
 3579SOL     OW14081   3.829   5.729   2.504 -0.1704  0.8547 -0.5635
 3579SOL    HW214082   3.737   5.713   2.485 -0.0527  1.6130 -1.9840
 3579SOL    HW314083   3.873   5.713   2.420  1.1198 -0.3707  0.3115
 3579SOL    MW414084   3.823   5.725   2.490 -0.6264  0.3440 -0.8093
 3580SOL     OW14085   3.859   1.358   3.741 -0.2042  0.2123  0.6005
 3580SOL    HW214086   3.937   1.338   3.689 -1.5957 -2.2729 -0.7250
 3580SOL    HW314087   3.883   1.331   3.830  0.1976 -1.4568  0.0318
 3580SOL    MW414088   3.873   1.352   3.746  0.2259  0.0416  0.3219
 3581SOL     OW14089   3.362   2.372   0.932  0.4040 -0.1029  0.2218
 3581SOL    HW214090   3.372   2.280   0.905 -0.0824  0.1745 -0.9638
 3581SOL    HW314091   3.429   2.419   0.882  0.8206  0.1693  1.0178
 3581SOL    MW414092   3.372   2.366   0.921  0.2573  0.2374  0.2042
 3582SOL     OW14093   5.193   1.413   6.097  0.2673  0.8252  0.0707
 3582SOL    HW214094   5.160   1.330   6.065 -0.7199  1.2058  0.0819
 3582SOL    HW314095   5.264   1.389   6.157 -1.0710 -0.0738  1.3374
 3582SOL    MW414096   5.198   1.399   6.100  0.6719  0.8238  0.0432
 3583SOL     OW14097   2.822   5.833   4.500 -0.2306 -0.0984 -0.1709
 3583SOL    HW214098   2.812   5.877   4.416  0.4338 -0.4322 -0.4275
 3583SOL    HW314099   2.899   5.777   4.490  0.2056  0.2886  0.8535
 3583SOL    MW414100   2.831   5.831   4.488  0.2826  0.4751 -1.0255
 3584SOL     OW14101   3.569   1.418   5.223 -0.3704  0.7594  0.0941
 3584SOL    HW214102   3.655   1.441   5.188 -0.5722  1.5285  0.0844
 3584SOL    HW314103   3.521   1.501   5.225 -1.9945 -0.0187 -2.3116
 3584SOL    MW414104   3.574   1.432   5.218  0.3862  0.1732  0.0173
 3585SOL     OW14105   3.865   0.852   0.306 -0.1927 -0.5030 -0.2517
 3585SOL    HW214106   3.921   0.781   0.273  1.0457  0.4672 -0.3290
 3585SOL    HW314107   3.831   0.894   0.227  0.3221 -0.0753 -0.2574
 3585SOL    MW414108   3.868   0.848   0.291 -0.3875  0.3219  0.2692
 3586SOL     OW14109   2.316   0.333   2.271  0.4703  0.3306 -0.2574
 3586SOL    HW214110   2.321   0.421   2.308  1.1469 -0.4792  1.6667
 3586SOL    HW314111   2.238   0.335   2.216 -0.8982  1.4554  1.6333
 3586SOL    MW414112   2.307   0.345   2.268  0.2744  0.1924  0.3301
 3587SOL     OW14113   5.615   2.444   1.625 -0.6556 -0.1114 -0.3712
 3587SOL    HW214114   5.598   2.455   1.718 -0.1588  2.5668 -0.5231
 3587SOL    HW314115   5.548   2.496   1.581  0.6909  0.8691 -1.3773
 3587SOL    MW414116   5.604   2.452   1.631  0.0839  0.3298 -0.1625
 3588SOL     OW14117   2.768   1.357   4.161  0.0916 -0.1115  0.4734
 3588SOL    HW214118   2.748   1.287   4.099  0.2918  0.1734  0.0830
 3588SOL    HW314119   2.730   1.436   4.121 -0.2808 -0.0214  0.9883
 3588SOL    MW414120   2.760   1.358   4.148 -0.0482 -0.2767  0.0483
 3589SOL     OW14121   2.419   1.139   0.610 -0.1899 -0.1342 -0.9587
 3589SOL    HW214122   2.460   1.056   0.584  1.1581  0.3737 -0.5632
 3589SOL    HW314123   2.329   1.116   0.632  0.1657 -1.5044 -0.8390
 3589SOL    MW414124   2.413   1.125   0.610 -0.3300 -0.4642 -0.1547
 3590SOL     OW14125   1.222   1.581   5.404  0.6246  0.0978  0.3407
 3590SOL    HW214126   1.173   1.663   5.409  1.7825  0.7231  2.8252
 3590SOL    HW314127   1.212   1.541   5.490  0.9673 -1.8806 -0.4814
 3590SOL    MW414128   1.214   1.586   5.416  0.2115 -0.0032 -0.0926
 3591SOL     OW14129   0.319   1.091   2.528  0.5473  0.1889 -0.7511
 3591SOL    HW214130   0.333   1.161   2.592 -0.2990  0.7126 -1.1155
 3591SOL    HW314131   0.307   1.136   2.445 -0.8209 -0.3242 -0.8594
 3591SOL    MW414132   0.319   1.106   2.525 -0.1428  0.8454  0.4397
 3592SOL     OW14133   0.761   1.679   5.643  0.6429  0.1221  0.8063
 3592SOL    HW214134   0.817   1.751   5.672  0.6560  0.5601 -0.2664
 3592SOL    HW314135   0.821   1.616   5.604  0.3726  0.8552 -0.8810
 3592SOL    MW414136   0.776   1.680   5.642 -0.3650 -1.0351 -0.8530
 3593SOL     OW14137   0.347   1.810   3.839 -0.5880  0.0197  0.0917
 3593SOL    HW214138   0.370   1.752   3.911  0.0896 -0.6357 -0.6219
 3593SOL    HW314139   0.392   1.772   3.763 -1.2669  0.6949 -0.6666
 3593SOL    MW414140   0.356   1.797   3.838  0.0047 -0.2160  0.8276
 3594SOL     OW14141   2.596   4.674   2.106  0.7784  0.0680 -0.4679
 3594SOL    HW214142   2.553   4.673   2.191  0.4157  0.2053 -0.6484
 3594SOL    HW314143   2.574   4.759   2.069  0.1275 -0.3722 -1.1098
 3594SOL    MW414144   2.588   4.685   2.112 -0.0650  0.2191  0.0242
 3595SOL     OW14145   1.957   1.324   5.466 -0.5488 -0.8436  0.5798
 3595SOL    HW214146   2.002   1.297   5.386 -0.5952 -1.1430  0.6564
 3595SOL    HW314147   1.872   1.279   5.463 -1.1588  0.2933  0.0686
 3595SOL    MW414148   1.952   1.315   5.455 -0.3035 -0.3580 -0.5529
 3596SOL     OW14149   6.403   3.457   2.793 -0.4187 -0.4766  0.2281
 3596SOL    HW214150   6.309   3.443   2.780 -0.3001 -1.7207  0.5319
 3596SOL    HW314151   6.409   3.545   2.830 -1.3635  0.0736 -0.8556
 3596SOL    MW414152   6.391   3.467   2.796  0.1138 -0.1972  0.2060
 3597SOL     OW14153   3.702   4.720   2.189  0.0043 -0.6773 -0.1965
 3597SOL    HW214154   3.751   4.671   2.123 -1.4687 -2.9992  0.3335
 3597SOL    HW314155   3.617   4.676   2.195 -1.4710  1.9871  0.3260
 3597SOL    MW414156   3.697   4.708   2.181 -0.4852  0.2689  0.0824
 3598SOL     OW14157   0.259   6.123   5.862 -0.5577  0.6428 -0.6189
 3598SOL    HW214158   0.332   6.068   5.835 -0.2953  0.8110 -0.2549
 3598SOL    HW314159   0.251   6.108   5.956 -0.4142  1.3080 -0.4982
 3598SOL    MW414160   0.267   6.113   5.870 -0.0938  0.0465 -0.1166
 3599SOL     OW14161   6.389   0.776   4.453 -0.1790  0.4914 -0.0262
 3599SOL    HW214162   6.295   0.779   4.437 -0.0691 -0.6580 -1.0602
 3599SOL    HW314163   6.426   0.747   4.370  1.0837  0.8201  0.4069
 3599SOL    MW414164   6.381   0.772   4.440  0.6815  0.3616  0.6575
 3600SOL     OW14165   5.373   1.147   5.790  0.0911 -0.3205  0.5303
 3600SOL    HW214166   5.403   1.235   5.814 -1.1597  0.0368  0.8625
 3600SOL    HW314167   5.443   1.113   5.734  1.1294  0.4312  1.3362
 3600SOL    MW414168   5.386   1.154   5.786  0.1779 -0.1863 -0.5954
 3601SOL     OW14169   3.517   0.359   3.950  0.0851 -0.0670 -0.1829
 3601SOL    HW214170   3.427   0.328   3.962 -0.0288  0.0627 -0.6573
 3601SOL    HW314171   3.525   0.433   4.009 -0.7457  1.1251 -1.5039
 3601SOL    MW414172   3.506   0.364   3.959 -0.2012  0.4034 -0.1127
 3602SOL     OW14173   5.139   4.713   0.495 -0.0903  0.5732  0.1367
 3602SOL    HW214174   5.080   4.676   0.560 -0.0703  2.0176  1.0113
 3602SOL    HW314175   5.106   4.679   0.411 -1.5727  0.5967  0.6790
 3602SOL    MW414176   5.127   4.703   0.492 -0.0441 -0.0123 -0.3324
 3603SOL     OW14177   3.213   5.601   3.581  0.1434  0.0802  0.4586
 3603SOL    HW214178   3.271   5.527   3.595 -0.4348 -0.1191  2.0522
 3603SOL    HW314179   3.189   5.630   3.669  0.5810  2.3582 -0.0959
 3603SOL    MW414180   3.217   5.595   3.595 -0.3310  0.1027 -0.4225
 3604SOL     OW14181   0.825   5.507   1.925  0.2291  0.2070 -0.8989
 3604SOL    HW214182   0.840   5.532   1.834  0.3909 -0.9795 -1.2267
 3604SOL    HW314183   0.772   5.427   1.918  0.9427 -0.3574  0.0157
 3604SOL    MW414184   0.820   5.499   1.912 -0.2111  0.3950 -0.0046
 3605SOL     OW14185   0.510   5.093   5.609 -0.3308  0.1419 -0.1393
 3605SOL    HW214186   0.597   5.131   5.622  0.6017 -1.2896 -1.7438
 3605SOL    HW314187   0.457   5.129   5.680  1.3000  1.8313  0.2983
 3605SOL    MW414188   0.515   5.102   5.620  0.0036  0.1252 -0.2967
 3606SOL     OW14189   5.809   3.577   6.063 -0.0722  0.7615 -0.6832
 3606SOL    HW214190   5.785   3.498   6.014  0.7235  1.0571 -1.5978
 3606SOL    HW314191   5.735   3.636   6.050 -0.6702  0.1740  0.0056
 3606SOL    MW414192   5.796   3.574   6.055  0.1630  0.4451 -0.0271
 3607SOL     OW14193   4.485   5.684   1.942  0.0966 -0.0778 -0.2076
 3607SOL    HW214194   4.517   5.706   2.029  1.1147  0.3507 -0.6740
 3607SOL    HW314195   4.422   5.613   1.957  2.3769 -2.0690  0.6432
 3607SOL    MW414196   4.481   5.678   1.955 -0.3557  0.7784 -0.8865
 3608SOL     OW14197   3.818   5.386   1.406  1.5345 -0.1445  0.4163
 3608SOL    HW214198   3.806   5.450   1.476  0.6701 -0.1685  0.3029
 3608SOL    HW314199   3.737   5.390   1.355  1.5536 -1.1730  0.2795
 3608SOL    MW414200   3.806   5.395   1.408 -0.3156 -0.1012  0.2069
 3609SOL     OW14201   1.727   0.445   4.029 -0.0694 -0.4960 -0.5149
 3609SOL    HW214202   1.681   0.456   4.112 -0.6362 -0.8043 -0.7833
 3609SOL    HW314203   1.807   0.399   4.051  0.4868  0.6946  0.0673
 3609SOL    MW414204   1.731   0.441   4.043  0.0274  0.4482  0.0140
 3610SOL     OW14205   0.888   2.797   4.168 -0.6952  0.3723 -0.1434
 3610SOL    HW214206   0.883   2.851   4.247  0.8722 -0.5994  0.6866
 3610SOL    HW314207   0.815   2.735   4.177  0.6685 -1.0834  1.6736
 3610SOL    MW414208   0.878   2.796   4.180 -0.3399 -0.0553  0.4157
 3611SOL     OW14209   2.319   5.433   2.977 -0.0730 -0.7444  0.3516
 3611SOL    HW214210   2.260   5.359   2.990 -1.0020  0.0755  0.9686
 3611SOL    HW314211   2.313   5.483   3.058 -1.4605  1.3619 -0.9395
 3611SOL    MW414212   2.310   5.430   2.989  0.2410  0.0373 -0.5094
 3612SOL     OW14213   1.622   4.588   4.789  0.1606 -0.2672  0.3105
 3612SOL    HW214214   1.588   4.631   4.867  1.0851  0.8567  0.1156
 3612SOL    HW314215   1.717   4.589   4.799  0.3754  1.0248 -1.3748
 3612SOL    MW414216   1.630   4.593   4.801  0.3801  0.4737  0.1944
 3613SOL     OW14217   4.876   2.582   6.141 -0.0739  0.1033 -0.5035
 3613SOL    HW214218   4.876   2.624   6.227 -1.2543 -0.2700 -0.3020
 3613SOL    HW314219   4.915   2.495   6.157 -1.0685 -0.2942 -0.1569
 3613SOL    MW414220   4.881   2.576   6.154 -0.1171  0.2220  0.5982
 3614SOL     OW14221   2.709   5.033   1.217  0.1568  0.2448  0.2815
 3614SOL    HW214222   2.660   5.061   1.294 -1.4666 -0.7909 -0.3146
 3614SOL    HW314223   2.749   4.950   1.242 -1.3245 -0.6857 -0.2976
 3614SOL    MW414224   2.708   5.025   1.230  0.2217  0.1923 -0.2332
 3615SOL     OW14225   0.739   0.206   1.947  0.1051 -0.4909 -0.4983
 3615SOL    HW214226   0.805   0.275   1.941  1.2029 -1.3500  0.9550
 3615SOL    HW314227   0.674   0.242   2.008 -0.7834  0.3271 -1.8767
 3615SOL    MW414228   0.739   0.220   1.955 -0.3963 -0.7870  0.5039
 3616SOL     OW14229   0.833   4.285   6.027 -0.2522 -0.1156  0.5921
 3616SOL    HW214230   0.859   4.281   6.119  2.4799 -3.0321 -0.1141
 3616SOL    HW314231   0.911   4.255   5.979 -1.4519  1.5975 -2.7266
 3616SOL    MW414232   0.847   4.280   6.033 -0.3318  0.2638 -0.4556
 3617SOL     OW14233   0.586   1.503   5.423 -0.0959  0.3744 -0.6033
 3617SOL    HW214234   0.626   1.586   5.450 -1.3605  0.9779 -0.5359
 3617SOL    HW314235   0.595   1.502   5.328 -0.3497  0.7441 -0.6344
 3617SOL    MW414236   0.593   1.514   5.414  0.4611  0.1581  0.1433
 3618SOL     OW14237   0.182   0.749   1.044  0.0261  0.5347 -0.0344
 3618SOL    HW214238   0.255   0.747   1.107  0.1649 -0.6658 -0.2040
 3618SOL    HW314239   0.216   0.798   0.970  1.2370 -1.2464 -0.7364
 3618SOL    MW414240   0.196   0.755   1.043  0.1726 -0.0577  0.3696
 3619SOL     OW14241   5.417   4.039   4.417 -0.4603 -0.4840 -0.5548
 3619SOL    HW214242   5.502   3.997   4.433 -0.2097  0.7990  2.0225
 3619SOL    HW314243   5.353   3.969   4.425  0.0643 -0.7653  2.1612
 3619SOL    MW414244   5.420   4.024   4.420 -0.0257  0.1871 -0.1261
 3620SOL     OW14245   2.749   1.703   1.353 -0.4325  0.2728  0.2674
 3620SOL    HW214246   2.827   1.755   1.332 -0.9505  0.7508 -0.5454
 3620SOL    HW314247   2.727   1.728   1.443  1.1783 -0.9569  1.0536
 3620SOL    MW414248   2.756   1.713   1.362 -0.3418 -0.5062 -0.2525
 3621SOL     OW14249   1.094   4.137   6.379 -0.2579  0.1704  0.0387
 3621SOL    HW214250   1.084   4.046   6.410  0.6045  0.5704  1.5762
 3621SOL    HW314251   1.158   4.131   6.307 -0.7829 -0.5197 -0.3908
 3621SOL    MW414252   1.101   4.124   6.373 -0.4021  0.2780 -0.5449
 3622SOL     OW14253   4.257   2.995   2.025 -0.2055  0.2134  0.5083
 3622SOL    HW214254   4.201   3.046   2.082 -0.9484  1.1268 -0.9715
 3622SOL    HW314255   4.344   3.002   2.064 -0.9851 -0.9018  2.6219
 3622SOL    MW414256   4.261   3.002   2.038 -0.3938  1.0450  0.1604
 3623SOL     OW14257   0.688   4.622   1.959  0.0707 -0.1895 -0.2349
 3623SOL    HW214258   0.769   4.668   1.982 -0.2911  0.2962  0.1123
 3623SOL    HW314259   0.649   4.675   1.890 -0.8507  0.6180  0.8592
 3623SOL    MW414260   0.693   4.635   1.953 -0.5036 -0.0013  0.3578
 3624SOL     OW14261   1.990   5.463   4.949 -0.3983  0.2233 -0.4771
 3624SOL    HW214262   1.998   5.369   4.931 -1.6687  0.3748 -2.1013
 3624SOL    HW314263   1.939   5.468   5.030  1.2592 -0.4712  0.6595
 3624SOL    MW414264   1.984   5.451   4.957 -0.0817  0.6515 -0.6213
 3625SOL     OW14265   2.246   4.078   1.017 -0.2330  1.0434 -0.1898
 3625SOL    HW214266   2.170   4.132   1.035 -0.3486  0.9848 -0.5029
 3625SOL    HW314267   2.259   4.084   0.923 -1.2769 -0.8127 -0.5011
 3625SOL    MW414268   2.238   4.086   1.007 -0.0387 -0.3725  0.2438
 3626SOL     OW14269   1.546   2.910   0.680 -0.3761  0.0329 -0.3591
 3626SOL    HW214270   1.553   2.984   0.740  0.2157 -1.4528  1.5022
 3626SOL    HW314271   1.452   2.901   0.664 -0.4532  1.1493 -0.5832
 3626SOL    MW414272   1.535   2.918   0.686  0.4377  0.2372 -0.4205
 3627SOL     OW14273   0.319   1.045   5.896 -0.5605  0.1785 -0.0398
 3627SOL    HW214274   0.387   1.043   5.828  0.0372  0.4830  0.5414
 3627SOL    HW314275   0.304   0.953   5.917  1.3925  0.1469  1.4977
 3627SOL    MW414276   0.326   1.033   5.890 -0.8273 -0.0919 -0.2820
 3628SOL     OW14277   3.701   1.253   1.367 -0.0751  0.5028  0.5362
 3628SOL    HW214278   3.747   1.273   1.449 -0.0435 -0.3805  0.7517
 3628SOL    HW314279   3.651   1.173   1.387 -2.1938  1.7441  0.4852
 3628SOL    MW414280   3.701   1.245   1.380  0.3720  0.5732 -0.3749
 3629SOL     OW14281   2.624   4.397   0.434  0.1074  0.4496 -0.1961
 3629SOL    HW214282   2.716   4.387   0.459 -0.0588  1.1028  0.7485
 3629SOL    HW314283   2.614   4.491   0.420 -0.3250  0.3321 -0.6856
 3629SOL    MW414284   2.635   4.408   0.435  0.4513  0.1189 -0.3107
 3630SOL     OW14285   2.868   4.629   2.498 -0.4524 -0.3246  0.2016
 3630SOL    HW214286   2.790   4.572   2.494 -0.3944 -0.5703  1.9911
 3630SOL    HW314287   2.892   4.630   2.590  1.8303 -0.4459 -0.3356
 3630SOL    MW414288   2.861   4.621   2.510  0.2893  0.1071 -0.5913
 3631SOL     OW14289   1.557   3.453   1.237  0.0068 -0.2346 -0.2887
 3631SOL    HW214290   1.587   3.468   1.326  0.1390  1.5291 -0.5925
 3631SOL    HW314291   1.517   3.365   1.239  0.1992 -0.3101  1.4313
 3631SOL    MW414292   1.555   3.443   1.249  0.2914  0.2579  0.2422
 3632SOL     OW14293   1.640   3.511   5.479 -0.5518  0.0828  0.0629
 3632SOL    HW214294   1.643   3.534   5.572 -0.8514 -0.1805  0.1391
 3632SOL    HW314295   1.548   3.491   5.462 -0.6193  0.7927 -0.4556
 3632SOL    MW414296   1.628   3.511   5.489 -0.4187 -0.1697  0.4543
 3633SOL     OW14297   6.252   0.103   0.876 -0.1711 -0.2364  0.7510
 3633SOL    HW214298   6.288   0.169   0.816 -1.6532 -0.3781 -0.3619
 3633SOL    HW314299   6.329   0.060   0.913  0.8686 -1.1269 -2.1553
 3633SOL    MW414300   6.267   0.106   0.873 -0.3774  0.8108  0.6671
 3634SOL     OW14301   5.000   0.635   3.984  0.5148 -0.2529  0.4020
 3634SOL    HW214302   5.064   0.571   3.953 -0.1051 -0.9756  0.5774
 3634SOL    HW314303   4.937   0.642   3.912 -0.4907 -1.3284  1.1513
 3634SOL    MW414304   5.000   0.628   3.970  0.0506  0.2955  0.2487
 3635SOL     OW14305   3.933   2.009   5.249  0.0255  0.1866  0.2272
 3635SOL    HW214306   3.882   1.981   5.325  1.4647  1.0524  1.5711
 3635SOL    HW314307   3.985   1.932   5.227 -2.1687 -0.8937 -1.5146
 3635SOL    MW414308   3.933   1.995   5.256  0.4883 -0.5789  0.1144
 3636SOL     OW14309   2.458   4.105   2.128  0.6755 -0.1856  0.0208
 3636SOL    HW214310   2.448   4.120   2.034 -0.7514 -3.4868 -0.4911
 3636SOL    HW314311   2.516   4.028   2.133 -0.9700 -1.3912  1.6787
 3636SOL    MW414312   2.465   4.097   2.116  0.2144  0.5557  0.2338
 3637SOL     OW14313   0.323   5.522   3.218  0.2122 -0.4545 -0.1063
 3637SOL    HW214314   0.352   5.506   3.128  0.8992  0.5739 -0.0814
 3637SOL    HW314315   0.400   5.558   3.262 -0.4626  0.1803  0.5752
 3637SOL    MW414316   0.337   5.524   3.212 -0.5824  0.4356  0.7240
 3638SOL     OW14317   2.794   2.484   5.456 -0.0328  0.1848  0.3641
 3638SOL    HW214318   2.792   2.398   5.413 -1.1967  0.3722  0.0041
 3638SOL    HW314319   2.708   2.491   5.498  0.2871  0.9179  0.9179
 3638SOL    MW414320   2.782   2.473   5.456  0.2708 -0.2163  0.0548
 3639SOL     OW14321   4.614   1.643   5.283 -0.1350 -0.7200  0.3205
 3639SOL    HW214322   4.640   1.626   5.192 -0.1890  1.2783 -0.1125
 3639SOL    HW314323   4.696   1.646   5.331 -0.1980 -3.7926  0.7894
 3639SOL    MW414324   4.628   1.641   5.277  0.0485  0.2246  0.3208
 3640SOL     OW14325   3.144   4.324   2.380  0.3898  0.6596  0.5559
 3640SOL    HW214326   3.226   4.289   2.416  0.6184  0.0340 -0.5201
 3640SOL    HW314327   3.160   4.418   2.372  0.6000  0.7061  1.3656
 3640SOL    MW414328   3.157   4.332   2.384  0.2470  0.3953  0.2239
 3641SOL     OW14329   2.067   4.957   1.663 -0.0949  0.9417 -0.1652
 3641SOL    HW214330   2.068   4.862   1.653  1.4233  0.9161 -0.0774
 3641SOL    HW314331   2.051   4.972   1.756  1.1634  0.7025  0.1084
 3641SOL    MW414332   2.065   4.947   1.674  0.3029  0.2659  0.1518
 3642SOL     OW14333   3.669   4.210   2.171 -0.4762 -0.0875 -0.6215
 3642SOL    HW214334   3.614   4.283   2.201  1.4820  1.6020 -0.8930
 3642SOL    HW314335   3.706   4.241   2.089  0.6325 -1.2888 -0.6021
 3642SOL    MW414336   3.666   4.224   2.164  0.2879 -0.3172  0.2321
 3643SOL     OW14337   2.119   6.171   4.666 -0.2025 -0.1227 -0.0195
 3643SOL    HW214338   2.184   6.234   4.695 -0.4641 -0.7777  2.1797
 3643SOL    HW314339   2.169   6.106   4.615  0.5624  0.2645  0.2303
 3643SOL    MW414340   2.134   6.171   4.663  0.0647  0.3178 -0.2571
 3644SOL     OW14341   2.535   5.830   5.035 -0.0883  0.1265 -0.4565
 3644SOL    HW214342   2.496   5.746   5.014  1.2451 -0.4022 -0.9722
 3644SOL    HW314343   2.507   5.848   5.124  2.1830 -2.5097  0.9733
 3644SOL    MW414344   2.526   5.821   5.044  0.0736 -1.0369 -0.5973
 3645SOL     OW14345   4.198   1.662   1.459 -0.3051 -0.3125  0.2573
 3645SOL    HW214346   4.130   1.595   1.457  0.0901 -0.7043 -0.9106
 3645SOL    HW314347   4.166   1.727   1.522 -1.2316 -1.0255  0.5437
 3645SOL    MW414348   4.185   1.661   1.467 -0.2918 -0.1402 -0.1536
 3646SOL     OW14349   1.282   6.205   4.994 -0.0851  0.0181  0.7784
 3646SOL    HW214350   1.191   6.177   5.002  0.1384 -1.5531 -1.4058
 3646SOL    HW314351   1.289   6.241   4.905  1.3471  0.4802  1.0412
 3646SOL    MW414352   1.271   6.206   4.984 -0.5038 -0.2713 -0.1470
 3647SOL     OW14353   3.425   2.639   2.152 -0.7275  0.2843  0.1312
 3647SOL    HW214354   3.470   2.587   2.086 -1.6067  0.4210 -0.5940
 3647SOL    HW314355   3.461   2.609   2.236  2.2715  1.8498 -0.4412
 3647SOL    MW414356   3.435   2.628   2.155  0.6073 -0.5206 -0.3607
 3648SOL     OW14357   6.274   2.392   0.705  0.8643  0.1094  0.1472
 3648SOL    HW214358   6.273   2.381   0.610  0.8133  1.5130 -0.0245
 3648SOL    HW314359   6.357   2.436   0.724  0.2962  1.0170  0.6004
 3648SOL    MW414360   6.285   2.396   0.695  0.5713  0.6414 -0.8657
 3649SOL     OW14361   3.937   4.152   3.310 -0.1280  0.3714  0.2504
 3649SOL    HW214362   3.891   4.221   3.260 -0.0001  0.6906  0.5662
 3649SOL    HW314363   3.903   4.070   3.274  0.6672  0.5682 -1.0304
 3649SOL    MW414364   3.926   4.151   3.299  0.2210  0.3853 -0.2895
 3650SOL     OW14365   6.319   0.177   0.199  0.7536  0.2230 -0.1459
 3650SOL    HW214366   6.320   0.273   0.197 -0.4900  0.2824  0.9750
 3650SOL    HW314367   6.304   0.152   0.108  0.2226  1.1160 -0.3154
 3650SOL    MW414368   6.317   0.187   0.187 -0.1467 -0.1028 -0.2686
 3651SOL     OW14369   4.417   2.788   2.844  0.0269 -0.3565  0.1409
 3651SOL    HW214370   4.336   2.760   2.886 -0.0646  1.7792  1.5461
 3651SOL    HW314371   4.472   2.819   2.916  1.9596 -1.3612 -0.8262
 3651SOL    MW414372   4.414   2.788   2.859 -0.2314  0.0079  0.2930
 3652SOL     OW14373   3.832   1.656   0.697 -0.4535 -0.5919  0.2352
 3652SOL    HW214374   3.763   1.593   0.677 -1.3768 -0.3675  2.3905
 3652SOL    HW314375   3.789   1.720   0.754  0.8766  1.0678 -0.5541
 3652SOL    MW414376   3.817   1.656   0.702 -0.3047 -0.4971  0.1950
 3653SOL     OW14377   3.695   3.690   0.768  0.0310 -0.0985 -0.0644
 3653SOL    HW214378   3.648   3.707   0.687 -0.1154  0.1882  0.0778
 3653SOL    HW314379   3.738   3.773   0.789 -0.6106  0.0792  0.5866
 3653SOL    MW414380   3.694   3.703   0.760  0.0564  0.4304  0.1003
 3654SOL     OW14381   3.538   5.579   3.586  0.7927  0.1365 -0.0325
 3654SOL    HW214382   3.584   5.637   3.647  4.0983 -1.1720 -1.0475
 3654SOL    HW314383   3.597   5.571   3.511 -1.1319 -1.7848 -1.4746
 3654SOL    MW414384   3.552   5.586   3.584  0.2170 -0.3524 -0.3160
 3655SOL     OW14385   6.135   3.348   5.815  0.4363 -0.2019  0.0103
 3655SOL    HW214386   6.147   3.286   5.744  0.8725  0.7281 -0.7600
 3655SOL    HW314387   6.213   3.338   5.870  1.7023  1.2818 -1.4181
 3655SOL    MW414388   6.147   3.339   5.813 -0.6622 -0.6512  0.1949
 3656SOL     OW14389   4.054   3.828   1.866  0.3098 -0.6275 -0.4314
 3656SOL    HW214390   4.107   3.768   1.814  1.5327  0.8448 -0.9493
 3656SOL    HW314391   3.973   3.780   1.882  1.6443 -2.8567  0.1469
 3656SOL    MW414392   4.050   3.814   1.861  0.1007 -0.0216 -0.0935
 3657SOL     OW14393   1.587   1.354   2.447  0.0821  0.2401 -0.0651
 3657SOL    HW214394   1.617   1.444   2.436  0.5424  0.0055 -0.7467
 3657SOL    HW314395   1.602   1.312   2.363 -2.8790  0.3009 -0.7383
 3657SOL    MW414396   1.593   1.360   2.435 -0.4783 -0.1328  0.0985
 3658SOL     OW14397   4.553   5.735   6.309 -0.5403  0.4271 -0.6154
 3658SOL    HW214398   4.491   5.667   6.338  1.9269 -0.6591  2.7678
 3658SOL    HW314399   4.610   5.749   6.385  1.5991  3.4281 -2.5673
 3658SOL    MW414400   4.552   5.728   6.323 -0.1707 -0.2050  0.0382
 3659SOL     OW14401   1.748   2.471   0.160 -0.2340 -0.5828 -0.2572
 3659SOL    HW214402   1.659   2.494   0.132 -0.1490 -0.1319 -0.1667
 3659SOL    HW314403   1.757   2.379   0.137 -0.0128 -0.1249 -2.1211
 3659SOL    MW414404   1.737   2.462   0.154 -0.5825  0.7619  1.0010
 3660SOL     OW14405   3.890   2.712   2.181  0.4632 -0.0639  0.0919
 3660SOL    HW214406   3.857   2.790   2.138  1.3263 -1.3466 -3.2024
 3660SOL    HW314407   3.985   2.720   2.179  0.5637 -1.0944 -0.1313
 3660SOL    MW414408   3.898   2.723   2.175  0.4361 -0.0968 -0.2713
 3661SOL     OW14409   1.883   4.049   4.497  0.7716 -0.1133 -0.4595
 3661SOL    HW214410   1.853   4.055   4.588  1.1696 -0.6312 -0.2874
 3661SOL    HW314411   1.862   3.959   4.471 -1.4349  0.6979 -1.6497
 3661SOL    MW414412   1.877   4.038   4.506 -0.3733  0.5597 -0.4415
 3662SOL     OW14413   5.329   3.112   4.517 -0.1245 -0.3663  0.2104
 3662SOL    HW214414   5.296   3.197   4.546 -3.6636 -1.2020 -0.8491
 3662SOL    HW314415   5.404   3.133   4.462  0.5022  1.8622  1.7977
 3662SOL    MW414416   5.334   3.126   4.514 -0.4194  0.1888  0.3471
 3663SOL     OW14417   6.386   4.192   6.303 -0.2571 -0.2484 -0.9062
 3663SOL    HW214418   6.360   4.272   6.350 -0.3521 -0.9486  0.2773
 3663SOL    HW314419   6.425   4.137   6.370 -0.7170 -1.4388 -1.5976
 3663SOL    MW414420   6.388   4.196   6.318 -0.1770 -0.3094  0.8510
 3664SOL     OW14421   0.822   2.985   5.246 -0.0223  0.1471 -0.6431
 3664SOL    HW214422   0.760   2.966   5.176  0.8260  0.3924 -1.4797
 3664SOL    HW314423   0.767   3.012   5.320 -0.9089  0.2859 -1.3387
 3664SOL    MW414424   0.807   2.986   5.246  0.0956  0.2845  0.0171
 3665SOL     OW14425   6.133   3.099   4.189 -0.3313 -0.1915 -0.0022
 3665SOL    HW214426   6.113   3.005   4.179  0.9288 -0.4678 -0.0295
 3665SOL    HW314427   6.168   3.125   4.104  3.6794 -0.8481  1.2437
 3665SOL    MW414428   6.135   3.090   4.177  0.3491 -0.0209  0.2697
 3666SOL     OW14429   1.306   0.176   5.349  0.1068  0.1561  0.4024
 3666SOL    HW214430   1.282   0.158   5.440  1.3717  0.4496  0.8153
 3666SOL    HW314431   1.348   0.096   5.319 -0.4927 -0.0139 -0.0054
 3666SOL    MW414432   1.308   0.163   5.357  0.0784 -0.5734 -0.5944
 3667SOL     OW14433   1.710   2.619   5.723  0.0075 -0.2920  0.5908
 3667SOL    HW214434   1.636   2.640   5.780  0.0427  0.4465  0.3754
 3667SOL    HW314435   1.670   2.604   5.637  0.1850  1.1606  0.2247
 3667SOL    MW414436   1.695   2.620   5.719  0.0429  0.0558  0.4558
 3668SOL     OW14437   5.107   0.429   3.814  0.8382 -0.1888 -0.0234
 3668SOL    HW214438   5.176   0.372   3.849 -0.1250 -1.0660  0.5166
 3668SOL    HW314439   5.027   0.400   3.859  0.4883  2.4212  1.2283
 3668SOL    MW414440   5.105   0.418   3.825  0.0262 -0.3272  0.0056
 3669SOL     OW14441   2.289   0.689   4.936 -0.3983  0.6875  0.3275
 3669SOL    HW214442   2.311   0.599   4.911  0.1238  0.3316  1.9815
 3669SOL    HW314443   2.319   0.742   4.862 -0.2761 -0.4380 -0.4628
 3669SOL    MW414444   2.296   0.684   4.923 -0.1390 -0.5100 -0.1218
 3670SOL     OW14445   4.821   3.099   5.085 -0.0910  0.2798 -0.2545
 3670SOL    HW214446   4.727   3.111   5.071 -0.0263  1.7320  0.3813
 3670SOL    HW314447   4.846   3.031   5.022 -1.7733 -1.0024  0.3841
 3670SOL    MW414448   4.812   3.092   5.075  0.1616 -0.1563  0.0112
 3671SOL     OW14449   1.521   2.234   2.955  0.3519  0.3069 -0.1509
 3671SOL    HW214450   1.456   2.248   3.024 -0.4027 -1.1856 -0.5203
 3671SOL    HW314451   1.566   2.154   2.981 -0.3111 -0.5906 -1.6207
 3671SOL    MW414452   1.518   2.225   2.967 -0.2565  0.4681  0.1902
 3672SOL     OW14453   5.048   2.708   1.533  0.4029 -0.2007  0.2909
 3672SOL    HW214454   5.076   2.783   1.480 -2.1961  0.0779 -0.8042
 3672SOL    HW314455   5.091   2.722   1.618 -0.1720  2.6651  0.2116
 3672SOL    MW414456   5.058   2.720   1.537  0.8326  0.3480  0.2858
 3673SOL     OW14457   0.157   5.713   4.009 -0.2502 -0.0310  0.4293
 3673SOL    HW214458   0.148   5.636   4.064 -0.3009 -1.5392 -1.5957
 3673SOL    HW314459   0.251   5.733   4.010 -0.4175  0.9141  2.2019
 3673SOL    MW414460   0.168   5.706   4.016 -0.7363  0.2986  0.6040
 3674SOL     OW14461   1.385   5.358   2.423  0.6845 -0.5460  0.1261
 3674SOL    HW214462   1.358   5.299   2.352 -0.4564  0.2259 -0.1223
 3674SOL    HW314463   1.480   5.349   2.426  1.1986  1.4870 -3.5056
 3674SOL    MW414464   1.394   5.349   2.414  0.4618  0.3818 -0.3751
 3675SOL     OW14465   2.385   4.407   3.923 -0.4048  0.0731 -0.4039
 3675SOL    HW214466   2.386   4.322   3.879  1.1544  0.3059 -0.8856
 3675SOL    HW314467   2.320   4.458   3.874 -1.0721 -0.7052 -0.3530
 3675SOL    MW414468   2.377   4.403   3.910  0.4156  0.2596  0.4386
 3676SOL     OW14469   2.933   0.976   6.196  0.3191 -0.5459  0.2254
 3676SOL    HW214470   2.864   0.957   6.259 -1.0740 -0.5547 -1.2333
 3676SOL    HW314471   2.944   0.895   6.146  1.1808 -0.4460  0.2286
 3676SOL    MW414472   2.926   0.963   6.198  0.5742  0.2487  0.4266
 3677SOL     OW14473   1.936   5.631   2.938 -0.8527  0.5611 -0.1813
 3677SOL    HW214474   1.887   5.592   3.010 -0.2936 -0.5031 -0.3574
 3677SOL    HW314475   1.985   5.558   2.900 -1.8274  0.8956 -2.2242
 3677SOL    MW414476   1.936   5.616   2.942  0.5124  0.2919  0.4540
 3678SOL     OW14477   4.602   2.294   5.051  0.0758  0.0191 -0.3184
 3678SOL    HW214478   4.582   2.319   4.961  0.3338  0.1697 -0.3342
 3678SOL    HW314479   4.526   2.243   5.079  0.0739 -0.1826 -0.6809
 3678SOL    MW414480   4.589   2.290   5.043 -0.4315 -0.2715  0.1120
 3679SOL     OW14481   4.305   0.421   3.617 -0.7605  0.0735  0.1932
 3679SOL    HW214482   4.242   0.371   3.565  1.6206 -1.2682 -1.5877
 3679SOL    HW314483   4.366   0.457   3.553  1.7994 -0.8872  1.9635
 3679SOL    MW414484   4.305   0.419   3.602  0.5976 -0.0694 -0.1231
 3680SOL     OW14485   3.783   5.823   2.052  0.0751 -0.1391 -0.0689
 3680SOL    HW214486   3.823   5.773   2.122 -3.1487 -0.0589  2.0512
 3680SOL    HW314487   3.797   5.771   1.973  1.4367 -1.6351  1.1210
 3680SOL    MW414488   3.790   5.810   2.051  0.1068 -0.2622 -0.0900
 3681SOL     OW14489   5.439   1.314   5.387  0.2122  0.3222  0.0593
 3681SOL    HW214490   5.350   1.290   5.361  0.8497 -1.2630 -0.7255
 3681SOL    HW314491   5.452   1.270   5.471  0.8680 -0.9246 -0.6800
 3681SOL    MW414492   5.429   1.305   5.395  0.5545  0.0360 -0.2494
 3682SOL     OW14493   1.733   2.548   1.471  0.4254  0.4250 -0.3678
 3682SOL    HW214494   1.814   2.508   1.441 -0.0107 -1.0803  0.3274
 3682SOL    HW314495   1.704   2.604   1.399  1.6146  0.3031 -0.9558
 3682SOL    MW414496   1.740   2.550   1.458  0.1841  0.2081 -0.0219
 3683SOL     OW14497   3.812   4.280   5.302  0.2070  0.3912  0.2184
 3683SOL    HW214498   3.832   4.370   5.326 -0.6237  0.4494  0.7455
 3683SOL    HW314499   3.817   4.278   5.207  2.9165  0.3218  0.2956
 3683SOL    MW414500   3.815   4.291   5.293 -0.5989 -0.0389  0.4245
 3684SOL     OW14501   2.672   0.003   3.193 -0.1244 -0.0793  0.2609
 3684SOL    HW214502   2.735  -0.035   3.133 -0.7375 -1.8776  0.6868
 3684SOL    HW314503   2.653   0.090   3.157  0.2964 -0.7000 -1.5530
 3684SOL    MW414504   2.678   0.010   3.180 -0.6922  0.0009 -0.7625
 3685SOL     OW14505   6.323   5.345   4.996  0.0474 -0.4440 -0.2399
 3685SOL    HW214506   6.380   5.422   4.997 -0.8177  0.2116  0.8296
 3685SOL    HW314507   6.341   5.302   5.080  0.2930 -1.2596 -0.6935
 3685SOL    MW414508   6.333   5.350   5.007  0.0340  0.4056 -0.1126
 3686SOL     OW14509   3.003   2.670   1.137  0.5850 -0.4377 -0.2213
 3686SOL    HW214510   3.095   2.685   1.116  0.5351  1.7615  0.8130
 3686SOL    HW314511   2.986   2.581   1.108  2.8913 -0.7241 -0.9145
 3686SOL    MW414512   3.013   2.660   1.130 -0.3850 -0.1950  0.5023
 3687SOL     OW14513   0.764   4.128   4.051 -0.1232  0.2422 -0.1556
 3687SOL    HW214514   0.813   4.130   3.968 -1.1459  0.3090 -0.7824
 3687SOL    HW314515   0.695   4.064   4.036  0.2414 -0.4381  0.9960
 3687SOL    MW414516   0.761   4.120   4.038 -0.0319  0.1281 -0.3794
 3688SOL     OW14517   2.753   1.705   3.867  0.1157  0.2215  0.2525
 3688SOL    HW214518   2.697   1.680   3.940  0.3424  0.3324  0.4681
 3688SOL    HW314519   2.694   1.711   3.792  0.2200 -2.1602 -0.0980
 3688SOL    MW414520   2.738   1.702   3.867 -0.0072 -0.1107 -0.3295
 3689SOL     OW14521   4.032   0.720   5.818  0.2675  0.3771 -0.4510
 3689SOL    HW214522   4.070   0.686   5.899  1.5730  0.0600 -1.1629
 3689SOL    HW314523   3.971   0.652   5.789  0.2858  0.2016 -0.0738
 3689SOL    MW414524   4.029   0.707   5.825  0.0719  0.1754 -0.1666
 3690SOL     OW14525   1.795   2.276   3.189 -0.3088 -0.2983  1.0344
 3690SOL    HW214526   1.830   2.209   3.130 -2.1590 -0.6257  0.2284
 3690SOL    HW314527   1.729   2.229   3.241 -1.5559  0.8623  0.5353
 3690SOL    MW414528   1.791   2.261   3.188  0.3520 -0.5689  0.2028
 3691SOL     OW14529   3.238   2.578   5.360  0.2274 -0.0633  0.4125
 3691SOL    HW214530   3.304   2.513   5.383  0.3871  0.2804  0.9471
 3691SOL    HW314531   3.225   2.628   5.441 -0.6739 -0.1187  0.3096
 3691SOL    MW414532   3.245   2.576   5.374  0.3688  0.3559  0.0201
 3692SOL     OW14533   2.966   0.778   5.999  0.3956 -0.1787  0.6167
 3692SOL    HW214534   3.057   0.756   6.019  1.3666 -0.1415 -3.1675
 3692SOL    HW314535   2.945   0.727   5.921 -2.8292 -0.0452  1.2601
 3692SOL    MW414536   2.975   0.768   5.992  0.0956 -0.2410 -0.0905
 3693SOL     OW14537   3.039   2.602   2.567  0.0787  0.2849  0.1742
 3693SOL    HW214538   3.022   2.564   2.653 -1.7575  0.5372 -0.0441
 3693SOL    HW314539   3.127   2.571   2.545  1.0187  1.0392  2.5582
 3693SOL    MW414540   3.049   2.593   2.576  0.2648  0.2492 -0.5784
 3694SOL     OW14541   1.540   0.347   6.282  0.1204 -0.0363  0.4666
 3694SOL    HW214542   1.563   0.363   6.373  1.4674  0.1090  0.1096
 3694SOL    HW314543   1.510   0.432   6.249 -0.2951 -0.0725  0.7403
 3694SOL    MW414544   1.539   0.360   6.290 -0.0461 -0.2570 -0.0621
 3695SOL     OW14545   1.665   3.271   5.611 -0.5515  0.5358  0.6459
 3695SOL    HW214546   1.676   3.343   5.549  0.1803 -0.3369 -0.2782
 3695SOL    HW314547   1.753   3.254   5.644 -0.8595  0.6468  1.5310
 3695SOL    MW414548   1.678   3.278   5.607  0.1655 -0.2021 -0.3561
 3696SOL     OW14549   4.104   1.692   6.213 -0.4346 -0.2902  0.0888
 3696SOL    HW214550   4.014   1.723   6.222  0.4325  2.0701  1.7349
 3696SOL    HW314551   4.125   1.654   6.298  0.3602 -0.1444 -0.0326
 3696SOL    MW414552   4.095   1.691   6.225 -0.2057  0.1431  0.6815
 3697SOL     OW14553   6.077   4.386   3.787 -0.3899  0.4056 -0.4508
 3697SOL    HW214554   6.008   4.431   3.738 -0.3874 -1.0538 -1.8617
 3697SOL    HW314555   6.043   4.380   3.876 -1.4253  1.0358 -0.7838
 3697SOL    MW414556   6.064   4.391   3.792  0.0202 -0.2507 -0.3475
 3698SOL     OW14557   1.015   1.424   4.438 -0.1428  0.0278  0.8565
 3698SOL    HW214558   0.979   1.370   4.367  0.5144  0.4404  0.2052
 3698SOL    HW314559   1.102   1.389   4.453  0.1241  0.6230  0.7270
 3698SOL    MW414560   1.022   1.412   4.430 -0.6157  0.3505  0.6050
 3699SOL     OW14561   6.249   4.783   5.053  0.1003 -0.0484 -0.0103
 3699SOL    HW214562   6.257   4.824   4.967  3.4932  3.1176  1.4871
 3699SOL    HW314563   6.322   4.721   5.056 -0.1859 -0.3626  0.4731
 3699SOL    MW414564   6.260   4.780   5.042 -0.4199  0.0118 -0.4293
 3700SOL     OW14565   6.138   2.955   6.389  0.1182 -0.0925  0.4072
 3700SOL    HW214566   6.213   3.009   6.363  0.0951 -0.1792  0.1582
 3700SOL    HW314567   6.169   2.865   6.380 -0.0294 -0.1303  0.2541
 3700SOL    MW414568   6.152   2.950   6.384 -0.8843  0.0516 -0.1741
 3701SOL     OW14569   5.676   2.988   6.097 -0.9170 -0.3781  0.0011
 3701SOL    HW214570   5.700   2.996   6.004 -0.8531  1.2201  0.1311
 3701SOL    HW314571   5.760   2.980   6.142 -0.8434  0.5208  0.0472
 3701SOL    MW414572   5.691   2.988   6.091 -0.0725  0.3349  0.0840
 3702SOL     OW14573   6.209   5.903   5.506  0.2374  0.0769  0.0397
 3702SOL    HW214574   6.242   5.893   5.417 -0.5542 -1.5266 -0.1116
 3702SOL    HW314575   6.131   5.848   5.510 -0.0010  0.4545  1.5990
 3702SOL    MW414576   6.203   5.894   5.495 -0.1707  0.8579  0.6978
 3703SOL     OW14577   0.935   4.966   4.067 -0.0082  0.2783 -0.6450
 3703SOL    HW214578   0.872   5.014   4.120 -0.3034  0.2786 -0.9996
 3703SOL    HW314579   1.011   4.956   4.125 -0.6138 -0.4096  0.0533
 3703SOL    MW414580   0.937   4.971   4.082  0.8493  0.1273  0.1961
 3704SOL     OW14581   1.911   4.205   4.974 -0.5206  0.2708  0.5106
 3704SOL    HW214582   1.927   4.117   5.008  1.6965 -0.0877 -1.2600
 3704SOL    HW314583   1.873   4.191   4.888 -0.6718  1.0778  0.4382
 3704SOL    MW414584   1.908   4.191   4.967 -0.2400  0.1795  0.2720
 3705SOL     OW14585   4.049   3.726   4.774 -0.1446 -0.8290 -0.0429
 3705SOL    HW214586   4.035   3.730   4.869 -0.1912 -1.1679 -0.0344
 3705SOL    HW314587   4.075   3.815   4.750 -2.1594 -0.1858 -0.0283
 3705SOL    MW414588   4.050   3.739   4.783 -0.4037  0.1374  0.0660
 3706SOL     OW14589   0.531   1.810   0.418 -0.0141  0.2784  0.3823
 3706SOL    HW214590   0.473   1.861   0.475  1.0907  2.8128 -0.5839
 3706SOL    HW314591   0.619   1.830   0.450  0.5102 -0.0937 -0.7767
 3706SOL    MW414592   0.535   1.820   0.429 -0.2919 -0.0976  0.2483
 3707SOL     OW14593   2.943   1.593   2.698  0.2400 -0.1322  1.2698
 3707SOL    HW214594   2.942   1.525   2.765  1.5224  0.1869  1.6350
 3707SOL    HW314595   2.930   1.674   2.746 -2.1320 -0.1459  0.7437
 3707SOL    MW414596   2.941   1.594   2.713 -0.1972 -0.0482  0.2311
 3708SOL     OW14597   4.611   1.198   1.801 -0.7478 -0.6210  0.0326
 3708SOL    HW214598   4.533   1.171   1.753 -0.8624 -0.4244  0.1046
 3708SOL    HW314599   4.625   1.128   1.865 -0.6239 -0.8565 -0.2500
 3708SOL    MW414600   4.603   1.185   1.803 -0.2441  0.4771  0.4707
 3709SOL     OW14601   5.325   1.026   1.734 -0.1790  0.0254  0.3759
 3709SOL    HW214602   5.344   0.962   1.803 -0.5934  2.0386  2.4858
 3709SOL    HW314603   5.390   1.095   1.748 -0.6989  0.7786 -0.8654
 3709SOL    MW414604   5.336   1.026   1.745  0.2473 -0.3457  0.2792
 3710SOL     OW14605   3.650   3.235   0.864  0.1610 -0.2072  0.3235
 3710SOL    HW214606   3.645   3.311   0.922  1.8663 -0.3491  0.7286
 3710SOL    HW314607   3.659   3.160   0.923 -0.8691 -0.6693 -0.0880
 3710SOL    MW414608   3.651   3.235   0.880 -0.4686 -0.0347 -0.1464
 3711SOL     OW14609   4.854   2.106   2.485  0.4558 -0.0703 -0.1592
 3711SOL    HW214610   4.786   2.101   2.419  0.7622  2.2042 -0.7215
 3711SOL    HW314611   4.936   2.097   2.436  0.6597 -2.0785  0.4260
 3711SOL    MW414612   4.856   2.104   2.470  0.5507 -0.4730 -0.0828
 3712SOL     OW14613   6.065   1.391   4.018 -0.1056  0.0281 -0.3426
 3712SOL    HW214614   5.999   1.322   4.020  0.3695 -0.4482 -0.9446
 3712SOL    HW314615   6.128   1.368   4.086 -1.4363  1.4037  1.4667
 3712SOL    MW414616   6.065   1.379   4.027 -0.0142  0.1901  0.0399
 3713SOL     OW14617   6.350   0.185   3.667 -0.0221 -0.2852  0.1420
 3713SOL    HW214618   6.256   0.193   3.683 -0.0206  2.2377 -0.6782
 3713SOL    HW314619   6.368   0.248   3.598  2.6259  0.7813  1.6683
 3713SOL    MW414620   6.340   0.194   3.660  0.0738  0.5862 -0.3068
 3714SOL     OW14621   3.975   5.777   5.279 -0.1404  0.3181  0.5821
 3714SOL    HW214622   4.059   5.777   5.231 -0.7697 -4.4470 -1.0240
 3714SOL    HW314623   4.000   5.766   5.370  1.0412 -0.1322  0.2278
 3714SOL    MW414624   3.990   5.776   5.284  0.3448 -0.1878 -0.5213
 3715SOL     OW14625   1.986   3.303   0.180 -0.1368  0.4867  0.0370
 3715SOL    HW214626   1.975   3.392   0.213 -3.2027  0.2542 -0.0961
 3715SOL    HW314627   2.011   3.252   0.258  0.4316  1.2239  0.3549
 3715SOL    MW414628   1.988   3.308   0.195 -0.5481  0.4571  0.2042
 3716SOL     OW14629   4.003   4.631   4.885 -0.0284 -0.8249  0.4426
 3716SOL    HW214630   4.053   4.663   4.810 -1.2481 -2.5694 -1.2336
 3716SOL    HW314631   4.048   4.551   4.911 -1.2229 -1.8071 -0.3734
 3716SOL    MW414632   4.015   4.624   4.878 -0.4468 -1.0521  0.4241
 3717SOL     OW14633   1.516   3.799   0.715  0.6244  0.4701  0.0965
 3717SOL    HW214634   1.594   3.775   0.665 -1.2570 -1.0488 -2.3262
 3717SOL    HW314635   1.449   3.817   0.649 -1.3007  1.0639  2.0638
 3717SOL    MW414636   1.517   3.798   0.700  0.0491 -0.3352  0.5919
 3718SOL     OW14637   4.392   4.227   6.368  0.5077  0.1823 -0.1578
 3718SOL    HW214638   4.339   4.302   6.393 -1.9813 -1.1160 -1.2051
 3718SOL    HW314639   4.395   4.172   6.446 -2.5821 -1.2595 -0.9149
 3718SOL    MW414640   4.385   4.230   6.381 -0.1671  0.3449  0.4310
 3719SOL     OW14641   1.806   0.646   0.771  0.2223 -0.5681 -0.5650
 3719SOL    HW214642   1.773   0.657   0.861  1.5441 -0.0227 -0.1134
 3719SOL    HW314643   1.831   0.554   0.766  0.3831 -0.5431 -0.2792
 3719SOL    MW414644   1.805   0.635   0.783 -0.3434  0.4674  0.0958
 3720SOL     OW14645   5.794   0.276   4.585 -0.2457 -0.0427  0.4117
 3720SOL    HW214646   5.751   0.191   4.591  0.2556 -0.3578 -0.2700
 3720SOL    HW314647   5.727   0.339   4.612 -1.8191 -0.3192 -2.4475
 3720SOL    MW414648   5.780   0.273   4.589  0.4900 -0.2162  0.1261
 3721SOL     OW14649   2.000   0.082   1.203 -0.0504 -0.0031 -0.0171
 3721SOL    HW214650   2.018   0.028   1.280  3.0780  1.4644  0.4265
 3721SOL    HW314651   2.026   0.028   1.129 -1.3538 -0.7525  0.0472
 3721SOL    MW414652   2.005   0.068   1.204  0.2275  0.4221 -0.0061
 3722SOL     OW14653   5.405   4.609   0.988  0.1221  0.2398  0.1634
 3722SOL    HW214654   5.382   4.517   0.974 -1.6155  0.4750  1.1832
 3722SOL    HW314655   5.491   4.607   1.030  0.1649 -0.9010  0.0413
 3722SOL    MW414656   5.413   4.597   0.991 -0.3130  0.3630 -0.4303
 3723SOL     OW14657   4.381   2.483   5.362 -0.2487  0.1855  0.3777
 3723SOL    HW214658   4.415   2.512   5.278  0.8351  0.5462  0.9250
 3723SOL    HW314659   4.318   2.552   5.387 -0.9562 -0.1762 -0.3459
 3723SOL    MW414660   4.377   2.496   5.355  0.0952  0.3794  0.4637
 3724SOL     OW14661   4.236   3.421   3.544  0.3395 -0.9556 -0.0066
 3724SOL    HW214662   4.291   3.345   3.560 -0.7833 -1.5286  1.3075
 3724SOL    HW314663   4.242   3.473   3.624  0.9077  0.2376 -0.7984
 3724SOL    MW414664   4.244   3.418   3.556 -0.5622 -0.0552  0.3121
 3725SOL     OW14665   4.642   0.852   2.309 -0.1118  0.1186  0.3958
 3725SOL    HW214666   4.726   0.806   2.313 -0.5411 -0.5538  2.6603
 3725SOL    HW314667   4.622   0.874   2.400 -1.0947  2.7226 -0.3515
 3725SOL    MW414668   4.651   0.849   2.321  0.1166 -0.0309  0.7762
 3726SOL     OW14669   1.528   2.571   2.859 -0.7205 -0.2077 -0.1108
 3726SOL    HW214670   1.612   2.525   2.862 -0.5276  0.1331 -0.2089
 3726SOL    HW314671   1.473   2.524   2.920 -0.1502  0.1578  0.7124
 3726SOL    MW414672   1.532   2.559   2.867 -0.0654  0.2848  0.9703
 3727SOL     OW14673   5.714   0.464   1.958  0.0976 -0.3987  0.8886
 3727SOL    HW214674   5.801   0.482   1.994 -0.1708  1.9859  0.5075
 3727SOL    HW314675   5.724   0.477   1.864 -0.0619 -2.9651  0.4500
 3727SOL    MW414676   5.727   0.468   1.950 -0.6312 -0.2878 -0.4185
 3728SOL     OW14677   0.991   4.685   3.005  0.3748  0.4823 -0.2611
 3728SOL    HW214678   0.902   4.711   3.028  0.3186 -0.2666  0.4025
 3728SOL    HW314679   0.988   4.670   2.910 -0.4651 -0.4852 -0.0953
 3728SOL    MW414680   0.979   4.686   2.995  0.3442 -0.0315  0.3343
 3729SOL     OW14681   0.792   3.378   0.928 -0.2528 -0.3766  0.3415
 3729SOL    HW214682   0.750   3.350   1.009 -1.2599 -1.2990 -0.4687
 3729SOL    HW314683   0.734   3.444   0.892 -0.4206 -0.8056 -0.1946
 3729SOL    MW414684   0.779   3.383   0.934 -0.1072 -0.0788  0.7158
 3730SOL     OW14685   4.300   3.123   5.682 -0.4434 -0.8018  0.4074
 3730SOL    HW214686   4.269   3.118   5.773 -1.8914 -0.2772 -0.0215
 3730SOL    HW314687   4.221   3.141   5.631  0.4769 -0.2312 -0.8718
 3730SOL    MW414688   4.285   3.125   5.687  0.4766  0.0947 -0.0399
 3731SOL     OW14689   3.717   1.775   3.648 -0.3439 -0.3138 -0.6378
 3731SOL    HW214690   3.719   1.681   3.666  1.3027 -0.4760 -1.4968
 3731SOL    HW314691   3.654   1.810   3.711  0.6566 -1.6906  1.2223
 3731SOL    MW414692   3.709   1.767   3.659 -0.1030  0.0765 -0.0544
 3732SOL     OW14693   1.840   5.522   1.888 -0.0519 -0.1257 -0.4157
 3732SOL    HW214694   1.800   5.457   1.831 -0.6821 -1.4089  1.4000
 3732SOL    HW314695   1.781   5.598   1.883 -0.6341 -0.5876 -0.6992
 3732SOL    MW414696   1.827   5.523   1.880 -0.1460 -0.1318  0.1070
 3733SOL     OW14697   3.562   3.577   5.226  0.3769  0.3782 -0.5115
 3733SOL    HW214698   3.547   3.645   5.292 -0.3078 -1.3634  1.2531
 3733SOL    HW314699   3.619   3.514   5.270 -0.3963 -1.0251 -1.4533
 3733SOL    MW414700   3.568   3.578   5.241  0.2016  0.1758  0.7177
 3734SOL     OW14701   3.999   3.017   0.667  0.4481  0.2774  0.5558
 3734SOL    HW214702   4.086   2.992   0.635  0.3878 -0.3657  0.8743
 3734SOL    HW314703   3.941   3.007   0.592  0.6211  0.5854  0.3764
 3734SOL    MW414704   4.003   3.013   0.653  1.0561  0.3110  0.7282
 3735SOL     OW14705   4.400   3.917   3.658  0.1080 -0.0231 -0.0529
 3735SOL    HW214706   4.316   3.948   3.691  0.4272 -0.2258  0.9594
 3735SOL    HW314707   4.412   3.966   3.576 -0.3454  1.0496  0.4938
 3735SOL    MW414708   4.391   3.928   3.651 -0.0942  0.0902 -0.0662
 3736SOL     OW14709   1.685   4.514   0.557  0.5682 -0.2437 -0.2437
 3736SOL    HW214710   1.645   4.498   0.472  1.1357  0.4869 -0.6585
 3736SOL    HW314711   1.617   4.559   0.608  0.4433 -0.1157 -0.5244
 3736SOL    MW414712   1.671   4.518   0.553 -0.2982  0.2204 -0.3046
 3737SOL     OW14713   5.426   4.666   0.491 -0.1168 -0.4606 -0.1577
 3737SOL    HW214714   5.457   4.711   0.413  0.5300 -0.7490 -0.0740
 3737SOL    HW314715   5.331   4.675   0.488 -0.0870 -0.3344 -0.8956
 3737SOL    MW414716   5.417   4.673   0.481  0.0621  0.2893 -0.3023
 3738SOL     OW14717   3.343   2.001   3.434 -0.2489  0.0150  0.4106
 3738SOL    HW214718   3.254   2.032   3.455  0.4007  1.2034  1.5863
 3738SOL    HW314719   3.333   1.907   3.421 -2.2460  0.5066 -2.8354
 3738SOL    MW414720   3.330   1.993   3.435  0.2752  0.8679 -0.2675
 3739SOL     OW14721   4.524   2.110   0.636  0.5232 -0.0549  0.3727
 3739SOL    HW214722   4.558   2.115   0.547  0.0499  0.2552  0.2081
 3739SOL    HW314723   4.433   2.084   0.626  0.6784 -0.8184  0.8088
 3739SOL    MW414724   4.517   2.107   0.623 -0.4461  0.1966 -0.1179
 3740SOL     OW14725   5.841   0.978   5.351 -0.1228 -0.3983  0.2016
 3740SOL    HW214726   5.845   0.989   5.446  0.4957  0.1262  0.1143
 3740SOL    HW314727   5.868   1.062   5.315 -0.2247 -0.6334 -0.4463
 3740SOL    MW414728   5.845   0.991   5.359 -0.1884  0.3860  0.4627
 3741SOL     OW14729   0.818   0.723   2.225 -0.1069 -0.4426 -0.0772
 3741SOL    HW214730   0.755   0.794   2.208  0.3480  0.2517  1.0176
 3741SOL    HW314731   0.886   0.764   2.278 -0.3215 -1.9338  1.4374
 3741SOL    MW414732   0.818   0.738   2.230 -0.1560 -0.0845 -0.0860
 3742SOL     OW14733   2.162   2.576   2.049 -0.4290  0.4830  0.3251
 3742SOL    HW214734   2.218   2.616   2.116 -0.2909  0.6091  0.1351
 3742SOL    HW314735   2.073   2.586   2.083 -0.2201 -2.7742  2.3380
 3742SOL    MW414736   2.158   2.583   2.062  0.1287 -0.3314  0.2553
 3743SOL     OW14737   2.239   6.042   2.237  0.2439 -0.5743 -0.1714
 3743SOL    HW214738   2.225   5.952   2.210 -0.6710 -0.3813 -0.3997
 3743SOL    HW314739   2.150   6.078   2.244  0.4753 -0.3001  1.9944
 3743SOL    MW414740   2.225   6.035   2.234 -0.1662  0.3781 -0.2211
 3744SOL     OW14741   2.004   1.780   3.536  0.1595  0.3859  0.8796
 3744SOL    HW214742   1.911   1.790   3.559 -0.0912 -0.7073  0.4087
 3744SOL    HW314743   2.005   1.708   3.473  1.4674 -0.4167  1.7922
 3744SOL    MW414744   1.992   1.772   3.530 -0.1645 -0.1962 -0.3289
 3745SOL     OW14745   1.490   4.552   1.192 -0.1014  0.3313  0.1380
 3745SOL    HW214746   1.543   4.472   1.197 -1.4063 -0.5380  0.5703
 3745SOL    HW314747   1.407   4.523   1.154  0.2736  1.9897 -2.1614
 3745SOL    MW414748   1.486   4.537   1.188  0.1810  0.7779 -0.2044
 3746SOL     OW14749   4.326   5.868   1.782 -0.0874 -0.1790  1.0044
 3746SOL    HW214750   4.391   5.798   1.790  0.5751  0.1915 -0.6284
 3746SOL    HW314751   4.292   5.858   1.693 -2.4003 -0.4423  1.8442
 3746SOL    MW414752   4.330   5.857   1.771  0.0547 -0.6252 -0.6415
 3747SOL     OW14753   3.956   4.911   2.543 -0.0616 -0.3664  0.4501
 3747SOL    HW214754   3.886   4.975   2.530 -0.8441 -1.2391  0.2682
 3747SOL    HW314755   3.932   4.837   2.486  0.2390 -1.2840  1.4835
 3747SOL    MW414756   3.943   4.909   2.534  0.0956 -0.4225  0.1684
 3748SOL     OW14757   6.319   2.053   3.926  0.8408 -0.2153 -0.1232
 3748SOL    HW214758   6.262   2.036   4.001 -0.5068 -3.0417 -1.6178
 3748SOL    HW314759   6.303   2.145   3.905 -1.8172 -0.3941  0.6914
 3748SOL    MW414760   6.309   2.063   3.933  0.4699 -0.2065 -0.2862
 3749SOL     OW14761   6.144   1.149   6.068 -0.0346 -0.8170 -0.0840
 3749SOL    HW214762   6.058   1.191   6.067 -0.5901 -1.7934  1.8652
 3749SOL    HW314763   6.188   1.187   6.144  1.5385  0.0727 -1.3493
 3749SOL    MW414764   6.138   1.160   6.078  0.2225  0.2464  0.4673
 3750SOL     OW14765   2.906   5.623   3.946  0.0508  0.5664 -0.2476
 3750SOL    HW214766   2.931   5.534   3.920 -4.8155 -1.0395 -0.5738
 3750SOL    HW314767   2.928   5.628   4.039 -0.8814 -1.6395  0.1590
 3750SOL    MW414768   2.912   5.612   3.955 -0.4274 -0.3837  0.4101
 3751SOL     OW14769   2.231   2.453   5.408 -1.1622  0.2454  0.5025
 3751SOL    HW214770   2.139   2.426   5.405 -0.4477 -2.5915  1.1916
 3751SOL    HW314771   2.275   2.398   5.344  0.3016  0.3234  1.3871
 3751SOL    MW414772   2.225   2.442   5.399 -0.1294  0.2249 -0.1678
 3752SOL     OW14773   2.977   5.332   0.965 -0.0476 -0.0055 -0.2005
 3752SOL    HW214774   2.988   5.427   0.968  0.5612 -0.0917  0.9749
 3752SOL    HW314775   3.041   5.303   0.900  0.6459  0.2928  0.3259
 3752SOL    MW414776   2.987   5.341   0.957  0.1287 -0.2938  0.3334
 3753SOL     OW14777   1.283   3.525   3.038 -0.1831 -0.0350  0.5238
 3753SOL    HW214778   1.337   3.498   3.112 -0.2077  2.5450  1.5878
 3753SOL    HW314779   1.297   3.620   3.031 -1.7363  0.1236 -1.5118
 3753SOL    MW414780   1.292   3.534   3.047  0.2567 -0.3843 -0.2082
 3754SOL     OW14781   4.050   5.964   2.322 -0.6215  0.2529  0.1012
 3754SOL    HW214782   4.140   5.932   2.334 -0.7120  0.3048  0.9610
 3754SOL    HW314783   4.044   6.041   2.378 -1.1356  0.3844 -0.1327
 3754SOL    MW414784   4.061   5.970   2.331  0.1376 -0.1421 -0.3836
 3755SOL     OW14785   4.706   3.029   2.657  0.3365  0.0131  0.0439
 3755SOL    HW214786   4.671   2.991   2.738 -0.8503  0.2836 -0.3173
 3755SOL    HW314787   4.791   3.065   2.681  0.1239 -0.1741  1.1023
 3755SOL    MW414788   4.712   3.029   2.671 -0.0264 -0.4095 -0.8706
 3756SOL     OW14789   5.398   5.785   2.052 -0.6971  0.5019 -0.7971
 3756SOL    HW214790   5.416   5.692   2.042  2.3698  0.5865  2.1040
 3756SOL    HW314791   5.413   5.822   1.965  1.1911 -1.3174 -1.3183
 3756SOL    MW414792   5.402   5.778   2.039 -0.3975  0.0452  0.5657
 3757SOL     OW14793   6.049   4.498   2.499  0.6856  0.4908  0.1108
 3757SOL    HW214794   6.032   4.478   2.407  2.4452 -0.5541 -0.0194
 3757SOL    HW314795   6.125   4.555   2.497 -1.4479  3.6394  0.7675
 3757SOL    MW414796   6.056   4.503   2.487  0.2382 -0.1747  0.7356
 3758SOL     OW14797   1.045   4.673   5.049 -0.6687 -0.9697 -0.5228
 3758SOL    HW214798   0.969   4.728   5.066 -0.6829 -1.0235 -0.4081
 3758SOL    HW314799   1.010   4.596   5.003 -0.6633 -0.9302 -0.5931
 3758SOL    MW414800   1.031   4.670   5.045 -0.1248 -0.9885 -0.8080
 3759SOL     OW14801   5.682   4.388   4.349  0.1420  0.4393 -0.3322
 3759SOL    HW214802   5.775   4.404   4.335  0.7145 -1.3027  1.0601
 3759SOL    HW314803   5.657   4.330   4.277  0.6042 -0.4969  0.2345
 3759SOL    MW414804   5.691   4.383   4.338  0.0440  0.4285 -0.8409
 3760SOL     OW14805   5.074   4.407   1.937  0.0944  0.1390 -0.1590
 3760SOL    HW214806   5.119   4.488   1.963  2.9891 -1.2135 -0.5298
 3760SOL    HW314807   4.995   4.437   1.892  0.7459  2.7319  0.2475
 3760SOL    MW414808   5.070   4.422   1.935  0.3812  0.3424  0.1239
 3761SOL     OW14809   5.626   5.432   0.608  0.2300  0.2657 -0.0957
 3761SOL    HW214810   5.568   5.409   0.681  0.2259 -0.3820 -0.2954
 3761SOL    HW314811   5.590   5.513   0.573  0.4569  0.7997  0.8594
 3761SOL    MW414812   5.614   5.439   0.613 -0.4062 -0.2399 -0.1516
 3762SOL     OW14813   6.368   2.664   0.128  0.1394 -0.4001 -0.6437
 3762SOL    HW214814   6.440   2.712   0.086  0.3181 -1.5785 -1.7531
 3762SOL    HW314815   6.400   2.647   0.217  0.0486  1.5177 -0.2117
 3762SOL    MW414816   6.382   2.668   0.135  0.4562  0.2608  0.2140
 3763SOL     OW14817   4.391   2.070   2.297 -0.3707  0.5255 -0.2549
 3763SOL    HW214818   4.320   2.031   2.348 -0.2030 -0.6005 -0.8386
 3763SOL    HW314819   4.372   2.163   2.295 -1.4923  0.3108  0.1346
 3763SOL    MW414820   4.379   2.077   2.303  0.0719  0.2185 -0.1503
 3764SOL     OW14821   2.354   1.147   2.952 -0.4159 -0.7441  0.2282
 3764SOL    HW214822   2.448   1.161   2.955 -0.3404 -1.0559 -0.5750
 3764SOL    HW314823   2.317   1.234   2.938 -0.0850 -0.9323 -2.1922
 3764SOL    MW414824   2.361   1.161   2.950  0.1335  0.3171  0.0938
 3765SOL     OW14825   2.865   4.506   5.102  0.3397  0.3762 -0.2223
 3765SOL    HW214826   2.844   4.478   5.191  1.0432  0.6098  0.0265
 3765SOL    HW314827   2.809   4.453   5.045  1.1720 -1.0787  0.2659
 3765SOL    MW414828   2.855   4.495   5.106 -0.3562  0.1071 -0.5491
 3766SOL     OW14829   3.895   1.513   2.974 -0.0423  0.2014  0.4636
 3766SOL    HW214830   3.900   1.431   2.925 -2.0461  0.1827  0.2199
 3766SOL    HW314831   3.949   1.574   2.924  0.6382 -0.6950  0.0845
 3766SOL    MW414832   3.903   1.510   2.961  0.1351  0.1150 -0.3192
 3767SOL     OW14833   6.224   2.429   0.049  0.1239  0.2061 -0.3355
 3767SOL    HW214834   6.259   2.494   0.110 -0.3182 -1.5368  1.9016
 3767SOL    HW314835   6.138   2.463   0.025 -0.4760  0.1095  1.4921
 3767SOL    MW414836   6.217   2.442   0.054  0.0635 -0.3858  0.1112
 3768SOL     OW14837   3.615   0.767   1.313  0.2748  0.2618 -0.5980
 3768SOL    HW214838   3.652   0.687   1.348 -1.0931  0.0129  0.3763
 3768SOL    HW314839   3.606   0.751   1.219 -3.6867 -2.4123 -0.0051
 3768SOL    MW414840   3.619   0.755   1.305  0.0982  0.3558 -0.0740
 3769SOL     OW14841   4.714   6.235   6.012 -0.3651  0.1923  0.0600
 3769SOL    HW214842   4.644   6.229   6.076  1.3141 -1.0234  1.8903
 3769SOL    HW314843   4.706   6.156   5.958 -0.4868  0.1308  0.1707
 3769SOL    MW414844   4.704   6.224   6.013 -0.1978  0.0946 -0.1218
 3770SOL     OW14845   5.388   4.130   3.625  0.1070  0.0890  0.0549
 3770SOL    HW214846   5.327   4.146   3.553  0.6238 -1.1377 -0.6855
 3770SOL    HW314847   5.344   4.066   3.681  1.3876 -2.2490 -1.4676
 3770SOL    MW414848   5.374   4.124   3.623 -0.3219  0.3280 -0.1516
 3771SOL     OW14849   2.517   5.598   2.453 -0.8903  0.0773 -0.3236
 3771SOL    HW214850   2.525   5.670   2.390  1.4167  1.9446  1.8776
 3771SOL    HW314851   2.596   5.545   2.439 -1.0488 -0.2808  0.1108
 3771SOL    MW414852   2.529   5.600   2.443 -0.2061 -0.2279  0.4171
 3772SOL     OW14853   5.398   5.200   4.638  0.0364  0.1162 -0.4372
 3772SOL    HW214854   5.436   5.224   4.554 -0.1333 -0.0741 -0.5696
 3772SOL    HW314855   5.451   5.126   4.668  0.8719  0.9533  0.2025
 3772SOL    MW414856   5.410   5.193   4.631  0.3688  0.1627  0.1060
 3773SOL     OW14857   5.083   0.506   4.777  0.5286 -0.3284  0.3624
 3773SOL    HW214858   5.109   0.485   4.687  1.2568  0.3267  0.4117
 3773SOL    HW314859   4.990   0.529   4.771  1.0840  1.8208 -0.5873
 3773SOL    MW414860   5.074   0.506   4.764  0.9766  0.6067  0.0127
 3774SOL     OW14861   0.483   2.456   0.568 -0.4816  0.0863  0.1375
 3774SOL    HW214862   0.499   2.368   0.532  2.4675  0.7775 -0.5397
 3774SOL    HW314863   0.503   2.448   0.661  2.6356  0.5025 -0.3755
 3774SOL    MW414864   0.488   2.443   0.575 -0.3806  0.3742  0.6129
 3775SOL     OW14865   2.787   2.724   3.700  0.8480  0.2623  0.0867
 3775SOL    HW214866   2.817   2.651   3.646  0.1253 -0.9315  1.2257
 3775SOL    HW314867   2.707   2.753   3.657  0.3410 -0.6047  0.4015
 3775SOL    MW414868   2.780   2.718   3.687 -0.4325  0.0591 -0.2541
 3776SOL     OW14869   0.227   4.753   1.615  0.3587 -0.3527 -0.2501
 3776SOL    HW214870   0.289   4.802   1.560  0.1791 -1.1852 -1.2353
 3776SOL    HW314871   0.281   4.686   1.658  0.1263 -1.2848 -1.3581
 3776SOL    MW414872   0.242   4.750   1.613  0.2710 -0.4611 -0.1088
 3777SOL     OW14873   6.379   1.931   4.305  0.3315 -0.3278 -0.3038
 3777SOL    HW214874   6.292   1.892   4.312 -0.8145  1.5780 -2.5273
 3777SOL    HW314875   6.424   1.878   4.239  0.1540 -0.1284 -0.5826
 3777SOL    MW414876   6.374   1.919   4.297  0.0266 -0.3128 -0.2700
 3778SOL     OW14877   1.291   0.402   1.716 -0.4141  0.0594 -0.0412
 3778SOL    HW214878   1.211   0.388   1.767 -0.2676 -1.8413 -0.2392
 3778SOL    HW314879   1.262   0.446   1.636 -0.8694  1.6511  0.9640
 3778SOL    MW414880   1.277   0.406   1.712 -0.3700 -0.4111  0.0833
 3779SOL     OW14881   1.307   5.616   5.464  0.6901 -0.3329 -0.1709
 3779SOL    HW214882   1.290   5.592   5.373 -2.6860 -0.6949  0.4092
 3779SOL    HW314883   1.281   5.708   5.469 -1.3030 -0.8966  0.8096
 3779SOL    MW414884   1.301   5.625   5.453  0.0642  0.0093  0.3049
 3780SOL     OW14885   1.123   4.554   6.247 -0.1022  0.2828  0.4194
 3780SOL    HW214886   1.038   4.509   6.238 -0.0487  0.1853  0.3919
 3780SOL    HW314887   1.184   4.496   6.201 -0.2300  0.9559 -0.6258
 3780SOL    MW414888   1.120   4.540   6.239 -0.1547  0.6370 -0.0673
 3781SOL     OW14889   6.181   2.834   2.777  0.0147  0.0322  0.5166
 3781SOL    HW214890   6.225   2.830   2.692  1.3449 -1.3150  1.2159
 3781SOL    HW314891   6.249   2.814   2.841 -1.0710  0.4824  1.8776
 3781SOL    MW414892   6.195   2.831   2.774 -0.1775 -0.0988 -0.0711
 3782SOL     OW14893   3.490   0.613   1.838  0.6767  0.2798 -0.2150
 3782SOL    HW214894   3.395   0.611   1.828  0.8290  1.7705 -2.7476
 3782SOL    HW314895   3.514   0.524   1.865 -1.4038 -0.1095  0.5164
 3782SOL    MW414896   3.481   0.601   1.841 -0.3799 -1.0133 -0.5873
 3783SOL     OW14897   3.924   5.540   6.178 -0.0929 -0.1223  0.0795
 3783SOL    HW214898   3.916   5.502   6.091 -0.2070 -1.1572  0.5343
 3783SOL    HW314899   3.837   5.532   6.216 -0.4943  1.8425 -0.2921
 3783SOL    MW414900   3.912   5.534   6.171  0.5132  0.2669  0.4725
 3784SOL     OW14901   6.045   5.743   5.160  0.4533 -0.4873 -0.4741
 3784SOL    HW214902   5.999   5.751   5.243  0.5658 -2.4861 -0.1596
 3784SOL    HW314903   6.040   5.650   5.139  0.0073  0.0305 -2.9681
 3784SOL    MW414904   6.039   5.732   5.168 -0.3011  0.1785  0.2751
 3785SOL     OW14905   3.419   6.242   5.402 -0.1771 -0.0926  0.2471
 3785SOL    HW214906   3.501   6.252   5.354  0.3817 -0.1406  1.1628
 3785SOL    HW314907   3.437   6.173   5.466 -1.3961 -1.1410 -0.4986
 3785SOL    MW414908   3.432   6.234   5.404 -0.3246  0.2840  0.1498
 3786SOL     OW14909   6.368   3.149   0.632 -0.4823  0.4762 -0.0431
 3786SOL    HW214910   6.328   3.066   0.659 -0.0122  0.3994  0.4459
 3786SOL    HW314911   6.294   3.205   0.608 -1.1324  1.1511  3.0665
 3786SOL    MW414912   6.353   3.145   0.633  0.2720 -0.4622  0.2995
 3787SOL     OW14913   4.057   1.689   2.836  0.0682 -0.3479 -0.1295
 3787SOL    HW214914   4.011   1.764   2.800 -0.7310 -0.0732  1.3665
 3787SOL    HW314915   4.096   1.722   2.917  1.8776 -0.9064 -0.7392
 3787SOL    MW414916   4.056   1.703   2.842  0.1256 -0.0852 -0.4248
 3788SOL     OW14917   1.391   0.872   2.859 -0.6246  0.4405  0.2070
 3788SOL    HW214918   1.349   0.845   2.777 -0.6144  1.1325 -0.0292
 3788SOL    HW314919   1.471   0.820   2.863 -1.8328 -1.4655  1.0328
 3788SOL    MW414920   1.396   0.862   2.848  0.1149  0.0395  0.0502
 3789SOL     OW14921   1.087   0.733   0.573  0.5318  0.1468 -0.9681
 3789SOL    HW214922   1.032   0.707   0.499 -0.6874 -0.1867  0.0277
 3789SOL    HW314923   1.104   0.826   0.558 -3.1710  1.2105  0.3782
 3789SOL    MW414924   1.082   0.742   0.561 -0.1592 -0.2003 -0.0632
 3790SOL     OW14925   3.666   1.046   4.403 -0.2882  0.2286 -0.3824
 3790SOL    HW214926   3.753   1.009   4.418  0.4700  1.6128 -1.1870
 3790SOL    HW314927   3.609   0.970   4.396  0.6911 -0.6908  1.0534
 3790SOL    MW414928   3.670   1.031   4.404  0.1474  0.3586 -0.0734
 3791SOL     OW14929   4.871   5.422   0.521  0.3774 -0.0742 -0.2532
 3791SOL    HW214930   4.862   5.386   0.433  0.5008  0.4302 -0.4753
 3791SOL    HW314931   4.938   5.489   0.513  0.0106  0.3451  0.1097
 3791SOL    MW414932   4.879   5.426   0.508  0.2468  0.1532  0.1976
 3792SOL     OW14933   2.759   5.297   2.184 -0.1169 -0.5020 -0.1283
 3792SOL    HW214934   2.730   5.279   2.095  2.6557 -1.1189 -1.0081
 3792SOL    HW314935   2.706   5.238   2.239 -2.6001  0.6280 -1.1352
 3792SOL    MW414936   2.748   5.287   2.180  0.2505  0.4574  0.4665
 3793SOL     OW14937   2.492   5.769   4.302  0.3153  0.3709 -0.4495
 3793SOL    HW214938   2.526   5.756   4.391  1.4828 -1.4110 -1.1014
 3793SOL    HW314939   2.561   5.819   4.257 -0.1888  1.1044 -0.4364
 3793SOL    MW414940   2.506   5.774   4.308  0.3649 -0.0376 -0.0915
 3794SOL     OW14941   0.206   2.422   0.560 -0.5810  0.2586 -0.6004
 3794SOL    HW214942   0.213   2.328   0.576  0.2408  0.3045 -0.6484
 3794SOL    HW314943   0.296   2.454   0.563 -0.8570  1.0622 -0.5006
 3794SOL    MW414944   0.218   2.414   0.563 -0.3969 -0.0678 -0.7294
 3795SOL     OW14945   6.294   2.323   0.367  0.1231  0.1613  0.0888
 3795SOL    HW214946   6.361   2.369   0.315  0.9609 -1.6979 -0.5416
 3795SOL    HW314947   6.332   2.237   0.383 -1.0999 -0.0767  1.8786
 3795SOL    MW414948   6.308   2.318   0.362  0.0320  0.3460 -0.2288
 3796SOL     OW14949   0.122   3.884   4.269  0.0144 -0.0582 -0.9551
 3796SOL    HW214950   0.143   3.915   4.181  0.2865 -0.3321 -0.9914
 3796SOL    HW314951   0.026   3.887   4.274 -0.0447 -0.6820 -1.5060
 3796SOL    MW414952   0.112   3.888   4.258  0.2674  0.5277  0.3385
 3797SOL     OW14953   2.733   1.615   0.231 -0.2282  0.3955  0.3484
 3797SOL    HW214954   2.798   1.655   0.173 -0.1639  0.5645  0.5358
 3797SOL    HW314955   2.651   1.623   0.183 -0.5967  2.6094  1.2100
 3797SOL    MW414956   2.731   1.621   0.217 -0.4249 -0.0229  0.0454
 3798SOL     OW14957   0.089   1.630   3.678 -0.0518  0.2252  0.2230
 3798SOL    HW214958   0.065   1.712   3.721 -0.6089 -0.0169  0.3822
 3798SOL    HW314959   0.050   1.562   3.733  0.8961 -0.1836  0.4195
 3798SOL    MW414960   0.081   1.632   3.691  0.6136  0.3882 -0.4479
 3799SOL     OW14961   2.680   3.263   6.243 -0.7470  0.3227 -0.0100
 3799SOL    HW214962   2.731   3.338   6.213 -1.0508  0.7545  0.5324
 3799SOL    HW314963   2.594   3.276   6.203 -0.1577 -0.9594 -1.7838
 3799SOL    MW414964   2.675   3.275   6.234 -0.2951  0.0320 -0.5112
 3800SOL     OW14965   4.565   1.462   0.743  0.2547  0.3118 -0.6053
 3800SOL    HW214966   4.613   1.382   0.724  0.0235  0.5803 -2.6027
 3800SOL    HW314967   4.501   1.468   0.672 -3.0166 -0.1945  2.0427
 3800SOL    MW414968   4.563   1.452   0.731  0.0647  0.4001  0.0676
 3801SOL     OW14969   3.904   3.759   2.939 -0.3653  0.1789  0.0010
 3801SOL    HW214970   3.833   3.822   2.944 -1.1276 -0.7444  1.6512
 3801SOL    HW314971   3.952   3.770   3.021  0.1937 -0.5691 -0.2128
 3801SOL    MW414972   3.901   3.769   2.951  0.3573 -0.4794 -0.1275
 3802SOL     OW14973   5.625   4.110   0.800 -0.0219 -0.0690 -0.0036
 3802SOL    HW214974   5.633   4.020   0.768  1.2627 -0.2807  0.8303
 3802SOL    HW314975   5.716   4.137   0.817 -0.5072  0.7694  1.4203
 3802SOL    MW414976   5.638   4.102   0.798  0.5261 -0.1648 -0.0383
 3803SOL     OW14977   2.535   5.183   6.032  0.1336 -0.6998 -0.0327
 3803SOL    HW214978   2.540   5.209   6.124  1.3830 -1.2615  0.0775
 3803SOL    HW314979   2.624   5.155   6.010 -0.3889 -1.5669 -1.1266
 3803SOL    MW414980   2.548   5.183   6.041  0.1654  0.5063  0.3179
 3804SOL     OW14981   6.063   0.488   1.419  0.3074 -0.0607 -0.2949
 3804SOL    HW214982   5.986   0.522   1.373 -0.2996 -0.9271  0.0631
 3804SOL    HW314983   6.040   0.398   1.442  1.9974 -0.8728 -1.5263
 3804SOL    MW414984   6.050   0.480   1.416  0.1579 -0.5292 -0.2573
 3805SOL     OW14985   0.907   5.645   3.747 -0.6223 -0.3146 -0.0136
 3805SOL    HW214986   0.911   5.739   3.727 -2.6316 -0.4716 -1.3789
 3805SOL    HW314987   0.817   5.629   3.774 -0.4581 -1.9464 -0.3026
 3805SOL    MW414988   0.896   5.655   3.748 -0.1728 -0.1217  0.8329
 3806SOL     OW14989   3.730   0.040   4.596 -0.5329 -0.2079  0.4600
 3806SOL    HW214990   3.635   0.055   4.588 -0.4157  0.2275 -0.2868
 3806SOL    HW314991   3.761   0.110   4.653 -0.7846 -0.8851  1.4488
 3806SOL    MW414992   3.721   0.051   4.602  0.1502 -0.1027 -0.2881
 3807SOL     OW14993   6.338   4.643   3.086  0.4062 -0.4469  0.3274
 3807SOL    HW214994   6.294   4.703   3.025 -0.6803 -0.2075  1.3141
 3807SOL    HW314995   6.319   4.556   3.052  0.6537 -0.2880 -0.2299
 3807SOL    MW414996   6.330   4.639   3.073  0.3599 -0.1482 -0.3032
 3808SOL     OW14997   1.790   3.613   4.746 -0.5746  0.6108  0.0968
 3808SOL    HW214998   1.702   3.651   4.748 -0.6506  0.4650 -0.4774
 3808SOL    HW314999   1.777   3.522   4.719 -0.2557  0.5654  0.0897
 3808SOL    MW415000   1.777   3.606   4.743 -0.2978  0.3164  0.3941
 3809SOL     OW15001   0.813   4.262   3.566  0.1589 -0.5086 -0.0783
 3809SOL    HW215002   0.863   4.247   3.486 -0.5819 -0.1873 -0.6118
 3809SOL    HW315003   0.784   4.353   3.559  0.4541 -0.3344  0.7727
 3809SOL    MW415004   0.816   4.272   3.555 -0.0318 -0.2709  0.1530
 3810SOL     OW15005   4.941   6.117   6.364  0.2327 -0.4976  0.3457
 3810SOL    HW215006   4.911   6.033   6.330 -0.9303 -0.5341  1.3799
 3810SOL    HW315007   4.910   6.119   6.454  1.3847  0.4938  0.7475
 3810SOL    MW415008   4.933   6.106   6.371 -0.3460  0.7394 -0.5600
 3811SOL     OW15009   0.026   4.094   1.811  0.5514 -0.1814  0.3106
 3811SOL    HW215010   0.039   4.136   1.896  1.3741  0.2211 -0.0010
 3811SOL    HW315011  -0.048   4.141   1.772  0.2350 -0.3022  0.7636
 3811SOL    MW415012   0.018   4.106   1.817 -0.4410  0.7680 -0.1469
 3812SOL     OW15013   1.223   1.065   0.814  0.4262  0.0114  0.0471
 3812SOL    HW215014   1.172   1.048   0.734  0.5405  0.0287 -0.0296
 3812SOL    HW315015   1.306   1.021   0.798 -0.5280 -2.4220  1.2864
 3812SOL    MW415016   1.227   1.057   0.801  0.0967  0.1975  0.2024
 3813SOL     OW15017   3.094   5.620   1.890 -0.2490  0.5995 -0.5816
 3813SOL    HW215018   3.109   5.713   1.875 -3.7034  0.8637 -3.3495
 3813SOL    HW315019   3.017   5.617   1.947  0.2562 -0.6270  0.0730
 3813SOL    MW415020   3.086   5.632   1.896 -0.0775  1.0159  0.0515
 3814SOL     OW15021   0.660   3.462   1.548  0.0591 -0.0426  0.0970
 3814SOL    HW215022   0.683   3.514   1.625 -0.7567  1.6026 -0.7180
 3814SOL    HW315023   0.712   3.499   1.477 -0.9669  0.0765 -0.6200
 3814SOL    MW415024   0.670   3.474   1.549 -0.0752 -0.6005 -0.3461
 3815SOL     OW15025   6.166   0.876   4.937 -0.2065 -0.3780  0.3755
 3815SOL    HW215026   6.119   0.824   5.002 -0.5194 -0.8959 -0.2486
 3815SOL    HW315027   6.202   0.811   4.876 -0.3095  0.1139 -0.2232
 3815SOL    MW415028   6.164   0.861   4.938 -0.2979 -0.1803 -0.0887
 3816SOL     OW15029   1.282   4.143   4.603  0.1148  0.2379 -0.1323
 3816SOL    HW215030   1.370   4.120   4.575  0.3392  0.5309  0.3289
 3816SOL    HW315031   1.271   4.098   4.687 -0.3613 -0.2048 -0.4222
 3816SOL    MW415032   1.292   4.134   4.610 -0.0151  0.1294  0.1036
 3817SOL     OW15033   4.989   4.530   3.927  0.1378 -0.0811 -0.0551
 3817SOL    HW215034   4.895   4.540   3.917  0.1626 -0.9431 -1.4890
 3817SOL    HW315035   5.021   4.514   3.838  1.3873 -1.8077  0.6420
 3817SOL    MW415036   4.981   4.529   3.914 -0.4795  0.0111 -0.6026
 3818SOL     OW15037   3.754   2.183   6.057 -0.4820  0.1769  0.2070
 3818SOL    HW215038   3.717   2.177   5.969 -1.3170 -2.2311  0.6620
 3818SOL    HW315039   3.679   2.169   6.116  0.3800 -0.1384  1.2669
 3818SOL    MW415040   3.739   2.181   6.054  0.4339 -0.3969 -0.5989
 3819SOL     OW15041   2.186   6.426   4.080  0.0601 -0.0968 -0.0071
 3819SOL    HW215042   2.205   6.432   4.174 -0.0601  0.6454 -0.0240
 3819SOL    HW315043   2.091   6.421   4.075 -0.0634  1.7019 -0.1502
 3819SOL    MW415044   2.176   6.426   4.092  0.2359 -0.3889  0.6606
 3820SOL     OW15045   5.913   1.367   3.383  0.3690  0.2175 -0.0747
 3820SOL    HW215046   6.003   1.398   3.374  0.4790 -0.4413 -1.5844
 3820SOL    HW315047   5.862   1.424   3.326 -0.0494  0.1316  0.2102
 3820SOL    MW415048   5.918   1.378   3.374  0.3765  0.0352 -0.0260
 3821SOL     OW15049   0.931   2.856   3.339  0.5557 -0.4856 -0.2021
 3821SOL    HW215050   1.004   2.914   3.317 -0.6212  0.3653 -2.1805
 3821SOL    HW315051   0.930   2.792   3.268 -0.9054 -0.1508 -0.5121
 3821SOL    MW415052   0.941   2.855   3.327 -0.1454 -0.2760 -0.4713
 3822SOL     OW15053   3.852   1.750   6.363 -0.7568 -0.1772 -0.1200
 3822SOL    HW215054   3.803   1.669   6.347 -0.9219 -0.0321 -0.3448
 3822SOL    HW315055   3.795   1.819   6.330 -0.2028 -0.0417 -0.7998
 3822SOL    MW415056   3.838   1.748   6.357 -0.3085 -0.2113 -0.3074
 3823SOL     OW15057   6.092   0.204   4.576  0.0651 -0.4312  0.6856
 3823SOL    HW215058   6.117   0.296   4.572 -0.2706 -0.3704 -1.4988
 3823SOL    HW315059   5.996   0.206   4.578  0.0158 -0.7010 -0.4893
 3823SOL    MW415060   6.082   0.216   4.576 -0.0770  0.0481 -0.1453
 3824SOL     OW15061   4.525   4.147   0.445  0.7345 -0.3819  0.3516
 3824SOL    HW215062   4.595   4.108   0.393  1.2892  0.3226  0.5487
 3824SOL    HW315063   4.540   4.242   0.438  0.1763 -0.2432  0.9103
 3824SOL    MW415064   4.536   4.155   0.437 -0.0263 -0.1677  0.4281
 3825SOL     OW15065   3.175   0.321   5.984  0.2020 -0.2385  0.3859
 3825SOL    HW215066   3.192   0.274   5.903  1.4368 -2.6220  1.8992
 3825SOL    HW315067   3.146   0.253   6.045  1.9923  0.9215  2.6905
 3825SOL    MW415068   3.173   0.305   5.982  0.3034 -0.1799  0.3580
 3826SOL     OW15069   0.745   3.061   2.491 -0.3746 -0.4427 -0.1301
 3826SOL    HW215070   0.665   3.050   2.440 -0.0234 -0.3272 -0.7150
 3826SOL    HW315071   0.722   3.029   2.578 -1.1219 -0.1952 -0.2274
 3826SOL    MW415072   0.732   3.055   2.496 -0.0621  0.0354 -0.0287
 3827SOL     OW15073   5.715   5.863   0.375  0.2091 -0.1121 -0.3117
 3827SOL    HW215074   5.737   5.956   0.376 -0.7105  0.1089 -0.4495
 3827SOL    HW315075   5.764   5.827   0.301 -0.4103  0.5088 -1.0400
 3827SOL    MW415076   5.725   5.870   0.366 -0.2939  0.1709 -0.1556
 3828SOL     OW15077   4.706   3.888   2.630  0.3200 -0.0227  0.1436
 3828SOL    HW215078   4.699   3.803   2.673  1.4678  0.2062  0.8273
 3828SOL    HW315079   4.620   3.928   2.642 -0.6197 -1.5200 -1.1846
 3828SOL    MW415080   4.694   3.882   2.637 -0.3525 -1.0156  0.4128
 3829SOL     OW15081   3.377   1.376   2.494  0.0990  0.1013 -0.1453
 3829SOL    HW215082   3.449   1.320   2.465  0.4368  0.5475 -0.1827
 3829SOL    HW315083   3.306   1.315   2.514  0.1933 -0.2913 -0.9449
 3829SOL    MW415084   3.377   1.360   2.493 -0.2252 -0.8153  0.4720
 3830SOL     OW15085   5.558   6.019   3.974 -0.0558 -0.0827 -0.4973
 3830SOL    HW215086   5.504   5.958   3.924 -0.0950  0.7386 -1.5115
 3830SOL    HW315087   5.583   6.086   3.910  1.8645 -0.2489  0.0309
 3830SOL    MW415088   5.554   6.020   3.959 -0.1204  0.3884  0.0773
 3831SOL     OW15089   4.216   5.358   5.315  0.3732 -0.1877 -0.3719
 3831SOL    HW215090   4.161   5.431   5.285  0.1689 -0.4319 -0.5919
 3831SOL    HW315091   4.168   5.321   5.390 -0.4464 -1.2508 -1.3930
 3831SOL    MW415092   4.203   5.363   5.321 -0.0004  0.9118  0.3110
 3832SOL     OW15093   4.745   0.440   5.431  0.7608  0.5349  0.0195
 3832SOL    HW215094   4.680   0.370   5.440  0.0990  1.1182 -0.1827
 3832SOL    HW315095   4.789   0.421   5.348 -0.0746  0.8909 -0.5192
 3832SOL    MW415096   4.742   0.428   5.421  0.8911 -0.4343 -0.3198
 3833SOL     OW15097   6.337   0.722   0.817 -0.0848  0.3648  0.0677
 3833SOL    HW215098   6.348   0.679   0.732 -1.6468  0.1992 -0.0836
 3833SOL    HW315099   6.370   0.658   0.881 -0.8606 -0.3963 -0.2744
 3833SOL    MW415100   6.343   0.708   0.814 -0.3935  0.7013 -0.1741
 3834SOL     OW15101   2.635   4.105   4.944  0.0567  0.3355  0.7656
 3834SOL    HW215102   2.542   4.088   4.935 -0.6787  2.6679  2.8593
 3834SOL    HW315103   2.666   4.039   5.006 -0.3881  0.0525  0.6857
 3834SOL    MW415104   2.627   4.094   4.951  0.0215  0.2171  0.0354
 3835SOL     OW15105   0.066   1.858   1.332  0.3035 -0.2510  0.6207
 3835SOL    HW215106   0.062   1.861   1.236  1.1028 -0.3798  0.5758
 3835SOL    HW315107   0.009   1.930   1.360  1.5781  1.0614 -0.0067
 3835SOL    MW415108   0.058   1.868   1.323 -0.2424  0.2736 -0.7070
 3836SOL     OW15109   2.389   1.688   1.376  0.5641  0.2246 -0.2925
 3836SOL    HW215110   2.305   1.715   1.412  0.3663 -1.2672  0.4176
 3836SOL    HW315111   2.378   1.693   1.281 -0.3386 -0.0185 -0.2030
 3836SOL    MW415112   2.377   1.692   1.368 -0.2270  0.2381 -0.2263
 3837SOL     OW15113   6.115   2.277   2.315 -0.0805 -0.1781  0.9224
 3837SOL    HW215114   6.122   2.370   2.294  0.8817 -0.3268  0.5720
 3837SOL    HW315115   6.202   2.252   2.345 -0.1130 -1.1673  0.2193
 3837SOL    MW415116   6.127   2.286   2.316  0.0499  0.2515 -0.4230
 3838SOL     OW15117   1.294   1.642   5.813  0.3238 -0.1014  0.1153
 3838SOL    HW215118   1.386   1.626   5.795 -0.5861 -3.9957 -2.1138
 3838SOL    HW315119   1.273   1.721   5.763  2.4589  1.2699  1.2080
 3838SOL    MW415120   1.303   1.651   5.804  0.3014 -0.1983  0.1933
 3839SOL     OW15121   5.768   1.282   2.691  0.0321 -0.0586 -0.0272
 3839SOL    HW215122   5.714   1.359   2.677 -0.8641 -0.4253  1.2373
 3839SOL    HW315123   5.842   1.294   2.631 -0.3438  1.5132 -0.2342
 3839SOL    MW415124   5.771   1.294   2.681 -0.0446 -0.0504  0.4307
 3840SOL     OW15125   3.064   2.963   4.571  0.7399  0.3355  1.0011
 3840SOL    HW215126   3.044   3.055   4.591 -1.0968  0.1989  0.0632
 3840SOL    HW315127   3.158   2.961   4.559  0.6504  2.4754 -0.6826
 3840SOL    MW415128   3.074   2.975   4.572 -0.5996 -0.1257  0.2132
 3841SOL     OW15129   3.591   3.751   2.103 -0.4652 -0.1754  0.1881
 3841SOL    HW215130   3.555   3.837   2.127 -1.0704 -0.4985  0.4576
 3841SOL    HW315131   3.586   3.749   2.008  0.6735  0.5646  0.0946
 3841SOL    MW415132   3.586   3.762   2.094  0.8074 -0.1144  0.4497
 3842SOL     OW15133   1.977   6.169   2.209  0.2269  0.5214 -0.2066
 3842SOL    HW215134   1.960   6.221   2.131 -1.0817 -2.5097 -2.1436
 3842SOL    HW315135   1.900   6.184   2.264  0.0220  0.8647 -0.5769
 3842SOL    MW415136   1.964   6.178   2.206  0.2479  0.5955 -0.5458
 3843SOL     OW15137   0.393   6.228   1.629  0.1101 -0.4217  0.7317
 3843SOL    HW215138   0.308   6.266   1.653  0.7211  0.8044  1.0702
 3843SOL    HW315139   0.429   6.290   1.565  0.6766 -1.0271  0.4540
 3843SOL    MW415140   0.387   6.241   1.624 -0.0595 -0.2460  0.4600
 3844SOL     OW15141   1.277   1.335   4.511 -0.1824  0.1758 -0.3348
 3844SOL    HW215142   1.258   1.357   4.602 -0.2403 -0.0469 -0.2924
 3844SOL    HW315143   1.324   1.252   4.516  2.4448  1.5434 -0.2912
 3844SOL    MW415144   1.281   1.327   4.523 -0.0355  0.2476 -0.4277
 3845SOL     OW15145   0.571   2.620   3.801 -0.2670  0.1560  0.4376
 3845SOL    HW215146   0.563   2.595   3.893 -1.1259  0.6713  0.5121
 3845SOL    HW315147   0.482   2.637   3.773  0.1592  2.0979  0.1191
 3845SOL    MW415148   0.558   2.619   3.810 -0.5820  0.2614  0.0579
 3846SOL     OW15149   0.602   2.013   4.971  0.5691 -0.4687 -0.3860
 3846SOL    HW215150   0.639   2.097   4.945  0.5813  0.0456  1.1997
 3846SOL    HW315151   0.652   1.988   5.049 -0.2308 -1.3621 -0.1468
 3846SOL    MW415152   0.613   2.021   4.978  0.1220  0.2007 -0.2908
 3847SOL     OW15153   3.575   4.829   0.280 -0.1158 -0.0089 -0.2534
 3847SOL    HW215154   3.644   4.791   0.227  0.7348 -3.3898  2.8311
 3847SOL    HW315155   3.494   4.791   0.245  0.2832 -1.0364 -0.1109
 3847SOL    MW415156   3.573   4.819   0.269 -0.2370  0.2293 -0.0697
 3848SOL     OW15157   6.256   1.964   1.444  0.0082 -0.3288 -0.1288
 3848SOL    HW215158   6.189   2.032   1.454  0.2019 -0.1946  0.2740
 3848SOL    HW315159   6.214   1.897   1.391  0.5035  1.0313 -2.3852
 3848SOL    MW415160   6.242   1.964   1.438 -0.3489 -0.5615  0.0936
 3849SOL     OW15161   5.580   5.771   1.440 -0.8222 -0.1245  0.5404
 3849SOL    HW215162   5.616   5.830   1.507 -0.8820 -0.5584  0.9545
 3849SOL    HW315163   5.525   5.710   1.488 -2.6088  0.8603 -0.1407
 3849SOL    MW415164   5.578   5.771   1.455  0.1023 -0.5170  0.7467
 3850SOL     OW15165   5.251   3.676   3.812 -0.5051  0.1918 -0.0366
 3850SOL    HW215166   5.176   3.617   3.821 -0.7711  0.0910 -2.4519
 3850SOL    HW315167   5.292   3.651   3.729  0.2760  2.3955 -0.3793
 3850SOL    MW415168   5.247   3.665   3.803 -0.6704  0.2996 -0.7096
 3851SOL     OW15169   4.151   2.573   1.793  0.3948  1.1562  0.5916
 3851SOL    HW215170   4.226   2.584   1.736  0.8134  0.6785  1.0399
 3851SOL    HW315171   4.158   2.483   1.825 -0.5694  0.9841  0.3531
 3851SOL    MW415172   4.162   2.562   1.790  0.0281  0.3931  0.0496
 3852SOL     OW15173   4.587   2.522   4.367 -0.0358  0.0965  0.5383
 3852SOL    HW215174   4.610   2.554   4.281  0.7772  0.3093  0.8287
 3852SOL    HW315175   4.643   2.445   4.381 -0.6846 -0.3838  0.5822
 3852SOL    MW415176   4.597   2.516   4.358  0.3484 -0.8171 -0.9546
 3853SOL     OW15177   1.211   3.269   0.684  0.1019 -0.7952 -0.5494
 3853SOL    HW215178   1.135   3.324   0.700  0.1805 -0.8208 -0.0694
 3853SOL    HW315179   1.280   3.330   0.656 -0.5844 -0.9640 -2.8012
 3853SOL    MW415180   1.210   3.284   0.683  0.2607 -0.0562  0.4464
 3854SOL     OW15181   5.451   0.735   3.339  0.0834 -0.4626  0.3155
 3854SOL    HW215182   5.535   0.703   3.374  1.5059  2.0327 -0.6087
 3854SOL    HW315183   5.404   0.765   3.416  0.7937 -0.2579  0.6846
 3854SOL    MW415184   5.456   0.735   3.354  0.2271 -0.4966 -0.2235
 3855SOL     OW15185   1.125   4.692   1.271  0.1143  0.4295  0.3506
 3855SOL    HW215186   1.203   4.745   1.257 -0.5977  1.4568  0.1529
 3855SOL    HW315187   1.102   4.706   1.363 -0.0127  0.3738  0.3282
 3855SOL    MW415188   1.132   4.701   1.281 -0.0903  0.1253  0.3426
 3856SOL     OW15189   2.640   5.449   4.533 -0.7035  0.1271  0.1400
 3856SOL    HW215190   2.618   5.542   4.535 -1.1005  0.0253  1.1685
 3856SOL    HW315191   2.559   5.406   4.509 -0.8055 -0.0232  0.7398
 3856SOL    MW415192   2.627   5.456   4.531 -0.7210  0.3935 -1.0283
 3857SOL     OW15193   4.121   4.699   4.634 -0.6031 -0.4564 -0.0513
 3857SOL    HW215194   4.040   4.733   4.596 -0.5997  0.5871  0.8115
 3857SOL    HW315195   4.178   4.775   4.640 -0.4498 -0.6524  1.5956
 3857SOL    MW415196   4.118   4.713   4.630 -0.3466  0.6400 -0.3745
 3858SOL     OW15197   5.945   0.296   5.955 -0.1781  0.4848 -0.1307
 3858SOL    HW215198   5.903   0.374   5.991  2.1382  1.3685  0.8561
 3858SOL    HW315199   5.942   0.308   5.860 -0.3425  1.5186  0.0025
 3858SOL    MW415200   5.939   0.308   5.947  0.3028 -0.8213 -0.3392
 3859SOL     OW15201   2.876   2.208   3.481 -0.4767  0.6005  0.0088
 3859SOL    HW215202   2.781   2.213   3.490 -0.7816 -1.7003 -1.3000
 3859SOL    HW315203   2.892   2.223   3.388  0.3901  0.2343  0.0871
 3859SOL    MW415204   2.865   2.211   3.470  0.9367 -0.4637  0.2412
 3860SOL     OW15205   5.276   3.118   2.163  0.2719  0.1384 -0.1007
 3860SOL    HW215206   5.358   3.138   2.209  0.3402  2.8696 -1.2600
 3860SOL    HW315207   5.212   3.178   2.199 -0.4154  0.2579 -1.4466
 3860SOL    MW415208   5.279   3.128   2.174 -0.0983 -0.3952  0.2099
 3861SOL     OW15209   2.802   0.422   5.600 -0.3832  0.3153 -0.1334
 3861SOL    HW215210   2.844   0.416   5.686 -0.4565 -1.2071 -0.1762
 3861SOL    HW315211   2.871   0.399   5.538 -1.0290 -1.4886 -0.2520
 3861SOL    MW415212   2.817   0.418   5.603  0.1600 -0.0464 -0.5233
 3862SOL     OW15213   1.317   5.548   5.176  0.9495  0.0940  0.1380
 3862SOL    HW215214   1.401   5.504   5.177  1.8788  1.7855 -0.0921
 3862SOL    HW315215   1.299   5.564   5.083  1.1774  1.1729  0.2689
 3862SOL    MW415216   1.325   5.544   5.164 -0.4775 -1.1295  0.0664
 3863SOL     OW15217   3.467   2.827   5.312 -0.4420 -0.2549  0.0140
 3863SOL    HW215218   3.485   2.840   5.219  0.9486  0.6173  0.3858
 3863SOL    HW315219   3.402   2.756   5.314  0.6658 -1.3791 -1.5524
 3863SOL    MW415220   3.460   2.819   5.300  0.4283 -0.6251 -0.0855
 3864SOL     OW15221   3.671   0.480   0.850  0.0966 -0.1645 -0.4290
 3864SOL    HW215222   3.687   0.548   0.785  1.0306  1.0197  0.9616
 3864SOL    HW315223   3.745   0.420   0.842 -0.2507 -0.5112 -1.0447
 3864SOL    MW415224   3.683   0.481   0.841 -0.3602 -0.1790 -0.0262
 3865SOL     OW15225   6.402   1.713   5.265  0.2806  0.4381  0.3645
 3865SOL    HW215226   6.476   1.771   5.286  0.9415 -0.6036  1.0507
 3865SOL    HW315227   6.418   1.686   5.175 -0.4555  1.8920 -0.2392
 3865SOL    MW415228   6.414   1.717   5.256 -0.1461  0.4761  0.3534
 3866SOL     OW15229   1.205   3.170   5.086 -0.3981  0.1999  0.3118
 3866SOL    HW215230   1.147   3.144   5.014 -1.4040 -0.9821  1.4876
 3866SOL    HW315231   1.146   3.181   5.161  0.7921 -0.2511  1.3509
 3866SOL    MW415232   1.189   3.168   5.086 -0.5444 -1.2936 -0.0494
 3867SOL     OW15233   1.153   2.505   1.243  0.3710 -0.0900  0.3256
 3867SOL    HW215234   1.242   2.536   1.258  0.0196  0.7086  0.8218
 3867SOL    HW315235   1.099   2.584   1.249 -0.3955 -0.6017  0.2707
 3867SOL    MW415236   1.157   2.520   1.246 -0.3090 -0.4491 -0.2074
 3868SOL     OW15237   5.989   6.056   0.143  0.0072  0.2390 -0.0505
 3868SOL    HW215238   6.035   6.050   0.059  0.6118 -0.2654  0.3092
 3868SOL    HW315239   6.022   6.137   0.182 -1.1129  1.0869 -0.7690
 3868SOL    MW415240   5.999   6.066   0.137  0.0740  0.2391 -0.4653
 3869SOL     OW15241   3.724   1.800   1.401 -0.4324  1.1031 -0.4777
 3869SOL    HW215242   3.741   1.718   1.448 -0.1284  1.3711 -0.1134
 3869SOL    HW315243   3.789   1.861   1.436 -0.8161  1.5670 -0.5777
 3869SOL    MW415244   3.735   1.797   1.411 -0.0233 -0.4861 -0.3247
 3870SOL     OW15245   3.976   2.806   3.107  0.3310 -0.3636 -0.5910
 3870SOL    HW215246   4.042   2.872   3.088 -0.6573  0.6068 -0.7485
 3870SOL    HW315247   3.922   2.804   3.028  0.2822 -1.2991 -0.5463
 3870SOL    MW415248   3.978   2.814   3.094  0.0377  0.3118  0.3972
 3871SOL     OW15249   3.707   4.812   1.592 -0.2967  0.1076  0.0281
 3871SOL    HW215250   3.701   4.817   1.688 -0.2641 -1.5845  0.1491
 3871SOL    HW315251   3.616   4.818   1.562 -0.3204  0.4922  0.1755
 3871SOL    MW415252   3.694   4.813   1.601  0.6392 -0.0276  0.5158
 3872SOL     OW15253   5.633   5.006   3.803 -0.1115 -0.9191 -0.3302
 3872SOL    HW215254   5.637   5.096   3.772 -1.3118 -0.2501  1.3110
 3872SOL    HW315255   5.559   4.967   3.757  0.3637 -1.0604 -0.9853
 3872SOL    MW415256   5.624   5.013   3.793 -0.3560 -0.2558 -0.2140
 3873SOL     OW15257   5.258   5.952   6.023  0.3795  0.0942  0.4443
 3873SOL    HW215258   5.279   6.036   5.983  0.8492  0.4964  1.4775
 3873SOL    HW315259   5.234   5.895   5.950  3.5713  0.0488 -0.7333
 3873SOL    MW415260   5.258   5.956   6.008 -0.7297 -0.2873  0.0264
 3874SOL     OW15261   4.058   0.199   5.998 -0.2752  0.3824 -0.5044
 3874SOL    HW215262   3.989   0.265   5.997  0.3539  1.0456 -0.7203
 3874SOL    HW315263   4.074   0.180   5.906 -0.0511  0.3570 -0.4601
 3874SOL    MW415264   4.051   0.205   5.986  0.7875 -0.4557 -0.0763
 3875SOL     OW15265   1.040   3.212   3.095  0.3193 -0.0648 -0.0938
 3875SOL    HW215266   1.060   3.273   3.024 -0.2016 -1.3100 -1.3612
 3875SOL    HW315267   0.979   3.259   3.151 -0.0113  0.6165 -1.0076
 3875SOL    MW415268   1.035   3.226   3.093 -0.7644  0.6861  0.1438
 3876SOL     OW15269   4.511   2.487   3.729  0.1819  0.4115  0.6093
 3876SOL    HW215270   4.507   2.530   3.643 -0.1670 -1.1837 -0.2072
 3876SOL    HW315271   4.436   2.522   3.776 -0.7385 -0.1025 -0.4380
 3876SOL    MW415272   4.501   2.497   3.724  0.4359  0.5623  0.8146
 3877SOL     OW15273   5.448   2.094   4.141  0.4978  0.1407  0.4927
 3877SOL    HW215274   5.472   2.073   4.231 -1.5001  2.3789  1.6328
 3877SOL    HW315275   5.523   2.143   4.107  0.9252  0.0072  1.2226
 3877SOL    MW415276   5.461   2.097   4.148 -0.2607 -0.0357  0.0211
 3878SOL     OW15277   5.526   4.800   2.107  0.4277  0.0454 -0.2857
 3878SOL    HW215278   5.513   4.748   2.186 -0.7759 -0.0422 -0.5287
 3878SOL    HW315279   5.440   4.837   2.087  0.8773  0.6975 -1.1209
 3878SOL    MW415280   5.513   4.798   2.115 -0.0278  0.3454 -0.0510
 3879SOL     OW15281   2.211   0.544   6.309 -0.0937 -0.6654  0.0808
 3879SOL    HW215282   2.144   0.477   6.298 -0.2954 -0.4176 -0.2132
 3879SOL    HW315283   2.173   0.606   6.371 -0.4536 -0.1196 -0.6746
 3879SOL    MW415284   2.198   0.543   6.316 -0.8335  0.3464  0.0271
 3880SOL     OW15285   2.129   1.740   4.020 -0.6423 -0.0817 -0.0393
 3880SOL    HW215286   2.131   1.718   3.926 -0.6604 -0.0778 -0.0405
 3880SOL    HW315287   2.050   1.793   4.030  0.0688  1.0579 -0.2745
 3880SOL    MW415288   2.119   1.745   4.009 -0.0197 -0.1587 -1.1039
 3881SOL     OW15289   3.248   1.054   1.889 -0.7124  0.0206 -0.0879
 3881SOL    HW215290   3.214   1.130   1.936 -0.0244 -0.8198  1.8767
 3881SOL    HW315291   3.181   0.986   1.902  0.5070 -0.9190  1.7793
 3881SOL    MW415292   3.234   1.055   1.897  0.2447 -0.3372 -0.4753
 3882SOL     OW15293   6.134   2.298   3.952 -0.0212 -0.0866 -0.4507
 3882SOL    HW215294   6.169   2.377   3.994 -0.8086 -0.1069  0.2953
 3882SOL    HW315295   6.039   2.307   3.962 -0.1248 -1.0748 -0.4670
 3882SOL    MW415296   6.126   2.310   3.959  0.1661  0.3262 -0.1863
 3883SOL     OW15297   5.494   0.184   5.160  0.1631  0.2930  0.3135
 3883SOL    HW215298   5.433   0.161   5.229 -0.8626 -0.1952 -0.7259
 3883SOL    HW315299   5.557   0.112   5.159  0.3679  0.4573  0.9331
 3883SOL    MW415300   5.494   0.172   5.169 -0.0960  0.0240  0.0837
 3884SOL     OW15301   6.016   0.548   6.296  1.0535  0.0485  0.6505
 3884SOL    HW215302   6.022   0.459   6.329  2.3479  0.4528  1.5859
 3884SOL    HW315303   5.953   0.543   6.224  0.9976 -1.5784  0.7826
 3884SOL    MW415304   6.009   0.536   6.291  0.1327 -0.1129  0.9580
 3885SOL     OW15305   2.174   4.497   4.204  0.2477 -0.1620  0.3385
 3885SOL    HW215306   2.237   4.512   4.274  1.5603 -1.5245 -0.4949
 3885SOL    HW315307   2.201   4.414   4.164  0.1351  1.0117 -2.3963
 3885SOL    MW415308   2.186   4.488   4.208  0.0060 -0.3015  0.1530
 3886SOL     OW15309   0.107   2.797   4.102 -0.6257 -0.7556 -0.4390
 3886SOL    HW215310   0.029   2.774   4.153 -1.5718  1.7339 -0.6026
 3886SOL    HW315311   0.180   2.779   4.160 -1.3405 -2.5281 -0.0260
 3886SOL    MW415312   0.106   2.792   4.116  0.5157 -0.0739  0.0310
 3887SOL     OW15313   2.215   3.798   5.905  0.5314 -0.2239  0.1999
 3887SOL    HW215314   2.256   3.743   5.838  0.4302  0.1978 -0.2126
 3887SOL    HW315315   2.130   3.822   5.868 -0.1719 -1.2415  1.1328
 3887SOL    MW415316   2.209   3.794   5.891  0.0825 -0.1534 -0.0677
 3888SOL     OW15317   6.193   3.995   4.659 -0.0847  0.0405  0.3165
 3888SOL    HW215318   6.175   3.917   4.606  0.6315 -1.0685  1.6407
 3888SOL    HW315319   6.288   4.008   4.652 -0.3904  1.8203 -1.2195
 3888SOL    MW415320   6.203   3.987   4.651  0.2174  0.4483 -0.3293
 3889SOL     OW15321   1.391   5.704   1.897 -0.0102 -0.1729  0.2034
 3889SOL    HW215322   1.391   5.784   1.845  0.7986 -0.2192  0.1220
 3889SOL    HW315323   1.374   5.733   1.986 -0.7014 -0.0185  0.0252
 3889SOL    MW415324   1.389   5.718   1.902  0.3447 -0.0120  0.1658
 3890SOL     OW15325   4.310   1.745   0.590 -0.1741  0.0905  0.6355
 3890SOL    HW215326   4.374   1.728   0.521 -1.5462 -1.1117 -0.4025
 3890SOL    HW315327   4.292   1.839   0.584  0.1415  0.1044 -0.2647
 3890SOL    MW415328   4.316   1.755   0.580  0.0754 -0.3108 -0.0246
 3891SOL     OW15329   4.887   3.667   5.219 -0.0169 -0.7777 -0.0761
 3891SOL    HW215330   4.926   3.677   5.132  2.2402 -1.3202  0.8054
 3891SOL    HW315331   4.867   3.757   5.246 -0.4587 -0.5764 -1.0299
 3891SOL    MW415332   4.890   3.681   5.211 -0.5352 -0.0085 -0.2637
 3892SOL     OW15333   0.291   5.680   6.391  0.0017  0.5977  0.5830
 3892SOL    HW215334   0.235   5.622   6.340  0.1833  1.9571 -1.2602
 3892SOL    HW315335   0.380   5.661   6.361 -0.0065  2.4416 -0.8248
 3892SOL    MW415336   0.296   5.670   6.380  0.7348 -0.6284 -0.0659
 3893SOL     OW15337   4.797   2.526   2.923  0.2455 -0.0598  0.0039
 3893SOL    HW215338   4.830   2.560   2.840 -0.1121 -2.0152 -0.9901
 3893SOL    HW315339   4.737   2.456   2.899 -1.5381  0.7071  1.8899
 3893SOL    MW415340   4.794   2.521   2.909 -0.1078 -0.0727  0.2972
 3894SOL     OW15341   4.837   2.394   1.472  0.4849 -0.4583 -0.2988
 3894SOL    HW215342   4.751   2.434   1.460  0.8229  0.5709  0.5167
 3894SOL    HW315343   4.894   2.441   1.411  0.3426 -1.6605 -1.3965
 3894SOL    MW415344   4.833   2.405   1.463 -0.4989  0.1528  0.4391
 3895SOL     OW15345   5.249   5.511   4.050 -0.0367  0.3936 -0.0876
 3895SOL    HW215346   5.240   5.487   4.143  2.5541 -2.4551 -0.4403
 3895SOL    HW315347   5.171   5.475   4.009 -1.3970  1.9911  0.9662
 3895SOL    MW415348   5.237   5.503   4.057 -0.0790  0.0464  0.1800
 3896SOL     OW15349   2.348   5.025   1.779 -0.3027 -0.0588  1.3013
 3896SOL    HW215350   2.260   4.996   1.755  0.3128 -1.0831  0.1798
 3896SOL    HW315351   2.343   5.120   1.779 -1.1027 -0.0839  0.0164
 3896SOL    MW415352   2.336   5.033   1.776 -0.4121 -0.5305 -0.2869
 3897SOL     OW15353   4.108   6.212   0.737 -0.2191  0.0173 -0.4790
 3897SOL    HW215354   4.110   6.117   0.730  1.9245  0.1158 -2.0035
 3897SOL    HW315355   4.109   6.243   0.646 -0.2819  1.5010 -0.0075
 3897SOL    MW415356   4.108   6.204   0.724  0.3910  0.2789 -0.1208
 3898SOL     OW15357   5.343   3.423   2.021 -0.2733  0.0433 -0.4981
 3898SOL    HW215358   5.272   3.361   2.000 -1.3299  1.2985 -0.7641
 3898SOL    HW315359   5.421   3.383   1.983 -0.8105 -1.4081 -0.1536
 3898SOL    MW415360   5.344   3.409   2.013 -0.2477 -0.3950  0.2620
 3899SOL     OW15361   1.498   1.085   5.318  0.0456  0.2569  0.6279
 3899SOL    HW215362   1.540   1.000   5.301 -0.4032  0.2423 -0.5901
 3899SOL    HW315363   1.460   1.076   5.405  1.7024 -0.0699  1.3469
 3899SOL    MW415364   1.499   1.072   5.327 -0.2469 -0.5125 -0.4350
 3900SOL     OW15365   1.744   1.259   1.699 -0.4158  0.3224  0.1143
 3900SOL    HW215366   1.674   1.300   1.649 -0.0525  0.7114 -0.0795
 3900SOL    HW315367   1.751   1.171   1.663 -0.3726  0.4952 -0.3064
 3900SOL    MW415368   1.736   1.253   1.688  0.8257  0.0674  0.4266
 3901SOL     OW15369   0.336   2.858   4.958 -0.0840  0.6570 -0.3552
 3901SOL    HW215370   0.391   2.880   4.883  0.0829 -0.9430 -0.7333
 3901SOL    HW315371   0.246   2.869   4.926 -0.0740  3.3357  0.2817
 3901SOL    MW415372   0.331   2.862   4.944  0.0124 -0.3670  0.5070
 3902SOL     OW15373   2.410   4.425   0.665 -0.2129 -0.6460  0.1771
 3902SOL    HW215374   2.502   4.443   0.646 -0.3447 -0.9731 -0.8511
 3902SOL    HW315375   2.397   4.456   0.754  0.4515  1.0222 -0.2790
 3902SOL    MW415376   2.420   4.431   0.674 -1.0047  0.4639 -0.5883
 3903SOL     OW15377   3.519   2.589   6.408  0.0739  0.2173 -0.4206
 3903SOL    HW215378   3.528   2.606   6.315  0.7765 -1.8516 -0.7823
 3903SOL    HW315379   3.593   2.634   6.449  1.0423 -0.6893 -1.1391
 3903SOL    MW415380   3.530   2.597   6.401  0.0933  0.3754  0.8647
 3904SOL     OW15381   2.747   6.094   4.021 -0.0960  0.1555  0.1580
 3904SOL    HW215382   2.767   6.113   3.929 -0.9423 -0.9469 -0.2770
 3904SOL    HW315383   2.830   6.109   4.067  0.0312  1.8806 -0.5779
 3904SOL    MW415384   2.761   6.098   4.015  0.4233  0.5892  0.1088
 3905SOL     OW15385   2.600   3.730   4.264  0.2181  0.0125 -0.1758
 3905SOL    HW215386   2.693   3.744   4.247  0.6740 -1.4017  0.9685
 3905SOL    HW315387   2.556   3.760   4.184  1.8567 -1.8157 -1.8805
 3905SOL    MW415388   2.606   3.736   4.251  0.4569  0.8509 -0.1068
 3906SOL     OW15389   4.966   3.667   0.577 -0.1141 -0.4463 -0.4808
 3906SOL    HW215390   4.947   3.584   0.622  0.0274  1.0390  2.5689
 3906SOL    HW315391   5.035   3.708   0.629  0.2860  1.3349 -2.2831
 3906SOL    MW415392   4.972   3.661   0.590 -0.5344 -0.1683  0.9723
 3907SOL     OW15393   5.171   1.259   1.166  0.8319  0.2102 -0.2218
 3907SOL    HW215394   5.245   1.301   1.123 -0.1163  2.6926  0.4047
 3907SOL    HW315395   5.096   1.315   1.147 -0.5019 -1.0755  0.9090
 3907SOL    MW415396   5.171   1.272   1.158 -0.6477  0.0690  0.1709
 3908SOL     OW15397   5.660   5.653   3.216 -0.1812  0.5243 -0.3095
 3908SOL    HW215398   5.632   5.732   3.170  0.0779  0.5083 -0.4978
 3908SOL    HW315399   5.582   5.597   3.217 -0.4559  0.9057  0.0984
 3908SOL    MW415400   5.646   5.656   3.210 -0.0197 -0.0762  0.3386
 3909SOL     OW15401   4.655   1.944   4.828  0.2444 -0.2291  0.6919
 3909SOL    HW215402   4.593   1.884   4.869  1.9338 -1.1511  2.0278
 3909SOL    HW315403   4.687   1.998   4.901  0.0844  1.1128 -0.1937
 3909SOL    MW415404   4.651   1.943   4.843  0.8123  0.4332 -0.4891
 3910SOL     OW15405   2.571   2.270   6.268 -0.4094 -0.1779 -0.3903
 3910SOL    HW215406   2.523   2.214   6.206 -1.0457  0.0402 -0.0946
 3910SOL    HW315407   2.511   2.284   6.340  0.0618  0.1914 -0.0609
 3910SOL    MW415408   2.557   2.264   6.269 -0.7203 -0.3215  1.2673
 3911SOL     OW15409   5.037   4.580   4.374 -0.4973  0.2142  0.1732
 3911SOL    HW215410   4.976   4.631   4.427  0.8197  1.1265  0.8714
 3911SOL    HW315411   5.092   4.535   4.439  1.6970  2.0036 -0.3324
 3911SOL    MW415412   5.036   4.580   4.390 -0.6298 -0.6173  0.6689
 3912SOL     OW15413   5.455   1.930   4.514 -0.2091 -0.4185 -0.2819
 3912SOL    HW215414   5.542   1.919   4.552 -0.5614  0.1639  0.7422
 3912SOL    HW315415   5.448   1.860   4.449  1.7350  0.6905 -1.7671
 3912SOL    MW415416   5.466   1.919   4.511 -0.3397  0.7085 -0.2452
 3913SOL     OW15417   2.024   0.299   6.247 -0.0904 -0.3661  0.8015
 3913SOL    HW215418   1.952   0.350   6.285 -1.3469 -2.1507  0.9110
 3913SOL    HW315419   2.080   0.279   6.323  1.9357  2.9661  0.4216
 3913SOL    MW415420   2.022   0.303   6.262 -1.1191  0.0546 -0.1654
 3914SOL     OW15421   4.636   0.503   3.948  0.7707  0.3439  0.0612
 3914SOL    HW215422   4.545   0.498   3.919  0.1280  0.9606  1.8549
 3914SOL    HW315423   4.631   0.506   4.043  2.6957  0.1094  0.2131
 3914SOL    MW415424   4.623   0.503   3.957  0.4550  0.5670  0.1312
 3915SOL     OW15425   2.501   3.210   2.242 -0.1848 -0.2321 -0.1582
 3915SOL    HW215426   2.543   3.175   2.320 -0.2210  1.3959  0.6335
 3915SOL    HW315427   2.447   3.282   2.274 -0.8361 -0.0544 -1.5883
 3915SOL    MW415428   2.500   3.215   2.256  0.1738  0.0442  0.9485
 3916SOL     OW15429   0.699   2.982   2.018 -0.1702 -0.0233 -0.2493
 3916SOL    HW215430   0.616   3.022   2.046 -0.5870 -0.7104 -0.4822
 3916SOL    HW315431   0.708   2.905   2.073  0.0600 -0.2285 -0.5735
 3916SOL    MW415432   0.689   2.977   2.029 -0.1181 -0.3191 -0.0760
 3917SOL     OW15433   4.305   3.586   5.514  0.7494  0.0860  0.3520
 3917SOL    HW215434   4.352   3.504   5.531 -0.5328 -0.6118  0.6608
 3917SOL    HW315435   4.279   3.618   5.600  1.0756  0.7311  0.2184
 3917SOL    MW415436   4.308   3.579   5.527  0.1891 -0.6533  0.0485
 3918SOL     OW15437   0.016   4.352   6.059 -1.1555  0.0511 -0.3488
 3918SOL    HW215438  -0.067   4.362   6.011 -2.2097 -1.5173  1.0388
 3918SOL    HW315439  -0.010   4.325   6.147  0.7871  1.4059  0.7182
 3918SOL    MW415440   0.001   4.350   6.064 -0.4557  0.4998  0.3808
 3919SOL     OW15441   1.773   1.244   6.356  0.1070 -0.4768  0.2064
 3919SOL    HW215442   1.715   1.286   6.291 -0.9908 -1.6773  0.3587
 3919SOL    HW315443   1.773   1.305   6.430 -0.0167  0.0950 -0.2498
 3919SOL    MW415444   1.765   1.258   6.357  0.1388 -0.4693 -0.1343
 3920SOL     OW15445   3.054   3.876   1.570  0.1622 -0.2847 -0.2836
 3920SOL    HW215446   3.063   3.934   1.495 -0.8725 -0.4752 -0.5674
 3920SOL    HW315447   3.139   3.880   1.614  0.0583  1.5795 -0.1824
 3920SOL    MW415448   3.066   3.884   1.566 -0.0574 -0.1330  0.1159
 3921SOL     OW15449   5.207   4.463   4.571 -0.1356  0.1982 -0.5836
 3921SOL    HW215450   5.236   4.380   4.611 -1.3741 -0.2226 -0.5130
 3921SOL    HW315451   5.283   4.521   4.580 -0.1131 -0.0896  1.7706
 3921SOL    MW415452   5.221   4.459   4.578 -0.3376 -0.3453  0.1633
 3922SOL     OW15453   0.468   5.508   4.018  0.0377  0.3434  0.8242
 3922SOL    HW215454   0.385   5.471   3.988  1.5954 -2.9571  0.1875
 3922SOL    HW315455   0.461   5.508   4.113  0.4160 -3.0946  0.9574
 3922SOL    MW415456   0.456   5.503   4.027  0.0290 -0.3091  0.2772
 3923SOL     OW15457   1.336   2.758   1.477  0.4134  0.2623 -0.3590
 3923SOL    HW215458   1.354   2.668   1.448 -1.3587  0.3126 -1.7539
 3923SOL    HW315459   1.341   2.810   1.397  0.0744  1.2035  0.2183
 3923SOL    MW415460   1.339   2.753   1.462  0.2409  0.5282  0.5593
 3924SOL     OW15461   3.900   6.402   4.886  0.2843  0.5674  0.0809
 3924SOL    HW215462   3.918   6.356   4.968  0.1142 -1.1367 -0.7841
 3924SOL    HW315463   3.828   6.461   4.907 -1.9707 -2.1042  0.4940
 3924SOL    MW415464   3.893   6.403   4.900  0.1366  0.0215  0.1288
 3925SOL     OW15465   5.296   4.137   1.757  0.1596 -0.5529 -0.2236
 3925SOL    HW215466   5.271   4.101   1.842 -0.1634 -1.9986 -0.8974
 3925SOL    HW315467   5.295   4.232   1.770 -2.4513 -0.6276  0.6853
 3925SOL    MW415468   5.292   4.144   1.770 -0.1501  0.2133  0.4988
 3926SOL     OW15469   2.013   4.042   0.009  0.2290  0.3314  0.3796
 3926SOL    HW215470   1.998   4.133  -0.015 -1.1391  0.2299  0.7837
 3926SOL    HW315471   1.926   4.005   0.021  0.7287 -1.2277 -0.4498
 3926SOL    MW415472   2.000   4.049   0.007 -0.2857 -0.4276  1.0098
 3927SOL     OW15473   4.057   5.189   1.935  0.0251  0.2558 -0.0492
 3927SOL    HW215474   3.999   5.194   1.858  0.2700 -0.2292 -0.2677
 3927SOL    HW315475   4.144   5.174   1.898  0.0766 -0.4429  0.3461
 3927SOL    MW415476   4.061   5.188   1.920 -0.1714  0.2121  0.4515
 3928SOL     OW15477   5.477   3.096   3.654  0.4748 -0.4702 -0.0809
 3928SOL    HW215478   5.567   3.130   3.655 -0.1429  1.2669 -0.6143
 3928SOL    HW315479   5.453   3.090   3.747  0.8690 -0.2018  0.0414
 3928SOL    MW415480   5.486   3.100   3.667  0.3941  0.0968 -0.2382
 3929SOL     OW15481   6.158   1.811   3.861 -0.2755 -0.0415 -0.2437
 3929SOL    HW215482   6.172   1.745   3.929 -0.7849  0.4132  0.3153
 3929SOL    HW315483   6.222   1.880   3.882 -0.3784  0.0624 -0.2697
 3929SOL    MW415484   6.168   1.811   3.873 -0.3304  0.5149  0.2411
 3930SOL     OW15485   5.079   4.432   2.883  0.5673  0.4493 -0.0334
 3930SOL    HW215486   4.994   4.411   2.921  0.8502 -0.5761  0.0852
 3930SOL    HW315487   5.067   4.422   2.788  1.0884 -1.9889  0.0921
 3930SOL    MW415488   5.066   4.428   2.875  0.2162 -0.4816  0.5698
 3931SOL     OW15489   3.921   0.580   2.936 -0.2093  0.7268 -0.3933
 3931SOL    HW215490   3.982   0.621   2.998  0.8176  0.6496 -1.3012
 3931SOL    HW315491   3.918   0.488   2.962 -2.6301  1.2952  1.7403
 3931SOL    MW415492   3.929   0.574   2.948  0.1094 -0.0342  0.1784
 3932SOL     OW15493   0.840   6.301   0.142 -0.1221  0.0182  0.1723
 3932SOL    HW215494   0.826   6.394   0.160  0.4386  0.0393  0.5196
 3932SOL    HW315495   0.849   6.262   0.229 -1.1323 -0.4890  0.0622
 3932SOL    MW415496   0.839   6.308   0.156  0.0535  0.2041 -0.1783
 3933SOL     OW15497   4.679   2.765   0.582 -0.1700  0.2004 -0.3682
 3933SOL    HW215498   4.684   2.670   0.589  1.4542  0.2857 -0.0031
 3933SOL    HW315499   4.592   2.787   0.617  0.0800 -1.0175  1.1551
 3933SOL    MW415500   4.668   2.755   0.588  0.0553  0.1719  0.6525
 3934SOL     OW15501   1.028   2.730   1.579  0.0237 -0.5682 -0.0123
 3934SOL    HW215502   1.103   2.758   1.527 -1.2129 -1.1924 -2.2487
 3934SOL    HW315503   1.067   2.686   1.655  1.9448  3.0336  1.3408
 3934SOL    MW415504   1.043   2.728   1.582 -0.0032  0.6046 -0.6612
 3935SOL     OW15505   3.975   2.636   3.654  0.2146  0.2424  0.2379
 3935SOL    HW215506   3.936   2.620   3.568 -0.6446 -0.3428  0.7256
 3935SOL    HW315507   3.900   2.646   3.713  0.6843  3.5688  0.4545
 3935SOL    MW415508   3.960   2.635   3.650  0.4221  0.3871 -0.1684
 3936SOL     OW15509   3.592   1.953   1.655  0.5097 -0.1527 -0.1134
 3936SOL    HW215510   3.612   1.967   1.563  0.9302  0.3174  0.0436
 3936SOL    HW315511   3.565   2.039   1.687  0.6502 -0.2495  0.2693
 3936SOL    MW415512   3.591   1.966   1.647  0.3535 -0.2654  0.0768
 3937SOL     OW15513   0.429   5.378   1.027  0.4645  0.1904 -0.2488
 3937SOL    HW215514   0.349   5.334   1.054  0.3662 -0.8110 -2.0111
 3937SOL    HW315515   0.497   5.341   1.083  0.0606 -0.7662 -0.3673
 3937SOL    MW415516   0.427   5.368   1.038  0.3728  0.1899 -0.1570
 3938SOL     OW15517   0.898   4.482   0.094 -0.5631  0.0510  0.0408
 3938SOL    HW215518   0.819   4.521   0.056 -0.9835  0.2756  1.0972
 3938SOL    HW315519   0.970   4.520   0.043 -1.1393 -0.2858 -1.0416
 3938SOL    MW415520   0.897   4.492   0.082 -0.0917 -1.2217  0.5588
 3939SOL     OW15521   0.394   3.933   4.489  0.2898 -0.6476 -0.6219
 3939SOL    HW215522   0.312   3.932   4.441 -0.9384 -1.0444  1.3617
 3939SOL    HW315523   0.427   4.022   4.477 -1.8056  0.3749  0.6590
 3939SOL    MW415524   0.388   3.945   4.481 -0.3891 -0.3517 -0.1711
 3940SOL     OW15525   4.876   4.580   3.150 -0.0123 -0.1632 -0.6205
 3940SOL    HW215526   4.933   4.647   3.188 -1.5067  2.2028 -2.2434
 3940SOL    HW315527   4.788   4.606   3.177 -0.5420 -2.4126 -0.0456
 3940SOL    MW415528   4.872   4.593   3.159 -0.3495 -0.4270 -0.5813
 3941SOL     OW15529   1.980   5.201   6.053 -0.6648  0.3530 -0.1388
 3941SOL    HW215530   2.069   5.188   6.022 -1.3732 -0.2100 -2.1001
 3941SOL    HW315531   1.961   5.123   6.105 -0.4401 -0.1830 -0.8404
 3941SOL    MW415532   1.989   5.189   6.056  0.1515 -0.4856  0.8649
 3942SOL     OW15533   0.763   3.749   3.461 -0.4166 -0.2596  0.4981
 3942SOL    HW215534   0.792   3.794   3.540 -0.7151  1.2934 -0.2431
 3942SOL    HW315535   0.702   3.683   3.492 -1.8501  1.4337  1.4672
 3942SOL    MW415536   0.759   3.746   3.475  0.0869 -0.7687 -0.3934
 3943SOL     OW15537   0.510   5.666   3.538  0.2865  0.0214  0.3046
 3943SOL    HW215538   0.550   5.580   3.529  0.3100  0.1137 -0.6617
 3943SOL    HW315539   0.581   5.728   3.519 -0.3974  0.1749 -2.1794
 3943SOL    MW415540   0.524   5.663   3.534 -0.0157 -0.6333 -0.4101
 3944SOL     OW15541   3.218   5.138   6.294 -0.0442  0.6121  0.0568
 3944SOL    HW215542   3.247   5.053   6.326  1.8451  0.8585 -0.8639
 3944SOL    HW315543   3.160   5.119   6.221  0.3447  0.0989 -0.1233
 3944SOL    MW415544   3.214   5.125   6.289 -0.4482  0.5218 -0.1459
 3945SOL     OW15545   4.735   1.543   2.888 -0.1491 -0.3395 -0.1703
 3945SOL    HW215546   4.714   1.610   2.953 -1.4481  0.0672 -0.9827
 3945SOL    HW315547   4.828   1.556   2.869 -0.1422  0.5651  0.4281
 3945SOL    MW415548   4.744   1.553   2.894 -0.1152  0.4040 -0.2552
 3946SOL     OW15549   3.665   2.135   1.416  0.1058  0.0151  0.4466
 3946SOL    HW215550   3.575   2.165   1.403  0.3582  0.3862 -0.5861
 3946SOL    HW315551   3.705   2.142   1.329  0.6297 -1.8707  0.5061
 3946SOL    MW415552   3.659   2.140   1.403 -0.1356  0.3985  0.0684
 3947SOL     OW15553   5.701   4.469   5.934  0.0679 -0.0616  0.1783
 3947SOL    HW215554   5.692   4.564   5.942  1.8983  0.1846 -0.1697
 3947SOL    HW315555   5.618   4.434   5.964 -1.0215  1.6993 -0.6291
 3947SOL    MW415556   5.689   4.477   5.939 -0.0924 -0.6294  0.1288
 3948SOL     OW15557   4.332   4.616   2.602  0.2517 -0.2850 -0.1718
 3948SOL    HW215558   4.388   4.560   2.547  0.6624  0.1943 -0.2456
 3948SOL    HW315559   4.244   4.583   2.587  0.3020  0.1277 -1.4635
 3948SOL    MW415560   4.328   4.604   2.593 -0.6645  0.2916 -0.2350
 3949SOL     OW15561   0.285   5.179   4.669 -0.5619  0.4872  0.1494
 3949SOL    HW215562   0.211   5.136   4.627 -0.9915  0.4903  0.8852
 3949SOL    HW315563   0.252   5.205   4.755  0.6131 -0.5077  0.9371
 3949SOL    MW415564   0.271   5.177   4.674  0.1501 -0.4315  0.0128
 3950SOL     OW15565   0.590   5.112   0.542 -0.9918 -0.0450  0.3473
 3950SOL    HW215566   0.547   5.115   0.627 -1.3163  1.9681  0.1668
 3950SOL    HW315567   0.638   5.195   0.537  1.1894 -1.2670 -0.3608
 3950SOL    MW415568   0.591   5.123   0.553  0.5934 -0.2444  0.5713
 3951SOL     OW15569   5.721   3.324   4.667 -0.0979 -0.3507  0.3859
 3951SOL    HW215570   5.731   3.352   4.576  0.3207 -0.0314  0.5237
 3951SOL    HW315571   5.632   3.349   4.691 -0.2920 -0.6629 -0.0136
 3951SOL    MW415572   5.711   3.331   4.658 -0.6238  0.1429  0.4608
 3952SOL     OW15573   5.882   5.852   4.299 -0.0959  0.2050 -0.2354
 3952SOL    HW215574   5.908   5.817   4.214 -0.4317 -0.1892 -0.1792
 3952SOL    HW315575   5.849   5.940   4.280  0.7854  0.5085 -0.3740
 3952SOL    MW415576   5.881   5.859   4.286 -0.9611  0.3045 -0.1524
 3953SOL     OW15577   2.824   3.097   5.493 -0.6922  0.1530 -0.0124
 3953SOL    HW215578   2.735   3.061   5.495 -1.5111  2.0590 -0.2378
 3953SOL    HW315579   2.821   3.171   5.554  0.3516  1.0814 -1.0526
 3953SOL    MW415580   2.812   3.102   5.502  0.4470 -0.1606 -0.2470
 3954SOL     OW15581   0.053   2.979   3.026  0.0870 -0.0218  0.2676
 3954SOL    HW215582   0.087   3.028   3.101 -1.7339  0.3533  0.8834
 3954SOL    HW315583   0.059   3.040   2.952  0.1040  0.2696  0.5110
 3954SOL    MW415584   0.058   2.993   3.026 -0.3378  0.0064  0.2152
 3955SOL     OW15585   6.336   1.116   3.570  0.4941  0.6244  0.2140
 3955SOL    HW215586   6.253   1.164   3.574 -0.9559 -1.8313  1.8319
 3955SOL    HW315587   6.367   1.114   3.661  1.8596  0.6574 -0.2248
 3955SOL    MW415588   6.329   1.122   3.583  0.1959 -0.4038  0.9607
 3956SOL     OW15589   0.177   5.572   2.498 -0.3320  0.3662  0.2481
 3956SOL    HW215590   0.120   5.499   2.524 -1.9917  0.7066 -2.1578
 3956SOL    HW315591   0.195   5.556   2.406  1.7347  1.4846  0.3983
 3956SOL    MW415592   0.172   5.560   2.489  0.0409 -0.0298 -0.1674
 3957SOL     OW15593   0.321   3.283   6.271  0.4500  0.1268 -0.0990
 3957SOL    HW215594   0.384   3.234   6.324  2.4179  1.9481 -0.6337
 3957SOL    HW315595   0.261   3.321   6.335 -0.3635 -1.8914  0.4015
 3957SOL    MW415596   0.321   3.281   6.287 -0.1861  0.4875 -0.0711
 3958SOL     OW15597   1.689   1.381   1.057 -0.1967  0.0646  0.2933
 3958SOL    HW215598   1.760   1.326   1.023  0.6863  0.3106  1.7045
 3958SOL    HW315599   1.610   1.344   1.017  0.5041 -1.4626  0.2521
 3958SOL    MW415600   1.688   1.368   1.047  0.2422  0.2430  0.2051
 3959SOL     OW15601   2.219   4.903   3.968 -0.4380  0.4019  0.1382
 3959SOL    HW215602   2.199   4.962   3.895  2.6504  0.7231 -0.6135
 3959SOL    HW315603   2.171   4.823   3.948 -1.6195  1.3278 -0.9014
 3959SOL    MW415604   2.210   4.901   3.956 -0.2625 -0.3634  0.3855
 3960SOL     OW15605   3.981   0.570   0.487 -0.1604  0.1984  0.4607
 3960SOL    HW215606   4.076   0.575   0.492 -0.1615 -0.2014  0.9885
 3960SOL    HW315607   3.964   0.517   0.409  0.0254  0.9848 -0.1208
 3960SOL    MW415608   3.991   0.563   0.478  0.2946 -0.0233  0.4866
 3961SOL     OW15609   4.304   0.658   5.350 -0.3337 -0.0575 -0.1445
 3961SOL    HW215610   4.329   0.614   5.431  2.2017  1.2388 -0.1182
 3961SOL    HW315611   4.295   0.750   5.374 -0.0890  0.2604 -1.2169
 3961SOL    MW415612   4.306   0.664   5.364 -0.4247  0.4272 -0.8309
 3962SOL     OW15613   2.437   2.324   4.993  0.0745 -0.2050 -0.2905
 3962SOL    HW215614   2.398   2.301   5.077  3.0125  0.3754  1.3560
 3962SOL    HW315615   2.422   2.247   4.938  0.7109 -1.8645  1.7458
 3962SOL    MW415616   2.430   2.310   4.997  0.2318 -0.0017 -0.1941
 3963SOL     OW15617   5.733   5.907   5.415  0.1323 -0.1780 -0.7039
 3963SOL    HW215618   5.790   5.984   5.408 -0.7323  0.4872 -0.6032
 3963SOL    HW315619   5.691   5.915   5.500 -0.3373 -0.4954 -0.8957
 3963SOL    MW415620   5.735   5.918   5.425  0.1945 -0.8831 -0.0432
 3964SOL     OW15621   6.218   2.265   5.012 -0.0368  0.1523  0.3048
 3964SOL    HW215622   6.306   2.298   5.025  0.2926 -1.2591  2.0430
 3964SOL    HW315623   6.185   2.247   5.101 -1.1543 -1.5835 -0.3944
 3964SOL    MW415624   6.225   2.267   5.026 -0.2138  0.3775 -0.5230
 3965SOL     OW15625   0.197   2.658   3.513  0.5833 -0.4547  0.2835
 3965SOL    HW215626   0.227   2.652   3.604  0.5521  0.8648  0.3951
 3965SOL    HW315627   0.223   2.745   3.485 -1.5355  0.0626 -0.2005
 3965SOL    MW415628   0.205   2.668   3.521 -0.6875 -0.4166 -0.2521
 3966SOL     OW15629   2.292   3.970   0.009 -0.1857  0.4709 -0.4403
 3966SOL    HW215630   2.347   4.038   0.047  0.8450  0.1112 -1.2170
 3966SOL    HW315631   2.204   4.008   0.006  0.3940  1.8290 -0.9896
 3966SOL    MW415632   2.288   3.984   0.013  0.3486  0.0834 -0.6053
 3967SOL     OW15633   1.105   1.326   3.957 -0.4392  0.4820  0.1713
 3967SOL    HW215634   1.119   1.355   3.867  0.2238 -0.8149 -0.1747
 3967SOL    HW315635   1.163   1.382   4.009  2.1466 -1.2154 -0.6715
 3967SOL    MW415636   1.115   1.337   3.952 -0.1506 -0.0418 -0.2023
 3968SOL     OW15637   2.182   5.567   4.010  0.0527 -0.0296  0.3221
 3968SOL    HW215638   2.089   5.564   3.990  0.2941 -0.4335 -0.8299
 3968SOL    HW315639   2.211   5.476   3.999  0.5089  0.0265  1.0339
 3968SOL    MW415640   2.174   5.555   4.006  0.0022 -0.0015  0.2754
 3969SOL     OW15641   4.891   2.456   0.802  0.8714 -0.3053  0.5978
 3969SOL    HW215642   4.946   2.518   0.754  1.3575 -1.1139  0.0894
 3969SOL    HW315643   4.909   2.474   0.894 -0.1779  1.3668  0.5267
 3969SOL    MW415644   4.900   2.467   0.808  0.7151 -0.1027  0.1403
 3970SOL     OW15645   2.968   2.936   3.755 -0.9879  0.4944 -0.0991
 3970SOL    HW215646   2.958   2.990   3.676 -0.7291  1.2155  0.3411
 3970SOL    HW315647   2.907   2.864   3.743 -1.4099  0.9314 -0.6745
 3970SOL    MW415648   2.959   2.934   3.743  0.3946 -0.8189  0.0852
 3971SOL     OW15649   2.287   0.975   5.273  0.2352  0.5565 -0.0809
 3971SOL    HW215650   2.244   0.896   5.242 -0.2053  1.3833 -1.7085
 3971SOL    HW315651   2.251   0.989   5.361 -1.0128 -0.0867 -0.4659
 3971SOL    MW415652   2.276   0.967   5.280 -0.2071  0.6801  0.2965
 3972SOL     OW15653   4.079   4.989   3.136 -0.5310  0.3050  0.1815
 3972SOL    HW215654   4.089   5.075   3.094 -1.3110  0.9740  1.3070
 3972SOL    HW315655   4.075   4.927   3.063 -3.2689  1.5669 -0.8751
 3972SOL    MW415656   4.080   4.992   3.121 -0.8215 -0.2405 -0.1988
 3973SOL     OW15657   5.238   4.778   0.848 -0.1032  0.5119  0.3085
 3973SOL    HW215658   5.296   4.720   0.897 -2.0882 -1.8627  0.0017
 3973SOL    HW315659   5.292   4.809   0.775  1.7909  1.2220  1.9189
 3973SOL    MW415660   5.253   4.775   0.844  0.3937  0.3812 -1.0456
 3974SOL     OW15661   1.238   5.184   0.583 -0.1131 -0.7070 -0.1767
 3974SOL    HW215662   1.244   5.090   0.572 -1.2517 -0.6958 -1.0905
 3974SOL    HW315663   1.239   5.219   0.494  0.5289  0.1640  0.1580
 3974SOL    MW415664   1.239   5.176   0.570  0.0881  0.4569  0.3608
 3975SOL     OW15665   0.926   2.130   4.077  0.4842 -0.0260 -0.3228
 3975SOL    HW215666   0.897   2.167   3.993 -2.6869  0.1329  0.7182
 3975SOL    HW315667   0.870   2.053   4.090  0.2910  0.4456  2.0039
 3975SOL    MW415668   0.915   2.125   4.068  0.0139  0.2410 -0.2162
 3976SOL     OW15669   5.070   0.225   0.886 -0.0607 -0.0998 -0.5359
 3976SOL    HW215670   5.031   0.284   0.822  1.1355  0.3754 -0.8414
 3976SOL    HW315671   5.149   0.270   0.916 -0.8692 -0.0214  1.7249
 3976SOL    MW415672   5.075   0.239   0.882  0.1536  0.1020  0.3576
 3977SOL     OW15673   4.105   1.258   6.029 -0.2517  0.3132  0.2392
 3977SOL    HW215674   4.084   1.348   6.005 -1.1837 -0.1462 -0.7302
 3977SOL    HW315675   4.021   1.218   6.050  0.0250 -0.6001 -0.3055
 3977SOL    MW415676   4.091   1.265   6.029 -0.4722  0.1585  0.0903
 3978SOL     OW15677   4.942   4.600   6.013  0.8718 -0.0058 -0.6739
 3978SOL    HW215678   4.919   4.625   5.923  2.3456 -0.3436 -1.1732
 3978SOL    HW315679   5.014   4.537   6.003  1.9543  0.9167  0.7617
 3978SOL    MW415680   4.949   4.595   6.000  1.2288  0.3439  0.4812
 3979SOL     OW15681   3.869   0.868   6.061  0.3637 -0.4293  1.1196
 3979SOL    HW215682   3.940   0.858   5.998  0.9071 -1.7356  1.9088
 3979SOL    HW315683   3.790   0.881   6.007  0.4072 -3.7988  0.0271
 3979SOL    MW415684   3.868   0.869   6.045 -0.3316  0.1324  0.0231
 3980SOL     OW15685   5.812   5.455   4.991  0.6062  0.0261  0.8719
 3980SOL    HW215686   5.900   5.440   5.026  0.9509 -2.6608 -0.8889
 3980SOL    HW315687   5.804   5.394   4.918 -3.2657 -0.9207  1.8370
 3980SOL    MW415688   5.823   5.445   4.986 -0.0989 -0.8785  0.5688
 3981SOL     OW15689   0.629   0.692   0.086  0.2269 -0.0323 -0.2205
 3981SOL    HW215690   0.628   0.755   0.159  2.2688  0.6135 -0.6888
 3981SOL    HW315691   0.721   0.687   0.061 -0.2934 -1.1103 -2.0322
 3981SOL    MW415692   0.641   0.700   0.092 -0.1630  0.0588 -0.4972
 3982SOL     OW15693   5.219   5.478   0.211 -0.1990  0.2992 -0.6151
 3982SOL    HW215694   5.184   5.506   0.126  1.1508 -1.5935 -1.8638
 3982SOL    HW315695   5.280   5.547   0.236 -1.0988  1.1990 -0.8098
 3982SOL    MW415696   5.222   5.491   0.203  0.5560  0.3990 -0.0399
 3983SOL     OW15697   1.793   5.022   0.662 -0.3725 -0.7160 -0.0459
 3983SOL    HW215698   1.805   4.936   0.703 -1.6044 -0.7195  0.3479
 3983SOL    HW315699   1.819   5.009   0.571 -1.6784 -1.8530 -0.2996
 3983SOL    MW415700   1.798   5.009   0.655  0.2384 -0.6490  0.1866
 3984SOL     OW15701   3.573   4.422   1.314  0.3024  0.4220 -0.1720
 3984SOL    HW215702   3.594   4.408   1.406 -1.2541  2.1196  0.4969
 3984SOL    HW315703   3.654   4.401   1.267  1.5528  0.8306  1.7054
 3984SOL    MW415704   3.586   4.418   1.320  0.0449 -0.0824 -0.5174
 3985SOL     OW15705   0.387   4.919   1.446 -0.5116 -0.3210 -0.2922
 3985SOL    HW215706   0.379   5.011   1.420  0.2442 -0.2091 -0.1485
 3985SOL    HW315707   0.481   4.907   1.461 -0.7860 -0.7249  1.1583
 3985SOL    MW415708   0.398   4.930   1.444 -0.3520  0.5861  1.0351
 3986SOL     OW15709   0.677   2.637   4.284  0.4617  0.6282  0.8180
 3986SOL    HW215710   0.662   2.592   4.201 -0.4938  0.3432  1.1351
 3986SOL    HW315711   0.686   2.568   4.349 -0.0359  0.8631  1.1479
 3986SOL    MW415712   0.676   2.622   4.281 -0.1616 -0.3344  0.1318
 3987SOL     OW15713   0.430   1.612   6.405 -0.1561  0.6482 -0.0779
 3987SOL    HW215714   0.375   1.638   6.479  0.6487 -0.3773  0.9331
 3987SOL    HW315715   0.369   1.602   6.332 -1.2534 -0.0342  0.8960
 3987SOL    MW415716   0.415   1.614   6.405 -0.2832 -0.1250 -0.0362
 3988SOL     OW15717   5.957   0.567   3.340  0.3077 -0.2626  0.0699
 3988SOL    HW215718   6.052   0.554   3.338  0.3513 -0.2372  1.1082
 3988SOL    HW315719   5.930   0.530   3.424 -0.4327  0.8045  0.3218
 3988SOL    MW415720   5.966   0.560   3.351  0.4967 -0.4394  0.4805
 3989SOL     OW15721   5.199   4.167   6.090 -0.0507 -0.0776 -0.2862
 3989SOL    HW215722   5.136   4.235   6.114  0.2718  0.5695 -1.2232
 3989SOL    HW315723   5.191   4.159   5.995  0.4758 -0.8026 -0.2783
 3989SOL    MW415724   5.189   4.175   6.081 -0.3370  0.2334 -0.4647
 3990SOL     OW15725   2.170   3.109   5.725  0.7639  0.3423  0.1477
 3990SOL    HW215726   2.185   3.146   5.638  0.8509  0.9849  0.4300
 3990SOL    HW315727   2.242   3.143   5.778  0.1171  0.8258  0.7291
 3990SOL    MW415728   2.182   3.118   5.720 -0.2786 -0.0031 -0.2495
 3991SOL     OW15729   1.587   3.587   5.740 -0.9961  0.0458 -0.4321
 3991SOL    HW215730   1.613   3.530   5.812 -1.5638  0.7914  0.3994
 3991SOL    HW315731   1.492   3.598   5.752 -1.3681 -0.9965 -2.1743
 3991SOL    MW415732   1.578   3.581   5.751  0.0238  0.5081 -0.0019
 3992SOL     OW15733   2.576   5.140   1.413 -0.5018 -0.0258  0.5178
 3992SOL    HW215734   2.566   5.171   1.503 -0.3758  0.1688  0.4649
 3992SOL    HW315735   2.500   5.174   1.367  0.6236  1.8994 -0.0098
 3992SOL    MW415736   2.565   5.148   1.419  0.0480 -0.4394  0.1351
 3993SOL     OW15737   5.068   6.068   5.163 -0.1741  0.2469  0.9854
 3993SOL    HW215738   5.048   6.120   5.241 -2.4065 -0.8492  1.2227
 3993SOL    HW315739   5.133   6.004   5.193  1.9573  2.2350  0.8919
 3993SOL    MW415740   5.074   6.067   5.177 -0.4311  0.0215 -0.1491
 3994SOL     OW15741   0.007   0.609   5.349 -0.2469 -0.3509  0.0626
 3994SOL    HW215742  -0.004   0.692   5.303  0.0920 -0.3956 -0.0992
 3994SOL    HW315743   0.043   0.633   5.434 -1.2733 -0.2289  0.4845
 3994SOL    MW415744   0.010   0.623   5.354 -0.6026 -0.3618 -0.2747
 3995SOL     OW15745   2.667   4.365   0.794 -0.0410 -0.3498  0.7051
 3995SOL    HW215746   2.669   4.292   0.732 -0.6426  0.3169 -0.1237
 3995SOL    HW315747   2.605   4.336   0.862 -2.0649  0.2509 -0.7834
 3995SOL    MW415748   2.659   4.352   0.795 -0.5612  0.2373  0.0058
 3996SOL     OW15749   0.511   3.246   5.933  0.1133  0.1850 -0.7153
 3996SOL    HW215750   0.426   3.284   5.955 -0.0491 -1.0595  1.0134
 3996SOL    HW315751   0.529   3.184   6.004  2.7794  0.8896 -0.6545
 3996SOL    MW415752   0.502   3.243   5.946  0.2618 -0.1722 -0.4279
 3997SOL     OW15753   5.803   4.712   3.428 -1.0103  0.7660 -0.0359
 3997SOL    HW215754   5.869   4.688   3.493  1.3819  0.3456 -2.4806
 3997SOL    HW315755   5.740   4.640   3.430 -0.9924  0.7542  1.7264
 3997SOL    MW415756   5.803   4.699   3.437 -0.2858 -0.3114 -0.2007
 3998SOL     OW15757   5.147   5.468   6.168 -0.3499  0.1225  0.3138
 3998SOL    HW215758   5.147   5.561   6.190  1.3931  0.9572 -2.6897
 3998SOL    HW315759   5.166   5.424   6.251 -0.7912  2.4551  1.7356
 3998SOL    MW415760   5.150   5.474   6.182 -0.0861 -0.5315  1.0307
 3999SOL     OW15761   1.156   5.151   3.258 -0.4903  0.2753 -0.1975
 3999SOL    HW215762   1.183   5.092   3.328 -0.5301  0.1292 -0.3045
 3999SOL    HW315763   1.125   5.093   3.188 -0.8509  0.4283 -0.1714
 3999SOL    MW415764   1.155   5.135   3.258  0.4218  0.1246 -0.4585
 4000SOL     OW15765   3.273   5.137   2.317 -0.5357  0.4453  0.6077
 4000SOL    HW215766   3.281   5.130   2.412  1.0978  3.8457  0.8588
 4000SOL    HW315767   3.192   5.186   2.303 -2.0600 -2.0661  0.0048
 4000SOL    MW415768   3.264   5.143   2.328 -0.7928  0.1900 -0.4524
 4001SOL     OW15769   1.605   4.031   3.830  0.0333 -0.8566  0.0299
 4001SOL    HW215770   1.636   3.940   3.829  0.8769 -0.5686 -0.3871
 4001SOL    HW315771   1.509   4.023   3.825  0.0046 -1.7506  1.4032
 4001SOL    MW415772   1.596   4.018   3.830  0.2591 -0.1895 -0.4499
 4002SOL     OW15773   1.289   4.544   3.139  0.0062  0.1467 -0.4020
 4002SOL    HW215774   1.330   4.538   3.225 -1.4018 -0.8932  0.2509
 4002SOL    HW315775   1.247   4.630   3.138 -0.3312 -0.0123  0.1221
 4002SOL    MW415776   1.289   4.555   3.150 -0.1806  0.3810  0.5481
 4003SOL     OW15777   4.796   3.420   3.312  0.7379  0.0823  0.5749
 4003SOL    HW215778   4.846   3.346   3.345  0.8874  0.1374  0.4736
 4003SOL    HW315779   4.831   3.436   3.224  0.6081  0.1805  0.5406
 4003SOL    MW415780   4.807   3.413   3.305  0.0777  0.6825  0.3795
 4004SOL     OW15781   0.309   1.078   0.159 -0.3450  0.8445 -0.1720
 4004SOL    HW215782   0.376   1.133   0.199 -1.2871  0.9642  1.3315
 4004SOL    HW315783   0.255   1.049   0.233  0.0031 -1.9704 -0.8869
 4004SOL    MW415784   0.311   1.081   0.174  0.2082 -0.3914  0.3803
 4005SOL     OW15785   1.403   4.677   4.661 -0.4089  0.0421 -0.2509
 4005SOL    HW215786   1.340   4.682   4.732  0.6945  0.1827  0.7489
 4005SOL    HW315787   1.479   4.632   4.699  0.5046  0.8010 -1.1132
 4005SOL    MW415788   1.405   4.672   4.675 -0.2776 -0.3092  0.1274
 4006SOL     OW15789   5.334   5.626   5.413 -0.2569 -0.0965 -0.2532
 4006SOL    HW215790   5.247   5.595   5.439 -0.4333  0.6897  0.1119
 4006SOL    HW315791   5.317   5.702   5.358  0.1841  2.9748  3.4725
 4006SOL    MW415792   5.320   5.632   5.409  0.4431  0.0692 -0.7064
 4007SOL     OW15793   3.672   3.948   2.922  0.1660 -0.2862  0.5014
 4007SOL    HW215794   3.724   4.028   2.919  0.2451 -0.3054  1.2610
 4007SOL    HW315795   3.648   3.932   2.831  2.0766 -0.6676  0.0209
 4007SOL    MW415796   3.675   3.956   2.909 -0.0719 -0.8077 -0.9356
 4008SOL     OW15797   2.262   1.666   6.001 -0.2585 -0.1840 -0.0645
 4008SOL    HW215798   2.306   1.748   5.981 -1.2421  0.4673  0.3373
 4008SOL    HW315799   2.286   1.608   5.929  2.1326 -0.2411  0.6876
 4008SOL    MW415800   2.271   1.669   5.989  0.4616 -0.2901 -0.0421
 4009SOL     OW15801   3.419   1.660   1.113 -0.3916  0.5603  0.3053
 4009SOL    HW215802   3.490   1.678   1.052  0.8928 -0.0812  1.5472
 4009SOL    HW315803   3.427   1.728   1.180 -2.1006  1.5716 -0.4485
 4009SOL    MW415804   3.429   1.671   1.114  0.3477  0.0216 -0.0251
 4010SOL     OW15805   1.064   2.318   5.042 -0.3177  0.1164  0.6171
 4010SOL    HW215806   1.125   2.350   5.109  1.0615  0.4141 -0.7414
 4010SOL    HW315807   0.980   2.358   5.067  0.4486  1.3298  1.4126
 4010SOL    MW415808   1.061   2.328   5.054  0.0931 -0.0814  0.4155
 4011SOL     OW15809   2.693   5.713   3.642 -0.5519 -0.1512 -0.1140
 4011SOL    HW215810   2.754   5.782   3.619 -0.4624 -0.1972 -0.0167
 4011SOL    HW315811   2.648   5.745   3.720 -0.4820 -0.2190 -0.0452
 4011SOL    MW415812   2.695   5.726   3.649 -0.9739  0.2559 -0.3962
 4012SOL     OW15813   2.647   1.624   4.110  0.4455  0.2479 -0.3264
 4012SOL    HW215814   2.684   1.685   4.174 -1.4495 -0.1319  1.2201
 4012SOL    HW315815   2.557   1.654   4.098 -0.1424 -1.4795 -0.4880
 4012SOL    MW415816   2.640   1.636   4.117 -0.1697  0.2500  0.1166
 4013SOL     OW15817   2.492   3.523   1.095 -0.3658  0.0191  0.5996
 4013SOL    HW215818   2.468   3.485   1.179  0.5974  0.6654  1.1876
 4013SOL    HW315819   2.564   3.584   1.115 -0.0225  0.0833 -0.7011
 4013SOL    MW415820   2.499   3.526   1.109 -0.4698 -0.1459 -0.5572
 4014SOL     OW15821   5.554   4.275   6.319  0.0012 -0.2926  0.5483
 4014SOL    HW215822   5.544   4.281   6.414 -1.0902 -0.3138  0.4523
 4014SOL    HW315823   5.546   4.181   6.300  1.1584 -0.4008  0.5119
 4014SOL    MW415824   5.552   4.263   6.329  0.2285 -0.4970 -0.4505
 4015SOL     OW15825   1.369   5.326   3.518 -0.1906  0.4217 -0.5975
 4015SOL    HW215826   1.323   5.404   3.549  1.3506  1.6051 -1.1705
 4015SOL    HW315827   1.352   5.324   3.424 -0.6895 -0.2780 -0.5001
 4015SOL    MW415828   1.360   5.336   3.510 -0.7061  0.1988  0.4637
 4016SOL     OW15829   2.948   0.956   0.415  0.6716  0.0534  0.0035
 4016SOL    HW215830   2.863   0.957   0.371  0.3592  1.3215  0.6011
 4016SOL    HW315831   2.987   0.872   0.390 -0.2198 -0.0029 -1.2814
 4016SOL    MW415832   2.942   0.945   0.406 -0.7036  0.2295  0.5256
 4017SOL     OW15833   4.018   1.745   5.824  0.3930  0.1639 -0.0522
 4017SOL    HW215834   4.046   1.678   5.886  1.3223  0.2912 -0.3143
 4017SOL    HW315835   3.981   1.696   5.751  2.4093 -0.1693 -0.9096
 4017SOL    MW415836   4.017   1.730   5.823 -0.4984  0.1123  0.2327
 4018SOL     OW15837   0.754   4.213   5.502 -0.0439  0.0405  0.2332
 4018SOL    HW215838   0.676   4.226   5.449  0.0174  1.0816  0.3731
 4018SOL    HW315839   0.793   4.132   5.469  0.0945  0.7569 -1.4416
 4018SOL    MW415840   0.749   4.204   5.491  0.3989  0.8911 -0.1454
 4019SOL     OW15841   3.799   4.186   6.282  0.5975  0.2658  0.0622
 4019SOL    HW215842   3.803   4.251   6.352  0.3922  0.2333  0.1044
 4019SOL    HW315843   3.863   4.119   6.308  0.6511  0.3414  0.1277
 4019SOL    MW415844   3.808   4.186   6.295  0.6014  0.0272  0.4517
 4020SOL     OW15845   4.788   3.955   4.342 -0.4213 -0.6098  0.5618
 4020SOL    HW215846   4.750   3.964   4.429 -0.6913  0.0996  0.3785
 4020SOL    HW315847   4.714   3.968   4.282 -0.0319  0.0379  0.2130
 4020SOL    MW415848   4.773   3.958   4.345 -0.6647 -0.5292  0.1577
 4021SOL     OW15849   2.928   6.060   0.361 -0.3780 -0.1953  0.6039
 4021SOL    HW215850   2.841   6.031   0.334 -0.3668  1.2151 -1.1819
 4021SOL    HW315851   2.928   6.154   0.341  1.8043 -0.3200 -0.1608
 4021SOL    MW415852   2.916   6.069   0.355  0.4395  0.3286 -0.0013
 4022SOL     OW15853   1.277   2.390   5.956 -0.5371  0.1769  0.4066
 4022SOL    HW215854   1.234   2.449   5.895 -0.5227 -0.0033  0.2201
 4022SOL    HW315855   1.292   2.310   5.906 -0.3348  0.1013  0.5828
 4022SOL    MW415856   1.274   2.387   5.941 -0.0592 -0.4435  0.1415
 4023SOL     OW15857   4.227   2.914   4.156 -0.2458  0.5168  0.0590
 4023SOL    HW215858   4.245   2.875   4.070 -0.2841 -1.4792  0.9069
 4023SOL    HW315859   4.176   2.992   4.136 -0.5810 -0.1016 -1.7265
 4023SOL    MW415860   4.222   2.919   4.142 -0.3423 -0.0798 -0.2973
 4024SOL     OW15861   2.955   0.481   4.376 -0.0987  0.3310  0.0884
 4024SOL    HW215862   2.878   0.442   4.334  0.3435 -1.4860  0.8271
 4024SOL    HW315863   2.960   0.436   4.461  1.7048  0.4744  0.0851
 4024SOL    MW415864   2.945   0.470   4.382  0.4967 -0.0125  0.5331
 4025SOL     OW15865   3.339   0.663   4.154  0.6137  0.5393 -0.0206
 4025SOL    HW215866   3.271   0.728   4.172  0.3232  0.8367 -1.9462
 4025SOL    HW315867   3.326   0.640   4.062  1.3802 -1.4951  0.3270
 4025SOL    MW415868   3.328   0.669   4.144 -0.0336 -0.0246 -0.2515
 4026SOL     OW15869   3.257   6.282   3.384  0.9877  0.5204  0.5885
 4026SOL    HW215870   3.350   6.258   3.381  0.8078 -0.1667 -1.5268
 4026SOL    HW315871   3.215   6.209   3.430  1.4006  0.4652  0.8789
 4026SOL    MW415872   3.264   6.269   3.389  0.3598 -0.3253  0.0515
 4027SOL     OW15873   2.411   2.144   6.099 -0.5224 -0.5968 -0.2225
 4027SOL    HW215874   2.400   2.068   6.042 -1.6555  0.8005 -1.9825
 4027SOL    HW315875   2.436   2.215   6.040 -2.1981  1.0185  0.9015
 4027SOL    MW415876   2.413   2.143   6.084  0.0858  0.2096 -0.6013
 4028SOL     OW15877   4.315   0.772   4.154 -0.4213 -0.6387  0.0938
 4028SOL    HW215878   4.375   0.803   4.222  0.0427 -0.5701 -0.3422
 4028SOL    HW315879   4.340   0.821   4.076 -0.8408 -0.8405 -0.1692
 4028SOL    MW415880   4.326   0.782   4.153  0.1947  0.4840 -0.3160
 4029SOL     OW15881   6.289   4.561   0.591  0.2954  0.2903 -0.1795
 4029SOL    HW215882   6.360   4.512   0.548  1.7223  1.1668  1.0678
 4029SOL    HW315883   6.304   4.547   0.684 -0.5319  1.3801  0.1285
 4029SOL    MW415884   6.300   4.553   0.597 -0.1412 -0.0157 -0.0584
 4030SOL     OW15885   2.191   2.684   0.217 -0.3937  0.1638 -0.1670
 4030SOL    HW215886   2.233   2.757   0.171  0.3360  0.0747  0.3277
 4030SOL    HW315887   2.143   2.726   0.288  0.1829  0.1644  0.2341
 4030SOL    MW415888   2.190   2.699   0.220 -0.2628 -0.1535  0.0488
 4031SOL     OW15889   5.197   4.124   2.536  0.4225 -0.0857  0.2592
 4031SOL    HW215890   5.196   4.211   2.497  3.6431 -0.4264 -0.8608
 4031SOL    HW315891   5.116   4.083   2.505 -0.2951  1.8843 -0.6353
 4031SOL    MW415892   5.186   4.130   2.526  0.0881  0.0692  0.6753
 4032SOL     OW15893   5.000   2.088   5.997 -0.3288  0.2934  0.7553
 4032SOL    HW215894   4.924   2.146   6.007  0.5487  1.8160 -0.8523
 4032SOL    HW315895   5.002   2.068   5.904  1.4573  0.6097  0.6958
 4032SOL    MW415896   4.990   2.093   5.986  0.3662  0.1844 -0.1661
 4033SOL     OW15897   2.799   2.367   0.863  0.1136 -0.0493 -0.2812
 4033SOL    HW215898   2.720   2.417   0.847  0.1192  0.9930  2.5238
 4033SOL    HW315899   2.808   2.312   0.785 -3.7124 -0.7186 -0.4620
 4033SOL    MW415900   2.790   2.366   0.851 -0.7774 -0.0234 -0.1887
 4034SOL     OW15901   0.680   5.305   3.990 -0.0882 -0.1997 -0.2827
 4034SOL    HW215902   0.713   5.314   3.900 -1.3382 -2.9184 -1.1257
 4034SOL    HW315903   0.608   5.367   3.995 -0.5486 -0.6008 -1.4755
 4034SOL    MW415904   0.675   5.314   3.979  0.9969 -0.2574 -0.0941
 4035SOL     OW15905   0.534   3.373   5.545 -0.1914  0.4160 -0.2346
 4035SOL    HW215906   0.592   3.380   5.469  0.8467  2.8221  0.6822
 4035SOL    HW315907   0.591   3.391   5.620 -1.8016  1.1993  0.8455
 4035SOL    MW415908   0.549   3.376   5.544 -0.4345 -0.2902  0.5065
 4036SOL     OW15909   3.896   3.873   0.882 -0.3505 -0.5025  0.5470
 4036SOL    HW215910   3.945   3.951   0.907 -0.8048 -0.0645  0.0968
 4036SOL    HW315911   3.948   3.800   0.915  0.2076 -0.0174  0.7504
 4036SOL    MW415912   3.909   3.874   0.890 -0.3027  0.0795  0.7948
 4037SOL     OW15913   0.093   6.359   0.099  0.2492  0.1789 -0.7400
 4037SOL    HW215914   0.181   6.387   0.076 -0.4917  1.7042 -1.9495
 4037SOL    HW315915   0.044   6.367   0.017 -0.5067 -2.9209 -0.7098
 4037SOL    MW415916   0.098   6.364   0.085  0.4352 -0.6919 -0.0181
 4038SOL     OW15917   2.064   4.871   1.119 -0.0404 -0.4424  0.0296
 4038SOL    HW215918   2.070   4.960   1.153  2.6576 -0.7055  0.4524
 4038SOL    HW315919   2.098   4.877   1.030  0.5497 -1.1148  0.2060
 4038SOL    MW415920   2.069   4.884   1.112 -0.0319  0.7010 -0.0888
 4039SOL     OW15921   4.212   4.624   0.298 -0.0177 -0.0596  0.1690
 4039SOL    HW215922   4.223   4.690   0.229  1.1884 -1.1380 -0.7240
 4039SOL    HW315923   4.213   4.674   0.379 -2.5441  1.3566 -0.5850
 4039SOL    MW415924   4.214   4.639   0.300 -0.1479 -0.0954  0.4472
 4040SOL     OW15925   0.694   2.258   2.591  0.0566 -0.4391  0.1597
 4040SOL    HW215926   0.615   2.212   2.619 -0.6944  0.6302 -0.1494
 4040SOL    HW315927   0.735   2.286   2.673  0.6950 -1.8716  0.3731
 4040SOL    MW415928   0.689   2.255   2.605 -0.1997 -0.1070  0.6352
 4041SOL     OW15929   6.038   4.643   6.031 -0.3807 -0.0762 -0.3859
 4041SOL    HW215930   6.029   4.644   5.936  1.2031 -0.6333 -0.5773
 4041SOL    HW315931   6.020   4.553   6.056 -1.1181  0.1410 -0.1021
 4041SOL    MW415932   6.034   4.632   6.022 -0.5116  0.4557  0.1469
 4042SOL     OW15933   4.403   5.446   0.269 -0.1963  0.3833 -0.1726
 4042SOL    HW215934   4.486   5.453   0.317  0.4656 -3.3657 -0.4362
 4042SOL    HW315935   4.418   5.494   0.188  1.0141  1.3817  0.6061
 4042SOL    MW415936   4.416   5.453   0.265 -0.5449 -0.7937  0.0132
 4043SOL     OW15937   0.348   5.923   6.256  0.4008 -0.2060 -0.0173
 4043SOL    HW215938   0.286   5.852   6.276  1.5438 -0.7155  1.9475
 4043SOL    HW315939   0.415   5.882   6.201 -1.0517  0.4191 -2.4144
 4043SOL    MW415940   0.348   5.908   6.251 -0.3816  0.2449 -0.4301
 4044SOL     OW15941   2.390   5.658   2.070  0.5782  0.3611 -0.0600
 4044SOL    HW215942   2.387   5.564   2.084  1.4928  0.5352  1.4988
 4044SOL    HW315943   2.302   5.689   2.093  0.8907  0.1321  1.5172
 4044SOL    MW415944   2.378   5.650   2.075  0.8909 -1.1155 -0.1441
 4045SOL     OW15945   1.145   0.242   1.285  0.1296  0.2431  0.3604
 4045SOL    HW215946   1.098   0.324   1.267  0.3924  0.7273  1.7350
 4045SOL    HW315947   1.230   0.255   1.244 -0.5795 -0.2901 -1.3919
 4045SOL    MW415948   1.150   0.255   1.277 -0.6170 -0.4072 -0.5059
 4046SOL     OW15949   5.283   1.497   2.468  0.6461  0.2743 -0.5309
 4046SOL    HW215950   5.210   1.541   2.424 -0.3015 -2.4067 -1.8706
 4046SOL    HW315951   5.328   1.566   2.516 -2.2128  2.1952 -0.4270
 4046SOL    MW415952   5.280   1.512   2.468  0.1972  0.2122  0.6768
 4047SOL     OW15953   2.300   1.909   2.783 -0.1836 -0.0515 -0.0192
 4047SOL    HW215954   2.332   1.899   2.693 -0.2743  0.2336 -0.0827
 4047SOL    HW315955   2.206   1.894   2.777 -0.7312  2.9553 -0.5036
 4047SOL    MW415956   2.292   1.906   2.770 -0.1719  0.0358 -0.4538
 4048SOL     OW15957   2.013   2.933   5.118  0.2651 -0.1908 -0.0567
 4048SOL    HW215958   2.060   2.976   5.046  0.7082 -3.1123 -1.6896
 4048SOL    HW315959   1.921   2.939   5.093  0.3359 -0.2616 -0.3473
 4048SOL    MW415960   2.007   2.939   5.105 -0.1892  0.2028 -0.1878
 4049SOL     OW15961   0.942   1.227   0.438  0.4178  0.3267  0.2895
 4049SOL    HW215962   0.880   1.234   0.365 -0.4407  1.1035  1.0716
 4049SOL    HW315963   1.022   1.266   0.404 -0.3909  1.9901  0.1945
 4049SOL    MW415964   0.944   1.233   0.424  0.2124  0.3473 -0.2617
 4050SOL     OW15965   0.467   5.157   0.266 -0.4548 -0.2934  0.4753
 4050SOL    HW215966   0.386   5.114   0.293 -0.2587 -0.4413  0.8391
 4050SOL    HW315967   0.533   5.125   0.329 -0.2045  0.1444  0.4380
 4050SOL    MW415968   0.465   5.147   0.278  0.0597 -0.3204 -0.3213
 4051SOL     OW15969   1.079   3.535   3.246 -0.3950 -0.3829 -0.2444
 4051SOL    HW215970   1.123   3.588   3.312 -1.0806 -1.3833  1.0503
 4051SOL    HW315971   1.142   3.530   3.174 -0.6870  2.9919 -0.8963
 4051SOL    MW415972   1.093   3.541   3.245  0.2221 -0.7513  0.1415
 4052SOL     OW15973   2.923   1.391   4.785  0.4524  0.4390  0.6124
 4052SOL    HW215974   2.991   1.361   4.845  1.6801 -0.4925 -1.1377
 4052SOL    HW315975   2.971   1.434   4.714 -0.7654 -0.3213 -0.7279
 4052SOL    MW415976   2.938   1.393   4.783  0.4657  0.1733  0.3214
 4053SOL     OW15977   5.860   5.719   0.578 -0.0414 -0.7430  0.2179
 4053SOL    HW215978   5.813   5.763   0.507  2.2639  1.4723 -0.0983
 4053SOL    HW315979   5.804   5.731   0.655 -0.0795  1.8910 -0.1173
 4053SOL    MW415980   5.847   5.726   0.579  0.1929  0.0824 -0.6982
 4054SOL     OW15981   1.373   4.113   5.649 -0.1161 -0.0405 -0.1687
 4054SOL    HW215982   1.434   4.103   5.576  0.3747  0.1318  0.2117
 4054SOL    HW315983   1.375   4.207   5.669 -0.8593  0.0442 -0.4493
 4054SOL    MW415984   1.382   4.124   5.642 -0.3751  0.1498 -0.4081
 4055SOL     OW15985   4.154   5.820   3.172 -0.1537 -0.1780  0.2839
 4055SOL    HW215986   4.189   5.782   3.091  0.7866 -0.7735  0.9472
 4055SOL    HW315987   4.205   5.900   3.185 -1.0445  0.4992 -0.2664
 4055SOL    MW415988   4.166   5.826   3.163  0.4999  0.0845  0.1919
 4056SOL     OW15989   2.085   5.665   1.908 -0.3271 -0.3231  0.0907
 4056SOL    HW215990   2.149   5.617   1.856 -0.5744 -0.8698  0.2775
 4056SOL    HW315991   2.004   5.615   1.898 -0.4035 -0.3792  0.9103
 4056SOL    MW415992   2.082   5.652   1.900 -0.4460  0.3689  0.0042
 4057SOL     OW15993   5.426   0.894   1.221  0.0663 -0.4888  0.0941
 4057SOL    HW215994   5.354   0.886   1.158  0.3011  1.6938 -0.5090
 4057SOL    HW315995   5.383   0.897   1.306 -0.4269 -0.9408 -0.1307
 4057SOL    MW415996   5.411   0.893   1.224 -0.3815  0.0647 -0.0071
 4058SOL     OW15997   0.245   2.350   2.464  0.6782 -1.2132  0.6245
 4058SOL    HW215998   0.300   2.413   2.417 -1.0872 -0.9490 -1.2814
 4058SOL    HW315999   0.252   2.375   2.556 -1.3796  3.1333 -0.1252
 4058SOL    MW416000   0.253   2.362   2.470  0.3780  0.0773  0.0386
 4059SOL     OW16001   0.840   2.456   0.285  0.4148 -0.1685  0.0161
 4059SOL    HW216002   0.796   2.406   0.353 -0.8658  1.0318  0.1233
 4059SOL    HW316003   0.873   2.390   0.223  2.2506 -1.3313  2.0945
 4059SOL    MW416004   0.839   2.441   0.286 -0.1036  0.2185 -0.1340
 4060SOL     OW16005   1.043   1.800   1.914 -0.2848  0.1014  0.0361
 4060SOL    HW216006   1.011   1.849   1.838 -1.0528  0.4153  0.5418
 4060SOL    HW316007   1.134   1.779   1.893  0.4933  2.8381  0.2917
 4060SOL    MW416008   1.051   1.804   1.901  0.6428  0.1763  0.4002
 4061SOL     OW16009   3.673   0.496   3.351 -0.8087 -0.7035  0.5002
 4061SOL    HW216010   3.670   0.547   3.270 -0.7236 -0.7277  0.4812
 4061SOL    HW316011   3.740   0.540   3.405 -0.7058 -0.8181  0.4671
 4061SOL    MW416012   3.682   0.508   3.348 -0.3422  0.6612  0.2678
 4062SOL     OW16013   0.916   5.279   4.651 -0.9305 -0.0184 -0.0595
 4062SOL    HW216014   0.869   5.353   4.689 -3.3418 -1.4258 -0.1248
 4062SOL    HW316015   0.896   5.205   4.709 -0.7042 -1.1676 -1.3850
 4062SOL    MW416016   0.907   5.279   4.664  0.1700 -0.0004  0.3669
 4063SOL     OW16017   3.350   0.500   5.267 -0.4475  0.3481 -0.2321
 4063SOL    HW216018   3.419   0.545   5.316 -0.1922  0.2157 -0.4689
 4063SOL    HW316019   3.383   0.412   5.253  0.0580  0.7494 -1.7690
 4063SOL    MW416020   3.363   0.494   5.271  0.0345 -0.3245 -0.5005
 4064SOL     OW16021   5.629   0.091   5.806  0.1894  0.1823  0.5309
 4064SOL    HW216022   5.654   0.113   5.717 -0.7110 -0.4181  0.1148
 4064SOL    HW316023   5.601   0.174   5.845 -2.4180  0.0243 -0.7619
 4064SOL    MW416024   5.629   0.105   5.800 -0.3192  0.5328 -0.1308
 4065SOL     OW16025   0.880   6.035   1.159  0.1282  0.2839 -0.7395
 4065SOL    HW216026   0.859   6.058   1.068  0.0437  1.2114 -0.4972
 4065SOL    HW316027   0.823   5.961   1.179 -0.5629  0.6975 -1.1343
 4065SOL    MW416028   0.870   6.028   1.150 -0.6725 -0.0433  0.6263
 4066SOL     OW16029   5.246   3.347   6.408  0.2671  0.1645 -0.3398
 4066SOL    HW216030   5.187   3.404   6.458  0.2255  0.0336 -0.2405
 4066SOL    HW316031   5.315   3.406   6.377  0.8005  0.0757  0.6537
 4066SOL    MW416032   5.247   3.362   6.410  0.7327  0.1988 -0.1327
 4067SOL     OW16033   0.770   5.378   3.254  0.1964 -0.3743 -0.4046
 4067SOL    HW216034   0.708   5.436   3.210  0.2370 -1.9189 -2.6444
 4067SOL    HW316035   0.748   5.290   3.224  1.2353 -1.3797  1.5377
 4067SOL    MW416036   0.759   5.374   3.244 -0.1525 -0.1015 -0.0127
 4068SOL     OW16037   2.852   3.497   5.340  0.1985 -0.4192  0.4199
 4068SOL    HW216038   2.893   3.583   5.352 -0.5679  0.2412 -1.2790
 4068SOL    HW316039   2.889   3.464   5.258 -1.2792 -0.6194 -0.1934
 4068SOL    MW416040   2.862   3.504   5.331 -0.0457  0.5135 -0.0829
 4069SOL     OW16041   2.595   0.684   3.789 -0.6692 -0.4366  0.6334
 4069SOL    HW216042   2.646   0.754   3.746 -0.1793 -0.6937  0.7890
 4069SOL    HW316043   2.564   0.630   3.716 -1.3191  0.1180  0.4885
 4069SOL    MW416044   2.598   0.686   3.773 -0.0359 -0.2131 -0.1056
 4070SOL     OW16045   0.359   2.645   1.168  0.1572 -0.0845  0.0520
 4070SOL    HW216046   0.311   2.611   1.243 -2.4363  3.0117  0.0237
 4070SOL    HW316047   0.303   2.715   1.134  3.4996  1.9640 -1.7529
 4070SOL    MW416048   0.345   2.650   1.173  0.4301 -0.1719  0.5705
 4071SOL     OW16049   5.141   5.013   2.868 -0.1892 -0.2763 -0.6995
 4071SOL    HW216050   5.223   4.965   2.873  0.8157  1.4752  1.7025
 4071SOL    HW316051   5.145   5.060   2.785  0.7994 -0.9466 -1.0469
 4071SOL    MW416052   5.152   5.013   2.858 -0.1360  0.3980 -0.5004
 4072SOL     OW16053   5.573   2.695   2.557  0.0544  0.0904 -0.3546
 4072SOL    HW216054   5.488   2.651   2.560 -0.1643  0.5410  0.4418
 4072SOL    HW316055   5.581   2.738   2.643  0.7839  0.6193 -0.6741
 4072SOL    MW416056   5.563   2.695   2.569  0.6115 -0.5070 -0.4692
 4073SOL     OW16057   4.952   4.753   1.791 -0.0153  0.0386 -0.0195
 4073SOL    HW216058   4.911   4.670   1.768 -0.5726  0.6374 -1.3384
 4073SOL    HW316059   5.012   4.771   1.719  0.6492  0.4290  0.6153
 4073SOL    MW416060   4.955   4.745   1.778 -0.1350  0.4379 -0.1326
 4074SOL     OW16061   5.660   4.588   1.095  0.6292 -0.1109 -0.3191
 4074SOL    HW216062   5.673   4.660   1.156  0.8543 -0.4124 -0.0066
 4074SOL    HW316063   5.698   4.618   1.013  1.7797 -0.3307  0.1266
 4074SOL    MW416064   5.666   4.601   1.092 -0.1056 -0.0931 -0.3089
 4075SOL     OW16065   3.595   0.204   2.812  0.4709 -0.3186  1.1536
 4075SOL    HW216066   3.662   0.178   2.875  1.8021  0.7565  0.2264
 4075SOL    HW316067   3.592   0.131   2.749  1.1504 -0.1593  0.9241
 4075SOL    MW416068   3.603   0.191   2.812 -0.6381 -0.6104  0.0963
 4076SOL     OW16069   4.429   5.704   4.068  0.0218  0.8051 -0.3482
 4076SOL    HW216070   4.379   5.768   4.119 -0.6203  1.0758 -1.2748
 4076SOL    HW316071   4.515   5.744   4.057 -0.2277  1.3132 -0.5207
 4076SOL    MW416072   4.433   5.718   4.073 -0.1256 -0.1954  0.3025
 4077SOL     OW16073   5.956   2.695   2.725  0.3358 -0.0185 -0.0273
 4077SOL    HW216074   6.043   2.729   2.743  0.5096 -0.6465  0.3548
 4077SOL    HW316075   5.935   2.642   2.802 -0.8762  1.0865  0.4392
 4077SOL    MW416076   5.964   2.693   2.738  0.1271  0.1412 -0.2066
 4078SOL     OW16077   5.359   2.559   5.814 -0.2215 -0.5120  0.2179
 4078SOL    HW216078   5.289   2.593   5.870  0.2370  0.5517  0.1798
 4078SOL    HW316079   5.333   2.584   5.726  0.6031  0.6773  0.2835
 4078SOL    MW416080   5.346   2.567   5.810  0.3254 -0.1036 -0.9408
 4079SOL     OW16081   2.402   2.905   6.182 -0.5686  0.5551  0.3875
 4079SOL    HW216082   2.469   2.903   6.115  0.4365  1.3321  1.3319
 4079SOL    HW316083   2.447   2.880   6.263 -0.3654  4.7229  1.8356
 4079SOL    MW416084   2.417   2.902   6.184 -0.0639 -0.0167 -0.4407
 4080SOL     OW16085   0.048   2.351   3.953 -0.2992  0.1817 -0.1009
 4080SOL    HW216086   0.056   2.338   3.859 -1.5021 -0.6346 -0.1242
 4080SOL    HW316087   0.086   2.272   3.992 -1.1424 -0.1713  0.0311
 4080SOL    MW416088   0.054   2.339   3.946 -0.1623 -0.0155 -0.0112
 4081SOL     OW16089   2.446   3.954   0.434  0.2972  0.1049 -0.4633
 4081SOL    HW216090   2.375   3.890   0.439  1.0227 -0.6711  0.2363
 4081SOL    HW316091   2.403   4.039   0.445 -0.4389 -0.4067  0.7748
 4081SOL    MW416092   2.431   3.957   0.436  0.5928  0.2845 -0.1511
 4082SOL     OW16093   2.109   1.915   1.694  0.4536  0.3405 -0.3556
 4082SOL    HW216094   2.124   1.868   1.612 -0.6220  0.3044 -0.5468
 4082SOL    HW316095   2.113   2.007   1.670  1.2605  0.3455 -0.2269
 4082SOL    MW416096   2.111   1.921   1.680 -0.2209  0.1798  0.1453
 4083SOL     OW16097   3.064   4.243   1.401  0.3988  0.0566  0.2812
 4083SOL    HW216098   3.085   4.271   1.490  0.6556 -1.3586  0.6888
 4083SOL    HW316099   2.969   4.236   1.399  0.4465 -0.8402  0.7505
 4083SOL    MW416100   3.055   4.246   1.412  0.0019  0.4718  0.4737
 4084SOL     OW16101   5.587   3.562   3.730  0.0672 -0.0730  0.5381
 4084SOL    HW216102   5.627   3.640   3.692  3.0301 -1.3409  0.8317
 4084SOL    HW316103   5.599   3.573   3.825 -2.2941  0.4715  0.8396
 4084SOL    MW416104   5.594   3.574   3.738  0.6574  0.2712  0.3769
 4085SOL     OW16105   0.588   0.599   3.013  0.2249 -1.1517  0.2101
 4085SOL    HW216106   0.510   0.554   3.045 -1.4668  1.1316 -0.3957
 4085SOL    HW316107   0.577   0.602   2.918  2.5546 -3.2464 -0.2414
 4085SOL    MW416108   0.576   0.594   3.005  0.2211  0.4413  0.6715
 4086SOL     OW16109   2.538   0.640   4.405  0.3697  0.3458  0.1516
 4086SOL    HW216110   2.481   0.574   4.445  2.3144 -0.8401  1.0974
 4086SOL    HW316111   2.503   0.723   4.436  0.0959 -0.4230  2.0169
 4086SOL    MW416112   2.526   0.642   4.414  0.1183  0.1489 -0.0582
 4087SOL     OW16113   2.743   0.178   2.225  0.0813  0.8088  0.4049
 4087SOL    HW216114   2.752   0.142   2.313  0.9072  0.5590  0.2271
 4087SOL    HW316115   2.769   0.107   2.167 -0.6137  0.9218 -0.0531
 4087SOL    MW416116   2.747   0.164   2.229 -0.0990 -0.6239 -0.1331
 4088SOL     OW16117   0.277   5.476   0.680  0.1827 -0.1599  0.3201
 4088SOL    HW216118   0.328   5.470   0.599  2.2944 -0.7024  1.6077
 4088SOL    HW316119   0.218   5.550   0.666  1.1406  0.3432 -1.3633
 4088SOL    MW416120   0.276   5.485   0.668 -0.0414 -0.4735  0.0214
 4089SOL     OW16121   1.112   4.769   3.323  0.2786 -0.0063  0.9619
 4089SOL    HW216122   1.176   4.791   3.391  1.1992  3.2167 -0.7029
 4089SOL    HW316123   1.082   4.854   3.290 -3.2083 -1.4238  0.0768
 4089SOL    MW416124   1.117   4.783   3.327 -0.5789 -0.4663  0.7460
 4090SOL     OW16125   4.977   0.061   0.619  0.5992  0.0373 -0.7113
 4090SOL    HW216126   4.885   0.050   0.643  1.1024  0.3943  1.6026
 4090SOL    HW316127   4.996  -0.014   0.563 -0.8305 -0.6451 -0.3210
 4090SOL    MW416128   4.967   0.049   0.615  0.1597 -0.3517  0.4646
 4091SOL     OW16129   5.408   5.711   0.190 -0.4930  0.0663  0.3941
 4091SOL    HW216130   5.418   5.796   0.234  2.8627 -0.6287  1.2395
 4091SOL    HW316131   5.377   5.733   0.103  0.2711  2.2036  0.6028
 4091SOL    MW416132   5.406   5.725   0.185  0.0573 -0.0724 -0.1028
 4092SOL     OW16133   1.111   5.912   2.109 -0.4598  0.1502 -0.2075
 4092SOL    HW216134   1.107   6.003   2.137 -0.7731  0.0808 -0.0135
 4092SOL    HW316135   1.030   5.899   2.059 -0.3950 -0.0085 -0.2718
 4092SOL    MW416136   1.100   5.922   2.106  0.1945 -0.0420  0.2258
 4093SOL     OW16137   4.094   2.118   5.740 -0.4756  0.0883 -0.1272
 4093SOL    HW216138   4.072   2.159   5.824  0.1792 -2.1842  1.2508
 4093SOL    HW316139   4.189   2.108   5.743 -0.5174 -0.5908 -0.8617
 4093SOL    MW416140   4.104   2.122   5.751 -0.7029 -0.4591  0.0767
 4094SOL     OW16141   2.195   2.598   4.721 -0.1171  0.3586  0.0885
 4094SOL    HW216142   2.231   2.682   4.693 -1.0031  1.1065  1.0861
 4094SOL    HW316143   2.108   2.620   4.754 -0.5678 -1.0387 -0.1116
 4094SOL    MW416144   2.188   2.612   4.722  0.5056  0.4921  0.1117
 4095SOL     OW16145   1.769   5.852   6.275  0.2749 -0.2274 -0.3502
 4095SOL    HW216146   1.802   5.910   6.343 -1.1318  0.2326 -0.0351
 4095SOL    HW316147   1.730   5.910   6.210 -2.0188 -0.7942  0.4285
 4095SOL    MW416148   1.768   5.867   6.275  0.1342  0.4857  0.0740
 4096SOL     OW16149   1.236   4.153   3.451 -0.3299  0.2119  0.4015
 4096SOL    HW216150   1.202   4.241   3.471  0.3279  0.3810  0.8169
 4096SOL    HW316151   1.330   4.166   3.443 -0.3742 -0.1943 -1.0273
 4096SOL    MW416152   1.244   4.167   3.453 -0.4529 -0.3344 -0.2036
 4097SOL     OW16153   1.577   1.922   0.233 -0.5857  0.3708  0.5122
 4097SOL    HW216154   1.566   1.997   0.290  0.1504  1.0190 -0.1634
 4097SOL    HW316155   1.601   1.960   0.148 -2.5213 -0.5089 -0.4913
 4097SOL    MW416156   1.579   1.937   0.229 -0.4960  0.2239 -0.3462
 4098SOL     OW16157   5.874   1.858   3.885  0.6621 -0.2238  0.3248
 4098SOL    HW216158   5.969   1.851   3.899  0.5398  0.0147  1.3572
 4098SOL    HW316159   5.863   1.945   3.845  0.9401 -0.5709 -0.5438
 4098SOL    MW416160   5.885   1.869   3.881 -0.5727 -0.0864 -0.1083
 4099SOL     OW16161   1.185   4.544   5.249  0.4673 -0.0353  0.3802
 4099SOL    HW216162   1.119   4.598   5.204 -0.5858 -0.9289  0.8004
 4099SOL    HW316163   1.146   4.525   5.335  2.8052  2.3785  2.1184
 4099SOL    MW416164   1.171   4.549   5.254  0.1551 -0.0559 -0.6205
 4100SOL     OW16165   5.841   4.769   2.354  0.2516  0.0791 -0.1813
 4100SOL    HW216166   5.827   4.680   2.322  1.9394 -1.2426  2.3713
 4100SOL    HW316167   5.775   4.779   2.423  1.2451  0.0492  0.7984
 4100SOL    MW416168   5.830   4.759   2.359 -0.0602 -0.2938  0.2142
 4101SOL     OW16169   2.568   3.251   2.804 -0.1240  0.2793 -0.0033
 4101SOL    HW216170   2.662   3.257   2.824  0.1749  0.6814 -1.4297
 4101SOL    HW316171   2.539   3.173   2.851  0.8451  0.3516  0.7541
 4101SOL    MW416172   2.577   3.241   2.813  0.0218  0.5479  0.0144
 4102SOL     OW16173   6.180   3.958   0.115  0.2526  0.2158  0.3054
 4102SOL    HW216174   6.253   3.906   0.149  1.3071  0.6556 -1.1430
 4102SOL    HW316175   6.153   3.911   0.036 -1.8997 -0.6075  1.4569
 4102SOL    MW416176   6.186   3.945   0.109 -1.1979 -0.0302  0.1020
 4103SOL     OW16177   3.289   5.549   5.176 -0.2959 -0.2557 -0.3159
 4103SOL    HW216178   3.312   5.569   5.085 -0.3612  0.7135 -0.1322
 4103SOL    HW316179   3.193   5.554   5.178 -0.2203  2.4962  0.3682
 4103SOL    MW416180   3.279   5.552   5.165  0.2315  0.0580  0.5285
 4104SOL     OW16181   5.358   2.499   1.185  0.0819 -0.0572 -0.0261
 4104SOL    HW216182   5.447   2.465   1.178 -0.4105 -1.1807 -1.5708
 4104SOL    HW316183   5.308   2.448   1.121 -1.1812  2.1789 -0.9408
 4104SOL    MW416184   5.363   2.487   1.175 -0.1562 -0.1213 -0.0532
 4105SOL     OW16185   6.155   5.345   3.870 -0.3336 -0.3767 -0.2672
 4105SOL    HW216186   6.103   5.382   3.798 -1.2237 -1.1752 -0.0607
 4105SOL    HW316187   6.200   5.270   3.831 -0.0732 -0.2465 -0.2173
 4105SOL    MW416188   6.154   5.340   3.856 -0.6951  0.3064 -0.5448
 4106SOL     OW16189   3.955   1.321   3.343  0.4393  0.7615  0.4304
 4106SOL    HW216190   4.023   1.311   3.276 -0.0852  2.7324 -0.4692
 4106SOL    HW316191   3.921   1.409   3.330 -1.6813  0.1664  1.4636
 4106SOL    MW416192   3.960   1.331   3.333 -0.3403  0.0080  0.5225
 4107SOL     OW16193   2.908   2.178   5.722  0.4043 -0.2728  0.8759
 4107SOL    HW216194   2.923   2.108   5.658  0.1646  0.5876 -0.1364
 4107SOL    HW316195   2.987   2.177   5.777  0.8180 -0.7237  0.2901
 4107SOL    MW416196   2.921   2.168   5.721 -0.0336 -0.1643  0.7140
 4108SOL     OW16197   2.396   0.434   0.261 -0.4007 -0.5561  0.4553
 4108SOL    HW216198   2.417   0.524   0.285 -1.1877 -0.6563  1.6041
 4108SOL    HW316199   2.436   0.422   0.175 -0.8719  1.1215 -0.0355
 4108SOL    MW416200   2.404   0.444   0.252  0.8529 -0.2210 -0.6122
 4109SOL     OW16201   4.595   0.154   0.960 -0.4291 -0.5818  0.8788
 4109SOL    HW216202   4.637   0.238   0.976 -0.4425  0.2948 -2.8427
 4109SOL    HW316203   4.506   0.176   0.932 -0.8100 -1.9043  0.9493
 4109SOL    MW416204   4.589   0.168   0.958  0.2867  0.7813 -0.7319
 4110SOL     OW16205   3.652   3.047   0.607  0.0065 -0.2755  0.8758
 4110SOL    HW216206   3.620   3.106   0.675  0.5077  1.7233 -0.5308
 4110SOL    HW316207   3.573   3.011   0.566 -0.3434  0.3833  0.9629
 4110SOL    MW416208   3.638   3.050   0.610  0.1734  0.2075  0.2531
 4111SOL     OW16209   4.293   0.563   5.998 -0.0666 -0.4422 -1.1017
 4111SOL    HW216210   4.279   0.504   5.923  1.1367 -0.1275 -1.5894
 4111SOL    HW316211   4.327   0.643   5.960 -1.0536  0.3489 -0.3663
 4111SOL    MW416212   4.295   0.566   5.983  0.3845 -0.1631  0.1829
 4112SOL     OW16213   3.356   5.283   5.177 -0.1324 -0.0128 -0.0725
 4112SOL    HW216214   3.323   5.373   5.174 -2.2536 -0.7149  0.2990
 4112SOL    HW316215   3.363   5.256   5.086 -0.5228  0.2075 -0.1714
 4112SOL    MW416216   3.352   5.291   5.165  1.1916  0.6516 -1.1246
 4113SOL     OW16217   1.543   5.454   6.243 -0.1363  0.5721 -0.2751
 4113SOL    HW216218   1.552   5.361   6.263 -0.9103  0.9366  2.0693
 4113SOL    HW316219   1.571   5.461   6.152  1.1169 -1.7473 -0.1617
 4113SOL    MW416220   1.548   5.442   6.234 -0.1063  0.4017 -0.2289
 4114SOL     OW16221   4.005   2.020   0.765 -0.0229  0.3591 -0.3192
 4114SOL    HW216222   4.050   1.945   0.802  1.0287  1.6504  1.1530
 4114SOL    HW316223   3.985   1.995   0.674  2.0206 -0.9498 -0.4479
 4114SOL    MW416224   4.008   2.007   0.758 -0.5602  0.7956 -0.0216
 4115SOL     OW16225   0.408   3.986   5.459  0.3886 -0.0249 -0.2277
 4115SOL    HW216226   0.446   4.064   5.418  2.0077 -0.9352 -0.5789
 4115SOL    HW316227   0.373   4.017   5.542  1.2490  1.0486 -0.2348
 4115SOL    MW416228   0.409   4.000   5.465  0.0089  0.2048 -0.0704
 4116SOL     OW16229   0.110   0.025   0.857 -0.1740  0.4032  0.2379
 4116SOL    HW216230   0.121   0.074   0.938  0.3277  1.6437 -0.5370
 4116SOL    HW316231   0.128   0.089   0.788 -0.5818 -0.6127 -0.8542
 4116SOL    MW416232   0.114   0.040   0.858 -0.0673  0.0298 -0.5608
 4117SOL     OW16233   0.246   0.058   3.257  0.0247  0.1721 -0.1441
 4117SOL    HW216234   0.198  -0.009   3.305 -0.1048 -0.7200 -1.4491
 4117SOL    HW316235   0.256   0.021   3.169  4.5995 -0.4872  0.4278
 4117SOL    MW416236   0.241   0.045   3.251 -0.1136  0.3324  0.4950
 4118SOL     OW16237   1.437   5.513   1.690 -0.1014  0.3491 -0.0984
 4118SOL    HW216238   1.387   5.432   1.697  0.6858 -0.3196 -1.7099
 4118SOL    HW316239   1.424   5.557   1.774 -2.7627 -0.1427 -0.1807
 4118SOL    MW416240   1.429   5.508   1.702 -0.1090 -0.5722 -0.7515
 4119SOL     OW16241   1.579   3.128   0.877 -0.2552  0.1130  0.1493
 4119SOL    HW216242   1.640   3.121   0.950 -1.3193  2.7291  1.4359
 4119SOL    HW316243   1.495   3.100   0.913 -0.3825 -0.8069 -0.8021
 4119SOL    MW416244   1.576   3.123   0.891  0.2042 -0.3056 -0.1638
 4120SOL     OW16245   2.629   4.663   6.050 -0.2520  0.0209 -0.9711
 4120SOL    HW216246   2.613   4.642   5.958  0.3569 -2.5327 -0.5666
 4120SOL    HW316247   2.665   4.583   6.087 -1.0474  0.7833  1.6613
 4120SOL    MW416248   2.632   4.650   6.043 -0.0431 -0.1894 -0.2731
 4121SOL     OW16249   3.509   4.015   0.423  0.0099 -0.0653 -0.5305
 4121SOL    HW216250   3.467   4.092   0.463  1.1597  0.0730  0.4356
 4121SOL    HW316251   3.435   3.964   0.388 -0.8957  0.6547  0.2641
 4121SOL    MW416252   3.493   4.019   0.424 -0.2647 -0.4951 -0.5041
 4122SOL     OW16253   0.646   0.488   1.755  0.5582 -0.6682 -0.0720
 4122SOL    HW216254   0.676   0.528   1.837 -1.1289 -1.9968  1.2497
 4122SOL    HW316255   0.690   0.540   1.687  0.3846  1.8368  1.5771
 4122SOL    MW416256   0.656   0.500   1.757 -0.5365 -0.4149  0.2705
 4123SOL     OW16257   2.134   5.827   5.507 -0.3551 -0.9387 -0.3159
 4123SOL    HW216258   2.056   5.822   5.563 -0.5257  0.2557 -0.4096
 4123SOL    HW316259   2.109   5.888   5.438  1.1603  0.6916  0.4919
 4123SOL    MW416260   2.120   5.835   5.505 -0.1046 -0.0908 -0.1300
 4124SOL     OW16261   5.598   5.553   0.059 -0.3492 -0.2880 -0.2657
 4124SOL    HW216262   5.544   5.493   0.007 -0.2257 -0.2539 -0.4339
 4124SOL    HW316263   5.535   5.616   0.095 -0.3947 -0.1043 -0.6588
 4124SOL    MW416264   5.582   5.554   0.057  0.0700  0.0497  0.3550
 4125SOL     OW16265   5.535   2.592   5.309  0.0138 -0.3735  0.5622
 4125SOL    HW216266   5.603   2.659   5.303 -0.3154  0.0470  1.4200
 4125SOL    HW316267   5.479   2.609   5.233 -0.0851  0.3531  0.7872
 4125SOL    MW416268   5.537   2.603   5.298 -0.2755 -0.0792 -0.5512
 4126SOL     OW16269   4.766   0.989   2.598 -0.3517  0.4389  0.1652
 4126SOL    HW216270   4.831   0.920   2.608 -0.3200  0.4016 -0.2898
 4126SOL    HW316271   4.796   1.059   2.656 -1.4713 -0.7002  2.2183
 4126SOL    MW416272   4.778   0.989   2.607  0.1187  0.3605  0.1536
 4127SOL     OW16273   2.753   4.215   3.001 -0.6268  0.5177 -0.2933
 4127SOL    HW216274   2.791   4.143   3.052 -1.0477 -0.7916 -1.7639
 4127SOL    HW316275   2.800   4.293   3.032 -0.8355 -0.1983  2.0342
 4127SOL    MW416276   2.764   4.216   3.012  0.5127  0.1081 -0.4533
 4128SOL     OW16277   2.969   4.074   2.845 -0.3196  0.0066 -0.6214
 4128SOL    HW216278   2.887   4.119   2.863 -0.8648 -0.8770 -0.8250
 4128SOL    HW316279   2.957   4.035   2.758  0.1987 -0.3883 -0.5235
 4128SOL    MW416280   2.957   4.075   2.836 -0.0580 -0.1921 -0.0741
 4129SOL     OW16281   0.806   0.032   5.765  0.3355  0.6171 -0.1056
 4129SOL    HW216282   0.802  -0.001   5.675 -0.6233 -1.2046  0.5480
 4129SOL    HW316283   0.872  -0.023   5.808 -0.4719  0.2937  0.7442
 4129SOL    MW416284   0.814   0.020   5.759  0.2806  0.1132  0.3901
 4130SOL     OW16285   6.073   0.229   2.897  0.3148 -0.2665 -0.7163
 4130SOL    HW216286   6.015   0.250   2.970  0.9202 -1.3512  0.1221
 4130SOL    HW316287   6.024   0.255   2.819  0.5967  3.1905  0.0951
 4130SOL    MW416288   6.059   0.235   2.897  0.2219 -0.1935 -0.8796
 4131SOL     OW16289   3.151   3.196   6.010 -0.2763  0.3160  0.1786
 4131SOL    HW216290   3.093   3.166   6.080  1.0223  0.3823  1.3322
 4131SOL    HW316291   3.226   3.235   6.056  0.3051  0.9645 -1.2596
 4131SOL    MW416292   3.153   3.197   6.025 -0.1255  0.0356  0.2521
 4132SOL     OW16293   5.157   1.263   5.292 -0.1491  0.3201 -0.7076
 4132SOL    HW216294   5.104   1.261   5.372 -0.4711  0.5323 -0.9161
 4132SOL    HW316295   5.128   1.186   5.243  1.5681 -1.1103  0.3376
 4132SOL    MW416296   5.146   1.252   5.296  0.1003  0.0564 -0.2526
 4133SOL     OW16297   2.913   4.400   4.658  0.1704  0.0649 -0.5584
 4133SOL    HW216298   3.005   4.417   4.677  0.4305 -0.4233 -1.3547
 4133SOL    HW316299   2.911   4.310   4.623 -0.9982 -1.1873  2.3604
 4133SOL    MW416300   2.925   4.390   4.656  0.7265 -0.4267  0.3073
 4134SOL     OW16301   6.263   0.519   2.094 -0.0744  0.0697 -0.3523
 4134SOL    HW216302   6.325   0.470   2.040  1.0046  0.3365  0.6048
 4134SOL    HW316303   6.317   0.586   2.137 -1.1822  0.8478 -0.1523
 4134SOL    MW416304   6.279   0.521   2.093  0.7999  0.3638  0.6059
 4135SOL     OW16305   3.269   4.183   2.761  0.6813  0.1572 -0.6293
 4135SOL    HW216306   3.268   4.095   2.798 -1.5293  0.7247  0.8732
 4135SOL    HW316307   3.332   4.232   2.814  0.7807 -0.1254 -0.4892
 4135SOL    MW416308   3.277   4.178   2.773  0.2289 -0.4777  0.4371
 4136SOL     OW16309   4.361   0.540   3.862 -0.0179  0.1032 -0.4292
 4136SOL    HW216310   4.343   0.496   3.779  0.1730 -1.4755  0.3352
 4136SOL    HW316311   4.275   0.551   3.902  0.0061 -0.4041 -0.2282
 4136SOL    MW416312   4.347   0.535   3.856 -0.5695 -0.6615  0.8129
 4137SOL     OW16313   3.285   6.141   5.173  0.0806  0.0759 -1.0595
 4137SOL    HW216314   3.191   6.146   5.156 -0.3101 -0.4628  0.7731
 4137SOL    HW316315   3.296   6.172   5.263  1.6527  0.0657 -1.2123
 4137SOL    MW416316   3.274   6.146   5.182  0.2952 -0.2781 -0.7293
 4138SOL     OW16317   5.690   1.692   2.044  0.4638 -0.5187 -0.1317
 4138SOL    HW216318   5.625   1.723   1.981  1.1268 -0.1846 -0.6648
 4138SOL    HW316319   5.648   1.702   2.129  0.0589  0.2955 -0.4212
 4138SOL    MW416320   5.676   1.697   2.047 -0.4434 -0.4713 -0.1851
 4139SOL     OW16321   0.585   5.165   4.652 -0.1500 -0.9725 -0.2300
 4139SOL    HW216322   0.490   5.165   4.659 -0.2189  2.3093 -0.0399
 4139SOL    HW316323   0.602   5.133   4.563 -1.3592 -1.9007 -0.1608
 4139SOL    MW416324   0.575   5.161   4.641 -0.2207  0.2045  0.6016
 4140SOL     OW16325   5.653   6.239   2.476 -0.0554 -0.1206 -0.1389
 4140SOL    HW216326   5.590   6.195   2.418  0.5578  0.5273 -1.3374
 4140SOL    HW316327   5.681   6.170   2.537 -0.2194 -1.0063 -1.0285
 4140SOL    MW416328   5.648   6.224   2.476  0.2917 -0.4738  0.4832
 4141SOL     OW16329   6.416   4.259   2.426 -0.7376 -0.2123 -0.0992
 4141SOL    HW216330   6.329   4.297   2.413 -0.1920  0.5720 -1.7528
 4141SOL    HW316331   6.466   4.327   2.472 -0.7248 -0.2878 -0.0002
 4141SOL    MW416332   6.411   4.273   2.430 -0.0918 -0.1246  0.1970
 4142SOL     OW16333   3.854   1.588   3.253 -0.2607 -0.0003 -0.0642
 4142SOL    HW216334   3.918   1.655   3.279  0.8618 -0.7715 -0.7191
 4142SOL    HW316335   3.862   1.585   3.158 -2.2541  0.8003 -0.2942
 4142SOL    MW416336   3.864   1.597   3.244 -0.4233  0.4318  0.0256
 4143SOL     OW16337   5.894   4.525   3.657  0.0116  0.0723  0.1615
 4143SOL    HW216338   5.834   4.583   3.704  0.6071 -0.9645  2.2848
 4143SOL    HW316339   5.841   4.449   3.633 -0.0503  0.1701 -0.0211
 4143SOL    MW416340   5.879   4.523   3.660 -0.4692  0.3810  0.5131
 4144SOL     OW16341   2.510   5.138   5.132 -0.1737 -0.3082 -0.6362
 4144SOL    HW216342   2.568   5.077   5.087  0.5285 -0.6004  0.6341
 4144SOL    HW316343   2.460   5.083   5.192 -0.9948  0.0977 -0.9310
 4144SOL    MW416344   2.511   5.122   5.134  0.0892  0.3748 -0.0658
 4145SOL     OW16345   2.386   0.572   1.501 -0.0375  0.1193  0.6457
 4145SOL    HW216346   2.480   0.565   1.516 -0.0619 -0.6560  0.4225
 4145SOL    HW316347   2.378   0.617   1.417  0.2469 -4.1400 -1.9479
 4145SOL    MW416348   2.397   0.577   1.492 -0.4701  0.1257  0.4170
 4146SOL     OW16349   3.087   4.732   4.651  0.6813  0.4678  0.5289
 4146SOL    HW216350   3.047   4.740   4.564 -0.3415  1.6472  1.0876
 4146SOL    HW316351   3.181   4.745   4.635  0.2788  3.0028 -0.1293
 4146SOL    MW416352   3.094   4.735   4.637 -0.1818  0.1815 -0.5861
 4147SOL     OW16353   2.091   3.675   2.382 -0.0116 -0.2043  0.0791
 4147SOL    HW216354   2.053   3.753   2.424  1.3084  0.1111  0.7248
 4147SOL    HW316355   2.185   3.689   2.385  0.1957 -1.2185 -1.0351
 4147SOL    MW416356   2.098   3.687   2.388  0.3321  0.2351 -0.4631
 4148SOL     OW16357   1.991   1.944   2.468  0.5026  0.3371 -0.3366
 4148SOL    HW216358   2.030   2.029   2.486  1.7637 -0.2063 -0.3810
 4148SOL    HW316359   1.978   1.943   2.373 -0.0770  0.7010 -0.2650
 4148SOL    MW416360   1.994   1.955   2.458 -0.0549 -0.6133 -0.4282
 4149SOL     OW16361   0.283   5.780   3.435  1.2799 -0.5259  0.1344
 4149SOL    HW216362   0.246   5.832   3.506 -0.9606 -1.9802  0.1720
 4149SOL    HW316363   0.359   5.737   3.473  0.7620 -0.4181  1.3433
 4149SOL    MW416364   0.288   5.781   3.449 -0.0576  0.3684 -0.0000
 4150SOL     OW16365   4.816   2.477   0.293  0.1669  0.7548 -0.9808
 4150SOL    HW216366   4.822   2.395   0.343  1.2877  1.6572  0.4561
 4150SOL    HW316367   4.816   2.450   0.201  0.0143 -0.8675 -0.5277
 4150SOL    MW416368   4.817   2.463   0.287 -0.0200  0.1646  0.1288
 4151SOL     OW16369   5.141   1.879   1.237 -0.4203 -0.4921 -0.2789
 4151SOL    HW216370   5.082   1.805   1.229 -1.8333  0.6775 -1.1419
 4151SOL    HW316371   5.182   1.888   1.151  2.6628 -2.5122  0.8164
 4151SOL    MW416372   5.138   1.870   1.225  0.5863  0.6181 -0.0153
 4152SOL     OW16373   6.290   5.522   1.840  0.0666 -0.2962 -0.4920
 4152SOL    HW216374   6.365   5.571   1.873 -0.3948  0.5335 -0.6329
 4152SOL    HW316375   6.219   5.541   1.902  0.0533 -1.3548 -0.1614
 4152SOL    MW416376   6.290   5.531   1.852 -0.3744  0.3049 -0.7390
 4153SOL     OW16377   6.053   1.239   1.150  0.1327  0.4541 -0.6121
 4153SOL    HW216378   6.070   1.236   1.245 -1.5511 -1.7976 -0.3168
 4153SOL    HW316379   6.072   1.330   1.126  2.3227  0.6664  1.5235
 4153SOL    MW416380   6.058   1.251   1.160  0.8123  0.1453 -0.3054
 4154SOL     OW16381   4.876   3.440   0.743 -0.3623 -0.5971 -0.9312
 4154SOL    HW216382   4.901   3.351   0.717  0.3746 -0.8538  0.5558
 4154SOL    HW316383   4.792   3.429   0.787 -1.0798 -0.3049 -2.1651
 4154SOL    MW416384   4.869   3.427   0.745  0.6056 -0.5830 -0.2773
 4155SOL     OW16385   2.785   2.935   0.120  0.1643 -0.5905 -0.2610
 4155SOL    HW216386   2.859   2.933   0.060  0.2830  0.8584 -0.2049
 4155SOL    HW316387   2.792   2.854   0.170  1.0244 -1.0264 -1.0599
 4155SOL    MW416388   2.796   2.924   0.119 -0.0357  0.0036  0.1328
 4156SOL     OW16389   3.567   2.486   1.959  0.1231 -0.1040  0.0700
 4156SOL    HW216390   3.538   2.511   1.871 -0.6389 -0.4966  0.2056
 4156SOL    HW316391   3.660   2.507   1.960  0.2788 -0.6514 -1.0446
 4156SOL    MW416392   3.575   2.492   1.947  0.3239 -0.4783 -0.7849
 4157SOL     OW16393   4.744   3.741   5.791 -0.2157  0.4716  0.3924
 4157SOL    HW216394   4.700   3.728   5.708  1.5693 -0.3743 -0.4907
 4157SOL    HW316395   4.758   3.836   5.797 -0.2921  0.5296 -0.3234
 4157SOL    MW416396   4.740   3.752   5.781  0.3563 -0.1510 -0.5734
 4158SOL     OW16397   3.590   2.894   1.834 -0.2665 -1.0191 -0.5350
 4158SOL    HW216398   3.570   2.974   1.785 -2.4222 -1.5279 -0.6038
 4158SOL    HW316399   3.542   2.905   1.916  2.3028 -0.7189  1.0475
 4158SOL    MW416400   3.581   2.906   1.838  0.9463 -0.3112 -0.2152
 4159SOL     OW16401   2.945   5.184   1.826 -0.1020 -0.2059  0.2325
 4159SOL    HW216402   3.014   5.199   1.891  1.1747 -0.7594 -0.9178
 4159SOL    HW316403   2.986   5.125   1.762 -1.2096  0.5382 -1.2160
 4159SOL    MW416404   2.960   5.178   1.826 -0.4326  0.2648 -0.1258
 4160SOL     OW16405   2.266   2.025   0.085 -0.0381  0.1410  0.0550
 4160SOL    HW216406   2.306   1.948   0.124 -0.2587 -0.0761 -0.1450
 4160SOL    HW316407   2.241   1.998  -0.003 -2.1331 -0.2683  0.7061
 4160SOL    MW416408   2.268   2.011   0.079  0.5318 -0.2300 -0.0541
 4161SOL     OW16409   1.974   3.415   5.793 -0.2971 -0.2212 -0.0077
 4161SOL    HW216410   2.028   3.455   5.861  0.1198 -3.2256  1.6218
 4161SOL    HW316411   1.889   3.402   5.835 -0.6062 -0.4402 -0.6894
 4161SOL    MW416412   1.970   3.419   5.808  0.4024 -0.1234 -0.4233
 4162SOL     OW16413   3.095   4.977   4.259  0.7880 -0.1672 -0.1338
 4162SOL    HW216414   3.087   4.895   4.307  1.4822  0.0814  0.4160
 4162SOL    HW316415   3.165   4.961   4.195 -0.2981 -0.5782 -1.2598
 4162SOL    MW416416   3.103   4.964   4.257 -0.5702 -0.2826 -0.3511
 4163SOL     OW16417   0.387   2.776   5.360  0.0975 -0.1833  0.1071
 4163SOL    HW216418   0.384   2.858   5.310 -1.8017  0.7254  1.5789
 4163SOL    HW316419   0.298   2.766   5.394  0.7208 -2.0199  1.3184
 4163SOL    MW416420   0.375   2.785   5.358 -0.1281 -0.3003  0.3987
 4164SOL     OW16421   3.687   0.286   1.205  0.3165 -0.0621  0.0146
 4164SOL    HW216422   3.780   0.289   1.184  0.0588  1.9928 -1.0992
 4164SOL    HW316423   3.669   0.369   1.248 -1.0288 -0.4238  0.2038
 4164SOL    MW416424   3.697   0.297   1.208  0.0532  0.3495 -0.0964
 4165SOL     OW16425   0.291   1.404   5.774 -0.0485  0.3129  0.3438
 4165SOL    HW216426   0.269   1.493   5.746 -0.6863  0.4970  1.4096
 4165SOL    HW316427   0.207   1.358   5.774  0.4580 -0.7499 -1.6803
 4165SOL    MW416428   0.277   1.410   5.770  0.6390  0.0920  0.4495
 4166SOL     OW16429   3.808   6.055   1.017  0.5709  0.0460  0.4784
 4166SOL    HW216430   3.889   6.022   1.055  0.2125 -0.3605  0.9040
 4166SOL    HW316431   3.740   6.034   1.082 -0.1493 -1.1981 -0.6193
 4166SOL    MW416432   3.809   6.048   1.030  0.7043  0.7990 -0.4355
 4167SOL     OW16433   5.325   6.379   3.334  0.8093 -0.7844  0.0080
 4167SOL    HW216434   5.313   6.435   3.257 -0.3343 -2.2616 -0.9442
 4167SOL    HW316435   5.401   6.416   3.378 -0.0924  1.7450 -0.3556
 4167SOL    MW416436   5.333   6.391   3.329 -0.0343  1.0807  0.7363
 4168SOL     OW16437   3.615   4.502   1.600 -0.3438 -0.0677  0.1359
 4168SOL    HW216438   3.634   4.593   1.620  1.9475 -0.4718  0.0588
 4168SOL    HW316439   3.540   4.480   1.655  1.3154  0.8503  2.9423
 4168SOL    MW416440   3.608   4.511   1.610  0.2344  0.9214  0.4027
 4169SOL     OW16441   3.918   1.641   3.922  0.0947 -0.6299  0.1928
 4169SOL    HW216442   3.950   1.730   3.934 -0.7761 -0.4194  1.0476
 4169SOL    HW316443   3.996   1.586   3.933  0.7330  0.0321 -0.8392
 4169SOL    MW416444   3.933   1.645   3.925  0.4049 -0.0022  0.5811
 4170SOL     OW16445   5.888   1.284   6.403  0.5194 -0.3133 -0.1549
 4170SOL    HW216446   5.934   1.327   6.475  1.3487 -0.7628 -0.4004
 4170SOL    HW316447   5.925   1.324   6.324  1.6294 -1.7488 -0.4031
 4170SOL    MW416448   5.899   1.295   6.402  0.2995  0.1440 -0.0451
 4171SOL     OW16449   3.813   1.551   5.222 -0.7843 -0.2557 -0.0553
 4171SOL    HW216450   3.770   1.585   5.300 -0.3124 -1.8033  0.9268
 4171SOL    HW316451   3.885   1.498   5.256  0.1775  0.0209 -1.5868
 4171SOL    MW416452   3.817   1.549   5.237  0.2305  0.1737  0.4447
 4172SOL     OW16453   0.635   4.077   1.464 -0.3819  0.1066 -0.2820
 4172SOL    HW216454   0.653   4.148   1.403  0.8770 -1.2667 -1.5911
 4172SOL    HW316455   0.714   4.024   1.464 -1.2309 -1.2437  0.7405
 4172SOL    MW416456   0.648   4.079   1.456 -0.4541  0.0462  0.0722
 4173SOL     OW16457   1.955   2.653   0.077 -0.4846 -0.1941 -0.2267
 4173SOL    HW216458   1.893   2.588   0.111 -0.0022  0.5480  2.2741
 4173SOL    HW316459   2.029   2.650   0.137  0.7107  0.8832 -1.5665
 4173SOL    MW416460   1.956   2.644   0.089  0.0684  0.4751  0.4312
 4174SOL     OW16461   4.220   5.311   3.837 -0.2540  0.4685 -0.2925
 4174SOL    HW216462   4.233   5.313   3.742  0.4482  1.0834 -0.1853
 4174SOL    HW316463   4.237   5.400   3.866 -2.0701  0.6840  0.2198
 4174SOL    MW416464   4.224   5.323   3.828 -0.5710 -0.6952 -0.0113
 4175SOL     OW16465   2.590   2.345   4.491  0.0381 -0.7603 -0.2923
 4175SOL    HW216466   2.500   2.377   4.487  0.0588 -0.4751  0.9075
 4175SOL    HW316467   2.628   2.368   4.407 -0.5862  0.4336 -0.2682
 4175SOL    MW416468   2.583   2.352   4.480  0.7658  0.4311 -0.0594
 4176SOL     OW16469   3.587   3.718   1.824 -0.0539 -0.0039 -0.0599
 4176SOL    HW216470   3.681   3.700   1.826 -0.3863 -2.5109 -1.9985
 4176SOL    HW316471   3.579   3.794   1.766  0.7951  0.8651  0.9069
 4176SOL    MW416472   3.599   3.726   1.817 -0.1204  0.0002 -0.3569
 4177SOL     OW16473   3.831   1.634   4.491 -0.3273  0.4131  0.2766
 4177SOL    HW216474   3.786   1.550   4.480  0.1183  0.2887 -0.6490
 4177SOL    HW316475   3.764   1.699   4.472  0.2714  0.2245 -3.0603
 4177SOL    MW416476   3.816   1.631   4.487  0.3608 -0.0817  0.0293
 4178SOL     OW16477   1.749   0.523   3.716  0.2104 -0.0394 -0.0769
 4178SOL    HW216478   1.723   0.526   3.808 -0.3653  0.2923 -0.2434
 4178SOL    HW316479   1.674   0.559   3.669  1.9588  3.6957 -0.3830
 4178SOL    MW416480   1.736   0.528   3.722  0.0440 -0.1414  0.0320
 4179SOL     OW16481   1.189   2.202   2.934  0.3708 -0.9978  0.2981
 4179SOL    HW216482   1.112   2.148   2.954 -0.8436  0.2329 -0.8690
 4179SOL    HW316483   1.172   2.237   2.847  0.3798  2.4402  1.5212
 4179SOL    MW416484   1.177   2.199   2.925 -0.0867 -0.4205 -0.0897
 4180SOL     OW16485   3.760   3.816   4.881  0.6913  0.7033  0.0359
 4180SOL    HW216486   3.773   3.724   4.902 -0.3102  0.2642 -1.1801
 4180SOL    HW316487   3.713   3.852   4.956 -0.3223 -0.1533 -0.1762
 4180SOL    MW416488   3.756   3.809   4.894 -0.3110  0.1144  0.4491
 4181SOL     OW16489   1.618   3.382   2.645  0.3680 -0.0025  0.6751
 4181SOL    HW216490   1.549   3.417   2.588  0.3062  1.1805  1.4339
 4181SOL    HW316491   1.575   3.371   2.730  1.0907  0.7424  1.1582
 4181SOL    MW416492   1.603   3.385   2.649 -0.8214 -0.6405 -0.6406
 4182SOL     OW16493   3.342   5.897   2.651  0.5270 -0.1796  0.2356
 4182SOL    HW216494   3.425   5.923   2.690  0.6788  0.1907 -0.3289
 4182SOL    HW316495   3.319   5.969   2.593 -1.2546  0.7062  1.9403
 4182SOL    MW416496   3.350   5.910   2.649  0.0507 -0.1217  0.2728
 4183SOL     OW16497   5.707   6.351   5.148  0.4283 -0.2265 -0.1469
 4183SOL    HW216498   5.713   6.353   5.244  0.1990  0.7781 -0.1382
 4183SOL    HW316499   5.632   6.295   5.130 -1.1581  1.6308  0.3783
 4183SOL    MW416500   5.698   6.344   5.158 -0.5086  0.1402  0.0288
 4184SOL     OW16501   5.449   3.018   3.921  0.5830 -0.0030 -0.3461
 4184SOL    HW216502   5.358   2.991   3.913  0.9286 -1.4867  0.3722
 4184SOL    HW316503   5.449   3.081   3.993  0.0677  0.3409 -0.6416
 4184SOL    MW416504   5.437   3.023   3.929 -0.0543 -0.5622  0.1870
 4185SOL     OW16505   1.229   0.003   0.922  0.4114  0.2855  0.0506
 4185SOL    HW216506   1.206  -0.064   0.857  2.6446  1.0319 -1.5999
 4185SOL    HW316507   1.324  -0.004   0.931  0.5414  2.4312  0.7668
 4185SOL    MW416508   1.238  -0.007   0.915 -0.2011  0.9425 -0.1169
 4186SOL     OW16509   2.142   5.526   2.760  0.2456  0.1607  0.4995
 4186SOL    HW216510   2.146   5.617   2.791  1.0682  0.4344 -0.3315
 4186SOL    HW316511   2.217   5.483   2.802  0.6024  0.2035 -0.0777
 4186SOL    MW416512   2.153   5.532   2.770  0.4628 -0.0747  0.0060
 4187SOL     OW16513   5.728   0.393   5.391 -0.0115  0.2834  0.4923
 4187SOL    HW216514   5.823   0.397   5.402  0.1143 -0.3990 -0.2015
 4187SOL    HW316515   5.716   0.390   5.296 -0.6215 -1.5112  0.5859
 4187SOL    MW416516   5.739   0.393   5.380 -0.1182 -0.0955 -0.5288
 4188SOL     OW16517   2.188   0.232   5.093 -0.0420 -0.4275 -0.1303
 4188SOL    HW216518   2.240   0.291   5.038 -0.8692  0.5054  0.0539
 4188SOL    HW316519   2.216   0.144   5.068  1.0832  0.0332 -0.5506
 4188SOL    MW416520   2.198   0.228   5.083 -0.4773  0.2095 -0.5294
 4189SOL     OW16521   5.271   1.186   1.416 -0.3242 -0.2452  0.0022
 4189SOL    HW216522   5.325   1.109   1.402 -0.1395  0.3365 -3.0180
 4189SOL    HW316523   5.243   1.213   1.329 -0.3563  3.1255  0.9098
 4189SOL    MW416524   5.275   1.180   1.403 -0.0469 -0.3131 -0.6230
 4190SOL     OW16525   0.490   0.175   6.269 -0.0464  0.0652  0.2399
 4190SOL    HW216526   0.492   0.143   6.178 -0.4222  1.5298 -0.3005
 4190SOL    HW316527   0.465   0.267   6.262  2.2763  0.8765  1.6556
 4190SOL    MW416528   0.487   0.183   6.256  0.1421  0.4366  0.4513
 4191SOL     OW16529   5.570   2.230   2.980 -0.1951  0.0249 -0.0143
 4191SOL    HW216530   5.557   2.179   2.900  1.4643  0.5154 -0.6314
 4191SOL    HW316531   5.663   2.250   2.981 -0.3297  0.7273  1.6399
 4191SOL    MW416532   5.580   2.226   2.970 -0.2572 -0.2030 -0.5480
 4192SOL     OW16533   2.397   4.416   1.691  0.6687  0.3693  0.0898
 4192SOL    HW216534   2.307   4.404   1.661  0.5094 -0.2103  0.7755
 4192SOL    HW316535   2.421   4.331   1.729  1.9583  0.0795 -1.2755
 4192SOL    MW416536   2.389   4.403   1.692 -0.6939 -0.3909 -0.5378
 4193SOL     OW16537   3.029   2.575   0.467  0.0149  0.2429  0.2922
 4193SOL    HW216538   3.048   2.506   0.403 -0.8628 -0.8015  1.1084
 4193SOL    HW316539   3.071   2.544   0.547 -1.0603  0.2526  0.8709
 4193SOL    MW416540   3.037   2.562   0.469 -0.3071  0.3867  0.2316
 4194SOL     OW16541   4.553   2.261   4.757  0.3997 -0.6107 -0.4731
 4194SOL    HW216542   4.496   2.338   4.755 -0.0328 -0.8673  0.7192
 4194SOL    HW316543   4.493   2.187   4.755  0.6977 -0.8900  0.3593
 4194SOL    MW416544   4.538   2.262   4.757 -0.5177 -0.1736  0.4577
 4195SOL     OW16545   4.570   2.888   5.802  0.8404 -0.0238 -0.5973
 4195SOL    HW216546   4.570   2.966   5.857  1.0675 -1.0172  0.8655
 4195SOL    HW316547   4.638   2.832   5.838  1.9676 -0.1794 -2.7562
 4195SOL    MW416548   4.579   2.891   5.814  0.3115 -0.7239  0.3343
 4196SOL     OW16549   3.725   3.108   2.244  0.0914  0.6204  0.2735
 4196SOL    HW216550   3.731   3.054   2.165 -0.7954  1.1481 -0.1661
 4196SOL    HW316551   3.797   3.077   2.299  1.5364  1.0956 -1.2559
 4196SOL    MW416552   3.735   3.097   2.241  0.2611 -0.2624 -0.1574
 4197SOL     OW16553   1.744   3.741   0.591 -0.1206  0.1852  0.7834
 4197SOL    HW216554   1.749   3.833   0.568  1.3190  0.3083  1.4982
 4197SOL    HW316555   1.710   3.698   0.512  1.5101  1.0220 -0.4174
 4197SOL    MW416556   1.740   3.747   0.577  0.0898 -0.1361  0.0349
 4198SOL     OW16557   1.245   3.537   4.722  0.3109  0.0054  0.0409
 4198SOL    HW216558   1.293   3.499   4.795  1.7936  0.2217 -0.7800
 4198SOL    HW316559   1.157   3.500   4.729  1.4655 -3.1353 -0.3240
 4198SOL    MW416560   1.240   3.527   4.732 -0.3268 -0.1070  0.1499
 4199SOL     OW16561   6.089   4.598   1.659 -0.3277  0.2013  0.0738
 4199SOL    HW216562   6.047   4.612   1.744  1.4683  0.2203  1.0023
 4199SOL    HW316563   6.182   4.615   1.675  0.0792  0.0240 -1.8610
 4199SOL    MW416564   6.096   4.602   1.673  0.1557  0.1361  0.3727
 4200SOL     OW16565   1.534   2.248   1.495  0.3490 -0.0200  0.5935
 4200SOL    HW216566   1.459   2.189   1.499  0.4518 -0.1213  1.1425
 4200SOL    HW316567   1.571   2.245   1.583 -0.4602  1.9221  1.0435
 4200SOL    MW416568   1.529   2.240   1.507  0.3329  0.3386  0.2697
 4201SOL     OW16569   5.802   6.111   0.445  0.1544  0.0131 -0.1880
 4201SOL    HW216570   5.847   6.189   0.411  1.0129 -1.0012 -1.5198
 4201SOL    HW316571   5.868   6.067   0.498 -0.2579  0.0666  0.3766
 4201SOL    MW416572   5.817   6.116   0.447 -0.1719 -0.0544 -0.5979
 4202SOL     OW16573   3.338   0.814   5.635 -0.4700  0.1252  0.1055
 4202SOL    HW216574   3.397   0.747   5.671  0.6559 -0.1522 -2.0864
 4202SOL    HW316575   3.332   0.880   5.704  0.8640 -0.7714  1.1391
 4202SOL    MW416576   3.345   0.814   5.649  0.0800 -0.0246  0.0651
 4203SOL     OW16577   0.011   6.379   5.523 -0.0687 -0.5580 -0.8800
 4203SOL    HW216578   0.054   6.308   5.476  0.9146 -1.0670  0.7216
 4203SOL    HW316579  -0.016   6.340   5.606 -0.0566  0.7901 -0.2205
 4203SOL    MW416580   0.013   6.365   5.528 -0.0554  0.1597  0.0420
 4204SOL     OW16581   2.065   4.971   5.817 -0.1722 -0.2407  0.1168
 4204SOL    HW216582   2.092   5.045   5.762 -2.1503  0.3955 -0.0527
 4204SOL    HW316583   2.126   4.974   5.891 -0.3691  1.7676  0.2655
 4204SOL    MW416584   2.077   4.981   5.820  0.0728  0.6908  0.2354
 4205SOL     OW16585   5.378   2.424   3.749  0.0526 -0.0176 -0.2679
 4205SOL    HW216586   5.401   2.358   3.684  0.6936 -1.9827  1.8345
 4205SOL    HW316587   5.446   2.491   3.740 -1.3792  1.1897 -3.3584
 4205SOL    MW416588   5.390   2.424   3.739  0.0580  0.3980  0.7359
 4206SOL     OW16589   4.120   3.036   2.737 -0.1990 -0.0518 -0.3063
 4206SOL    HW216590   4.105   2.944   2.719  0.5772 -0.3794  0.6169
 4206SOL    HW316591   4.038   3.080   2.715  0.4658 -0.4336 -4.1004
 4206SOL    MW416592   4.107   3.030   2.732 -0.7256  0.5442  0.0453
 4207SOL     OW16593   3.885   2.696   5.546 -0.4427 -0.0216 -0.0484
 4207SOL    HW216594   3.961   2.684   5.489  0.0020  0.8009  0.3626
 4207SOL    HW316595   3.810   2.686   5.488 -0.0083  2.9067 -1.2968
 4207SOL    MW416596   3.885   2.693   5.531 -0.5073  0.3547  0.0015
 4208SOL     OW16597   6.084   0.782   1.428  0.3233  0.0631  0.2369
 4208SOL    HW216598   6.084   0.691   1.457 -0.3715 -0.0023  0.0525
 4208SOL    HW316599   6.090   0.778   1.333  1.5000  0.2517  0.2857
 4208SOL    MW416600   6.085   0.769   1.420 -1.0901  0.0995  0.1177
 4209SOL     OW16601   6.329   2.718   4.271  0.1331 -0.7136  0.1799
 4209SOL    HW216602   6.268   2.648   4.250 -0.0622 -1.0306  1.6982
 4209SOL    HW316603   6.284   2.769   4.339  1.3818 -0.7448  1.0657
 4209SOL    MW416604   6.315   2.716   4.277  0.0925 -0.8011 -0.3239
 4210SOL     OW16605   3.519   1.995   5.526  0.1200 -0.3264  0.7215
 4210SOL    HW216606   3.532   1.904   5.551 -0.8494  0.1088  3.0052
 4210SOL    HW316607   3.448   2.026   5.582 -0.7084  1.3986 -1.1373
 4210SOL    MW416608   3.511   1.987   5.536 -0.1326 -0.1072  0.0120
 4211SOL     OW16609   3.149   5.839   5.870 -0.5071  0.2397 -0.6938
 4211SOL    HW216610   3.071   5.875   5.913  0.6894 -1.3286  3.2510
 4211SOL    HW316611   3.114   5.773   5.810 -2.2858  1.2854 -0.8941
 4211SOL    MW416612   3.134   5.835   5.868 -0.3866  0.3438 -0.4088
 4212SOL     OW16613   0.738   5.935   4.798  0.0468  0.1762  0.4356
 4212SOL    HW216614   0.722   5.875   4.725 -0.9525 -0.5991  1.2507
 4212SOL    HW316615   0.709   5.886   4.875 -0.9934  1.7814  1.1061
 4212SOL    MW416616   0.732   5.921   4.799  0.0811  0.0186  0.0601
 4213SOL     OW16617   3.997   3.792   3.624  0.6150  0.2655 -0.1299
 4213SOL    HW216618   3.941   3.779   3.700  1.2579 -0.8791  0.1723
 4213SOL    HW316619   4.062   3.857   3.652  0.2680  0.5786 -0.0396
 4213SOL    MW416620   3.998   3.799   3.638 -0.2017 -0.0904 -0.0875
 4214SOL     OW16621   1.152   3.965   3.619 -0.5430  0.2268 -0.0124
 4214SOL    HW216622   1.163   4.038   3.559  1.2228  0.4428  0.5268
 4214SOL    HW316623   1.228   3.970   3.677  0.0301 -2.4446 -0.4027
 4214SOL    MW416624   1.163   3.975   3.619 -0.5830  0.0984  0.5403
 4215SOL     OW16625   2.175   3.196   2.721  1.1651 -0.2017  0.1400
 4215SOL    HW216626   2.089   3.229   2.695  1.7042  0.3342 -1.0372
 4215SOL    HW316627   2.156   3.115   2.767  0.0451 -0.3149 -0.4717
 4215SOL    MW416628   2.161   3.190   2.723  0.0520 -0.1286 -0.0151
 4216SOL     OW16629   1.076   3.777   5.601 -0.0275  0.0515  0.2664
 4216SOL    HW216630   1.127   3.704   5.566 -1.2968 -0.8998  0.3328
 4216SOL    HW316631   1.139   3.828   5.652  1.2475 -0.0601 -1.1311
 4216SOL    MW416632   1.091   3.774   5.603 -0.8586  0.5059  0.3948
 4217SOL     OW16633   5.747   5.635   1.245  0.4319 -0.2756  0.2021
 4217SOL    HW216634   5.727   5.699   1.313  1.3810  2.9632 -2.3179
 4217SOL    HW316635   5.714   5.674   1.164  2.3032 -2.3258 -1.6920
 4217SOL    MW416636   5.740   5.648   1.244  0.1884 -0.0630  0.3441
 4218SOL     OW16637   0.709   0.473   2.297  0.1136  0.0789 -0.1736
 4218SOL    HW216638   0.729   0.559   2.260  0.6405  0.1794  0.3203
 4218SOL    HW316639   0.650   0.432   2.234  1.3223  0.0703 -1.3392
 4218SOL    MW416640   0.704   0.479   2.284 -0.3085  0.6445 -0.4060
 4219SOL     OW16641   6.145   5.840   3.145 -0.4215 -0.4099 -0.3770
 4219SOL    HW216642   6.240   5.842   3.140 -0.3075  0.2080  1.3113
 4219SOL    HW316643   6.126   5.779   3.216 -1.2033  0.7789  0.4728
 4219SOL    MW416644   6.155   5.832   3.154 -0.1060  0.0245  0.1755
 4220SOL     OW16645   2.797   2.609   2.994 -0.2380  0.1493  0.3094
 4220SOL    HW216646   2.755   2.695   2.983 -0.1960  0.0406 -0.8841
 4220SOL    HW316647   2.727   2.551   3.022 -0.5276  0.3319 -0.0250
 4220SOL    MW416648   2.783   2.613   2.996  0.3327 -0.6172 -0.0997
 4221SOL     OW16649   2.803   0.241   0.249 -0.2626  0.6331 -0.3869
 4221SOL    HW216650   2.732   0.206   0.303  0.7296 -1.4066 -0.3427
 4221SOL    HW316651   2.789   0.336   0.251 -1.8063  0.4284  1.2395
 4221SOL    MW416652   2.792   0.249   0.257 -0.0293  0.0591  0.5508
 4222SOL     OW16653   1.683   0.185   1.545 -0.3089  0.8107  0.0945
 4222SOL    HW216654   1.733   0.123   1.599 -0.6605  0.4002 -0.0386
 4222SOL    HW316655   1.594   0.180   1.581 -0.2324  1.6331  0.4185
 4222SOL    MW416656   1.678   0.176   1.557  0.2930 -0.2226 -0.0432
 4223SOL     OW16657   4.940   6.326   2.155  0.5781  0.3703 -0.2718
 4223SOL    HW216658   4.877   6.291   2.218  0.2478  1.7857  0.2222
 4223SOL    HW316659   4.895   6.321   2.071  0.3846  0.0014 -0.1468
 4223SOL    MW416660   4.926   6.321   2.152  0.2803  0.3731  0.0814
 4224SOL     OW16661   3.936   4.435   3.946  0.5695 -0.3074 -0.1514
 4224SOL    HW216662   3.934   4.371   3.875 -0.7645 -1.1908  0.6319
 4224SOL    HW316663   3.946   4.381   4.025 -0.0454  0.4999  0.4844
 4224SOL    MW416664   3.937   4.419   3.947 -0.1149  0.5252 -0.1275
 4225SOL     OW16665   2.871   3.358   5.599 -0.0367  0.5072  0.3250
 4225SOL    HW216666   2.879   3.389   5.509 -0.4782 -1.1172 -0.3023
 4225SOL    HW316667   2.811   3.420   5.640  0.2093  1.2991 -0.4658
 4225SOL    MW416668   2.864   3.371   5.592 -0.4824 -0.2829 -0.0057
 4226SOL     OW16669   3.241   6.294   6.049  0.0892 -0.3435 -0.0308
 4226SOL    HW216670   3.307   6.337   6.103 -1.1295 -1.8632  2.9000
 4226SOL    HW316671   3.277   6.207   6.032 -0.0843 -0.3037 -0.6164
 4226SOL    MW416672   3.254   6.288   6.054 -0.5994  0.7011  0.4429
 4227SOL     OW16673   0.845   1.317   3.073 -0.4189 -0.0305  0.6868
 4227SOL    HW216674   0.750   1.303   3.083 -0.8121  0.7218 -1.3889
 4227SOL    HW316675   0.885   1.245   3.122 -2.1070 -1.3766  0.2146
 4227SOL    MW416676   0.837   1.305   3.081  0.0443 -0.4921  0.4122
 4228SOL     OW16677   6.141   5.721   4.483  0.2972  0.2959  0.4241
 4228SOL    HW216678   6.220   5.749   4.530  0.7158 -1.3563  0.7496
 4228SOL    HW316679   6.161   5.736   4.391  0.7290  0.5193  0.5515
 4228SOL    MW416680   6.154   5.727   4.477  0.3783  0.1981  0.3740
 4229SOL     OW16681   2.120   5.772   4.760  0.0887  0.8795 -0.5038
 4229SOL    HW216682   2.145   5.712   4.831 -0.2490  2.7595  1.2698
 4229SOL    HW316683   2.034   5.804   4.784 -0.4212  0.9348 -2.2464
 4229SOL    MW416684   2.112   5.768   4.772  0.1078  0.2211 -0.3333
 4230SOL     OW16685   3.265   1.911   4.667 -0.1794 -0.1348 -0.0607
 4230SOL    HW216686   3.255   1.928   4.760  0.4801 -0.4503  0.0719
 4230SOL    HW316687   3.332   1.973   4.638 -0.8848  0.4553 -0.4815
 4230SOL    MW416688   3.273   1.922   4.675 -0.6613 -0.3769  0.3246
 4231SOL     OW16689   3.512   4.249   6.205  0.3256 -0.0011  0.2387
 4231SOL    HW216690   3.591   4.212   6.245  0.6434  0.2762 -0.1256
 4231SOL    HW316691   3.532   4.252   6.112 -0.8771 -1.7731 -0.1146
 4231SOL    MW416692   3.525   4.245   6.198 -0.5156 -0.2074 -0.4050
 4232SOL     OW16693   1.585   6.161   5.551 -0.0613 -0.3425 -0.3823
 4232SOL    HW216694   1.654   6.105   5.587  0.9522  2.0227  1.6763
 4232SOL    HW316695   1.522   6.171   5.623 -0.1971  1.1304 -0.6689
 4232SOL    MW416696   1.586   6.155   5.565 -0.0410 -0.3434 -0.2545
 4233SOL     OW16697   3.501   2.217   1.157  0.0604  0.2452 -0.5999
 4233SOL    HW216698   3.475   2.270   1.082  0.8757 -0.8235 -1.6674
 4233SOL    HW316699   3.518   2.130   1.121  2.2548  0.1526  0.4863
 4233SOL    MW416700   3.500   2.213   1.143  0.5607 -0.2839  0.3083
 4234SOL     OW16701   0.608   2.914   3.856 -0.3278  0.3147  0.3209
 4234SOL    HW216702   0.596   2.821   3.836 -1.0808  0.2621  0.9691
 4234SOL    HW316703   0.703   2.925   3.861 -0.1760 -0.1134 -1.1122
 4234SOL    MW416704   0.619   2.903   3.854 -0.2962  0.5093  0.7978
 4235SOL     OW16705   5.791   2.374   2.076 -0.2169 -0.2264 -0.0038
 4235SOL    HW216706   5.712   2.392   2.026  1.1531  2.1072 -1.4997
 4235SOL    HW316707   5.832   2.459   2.087  1.6649 -1.2554  1.5013
 4235SOL    MW416708   5.786   2.387   2.071  0.2432  0.6624  0.0410
 4236SOL     OW16709   1.319   1.197   2.268 -0.6719  0.4143  0.4183
 4236SOL    HW216710   1.409   1.213   2.241 -0.6114 -1.7295 -0.9331
 4236SOL    HW316711   1.326   1.162   2.357  0.0741 -1.6650 -0.4039
 4236SOL    MW416712   1.332   1.195   2.276  0.2591 -0.2551 -0.3167
 4237SOL     OW16713   6.310   2.498   5.839  0.6728 -0.5509  0.1760
 4237SOL    HW216714   6.263   2.417   5.858  1.7330 -1.5618 -1.3197
 4237SOL    HW316715   6.307   2.547   5.921 -1.8700 -1.1076  0.4967
 4237SOL    MW416716   6.304   2.494   5.852 -0.1140  0.3409  0.1923
 4238SOL     OW16717   1.219   2.827   2.976  0.4512  0.0663  0.4172
 4238SOL    HW216718   1.284   2.896   2.966 -0.1607  0.8000  1.3673
 4238SOL    HW316719   1.147   2.854   2.917  0.4739 -0.0873  0.3187
 4238SOL    MW416720   1.218   2.840   2.967  0.5784 -0.5643  0.7749
 4239SOL     OW16721   0.528   4.841   2.793 -0.5902  0.4231 -0.0898
 4239SOL    HW216722   0.530   4.921   2.845 -0.5748  0.4423 -0.1200
 4239SOL    HW316723   0.609   4.843   2.743 -0.5998  0.3992 -0.1063
 4239SOL    MW416724   0.539   4.852   2.794  0.3999 -0.5885  0.1362
 4240SOL     OW16725   0.608   2.115   1.464 -0.0462  0.2055  0.6010
 4240SOL    HW216726   0.682   2.171   1.441 -0.6831  0.2387 -1.5554
 4240SOL    HW316727   0.589   2.137   1.556  4.1622 -1.6771  2.1626
 4240SOL    MW416728   0.615   2.125   1.473 -0.2995 -0.0414 -0.3379
 4241SOL     OW16729   1.620   0.936   3.977  0.4775 -0.2738 -0.2239
 4241SOL    HW216730   1.685   0.877   3.939 -1.6578 -1.4645 -2.2303
 4241SOL    HW316731   1.555   0.948   3.908 -1.5117  0.7922  1.7272
 4241SOL    MW416732   1.620   0.930   3.963 -0.1981  0.6746 -0.5295
 4242SOL     OW16733   6.072   1.078   0.260  0.1914  0.0438 -0.7818
 4242SOL    HW216734   6.023   1.062   0.179  0.6583 -0.3702 -0.9882
 4242SOL    HW316735   6.022   1.032   0.327  0.3291 -0.4317 -1.0013
 4242SOL    MW416736   6.059   1.070   0.258 -0.1451 -0.1143  0.0845
 4243SOL     OW16737   5.883   0.921   2.736  0.0285  0.0996  0.1914
 4243SOL    HW216738   5.795   0.913   2.700 -0.6745 -1.3979  2.0983
 4243SOL    HW316739   5.873   0.903   2.829  2.1464  1.3599  0.7258
 4243SOL    MW416740   5.870   0.918   2.744  0.8246 -0.3419 -0.6200
 4244SOL     OW16741   2.732   1.989   3.924  0.1939  0.2203  0.1148
 4244SOL    HW216742   2.744   1.895   3.913  1.7691  0.1499  1.8413
 4244SOL    HW316743   2.638   1.999   3.939 -0.1148 -0.9583 -0.8466
 4244SOL    MW416744   2.721   1.978   3.925 -0.2079 -0.5711 -0.0529
 4245SOL     OW16745   4.723   1.002   5.675 -0.5401  0.3029 -0.1561
 4245SOL    HW216746   4.746   1.080   5.625  0.5022  0.9912  1.3299
 4245SOL    HW316747   4.628   1.002   5.679 -0.5236  2.2706  0.9947
 4245SOL    MW416748   4.714   1.012   5.669  0.1019  1.1171  0.1606
 4246SOL     OW16749   1.551   2.215   3.569  1.1619  0.3112  0.0241
 4246SOL    HW216750   1.457   2.224   3.588  1.3760 -0.2504  1.5668
 4246SOL    HW316751   1.581   2.148   3.631  2.3508 -0.4251 -1.2947
 4246SOL    MW416752   1.542   2.208   3.580 -0.6017 -0.2282  0.1657
 4247SOL     OW16753   0.131   3.720   3.904 -0.7186 -0.0404 -0.4647
 4247SOL    HW216754   0.139   3.815   3.913 -1.6169  0.0696 -0.7165
 4247SOL    HW316755   0.199   3.695   3.841  0.4954  0.2265  0.7016
 4247SOL    MW416756   0.141   3.729   3.897 -0.2578 -0.1063 -0.4826
 4248SOL     OW16757   1.802   3.063   3.220 -0.0793 -0.0362 -0.5283
 4248SOL    HW216758   1.795   3.150   3.260 -2.4937 -0.5801  0.3594
 4248SOL    HW316759   1.821   3.081   3.128 -1.9151  1.5250 -0.6666
 4248SOL    MW416760   1.804   3.077   3.213 -0.3368 -0.0051  0.1590
 4249SOL     OW16761   5.417   3.471   1.652 -0.2801 -0.2016 -0.2963
 4249SOL    HW216762   5.490   3.498   1.707  0.9074  0.5460 -2.1226
 4249SOL    HW316763   5.388   3.553   1.610 -1.4947 -0.6530 -0.3654
 4249SOL    MW416764   5.423   3.486   1.653  0.2434 -0.4979  0.5137
 4250SOL     OW16765   6.170   1.521   3.385  0.1821  0.8164 -0.0572
 4250SOL    HW216766   6.248   1.468   3.372 -1.6615 -2.4105  0.7843
 4250SOL    HW316767   6.190   1.576   3.460  1.5884 -0.0820  0.2585
 4250SOL    MW416768   6.183   1.521   3.393  0.4534 -0.0740  0.0226
 4251SOL     OW16769   2.150   2.316   2.956 -0.0774  0.2856  0.8032
 4251SOL    HW216770   2.230   2.268   2.979 -0.7009 -0.1912  2.0354
 4251SOL    HW316771   2.141   2.382   3.025 -0.5840  0.5503  0.4915
 4251SOL    MW416772   2.160   2.319   2.968  0.1337 -0.0147 -0.2454
 4252SOL     OW16773   4.333   2.886   5.544 -0.5156 -0.1394  0.2131
 4252SOL    HW216774   4.335   2.963   5.602  0.6480  0.3959 -0.4965
 4252SOL    HW316775   4.332   2.811   5.603 -0.6159  0.4200  0.9288
 4252SOL    MW416776   4.333   2.886   5.559  0.2071 -0.7331 -0.2392
 4253SOL     OW16777   6.184   0.275   1.678  0.4871  0.2230 -0.2240
 4253SOL    HW216778   6.191   0.250   1.586  0.0981  0.5177 -0.3358
 4253SOL    HW316779   6.238   0.211   1.724 -0.1630 -0.5742 -0.5425
 4253SOL    MW416780   6.192   0.263   1.672 -0.2020  0.2517 -0.8410
 4254SOL     OW16781   0.389   5.894   5.013 -0.0799  0.3079 -0.3423
 4254SOL    HW216782   0.298   5.897   5.044  0.3004  1.7633  0.7581
 4254SOL    HW316783   0.386   5.936   4.927 -0.2821  1.5069  0.2290
 4254SOL    MW416784   0.377   5.900   5.005 -0.2667  0.0474  0.0553
 4255SOL     OW16785   0.870   5.601   1.645  0.1252  0.0232 -0.6587
 4255SOL    HW216786   0.963   5.620   1.634  0.0870  0.4668 -0.2476
 4255SOL    HW316787   0.860   5.511   1.612  0.6701  0.0177 -0.8261
 4255SOL    MW416788   0.881   5.591   1.639 -0.7013 -0.9611 -0.1605
 4256SOL     OW16789   3.890   5.907   0.444 -0.1542 -0.2789 -0.2469
 4256SOL    HW216790   3.897   5.814   0.423 -0.8102 -0.0067 -1.8400
 4256SOL    HW316791   3.972   5.928   0.488  2.0198 -0.7063 -3.7141
 4256SOL    MW416792   3.902   5.898   0.447  0.8945 -0.2666  0.6503
 4257SOL     OW16793   1.537   1.679   1.594  0.6747  0.8060 -0.3295
 4257SOL    HW216794   1.596   1.617   1.553 -1.7329 -1.0458 -1.2069
 4257SOL    HW316795   1.565   1.682   1.686  0.1428 -2.6492  0.0813
 4257SOL    MW416796   1.549   1.671   1.601  0.0759 -0.1229 -0.9487
 4258SOL     OW16797   0.206   2.255   0.887 -0.1850  0.2821  0.1654
 4258SOL    HW216798   0.157   2.289   0.962 -0.5654 -0.5859  0.3342
 4258SOL    HW316799   0.259   2.328   0.857 -1.7858  1.3392 -0.1838
 4258SOL    MW416800   0.206   2.269   0.893  0.0268 -0.3418  0.8314
 4259SOL     OW16801   1.375   0.935   5.519 -0.1758  0.0743  0.0066
 4259SOL    HW216802   1.419   0.850   5.516  1.9988  1.0985  0.6189
 4259SOL    HW316803   1.312   0.927   5.590 -0.0982 -1.0473 -0.0265
 4259SOL    MW416804   1.372   0.923   5.528  0.5366  0.4920 -0.2909
 4260SOL     OW16805   6.332   6.293   5.057  0.1106 -0.0077  0.4767
 4260SOL    HW216806   6.379   6.372   5.084  0.5491 -0.1991  0.2868
 4260SOL    HW316807   6.269   6.324   4.991 -1.1514  0.5007  1.8667
 4260SOL    MW416808   6.330   6.308   5.052 -0.5110  0.1246  0.3609
 4261SOL     OW16809   1.788   6.084   2.932  0.3250 -1.0316 -0.1190
 4261SOL    HW216810   1.824   6.008   2.885  0.8360  0.1671 -1.7566
 4261SOL    HW316811   1.742   6.134   2.865  0.2745  0.2786  0.8595
 4261SOL    MW416812   1.787   6.081   2.917  0.0841 -0.4997 -0.7027
 4262SOL     OW16813   1.538   2.156   5.736  0.6801  0.0253 -0.1656
 4262SOL    HW216814   1.554   2.201   5.819 -1.5759 -0.0596  0.3777
 4262SOL    HW316815   1.478   2.214   5.689 -0.1243 -1.1517 -0.6251
 4262SOL    MW416816   1.533   2.170   5.740  0.0031 -0.6257  0.5083
 4263SOL     OW16817   3.335   1.962   0.527 -0.2288  0.3533 -0.2057
 4263SOL    HW216818   3.296   2.049   0.529  0.6638  0.7943 -1.1226
 4263SOL    HW316819   3.276   1.910   0.472 -2.2647 -0.4360  2.5081
 4263SOL    MW416820   3.322   1.966   0.520 -0.2535  0.2546 -0.0983
 4264SOL     OW16821   0.962   1.236   6.188  0.3353  0.1859  0.2597
 4264SOL    HW216822   0.991   1.326   6.172  0.6741 -0.0267 -0.3542
 4264SOL    HW316823   1.037   1.194   6.232  0.3662  0.0701  0.0971
 4264SOL    MW416824   0.976   1.242   6.192 -0.8956  0.0852 -0.4608
 4265SOL     OW16825   6.343   3.931   1.410 -0.4080  0.2900  0.5507
 4265SOL    HW216826   6.345   3.835   1.417 -2.2920  0.2561  1.0974
 4265SOL    HW316827   6.359   3.948   1.317 -1.4476 -0.6387  0.1773
 4265SOL    MW416828   6.345   3.920   1.398  0.1572 -0.5596  0.0288
 4266SOL     OW16829   4.116   3.056   3.427  0.6049  0.1454  0.1757
 4266SOL    HW216830   4.160   3.076   3.509  1.8508 -2.6674  0.2968
 4266SOL    HW316831   4.184   3.065   3.360 -0.3872  2.3758 -0.6495
 4266SOL    MW416832   4.131   3.060   3.429  0.2521  1.0381  0.6893
 4267SOL     OW16833   4.708   2.598   3.875 -0.0436 -0.1825 -0.4433
 4267SOL    HW216834   4.639   2.556   3.824 -1.1694  0.9750  0.0502
 4267SOL    HW316835   4.788   2.578   3.828 -0.7291 -1.4396 -1.1299
 4267SOL    MW416836   4.709   2.590   3.862 -0.6311 -0.1649  0.4922
 4268SOL     OW16837   5.243   2.708   4.537  0.0902  0.0336  0.0290
 4268SOL    HW216838   5.241   2.650   4.614 -1.7458 -0.0087  0.0078
 4268SOL    HW316839   5.331   2.698   4.502  0.3386 -1.5133  0.9695
 4268SOL    MW416840   5.254   2.699   4.543  0.2867  0.0388  0.4440
 4269SOL     OW16841   2.379   3.100   1.518  0.4211  0.5801 -0.4571
 4269SOL    HW216842   2.308   3.157   1.547 -0.7309 -0.7212 -0.6161
 4269SOL    HW316843   2.458   3.154   1.526 -0.5481  2.0093 -0.1188
 4269SOL    MW416844   2.380   3.115   1.523  0.0216 -0.1335 -0.5122
 4270SOL     OW16845   2.185   0.675   3.585  0.2911  0.1242  0.2723
 4270SOL    HW216846   2.194   0.632   3.501 -0.6795 -0.5989  0.5201
 4270SOL    HW316847   2.246   0.749   3.581  1.0366 -0.5139 -0.6460
 4270SOL    MW416848   2.194   0.679   3.574 -0.0408  0.0175  0.0302
 4271SOL     OW16849   0.924   5.349   1.098 -0.1209  0.6816 -0.0240
 4271SOL    HW216850   0.930   5.332   1.004 -0.2264  2.0656 -0.3032
 4271SOL    HW316851   0.989   5.417   1.115  0.9879 -0.6083  1.2193
 4271SOL    MW416852   0.933   5.355   1.088 -0.1648 -0.2709  0.4941
 4272SOL     OW16853   5.604   0.660   1.200  0.4824  0.0800 -0.0606
 4272SOL    HW216854   5.544   0.734   1.209 -1.5519 -1.4955 -0.0159
 4272SOL    HW316855   5.623   0.655   1.106 -1.1074 -0.5911 -0.3741
 4272SOL    MW416856   5.599   0.669   1.189 -0.2535  0.3001  0.1172
 4273SOL     OW16857   4.083   2.310   0.642 -0.7969  0.6244 -0.3370
 4273SOL    HW216858   4.056   2.251   0.712 -1.4488 -0.0112 -1.1100
 4273SOL    HW316859   4.163   2.351   0.675  0.1901 -1.3647 -0.1248
 4273SOL    MW416860   4.090   2.308   0.655  0.0769 -0.2686 -0.2377
 4274SOL     OW16861   1.201   5.599   3.316  0.2480  0.1888 -0.3952
 4274SOL    HW216862   1.117   5.597   3.270 -0.4234  0.6405  0.7926
 4274SOL    HW316863   1.247   5.673   3.276  0.4206 -0.5214 -1.5820
 4274SOL    MW416864   1.196   5.609   3.304  0.2745  0.0010  0.5884
 4275SOL     OW16865   0.038   1.713   6.409 -0.4906  0.1217 -0.1714
 4275SOL    HW216866  -0.045   1.725   6.455 -0.4552  0.5913 -0.2241
 4275SOL    HW316867   0.100   1.768   6.458 -0.1951 -0.2845 -0.0859
 4275SOL    MW416868   0.036   1.722   6.422  0.7723  0.0288  0.0201
 4276SOL     OW16869   2.268   5.759   3.834  0.1126  0.4252 -0.0859
 4276SOL    HW216870   2.203   5.830   3.840  0.8800  1.3294 -1.7282
 4276SOL    HW316871   2.237   5.693   3.896 -2.1333  1.0116 -0.4823
 4276SOL    MW416872   2.255   5.760   3.843  0.1023 -0.0797  0.3941
 4277SOL     OW16873   0.429   0.785   2.165  0.1255 -0.6366 -0.1166
 4277SOL    HW216874   0.453   0.706   2.118 -1.2997 -1.2942  0.2003
 4277SOL    HW316875   0.389   0.754   2.246  0.3323  0.4310  0.4259
 4277SOL    MW416876   0.427   0.771   2.170  0.0001  0.9023 -0.7895
 4278SOL     OW16877   2.525   1.237   5.976  0.9496  0.3166  0.1118
 4278SOL    HW216878   2.438   1.206   6.001  0.8816  1.3925  1.3374
 4278SOL    HW316879   2.585   1.173   6.014  0.7189 -1.3314 -2.0865
 4278SOL    MW416880   2.522   1.224   5.984  0.2846  0.0423 -0.1044
 4279SOL     OW16881   1.490   5.327   2.845 -0.4415 -0.3879 -0.4943
 4279SOL    HW216882   1.402   5.354   2.872 -0.1487  0.9613 -0.8164
 4279SOL    HW316883   1.516   5.392   2.780  0.7610 -0.8312 -0.4764
 4279SOL    MW416884   1.481   5.339   2.840  0.1198 -0.2666  0.5084
 4280SOL     OW16885   2.083   4.285   0.415 -0.4583  0.3851 -0.6420
 4280SOL    HW216886   2.040   4.327   0.489 -2.1200 -1.0553 -0.7135
 4280SOL    HW316887   2.075   4.191   0.433  1.6474  0.0192 -1.2773
 4280SOL    MW416888   2.077   4.278   0.427 -0.1685 -0.1976  0.2840
 4281SOL     OW16889   6.137   1.126   2.292  0.2691  0.2893 -0.2019
 4281SOL    HW216890   6.049   1.117   2.330  0.6204 -1.2299  0.2889
 4281SOL    HW316891   6.125   1.101   2.200 -0.4686  3.4523 -1.1240
 4281SOL    MW416892   6.124   1.122   2.285 -0.1532 -0.4817 -0.3446
 4282SOL     OW16893   4.054   2.611   5.751  0.5328  0.3801 -0.1515
 4282SOL    HW216894   4.135   2.638   5.707  0.1629  2.1105  0.1691
 4282SOL    HW316895   3.985   2.658   5.706 -0.1814 -0.1413  0.3736
 4282SOL    MW416896   4.056   2.620   5.739 -0.0043 -0.7867  0.6021
 4283SOL     OW16897   0.130   1.809   1.051 -0.3459 -0.1718 -0.0321
 4283SOL    HW216898   0.110   1.902   1.039  2.2134  0.3920 -0.5596
 4283SOL    HW316899   0.221   1.800   1.022 -0.0112 -2.5432  1.4567
 4283SOL    MW416900   0.139   1.820   1.046 -0.2702 -0.1211 -0.4391
 4284SOL     OW16901   1.919   4.919   5.104 -0.2859 -0.1868  0.6711
 4284SOL    HW216902   2.004   4.912   5.148 -0.6346  1.3543  1.6670
 4284SOL    HW316903   1.912   4.839   5.052  2.3801  0.2280 -0.5106
 4284SOL    MW416904   1.929   4.908   5.103  1.0140  0.7312 -0.6699
 4285SOL     OW16905   3.817   2.571   1.957 -0.5796  0.2983 -0.2236
 4285SOL    HW216906   3.849   2.610   2.039  0.8358 -2.8150  0.8474
 4285SOL    HW316907   3.851   2.629   1.889  2.6285  0.3395  1.1906
 4285SOL    MW416908   3.826   2.584   1.959  0.2874 -0.7117  0.5448
 4286SOL     OW16909   0.906   4.171   3.291 -0.4105  0.3229 -0.0845
 4286SOL    HW216910   0.916   4.076   3.282  0.3266  0.4013 -0.1556
 4286SOL    HW316911   0.968   4.208   3.227 -0.4018  0.8538  0.2247
 4286SOL    MW416912   0.915   4.163   3.281 -0.3216 -0.3893  0.1957
 4287SOL     OW16913   3.113   0.344   4.941 -0.2655 -0.2291  0.1233
 4287SOL    HW216914   3.021   0.350   4.915 -0.5725  0.5277  1.3214
 4287SOL    HW316915   3.111   0.301   5.027  0.4274  0.5418  0.5368
 4287SOL    MW416916   3.100   0.339   4.949 -0.3586  0.2508  0.5669
 4288SOL     OW16917   4.777   0.500   5.891  0.4393 -0.0104 -0.3320
 4288SOL    HW216918   4.698   0.510   5.840  0.2363  1.8543  0.2578
 4288SOL    HW316919   4.823   0.583   5.881  0.9529 -0.0141  1.5407
 4288SOL    MW416920   4.773   0.512   5.883  0.3962  0.1523 -0.5183
 4289SOL     OW16921   0.504   1.292   1.337  0.3851  0.3898  0.0582
 4289SOL    HW216922   0.519   1.385   1.320  2.6778  0.3429  1.4994
 4289SOL    HW316923   0.536   1.278   1.426 -1.7793 -1.4016  0.6446
 4289SOL    MW416924   0.510   1.303   1.346 -0.4883 -0.5758 -0.2128
 4290SOL     OW16925   2.206   3.662   5.466 -0.2968  0.0116  0.1857
 4290SOL    HW216926   2.129   3.606   5.482 -0.0990 -0.2150  0.3472
 4290SOL    HW316927   2.169   3.745   5.434 -0.5502 -0.4591 -0.7654
 4290SOL    MW416928   2.191   3.666   5.464 -0.2097 -0.2512  0.0710
 4291SOL     OW16929   0.311   5.225   5.757  0.0631  0.0068  0.3903
 4291SOL    HW216930   0.293   5.184   5.841  1.9356 -0.8177  0.4512
 4291SOL    HW316931   0.328   5.317   5.778 -3.1336  0.7093  0.3830
 4291SOL    MW416932   0.311   5.232   5.771  0.6214  0.3324 -0.1176
 4292SOL     OW16933   5.061   1.804   3.374 -0.6611  0.8624 -0.1892
 4292SOL    HW216934   5.138   1.860   3.365  0.4554 -0.2147  2.0071
 4292SOL    HW316935   5.064   1.746   3.298  0.2574  1.3262 -0.5247
 4292SOL    MW416936   5.071   1.804   3.363 -0.1188  0.0017 -0.0083
 4293SOL     OW16937   3.244   2.009   5.389  0.3847  0.3762  0.3475
 4293SOL    HW216938   3.334   2.009   5.421  0.0097  1.0283  1.4566
 4293SOL    HW316939   3.247   2.066   5.311  0.8071  0.9544  0.7744
 4293SOL    MW416940   3.256   2.017   5.383 -0.0722 -0.1300 -0.3779
 4294SOL     OW16941   5.903   3.016   6.237  0.0142 -0.4473  0.2531
 4294SOL    HW216942   5.933   3.058   6.156 -1.0201 -2.2639 -1.1357
 4294SOL    HW316943   5.979   2.966   6.267 -0.1000 -1.1716 -0.6005
 4294SOL    MW416944   5.917   3.015   6.230 -0.0925 -0.1360 -0.0199
 4295SOL     OW16945   2.860   0.813   2.858  0.0023  0.3052  0.3641
 4295SOL    HW216946   2.895   0.843   2.942  0.1070  2.5136 -0.4034
 4295SOL    HW316947   2.770   0.846   2.856 -0.2596 -0.4096 -0.0658
 4295SOL    MW416948   2.853   0.821   2.869  0.0226 -0.0582  0.1327
 4296SOL     OW16949   2.929   3.757   2.909  0.4012  0.3975  0.3560
 4296SOL    HW216950   3.015   3.728   2.941  0.3167  0.8798  1.0550
 4296SOL    HW316951   2.948   3.798   2.825  0.7107 -0.4041  0.0172
 4296SOL    MW416952   2.943   3.758   2.902 -0.4405 -0.2983  0.3747
 4297SOL     OW16953   0.955   4.578   0.772 -0.2554 -0.0081 -0.1347
 4297SOL    HW216954   1.002   4.589   0.689 -0.7515  1.1046 -0.2816
 4297SOL    HW316955   0.979   4.490   0.801  1.1593  0.1762 -0.6734
 4297SOL    MW416956   0.965   4.568   0.765 -0.4301  0.0205 -0.1257
 4298SOL     OW16957   3.206   3.259   4.391  0.2771  0.1801 -0.3948
 4298SOL    HW216958   3.292   3.228   4.421 -0.4067 -2.0796 -0.5346
 4298SOL    HW316959   3.180   3.195   4.325 -1.8070  0.3881  0.1623
 4298SOL    MW416960   3.214   3.246   4.386  0.2356 -0.1507  0.4437
 4299SOL     OW16961   5.530   1.572   0.268  0.0081  0.2328  0.8335
 4299SOL    HW216962   5.542   1.495   0.323  0.6786  0.3117  0.8069
 4299SOL    HW316963   5.572   1.549   0.185  1.5055  1.1233  1.2840
 4299SOL    MW416964   5.537   1.559   0.264 -0.2518 -0.0976 -0.1855
 4300SOL     OW16965   5.265   3.964   3.819 -0.1159  0.0768 -0.5059
 4300SOL    HW216966   5.240   3.874   3.797 -0.5159 -0.4807  2.0068
 4300SOL    HW316967   5.193   3.996   3.872 -0.1611  2.0741 -1.6713
 4300SOL    MW416968   5.252   3.956   3.823  0.0197  0.2252 -0.3625
 4301SOL     OW16969   0.386   1.206   3.347  0.2001 -0.1993  0.1271
 4301SOL    HW216970   0.348   1.121   3.323  1.2733 -0.5148 -0.5357
 4301SOL    HW316971   0.312   1.255   3.384 -0.9101 -0.7036 -1.3024
 4301SOL    MW416972   0.371   1.201   3.349 -0.1295  0.2429  0.3307
 4302SOL     OW16973   0.235   3.442   3.385 -0.0441 -0.0745  0.0629
 4302SOL    HW216974   0.294   3.390   3.439 -0.6108  0.8445  1.6198
 4302SOL    HW316975   0.293   3.498   3.333  0.6148  2.5734  3.2924
 4302SOL    MW416976   0.250   3.442   3.385 -0.1743  0.3974  0.0208
 4303SOL     OW16977   1.370   6.094   5.386  0.1788  0.2093  0.4293
 4303SOL    HW216978   1.309   6.163   5.413 -1.2263 -0.2086 -1.4244
 4303SOL    HW316979   1.454   6.119   5.424 -0.6814  1.9862  1.2610
 4303SOL    MW416980   1.373   6.106   5.394  0.0150 -0.2515 -0.6415
 4304SOL     OW16981   4.797   1.934   3.351 -0.0205 -0.3493  0.0920
 4304SOL    HW216982   4.763   1.974   3.431 -0.5170 -2.4866  1.0132
 4304SOL    HW316983   4.883   1.900   3.376 -0.3811 -1.4473 -0.1264
 4304SOL    MW416984   4.804   1.935   3.365  0.5070  0.3194 -0.0092
 4305SOL     OW16985   1.968   5.987   1.894 -0.2184  0.4917 -0.4596
 4305SOL    HW216986   1.941   5.952   1.979  0.2136  0.3441 -0.3764
 4305SOL    HW316987   1.922   6.071   1.886 -1.6862 -0.3281 -0.9017
 4305SOL    MW416988   1.959   5.994   1.904  0.0482  0.1080 -0.0661
 4306SOL     OW16989   0.749   0.061   6.344 -1.1496 -0.1467  0.5842
 4306SOL    HW216990   0.668   0.101   6.311  0.0487  1.9620  0.0578
 4306SOL    HW316991   0.788   0.128   6.400  0.8811 -0.6140 -0.2001
 4306SOL    MW416992   0.743   0.075   6.347  0.0446 -0.3080 -0.1553
 4307SOL     OW16993   4.575   0.759   1.878  0.6599 -0.1632 -0.0159
 4307SOL    HW216994   4.491   0.771   1.922  0.9000  0.6932  0.2341
 4307SOL    HW316995   4.594   0.666   1.888 -1.2434 -0.8491 -1.9116
 4307SOL    MW416996   4.566   0.748   1.885  0.4060  0.0422 -0.0305
 4308SOL     OW16997   6.353   4.708   1.702 -0.0630  0.3342 -0.2384
 4308SOL    HW216998   6.439   4.717   1.660 -0.5677 -1.8271 -1.9048
 4308SOL    HW316999   6.324   4.799   1.716  2.6490  1.1264  0.8531
 4308SOL    MW417000   6.360   4.721   1.698 -0.1142 -0.4600 -0.1291
 4309SOL     OW17001   5.174   5.296   5.914 -0.5971 -0.6234 -0.9399
 4309SOL    HW217002   5.216   5.331   5.992 -0.3282 -0.5369 -1.1227
 4309SOL    HW317003   5.122   5.369   5.880 -0.0550 -0.4100 -1.3075
 4309SOL    MW417004   5.172   5.310   5.920  0.2226 -0.0029  0.3450
 4310SOL     OW17005   3.380   0.351   0.822 -0.2023  0.3046  0.4269
 4310SOL    HW217006   3.337   0.435   0.804 -1.2541 -0.1987  0.5150
 4310SOL    HW317007   3.472   0.374   0.838  0.3742  1.0597 -3.2267
 4310SOL    MW417008   3.386   0.365   0.822 -0.2645 -0.2327 -0.6185
 4311SOL     OW17009   4.174   0.910   6.182  0.3715 -0.0300 -0.2261
 4311SOL    HW217010   4.199   0.831   6.230  1.4883  0.1831 -0.4272
 4311SOL    HW317011   4.093   0.939   6.224 -0.2958 -1.5060 -0.4133
 4311SOL    MW417012   4.166   0.903   6.194 -0.6224  0.3409  0.0207
 4312SOL     OW17013   1.770   1.283   2.658 -0.5667  0.4983  0.5303
 4312SOL    HW217014   1.715   1.307   2.584 -0.4825  2.1309  0.9562
 4312SOL    HW317015   1.859   1.304   2.630 -0.4756  0.5962  0.8845
 4312SOL    MW417016   1.774   1.289   2.645  0.5164  0.2541 -0.0957
 4313SOL     OW17017   3.927   3.832   4.364 -0.0935 -0.0266  0.1556
 4313SOL    HW217018   3.928   3.742   4.398  1.0958  0.1050  0.5032
 4313SOL    HW317019   3.836   3.847   4.340 -0.3885 -1.1879  0.4694
 4313SOL    MW417020   3.916   3.822   4.365 -0.1293  0.1966 -0.6099
 4314SOL     OW17021   4.011   5.929   1.192 -0.2012 -0.3898 -0.1140
 4314SOL    HW217022   4.096   5.908   1.153 -0.1849 -1.1060  0.2810
 4314SOL    HW317023   3.985   5.849   1.238 -1.3017 -0.3316 -0.5954
 4314SOL    MW417024   4.019   5.916   1.193 -0.2291 -0.2637  0.2440
 4315SOL     OW17025   1.738   1.575   5.283  0.6549 -0.0353  0.2137
 4315SOL    HW217026   1.784   1.563   5.200  0.5544 -0.1769  0.1784
 4315SOL    HW317027   1.712   1.486   5.309  1.0619 -0.0443  0.6094
 4315SOL    MW417028   1.741   1.561   5.276  0.4787 -0.3810  0.4562
 4316SOL     OW17029   3.150   2.771   4.045 -0.2496  0.4060  0.7133
 4316SOL    HW217030   3.237   2.783   4.084  0.0343 -1.5470  0.7960
 4316SOL    HW317031   3.091   2.817   4.105  0.6664  1.4703  0.8443
 4316SOL    MW417032   3.154   2.779   4.058 -0.5172  0.0809 -0.1536
 4317SOL     OW17033   1.834   3.847   5.540 -0.6704  0.5037 -0.1046
 4317SOL    HW217034   1.906   3.902   5.508 -1.1218  0.6624 -0.8819
 4317SOL    HW317035   1.832   3.773   5.479 -1.2699  0.5828 -0.1846
 4317SOL    MW417036   1.844   3.844   5.527  0.4940  0.3480  0.3391
 4318SOL     OW17037   0.325   0.475   1.985 -0.0687 -0.0660  0.0336
 4318SOL    HW217038   0.264   0.507   1.918 -0.3005 -3.1611 -1.4611
 4318SOL    HW317039   0.271   0.464   2.063 -0.7808 -0.1639 -0.4599
 4318SOL    MW417040   0.310   0.477   1.986  0.0251  0.2191 -0.4086
 4319SOL     OW17041   1.155   4.891   5.232  0.1106 -0.5906 -0.5221
 4319SOL    HW217042   1.188   4.804   5.253 -1.1744 -1.2778 -1.2687
 4319SOL    HW317043   1.079   4.902   5.290 -0.8050 -0.7163 -1.6674
 4319SOL    MW417044   1.149   4.881   5.242 -0.6079 -0.1618 -0.7769
 4320SOL     OW17045   2.827   3.284   0.610  0.3211  0.3736  0.0300
 4320SOL    HW217046   2.870   3.233   0.540  1.2697  0.1788  0.7322
 4320SOL    HW317047   2.742   3.244   0.621  0.9714 -0.9459  0.4169
 4320SOL    MW417048   2.822   3.272   0.602 -0.0257  0.5991 -0.2512
 4321SOL     OW17049   2.703   3.596   3.435 -0.0513  0.0425  0.0045
 4321SOL    HW217050   2.746   3.668   3.482 -0.3603 -0.2519  0.7493
 4321SOL    HW317051   2.767   3.524   3.439 -0.3760 -0.2249  0.6528
 4321SOL    MW417052   2.717   3.596   3.442  0.3552 -0.4527  0.2173
 4322SOL     OW17053   0.303   1.267   5.311  0.1600 -0.0652  0.5950
 4322SOL    HW217054   0.347   1.280   5.227 -0.8358  0.8727  0.1967
 4322SOL    HW317055   0.219   1.227   5.288  0.1448 -0.4029  1.2104
 4322SOL    MW417056   0.298   1.263   5.297  0.3827  0.0824  0.0597
 4323SOL     OW17057   4.055   4.027   4.008  0.1926 -0.3955  0.7833
 4323SOL    HW217058   3.965   4.044   4.036 -0.3648 -0.3595 -0.9263
 4323SOL    HW317059   4.073   3.939   4.040 -0.5319 -0.4995  0.9375
 4323SOL    MW417060   4.045   4.018   4.016  0.1271 -0.2996  0.2250
 4324SOL     OW17061   3.353   0.857   0.624  0.1849  0.2203  0.2245
 4324SOL    HW217062   3.283   0.903   0.671 -0.9494  0.4449 -1.5973
 4324SOL    HW317063   3.433   0.882   0.671 -0.8464  0.5732  1.8947
 4324SOL    MW417064   3.354   0.867   0.637 -0.0843  0.5611  0.2147
 4325SOL     OW17065   0.646   3.138   5.400  0.0590 -0.0174  0.1893
 4325SOL    HW217066   0.667   3.225   5.364 -0.8195 -0.3243 -1.1209
 4325SOL    HW317067   0.710   3.126   5.471  0.7531  1.3284 -0.1660
 4325SOL    MW417068   0.657   3.148   5.405 -0.2796 -0.4722  0.3172
 4326SOL     OW17069   6.391   4.416   4.586 -0.0671  0.5800  0.1806
 4326SOL    HW217070   6.382   4.411   4.681 -0.6631  0.0120  0.0952
 4326SOL    HW317071   6.349   4.499   4.562  1.7331  1.6745  0.5973
 4326SOL    MW417072   6.384   4.426   4.595 -0.2188  0.3656 -0.0189
 4327SOL     OW17073   3.542   4.536   3.445 -0.1781  0.0508 -0.0293
 4327SOL    HW217074   3.498   4.618   3.468  0.6965  0.6973 -0.5895
 4327SOL    HW317075   3.603   4.521   3.518 -0.3226 -0.0864  0.0625
 4327SOL    MW417076   3.545   4.545   3.458 -0.2212 -0.0754 -0.3047
 4328SOL     OW17077   4.290   0.500   4.260  0.1664  0.6598  0.3728
 4328SOL    HW217078   4.268   0.590   4.237 -1.5410  0.2125  0.1850
 4328SOL    HW317079   4.207   0.453   4.260  0.5267 -0.2238  3.7703
 4328SOL    MW417080   4.276   0.505   4.257 -0.4553 -0.1098  0.2002
 4329SOL     OW17081   6.132   2.263   1.191  0.1856 -0.3854  0.0689
 4329SOL    HW217082   6.097   2.257   1.102  0.8954  0.5813 -0.2908
 4329SOL    HW317083   6.211   2.317   1.183 -1.0691  1.8964  1.6267
 4329SOL    MW417084   6.138   2.270   1.178  0.2917 -0.5385 -0.7870
 4330SOL     OW17085   4.200   2.697   2.963 -0.1365  0.1215  0.1016
 4330SOL    HW217086   4.227   2.606   2.979  0.4188  0.0589 -1.0515
 4330SOL    HW317087   4.123   2.709   3.018 -0.9102 -1.4151 -0.5690
 4330SOL    MW417088   4.194   2.686   2.972  0.1949  0.1207 -0.2362
 4331SOL     OW17089   1.766   5.495   3.570  0.1932 -0.6946 -0.0780
 4331SOL    HW217090   1.764   5.437   3.646 -1.0164 -0.6222 -0.0407
 4331SOL    HW317091   1.859   5.504   3.549  0.7067  0.5878  2.3828
 4331SOL    MW417092   1.778   5.488   3.577  1.0304  0.3082 -0.2876
 4332SOL     OW17093   1.927   4.450   3.128  0.0374  0.6189  0.0447
 4332SOL    HW217094   1.956   4.358   3.128  1.9715  1.1879 -0.3839
 4332SOL    HW317095   2.007   4.500   3.116 -0.8841  2.4274  1.0608
 4332SOL    MW417096   1.941   4.444   3.127  0.3910  0.1811 -0.0292
 4333SOL     OW17097   1.635   1.681   4.737 -0.4204 -0.0964  0.4171
 4333SOL    HW217098   1.546   1.651   4.755 -0.4317 -0.5289 -0.3189
 4333SOL    HW317099   1.631   1.721   4.650 -0.2473  1.4326  1.0724
 4333SOL    MW417100   1.623   1.683   4.728  0.4076  0.5482  0.1290
 4334SOL     OW17101   5.602   5.213   2.316  0.2677  0.7546  0.5420
 4334SOL    HW217102   5.640   5.225   2.229 -1.4706  0.3498 -0.3235
 4334SOL    HW317103   5.662   5.259   2.375  0.6332  2.4799 -1.0651
 4334SOL    MW417104   5.615   5.221   2.312 -0.5076 -0.1516 -0.0373
 4335SOL     OW17105   0.042   6.259   3.001  0.2541 -0.0104  0.2284
 4335SOL    HW217106   0.066   6.245   3.092 -2.9459  1.3184  1.4548
 4335SOL    HW317107  -0.005   6.180   2.976  1.2509 -0.4324 -0.3569
 4335SOL    MW417108   0.039   6.247   3.010  0.0924  0.5481 -0.2903
 4336SOL     OW17109   6.200   5.908   1.690  0.3952 -0.0713  0.1645
 4336SOL    HW217110   6.208   5.923   1.595 -2.3791 -0.0577 -0.1453
 4336SOL    HW317111   6.290   5.909   1.722  1.3604  0.8121 -2.3382
 4336SOL    MW417112   6.213   5.910   1.681  0.1587 -0.0500  0.3660
 4337SOL     OW17113   1.381   3.262   3.501  0.7161 -0.8324 -0.3087
 4337SOL    HW217114   1.465   3.303   3.481  0.0115 -0.2822 -2.3732
 4337SOL    HW317115   1.400   3.168   3.503  1.8949 -0.6242  2.1803
 4337SOL    MW417116   1.394   3.255   3.498  0.0420  0.5788 -0.2548
 4338SOL     OW17117   5.148   1.917   4.367 -0.2003  0.1147 -0.4778
 4338SOL    HW217118   5.209   1.987   4.389 -0.8126  0.7152 -0.6643
 4338SOL    HW317119   5.086   1.957   4.306  0.4009 -1.0374 -1.9099
 4338SOL    MW417120   5.148   1.931   4.362  0.0566 -0.2634 -0.4759
 4339SOL     OW17121   0.840   3.902   1.537  0.1071  0.2900  0.0687
 4339SOL    HW217122   0.816   3.832   1.597  0.1560 -0.7525 -1.0723
 4339SOL    HW317123   0.910   3.865   1.483  0.9342  1.6185  0.1684
 4339SOL    MW417124   0.846   3.888   1.538  0.2406 -0.0464 -0.0896
 4340SOL     OW17125   3.663   4.589   5.833 -0.2073 -0.2777  0.2147
 4340SOL    HW217126   3.734   4.652   5.823 -0.0200 -0.5927 -0.5211
 4340SOL    HW317127   3.585   4.637   5.806  0.1156 -0.7304 -1.6025
 4340SOL    MW417128   3.662   4.604   5.828 -0.1213 -0.0410 -0.3468
 4341SOL     OW17129   2.005   3.732   4.865  0.2640 -0.1034 -0.2797
 4341SOL    HW217130   1.927   3.681   4.841 -1.3021  1.6507  0.8611
 4341SOL    HW317131   2.047   3.680   4.933 -1.0985 -0.1124  0.5975
 4341SOL    MW417132   2.000   3.718   4.871  0.1300 -0.0338 -0.0700
 4342SOL     OW17133   1.307   4.631   4.934 -0.3863  0.4553 -0.7973
 4342SOL    HW217134   1.344   4.700   4.989  1.2402 -0.7413 -0.3168
 4342SOL    HW317135   1.214   4.631   4.956 -0.1464  1.4479  0.3522
 4342SOL    MW417136   1.300   4.640   4.944  0.2395 -0.3016 -0.1249
 4343SOL     OW17137   2.730   1.597   3.282 -0.2699  0.5602 -0.4618
 4343SOL    HW217138   2.787   1.663   3.322 -1.1582  1.4648 -0.6256
 4343SOL    HW317139   2.706   1.539   3.354  1.3103 -0.1864 -0.5106
 4343SOL    MW417140   2.734   1.598   3.297  0.4325 -0.3722 -0.0570
 4344SOL     OW17141   5.870   0.701   5.387  0.2605  0.3683  0.7681
 4344SOL    HW217142   5.853   0.795   5.398 -0.1622  0.2408  1.2393
 4344SOL    HW317143   5.805   0.673   5.323 -0.3763  0.1725  1.4859
 4344SOL    MW417144   5.859   0.710   5.380  0.3952 -0.1240 -0.4456
 4345SOL     OW17145   2.149   0.592   4.210  0.6119 -0.7628 -0.3795
 4345SOL    HW217146   2.215   0.661   4.212  0.9757 -1.1122 -0.2324
 4345SOL    HW317147   2.178   0.533   4.141  1.5301 -1.9564  0.9706
 4345SOL    MW417148   2.161   0.594   4.201 -0.1108  0.6124 -0.6760
 4346SOL     OW17149   2.009   4.415   3.761  0.0268 -0.9786 -0.3027
 4346SOL    HW217150   2.025   4.350   3.829  1.6861  0.3512  0.6491
 4346SOL    HW317151   1.930   4.461   3.791 -0.2569 -1.5319 -0.1849
 4346SOL    MW417152   2.000   4.412   3.774 -0.3019 -0.1510  0.2429
 4347SOL     OW17153   3.167   4.482   4.724  0.3386  0.2728 -0.2267
 4347SOL    HW217154   3.143   4.568   4.689  1.5706  0.0161 -1.7683
 4347SOL    HW317155   3.263   4.479   4.718  0.6145  0.0259  2.8063
 4347SOL    MW417156   3.177   4.493   4.719  0.0096 -0.2915  0.0780
 4348SOL     OW17157   5.714   1.514   1.125 -0.1045 -0.1607  0.2777
 4348SOL    HW217158   5.788   1.546   1.073 -1.1375  1.4966 -0.2535
 4348SOL    HW317159   5.667   1.594   1.151 -1.3886 -1.1425  1.0791
 4348SOL    MW417160   5.717   1.529   1.122 -0.6463  0.0715 -0.5597
 4349SOL     OW17161   1.251   0.075   0.378  0.2542  0.3155 -0.0988
 4349SOL    HW217162   1.182   0.141   0.386 -1.2752 -1.1292 -0.8725
 4349SOL    HW317163   1.219   0.013   0.313  2.6231 -0.0496 -1.0496
 4349SOL    MW417164   1.238   0.076   0.371  0.3394  0.3407 -0.4696
 4350SOL     OW17165   0.207   1.848   5.376  0.2389  0.2688 -0.5165
 4350SOL    HW217166   0.265   1.772   5.378 -0.3738 -0.2624  2.2269
 4350SOL    HW317167   0.263   1.921   5.348  1.2724 -0.8647 -1.4985
 4350SOL    MW417168   0.222   1.848   5.373  0.2637  0.3569  0.1045
 4351SOL     OW17169   1.167   1.936   5.192 -0.0584  0.8644  0.1919
 4351SOL    HW217170   1.215   1.859   5.160 -2.5595 -0.4428 -0.7288
 4351SOL    HW317171   1.112   1.901   5.263  0.2228  2.2735  1.1365
 4351SOL    MW417172   1.166   1.921   5.197  0.5788 -0.6961  0.4867
 4352SOL     OW17173   3.536   4.904   5.546 -0.1679 -0.5050 -0.0827
 4352SOL    HW217174   3.521   4.954   5.466  1.1841 -0.6229 -0.4237
 4352SOL    HW317175   3.602   4.839   5.523  0.4782 -0.3445  1.2020
 4352SOL    MW417176   3.543   4.902   5.533 -0.1354 -0.2505 -0.1434
 4353SOL     OW17177   4.401   2.397   5.736  0.4737 -0.3349  0.4935
 4353SOL    HW217178   4.373   2.344   5.810 -2.3506  2.2116  1.4574
 4353SOL    HW317179   4.376   2.347   5.658 -0.2090 -1.3077  1.3237
 4353SOL    MW417180   4.394   2.383   5.735  0.0788  0.3277 -0.0654
 4354SOL     OW17181   5.928   2.397   1.313  0.2800  0.2345  0.4025
 4354SOL    HW217182   5.914   2.466   1.248  2.8921  1.7726  1.3355
 4354SOL    HW317183   6.003   2.347   1.280  0.7765  0.1930  1.5444
 4354SOL    MW417184   5.936   2.399   1.300  0.1320  0.6472  0.2478
 4355SOL     OW17185   6.222   3.703   5.436  0.6205  0.2259  0.1030
 4355SOL    HW217186   6.190   3.721   5.524 -0.7417  1.6385 -0.6365
 4355SOL    HW317187   6.226   3.789   5.393  0.8627 -0.4663 -1.3338
 4355SOL    MW417188   6.218   3.717   5.442  0.3190 -0.8686  0.5304
 4356SOL     OW17189   1.961   3.131   1.419 -0.3176  0.2210  0.3417
 4356SOL    HW217190   1.935   3.047   1.457  1.3141 -0.2889  0.4053
 4356SOL    HW317191   2.015   3.173   1.486 -1.2894  1.4460  0.3996
 4356SOL    MW417192   1.965   3.126   1.432  0.4308  0.3386  0.2782
 4357SOL     OW17193   2.986   4.138   4.531 -0.1218  0.3650  0.2914
 4357SOL    HW217194   3.014   4.127   4.440  1.6335 -2.4370  1.0501
 4357SOL    HW317195   2.894   4.111   4.531 -0.5760  1.7804 -0.8439
 4357SOL    MW417196   2.978   4.133   4.519 -0.6742  0.6853 -0.5068
 4358SOL     OW17197   1.300   5.515   0.268  0.3062  0.0358 -0.4898
 4358SOL    HW217198   1.260   5.488   0.185  1.2995  0.0417 -0.9817
 4358SOL    HW317199   1.342   5.598   0.248  1.9820 -0.7689 -0.4475
 4358SOL    MW417200   1.300   5.522   0.254  0.0290 -0.3949  0.0297
 4359SOL     OW17201   5.563   4.128   5.927 -0.6336 -0.0570  0.4210
 4359SOL    HW217202   5.508   4.054   5.953 -3.6340  2.3259  1.3781
 4359SOL    HW317203   5.520   4.164   5.850  0.0455  1.4369  0.7111
 4359SOL    MW417204   5.550   4.123   5.920  0.4360 -0.0428  0.7019
 4360SOL     OW17205   5.745   2.884   1.573  0.3921 -0.5901  0.2628
 4360SOL    HW217206   5.715   2.962   1.620 -1.2151 -0.4779 -0.8554
 4360SOL    HW317207   5.689   2.881   1.495  2.7333 -0.9158 -1.5108
 4360SOL    MW417208   5.734   2.894   1.569  0.7237 -1.0403  0.1462
 4361SOL     OW17209   2.603   3.049   1.110 -0.4186  0.0901 -0.2235
 4361SOL    HW217210   2.662   3.020   1.180 -0.5017  1.0402  0.2642
 4361SOL    HW317211   2.631   3.139   1.092 -0.3792 -0.1521 -1.4510
 4361SOL    MW417212   2.615   3.057   1.117  0.2042  0.1910 -0.2425
 4362SOL     OW17213   5.817   2.681   6.263 -0.1850  0.1032  0.3382
 4362SOL    HW217214   5.755   2.610   6.245  0.9533 -0.7885 -0.2942
 4362SOL    HW317215   5.828   2.725   6.179  0.8770 -0.4873  0.1386
 4362SOL    MW417216   5.811   2.677   6.250  0.2958  0.2109  0.2293
 4363SOL     OW17217   5.783   1.494   4.641  0.5563  0.5743  0.1981
 4363SOL    HW217218   5.874   1.522   4.649  0.9621  0.4996 -2.8648
 4363SOL    HW317219   5.788   1.399   4.632  0.0655  0.4785  0.8539
 4363SOL    MW417220   5.796   1.485   4.641  0.3151 -0.2255 -0.1092
 4364SOL     OW17221   1.267   2.497   3.472  0.5433  0.0464  0.1556
 4364SOL    HW217222   1.253   2.585   3.508  1.0648  0.7708 -1.3026
 4364SOL    HW317223   1.286   2.442   3.548  1.0086  1.3723  1.0319
 4364SOL    MW417224   1.268   2.502   3.487 -0.1944  0.4587 -0.1615
 4365SOL     OW17225   1.144   2.621   1.817  0.1945 -0.5114  0.2928
 4365SOL    HW217226   1.181   2.532   1.810  0.7314 -0.1930 -1.6420
 4365SOL    HW317227   1.217   2.674   1.848  0.7085 -0.2986 -1.2123
 4365SOL    MW417228   1.159   2.616   1.820  0.3402  0.2145  0.5861
 4366SOL     OW17229   4.645   5.378   6.320 -0.0360  0.1122 -0.2473
 4366SOL    HW217230   4.690   5.434   6.383  1.4797 -0.5721 -0.6992
 4366SOL    HW317231   4.702   5.376   6.243 -0.4276 -1.4442 -0.5274
 4366SOL    MW417232   4.658   5.385   6.318 -0.5939 -0.5106  0.4860
 4367SOL     OW17233   1.719   6.176   3.375  0.3886  0.6388 -0.4272
 4367SOL    HW217234   1.653   6.203   3.439 -1.5802 -0.3196 -1.9454
 4367SOL    HW317235   1.751   6.092   3.407  0.4872  0.8447  0.0285
 4367SOL    MW417236   1.714   6.169   3.388 -0.2303  0.7436 -0.1370
 4368SOL     OW17237   2.575   1.925   5.320 -0.1585  0.1584  0.2411
 4368SOL    HW217238   2.524   1.849   5.292 -0.9865  1.2842 -1.4820
 4368SOL    HW317239   2.515   1.974   5.377 -0.1436  0.2466  0.1808
 4368SOL    MW417240   2.560   1.922   5.324 -1.3663 -0.5379 -0.1332
 4369SOL     OW17241   1.841   0.789   3.834  0.1233 -0.5179  0.0522
 4369SOL    HW217242   1.848   0.733   3.756 -1.9754 -1.2274  0.3198
 4369SOL    HW317243   1.884   0.739   3.903  0.4021 -0.6936 -0.2424
 4369SOL    MW417244   1.847   0.775   3.833  0.0356  0.3279 -0.1137
 4370SOL     OW17245   2.919   0.572   3.638  0.0543 -0.0408 -0.6302
 4370SOL    HW217246   2.978   0.642   3.667  0.2546 -1.2679  2.2523
 4370SOL    HW317247   2.876   0.542   3.718 -1.9942 -1.4853 -2.1642
 4370SOL    MW417248   2.921   0.577   3.653 -0.1773  0.4743 -0.1796
 4371SOL     OW17249   3.297   4.260   4.532 -0.1096 -0.4114 -0.5049
 4371SOL    HW217250   3.202   4.269   4.545 -0.0199 -0.4054  0.1891
 4371SOL    HW317251   3.306   4.198   4.460 -0.6607  0.7534 -1.6029
 4371SOL    MW417252   3.286   4.253   4.524 -0.5263 -0.0435  0.2934
 4372SOL     OW17253   0.025   0.717   1.435 -0.7421  0.1734  0.1791
 4372SOL    HW217254  -0.024   0.640   1.407  2.0763 -1.2040 -1.3794
 4372SOL    HW317255   0.023   0.776   1.359 -1.0374  0.6759  0.5711
 4372SOL    MW417256   0.018   0.715   1.421 -0.5430  0.0428 -0.6023
 4373SOL     OW17257   3.655   2.079   0.501  0.5553  0.1475 -0.0653
 4373SOL    HW217258   3.692   2.133   0.430 -0.5090 -0.9431 -1.4951
 4373SOL    HW317259   3.600   2.015   0.457 -0.8321 -0.0511  1.8172
 4373SOL    MW417260   3.653   2.078   0.486 -0.0721 -0.0984  0.3670
 4374SOL     OW17261   2.492   2.484   1.801 -0.3917 -0.1412 -0.6946
 4374SOL    HW217262   2.552   2.539   1.750 -0.4724  0.7727  0.1754
 4374SOL    HW317263   2.537   2.470   1.884 -1.5260  0.8546  0.1033
 4374SOL    MW417264   2.506   2.489   1.805  0.2795  0.2716  0.1995
 4375SOL     OW17265   4.867   2.685   5.221  0.2603  0.5745  0.3132
 4375SOL    HW217266   4.834   2.626   5.288 -0.3875  1.1739  0.5330
 4375SOL    HW317267   4.962   2.690   5.237 -0.0622  1.8997  2.1746
 4375SOL    MW417268   4.875   2.678   5.232 -0.5142  0.1058 -0.4708
 4376SOL     OW17269   1.634   0.031   4.639  0.1600 -0.0581 -0.2580
 4376SOL    HW217270   1.605  -0.038   4.699  0.5729  0.0249  0.0382
 4376SOL    HW317271   1.690   0.088   4.692  0.5412  0.0102 -0.7237
 4376SOL    MW417272   1.638   0.030   4.653 -0.2326  0.1608 -0.4199
 4377SOL     OW17273   6.331   3.643   3.213  0.0440  0.5785 -0.1224
 4377SOL    HW217274   6.283   3.656   3.295  0.1091 -1.2722  0.2526
 4377SOL    HW317275   6.264   3.645   3.145 -0.2782  0.2057  0.1821
 4377SOL    MW417276   6.316   3.645   3.215  0.2771  0.1620  0.2937
 4378SOL     OW17277   6.044   5.036   1.402  0.1075 -0.4932  0.0380
 4378SOL    HW217278   6.018   5.108   1.345  2.6695 -0.0798 -0.7395
 4378SOL    HW317279   6.017   4.957   1.355  0.6155 -0.1071 -0.9380
 4378SOL    MW417280   6.037   5.035   1.389 -0.0770  0.3627  0.0421
 4379SOL     OW17281   2.469   6.255   4.346 -0.3050  0.4941  0.0915
 4379SOL    HW217282   2.537   6.196   4.379 -0.6537  0.1163  0.1505
 4379SOL    HW317283   2.513   6.310   4.282 -0.2138 -0.6471 -0.8713
 4379SOL    MW417284   2.484   6.254   4.342  0.0274  0.1382 -0.1792
 4380SOL     OW17285   6.195   5.636   3.936  0.4857  0.1049  0.1932
 4380SOL    HW217286   6.131   5.647   3.865 -1.0066 -1.0272  1.2793
 4380SOL    HW317287   6.227   5.546   3.925 -1.6103 -0.9975  2.3058
 4380SOL    MW417288   6.191   5.625   3.925  0.0505 -0.0468 -0.3607
 4381SOL     OW17289   2.944   5.698   4.215  0.1400  0.3942 -0.0818
 4381SOL    HW217290   2.912   5.629   4.273  0.6009 -0.3455 -0.6844
 4381SOL    HW317291   2.978   5.765   4.273  0.5747 -0.3241  0.5093
 4381SOL    MW417292   2.944   5.698   4.230  0.3365 -0.0408 -0.0492
 4382SOL     OW17293   6.027   1.609   4.681  0.3156  0.3337 -0.7288
 4382SOL    HW217294   6.073   1.626   4.764  0.1650 -1.2732 -0.2881
 4382SOL    HW317295   6.091   1.561   4.629 -0.6184 -1.4088 -0.3312
 4382SOL    MW417296   6.042   1.605   4.685 -0.8094  0.1329  0.4348
 4383SOL     OW17297   3.523   5.739   0.624  0.2494  0.1347 -0.1157
 4383SOL    HW217298   3.546   5.820   0.668  1.3721 -0.5028  0.5286
 4383SOL    HW317299   3.561   5.670   0.678  0.1789 -0.7706 -1.1689
 4383SOL    MW417300   3.531   5.740   0.637 -0.0384 -0.1002  0.0889
 4384SOL     OW17301   6.205   0.491   4.571  0.5064 -0.1334 -0.0688
 4384SOL    HW217302   6.119   0.526   4.545 -0.0733  2.2297  4.0056
 4384SOL    HW317303   6.254   0.483   4.489 -3.0332 -0.0517 -2.4108
 4384SOL    MW417304   6.200   0.495   4.557  0.3392 -0.2978  0.2074
 4385SOL     OW17305   4.871   0.543   3.413  0.1299 -0.0061 -0.0107
 4385SOL    HW217306   4.868   0.509   3.323  1.3167  0.7907 -0.3676
 4385SOL    HW317307   4.817   0.622   3.410 -0.7200 -0.5609  0.2578
 4385SOL    MW417308   4.864   0.549   3.400 -0.3285  0.3938 -0.3261
 4386SOL     OW17309   5.347   0.813   4.631 -0.1860 -0.1899  0.5841
 4386SOL    HW217310   5.273   0.797   4.689 -0.5127 -0.7297  0.0286
 4386SOL    HW317311   5.371   0.727   4.597 -1.3200  0.2951 -1.6618
 4386SOL    MW417312   5.340   0.800   4.634  0.0826  0.3197  0.5433
 4387SOL     OW17313   3.602   3.253   4.493 -0.1328 -0.6184 -0.0838
 4387SOL    HW217314   3.634   3.182   4.437 -1.2499 -0.1479 -1.3764
 4387SOL    HW317315   3.537   3.211   4.549 -0.2835 -0.7526 -0.3571
 4387SOL    MW417316   3.598   3.238   4.493  0.0916  0.0875  0.8551
 4388SOL     OW17317   3.905   1.947   0.521  0.7679 -0.0924 -0.6530
 4388SOL    HW217318   3.822   1.979   0.485  1.8633  2.4723 -1.1312
 4388SOL    HW317319   3.948   1.902   0.448  0.4724 -0.0758 -0.8370
 4388SOL    MW417320   3.900   1.945   0.507 -0.4117 -0.4062  0.2078
 4389SOL     OW17321   0.960   3.754   4.200  0.3633  0.7035  0.2911
 4389SOL    HW217322   0.906   3.808   4.258  0.0479  1.3984 -0.6370
 4389SOL    HW317323   1.049   3.786   4.214  0.4600  0.0574  1.2704
 4389SOL    MW417324   0.965   3.765   4.210  0.3619  0.0501  0.3735
 4390SOL     OW17325   3.898   5.925   3.133  0.2455 -0.4435  0.5624
 4390SOL    HW217326   3.908   6.016   3.107  0.2076 -1.1412 -2.1348
 4390SOL    HW317327   3.984   5.885   3.115  0.5200 -0.8200  2.4638
 4390SOL    MW417328   3.911   5.931   3.127  0.1128 -0.2028  0.0878
 4391SOL     OW17329   5.709   1.751   6.013  0.3244  0.3915 -0.2484
 4391SOL    HW217330   5.670   1.777   5.930  0.2763  0.6068 -0.1599
 4391SOL    HW317331   5.794   1.795   6.015 -0.5422  2.1242  0.7458
 4391SOL    MW417332   5.715   1.760   6.002  0.2026  0.2819 -0.1490
 4392SOL     OW17333   1.588   5.385   3.308  0.3600  0.6066  0.0989
 4392SOL    HW217334   1.496   5.406   3.297  0.4153  0.9484  0.2775
 4392SOL    HW317335   1.608   5.409   3.399  0.4672 -0.0624  0.2622
 4392SOL    MW417336   1.579   5.391   3.319 -0.4841  0.3975  0.3075
 4393SOL     OW17337   0.951   3.549   6.041 -0.1511  0.7768  0.0676
 4393SOL    HW217338   0.901   3.492   6.100  1.4936 -0.1617  0.6145
 4393SOL    HW317339   0.975   3.492   5.967  1.0074  0.8878  0.3364
 4393SOL    MW417340   0.948   3.534   6.039  0.0003  0.3431 -0.2470
 4394SOL     OW17341   1.316   0.266   2.719  0.1156 -0.0062  0.3368
 4394SOL    HW217342   1.317   0.184   2.768  1.2931  1.0750  2.2491
 4394SOL    HW317343   1.389   0.258   2.657  1.3772  0.1946  1.7137
 4394SOL    MW417344   1.326   0.254   2.717  0.1407  0.0169 -0.1439
 4395SOL     OW17345   4.414   1.314   5.613  0.2977  0.2681  0.2220
 4395SOL    HW217346   4.436   1.221   5.609  1.1560  0.4998 -1.7394
 4395SOL    HW317347   4.444   1.349   5.529 -0.8460  2.1437  0.5462
 4395SOL    MW417348   4.421   1.306   5.602  1.0594  0.0783 -0.0009
 4396SOL     OW17349   4.987   1.815   0.948 -0.0725 -0.0210 -0.1863
 4396SOL    HW217350   4.960   1.789   1.036  1.7268  0.1963  0.4662
 4396SOL    HW317351   4.906   1.844   0.906 -1.3806 -2.4087  0.5402
 4396SOL    MW417352   4.973   1.816   0.954  0.0507 -0.4275  0.4050
 4397SOL     OW17353   1.576   2.327   4.164 -0.2783 -0.2152  0.1446
 4397SOL    HW217354   1.527   2.339   4.083 -0.1333  0.2447  0.1222
 4397SOL    HW317355   1.510   2.314   4.231 -0.4038 -0.4349 -0.0217
 4397SOL    MW417356   1.561   2.327   4.162  0.2068 -0.3865 -0.2919
 4398SOL     OW17357   3.416   2.868   5.758 -0.1923  0.0305 -0.3360
 4398SOL    HW217358   3.378   2.797   5.809 -2.1884  1.4323  0.2566
 4398SOL    HW317359   3.510   2.857   5.768 -0.4587 -1.8790  0.6069
 4398SOL    MW417360   3.423   2.857   5.766 -0.1598 -0.3763 -0.3186
 4399SOL     OW17361   0.413   5.407   0.421 -0.0840  0.5236 -0.3059
 4399SOL    HW217362   0.445   5.327   0.379  2.6135  0.6381  1.3030
 4399SOL    HW317363   0.426   5.475   0.355 -0.5880 -0.0626 -1.0198
 4399SOL    MW417364   0.419   5.405   0.407 -0.3192 -0.7452  0.2016
 4400SOL     OW17365   1.059   4.725   5.608 -0.2697  0.1056 -0.2642
 4400SOL    HW217366   0.967   4.753   5.611 -0.4431 -0.3019 -1.4411
 4400SOL    HW317367   1.108   4.802   5.635 -0.8801  0.7955 -1.0815
 4400SOL    MW417368   1.053   4.739   5.612  0.0701 -0.5912  0.2410
 4401SOL     OW17369   3.910   2.534   3.974  0.2311  0.2752 -0.0336
 4401SOL    HW217370   3.922   2.466   3.908  0.4068 -0.1021  0.3823
 4401SOL    HW317371   3.983   2.523   4.034 -0.4442 -0.0156  0.7673
 4401SOL    MW417372   3.921   2.523   3.974  0.2789 -0.1225  0.0491
 4402SOL     OW17373   3.906   0.447   2.243  0.4939  0.7534  0.6139
 4402SOL    HW217374   3.912   0.381   2.175 -0.4255  1.5868 -0.3187
 4402SOL    HW317375   3.977   0.509   2.224  0.3966  0.8500  0.5602
 4402SOL    MW417376   3.916   0.447   2.232  0.3118  0.5495  0.1236
 4403SOL     OW17377   3.342   1.096   2.831  0.0012  0.1657 -0.2096
 4403SOL    HW217378   3.387   1.175   2.859 -0.5096  0.1941  0.5503
 4403SOL    HW317379   3.360   1.032   2.901 -1.3895  0.2731  0.2720
 4403SOL    MW417380   3.351   1.098   2.844 -0.1193  0.5018 -0.2800
 4404SOL     OW17381   3.947   5.057   0.307  0.3498  0.1029 -0.3644
 4404SOL    HW217382   3.929   4.970   0.342  0.4248  0.1117 -0.3050
 4404SOL    HW317383   3.918   5.117   0.375 -1.3925  0.1828 -1.1122
 4404SOL    MW417384   3.941   5.053   0.320 -0.1821 -0.2064 -0.6387
 4405SOL     OW17385   3.040   5.250   2.111 -0.0317 -0.0450 -0.4357
 4405SOL    HW217386   3.068   5.341   2.106  1.6417 -0.3881  1.3768
 4405SOL    HW317387   2.946   5.254   2.132  0.3333  1.2983  1.1023
 4405SOL    MW417388   3.031   5.263   2.113 -0.2501 -0.1467  0.2944
 4406SOL     OW17389   5.008   4.635   2.319  0.1109 -0.5373  0.0039
 4406SOL    HW217390   4.913   4.624   2.325  0.0958  0.0243  0.9116
 4406SOL    HW317391   5.022   4.667   2.229 -0.5627 -0.5466 -0.1106
 4406SOL    MW417392   4.997   4.638   2.308 -0.5211  0.1422  0.1464
 4407SOL     OW17393   5.299   3.835   3.512  0.3694 -0.3900  0.3126
 4407SOL    HW217394   5.390   3.811   3.528  0.0466 -0.4708  2.2218
 4407SOL    HW317395   5.303   3.892   3.435  1.9294 -1.0092 -0.1105
 4407SOL    MW417396   5.312   3.840   3.504  0.1889 -0.2456  0.3792
 4408SOL     OW17397   1.713   2.891   4.758  0.4427  0.4171  0.1331
 4408SOL    HW217398   1.730   2.896   4.852  2.1426  1.1840 -0.1729
 4408SOL    HW317399   1.778   2.828   4.726  1.0387  1.4591 -0.7590
 4408SOL    MW417400   1.724   2.883   4.766 -0.5128 -0.5709 -0.4130
 4409SOL     OW17401   6.355   1.108   3.126  0.0351  0.0805  0.1647
 4409SOL    HW217402   6.447   1.084   3.115 -0.2925 -1.3206  0.3161
 4409SOL    HW317403   6.310   1.025   3.143 -1.5919  0.4373 -2.0069
 4409SOL    MW417404   6.361   1.094   3.127 -0.5728 -0.5023  0.4361
 4410SOL     OW17405   4.252   5.035   3.712  0.0637  0.4929 -0.1827
 4410SOL    HW217406   4.316   5.087   3.762  0.8316  0.2723 -0.9190
 4410SOL    HW317407   4.169   5.079   3.727  0.4376  0.9935  0.5083
 4410SOL    MW417408   4.250   5.048   3.721 -0.2128  0.0241  0.2254
 4411SOL     OW17409   0.145   2.489   5.740  0.5590  0.1858  0.2694
 4411SOL    HW217410   0.053   2.509   5.759  0.3624  0.5820 -1.0195
 4411SOL    HW317411   0.150   2.393   5.748 -0.2187  0.0539 -0.6142
 4411SOL    MW417412   0.133   2.479   5.743  0.8388 -0.0904 -0.2809
 4412SOL     OW17413   3.293   3.582   0.728  0.3326  0.6514  0.5513
 4412SOL    HW217414   3.237   3.504   0.730 -0.1651  1.0153  1.4390
 4412SOL    HW317415   3.362   3.561   0.665  0.6335 -0.7934  1.3241
 4412SOL    MW417416   3.295   3.569   0.720  0.6018  0.1174 -0.4424
 4413SOL     OW17417   0.167   4.032   0.606  0.2385  0.3102 -0.7209
 4413SOL    HW217418   0.110   3.993   0.539 -0.4409 -1.5194  0.8456
 4413SOL    HW317419   0.124   4.115   0.627  0.2316  0.7199 -2.2124
 4413SOL    MW417420   0.153   4.038   0.600  1.3004 -0.3713 -0.3632
 4414SOL     OW17421   3.075   3.452   1.331 -0.2475 -0.5987  0.9770
 4414SOL    HW217422   3.165   3.462   1.362  0.2394  0.6108 -0.7121
 4414SOL    HW317423   3.029   3.529   1.362  0.1956  0.5261 -0.9776
 4414SOL    MW417424   3.081   3.463   1.339  0.0295 -0.5028 -0.6758
 4415SOL     OW17425   6.325   2.150   2.611  0.2909 -0.2426  0.2471
 4415SOL    HW217426   6.368   2.210   2.549  2.3206 -1.9934 -0.1659
 4415SOL    HW317427   6.276   2.207   2.670  1.6053  1.7618 -0.4983
 4415SOL    MW417428   6.324   2.166   2.610  0.1827 -0.5956  0.4037
 4416SOL     OW17429   4.779   5.503   1.883 -0.4241  0.1431  0.8096
 4416SOL    HW217430   4.824   5.551   1.953  0.1662 -0.8179  1.1202
 4416SOL    HW317431   4.850   5.468   1.830 -0.7907 -1.1569  1.1346
 4416SOL    MW417432   4.795   5.504   1.886  0.5305 -0.3937 -0.2955
 4417SOL     OW17433   2.713   3.690   1.133  0.0821 -0.3013 -0.5630
 4417SOL    HW217434   2.796   3.669   1.090  1.6650 -2.3986  3.0607
 4417SOL    HW317435   2.736   3.756   1.199 -1.4959  0.3546 -0.6280
 4417SOL    MW417436   2.727   3.696   1.136 -0.2513 -0.1255  0.4055
 4418SOL     OW17437   1.101   0.126   6.316  0.2072  0.2354 -0.2978
 4418SOL    HW217438   1.083   0.062   6.384  0.7910  0.7168  0.3354
 4418SOL    HW317439   1.191   0.107   6.289 -0.5723 -1.0314 -2.1614
 4418SOL    MW417440   1.111   0.115   6.322  0.2502  0.2661 -0.2244
 4419SOL     OW17441   3.146   1.925   3.992  0.1835 -0.8086  0.1589
 4419SOL    HW217442   3.135   1.919   3.897  1.5504 -0.7252 -0.0186
 4419SOL    HW317443   3.089   1.997   4.018  0.2937 -0.4021 -0.6907
 4419SOL    MW417444   3.137   1.934   3.983 -0.2199  0.5639 -0.3686
 4420SOL     OW17445   2.566   4.056   1.396  0.2624  0.0587  0.3639
 4420SOL    HW217446   2.624   3.982   1.415 -0.6127 -0.4299  1.2350
 4420SOL    HW317447   2.506   4.059   1.471 -2.4492 -1.0471 -1.5986
 4420SOL    MW417448   2.566   4.046   1.409  0.1830 -0.5202  0.1506
 4421SOL     OW17449   2.634   0.175   1.792 -0.3438 -0.6400  1.0577
 4421SOL    HW217450   2.595   0.150   1.876 -1.3158 -2.6740  0.0832
 4421SOL    HW317451   2.686   0.098   1.767  0.0966  0.0217 -0.1073
 4421SOL    MW417452   2.636   0.161   1.800 -1.0545  0.3179 -0.2247
 4422SOL     OW17453   2.576   4.049   0.966  0.1454  0.3101  0.6300
 4422SOL    HW217454   2.533   3.986   1.024 -0.8810  0.1415 -0.2697
 4422SOL    HW317455   2.660   4.008   0.945 -0.1429 -0.3639  0.7478
 4422SOL    MW417456   2.581   4.035   0.971 -0.1048  0.3542  1.0980
 4423SOL     OW17457   5.543   2.170   3.872 -0.2986  0.2036 -0.1385
 4423SOL    HW217458   5.631   2.140   3.848  0.6935  2.0626  0.9544
 4423SOL    HW317459   5.530   2.249   3.819 -0.8151  0.5832  0.5361
 4423SOL    MW417460   5.553   2.177   3.862  0.4050 -0.3977  0.5071
 4424SOL     OW17461   2.740   3.581   5.741  0.4426  0.3109 -0.1070
 4424SOL    HW217462   2.681   3.584   5.816  0.3813  1.1481 -0.1779
 4424SOL    HW317463   2.692   3.626   5.671  0.9862  0.6025 -0.2924
 4424SOL    MW417464   2.726   3.587   5.741 -0.0355  0.7560 -0.3092
 4425SOL     OW17465   3.546   4.186   5.032  0.4273 -0.4872 -0.0233
 4425SOL    HW217466   3.510   4.184   4.944 -1.1943  0.1305  0.5728
 4425SOL    HW317467   3.485   4.242   5.081 -0.6355 -3.3924  2.2590
 4425SOL    MW417468   3.533   4.193   5.027  0.4210 -0.4590  0.7230
 4426SOL     OW17469   4.089   5.643   4.156  0.2382  0.1959  0.0601
 4426SOL    HW217470   4.075   5.574   4.221 -1.1621  0.7004  0.3348
 4426SOL    HW317471   4.039   5.615   4.080 -0.7509  1.1122  0.3459
 4426SOL    MW417472   4.081   5.630   4.155 -0.4883 -0.3285 -0.0565
 4427SOL     OW17473   1.318   5.355   3.244  0.7133 -0.4182 -0.1215
 4427SOL    HW217474   1.267   5.274   3.248 -0.7644  0.3696 -1.6250
 4427SOL    HW317475   1.255   5.424   3.265  1.0604  0.6078 -2.2013
 4427SOL    MW417476   1.303   5.354   3.247 -0.5142 -0.2164  0.0660
 4428SOL     OW17477   2.180   0.963   0.387 -0.2342  0.1119  0.2800
 4428SOL    HW217478   2.243   1.025   0.349  0.3465 -0.5305  0.1701
 4428SOL    HW317479   2.122   1.017   0.440  0.0489  0.7947 -0.0928
 4428SOL    MW417480   2.181   0.978   0.389 -0.1317 -0.5382 -0.1924
 4429SOL     OW17481   1.395   5.263   5.224 -0.8520  0.1870  0.2016
 4429SOL    HW217482   1.308   5.300   5.235 -1.2000 -0.6330  0.3249
 4429SOL    HW317483   1.451   5.311   5.285 -0.9900  1.4331 -0.6273
 4429SOL    MW417484   1.391   5.274   5.233 -0.1675 -0.0429 -0.1421
 4430SOL     OW17485   0.318   1.383   2.683 -0.1240 -0.2465 -0.1498
 4430SOL    HW217486   0.291   1.461   2.731  0.8016  0.8392 -1.3342
 4430SOL    HW317487   0.317   1.410   2.591 -1.4409 -2.1408 -0.7482
 4430SOL    MW417488   0.314   1.397   2.677 -0.8126  0.5609  1.2014
 4431SOL     OW17489   4.740   0.977   1.976 -0.1860  0.5084 -0.4826
 4431SOL    HW217490   4.695   0.900   1.941 -0.7507  0.3198  0.5994
 4431SOL    HW317491   4.806   0.999   1.910 -0.8374 -0.1517 -1.3767
 4431SOL    MW417492   4.743   0.970   1.963  0.1892  0.1680  0.0872
 4432SOL     OW17493   1.931   1.831   1.900 -0.2377 -0.2797 -0.4077
 4432SOL    HW217494   1.920   1.874   1.985 -1.7135 -0.3056 -0.5564
 4432SOL    HW317495   2.008   1.873   1.862  0.0764  0.1690  0.6799
 4432SOL    MW417496   1.940   1.843   1.907 -0.4817  0.4286 -0.2242
 4433SOL     OW17497   3.212   1.081   6.291 -0.0464 -0.5548 -0.3523
 4433SOL    HW217498   3.210   1.091   6.387 -0.8186  0.9417 -0.4910
 4433SOL    HW317499   3.122   1.055   6.269  0.6295 -2.9087 -0.5186
 4433SOL    MW417500   3.200   1.079   6.301  0.1969 -0.7490  0.0385
 4434SOL     OW17501   0.275   6.201   3.733  0.6433 -0.6205 -0.6803
 4434SOL    HW217502   0.342   6.243   3.680  0.8899 -0.1939 -0.0420
 4434SOL    HW317503   0.232   6.273   3.779  0.7855 -1.0220  0.1026
 4434SOL    MW417504   0.278   6.216   3.732  0.2056  0.2110  0.3042
 4435SOL     OW17505   0.536   4.436   3.023 -0.3231 -0.8607 -0.1400
 4435SOL    HW217506   0.453   4.456   2.979 -0.3340 -0.6537 -0.0260
 4435SOL    HW317507   0.520   4.456   3.115  0.4413  1.0980 -0.3735
 4435SOL    MW417508   0.523   4.442   3.029  0.3650  0.2222  0.1078
 4436SOL     OW17509   3.203   5.656   4.111 -0.4172  0.4992  0.4157
 4436SOL    HW217510   3.194   5.702   4.027  1.1791 -0.1563 -0.1677
 4436SOL    HW317511   3.129   5.686   4.163 -1.7219  0.5867 -1.3829
 4436SOL    MW417512   3.192   5.666   4.107  0.2435  0.7289 -0.4253
 4437SOL     OW17513   2.004   1.210   4.439 -0.6167  0.1972  0.4398
 4437SOL    HW217514   2.004   1.144   4.369 -1.3118  0.6683 -0.0110
 4437SOL    HW317515   2.086   1.194   4.486 -0.3578 -0.4222 -0.1982
 4437SOL    MW417516   2.015   1.199   4.436  0.3970  0.5388 -0.0446
 4438SOL     OW17517   5.893   0.053   5.009  0.5873 -0.0444  0.2020
 4438SOL    HW217518   5.853   0.129   4.968 -0.3003 -1.5382 -1.8596
 4438SOL    HW317519   5.819   0.005   5.047  0.8244 -1.0222 -0.5265
 4438SOL    MW417520   5.878   0.056   5.009  0.1697 -0.2389 -0.0950
 4439SOL     OW17521   6.363   5.872   4.596  0.2290  0.1051 -0.2003
 4439SOL    HW217522   6.332   5.958   4.627 -2.4534 -0.0340 -2.0823
 4439SOL    HW317523   6.380   5.886   4.502  1.8699 -0.9412 -0.0883
 4439SOL    MW417524   6.361   5.885   4.587 -0.1434 -0.5098  0.0411
 4440SOL     OW17525   6.421   0.428   1.729  0.1037 -0.0033  0.2664
 4440SOL    HW217526   6.436   0.516   1.764  0.3172  0.2220 -0.3764
 4440SOL    HW317527   6.326   0.424   1.715 -0.1265 -0.4736  1.8354
 4440SOL    MW417528   6.410   0.439   1.732  0.5285 -0.6051  0.0745
 4441SOL     OW17529   1.351   2.199   3.185 -0.5945  0.2205  0.5770
 4441SOL    HW217530   1.298   2.200   3.106  0.5315  1.2963 -0.2134
 4441SOL    HW317531   1.356   2.106   3.210 -0.2001 -0.2768 -1.1751
 4441SOL    MW417532   1.345   2.187   3.178 -0.0673  0.5124 -0.4321
 4442SOL     OW17533   4.099   6.179   2.015  0.2988 -0.4238 -0.1548
 4442SOL    HW217534   4.010   6.156   2.042 -0.4111  1.4410 -0.7370
 4442SOL    HW317535   4.087   6.226   1.932  1.7568  0.4486  0.0960
 4442SOL    MW417536   4.085   6.182   2.008 -0.2320 -0.3108  1.0055
 4443SOL     OW17537   2.076   4.424   0.149 -0.1099 -0.3657  0.3030
 4443SOL    HW217538   2.093   4.407   0.242 -0.6133 -0.1086  0.4416
 4443SOL    HW317539   1.982   4.436   0.143 -0.2202 -1.4162 -0.4079
 4443SOL    MW417540   2.066   4.423   0.160 -0.0471 -0.4342  0.2837
 4444SOL     OW17541   0.237   5.604   6.030  0.2853  0.4148  0.1021
 4444SOL    HW217542   0.214   5.579   5.941  2.0507 -0.0549 -0.2509
 4444SOL    HW317543   0.230   5.523   6.081 -1.2919  0.7927  0.5641
 4444SOL    MW417544   0.233   5.590   6.025  0.0085  0.0068 -0.2111
 4445SOL     OW17545   2.752   5.796   1.323  0.6691  0.0062 -0.1016
 4445SOL    HW217546   2.815   5.738   1.279  0.7191  1.4034 -2.0042
 4445SOL    HW317547   2.694   5.736   1.370  2.6761 -1.3854  0.7315
 4445SOL    MW417548   2.752   5.780   1.323  0.3418 -0.7051  0.0191
 4446SOL     OW17549   5.785   5.706   5.718  0.3440  0.1671  0.2539
 4446SOL    HW217550   5.708   5.685   5.665 -0.1231  1.1372  0.5325
 4446SOL    HW317551   5.777   5.650   5.795  0.5336 -0.5680 -0.2494
 4446SOL    MW417552   5.774   5.696   5.721  0.6649 -0.3039 -0.4819
 4447SOL     OW17553   4.246   0.282   6.212 -0.3422  0.3773  0.2003
 4447SOL    HW217554   4.302   0.300   6.137 -1.3896  0.7857 -0.5033
 4447SOL    HW317555   4.162   0.256   6.174 -1.3452  1.9600  1.2023
 4447SOL    MW417556   4.242   0.281   6.197 -0.3516  0.0473 -0.1388
 4448SOL     OW17557   0.377   1.699   1.369  0.2068  0.2673  0.7171
 4448SOL    HW217558   0.409   1.680   1.457  0.6736 -0.7690  0.3316
 4448SOL    HW317559   0.372   1.795   1.366  0.2918  0.3197  1.8260
 4448SOL    MW417560   0.380   1.709   1.380 -0.2457 -0.0245  0.2462
 4449SOL     OW17561   0.003   3.379   3.205 -0.3290 -0.1553  0.5397
 4449SOL    HW217562  -0.045   3.460   3.185  1.0078  0.3768 -0.6180
 4449SOL    HW317563   0.058   3.403   3.280  1.6284  0.6865 -1.0991
 4449SOL    MW417564   0.004   3.393   3.212 -0.3320  0.4323  0.0201
 4450SOL     OW17565   1.883   2.132   3.504 -0.4426  0.1369 -0.3335
 4450SOL    HW217566   1.849   2.170   3.423  1.6562 -0.9621 -1.8120
 4450SOL    HW317567   1.969   2.098   3.481 -0.6059 -2.0404  1.8565
 4450SOL    MW417568   1.890   2.133   3.490 -0.1118  0.1811  0.3211
 4451SOL     OW17569   4.493   3.491   3.675 -0.1884 -0.3672  0.4792
 4451SOL    HW217570   4.460   3.552   3.609 -0.9376  0.4149  1.5263
 4451SOL    HW317571   4.415   3.463   3.723  0.2043 -1.8147  0.3094
 4451SOL    MW417572   4.478   3.495   3.673  0.3736  0.5274 -0.7128
 4452SOL     OW17573   3.603   0.749   5.434  0.2901 -0.3171  0.2599
 4452SOL    HW217574   3.550   0.781   5.361  0.1038  0.5978  0.7735
 4452SOL    HW317575   3.673   0.699   5.393 -0.3908 -0.6940 -0.4830
 4452SOL    MW417576   3.605   0.747   5.419 -0.1219 -0.3948  0.3413
 4453SOL     OW17577   0.459   4.920   6.366 -0.0233  0.2823 -0.4898
 4453SOL    HW217578   0.553   4.929   6.346 -0.1322  1.0458 -0.6754
 4453SOL    HW317579   0.457   4.860   6.440  0.6898  1.0745  0.1945
 4453SOL    MW417580   0.471   4.913   6.373  0.1384 -0.2932 -0.5432
 4454SOL     OW17581   2.729   4.723   1.408 -0.5063 -0.0459  0.2658
 4454SOL    HW217582   2.801   4.760   1.357 -1.5788 -0.0520 -1.2941
 4454SOL    HW317583   2.746   4.629   1.408 -0.8666 -0.1200 -0.6903
 4454SOL    MW417584   2.741   4.715   1.401 -0.2516  0.4011 -0.1824
 4455SOL     OW17585   0.556   5.357   1.573 -0.1066 -0.0645 -0.1675
 4455SOL    HW217586   0.541   5.411   1.650  1.9438 -0.6803  0.7441
 4455SOL    HW317587   0.544   5.416   1.498  1.3189  1.4762  0.7689
 4455SOL    MW417588   0.552   5.372   1.573  0.0130 -0.6522  0.1117
 4456SOL     OW17589   2.764   1.630   5.527 -0.2592  0.0700  0.5017
 4456SOL    HW217590   2.779   1.536   5.520  1.0565  0.2985  0.0607
 4456SOL    HW317591   2.695   1.639   5.593  0.4877 -1.1298  1.4681
 4456SOL    MW417592   2.757   1.619   5.535 -0.1571 -0.0532 -0.3204
 4457SOL     OW17593   1.379   1.059   1.105  0.0962 -0.1488  0.0774
 4457SOL    HW217594   1.367   0.992   1.037 -0.5652 -0.1027  0.1394
 4457SOL    HW317595   1.409   1.136   1.057  0.8117 -0.4704 -0.0011
 4457SOL    MW417596   1.381   1.060   1.089  0.3378  0.5318  0.2787
 4458SOL     OW17597   2.363   2.671   5.850  0.4793 -0.0722 -0.0677
 4458SOL    HW217598   2.393   2.609   5.782  1.1141  0.0109  0.1238
 4458SOL    HW317599   2.440   2.726   5.867 -0.7431  2.4002 -1.9749
 4458SOL    MW417600   2.377   2.670   5.843  0.0169 -0.4233  0.5486
 4459SOL     OW17601   1.716   0.981   1.071  0.6054 -0.1074  0.0385
 4459SOL    HW217602   1.706   0.888   1.052  1.4937 -0.4873  1.2753
 4459SOL    HW317603   1.643   1.023   1.025 -0.2300 -1.4871  0.0370
 4459SOL    MW417604   1.705   0.974   1.063 -0.3156  0.5720  0.4598
 4460SOL     OW17605   2.989   4.144   6.384 -0.2264 -0.1411 -0.0188
 4460SOL    HW217606   3.071   4.119   6.425  0.0393  0.7056 -0.0206
 4460SOL    HW317607   2.925   4.079   6.416  0.1881 -0.1121  0.8911
 4460SOL    MW417608   2.991   4.132   6.393  0.3880 -0.0028  0.6273
 4461SOL     OW17609   1.861   0.575   6.404  0.4905 -0.4509 -0.1575
 4461SOL    HW217610   1.827   0.583   6.314  0.6540 -1.4423 -0.3146
 4461SOL    HW317611   1.784   0.552   6.456  0.3276  0.4734  0.0256
 4461SOL    MW417612   1.846   0.573   6.399 -0.9381  0.1010  0.7158
 4462SOL     OW17613   5.875   4.716   5.488  0.4994 -0.3974  0.2550
 4462SOL    HW217614   5.870   4.625   5.458 -0.2919 -0.6244  1.0385
 4462SOL    HW317615   5.792   4.755   5.458  1.7643  0.7363 -2.1024
 4462SOL    MW417616   5.863   4.709   5.480 -0.4450  0.9740  0.5066
 4463SOL     OW17617   3.879   3.891   3.243  0.4767 -0.1501  0.2354
 4463SOL    HW217618   3.913   3.817   3.293  0.1586 -0.8277 -0.5370
 4463SOL    HW317619   3.785   3.876   3.237  0.6502 -0.7536 -1.6079
 4463SOL    MW417620   3.871   3.880   3.249  0.8198 -0.3146  0.4860
 4464SOL     OW17621   3.026   2.755   6.078 -0.1514  0.3158  0.2538
 4464SOL    HW217622   3.017   2.758   5.983  0.1144 -0.1612  0.2122
 4464SOL    HW317623   3.106   2.705   6.094  0.7299  1.8079  0.7011
 4464SOL    MW417624   3.035   2.749   6.068 -0.2450  0.3449 -0.5543
 4465SOL     OW17625   0.437   4.344   1.467 -0.0599  0.1192 -0.1727
 4465SOL    HW217626   0.420   4.432   1.432  0.0612 -0.1372 -0.8694
 4465SOL    HW317627   0.424   4.285   1.393  1.8041 -0.2908 -0.2321
 4465SOL    MW417628   0.433   4.348   1.453 -0.1472  0.4183  0.1270
 4466SOL     OW17629   5.522   0.850   6.139  0.0703 -0.6638 -0.5218
 4466SOL    HW217630   5.567   0.782   6.190 -0.5802 -0.3815  0.4487
 4466SOL    HW317631   5.593   0.907   6.108  0.4098  0.0176  1.3469
 4466SOL    MW417632   5.537   0.849   6.142  0.8175  0.4055  0.3416
 4467SOL     OW17633   4.593   3.054   0.822 -0.0551  0.6865 -0.8941
 4467SOL    HW217634   4.650   2.977   0.832  0.1835  0.9225 -0.3707
 4467SOL    HW317635   4.596   3.096   0.908 -0.8205  0.8441 -0.9429
 4467SOL    MW417636   4.601   3.049   0.835  0.1110 -0.4736 -0.3707
 4468SOL     OW17637   2.559   1.173   1.762 -0.2743 -0.3984 -0.1011
 4468SOL    HW217638   2.486   1.216   1.718  0.8241  0.0116 -1.6017
 4468SOL    HW317639   2.522   1.090   1.795 -1.1511 -0.7295 -1.8137
 4468SOL    MW417640   2.545   1.167   1.761  0.8713  0.3424  0.1780
 4469SOL     OW17641   3.817   4.529   3.586 -0.1538 -0.2597 -0.2645
 4469SOL    HW217642   3.840   4.460   3.648  3.0308  2.5059  2.0139
 4469SOL    HW317643   3.873   4.513   3.511  0.7817 -0.0523  0.3702
 4469SOL    MW417644   3.827   4.518   3.585  0.5770  0.4061  0.1185
 4470SOL     OW17645   4.424   3.653   0.524  0.1908 -0.1201  0.5940
 4470SOL    HW217646   4.515   3.655   0.494  0.2255  1.0022  0.7361
 4470SOL    HW317647   4.375   3.615   0.450  1.0303 -2.9134  1.3434
 4470SOL    MW417648   4.429   3.648   0.510  0.2144 -0.2992 -0.2939
 4471SOL     OW17649   3.017   4.218   3.961  0.0495 -0.2110  0.7846
 4471SOL    HW217650   2.979   4.255   3.881  1.4353 -0.4084 -0.0109
 4471SOL    HW317651   2.976   4.132   3.969  1.4918 -1.1433 -1.0190
 4471SOL    MW417652   3.007   4.212   3.952 -0.2469 -0.4146  0.0076
 4472SOL     OW17653   2.807   4.188   1.310 -0.5526  0.3843  0.8535
 4472SOL    HW217654   2.836   4.124   1.246  0.4183  0.2168  1.4335
 4472SOL    HW317655   2.723   4.154   1.343 -1.7310  1.1276 -1.2041
 4472SOL    MW417656   2.800   4.175   1.306 -0.1838  0.1697 -0.2075
 4473SOL     OW17657   6.253   4.084   3.254 -0.6320  0.0445 -0.0992
 4473SOL    HW217658   6.193   4.105   3.183 -3.5231 -1.1879  1.7717
 4473SOL    HW317659   6.327   4.143   3.242 -1.9333  1.2741 -2.9089
 4473SOL    MW417660   6.254   4.094   3.243  1.0229  0.2063 -0.1087
 4474SOL     OW17661   3.142   5.150   3.467 -0.0566 -0.2570 -0.5766
 4474SOL    HW217662   3.217   5.175   3.520 -0.4776 -0.9985  0.3962
 4474SOL    HW317663   3.099   5.233   3.446 -0.7713  0.0057  1.6050
 4474SOL    MW417664   3.146   5.164   3.471 -0.8348 -0.3557 -0.4748
 4475SOL     OW17665   3.838   3.024   5.697  0.4486  0.5314 -0.0425
 4475SOL    HW217666   3.793   3.108   5.686  0.7398  0.4932 -1.7858
 4475SOL    HW317667   3.914   3.031   5.639  1.1646 -0.4661  0.7583
 4475SOL    MW417668   3.842   3.036   5.688  0.1987  0.3555  0.0151
 4476SOL     OW17669   0.307   1.953   4.206 -0.2131 -0.2811 -0.3226
 4476SOL    HW217670   0.299   1.866   4.168  1.0940 -1.3593  1.6925
 4476SOL    HW317671   0.395   1.982   4.181 -1.0759  1.0097 -1.9848
 4476SOL    MW417672   0.318   1.945   4.198 -0.3767 -0.3629 -0.1291
 4477SOL     OW17673   3.292   5.877   5.363 -0.1580  0.3588  0.1981
 4477SOL    HW217674   3.352   5.869   5.289 -0.4525  0.8705 -0.1028
 4477SOL    HW317675   3.336   5.936   5.423  0.4312 -0.6683  0.7985
 4477SOL    MW417676   3.306   5.884   5.361 -0.2982  0.1857 -0.5600
 4478SOL     OW17677   1.344   1.518   4.291 -0.2200 -0.4601 -0.3823
 4478SOL    HW217678   1.334   1.476   4.377  2.3346 -2.0241 -0.7312
 4478SOL    HW317679   1.256   1.519   4.255 -1.1496 -1.0299  1.6995
 4478SOL    MW417680   1.331   1.512   4.298 -0.3688  0.2455 -0.3507
 4479SOL     OW17681   1.829   1.076   5.068  0.1008 -0.2222  0.2305
 4479SOL    HW217682   1.798   1.072   4.978  4.3807  0.3646 -1.4966
 4479SOL    HW317683   1.851   0.986   5.091  0.3585 -0.1789  0.1524
 4479SOL    MW417684   1.828   1.064   5.059  0.0699  0.0032 -0.4766
 4480SOL     OW17685   3.520   4.170   4.746  0.1877 -0.2522 -0.2062
 4480SOL    HW217686   3.463   4.212   4.682  1.1562  2.9751  0.8751
 4480SOL    HW317687   3.496   4.077   4.742 -3.6243  0.6052 -1.3086
 4480SOL    MW417688   3.509   4.163   4.737 -0.2522 -0.3146  0.4534
 4481SOL     OW17689   3.190   0.978   0.882 -0.4437 -0.4444  0.0181
 4481SOL    HW217690   3.190   1.047   0.948  0.0978  0.4589 -0.9092
 4481SOL    HW317691   3.260   0.918   0.910  1.1793  0.9853 -0.7664
 4481SOL    MW417692   3.199   0.979   0.895  0.0129 -0.4125 -0.9422
 4482SOL     OW17693   1.754   6.222   1.366  0.8922  0.0281  0.4850
 4482SOL    HW217694   1.710   6.268   1.294 -0.1056 -1.2438  0.2439
 4482SOL    HW317695   1.718   6.261   1.446  0.4841  0.0519  0.2893
 4482SOL    MW417696   1.744   6.233   1.367 -0.1809  0.7798 -0.4756
 4483SOL     OW17697   3.848   4.340   5.975  0.2842  0.0835  0.2528
 4483SOL    HW217698   3.891   4.370   5.895  0.2501 -0.9863 -0.1697
 4483SOL    HW317699   3.799   4.417   6.005  0.2737  0.4903 -0.7634
 4483SOL    MW417700   3.847   4.354   5.969  0.2210 -0.9690  0.4270
 4484SOL     OW17701   0.630   3.396   4.818 -0.7387 -0.1537  0.0696
 4484SOL    HW217702   0.557   3.354   4.772 -0.8873 -0.2991  0.4254
 4484SOL    HW317703   0.680   3.323   4.854 -0.5530 -0.0467  0.0251
 4484SOL    MW417704   0.627   3.381   4.817  0.8807  0.1627  0.5312
 4485SOL     OW17705   3.526   4.972   5.982 -0.6529 -0.0929 -0.0590
 4485SOL    HW217706   3.495   4.882   5.992 -3.1940  0.7513  0.4374
 4485SOL    HW317707   3.530   5.006   6.071 -1.6763  0.8427 -0.3475
 4485SOL    MW417708   3.522   4.965   5.995 -0.1450 -0.2715 -0.1267
 4486SOL     OW17709   2.780   4.854   0.223  0.2052 -0.3426  0.1985
 4486SOL    HW217710   2.844   4.825   0.158 -0.5185 -1.3014 -0.1160
 4486SOL    HW317711   2.709   4.891   0.172 -0.9621 -2.2811  0.3164
 4486SOL    MW417712   2.779   4.855   0.208  0.0088  0.6876 -0.2428
 4487SOL     OW17713   2.151   3.683   4.466  0.0155 -0.0491 -0.2738
 4487SOL    HW217714   2.174   3.740   4.392  0.0810  0.8822  0.4556
 4487SOL    HW317715   2.162   3.738   4.543  1.9606 -1.5918  0.6237
 4487SOL    MW417716   2.155   3.698   4.466  0.7279  0.0743  0.2438
 4488SOL     OW17717   2.734   2.716   4.470 -0.5302  0.1391  0.0164
 4488SOL    HW217718   2.764   2.642   4.523 -1.8001 -0.7102 -0.3872
 4488SOL    HW317719   2.740   2.791   4.528  0.4058 -0.3371  0.5697
 4488SOL    MW417720   2.739   2.716   4.485 -0.3545  0.8108  0.0503
 4489SOL     OW17721   1.279   5.323   6.144 -0.6116 -0.2681 -0.0010
 4489SOL    HW217722   1.355   5.372   6.110 -0.2691  0.4940  1.7399
 4489SOL    HW317723   1.214   5.328   6.074  0.6287 -0.2298 -1.2105
 4489SOL    MW417724   1.281   5.330   6.130  0.0180 -0.8507  0.0623
 4490SOL     OW17725   5.192   5.123   1.069 -0.0093  0.0153 -0.6550
 4490SOL    HW217726   5.122   5.060   1.084 -0.2810  0.3786 -0.3770
 4490SOL    HW317727   5.228   5.100   0.983 -0.8533  0.1884 -1.0608
 4490SOL    MW417728   5.188   5.111   1.060 -0.3622  0.1658 -0.2589
 4491SOL     OW17729   1.720   3.595   5.099  0.0044 -0.2610 -0.4342
 4491SOL    HW217730   1.694   3.672   5.048  1.4981  0.6024  0.0438
 4491SOL    HW317731   1.759   3.631   5.178  1.5559 -1.4844 -0.6087
 4491SOL    MW417732   1.722   3.610   5.103 -0.0484 -0.4115 -0.5380
 4492SOL     OW17733   5.640   2.486   1.205 -0.0940 -0.7379  0.2022
 4492SOL    HW217734   5.653   2.421   1.274 -0.6673 -0.0043  1.0223
 4492SOL    HW317735   5.666   2.441   1.124  0.7695 -1.5462  0.9129
 4492SOL    MW417736   5.645   2.471   1.203 -0.7889  0.1113  0.3183
 4493SOL     OW17737   3.867   1.047   3.410 -0.0379  0.0644 -0.1923
 4493SOL    HW217738   3.886   1.133   3.372  1.7581  0.0670  0.5901
 4493SOL    HW317739   3.816   1.067   3.489 -1.0108  0.2775 -0.8623
 4493SOL    MW417740   3.863   1.061   3.416  0.5707 -0.0329  0.3240
 4494SOL     OW17741   5.960   1.843   2.125  0.0437  0.0033 -0.4893
 4494SOL    HW217742   5.979   1.937   2.122  0.0806 -0.0191 -1.8006
 4494SOL    HW317743   5.914   1.826   2.043 -0.0563 -1.1041 -0.2127
 4494SOL    MW417744   5.957   1.853   2.114 -0.2123  0.0230 -0.0347
 4495SOL     OW17745   2.011   5.183   4.924 -0.3344  0.5437 -0.1707
 4495SOL    HW217746   2.103   5.159   4.921  0.2928  2.0162  2.8679
 4495SOL    HW317747   1.964   5.099   4.926  1.1856 -0.3344  1.5701
 4495SOL    MW417748   2.017   5.169   4.924 -0.7059 -0.7163 -0.2788
 4496SOL     OW17749   3.218   1.670   2.073  0.3974  0.4502  0.5079
 4496SOL    HW217750   3.240   1.752   2.115 -0.9248  0.8243  0.5357
 4496SOL    HW317751   3.249   1.602   2.133 -2.8636  0.9461  3.0525
 4496SOL    MW417752   3.225   1.672   2.086 -0.4935 -0.0768  0.3095
 4497SOL     OW17753   3.604   0.734   0.457 -0.1494 -0.5485  0.2284
 4497SOL    HW217754   3.518   0.709   0.423 -0.0774 -1.2005  0.5087
 4497SOL    HW317755   3.654   0.761   0.379  0.0488 -2.1199 -0.2218
 4497SOL    MW417756   3.599   0.734   0.442  0.0360 -0.3802 -0.2803
 4498SOL     OW17757   3.285   2.535   4.780  0.2789 -0.0725  0.8822
 4498SOL    HW217758   3.193   2.544   4.757  0.5206  0.0347 -0.0736
 4498SOL    HW317759   3.288   2.557   4.873 -0.6071  0.2546  0.8489
 4498SOL    MW417760   3.273   2.539   4.789  0.0484  0.9909  0.5415
 4499SOL     OW17761   1.445   5.756   3.256 -0.0724  0.4063  0.2986
 4499SOL    HW217762   1.482   5.831   3.209  1.0441  0.2778  0.9547
 4499SOL    HW317763   1.512   5.730   3.319 -1.3888  0.3466  1.7507
 4499SOL    MW417764   1.459   5.762   3.258 -0.4183 -0.4313  0.1395
 4500SOL     OW17765   1.868   3.742   3.111  0.0796 -0.9599  0.7970
 4500SOL    HW217766   1.905   3.726   3.024 -1.8593 -0.1311 -0.2435
 4500SOL    HW317767   1.774   3.747   3.097 -0.3217 -1.0991  3.0196
 4500SOL    MW417768   1.861   3.741   3.098  0.2742  0.6573 -0.0001
 4501SOL     OW17769   0.353   1.997   3.103  0.3268  0.0781 -0.1777
 4501SOL    HW217770   0.395   2.046   3.174 -0.4729 -0.9933  1.1007
 4501SOL    HW317771   0.338   2.061   3.034  2.1879  0.9112  0.1325
 4501SOL    MW417772   0.356   2.012   3.104  0.7321 -0.3638  0.1790
 4502SOL     OW17773   3.302   5.938   4.756  0.1082  0.0370 -0.2183
 4502SOL    HW217774   3.267   6.027   4.744 -1.0708 -0.0917  1.7512
 4502SOL    HW317775   3.300   5.925   4.851  1.5129 -1.6359 -0.3697
 4502SOL    MW417776   3.297   5.948   4.767 -0.0553 -0.1037  0.0132
 4503SOL     OW17777   3.082   5.985   1.258 -0.3283  0.6085  0.2105
 4503SOL    HW217778   3.164   6.031   1.274  0.1480  0.7625 -2.3322
 4503SOL    HW317779   3.093   5.944   1.173 -2.4961 -0.3177  0.3025
 4503SOL    MW417780   3.094   5.986   1.249 -0.3864  0.3356  0.1524
 4504SOL     OW17781   2.613   4.425   4.462 -0.0747  0.5048  0.1685
 4504SOL    HW217782   2.612   4.363   4.389  0.3104  0.8847 -0.1665
 4504SOL    HW317783   2.690   4.480   4.446 -0.4780  1.1453  0.3998
 4504SOL    MW417784   2.623   4.424   4.451 -0.1889 -0.3116  0.1324
 4505SOL     OW17785   3.338   3.087   4.141  0.1113  0.1117  0.1754
 4505SOL    HW217786   3.339   3.095   4.045 -2.0831  1.8255  0.2061
 4505SOL    HW317787   3.399   3.155   4.171  1.2664 -0.8276  0.0259
 4505SOL    MW417788   3.347   3.097   4.132 -0.3199  0.0533  0.2996
 4506SOL     OW17789   4.923   0.302   1.139  0.2837  0.0200  0.4275
 4506SOL    HW217790   4.940   0.257   1.057  0.1088 -1.8700  1.3574
 4506SOL    HW317791   4.828   0.299   1.149  0.1902  1.3545  0.1323
 4506SOL    MW417792   4.913   0.296   1.130 -0.0862 -0.2738  1.0151
 4507SOL     OW17793   2.455   0.374   5.733 -0.3180 -0.4034  0.6448
 4507SOL    HW217794   2.438   0.338   5.820 -3.6138 -0.9532 -0.0715
 4507SOL    HW317795   2.522   0.317   5.696 -0.6700 -1.7163  1.9396
 4507SOL    MW417796   2.462   0.362   5.739 -0.2273  1.0009  0.7937
 4508SOL     OW17797   2.547   6.256   3.792  0.4263 -0.0898  0.0177
 4508SOL    HW217798   2.472   6.236   3.848 -0.2519  0.0548 -0.8345
 4508SOL    HW317799   2.558   6.177   3.738 -0.8564  0.9044 -1.7900
 4508SOL    MW417800   2.539   6.243   3.792 -0.1814 -0.6662  0.2334
 4509SOL     OW17801   4.306   1.055   5.980  0.2719  0.1062  0.1565
 4509SOL    HW217802   4.245   1.127   5.963  2.1973  2.7888  3.2701
 4509SOL    HW317803   4.264   1.003   6.049 -0.0850 -0.3752 -0.4116
 4509SOL    MW417804   4.293   1.058   5.987 -0.3429 -0.3433  0.2583
 4510SOL     OW17805   5.535   2.054   5.077 -0.5151  0.2947  0.3943
 4510SOL    HW217806   5.577   1.972   5.103 -0.3056  1.3201  3.7396
 4510SOL    HW317807   5.446   2.047   5.111  0.0597  2.1165  2.4786
 4510SOL    MW417808   5.529   2.042   5.085 -0.0463  1.4483 -0.2783
 4511SOL     OW17809   3.354   1.174   4.432 -0.3127  0.2013 -0.6484
 4511SOL    HW217810   3.367   1.268   4.441 -1.5289  0.3988 -0.7845
 4511SOL    HW317811   3.260   1.161   4.445 -0.2678 -0.9135 -1.2940
 4511SOL    MW417812   3.343   1.185   4.435 -0.2689 -0.5893 -0.5760
 4512SOL     OW17813   5.038   2.259   0.704 -0.0263 -0.9283 -0.1584
 4512SOL    HW217814   4.992   2.333   0.744 -0.2486 -1.3418  0.3498
 4512SOL    HW317815   5.062   2.203   0.778 -1.0137 -2.0257 -0.6501
 4512SOL    MW417816   5.035   2.262   0.719 -0.6090  0.4513  0.4595
 4513SOL     OW17817   1.420   4.238   2.365  0.0646 -0.3787  0.6498
 4513SOL    HW217818   1.487   4.225   2.298 -0.5857 -2.1652  0.2816
 4513SOL    HW317819   1.341   4.198   2.328 -0.6775 -0.1451  1.9167
 4513SOL    MW417820   1.419   4.231   2.352 -0.3418  0.2115 -0.1312
 4514SOL     OW17821   0.037   2.339   3.059 -0.2055  0.4331 -0.2851
 4514SOL    HW217822   0.056   2.279   2.987  1.8383 -1.3610  1.5885
 4514SOL    HW317823  -0.030   2.293   3.111 -0.2944  0.8357 -0.0453
 4514SOL    MW417824   0.031   2.325   3.057  0.6767 -0.3828  0.5154
 4515SOL     OW17825   4.988   2.193   5.471  0.4446  0.4001  0.2941
 4515SOL    HW217826   5.031   2.277   5.489  1.9687 -0.7296  2.3680
 4515SOL    HW317827   4.898   2.206   5.499  0.0165  1.9909 -1.5697
 4515SOL    MW417828   4.982   2.206   5.477 -0.5226 -0.4180 -0.0536
 4516SOL     OW17829   4.830   4.341   2.988  0.1650  0.0348 -0.0385
 4516SOL    HW217830   4.848   4.421   3.038 -0.1981  0.5659 -0.7481
 4516SOL    HW317831   4.886   4.275   3.028  2.7090  1.2952 -1.3003
 4516SOL    MW417832   4.839   4.343   3.000 -0.3947 -0.0049  0.0150
 4517SOL     OW17833   1.933   5.006   6.313  0.4122  0.4482  0.0988
 4517SOL    HW217834   1.955   4.935   6.373 -0.5509 -0.8945 -1.0677
 4517SOL    HW317835   1.970   5.084   6.354  1.7764 -0.7490  1.2805
 4517SOL    MW417836   1.941   5.007   6.326  0.0063 -0.0954  0.5320
 4518SOL     OW17837   4.565   3.487   4.058  0.4246  0.3114  0.3610
 4518SOL    HW217838   4.602   3.423   4.119 -1.5018 -0.4460  0.7966
 4518SOL    HW317839   4.627   3.489   3.985  1.3558 -0.8272  1.0808
 4518SOL    MW417840   4.578   3.479   4.056 -0.3312 -0.7756 -0.4434
 4519SOL     OW17841   5.998   5.700   3.748  0.2631  0.5384 -1.1843
 4519SOL    HW217842   5.911   5.739   3.753  0.1302  0.3044 -1.6503
 4519SOL    HW317843   5.984   5.616   3.704  0.2425 -0.9136  1.3959
 4519SOL    MW417844   5.985   5.694   3.743 -0.7696 -0.0487 -0.1018
 4520SOL     OW17845   5.272   5.141   3.797  0.3099 -0.7735 -1.1671
 4520SOL    HW217846   5.264   5.231   3.767  1.1015 -0.5364 -0.6914
 4520SOL    HW317847   5.327   5.099   3.731  3.4085  0.1467  0.6341
 4520SOL    MW417848   5.278   5.147   3.784  0.7832 -0.6561  0.2602
 4521SOL     OW17849   5.986   0.953   3.570 -0.3165  0.5247 -0.2889
 4521SOL    HW217850   6.065   0.898   3.569 -1.2763 -0.9291  0.8695
 4521SOL    HW317851   5.944   0.936   3.486  0.6337  1.4375 -0.9930
 4521SOL    MW417852   5.991   0.944   3.559 -0.1487 -0.7405 -0.0960
 4522SOL     OW17853   0.589   3.430   2.207  0.4300  0.1829 -0.3857
 4522SOL    HW217854   0.523   3.493   2.235  0.6135  0.1079  0.2474
 4522SOL    HW317855   0.560   3.400   2.122  0.6486  1.5740 -0.9898
 4522SOL    MW417856   0.577   3.435   2.200  0.2019  0.4458 -1.1817
 4523SOL     OW17857   4.401   5.930   0.927  0.4253 -0.1812  0.6848
 4523SOL    HW217858   4.427   6.006   0.876  0.0691  0.4811  1.4724
 4523SOL    HW317859   4.312   5.911   0.899  0.7761 -0.7911 -0.0609
 4523SOL    MW417860   4.393   5.937   0.917 -0.0326 -0.0218 -0.4029
 4524SOL     OW17861   1.453   5.695   4.170  0.3622 -0.1001  0.0181
 4524SOL    HW217862   1.384   5.725   4.228  0.7126 -0.4433  0.6330
 4524SOL    HW317863   1.423   5.716   4.082 -1.0537 -1.2828  0.1874
 4524SOL    MW417864   1.440   5.701   4.166  0.3459  0.4681 -0.0238
 4525SOL     OW17865   2.793   2.054   1.455  0.1474  0.2501  0.4713
 4525SOL    HW217866   2.750   2.123   1.504 -1.0177 -1.1280  1.4855
 4525SOL    HW317867   2.724   2.018   1.399  1.3518  1.5380 -1.9876
 4525SOL    MW417868   2.778   2.058   1.454  0.5599 -0.4275  0.0071
 4526SOL     OW17869   5.291   3.177   0.964  0.2170  0.4510  0.4862
 4526SOL    HW217870   5.362   3.182   1.028  0.9322 -0.1112 -0.2432
 4526SOL    HW317871   5.312   3.246   0.900  0.6360 -0.3383 -0.2421
 4526SOL    MW417872   5.303   3.187   0.964 -0.4514  0.0350 -0.2832
 4527SOL     OW17873   3.672   6.077   0.486  0.1131  0.1365 -0.2442
 4527SOL    HW217874   3.743   6.013   0.488 -0.3157 -0.4483 -2.0233
 4527SOL    HW317875   3.715   6.159   0.460  0.2798  0.0004 -0.3988
 4527SOL    MW417876   3.687   6.079   0.483  0.7459  0.2824  0.3282
 4528SOL     OW17877   1.656   5.018   4.695  0.2321  0.1394  0.2744
 4528SOL    HW217878   1.657   5.108   4.730  0.4122  0.2964 -0.1320
 4528SOL    HW317879   1.682   5.028   4.604 -0.5435 -0.2360  0.0037
 4528SOL    MW417880   1.660   5.031   4.688  0.5500  0.8848 -0.5780
 4529SOL     OW17881   6.304   2.523   5.282  0.0049  0.0834  0.0401
 4529SOL    HW217882   6.221   2.562   5.253  0.1036 -0.1762 -0.6021
 4529SOL    HW317883   6.299   2.525   5.377 -0.3621  0.8859  0.0157
 4529SOL    MW417884   6.292   2.529   5.291  0.1108 -0.3769 -0.0800
 4530SOL     OW17885   2.126   3.822   3.375  0.5438 -0.1157 -0.1098
 4530SOL    HW217886   2.041   3.778   3.384  0.2100  0.5619  0.0928
 4530SOL    HW317887   2.185   3.771   3.431  0.7543 -1.7463 -1.6888
 4530SOL    MW417888   2.123   3.809   3.384  0.1842  0.6102 -0.1352
 4531SOL     OW17889   2.169   5.792   2.129 -0.3340 -0.5032  0.0511
 4531SOL    HW217890   2.119   5.756   2.055  1.3186 -1.8798 -0.4642
 4531SOL    HW317891   2.143   5.739   2.204 -0.8828 -0.1200  0.1292
 4531SOL    MW417892   2.159   5.780   2.129 -0.0372 -0.0399 -0.1965
 4532SOL     OW17893   1.000   4.704   4.693 -0.0515 -0.0016  0.6186
 4532SOL    HW217894   1.019   4.626   4.745 -1.5828 -0.0820  1.0856
 4532SOL    HW317895   1.046   4.775   4.737  2.1956 -0.7473 -0.3652
 4532SOL    MW417896   1.009   4.703   4.705  0.0192  0.0087  0.3842
 4533SOL     OW17897   3.661   0.186   1.509 -0.0144  0.3405  0.0734
 4533SOL    HW217898   3.575   0.149   1.531  0.6272 -1.4868 -0.2586
 4533SOL    HW317899   3.655   0.204   1.415  0.2329 -0.6418 -0.1424
 4533SOL    MW417900   3.649   0.183   1.499  0.0303 -0.3396 -0.2783
 4534SOL     OW17901   3.802   2.936   2.019 -0.2720  0.4354 -0.4008
 4534SOL    HW217902   3.727   2.909   1.966  1.5253 -3.0227 -1.4458
 4534SOL    HW317903   3.857   2.988   1.960 -0.8509  1.3117 -0.1974
 4534SOL    MW417904   3.799   2.940   2.005  0.4101  0.6459  0.3959
 4535SOL     OW17905   5.366   4.001   5.476  0.0040 -0.6827 -0.4104
 4535SOL    HW217906   5.352   3.935   5.543 -0.1436  1.2076  1.5051
 4535SOL    HW317907   5.460   4.018   5.478 -0.1010 -0.1160 -0.1831
 4535SOL    MW417908   5.377   3.995   5.485 -0.1411  0.2437 -1.1690
 4536SOL     OW17909   2.164   4.788   5.220 -0.0500 -0.3271 -0.7426
 4536SOL    HW217910   2.221   4.862   5.241 -0.3150 -0.4371  0.4290
 4536SOL    HW317911   2.186   4.765   5.130  2.9869 -1.4488  0.1787
 4536SOL    MW417912   2.174   4.795   5.211 -0.1724 -0.8516  0.2535
 4537SOL     OW17913   5.669   5.231   3.630 -0.0808  0.1389 -0.2026
 4537SOL    HW217914   5.605   5.255   3.562 -0.1642  3.1075  0.7474
 4537SOL    HW317915   5.752   5.223   3.583 -0.5789 -0.4149 -1.0020
 4537SOL    MW417916   5.671   5.233   3.615 -0.3874  0.1966 -0.5259
 4538SOL     OW17917   6.086   0.771   0.747  0.3730  0.1947 -0.1806
 4538SOL    HW217918   6.026   0.700   0.769  0.9807  0.3389  2.1344
 4538SOL    HW317919   6.170   0.743   0.781  1.2769  0.7983 -1.7955
 4538SOL    MW417920   6.089   0.758   0.754  0.1202  0.5451 -0.6678
 4539SOL     OW17921   5.195   6.375   0.263  0.0501  0.3312 -0.0652
 4539SOL    HW217922   5.116   6.407   0.219  0.4607 -0.5801 -1.5173
 4539SOL    HW317923   5.163   6.330   0.341 -0.8095  0.6323 -0.2355
 4539SOL    MW417924   5.181   6.374   0.267 -0.1482  0.4428 -0.1565
 4540SOL     OW17925   0.987   0.782   1.614  0.0754 -0.0734 -0.0747
 4540SOL    HW217926   0.958   0.862   1.656  2.2588  0.5464  0.3936
 4540SOL    HW317927   1.051   0.811   1.549 -0.4889 -1.3141 -1.2340
 4540SOL    MW417928   0.992   0.796   1.611 -0.0043 -1.0011  0.2824
 4541SOL     OW17929   5.286   4.405   3.224  0.2128  0.2003  0.0965
 4541SOL    HW217930   5.372   4.373   3.252  0.0040  1.0428  1.7835
 4541SOL    HW317931   5.272   4.362   3.139  0.5348 -3.1428  1.5647
 4541SOL    MW417932   5.296   4.395   3.216 -0.4533  0.0270 -0.4311
 4542SOL     OW17933   1.931   4.594   4.276  0.0056  0.1234 -0.1448
 4542SOL    HW217934   2.009   4.546   4.250  0.4209 -0.2084  1.6115
 4542SOL    HW317935   1.955   4.686   4.265  0.2760  0.0010 -0.6056
 4542SOL    MW417936   1.944   4.600   4.271 -0.1005  0.1594  0.3538
 4543SOL     OW17937   1.770   2.445   3.536  0.0147 -0.0525  0.4071
 4543SOL    HW217938   1.746   2.362   3.577  0.1025 -1.5960 -2.4519
 4543SOL    HW317939   1.689   2.476   3.495  0.4705  0.1599 -0.3456
 4543SOL    MW417940   1.756   2.439   3.536 -0.1593 -0.5584  0.6071
 4544SOL     OW17941   5.423   5.239   1.990 -0.2877 -0.1795  0.3639
 4544SOL    HW217942   5.407   5.247   1.896 -0.1835  1.0546  0.4300
 4544SOL    HW317943   5.511   5.200   1.996  0.0028  0.3920 -0.0627
 4544SOL    MW417944   5.433   5.235   1.978  0.5340  0.2171 -0.7745
 4545SOL     OW17945   3.836   2.810   2.864  0.0573 -0.5886  0.2645
 4545SOL    HW217946   3.782   2.888   2.878 -0.5605 -1.1562  1.1231
 4545SOL    HW317947   3.772   2.741   2.842  0.5043 -1.0765  0.4814
 4545SOL    MW417948   3.820   2.811   2.863  0.8482 -0.1613  0.1948
 4546SOL     OW17949   0.259   5.967   1.717  0.0781 -0.4088  0.1247
 4546SOL    HW217950   0.279   6.004   1.632  0.3241 -0.6948  0.0580
 4546SOL    HW317951   0.344   5.940   1.752 -0.2353 -2.2563 -0.4495
 4546SOL    MW417952   0.273   5.968   1.711  0.2126 -0.4370  0.2169
 4547SOL     OW17953   5.818   2.607   0.198  0.1686 -0.1440  0.4077
 4547SOL    HW217954   5.911   2.586   0.201 -0.0039 -1.1002 -0.4472
 4547SOL    HW317955   5.814   2.698   0.170  0.8357 -0.1573  0.2686
 4547SOL    MW417956   5.830   2.616   0.195 -0.2053  0.0169 -0.1046
 4548SOL     OW17957   4.058   3.379   3.319  0.3535  0.7243  0.2447
 4548SOL    HW217958   4.106   3.379   3.402  0.0601 -3.2921  0.6412
 4548SOL    HW317959   3.987   3.316   3.333  0.1316  0.1034 -2.9633
 4548SOL    MW417960   4.055   3.371   3.332  0.4120 -0.1851  0.2192
 4549SOL     OW17961   1.822   0.023   4.892 -0.4732  0.8198 -0.2550
 4549SOL    HW217962   1.872  -0.046   4.936 -1.9063 -0.2791 -0.2704
 4549SOL    HW317963   1.749   0.042   4.951 -0.7138  1.5286 -0.7661
 4549SOL    MW417964   1.819   0.016   4.906  0.0155 -0.8282  0.4092
 4550SOL     OW17965   0.158   4.212   5.868 -0.1781 -0.1283  0.1177
 4550SOL    HW217966   0.118   4.269   5.935  0.9506  1.9957 -0.9122
 4550SOL    HW317967   0.084   4.179   5.817 -1.0862 -1.8943  2.3885
 4550SOL    MW417968   0.143   4.215   5.870 -0.4904  0.2371  0.3128
 4551SOL     OW17969   1.036   3.103   4.844  0.1468  0.1392 -0.0210
 4551SOL    HW217970   1.072   3.151   4.770  1.4429  0.0184  0.5152
 4551SOL    HW317971   1.074   3.016   4.837  3.8375  1.2275  3.1084
 4551SOL    MW417972   1.046   3.098   4.833  0.3136  0.4882  0.2614
 4552SOL     OW17973   5.089   1.191   4.025  0.5176  0.1843 -0.7185
 4552SOL    HW217974   5.110   1.180   4.118 -0.3276 -1.4688 -0.6764
 4552SOL    HW317975   4.993   1.190   4.022  0.4270  2.9692 -1.3583
 4552SOL    MW417976   5.079   1.189   4.037  0.0631 -0.2165 -0.3733
 4553SOL     OW17977   0.351   0.487   0.759 -0.3660  0.5653  0.9938
 4553SOL    HW217978   0.316   0.532   0.681  0.1445 -0.6686  0.0148
 4553SOL    HW317979   0.304   0.527   0.832 -2.3212  0.4302 -0.0988
 4553SOL    MW417980   0.340   0.499   0.758  0.3572 -0.4526  0.3159
 4554SOL     OW17981   0.755   1.858   6.044  0.3757 -0.6718  0.0117
 4554SOL    HW217982   0.728   1.836   6.133 -1.0788  1.1911  0.1001
 4554SOL    HW317983   0.698   1.806   5.988 -2.3204  1.7897  0.2204
 4554SOL    MW417984   0.744   1.848   6.049  0.9692 -0.1257 -0.0829
 4555SOL     OW17985   3.002   4.137   5.097  0.4210 -0.2814 -0.3899
 4555SOL    HW217986   3.042   4.147   5.184 -0.3981 -0.0123 -0.0347
 4555SOL    HW317987   3.022   4.219   5.052 -0.5545  0.2672  0.1415
 4555SOL    MW417988   3.010   4.149   5.103  0.4738  0.5386 -0.2211
 4556SOL     OW17989   6.287   0.999   5.825  0.4512  0.1050  0.7951
 4556SOL    HW217990   6.315   1.051   5.901  2.4140 -1.4902  1.2656
 4556SOL    HW317991   6.365   0.996   5.769 -0.0507 -1.1639  0.1338
 4556SOL    MW417992   6.301   1.006   5.828 -0.0926 -0.0442 -0.3330
 4557SOL     OW17993   6.152   1.942   2.475  0.0396  0.3448  0.1026
 4557SOL    HW217994   6.064   1.972   2.452 -0.4575 -1.2847 -0.3146
 4557SOL    HW317995   6.190   2.013   2.527 -0.9084  1.7669 -1.0699
 4557SOL    MW417996   6.145   1.955   2.479  0.1267  0.4119  0.1018
 4558SOL     OW17997   3.458   4.757   6.314  0.1064  0.5543 -0.2886
 4558SOL    HW217998   3.393   4.820   6.345 -0.4734 -0.5868  0.9110
 4558SOL    HW317999   3.416   4.672   6.325  1.9032 -0.2475  0.8468
 4558SOL    MW418000   3.444   4.754   6.320  0.1860  0.2719  0.0760
 4559SOL     OW18001   0.612   4.058   3.597  0.2849  0.0502 -0.1758
 4559SOL    HW218002   0.683   4.122   3.594 -0.9769  1.4675 -0.6431
 4559SOL    HW318003   0.609   4.021   3.509  2.8053 -2.7929  0.7454
 4559SOL    MW418004   0.621   4.061   3.585 -0.1037 -0.2956  0.2522
 4560SOL     OW18005   3.981   0.138   3.707  0.1849 -0.1205  0.7144
 4560SOL    HW218006   4.040   0.064   3.720 -0.6830 -0.8308  0.6971
 4560SOL    HW318007   3.894   0.099   3.704 -0.2015  0.7862 -0.3528
 4560SOL    MW418008   3.977   0.123   3.709  0.4364  0.1926 -0.3212
 4561SOL     OW18009   1.294   4.738   0.342 -0.1007  0.1988  0.2550
 4561SOL    HW218010   1.383   4.771   0.349 -0.1355  0.2641  0.3920
 4561SOL    HW318011   1.286   4.710   0.250 -0.4108  1.5491 -0.1497
 4561SOL    MW418012   1.305   4.738   0.331 -0.7477  0.2191  0.0258
 4562SOL     OW18013   2.656   2.752   1.198 -0.5106  0.3068  0.0224
 4562SOL    HW218014   2.750   2.744   1.179 -0.5436 -1.6861  0.4153
 4562SOL    HW318015   2.619   2.793   1.120  0.3661 -1.1297 -1.2012
 4562SOL    MW418016   2.664   2.756   1.185  0.6114  0.4310 -0.0846
 4563SOL     OW18017   4.779   5.913   0.846  0.2652 -0.6821  0.2514
 4563SOL    HW218018   4.711   5.923   0.780 -0.1283  0.6399  0.8331
 4563SOL    HW318019   4.857   5.887   0.797 -0.3573 -1.0808 -0.5530
 4563SOL    MW418020   4.780   5.911   0.831  0.1724  0.1261 -0.1242
 4564SOL     OW18021   1.046   4.290   1.593 -0.2005 -0.0322  0.2084
 4564SOL    HW218022   1.137   4.271   1.574 -0.3993 -2.2103  1.1823
 4564SOL    HW318023   1.009   4.318   1.509  1.0968 -0.1656 -0.4267
 4564SOL    MW418024   1.053   4.291   1.580 -0.2596 -0.7950 -0.1054
 4565SOL     OW18025   1.654   1.971   1.231  0.1750 -0.3569  0.3259
 4565SOL    HW218026   1.684   2.013   1.312  0.4126 -1.7846  1.0124
 4565SOL    HW318027   1.576   1.923   1.256 -1.1897  1.1257 -0.8627
 4565SOL    MW418028   1.648   1.971   1.245 -0.2779  0.2869 -0.3134
 4566SOL     OW18029   3.307   1.100   4.757  0.4488 -0.1700 -0.6555
 4566SOL    HW218030   3.306   1.186   4.800  0.5943 -1.0240  1.1868
 4566SOL    HW318031   3.345   1.116   4.671  1.4017  1.4436  0.0178
 4566SOL    MW418032   3.312   1.114   4.752  0.0661 -0.6563 -0.2679
 4567SOL     OW18033   0.143   5.226   4.899  0.4428  0.6489 -0.3102
 4567SOL    HW218034   0.051   5.228   4.873  0.5225  0.3588 -0.6327
 4567SOL    HW318035   0.158   5.136   4.928 -0.0740  1.3476  2.4213
 4567SOL    MW418036   0.133   5.214   4.899 -0.3816 -0.4755  0.3198
 4568SOL     OW18037   3.972   1.315   6.359 -0.3667  0.3682  0.0834
 4568SOL    HW218038   4.046   1.304   6.300 -2.2137 -0.1567 -2.3102
 4568SOL    HW318039   3.920   1.385   6.319 -1.4919  0.2797  1.3281
 4568SOL    MW418040   3.975   1.323   6.346 -0.0561  0.4172 -0.0890
 4569SOL     OW18041   5.218   3.027   1.711 -0.9987  0.4929 -0.1317
 4569SOL    HW218042   5.234   2.942   1.669 -2.0414  0.2281 -0.0342
 4569SOL    HW318043   5.263   3.090   1.655 -0.6899 -0.0648 -0.5270
 4569SOL    MW418044   5.226   3.024   1.698  0.3705  0.1658  0.2755
 4570SOL     OW18045   0.598   2.174   2.955 -0.0987 -0.2199  0.0503
 4570SOL    HW218046   0.608   2.167   3.050  0.7473 -0.1889 -0.0340
 4570SOL    HW318047   0.630   2.090   2.922  1.1065  0.3578 -0.3063
 4570SOL    MW418048   0.604   2.162   2.963  0.4065 -0.4213  0.4563
 4571SOL     OW18049   1.644   1.758   1.857  0.1183 -0.4886 -0.0260
 4571SOL    HW218050   1.618   1.831   1.913  0.6946 -0.8576  0.7251
 4571SOL    HW318051   1.738   1.770   1.843 -0.4223  1.1671 -3.1987
 4571SOL    MW418052   1.653   1.769   1.862 -0.2540 -0.6873 -0.3440
 4572SOL     OW18053   5.052   1.575   2.309 -0.0856  0.5111 -0.2805
 4572SOL    HW218054   4.994   1.566   2.385 -1.1746  1.9550 -0.9036
 4572SOL    HW318055   5.037   1.495   2.258 -1.7655  0.9673 -0.5625
 4572SOL    MW418056   5.043   1.563   2.313  0.0190 -0.2619  0.0509
 4573SOL     OW18057   2.592   4.681   5.350 -0.1677  0.3044  0.1335
 4573SOL    HW218058   2.506   4.691   5.390 -1.0075  0.7014 -1.6924
 4573SOL    HW318059   2.640   4.759   5.377 -0.9557  0.9160 -0.2029
 4573SOL    MW418060   2.587   4.692   5.359 -0.4218 -0.0671 -0.1063
 4574SOL     OW18061   3.136   2.488   1.864  0.4589  0.0255  0.3683
 4574SOL    HW218062   3.129   2.512   1.956  0.3966 -0.6052  0.5285
 4574SOL    HW318063   3.156   2.571   1.819  0.9502  0.2529  0.9987
 4574SOL    MW418064   3.138   2.502   1.870  0.5395  0.0900 -0.1797
 4575SOL     OW18065   0.724   0.707   1.538 -0.1282 -0.6825  0.6076
 4575SOL    HW218066   0.705   0.641   1.471 -1.0115  2.1314 -2.1539
 4575SOL    HW318067   0.816   0.692   1.561 -0.0390 -2.2436 -0.6035
 4575SOL    MW418068   0.734   0.696   1.532  0.0600 -0.0330  0.0144
 4576SOL     OW18069   0.117   3.873   5.729 -0.6495  0.6321 -0.1834
 4576SOL    HW218070   0.131   3.784   5.696 -1.3998  1.4391 -2.8967
 4576SOL    HW318071   0.205   3.904   5.753 -0.0070  0.0448 -1.6850
 4576SOL    MW418072   0.131   3.865   5.728  0.2663  0.5609 -0.2352
 4577SOL     OW18073   5.419   3.781   0.523 -0.0141 -0.0229  0.3147
 4577SOL    HW218074   5.381   3.695   0.506  0.2345 -0.2943  1.0856
 4577SOL    HW318075   5.350   3.843   0.497 -0.5207 -0.4751  0.5645
 4577SOL    MW418076   5.405   3.778   0.517 -0.0377 -0.1820  0.0991
 4578SOL     OW18077   2.690   3.541   4.586  0.1672 -0.3776 -0.0924
 4578SOL    HW218078   2.651   3.458   4.613 -1.0190  0.3108  0.3947
 4578SOL    HW318079   2.680   3.542   4.491 -2.0668  0.2596  0.1020
 4578SOL    MW418080   2.684   3.530   4.577  0.5225 -0.0150 -0.4622
 4579SOL     OW18081   1.293   4.027   3.210  0.2022 -0.3871  0.1684
 4579SOL    HW218082   1.268   4.086   3.281  0.3083 -1.3947  1.0721
 4579SOL    HW318083   1.334   4.084   3.144 -0.3794  0.6371  0.6684
 4579SOL    MW418084   1.295   4.042   3.211 -0.1096 -0.0208 -0.0865
 4580SOL     OW18085   2.704   0.847   4.182 -0.2478  0.1459 -0.6918
 4580SOL    HW218086   2.677   0.867   4.272 -1.8240  2.9180 -1.6423
 4580SOL    HW318087   2.678   0.756   4.169  0.1708 -0.3765  1.6756
 4580SOL    MW418088   2.697   0.838   4.192 -0.1641  0.3476 -0.0859
 4581SOL     OW18089   0.119   5.361   5.321  0.3882 -0.6274  0.1109
 4581SOL    HW218090   0.081   5.448   5.313  0.1771 -0.7381 -0.1181
 4581SOL    HW318091   0.190   5.360   5.257 -0.7731 -1.2334 -1.2177
 4581SOL    MW418092   0.123   5.372   5.312 -0.0776 -0.3869  0.4362
 4582SOL     OW18093   5.633   5.647   3.489 -0.0262  0.6187 -0.6823
 4582SOL    HW218094   5.630   5.662   3.395  0.3580 -0.1019 -0.8169
 4582SOL    HW318095   5.673   5.726   3.525  0.5178  0.5817 -1.2005
 4582SOL    MW418096   5.638   5.660   3.482 -0.1648 -0.2117 -0.7687
 4583SOL     OW18097   0.088   5.457   0.331  0.3428  0.7215  0.3336
 4583SOL    HW218098   0.169   5.504   0.312  1.6199 -1.5529 -0.2994
 4583SOL    HW318099   0.089   5.444   0.426  0.8826  0.4650  0.2962
 4583SOL    MW418100   0.099   5.461   0.341 -0.7400  0.1636 -0.4643
 4584SOL     OW18101   1.694   1.088   1.327 -0.0847 -0.0095  0.0291
 4584SOL    HW218102   1.720   1.028   1.396 -1.0422 -1.0869 -0.5007
 4584SOL    HW318103   1.696   1.035   1.247 -1.4462  0.4958 -0.3788
 4584SOL    MW418104   1.698   1.073   1.325 -1.0082  0.1010 -0.0405
 4585SOL     OW18105   2.002   5.755   0.862  0.0713 -0.0093  0.0720
 4585SOL    HW218106   1.960   5.673   0.887  3.2895 -1.5658  0.9097
 4585SOL    HW318107   2.010   5.804   0.944  0.1755  0.1354 -0.0249
 4585SOL    MW418108   1.997   5.750   0.876  0.4199  0.0060 -0.5423
 4586SOL     OW18109   5.368   3.972   3.287  0.1530  0.5380 -0.2417
 4586SOL    HW218110   5.440   4.036   3.287 -0.4567  1.2886  1.4722
 4586SOL    HW318111   5.289   4.025   3.272 -0.2594  0.0424  0.1304
 4586SOL    MW418112   5.367   3.988   3.285 -0.6823 -0.5412  0.1428
 4587SOL     OW18113   6.146   2.894   5.169 -0.0581 -0.3804 -0.0967
 4587SOL    HW218114   6.221   2.943   5.202  0.8417 -2.0822  0.5150
 4587SOL    HW318115   6.157   2.893   5.074  0.2555  0.0564 -0.0632
 4587SOL    MW418116   6.157   2.900   5.161  0.3130  0.6213 -0.4146
 4588SOL     OW18117   4.158   4.414   4.971  0.0927 -0.3242  0.2626
 4588SOL    HW218118   4.226   4.479   4.991  1.0043 -0.8606 -0.9977
 4588SOL    HW318119   4.206   4.336   4.943 -1.0045  0.0751 -3.1365
 4588SOL    MW418120   4.173   4.412   4.970 -0.2235  0.2491  0.4073
 4589SOL     OW18121   5.204   0.818   1.957 -0.2927  0.1748 -0.3816
 4589SOL    HW218122   5.270   0.848   2.020  0.1130  0.7668 -1.0595
 4589SOL    HW318123   5.122   0.818   2.006  0.3526 -1.6901  0.8084
 4589SOL    MW418124   5.202   0.822   1.972  0.1966  0.3506 -0.0860
 4590SOL     OW18125   6.360   4.113   3.903 -0.2411  0.1668 -0.1822
 4590SOL    HW218126   6.339   4.192   3.954 -0.1627 -0.2310  0.4718
 4590SOL    HW318127   6.393   4.147   3.820  0.2921  0.8369  0.2854
 4590SOL    MW418128   6.361   4.128   3.899  0.0883  0.4805 -0.0958
 4591SOL     OW18129   1.701   3.448   0.219 -0.4071  0.4640 -0.4391
 4591SOL    HW218130   1.786   3.488   0.207 -1.3897  2.1795 -2.3537
 4591SOL    HW318131   1.718   3.371   0.274  2.6029 -0.1989 -2.0834
 4591SOL    MW418132   1.714   3.443   0.225  0.1589  0.2553 -0.1372
 4592SOL     OW18133   0.055   4.371   1.552  0.3346  0.0784  0.0891
 4592SOL    HW218134   0.106   4.298   1.587  1.0234  0.2493 -0.5312
 4592SOL    HW318135   0.035   4.346   1.462  3.2861  1.9191 -1.2509
 4592SOL    MW418136   0.059   4.358   1.545 -0.0559  0.5118  0.6368
 4593SOL     OW18137   2.262   4.857   4.387  0.9089  0.3794  0.4084
 4593SOL    HW218138   2.167   4.862   4.389  0.9666  2.2312  2.1653
 4593SOL    HW318139   2.282   4.764   4.380 -1.0676 -0.6688  5.2851
 4593SOL    MW418140   2.252   4.846   4.386  0.4557  0.0578 -0.4290
 4594SOL     OW18141   2.154   5.581   5.768 -0.3404  0.3805 -0.4533
 4594SOL    HW218142   2.163   5.538   5.682  2.3098 -3.0960  1.2571
 4594SOL    HW318143   2.243   5.609   5.789 -0.7923  0.5317  1.3984
 4594SOL    MW418144   2.167   5.579   5.759  0.1844  0.3365  0.5707
 4595SOL     OW18145   4.316   5.043   3.300 -0.4947  0.5706 -0.7169
 4595SOL    HW218146   4.399   4.997   3.306 -0.3073  1.0685  3.0997
 4595SOL    HW318147   4.262   4.988   3.244  1.6035 -1.0475 -1.2967
 4595SOL    MW418148   4.320   5.030   3.294  0.0972 -0.4785  0.0274
 4596SOL     OW18149   0.297   6.017   0.954 -0.0162 -0.4129  0.5541
 4596SOL    HW218150   0.365   5.992   1.016  0.8960  0.8730  0.1125
 4596SOL    HW318151   0.317   6.108   0.932 -1.2411 -0.3567 -0.4234
 4596SOL    MW418152   0.309   6.026   0.959 -0.0983 -0.7374  0.1975
 4597SOL     OW18153   4.540   4.047   4.248 -0.6537  0.4950  0.1660
 4597SOL    HW218154   4.584   4.126   4.279  1.6773 -0.8656  0.4882
 4597SOL    HW318155   4.455   4.048   4.294  0.3763  1.4725  2.1848
 4597SOL    MW418156   4.534   4.058   4.259  0.4221  0.2503  0.2942
 4598SOL     OW18157   3.948   5.127   0.810  0.6549 -0.4273 -0.2540
 4598SOL    HW218158   3.969   5.034   0.818  0.5165 -0.4756 -0.4404
 4598SOL    HW318159   4.028   5.172   0.838  0.7894 -0.6058 -0.3496
 4598SOL    MW418160   3.962   5.121   0.814 -0.3766 -0.0205  0.4191
 4599SOL     OW18161   4.460   0.653   2.267 -0.5268  0.0398  0.1800
 4599SOL    HW218162   4.406   0.645   2.345  0.6016 -1.7604  0.8318
 4599SOL    HW318163   4.513   0.731   2.282 -0.5960 -0.0716  1.0228
 4599SOL    MW418164   4.459   0.662   2.279 -0.2650  0.3581  0.4288
 4600SOL     OW18165   1.073   2.267   2.680  0.2346 -0.1730 -0.3348
 4600SOL    HW218166   1.074   2.175   2.652  0.4039  0.2743 -1.9345
 4600SOL    HW318167   1.075   2.316   2.598  1.1987  1.2655  0.5107
 4600SOL    MW418168   1.074   2.261   2.665  0.0236  0.6560 -0.1155
 4601SOL     OW18169   5.629   1.973   0.162 -0.2249 -0.5745 -0.0745
 4601SOL    HW218170   5.636   1.923   0.081  1.0480 -0.6360  0.0537
 4601SOL    HW318171   5.719   1.979   0.195 -0.6256  0.0489  0.9710
 4601SOL    MW418172   5.642   1.967   0.156  0.3993  0.1498 -0.3919
 4602SOL     OW18173   1.547   4.025   5.396 -0.0912  0.4889 -0.3124
 4602SOL    HW218174   1.610   4.063   5.458  2.1720  0.5955 -2.4987
 4602SOL    HW318175   1.500   4.100   5.360 -0.5189  0.5348  0.3188
 4602SOL    MW418176   1.549   4.040   5.400  0.2292  1.1153 -0.8001
 4603SOL     OW18177   4.281   1.758   0.204  0.7011  0.5533  0.2728
 4603SOL    HW218178   4.358   1.737   0.257 -1.4135 -0.5189  3.2396
 4603SOL    HW318179   4.247   1.673   0.175 -0.8393  0.7179  1.4296
 4603SOL    MW418180   4.286   1.744   0.207 -0.3995  0.3836  0.0066
 4604SOL     OW18181   2.451   6.427   0.846  0.3188  0.1853 -0.1737
 4604SOL    HW218182   2.465   6.511   0.890 -1.3483  0.5293 -0.2518
 4604SOL    HW318183   2.370   6.439   0.796  0.2558 -1.3516 -0.4880
 4604SOL    MW418184   2.442   6.440   0.845  0.1461  0.0087  1.0061
 4605SOL     OW18185   3.211   0.973   5.144  0.3253 -0.5978  0.2259
 4605SOL    HW218186   3.196   0.900   5.204  0.6838 -1.2496 -0.4714
 4605SOL    HW318187   3.127   0.984   5.098 -0.1324  0.2719  1.2200
 4605SOL    MW418188   3.198   0.965   5.146  0.0741  0.6979  0.0835
 4606SOL     OW18189   3.442   6.266   3.860 -0.4386 -0.0158  0.2828
 4606SOL    HW218190   3.453   6.328   3.933  1.9605  1.1811 -0.9749
 4606SOL    HW318191   3.490   6.188   3.889  0.8242  0.5863 -0.0755
 4606SOL    MW418192   3.450   6.264   3.874  0.0993 -0.5068 -0.0751
 4607SOL     OW18193   0.101   0.155   2.363  0.4310 -0.4658  0.1451
 4607SOL    HW218194   0.180   0.199   2.392  0.5690 -1.2963  1.1273
 4607SOL    HW318195   0.132   0.079   2.314  0.1991  0.4256 -1.4582
 4607SOL    MW418196   0.115   0.150   2.361 -0.5761 -0.3511 -0.2138
 4608SOL     OW18197   3.851   2.158   2.856  0.2245 -0.5220  0.1769
 4608SOL    HW218198   3.772   2.130   2.901 -0.5205  2.1125  0.6754
 4608SOL    HW318199   3.821   2.224   2.793  1.9650  0.3774  0.2131
 4608SOL    MW418200   3.837   2.163   2.854  0.1159 -0.7200  0.2449
 4609SOL     OW18201   5.161   0.165   2.300 -0.4113  0.0702 -0.1301
 4609SOL    HW218202   5.250   0.150   2.333 -1.0096  0.3451  1.7767
 4609SOL    HW318203   5.105   0.123   2.366 -1.6890 -0.8327 -1.7335
 4609SOL    MW418204   5.165   0.157   2.313  0.0945 -0.1447  0.1391
 4610SOL     OW18205   0.027   3.885   3.205  0.0813  0.3504 -0.9852
 4610SOL    HW218206  -0.036   3.944   3.247  0.6398  1.2175 -1.3299
 4610SOL    HW318207  -0.014   3.799   3.208 -0.9543  0.8366 -0.8767
 4610SOL    MW418208   0.013   3.881   3.211  0.5804  0.5076 -0.1588
 4611SOL     OW18209   4.429   1.528   3.798  0.1511  0.1887  0.5175
 4611SOL    HW218210   4.436   1.624   3.793 -1.2755  0.3053  0.2706
 4611SOL    HW318211   4.501   1.502   3.856  0.2272  1.4650  1.0426
 4611SOL    MW418212   4.439   1.537   3.805  0.2539  0.2441 -0.7642
 4612SOL     OW18213   5.038   2.066   5.717  0.7289  0.4621  0.6006
 4612SOL    HW218214   5.006   2.089   5.630  1.3355 -1.3864 -0.1614
 4612SOL    HW318215   5.121   2.112   5.726 -0.4012  2.4944  1.1769
 4612SOL    MW418216   5.044   2.075   5.707  0.1846  0.3514 -0.3757
 4613SOL     OW18217   0.500   5.931   2.882 -0.0935  0.0507  0.9934
 4613SOL    HW218218   0.440   5.861   2.908 -0.8891  0.9039  1.5353
 4613SOL    HW318219   0.452   5.980   2.816  0.1462  0.5233  1.1649
 4613SOL    MW418220   0.486   5.929   2.877 -0.3018 -0.0034  0.2240
 4614SOL     OW18221   3.057   1.256   1.304 -0.4080 -0.1944  0.1090
 4614SOL    HW218222   3.005   1.184   1.341  0.3444 -0.4010  0.8070
 4614SOL    HW318223   3.016   1.335   1.339 -0.7598 -0.3169 -0.0217
 4614SOL    MW418224   3.045   1.257   1.314  0.1947  0.0026 -0.4178
 4615SOL     OW18225   4.619   5.884   2.968  0.7088 -0.0731  0.4617
 4615SOL    HW218226   4.628   5.854   2.878  1.0117 -0.7507  0.7112
 4615SOL    HW318227   4.566   5.963   2.961 -2.1324 -1.8559 -0.0577
 4615SOL    MW418228   4.613   5.890   2.955 -0.0133 -0.0349  0.4857
 4616SOL     OW18229   0.485   1.451   0.745 -0.7759 -0.4802  0.5414
 4616SOL    HW218230   0.484   1.403   0.828 -0.3911  1.4171  1.7135
 4616SOL    HW318231   0.577   1.447   0.717 -0.6052  0.1462  1.0009
 4616SOL    MW418232   0.497   1.444   0.752 -0.2721  0.6775 -0.0027
 4617SOL     OW18233   1.119   4.585   0.496  0.4133  0.0044  0.2731
 4617SOL    HW218234   1.091   4.514   0.437  0.4911  0.2319 -0.0424
 4617SOL    HW318235   1.168   4.645   0.439 -1.6554  1.5433  0.0113
 4617SOL    MW418236   1.122   4.583   0.480 -0.6284  0.1311 -0.5639
 4618SOL     OW18237   5.046   1.319   5.567  0.1127  0.0410 -0.3800
 4618SOL    HW218238   4.951   1.311   5.572 -0.0991  1.1705 -1.9696
 4618SOL    HW318239   5.079   1.244   5.617 -1.5637  0.8459  2.1005
 4618SOL    MW418240   5.038   1.308   5.574  0.0760 -0.1055  0.2156
 4619SOL     OW18241   0.039   0.854   3.893 -0.5745 -0.5878  0.1973
 4619SOL    HW218242   0.048   0.946   3.867  0.8464 -0.0216  2.4848
 4619SOL    HW318243  -0.055   0.842   3.906 -1.1067 -0.2915 -2.7213
 4619SOL    MW418244   0.028   0.864   3.891  0.8977  0.0550 -0.0869
 4620SOL     OW18245   3.545   3.652   2.736 -0.3959  0.3653  0.3316
 4620SOL    HW218246   3.578   3.628   2.823  0.2096  1.1262  0.3239
 4620SOL    HW318247   3.483   3.583   2.714  1.7761 -1.6289  0.0058
 4620SOL    MW418248   3.542   3.640   2.745  0.4100  0.2257  0.1904
 4621SOL     OW18249   5.049   0.522   1.241  0.3931  0.0382  0.1633
 4621SOL    HW218250   5.019   0.436   1.212 -0.4335  0.6005 -0.6851
 4621SOL    HW318251   4.971   0.564   1.277  0.1001  1.4932 -2.0056
 4621SOL    MW418252   5.035   0.516   1.242 -0.4046 -0.2853 -0.2612
 4622SOL     OW18253   3.985   5.120   3.715 -0.1211 -0.1088 -0.6863
 4622SOL    HW218254   3.932   5.065   3.772  1.1643  0.1311  0.7899
 4622SOL    HW318255   3.921   5.176   3.669 -1.1766 -0.2110  0.6072
 4622SOL    MW418256   3.970   5.120   3.716  0.2345 -0.4495  0.2668
 4623SOL     OW18257   3.599   5.299   4.406 -0.5719 -0.2322 -0.1974
 4623SOL    HW218258   3.584   5.393   4.409 -1.0323 -0.2584 -1.2386
 4623SOL    HW318259   3.693   5.290   4.387 -0.0132 -0.0278  2.1999
 4623SOL    MW418260   3.610   5.310   4.404  0.1882  0.3650 -0.1352
 4624SOL     OW18261   2.050   0.665   5.985  0.2821 -0.2347  0.5167
 4624SOL    HW218262   2.025   0.624   5.902  0.0385  1.1747 -0.1419
 4624SOL    HW318263   2.135   0.627   6.006 -0.2581 -1.5937  0.3226
 4624SOL    MW418264   2.058   0.655   5.977  0.5044 -0.0569  0.2160
 4625SOL     OW18265   4.677   3.715   2.372 -0.0635 -0.0961  0.0878
 4625SOL    HW218266   4.657   3.784   2.435 -0.1287  0.4052 -0.4766
 4625SOL    HW318267   4.717   3.646   2.425  1.3098  0.9442  0.4616
 4625SOL    MW418268   4.680   3.715   2.387  0.2652 -0.5500 -0.0981
 4626SOL     OW18269   2.872   3.975   3.948  0.5773  0.5219 -0.0231
 4626SOL    HW218270   2.848   3.922   4.023 -1.1605  0.5433 -0.5148
 4626SOL    HW318271   2.793   4.026   3.928  1.2628  1.1316 -1.3331
 4626SOL    MW418272   2.858   3.974   3.955  0.2728 -0.1226  0.0258
 4627SOL     OW18273   5.882   1.666   2.508 -0.2746  0.2456  0.4958
 4627SOL    HW218274   5.927   1.631   2.585  0.0739  0.3569  0.3464
 4627SOL    HW318275   5.902   1.604   2.438  0.6401  0.9137  0.1442
 4627SOL    MW418276   5.891   1.653   2.509 -0.1455  0.4901  0.3995
 4628SOL     OW18277   1.538   4.162   1.428 -0.8747 -0.2121  0.1398
 4628SOL    HW218278   1.475   4.114   1.374 -0.4881 -1.7187  0.9799
 4628SOL    HW318279   1.593   4.208   1.365 -2.4181  0.6675 -0.6314
 4628SOL    MW418280   1.537   4.162   1.412  0.1442  0.4252  0.3479
 4629SOL     OW18281   3.273   2.846   3.746  0.4297 -0.0953  0.0006
 4629SOL    HW218282   3.184   2.825   3.771  0.5845 -1.6989 -0.6781
 4629SOL    HW318283   3.291   2.931   3.787 -1.2477  0.0562  0.4691
 4629SOL    MW418284   3.264   2.855   3.754 -0.2301  0.6030 -0.3744
 4630SOL     OW18285   0.252   3.447   4.814  0.3446  0.2391  0.3820
 4630SOL    HW218286   0.279   3.523   4.763 -0.2564  0.2791  0.1170
 4630SOL    HW318287   0.157   3.456   4.823  0.5712  1.1088  2.9065
 4630SOL    MW418288   0.243   3.458   4.809  0.5341  0.1643 -0.3460
 4631SOL     OW18289   1.997   2.049   6.142 -0.2530  0.3084  0.2486
 4631SOL    HW218290   1.922   2.095   6.178  0.2452 -0.1003  1.8978
 4631SOL    HW318291   2.063   2.117   6.128 -1.3266  0.9047 -2.5452
 4631SOL    MW418292   1.996   2.064   6.145  0.0575  0.2575  1.3006
 4632SOL     OW18293   4.333   3.292   3.828 -0.0948  0.1954  0.0565
 4632SOL    HW218294   4.296   3.303   3.916  1.1791 -3.5715  1.2830
 4632SOL    HW318295   4.421   3.258   3.844 -0.0866 -1.3232 -2.6464
 4632SOL    MW418296   4.339   3.289   3.842 -0.3214  0.2132 -0.1600
 4633SOL     OW18297   2.809   3.830   1.351 -0.1520 -0.3997  0.5879
 4633SOL    HW218298   2.860   3.765   1.399 -1.8847 -1.0650  1.6045
 4633SOL    HW318299   2.822   3.911   1.401 -0.4646 -0.6698  1.1136
 4633SOL    MW418300   2.818   3.832   1.364  0.2824  0.0335  0.0296
 4634SOL     OW18301   0.580   0.871   1.704 -0.3311 -0.0123  0.5093
 4634SOL    HW218302   0.636   0.811   1.654  1.0991 -0.8542  2.9608
 4634SOL    HW318303   0.498   0.823   1.714  0.4290 -1.1686  1.5223
 4634SOL    MW418304   0.577   0.857   1.699 -0.8455  0.2892 -0.7015
 4635SOL     OW18305   5.589   2.551   4.725  0.2182  0.0973  0.6506
 4635SOL    HW218306   5.608   2.520   4.637  2.2633  0.3810  0.9298
 4635SOL    HW318307   5.610   2.645   4.723  0.4320  0.0818  1.4533
 4635SOL    MW418308   5.594   2.560   4.713 -0.1059 -0.0841  0.3487
 4636SOL     OW18309   0.011   3.492   1.150  0.1499 -0.4021 -0.4033
 4636SOL    HW218310   0.009   3.567   1.209 -1.7042  0.4801 -1.4712
 4636SOL    HW318311   0.073   3.518   1.081 -0.8208  0.4073 -1.0116
 4636SOL    MW418312   0.019   3.505   1.149  0.0309 -0.6039 -0.7978
 4637SOL     OW18313   0.064   0.098   4.886 -0.2172 -0.1671 -0.1422
 4637SOL    HW218314   0.101   0.034   4.825  1.8641  1.3961 -0.6130
 4637SOL    HW318315  -0.013   0.133   4.841 -0.7471 -1.5170 -0.3357
 4637SOL    MW418316   0.058   0.094   4.872  0.9378  0.2392  0.2403
 4638SOL     OW18317   6.077   2.238   5.931  0.7126 -0.3238  0.2191
 4638SOL    HW218318   6.070   2.294   6.008  2.4827  0.4795 -0.1488
 4638SOL    HW318319   5.986   2.220   5.905  0.1096  0.5748  1.6278
 4638SOL    MW418320   6.064   2.243   5.938  0.1896  0.3935  0.1291
 4639SOL     OW18321   6.243   0.243   2.403  0.2542  0.4736  0.0459
 4639SOL    HW218322   6.336   0.222   2.395  0.4985  0.2456  2.5619
 4639SOL    HW318323   6.236   0.288   2.487 -1.8478  0.9109 -0.3190
 4639SOL    MW418324   6.254   0.246   2.413 -0.2550 -0.1356  0.3744
 4640SOL     OW18325   0.206   0.474   4.388  0.0551  0.7474  0.0835
 4640SOL    HW218326   0.194   0.455   4.481  1.6826 -1.5333 -0.1140
 4640SOL    HW318327   0.277   0.417   4.360 -0.7763  0.9392 -2.7211
 4640SOL    MW418328   0.214   0.464   4.397 -0.0022 -0.0349  0.0204
 4641SOL     OW18329   1.311   3.603   2.753 -0.2386  0.5201 -0.2849
 4641SOL    HW218330   1.367   3.648   2.816 -0.2699 -0.0728  0.1807
 4641SOL    HW318331   1.222   3.622   2.782 -0.2561  0.4781 -0.3113
 4641SOL    MW418332   1.307   3.611   2.766 -0.0326  0.2697  0.2623
 4642SOL     OW18333   6.203   5.734   2.197 -0.0982  0.2009 -0.4343
 4642SOL    HW218334   6.224   5.683   2.275  0.1258 -0.2045 -0.7573
 4642SOL    HW318335   6.123   5.781   2.219  0.3254  0.6050  0.2778
 4642SOL    MW418336   6.195   5.734   2.210 -0.2890 -0.4610  0.1017
 4643SOL     OW18337   2.310   4.676   5.408 -0.4655 -0.0307 -0.0397
 4643SOL    HW218338   2.269   4.718   5.484  1.6389  0.9860  0.6127
 4643SOL    HW318339   2.250   4.694   5.336 -1.2073  1.3283  0.8656
 4643SOL    MW418340   2.297   4.684   5.409 -0.1939 -0.6333 -0.7265
 4644SOL     OW18341   5.171   2.332   3.525  0.2204 -0.4964 -1.0431
 4644SOL    HW218342   5.106   2.270   3.494  0.7169 -1.0533 -0.9860
 4644SOL    HW318343   5.147   2.415   3.484 -1.1290 -0.4482 -0.2074
 4644SOL    MW418344   5.159   2.335   3.516  0.0664 -0.6178 -0.1047
 4645SOL     OW18345   6.128   2.224   5.272  0.1167 -0.3911  0.2222
 4645SOL    HW218346   6.155   2.274   5.350 -0.2059 -0.4075  0.3465
 4645SOL    HW318347   6.144   2.132   5.296 -1.4517 -0.5199  0.8727
 4645SOL    MW418348   6.134   2.218   5.286  0.1786  0.1422  0.0562
 4646SOL     OW18349   4.608   3.444   0.840 -0.3564  0.0285  0.4662
 4646SOL    HW218350   4.548   3.516   0.818 -0.4378  0.4819  2.0652
 4646SOL    HW318351   4.560   3.391   0.903 -1.1790 -2.7696 -2.3048
 4646SOL    MW418352   4.594   3.447   0.845 -0.0709  0.9347 -0.0404
 4647SOL     OW18353   3.395   0.095   1.571  0.4725  0.9621  0.2147
 4647SOL    HW218354   3.369   0.135   1.654  0.7724  1.3679  0.1180
 4647SOL    HW318355   3.333   0.130   1.507  0.4473  0.9074  0.2089
 4647SOL    MW418356   3.383   0.105   1.574 -0.4008 -0.9042  0.0813
 4648SOL     OW18357   2.614   3.281   5.206 -0.6964  0.3286 -0.7247
 4648SOL    HW218358   2.547   3.341   5.173 -2.0699  0.0015  1.2768
 4648SOL    HW318359   2.674   3.336   5.255 -0.2920  0.4308 -1.3242
 4648SOL    MW418360   2.613   3.296   5.208  0.3956 -0.1069  0.0553
 4649SOL     OW18361   0.524   6.393   1.444  0.4670  0.5867 -0.0471
 4649SOL    HW218362   0.595   6.411   1.506  0.9239 -0.0542 -0.3732
 4649SOL    HW318363   0.564   6.338   1.377 -1.2254 -3.1458  1.7570
 4649SOL    MW418364   0.539   6.388   1.443 -0.1983  0.3369 -0.0666
 4650SOL     OW18365   0.031   1.320   5.773  0.1363 -0.2731  0.0590
 4650SOL    HW218366  -0.011   1.402   5.796 -1.2163 -0.9041 -0.0482
 4650SOL    HW318367   0.035   1.271   5.855  1.0592 -0.0604  0.1494
 4650SOL    MW418368   0.026   1.324   5.787  0.1091  0.3205 -0.0769
 4651SOL     OW18369   2.902   2.195   3.818 -0.0766  0.0982  0.2482
 4651SOL    HW218370   2.860   2.281   3.822 -0.9982 -0.2859 -0.8612
 4651SOL    HW318371   2.831   2.133   3.831  0.1582 -0.5627 -1.4011
 4651SOL    MW418372   2.887   2.198   3.821  0.5071 -0.1055  0.5248
 4652SOL     OW18373   6.042   6.128   2.056  0.0856 -0.0888 -0.4060
 4652SOL    HW218374   6.064   6.173   2.138 -1.1415  1.0608 -0.6779
 4652SOL    HW318375   6.100   6.167   1.991  0.0665  0.0140 -0.3620
 4652SOL    MW418376   6.053   6.139   2.058 -0.2968  0.0207 -0.2596
 4653SOL     OW18377   6.042   5.898   4.900  0.2126  0.5451  1.0068
 4653SOL    HW218378   5.961   5.861   4.864  0.2272  2.3872 -1.0652
 4653SOL    HW318379   6.044   5.866   4.991 -3.5912  1.5842  1.6376
 4653SOL    MW418380   6.032   5.889   4.907 -0.1259 -0.1888 -0.2122
 4654SOL     OW18381   3.285   4.556   2.482  0.0409 -0.3136  0.4961
 4654SOL    HW218382   3.228   4.598   2.546 -0.0938  0.2224  0.0259
 4654SOL    HW318383   3.371   4.557   2.523  0.2081  1.1623  0.1661
 4654SOL    MW418384   3.289   4.562   2.496  0.0993  0.1207  0.0244
 4655SOL     OW18385   1.728   5.985   4.955  0.0754  0.0868  0.0044
 4655SOL    HW218386   1.820   6.004   4.938 -0.1463  1.2112 -0.0332
 4655SOL    HW318387   1.722   5.982   5.051  0.1494 -0.0002  0.0067
 4655SOL    MW418388   1.739   5.987   4.966 -0.5731 -0.2628 -0.1181
 4656SOL     OW18389   5.925   1.581   1.367  0.1449 -0.6128 -0.2494
 4656SOL    HW218390   5.993   1.639   1.332 -0.2340 -0.2013 -0.3200
 4656SOL    HW318391   5.843   1.630   1.355 -0.1553 -1.0662 -0.0921
 4656SOL    MW418392   5.923   1.595   1.361  0.1251 -0.2064  0.1537
 4657SOL     OW18393   2.526   2.497   4.078  0.6494 -0.7319  0.2763
 4657SOL    HW218394   2.586   2.468   4.146 -0.1139  0.4312  1.5142
 4657SOL    HW318395   2.443   2.510   4.124  0.1267  0.1497 -0.8599
 4657SOL    MW418396   2.523   2.495   4.093  0.3132  0.3309 -0.1115
 4658SOL     OW18397   1.312   1.807   0.059 -0.2923 -0.1083  0.1383
 4658SOL    HW218398   1.258   1.824   0.137 -0.6092 -0.8924  0.0970
 4658SOL    HW318399   1.325   1.713   0.059  0.0800 -0.0612 -0.5215
 4658SOL    MW418400   1.306   1.797   0.070 -0.2824  0.5772  0.7153
 4659SOL     OW18401   4.542   6.047   3.379  0.1522  0.5840 -0.1210
 4659SOL    HW218402   4.607   6.102   3.337  0.5618 -0.1832 -0.5031
 4659SOL    HW318403   4.542   5.966   3.328 -0.0997  0.0454  0.7219
 4659SOL    MW418404   4.550   6.044   3.367 -0.2558 -0.2137  0.0697
 4660SOL     OW18405   5.388   6.220   5.423  0.3865 -0.8302  0.1941
 4660SOL    HW218406   5.406   6.315   5.420 -0.1530 -0.7132  0.5762
 4660SOL    HW318407   5.454   6.186   5.484  1.4776 -0.9244 -0.9856
 4660SOL    MW418408   5.399   6.228   5.431 -0.1998  0.3916  0.2775
 4661SOL     OW18409   3.703   1.193   2.630  0.2495  0.1689 -0.7061
 4661SOL    HW218410   3.649   1.118   2.652 -1.6275  1.2148 -1.5553
 4661SOL    HW318411   3.793   1.164   2.647 -0.3694 -2.3922 -1.4377
 4661SOL    MW418412   3.708   1.179   2.635 -0.0656 -0.0616 -0.2258
 4662SOL     OW18413   1.999   0.536   5.725  0.3501 -0.0447  0.2738
 4662SOL    HW218414   1.921   0.480   5.732  0.3909 -0.2231 -0.6074
 4662SOL    HW318415   1.971   0.609   5.670  0.2378  0.9425  1.5771
 4662SOL    MW418416   1.985   0.538   5.719 -0.3868 -0.2861 -0.1583
 4663SOL     OW18417   3.626   0.333   1.880  0.7019 -0.6706  0.6212
 4663SOL    HW218418   3.536   0.319   1.852  0.4622  0.0313  1.0140
 4663SOL    HW318419   3.664   0.245   1.884  0.5087 -0.8680 -1.0458
 4663SOL    MW418420   3.619   0.320   1.877 -0.2640 -0.8511  0.2534
 4664SOL     OW18421   2.441   1.289   0.379  0.5215 -0.1374  0.4763
 4664SOL    HW218422   2.369   1.352   0.386  0.7708  0.2675 -0.4182
 4664SOL    HW318423   2.423   1.223   0.446 -1.2959 -0.6544 -0.4562
 4664SOL    MW418424   2.429   1.289   0.388 -0.4141  0.3676 -0.2896
 4665SOL     OW18425   3.889   6.232   5.123 -0.2464  0.0358 -0.8274
 4665SOL    HW218426   3.876   6.137   5.116  1.1872 -0.1931 -0.7455
 4665SOL    HW318427   3.913   6.245   5.215 -0.6760  0.5183 -0.7818
 4665SOL    MW418428   3.890   6.221   5.134  0.2510  0.9383 -0.7066
 4666SOL     OW18429   1.799   6.083   3.821 -0.1374  0.3801  0.5986
 4666SOL    HW218430   1.845   6.102   3.902  0.1912  2.8622 -0.0952
 4666SOL    HW318431   1.849   6.130   3.754 -1.6916  0.2612 -0.6964
 4666SOL    MW418432   1.812   6.092   3.823 -0.7410  0.2535  0.4426
 4667SOL     OW18433   2.303   2.850   0.636  0.4760 -0.4356  0.1295
 4667SOL    HW218434   2.385   2.815   0.601  0.9905  1.3683 -0.5902
 4667SOL    HW318435   2.279   2.790   0.706  0.0590 -3.5437 -2.4435
 4667SOL    MW418436   2.310   2.838   0.640 -0.1164 -0.4960  0.8121
 4668SOL     OW18437   3.498   3.333   4.213 -0.2112 -0.2844 -0.3297
 4668SOL    HW218438   3.419   3.386   4.222 -0.3436 -0.4704 -0.4015
 4668SOL    HW318439   3.517   3.304   4.302 -0.7907 -1.0601 -0.4488
 4668SOL    MW418440   3.490   3.336   4.226 -0.2393 -0.0415  0.0060
 4669SOL     OW18441   2.488   0.643   2.564 -0.6914 -0.3890 -0.4785
 4669SOL    HW218442   2.569   0.593   2.555  0.6536  1.4783  0.7037
 4669SOL    HW318443   2.457   0.623   2.653 -2.1285 -1.8579 -1.2516
 4669SOL    MW418444   2.495   0.633   2.575  0.0027 -0.4131  0.6390
 4670SOL     OW18445   3.585   1.129   0.406  0.5612 -0.2016  0.9193
 4670SOL    HW218446   3.526   1.204   0.414  0.6348 -0.2751  2.4033
 4670SOL    HW318447   3.629   1.124   0.491  2.1710 -0.6071  0.1040
 4670SOL    MW418448   3.583   1.139   0.419  0.4028  0.7070 -0.2718
 4671SOL     OW18449   4.893   3.573   5.622 -0.1325 -0.6380  0.0950
 4671SOL    HW218450   4.856   3.630   5.690 -0.6877 -0.8334 -0.0330
 4671SOL    HW318451   4.947   3.510   5.670 -0.5908 -0.8269  0.3678
 4671SOL    MW418452   4.895   3.573   5.637 -0.6550 -0.3004 -0.7290
 4672SOL     OW18453   1.444   5.655   1.439  0.6254  0.2211  0.2638
 4672SOL    HW218454   1.427   5.620   1.527  1.0890  1.5136  0.8886
 4672SOL    HW318455   1.540   5.654   1.431  0.5866 -3.1321 -1.6239
 4672SOL    MW418456   1.455   5.650   1.449 -0.8032  0.0134 -0.4080
 4673SOL     OW18457   5.421   0.749   2.697 -0.3194  0.5201 -0.5209
 4673SOL    HW218458   5.384   0.696   2.768  1.6323  1.3330  1.1937
 4673SOL    HW318459   5.514   0.726   2.696 -0.2523  0.6749 -2.7399
 4673SOL    MW418460   5.428   0.739   2.706  0.5656  0.2673  0.0620
 4674SOL     OW18461   0.174   1.471   3.287 -0.3266  0.7265 -0.0484
 4674SOL    HW218462   0.120   1.392   3.294  2.3550 -1.1698  0.4324
 4674SOL    HW318463   0.214   1.481   3.374  1.4452  1.0173 -0.8539
 4674SOL    MW418464   0.172   1.462   3.300  0.3094  0.4543  0.0221
 4675SOL     OW18465   2.279   5.359   4.746  0.3232 -0.1248  0.1355
 4675SOL    HW218466   2.215   5.345   4.676  0.3172 -2.9985  0.5909
 4675SOL    HW318467   2.364   5.358   4.701  0.2034  0.3814 -0.0989
 4675SOL    MW418468   2.282   5.357   4.731 -0.3495  0.4373  0.1291
 4676SOL     OW18469   2.349   5.415   6.237  0.9506 -0.1470  0.0777
 4676SOL    HW218470   2.311   5.327   6.247 -0.5555  0.4919  0.2803
 4676SOL    HW318471   2.290   5.460   6.177  0.7675  1.2212  1.2213
 4676SOL    MW418472   2.336   5.409   6.231 -0.1988 -0.3771 -0.1471
 4677SOL     OW18473   1.021   0.484   6.243  0.2935  0.7354 -0.7751
 4677SOL    HW218474   1.107   0.451   6.215  1.3264  0.3820  2.3538
 4677SOL    HW318475   0.962   0.410   6.229  1.3235 -0.3746  0.4474
 4677SOL    MW418476   1.025   0.470   6.237 -0.1240  0.3047  0.1497
 4678SOL     OW18477   1.969   5.897   1.113  0.4236  0.0744  0.0795
 4678SOL    HW218478   1.884   5.856   1.123  0.5919 -1.0230 -2.3900
 4678SOL    HW318479   1.953   5.974   1.059  1.0981 -0.7684 -1.3879
 4678SOL    MW418480   1.956   5.902   1.107  0.1547  0.4442  0.4729
 4679SOL     OW18481   1.224   3.712   1.607 -1.2822  0.1644  0.7652
 4679SOL    HW218482   1.188   3.658   1.678 -0.2948  1.1703  2.0848
 4679SOL    HW318483   1.305   3.748   1.643  0.3612 -0.9240 -1.6125
 4679SOL    MW418484   1.230   3.710   1.621 -0.2688  0.3971 -0.5153
 4680SOL     OW18485   2.259   0.501   0.897  0.6375 -0.0421  0.0810
 4680SOL    HW218486   2.254   0.447   0.976 -0.6160  0.6179  0.4925
 4680SOL    HW318487   2.295   0.585   0.928  0.0104  0.2665 -0.0152
 4680SOL    MW418488   2.263   0.505   0.912  0.3321  0.4431 -0.3214
 4681SOL     OW18489   3.632   0.104   5.849  0.2206  0.3425 -0.2800
 4681SOL    HW218490   3.554   0.048   5.857  0.2847  0.0224 -1.6797
 4681SOL    HW318491   3.698   0.061   5.903 -0.1536 -0.1744 -0.2290
 4681SOL    MW418492   3.630   0.091   5.857 -0.3369  0.4094 -0.7269
 4682SOL     OW18493   4.154   2.849   4.949  1.3483 -0.1986 -0.1145
 4682SOL    HW218494   4.240   2.877   4.916  0.5597  1.1898 -1.0484
 4682SOL    HW318495   4.103   2.930   4.956 -0.8841 -1.2812 -2.5064
 4682SOL    MW418496   4.159   2.863   4.946 -0.7237 -0.1306  0.0611
 4683SOL     OW18497   5.727   3.013   0.282 -0.1314 -0.2057 -0.0171
 4683SOL    HW218498   5.748   2.981   0.194  0.4273 -0.0798  0.0643
 4683SOL    HW318499   5.803   2.988   0.335 -0.2409  0.1575  0.3155
 4683SOL    MW418500   5.740   3.005   0.278  0.0358 -0.2817 -0.3979
 4684SOL     OW18501   5.591   3.741   5.762  0.4284 -0.5749 -0.2177
 4684SOL    HW218502   5.590   3.646   5.768  1.0053 -0.5963 -0.3903
 4684SOL    HW318503   5.499   3.766   5.761  0.2420 -1.2156 -1.4874
 4684SOL    MW418504   5.579   3.732   5.763 -0.4806 -0.2300 -0.4070
 4685SOL     OW18505   1.611   3.410   0.820  0.3491 -0.2116 -0.6628
 4685SOL    HW218506   1.647   3.457   0.896  0.3732  0.0235 -0.8179
 4685SOL    HW318507   1.603   3.320   0.850  1.1460 -0.2889 -0.6569
 4685SOL    MW418508   1.614   3.405   0.834  0.2548 -0.5057 -0.0594
 4686SOL     OW18509   3.284   3.574   3.668  0.0359  0.1930 -0.3667
 4686SOL    HW218510   3.324   3.645   3.617 -1.3834  1.1677 -0.2037
 4686SOL    HW318511   3.342   3.500   3.656  0.7459  0.9385 -1.8504
 4686SOL    MW418512   3.297   3.574   3.660  0.3845 -0.1641 -0.5032
 4687SOL     OW18513   3.348   4.973   1.750  0.0177 -0.3364  0.4169
 4687SOL    HW218514   3.416   5.040   1.747  0.6208 -0.9485 -1.7553
 4687SOL    HW318515   3.371   4.918   1.825  0.2586  1.0888  1.4260
 4687SOL    MW418516   3.360   4.974   1.759  0.9920  0.3153  0.3928
 4688SOL     OW18517   3.497   3.646   5.683 -0.5321 -0.5569  0.2277
 4688SOL    HW218518   3.422   3.701   5.662  0.2295 -0.2698 -1.9421
 4688SOL    HW318519   3.461   3.578   5.741 -2.0692  0.5617  0.6392
 4688SOL    MW418520   3.482   3.644   5.688  0.3428  0.2619  0.0121
 4689SOL     OW18521   2.883   4.055   1.079  0.4706 -0.2816  0.3458
 4689SOL    HW218522   2.857   3.971   1.041 -1.3062  0.4802 -0.2321
 4689SOL    HW318523   2.933   4.098   1.010  0.8032 -0.5756  0.3975
 4689SOL    MW418524   2.886   4.049   1.065  0.2422  0.1179  0.6399
 4690SOL     OW18525   4.431   1.502   2.078 -0.3204 -0.0415  0.6944
 4690SOL    HW218526   4.404   1.574   2.136  0.1492  0.4342  0.3295
 4690SOL    HW318527   4.511   1.533   2.037 -0.9345 -0.1429 -0.6312
 4690SOL    MW418528   4.438   1.516   2.080 -0.0738 -0.1661  0.3549
 4691SOL     OW18529   2.970   3.940   5.991 -0.1793  0.4145  0.5245
 4691SOL    HW218530   2.952   4.012   6.050  4.2522  0.1113  2.7017
 4691SOL    HW318531   3.021   3.979   5.920 -1.6258  0.0291 -0.7931
 4691SOL    MW418532   2.975   3.954   5.990 -0.1374 -0.0322  0.6399
 4692SOL     OW18533   3.284   4.600   3.151 -0.0912 -0.1687 -0.2471
 4692SOL    HW218534   3.334   4.521   3.172  0.9209  0.1513 -1.3426
 4692SOL    HW318535   3.250   4.630   3.235  1.4592 -0.4935  0.5289
 4692SOL    MW418536   3.286   4.594   3.165  0.4116 -0.0108 -0.4862
 4693SOL     OW18537   0.043   0.663   5.685 -0.0994 -0.0660  0.4526
 4693SOL    HW218538   0.043   0.759   5.691 -0.3998 -0.0608  0.3784
 4693SOL    HW318539   0.134   0.638   5.702  0.1126  0.2699 -0.1645
 4693SOL    MW418540   0.055   0.673   5.688 -1.0346 -0.1812  0.5774
 4694SOL     OW18541   4.727   6.391   1.605  0.5944 -0.2277  0.4904
 4694SOL    HW218542   4.726   6.481   1.639 -1.4786  0.4847 -1.2724
 4694SOL    HW318543   4.807   6.386   1.553  1.7971 -0.1207  2.2255
 4694SOL    MW418544   4.738   6.402   1.603 -0.1438 -0.0664  0.0648
 4695SOL     OW18545   0.770   0.151   4.571 -0.0254 -0.5848  0.1707
 4695SOL    HW218546   0.796   0.125   4.483 -2.3457  1.2943 -1.1928
 4695SOL    HW318547   0.676   0.169   4.565  0.2766  2.5997  2.1949
 4695SOL    MW418548   0.761   0.150   4.559  0.1022 -0.1490 -0.0252
 4696SOL     OW18549   2.384   0.973   3.176  0.4771 -0.1164  1.0692
 4696SOL    HW218550   2.364   1.024   3.097 -1.1411 -0.7139  1.0605
 4696SOL    HW318551   2.327   1.010   3.244  1.9417  0.4776  2.0237
 4696SOL    MW418552   2.374   0.985   3.175 -0.2011  0.6414  0.2205
 4697SOL     OW18553   2.253   1.475   0.437  0.3929 -0.2304 -0.6532
 4697SOL    HW218554   2.269   1.563   0.472  1.5413 -0.5796 -0.2792
 4697SOL    HW318555   2.177   1.444   0.487 -0.0833  0.5657 -0.8488
 4697SOL    MW418556   2.245   1.483   0.449 -0.8646  0.9769  0.1878
 4698SOL     OW18557   0.506   0.523   4.883  0.0207  0.5588  0.2019
 4698SOL    HW218558   0.526   0.430   4.880  0.1469  0.6016 -0.3652
 4698SOL    HW318559   0.411   0.528   4.876  0.0290  0.4820  0.0344
 4698SOL    MW418560   0.496   0.512   4.882  0.5892 -0.4555  0.0805
 4699SOL     OW18561   4.994   1.803   0.021 -0.5926  0.2848  0.0390
 4699SOL    HW218562   5.014   1.715  -0.010  0.1430  0.2607  0.5576
 4699SOL    HW318563   5.058   1.819   0.091 -0.7251  1.2253 -0.0442
 4699SOL    MW418564   5.005   1.793   0.026  0.0757  0.5015  0.3031
 4700SOL     OW18565   4.535   3.705   6.015 -0.0283 -0.2543 -0.1606
 4700SOL    HW218566   4.527   3.619   5.973  1.9510 -0.2952 -0.5310
 4700SOL    HW318567   4.573   3.761   5.948  2.8950 -0.2279  1.3798
 4700SOL    MW418568   4.539   3.701   6.001 -0.0657 -0.6225 -0.3647
 4701SOL     OW18569   6.383   1.275   2.365  0.3276 -0.4664  0.2773
 4701SOL    HW218570   6.362   1.365   2.388  1.4537  0.3033 -1.5402
 4701SOL    HW318571   6.299   1.235   2.343 -0.0095  0.6133 -0.4614
 4701SOL    MW418572   6.369   1.281   2.365 -0.2796  0.1176  0.1985
 4702SOL     OW18573   0.917   3.724   4.777  0.8200  0.2898  0.0192
 4702SOL    HW218574   0.885   3.768   4.856 -1.7454  0.7707 -1.1571
 4702SOL    HW318575   0.965   3.792   4.729 -0.5307  1.0280 -0.3628
 4702SOL    MW418576   0.919   3.739   4.781  0.2173 -0.1133  0.5141
 4703SOL     OW18577   1.898   6.363   0.457 -0.0178 -0.1255 -0.0411
 4703SOL    HW218578   1.919   6.383   0.366 -1.4494  0.5808 -0.2458
 4703SOL    HW318579   1.806   6.337   0.455  0.6614 -3.0000  0.7987
 4703SOL    MW418580   1.889   6.362   0.445  0.3277 -0.3853 -0.3474
 4704SOL     OW18581   5.108   2.924   5.831  0.2124 -0.0727  0.3837
 4704SOL    HW218582   5.060   2.958   5.906 -0.5630 -2.3308  0.9953
 4704SOL    HW318583   5.120   2.831   5.851  2.3161 -0.1907 -1.0954
 4704SOL    MW418584   5.104   2.916   5.844 -0.1836  0.4931 -0.1747
 4705SOL     OW18585   2.153   3.867   4.671 -0.6325  0.4709 -0.0181
 4705SOL    HW218586   2.098   3.849   4.748 -0.0793 -0.2838  0.2108
 4705SOL    HW318587   2.240   3.834   4.695 -1.2203 -3.3483 -2.3032
 4705SOL    MW418588   2.157   3.861   4.684  0.2236  0.2214  0.7366
 4706SOL     OW18589   2.151   0.709   4.512  0.2756 -0.1903 -0.0075
 4706SOL    HW218590   2.235   0.705   4.467  0.0360  0.3316 -0.5143
 4706SOL    HW318591   2.148   0.630   4.565  1.5421  0.2831  0.8210
 4706SOL    MW418592   2.162   0.698   4.513 -0.1112  0.4474 -0.7491
 4707SOL     OW18593   0.547   0.792   6.078  0.2705 -0.3216  0.1856
 4707SOL    HW218594   0.560   0.721   6.141 -0.9046 -0.1731  0.6303
 4707SOL    HW318595   0.600   0.864   6.112 -0.4194 -0.2137  1.0688
 4707SOL    MW418596   0.556   0.792   6.091 -0.4163 -0.2079  0.3026
 4708SOL     OW18597   5.517   0.021   4.167 -0.0894 -0.4295 -0.6331
 4708SOL    HW218598   5.563  -0.053   4.209 -0.5368 -0.5256 -0.3057
 4708SOL    HW318599   5.579   0.053   4.101  0.4846 -0.5136 -0.1505
 4708SOL    MW418600   5.531   0.016   4.164  0.2670  0.2979 -0.2563
 4709SOL     OW18601   3.561   0.678   5.730 -0.0600  0.9104 -0.0697
 4709SOL    HW218602   3.581   0.691   5.637  1.1550 -1.7211 -0.2583
 4709SOL    HW318603   3.561   0.583   5.742 -1.7949  1.1172  2.3219
 4709SOL    MW418604   3.563   0.667   5.719 -0.0634  0.2129  0.4926
 4710SOL     OW18605   0.291   5.224   3.233 -0.1851  0.0093 -0.1650
 4710SOL    HW218606   0.297   5.318   3.215 -1.8255 -0.0784 -1.4053
 4710SOL    HW318607   0.217   5.194   3.180  0.3694 -2.0147  0.1218
 4710SOL    MW418608   0.282   5.232   3.224 -0.4329  0.2851  0.0288
 4711SOL     OW18609   6.016   4.172   4.530 -0.4000  1.0260  0.4427
 4711SOL    HW218610   6.008   4.145   4.439 -2.1822  0.8653  0.6004
 4711SOL    HW318611   6.093   4.125   4.563  0.7325  1.6975 -1.1596
 4711SOL    MW418612   6.025   4.162   4.523 -0.3798 -0.3306 -0.1151
 4712SOL     OW18613   0.119   4.054   2.280 -0.7019  0.5577  0.2296
 4712SOL    HW218614   0.069   4.120   2.327 -1.5353 -0.0414  0.2038
 4712SOL    HW318615   0.210   4.082   2.288 -0.9963  1.3913  0.7054
 4712SOL    MW418616   0.125   4.066   2.287  0.1680 -0.1695  0.0474
 4713SOL     OW18617   4.382   4.167   5.282 -0.0686  0.5826  0.5223
 4713SOL    HW218618   4.298   4.135   5.314 -0.8178  0.1671 -1.6557
 4713SOL    HW318619   4.442   4.093   5.295 -0.2468  0.5609  1.2641
 4713SOL    MW418620   4.379   4.153   5.288  0.4260 -0.4179 -0.4280
 4714SOL     OW18621   2.908   0.436   2.137  0.0895  0.2530  0.4728
 4714SOL    HW218622   2.874   0.442   2.047  1.3774 -1.0920 -0.1612
 4714SOL    HW318623   2.848   0.376   2.181  0.2906 -0.2793  0.0442
 4714SOL    MW418624   2.896   0.429   2.131  0.0730 -0.2060  0.0773
 4715SOL     OW18625   5.239   4.500   6.035  0.0181  0.6540 -0.0044
 4715SOL    HW218626   5.322   4.452   6.044 -0.2509 -0.1777 -1.5900
 4715SOL    HW318627   5.220   4.530   6.124  1.0725 -0.7457  0.7515
 4715SOL    MW418628   5.248   4.497   6.048 -0.3685  0.2869 -0.1372
 4716SOL     OW18629   4.335   5.167   1.886 -0.1765  0.3182  0.2420
 4716SOL    HW218630   4.339   5.100   1.819  2.0990 -0.1473  0.7634
 4716SOL    HW318631   4.367   5.246   1.843  1.3910 -0.0064  0.7644
 4716SOL    MW418632   4.340   5.169   1.871  0.3658 -0.3894 -0.0100
 4717SOL     OW18633   0.938   4.708   2.105 -0.1427  0.7380 -0.1524
 4717SOL    HW218634   0.984   4.645   2.049  0.8967  0.1958  1.2726
 4717SOL    HW318635   0.898   4.655   2.173 -0.0006  1.5421  0.5693
 4717SOL    MW418636   0.939   4.693   2.106 -0.0675  0.0030 -0.2000
 4718SOL     OW18637   6.411   4.587   3.994  0.6192  0.2665 -0.3762
 4718SOL    HW218638   6.347   4.597   3.924  0.5120 -2.4916 -0.7547
 4718SOL    HW318639   6.384   4.651   4.060 -1.2947  0.5582 -1.3780
 4718SOL    MW418640   6.399   4.597   3.993 -0.3785  0.2469  0.0626
 4719SOL     OW18641   1.644   6.341   3.733  0.0902  0.4892 -0.5501
 4719SOL    HW218642   1.735   6.352   3.706  0.3119 -0.3508 -0.1762
 4719SOL    HW318643   1.603   6.293   3.661  0.0249  0.5672 -0.5654
 4719SOL    MW418644   1.650   6.336   3.720 -0.3136  0.2412  0.0964
 4720SOL     OW18645   1.777   2.944   1.809 -0.5242 -0.2363  0.1257
 4720SOL    HW218646   1.787   2.929   1.714  0.4642  0.4921  0.1049
 4720SOL    HW318647   1.707   2.884   1.834 -0.2415 -1.0588 -0.9179
 4720SOL    MW418648   1.769   2.934   1.800  0.6271  0.9056 -0.2993
 4721SOL     OW18649   4.307   4.893   1.793 -0.6327 -0.1038  0.4374
 4721SOL    HW218650   4.238   4.842   1.751  0.1458 -1.6155  0.9338
 4721SOL    HW318651   4.291   4.882   1.887 -1.2429  1.7029  0.5863
 4721SOL    MW418652   4.296   4.885   1.800 -0.3877 -0.2563  0.1268
 4722SOL     OW18653   2.659   0.540   1.539  0.6444  0.0269 -0.1578
 4722SOL    HW218654   2.728   0.546   1.473  0.1564  1.4354 -0.5737
 4722SOL    HW318655   2.672   0.616   1.594 -1.7998  1.5625 -1.5066
 4722SOL    MW418656   2.670   0.550   1.537  0.9501 -0.1130 -0.1292
 4723SOL     OW18657   2.224   0.162   4.625 -0.8979  0.2261  0.6253
 4723SOL    HW218658   2.266   0.087   4.667 -1.1945 -0.2714  0.0506
 4723SOL    HW318659   2.130   0.141   4.629 -0.9416  0.3060 -0.0318
 4723SOL    MW418660   2.217   0.149   4.631  0.0910  1.0825 -0.0422
 4724SOL     OW18661   2.112   1.437   3.772 -0.1946  0.4709 -0.0566
 4724SOL    HW218662   2.126   1.531   3.783  0.6339  0.4466 -0.8207
 4724SOL    HW318663   2.085   1.407   3.859  1.2544  1.1287  0.6547
 4724SOL    MW418664   2.111   1.445   3.785  0.0688  0.7647 -0.2454
 4725SOL     OW18665   2.856   1.956   1.035  0.4289 -0.0418 -0.2131
 4725SOL    HW218666   2.838   2.044   1.069  1.7054  0.7500 -1.4872
 4725SOL    HW318667   2.912   1.916   1.100  1.5629  0.8805 -0.5902
 4725SOL    MW418668   2.861   1.962   1.048 -0.0290  0.2283  0.1457
 4726SOL     OW18669   1.984   1.569   3.326  0.0344  0.2107 -0.0455
 4726SOL    HW218670   1.894   1.591   3.304 -0.2962  0.4279  1.4694
 4726SOL    HW318671   1.977   1.495   3.386  0.8487  0.3882  0.2858
 4726SOL    MW418672   1.971   1.562   3.331 -0.2674 -0.5120 -0.3966
 4727SOL     OW18673   3.046   4.703   4.365 -0.6844 -0.2016 -0.6747
 4727SOL    HW218674   2.951   4.692   4.354 -0.2910 -1.2438 -4.8806
 4727SOL    HW318675   3.080   4.614   4.362  0.5318  0.2651 -1.0510
 4727SOL    MW418676   3.038   4.690   4.363  0.2126 -0.0564 -0.3231
 4728SOL     OW18677   0.171   4.595   0.902 -0.3863  0.4596 -0.0499
 4728SOL    HW218678   0.177   4.587   0.997 -0.5835 -2.1134 -0.2014
 4728SOL    HW318679   0.079   4.578   0.883  0.1350 -1.7994 -0.8509
 4728SOL    MW418680   0.159   4.592   0.912 -0.1688 -0.0772 -0.1648
 4729SOL     OW18681   2.740   4.880   2.455 -0.2053 -0.6270  0.5997
 4729SOL    HW218682   2.772   4.790   2.463  1.1547 -0.5221 -2.3327
 4729SOL    HW318683   2.813   4.928   2.417 -1.4411  1.3648  0.5883
 4729SOL    MW418684   2.754   4.874   2.451 -0.7297 -0.1933  0.0296
 4730SOL     OW18685   5.810   4.684   4.655 -0.1528  0.2456  0.8352
 4730SOL    HW218686   5.787   4.591   4.654  0.2224  0.1391  1.3742
 4730SOL    HW318687   5.832   4.702   4.747 -0.5902  0.9606  0.8105
 4730SOL    MW418688   5.810   4.674   4.667 -0.1121 -0.6209 -0.2232
 4731SOL     OW18689   0.459   1.587   1.606  0.3884 -0.2192 -0.0644
 4731SOL    HW218690   0.533   1.617   1.659  1.0810  0.5231 -1.4227
 4731SOL    HW318691   0.383   1.598   1.664  1.1148  0.5407  0.7867
 4731SOL    MW418692   0.459   1.592   1.621 -0.1162 -0.0704 -0.1646
 4732SOL     OW18693   0.600   6.003   5.758 -0.0264 -0.5005  0.2107
 4732SOL    HW218694   0.637   5.922   5.724  1.4854  0.5637 -0.8174
 4732SOL    HW318695   0.633   6.071   5.699 -0.5266  0.9657  1.5510
 4732SOL    MW418696   0.610   6.002   5.745 -0.1468 -0.1765  0.2261
 4733SOL     OW18697   1.634   0.464   0.103 -0.0020 -0.0333  0.2873
 4733SOL    HW218698   1.559   0.523   0.096 -0.1834 -0.3121 -0.1638
 4733SOL    HW318699   1.651   0.457   0.198 -0.2544  0.3895  0.3636
 4733SOL    MW418700   1.627   0.471   0.115 -0.3051 -0.1193 -0.3754
 4734SOL     OW18701   0.685   0.771   1.235  0.5005 -0.0532 -0.4352
 4734SOL    HW218702   0.724   0.781   1.321 -1.9463  0.6260  0.6712
 4734SOL    HW318703   0.717   0.846   1.185  1.1677  0.0767  0.1781
 4734SOL    MW418704   0.694   0.782   1.239  0.2271  0.1529  0.0067
 4735SOL     OW18705   4.148   4.902   1.105 -0.2084  0.0683  0.0749
 4735SOL    HW218706   4.182   4.991   1.120  0.2079 -0.0900  0.0588
 4735SOL    HW318707   4.062   4.903   1.148  0.5600 -0.0831  1.7200
 4735SOL    MW418708   4.141   4.914   1.113  0.2011  0.2115 -0.5858
 4736SOL     OW18709   4.576   0.939   6.395 -0.5738 -0.6131  0.4189
 4736SOL    HW218710   4.534   0.856   6.374 -1.8572 -0.2482  1.4083
 4736SOL    HW318711   4.560   0.994   6.318 -1.4233 -0.6783  0.5333
 4736SOL    MW418712   4.568   0.935   6.382 -0.4694  0.5839 -0.1368
 4737SOL     OW18713   2.118   2.843   6.105 -0.0401  0.2005  0.0921
 4737SOL    HW218714   2.134   2.831   6.011  0.1561  0.2924  0.1132
 4737SOL    HW318715   2.201   2.877   6.139  0.9345 -2.5794  0.8101
 4737SOL    MW418716   2.131   2.846   6.097 -0.2433  0.0654  0.1946
 4738SOL     OW18717   0.663   2.322   6.149 -0.2012  0.2431 -0.1463
 4738SOL    HW218718   0.616   2.261   6.205 -1.1497  1.8589  0.8887
 4738SOL    HW318719   0.595   2.365   6.097  0.4307  0.5472 -0.7419
 4738SOL    MW418720   0.648   2.320   6.150 -0.3703 -0.5018  0.4910
 4739SOL     OW18721   0.561   3.147   2.241 -0.1559  0.2578  0.0958
 4739SOL    HW218722   0.575   3.242   2.237 -3.0923  0.7358 -1.9897
 4739SOL    HW318723   0.479   3.137   2.289  0.1651 -1.2695  0.3839
 4739SOL    MW418724   0.552   3.158   2.247  0.1268  0.2698  0.7149
 4740SOL     OW18725   1.553   5.009   2.474  0.8779 -0.3719  0.3743
 4740SOL    HW218726   1.538   5.104   2.478  1.7359 -0.1832 -0.4771
 4740SOL    HW318727   1.470   4.971   2.501 -0.0788  0.6266 -0.9846
 4740SOL    MW418728   1.540   5.017   2.478 -0.0775 -0.1288 -0.6140
 4741SOL     OW18729   5.653   0.655   6.269 -0.2658 -0.3724  0.2206
 4741SOL    HW218730   5.721   0.697   6.321 -0.8337 -0.6251  1.1846
 4741SOL    HW318731   5.617   0.587   6.326 -0.0709 -1.4920 -0.9442
 4741SOL    MW418732   5.657   0.652   6.283 -0.4687 -0.1825  0.1447
 4742SOL     OW18733   0.471   0.346   5.750  0.3098 -0.3780  0.7139
 4742SOL    HW218734   0.527   0.400   5.694 -0.8630  2.5159  2.1361
 4742SOL    HW318735   0.441   0.276   5.693  0.1984  1.6639 -1.9379
 4742SOL    MW418736   0.474   0.344   5.735  0.0575 -0.7469  0.5711
 4743SOL     OW18737   4.854   3.649   6.053 -0.2336  0.0521 -0.1381
 4743SOL    HW218738   4.800   3.634   6.131 -0.3219 -4.0305 -0.7476
 4743SOL    HW318739   4.795   3.690   5.990 -1.3356 -0.2236  0.6911
 4743SOL    MW418740   4.839   3.652   6.055 -0.0384  0.6072 -0.4338
 4744SOL     OW18741   4.943   3.872   1.668  0.6508 -0.4781 -0.6466
 4744SOL    HW218742   4.957   3.965   1.649  2.1081 -0.8119 -1.2903
 4744SOL    HW318743   4.984   3.859   1.753 -0.8362 -0.2477  0.1461
 4744SOL    MW418744   4.950   3.883   1.677 -0.2217 -0.2569  0.0117
 4745SOL     OW18745   3.021   5.078   3.884 -0.7514  0.0630  0.1739
 4745SOL    HW218746   2.959   5.039   3.823  1.1077 -1.4173 -0.8733
 4745SOL    HW318747   2.990   5.051   3.971 -1.6150 -0.5404 -0.3043
 4745SOL    MW418748   3.009   5.070   3.888 -0.1732 -0.0319 -0.2597
 4746SOL     OW18749   4.468   3.783   3.085 -0.4029 -0.1794 -0.2019
 4746SOL    HW218750   4.452   3.871   3.053 -1.2465 -0.6436 -1.0842
 4746SOL    HW318751   4.558   3.786   3.119 -0.3265  0.9331 -0.4729
 4746SOL    MW418752   4.478   3.795   3.085 -0.0536 -0.9368  0.1000
 4747SOL     OW18753   3.621   0.236   2.379 -0.5998  0.4533  0.0802
 4747SOL    HW218754   3.533   0.235   2.418 -0.0666 -0.0979  1.3384
 4747SOL    HW318755   3.621   0.312   2.322 -1.7775  0.6828  0.3556
 4747SOL    MW418756   3.609   0.246   2.377  0.0692  0.2287 -0.2941
 4748SOL     OW18757   4.770   4.691   0.425  0.1085 -0.1571  0.5396
 4748SOL    HW218758   4.704   4.630   0.391  0.7814 -1.7133  1.8639
 4748SOL    HW318759   4.757   4.771   0.375 -2.1329 -0.7395  0.0868
 4748SOL    MW418760   4.760   4.693   0.414  0.0862 -0.8002 -0.4163
 4749SOL     OW18761   3.043   1.553   3.208 -0.0394  0.5094  0.0766
 4749SOL    HW218762   3.107   1.508   3.263  1.3533  1.6464 -0.5316
 4749SOL    HW318763   3.006   1.621   3.264 -0.3465  0.1733  0.2828
 4749SOL    MW418764   3.047   1.556   3.223  0.1140  0.2026 -0.3557
 4750SOL     OW18765   2.071   6.118   4.281  0.5617  0.3275  0.5411
 4750SOL    HW218766   2.032   6.204   4.296 -0.1539  1.3145 -4.7623
 4750SOL    HW318767   1.996   6.061   4.260  1.2344  0.6256 -3.5159
 4750SOL    MW418768   2.056   6.122   4.280 -0.0486  0.3312 -0.3579
 4751SOL     OW18769   0.238   0.268   4.071  0.1906 -0.0270 -0.1746
 4751SOL    HW218770   0.216   0.355   4.103 -0.8568  0.4773 -2.1258
 4751SOL    HW318771   0.157   0.218   4.079  0.6932 -0.7511  0.6056
 4751SOL    MW418772   0.225   0.273   4.077 -0.3584  0.5329  0.2366
 4752SOL     OW18773   0.656   1.612   4.744  0.3063  0.1126  0.5209
 4752SOL    HW218774   0.704   1.556   4.683 -0.3740  0.4887 -0.3849
 4752SOL    HW318775   0.699   1.598   4.829  2.1668  0.6277 -0.2930
 4752SOL    MW418776   0.668   1.603   4.748 -0.2694  0.2884 -0.3187
 4753SOL     OW18777   5.529   3.534   0.257  0.3753 -0.1399  0.1244
 4753SOL    HW218778   5.619   3.568   0.256  0.7406 -1.0579  0.8489
 4753SOL    HW318779   5.536   3.445   0.224  0.1076 -1.0395  2.3398
 4753SOL    MW418780   5.542   3.527   0.252 -0.0302  0.2040  0.5208
 4754SOL     OW18781   6.428   3.614   0.778 -0.5571 -0.1228 -0.2982
 4754SOL    HW218782   6.355   3.658   0.821  0.2733  0.7599  0.2647
 4754SOL    HW318783   6.506   3.649   0.822  0.3043  0.4970 -2.2378
 4754SOL    MW418784   6.429   3.624   0.790  0.1100 -0.3209 -0.4447
 4755SOL     OW18785   2.344   5.860   3.198  0.5815  0.5222 -0.3753
 4755SOL    HW218786   2.424   5.896   3.161 -0.0457  1.1388 -1.1590
 4755SOL    HW318787   2.328   5.912   3.277  1.0205  0.2974 -0.1325
 4755SOL    MW418788   2.352   5.872   3.204 -0.6895  0.2600 -0.1154
 4756SOL     OW18789   5.630   4.855   5.393  0.2819  0.0774 -0.0054
 4756SOL    HW218790   5.596   4.926   5.448  2.4439 -0.3844  2.1120
 4756SOL    HW318791   5.668   4.900   5.317  0.5925  1.1017  0.7348
 4756SOL    MW418792   5.630   4.871   5.390  0.2634  0.3988 -0.3512
 4757SOL     OW18793   0.650   1.256   5.897 -0.1799  1.1218  0.5025
 4757SOL    HW218794   0.610   1.254   5.810 -0.6765  1.8705  0.6974
 4757SOL    HW318795   0.577   1.271   5.956  0.1142  0.3007  1.0875
 4757SOL    MW418796   0.635   1.258   5.893 -0.0046  0.2787  0.6805
 4758SOL     OW18797   1.035   3.373   0.444  0.3041 -0.4695 -0.3632
 4758SOL    HW218798   1.073   3.285   0.450 -1.0937 -1.0391  0.8274
 4758SOL    HW318799   1.047   3.410   0.532  0.3716  0.3218 -0.6978
 4758SOL    MW418800   1.042   3.366   0.457 -0.0379 -0.5839 -0.2251
 4759SOL     OW18801   0.178   0.273   0.005  0.6538 -0.6089 -0.1810
 4759SOL    HW218802   0.257   0.244   0.052  0.2975 -0.4410  0.5378
 4759SOL    HW318803   0.168   0.209  -0.066  2.7828  0.6913 -1.7792
 4759SOL    MW418804   0.187   0.260   0.002 -0.0807 -0.4952 -0.3119
 4760SOL     OW18805   2.396   3.685   2.353 -0.2269  0.1409  0.3177
 4760SOL    HW218806   2.459   3.624   2.391  1.2938  0.3220 -1.7219
 4760SOL    HW318807   2.449   3.760   2.325 -1.3603  0.3993 -1.2843
 4760SOL    MW418808   2.412   3.687   2.355 -0.8991 -0.4625 -0.0554
 4761SOL     OW18809   3.839   5.224   1.750  0.2116  0.5036 -0.4748
 4761SOL    HW218810   3.836   5.178   1.666  2.0279  1.0378 -0.8668
 4761SOL    HW318811   3.817   5.314   1.728 -3.0956  0.0205  0.2563
 4761SOL    MW418812   3.836   5.230   1.736  0.1027 -0.3243 -0.2296
 4762SOL     OW18813   6.211   2.997   1.579  0.6205  0.6242  1.1980
 4762SOL    HW218814   6.207   2.928   1.512  1.8519  0.7922  0.9240
 4762SOL    HW318815   6.260   3.068   1.538 -0.2135  1.4936  1.6481
 4762SOL    MW418816   6.217   2.997   1.565 -0.0533  0.5441  0.2447
 4763SOL     OW18817   6.404   3.003   0.195  0.0181 -0.5516 -0.2343
 4763SOL    HW218818   6.462   3.056   0.249 -0.7663  0.3730 -0.2734
 4763SOL    HW318819   6.462   2.940   0.151  0.7224 -1.0056  1.2914
 4763SOL    MW418820   6.419   3.002   0.196 -0.3874 -0.3854  0.0361
 4764SOL     OW18821   1.247   4.912   5.662 -0.0767  0.2858 -0.3479
 4764SOL    HW218822   1.221   4.996   5.626 -0.4940  0.6976  0.8506
 4764SOL    HW318823   1.330   4.892   5.620  0.5752  1.8367  0.1567
 4764SOL    MW418824   1.254   4.920   5.652 -0.5431  0.2702 -0.2330
 4765SOL     OW18825   4.265   1.034   0.049 -0.1588  0.4947  0.0679
 4765SOL    HW218826   4.259   0.939   0.039  1.7064  0.5070 -1.8129
 4765SOL    HW318827   4.324   1.047   0.124  0.7658  0.1268 -0.5822
 4765SOL    MW418828   4.272   1.024   0.058 -0.6591 -0.0336 -0.1840
 4766SOL     OW18829   1.515   5.421   4.119 -0.2015  0.0467  0.6973
 4766SOL    HW218830   1.505   5.514   4.139  0.3753  0.1651  0.4355
 4766SOL    HW318831   1.445   5.379   4.170 -1.9269  0.8261 -0.9193
 4766SOL    MW418832   1.504   5.428   4.129  0.4099 -0.1722 -0.4028
 4767SOL     OW18833   4.089   0.647   3.834 -0.4018 -0.0347 -0.3236
 4767SOL    HW218834   4.060   0.709   3.767 -3.9977 -0.7653  0.3041
 4767SOL    HW318835   4.045   0.677   3.914  0.8300 -1.2642  0.8734
 4767SOL    MW418836   4.079   0.659   3.836  0.1386  0.3416 -0.6566
 4768SOL     OW18837   0.391   2.931   4.243  0.3750  0.0552 -0.8620
 4768SOL    HW218838   0.454   2.896   4.305  1.2831  0.7892 -1.3537
 4768SOL    HW318839   0.350   3.005   4.289 -1.0285 -1.1368 -0.0936
 4768SOL    MW418840   0.394   2.936   4.257  0.2828 -0.2161 -0.2588
 4769SOL     OW18841   2.344   2.344   3.659 -0.4408  0.2846  0.7051
 4769SOL    HW218842   2.321   2.306   3.574  0.7892  0.5103  0.2528
 4769SOL    HW318843   2.302   2.430   3.659  0.4112  0.7182 -0.1253
 4769SOL    MW418844   2.335   2.350   3.647 -0.5484  0.8214  0.1017
 4770SOL     OW18845   4.543   1.472   2.345 -0.7359  0.0119  0.5028
 4770SOL    HW218846   4.610   1.414   2.308 -1.3476  0.2534 -1.0391
 4770SOL    HW318847   4.541   1.449   2.438  0.4518 -1.0197  0.3078
 4770SOL    MW418848   4.552   1.461   2.353 -0.3144 -0.1903  0.2771
 4771SOL     OW18849   1.789   3.464   4.291 -0.6121  0.2974 -0.1587
 4771SOL    HW218850   1.713   3.429   4.337 -0.8180  1.2699  0.2520
 4771SOL    HW318851   1.855   3.476   4.358 -0.3668  0.2139 -0.3833
 4771SOL    MW418852   1.787   3.461   4.306 -0.0398  0.1023  0.6445
 4772SOL     OW18853   1.651   5.725   3.922 -0.6206 -0.2811  0.2732
 4772SOL    HW218854   1.599   5.648   3.899  0.6864 -0.3988 -2.7704
 4772SOL    HW318855   1.737   5.690   3.945 -0.5784  0.1686  0.8285
 4772SOL    MW418856   1.656   5.710   3.922 -0.2561  0.8887 -0.1293
 4773SOL     OW18857   3.587   3.775   0.097 -0.6083 -0.2453  0.2681
 4773SOL    HW218858   3.501   3.773   0.056 -0.4604  1.1283 -0.1751
 4773SOL    HW318859   3.600   3.867   0.120  1.3848 -0.1290 -1.0941
 4773SOL    MW418860   3.577   3.787   0.095  0.6695 -0.2583  0.2694
 4774SOL     OW18861   2.129   3.207   1.645 -0.1039 -0.1610 -0.4303
 4774SOL    HW218862   2.084   3.287   1.673  1.0430  0.4541 -0.2799
 4774SOL    HW318863   2.080   3.137   1.687 -0.3875  0.5483  0.4763
 4774SOL    MW418864   2.117   3.209   1.654  1.5213  0.6900  0.8908
 4775SOL     OW18865   0.983   4.533   1.718 -0.3333 -0.0412 -0.3296
 4775SOL    HW218866   1.010   4.539   1.809 -1.9864  1.8998  0.1288
 4775SOL    HW318867   0.994   4.441   1.694 -0.2415 -0.6654  1.9421
 4775SOL    MW418868   0.988   4.522   1.727 -0.1249 -0.8407 -0.6158
 4776SOL     OW18869   1.204   6.265   6.072  0.3068 -0.1012  0.3552
 4776SOL    HW218870   1.109   6.250   6.073  0.1444  0.0021 -2.8558
 4776SOL    HW318871   1.242   6.177   6.075  0.0651 -0.2093  0.2681
 4776SOL    MW418872   1.196   6.251   6.073  0.3763  0.1635  0.2546
 4777SOL     OW18873   5.003   4.756   2.062  0.3981 -0.3664 -0.1346
 4777SOL    HW218874   4.965   4.755   1.974 -1.5736  0.5958  0.6499
 4777SOL    HW318875   5.091   4.792   2.050 -1.3114  4.0591 -1.2742
 4777SOL    MW418876   5.010   4.761   2.049  0.0540  0.2462  0.1457
 4778SOL     OW18877   3.477   2.948   2.081  0.4021  0.1330 -0.1173
 4778SOL    HW218878   3.435   2.874   2.127  0.9267 -0.2216 -0.2048
 4778SOL    HW318879   3.417   3.021   2.094 -0.5339 -0.5030 -0.6996
 4778SOL    MW418880   3.463   2.948   2.089 -0.3455  0.5649 -0.9588
 4779SOL     OW18881   5.862   1.770   3.242 -0.1047 -0.3908 -0.6227
 4779SOL    HW218882   5.942   1.746   3.196  0.8021 -0.3437  0.8758
 4779SOL    HW318883   5.892   1.810   3.323 -1.6535 -0.1437 -0.1414
 4779SOL    MW418884   5.877   1.772   3.247  0.1549  0.3476  0.3578
 4780SOL     OW18885   4.100   3.497   6.180  0.2477 -0.3366 -0.7740
 4780SOL    HW218886   4.068   3.420   6.227  1.2952 -0.2329  0.1504
 4780SOL    HW318887   4.021   3.541   6.149 -0.4904 -0.4384  0.8596
 4780SOL    MW418888   4.085   3.492   6.182  0.0451  0.2747 -0.5507
 4781SOL     OW18889   2.988   1.427   0.979  0.0063 -0.0691 -0.5699
 4781SOL    HW218890   3.077   1.394   0.993 -0.2293 -0.9666 -1.1066
 4781SOL    HW318891   2.975   1.418   0.884 -0.9337 -0.6868 -0.3910
 4781SOL    MW418892   2.998   1.421   0.968 -0.6542 -0.5083  0.2192
 4782SOL     OW18893   1.422   3.618   0.928 -0.4488  0.0581  0.0265
 4782SOL    HW218894   1.469   3.535   0.928 -0.4384  0.0238  1.7013
 4782SOL    HW318895   1.472   3.675   0.870  0.3738 -0.6632  0.0157
 4782SOL    MW418896   1.435   3.614   0.921  0.8292 -0.2361 -0.4860
 4783SOL     OW18897   6.362   4.804   0.461  0.0645  0.6782 -0.3704
 4783SOL    HW218898   6.390   4.889   0.493  0.7417  0.5922 -0.7171
 4783SOL    HW318899   6.440   4.749   0.465 -0.2762  0.1716 -0.4824
 4783SOL    MW418900   6.376   4.808   0.466 -0.2915 -0.5866 -0.3260
 4784SOL     OW18901   3.788   2.240   0.298  0.1481 -0.0278 -0.2297
 4784SOL    HW218902   3.723   2.294   0.253  1.4053  1.2506 -0.5859
 4784SOL    HW318903   3.846   2.303   0.341  0.7628 -1.1541  0.6286
 4784SOL    MW418904   3.787   2.255   0.298  0.2160  0.3984  0.1889
 4785SOL     OW18905   5.977   0.050   5.585  0.2959 -0.4305  0.1046
 4785SOL    HW218906   5.922   0.006   5.649  0.7681  0.0517  0.8624
 4785SOL    HW318907   6.037   0.104   5.637 -0.4501  1.3513 -0.7902
 4785SOL    MW418908   5.978   0.051   5.600  0.2996  0.1743  0.1210
 4786SOL     OW18909   3.169   0.019   6.347  0.1019 -0.3852  0.4801
 4786SOL    HW218910   3.090  -0.004   6.396  0.7266 -0.2653  1.5785
 4786SOL    HW318911   3.219  -0.062   6.342  0.6233 -0.1137  1.1606
 4786SOL    MW418912   3.165   0.006   6.353  0.0592 -0.1047  0.5295
 4787SOL     OW18913   2.124   3.355   6.196 -0.1339 -0.1305  0.3006
 4787SOL    HW218914   2.178   3.281   6.221  0.7010 -0.2881 -1.7756
 4787SOL    HW318915   2.052   3.317   6.145 -1.2487  0.2585  1.5152
 4787SOL    MW418916   2.121   3.341   6.192 -0.4843  0.2040 -0.2345
 4788SOL     OW18917   2.412   1.181   3.784  0.2020  0.4699 -0.7092
 4788SOL    HW218918   2.327   1.157   3.821  1.3869  0.0305  1.9974
 4788SOL    HW318919   2.443   1.101   3.741  0.6312 -0.4705  1.2291
 4788SOL    MW418920   2.405   1.167   3.783 -0.4168 -0.7410 -0.1982
 4789SOL     OW18921   1.905   4.795   5.394 -0.3064  0.3946  0.7251
 4789SOL    HW218922   1.834   4.751   5.347  0.5458 -1.2537  0.9471
 4789SOL    HW318923   1.977   4.800   5.331 -0.1783  0.9133  0.9071
 4789SOL    MW418924   1.905   4.790   5.380 -0.0538 -0.0599  1.0945
 4790SOL     OW18925   1.056   1.099   2.195 -0.1219 -0.1265  0.0067
 4790SOL    HW218926   1.014   1.172   2.149 -0.3256  0.0980  0.5481
 4790SOL    HW318927   1.149   1.122   2.197 -0.2389  0.3100  0.5269
 4790SOL    MW418928   1.063   1.112   2.189  0.3483  0.1086 -0.0354
 4791SOL     OW18929   3.795   0.032   3.401 -0.3123 -0.2078 -0.3635
 4791SOL    HW218930   3.715  -0.009   3.368  0.1231 -0.0596 -1.6719
 4791SOL    HW318931   3.787   0.027   3.496 -1.6089 -0.7043 -0.4744
 4791SOL    MW418932   3.783   0.026   3.409 -0.8592 -0.3227  0.2001
 4792SOL     OW18933   3.911   2.971   1.591 -0.3458 -0.1615  0.0044
 4792SOL    HW218934   3.989   2.979   1.536  0.5476  0.8497  1.3337
 4792SOL    HW318935   3.926   2.891   1.641  0.3060  0.4812  0.8837
 4792SOL    MW418936   3.923   2.962   1.590 -0.3397 -0.0906  0.1717
 4793SOL     OW18937   3.873   2.154   0.057 -0.5207 -0.3225 -0.0572
 4793SOL    HW218938   3.956   2.107   0.061 -1.9208 -2.8851  1.0132
 4793SOL    HW318939   3.852   2.173   0.149  0.1112  2.8589 -0.4222
 4793SOL    MW418940   3.881   2.151   0.070 -0.0448  0.2628  0.6971
 4794SOL     OW18941   0.731   3.379   5.743 -0.3541 -0.3640 -0.0417
 4794SOL    HW218942   0.677   3.427   5.805 -0.9890 -1.3498  0.1898
 4794SOL    HW318943   0.790   3.445   5.706 -1.0680  0.5430  0.4077
 4794SOL    MW418944   0.732   3.394   5.746 -0.0596  0.6531 -0.1108
 4795SOL     OW18945   1.940   4.852   6.096  0.3313 -0.2035  0.1070
 4795SOL    HW218946   1.855   4.847   6.050  0.0951 -0.7618  0.5942
 4795SOL    HW318947   1.922   4.902   6.175  0.6382  0.3492 -0.1625
 4795SOL    MW418948   1.926   4.858   6.100  0.6173 -0.0225  0.1371
 4796SOL     OW18949   4.993   2.008   1.919 -0.0617  0.0541  0.2189
 4796SOL    HW218950   4.958   1.950   1.987 -1.3809  0.5936  0.0201
 4796SOL    HW318951   5.074   2.042   1.956  1.8512 -3.3350 -0.3666
 4796SOL    MW418952   4.999   2.005   1.933 -0.9587 -0.3944 -0.1565
 4797SOL     OW18953   1.162   6.234   1.185  0.3986  0.3189 -0.0350
 4797SOL    HW218954   1.257   6.238   1.193  0.4932  1.7657 -1.5185
 4797SOL    HW318955   1.144   6.245   1.092 -1.2028 -1.1080  0.0322
 4797SOL    MW418956   1.172   6.236   1.174  0.3094 -0.1690 -0.4395
 4798SOL     OW18957   4.765   0.178   2.039 -0.2242 -0.2527  0.0901
 4798SOL    HW218958   4.759   0.117   2.112  0.9109  1.8984  2.1174
 4798SOL    HW318959   4.857   0.203   2.036 -0.5783  1.0523 -0.8881
 4798SOL    MW418960   4.776   0.173   2.048  0.0383 -0.2505 -0.3391
 4799SOL     OW18961   0.633   1.651   5.912 -0.0276 -0.2737  0.6109
 4799SOL    HW218962   0.651   1.636   5.819 -2.8750 -0.2771 -0.0321
 4799SOL    HW318963   0.703   1.604   5.958 -0.0738 -2.6357 -1.5087
 4799SOL    MW418964   0.645   1.643   5.906 -0.0348 -0.3282 -0.0710
 4800SOL     OW18965   5.227   5.779   5.780 -0.0893  0.6497 -0.3746
 4800SOL    HW218966   5.227   5.826   5.697 -1.0115  0.6820 -0.3769
 4800SOL    HW318967   5.146   5.728   5.778 -0.2991  0.9193  0.6399
 4800SOL    MW418968   5.216   5.779   5.769 -0.2423 -0.4368  0.6028
 4801SOL     OW18969   3.438   2.641   1.729 -0.1238  0.2063 -0.2228
 4801SOL    HW218970   3.480   2.705   1.786 -1.6318 -0.7776  2.1533
 4801SOL    HW318971   3.344   2.660   1.736 -0.6409 -2.1711  0.6263
 4801SOL    MW418972   3.431   2.652   1.738  0.2124  0.3639 -0.1180
 4802SOL     OW18973   2.182   1.725   3.749 -0.0144  0.0887  0.4003
 4802SOL    HW218974   2.257   1.783   3.765 -0.1499 -0.0204  1.5741
 4802SOL    HW318975   2.140   1.760   3.671  0.4719  0.9934  0.5326
 4802SOL    MW418976   2.186   1.737   3.741  0.0894  0.0681  0.2639
 4803SOL     OW18977   0.188   3.602   5.978  0.4612 -0.8976  0.2334
 4803SOL    HW218978   0.224   3.516   5.999 -2.2994 -2.0186  0.8491
 4803SOL    HW318979   0.110   3.583   5.926  0.5963  1.3433 -0.8962
 4803SOL    MW418980   0.182   3.588   5.974 -0.4442 -0.0614  0.2631
 4804SOL     OW18981   3.973   3.217   1.160 -0.7185  0.9160  0.2764
 4804SOL    HW218982   3.947   3.199   1.069  0.2673 -2.5503  0.5437
 4804SOL    HW318983   4.068   3.223   1.158 -0.5849 -0.4178  1.2024
 4804SOL    MW418984   3.982   3.215   1.148 -0.2222  0.4115 -0.1085
 4805SOL     OW18985   5.732   2.300   4.924 -0.2467 -0.6269 -0.3871
 4805SOL    HW218986   5.680   2.222   4.904 -0.6897 -0.1392 -1.2309
 4805SOL    HW318987   5.785   2.314   4.845  0.9491 -0.9391  0.3490
 4805SOL    MW418988   5.732   2.292   4.911 -0.0897  0.1810  0.2634
 4806SOL     OW18989   5.381   0.047   6.162 -0.2686  0.0099  0.2936
 4806SOL    HW218990   5.307   0.038   6.221 -0.7112  0.6264 -0.1554
 4806SOL    HW318991   5.342   0.048   6.075  0.5078 -2.6327 -0.1538
 4806SOL    MW418992   5.366   0.046   6.158  0.0391 -0.0832  0.3958
 4807SOL     OW18993   3.835   1.280   4.718  0.5594 -0.0730  0.2351
 4807SOL    HW218994   3.844   1.361   4.769 -1.1573 -0.2421  0.9058
 4807SOL    HW318995   3.923   1.260   4.688  1.9121 -0.4437  3.9436
 4807SOL    MW418996   3.847   1.288   4.721 -0.3734  0.0742  0.0771
 4808SOL     OW18997   3.747   2.314   0.667  0.5017  0.1542  0.1509
 4808SOL    HW218998   3.699   2.251   0.614  1.5201  0.9708 -1.8570
 4808SOL    HW318999   3.761   2.270   0.751 -1.9347 -0.8509  0.1118
 4808SOL    MW419000   3.743   2.300   0.671 -0.3124 -0.2699  0.6165
 4809SOL     OW19001   1.045   6.179   0.893 -0.1490 -0.0632  0.9189
 4809SOL    HW219002   0.950   6.191   0.902 -0.2617 -0.0684 -0.0720
 4809SOL    HW319003   1.055   6.085   0.874 -0.2698  0.4207 -2.0992
 4809SOL    MW419004   1.034   6.168   0.891 -0.3762  0.2397 -0.0693
 4810SOL     OW19005   1.153   5.907   3.577  0.2920  0.7556  0.3538
 4810SOL    HW219006   1.194   5.971   3.637  0.5127 -0.6770  1.8198
 4810SOL    HW319007   1.209   5.829   3.585 -0.0329  0.3315 -1.3033
 4810SOL    MW419008   1.166   5.905   3.586  0.0888  0.3300  0.3728
 4811SOL     OW19009   6.230   4.866   2.910  0.2901  0.1529  0.6841
 4811SOL    HW219010   6.287   4.927   2.862  1.0281 -0.7281  0.4027
 4811SOL    HW319011   6.194   4.918   2.981  2.5272  0.4411  1.7068
 4811SOL    MW419012   6.233   4.881   2.913  0.2180  0.4046  0.0908
 4812SOL     OW19013   2.045   5.031   2.994 -0.2440 -0.3302  0.4286
 4812SOL    HW219014   2.058   5.112   3.043  1.0058  0.1085 -0.5857
 4812SOL    HW319015   2.132   5.009   2.960 -1.2635  0.1341 -2.7560
 4812SOL    MW419016   2.058   5.039   2.996 -0.4874  0.4063 -0.0096
 4813SOL     OW19017   2.013   2.335   2.283 -0.6555  0.4144  0.0083
 4813SOL    HW219018   2.073   2.299   2.217 -0.9750 -0.0381 -0.0388
 4813SOL    HW319019   2.054   2.417   2.310  0.3817 -0.2518  0.5288
 4813SOL    MW419020   2.027   2.341   2.278 -0.0614 -0.3674  0.4087
 4814SOL     OW19021   2.611   5.021   2.682  0.2497  0.3340  0.5209
 4814SOL    HW219022   2.542   5.086   2.670 -1.2274 -1.0414  1.3238
 4814SOL    HW319023   2.630   4.990   2.594 -0.1831  0.6737  0.3044
 4814SOL    MW419024   2.605   5.026   2.669 -0.5469 -0.1711  0.0078
 4815SOL     OW19025   6.295   1.766   2.958  0.5048  0.0705 -0.5899
 4815SOL    HW219026   6.272   1.761   2.866 -0.4675  0.4358 -0.3844
 4815SOL    HW319027   6.383   1.803   2.960  0.5841 -0.0764 -1.3747
 4815SOL    MW419028   6.304   1.770   2.946  0.2596 -0.7011  0.5573
 4816SOL     OW19029   2.182   1.331   2.268  0.2550 -0.1897  0.1616
 4816SOL    HW219030   2.268   1.324   2.227 -0.8863 -1.2933 -2.1928
 4816SOL    HW319031   2.147   1.413   2.234  0.7145  0.8293  1.9730
 4816SOL    MW419032   2.189   1.341   2.258 -0.0323 -0.0306  0.5217
 4817SOL     OW19033   5.766   6.330   1.115  0.1485 -0.4437 -0.1673
 4817SOL    HW219034   5.782   6.294   1.027 -3.0618 -0.7298 -0.7241
 4817SOL    HW319035   5.739   6.420   1.099 -1.5231 -0.8219  0.4151
 4817SOL    MW419036   5.765   6.337   1.101 -0.8963  0.1559  0.7971
 4818SOL     OW19037   4.192   5.389   2.716  0.4796  0.0981  0.6392
 4818SOL    HW219038   4.262   5.381   2.780  0.9437  1.0303  0.2799
 4818SOL    HW319039   4.167   5.481   2.720  0.4955  0.1686 -0.4764
 4818SOL    MW419040   4.198   5.400   2.725 -0.1159  0.3789 -0.1366
 4819SOL     OW19041   1.569   2.767   2.130 -0.6642 -0.7949  0.0650
 4819SOL    HW219042   1.596   2.680   2.100  0.2112  0.1754 -2.1618
 4819SOL    HW319043   1.639   2.795   2.189  0.3913 -0.6012 -1.2339
 4819SOL    MW419044   1.582   2.759   2.133 -0.5914  0.8619  0.0540
 4820SOL     OW19045   2.332   6.116   0.125  0.3644 -0.1527  0.2977
 4820SOL    HW219046   2.321   6.184   0.059  0.0389 -0.5772 -0.0933
 4820SOL    HW319047   2.295   6.037   0.085 -1.1513 -0.1030  1.5407
 4820SOL    MW419048   2.326   6.114   0.111  0.0752  0.3128 -0.4970
 4821SOL     OW19049   1.889   3.116   5.779  0.4307  0.0021  0.9627
 4821SOL    HW219050   1.979   3.122   5.749  0.4926  0.7755  1.2899
 4821SOL    HW319051   1.889   3.156   5.866 -0.4410  1.1152  0.4866
 4821SOL    MW419052   1.901   3.122   5.786  0.1315 -0.2412 -0.1905
 4822SOL     OW19053   4.356   4.071   5.672 -0.7366 -0.0960  0.1150
 4822SOL    HW219054   4.276   4.022   5.652 -0.8532 -1.1455  2.7424
 4822SOL    HW319055   4.325   4.151   5.715 -0.3889 -0.3516  0.8451
 4822SOL    MW419056   4.341   4.075   5.675 -0.3055  0.0730 -0.0527
 4823SOL     OW19057   4.250   2.912   4.625  0.0142 -0.9016  0.3131
 4823SOL    HW219058   4.305   2.908   4.703  0.5904 -0.7128 -0.0795
 4823SOL    HW319059   4.267   2.999   4.589  0.7214 -1.4599 -0.7270
 4823SOL    MW419060   4.259   2.923   4.631 -0.2773  0.1909 -0.6013
 4824SOL     OW19061   5.618   2.945   2.430 -0.5564 -0.0017 -0.0238
 4824SOL    HW219062   5.675   2.970   2.503 -0.6800 -0.1395  0.1208
 4824SOL    HW319063   5.572   2.867   2.461 -0.1317 -0.4499 -0.4868
 4824SOL    MW419064   5.620   2.938   2.444 -0.3848  0.1727 -0.2261
 4825SOL     OW19065   5.628   5.533   5.172 -0.1864 -0.1207 -0.2627
 4825SOL    HW219066   5.556   5.470   5.164  0.5831 -0.9696 -0.6946
 4825SOL    HW319067   5.686   5.511   5.099  0.7904  0.1836  0.4198
 4825SOL    MW419068   5.626   5.522   5.161 -0.2577 -0.5400  0.0139
 4826SOL     OW19069   0.397   0.721   4.369  0.0615 -0.4415  0.4081
 4826SOL    HW219070   0.354   0.797   4.408 -0.7475 -0.3073 -0.6755
 4826SOL    HW319071   0.328   0.654   4.364  0.8109 -1.3381  1.5281
 4826SOL    MW419072   0.382   0.722   4.373  0.4439  0.6743  0.3565
 4827SOL     OW19073   5.656   2.049   1.880 -0.1947 -0.6844  0.1322
 4827SOL    HW219074   5.734   2.007   1.843  0.0326  0.2858 -0.5548
 4827SOL    HW319075   5.608   2.080   1.803 -0.3997  0.1966  0.6045
 4827SOL    MW419076   5.660   2.048   1.865 -0.2997  0.5273  0.1727
 4828SOL     OW19077   3.350   4.624   2.882  0.5355 -0.6693 -0.3970
 4828SOL    HW219078   3.305   4.634   2.966 -0.3703  0.2462 -0.9528
 4828SOL    HW319079   3.373   4.532   2.877 -0.2204 -0.9154  0.4591
 4828SOL    MW419080   3.347   4.613   2.893 -0.2766 -0.1050  0.2671
 4829SOL     OW19081   3.168   0.727   4.850  0.5962 -0.2453 -0.6042
 4829SOL    HW219082   3.253   0.760   4.878  0.7223 -0.8297 -0.2896
 4829SOL    HW319083   3.110   0.744   4.925  0.2410  0.8397 -1.0913
 4829SOL    MW419084   3.171   0.734   4.864 -0.1442  0.3820 -0.1457
 4830SOL     OW19085   3.168   5.731   3.345  0.4695  0.2558 -0.1579
 4830SOL    HW219086   3.213   5.674   3.282  0.3198  0.2259 -0.2374
 4830SOL    HW319087   3.179   5.687   3.429  0.4920  0.1911 -0.1942
 4830SOL    MW419088   3.175   5.718   3.348 -0.2541 -0.1448  0.0718
 4831SOL     OW19089   5.790   6.271   4.096 -0.1510 -0.2093  0.0681
 4831SOL    HW219090   5.831   6.194   4.058  1.0292  1.3400 -2.0165
 4831SOL    HW319091   5.752   6.318   4.022 -2.2087  0.4847  1.4585
 4831SOL    MW419092   5.791   6.267   4.081  1.0291  0.1643  0.2442
 4832SOL     OW19093   4.562   2.761   2.333  0.3201 -0.1958 -0.0981
 4832SOL    HW219094   4.641   2.733   2.286  0.3105  0.0408 -0.2527
 4832SOL    HW319095   4.530   2.836   2.284 -1.2942 -1.6414 -1.3714
 4832SOL    MW419096   4.569   2.767   2.320 -0.2594 -0.8302 -0.4380
 4833SOL     OW19097   3.076   5.245   5.619  0.2259 -0.0387  0.2298
 4833SOL    HW219098   3.122   5.263   5.537  0.6503 -0.0499  0.4625
 4833SOL    HW319099   2.989   5.283   5.606 -0.0797 -0.9996 -0.6375
 4833SOL    MW419100   3.070   5.253   5.606  0.0467 -0.7393 -0.3824
 4834SOL     OW19101   4.147   3.579   4.166 -0.1791 -0.3917  0.0478
 4834SOL    HW219102   4.058   3.580   4.201 -1.0038  0.2899 -1.9104
 4834SOL    HW319103   4.203   3.561   4.242 -1.6587  2.5656  2.0439
 4834SOL    MW419104   4.143   3.577   4.181  0.6567 -0.1019  0.1565
 4835SOL     OW19105   4.347   3.555   2.446  0.0419  0.8621  0.4345
 4835SOL    HW219106   4.314   3.590   2.529 -1.9644 -0.9851  0.4971
 4835SOL    HW319107   4.313   3.615   2.380  0.6489  1.6688  0.8367
 4835SOL    MW419108   4.338   3.568   2.448  0.3332  0.1752 -0.0254
 4836SOL     OW19109   0.511   6.141   6.314 -0.1284 -0.2089  0.1712
 4836SOL    HW219110   0.466   6.059   6.295 -0.1775 -0.0444 -0.4089
 4836SOL    HW319111   0.573   6.118   6.384 -1.0439 -0.4487  0.9155
 4836SOL    MW419112   0.513   6.127   6.321  0.5044 -0.1659 -0.1158
 4837SOL     OW19113   1.055   2.078   4.921 -0.3133  0.2611  0.4288
 4837SOL    HW219114   1.127   2.068   4.860 -0.6112 -1.4017  0.2895
 4837SOL    HW319115   1.075   2.157   4.970  0.0917  1.4625 -1.5726
 4837SOL    MW419116   1.067   2.087   4.920  0.1421 -0.0346  0.1093
 4838SOL     OW19117   5.964   4.935   3.068  0.6393  0.2127  0.0259
 4838SOL    HW219118   5.985   4.852   3.111  1.9536  0.3302 -0.3619
 4838SOL    HW319119   5.929   4.910   2.983  1.7016  0.0521 -0.3788
 4838SOL    MW419120   5.962   4.921   3.063 -0.3691 -0.0075 -0.0305
 4839SOL     OW19121   1.034   4.994   1.330  0.0515  0.2540  0.5058
 4839SOL    HW219122   0.989   4.943   1.262  0.5583 -1.1656  1.2018
 4839SOL    HW319123   0.990   5.078   1.330 -2.5192 -1.0088  1.0474
 4839SOL    MW419124   1.023   4.998   1.321 -0.3880 -0.0540 -0.2582
 4840SOL     OW19125   1.206   1.367   0.353  0.7081  0.0805 -0.8086
 4840SOL    HW219126   1.199   1.460   0.378  0.9574  0.0476 -0.6125
 4840SOL    HW319127   1.245   1.368   0.266  2.9007  0.0846  0.1286
 4840SOL    MW419128   1.210   1.380   0.345  0.0971  0.1307  0.2924
 4841SOL     OW19129   1.784   2.353   0.836 -0.0453 -0.3254  0.8051
 4841SOL    HW219130   1.806   2.261   0.823 -1.3631 -0.6289  0.5713
 4841SOL    HW319131   1.867   2.399   0.826  0.8934 -1.6032  2.2933
 4841SOL    MW419132   1.798   2.347   0.833  0.1490 -0.2000  0.2504
 4842SOL     OW19133   2.886   4.727   3.804  0.1658  0.6664  0.0599
 4842SOL    HW219134   2.819   4.720   3.736  0.2090  1.9709 -0.1551
 4842SOL    HW319135   2.838   4.747   3.884 -0.0132 -2.2118  0.7737
 4842SOL    MW419136   2.871   4.729   3.806 -0.2347 -0.1573 -0.4850
 4843SOL     OW19137   5.278   2.052   3.666 -0.0157 -0.4866  0.0764
 4843SOL    HW219138   5.326   1.997   3.728 -1.5231  0.1049  1.8787
 4843SOL    HW319139   5.312   2.140   3.680 -0.0809 -0.4112 -0.2323
 4843SOL    MW419140   5.289   2.057   3.676  0.0116  0.0942 -0.0746
 4844SOL     OW19141   3.496   1.293   5.470  0.1625 -0.0581 -0.0980
 4844SOL    HW219142   3.494   1.332   5.383 -2.1824  0.7466  0.2506
 4844SOL    HW319143   3.471   1.202   5.456 -1.3820  0.3458 -0.2054
 4844SOL    MW419144   3.492   1.286   5.456  0.2704  0.5497 -0.3240
 4845SOL     OW19145   2.172   5.134   0.832 -0.3439 -0.2361  0.0837
 4845SOL    HW219146   2.090   5.127   0.882  0.0951  2.6668  1.4597
 4845SOL    HW319147   2.145   5.168   0.747 -0.7222 -0.9863 -0.0995
 4845SOL    MW419148   2.157   5.138   0.827 -0.2736 -0.2293 -0.2295
 4846SOL     OW19149   1.653   4.237   3.215 -0.2563  0.0131  0.1743
 4846SOL    HW219150   1.720   4.171   3.236  0.1518 -0.1228 -1.4372
 4846SOL    HW319151   1.694   4.320   3.239 -0.5637 -0.2530  1.7085
 4846SOL    MW419152   1.668   4.239   3.221 -0.6191 -0.0919 -0.3953
 4847SOL     OW19153   1.870   5.395   6.227 -0.0574  0.4559 -0.2247
 4847SOL    HW219154   1.809   5.330   6.262  0.3886  0.6120  0.9021
 4847SOL    HW319155   1.921   5.347   6.162  1.1005 -0.7220  1.4491
 4847SOL    MW419156   1.869   5.380   6.223  0.4521 -0.3453 -0.1774
 4848SOL     OW19157   5.483   2.269   2.219 -0.6445 -0.1764 -0.3217
 4848SOL    HW219158   5.545   2.206   2.181 -0.1529 -0.0245  0.2082
 4848SOL    HW319159   5.533   2.351   2.225 -1.5582  0.5278 -1.8690
 4848SOL    MW419160   5.498   2.272   2.215 -0.6580  0.4464 -0.5126
 4849SOL     OW19161   5.085   3.781   2.385  0.4968 -0.0936 -0.0283
 4849SOL    HW219162   5.171   3.809   2.355 -0.0331  0.3119 -1.2067
 4849SOL    HW319163   5.050   3.857   2.431  0.7259 -0.2342  0.3874
 4849SOL    MW419164   5.092   3.795   2.387  0.2471 -0.4319 -0.1521
 4850SOL     OW19165   6.418   2.253   2.362 -0.0189  0.2812  0.2732
 4850SOL    HW219166   6.502   2.295   2.380 -0.7576  1.3829  1.2947
 4850SOL    HW319167   6.440   2.162   2.343  1.5976  0.9757 -1.5243
 4850SOL    MW419168   6.432   2.247   2.362 -0.1446 -0.2986  0.2242
 4851SOL     OW19169   5.789   1.974   2.637  0.5886  0.0628 -0.2162
 4851SOL    HW219170   5.831   1.987   2.552 -0.2537 -1.3874 -0.8982
 4851SOL    HW319171   5.827   1.893   2.671 -0.3927 -0.3653 -0.0816
 4851SOL    MW419172   5.799   1.965   2.630 -0.2176 -0.6625 -0.4606
 4852SOL     OW19173   5.854   0.839   1.996  0.1438  0.1044 -0.1973
 4852SOL    HW219174   5.920   0.807   1.936 -0.9660 -1.5190 -0.6030
 4852SOL    HW319175   5.840   0.768   2.058 -0.3480  0.8881  0.6323
 4852SOL    MW419176   5.861   0.826   1.997  0.1773  0.1167 -0.5369
 4853SOL     OW19177   3.519   4.431   0.110 -0.3852 -0.0086  0.4240
 4853SOL    HW219178   3.524   4.336   0.113 -1.7985 -0.1505 -0.7538
 4853SOL    HW319179   3.598   4.458   0.063 -1.5211 -0.8782 -2.1977
 4853SOL    MW419180   3.530   4.422   0.104  0.4024  0.4330  0.3372
 4854SOL     OW19181   0.864   4.018   4.836  0.0941  0.4180 -0.4399
 4854SOL    HW219182   0.776   3.985   4.852  0.7930 -0.4902  2.0553
 4854SOL    HW319183   0.861   4.054   4.748 -2.1376 -1.6843 -1.3323
 4854SOL    MW419184   0.852   4.018   4.827  0.2460 -0.3364 -0.1722
 4855SOL     OW19185   6.082   3.748   2.920 -0.3905  0.2505  0.3073
 4855SOL    HW219186   6.096   3.669   2.972 -0.5677  1.0085  1.5447
 4855SOL    HW319187   6.114   3.725   2.833 -3.6106 -2.3688 -0.3764
 4855SOL    MW419188   6.088   3.734   2.915 -0.5143 -0.5309 -0.3847
 4856SOL     OW19189   4.267   2.032   0.580  0.0395 -0.0695  0.4234
 4856SOL    HW219190   4.197   2.086   0.615 -0.3337 -0.3127  0.0566
 4856SOL    HW319191   4.272   2.057   0.487 -2.0628 -2.6635 -0.4886
 4856SOL    MW419192   4.259   2.043   0.572  0.6788 -0.1837 -0.6369
 4857SOL     OW19193   3.157   3.020   4.980 -0.1016 -0.4459 -0.3993
 4857SOL    HW219194   3.102   3.020   5.058 -0.0326 -0.1280 -0.3474
 4857SOL    HW319195   3.111   2.964   4.918 -0.0547 -0.8674 -0.0605
 4857SOL    MW419196   3.144   3.013   4.982 -0.2534  0.5015  0.0509
 4858SOL     OW19197   0.378   0.270   5.198 -0.1440 -0.1900  0.1211
 4858SOL    HW219198   0.467   0.297   5.222  0.4467 -1.6002 -0.3862
 4858SOL    HW319199   0.322   0.308   5.266  0.9174  0.1353  0.8398
 4858SOL    MW419200   0.382   0.279   5.210 -0.0105 -0.2814  0.2501
 4859SOL     OW19201   3.618   6.216   4.832  0.6664 -0.3635 -0.0867
 4859SOL    HW219202   3.583   6.133   4.799 -1.0110  0.4718 -0.5159
 4859SOL    HW319203   3.541   6.268   4.853  1.6719  1.3394 -0.4482
 4859SOL    MW419204   3.603   6.212   4.830 -0.0835  0.0446  0.0940
 4860SOL     OW19205   5.895   2.368   1.635  0.2296 -0.2055  0.2955
 4860SOL    HW219206   5.809   2.408   1.643  0.8616  1.3560 -0.3703
 4860SOL    HW319207   5.929   2.366   1.725 -1.0109 -2.1291  0.7767
 4860SOL    MW419208   5.888   2.373   1.648 -0.1756  0.2026  0.0117
 4861SOL     OW19209   5.789   4.390   6.398 -0.1792  0.0947  0.4992
 4861SOL    HW219210   5.700   4.360   6.378 -0.4586  0.7251  0.7743
 4861SOL    HW319211   5.831   4.398   6.312 -0.7246  0.8189  0.2973
 4861SOL    MW419212   5.783   4.387   6.384 -0.0255 -0.1083  0.1371
 4862SOL     OW19213   3.676   0.717   4.033  0.1838  0.2667  0.2129
 4862SOL    HW219214   3.649   0.805   4.058 -3.0878 -0.0713 -1.5187
 4862SOL    HW319215   3.638   0.704   3.946  3.1436 -1.8176 -0.9483
 4862SOL    MW419216   3.667   0.727   4.024 -0.2294 -0.0241  0.3166
 4863SOL     OW19217   4.001   3.406   5.435  0.0140 -0.2508 -0.5715
 4863SOL    HW219218   3.946   3.450   5.370 -0.2560 -0.4912 -0.5094
 4863SOL    HW319219   3.977   3.447   5.519  0.2297 -0.0687 -0.5973
 4863SOL    MW419220   3.991   3.417   5.438 -0.3931  0.1152 -0.2279
 4864SOL     OW19221   3.280   0.987   2.405  0.4375 -0.0087 -0.0888
 4864SOL    HW219222   3.235   0.932   2.341 -0.5488  0.2527  0.3647
 4864SOL    HW319223   3.210   1.024   2.459  1.2171  0.1229  0.8667
 4864SOL    MW419224   3.265   0.985   2.404 -0.0779  0.1173 -0.3439
 4865SOL     OW19225   5.079   2.343   4.522  0.0428  0.6383  0.1426
 4865SOL    HW219226   5.047   2.399   4.452  0.8353 -0.3469 -1.0445
 4865SOL    HW319227   5.130   2.401   4.579  0.0694  1.2950 -0.5451
 4865SOL    MW419228   5.081   2.358   4.520 -0.4924  0.2124  0.0356
 4866SOL     OW19229   5.071   1.541   4.140  0.6203  0.1098 -0.0680
 4866SOL    HW219230   5.144   1.596   4.111  0.1428  0.4188 -0.7343
 4866SOL    HW319231   5.107   1.453   4.147  0.8813  0.1151 -1.1555
 4866SOL    MW419232   5.085   1.537   4.137 -0.4281  0.3741  0.1796
 4867SOL     OW19233   2.487   1.022   1.299  0.3043 -0.4282  0.3952
 4867SOL    HW219234   2.526   1.024   1.211  0.3272  1.6708  0.4013
 4867SOL    HW319235   2.531   1.093   1.346 -1.9332  0.5969  1.0840
 4867SOL    MW419236   2.498   1.032   1.293 -0.4292 -0.0770  0.8189
 4868SOL     OW19237   4.814   3.879   1.343  0.5937 -0.3303 -0.0848
 4868SOL    HW219238   4.827   3.904   1.252  2.5171 -2.5416 -0.5073
 4868SOL    HW319239   4.836   3.958   1.393 -1.3162  1.1740 -1.4732
 4868SOL    MW419240   4.818   3.893   1.338  0.4027  0.4139  0.2860
 4869SOL     OW19241   2.521   3.294   4.679  0.2023 -0.3470 -0.5851
 4869SOL    HW219242   2.452   3.323   4.620  0.0809 -0.3919 -0.4647
 4869SOL    HW319243   2.558   3.217   4.637 -0.5396 -0.9693 -0.1225
 4869SOL    MW419244   2.517   3.288   4.665  0.3334  0.4777  0.0244
 4870SOL     OW19245   3.715   1.157   3.620 -0.0363 -0.4466 -0.0699
 4870SOL    HW219246   3.678   1.207   3.546  0.7101  0.3307  0.0655
 4870SOL    HW319247   3.754   1.224   3.676 -2.2463 -0.8092  2.0352
 4870SOL    MW419248   3.715   1.172   3.617  0.4260 -0.3463  0.3353
 4871SOL     OW19249   3.397   5.629   2.655 -0.0057  0.1545 -0.9609
 4871SOL    HW219250   3.373   5.721   2.666 -1.6049 -0.1761 -1.3899
 4871SOL    HW319251   3.394   5.593   2.743 -0.5872  0.2420 -0.9449
 4871SOL    MW419252   3.394   5.637   2.668 -0.1265 -0.2621  0.3501
 4872SOL     OW19253   1.720   6.059   0.628  0.0239 -0.3656  0.7435
 4872SOL    HW219254   1.768   6.040   0.709  0.5837 -0.2477  0.4399
 4872SOL    HW319255   1.781   6.040   0.558  0.9934  3.2084  0.3926
 4872SOL    MW419256   1.734   6.054   0.630 -0.6407 -0.4158 -1.0050
 4873SOL     OW19257   0.406   2.881   2.118 -0.1321  0.4135  0.1236
 4873SOL    HW219258   0.385   2.933   2.041 -0.4072  0.3807  0.1773
 4873SOL    HW319259   0.379   2.792   2.096 -0.1638  0.3940  0.2385
 4873SOL    MW419260   0.400   2.877   2.105  0.3445  0.0605 -0.2326
 4874SOL     OW19261   2.156   1.128   3.868 -0.5875 -0.5357  0.5276
 4874SOL    HW219262   2.103   1.195   3.913  1.1669  0.3315  1.4115
 4874SOL    HW319263   2.152   1.052   3.926 -1.5934 -0.8039  0.1268
 4874SOL    MW419264   2.149   1.127   3.882  0.0517 -0.1447 -1.0458
 4875SOL     OW19265   2.533   0.858   5.248  0.3113 -0.6427  2.0126
 4875SOL    HW219266   2.516   0.764   5.262 -0.8646 -0.7159  0.4188
 4875SOL    HW319267   2.446   0.898   5.252 -0.0329 -0.4246 -2.4153
 4875SOL    MW419268   2.519   0.851   5.250  0.1951 -0.0005 -0.2855
 4876SOL     OW19269   5.212   5.061   4.889  0.0626 -0.5643 -0.0223
 4876SOL    HW219270   5.282   5.035   4.829 -0.6973 -2.3198 -0.2147
 4876SOL    HW319271   5.132   5.025   4.850 -0.5435 -1.1340  1.6512
 4876SOL    MW419272   5.211   5.053   4.876  0.3604 -0.2150  0.4087
 4877SOL     OW19273   4.435   1.045   5.699 -0.2678  0.2523 -0.4358
 4877SOL    HW219274   4.405   1.049   5.790  1.7766  0.2892  0.2884
 4877SOL    HW319275   4.373   0.986   5.656 -0.7531 -0.5134  1.2206
 4877SOL    MW419276   4.423   1.037   5.706  0.2367  0.3605 -0.2430
 4878SOL     OW19277   3.307   3.791   0.001 -0.7143  0.2313  0.2786
 4878SOL    HW219278   3.277   3.737   0.074  0.1064 -0.6267  0.0085
 4878SOL    HW319279   3.305   3.732  -0.075  0.6149  0.4356  0.0622
 4878SOL    MW419280   3.303   3.776   0.000 -0.3678  0.0300 -0.1432
 4879SOL     OW19281   4.076   6.272   0.446 -0.4765  0.0133  0.1238
 4879SOL    HW219282   4.144   6.339   0.457 -0.9953  0.6362 -0.4085
 4879SOL    HW319283   4.100   6.226   0.366 -2.4941  2.5028 -2.1159
 4879SOL    MW419284   4.088   6.275   0.437 -0.0805 -0.5616  0.3502
 4880SOL     OW19285   4.064   5.468   3.053  0.5521  0.5709 -0.3290
 4880SOL    HW219286   3.983   5.507   3.020  0.1755 -1.0256 -1.4782
 4880SOL    HW319287   4.132   5.530   3.029 -0.2598  1.6277  0.0422
 4880SOL    MW419288   4.062   5.481   3.045 -0.4646  0.3905  0.0685
 4881SOL     OW19289   4.904   0.406   5.640  0.3083  0.2869 -0.3642
 4881SOL    HW219290   4.829   0.405   5.581 -0.2307  0.9051  0.2943
 4881SOL    HW319291   4.870   0.440   5.722  1.5857  1.8765 -0.4376
 4881SOL    MW419292   4.890   0.410   5.643  0.4236 -0.0952  0.2025
 4882SOL     OW19293   1.174   2.757   4.540  0.0125  0.7404  0.0365
 4882SOL    HW219294   1.093   2.746   4.490  0.4306  0.7407 -0.6580
 4882SOL    HW319295   1.146   2.783   4.627 -0.7364  0.7454 -0.2047
 4882SOL    MW419296   1.160   2.759   4.545  0.2687 -0.0828 -0.1155
 4883SOL     OW19297   2.729   3.934   5.150 -0.0879  0.4528 -0.2468
 4883SOL    HW219298   2.795   3.905   5.213  0.6608 -0.7041 -1.5195
 4883SOL    HW319299   2.699   4.018   5.185  0.4630 -0.0335  1.5110
 4883SOL    MW419300   2.734   3.942   5.163 -0.3352  0.4902 -0.5047
 4884SOL     OW19301   5.479   5.909   2.874 -0.3707  0.3858 -0.3911
 4884SOL    HW219302   5.436   5.994   2.862 -0.3901  0.7505  1.8391
 4884SOL    HW319303   5.415   5.856   2.922  0.3956 -0.2027  0.0095
 4884SOL    MW419304   5.464   5.913   2.879 -0.5330 -0.1878 -0.2827
 4885SOL     OW19305   3.337   0.105   0.478  0.0907 -0.2571 -0.2005
 4885SOL    HW219306   3.336   0.077   0.387  0.2064 -2.3464  0.3816
 4885SOL    HW319307   3.369   0.029   0.526  1.7799  1.3750  1.4206
 4885SOL    MW419308   3.341   0.091   0.473 -0.3679  0.8577 -0.9453
 4886SOL     OW19309   2.993   0.144   1.992  0.6189  0.2195 -0.3378
 4886SOL    HW219310   3.001   0.189   2.076 -0.7740  0.0689 -0.1152
 4886SOL    HW319311   2.944   0.064   2.012  1.8407 -0.7336 -0.9858
 4886SOL    MW419312   2.988   0.139   2.006  0.0453 -0.4136 -0.2765
 4887SOL     OW19313   4.432   6.388   2.007  0.7431 -0.0871  0.0208
 4887SOL    HW219314   4.397   6.351   1.926 -1.5814 -1.6736  1.6156
 4887SOL    HW319315   4.377   6.464   2.025 -0.6368 -1.3271  1.4169
 4887SOL    MW419316   4.420   6.393   1.999 -0.2153  0.0215  0.0631
 4888SOL     OW19317   1.676   2.781   2.662  0.0514 -0.2413 -0.2331
 4888SOL    HW219318   1.629   2.780   2.579 -0.9769  0.5322  0.3214
 4888SOL    HW319319   1.635   2.711   2.713  0.7263 -0.7608 -0.3868
 4888SOL    MW419320   1.665   2.771   2.658  0.1840 -0.4751  0.0594
 4889SOL     OW19321   3.304   1.275   0.739  0.2638 -0.3025  0.4384
 4889SOL    HW219322   3.252   1.213   0.688 -0.7791  0.2115  0.8466
 4889SOL    HW319323   3.374   1.222   0.776  0.3074 -0.9203 -0.4990
 4889SOL    MW419324   3.306   1.260   0.737 -0.0927  0.1028 -0.4420
 4890SOL     OW19325   1.360   2.537   2.564 -0.9343 -0.6245 -0.1408
 4890SOL    HW219326   1.402   2.609   2.517  0.4518 -0.7624  0.8081
 4890SOL    HW319327   1.288   2.509   2.507 -0.8776  0.8413 -0.9793
 4890SOL    MW419328   1.356   2.542   2.551 -0.4419 -0.1175 -0.0515
 4891SOL     OW19329   2.930   1.334   2.817 -0.9329  0.4517  0.4549
 4891SOL    HW219330   2.911   1.336   2.911 -3.3184 -1.7866  0.1294
 4891SOL    HW319331   2.998   1.267   2.808 -0.1196  1.2319  0.6151
 4891SOL    MW419332   2.936   1.325   2.828 -0.0557 -0.5412  0.0976
 4892SOL     OW19333   2.930   2.142   5.091  0.0812 -0.2979  0.4173
 4892SOL    HW219334   2.845   2.178   5.064 -0.4478 -0.6909  1.4739
 4892SOL    HW319335   2.978   2.129   5.010 -0.3034  1.3332 -0.0942
 4892SOL    MW419336   2.925   2.145   5.077 -0.1588  0.2011  0.3256
 4893SOL     OW19337   2.142   6.007   3.585  0.2627  0.0277  0.1507
 4893SOL    HW219338   2.135   6.004   3.680  0.5985 -0.4537  0.1612
 4893SOL    HW319339   2.053   5.989   3.554  0.1513  0.1904  0.3682
 4893SOL    MW419340   2.129   6.004   3.593  0.0894  0.4828  0.6118
 4894SOL     OW19341   4.545   5.779   3.238 -0.0416 -0.3530 -0.2665
 4894SOL    HW219342   4.466   5.725   3.250 -0.6567  0.3829 -0.9335
 4894SOL    HW319343   4.559   5.779   3.144  0.5431 -0.1585 -0.1799
 4894SOL    MW419344   4.536   5.772   3.227 -0.3422  0.1660  0.2581
 4895SOL     OW19345   4.616   2.188   6.013  0.0129 -0.3110 -0.2505
 4895SOL    HW219346   4.681   2.258   6.019 -1.8603  1.4488  0.6890
 4895SOL    HW319347   4.587   2.173   6.103 -1.1183 -0.8075 -0.6697
 4895SOL    MW419348   4.620   2.195   6.025  0.1389 -0.3643 -0.7805
 4896SOL     OW19349   5.231   0.310   6.236 -0.3190 -0.0560 -0.5631
 4896SOL    HW219350   5.161   0.302   6.302 -1.5141  0.4542 -1.7234
 4896SOL    HW319351   5.190   0.284   6.154  0.7970  0.4970 -1.3203
 4896SOL    MW419352   5.216   0.306   6.234  0.1084 -0.1224  0.0765
 4897SOL     OW19353   3.488   0.635   2.509  0.1604  0.6873  0.5510
 4897SOL    HW219354   3.531   0.556   2.542 -0.0373  0.8098  1.1040
 4897SOL    HW319355   3.557   0.679   2.459  0.3275  0.2667  0.3980
 4897SOL    MW419356   3.503   0.630   2.506 -0.1248  0.2282 -0.3836
 4898SOL     OW19357   2.254   0.526   3.357  0.3457 -0.3179  0.1749
 4898SOL    HW219358   2.169   0.487   3.340 -0.2674  1.2622 -0.5873
 4898SOL    HW319359   2.317   0.456   3.340 -0.6329 -0.6858 -2.2106
 4898SOL    MW419360   2.251   0.512   3.353 -0.0157  0.3539  0.9089
 4899SOL     OW19361   5.413   1.968   5.872  0.1249  0.3961 -0.0243
 4899SOL    HW219362   5.385   1.899   5.812 -1.2781  1.3890 -0.5686
 4899SOL    HW319363   5.371   2.048   5.839  3.3800  2.0104 -0.6871
 4899SOL    MW419364   5.403   1.970   5.860 -0.0061  0.0761  0.4692
 4900SOL     OW19365   4.686   0.057   0.719 -0.4787 -0.0840 -0.8263
 4900SOL    HW219366   4.606   0.007   0.700  0.2024 -3.5083  3.5957
 4900SOL    HW319367   4.670   0.094   0.806  2.3815 -0.0694 -0.2293
 4900SOL    MW419368   4.673   0.056   0.728  0.3654  0.3816 -0.7574
 4901SOL     OW19369   3.430   1.950   3.999 -0.0732  0.2883 -0.7540
 4901SOL    HW219370   3.334   1.954   4.000 -0.1041  1.4029 -2.5284
 4901SOL    HW319371   3.450   1.874   3.943  0.0335  0.8313 -1.4743
 4901SOL    MW419372   3.420   1.940   3.992 -0.1714 -0.3402  0.8373
 4902SOL     OW19373   0.555   5.988   0.287 -0.6857 -0.6301  0.2360
 4902SOL    HW219374   0.579   5.897   0.302 -1.2054 -0.6804  0.7983
 4902SOL    HW319375   0.514   6.016   0.369 -0.7103  0.0526  0.0008
 4902SOL    MW419376   0.553   5.980   0.300 -0.8171 -0.2913  0.0632
 4903SOL     OW19377   0.522   0.381   0.426  0.2279 -0.4358  0.1155
 4903SOL    HW219378   0.526   0.285   0.429 -0.3965 -0.4775 -0.2817
 4903SOL    HW319379   0.440   0.401   0.381  1.0488  0.2708 -1.1553
 4903SOL    MW419380   0.512   0.371   0.420  0.1812  0.4809 -0.0192
 4904SOL     OW19381   4.497   2.810   1.257  0.3166 -0.8985  0.2392
 4904SOL    HW219382   4.533   2.868   1.324  2.4735 -0.2017 -1.4028
 4904SOL    HW319383   4.482   2.727   1.302  0.6917 -0.1380  1.8051
 4904SOL    MW419384   4.500   2.807   1.272  0.0662  0.1435  0.3055
 4905SOL     OW19385   0.658   4.551   1.339 -0.1049 -0.0556  0.5814
 4905SOL    HW219386   0.579   4.564   1.286  0.0586  0.0196  0.3566
 4905SOL    HW319387   0.730   4.582   1.283  0.5091 -3.3417 -0.6356
 4905SOL    MW419388   0.657   4.557   1.324  0.3165  0.0439 -0.2247
 4906SOL     OW19389   0.593   5.028   4.413  0.2235 -0.2785  0.1390
 4906SOL    HW219390   0.662   4.981   4.459  0.4087  0.2534  0.4154
 4906SOL    HW319391   0.566   4.969   4.343  2.4028  0.3204 -1.3049
 4906SOL    MW419392   0.599   5.014   4.410 -0.5761 -0.4101  0.3785
 4907SOL     OW19393   0.520   5.538   1.371 -0.4450 -0.0362 -0.5750
 4907SOL    HW219394   0.559   5.518   1.286 -0.8407  0.8239 -0.9699
 4907SOL    HW319395   0.428   5.557   1.351 -0.8769 -1.1492  0.2295
 4907SOL    MW419396   0.513   5.538   1.357  0.4909  0.0019 -0.3396
 4908SOL     OW19397   2.162   2.187   1.622  0.1123  0.2391 -0.1291
 4908SOL    HW219398   2.090   2.220   1.675  0.8303  0.6568  0.6028
 4908SOL    HW319399   2.240   2.207   1.673  1.0079  2.3941 -2.1576
 4908SOL    MW419400   2.163   2.194   1.636 -0.1442 -0.1095  0.3029
 4909SOL     OW19401   2.674   2.529   6.324  0.6071 -0.4846  0.8267
 4909SOL    HW219402   2.679   2.436   6.344  2.1859 -0.5902  0.0995
 4909SOL    HW319403   2.587   2.541   6.287  0.3067 -1.6322  1.1369
 4909SOL    MW419404   2.663   2.518   6.322  0.0635  0.6477 -0.6361
 4910SOL     OW19405   3.231   2.556   3.561 -0.3233 -0.0044 -0.3876
 4910SOL    HW219406   3.146   2.595   3.538 -1.0190 -0.1797  1.6111
 4910SOL    HW319407   3.295   2.605   3.510 -1.6160  0.1599 -1.9195
 4910SOL    MW419408   3.228   2.568   3.551 -0.2529  0.1921 -0.6222
 4911SOL     OW19409   1.235   6.164   0.025 -0.3300 -0.4056 -0.2947
 4911SOL    HW219410   1.318   6.128  -0.007 -0.4063  1.0015 -2.2954
 4911SOL    HW319411   1.227   6.131   0.114  2.5911 -0.2387  0.1159
 4911SOL    MW419412   1.245   6.155   0.032 -0.0936 -0.2052  0.5562
 4912SOL     OW19413   3.530   3.080   0.085  0.5584 -0.8290 -0.1130
 4912SOL    HW219414   3.612   3.122   0.058  0.9037 -0.5215  1.3061
 4912SOL    HW319415   3.546   3.054   0.176 -1.5571  0.9615  0.8510
 4912SOL    MW419416   3.543   3.082   0.094 -0.1017  0.2375 -0.4372
 4913SOL     OW19417   2.069   2.191   0.168  0.1840  0.0761 -0.4343
 4913SOL    HW219418   2.065   2.252   0.094 -0.6865 -1.4686 -1.7379
 4913SOL    HW319419   2.124   2.119   0.136 -0.5249 -0.7929  0.2705
 4913SOL    MW419420   2.076   2.190   0.154 -0.3929  0.5244  0.0898
 4914SOL     OW19421   0.103   4.033   2.977 -0.5093  0.2721  0.3650
 4914SOL    HW219422   0.025   4.010   2.926  0.4623 -3.3380  0.2454
 4914SOL    HW319423   0.098   3.976   3.054  0.8933  1.6103  1.4907
 4914SOL    MW419424   0.092   4.022   2.980  0.1195 -0.0483  0.4794
 4915SOL     OW19425   3.409   3.352   1.042  0.1129  0.1473 -0.3776
 4915SOL    HW219426   3.483   3.406   1.017 -1.1903  1.6529 -1.1646
 4915SOL    HW319427   3.398   3.290   0.970  0.8942 -0.4239 -0.0177
 4915SOL    MW419428   3.417   3.351   1.030  0.0497 -0.1721 -0.2711
 4916SOL     OW19429   0.826   6.058   1.785  0.5444  0.4506  0.1551
 4916SOL    HW219430   0.787   6.075   1.699  0.3081 -0.2405  0.1176
 4916SOL    HW319431   0.911   6.102   1.782  1.1136 -0.6595 -0.9308
 4916SOL    MW419432   0.832   6.066   1.773  0.6332 -0.2768 -0.1238
 4917SOL     OW19433   4.010   2.322   1.626 -0.4452 -0.0918 -0.4327
 4917SOL    HW219434   4.021   2.301   1.719  0.3269 -0.4967 -0.6077
 4917SOL    HW319435   3.918   2.303   1.608 -0.8651  0.9347  0.4752
 4917SOL    MW419436   4.000   2.317   1.636 -0.0061 -0.2909  0.3045
 4918SOL     OW19437   5.659   5.482   3.792 -0.1956 -0.2586  0.1394
 4918SOL    HW219438   5.581   5.521   3.753  0.9965 -0.1752 -2.3731
 4918SOL    HW319439   5.681   5.409   3.734  2.8664  1.1443 -0.6785
 4918SOL    MW419440   5.652   5.478   3.779  0.1304 -0.3969 -0.1615
 4919SOL     OW19441   0.258   0.328   4.657 -0.4372 -0.0087  0.0455
 4919SOL    HW219442   0.275   0.291   4.744 -1.8128 -0.2733  0.2195
 4919SOL    HW319443   0.220   0.256   4.607 -1.5730  0.7002 -0.1334
 4919SOL    MW419444   0.256   0.314   4.662 -0.6337  0.0696 -0.0274
 4920SOL     OW19445   4.159   1.739   3.137  0.1564 -0.1312  0.0853
 4920SOL    HW219446   4.090   1.796   3.171  0.3781  0.4292 -0.3851
 4920SOL    HW319447   4.192   1.693   3.214  0.5573  1.0128  0.6210
 4920SOL    MW419448   4.154   1.741   3.151 -0.1170 -0.0946 -0.1436
 4921SOL     OW19449   2.248   3.644   1.188 -0.5080  0.1465  0.3040
 4921SOL    HW219450   2.321   3.612   1.136 -0.5797  0.7959 -0.2065
 4921SOL    HW319451   2.284   3.656   1.276 -0.0913  0.1418  0.1342
 4921SOL    MW419452   2.262   3.642   1.192 -0.4153  0.0047 -0.3649
 4922SOL     OW19453   6.224   1.222   4.611  0.3167  0.2224 -0.3862
 4922SOL    HW219454   6.223   1.316   4.591 -1.0201  0.6095  1.2756
 4922SOL    HW319455   6.140   1.190   4.579  1.4891 -0.8437 -2.5887
 4922SOL    MW419456   6.213   1.230   4.604  0.0233  0.1691  0.2295
 4923SOL     OW19457   3.267   4.105   3.895 -0.4275  0.6130 -0.2398
 4923SOL    HW219458   3.341   4.166   3.905 -0.6462  1.2764 -2.1487
 4923SOL    HW319459   3.191   4.154   3.926 -0.2942  0.4742  0.3217
 4923SOL    MW419460   3.267   4.120   3.900 -0.0102  0.4395 -0.1256
 4924SOL     OW19461   0.122   5.552   5.780  0.5314 -0.2172  0.1987
 4924SOL    HW219462   0.064   5.476   5.787  1.1416 -0.8020 -0.8598
 4924SOL    HW319463   0.083   5.606   5.711  1.2975 -0.6872 -0.6223
 4924SOL    MW419464   0.109   5.549   5.772 -0.2576  0.3729 -0.2185
 4925SOL     OW19465   3.939   5.420   0.144  0.4522 -0.2245  0.1851
 4925SOL    HW219466   3.997   5.427   0.220  1.6271  0.2711 -0.7159
 4925SOL    HW319467   3.993   5.448   0.070 -0.5574 -1.0112 -0.8929
 4925SOL    MW419468   3.954   5.425   0.144  0.4625  0.2572 -0.1143
 4926SOL     OW19469   5.570   2.916   5.461  0.1492  0.0523 -0.3995
 4926SOL    HW219470   5.489   2.869   5.480  1.1772 -1.4983  0.3373
 4926SOL    HW319471   5.542   3.007   5.447 -1.4401  0.0918  2.3367
 4926SOL    MW419472   5.555   2.922   5.462  0.3439 -0.2404 -0.0441
 4927SOL     OW19473   4.415   1.596   5.941  0.0020  0.0443 -0.1396
 4927SOL    HW219474   4.392   1.651   5.866  1.9261  1.4273  0.2063
 4927SOL    HW319475   4.490   1.545   5.911  0.3211  0.0626  0.6044
 4927SOL    MW419476   4.422   1.597   5.927  0.3136  0.6391 -0.6136
 4928SOL     OW19477   1.766   1.834   0.746  0.0944 -0.1355 -0.0766
 4928SOL    HW219478   1.848   1.792   0.721  1.5150  1.5037  1.5734
 4928SOL    HW319479   1.698   1.770   0.723  1.7560 -1.3341 -1.9505
 4928SOL    MW419480   1.768   1.820   0.740  0.5431 -0.1880  0.4492
 4929SOL     OW19481   3.189   0.937   1.330 -0.3170  0.1969 -0.4629
 4929SOL    HW219482   3.149   0.955   1.244  1.7979  1.0098 -1.3435
 4929SOL    HW319483   3.165   0.846   1.349 -1.8344  0.3871 -1.3226
 4929SOL    MW419484   3.180   0.927   1.321  0.5847  0.1260  0.1896
 4930SOL     OW19485   5.743   5.361   0.200  0.2435 -0.0720  0.4472
 4930SOL    HW219486   5.679   5.408   0.147 -1.2139 -2.9903 -0.5982
 4930SOL    HW319487   5.693   5.329   0.275  1.2429  0.1879  1.2504
 4930SOL    MW419488   5.728   5.363   0.203 -0.5428 -0.3810 -0.2214
 4931SOL     OW19489   2.217   1.346   1.170  0.7370 -0.0063  0.0757
 4931SOL    HW219490   2.152   1.388   1.227  0.5710 -1.8453  1.3165
 4931SOL    HW319491   2.298   1.346   1.221  0.8389 -0.8026 -0.0723
 4931SOL    MW419492   2.219   1.352   1.184  0.6439 -0.4150  0.4801
 4932SOL     OW19493   0.858   4.017   2.511  0.4217 -0.2891  0.2998
 4932SOL    HW219494   0.912   3.951   2.555  1.5369 -0.1767 -0.8415
 4932SOL    HW319495   0.826   4.073   2.582  1.5531 -0.5554  1.0505
 4932SOL    MW419496   0.861   4.016   2.526 -0.9894  0.2540  0.0415
 4933SOL     OW19497   4.680   1.743   6.067 -0.1761  0.3606 -0.1102
 4933SOL    HW219498   4.694   1.654   6.101  1.6242 -0.4206 -2.5349
 4933SOL    HW319499   4.756   1.792   6.096  0.3439  0.2349 -1.1825
 4933SOL    MW419500   4.692   1.737   6.075 -0.2925  0.4281 -0.1855
 4934SOL     OW19501   4.032   2.855   4.339  0.4215  0.1657 -0.0231
 4934SOL    HW219502   4.091   2.831   4.268  2.2317  1.0853  1.0823
 4934SOL    HW319503   4.003   2.943   4.317  2.4826  1.2440  1.1737
 4934SOL    MW419504   4.036   2.864   4.327 -0.1516  0.0253  0.4682
 4935SOL     OW19505   6.060   4.946   4.594  0.5663 -0.3453 -0.7467
 4935SOL    HW219506   5.991   5.011   4.581  0.7048  0.1554  0.8639
 4935SOL    HW319507   6.021   4.864   4.563 -1.3394 -0.3699  1.4705
 4935SOL    MW419508   6.045   4.944   4.588 -0.1932 -0.5472 -0.4205
 4936SOL     OW19509   0.658   4.617   0.950  0.4854  0.6858 -0.4431
 4936SOL    HW219510   0.685   4.545   0.892 -0.2328  1.2899 -1.5765
 4936SOL    HW319511   0.731   4.627   1.011  0.1310 -1.7572  0.5042
 4936SOL    MW419512   0.671   4.609   0.950 -0.0676 -0.0751 -0.4951
 4937SOL     OW19513   1.507   3.635   6.143 -0.5982  0.0798 -0.7130
 4937SOL    HW219514   1.559   3.715   6.138  0.5848 -0.2985  2.9117
 4937SOL    HW319515   1.416   3.664   6.139 -0.1833  1.3473 -1.4766
 4937SOL    MW419516   1.502   3.649   6.142 -0.2677 -0.2743 -0.3337
 4938SOL     OW19517   3.641   0.135   0.158 -0.4938 -0.1161  0.4581
 4938SOL    HW219518   3.640   0.212   0.214  0.6444  0.3481 -0.1145
 4938SOL    HW319519   3.734   0.111   0.153 -0.8299 -1.5279  0.6275
 4938SOL    MW419520   3.653   0.142   0.165 -0.4778 -0.4854  0.3989
 4939SOL     OW19521   3.053   4.548   6.370 -0.1357  0.0845  0.3416
 4939SOL    HW219522   3.147   4.538   6.382 -0.1065  0.3043  0.2966
 4939SOL    HW319523   3.015   4.474   6.417  0.0039  0.5880  1.2766
 4939SOL    MW419524   3.060   4.537   6.378  0.4188 -0.3632  0.2864
 4940SOL     OW19525   1.130   1.518   3.678 -0.6010 -0.3698 -0.6454
 4940SOL    HW219526   1.085   1.491   3.599 -0.4174  0.0109 -0.8820
 4940SOL    HW319527   1.217   1.479   3.671 -0.8147 -0.9276 -0.2893
 4940SOL    MW419528   1.135   1.510   3.667 -0.4015  0.1276  0.2565
 4941SOL     OW19529   2.834   4.862   6.168  0.3939  0.5096  0.1124
 4941SOL    HW219530   2.755   4.812   6.147  0.6600  0.6490 -1.3296
 4941SOL    HW319531   2.898   4.833   6.103  1.6346  0.1969  1.4195
 4941SOL    MW419532   2.832   4.851   6.157 -0.0427  0.2762 -0.6495
 4942SOL     OW19533   0.540   2.478   4.823  0.3685  0.6064 -0.2526
 4942SOL    HW219534   0.463   2.422   4.827 -1.8447  3.4585  2.3061
 4942SOL    HW319535   0.531   2.524   4.739  0.2225 -0.2276 -0.7074
 4942SOL    MW419536   0.529   2.477   4.812  0.3760  0.7138  0.0076
 4943SOL     OW19537   4.373   3.091   0.025  0.0933 -0.0621  0.3685
 4943SOL    HW219538   4.306   3.056  -0.035 -0.4331  0.6413  0.5386
 4943SOL    HW319539   4.342   3.178   0.048  0.9116  0.1499  0.7150
 4943SOL    MW419540   4.360   3.098   0.020  0.7114  0.1376  0.0712
 4944SOL     OW19541   5.303   1.929   1.001 -0.0892  0.0689 -0.6724
 4944SOL    HW219542   5.254   1.884   0.932  0.3447  0.1895 -1.0636
 4944SOL    HW319543   5.346   1.858   1.049 -0.9981 -0.0732 -0.0403
 4944SOL    MW419544   5.302   1.913   0.998  0.2903  0.5402 -0.1236
 4945SOL     OW19545   1.155   2.735   3.560  0.1193 -0.4670  0.0458
 4945SOL    HW219546   1.111   2.713   3.478 -1.9408 -0.2752  1.0562
 4945SOL    HW319547   1.191   2.822   3.546 -2.2983  0.6103  0.0863
 4945SOL    MW419548   1.154   2.743   3.548  0.4151 -0.4905 -0.3048
 4946SOL     OW19549   4.798   2.578   1.864 -0.7277  0.1197  0.3299
 4946SOL    HW219550   4.835   2.490   1.859  0.9993  0.8737 -1.0087
 4946SOL    HW319551   4.722   2.576   1.806 -0.6173 -0.4642  0.2041
 4946SOL    MW419552   4.793   2.566   1.856 -0.2642 -0.1471  0.4929
 4947SOL     OW19553   1.777   6.110   2.381 -0.2702 -0.2150  0.2008
 4947SOL    HW219554   1.793   6.191   2.428  1.4355 -0.1899 -0.3448
 4947SOL    HW319555   1.803   6.041   2.442  0.1351 -0.2552 -0.0094
 4947SOL    MW419556   1.782   6.111   2.395  0.4849 -0.2133  0.0995
 4948SOL     OW19557   2.215   2.819   1.887  1.0739 -0.7203 -0.2228
 4948SOL    HW219558   2.190   2.735   1.926  1.4759 -1.2843 -1.1564
 4948SOL    HW319559   2.219   2.802   1.793  1.0244  0.3838 -0.4405
 4948SOL    MW419560   2.212   2.805   1.880  0.3101  0.0587  0.1480
 4949SOL     OW19561   0.570   5.775   2.620 -0.5560  0.3702 -0.1753
 4949SOL    HW219562   0.527   5.848   2.664  1.5442  1.0298  0.9200
 4949SOL    HW319563   0.657   5.769   2.661  0.0593 -1.5094 -1.5681
 4949SOL    MW419564   0.576   5.784   2.631  0.3276  0.0553 -0.5175
 4950SOL     OW19565   5.569   4.431   3.103 -0.2679 -0.3395 -0.2282
 4950SOL    HW219566   5.500   4.474   3.053 -1.7023 -2.2972 -0.0100
 4950SOL    HW319567   5.649   4.449   3.053 -1.3050 -0.2133 -1.9126
 4950SOL    MW419568   5.571   4.439   3.090 -0.0415 -0.2833  0.7235
 4951SOL     OW19569   2.044   5.509   0.019 -0.0862  0.0264  0.0038
 4951SOL    HW219570   1.994   5.490  -0.060  2.1077 -0.3940 -1.3762
 4951SOL    HW319571   1.978   5.523   0.087 -2.0300 -0.3250 -1.7223
 4951SOL    MW419572   2.029   5.508   0.018 -0.4399  0.1082  0.2821
 4952SOL     OW19573   1.109   1.173   2.702 -0.4588 -0.1189  0.3557
 4952SOL    HW219574   1.131   1.135   2.787 -0.9506  1.3922  1.1754
 4952SOL    HW319575   1.120   1.267   2.713 -1.8164  0.2215 -0.8535
 4952SOL    MW419576   1.114   1.180   2.714  0.0553 -0.0144 -0.3496
 4953SOL     OW19577   2.727   1.381   5.449  0.3578  0.3496  0.0066
 4953SOL    HW219578   2.704   1.289   5.440  0.2173  0.3916 -0.0685
 4953SOL    HW319579   2.780   1.400   5.372 -0.9002  0.7265 -0.8148
 4953SOL    MW419580   2.731   1.371   5.438 -0.5236 -0.0440 -0.0951
 4954SOL     OW19581   0.567   5.731   0.375 -0.3436  0.0551 -0.1056
 4954SOL    HW219582   0.615   5.723   0.458  0.1897  0.3910 -0.3721
 4954SOL    HW319583   0.631   5.708   0.308 -0.6964  0.0365 -0.4399
 4954SOL    MW419584   0.582   5.727   0.377  0.0473 -0.5474 -0.7001
 4955SOL     OW19585   2.130   1.822   1.433 -0.4059  0.2346 -0.0160
 4955SOL    HW219586   2.074   1.750   1.404 -0.9630  0.7656 -0.2509
 4955SOL    HW319587   2.106   1.896   1.378 -1.6886  1.3508  1.9342
 4955SOL    MW419588   2.120   1.822   1.422  0.5602  0.5507 -0.5161
 4956SOL     OW19589   5.709   1.132   4.250  0.2712 -0.3470 -0.1106
 4956SOL    HW219590   5.617   1.144   4.274  0.5441 -0.5213  1.0615
 4956SOL    HW319591   5.711   1.047   4.205 -0.1394 -0.3462 -0.1345
 4956SOL    MW419592   5.697   1.122   4.247  0.8396 -0.0842 -0.0015
 4957SOL     OW19593   4.612   6.310   3.110 -0.1773  0.7760  0.0501
 4957SOL    HW219594   4.577   6.400   3.114  0.4873  1.0371  0.1224
 4957SOL    HW319595   4.674   6.306   3.182  0.7438  0.6737 -0.7327
 4957SOL    MW419596   4.615   6.322   3.120  0.3384  0.2016  0.3692
 4958SOL     OW19597   0.275   4.708   5.002 -0.1378  0.5121 -0.0830
 4958SOL    HW219598   0.350   4.724   5.061 -2.1043 -1.5440  3.3540
 4958SOL    HW319599   0.315   4.672   4.923  2.6319  1.7136  0.6344
 4958SOL    MW419600   0.290   4.705   5.000  0.4044 -0.0640  0.1246
 4959SOL     OW19601   5.755   1.524   3.204  0.2241  0.3613 -0.0087
 4959SOL    HW219602   5.795   1.509   3.119 -0.1416 -0.4635 -0.0506
 4959SOL    HW319603   5.792   1.607   3.234 -1.1737  1.7385 -1.8575
 4959SOL    MW419604   5.765   1.533   3.197 -0.1768 -0.7090  0.2475
 4960SOL     OW19605   0.810   4.502   3.816  0.1553 -0.2043  0.0555
 4960SOL    HW219606   0.740   4.517   3.752 -1.3047 -0.4761  1.5082
 4960SOL    HW319607   0.847   4.589   3.832 -0.8219  0.1926  0.2779
 4960SOL    MW419608   0.806   4.515   3.810  0.5784  0.0213 -0.7638
 4961SOL     OW19609   5.717   1.238   0.384 -0.1033  0.0733 -0.3934
 4961SOL    HW219610   5.699   1.220   0.476 -0.8834 -1.1317 -0.7557
 4961SOL    HW319611   5.766   1.320   0.385 -1.6351  1.0389  0.9796
 4961SOL    MW419612   5.721   1.246   0.396 -0.2780 -0.1922  0.4337
 4962SOL     OW19613   0.165   2.670   4.371  0.1594 -0.3770  0.1618
 4962SOL    HW219614   0.244   2.616   4.365  0.6258  0.3505 -0.5779
 4962SOL    HW319615   0.096   2.615   4.335  0.6917 -0.3797 -0.9007
 4962SOL    MW419616   0.167   2.655   4.365 -0.3965  0.3060 -0.3639
 4963SOL     OW19617   4.349   0.231   0.845  0.2980 -0.0793 -0.4416
 4963SOL    HW219618   4.328   0.138   0.835  0.0659 -0.0227 -0.5011
 4963SOL    HW319619   4.316   0.254   0.932  0.0815  0.0192 -0.5488
 4963SOL    MW419620   4.342   0.222   0.856 -0.5940 -0.1699 -0.7671
 4964SOL     OW19621   2.824   3.744   2.406 -0.1957 -0.9191  0.7613
 4964SOL    HW219622   2.829   3.650   2.388 -1.2021 -0.7715 -0.3980
 4964SOL    HW319623   2.856   3.786   2.326  0.0799 -0.2543  1.2015
 4964SOL    MW419624   2.829   3.737   2.393  0.5690  0.2408 -0.4301
 4965SOL     OW19625   2.981   3.283   3.130 -0.4016  0.2595  0.1078
 4965SOL    HW219626   2.964   3.301   3.222  0.8284  1.8036  0.0800
 4965SOL    HW319627   3.014   3.366   3.095  1.9445 -1.0319 -1.0073
 4965SOL    MW419628   2.983   3.296   3.137  0.3484 -0.3498  0.2733
 4966SOL     OW19629   1.865   5.180   0.266 -0.2184 -0.1431  0.6776
 4966SOL    HW219630   1.770   5.167   0.267 -0.1617 -0.8029  2.8358
 4966SOL    HW319631   1.879   5.258   0.321  0.3878  1.2585 -1.3626
 4966SOL    MW419632   1.854   5.189   0.274 -0.0367  0.3645 -0.1310
 4967SOL     OW19633   2.528   0.927   0.127 -0.7344  0.0404 -0.1821
 4967SOL    HW219634   2.465   0.998   0.138  0.3087  0.9329  0.2540
 4967SOL    HW319635   2.590   0.939   0.198  1.1566  0.5306 -1.8039
 4967SOL    MW419636   2.528   0.938   0.138 -0.4361 -0.3198 -0.0047
 4968SOL     OW19637   6.012   4.480   5.161  0.2102  0.0314 -0.3989
 4968SOL    HW219638   6.009   4.437   5.076 -1.7478  0.1243 -0.4194
 4968SOL    HW319639   5.997   4.573   5.142  0.1092  0.1040  0.0221
 4968SOL    MW419640   6.010   4.487   5.147 -0.6142 -0.1009 -0.2234
 4969SOL     OW19641   0.334   1.394   4.083  0.3865  0.5806 -0.5311
 4969SOL    HW219642   0.376   1.391   3.997  0.2766 -0.0885 -0.5681
 4969SOL    HW319643   0.338   1.304   4.114 -1.9051  0.2533 -0.9643
 4969SOL    MW419644   0.340   1.382   4.075 -0.0437 -0.2480  0.5275
 4970SOL     OW19645   6.418   6.072   0.422  0.1473 -0.0679  0.0568
 4970SOL    HW219646   6.342   6.068   0.364  0.6429  1.6357 -0.7819
 4970SOL    HW319647   6.490   6.100   0.366  0.4438  2.6022  1.6036
 4970SOL    MW419648   6.417   6.075   0.407 -0.0915  0.3519 -0.0343
 4971SOL     OW19649   0.157   5.933   3.628  0.1880  0.3739 -0.2687
 4971SOL    HW219650   0.148   6.011   3.683  1.1136 -0.1459  0.6504
 4971SOL    HW319651   0.097   5.869   3.667  0.5555  0.1336 -0.0907
 4971SOL    MW419652   0.148   5.935   3.640  1.0271  0.3972  0.7033
 4972SOL     OW19653   0.326   1.588   5.371  0.3300  0.1264 -0.5166
 4972SOL    HW219654   0.416   1.573   5.401  0.0933 -0.2278  0.0239
 4972SOL    HW319655   0.277   1.513   5.404  0.1717 -0.6216 -2.3207
 4972SOL    MW419656   0.331   1.576   5.379  0.0539  0.1108 -0.7858
 4973SOL     OW19657   3.848   3.773   3.866  0.0398  0.2634  0.0580
 4973SOL    HW219658   3.780   3.827   3.825 -1.4673 -0.5443  1.4090
 4973SOL    HW319659   3.834   3.685   3.831 -0.5531 -0.2009  1.3953
 4973SOL    MW419660   3.838   3.769   3.856  0.3087  0.1070 -0.2198
 4974SOL     OW19661   2.989   2.553   5.246 -0.1994 -0.1210  0.2293
 4974SOL    HW219662   3.068   2.567   5.298  0.6586 -0.3372 -0.9857
 4974SOL    HW319663   2.924   2.524   5.310  1.7308 -3.8057  0.7926
 4974SOL    MW419664   2.991   2.551   5.262  1.2045  0.0734  0.3815
 4975SOL     OW19665   2.222   4.408   5.405 -0.2738 -0.2139 -0.5597
 4975SOL    HW219666   2.230   4.502   5.387  0.6241  0.0193  0.8726
 4975SOL    HW319667   2.128   4.395   5.417 -0.5836  0.1663 -2.3034
 4975SOL    MW419668   2.210   4.419   5.405 -0.3766 -0.1331 -0.0510
 4976SOL     OW19669   0.404   0.798   1.323  0.0012 -0.3262 -0.1212
 4976SOL    HW219670   0.485   0.771   1.280  0.7130  1.0012  0.3256
 4976SOL    HW319671   0.430   0.873   1.377 -1.4837 -0.0161  0.1892
 4976SOL    MW419672   0.418   0.804   1.324  0.5185  0.1025 -0.6484
 4977SOL     OW19673   4.801   5.695   5.001  0.1185  0.1249  0.3345
 4977SOL    HW219674   4.719   5.682   4.953 -0.2888  0.9669  0.7876
 4977SOL    HW319675   4.836   5.606   5.014 -0.4533 -0.2024 -0.3164
 4977SOL    MW419676   4.795   5.681   4.996 -0.2247  0.1288  0.2494
 4978SOL     OW19677   4.399   4.315   6.003  0.3122 -0.0346 -0.3127
 4978SOL    HW219678   4.405   4.407   6.028  1.2463 -0.3568  0.7827
 4978SOL    HW319679   4.314   4.286   6.035 -0.9225  0.9237 -2.5130
 4978SOL    MW419680   4.389   4.323   6.011  0.3592 -0.2256 -0.3834
 4979SOL     OW19681   0.320   5.532   5.533 -0.0826  0.4226 -0.5774
 4979SOL    HW219682   0.363   5.579   5.605 -0.9146 -0.9638  0.9000
 4979SOL    HW319683   0.230   5.520   5.563  0.0827 -2.0645 -0.8588
 4979SOL    MW419684   0.314   5.536   5.547 -0.3072  0.3500  0.3849
 4980SOL     OW19685   0.754   6.400   1.689  0.0651  0.8384  0.4767
 4980SOL    HW219686   0.802   6.416   1.608 -0.4854  2.0066  0.3679
 4980SOL    HW319687   0.701   6.479   1.702 -1.4894 -0.2062  0.8128
 4980SOL    MW419688   0.753   6.412   1.680  0.9518 -0.2097  0.5907
 4981SOL     OW19689   3.551   0.981   2.676  0.2327 -0.1003  0.4354
 4981SOL    HW219690   3.459   0.978   2.702  0.3840 -0.6252  0.9431
 4981SOL    HW319691   3.593   0.913   2.729  0.6707 -0.7612 -0.7247
 4981SOL    MW419692   3.544   0.971   2.686  0.6270  0.1130 -0.0082
 4982SOL     OW19693   1.052   1.824   5.404  0.1116  0.1166 -0.7841
 4982SOL    HW219694   1.038   1.859   5.492  2.7922 -0.7591  0.0991
 4982SOL    HW319695   0.974   1.773   5.385 -0.0410 -0.6524  1.6076
 4982SOL    MW419696   1.040   1.822   5.413 -0.3209 -0.2199  0.4826
 4983SOL     OW19697   0.227   4.172   6.205  0.2444  0.0800 -0.8535
 4983SOL    HW219698   0.232   4.246   6.145 -1.7653  1.2285  0.3087
 4983SOL    HW319699   0.139   4.175   6.241  0.1199 -2.8178 -0.6333
 4983SOL    MW419700   0.216   4.182   6.202 -0.4961  0.1727 -0.0398
 4984SOL     OW19701   0.523   1.243   0.278  0.0355  0.1441  0.7007
 4984SOL    HW219702   0.522   1.339   0.280 -0.4387  0.1750 -0.3411
 4984SOL    HW319703   0.613   1.220   0.253  0.2521  0.3054  1.3323
 4984SOL    MW419704   0.535   1.253   0.275  0.4749  0.1314 -0.2753
 4985SOL     OW19705   4.855   0.367   6.191  0.6020 -0.0164 -0.0409
 4985SOL    HW219706   4.825   0.312   6.119  1.2234 -1.9227  1.0725
 4985SOL    HW319707   4.909   0.434   6.150 -0.1290 -0.2576 -1.4532
 4985SOL    MW419708   4.858   0.368   6.176 -0.0510  0.5923 -0.0151
 4986SOL     OW19709   3.986   0.793   0.025  0.0067  0.4030  0.0058
 4986SOL    HW219710   3.970   0.883  -0.001 -0.7513  0.2630 -0.0287
 4986SOL    HW319711   3.907   0.746  -0.001 -0.2980  0.0452  1.5075
 4986SOL    MW419712   3.973   0.799   0.018 -0.0276 -1.2400  0.1502
 4987SOL     OW19713   1.765   3.012   6.185 -0.7369 -0.3039 -0.5871
 4987SOL    HW219714   1.765   3.033   6.278 -0.2228  2.5579 -1.1504
 4987SOL    HW319715   1.809   2.928   6.179  2.1710  0.9193  1.5080
 4987SOL    MW419716   1.770   3.004   6.196  0.4356 -0.6014 -0.1056
 4988SOL     OW19717   1.060   0.858   2.744 -0.3669 -0.1208  0.0890
 4988SOL    HW219718   1.090   0.925   2.805 -0.8107  1.2599 -1.1378
 4988SOL    HW319719   1.140   0.826   2.702 -0.2585  1.0535 -0.6777
 4988SOL    MW419720   1.074   0.863   2.746 -0.5457  0.3601  0.4225
 4989SOL     OW19721   2.532   5.621   1.362  0.1097  0.1388  0.3975
 4989SOL    HW219722   2.468   5.667   1.416 -0.9146 -1.4719  0.6002
 4989SOL    HW319723   2.503   5.530   1.361  0.9729 -0.1663 -1.6303
 4989SOL    MW419724   2.520   5.615   1.369 -0.7451 -0.2161  0.4341
 4990SOL     OW19725   1.007   0.267   4.697 -0.4054 -0.5979  0.0273
 4990SOL    HW219726   0.933   0.219   4.659 -1.2498  0.7419 -0.1069
 4990SOL    HW319727   1.073   0.200   4.715 -0.4409 -1.4641 -2.6258
 4990SOL    MW419728   1.006   0.252   4.695  0.0289 -0.6180  0.9499
 4991SOL     OW19729   4.274   0.876   1.299 -0.3586 -0.2892  0.4083
 4991SOL    HW219730   4.202   0.938   1.301 -1.1853 -1.2377  1.1610
 4991SOL    HW319731   4.306   0.879   1.209  0.6785  2.3511  0.7736
 4991SOL    MW419732   4.269   0.885   1.287  0.5810 -0.3707 -0.2649
 4992SOL     OW19733   6.309   4.512   1.919  0.1597  0.0767 -0.7440
 4992SOL    HW219734   6.334   4.584   1.861  1.8299 -0.2109 -0.4415
 4992SOL    HW319735   6.302   4.436   1.862  2.5770 -0.3743 -0.5332
 4992SOL    MW419736   6.311   4.512   1.904  0.3440 -0.0271  0.1545
 4993SOL     OW19737   2.058   5.137   1.199  0.1405  0.3058 -0.1016
 4993SOL    HW219738   2.006   5.140   1.119 -1.7104  0.5382  1.0188
 4993SOL    HW319739   2.095   5.225   1.207 -0.9961  0.7869  0.0842
 4993SOL    MW419740   2.056   5.149   1.190  0.5176  0.3408  0.4872
 4994SOL     OW19741   3.233   6.271   1.620 -0.4924 -0.4400 -0.7578
 4994SOL    HW219742   3.164   6.305   1.678  0.7393  0.8140  0.0264
 4994SOL    HW319743   3.279   6.349   1.590  0.7736 -1.2718 -1.0349
 4994SOL    MW419744   3.230   6.286   1.624  0.0563  0.2706  0.4681
 4995SOL     OW19745   6.408   1.944   3.650 -0.5017  0.2770  0.2756
 4995SOL    HW219746   6.319   1.976   3.633  0.0305  1.6387 -0.1332
 4995SOL    HW319747   6.420   1.956   3.744 -0.3439  1.3015  0.1463
 4995SOL    MW419748   6.398   1.950   3.660  0.4549 -0.0544  0.2591
 4996SOL     OW19749   3.212   2.836   3.148  0.8086 -0.7531  0.4995
 4996SOL    HW219750   3.282   2.891   3.184  0.0655 -0.3684  1.3859
 4996SOL    HW319751   3.160   2.810   3.224 -0.0426 -0.9895 -0.1471
 4996SOL    MW419752   3.215   2.840   3.163  0.2851  0.0256  0.7047
 4997SOL     OW19753   6.373   0.841   1.161  0.2041  0.3416  0.1878
 4997SOL    HW219754   6.348   0.916   1.106 -1.7927 -1.2955 -1.2626
 4997SOL    HW319755   6.434   0.791   1.107 -0.4871 -0.4291  0.1187
 4997SOL    MW419756   6.378   0.845   1.147  0.7967 -0.0924 -0.3191
 4998SOL     OW19757   3.137   3.637   5.650  0.3657  0.2090 -0.1984
 4998SOL    HW219758   3.071   3.691   5.695 -0.3129 -0.9524  0.2557
 4998SOL    HW319759   3.138   3.555   5.699  0.7395 -0.5236 -1.3808
 4998SOL    MW419760   3.128   3.633   5.662  0.3243 -0.5684 -1.1823
 4999SOL     OW19761   2.772   5.528   6.047  0.6733  0.3374  0.0011
 4999SOL    HW219762   2.747   5.461   5.984 -3.0158  1.5044 -0.0174
 4999SOL    HW319763   2.736   5.497   6.130  1.1217  1.1102  0.4993
 4999SOL    MW419764   2.764   5.515   6.050  0.2855 -0.2612  0.7974
 5000SOL     OW19765   4.491   3.267   0.372  0.0538 -0.0068  0.2554
 5000SOL    HW219766   4.512   3.278   0.464  0.0007  0.2072  0.2447
 5000SOL    HW319767   4.410   3.318   0.360  1.5939  2.4380 -0.5320
 5000SOL    MW419768   4.483   3.275   0.382  0.3216  0.1141  0.3323
 5001SOL     OW19769   2.669   0.241   5.121  0.2584 -0.6542 -0.0683
 5001SOL    HW219770   2.735   0.172   5.124  1.0884  0.1006 -0.3342
 5001SOL    HW319771   2.647   0.249   5.027  1.1059  0.2902 -0.2000
 5001SOL    MW419772   2.675   0.233   5.109 -0.8031 -0.0902 -0.7153
 5002SOL     OW19773   3.406   0.364   3.332 -0.3038  0.5149  0.1892
 5002SOL    HW219774   3.397   0.307   3.408  0.3947  1.3734  0.9387
 5002SOL    HW319775   3.495   0.398   3.337 -0.3218  0.7695 -0.8879
 5002SOL    MW419776   3.416   0.361   3.342  0.3679  0.5376 -0.6431
 5003SOL     OW19777   2.097   3.473   4.195  0.0253  0.6408  0.3176
 5003SOL    HW219778   2.176   3.496   4.147 -0.4205  1.6406  0.0375
 5003SOL    HW319779   2.026   3.515   4.146 -0.3352  2.8737  2.5450
 5003SOL    MW419780   2.098   3.482   4.182 -0.2733 -0.2366  0.6821
 5004SOL     OW19781   4.822   3.095   3.570  0.1900 -0.2382 -0.7811
 5004SOL    HW219782   4.891   3.028   3.570 -0.4040 -0.8609 -0.8177
 5004SOL    HW319783   4.837   3.145   3.650  0.4275 -0.6331 -0.5733
 5004SOL    MW419784   4.833   3.092   3.580 -0.3968 -0.5422  0.4223
 5005SOL     OW19785   4.827   4.323   2.442 -0.1566  0.5236 -0.0388
 5005SOL    HW219786   4.889   4.376   2.492  1.7241 -0.4838 -1.1959
 5005SOL    HW319787   4.822   4.365   2.357 -1.2744  0.7124  0.1031
 5005SOL    MW419788   4.835   4.336   2.438 -0.4430  0.0187  0.1453
 5006SOL     OW19789   5.466   4.859   5.036  0.5038 -0.4653  0.1946
 5006SOL    HW219790   5.514   4.776   5.028  0.4223 -0.3676 -1.6313
 5006SOL    HW319791   5.385   4.844   4.987  0.3493  0.5899  0.1173
 5006SOL    MW419792   5.462   4.846   5.029  0.8144 -0.8071  0.0785
 5007SOL     OW19793   2.390   4.788   5.976  0.0017  0.1339 -0.1551
 5007SOL    HW219794   2.464   4.764   6.031 -0.8063 -0.0752  0.8711
 5007SOL    HW319795   2.325   4.720   5.992 -0.1364 -0.1061 -1.6256
 5007SOL    MW419796   2.391   4.776   5.985 -0.0627  0.3954 -0.1481
 5008SOL     OW19797   6.264   4.305   1.724  0.0353 -0.1091  0.4741
 5008SOL    HW219798   6.334   4.336   1.667  0.3347 -0.2528  0.7582
 5008SOL    HW319799   6.183   4.323   1.676  0.3438 -1.8143 -0.7923
 5008SOL    MW419800   6.262   4.311   1.710 -0.6672 -0.0152 -0.3102
 5009SOL     OW19801   6.006   0.694   3.748  0.2513  0.2961 -0.6412
 5009SOL    HW219802   5.981   0.772   3.698  1.5631  0.4980 -1.0274
 5009SOL    HW319803   6.046   0.636   3.683  1.6002  0.3770  0.0905
 5009SOL    MW419804   6.008   0.697   3.732  0.7455 -0.0678  0.2218
 5010SOL     OW19805   5.254   5.278   2.272  0.4601 -0.1030 -0.1468
 5010SOL    HW219806   5.339   5.254   2.238  0.4360 -1.4236  0.6551
 5010SOL    HW319807   5.192   5.223   2.224  0.3266 -1.1024  1.1074
 5010SOL    MW419808   5.257   5.268   2.262  0.3841  0.2880 -0.2814
 5011SOL     OW19809   2.661   0.787   1.642 -0.6769 -0.0602  0.3109
 5011SOL    HW219810   2.567   0.806   1.648 -0.8003 -0.7657  0.8033
 5011SOL    HW319811   2.690   0.784   1.734 -0.1876  0.0904  0.1615
 5011SOL    MW419812   2.652   0.790   1.655 -0.1743  0.0140 -0.6411
 5012SOL     OW19813   5.591   3.942   0.355  0.0193 -0.2422  0.2835
 5012SOL    HW219814   5.599   3.917   0.263 -0.7427  0.0509  0.1369
 5012SOL    HW319815   5.523   3.885   0.390 -0.5223  0.4450  0.3708
 5012SOL    MW419816   5.583   3.931   0.348  0.2383  0.1326  0.0569
 5013SOL     OW19817   5.650   2.265   3.305 -0.4473 -0.1629  0.0057
 5013SOL    HW219818   5.590   2.248   3.233  0.2938  0.3329 -0.7507
 5013SOL    HW319819   5.734   2.230   3.275  0.3431  1.7982 -0.2412
 5013SOL    MW419820   5.653   2.258   3.292 -0.1228 -0.1204  0.7871
 5014SOL     OW19821   2.933   3.940   4.872 -0.3139 -0.3970  0.2671
 5014SOL    HW219822   2.955   4.010   4.934  0.4803 -0.6223  0.2396
 5014SOL    HW319823   2.858   3.974   4.823 -0.2493  0.2296  0.6000
 5014SOL    MW419824   2.926   3.954   4.874  0.1963  0.0019  0.4022
 5015SOL     OW19825   4.539   1.911   5.231  0.3926  0.0101  0.2341
 5015SOL    HW219826   4.602   1.928   5.161  0.3830 -0.6435  0.0579
 5015SOL    HW319827   4.544   1.816   5.245 -0.8930 -0.1326 -0.1260
 5015SOL    MW419828   4.548   1.901   5.224 -0.2445  0.1677  0.2886
 5016SOL     OW19829   6.319   2.860   2.537  0.0711 -0.6576  0.2638
 5016SOL    HW219830   6.355   2.806   2.467  0.4461  0.3424 -0.3350
 5016SOL    HW319831   6.388   2.923   2.557 -0.9375  0.6517 -0.2015
 5016SOL    MW419832   6.332   2.861   2.531 -0.5268 -0.0913 -0.2286
 5017SOL     OW19833   0.052   0.714   1.747 -0.3783 -0.1839 -0.2411
 5017SOL    HW219834   0.119   0.781   1.763 -0.5426 -0.2524  0.8015
 5017SOL    HW319835   0.019   0.733   1.659 -0.2199  0.9155 -0.0699
 5017SOL    MW419836   0.057   0.725   1.737  0.0833 -0.2333 -0.0988
 5018SOL     OW19837   0.479   3.941   2.599 -0.1064  0.0888  0.4222
 5018SOL    HW219838   0.504   3.898   2.517  0.6898  1.0624  0.1334
 5018SOL    HW319839   0.383   3.944   2.596 -0.1668 -1.3824  0.3240
 5018SOL    MW419840   0.469   3.936   2.588 -0.1781 -0.5742 -0.1950
 5019SOL     OW19841   5.912   3.648   0.257 -0.1601  0.2425  0.3740
 5019SOL    HW219842   5.865   3.641   0.174  1.2258  0.2762 -0.4532
 5019SOL    HW319843   5.889   3.568   0.304 -1.9818  0.8219  0.5348
 5019SOL    MW419844   5.903   3.637   0.252  0.0910 -0.0937 -0.2641
 5020SOL     OW19845   2.836   5.830   2.734 -0.2204 -0.2870  0.1709
 5020SOL    HW219846   2.900   5.809   2.665  0.0151 -1.4961  0.7398
 5020SOL    HW319847   2.772   5.886   2.690  1.4457  1.3507 -0.3162
 5020SOL    MW419848   2.836   5.835   2.719  0.2062  0.4201 -0.8805
 5021SOL     OW19849   0.279   2.415   4.977 -0.2159  0.4551 -0.4355
 5021SOL    HW219850   0.306   2.341   5.032  3.1581  0.5162 -1.7746
 5021SOL    HW319851   0.330   2.489   5.009 -1.5142  1.5586 -0.8555
 5021SOL    MW419852   0.289   2.415   4.989 -0.1590  0.2888 -0.2235
 5022SOL     OW19853   6.080   1.395   5.024 -0.5020 -0.0632  0.0670
 5022SOL    HW219854   6.078   1.436   5.110  0.8597  2.0389 -0.8267
 5022SOL    HW319855   5.989   1.368   5.008 -1.3932  2.1624  0.9657
 5022SOL    MW419856   6.067   1.397   5.033 -0.1835  0.0145  0.3197
 5023SOL     OW19857   0.924   5.709   4.229 -0.5386  0.2395 -0.0994
 5023SOL    HW219858   0.983   5.759   4.285 -0.6706  2.2503 -1.6850
 5023SOL    HW319859   0.861   5.670   4.290 -0.5327  2.1507  1.1924
 5023SOL    MW419860   0.924   5.710   4.245  0.0640 -0.6714 -0.4230
 5024SOL     OW19861   6.021   0.738   5.969  0.1827  0.6894 -0.1356
 5024SOL    HW219862   6.025   0.796   6.045  0.2241 -0.5776  0.8882
 5024SOL    HW319863   6.071   0.660   5.997  1.2125  0.6668 -1.9077
 5024SOL    MW419864   6.028   0.735   5.983  0.3068  0.5343  0.0579
 5025SOL     OW19865   5.414   0.104   0.824 -0.1579  0.1610  0.1173
 5025SOL    HW219866   5.355   0.118   0.751  1.6550  1.8029 -1.1299
 5025SOL    HW319867   5.495   0.071   0.784  1.6285  3.1290  0.9976
 5025SOL    MW419868   5.417   0.101   0.809  0.4903  0.1088  0.1931
 5026SOL     OW19869   1.952   4.024   0.942  1.1029 -0.4023  0.6439
 5026SOL    HW219870   1.998   4.000   0.861  1.9247  1.6137  0.4632
 5026SOL    HW319871   1.992   3.970   1.010  1.7190 -0.7376  0.0222
 5026SOL    MW419872   1.963   4.013   0.940  0.1513 -0.5341  0.0801
 5027SOL     OW19873   3.575   5.713   3.817 -0.0289 -0.0700  0.2947
 5027SOL    HW219874   3.509   5.762   3.768 -1.0133 -0.8245  0.8276
 5027SOL    HW319875   3.659   5.752   3.792 -0.7676  1.7507  0.5752
 5027SOL    MW419876   3.578   5.724   3.807 -0.0703 -0.4507  0.5200
 5028SOL     OW19877   3.867   5.600   0.778 -0.0949  0.6547  0.0804
 5028SOL    HW219878   3.900   5.526   0.727  0.8812  1.0348  0.1296
 5028SOL    HW319879   3.778   5.576   0.801 -1.1356  1.0684 -3.0517
 5028SOL    MW419880   3.860   5.587   0.774 -0.1840 -0.2923 -0.5104
 5029SOL     OW19881   2.967   1.739   2.213 -0.1023 -0.1592 -0.3267
 5029SOL    HW219882   3.057   1.735   2.245  0.0724  1.4260 -0.5194
 5029SOL    HW319883   2.917   1.779   2.284 -0.1855  1.1176 -1.0685
 5029SOL    MW419884   2.972   1.744   2.226  0.5637 -0.3158  0.6441
 5030SOL     OW19885   0.138   2.658   5.479 -0.3409  0.1977  0.1886
 5030SOL    HW219886   0.161   2.598   5.550 -1.4063 -1.3419 -0.7079
 5030SOL    HW319887   0.073   2.716   5.518 -1.2778 -0.9365  0.3808
 5030SOL    MW419888   0.132   2.657   5.494 -0.3303 -0.1406  0.0957
 5031SOL     OW19889   2.974   5.365   3.868  0.2909 -0.0017 -0.0672
 5031SOL    HW219890   2.994   5.272   3.872 -0.6724 -0.1923  0.5509
 5031SOL    HW319891   2.941   5.379   3.779  0.3155 -0.2755 -0.1194
 5031SOL    MW419892   2.972   5.355   3.856 -0.1965  0.2603 -0.2072
 5032SOL     OW19893   0.638   1.833   1.521  0.0736 -0.1751  0.2042
 5032SOL    HW219894   0.634   1.905   1.458  1.4064  1.0745  1.4683
 5032SOL    HW319895   0.716   1.783   1.495 -0.5880 -0.9024 -0.3960
 5032SOL    MW419896   0.648   1.836   1.510 -0.4578 -0.2106 -0.7661
 5033SOL     OW19897   5.840   1.141   5.021  0.2722  0.2345 -0.0502
 5033SOL    HW219898   5.862   1.173   5.109  1.5957 -1.2595  0.2034
 5033SOL    HW319899   5.783   1.065   5.038  0.7278 -0.2026 -0.4716
 5033SOL    MW419900   5.835   1.135   5.035  0.5434 -0.0671  0.6472
 5034SOL     OW19901   5.741   6.393   0.204 -0.6847  0.3120 -0.1302
 5034SOL    HW219902   5.692   6.383   0.286 -0.6117  1.2103  0.0350
 5034SOL    HW319903   5.675   6.419   0.140 -0.6017  0.5199 -0.1357
 5034SOL    MW419904   5.726   6.395   0.207  0.2702  0.7781 -0.6296
 5035SOL     OW19905   4.781   5.255   0.850 -0.0238 -0.7724 -0.3635
 5035SOL    HW219906   4.781   5.189   0.919 -0.3632 -0.1579  0.2430
 5035SOL    HW319907   4.693   5.252   0.814  0.1021 -0.9735 -0.6534
 5035SOL    MW419908   4.769   5.246   0.854 -0.2570  0.5212 -0.0262
 5036SOL     OW19909   0.935   0.363   4.147 -1.0258 -0.1460 -0.5637
 5036SOL    HW219910   0.875   0.308   4.095 -0.0430 -2.0867  0.2597
 5036SOL    HW319911   1.022   0.335   4.121 -0.3999  2.1858 -1.2536
 5036SOL    MW419912   0.938   0.352   4.136 -0.5944  0.3082 -0.2614
 5037SOL     OW19913   0.468   2.082   0.828 -0.2582  0.2135  0.2099
 5037SOL    HW219914   0.428   2.046   0.907 -0.7553  1.5075  0.5777
 5037SOL    HW319915   0.471   2.177   0.843 -1.1737  0.5976 -1.6663
 5037SOL    MW419916   0.463   2.090   0.840  0.0598  0.5773  0.8064
 5038SOL     OW19917   0.870   4.930   1.038 -0.0897 -0.2422 -0.0979
 5038SOL    HW219918   0.778   4.939   1.061 -0.1074 -0.4574 -0.0815
 5038SOL    HW319919   0.881   4.986   0.961 -0.4490 -0.9169 -0.6622
 5038SOL    MW419920   0.859   4.939   1.031  0.2852 -0.3924  0.0926
 5039SOL     OW19921   1.643   4.726   5.713  0.2020  0.2989  0.2003
 5039SOL    HW219922   1.596   4.784   5.653  0.5096 -1.2089 -1.5972
 5039SOL    HW319923   1.587   4.722   5.791  0.6520  3.7238  0.8645
 5039SOL    MW419924   1.629   4.733   5.715 -0.1009 -0.4114  0.4492
 5040SOL     OW19925   2.646   1.219   3.544 -0.1797  0.4940 -0.0548
 5040SOL    HW219926   2.725   1.195   3.593  0.1220 -1.6959 -1.4335
 5040SOL    HW319927   2.680   1.250   3.459 -0.7731  0.1816 -0.4121
 5040SOL    MW419928   2.661   1.220   3.539 -0.2511  0.0426 -0.2085
 5041SOL     OW19929   1.072   5.864   1.247  0.2182 -0.5423 -0.0273
 5041SOL    HW219930   1.151   5.918   1.241 -0.6611  0.8486  0.3579
 5041SOL    HW319931   1.003   5.917   1.207 -0.5405 -1.7110 -0.3238
 5041SOL    MW419932   1.073   5.878   1.241  0.6596  0.4123  0.1423
 5042SOL     OW19933   1.358   0.836   3.597 -0.2736  0.1192 -0.1981
 5042SOL    HW219934   1.301   0.760   3.592  1.6156 -1.3648 -0.3308
 5042SOL    HW319935   1.406   0.835   3.513  1.5905 -0.0883  0.8175
 5042SOL    MW419936   1.357   0.826   3.585  0.5890  0.5146 -0.2820
 5043SOL     OW19937   6.281   1.748   2.666 -0.5490 -0.1734 -0.0939
 5043SOL    HW219938   6.244   1.661   2.650  0.6829 -0.4948 -1.4532
 5043SOL    HW319939   6.229   1.807   2.611 -1.5615  0.0232  1.0356
 5043SOL    MW419940   6.269   1.744   2.657 -0.2928  0.2369 -0.1698
 5044SOL     OW19941   5.592   6.282   4.381  0.1755  0.0749  0.0609
 5044SOL    HW219942   5.654   6.216   4.412 -0.2780  0.4543  1.8318
 5044SOL    HW319943   5.587   6.346   4.452 -0.6451  1.1705 -0.9449
 5044SOL    MW419944   5.600   6.282   4.394 -0.2290 -0.1696 -0.1806
 5045SOL     OW19945   3.541   6.025   0.235  0.5370  0.1644  0.1284
 5045SOL    HW219946   3.587   6.043   0.317  2.3171 -0.7383 -0.6442
 5045SOL    HW319947   3.501   5.939   0.249  1.4707 -0.3340 -0.1965
 5045SOL    MW419948   3.541   6.016   0.248 -0.1828  0.3498 -0.4813
 5046SOL     OW19949   4.149   2.669   5.394 -0.6557 -0.1603  0.5555
 5046SOL    HW219950   4.198   2.743   5.431 -0.3816 -0.5895  1.0629
 5046SOL    HW319951   4.120   2.701   5.308  0.8645 -0.0233  0.0513
 5046SOL    MW419952   4.152   2.683   5.388  0.9772  0.4306  0.7290
 5047SOL     OW19953   5.364   5.497   3.432  0.2238 -0.1385  0.0098
 5047SOL    HW219954   5.336   5.475   3.521 -1.9414 -0.7103 -0.7272
 5047SOL    HW319955   5.290   5.469   3.377  0.2032  2.8334 -1.6938
 5047SOL    MW419956   5.350   5.490   3.437  0.1889  0.8773 -0.5489
 5048SOL     OW19957   5.259   1.644   3.737 -0.0335 -0.8298 -0.1136
 5048SOL    HW219958   5.202   1.583   3.783 -0.6336 -0.2897 -0.1215
 5048SOL    HW319959   5.252   1.726   3.787 -0.1435 -0.4384 -0.7543
 5048SOL    MW419960   5.251   1.647   3.749 -0.0627 -0.0477 -0.4142
 5049SOL     OW19961   0.869   3.078   5.564  0.0974  0.4323  0.5195
 5049SOL    HW219962   0.818   3.014   5.615 -0.6270 -1.4494 -2.2901
 5049SOL    HW319963   0.898   3.142   5.628 -2.0659 -0.8510  2.9987
 5049SOL    MW419964   0.866   3.078   5.580  0.3110 -0.3149 -0.0524
 5050SOL     OW19965   3.824   3.338   2.896 -0.2754 -0.4113 -0.4329
 5050SOL    HW219966   3.871   3.370   2.818 -0.6812  0.4657 -0.3328
 5050SOL    HW319967   3.892   3.330   2.963 -0.2574  1.0207 -0.2397
 5050SOL    MW419968   3.839   3.341   2.895 -0.8134  0.7835  0.7852
 5051SOL     OW19969   3.129   3.836   3.413  0.3202 -0.0504 -0.1150
 5051SOL    HW219970   3.150   3.869   3.500 -1.3428 -0.1204  0.3501
 5051SOL    HW319971   3.087   3.752   3.428  1.4701 -0.8482 -1.1061
 5051SOL    MW419972   3.126   3.829   3.426 -0.2043  0.2212  0.2843
 5052SOL     OW19973   2.596   4.268   4.698  0.0121 -0.0235  0.0450
 5052SOL    HW219974   2.606   4.332   4.627  0.6908 -0.7185 -0.5071
 5052SOL    HW319975   2.632   4.312   4.775 -0.2746  0.5568 -0.1449
 5052SOL    MW419976   2.602   4.283   4.699 -0.5558  0.6846  0.4040
 5053SOL     OW19977   5.997   4.329   1.621 -0.4657  0.1920 -0.1076
 5053SOL    HW219978   6.004   4.422   1.600 -0.0741 -0.2214 -1.9594
 5053SOL    HW319979   5.964   4.327   1.711  3.3038  2.1528  1.5684
 5053SOL    MW419980   5.994   4.341   1.630  0.0476 -0.0796  0.3898
 5054SOL     OW19981   6.082   3.317   0.287  0.5632 -0.4134  0.4173
 5054SOL    HW219982   6.094   3.233   0.243 -0.1882  0.0766 -0.7714
 5054SOL    HW319983   6.105   3.300   0.378  0.9402 -1.7717  0.0888
 5054SOL    MW419984   6.087   3.304   0.293 -0.5038 -0.4963  0.0894
 5055SOL     OW19985   1.697   3.618   2.136 -0.3940 -0.5088 -0.4353
 5055SOL    HW219986   1.652   3.665   2.207  0.9240 -0.8859  0.6964
 5055SOL    HW319987   1.627   3.596   2.074 -1.8545 -1.3429  1.3851
 5055SOL    MW419988   1.682   3.621   2.137  0.1776  0.0475 -0.5698
 5056SOL     OW19989   0.066   0.979   5.654 -0.1636  0.0800  0.4140
 5056SOL    HW219990   0.146   0.948   5.611 -0.0525 -0.2174  0.8239
 5056SOL    HW319991   0.031   1.045   5.595  0.8414  0.8384  0.6339
 5056SOL    MW419992   0.072   0.983   5.640 -0.2718  0.3754  0.2895
 5057SOL     OW19993   2.750   2.858   4.722 -0.3425 -0.2697  0.0643
 5057SOL    HW219994   2.829   2.848   4.774 -0.4427 -0.9031  0.1031
 5057SOL    HW319995   2.719   2.947   4.741  0.1847 -0.1326  0.2860
 5057SOL    MW419996   2.756   2.868   4.731  0.2260 -0.5546 -0.3160
 5058SOL     OW19997   5.109   3.383   5.693 -0.5954 -0.2910 -0.2012
 5058SOL    HW219998   5.184   3.424   5.737 -1.3804  0.1392  0.7825
 5058SOL    HW319999   5.148   3.332   5.623  0.6937 -0.7898  0.8297
 5058SOL    MW420000   5.124   3.382   5.690 -0.0899 -0.2636 -0.4098
 5059SOL     OW20001   1.500   2.583   5.125 -0.1345  0.1596 -0.0915
 5059SOL    HW220002   1.566   2.554   5.062 -1.2474  0.1163 -1.2992
 5059SOL    HW320003   1.499   2.678   5.116  0.1347  0.2057  0.3299
 5059SOL    MW420004   1.508   2.591   5.115 -0.0699 -0.4057 -0.3260
 5060SOL     OW20005   1.229   5.453   0.735  0.2347 -0.4569  0.2763
 5060SOL    HW220006   1.234   5.512   0.659  0.4398 -1.6472 -0.6696
 5060SOL    HW320007   1.221   5.366   0.696 -1.5736 -0.9516  1.6303
 5060SOL    MW420008   1.229   5.449   0.720  0.5939 -0.4656 -0.9704
 5061SOL     OW20009   5.727   4.583   4.022 -0.0135  0.4832  0.4052
 5061SOL    HW220010   5.633   4.566   4.023  0.4580 -2.7189  1.0592
 5061SOL    HW320011   5.741   4.636   3.944 -2.1908 -0.2487 -0.5455
 5061SOL    MW420012   5.716   4.588   4.012  0.6855 -0.0162  0.0817
 5062SOL     OW20013   2.739   5.370   5.779 -0.5320  0.2293  0.5823
 5062SOL    HW220014   2.738   5.288   5.828  0.2793  0.4487  0.9990
 5062SOL    HW320015   2.758   5.344   5.689  2.6776  0.0974  1.1654
 5062SOL    MW420016   2.741   5.356   5.774 -0.2588 -0.5606 -0.5579
 5063SOL     OW20017   5.431   0.923   5.429  0.1331  0.6880 -0.0173
 5063SOL    HW220018   5.348   0.930   5.477 -0.8235  2.3632 -1.7964
 5063SOL    HW320019   5.472   0.844   5.465 -2.1333 -0.1014  1.0649
 5063SOL    MW420020   5.425   0.913   5.440 -0.4716  0.2724  0.5381
 5064SOL     OW20021   4.301   3.079   5.965 -0.0585  0.0107  0.1664
 5064SOL    HW220022   4.252   3.159   5.987 -2.3766 -0.5795 -2.3333
 5064SOL    HW320023   4.390   3.109   5.949 -0.5768  1.8975  0.5889
 5064SOL    MW420024   4.306   3.094   5.966 -0.5031  1.1456  0.9065
 5065SOL     OW20025   3.099   0.187   5.196 -0.1157 -0.3490  0.0446
 5065SOL    HW220026   3.038   0.113   5.189  1.0232 -1.3941  0.7243
 5065SOL    HW320027   3.066   0.239   5.269 -0.5251 -0.5959  0.0375
 5065SOL    MW420028   3.087   0.184   5.205 -0.1169 -0.2713  0.2809
 5066SOL     OW20029   5.351   1.788   6.363 -0.1052 -0.1194  0.4700
 5066SOL    HW220030   5.296   1.860   6.394 -0.5988  0.3121 -1.2996
 5066SOL    HW320031   5.321   1.772   6.273  1.4048 -1.1435  0.1167
 5066SOL    MW420032   5.339   1.796   6.355  0.0428  0.4869 -0.0977
 5067SOL     OW20033   0.023   5.953   6.316  0.1839 -0.3769  0.0040
 5067SOL    HW220034   0.012   5.869   6.271  0.1174 -0.7346  0.6709
 5067SOL    HW320035   0.048   5.929   6.405 -1.4571  0.2411  0.6840
 5067SOL    MW420036   0.025   5.939   6.322 -0.4288 -0.4466  0.3468
 5068SOL     OW20037   2.044   3.042   3.513 -0.4312  0.0289  0.3682
 5068SOL    HW220038   2.066   2.957   3.553  1.7309  0.3603  0.0083
 5068SOL    HW320039   1.950   3.035   3.493 -0.1036 -2.6979 -0.6210
 5068SOL    MW420040   2.034   3.030   3.516  0.1940 -0.2752 -0.1202
 5069SOL     OW20041   3.176   5.414   4.487 -0.9209 -0.0082 -0.0889
 5069SOL    HW220042   3.248   5.461   4.443 -1.0735 -1.2124 -1.7405
 5069SOL    HW320043   3.199   5.418   4.580  0.4142  1.0615 -0.4146
 5069SOL    MW420044   3.189   5.421   4.493 -0.6190 -0.2834  0.2661
 5070SOL     OW20045   4.522   2.033   1.277 -0.0954  0.0526  0.0554
 5070SOL    HW220046   4.607   1.990   1.268 -0.3783 -0.9818  1.9053
 5070SOL    HW320047   4.496   2.055   1.188  1.5888 -0.6241 -0.6302
 5070SOL    MW420048   4.530   2.030   1.264  0.2143  0.0311 -0.0970
 5071SOL     OW20049   5.463   2.659   1.836  0.1488  0.4053  0.0276
 5071SOL    HW220050   5.497   2.739   1.878  1.7990 -0.8787  1.2858
 5071SOL    HW320051   5.384   2.639   1.886  1.8294 -0.8348  2.4178
 5071SOL    MW420052   5.457   2.667   1.848 -0.0803  0.3494  0.4445
 5072SOL     OW20053   3.331   1.265   5.937  0.3257  0.1208  0.4797
 5072SOL    HW220054   3.395   1.302   5.877  1.1237  0.7113  1.6590
 5072SOL    HW320055   3.320   1.175   5.907  1.5505  0.0681  0.1137
 5072SOL    MW420056   3.338   1.258   5.925  0.1129 -0.1571 -0.1150
 5073SOL     OW20057   5.926   5.252   1.271  0.2847  0.3248  0.0974
 5073SOL    HW220058   6.001   5.293   1.228  3.8920 -2.4853  3.0071
 5073SOL    HW320059   5.892   5.319   1.330  1.6421  1.2290 -0.0842
 5073SOL    MW420060   5.932   5.266   1.273  0.2629 -0.4728 -0.0418
 5074SOL     OW20061   6.347   0.471   3.891 -0.0876  0.4847 -0.1303
 5074SOL    HW220062   6.304   0.388   3.871 -3.6605  2.5029 -1.8688
 5074SOL    HW320063   6.406   0.486   3.816  1.3282 -0.8270  0.6715
 5074SOL    MW420064   6.349   0.462   3.878 -1.2768  0.3524 -0.0354
 5075SOL     OW20065   2.602   3.540   5.956  0.3523  0.0940 -0.5042
 5075SOL    HW220066   2.522   3.497   5.925  0.8931  0.5534 -2.7500
 5075SOL    HW320067   2.570   3.617   6.003 -0.5465 -0.1716 -0.6560
 5075SOL    MW420068   2.587   3.545   5.958  0.0161 -0.2567 -0.6057
 5076SOL     OW20069   2.989   3.230   0.945 -0.4448  0.4148 -0.1711
 5076SOL    HW220070   2.894   3.232   0.929 -0.5346  0.4910  0.3832
 5076SOL    HW320071   3.006   3.303   1.004  0.0008  0.5540 -0.4652
 5076SOL    MW420072   2.979   3.240   0.950 -0.3307  0.1828  0.1527
 5077SOL     OW20073   5.417   2.118   2.457  0.4737  0.0859  0.1123
 5077SOL    HW220074   5.446   2.033   2.424 -0.5663 -0.2621  0.0527
 5077SOL    HW320075   5.448   2.181   2.392  0.7397 -0.3108 -0.1496
 5077SOL    MW420076   5.424   2.115   2.444 -0.2504  0.0909  0.3575
 5078SOL     OW20077   3.547   1.766   2.339  0.8286 -0.2177  0.3161
 5078SOL    HW220078   3.638   1.792   2.342  0.5561  1.2166 -1.7800
 5078SOL    HW320079   3.548   1.680   2.295  1.1584 -0.1555  0.2006
 5078SOL    MW420080   3.559   1.758   2.333 -0.1068 -0.1749 -0.6634
 5079SOL     OW20081   0.867   1.090   3.465  0.1184  0.2663  0.5029
 5079SOL    HW220082   0.899   1.074   3.554  0.4447  1.1120  0.5501
 5079SOL    HW320083   0.846   1.183   3.463 -0.3689  0.1538 -0.1613
 5079SOL    MW420084   0.869   1.100   3.476  0.7905 -0.1077  0.0512
 5080SOL     OW20085   6.274   0.865   2.815 -0.2584 -0.3546 -0.3410
 5080SOL    HW220086   6.273   0.884   2.721  1.2188 -0.1265 -0.3413
 5080SOL    HW320087   6.248   0.947   2.856 -0.3577 -0.2897 -0.5289
 5080SOL    MW420088   6.271   0.879   2.808 -0.5833  0.1416  0.1357
 5081SOL     OW20089   1.517   3.118   4.232  0.1752  0.2336 -0.0947
 5081SOL    HW220090   1.594   3.075   4.193  0.5248 -0.1807  0.9980
 5081SOL    HW320091   1.459   3.045   4.256 -0.1900  0.4967 -0.1831
 5081SOL    MW420092   1.520   3.102   4.230 -0.0239 -0.2285  0.1112
 5082SOL     OW20093   5.137   5.212   4.512  0.3139 -0.2797  0.5848
 5082SOL    HW220094   5.205   5.240   4.573  2.1146 -0.4634 -1.2139
 5082SOL    HW320095   5.060   5.265   4.535  1.8766  1.9863  0.9818
 5082SOL    MW420096   5.136   5.223   4.523 -0.4513  0.1107  0.3147
 5083SOL     OW20097   1.437   0.158   1.669  0.1145  0.1479  1.0242
 5083SOL    HW220098   1.420   0.251   1.686  1.0127  0.8484 -1.4893
 5083SOL    HW320099   1.359   0.127   1.623  0.7632  0.3189 -0.2343
 5083SOL    MW420100   1.425   0.166   1.665  0.4429 -0.2039  0.5418
 5084SOL     OW20101   0.013   5.435   3.213 -0.2935 -0.2789  0.0409
 5084SOL    HW220102   0.080   5.478   3.267 -0.0804 -0.2005 -0.2875
 5084SOL    HW320103   0.013   5.484   3.131 -0.6913 -0.3348  0.0037
 5084SOL    MW420104   0.022   5.447   3.210 -0.3669 -0.0993 -0.7028
 5085SOL     OW20105   5.877   2.275   4.703  0.1475  0.0180  0.2327
 5085SOL    HW220106   5.946   2.217   4.736 -0.3996 -0.9560 -0.3087
 5085SOL    HW320107   5.867   2.251   4.611  0.4210  1.4950 -0.2142
 5085SOL    MW420108   5.885   2.265   4.696 -0.0078  0.2977  0.1349
 5086SOL     OW20109   5.845   4.443   5.375  0.1986  0.4057  0.4483
 5086SOL    HW220110   5.759   4.452   5.334  0.6618  1.7275 -0.3031
 5086SOL    HW320111   5.907   4.448   5.303  0.9475  0.4147  1.0714
 5086SOL    MW420112   5.842   4.445   5.360 -0.1486 -0.3195 -0.4515
 5087SOL     OW20113   3.751   3.187   6.417  0.4173  0.1729 -0.9669
 5087SOL    HW220114   3.789   3.125   6.355  0.8039 -0.7472  0.1681
 5087SOL    HW320115   3.798   3.172   6.499  0.5919  2.0304 -0.6653
 5087SOL    MW420116   3.762   3.177   6.420  0.6226  0.3179 -0.0546
 5088SOL     OW20117   4.880   1.723   1.979  1.1438 -0.1587 -0.3503
 5088SOL    HW220118   4.899   1.645   2.031  1.8032 -0.4931 -1.0771
 5088SOL    HW320119   4.801   1.701   1.930  1.2554 -0.3196 -0.4569
 5088SOL    MW420120   4.872   1.710   1.980  0.1554 -0.0804 -0.5537
 5089SOL     OW20121   0.477   1.392   3.827 -0.2402  0.1690 -0.0259
 5089SOL    HW220122   0.545   1.339   3.785  0.3139  0.4064  0.5560
 5089SOL    HW320123   0.477   1.475   3.778 -1.1401 -0.3545 -0.9679
 5089SOL    MW420124   0.486   1.396   3.815  0.0966  0.3960 -1.0201
 5090SOL     OW20125   3.107   4.802   6.050  0.3411 -0.0956  0.7295
 5090SOL    HW220126   3.065   4.717   6.038  0.1062 -0.0560  1.2335
 5090SOL    HW320127   3.115   4.838   5.962 -1.8294  0.4393  0.6992
 5090SOL    MW420128   3.103   4.796   6.037  0.4063  0.6679  0.1453
 5091SOL     OW20129   4.114   0.636   0.910 -0.2063  0.6896 -0.0559
 5091SOL    HW220130   4.035   0.619   0.961 -0.2384  1.2234  0.0819
 5091SOL    HW320131   4.100   0.590   0.827  0.4793 -1.4273  0.9436
 5091SOL    MW420132   4.102   0.628   0.905  0.5794 -0.0849 -0.5788
 5092SOL     OW20133   0.974   5.878   1.507  0.3737  0.3837  0.3692
 5092SOL    HW220134   0.995   5.845   1.419 -0.8235  0.6896 -0.0538
 5092SOL    HW320135   0.881   5.899   1.503  0.1315 -0.2438  1.9368
 5092SOL    MW420136   0.965   5.877   1.495  0.3298  0.4327  0.0780
 5093SOL     OW20137   4.405   2.874   4.862 -0.3714  0.0938 -0.2586
 5093SOL    HW220138   4.447   2.939   4.919  0.7668 -0.1732 -0.7545
 5093SOL    HW320139   4.478   2.823   4.827 -1.2153 -1.1956 -0.1964
 5093SOL    MW420140   4.420   2.876   4.865 -0.1700  0.5401  0.3038
 5094SOL     OW20141   6.305   4.438   4.851 -0.1040  0.2885  0.6042
 5094SOL    HW220142   6.326   4.518   4.899 -0.1460  0.5012  0.2659
 5094SOL    HW320143   6.233   4.399   4.901 -0.6430  0.8840  0.3051
 5094SOL    MW420144   6.299   4.443   4.864  0.7081 -0.2111  0.2341
 5095SOL     OW20145   5.279   0.465   1.399  0.2402 -0.6515 -0.2602
 5095SOL    HW220146   5.324   0.432   1.321  0.2739  2.2123 -1.6134
 5095SOL    HW320147   5.192   0.491   1.367 -1.0683 -2.6001  1.4892
 5095SOL    MW420148   5.274   0.464   1.384  0.1376  0.0871  0.0476
 5096SOL     OW20149   2.041   4.636   1.860 -0.2404 -0.2340  0.2303
 5096SOL    HW220150   1.980   4.623   1.933  0.1066 -0.7865  0.4266
 5096SOL    HW320151   2.124   4.658   1.901  0.4811 -2.5218  0.1199
 5096SOL    MW420152   2.044   4.637   1.875  0.8875 -0.3172  0.0997
 5097SOL     OW20153   6.137   5.870   2.860 -0.0658 -0.1980  0.4572
 5097SOL    HW220154   6.140   5.965   2.850  0.0008 -0.1136  1.2159
 5097SOL    HW320155   6.132   5.856   2.955 -1.2275 -0.9204  0.3112
 5097SOL    MW420156   6.137   5.881   2.871 -0.3217 -0.3332  0.6973
 5098SOL     OW20157   5.666   1.222   0.655 -0.4567 -0.1094  0.1738
 5098SOL    HW220158   5.678   1.131   0.682 -0.9825 -0.3166 -0.2746
 5098SOL    HW320159   5.727   1.272   0.710 -0.8290 -0.6207  1.0576
 5098SOL    MW420160   5.676   1.217   0.666  0.1419  0.3945  0.8144
 5099SOL     OW20161   0.098   3.255   1.287  0.6090 -0.1156 -0.2727
 5099SOL    HW220162   0.060   3.171   1.260 -2.1521  0.9860 -0.0912
 5099SOL    HW320163   0.069   3.318   1.221  0.0369  1.2385  1.2080
 5099SOL    MW420164   0.089   3.252   1.275 -0.3199 -0.5787  0.2862
 5100SOL     OW20165   5.908   3.963   0.888 -0.3610 -0.4528 -0.4119
 5100SOL    HW220166   5.922   3.910   0.810  0.8920 -1.7641  0.6462
 5100SOL    HW320167   5.924   4.053   0.860  1.3100 -1.0223 -1.3958
 5100SOL    MW420168   5.912   3.967   0.874 -0.1442  0.7708 -0.1186
 5101SOL     OW20169   0.312   1.165   4.233  0.5515 -0.2300 -0.0437
 5101SOL    HW220170   0.267   1.097   4.184  0.9589 -0.0517 -0.6713
 5101SOL    HW320171   0.249   1.191   4.301 -0.1698 -0.2123 -0.7042
 5101SOL    MW420172   0.297   1.160   4.236 -0.1302  0.6097 -0.5022
 5102SOL     OW20173   1.862   3.130   2.933 -0.1947 -0.1051  0.5025
 5102SOL    HW220174   1.898   3.218   2.945  1.6047  0.2915 -5.0989
 5102SOL    HW320175   1.938   3.073   2.925 -1.2438 -1.6048  0.7789
 5102SOL    MW420176   1.877   3.134   2.934 -0.2543 -0.1114 -0.1152
 5103SOL     OW20177   1.461   1.810   1.345  0.5200 -0.5697  0.6066
 5103SOL    HW220178   1.486   1.760   1.423  0.8513  0.6795  1.3372
 5103SOL    HW320179   1.438   1.744   1.280  0.5579 -1.6494  1.6591
 5103SOL    MW420180   1.461   1.795   1.347 -0.0501  0.2524  0.1905
 5104SOL     OW20181   2.654   4.703   0.667 -0.4151 -0.3313  0.0928
 5104SOL    HW220182   2.636   4.759   0.743 -0.6196 -1.8612  1.2067
 5104SOL    HW320183   2.723   4.644   0.696 -0.2129 -0.6845 -1.0634
 5104SOL    MW420184   2.660   4.703   0.681 -0.4182  0.3579 -0.1927
 5105SOL     OW20185   6.402   3.422   3.888  0.2020 -0.2083 -0.0828
 5105SOL    HW220186   6.490   3.443   3.857 -0.1449 -0.3660 -1.1996
 5105SOL    HW320187   6.351   3.502   3.872  0.0674 -0.2166  0.2883
 5105SOL    MW420188   6.407   3.435   3.882  0.2060 -0.3894 -0.3815
 5106SOL     OW20189   1.299   2.139   1.789  0.1383 -1.1757 -0.6813
 5106SOL    HW220190   1.206   2.163   1.788 -0.1519 -2.2095 -2.0684
 5106SOL    HW320191   1.345   2.221   1.804 -0.9828 -0.5938 -0.3157
 5106SOL    MW420192   1.292   2.153   1.791 -0.3016  0.3725  0.2049
 5107SOL     OW20193   2.502   0.163   2.067  0.5676 -0.2445  0.0349
 5107SOL    HW220194   2.563   0.189   2.137  0.9851 -1.2935  0.0794
 5107SOL    HW320195   2.437   0.232   2.066  2.6524  1.8511 -1.1562
 5107SOL    MW420196   2.502   0.176   2.076  0.0494  0.4334 -0.0309
 5108SOL     OW20197   4.811   0.815   6.318 -0.4170 -0.1068  0.1191
 5108SOL    HW220198   4.734   0.858   6.355 -2.4274 -2.3586 -1.0696
 5108SOL    HW320199   4.820   0.734   6.369  0.9436 -0.0660 -0.0200
 5108SOL    MW420200   4.802   0.810   6.330 -0.0512  0.6779  0.8611
 5109SOL     OW20201   1.549   5.256   1.964  0.1360  0.1914  0.2616
 5109SOL    HW220202   1.477   5.314   1.989 -1.6392 -1.3767 -1.0115
 5109SOL    HW320203   1.579   5.291   1.880 -0.4079 -0.2454 -0.1202
 5109SOL    MW420204   1.544   5.269   1.956 -0.6896  0.3248  0.2412
 5110SOL     OW20205   2.465   2.996   0.302  0.2132  0.5302 -0.0374
 5110SOL    HW220206   2.415   3.020   0.380 -2.4721  0.8142 -1.6833
 5110SOL    HW320207   2.512   2.917   0.327  0.6803  1.4525  2.2733
 5110SOL    MW420208   2.464   2.989   0.315 -0.4903 -0.5089 -0.5597
 5111SOL     OW20209   1.588   0.095   5.013 -0.1119 -0.2807 -0.3461
 5111SOL    HW220210   1.527   0.117   4.943  0.3427  0.9580 -0.3774
 5111SOL    HW320211   1.534   0.056   5.081 -0.5281 -1.7296 -1.4602
 5111SOL    MW420212   1.573   0.093   5.013 -0.7585 -0.7876 -0.0628
 5112SOL     OW20213   4.976   0.969   3.376 -0.1880 -0.2493 -0.2404
 5112SOL    HW220214   5.045   1.034   3.367  0.1187 -0.5480 -0.0777
 5112SOL    HW320215   4.987   0.912   3.300  0.4925 -0.9877  0.3880
 5112SOL    MW420216   4.986   0.970   3.365 -0.0820 -0.2491  0.2160
 5113SOL     OW20217   1.157   4.560   3.730  0.3958 -0.4599  0.5327
 5113SOL    HW220218   1.096   4.634   3.727  0.5482 -0.3567 -0.5795
 5113SOL    HW320219   1.242   4.600   3.743  0.6416 -0.2932 -1.2607
 5113SOL    MW420220   1.160   4.575   3.731 -0.4291  0.0926  0.0609
 5114SOL     OW20221   0.723   1.902   3.811 -0.0970 -0.3841 -0.0602
 5114SOL    HW220222   0.809   1.942   3.799 -0.6520  1.2928  1.2748
 5114SOL    HW320223   0.678   1.917   3.728  0.6655 -0.7429 -0.5531
 5114SOL    MW420224   0.729   1.909   3.798  0.1804 -0.1051 -0.6370
 5115SOL     OW20225   0.161   2.950   2.283 -0.1049  0.3170  0.0996
 5115SOL    HW220226   0.238   2.941   2.228  1.3875 -0.2250  2.1600
 5115SOL    HW320227   0.097   2.994   2.228  2.4683  3.0330 -0.9672
 5115SOL    MW420228   0.163   2.955   2.269 -0.0186  0.0746 -0.2328
 5116SOL     OW20229   4.876   0.115   5.450  0.0770 -0.5715 -0.5499
 5116SOL    HW220230   4.872   0.172   5.373 -2.2900  1.8228  1.1838
 5116SOL    HW320231   4.959   0.138   5.492 -0.5443  1.2617 -0.2253
 5116SOL    MW420232   4.887   0.126   5.445 -0.1254 -0.0085  0.2493
 5117SOL     OW20233   4.358   3.827   0.958  0.0338 -0.4199  0.5245
 5117SOL    HW220234   4.445   3.789   0.951  0.2344 -0.0989  1.1815
 5117SOL    HW320235   4.300   3.763   0.916  0.6029 -0.5479 -0.0855
 5117SOL    MW420236   4.362   3.814   0.952 -0.2772 -0.0829 -0.6123
 5118SOL     OW20237   5.044   1.206   3.637 -0.0488  0.0895  0.3169
 5118SOL    HW220238   4.968   1.156   3.667 -0.5716  0.0866 -0.9440
 5118SOL    HW320239   5.036   1.290   3.682 -0.0734 -0.3721  1.1890
 5118SOL    MW420240   5.033   1.211   3.647  0.0359 -0.1884  0.1490
 5119SOL     OW20241   5.586   3.303   1.920 -0.0655  0.0100  0.7048
 5119SOL    HW220242   5.534   3.225   1.900 -0.0366 -0.0743  0.9528
 5119SOL    HW320243   5.642   3.315   1.844  0.7486 -0.8824  1.1534
 5119SOL    MW420244   5.586   3.294   1.908 -0.2773  0.4892  0.2907
 5120SOL     OW20245   5.456   1.840   0.307 -0.3619  0.7642  0.2044
 5120SOL    HW220246   5.514   1.886   0.246 -1.1873  1.3875 -0.1280
 5120SOL    HW320247   5.471   1.747   0.288  1.9754  0.8062  1.5055
 5120SOL    MW420248   5.465   1.834   0.296 -0.6694  0.6627 -0.3028
 5121SOL     OW20249   2.756   1.519   2.147 -0.3157 -0.3202 -0.1355
 5121SOL    HW220250   2.717   1.596   2.188  1.4624  0.3772  0.2989
 5121SOL    HW320251   2.804   1.552   2.072  1.0123 -0.8811  0.4249
 5121SOL    MW420252   2.757   1.533   2.143 -0.2389  0.2382  0.2156
 5122SOL     OW20253   3.898   0.384   0.219  0.5674 -0.1867  0.2089
 5122SOL    HW220254   3.901   0.289   0.230  1.8360 -0.1916  0.0209
 5122SOL    HW320255   3.970   0.404   0.158  0.0482  0.8501 -0.0951
 5122SOL    MW420256   3.908   0.374   0.212 -0.0100 -0.3271 -0.1491
 5123SOL     OW20257   1.324   5.685   3.586  0.2808  0.4465  0.4086
 5123SOL    HW220258   1.420   5.683   3.577  0.4731 -2.2430  2.0890
 5123SOL    HW320259   1.292   5.643   3.506  0.5586  0.3266  0.3591
 5123SOL    MW420260   1.333   5.679   3.574  0.0378 -0.3798 -0.1169
 5124SOL     OW20261   1.170   3.056   3.307 -0.0788 -0.3101  0.0655
 5124SOL    HW220262   1.142   3.074   3.397 -0.6709  0.3297 -0.2329
 5124SOL    HW320263   1.108   3.105   3.253 -1.2210 -2.5590 -0.7803
 5124SOL    MW420264   1.158   3.065   3.311 -0.7147 -0.0680  0.1582
 5125SOL     OW20265   4.243   0.826   1.589  0.2721  0.0772 -0.4794
 5125SOL    HW220266   4.245   0.841   1.495 -0.2497  0.1264 -0.4861
 5125SOL    HW320267   4.324   0.778   1.608  0.4610  0.2165 -0.9220
 5125SOL    MW420268   4.254   0.822   1.579 -0.1141  0.1892 -1.0680
 5126SOL     OW20269   1.447   2.074   4.940  0.7221 -0.1352  0.2080
 5126SOL    HW220270   1.517   2.126   4.900  0.1439 -0.2840 -1.0448
 5126SOL    HW320271   1.379   2.070   4.874  0.4655 -1.9217  0.5090
 5126SOL    MW420272   1.447   2.080   4.926  0.2200  0.1421 -0.1824
 5127SOL     OW20273   0.648   2.993   1.075 -0.2115  0.3539 -0.2731
 5127SOL    HW220274   0.632   3.027   1.163 -1.5421 -0.7469 -0.0548
 5127SOL    HW320275   0.632   2.899   1.082  2.8082 -0.3319 -0.9797
 5127SOL    MW420276   0.644   2.985   1.087 -0.4939  0.0000  0.1521
 5128SOL     OW20277   5.747   2.148   4.218 -0.6826 -0.6875  0.4629
 5128SOL    HW220278   5.814   2.166   4.284 -1.4607  0.5220  0.9591
 5128SOL    HW320279   5.750   2.053   4.207  1.0187 -0.6854  0.5548
 5128SOL    MW420280   5.757   2.138   4.225  0.8431  0.0651 -0.1918
 5129SOL     OW20281   4.542   6.030   2.072  0.0559  0.2365 -0.5275
 5129SOL    HW220282   4.587   5.985   2.144  0.2653  0.5396 -0.4648
 5129SOL    HW320283   4.450   6.003   2.080 -0.0168  0.6652  0.1667
 5129SOL    MW420284   4.536   6.020   2.083 -0.0217 -0.0626  0.4929
 5130SOL     OW20285   4.936   0.878   4.275 -0.3044  0.1033 -0.1615
 5130SOL    HW220286   4.945   0.908   4.185 -0.9707 -1.3057 -0.7351
 5130SOL    HW320287   4.989   0.799   4.279 -0.2990  0.1457  0.6885
 5130SOL    MW420288   4.944   0.872   4.264  0.1072 -0.1244 -0.2497
 5131SOL     OW20289   0.440   0.311   0.951  0.2884  0.3859 -0.7663
 5131SOL    HW220290   0.431   0.354   0.867  0.7391  0.1113 -0.9553
 5131SOL    HW320291   0.494   0.234   0.934 -0.7379 -0.4164 -0.4955
 5131SOL    MW420292   0.446   0.306   0.938 -0.6348  0.1242  0.2846
 5132SOL     OW20293   1.883   0.183   2.325 -0.1684  0.2965 -0.0429
 5132SOL    HW220294   1.922   0.241   2.260 -0.4725  0.0354 -0.4627
 5132SOL    HW320295   1.826   0.125   2.275  0.8354 -0.9764  0.2483
 5132SOL    MW420296   1.880   0.183   2.310  0.0444 -0.1437 -0.2579
 5133SOL     OW20297   0.258   5.458   4.631  0.0985  0.6087  0.7206
 5133SOL    HW220298   0.167   5.465   4.659  0.1586  1.2440  0.7782
 5133SOL    HW320299   0.279   5.365   4.640 -1.1361  0.0838 -1.1653
 5133SOL    MW420300   0.249   5.447   4.636 -0.0182 -0.2826  0.3698
 5134SOL     OW20301   1.622   5.941   3.117 -0.5379  0.2056  0.8131
 5134SOL    HW220302   1.698   5.904   3.161 -0.8287 -2.3820 -0.6964
 5134SOL    HW320303   1.658   5.992   3.045 -0.2155  1.1735  1.6211
 5134SOL    MW420304   1.636   5.943   3.114 -0.7259 -0.7699 -0.6521
 5135SOL     OW20305   4.850   2.267   0.471 -0.6661 -0.5235  0.1672
 5135SOL    HW220306   4.773   2.301   0.516 -0.5556  0.4593 -0.3585
 5135SOL    HW320307   4.923   2.286   0.530 -0.4414  1.2906 -0.6178
 5135SOL    MW420308   4.850   2.274   0.485  0.4880 -0.6340  0.2911
 5136SOL     OW20309   3.576   0.862   0.788 -0.3256  0.5606  0.1523
 5136SOL    HW220310   3.606   0.934   0.844  2.6615  0.7492 -1.4406
 5136SOL    HW320311   3.655   0.834   0.742 -1.8625 -2.1971 -1.0524
 5136SOL    MW420312   3.591   0.868   0.789 -0.0502  0.4439 -0.1257
 5137SOL     OW20313   3.554   0.520   4.204  0.2178 -0.0454  0.5071
 5137SOL    HW220314   3.469   0.565   4.202  0.8971  1.3044  0.6928
 5137SOL    HW320315   3.613   0.580   4.158  1.0480 -1.0370  0.2493
 5137SOL    MW420316   3.550   0.534   4.198 -0.3063  0.1461 -0.0483
 5138SOL     OW20317   0.382   5.274   5.423  0.5133  0.3398  0.2429
 5138SOL    HW220318   0.418   5.236   5.503  1.3695  1.9258  0.6579
 5138SOL    HW320319   0.359   5.364   5.447 -3.2462 -0.3405 -0.1719
 5138SOL    MW420320   0.384   5.281   5.437 -0.1172  0.1382  0.1953
 5139SOL     OW20321   4.930   3.212   5.859  0.3441  0.3245  0.3524
 5139SOL    HW220322   4.891   3.169   5.783 -2.5268  1.4937  1.0180
 5139SOL    HW320323   5.001   3.265   5.823  0.2231 -0.5282 -1.2194
 5139SOL    MW420324   4.934   3.213   5.844  0.4092 -0.1609 -0.2658
 5140SOL     OW20325   4.988   0.906   2.128  0.0081 -0.6904 -0.4003
 5140SOL    HW220326   4.975   0.825   2.175 -2.1910 -1.8063 -2.6850
 5140SOL    HW320327   4.900   0.940   2.113  0.8500  2.3250  0.6807
 5140SOL    MW420328   4.974   0.900   2.132  0.8344  0.1391  0.2549
 5141SOL     OW20329   3.483   4.947   0.701 -0.0227  0.0852 -0.1365
 5141SOL    HW220330   3.432   4.895   0.640 -0.9447  0.8883 -0.0693
 5141SOL    HW320331   3.567   4.901   0.708 -1.5563 -2.7245  1.6847
 5141SOL    MW420332   3.487   4.934   0.694 -0.0353  0.2495  0.5177
 5142SOL     OW20333   1.079   1.929   2.664  0.1846  0.0598  0.1298
 5142SOL    HW220334   1.042   1.884   2.740  0.1819 -2.7067 -1.3580
 5142SOL    HW320335   1.167   1.954   2.691 -0.3593  0.5135  1.5205
 5142SOL    MW420336   1.085   1.926   2.677  0.1484  0.2023  0.9070
 5143SOL     OW20337   5.623   1.540   3.537 -0.7593  0.5657  0.2247
 5143SOL    HW220338   5.678   1.510   3.465  0.3989 -0.1695  1.3783
 5143SOL    HW320339   5.548   1.480   3.537 -0.0459 -0.3438  0.5207
 5143SOL    MW420340   5.620   1.528   3.527 -0.1931  0.8121 -0.2193
 5144SOL     OW20341   1.913   5.234   5.446 -0.1437  0.5593  0.7233
 5144SOL    HW220342   1.976   5.226   5.518 -1.2364 -0.2229  1.6316
 5144SOL    HW320343   1.881   5.324   5.452 -1.7222 -0.0488  2.5749
 5144SOL    MW420344   1.917   5.245   5.457 -0.2003  0.6140  0.2457
 5145SOL     OW20345   5.612   5.583   2.242  0.2026  0.2392 -0.1906
 5145SOL    HW220346   5.521   5.581   2.271 -0.3048 -0.2113 -1.6936
 5145SOL    HW320347   5.658   5.524   2.301 -0.9947 -1.4939 -0.9182
 5145SOL    MW420348   5.606   5.575   2.254  0.1226  0.5469 -0.3114
 5146SOL     OW20349   6.304   4.441   6.386  0.0795  0.7613  0.0271
 5146SOL    HW220350   6.257   4.446   6.469 -1.2417 -0.1224 -0.6366
 5146SOL    HW320351   6.267   4.511   6.333 -0.1270  0.3963 -0.3156
 5146SOL    MW420352   6.293   4.451   6.390  0.4105  0.1742 -0.8182
 5147SOL     OW20353   5.221   5.369   1.511  0.1526  0.4469  0.0549
 5147SOL    HW220354   5.249   5.408   1.428  1.1939  1.1010  0.6916
 5147SOL    HW320355   5.196   5.280   1.488 -0.5970  0.9344 -1.1408
 5147SOL    MW420356   5.221   5.362   1.497  0.3652  0.0763  0.2688
 5148SOL     OW20357   0.029   1.411   4.140 -0.0078 -0.0818 -0.6946
 5148SOL    HW220358   0.063   1.410   4.229  0.2227  1.0957 -0.7461
 5148SOL    HW320359   0.101   1.380   4.086 -0.5708 -2.0718 -0.3727
 5148SOL    MW420360   0.043   1.407   4.145  0.3546 -0.5428  0.0657
 5149SOL     OW20361   4.779   2.098   1.471 -0.6715  0.1545 -0.4796
 5149SOL    HW220362   4.776   2.096   1.566 -1.5647  0.1532 -0.4994
 5149SOL    HW320363   4.774   2.191   1.448  2.8569  0.4791 -0.4776
 5149SOL    MW420364   4.778   2.110   1.480 -0.7380  0.5760  0.0990
 5150SOL     OW20365   2.055   2.747   4.463 -0.0150 -1.0742 -0.0466
 5150SOL    HW220366   2.118   2.754   4.391  0.3630 -0.8535  0.3039
 5150SOL    HW320367   1.988   2.811   4.442  1.3613  0.8267  1.0592
 5150SOL    MW420368   2.055   2.756   4.450  0.6373 -0.0154  0.3657
 5151SOL     OW20369   5.210   2.790   3.544 -0.3310  0.3512  0.6191
 5151SOL    HW220370   5.129   2.819   3.586 -1.0693 -0.9045  0.1418
 5151SOL    HW320371   5.184   2.711   3.496  0.5703  1.3857 -1.7241
 5151SOL    MW420372   5.196   2.783   3.543  0.4042 -0.2698  0.1681
 5152SOL     OW20373   5.874   0.301   4.873 -0.1367 -0.2804  0.1785
 5152SOL    HW220374   5.918   0.381   4.901  0.3222 -0.3316 -0.3719
 5152SOL    HW320375   5.869   0.308   4.777 -0.5293 -0.6868  0.1637
 5152SOL    MW420376   5.879   0.313   4.864 -0.3878 -0.1217 -0.2858
 5153SOL     OW20377   5.371   6.019   4.882  0.3236 -0.0798  0.0712
 5153SOL    HW220378   5.450   6.035   4.933 -0.2164  1.3876  0.4898
 5153SOL    HW320379   5.313   6.092   4.902 -0.1583  0.2399 -2.1612
 5153SOL    MW420380   5.374   6.030   4.891  0.0518 -0.4455  0.0637
 5154SOL     OW20381   1.533   4.997   1.120  0.6143  0.3985  0.5413
 5154SOL    HW220382   1.454   4.945   1.136 -0.1069  1.1048 -0.6212
 5154SOL    HW320383   1.603   4.933   1.114 -0.2014 -0.4321 -0.5196
 5154SOL    MW420384   1.532   4.982   1.122  0.3104 -0.2380 -0.0467
 5155SOL     OW20385   2.537   4.971   0.084  0.2422  0.3506  0.1275
 5155SOL    HW220386   2.483   4.902   0.047 -0.6543  0.3155  1.4326
 5155SOL    HW320387   2.482   5.011   0.151  0.6825  2.4388 -0.6856
 5155SOL    MW420388   2.522   4.967   0.088 -0.1643  0.7122 -1.0338
 5156SOL     OW20389   4.959   4.644   4.703 -0.1463  0.9973  0.5618
 5156SOL    HW220390   4.913   4.576   4.752 -1.3965  0.6689 -1.0026
 5156SOL    HW320391   5.023   4.597   4.649  0.3953  1.2583  0.9617
 5156SOL    MW420392   4.962   4.629   4.702  0.0876 -0.2190  0.2300
 5157SOL     OW20393   1.218   3.684   6.136  0.0543 -0.1721 -0.0143
 5157SOL    HW220394   1.154   3.615   6.114 -0.2650 -0.3011  1.2368
 5157SOL    HW320395   1.165   3.763   6.147  0.2595 -0.0173 -0.1349
 5157SOL    MW420396   1.202   3.685   6.134 -0.1888  0.3290  0.4323
 5158SOL     OW20397   0.780   4.973   2.777 -0.3443  0.5622 -0.5985
 5158SOL    HW220398   0.786   5.058   2.820 -1.3382 -0.4039  1.6299
 5158SOL    HW320399   0.869   4.955   2.746  0.1279  1.8947 -0.0899
 5158SOL    MW420400   0.793   4.982   2.779  0.7464 -0.1987 -0.0323
 5159SOL     OW20401   2.493   1.639   5.264 -0.3430 -0.3888 -0.5791
 5159SOL    HW220402   2.523   1.611   5.350 -0.2204  1.1133 -0.0968
 5159SOL    HW320403   2.400   1.618   5.264  0.0447 -2.2426 -0.8873
 5159SOL    MW420404   2.485   1.633   5.276 -0.4242  0.0677  0.7792
 5160SOL     OW20405   1.346   2.056   2.486 -0.1031  0.1432  0.4426
 5160SOL    HW220406   1.399   1.980   2.507  1.0319  0.5810 -0.7069
 5160SOL    HW320407   1.359   2.116   2.560 -1.3101 -0.8827  1.5399
 5160SOL    MW420408   1.355   2.054   2.498  0.0117 -0.3030  0.2539
 5161SOL     OW20409   5.902   5.353   0.615 -0.0744  0.3019 -0.3995
 5161SOL    HW220410   5.820   5.401   0.602 -1.0262 -0.0468  3.2401
 5161SOL    HW320411   5.884   5.265   0.580 -0.4923  0.8162 -1.5137
 5161SOL    MW420412   5.888   5.347   0.609  1.0048 -0.4754  0.1036
 5162SOL     OW20413   6.273   2.619   5.568 -0.7326  0.9447 -0.3282
 5162SOL    HW220414   6.262   2.596   5.661  0.2928 -0.9683 -0.6236
 5162SOL    HW320415   6.298   2.711   5.568  0.7423  0.5861  1.4127
 5162SOL    MW420416   6.275   2.628   5.580  0.6909  0.2473 -0.6281
 5163SOL     OW20417   5.115   5.983   1.256  0.6786 -0.0610 -0.6003
 5163SOL    HW220418   5.055   6.004   1.327  0.9315 -0.5009 -0.2508
 5163SOL    HW320419   5.183   5.930   1.297  1.5380  0.7866 -0.9043
 5163SOL    MW420420   5.116   5.978   1.270 -0.3037 -0.7205  0.4095
 5164SOL     OW20421   3.853   4.859   3.285  0.2657 -0.1264 -0.0643
 5164SOL    HW220422   3.927   4.878   3.227 -0.1976 -1.0732 -0.9928
 5164SOL    HW320423   3.809   4.943   3.297  0.2952  0.0654 -1.1961
 5164SOL    MW420424   3.857   4.872   3.279 -0.3353  0.0448 -0.8552
 5165SOL     OW20425   5.185   0.036   2.741  0.1001 -0.5809  0.1079
 5165SOL    HW220426   5.262   0.087   2.717  0.8358 -2.1007 -0.9403
 5165SOL    HW320427   5.221  -0.042   2.783 -0.8810 -1.1593 -0.0971
 5165SOL    MW420428   5.200   0.032   2.743 -0.1024  0.5547  0.2418
 5166SOL     OW20429   1.935   6.363   4.309 -0.4159 -0.2391  0.0363
 5166SOL    HW220430   1.846   6.353   4.342  0.2461 -1.1728  1.6393
 5166SOL    HW320431   1.945   6.457   4.293 -2.0150 -0.2435 -1.2361
 5166SOL    MW420432   1.925   6.374   4.311 -0.1625 -0.5376 -0.3787
 5167SOL     OW20433   3.083   5.180   4.918 -0.0550  0.2642  0.3234
 5167SOL    HW220434   3.177   5.165   4.927  0.0811  0.0529 -1.2346
 5167SOL    HW320435   3.077   5.255   4.858 -0.8840 -0.8264 -0.9961
 5167SOL    MW420436   3.095   5.188   4.911  0.0498 -0.1830  0.1509
 5168SOL     OW20437   3.863   5.359   3.573  0.5124  0.3172  0.4363
 5168SOL    HW220438   3.941   5.414   3.567  2.1898 -2.0639 -1.0064
 5168SOL    HW320439   3.825   5.383   3.658  3.4528  0.8021  1.7777
 5168SOL    MW420440   3.868   5.369   3.584 -0.0725 -0.2907  0.5625
 5169SOL     OW20441   4.566   0.293   0.605  0.4642 -0.1544 -0.7266
 5169SOL    HW220442   4.615   0.211   0.615  0.3507 -0.1058  0.3492
 5169SOL    HW320443   4.479   0.273   0.642 -0.4844 -0.3472 -2.9097
 5169SOL    MW420444   4.561   0.279   0.611 -0.0194  0.1883 -0.4083
 5170SOL     OW20445   6.095   4.942   3.995  0.1293  0.0115 -0.0426
 5170SOL    HW220446   6.183   4.938   3.957 -0.5055 -0.5680 -1.5363
 5170SOL    HW320447   6.081   5.035   4.012  0.2006  0.3953 -1.8858
 5170SOL    MW420448   6.105   4.954   3.992 -0.6105 -0.2017 -0.2753
 5171SOL     OW20449   2.943   3.680   5.044  0.2924 -0.1124  0.1304
 5171SOL    HW220450   2.965   3.698   5.136  2.1474  0.4336 -0.3672
 5171SOL    HW320451   2.949   3.765   5.001 -0.4386 -0.3856 -0.5304
 5171SOL    MW420452   2.947   3.694   5.051  0.0975 -0.4648  0.5360
 5172SOL     OW20453   0.585   6.058   5.131  0.5064 -0.1276 -0.4544
 5172SOL    HW220454   0.538   5.993   5.078  1.9218 -0.7298 -1.0105
 5172SOL    HW320455   0.671   6.019   5.146 -0.2206 -0.6480  3.5400
 5172SOL    MW420456   0.590   6.044   5.126 -0.5412  0.1726  0.3816
 5173SOL     OW20457   0.797   4.940   3.248 -0.2218 -0.0275 -0.3232
 5173SOL    HW220458   0.761   5.021   3.214  1.5670 -0.0209 -2.3407
 5173SOL    HW320459   0.747   4.871   3.203 -1.0939 -0.0867  0.6860
 5173SOL    MW420460   0.786   4.941   3.238 -0.0564  0.0837  0.4075
 5174SOL     OW20461   4.928   6.127   1.845  0.2385 -0.0147  0.2737
 5174SOL    HW220462   4.888   6.041   1.859 -0.2303  0.2876  0.8275
 5174SOL    HW320463   4.860   6.189   1.871  0.0121  0.5574 -1.5781
 5174SOL    MW420464   4.914   6.124   1.850  0.4032  0.5032  0.7978
 5175SOL     OW20465   0.424   2.909   0.510 -0.7015 -0.0567 -0.7071
 5175SOL    HW220466   0.399   2.884   0.598  1.4243  0.3674  0.0980
 5175SOL    HW320467   0.411   3.004   0.507  0.9733  0.2330 -0.1437
 5175SOL    MW420468   0.419   2.918   0.521  0.2679  0.3814  0.3149
 5176SOL     OW20469   4.791   3.359   4.363  0.0729  0.3417  0.3226
 5176SOL    HW220470   4.760   3.449   4.354 -2.4973 -0.4495  0.3741
 5176SOL    HW320471   4.821   3.353   4.453  1.0699  1.3532  0.0767
 5176SOL    MW420472   4.791   3.370   4.374 -0.0528  0.0722 -0.2538
 5177SOL     OW20473   4.317   0.212   2.044  0.2678 -0.2091  0.0619
 5177SOL    HW220474   4.234   0.260   2.050  0.3217 -0.2051  0.8513
 5177SOL    HW320475   4.380   0.268   2.088  0.6535 -0.3111 -0.3526
 5177SOL    MW420476   4.314   0.226   2.050  1.0504 -0.1548  0.2315
 5178SOL     OW20477   5.403   1.035   3.453  0.4767  0.0517  0.1104
 5178SOL    HW220478   5.319   1.046   3.409  1.1725  1.1525 -1.0283
 5178SOL    HW320479   5.380   1.012   3.543 -1.0286  0.0010 -0.2558
 5178SOL    MW420480   5.389   1.033   3.459 -0.2984 -0.1156  0.0430
 5179SOL     OW20481   5.529   4.828   0.699  0.3443 -0.0004  0.1299
 5179SOL    HW220482   5.593   4.797   0.763  0.7700 -0.8203 -0.6764
 5179SOL    HW320483   5.510   4.752   0.644 -1.7270  0.0869  0.6468
 5179SOL    MW420484   5.535   4.814   0.700  0.5881 -0.2607 -0.1682
 5180SOL     OW20485   3.553   6.309   1.787  0.1943  0.4259  0.0228
 5180SOL    HW220486   3.528   6.254   1.861 -0.4170 -1.5650 -1.6017
 5180SOL    HW320487   3.621   6.367   1.823  1.7395 -2.1373  1.5673
 5180SOL    MW420488   3.559   6.310   1.802 -0.0872 -0.1983  0.1748
 5181SOL     OW20489   5.527   0.833   3.938 -0.2293  0.0869  0.3362
 5181SOL    HW220490   5.482   0.750   3.956  0.4193 -0.2143  0.6177
 5181SOL    HW320491   5.606   0.829   3.992  0.6783  0.1247 -0.9513
 5181SOL    MW420492   5.531   0.821   3.947 -0.6650  0.1375  0.4352
 5182SOL     OW20493   5.780   6.206   0.820 -0.7367 -0.8346 -0.2418
 5182SOL    HW220494   5.726   6.133   0.788 -0.2193 -0.9228 -0.9402
 5182SOL    HW320495   5.738   6.284   0.782 -0.8491 -0.8323 -0.1134
 5182SOL    MW420496   5.767   6.207   0.811 -0.3821  0.2213  0.7414
 5183SOL     OW20497   1.320   4.637   0.065 -0.0376  0.2785 -0.1477
 5183SOL    HW220498   1.262   4.657  -0.008  1.1676 -0.5176 -1.3721
 5183SOL    HW320499   1.336   4.543   0.059 -0.6016  0.0234  1.6969
 5183SOL    MW420500   1.315   4.628   0.055  0.0160  0.3894  0.3122
 5184SOL     OW20501   4.162   1.868   1.640 -0.4064 -0.0402 -0.1793
 5184SOL    HW220502   4.076   1.899   1.609 -0.8896  1.3636  2.2997
 5184SOL    HW320503   4.144   1.823   1.722  0.8831 -3.1709 -1.4459
 5184SOL    MW420504   4.148   1.866   1.646  0.3424  0.2496 -0.2283
 5185SOL     OW20505   5.538   4.285   2.828  0.3182 -0.2087  0.0545
 5185SOL    HW220506   5.489   4.209   2.795  0.3605  0.7214 -2.3218
 5185SOL    HW320507   5.615   4.247   2.870 -0.6224 -1.5458  0.6487
 5185SOL    MW420508   5.541   4.270   2.829 -0.1319  0.2044  0.5291
 5186SOL     OW20509   0.607   3.106   1.322 -0.0592  0.1046 -0.1059
 5186SOL    HW220510   0.546   3.101   1.395  0.7118 -0.3429  0.5207
 5186SOL    HW320511   0.608   3.199   1.298  1.0394  0.6069  1.6550
 5186SOL    MW420512   0.599   3.118   1.328 -0.0229  0.4124 -0.0733
 5187SOL     OW20513   4.979   3.545   0.327  0.1540  0.0997  0.8291
 5187SOL    HW220514   4.970   3.451   0.347 -0.4159 -0.0227  0.0604
 5187SOL    HW320515   5.016   3.583   0.406  1.0717 -0.8949  0.8928
 5187SOL    MW420516   4.983   3.537   0.340 -0.6264  0.0730  0.2434
 5188SOL     OW20517   4.402   2.027   2.612 -0.5024 -0.3819  0.2195
 5188SOL    HW220518   4.447   2.106   2.585 -0.5894  0.7409  2.9852
 5188SOL    HW320519   4.309   2.049   2.610 -0.7650 -1.4302 -1.7576
 5188SOL    MW420520   4.396   2.040   2.608 -0.0619 -0.2056  0.3863
 5189SOL     OW20521   1.402   0.225   4.832  0.5234 -0.2173  0.0473
 5189SOL    HW220522   1.335   0.158   4.841 -0.5940  1.0479  1.7308
 5189SOL    HW320523   1.387   0.262   4.745 -0.4180 -0.5114  0.0738
 5189SOL    MW420524   1.392   0.221   4.821  0.0745  0.5638 -0.4948
 5190SOL     OW20525   3.347   3.003   6.330 -0.3957  0.7546 -0.4904
 5190SOL    HW220526   3.389   2.990   6.245 -0.5797  0.5520 -0.5520
 5190SOL    HW320527   3.416   3.038   6.386  0.8719 -2.7257  0.3795
 5190SOL    MW420528   3.362   3.006   6.326  0.7805 -0.8391 -0.4042
 5191SOL     OW20529   2.051   4.042   2.137  0.0159 -0.5785  0.2380
 5191SOL    HW220530   2.020   4.130   2.115  0.2891 -1.0258 -2.1606
 5191SOL    HW320531   2.135   4.057   2.180  1.9395  0.3637 -3.4225
 5191SOL    MW420532   2.058   4.055   2.140 -0.0173  0.2451 -0.3288
 5192SOL     OW20533   2.425   2.510   1.314 -0.0279  0.4292 -0.3998
 5192SOL    HW220534   2.455   2.590   1.356  2.0652 -1.1559  1.3888
 5192SOL    HW320535   2.350   2.482   1.368 -0.8309  1.1736 -1.0914
 5192SOL    MW420536   2.419   2.517   1.327 -0.7902  0.5347 -0.1652
 5193SOL     OW20537   4.986   4.690   0.885 -0.0353  0.0512 -0.2238
 5193SOL    HW220538   4.993   4.618   0.947 -0.8167 -0.1948 -0.4231
 5193SOL    HW320539   5.077   4.714   0.866  0.2098  0.1089  0.9843
 5193SOL    MW420540   4.999   4.684   0.891 -0.1865 -0.2647 -0.1535
 5194SOL     OW20541   5.117   3.956   3.137  0.2961 -0.3162 -0.0848
 5194SOL    HW220542   5.076   3.883   3.182  0.1518 -0.0337  0.2520
 5194SOL    HW320543   5.159   3.917   3.061 -0.4902 -0.6263 -0.3637
 5194SOL    MW420544   5.117   3.942   3.133 -0.2694 -0.2714  0.3748
 5195SOL     OW20545   4.417   5.970   2.677  0.4536  0.3366  1.0943
 5195SOL    HW220546   4.446   5.880   2.693 -1.9968 -0.7648 -0.1836
 5195SOL    HW320547   4.334   5.977   2.723 -0.4383  1.1905 -0.5595
 5195SOL    MW420548   4.410   5.959   2.685 -0.1467 -0.0806 -0.5875
 5196SOL     OW20549   1.824   4.214   0.787  0.1951  0.7153  0.4395
 5196SOL    HW220550   1.870   4.174   0.861  0.0255  2.3560  1.4915
 5196SOL    HW320551   1.887   4.273   0.748  0.2265 -0.0186 -0.6634
 5196SOL    MW420552   1.838   4.216   0.792 -0.0102 -0.2830 -0.1956
 5197SOL     OW20553   3.287   2.561   5.078 -0.4762 -0.1982  0.2431
 5197SOL    HW220554   3.252   2.585   5.164  1.0655 -0.2611  0.9295
 5197SOL    HW320555   3.352   2.493   5.097  0.3844  0.2768 -0.8756
 5197SOL    MW420556   3.291   2.556   5.092 -0.0187 -0.9250  0.1662
 5198SOL     OW20557   0.848   3.975   5.932  0.0912 -0.0805 -0.1823
 5198SOL    HW220558   0.813   3.889   5.956 -1.1321 -0.3035 -2.5467
 5198SOL    HW320559   0.788   4.038   5.972 -0.1968 -0.3736 -0.1484
 5198SOL    MW420560   0.836   3.972   5.941  0.4607 -0.0199 -0.1736
 5199SOL     OW20561   5.186   2.014   0.001 -0.5252 -0.0779  0.2937
 5199SOL    HW220562   5.099   1.976   0.011  0.4560 -2.1524  1.7245
 5199SOL    HW320563   5.189   2.046  -0.089 -2.5231 -0.5792  0.0193
 5199SOL    MW420564   5.175   2.013  -0.010 -0.0700 -0.0875 -0.4941
 5200SOL     OW20565   4.136   1.306   3.133 -0.5387  0.3305  0.0111
 5200SOL    HW220566   4.208   1.353   3.090 -0.6436  0.8763  0.4073
 5200SOL    HW320567   4.173   1.221   3.155 -0.7250 -0.2520 -1.8339
 5200SOL    MW420568   4.150   1.301   3.130  0.0099 -0.3544 -0.8262
 5201SOL     OW20569   3.861   2.762   0.951 -0.4014  0.2597 -0.3994
 5201SOL    HW220570   3.791   2.826   0.944  0.5292  1.2886 -0.5956
 5201SOL    HW320571   3.847   2.703   0.878 -1.0051  0.5183 -0.4957
 5201SOL    MW420572   3.850   2.763   0.941  0.2293 -0.1616  0.2712
 5202SOL     OW20573   2.779   4.232   3.546 -1.0789 -0.1074  0.3112
 5202SOL    HW220574   2.702   4.283   3.523  0.0836  0.7895 -1.9859
 5202SOL    HW320575   2.798   4.180   3.468  1.6778  1.1509 -0.0065
 5202SOL    MW420576   2.772   4.232   3.533 -0.3969 -0.1186  0.5545
 5203SOL     OW20577   3.174   4.124   3.054 -0.0068  0.1181  0.1853
 5203SOL    HW220578   3.112   4.109   2.983 -0.8613  0.2647  0.8825
 5203SOL    HW320579   3.188   4.038   3.092  0.5020  0.0292 -0.1943
 5203SOL    MW420580   3.167   4.111   3.050 -0.0562 -0.3392 -0.3680
 5204SOL     OW20581   5.410   3.041   1.915  0.0398  0.5309 -0.0314
 5204SOL    HW220582   5.357   3.066   1.991  0.1439 -1.8964  0.9196
 5204SOL    HW320583   5.348   3.035   1.843 -0.6690 -0.4261  0.6404
 5204SOL    MW420584   5.395   3.044   1.916 -0.1644 -0.1946 -0.0499
 5205SOL     OW20585   4.180   5.594   0.867  0.2365  0.0299  0.6702
 5205SOL    HW220586   4.132   5.670   0.899 -0.0931  0.2731 -0.3745
 5205SOL    HW320587   4.219   5.623   0.785  0.6186 -0.7455  0.5682
 5205SOL    MW420588   4.179   5.608   0.861  0.0285  0.5500  0.5449
 5206SOL     OW20589   3.306   1.382   4.791 -0.6940 -0.1690  0.2486
 5206SOL    HW220590   3.392   1.425   4.787  0.1720 -1.8844 -0.8776
 5206SOL    HW320591   3.264   1.419   4.869  0.1647  2.3022 -0.3747
 5206SOL    MW420592   3.312   1.393   4.801 -0.6202  0.2074 -0.7149
 5207SOL     OW20593   0.752   4.788   3.513  0.2730  0.2531 -0.3171
 5207SOL    HW220594   0.755   4.841   3.434 -0.5989  1.0297  0.1525
 5207SOL    HW320595   0.664   4.751   3.515  0.6814 -0.7849 -0.3360
 5207SOL    MW420596   0.741   4.790   3.503  0.0399  0.0026  0.1156
 5208SOL     OW20597   0.890   4.329   5.249  0.5126  0.5451  0.1096
 5208SOL    HW220598   0.961   4.382   5.287 -0.5877  1.9867  0.2361
 5208SOL    HW320599   0.847   4.290   5.325  0.1682  0.9913  0.1449
 5208SOL    MW420600   0.894   4.331   5.264 -0.2255 -0.2313  0.3949
 5209SOL     OW20601   2.190   0.001   0.708 -0.3936 -0.3641 -0.0037
 5209SOL    HW220602   2.153   0.053   0.636 -0.3031 -0.0698  0.1593
 5209SOL    HW320603   2.208  -0.085   0.669 -4.2576 -1.6495  0.6306
 5209SOL    MW420604   2.187  -0.003   0.693 -0.6927 -0.0907 -0.3963
 5210SOL     OW20605   4.784   5.562   1.522  0.2384 -0.2349 -0.2376
 5210SOL    HW220606   4.760   5.597   1.436 -0.3043  1.7918  0.6800
 5210SOL    HW320607   4.873   5.594   1.536 -0.0300  0.2644  0.3491
 5210SOL    MW420608   4.793   5.571   1.512  0.7481 -0.2682 -0.9589
 5211SOL     OW20609   3.578   3.947   1.652  0.1265 -0.0321  0.8177
 5211SOL    HW220610   3.591   3.921   1.561  0.8809 -0.2255  0.9752
 5211SOL    HW320611   3.645   4.014   1.668 -0.3273  0.3681  1.0834
 5211SOL    MW420612   3.589   3.953   1.642 -0.4570 -0.8000  0.0761
 5212SOL     OW20613   6.289   4.927   4.443  0.1490  0.3887  0.0305
 5212SOL    HW220614   6.338   5.000   4.481 -1.1870  1.6545 -0.5939
 5212SOL    HW320615   6.198   4.955   4.447 -0.5401 -1.7820  0.8801
 5212SOL    MW420616   6.284   4.940   4.449  0.4344  0.1543 -0.4552
 5213SOL     OW20617   5.680   0.334   0.853  0.7114 -0.1094  0.9147
 5213SOL    HW220618   5.731   0.307   0.776  0.6850 -0.6993  1.0970
 5213SOL    HW320619   5.668   0.253   0.903 -0.4022  0.0211  0.8745
 5213SOL    MW420620   5.685   0.319   0.849  0.4386 -0.2596  0.3129
 5214SOL     OW20621   0.894   0.640   4.787  0.4803  0.5602 -1.0871
 5214SOL    HW220622   0.823   0.671   4.730  0.7895  0.5727 -1.4745
 5214SOL    HW320623   0.962   0.610   4.726  1.2021  1.4430 -0.7396
 5214SOL    MW420624   0.894   0.640   4.771  0.2661  0.6936  0.1858
 5215SOL     OW20625   0.715   3.723   1.702  0.2175  0.3415  0.4936
 5215SOL    HW220626   0.721   3.682   1.788  1.3194 -0.2660  0.1505
 5215SOL    HW320627   0.622   3.732   1.685 -0.0194 -0.4728  1.3119
 5215SOL    MW420628   0.704   3.719   1.711 -0.9050  0.0532  0.4092
 5216SOL     OW20629   2.967   6.310   5.988  0.0698  0.1276 -0.3921
 5216SOL    HW220630   3.056   6.276   6.002  0.3941 -0.0078 -2.4930
 5216SOL    HW320631   2.964   6.390   6.041  1.0497 -0.4566  0.5960
 5216SOL    MW420632   2.978   6.316   5.997  0.5407 -0.3087 -0.0035
 5217SOL     OW20633   6.110   6.284   4.080 -0.3734 -0.5102 -0.8004
 5217SOL    HW220634   6.099   6.348   4.010 -1.2164  0.4009  0.1154
 5217SOL    HW320635   6.052   6.316   4.150  2.5912  0.3007  1.5002
 5217SOL    MW420636   6.101   6.297   4.080  0.4979  0.0918  0.3961
 5218SOL     OW20637   1.183   6.091   5.766 -0.4655  0.1579  0.1833
 5218SOL    HW220638   1.256   6.076   5.706 -1.3797  1.1258 -1.2163
 5218SOL    HW320639   1.175   6.008   5.815  0.8456 -0.3460 -0.4141
 5218SOL    MW420640   1.191   6.078   5.765 -0.5119  0.0287 -0.0446
 5219SOL     OW20641   0.438   4.838   5.682 -0.3139 -0.3554  0.2089
 5219SOL    HW220642   0.446   4.932   5.664 -0.2439 -0.6151 -1.1467
 5219SOL    HW320643   0.408   4.800   5.600  1.2717 -1.7573  0.2430
 5219SOL    MW420644   0.435   4.846   5.669  0.8854  0.1298 -0.6603
 5220SOL     OW20645   0.259   2.824   3.125 -0.2698  0.0302  0.2245
 5220SOL    HW220646   0.245   2.871   3.208 -2.2719  0.3713 -0.2593
 5220SOL    HW320647   0.184   2.848   3.071  0.0490 -1.6233 -1.0348
 5220SOL    MW420648   0.247   2.833   3.129 -0.3789  0.3541  0.2361
 5221SOL     OW20649   0.347   0.998   6.209  0.3789 -0.2649  0.1004
 5221SOL    HW220650   0.360   0.905   6.227  0.6577 -0.4362 -0.9054
 5221SOL    HW320651   0.374   1.009   6.118 -2.1159  0.3001 -0.6263
 5221SOL    MW420652   0.353   0.987   6.199  0.6090 -0.2132  0.1096
 5222SOL     OW20653   1.341   3.800   3.023 -0.1463  0.2278 -0.6875
 5222SOL    HW220654   1.307   3.857   3.092 -1.3506 -0.7039 -0.4636
 5222SOL    HW320655   1.394   3.857   2.968  0.8860  0.9796  1.0296
 5222SOL    MW420656   1.343   3.815   3.025 -0.3814 -0.5705  0.1084
 5223SOL     OW20657   3.486   1.503   6.185  0.2882 -0.0558  0.1532
 5223SOL    HW220658   3.464   1.410   6.195  1.8478 -0.5026 -0.2693
 5223SOL    HW320659   3.443   1.545   6.260 -1.2550 -0.9468 -0.1796
 5223SOL    MW420660   3.477   1.496   6.197  0.2028  0.6380  0.4199
 5224SOL     OW20661   3.280   6.137   1.378 -0.8436  0.2333 -0.1456
 5224SOL    HW220662   3.264   6.196   1.304  0.1214 -1.5307 -1.8383
 5224SOL    HW320663   3.249   6.186   1.454 -1.4546  2.3118 -1.6367
 5224SOL    MW420664   3.274   6.151   1.378 -0.2747 -1.0186  0.8535
 5225SOL     OW20665   6.103   4.046   3.016 -0.4269 -0.5150 -0.1816
 5225SOL    HW220666   6.066   3.958   3.020  0.8640 -1.0677  0.0939
 5225SOL    HW320667   6.059   4.087   2.941 -1.2391 -1.2879 -0.1404
 5225SOL    MW420668   6.093   4.040   3.006  0.3241 -0.1278  0.2881
 5226SOL     OW20669   1.994   3.814   0.317 -0.1370 -0.1519 -0.5773
 5226SOL    HW220670   2.014   3.867   0.394 -0.4220 -2.5789  1.2836
 5226SOL    HW320671   2.074   3.817   0.264  0.7089  0.1836  0.6868
 5226SOL    MW420672   2.007   3.821   0.320  0.1811  0.0775  0.4723
 5227SOL     OW20673   4.206   5.270   0.032 -0.5043 -0.0337 -0.2095
 5227SOL    HW220674   4.296   5.296   0.053 -0.3199 -2.6094  3.0626
 5227SOL    HW320675   4.171   5.344  -0.018  2.7492  2.0137  0.2241
 5227SOL    MW420676   4.213   5.283   0.028  0.1809  0.3008  0.1082
 5228SOL     OW20677   2.762   3.486   2.348 -0.4298 -0.0025  0.0072
 5228SOL    HW220678   2.698   3.512   2.413 -0.3644  0.3905 -0.0861
 5228SOL    HW320679   2.780   3.394   2.367 -0.8816 -0.0604  0.1479
 5228SOL    MW420680   2.756   3.477   2.359  0.5127 -0.4436 -0.2421
 5229SOL     OW20681   5.993   4.295   5.585  0.2809  0.0187 -0.1061
 5229SOL    HW220682   5.939   4.351   5.529 -0.0602  0.0971  0.2988
 5229SOL    HW320683   6.003   4.344   5.667  1.3824  0.2228 -0.3457
 5229SOL    MW420684   5.987   4.309   5.588 -0.4586  0.2376  0.0700
 5230SOL     OW20685   2.068   5.947   3.121 -0.7426 -0.4044  0.7117
 5230SOL    HW220686   2.073   6.042   3.106 -1.7623 -0.4755 -0.1463
 5230SOL    HW320687   2.160   5.920   3.132 -0.4706  0.7614  1.5723
 5230SOL    MW420688   2.081   5.956   3.120  0.7223 -0.2448 -0.2361
 5231SOL     OW20689   6.075   2.073   0.456 -0.2147 -0.2811 -0.2906
 5231SOL    HW220690   6.058   2.048   0.547 -2.4825 -0.4675 -0.7062
 5231SOL    HW320691   6.019   2.148   0.441 -0.7305 -0.9461 -1.8589
 5231SOL    MW420692   6.066   2.079   0.466  0.2203 -0.2867 -0.0746
 5232SOL     OW20693   2.619   3.167   2.512 -0.2997  0.7886  0.3306
 5232SOL    HW220694   2.705   3.204   2.492  0.5641 -1.8263 -1.3549
 5232SOL    HW320695   2.586   3.221   2.584  3.1488  1.3260  1.7323
 5232SOL    MW420696   2.626   3.179   2.519  0.1273  0.0809  0.1614
 5233SOL     OW20697   3.625   0.406   2.620 -0.4491 -0.6634  0.4960
 5233SOL    HW220698   3.613   0.343   2.690 -1.0841 -0.3284  0.7029
 5233SOL    HW320699   3.610   0.356   2.540 -1.1354 -0.7420  0.6680
 5233SOL    MW420700   3.621   0.391   2.618  0.0214  0.1324  0.4262
 5234SOL     OW20701   2.446   4.322   5.956  0.2829 -0.1556 -0.2486
 5234SOL    HW220702   2.389   4.268   6.011  0.8302 -2.3637 -1.7150
 5234SOL    HW320703   2.387   4.358   5.889  0.3106 -1.1087 -0.8047
 5234SOL    MW420704   2.430   4.319   5.954 -0.0602 -0.1395  0.6757
 5235SOL     OW20705   0.735   2.133   3.201 -0.0424 -0.8787  0.0543
 5235SOL    HW220706   0.657   2.152   3.253 -0.2622  0.7222 -0.7796
 5235SOL    HW320707   0.781   2.217   3.195  1.6825 -1.7655  0.4027
 5235SOL    MW420708   0.731   2.147   3.207 -0.7557 -0.5344  0.2595
 5236SOL     OW20709   3.366   4.458   0.358 -0.2552 -0.3179 -0.2459
 5236SOL    HW220710   3.421   4.440   0.282 -1.6639  1.7305 -1.8351
 5236SOL    HW320711   3.284   4.490   0.321 -1.7919 -1.2804  2.1101
 5236SOL    MW420712   3.362   4.460   0.343  0.0731  0.0505 -0.2009
 5237SOL     OW20713   2.344   2.961   1.244  0.4186  0.4616 -0.0470
 5237SOL    HW220714   2.428   2.994   1.211  1.1372 -0.3607  0.8986
 5237SOL    HW320715   2.346   2.982   1.337  1.1669 -2.6375  0.7478
 5237SOL    MW420716   2.355   2.969   1.252  0.0254  0.7780 -0.3486
 5238SOL     OW20717   1.386   3.405   3.254 -0.8416  0.0918 -0.4010
 5238SOL    HW220718   1.327   3.378   3.325 -0.5837  0.7058  0.0553
 5238SOL    HW320719   1.412   3.323   3.213 -1.4027 -0.2404 -0.1168
 5238SOL    MW420720   1.381   3.391   3.258 -0.0781  0.0030 -0.1387
 5239SOL     OW20721   3.013   5.591   2.531  0.0347  0.0779 -0.1271
 5239SOL    HW220722   3.104   5.564   2.535 -0.0307 -0.2528 -0.9044
 5239SOL    HW320723   3.017   5.683   2.504  0.1301  0.0550 -0.1900
 5239SOL    MW420724   3.025   5.600   2.528 -0.2128  0.6024  0.0425
 5240SOL     OW20725   4.778   0.898   6.073 -0.3316 -0.2704 -0.5460
 5240SOL    HW220726   4.863   0.910   6.032  0.2932 -0.1940  0.7309
 5240SOL    HW320727   4.797   0.859   6.158 -1.5741 -0.2502 -0.2312
 5240SOL    MW420728   4.791   0.895   6.079 -0.5148 -0.3265  0.0687
 5241SOL     OW20729   2.792   5.722   2.239  0.2569 -0.8164  0.3539
 5241SOL    HW220730   2.773   5.642   2.288  0.3775 -1.6033 -0.8529
 5241SOL    HW320731   2.714   5.775   2.249 -0.3578 -1.6486  0.0899
 5241SOL    MW420732   2.780   5.718   2.247 -0.8872 -0.6377  0.5496
 5242SOL     OW20733   4.552   4.581   5.929  0.5382  0.0548  0.4269
 5242SOL    HW220734   4.513   4.632   5.858 -0.1911 -1.4780 -0.3104
 5242SOL    HW320735   4.626   4.536   5.889 -0.1481 -1.1802  0.4974
 5242SOL    MW420736   4.557   4.582   5.915  0.5760 -0.2730  0.2073
 5243SOL     OW20737   4.982   0.232   4.848 -0.0458 -0.5137 -0.1502
 5243SOL    HW220738   4.997   0.326   4.858 -1.5521 -0.3207  0.6069
 5243SOL    HW320739   4.903   0.215   4.900 -2.2973 -1.4111 -3.5237
 5243SOL    MW420740   4.974   0.242   4.856  0.0666 -0.3190 -0.5234
 5244SOL     OW20741   3.325   0.028   1.911 -0.8039  0.8013 -0.3162
 5244SOL    HW220742   3.374  -0.026   1.849 -2.4493 -0.3500 -0.6772
 5244SOL    HW320743   3.298  -0.033   1.980 -0.2380  1.7761  0.8054
 5244SOL    MW420744   3.328   0.012   1.912  0.7313  0.1002 -0.2904
 5245SOL     OW20745   5.531   3.720   2.035  0.4786  0.1983 -0.1505
 5245SOL    HW220746   5.566   3.640   2.073  0.8915 -0.4692 -1.8514
 5245SOL    HW320747   5.603   3.783   2.039  1.1125 -0.4193 -1.4073
 5245SOL    MW420748   5.545   3.718   2.041 -0.4167 -0.3106 -0.0481
 5246SOL     OW20749   4.779   4.948   0.233 -1.0830 -0.5576 -0.3042
 5246SOL    HW220750   4.832   5.011   0.184  0.6506 -1.7718 -0.1073
 5246SOL    HW320751   4.773   4.985   0.322 -1.2861 -0.0036 -0.5472
 5246SOL    MW420752   4.785   4.961   0.239  0.3061  0.2757 -0.2551
 5247SOL     OW20753   0.758   2.750   4.612 -0.0340  0.2091  0.4370
 5247SOL    HW220754   0.793   2.798   4.537 -0.7332 -0.1935 -0.1606
 5247SOL    HW320755   0.678   2.710   4.579  0.5166 -1.3518  0.9338
 5247SOL    MW420756   0.752   2.751   4.598 -0.5298  0.3548 -0.0166
 5248SOL     OW20757   5.673   3.073   4.767  0.1606  0.6214  0.2474
 5248SOL    HW220758   5.718   3.150   4.732  0.8357 -0.6132 -1.8427
 5248SOL    HW320759   5.590   3.106   4.801 -0.3869  2.0811 -2.2702
 5248SOL    MW420760   5.668   3.087   4.767  0.1611 -0.2469  0.6111
 5249SOL     OW20761   2.289   3.556   3.987  0.2128 -0.7210 -1.0289
 5249SOL    HW220762   2.268   3.532   3.897 -0.3320  0.2879 -1.1864
 5249SOL    HW320763   2.257   3.646   3.996 -1.2025 -1.3371  0.6586
 5249SOL    MW420764   2.282   3.565   3.977 -0.3056  0.1847 -0.1186
 5250SOL     OW20765   2.773   4.530   1.675 -0.0508  0.0299 -0.0483
 5250SOL    HW220766   2.777   4.625   1.658 -1.0352  0.2193  0.7393
 5250SOL    HW320767   2.716   4.496   1.606  0.5228 -0.0466 -0.4981
 5250SOL    MW420768   2.766   4.538   1.663  0.3677  0.2328  0.2951
 5251SOL     OW20769   0.228   4.517   3.863  0.1713 -0.1915  0.2454
 5251SOL    HW220770   0.265   4.429   3.862  0.6166 -0.0391  1.4758
 5251SOL    HW320771   0.140   4.506   3.898  0.3138 -0.1272  0.6316
 5251SOL    MW420772   0.221   4.504   3.867  0.3255  0.0161 -0.0372
 5252SOL     OW20773   2.157   0.916   1.538  0.0656 -0.2205  0.0051
 5252SOL    HW220774   2.186   0.978   1.470  0.7430  2.1295  2.2691
 5252SOL    HW320775   2.237   0.870   1.563 -0.0993 -0.7701 -0.4657
 5252SOL    MW420776   2.171   0.918   1.532  0.6849 -0.1503 -0.7829
 5253SOL     OW20777   6.245   3.098   1.852  0.3033 -0.4922  0.3885
 5253SOL    HW220778   6.230   3.052   1.770  0.5671 -0.2748  0.2196
 5253SOL    HW320779   6.160   3.098   1.896  0.4506 -1.7763  0.7166
 5253SOL    MW420780   6.232   3.092   1.847  0.4699 -0.1568  0.1489
 5254SOL     OW20781   5.554   4.000   5.120 -0.7853 -0.2447  0.2938
 5254SOL    HW220782   5.630   4.059   5.119 -0.6050 -0.4628 -1.6089
 5254SOL    HW320783   5.478   4.059   5.116 -0.6008 -0.0782 -1.9894
 5254SOL    MW420784   5.554   4.016   5.120 -0.3436 -0.6250 -0.0446
 5255SOL     OW20785   3.359   0.339   2.914  0.0368  0.6299  0.1980
 5255SOL    HW220786   3.417   0.291   2.854 -1.0852 -1.3378  0.6031
 5255SOL    HW320787   3.353   0.283   2.991 -0.9080  1.7085  0.9282
 5255SOL    MW420788   3.366   0.325   2.916 -0.3973  0.3165  0.0979
 5256SOL     OW20789   0.629   6.210   3.769 -0.7636 -0.0121 -0.2111
 5256SOL    HW220790   0.574   6.136   3.793 -0.6977  0.7274  2.5683
 5256SOL    HW320791   0.622   6.271   3.843 -0.2780  2.4756 -2.0604
 5256SOL    MW420792   0.621   6.209   3.782 -0.1103  0.2375 -0.4396
 5257SOL     OW20793   3.099   1.386   6.258 -0.2418 -0.1846  0.4867
 5257SOL    HW220794   3.010   1.382   6.294 -0.5955  0.5062 -0.2568
 5257SOL    HW320795   3.126   1.295   6.251 -0.5002 -0.3651  1.6542
 5257SOL    MW420796   3.091   1.374   6.262  0.5707  0.2671 -0.3157
 5258SOL     OW20797   1.276   2.982   0.648 -0.2970 -0.1446  0.1400
 5258SOL    HW220798   1.241   3.070   0.644 -1.4477 -0.5961 -0.0548
 5258SOL    HW320799   1.235   2.936   0.575  1.3916 -0.4705 -0.6463
 5258SOL    MW420800   1.266   2.987   0.638 -0.4043 -0.3579 -0.0863
 5259SOL     OW20801   5.189   1.432   1.697 -0.5965 -0.0463 -0.1648
 5259SOL    HW220802   5.173   1.523   1.721 -2.7773 -0.4313  0.0509
 5259SOL    HW320803   5.144   1.421   1.614 -0.3031 -0.9097 -0.2177
 5259SOL    MW420804   5.181   1.443   1.689  0.4315 -0.2556 -0.0147
 5260SOL     OW20805   2.844   4.997   0.750 -0.3191 -0.3215  0.4884
 5260SOL    HW220806   2.862   4.968   0.839  3.3358  1.8747  0.6706
 5260SOL    HW320807   2.807   5.085   0.760 -2.2457 -0.9901 -0.2193
 5260SOL    MW420808   2.841   5.005   0.763  0.2135 -0.0024  0.3587
 5261SOL     OW20809   1.140   4.030   4.050 -0.3344 -0.6893 -0.2703
 5261SOL    HW220810   1.053   3.991   4.065 -0.0422 -2.3275 -2.3732
 5261SOL    HW320811   1.121   4.116   4.013 -0.9845  0.6957  2.9171
 5261SOL    MW420812   1.126   4.036   4.048  0.0428 -0.0496  0.3565
 5262SOL     OW20813   1.872   2.941   1.025 -0.2779 -0.1800 -0.6934
 5262SOL    HW220814   1.802   2.875   1.020  0.6865 -1.4896  1.3508
 5262SOL    HW320815   1.933   2.905   1.090  1.1903  1.9472 -0.8075
 5262SOL    MW420816   1.871   2.927   1.033 -0.5539 -0.1263 -0.1351
 5263SOL     OW20817   5.990   5.755   5.457 -0.8333 -0.1937  0.6659
 5263SOL    HW220818   5.908   5.786   5.496 -0.4070 -0.6507  1.9686
 5263SOL    HW320819   5.986   5.659   5.465  0.0393 -0.1949  1.1936
 5263SOL    MW420820   5.978   5.746   5.463 -0.2634 -0.2386  0.0353
 5264SOL     OW20821   3.717   3.303   1.549  0.5549 -0.0872 -0.1331
 5264SOL    HW220822   3.637   3.352   1.566  1.5299  1.7274 -0.5568
 5264SOL    HW320823   3.766   3.307   1.631 -0.2157 -2.1435  0.4861
 5264SOL    MW420824   3.713   3.310   1.562  0.3297 -0.6061 -0.0729
 5265SOL     OW20825   5.842   4.535   0.675  0.4604  0.0903  0.0662
 5265SOL    HW220826   5.788   4.487   0.612 -0.2728 -1.6362  1.8955
 5265SOL    HW320827   5.900   4.588   0.621 -0.7083 -0.6371 -2.0320
 5265SOL    MW420828   5.842   4.535   0.660 -0.2466 -0.0722 -0.1757
 5266SOL     OW20829   5.477   5.686   4.113 -0.2334  0.0164  0.1486
 5266SOL    HW220830   5.394   5.643   4.093  0.2777 -0.3226 -1.3950
 5266SOL    HW320831   5.452   5.776   4.137 -0.9848  0.5893 -2.3836
 5266SOL    MW420832   5.463   5.692   4.113  0.5485  0.3945  0.0364
 5267SOL     OW20833   5.801   4.036   3.779  0.3886  0.4615 -0.1549
 5267SOL    HW220834   5.882   3.985   3.785 -0.4123 -0.7965  0.2011
 5267SOL    HW320835   5.826   4.124   3.806  2.3038  0.8655 -2.8620
 5267SOL    MW420836   5.815   4.041   3.783  0.9602 -0.1718  0.1191
 5268SOL     OW20837   6.395   5.413   2.596 -0.4351  0.3887 -0.1829
 5268SOL    HW220838   6.387   5.331   2.547 -1.6241 -0.8278  1.8902
 5268SOL    HW320839   6.448   5.390   2.672 -2.4774  0.9499  1.4971
 5268SOL    MW420840   6.401   5.399   2.600  0.0879  0.3155  0.1316
 5269SOL     OW20841   4.681   1.918   4.279  0.0232 -0.0391  0.5879
 5269SOL    HW220842   4.686   1.823   4.273  0.6720 -0.0908  1.6579
 5269SOL    HW320843   4.679   1.936   4.373 -0.1966  1.0012  0.3995
 5269SOL    MW420844   4.681   1.908   4.291 -0.0631 -0.4077 -0.5782
 5270SOL     OW20845   4.881   3.079   4.067 -0.0629 -0.5185  0.4322
 5270SOL    HW220846   4.855   3.002   4.016  0.3093  0.2958 -1.0479
 5270SOL    HW320847   4.813   3.088   4.133 -2.4505  0.2599 -1.9519
 5270SOL    MW420848   4.869   3.070   4.069 -0.2701  0.4609  0.0650
 5271SOL     OW20849   0.088   3.146   5.892  0.1430 -0.3126 -0.2102
 5271SOL    HW220850   0.139   3.066   5.909  0.8753  0.4981  1.6482
 5271SOL    HW320851   0.070   3.143   5.798  1.9215 -1.6276 -0.5633
 5271SOL    MW420852   0.092   3.135   5.882 -0.8544  0.1908  0.2432
 5272SOL     OW20853   3.739   1.291   1.855  0.5266 -0.3310 -0.1540
 5272SOL    HW220854   3.749   1.232   1.781 -0.6981 -0.4401 -0.2531
 5272SOL    HW320855   3.770   1.240   1.931 -0.7367 -1.2013 -0.2031
 5272SOL    MW420856   3.745   1.277   1.855 -0.5972 -0.2594  0.1001
 5273SOL     OW20857   2.420   3.293   6.112 -0.3685 -0.1475 -0.5178
 5273SOL    HW220858   2.371   3.235   6.170  2.8161 -0.4857  2.1007
 5273SOL    HW320859   2.413   3.379   6.152  1.8684 -0.3836  0.5171
 5273SOL    MW420860   2.413   3.296   6.125  0.0912  0.0049 -0.2757
 5274SOL     OW20861   2.311   6.212   3.919  0.1461 -0.6118  0.2024
 5274SOL    HW220862   2.340   6.137   3.971  0.0709 -0.9492 -0.2369
 5274SOL    HW320863   2.269   6.270   3.982  1.7134 -0.1375  0.8638
 5274SOL    MW420864   2.310   6.210   3.934  0.6219 -0.0810  0.6028
 5275SOL     OW20865   2.263   4.900   2.847 -0.3825  0.3223  1.0494
 5275SOL    HW220866   2.212   4.821   2.864  0.7566 -0.2727  1.8551
 5275SOL    HW320867   2.256   4.913   2.752 -0.2768 -0.9662  0.8455
 5275SOL    MW420868   2.255   4.891   2.837 -0.4807 -0.2150  0.2046
 5276SOL     OW20869   2.883   1.091   2.023 -0.1510 -0.0448  0.0476
 5276SOL    HW220870   2.807   1.147   2.006  0.5458  1.1115  0.6659
 5276SOL    HW320871   2.882   1.028   1.951  0.4805  2.2772 -2.1225
 5276SOL    MW420872   2.873   1.090   2.011 -0.1898 -0.0604  0.3162
 5277SOL     OW20873   6.162   6.340   5.401  0.7483  0.1925 -0.6029
 5277SOL    HW220874   6.251   6.344   5.437 -0.2917 -2.1566  2.7980
 5277SOL    HW320875   6.109   6.391   5.463 -0.4921  0.4300 -1.8091
 5277SOL    MW420876   6.166   6.347   5.414  1.2075  0.1149  0.9523
 5278SOL     OW20877   4.043   4.958   5.389 -0.1598  0.0422  0.4621
 5278SOL    HW220878   3.993   5.013   5.449 -0.5109 -0.6168  0.7752
 5278SOL    HW320879   4.088   5.021   5.332 -1.3218  0.6479  0.1785
 5278SOL    MW420880   4.042   4.974   5.390  0.2798  0.1221  0.3852
 5279SOL     OW20881   5.891   2.948   2.161  0.3977 -0.2430 -0.2154
 5279SOL    HW220882   5.836   2.875   2.189 -0.6519  0.3187 -0.7528
 5279SOL    HW320883   5.962   2.951   2.226 -0.3494 -0.8105  0.6452
 5279SOL    MW420884   5.893   2.939   2.173  0.5349  0.5553 -0.3289
 5280SOL     OW20885   4.507   0.818   6.029 -0.9078 -0.0403 -0.7613
 5280SOL    HW220886   4.601   0.837   6.038 -0.9738 -0.1761  0.3589
 5280SOL    HW320887   4.467   0.904   6.013 -0.6623  0.1154 -0.5464
 5280SOL    MW420888   4.514   0.832   6.028  0.1509 -0.3527  0.0209
 5281SOL     OW20889   1.501   2.212   0.388  0.1089 -0.4422  0.4733
 5281SOL    HW220890   1.561   2.259   0.446  1.4705  0.5371 -1.5948
 5281SOL    HW320891   1.490   2.271   0.313  0.6308 -2.7244 -1.5317
 5281SOL    MW420892   1.507   2.226   0.386 -0.1932  0.0278  0.4314
 5282SOL     OW20893   3.141   1.380   4.103  0.3545  0.2249  0.5972
 5282SOL    HW220894   3.082   1.386   4.179  0.5623  2.4134  0.6319
 5282SOL    HW320895   3.177   1.468   4.093  2.0998 -0.5810 -0.6658
 5282SOL    MW420896   3.138   1.392   4.112 -0.1542  0.5129 -0.6798
 5283SOL     OW20897   3.379   3.679   1.201  0.4937  0.1612  0.6645
 5283SOL    HW220898   3.293   3.701   1.237 -0.4306 -0.9217 -0.7280
 5283SOL    HW320899   3.409   3.605   1.254 -0.6064 -1.0710 -0.3716
 5283SOL    MW420900   3.372   3.672   1.213  0.2048  0.3802 -0.0737
 5284SOL     OW20901   0.761   4.074   6.292  0.0469 -0.3409  0.0936
 5284SOL    HW220902   0.675   4.104   6.321  0.4587 -0.3994  1.3993
 5284SOL    HW320903   0.817   4.152   6.296  0.2323 -0.4627 -0.0707
 5284SOL    MW420904   0.757   4.089   6.296 -0.5747  0.7753  0.3273
 5285SOL     OW20905   2.361   4.633   0.480 -0.2580 -0.0296 -0.2129
 5285SOL    HW220906   2.390   4.546   0.506 -1.4283 -0.0069  1.2841
 5285SOL    HW320907   2.440   4.674   0.443  0.2734 -1.7383 -1.1126
 5285SOL    MW420908   2.375   4.627   0.478 -0.0526  0.2229  0.2101
 5286SOL     OW20909   5.800   5.259   3.006 -0.1216  0.0596 -0.4432
 5286SOL    HW220910   5.866   5.298   3.064 -1.5125  2.0587 -0.1048
 5286SOL    HW320911   5.730   5.231   3.064 -0.0883 -1.0279 -0.8970
 5286SOL    MW420912   5.799   5.260   3.021 -0.7429 -0.1734 -0.0041
 5287SOL     OW20913   0.785   3.211   0.729 -0.2637 -0.4295 -0.4534
 5287SOL    HW220914   0.794   3.264   0.807  0.1023 -2.8681  1.2701
 5287SOL    HW320915   0.694   3.179   0.731 -0.4463 -0.0215 -1.3878
 5287SOL    MW420916   0.774   3.214   0.739  0.3713  0.2436 -0.2101
 5288SOL     OW20917   3.762   0.244   4.770  0.9947 -0.6636 -0.1272
 5288SOL    HW220918   3.847   0.253   4.813  0.7546 -0.7855  0.3727
 5288SOL    HW320919   3.708   0.196   4.832  1.0643 -2.0976 -1.1302
 5288SOL    MW420920   3.766   0.239   4.784  0.2822 -0.2656  0.0346
 5289SOL     OW20921   3.800   5.059   1.535  0.0436  0.1194  0.1083
 5289SOL    HW220922   3.737   5.075   1.465  0.6926 -0.7211 -0.6893
 5289SOL    HW320923   3.790   4.966   1.555 -1.8330  0.7520  2.8395
 5289SOL    MW420924   3.790   5.049   1.529  0.0434 -0.3003 -0.6418
 5290SOL     OW20925   4.518   4.877   4.456  0.1310 -0.1712  0.1207
 5290SOL    HW220926   4.548   4.968   4.453  0.2635 -0.2052  0.4561
 5290SOL    HW320927   4.488   4.864   4.545  2.0991 -1.0957  0.7057
 5290SOL    MW420928   4.518   4.887   4.467  0.4152  0.4897 -0.3758
 5291SOL     OW20929   5.407   4.616   2.889 -0.5355  0.7300 -0.1695
 5291SOL    HW220930   5.320   4.630   2.928 -0.7563 -0.0602 -0.3589
 5291SOL    HW320931   5.463   4.680   2.932 -1.4451  2.0361 -0.8442
 5291SOL    MW420932   5.403   4.627   2.899  0.4284  0.2321 -0.3667
 5292SOL     OW20933   2.068   5.431   4.500  1.0993  0.4346 -0.3162
 5292SOL    HW220934   2.093   5.523   4.487 -2.8332  1.4134 -2.9928
 5292SOL    HW320935   1.980   5.436   4.536 -0.5360 -2.0541 -3.4464
 5292SOL    MW420936   2.060   5.444   4.503  0.4070 -0.4869 -1.0934
 5293SOL     OW20937   5.930   0.355   1.773  0.5089  0.8978 -0.1067
 5293SOL    HW220938   5.893   0.268   1.787 -0.6431  1.3097 -0.5343
 5293SOL    HW320939   6.021   0.338   1.746 -0.1638 -0.2346 -1.8133
 5293SOL    MW420940   5.937   0.341   1.771 -0.0915 -0.2301  0.1069
 5294SOL     OW20941   5.666   0.367   3.978  0.3569  0.0558  0.1785
 5294SOL    HW220942   5.636   0.348   3.889  1.0450 -0.7472  0.0982
 5294SOL    HW320943   5.702   0.456   3.973  1.5066 -0.4173 -0.6645
 5294SOL    MW420944   5.667   0.376   3.965 -0.3136  0.1040  0.1743
 5295SOL     OW20945   0.215   6.277   1.260  0.1248 -0.3384  0.0942
 5295SOL    HW220946   0.160   6.314   1.329  2.8743  1.3535  1.5707
 5295SOL    HW320947   0.252   6.198   1.299 -0.9892 -1.3301 -0.7940
 5295SOL    MW420948   0.213   6.271   1.274 -0.3512  0.4996 -0.1816
 5296SOL     OW20949   3.047   2.959   1.291 -0.0103 -0.0627  0.4955
 5296SOL    HW220950   3.067   2.984   1.201 -0.2722 -0.2163  0.3923
 5296SOL    HW320951   3.071   2.867   1.296  0.0028 -0.0545  0.5832
 5296SOL    MW420952   3.053   2.950   1.280  0.2799 -0.1902 -1.1742
 5297SOL     OW20953   3.016   1.110   1.689  0.3484  0.1737 -0.4389
 5297SOL    HW220954   3.101   1.150   1.670  0.4109  0.0704 -0.3795
 5297SOL    HW320955   2.954   1.183   1.688  0.4081  0.2248 -0.6724
 5297SOL    MW420956   3.019   1.125   1.686 -0.3840  0.2725  0.9545
 5298SOL     OW20957   0.563   2.948   1.717  0.7359 -0.3430 -0.0906
 5298SOL    HW220958   0.606   3.026   1.682  1.6709  0.1386  2.0043
 5298SOL    HW320959   0.634   2.896   1.754 -0.2159 -0.6458  1.3613
 5298SOL    MW420960   0.578   2.951   1.717  0.5075  0.4142  0.2408
 5299SOL     OW20961   1.511   3.427   5.090 -0.3512 -0.0612  0.3965
 5299SOL    HW220962   1.577   3.496   5.084 -0.5130  0.1334  0.8312
 5299SOL    HW320963   1.557   3.348   5.061 -0.0227  0.1365  0.3691
 5299SOL    MW420964   1.526   3.426   5.085 -0.0605  0.5416  1.0510
 5300SOL     OW20965   3.504   3.180   1.815  0.5260  0.6356 -0.0090
 5300SOL    HW220966   3.441   3.166   1.885 -0.3603  1.4626 -0.6042
 5300SOL    HW320967   3.557   3.254   1.844  2.7077 -1.3565  1.4481
 5300SOL    MW420968   3.503   3.188   1.828  0.1962 -0.0242 -0.2515
 5301SOL     OW20969   3.539   5.187   4.713 -0.7254  0.1560  0.7887
 5301SOL    HW220970   3.611   5.201   4.774 -0.1240 -0.3953  0.2173
 5301SOL    HW320971   3.573   5.218   4.628 -0.5730 -1.5603  0.1896
 5301SOL    MW420972   3.553   5.193   4.710  0.5118  0.8748  0.1709
 5302SOL     OW20973   1.513   4.896   0.345 -0.2122  0.1780  0.3366
 5302SOL    HW220974   1.506   4.938   0.431  0.2671  1.2856 -0.1406
 5302SOL    HW320975   1.500   4.968   0.283  0.1380 -0.4791 -0.5133
 5302SOL    MW420976   1.510   4.911   0.348 -0.3475 -0.1659 -0.4182
 5303SOL     OW20977   1.452   2.631   0.393  0.1446 -0.4684  0.2337
 5303SOL    HW220978   1.524   2.693   0.401  0.6103 -1.1519  1.8680
 5303SOL    HW320979   1.393   2.669   0.328  0.8770  1.1989  0.5155
 5303SOL    MW420980   1.453   2.644   0.386 -0.5920 -0.2264 -0.2440
 5304SOL     OW20981   0.584   4.416   5.707  0.0787  0.4380  0.0914
 5304SOL    HW220982   0.521   4.475   5.748  0.3532  2.0811 -1.7040
 5304SOL    HW320983   0.589   4.445   5.616  2.6136 -0.3248 -0.1062
 5304SOL    MW420984   0.577   4.427   5.701 -0.5932 -0.5282 -0.0260
 5305SOL     OW20985   1.974   4.575   5.787 -0.6286  0.7412  0.6459
 5305SOL    HW220986   1.898   4.540   5.741 -1.2103  2.1757  0.4919
 5305SOL    HW320987   2.012   4.639   5.728  0.0986  0.7939  1.1501
 5305SOL    MW420988   1.969   4.579   5.773  0.3575 -0.0461 -0.0282
 5306SOL     OW20989   1.461   5.871   4.971 -0.3657  0.0406 -0.2787
 5306SOL    HW220990   1.544   5.913   4.945 -0.8886  0.8579 -0.7002
 5306SOL    HW320991   1.460   5.789   4.922  0.2727 -0.0500 -0.1477
 5306SOL    MW420992   1.472   5.866   4.961 -0.3376 -0.2151  0.2984
 5307SOL     OW20993   0.362   3.805   3.099  0.0373 -0.1180  0.7633
 5307SOL    HW220994   0.304   3.876   3.128 -0.1092  0.5619 -1.0606
 5307SOL    HW320995   0.449   3.843   3.104 -0.0763  0.3902 -0.6328
 5307SOL    MW420996   0.366   3.820   3.104  0.7114 -0.1588  0.0224
 5308SOL     OW20997   1.902   6.412   3.712 -0.0095  0.8273  0.2402
 5308SOL    HW220998   1.995   6.394   3.694  0.9236  2.3176  2.9604
 5308SOL    HW320999   1.878   6.478   3.647  0.0015 -1.3158 -2.0945
 5308SOL    MW421000   1.911   6.419   3.701  0.2146  0.0772  0.2803
 5309SOL     OW21001   4.609   4.075   5.565 -0.3959 -0.2808 -0.0213
 5309SOL    HW221002   4.521   4.074   5.602 -0.7842 -0.1739 -0.9411
 5309SOL    HW321003   4.600   4.041   5.477  0.7254 -1.6920  0.3740
 5309SOL    MW421004   4.596   4.071   5.558 -0.1493  0.2278 -0.2429
 5310SOL     OW21005   6.294   6.342   0.309  0.4159  0.2120 -0.0291
 5310SOL    HW221006   6.350   6.358   0.233 -2.5213  1.1549 -2.1864
 5310SOL    HW321007   6.305   6.419   0.364  1.1946  0.3826 -0.4093
 5310SOL    MW421008   6.303   6.354   0.306 -0.1740  0.0819  0.2066
 5311SOL     OW21009   4.349   2.251   5.505 -0.5686  0.5281  0.4051
 5311SOL    HW221010   4.363   2.332   5.457 -1.3998  1.0535  1.0445
 5311SOL    HW321011   4.275   2.209   5.462  0.3054 -0.2734 -0.3874
 5311SOL    MW421012   4.341   2.256   5.493  0.1846 -0.4114  0.4340
 5312SOL     OW21013   2.518   2.823   3.575  0.4288  0.5233  0.2830
 5312SOL    HW221014   2.478   2.750   3.527  2.0630  0.2070 -0.6744
 5312SOL    HW321015   2.487   2.901   3.530  2.0542  0.2276 -1.5030
 5312SOL    MW421016   2.509   2.824   3.563  0.1954 -0.0806  0.6587
 5313SOL     OW21017   2.561   2.074   0.468  0.0937 -0.1256  0.1834
 5313SOL    HW221018   2.476   2.113   0.448  0.3637  1.4481  1.8473
 5313SOL    HW321019   2.616   2.148   0.495  2.0644 -1.0725 -0.9498
 5313SOL    MW421020   2.557   2.089   0.469  0.4099 -0.0532  0.0439
 5314SOL     OW21021   5.249   2.272   1.415 -0.2834  0.0062  0.3627
 5314SOL    HW221022   5.182   2.203   1.418 -0.9264  0.6171  0.5080
 5314SOL    HW321023   5.319   2.235   1.362  0.5008 -1.7186  2.4697
 5314SOL    MW421024   5.249   2.258   1.409  0.0438  0.5775  0.1698
 5315SOL     OW21025   1.059   0.285   2.607  0.2670  0.1364 -0.0912
 5315SOL    HW221026   1.148   0.288   2.641  0.3449 -0.8925 -0.1780
 5315SOL    HW321027   1.023   0.203   2.641 -0.2848  0.0170 -0.9480
 5315SOL    MW421028   1.066   0.275   2.616  0.7189  0.2738  0.1823
 5316SOL     OW21029   6.002   5.403   0.376 -0.3527 -0.1696  0.6653
 5316SOL    HW221030   5.932   5.384   0.312 -0.4041 -0.5820  0.8413
 5316SOL    HW321031   5.964   5.380   0.460  0.0746 -0.6177  0.7412
 5316SOL    MW421032   5.987   5.397   0.379  0.5802  0.4542 -0.3100
 5317SOL     OW21033   1.294   5.885   5.580  0.0135  0.2428 -0.2228
 5317SOL    HW221034   1.362   5.824   5.607  0.5615  0.2585 -1.5023
 5317SOL    HW321035   1.326   5.923   5.498 -1.9303 -0.4396 -1.3790
 5317SOL    MW421036   1.307   5.882   5.573  0.1573 -0.1221  0.5636
 5318SOL     OW21037   2.372   0.664   3.137 -0.2860 -0.2866  0.6281
 5318SOL    HW221038   2.344   0.619   3.217 -1.5982  1.4400  1.2215
 5318SOL    HW321039   2.390   0.754   3.166  0.5211  0.0304 -0.7968
 5318SOL    MW421040   2.371   0.670   3.152 -0.3314  0.5732 -0.0151
 5319SOL     OW21041   3.706   4.584   4.002 -0.0267 -0.4454 -0.1037
 5319SOL    HW221042   3.788   4.535   3.992  0.9943  1.5263 -2.0937
 5319SOL    HW321043   3.732   4.664   4.048 -1.2248 -0.6579  0.9712
 5319SOL    MW421044   3.721   4.588   4.007  0.3996 -0.1005  0.1024
 5320SOL     OW21045   2.461   1.825   6.320 -0.2645 -0.4828 -0.5172
 5320SOL    HW221046   2.375   1.866   6.304  0.2784  0.2349 -1.7389
 5320SOL    HW321047   2.524   1.895   6.305  0.6522 -1.5459 -1.9454
 5320SOL    MW421048   2.458   1.840   6.316 -0.1559 -0.2196 -0.0208
 5321SOL     OW21049   0.325   0.877   5.537  0.0785  0.4552  0.4129
 5321SOL    HW221050   0.307   0.790   5.500 -0.7043  0.9630 -0.4268
 5321SOL    HW321051   0.347   0.931   5.462  0.3200  1.0514  0.9083
 5321SOL    MW421052   0.325   0.872   5.523  0.6102 -0.5230  0.4848
 5322SOL     OW21053   1.228   2.270   4.523  0.2269  0.1150  0.3090
 5322SOL    HW221054   1.164   2.203   4.497  0.7611 -0.5216  0.6165
 5322SOL    HW321055   1.180   2.323   4.588 -0.6582  0.8982 -0.9444
 5322SOL    MW421056   1.213   2.268   4.528 -0.2671 -0.6637 -0.7219
 5323SOL     OW21057   5.677   1.799   3.690  0.6786 -0.0103 -0.0499
 5323SOL    HW221058   5.661   1.710   3.659  0.0195  0.1862 -0.2785
 5323SOL    HW321059   5.736   1.788   3.765 -0.0838 -0.7108  0.4642
 5323SOL    MW421060   5.683   1.786   3.696 -0.4318  0.1801  0.0888
 5324SOL     OW21061   2.263   5.882   6.344  0.4598  0.0302 -0.2375
 5324SOL    HW221062   2.343   5.887   6.292  0.7193 -0.4061  0.1010
 5324SOL    HW321063   2.269   5.796   6.387  0.9563  0.9366  1.6104
 5324SOL    MW421064   2.274   5.871   6.343  0.1955  0.6605 -0.6580
 5325SOL     OW21065   2.456   5.787   0.333 -0.6321 -0.2037 -0.9570
 5325SOL    HW221066   2.493   5.720   0.276 -1.5220 -1.5468 -0.0055
 5325SOL    HW321067   2.436   5.741   0.415 -3.6464  0.5736 -1.1239
 5325SOL    MW421068   2.458   5.772   0.336  0.7285  0.8386  0.0576
 5326SOL     OW21069   4.374   4.552   4.287  0.7074 -0.2334 -0.0581
 5326SOL    HW221070   4.344   4.503   4.363 -1.7206 -1.0404 -1.4397
 5326SOL    HW321071   4.323   4.633   4.288  0.8049 -0.1531 -0.7155
 5326SOL    MW421072   4.363   4.556   4.297 -0.1390 -0.0318  0.1047
 5327SOL     OW21073   4.756   2.600   2.138  0.2307 -0.5105  0.1423
 5327SOL    HW221074   4.768   2.632   2.049  2.0630 -0.1054  0.5006
 5327SOL    HW321075   4.803   2.517   2.141 -2.3720 -2.1197 -0.0595
 5327SOL    MW421076   4.764   2.593   2.127  0.0996  0.0212  0.1986
 5328SOL     OW21077   4.564   0.549   4.210 -0.6801  0.0813  0.9517
 5328SOL    HW221078   4.470   0.549   4.197 -0.6069  1.5942  0.1157
 5328SOL    HW321079   4.586   0.459   4.234 -2.0636 -0.7562 -0.7484
 5328SOL    MW421080   4.555   0.537   4.212 -0.3707 -0.1581 -0.2474
 5329SOL     OW21081   6.380   3.667   1.739 -0.2324  0.3586  0.3191
 5329SOL    HW221082   6.454   3.628   1.693 -1.3636 -1.3454 -0.1757
 5329SOL    HW321083   6.311   3.600   1.733 -1.9847  2.0794  0.2862
 5329SOL    MW421084   6.380   3.653   1.732 -0.4496 -0.3769  0.0591
 5330SOL     OW21085   5.966   0.586   1.001 -0.0172  0.0894  0.4782
 5330SOL    HW221086   5.875   0.614   0.998 -0.6021 -1.7253  0.2347
 5330SOL    HW321087   5.981   0.544   0.916  0.9598  0.1196  0.6210
 5330SOL    MW421088   5.956   0.584   0.989 -0.2277  0.0605 -0.0726
 5331SOL     OW21089   4.051   4.059   1.513 -0.7185 -0.0932  0.2765
 5331SOL    HW221090   4.044   4.065   1.418  0.3640 -1.8745  0.0364
 5331SOL    HW321091   4.145   4.053   1.530 -0.7452  2.2791  1.6610
 5331SOL    MW421092   4.062   4.059   1.503 -0.3919  0.1072 -0.2171
 5332SOL     OW21093   3.003   5.358   1.260  0.0178 -0.1284  0.7127
 5332SOL    HW221094   3.020   5.308   1.181  2.6438 -0.8958  1.6675
 5332SOL    HW321095   2.911   5.342   1.279 -0.2389 -1.2723 -1.2518
 5332SOL    MW421096   2.993   5.350   1.252  0.7282  0.0732  0.2671
 5333SOL     OW21097   3.601   1.572   3.380 -0.1172 -0.0347 -0.2136
 5333SOL    HW221098   3.574   1.497   3.326 -0.2958 -1.1846  1.4028
 5333SOL    HW321099   3.691   1.591   3.351 -0.1019 -0.8114 -0.7110
 5333SOL    MW421100   3.609   1.565   3.369 -0.5908 -0.2029 -0.4788
 5334SOL     OW21101   2.808   5.875   6.258  0.0024  0.4638  0.7450
 5334SOL    HW221102   2.717   5.875   6.229  0.1275  1.6915  0.2928
 5334SOL    HW321103   2.806   5.831   6.343 -0.8666 -0.2929  0.3461
 5334SOL    MW421104   2.796   5.869   6.266  0.0870  0.4034  0.5259
 5335SOL     OW21105   2.264   2.180   1.337 -0.8539  0.1640 -0.3586
 5335SOL    HW221106   2.279   2.199   1.430 -2.8275 -0.5822  0.1727
 5335SOL    HW321107   2.190   2.120   1.337 -2.2182  1.7001 -2.4884
 5335SOL    MW421108   2.256   2.175   1.349  0.3895 -0.0966  0.0946
 5336SOL     OW21109   4.274   3.616   5.128  0.0762  1.0883  0.1891
 5336SOL    HW221110   4.356   3.663   5.114  0.5390  0.2028 -0.1865
 5336SOL    HW321111   4.206   3.681   5.113  0.6829  1.4611 -1.0642
 5336SOL    MW421112   4.276   3.631   5.124 -0.2933 -0.2446  0.3974
 5337SOL     OW21113   0.593   3.596   2.490 -0.6300 -0.2967 -0.0358
 5337SOL    HW221114   0.552   3.510   2.481  1.1664 -1.1230 -0.8536
 5337SOL    HW321115   0.617   3.601   2.583  1.7655 -1.9809 -0.4565
 5337SOL    MW421116   0.591   3.585   2.501 -0.3578 -0.0190 -0.2483
 5338SOL     OW21117   4.763   4.179   0.060 -0.2263  0.4602  0.1363
 5338SOL    HW221118   4.857   4.188   0.042 -0.0572  0.1127  0.7877
 5338SOL    HW321119   4.724   4.257   0.022  0.6251  1.7791  1.8285
 5338SOL    MW421120   4.770   4.191   0.053  0.3886  0.0582 -0.6716
 5339SOL     OW21121   1.429   0.259   0.294 -0.2025 -0.0918 -0.3482
 5339SOL    HW221122   1.361   0.199   0.323  0.8139 -0.6825  0.9046
 5339SOL    HW321123   1.485   0.272   0.371  0.0635  1.8365 -0.8079
 5339SOL    MW421124   1.428   0.253   0.308  0.2247 -0.0493 -0.2962
 5340SOL     OW21125   0.088   0.501   2.598 -0.2479  0.5099  0.2732
 5340SOL    HW221126   0.043   0.564   2.543  0.2213  2.5038  2.0484
 5340SOL    HW321127   0.148   0.553   2.651  0.3020 -1.4415  1.6965
 5340SOL    MW421128   0.090   0.516   2.598 -0.1480  1.1477 -0.1564
 5341SOL     OW21129   0.415   3.194   3.101 -0.3066 -0.3415  0.1460
 5341SOL    HW221130   0.444   3.140   3.028 -1.5777 -0.2453 -0.4619
 5341SOL    HW321131   0.489   3.197   3.161  0.1199 -1.9386 -0.2780
 5341SOL    MW421132   0.428   3.188   3.100 -0.0113  0.2156 -0.2030
 5342SOL     OW21133   5.151   0.911   1.105  0.4977  0.0556  0.3877
 5342SOL    HW221134   5.095   0.860   1.163 -0.1564 -0.6703 -0.8280
 5342SOL    HW321135   5.122   1.002   1.117  1.1124  0.0719  1.9587
 5342SOL    MW421136   5.139   0.916   1.114 -0.6318 -0.3248  0.4256
 5343SOL     OW21137   0.637   2.175   0.069 -0.3592  0.2231  0.0469
 5343SOL    HW221138   0.579   2.115   0.115  2.6801 -2.2038  1.0638
 5343SOL    HW321139   0.614   2.262   0.104 -0.5481 -1.1002  3.6513
 5343SOL    MW421140   0.626   2.179   0.080 -0.3063 -0.2909  0.4892
 5344SOL     OW21141   4.915   6.091   1.442 -0.3965  1.1205  1.0478
 5344SOL    HW221142   4.912   6.186   1.447 -1.6329  1.0459  2.2210
 5344SOL    HW321143   4.834   6.061   1.485 -1.0442 -0.4171 -1.0860
 5344SOL    MW421144   4.904   6.099   1.449  0.1057  0.1491 -0.1289
 5345SOL     OW21145   5.732   3.212   3.925  0.0620 -0.0794 -0.5812
 5345SOL    HW221146   5.722   3.126   3.966  1.1643  0.5183  1.0348
 5345SOL    HW321147   5.720   3.274   3.996  3.4527  0.9796 -0.7705
 5345SOL    MW421148   5.729   3.209   3.939 -0.4401 -0.1812  0.0739
 5346SOL     OW21149   1.620   4.460   3.724 -0.1645 -0.6258  0.0549
 5346SOL    HW221150   1.604   4.454   3.819 -2.3326  0.6622 -0.1423
 5346SOL    HW321151   1.645   4.372   3.698 -0.4620 -1.2340  1.6921
 5346SOL    MW421152   1.621   4.448   3.733 -0.0590 -0.1041 -0.9546
 5347SOL     OW21153   3.907   4.721   4.338 -0.9388  0.1008 -0.3397
 5347SOL    HW221154   3.841   4.755   4.277  0.4466  0.3525 -1.7641
 5347SOL    HW321155   3.858   4.667   4.399 -3.0150  3.1812  0.9369
 5347SOL    MW421156   3.892   4.719   4.338  0.0855 -0.1116  0.6118
 5348SOL     OW21157   3.763   2.649   0.452  0.2765 -0.4074  0.6242
 5348SOL    HW221158   3.806   2.563   0.446  1.2800 -0.0666  2.2894
 5348SOL    HW321159   3.734   2.667   0.363  1.9517 -1.5152 -0.2102
 5348SOL    MW421160   3.765   2.640   0.439 -0.1970 -0.8383  0.0866
 5349SOL     OW21161   6.192   2.479   3.032  1.2893  0.1545  0.7669
 5349SOL    HW221162   6.204   2.574   3.038  1.9888  0.0901  0.5662
 5349SOL    HW321163   6.223   2.457   2.944 -1.6817  0.1137 -0.3608
 5349SOL    MW421164   6.198   2.489   3.021  0.1272  0.0180 -0.0784
 5350SOL     OW21165   4.602   0.782   1.592  0.2828  0.1364  0.6385
 5350SOL    HW221166   4.576   0.872   1.572 -1.8941 -0.1962  1.7260
 5350SOL    HW321167   4.598   0.776   1.687 -2.3973 -1.8036  0.5218
 5350SOL    MW421168   4.598   0.793   1.602 -0.1038  0.0049 -0.2198
 5351SOL     OW21169   3.256   2.520   1.242  0.0427 -0.0681  0.1634
 5351SOL    HW221170   3.228   2.434   1.211 -2.5015  0.9105 -0.4852
 5351SOL    HW321171   3.298   2.561   1.166  0.6219 -0.4522  0.2701
 5351SOL    MW421172   3.258   2.514   1.228 -0.2977  0.1029  0.8194
 5352SOL     OW21173   2.269   3.824   2.833 -0.7062 -0.7038 -0.1740
 5352SOL    HW221174   2.191   3.862   2.792  0.2864  1.8008  0.1146
 5352SOL    HW321175   2.237   3.788   2.916 -1.5188  0.6113  0.1135
 5352SOL    MW421176   2.255   3.824   2.838  0.2294 -0.5080 -0.1882
 5353SOL     OW21177   5.885   1.961   3.031  0.3033  0.3287 -0.2114
 5353SOL    HW221178   5.880   1.895   3.099 -3.0188  1.7723  1.1764
 5353SOL    HW321179   5.879   1.912   2.949  2.4371 -1.2920  0.5064
 5353SOL    MW421180   5.883   1.946   3.029 -0.4099 -0.3521 -0.2844
 5354SOL     OW21181   2.365   4.557   3.249 -0.6865  0.6010 -0.1534
 5354SOL    HW221182   2.316   4.478   3.226 -2.0014  0.9656  1.2084
 5354SOL    HW321183   2.423   4.529   3.319 -1.3881  0.8821  0.5587
 5354SOL    MW421184   2.366   4.543   3.255  0.2383 -0.0066 -0.1384
 5355SOL     OW21185   1.054   6.090   5.045  0.1482 -0.6918  0.1659
 5355SOL    HW221186   1.044   6.041   5.126 -0.4015 -0.1009  0.4595
 5355SOL    HW321187   1.038   6.026   4.976 -0.3227 -0.9836  0.5392
 5355SOL    MW421188   1.051   6.075   5.047  0.0735  0.4333 -0.1140
 5356SOL     OW21189   0.647   3.542   3.027  0.1425  0.5602  0.3440
 5356SOL    HW221190   0.580   3.546   3.094  0.2598  1.6630  0.4184
 5356SOL    HW321191   0.718   3.598   3.060  0.7625  0.0464 -0.0855
 5356SOL    MW421192   0.648   3.550   3.040  0.3168  0.3500 -0.2040
 5357SOL     OW21193   0.659   4.824   1.508 -0.0457  0.0274  0.3078
 5357SOL    HW221194   0.662   4.739   1.466 -1.0460 -0.0080  0.2762
 5357SOL    HW321195   0.635   4.805   1.599  0.0249  0.2536  0.3754
 5357SOL    MW421196   0.656   4.810   1.515  0.3807 -0.4474  0.2522
 5358SOL     OW21197   1.887   0.150   5.250 -0.6554 -0.1833  0.0008
 5358SOL    HW221198   1.799   0.176   5.275 -0.3238  0.6223  0.3623
 5358SOL    HW321199   1.929   0.232   5.221 -0.4503 -0.7730 -1.4647
 5358SOL    MW421200   1.881   0.164   5.249  0.1482  0.4062  0.4663
 5359SOL     OW21201   4.247   3.371   5.296  0.3214  0.6397  0.7753
 5359SOL    HW221202   4.252   3.453   5.248 -1.1594  0.8712  0.9674
 5359SOL    HW321203   4.179   3.386   5.362 -0.2109 -0.8350  0.5950
 5359SOL    MW421204   4.238   3.384   5.298  0.2871  0.7314  0.1982
 5360SOL     OW21205   3.856   2.754   3.355 -0.7877  0.3165  0.1014
 5360SOL    HW221206   3.824   2.681   3.303 -0.0318  0.4113 -0.5199
 5360SOL    HW321207   3.884   2.819   3.290 -0.0057  0.5134  0.6192
 5360SOL    MW421208   3.856   2.753   3.340 -0.2190 -0.2144  0.2023
 5361SOL     OW21209   3.757   5.010   2.178  0.1026 -0.0389 -0.1262
 5361SOL    HW221210   3.830   4.997   2.117  0.3347 -1.2414  0.3822
 5361SOL    HW321211   3.717   4.924   2.187 -0.7143  0.3832  0.4554
 5361SOL    MW421212   3.761   4.997   2.172 -0.1189  0.4362  0.5202
 5362SOL     OW21213   3.883   4.048   2.211  0.7373  0.1310  0.2929
 5362SOL    HW221214   3.793   4.081   2.207  0.9378  0.6756  0.1756
 5362SOL    HW321215   3.890   4.007   2.297 -0.1168 -1.3968 -0.3277
 5362SOL    MW421216   3.872   4.047   2.222 -0.0949 -0.4652  0.0200
 5363SOL     OW21217   4.250   0.362   3.192 -0.2076  0.1188  0.2776
 5363SOL    HW221218   4.235   0.408   3.274 -2.6354 -0.1775  0.0524
 5363SOL    HW321219   4.298   0.283   3.218  2.4249  1.7811  0.8735
 5363SOL    MW421220   4.255   0.357   3.206  0.3334  0.5205 -0.3614
 5364SOL     OW21221   0.501   2.137   6.254  0.3132  0.4813  0.0891
 5364SOL    HW221222   0.416   2.180   6.254  0.5088  0.8724  0.0166
 5364SOL    HW321223   0.534   2.147   6.343 -1.5068 -3.3024  1.4007
 5364SOL    MW421224   0.494   2.144   6.265  0.0168 -0.5581 -0.2321
 5365SOL     OW21225   5.769   0.484   0.145  0.2308  0.2727  0.1056
 5365SOL    HW221226   5.688   0.512   0.101  0.7356  2.3430  0.3655
 5365SOL    HW321227   5.789   0.556   0.205  2.6361  0.1328 -0.4318
 5365SOL    MW421228   5.761   0.498   0.147 -0.3306  0.3728 -0.2791
 5366SOL     OW21229   4.133   2.791   0.842 -0.5555  0.3172  0.4443
 5366SOL    HW221230   4.143   2.885   0.832 -0.1439  0.2568  0.2529
 5366SOL    HW321231   4.050   2.780   0.889  0.1423  0.8465  1.8491
 5366SOL    MW421232   4.123   2.802   0.847  0.2864  0.2360 -0.5251
 5367SOL     OW21233   4.609   3.132   2.922  0.2653  0.0428 -0.4025
 5367SOL    HW221234   4.594   3.055   2.978 -0.4270  0.4949  0.0627
 5367SOL    HW321235   4.704   3.144   2.922  0.3115 -0.2320  0.3397
 5367SOL    MW421236   4.620   3.123   2.930  0.3442 -0.1649  0.5901
 5368SOL     OW21237   4.810   2.369   4.710  0.1145 -0.1865 -0.5478
 5368SOL    HW221238   4.879   2.305   4.689  0.0807  0.0821 -1.5372
 5368SOL    HW321239   4.729   2.318   4.706  0.3252 -0.8368  2.0527
 5368SOL    MW421240   4.809   2.354   4.706 -0.4205 -0.3350  0.8507
 5369SOL     OW21241   3.674   1.990   6.367  0.2121  0.3132 -0.2327
 5369SOL    HW221242   3.610   1.959   6.432  1.7051 -0.0930  1.1075
 5369SOL    HW321243   3.722   2.060   6.411 -0.0465  1.4244 -1.6351
 5369SOL    MW421244   3.672   1.995   6.381 -0.3052 -0.3366 -0.5081
 5370SOL     OW21245   1.669   5.295   4.745  0.4234  0.0913  0.6540
 5370SOL    HW221246   1.596   5.319   4.688  1.6083  1.9260 -0.1835
 5370SOL    HW321247   1.736   5.361   4.727  1.6886 -0.5980  2.5691
 5370SOL    MW421248   1.668   5.307   4.735  0.6826  0.6267  0.1370
 5371SOL     OW21249   4.775   0.237   0.156  0.1624 -0.3524  0.1176
 5371SOL    HW221250   4.745   0.293   0.229  0.9457  1.1163 -0.6412
 5371SOL    HW321251   4.695   0.218   0.107 -0.6952 -2.8184  2.2258
 5371SOL    MW421252   4.761   0.242   0.159 -0.6072  0.4869  0.6203
 5372SOL     OW21253   4.591   0.617   5.280  1.0718  0.0953  0.3625
 5372SOL    HW221254   4.497   0.620   5.295  0.6529 -0.7448 -1.7501
 5372SOL    HW321255   4.624   0.558   5.348  0.1247  0.6213  1.2962
 5372SOL    MW421256   4.583   0.609   5.291  0.4045 -0.4130 -0.4215
 5373SOL     OW21257   5.876   0.501   2.497 -0.3222  0.1223  0.7012
 5373SOL    HW221258   5.900   0.428   2.555  0.8951  0.4384  0.6090
 5373SOL    HW321259   5.949   0.562   2.503 -0.4834  0.4745 -0.6617
 5373SOL    MW421260   5.889   0.499   2.506  0.1178 -0.6227  0.1791
 5374SOL     OW21261   5.370   3.689   5.133  0.1666 -0.0978 -0.1888
 5374SOL    HW221262   5.437   3.742   5.090 -0.4237  2.1553  1.4459
 5374SOL    HW321263   5.288   3.730   5.109 -0.5131 -1.5999 -0.5473
 5374SOL    MW421264   5.368   3.701   5.124  0.2772 -0.3404  0.0112
 5375SOL     OW21265   2.522   1.967   3.193  0.1310 -0.8256  0.3695
 5375SOL    HW221266   2.513   1.876   3.163 -1.6109 -0.6765  0.3171
 5375SOL    HW321267   2.480   1.968   3.279  1.8910 -0.4630  1.2687
 5375SOL    MW421268   2.515   1.955   3.200 -0.1948  0.3387  0.3388
 5376SOL     OW21269   3.900   0.484   5.723  0.0061  0.2319 -0.1275
 5376SOL    HW221270   3.946   0.406   5.690 -0.7844 -0.1129 -0.4366
 5376SOL    HW321271   3.830   0.500   5.659 -1.3917 -0.2815  1.2030
 5376SOL    MW421272   3.897   0.476   5.710  0.0868 -0.1039 -0.3091
 5377SOL     OW21273   2.608   3.988   6.213 -0.4042  0.2470 -0.0061
 5377SOL    HW221274   2.544   4.015   6.279  0.3863  1.1819  0.3963
 5377SOL    HW321275   2.562   3.922   6.161 -1.6259  0.7531  0.3948
 5377SOL    MW421276   2.594   3.983   6.215  0.2513 -1.0078  0.8164
 5378SOL     OW21277   6.417   5.994   5.676 -0.0486 -0.0759 -0.0549
 5378SOL    HW221278   6.370   5.993   5.759 -0.2853 -0.9026 -0.1906
 5378SOL    HW321279   6.352   5.970   5.610  0.5888 -1.4163 -0.2232
 5378SOL    MW421280   6.402   5.991   5.678 -0.2128  0.5067 -0.4331
 5379SOL     OW21281   4.609   3.712   1.435 -0.4317 -0.1327 -0.3531
 5379SOL    HW221282   4.680   3.763   1.396  0.1697 -0.8024 -0.1514
 5379SOL    HW321283   4.624   3.622   1.406 -1.4486 -0.2240 -0.6576
 5379SOL    MW421284   4.620   3.707   1.426 -0.1348  0.1336 -0.1366
 5380SOL     OW21285   4.610   1.416   5.791  0.4197  0.0047  0.5093
 5380SOL    HW221286   4.537   1.376   5.744  0.8588 -0.1406 -0.0653
 5380SOL    HW321287   4.641   1.348   5.851  0.2021  0.0051  0.6230
 5380SOL    MW421288   4.604   1.402   5.792  0.4488  0.0927  0.4296
 5381SOL     OW21289   6.319   0.950   2.579  0.2747  0.3144  0.1978
 5381SOL    HW221290   6.246   1.004   2.549  1.0469  0.2929 -1.9020
 5381SOL    HW321291   6.384   1.012   2.612  0.5112  0.5911 -0.7443
 5381SOL    MW421292   6.318   0.965   2.579 -0.3336 -0.3157  0.3916
 5382SOL     OW21293   2.301   5.634   0.002 -0.3154  0.2700  0.5196
 5382SOL    HW221294   2.211   5.606   0.017 -0.3979  0.6006  0.6607
 5382SOL    HW321295   2.320   5.611  -0.089  0.1060 -1.5465  1.0331
 5382SOL    MW421296   2.292   5.627  -0.008 -0.7168 -0.4681  0.4926
 5383SOL     OW21297   2.066   3.033   4.624  0.1166 -0.1183  0.1970
 5383SOL    HW221298   2.117   3.086   4.562 -0.4327  1.1786  0.8295
 5383SOL    HW321299   2.111   2.949   4.625  2.0125  0.8311  0.3944
 5383SOL    MW421300   2.079   3.029   4.616 -0.2039 -0.4737  0.2591
 5384SOL     OW21301   4.599   4.107   3.926  0.3442 -0.3643  0.2144
 5384SOL    HW221302   4.580   4.105   4.020  1.3950 -0.1061  0.4419
 5384SOL    HW321303   4.676   4.163   3.919  1.1847 -1.6058 -0.6460
 5384SOL    MW421304   4.607   4.114   3.938 -0.5832 -0.1943  0.2709
 5385SOL     OW21305   3.338   5.021   2.058  0.2891 -0.8243 -0.4988
 5385SOL    HW221306   3.310   4.929   2.055 -1.5176 -0.3719  0.6884
 5385SOL    HW321307   3.312   5.051   2.145  2.1434  0.4605 -0.3285
 5385SOL    MW421308   3.331   5.013   2.069  0.1961 -0.4554 -0.5889
 5386SOL     OW21309   2.069   3.331   4.742  0.4456  0.7759  0.6876
 5386SOL    HW221310   2.078   3.242   4.708  2.2366  1.4199 -0.6705
 5386SOL    HW321311   2.036   3.382   4.669 -1.1072  1.1712  1.6156
 5386SOL    MW421312   2.066   3.326   4.728 -0.0392  0.0906  0.0476
 5387SOL     OW21313   2.349   3.742   4.811  0.2127  0.1650  0.0515
 5387SOL    HW221314   2.442   3.751   4.789  0.2847 -0.5949  0.0149
 5387SOL    HW321315   2.337   3.648   4.825 -0.3166  0.3686  1.1017
 5387SOL    MW421316   2.360   3.731   4.810 -0.2087  0.2435 -0.4817
 5388SOL     OW21317   3.455   3.427   4.751  0.5984 -1.3198  0.4184
 5388SOL    HW221318   3.410   3.443   4.834  1.1217 -1.0245  0.6504
 5388SOL    HW321319   3.406   3.479   4.687 -0.0634 -1.8793  0.4528
 5388SOL    MW421320   3.443   3.436   4.753 -0.3713 -0.6500  0.3568
 5389SOL     OW21321   1.916   6.131   5.512  0.5582 -0.1235 -0.4440
 5389SOL    HW221322   1.902   6.091   5.426 -3.9551  0.0910 -0.0494
 5389SOL    HW321323   1.898   6.224   5.499 -1.4213 -0.2631  0.8323
 5389SOL    MW421324   1.912   6.138   5.499 -0.4727  0.4185 -0.0360
 5390SOL     OW21325   6.410   2.806   1.346 -0.6142 -0.1033  0.2835
 5390SOL    HW221326   6.393   2.724   1.300  0.4490  0.1635 -0.6340
 5390SOL    HW321327   6.418   2.781   1.438  1.2810 -1.3162 -0.1554
 5390SOL    MW421328   6.409   2.792   1.352 -0.8233  0.6863 -0.7093
 5391SOL     OW21329   5.250   2.113   6.160 -0.5677 -0.4157 -0.5565
 5391SOL    HW221330   5.310   2.185   6.140 -0.5578  0.4927  2.2473
 5391SOL    HW321331   5.168   2.138   6.117  0.0562  0.1233 -1.4724
 5391SOL    MW421332   5.247   2.126   6.152  0.4411  0.2898  0.0874
 5392SOL     OW21333   1.260   5.426   2.971 -0.2914 -0.0832  0.1313
 5392SOL    HW221334   1.288   5.518   2.976 -1.4327  0.2478  1.0520
 5392SOL    HW321335   1.287   5.388   3.055  1.6803 -1.0880 -0.8918
 5392SOL    MW421336   1.267   5.433   2.983  0.7666  0.2145 -0.5641
 5393SOL     OW21337   6.426   6.061   1.835  0.1730  0.5638  0.2495
 5393SOL    HW221338   6.452   6.116   1.908  0.7224 -1.5606  1.7671
 5393SOL    HW321339   6.508   6.022   1.804 -0.1819  0.6584 -0.8358
 5393SOL    MW421340   6.440   6.063   1.841 -0.6206  0.1963  0.4765
 5394SOL     OW21341   3.466   5.908   1.744  0.4142  0.1829  0.8024
 5394SOL    HW221342   3.562   5.907   1.740  0.3921 -0.4955  0.1739
 5394SOL    HW321343   3.442   5.815   1.748 -0.2480  0.2904 -0.2674
 5394SOL    MW421344   3.475   5.895   1.744  1.0474  0.1691  0.1906
 5395SOL     OW21345   1.586   5.712   3.513 -0.0905  0.6610 -0.5853
 5395SOL    HW221346   1.658   5.658   3.546 -0.9465 -0.3635 -0.3290
 5395SOL    HW321347   1.587   5.791   3.568  0.0216  0.0659  0.2897
 5395SOL    MW421348   1.596   5.715   3.525 -0.4590 -0.2033  0.5309
 5396SOL     OW21349   0.902   3.011   3.788 -0.0395 -0.0834  0.1243
 5396SOL    HW221350   0.831   3.067   3.755  0.2072  0.2133  0.0867
 5396SOL    HW321351   0.976   3.032   3.730  0.1775 -0.1274  0.3876
 5396SOL    MW421352   0.902   3.021   3.776 -0.1951 -0.6656 -0.3997
 5397SOL     OW21353   4.605   2.315   2.868 -0.6003 -0.3076 -0.1986
 5397SOL    HW221354   4.561   2.256   2.929  0.5713 -0.6765  0.3161
 5397SOL    HW321355   4.601   2.270   2.783  0.2431 -1.1277  0.1787
 5397SOL    MW421356   4.599   2.301   2.865  0.2663  0.1843  0.0413
 5398SOL     OW21357   4.274   1.743   5.739  0.3590 -0.1162 -0.1618
 5398SOL    HW221358   4.299   1.829   5.705  0.3368 -0.2600 -0.5564
 5398SOL    HW321359   4.192   1.759   5.785  1.4705  0.4775  1.7094
 5398SOL    MW421360   4.267   1.756   5.740 -0.7721  0.0366 -0.3351
 5399SOL     OW21361   0.641   4.165   1.730  0.0049 -0.0494  0.1724
 5399SOL    HW221362   0.653   4.130   1.642  0.9883  1.9413 -0.5304
 5399SOL    HW321363   0.725   4.147   1.773  0.1665  0.5773  0.1186
 5399SOL    MW421364   0.654   4.158   1.724 -0.1545 -0.3292 -0.1513
 5400SOL     OW21365   2.494   5.306   3.798  0.1069  0.1429  0.0828
 5400SOL    HW221366   2.500   5.332   3.707  0.7576  0.5227  0.2275
 5400SOL    HW321367   2.561   5.358   3.843 -0.3643  0.1393  0.8144
 5400SOL    MW421368   2.503   5.316   3.792 -0.5199  0.1382 -0.1588
 5401SOL     OW21369   3.084   0.803   3.731 -0.0427 -0.1966  0.0752
 5401SOL    HW221370   3.118   0.850   3.655  1.5742 -0.0761  0.8477
 5401SOL    HW321371   3.027   0.866   3.774 -1.2650 -0.3749 -1.1883
 5401SOL    MW421372   3.081   0.817   3.726 -0.1038  0.2220 -0.2994
 5402SOL     OW21373   2.320   4.126   4.387 -0.3835 -0.4416  0.3155
 5402SOL    HW221374   2.407   4.096   4.412 -0.6908 -0.6753  1.1434
 5402SOL    HW321375   2.272   4.132   4.469 -0.3298  2.4186  0.2108
 5402SOL    MW421376   2.325   4.123   4.401  0.6042  0.2024 -0.0985
 5403SOL     OW21377   4.401   3.298   2.976 -0.4734 -0.7634  0.1221
 5403SOL    HW221378   4.349   3.296   3.056  0.8916  1.1316  1.1418
 5403SOL    HW321379   4.471   3.233   2.991  0.0755 -0.0567  0.7302
 5403SOL    MW421380   4.404   3.289   2.989 -0.3644  0.2864  0.0907
 5404SOL     OW21381   0.194   1.159   2.276  0.0074 -0.1289 -0.6127
 5404SOL    HW221382   0.107   1.196   2.290  0.6237  1.0765  0.2223
 5404SOL    HW321383   0.235   1.218   2.212  1.2920  1.1965  1.3440
 5404SOL    MW421384   0.188   1.172   2.269  0.1606 -0.0703 -0.8538
 5405SOL     OW21385   5.569   6.039   0.775 -0.0910 -0.3944  0.4005
 5405SOL    HW221386   5.503   6.013   0.838 -1.0038  0.3254 -0.2335
 5405SOL    HW321387   5.520   6.059   0.695  1.1725 -3.0874 -1.1963
 5405SOL    MW421388   5.554   6.039   0.773  0.3938  0.1514  0.7695
 5406SOL     OW21389   4.242   3.291   4.088  0.0340  0.5471  0.0104
 5406SOL    HW221390   4.194   3.371   4.109  0.6434  0.5574  1.4864
 5406SOL    HW321391   4.175   3.230   4.055 -1.2385  0.2022  2.9691
 5406SOL    MW421392   4.227   3.294   4.086 -1.0057 -0.1145  0.1119
 5407SOL     OW21393   6.430   1.597   4.680 -0.3573 -0.3546 -0.2938
 5407SOL    HW221394   6.457   1.684   4.652 -2.0959  0.1610 -0.4557
 5407SOL    HW321395   6.409   1.606   4.773 -1.2057 -0.4227 -0.4712
 5407SOL    MW421396   6.431   1.609   4.688 -0.1657  0.4121 -0.0983
 5408SOL     OW21397   0.175   2.720   2.446 -0.5321 -0.3460  0.4849
 5408SOL    HW221398   0.260   2.684   2.420 -1.2034 -0.4928 -1.7542
 5408SOL    HW321399   0.172   2.806   2.405 -1.0800  0.0832  1.3939
 5408SOL    MW421400   0.185   2.726   2.437 -0.6419 -0.1510  0.7184
 5409SOL     OW21401   2.848   4.988   2.883 -0.3374 -0.4584 -0.0022
 5409SOL    HW221402   2.812   4.967   2.797 -1.4375  0.9100  0.0824
 5409SOL    HW321403   2.844   5.084   2.888  0.2411 -0.4861  1.3397
 5409SOL    MW421404   2.842   4.998   2.873  0.1909 -0.1853  0.0817
 5410SOL     OW21405   6.136   2.399   6.157 -0.2755  0.4415 -0.8127
 5410SOL    HW221406   6.211   2.354   6.194  0.9985  1.1665 -2.4299
 5410SOL    HW321407   6.077   2.411   6.232  1.2767  0.0318  0.5357
 5410SOL    MW421408   6.138   2.395   6.172 -0.1021  0.0391  0.0943
 5411SOL     OW21409   2.439   4.201   2.605  0.4916  0.2035 -0.3977
 5411SOL    HW221410   2.520   4.205   2.554 -0.6728  1.8983 -2.2646
 5411SOL    HW321411   2.461   4.241   2.689  1.9672 -0.8809 -0.2237
 5411SOL    MW421412   2.453   4.207   2.610 -0.1910  0.0499  0.1861
 5412SOL     OW21413   5.315   4.265   2.991  0.3035  0.1084  0.0217
 5412SOL    HW221414   5.246   4.277   2.926  1.1619  0.7791 -0.7941
 5412SOL    HW321415   5.397   4.274   2.941  1.0190 -2.4693  0.6089
 5412SOL    MW421416   5.317   4.268   2.976  0.0417 -0.0050  0.0517
 5413SOL     OW21417   4.991   4.913   3.442  0.0097 -0.2213 -0.4396
 5413SOL    HW221418   4.953   4.874   3.520  2.4119 -0.5498  0.6312
 5413SOL    HW321419   4.996   5.007   3.462  0.5903 -0.3004 -0.2008
 5413SOL    MW421420   4.986   4.921   3.455  0.3948 -0.3529 -0.3322
 5414SOL     OW21421   0.601   0.111   3.035  0.1126 -0.7530  0.1292
 5414SOL    HW221422   0.677   0.056   3.052  0.7316  0.1469  0.3798
 5414SOL    HW321423   0.638   0.199   3.023 -0.9002 -0.2756  0.4077
 5414SOL    MW421424   0.616   0.115   3.036  0.2137 -0.0563 -0.5216
 5415SOL     OW21425   3.841   4.828   4.618 -0.3200 -0.2601  0.0832
 5415SOL    HW221426   3.831   4.890   4.546 -3.3250 -1.4331 -0.6362
 5415SOL    HW321427   3.874   4.881   4.691 -2.2503  2.0907 -0.6283
 5415SOL    MW421428   3.844   4.843   4.618 -0.4851 -0.8684  0.4581
 5416SOL     OW21429   5.489   0.117   3.578  0.1097 -0.5397  0.1044
 5416SOL    HW221430   5.413   0.085   3.628  1.5323 -0.5387  2.4091
 5416SOL    HW321431   5.562   0.063   3.608  1.5737  1.3719  0.1676
 5416SOL    MW421432   5.488   0.105   3.588  0.1296 -0.1646  0.2604
 5417SOL     OW21433   4.502   0.285   6.106  0.3688 -0.2904  0.0711
 5417SOL    HW221434   4.532   0.254   6.192 -1.1076 -0.8535  0.4122
 5417SOL    HW321435   4.509   0.381   6.112 -0.9349 -0.2266  1.3433
 5417SOL    MW421436   4.507   0.294   6.118 -0.1943  0.3914 -0.3179
 5418SOL     OW21437   1.297   0.370   0.689 -0.4372 -0.0878  0.7861
 5418SOL    HW221438   1.299   0.462   0.713 -0.3785  0.0991  0.0647
 5418SOL    HW321439   1.258   0.327   0.766  2.6145  0.0490  2.5750
 5418SOL    MW421440   1.292   0.376   0.702  0.0687  0.3198 -0.2763
 5419SOL     OW21441   3.267   0.466   4.352 -0.1621  0.0925 -0.2986
 5419SOL    HW221442   3.210   0.487   4.427 -0.0194 -0.9302  0.1141
 5419SOL    HW321443   3.224   0.507   4.277 -1.9611 -1.3749 -0.1447
 5419SOL    MW421444   3.253   0.474   4.352  0.0249 -0.7281  0.5170
 5420SOL     OW21445   1.835   2.392   2.607 -0.2881  0.4259 -0.0736
 5420SOL    HW221446   1.877   2.458   2.552  1.3183 -1.8842 -1.8091
 5420SOL    HW321447   1.752   2.374   2.563  0.4361 -0.5128 -1.1166
 5420SOL    MW421448   1.829   2.398   2.594 -0.6535  0.4513  0.2889
 5421SOL     OW21449   3.098   6.415   3.604  0.0325  0.2146  0.0983
 5421SOL    HW221450   3.008   6.401   3.574 -0.3923  1.2536  0.8388
 5421SOL    HW321451   3.152   6.400   3.526 -0.8255  0.1567 -0.5007
 5421SOL    MW421452   3.093   6.411   3.590  0.2111  0.1942 -0.1889
 5422SOL     OW21453   5.061   4.486   1.067  0.2031 -0.1878  0.0497
 5422SOL    HW221454   4.996   4.416   1.077  2.0127 -1.8772  0.4550
 5422SOL    HW321455   5.142   4.441   1.047  1.4247  1.8275  0.2155
 5422SOL    MW421456   5.063   4.471   1.066 -0.2090 -0.5304  0.3429
 5423SOL     OW21457   1.219   2.416   0.273  0.3498  0.0005  0.2389
 5423SOL    HW221458   1.185   2.467   0.199 -0.3288 -0.3300  0.3195
 5423SOL    HW321459   1.312   2.404   0.253  0.2846  0.3610 -0.3022
 5423SOL    MW421460   1.227   2.421   0.261  0.0135 -0.2012 -0.2520
 5424SOL     OW21461   6.379   0.499   0.985 -0.3970 -0.0609 -0.4284
 5424SOL    HW221462   6.463   0.482   1.027 -0.1689 -0.8643 -1.1747
 5424SOL    HW321463   6.377   0.438   0.911 -1.3692  0.3805 -0.7774
 5424SOL    MW421464   6.390   0.488   0.981  0.1457  0.2821 -0.0060
 5425SOL     OW21465   4.537   1.835   3.575  0.4249 -0.4325 -0.2797
 5425SOL    HW221466   4.606   1.773   3.551  0.1113 -1.2561  0.8502
 5425SOL    HW321467   4.535   1.833   3.671 -0.6653  0.1404 -0.2721
 5425SOL    MW421468   4.546   1.826   3.585  0.2744 -0.1345  0.2000
 5426SOL     OW21469   2.035   3.047   1.838 -0.2104  0.2980  0.1725
 5426SOL    HW221470   1.941   3.030   1.851 -0.2294 -0.1396 -0.4857
 5426SOL    HW321471   2.077   2.964   1.860 -0.0117  0.3845  0.1193
 5426SOL    MW421472   2.028   3.034   1.842  0.0324  0.0852 -0.0801
 5427SOL     OW21473   1.652   0.714   2.876  0.2378  0.9433  0.6155
 5427SOL    HW221474   1.653   0.659   2.798  0.8735 -0.3366  1.4845
 5427SOL    HW321475   1.716   0.783   2.858  0.7966  0.3309  0.2367
 5427SOL    MW421476   1.660   0.716   2.864  0.1437  0.3000  0.1833
 5428SOL     OW21477   1.670   2.169   1.742 -0.4366 -0.2397  0.1011
 5428SOL    HW221478   1.628   2.178   1.828  0.9029  0.4003  0.7093
 5428SOL    HW321479   1.677   2.074   1.729  0.3972 -0.3601  1.2445
 5428SOL    MW421480   1.665   2.157   1.752  0.6372  0.1246  0.7174
 5429SOL     OW21481   5.116   2.745   5.448  0.0606  0.2499 -0.8285
 5429SOL    HW221482   5.093   2.805   5.378  0.1694  2.0236  0.5811
 5429SOL    HW321483   5.046   2.755   5.513  1.3008  0.7254  0.5112
 5429SOL    MW421484   5.104   2.754   5.448 -0.1713  0.3356 -0.6408
 5430SOL     OW21485   0.860   5.567   2.584  0.3818  0.0040  0.1538
 5430SOL    HW221486   0.946   5.525   2.578  1.6586  2.6162 -2.4386
 5430SOL    HW321487   0.876   5.651   2.627 -0.3729  1.3777 -2.0447
 5430SOL    MW421488   0.873   5.572   2.589  0.0020 -0.1600 -0.0194
 5431SOL     OW21489   4.568   0.353   1.617 -0.1204  0.4574 -0.1418
 5431SOL    HW221490   4.548   0.273   1.667 -0.2581  0.0586 -0.8172
 5431SOL    HW321491   4.659   0.342   1.589 -0.1497  0.5194 -0.2627
 5431SOL    MW421492   4.577   0.341   1.620 -0.4824 -0.3558  0.5268
 5432SOL     OW21493   2.994   0.372   0.414  0.2935  0.1976  0.2305
 5432SOL    HW221494   2.928   0.324   0.364  0.7286 -0.7526  0.5644
 5432SOL    HW321495   2.964   0.463   0.411 -0.9376 -0.1921  0.2341
 5432SOL    MW421496   2.982   0.378   0.407  0.1350  0.1300  0.2983
 5433SOL     OW21497   4.860   2.259   4.156  0.4016  0.0615  0.1650
 5433SOL    HW221498   4.771   2.285   4.133 -0.0511  0.9657  2.6210
 5433SOL    HW321499   4.917   2.325   4.116 -0.3216  1.4589  1.3406
 5433SOL    MW421500   4.856   2.271   4.148  0.0257  0.2198 -0.1696
 5434SOL     OW21501   1.678   3.644   2.751 -0.0034 -0.8299  0.5824
 5434SOL    HW221502   1.641   3.558   2.728  2.5254 -2.0718  0.8518
 5434SOL    HW321503   1.681   3.692   2.668 -0.2321 -1.4887  0.1850
 5434SOL    MW421504   1.673   3.639   2.737 -0.3896  0.8614 -0.1497
 5435SOL     OW21505   0.691   2.875   0.779  0.6778  0.3584 -0.7760
 5435SOL    HW221506   0.736   2.941   0.832  1.4060 -0.1890 -0.7074
 5435SOL    HW321507   0.724   2.889   0.690  1.3631 -0.3578 -0.6418
 5435SOL    MW421508   0.701   2.886   0.774  0.0630  0.1499  0.1123
 5436SOL     OW21509   2.287   1.116   4.813  0.4666 -0.7570 -0.1470
 5436SOL    HW221510   2.308   1.026   4.788  1.3343 -0.6429  0.1613
 5436SOL    HW321511   2.372   1.159   4.824  0.0673 -0.0830  0.3894
 5436SOL    MW421512   2.301   1.110   4.811 -0.5586  0.2071 -0.5021
 5437SOL     OW21513   0.970   5.375   0.815  0.9283 -0.0365 -0.1088
 5437SOL    HW221514   0.962   5.317   0.739  0.4241  0.8215 -0.7379
 5437SOL    HW321515   1.038   5.438   0.790  2.1039 -0.8609  0.9222
 5437SOL    MW421516   0.978   5.375   0.802 -0.2001 -0.1904  0.7622
 5438SOL     OW21517   0.913   0.946   0.365 -0.3786 -0.2572  0.7169
 5438SOL    HW221518   0.891   1.035   0.391 -0.1869  0.3491 -1.0401
 5438SOL    HW321519   0.840   0.919   0.309  0.1034 -0.7760  0.3335
 5438SOL    MW421520   0.900   0.954   0.361  0.2193 -0.0464  0.8452
 5439SOL     OW21521   1.767   6.305   0.916  0.2261 -0.2760  0.2415
 5439SOL    HW221522   1.675   6.320   0.937  0.7721  0.0407  2.6510
 5439SOL    HW321523   1.785   6.367   0.845 -1.5399 -0.8144 -0.7463
 5439SOL    MW421524   1.757   6.315   0.909 -0.0494 -0.4844  0.1036
 5440SOL     OW21525   6.083   5.758   0.978 -0.1489  0.3604  0.3999
 5440SOL    HW221526   6.057   5.830   0.921  0.3580 -0.5793 -1.0990
 5440SOL    HW321527   6.158   5.718   0.933  1.3563  0.5608  2.5706
 5440SOL    MW421528   6.090   5.762   0.964  0.1683 -0.2288  0.3571
 5441SOL     OW21529   3.540   0.470   6.427  0.0332 -0.1020 -0.3431
 5441SOL    HW221530   3.621   0.519   6.416  0.1428  0.4787  2.4102
 5441SOL    HW321531   3.531   0.420   6.346  0.9322  2.9382 -2.4959
 5441SOL    MW421532   3.550   0.470   6.415  0.2920  0.3536 -0.2708
 5442SOL     OW21533   2.046   1.373   0.614 -0.1092 -0.1198  0.1769
 5442SOL    HW221534   1.971   1.379   0.555 -0.9965 -1.9297  1.0350
 5442SOL    HW321535   2.036   1.447   0.674 -0.7791  0.0837 -0.1767
 5442SOL    MW421536   2.035   1.384   0.614 -0.2788 -0.3081 -0.6124
 5443SOL     OW21537   6.424   5.765   3.755 -0.0436  0.4549  0.5507
 5443SOL    HW221538   6.373   5.805   3.825  0.4004 -0.4944  1.4292
 5443SOL    HW321539   6.492   5.714   3.799 -0.0329 -0.5420 -0.5494
 5443SOL    MW421540   6.426   5.764   3.770  0.0057 -0.9441  0.3598
 5444SOL     OW21541   0.927   3.763  -0.001  0.7326 -0.2339  0.3516
 5444SOL    HW221542   0.964   3.793  -0.084 -1.0013  1.2042  0.0384
 5444SOL    HW321543   0.964   3.676   0.012  0.1505 -0.9980 -2.5316
 5444SOL    MW421544   0.936   3.755  -0.010 -0.6299  0.0807 -0.5795
 5445SOL     OW21545   0.971   0.362   5.357  0.5840  0.0471  0.1629
 5445SOL    HW221546   1.012   0.448   5.361 -0.7423  0.7161 -0.1196
 5445SOL    HW321547   0.962   0.335   5.448  1.8292 -0.2112  0.2209
 5445SOL    MW421548   0.975   0.370   5.370 -0.2459 -0.4907 -0.5858
 5446SOL     OW21549   2.138   5.847   1.318  0.0151 -0.0955  0.3211
 5446SOL    HW221550   2.067   5.870   1.258 -0.3969  0.1548  0.8905
 5446SOL    HW321551   2.214   5.834   1.262 -0.9679 -2.6363 -0.5744
 5446SOL    MW421552   2.138   5.848   1.303  0.0580  0.6250  0.2271
 5447SOL     OW21553   4.687   1.466   0.405 -0.6927  0.1156 -0.2598
 5447SOL    HW221554   4.754   1.476   0.337  0.0563  0.1723  0.4629
 5447SOL    HW321555   4.737   1.454   0.486 -1.5037  2.5772  0.7107
 5447SOL    MW421556   4.703   1.466   0.407  0.2301 -0.5072  0.1419
 5448SOL     OW21557   3.450   4.456   4.791  0.1292 -0.1296  0.1158
 5448SOL    HW221558   3.502   4.386   4.832  0.9823  0.9417  0.9354
 5448SOL    HW321559   3.515   4.514   4.753 -0.4960  0.9038  0.5938
 5448SOL    MW421560   3.466   4.454   4.791  0.1338 -0.0963  0.1689
 5449SOL     OW21561   0.727   1.812   2.242  0.1667  0.6619  0.0657
 5449SOL    HW221562   0.801   1.769   2.285  0.1195  2.5638  2.2035
 5449SOL    HW321563   0.742   1.798   2.149  2.3478 -0.3622  0.5107
 5449SOL    MW421564   0.739   1.804   2.235  0.0023  0.6952  0.3794
 5450SOL     OW21565   3.884   1.063   1.140  0.1012 -0.0148 -0.5346
 5450SOL    HW221566   3.846   1.014   1.066  1.1606  0.9583 -1.7606
 5450SOL    HW321567   3.834   1.144   1.143 -0.7102 -0.5309  0.5951
 5450SOL    MW421568   3.872   1.067   1.131  0.0078  0.3460  0.3548
 5451SOL     OW21569   2.248   4.218   0.724 -0.0463 -0.4981 -0.6620
 5451SOL    HW221570   2.261   4.155   0.653  0.0003 -0.1293 -0.9848
 5451SOL    HW321571   2.309   4.289   0.704  0.8620 -0.9442  0.4088
 5451SOL    MW421572   2.258   4.219   0.712 -0.4140 -0.0466  0.1232
 5452SOL     OW21573   1.845   2.136   0.427 -0.0541  0.0563  0.5365
 5452SOL    HW221574   1.826   2.194   0.353 -0.7566 -0.9088 -0.0757
 5452SOL    HW321575   1.936   2.156   0.450 -0.0812  0.9457 -0.0581
 5452SOL    MW421576   1.855   2.146   0.420 -0.0455 -0.4466 -0.2653
 5453SOL     OW21577   0.088   2.206   1.420 -0.2570  0.0924  0.4094
 5453SOL    HW221578   0.012   2.262   1.434 -0.6034 -0.6216  1.4304
 5453SOL    HW321579   0.121   2.187   1.507  0.1443 -0.8966  0.0617
 5453SOL    MW421580   0.082   2.211   1.433  0.2416  0.3849  0.1013
 5454SOL     OW21581   3.731   0.902   3.732  0.0964 -0.1955  0.2327
 5454SOL    HW221582   3.686   0.908   3.816  1.3652  1.6894  0.8518
 5454SOL    HW321583   3.719   0.988   3.692 -0.2167 -0.9589 -1.4026
 5454SOL    MW421584   3.724   0.914   3.738  0.7275 -0.0478  0.0614
 5455SOL     OW21585   5.912   5.005   3.762 -0.2303  0.0260 -0.2276
 5455SOL    HW221586   5.820   5.008   3.788 -0.5640 -1.2794 -1.1329
 5455SOL    HW321587   5.957   4.963   3.836 -0.2008  1.3697  0.5497
 5455SOL    MW421588   5.906   5.000   3.775 -0.4433  0.1987  0.3989
 5456SOL     OW21589   0.229   3.395   3.033  0.4658 -0.6097  0.4001
 5456SOL    HW221590   0.278   3.314   3.038  0.2354 -0.8313 -0.7283
 5456SOL    HW321591   0.152   3.380   3.088  0.6161 -1.0140  0.5023
 5456SOL    MW421592   0.225   3.383   3.041  0.2175 -0.1733  0.1224
 5457SOL     OW21593   3.512   2.162   6.218 -0.1524 -0.3934 -0.3097
 5457SOL    HW221594   3.485   2.093   6.157  2.6952 -0.7258 -1.3682
 5457SOL    HW321595   3.562   2.116   6.286 -0.7612  0.3163  0.6409
 5457SOL    MW421596   3.515   2.147   6.219 -0.0542 -0.1237 -0.1041
 5458SOL     OW21597   1.943   3.425   2.400  0.7837  0.5932 -1.1535
 5458SOL    HW221598   1.997   3.367   2.346  2.0911  1.1643 -0.4863
 5458SOL    HW321599   1.986   3.510   2.395  0.3776  0.8840  0.0070
 5458SOL    MW421600   1.955   3.428   2.392  0.6643 -0.2353 -0.1145
 5459SOL     OW21601   3.563   2.452   5.729 -0.6034  0.1681  0.3574
 5459SOL    HW221602   3.586   2.363   5.757 -0.0233  0.1660 -0.1103
 5459SOL    HW321603   3.506   2.485   5.799  0.7484  0.1362  1.5284
 5459SOL    MW421604   3.558   2.445   5.742  0.4578  0.5240 -0.0468
 5460SOL     OW21605   2.542   4.713   0.962  0.1136 -0.4661 -0.5387
 5460SOL    HW221606   2.496   4.633   0.940  2.4043 -1.0432 -4.1201
 5460SOL    HW321607   2.630   4.684   0.987  0.8369  0.8759 -1.4156
 5460SOL    MW421608   2.548   4.699   0.963 -0.2515 -0.1228 -0.4156
 5461SOL     OW21609   2.946   0.232   0.656  0.4890  0.1075  0.0310
 5461SOL    HW221610   3.024   0.193   0.694  0.8068  0.7440  0.0506
 5461SOL    HW321611   2.980   0.295   0.592  0.0102  0.8714  0.5156
 5461SOL    MW421612   2.961   0.236   0.652  0.0883 -0.2335 -0.5128
 5462SOL     OW21613   4.321   2.617   2.358 -0.8074 -0.3800 -0.4493
 5462SOL    HW221614   4.290   2.694   2.406 -1.3460 -0.2005 -1.0720
 5462SOL    HW321615   4.413   2.635   2.341 -0.2997 -0.9337  1.4498
 5462SOL    MW421616   4.329   2.630   2.362  0.2798 -0.2351  0.6412
 5463SOL     OW21617   2.963   6.278   4.047 -0.2507  0.2743 -0.6283
 5463SOL    HW221618   2.925   6.274   3.959 -2.0575  2.9326 -0.1127
 5463SOL    HW321619   2.941   6.366   4.078  3.1699  0.6425  1.2676
 5463SOL    MW421620   2.955   6.289   4.040 -0.6218 -0.2171 -0.3775
 5464SOL     OW21621   1.435   5.059   0.108 -0.0307 -0.1563 -0.5309
 5464SOL    HW221622   1.526   5.058   0.078 -0.2228  0.7735 -1.2186
 5464SOL    HW321623   1.386   5.094   0.033 -1.0468 -1.2250 -0.3916
 5464SOL    MW421624   1.441   5.064   0.094  0.1468 -0.3150  0.0934
 5465SOL     OW21625   6.086   1.084   1.707 -0.0245  0.1265  0.2667
 5465SOL    HW221626   6.098   1.178   1.714 -1.6227  0.3801 -0.0098
 5465SOL    HW321627   6.173   1.050   1.684  1.8516  0.9535  5.0141
 5465SOL    MW421628   6.099   1.092   1.705  0.0399 -0.3047 -0.1720
 5466SOL     OW21629   5.217   3.574   4.902  0.1659  0.3983  0.0404
 5466SOL    HW221630   5.209   3.642   4.970 -1.7621  0.5852 -0.3167
 5466SOL    HW321631   5.229   3.623   4.821 -0.4379  0.2734 -0.1215
 5466SOL    MW421632   5.218   3.590   4.900  0.5249 -0.1410  0.2017
 5467SOL     OW21633   1.594   5.275   0.371 -0.4297  0.3597  0.2177
 5467SOL    HW221634   1.549   5.214   0.430  0.7176 -0.6213  0.1320
 5467SOL    HW321635   1.610   5.353   0.424  0.7374 -0.5642  1.3001
 5467SOL    MW421636   1.590   5.277   0.386  0.1319 -0.2836 -0.4478
 5468SOL     OW21637   6.200   6.308   1.913 -0.3884  0.3076  0.1547
 5468SOL    HW221638   6.147   6.280   1.839  0.0667  1.1129 -0.5000
 5468SOL    HW321639   6.152   6.382   1.950 -0.9117 -0.4576  1.0426
 5468SOL    MW421640   6.187   6.314   1.908 -0.2196  0.5017  0.5037
 5469SOL     OW21641   3.706   3.502   4.481 -0.3474  0.1525  0.3671
 5469SOL    HW221642   3.678   3.554   4.556 -0.0350  1.4728 -0.3861
 5469SOL    HW321643   3.670   3.415   4.496 -1.4828  0.7688  1.3364
 5469SOL    MW421644   3.698   3.497   4.493  0.6505 -0.0783 -0.0030
 5470SOL     OW21645   3.085   3.696   0.570  0.7196  0.2290  0.0611
 5470SOL    HW221646   3.153   3.645   0.614 -0.3446  0.0091  1.4974
 5470SOL    HW321647   3.008   3.687   0.625 -0.3634  0.8757 -1.2798
 5470SOL    MW421648   3.084   3.688   0.583 -0.0704  0.5700 -0.1164
 5471SOL     OW21649   3.523   0.399   2.149 -0.0349 -0.3634 -0.3460
 5471SOL    HW221650   3.566   0.406   2.063  0.5623  0.0021 -0.0213
 5471SOL    HW321651   3.457   0.331   2.136  2.9921 -3.7381  0.0920
 5471SOL    MW421652   3.520   0.391   2.136  0.0896 -0.9259  0.2250
 5472SOL     OW21653   3.373   6.192   4.602 -0.1991 -0.6930 -0.1076
 5472SOL    HW221654   3.422   6.164   4.526  2.0810  0.2444  0.9150
 5472SOL    HW321655   3.292   6.229   4.567  0.6178 -0.6361 -2.0288
 5472SOL    MW421656   3.368   6.193   4.588 -0.0268 -0.2225  0.6212
 5473SOL     OW21657   0.449   4.555   1.146 -0.2406  0.1512  0.9212
 5473SOL    HW221658   0.491   4.565   1.061 -0.1193  1.0787  1.0812
 5473SOL    HW321659   0.411   4.641   1.165 -0.6793 -0.1756  1.5900
 5473SOL    MW421660   0.449   4.567   1.138 -0.6041  0.6837  0.0404
 5474SOL     OW21661   2.594   0.599   4.150  0.2581  0.0223 -0.2424
 5474SOL    HW221662   2.542   0.665   4.105  0.4920  0.7069  0.4673
 5474SOL    HW321663   2.567   0.606   4.242  1.3586  0.1679  0.0815
 5474SOL    MW421664   2.584   0.608   4.156 -0.1118 -0.4832  0.4186
 5475SOL     OW21665   2.812   4.786   5.110  0.5717 -0.1043  0.5511
 5475SOL    HW221666   2.847   4.697   5.102  0.8626  0.0272  0.3800
 5475SOL    HW321667   2.718   4.773   5.127  0.1818 -0.4128 -1.6025
 5475SOL    MW421668   2.804   4.772   5.111  0.5668 -0.7076 -0.1239
 5476SOL     OW21669   5.544   3.989   6.315 -1.1117 -0.0853 -0.2294
 5476SOL    HW221670   5.567   3.927   6.246 -0.6123  0.1377 -0.2666
 5476SOL    HW321671   5.567   3.944   6.396  0.4804  0.5308 -0.2995
 5476SOL    MW421672   5.550   3.975   6.316 -0.1150  0.3526 -0.3734
 5477SOL     OW21673   2.358   0.344   6.009 -0.2172  0.0853  0.6517
 5477SOL    HW221674   2.354   0.322   6.103 -0.2085 -1.5698  0.3080
 5477SOL    HW321675   2.283   0.297   5.971  0.7944 -0.7247 -0.4093
 5477SOL    MW421676   2.347   0.335   6.017  0.3670 -0.3981 -0.0246
 5478SOL     OW21677   2.625   1.821   2.802 -0.1017 -0.3282  0.4112
 5478SOL    HW221678   2.640   1.748   2.743 -1.9316 -0.3874 -0.0363
 5478SOL    HW321679   2.588   1.781   2.881 -1.4664  0.1148  0.0232
 5478SOL    MW421680   2.622   1.806   2.805 -0.6009 -0.3854 -0.2747
 5479SOL     OW21681   2.504   3.690   3.269 -0.2354 -0.3080  0.1976
 5479SOL    HW221682   2.523   3.642   3.188 -1.0867 -2.7056  1.3309
 5479SOL    HW321683   2.571   3.663   3.330 -0.3857  0.4390  0.7072
 5479SOL    MW421684   2.515   3.680   3.266  0.6599 -0.1779  0.0917
 5480SOL     OW21685   5.510   4.751   0.219  0.4309 -0.1510  0.0601
 5480SOL    HW221686   5.589   4.728   0.170  0.0456 -0.9389 -0.1998
 5480SOL    HW321687   5.464   4.812   0.162  0.9226  0.4343  0.2801
 5480SOL    MW421688   5.515   4.756   0.205  0.3400  0.5341 -0.2290
 5481SOL     OW21689   3.684   2.184   5.438 -0.2385 -0.9611  0.0657
 5481SOL    HW221690   3.756   2.186   5.501 -0.2224  0.0488  0.0438
 5481SOL    HW321691   3.619   2.127   5.477  0.5738 -1.9155  0.0763
 5481SOL    MW421692   3.685   2.177   5.452 -0.8700 -0.2159 -0.1657
 5482SOL     OW21693   4.404   1.783   2.177 -0.5941 -0.3026  0.4499
 5482SOL    HW221694   4.355   1.804   2.256 -2.0720 -0.4744 -0.3981
 5482SOL    HW321695   4.477   1.845   2.177 -2.7893  2.4743 -0.0967
 5482SOL    MW421696   4.407   1.794   2.187  0.3867  0.1917  0.4267
 5483SOL     OW21697   3.781   4.848   5.904  0.1801 -0.2587  0.2979
 5483SOL    HW221698   3.723   4.923   5.888 -0.4622 -0.5686  1.0966
 5483SOL    HW321699   3.825   4.834   5.820 -0.0748  0.6820 -0.0111
 5483SOL    MW421700   3.779   4.856   5.891  0.3803  0.3830 -0.5073
 5484SOL     OW21701   4.749   1.923   0.756 -0.2543 -0.5033 -0.3088
 5484SOL    HW221702   4.705   1.867   0.821  2.7071 -0.2390  2.1321
 5484SOL    HW321703   4.681   1.984   0.728 -2.7974 -3.2855 -0.8160
 5484SOL    MW421704   4.734   1.923   0.761 -0.6391 -0.4365 -0.1949
 5485SOL     OW21705   0.711   5.778   0.619 -0.0165  0.1700  0.2714
 5485SOL    HW221706   0.650   5.748   0.687 -0.6227  0.5158 -0.1037
 5485SOL    HW321707   0.796   5.745   0.646 -0.5696 -1.4085  0.1425
 5485SOL    MW421708   0.714   5.770   0.632  0.1748  0.3646 -0.4532
 5486SOL     OW21709   6.031   0.429   0.762  0.0102  0.1854  0.2782
 5486SOL    HW221710   5.969   0.364   0.728 -0.5862  0.9566 -0.1226
 5486SOL    HW321711   6.092   0.444   0.690 -0.0527  0.3269  0.2555
 5486SOL    MW421712   6.031   0.422   0.748 -0.0646  0.2934  0.3410
 5487SOL     OW21713   5.823   5.217   1.786  0.2711 -0.1881 -0.2202
 5487SOL    HW221714   5.785   5.130   1.772  0.8361 -0.5181  0.2520
 5487SOL    HW321715   5.758   5.262   1.841 -1.5105  0.7992 -2.9469
 5487SOL    MW421716   5.809   5.211   1.792 -0.2728 -0.4297 -0.1930
 5488SOL     OW21717   0.306   0.288   2.481  0.0933 -0.4194 -0.2356
 5488SOL    HW221718   0.247   0.342   2.533 -0.5713 -0.9585 -0.4269
 5488SOL    HW321719   0.387   0.340   2.475 -0.0795 -0.0236  0.6912
 5488SOL    MW421720   0.309   0.302   2.487 -0.2307  0.0707  0.4167
 5489SOL     OW21721   2.014   1.257   5.191  0.7972  0.1491 -0.1084
 5489SOL    HW221722   2.098   1.218   5.168  0.1147 -0.3453 -1.9212
 5489SOL    HW321723   1.949   1.196   5.156 -0.3164  0.7597  0.8401
 5489SOL    MW421724   2.016   1.244   5.183 -0.2027 -0.0317  0.1914
 5490SOL     OW21725   0.481   2.828   5.614 -0.1241 -1.0248  0.4668
 5490SOL    HW221726   0.444   2.912   5.639 -0.3975 -1.1113  0.3617
 5490SOL    HW321727   0.454   2.816   5.523  0.6244 -0.8397  0.2093
 5490SOL    MW421728   0.473   2.837   5.605  0.6464  0.0000  0.3044
 5491SOL     OW21729   0.387   2.176   4.778 -0.5714 -0.0528 -0.6635
 5491SOL    HW221730   0.357   2.108   4.838  2.4430  0.4234  1.6529
 5491SOL    HW321731   0.309   2.225   4.755 -2.3330 -2.2539  0.2867
 5491SOL    MW421732   0.373   2.174   4.783 -0.6870  0.3263  0.0035
 5492SOL     OW21733   0.682   3.567   4.419  0.6361  0.6258 -0.1908
 5492SOL    HW221734   0.677   3.559   4.514  1.1200 -0.0864 -0.2212
 5492SOL    HW321735   0.750   3.505   4.393  0.5339  0.8412 -1.0002
 5492SOL    MW421736   0.690   3.558   4.428  0.1007 -0.4299 -0.4906
 5493SOL     OW21737   1.234   3.989   1.833  0.0878 -0.2203  0.4031
 5493SOL    HW221738   1.238   4.061   1.896  0.0201  0.0279  0.1228
 5493SOL    HW321739   1.155   4.005   1.782 -0.7106 -1.2681  1.2712
 5493SOL    MW421740   1.224   4.000   1.835  0.1232 -0.4407 -0.3273
 5494SOL     OW21741   1.600   1.012   0.404 -0.0703 -0.3232 -0.6528
 5494SOL    HW221742   1.674   1.035   0.349 -0.2333  0.0039 -0.7369
 5494SOL    HW321743   1.633   0.943   0.462  0.3983  0.0621 -0.4558
 5494SOL    MW421744   1.614   1.006   0.405 -0.4504  0.0009 -0.1434
 5495SOL     OW21745   0.055   3.732   6.363 -0.6350 -0.2222 -0.7520
 5495SOL    HW221746  -0.034   3.724   6.328 -0.3401  0.8039 -1.7851
 5495SOL    HW321747   0.108   3.759   6.289 -0.1226  2.8913  0.5848
 5495SOL    MW421748   0.050   3.734   6.349  0.0787  0.2864 -0.0699
 5496SOL     OW21749   0.698   5.532   0.898 -0.2437 -0.3611 -0.6378
 5496SOL    HW221750   0.775   5.490   0.860  0.1146 -0.1593 -0.1414
 5496SOL    HW321751   0.637   5.539   0.825 -1.1558 -3.6015 -0.3558
 5496SOL    MW421752   0.700   5.527   0.883 -0.3422 -0.1425  0.1343
 5497SOL     OW21753   4.848   1.172   2.800 -0.4091  0.5073  0.5553
 5497SOL    HW221754   4.837   1.253   2.749  1.6075  1.3880  1.3764
 5497SOL    HW321755   4.810   1.193   2.885  1.8360  1.4205  1.4368
 5497SOL    MW421756   4.842   1.186   2.804 -0.3446 -0.0010 -0.0613
 5498SOL     OW21757   5.981   3.722   6.299  0.3354  0.4146  0.7199
 5498SOL    HW221758   6.065   3.685   6.273  0.0158 -0.4384  0.8548
 5498SOL    HW321759   5.952   3.770   6.222  1.7013  2.1382  1.2310
 5498SOL    MW421760   5.988   3.723   6.285  0.3234  0.3938 -0.0385
 5499SOL     OW21761   5.174   3.791   0.719 -0.0362 -0.1994  0.0092
 5499SOL    HW221762   5.205   3.862   0.662  0.0746  1.1334  1.6540
 5499SOL    HW321763   5.254   3.749   0.749 -0.0890 -0.7897 -0.6547
 5499SOL    MW421764   5.188   3.795   0.715  0.1825 -0.0533 -0.6988
 5500SOL     OW21765   4.133   0.772   4.983  0.2834 -0.1626  0.1858
 5500SOL    HW221766   4.191   0.696   4.986  0.7235  0.1518 -0.2716
 5500SOL    HW321767   4.190   0.846   5.003  0.0628  0.1579 -0.3518
 5500SOL    MW421768   4.148   0.772   4.986  0.5058  0.1473 -0.4898
 5501SOL     OW21769   0.028   4.232   2.071  0.0879  0.2256 -0.0457
 5501SOL    HW221770   0.085   4.169   2.115  0.5602  1.2792  0.9162
 5501SOL    HW321771  -0.060   4.197   2.081  0.2611  0.1080  1.1920
 5501SOL    MW421772   0.024   4.219   2.078 -0.7056  0.7739  0.1338
 5502SOL     OW21773   2.263   3.865   4.268  0.0244  0.1301 -0.0879
 5502SOL    HW221774   2.187   3.880   4.212  0.7372 -0.3652 -1.2151
 5502SOL    HW321775   2.285   3.952   4.303 -0.5954  0.3981 -0.3563
 5502SOL    MW421776   2.256   3.878   4.265 -0.2215 -0.0670 -0.2477
 5503SOL     OW21777   4.853   4.728   2.661  0.0577 -0.5959  0.5329
 5503SOL    HW221778   4.762   4.731   2.688 -0.6187 -0.2043 -1.6185
 5503SOL    HW321779   4.902   4.756   2.738 -1.7357  0.6076  1.2967
 5503SOL    MW421780   4.848   4.732   2.674  0.3728  0.0027 -0.0325
 5504SOL     OW21781   1.571   4.075   4.555 -0.5556  0.4749 -0.4871
 5504SOL    HW221782   1.573   3.982   4.532  0.9105 -0.3123  2.3335
 5504SOL    HW321783   1.586   4.120   4.472  0.8308 -1.8858 -1.6342
 5504SOL    MW421784   1.573   4.068   4.541 -0.2291  1.1091  0.3358
 5505SOL     OW21785   4.833   0.561   4.913 -0.1722 -0.4276  0.7330
 5505SOL    HW221786   4.747   0.544   4.950 -0.4783  1.1833  0.8634
 5505SOL    HW321787   4.892   0.557   4.989 -0.1546 -1.3068  0.6801
 5505SOL    MW421788   4.830   0.558   4.928 -0.1251 -0.2715  0.3076
 5506SOL     OW21789   5.615   2.890   1.985 -0.0453  0.2208  0.0086
 5506SOL    HW221790   5.657   2.923   1.906 -0.0499  1.9867  0.7139
 5506SOL    HW321791   5.530   2.934   1.988 -0.8354 -1.2416  0.0419
 5506SOL    MW421792   5.609   2.900   1.975 -0.3878 -0.2326 -0.1080
 5507SOL     OW21793   0.250   0.826   2.605 -0.4131  0.0608 -0.5619
 5507SOL    HW221794   0.253   0.917   2.576  2.1353  1.0579  2.2803
 5507SOL    HW321795   0.196   0.827   2.684  0.9911 -0.4683  0.4652
 5507SOL    MW421796   0.243   0.838   2.612 -0.1594  0.4631 -0.2860
 5508SOL     OW21797   0.116   6.184   4.565  0.3420 -0.2545 -0.0883
 5508SOL    HW221798   0.166   6.150   4.490  1.4096  1.6811 -0.3240
 5508SOL    HW321799   0.167   6.259   4.595 -2.8738  2.5596 -1.0094
 5508SOL    MW421800   0.129   6.189   4.559  0.3769 -1.0949 -0.5943
 5509SOL     OW21801   1.588   3.468   1.900  0.0867 -0.0629 -0.8510
 5509SOL    HW221802   1.669   3.424   1.873 -0.1212 -0.1281 -1.3866
 5509SOL    HW321803   1.587   3.548   1.849  0.7368  0.8508  0.5217
 5509SOL    MW421804   1.599   3.472   1.890 -0.2353  0.1250 -0.6258
 5510SOL     OW21805   6.298   2.018   0.258 -0.5886 -0.2220  0.5710
 5510SOL    HW221806   6.238   2.040   0.329 -0.0498  0.5653  0.7974
 5510SOL    HW321807   6.286   1.924   0.244 -1.8973 -0.0768  0.5811
 5510SOL    MW421808   6.289   2.008   0.266  0.0071 -0.0480 -0.2328
 5511SOL     OW21809   3.719   4.310   0.586 -0.6129 -0.2509 -0.6218
 5511SOL    HW221810   3.761   4.306   0.500 -0.3219  0.9941 -0.5519
 5511SOL    HW321811   3.728   4.221   0.620  1.1476 -0.2669 -1.0073
 5511SOL    MW421812   3.726   4.297   0.579  0.1459  0.1342 -0.3679
 5512SOL     OW21813   3.051   6.077   6.202 -0.1996 -0.3715 -0.4079
 5512SOL    HW221814   3.072   5.989   6.232  0.2268 -0.3578 -0.6501
 5512SOL    HW321815   3.112   6.134   6.248 -2.0490  0.1047  1.6203
 5512SOL    MW421816   3.062   6.073   6.212 -0.8354  0.1160 -0.1742
 5513SOL     OW21817   5.621   2.030   5.481 -0.3942 -0.0046  0.2330
 5513SOL    HW221818   5.678   2.032   5.404  0.5729 -0.8376  0.8959
 5513SOL    HW321819   5.581   1.943   5.480 -2.0761  0.7263 -0.4813
 5513SOL    MW421820   5.623   2.019   5.471  0.3945 -0.3021 -0.3270
 5514SOL     OW21821   5.660   2.120   1.072  0.0962 -0.1876  0.6890
 5514SOL    HW221822   5.635   2.045   1.017 -0.7339  0.1297  0.6290
 5514SOL    HW321823   5.602   2.115   1.148 -0.0277  0.4592  0.6362
 5514SOL    MW421824   5.649   2.109   1.075  0.1375 -0.5689 -0.6635
 5515SOL     OW21825   3.350   4.605   5.393 -0.0112 -0.2784 -0.1040
 5515SOL    HW221826   3.309   4.690   5.377 -1.4069 -0.8209  0.4326
 5515SOL    HW321827   3.417   4.598   5.326 -0.4728  0.8660 -0.7209
 5515SOL    MW421828   3.353   4.616   5.382 -0.5401  0.2044  0.3332
 5516SOL     OW21829   5.705   6.059   6.284  0.3242  0.2519 -0.2480
 5516SOL    HW221830   5.676   6.073   6.375 -0.3793  0.8095 -0.5477
 5516SOL    HW321831   5.641   5.998   6.248  0.9562 -0.4526 -0.1969
 5516SOL    MW421832   5.692   6.053   6.291 -0.2853  0.0103 -0.2988
 5517SOL     OW21833   5.990   6.278   0.299 -0.3005 -0.2848 -0.7612
 5517SOL    HW221834   6.068   6.334   0.303 -0.8051  0.4503 -1.0731
 5517SOL    HW321835   5.927   6.328   0.246 -0.9106 -0.9630 -0.6878
 5517SOL    MW421836   5.992   6.292   0.292 -0.2773  0.1105 -0.3587
 5518SOL     OW21837   1.379   1.433   2.038 -0.2023 -0.5968 -0.3003
 5518SOL    HW221838   1.321   1.458   2.109  0.5209 -1.4920  0.6268
 5518SOL    HW321839   1.331   1.365   1.990 -0.5752 -0.1900 -0.5090
 5518SOL    MW421840   1.365   1.427   2.041  0.2719 -0.1714 -0.2902
 5519SOL     OW21841   2.199   5.784   0.262 -0.4451 -0.3372  0.2902
 5519SOL    HW221842   2.164   5.721   0.325 -0.9541  0.6784  1.0530
 5519SOL    HW321843   2.294   5.778   0.273 -0.4817 -1.0857  0.2357
 5519SOL    MW421844   2.207   5.775   0.272  0.6446 -0.1358 -0.4644
 5520SOL     OW21845   2.134   4.660   5.998 -0.4763  0.4095  0.0915
 5520SOL    HW221846   2.080   4.732   6.029 -0.6623 -0.7176  2.6041
 5520SOL    HW321847   2.079   4.616   5.933 -0.3064  2.5096 -1.5793
 5520SOL    MW421848   2.119   4.664   5.993  0.4630  0.2074 -0.0986
 5521SOL     OW21849   0.790   5.599   4.684  0.1929  0.0140  0.4581
 5521SOL    HW221850   0.715   5.570   4.735 -0.3432  0.6648  0.0533
 5521SOL    HW321851   0.771   5.572   4.594  0.6081 -0.1255  0.4090
 5521SOL    MW421852   0.778   5.592   4.679  0.3200 -0.0405 -0.0945
 5522SOL     OW21853   2.632   1.078   3.011  0.1025 -0.0037  0.1744
 5522SOL    HW221854   2.661   1.038   3.093 -1.2450 -0.5508  0.4056
 5522SOL    HW321855   2.706   1.133   2.985  0.5579  0.2161  1.7727
 5522SOL    MW421856   2.646   1.080   3.019 -0.1808 -0.1814  0.2512
 5523SOL     OW21857   1.327   3.099   0.991 -0.4779 -0.0353 -0.3484
 5523SOL    HW221858   1.249   3.147   1.019 -0.2863 -0.0170  0.1611
 5523SOL    HW321859   1.303   3.007   1.000  0.7009 -0.1238  3.2540
 5523SOL    MW421860   1.313   3.093   0.996 -0.4695  0.1292  0.2223
 5524SOL     OW21861   4.630   4.431   2.657  0.2449  0.0511  0.6576
 5524SOL    HW221862   4.719   4.406   2.632  0.2654  0.1207  0.6619
 5524SOL    HW321863   4.585   4.445   2.574 -0.3598 -2.0405  0.5779
 5524SOL    MW421864   4.636   4.430   2.643  0.3984 -0.5851 -0.0532
 5525SOL     OW21865   2.943   6.127   5.528 -0.5207  0.3670 -0.5535
 5525SOL    HW221866   2.920   6.212   5.491 -1.5199 -0.2192 -1.3582
 5525SOL    HW321867   2.978   6.077   5.454  1.3732  0.4985  0.1974
 5525SOL    MW421868   2.944   6.131   5.513  0.2293  0.4181 -0.1403
 5526SOL     OW21869   5.435   1.553   1.893 -0.0971  0.2630 -0.4620
 5526SOL    HW221870   5.374   1.539   1.965 -1.0836  0.2158 -1.2805
 5526SOL    HW321871   5.441   1.468   1.850 -0.7641  0.6508 -1.3623
 5526SOL    MW421872   5.427   1.540   1.897  0.8935 -0.8931  0.2561
 5527SOL     OW21873   3.776   0.652   0.657 -0.1261  0.1780 -0.1843
 5527SOL    HW221874   3.847   0.601   0.617 -1.3326 -2.2529  0.5757
 5527SOL    HW321875   3.721   0.679   0.583  0.0820 -0.3656 -0.5417
 5527SOL    MW421876   3.778   0.649   0.642  0.2612 -0.1088  0.3022
 5528SOL     OW21877   0.071   5.526   6.308  0.0211 -0.0086 -0.2035
 5528SOL    HW221878   0.021   5.544   6.387  0.8773 -0.1110  0.3833
 5528SOL    HW321879   0.097   5.434   6.317  0.2639  0.0257 -0.5256
 5528SOL    MW421880   0.068   5.516   6.320  0.3539 -0.0987  0.2521
 5529SOL     OW21881   1.592   1.999   3.752  0.6927  0.9768 -0.4036
 5529SOL    HW221882   1.663   1.951   3.711  1.0145 -0.2100  1.4188
 5529SOL    HW321883   1.628   2.029   3.835 -0.9694  0.1554  0.6742
 5529SOL    MW421884   1.606   1.997   3.758  1.0037  1.1046 -0.0921
 5530SOL     OW21885   5.763   5.976   2.615  0.1036  0.2464  0.1199
 5530SOL    HW221886   5.743   5.925   2.694 -0.5920 -0.2236 -0.3464
 5530SOL    HW321887   5.723   5.926   2.544  1.6439  0.1005 -0.6871
 5530SOL    MW421888   5.755   5.963   2.616 -0.0789  0.2454 -0.5882
 5531SOL     OW21889   0.345   3.053   1.909  0.7201  0.2598  0.1761
 5531SOL    HW221890   0.405   3.038   1.836 -0.9378 -2.1702 -0.8268
 5531SOL    HW321891   0.258   3.036   1.872 -0.1473 -1.8481  2.8285
 5531SOL    MW421892   0.341   3.048   1.895 -0.9024 -0.3883 -0.5542
 5532SOL     OW21893   4.021   6.227   2.817  0.6013 -0.1367 -0.0031
 5532SOL    HW221894   3.996   6.319   2.804  0.5852 -0.1767 -0.2532
 5532SOL    HW321895   3.980   6.203   2.901  1.3985  0.3643  0.5480
 5532SOL    MW421896   4.013   6.236   2.827  0.0460  0.0052 -0.0722
 5533SOL     OW21897   1.393   1.232   4.890  0.3118 -0.1546 -0.3466
 5533SOL    HW221898   1.469   1.176   4.875  0.1901 -0.5615  0.4708
 5533SOL    HW321899   1.344   1.187   4.959 -0.4994  0.2709 -0.6334
 5533SOL    MW421900   1.397   1.219   4.897 -0.1590  0.3533 -0.0114
 5534SOL     OW21901   3.989   0.309   3.008 -0.2740  0.2132 -0.1873
 5534SOL    HW221902   4.034   0.264   2.937 -0.5632 -0.0516 -0.2094
 5534SOL    HW321903   4.055   0.319   3.077 -0.1615 -0.0944 -0.2499
 5534SOL    MW421904   4.003   0.304   3.008  0.1102  0.1771  0.5133
 5535SOL     OW21905   3.125   4.558   0.263  0.0782  0.2268  0.2036
 5535SOL    HW221906   3.072   4.488   0.226  0.1083 -0.3298  1.1753
 5535SOL    HW321907   3.073   4.592   0.335  0.8157  0.0115  0.8514
 5535SOL    MW421908   3.111   4.553   0.267 -0.7549  0.2148 -0.2000
 5536SOL     OW21909   5.818   2.677   1.786  0.4525 -0.0001 -0.0475
 5536SOL    HW221910   5.848   2.766   1.799  0.3133  0.1899 -0.9403
 5536SOL    HW321911   5.785   2.676   1.696 -1.7187 -0.3167  0.6872
 5536SOL    MW421912   5.817   2.688   1.776 -0.3106 -0.1978 -0.0056
 5537SOL     OW21913   1.062   1.171   5.527 -0.0174  0.2519  0.3496
 5537SOL    HW221914   1.084   1.206   5.441 -2.3240  0.5628 -0.1725
 5537SOL    HW321915   0.968   1.187   5.537 -0.2935 -1.8812  1.9520
 5537SOL    MW421916   1.053   1.178   5.517  0.1939  0.4594  0.3971
 5538SOL     OW21917   4.081   0.874   4.258  0.5305  0.3660  0.6620
 5538SOL    HW221918   4.163   0.844   4.220  0.9031  1.6593  0.3898
 5538SOL    HW321919   4.087   0.850   4.351  0.3198 -1.3405  0.2689
 5538SOL    MW421920   4.092   0.867   4.266 -0.8210  0.0562 -0.4669
 5539SOL     OW21921   5.046   3.540   0.052 -0.2058  0.6577 -0.2764
 5539SOL    HW221922   5.039   3.633   0.028 -1.3321  0.1491 -2.0691
 5539SOL    HW321923   5.011   3.536   0.141 -0.7505  1.8546 -0.4068
 5539SOL    MW421924   5.041   3.552   0.061  0.2895  0.0499 -0.4706
 5540SOL     OW21925   1.855   2.337   4.109  0.5324 -0.0371  0.2818
 5540SOL    HW221926   1.762   2.347   4.129 -0.0928 -2.7333 -0.7581
 5540SOL    HW321927   1.900   2.387   4.177 -1.6533  2.8159 -0.1966
 5540SOL    MW421928   1.849   2.345   4.121 -0.4010 -0.1902  0.1617
 5541SOL     OW21929   5.467   6.225   5.144  0.0582 -0.4003 -0.1256
 5541SOL    HW221930   5.430   6.220   5.232 -0.3814 -3.7965 -0.3667
 5541SOL    HW321931   5.392   6.241   5.087  0.3500  1.8576  0.0100
 5541SOL    MW421932   5.452   6.227   5.148 -0.7735 -0.8838 -0.6279
 5542SOL     OW21933   2.616   0.241   4.845 -0.7897 -0.1190 -0.2897
 5542SOL    HW221934   2.699   0.287   4.840 -2.2141  2.5246 -2.3463
 5542SOL    HW321935   2.620   0.176   4.775 -0.0861 -0.7509  0.3247
 5542SOL    MW421936   2.627   0.238   4.835  0.6927 -0.1380 -0.7487
 5543SOL     OW21937   5.874   5.095   0.487  0.2225 -0.1967  0.4180
 5543SOL    HW221938   5.811   5.026   0.465 -0.3780 -0.2312  2.0661
 5543SOL    HW321939   5.948   5.079   0.429 -0.7495 -0.9474 -0.6802
 5543SOL    MW421940   5.875   5.084   0.476  0.1999  0.7095  0.0043
 5544SOL     OW21941   0.598   3.940   3.332 -0.3195 -0.4539 -0.0481
 5544SOL    HW221942   0.613   3.926   3.239 -0.7843 -1.6248  0.0340
 5544SOL    HW321943   0.653   3.875   3.376  0.8027  0.8576  0.5587
 5544SOL    MW421944   0.607   3.929   3.326  0.9230 -0.0922  0.2707
 5545SOL     OW21945   0.644   4.225   3.223 -0.3200 -0.1110 -0.3629
 5545SOL    HW221946   0.726   4.190   3.258 -0.8495  0.6029  1.7479
 5545SOL    HW321947   0.652   4.215   3.129  2.5049  0.5965 -0.2900
 5545SOL    MW421948   0.656   4.219   3.215  0.5571 -0.6620  0.6855
 5546SOL     OW21949   0.530   2.817   3.172 -0.1802 -0.1866 -0.0922
 5546SOL    HW221950   0.506   2.854   3.087 -2.4331 -0.1562  0.4827
 5546SOL    HW321951   0.449   2.777   3.204  0.7694 -0.7296  1.7861
 5546SOL    MW421952   0.516   2.816   3.165 -0.9502 -0.4190 -0.3008
 5547SOL     OW21953   4.098   2.326   2.182 -0.0491  0.0127 -0.4741
 5547SOL    HW221954   4.054   2.365   2.258  0.0867  0.5929 -0.6831
 5547SOL    HW321955   4.189   2.355   2.190  0.5703 -2.0704  0.5408
 5547SOL    MW421956   4.104   2.335   2.193  0.2544 -0.1219  0.5899
 5548SOL     OW21957   4.624   4.304   4.319 -0.4172  0.2953  0.2756
 5548SOL    HW221958   4.566   4.336   4.250 -0.8255 -0.5322  0.2263
 5548SOL    HW321959   4.712   4.316   4.283 -0.5637  1.1661  0.1836
 5548SOL    MW421960   4.628   4.309   4.305 -0.4354  0.1830  0.4319
 5549SOL     OW21961   0.387   0.666   1.743 -0.0231 -0.3887 -0.1589
 5549SOL    HW221962   0.362   0.620   1.663 -1.3603 -2.3608  1.2888
 5549SOL    HW321963   0.428   0.598   1.797  0.0907  0.6832  1.1394
 5549SOL    MW421964   0.389   0.651   1.740  0.7435 -0.4598  0.4220
 5550SOL     OW21965   4.740   1.676   6.384 -0.3369 -0.6596 -0.7052
 5550SOL    HW221966   4.791   1.711   6.458  0.3308 -3.3421  0.2073
 5550SOL    HW321967   4.654   1.715   6.394  0.3086  0.5976  0.2882
 5550SOL    MW421968   4.736   1.686   6.395 -0.1212 -0.4701  0.3461
 5551SOL     OW21969   4.512   3.388   4.577  0.0736 -0.0986 -0.0692
 5551SOL    HW221970   4.467   3.304   4.565  0.9798 -0.5144 -0.7076
 5551SOL    HW321971   4.605   3.365   4.577  0.3044  0.7361  1.2308
 5551SOL    MW421972   4.518   3.374   4.576 -0.3262  0.2562 -0.1456
 5552SOL     OW21973   4.231   4.254   4.010 -0.1918  0.4154  1.0138
 5552SOL    HW221974   4.167   4.185   3.994 -2.5145  3.0206 -2.4226
 5552SOL    HW321975   4.205   4.292   4.094 -0.3250 -1.2731  1.7833
 5552SOL    MW421976   4.219   4.250   4.019 -0.0376 -0.6358 -0.1205
 5553SOL     OW21977   5.414   0.412   4.098 -0.1121  0.3932 -0.4595
 5553SOL    HW221978   5.378   0.480   4.040 -1.1400  0.2476 -0.0107
 5553SOL    HW321979   5.500   0.393   4.061 -0.5875  0.5755 -1.7168
 5553SOL    MW421980   5.420   0.419   4.085  0.0213 -0.2715 -0.8158
 5554SOL     OW21981   6.340   3.079   4.909 -0.1241  0.4162  0.6325
 5554SOL    HW221982   6.295   3.116   4.833  0.1959  0.9818  0.7135
 5554SOL    HW321983   6.306   3.128   4.983 -2.7175 -2.1172  1.2891
 5554SOL    MW421984   6.330   3.090   4.909 -0.2768 -0.9289  0.9444
 5555SOL     OW21985   6.383   1.776   0.445 -0.8290 -0.0801  0.0638
 5555SOL    HW221986   6.423   1.784   0.531 -1.0398 -0.4373  0.1959
 5555SOL    HW321987   6.354   1.685   0.440 -1.8779  0.2433  0.0853
 5555SOL    MW421988   6.384   1.765   0.456  0.0080 -0.2897 -0.3507
 5556SOL     OW21989   3.116   4.630   2.693 -0.3716 -0.5601 -0.4115
 5556SOL    HW221990   3.168   4.609   2.771  1.3370  0.2880 -1.2789
 5556SOL    HW321991   3.090   4.722   2.707 -1.6121 -0.9458 -0.0314
 5556SOL    MW421992   3.120   4.640   2.705 -0.4331  0.2293 -0.0329
 5557SOL     OW21993   0.903   5.386   0.396  0.4622  0.0173  0.3641
 5557SOL    HW221994   0.830   5.401   0.456  1.3923 -1.7500  2.0423
 5557SOL    HW321995   0.863   5.390   0.309 -1.7049 -1.0588  1.2105
 5557SOL    MW421996   0.888   5.389   0.392 -0.1906  0.5264  0.2699
 5558SOL     OW21997   4.927   6.010   3.471 -0.5080 -0.3263 -0.0454
 5558SOL    HW221998   4.967   6.025   3.557 -2.2707 -0.7877  0.9068
 5558SOL    HW321999   4.944   5.918   3.453 -0.9542 -0.4823  0.2891
 5558SOL    MW422000   4.934   6.000   3.480  0.0494  0.0689  0.0894
 5559SOL     OW22001   3.934   4.704   2.358 -0.4232 -0.0828  0.2088
 5559SOL    HW222002   3.880   4.726   2.283 -0.7108 -0.2998  0.3481
 5559SOL    HW322003   4.024   4.713   2.327 -0.5249 -1.2073 -0.4746
 5559SOL    MW422004   3.939   4.708   2.344  0.1157  0.1224 -0.2325
 5560SOL     OW22005   4.668   1.367   1.174  0.6676  0.0494  0.0212
 5560SOL    HW222006   4.587   1.324   1.148  0.6267 -0.6324  1.2307
 5560SOL    HW322007   4.714   1.383   1.091 -0.8465  0.7977 -0.7164
 5560SOL    MW422008   4.663   1.364   1.159  0.0561  0.3540 -0.3100
 5561SOL     OW22009   5.834   4.869   2.843 -1.5401  0.3629 -0.5983
 5561SOL    HW222010   5.802   4.788   2.884 -2.4641 -0.9032 -3.4997
 5561SOL    HW322011   5.899   4.839   2.780 -0.9403  2.0658 -0.8224
 5561SOL    MW422012   5.838   4.854   2.840 -0.9516  0.6603  0.4198
 5562SOL     OW22013   1.394   0.567   2.433  0.0915 -0.3329  0.7884
 5562SOL    HW222014   1.344   0.618   2.369 -2.2137 -1.6989  1.3745
 5562SOL    HW322015   1.418   0.487   2.387  0.2629 -0.4111  1.0135
 5562SOL    MW422016   1.390   0.564   2.419  0.0553  0.2913 -0.2005
 5563SOL     OW22017   2.252   4.319   6.378 -0.0637 -0.1017 -0.5992
 5563SOL    HW222018   2.186   4.358   6.435  0.9999  2.5330 -1.0407
 5563SOL    HW322019   2.324   4.295   6.437  1.7652  4.1550 -0.7266
 5563SOL    MW422020   2.253   4.321   6.394  0.0347 -0.3804 -0.0030
 5564SOL     OW22021   4.432   1.084   4.593  0.0190 -1.2551 -0.4134
 5564SOL    HW222022   4.444   0.999   4.551 -1.3895 -2.3019  1.1802
 5564SOL    HW322023   4.398   1.141   4.524 -0.6906 -2.4721 -1.0985
 5564SOL    MW422024   4.429   1.080   4.579 -0.2338  0.1340  0.1864
 5565SOL     OW22025   5.385   3.978   1.578 -0.4200  0.0670 -0.1825
 5565SOL    HW222026   5.354   4.041   1.644 -2.8944  0.3383 -1.4597
 5565SOL    HW322027   5.452   4.026   1.529 -1.9106  1.6437 -0.8166
 5565SOL    MW422028   5.390   3.993   1.580  0.0223 -0.4604 -0.0356
 5566SOL     OW22029   4.270   1.993   3.011  0.1479 -0.1769  0.4764
 5566SOL    HW222030   4.256   1.903   3.041 -0.5037 -0.9593 -1.9333
 5566SOL    HW322031   4.191   2.040   3.036  0.1249 -0.4928  1.0095
 5566SOL    MW422032   4.258   1.987   3.018  0.2767  0.3401  0.5033
 5567SOL     OW22033   0.506   5.463   1.813  0.0354 -0.4271  0.1476
 5567SOL    HW222034   0.540   5.378   1.839  2.4084  0.1268 -0.9103
 5567SOL    HW322035   0.504   5.514   1.894 -0.3997 -1.1462  0.5968
 5567SOL    MW422036   0.510   5.459   1.827  0.3662 -0.7270  0.0210
 5568SOL     OW22037   0.707   5.404   5.879 -0.3370  0.2305  0.6868
 5568SOL    HW222038   0.749   5.490   5.880  0.5911 -0.2104  0.1735
 5568SOL    HW322039   0.613   5.423   5.882 -0.1613  1.2812 -0.0949
 5568SOL    MW422040   0.700   5.418   5.880  0.0194 -0.6728 -0.1670
 5569SOL     OW22041   1.688   3.867   6.183 -0.1601  0.0403  0.4280
 5569SOL    HW222042   1.662   3.935   6.121  0.8730 -0.6744 -0.8499
 5569SOL    HW322043   1.755   3.817   6.137  1.0246 -0.2250  2.3235
 5569SOL    MW422044   1.693   3.869   6.169 -0.1301 -0.2856 -0.0033
 5570SOL     OW22045   4.665   3.184   1.630  0.0451 -0.2694  0.0658
 5570SOL    HW222046   4.712   3.141   1.701  1.1651  2.0489  0.8356
 5570SOL    HW322047   4.724   3.180   1.555 -0.8810 -2.1650 -0.6233
 5570SOL    MW422048   4.679   3.178   1.630  0.6132 -0.2377  0.6233
 5571SOL     OW22049   0.938   2.076   0.421  0.0180  0.3678  0.2602
 5571SOL    HW222050   0.971   2.111   0.339  0.5738  0.5509  0.5544
 5571SOL    HW322051   0.874   2.140   0.451  0.5668  0.8237  0.4775
 5571SOL    MW422052   0.934   2.089   0.414  0.0817 -0.1241  0.6555
 5572SOL     OW22053   2.289   2.731   3.837  0.6344 -0.4763 -0.5247
 5572SOL    HW222054   2.383   2.723   3.848  0.7620 -0.1332 -1.3281
 5572SOL    HW322055   2.275   2.820   3.804 -0.0554 -0.1875  0.4934
 5572SOL    MW422056   2.299   2.742   3.834  0.1690  0.1283 -0.4431
 5573SOL     OW22057   0.552   0.142   2.742 -0.1331  0.3598 -0.1782
 5573SOL    HW222058   0.564   0.116   2.833  1.5053 -0.3635 -0.5749
 5573SOL    HW322059   0.472   0.096   2.715 -0.7050  0.6817  0.9056
 5573SOL    MW422060   0.543   0.133   2.750  0.7288 -0.3908  0.1676
 5574SOL     OW22061   1.759   3.164   1.131 -0.1395  0.1604 -0.5581
 5574SOL    HW222062   1.788   3.077   1.103  0.5112 -0.2449  1.2500
 5574SOL    HW322063   1.839   3.215   1.141 -0.2008 -0.0429  1.4965
 5574SOL    MW422064   1.773   3.159   1.129  0.0349  0.2633  0.1415
 5575SOL     OW22065   1.405   0.597   1.376  0.1750  0.7521 -0.6157
 5575SOL    HW222066   1.434   0.686   1.355 -0.2111  0.6145 -1.7949
 5575SOL    HW322067   1.444   0.579   1.461 -0.4850  2.3900  0.0834
 5575SOL    MW422068   1.414   0.606   1.384 -0.0056 -0.1459 -0.1474
 5576SOL     OW22069   5.634   4.633   4.996 -0.2041  0.3857  0.8877
 5576SOL    HW222070   5.705   4.681   4.954  1.3655 -2.8193 -0.4985
 5576SOL    HW322071   5.573   4.612   4.925 -0.2747 -0.5613  1.2103
 5576SOL    MW422072   5.635   4.637   4.981  0.5953 -0.3458 -0.1023
 5577SOL     OW22073   3.056   1.744   5.037 -0.3133  0.1393  0.1255
 5577SOL    HW222074   3.109   1.665   5.029  2.2678  1.5245  1.8207
 5577SOL    HW322075   3.001   1.729   5.113 -1.4764 -0.8183 -0.8695
 5577SOL    MW422076   3.056   1.732   5.046 -0.3110  0.3011 -0.0513
 5578SOL     OW22077   0.675   0.279   3.698  0.8017 -0.5457 -0.4012
 5578SOL    HW222078   0.600   0.221   3.698  0.1614  0.2172  0.7511
 5578SOL    HW322079   0.644   0.360   3.657  0.2390  0.5669  1.9818
 5578SOL    MW422080   0.661   0.282   3.693  0.1193  0.1859 -0.2009
 5579SOL     OW22081   5.737   2.673   5.025  0.7851 -0.7452  0.5014
 5579SOL    HW222082   5.750   2.749   4.968 -0.5127  0.1902  1.3861
 5579SOL    HW322083   5.759   2.704   5.112  0.4186 -1.4350  0.8518
 5579SOL    MW422084   5.741   2.687   5.029  0.3666  0.2041 -0.8136
 5580SOL     OW22085   0.004   6.013   2.845 -0.6097 -0.2939  0.4569
 5580SOL    HW222086  -0.060   6.002   2.775 -0.2167 -2.5411  0.3742
 5580SOL    HW322087   0.075   6.062   2.805 -1.0952 -0.1632 -0.2578
 5580SOL    MW422088   0.005   6.018   2.830 -0.5592 -0.1280  0.3296
 5581SOL     OW22089   2.554   3.438   2.090  0.1905  0.3057 -0.0056
 5581SOL    HW222090   2.535   3.346   2.107  0.2615  0.2895 -0.0124
 5581SOL    HW322091   2.600   3.468   2.169 -2.4181  1.1206  1.3321
 5581SOL    MW422092   2.558   3.430   2.103  0.0357 -0.0218  0.2058
 5582SOL     OW22093   6.388   6.115   3.797 -0.3147 -0.0111 -0.1861
 5582SOL    HW222094   6.396   6.118   3.892 -2.0278  1.6465 -0.0279
 5582SOL    HW322095   6.417   6.202   3.768 -1.1861  0.0188 -1.0229
 5582SOL    MW422096   6.393   6.127   3.806 -0.4962 -0.1056  0.0934
 5583SOL     OW22097   4.723   6.248   4.270  0.2512  0.4865  0.1116
 5583SOL    HW222098   4.719   6.267   4.364  0.0511  1.3103 -0.0557
 5583SOL    HW322099   4.727   6.152   4.265 -1.9290  0.2971  0.9035
 5583SOL    MW422100   4.723   6.238   4.282 -0.3495  0.0138 -0.7167
 5584SOL     OW22101   0.044   4.258   0.678 -0.6276  0.2649 -0.2352
 5584SOL    HW222102   0.034   4.273   0.772  0.8692 -0.2442  0.0419
 5584SOL    HW322103   0.095   4.333   0.647  0.2413 -0.3400 -0.3172
 5584SOL    MW422104   0.049   4.269   0.686 -0.1831 -0.3436 -0.2202
 5585SOL     OW22105   5.042   2.910   5.244  0.0951  0.0040  0.0629
 5585SOL    HW222106   5.006   2.993   5.277 -0.7093  0.0586 -0.8797
 5585SOL    HW322107   4.998   2.898   5.160 -0.0510 -1.5672  0.3493
 5585SOL    MW422108   5.031   2.920   5.237  0.0610 -0.0726  0.2209
 5586SOL     OW22109   3.025   3.598   3.919  0.1572 -0.0610 -0.5796
 5586SOL    HW222110   3.017   3.535   3.848  0.9533 -0.7549 -0.0777
 5586SOL    HW322111   3.119   3.615   3.926 -0.0349  1.1212 -0.6433
 5586SOL    MW422112   3.036   3.592   3.911 -0.1648  0.4929 -0.1999
 5587SOL     OW22113   1.774   4.800   1.533  0.4733 -0.1724  0.9579
 5587SOL    HW222114   1.688   4.774   1.498  0.0037  1.0062  1.1819
 5587SOL    HW322115   1.797   4.879   1.483 -0.3590  1.7429  3.3803
 5587SOL    MW422116   1.766   4.807   1.522  0.1684  0.3552  0.1599
 5588SOL     OW22117   5.495   2.724   6.377  0.4652  0.3785  0.2242
 5588SOL    HW222118   5.500   2.636   6.415  1.9208  0.6394  0.6898
 5588SOL    HW322119   5.449   2.776   6.443 -1.1425 -0.1695 -0.3978
 5588SOL    MW422120   5.490   2.720   6.391 -0.4346  0.5094  0.0622
 5589SOL     OW22121   3.343   4.937   2.824 -0.3364  0.2560 -0.5092
 5589SOL    HW222122   3.339   4.984   2.907 -1.6241  0.6930 -0.8125
 5589SOL    HW322123   3.361   4.846   2.850 -1.4940  0.2414  0.3032
 5589SOL    MW422124   3.345   4.931   2.838  0.6070  0.4720 -0.0378
 5590SOL     OW22125   3.523   5.992   3.898  0.2655 -0.1214 -0.4105
 5590SOL    HW222126   3.471   5.938   3.958 -0.0902  0.3903 -0.2549
 5590SOL    HW322127   3.504   5.956   3.811  0.4309 -0.5723 -0.2638
 5590SOL    MW422128   3.514   5.980   3.894 -0.3186  1.0985 -0.0318
 5591SOL     OW22129   1.718   2.522   4.643  0.5296  0.0174 -0.1793
 5591SOL    HW222130   1.749   2.432   4.644 -1.2892 -0.6368 -0.3420
 5591SOL    HW322131   1.623   2.516   4.651  0.3281  1.9098 -0.5553
 5591SOL    MW422132   1.710   2.510   4.644 -0.3718 -0.6045  0.4372
 5592SOL     OW22133   0.339   4.283   3.895 -0.6869 -0.1372 -0.3826
 5592SOL    HW222134   0.411   4.332   3.935  0.3228 -1.1940 -0.8452
 5592SOL    HW322135   0.367   4.267   3.805 -2.0968  0.5755 -0.9843
 5592SOL    MW422136   0.352   4.287   3.889 -0.5653  0.3927  0.3516
 5593SOL     OW22137   0.434   2.090   3.857  0.3488 -1.2876  0.6975
 5593SOL    HW222138   0.355   2.126   3.897 -0.2381 -1.6504 -0.1085
 5593SOL    HW322139   0.412   1.998   3.838  0.4903 -1.0608 -0.7084
 5593SOL    MW422140   0.421   2.082   3.860  0.0395 -0.5245 -0.6074
 5594SOL     OW22141   5.872   5.864   1.432  0.1320 -0.2310  0.0184
 5594SOL    HW222142   5.953   5.895   1.390  0.9672 -1.3826  0.7087
 5594SOL    HW322143   5.828   5.944   1.461 -0.6399  0.6611 -3.2056
 5594SOL    MW422144   5.877   5.879   1.431  0.1525 -0.3945  0.1714
 5595SOL     OW22145   3.639   5.505   5.914  0.1416  0.6330 -0.2966
 5595SOL    HW222146   3.591   5.447   5.973 -0.0226 -0.1807 -1.1899
 5595SOL    HW322147   3.731   5.479   5.924  0.3640  1.8056  0.9939
 5595SOL    MW422148   3.645   5.494   5.923 -0.3176  0.2427 -0.9524
 5596SOL     OW22149   5.020   0.227   1.487  0.3892  0.1231  0.2792
 5596SOL    HW222150   5.040   0.245   1.579 -1.3165  0.8262  0.5467
 5596SOL    HW322151   4.945   0.282   1.468 -1.3419 -2.3872 -0.6037
 5596SOL    MW422152   5.013   0.237   1.497  0.1548  0.3855  0.0244
 5597SOL     OW22153   1.885   1.099   6.146  0.8540 -0.1245  0.5379
 5597SOL    HW222154   1.846   1.147   6.218 -1.3604  1.4552 -1.5459
 5597SOL    HW322155   1.919   1.167   6.087 -1.8137 -0.9566 -2.2172
 5597SOL    MW422156   1.885   1.114   6.148 -0.1313 -1.0206 -0.1995
 5598SOL     OW22157   1.820   2.764   3.234 -0.2953 -0.0169 -0.2544
 5598SOL    HW222158   1.838   2.733   3.145  0.9283 -1.6036  0.5005
 5598SOL    HW322159   1.809   2.858   3.225 -0.1766 -0.1475 -2.0756
 5598SOL    MW422160   1.821   2.772   3.221  0.0429  0.0066  0.2003
 5599SOL     OW22161   1.258   4.231   1.992  0.5245  1.0001 -0.5214
 5599SOL    HW222162   1.352   4.222   1.974  0.3158 -1.1515 -0.7077
 5599SOL    HW322163   1.247   4.199   2.082  0.0667  2.1476 -0.1386
 5599SOL    MW422164   1.269   4.226   2.002 -0.1089  0.0400 -0.0990
 5600SOL     OW22165   4.325   2.392   0.792 -0.3112  0.2937 -0.1779
 5600SOL    HW222166   4.394   2.329   0.810 -0.9783 -0.9928 -1.8577
 5600SOL    HW322167   4.302   2.428   0.878 -0.8182 -2.7485  1.0815
 5600SOL    MW422168   4.331   2.389   0.806 -0.5457 -0.1872  0.7788
 5601SOL     OW22169   2.104   5.720   4.469  0.4316 -0.5541  0.0838
 5601SOL    HW222170   2.103   5.733   4.564  0.3011 -0.6349  0.0943
 5601SOL    HW322171   2.178   5.772   4.438 -0.3123  0.5392  0.0763
 5601SOL    MW422172   2.113   5.728   4.478  0.0913 -0.1533 -0.4593
 5602SOL     OW22173   5.373   3.019   6.205 -0.5569 -0.4097 -0.1929
 5602SOL    HW222174   5.427   2.947   6.173  0.2418  0.5328 -1.0385
 5602SOL    HW322175   5.339   3.061   6.126  0.6805  1.3777  0.1520
 5602SOL    MW422176   5.376   3.015   6.191  0.0604  0.2544 -0.4777
 5603SOL     OW22177   3.851   1.914   1.794 -0.6141 -0.4016  0.3420
 5603SOL    HW222178   3.837   1.990   1.851 -1.0242 -0.8665  0.8785
 5603SOL    HW322179   3.766   1.897   1.755 -0.5725 -0.7146  0.3880
 5603SOL    MW422180   3.838   1.922   1.797 -0.8595 -0.4075  0.7894
 5604SOL     OW22181   2.753   4.570   3.406 -0.0851  0.2472  0.1842
 5604SOL    HW222182   2.757   4.622   3.487 -0.1186  0.6188 -0.0481
 5604SOL    HW322183   2.844   4.551   3.384 -0.0464  0.6100  0.0191
 5604SOL    MW422184   2.765   4.575   3.414  0.0291 -0.1997 -0.1906
 5605SOL     OW22185   4.583   0.477   5.012  0.0217 -0.1523  0.0260
 5605SOL    HW222186   4.567   0.384   5.023  0.1404  0.0457  2.2671
 5605SOL    HW322187   4.583   0.513   5.101  1.6928  1.7050 -0.6320
 5605SOL    MW422188   4.581   0.470   5.025  0.9607  0.3449 -0.0367
 5606SOL     OW22189   4.666   5.123   2.519  1.0437  0.4613 -0.5926
 5606SOL    HW222190   4.595   5.077   2.474  2.0062 -0.3883 -1.2886
 5606SOL    HW322191   4.647   5.113   2.612  0.7343 -0.5580 -0.7579
 5606SOL    MW422192   4.654   5.116   2.526  0.3701  0.1545  0.3666
 5607SOL     OW22193   5.136   2.363   1.643 -0.4103 -1.0911 -0.2243
 5607SOL    HW222194   5.086   2.436   1.607  0.3997 -0.3028  0.2000
 5607SOL    HW322195   5.184   2.328   1.568  1.5480  0.7710  0.0452
 5607SOL    MW422196   5.136   2.368   1.628 -0.3362 -0.2809  0.2277
 5608SOL     OW22197   5.457   2.671   0.868  0.0023  0.3767  0.0365
 5608SOL    HW222198   5.419   2.584   0.862  1.1379 -0.1956  0.8237
 5608SOL    HW322199   5.470   2.697   0.777  1.8268 -1.2768 -0.2339
 5608SOL    MW422200   5.454   2.663   0.855  0.0775 -0.1204  0.1739
 5609SOL     OW22201   5.572   1.116   4.869  0.4857  0.5148  0.0592
 5609SOL    HW222202   5.647   1.158   4.827  0.1028  0.8989 -0.2533
 5609SOL    HW322203   5.510   1.100   4.798  1.0808 -1.6411 -0.0145
 5609SOL    MW422204   5.574   1.120   4.854  0.5456  0.1140 -0.2162
 5610SOL     OW22205   0.937   5.369   2.127 -0.0892 -0.0930 -0.1009
 5610SOL    HW222206   0.979   5.436   2.180  0.4255 -0.6195  0.1689
 5610SOL    HW322207   0.904   5.416   2.050 -0.8988  0.6892  0.7091
 5610SOL    MW422208   0.938   5.384   2.124 -0.3807 -0.3119  0.1174
 5611SOL     OW22209   0.940   0.115   3.668  0.3241 -0.1121 -0.1427
 5611SOL    HW222210   0.923   0.027   3.700 -0.0366 -0.4539 -1.2115
 5611SOL    HW322211   0.858   0.140   3.623  0.6065  0.5496 -0.3034
 5611SOL    MW422212   0.927   0.107   3.666  0.2497  0.2537  0.1246
 5612SOL     OW22213   3.743   0.651   2.123  0.0036 -0.3109  0.8580
 5612SOL    HW222214   3.777   0.575   2.170 -0.6923 -0.8142  0.5682
 5612SOL    HW322215   3.807   0.669   2.055 -1.4348 -2.8065 -1.3239
 5612SOL    MW422216   3.756   0.643   2.120 -0.2326 -0.9014  0.3040
 5613SOL     OW22217   2.333   1.857   5.615 -0.4283 -0.5601 -0.3276
 5613SOL    HW222218   2.273   1.785   5.596  0.6379 -2.2770  2.2419
 5613SOL    HW322219   2.320   1.875   5.708  1.7661  0.2539 -0.1304
 5613SOL    MW422220   2.323   1.850   5.624 -0.0841  0.1335 -0.1970
 5614SOL     OW22221   2.533   2.753   2.714  0.0868  0.0822  0.1642
 5614SOL    HW222222   2.579   2.678   2.676 -1.1557 -0.6927  0.1345
 5614SOL    HW322223   2.479   2.714   2.783  0.3387  1.1271  0.9730
 5614SOL    MW422224   2.532   2.738   2.718 -0.2430  0.4946  0.2094
 5615SOL     OW22225   2.257   0.487   3.748 -0.1479  0.0783 -0.7699
 5615SOL    HW222226   2.236   0.563   3.694 -0.0748  0.4633 -0.2563
 5615SOL    HW322227   2.209   0.415   3.706  1.2951 -0.0080 -2.4071
 5615SOL    MW422228   2.247   0.488   3.735 -0.3244  0.4819  0.3991
 5616SOL     OW22229   5.797   5.432   3.430 -0.3558  0.4717 -0.2422
 5616SOL    HW222230   5.722   5.385   3.396  0.1622 -3.0800  2.9187
 5616SOL    HW322231   5.761   5.514   3.464 -1.9700  0.7555 -2.4370
 5616SOL    MW422232   5.783   5.437   3.430  0.3064  0.5004  0.2390
 5617SOL     OW22233   4.802   1.127   4.938 -0.7517  0.2830  0.1520
 5617SOL    HW222234   4.842   1.159   4.857 -0.8266  3.2911  1.1833
 5617SOL    HW322235   4.829   1.035   4.943  1.4282  0.6994 -1.9654
 5617SOL    MW422236   4.811   1.119   4.928  0.6366 -0.1178  0.3140
 5618SOL     OW22237   5.324   1.328   0.937 -0.4624  0.2706 -0.3202
 5618SOL    HW222238   5.243   1.318   0.886 -0.3532 -1.8503 -0.1679
 5618SOL    HW322239   5.353   1.239   0.954  1.8323  0.9778 -0.1868
 5618SOL    MW422240   5.317   1.315   0.933 -0.0315 -0.6369  0.2888
 5619SOL     OW22241   1.649   4.189   4.323 -0.5563  0.2456  0.1635
 5619SOL    HW222242   1.575   4.142   4.284 -0.7883 -0.9861  1.9754
 5619SOL    HW322243   1.720   4.126   4.325  1.0430  1.7618 -2.6445
 5619SOL    MW422244   1.648   4.175   4.318 -0.1923  0.1398 -0.0366
 5620SOL     OW22245   2.220   2.513   1.792  0.7936 -0.4622  0.8213
 5620SOL    HW222246   2.311   2.484   1.782  1.5766  1.8993  0.5567
 5620SOL    HW322247   2.206   2.515   1.887  1.3870  0.2181  0.8981
 5620SOL    MW422248   2.230   2.509   1.803 -0.0457  0.6189 -0.2159
 5621SOL     OW22249   3.734   0.473   4.617  0.7422 -0.5127 -0.4040
 5621SOL    HW222250   3.682   0.544   4.655 -1.4437 -1.7912 -0.8727
 5621SOL    HW322251   3.723   0.400   4.677 -1.1092 -1.9276 -2.3218
 5621SOL    MW422252   3.726   0.473   4.630  0.0874 -0.5453  0.0150
 5622SOL     OW22253   0.881   5.927   3.706  0.0412 -0.2460  0.4341
 5622SOL    HW222254   0.962   5.939   3.656  0.2084 -0.8137  0.5593
 5622SOL    HW322255   0.902   5.960   3.793  0.1905 -0.5160  0.5053
 5622SOL    MW422256   0.895   5.933   3.710  0.0039 -0.2682 -0.3090
 5623SOL     OW22257   2.596   2.140   2.262 -0.3224  0.9630 -0.2039
 5623SOL    HW222258   2.570   2.160   2.172 -0.3697  2.4373  0.1252
 5623SOL    HW322259   2.639   2.219   2.294  2.1638 -0.4391  0.2059
 5623SOL    MW422260   2.598   2.153   2.255 -0.1083  0.6924  0.1979
 5624SOL     OW22261   3.102   3.982   4.336  0.0167  0.2640 -0.5203
 5624SOL    HW222262   3.148   3.971   4.253 -0.8656  1.4410 -1.1929
 5624SOL    HW322263   3.118   3.900   4.383  0.2138 -0.5880 -2.0012
 5624SOL    MW422264   3.110   3.970   4.331  0.7176 -0.1632  0.3632
 5625SOL     OW22265   0.294   2.989   2.587  0.2425 -0.3975  0.2969
 5625SOL    HW222266   0.329   3.071   2.621  1.2081 -1.1711  1.2446
 5625SOL    HW322267   0.301   2.928   2.660 -0.9009 -1.2126 -0.2422
 5625SOL    MW422268   0.299   2.992   2.601 -0.2725 -0.0948 -0.1009
 5626SOL     OW22269   2.809   6.214   6.311 -0.0828  0.0829  0.3134
 5626SOL    HW222270   2.765   6.139   6.353 -1.0203 -1.4584 -3.0888
 5626SOL    HW322271   2.887   6.177   6.271  0.4002  1.3328  0.0601
 5626SOL    MW422272   2.813   6.199   6.312 -0.2262  0.2065  0.1533
 5627SOL     OW22273   0.411   5.698   5.754  0.0569  0.7741  0.4513
 5627SOL    HW222274   0.497   5.707   5.712  0.1115 -0.2852  0.2981
 5627SOL    HW322275   0.352   5.751   5.700  0.2791  0.0634 -0.5343
 5627SOL    MW422276   0.415   5.706   5.741  0.9049 -0.0599  0.0392
 5628SOL     OW22277   4.794   1.558   5.670 -0.0483  0.5837 -0.4912
 5628SOL    HW222278   4.764   1.648   5.677 -0.9627  0.4924 -2.4971
 5628SOL    HW322279   4.731   1.507   5.721  2.4559  1.2757  3.7892
 5628SOL    MW422280   4.782   1.563   5.678 -0.1083  0.7899  0.6134
 5629SOL     OW22281   3.744   4.948   3.744  0.0732 -0.8910  0.2547
 5629SOL    HW222282   3.700   4.863   3.743 -1.4117 -0.1545 -0.8613
 5629SOL    HW322283   3.679   5.009   3.778  1.2676 -0.2400  1.4512
 5629SOL    MW422284   3.730   4.945   3.748  0.4464 -0.3362 -0.0836
 5630SOL     OW22285   0.232   3.779   0.266 -0.1052  0.3737 -0.6598
 5630SOL    HW222286   0.138   3.767   0.252 -0.5385  0.1961  1.9379
 5630SOL    HW322287   0.247   3.873   0.254 -0.7917  0.5428 -0.2385
 5630SOL    MW422288   0.222   3.790   0.262 -0.1510  0.3983  0.5548
 5631SOL     OW22289   1.737   2.937   2.292  0.0953  0.3467  0.0074
 5631SOL    HW222290   1.704   2.994   2.362  0.6171  1.6433 -0.7533
 5631SOL    HW322291   1.790   2.996   2.237  1.6418 -1.1417 -0.1657
 5631SOL    MW422292   1.740   2.953   2.294  0.0888 -0.5101 -0.1101
 5632SOL     OW22293   4.957   6.362   4.560 -0.1434  0.0529  0.2082
 5632SOL    HW222294   4.861   6.366   4.559 -0.1318  0.2554 -0.0743
 5632SOL    HW322295   4.983   6.387   4.472  0.2203  1.4391  0.6817
 5632SOL    MW422296   4.948   6.366   4.548  0.4540  0.4403  0.2519
 5633SOL     OW22297   2.863   2.540   5.004  0.5955  0.2721  0.1142
 5633SOL    HW222298   2.815   2.619   4.978 -0.6816  0.5276  2.9118
 5633SOL    HW322299   2.902   2.562   5.088  0.8037 -1.8597  0.6290
 5633SOL    MW422300   2.862   2.553   5.011 -0.1045 -0.0302 -0.8109
 5634SOL     OW22301   0.842   1.631   3.947  0.2281  0.2811  0.0763
 5634SOL    HW222302   0.848   1.595   3.858  0.4910 -0.7565  0.4976
 5634SOL    HW322303   0.789   1.710   3.937  1.6345  1.1181 -1.2774
 5634SOL    MW422304   0.836   1.637   3.934  0.2045 -0.5610 -0.5191
 5635SOL     OW22305   5.676   1.017   3.502  1.0031 -0.0223  0.3663
 5635SOL    HW222306   5.580   1.017   3.493  1.0450  0.6393 -0.1050
 5635SOL    HW322307   5.692   1.060   3.586  0.7678 -3.0645  2.1146
 5635SOL    MW422308   5.665   1.022   3.512  0.1000 -0.1882 -0.3893
 5636SOL     OW22309   0.680   6.188   1.283  0.0552 -0.3369  0.0376
 5636SOL    HW222310   0.601   6.148   1.246 -0.8217  1.7742 -0.5238
 5636SOL    HW322311   0.752   6.145   1.237 -0.9434  1.4280 -3.5497
 5636SOL    MW422312   0.679   6.177   1.272  0.2829  0.4078 -0.2387
 5637SOL     OW22313   5.393   1.044   0.960  0.1065  0.7017  0.2793
 5637SOL    HW222314   5.308   1.015   0.993  0.1595 -0.0922 -0.2472
 5637SOL    HW322315   5.399   1.005   0.872  1.1644  0.4533  0.4486
 5637SOL    MW422316   5.382   1.035   0.953  0.6149 -0.2807  0.6454
 5638SOL     OW22317   4.106   4.326   0.561  0.0217 -0.0089  0.1223
 5638SOL    HW222318   4.133   4.247   0.608  1.3198  0.5186  0.2853
 5638SOL    HW322319   4.032   4.359   0.612 -0.1635 -0.7872  0.3824
 5638SOL    MW422320   4.100   4.320   0.574 -0.4498  0.3075 -0.6527
 5639SOL     OW22321   3.012   4.205   1.889 -0.0288 -0.1820  0.0401
 5639SOL    HW222322   3.095   4.174   1.854  1.0312  1.6081  0.8501
 5639SOL    HW322323   3.031   4.227   1.980 -1.7410 -0.9529  0.6384
 5639SOL    MW422324   3.025   4.204   1.897  0.3221 -0.3956  0.1771
 5640SOL     OW22325   4.711   4.977   1.459  0.6873  0.6032  0.2945
 5640SOL    HW222326   4.746   5.054   1.504  0.6287  0.8153 -0.0137
 5640SOL    HW322327   4.656   5.014   1.389  1.0513  0.2883 -0.1654
 5640SOL    MW422328   4.708   4.992   1.455 -0.0046 -0.2321  0.6141
 5641SOL     OW22329   0.425   3.964   0.620 -0.1072 -0.5115  0.3079
 5641SOL    HW222330   0.330   3.975   0.618 -0.1267  0.0491  2.3496
 5641SOL    HW322331   0.441   3.889   0.563 -1.5496  0.5281 -1.5746
 5641SOL    MW422332   0.415   3.955   0.612  0.1332  0.0447 -0.1646
 5642SOL     OW22333   1.331   2.975   2.126  0.1120  0.3354 -0.0337
 5642SOL    HW222334   1.390   3.044   2.096  0.7252 -1.1695 -2.6258
 5642SOL    HW322335   1.389   2.908   2.162 -0.3567  0.4904  1.0405
 5642SOL    MW422336   1.347   2.975   2.127  0.0154 -0.3749 -0.5270
 5643SOL     OW22337   4.384   1.507   4.968 -0.1729  0.3177 -0.3292
 5643SOL    HW222338   4.308   1.504   4.911  0.5006  0.7835 -1.2860
 5643SOL    HW322339   4.349   1.501   5.057 -1.2776  0.1306 -0.7704
 5643SOL    MW422340   4.369   1.506   4.972  0.2193 -0.8911 -0.6994
 5644SOL     OW22341   2.792   3.976   1.628  0.4609 -0.4480 -0.2944
 5644SOL    HW222342   2.792   4.024   1.711  0.1671  0.2182 -0.6743
 5644SOL    HW322343   2.879   3.936   1.623  1.8016  2.3795 -1.2905
 5644SOL    MW422344   2.803   3.977   1.638 -0.1317 -0.8513 -0.6183
 5645SOL     OW22345   0.399   5.662   1.025 -0.5005  0.6376 -0.1810
 5645SOL    HW222346   0.304   5.654   1.020 -0.5337  0.6654  0.2947
 5645SOL    HW322347   0.429   5.573   1.041 -0.4266  0.5852 -0.6292
 5645SOL    MW422348   0.390   5.649   1.027 -0.0137  0.7495  0.3049
 5646SOL     OW22349   4.217   3.078   0.258  0.3660  0.2528 -0.5290
 5646SOL    HW222350   4.293   3.044   0.210  1.4409  0.1724  1.1373
 5646SOL    HW322351   4.237   3.060   0.349 -0.6344  2.2711  0.1393
 5646SOL    MW422352   4.230   3.071   0.263 -0.3101  0.6080  0.3160
 5647SOL     OW22353   0.234   2.607   6.157  0.5358 -0.4827 -0.1133
 5647SOL    HW222354   0.186   2.683   6.125  1.4313  0.1666  0.0292
 5647SOL    HW322355   0.175   2.565   6.220 -0.2226 -0.2875 -0.6911
 5647SOL    MW422356   0.220   2.612   6.161  0.9636  0.6285  0.0521
 5648SOL     OW22357   5.784   4.963   1.005  0.1467  0.2180  0.1882
 5648SOL    HW222358   5.781   5.053   1.038 -0.5315  0.2170  0.1489
 5648SOL    HW322359   5.809   4.910   1.080  1.3412  0.5222  0.0197
 5648SOL    MW422360   5.787   4.968   1.019  0.0673  0.0785  0.6050
 5649SOL     OW22361   6.176   5.433   3.289 -0.1570  0.0497 -0.2919
 5649SOL    HW222362   6.140   5.521   3.304  2.1317  0.8905  0.6264
 5649SOL    HW322363   6.270   5.446   3.279  0.3457 -2.3825  0.5466
 5649SOL    MW422364   6.183   5.446   3.289  0.2543  0.3283 -0.0746
 5650SOL     OW22365   5.157   3.231   3.325 -0.0311 -0.2009  0.0135
 5650SOL    HW222366   5.221   3.261   3.389 -0.9715  1.8058  0.1001
 5650SOL    HW322367   5.207   3.214   3.246  0.6508  1.3132  0.0873
 5650SOL    MW422368   5.172   3.233   3.323  0.2086 -0.0716  0.2886
 5651SOL     OW22369   2.983   0.913   1.065  0.0670  0.4139 -0.4952
 5651SOL    HW222370   3.035   0.938   0.989 -0.1115  1.4386 -0.2990
 5651SOL    HW322371   2.911   0.976   1.067  0.2061  0.5600  0.6668
 5651SOL    MW422372   2.980   0.924   1.055 -0.2183 -0.0697 -1.2058
 5652SOL     OW22373   2.934   1.750   3.380 -0.1547  0.2626  0.2736
 5652SOL    HW222374   2.925   1.808   3.456 -0.7109 -0.2299  0.5984
 5652SOL    HW322375   2.922   1.807   3.304 -0.0198  0.6905  0.5691
 5652SOL    MW422376   2.931   1.765   3.380  0.1462 -0.1105  0.4789
 5653SOL     OW22377   0.432   3.125   5.679 -0.3247 -0.0950 -0.7259
 5653SOL    HW222378   0.465   3.154   5.764 -1.9623 -0.3308  0.0478
 5653SOL    HW322379   0.464   3.190   5.616  1.3611 -0.2173 -0.0258
 5653SOL    MW422380   0.440   3.137   5.682  0.2490 -0.7178 -0.2554
 5654SOL     OW22381   4.878   4.764   6.244 -0.3678 -0.5073  0.2294
 5654SOL    HW222382   4.923   4.708   6.182 -0.0198 -1.4677  1.3134
 5654SOL    HW322383   4.877   4.851   6.203  1.2507 -0.7665 -0.4194
 5654SOL    MW422384   4.883   4.768   6.231  0.3912 -0.3920 -1.0577
 5655SOL     OW22385   6.376   0.114   1.819  0.7254  0.1251 -0.2092
 5655SOL    HW222386   6.380   0.027   1.859 -0.8062  0.7231  1.4189
 5655SOL    HW322387   6.421   0.171   1.881 -0.8062  0.9183  0.2385
 5655SOL    MW422388   6.382   0.110   1.833 -0.1795 -0.3295 -0.2073
 5656SOL     OW22389   6.266   0.435   0.554  0.3032  0.5098 -0.1385
 5656SOL    HW222390   6.314   0.517   0.539  0.0796  0.2857 -2.4967
 5656SOL    HW322391   6.248   0.402   0.466  1.0354 -2.4749  0.7213
 5656SOL    MW422392   6.270   0.441   0.541 -0.1141  0.1033 -0.0838
 5657SOL     OW22393   3.936   0.547   4.334 -0.1948 -0.2762  0.6389
 5657SOL    HW222394   3.955   0.454   4.322 -0.8952 -0.3856  0.3150
 5657SOL    HW322395   3.948   0.586   4.248 -2.0688 -0.4805  0.2398
 5657SOL    MW422396   3.940   0.540   4.321  0.2446 -0.2767 -0.5948
 5658SOL     OW22397   3.611   2.598   1.059  0.1333  0.0755  0.4888
 5658SOL    HW222398   3.619   2.578   0.965  0.1541  0.9127  0.2966
 5658SOL    HW322399   3.673   2.670   1.072  0.0400  0.0400  1.1218
 5658SOL    MW422400   3.621   2.605   1.048 -0.3699  0.4613  0.3695
 5659SOL     OW22401   4.682   3.654   0.415 -0.3398  0.4742 -0.0968
 5659SOL    HW222402   4.774   3.635   0.431 -0.2384  0.7371 -0.3599
 5659SOL    HW322403   4.681   3.700   0.331 -0.7366  0.2397 -0.2215
 5659SOL    MW422404   4.694   3.658   0.406  0.3851  0.1566  0.4245
 5660SOL     OW22405   1.066   6.325   2.450 -0.6313 -0.3956 -0.1270
 5660SOL    HW222406   1.021   6.406   2.427  0.3055  0.6895  1.6074
 5660SOL    HW322407   1.008   6.256   2.420 -1.2136  0.8932 -2.1428
 5660SOL    MW422408   1.053   6.327   2.443 -0.3708 -0.1159  0.7910
 5661SOL     OW22409   1.608   4.017   5.976 -0.5055 -0.1837  0.0350
 5661SOL    HW222410   1.601   3.970   5.893 -1.2797 -0.1862  0.0895
 5661SOL    HW322411   1.630   4.107   5.952 -0.4544 -0.2486 -0.1565
 5661SOL    MW422412   1.610   4.022   5.962  0.1875 -0.5712  0.5025
 5662SOL     OW22413   6.345   3.831   4.963 -0.1156  0.8449 -0.7231
 5662SOL    HW222414   6.371   3.893   5.032  1.3702 -0.3089 -0.1946
 5662SOL    HW322415   6.351   3.745   5.005  0.2138  0.1634 -2.1247
 5662SOL    MW422416   6.349   3.828   4.978  0.7531  0.4878  0.5351
 5663SOL     OW22417   2.904   1.826   4.812  0.0173  0.4488 -0.6239
 5663SOL    HW222418   2.934   1.917   4.821  0.7187  0.2364 -0.7621
 5663SOL    HW322419   2.958   1.777   4.875 -0.5867  0.1767 -0.3128
 5663SOL    MW422420   2.915   1.832   4.821 -0.6666 -0.9310 -0.3679
 5664SOL     OW22421   5.950   1.863   4.573  0.4758 -0.2554  0.2012
 5664SOL    HW222422   5.974   1.777   4.607 -2.4780 -1.0130  0.6521
 5664SOL    HW322423   5.984   1.924   4.638 -3.3046 -1.5592  3.8578
 5664SOL    MW422424   5.958   1.860   4.586  0.1996 -0.3879 -0.3219
 5665SOL     OW22425   3.609   2.948   0.327 -0.1341 -0.1044 -0.6393
 5665SOL    HW222426   3.692   2.928   0.371 -0.7018  1.4106  1.2415
 5665SOL    HW322427   3.542   2.911   0.385 -1.0363  3.9778  1.2608
 5665SOL    MW422428   3.611   2.940   0.340 -0.1419  0.3467 -0.4184
 5666SOL     OW22429   0.679   4.909   2.394 -0.4107 -0.1617 -0.6380
 5666SOL    HW222430   0.681   4.824   2.438  0.7665 -0.0153 -0.3625
 5666SOL    HW322431   0.626   4.965   2.450  0.5519 -0.1535  0.2908
 5666SOL    MW422432   0.672   4.905   2.407  0.0397  0.5577  0.1991
 5667SOL     OW22433   6.240   2.845   3.510  0.0846 -0.4251  0.4286
 5667SOL    HW222434   6.152   2.843   3.473 -0.2540  0.4484  1.1506
 5667SOL    HW322435   6.230   2.809   3.598  0.5931 -1.0309  0.2440
 5667SOL    MW422436   6.227   2.840   3.517  0.0556  0.1142  0.2963
 5668SOL     OW22437   1.651   2.466   2.082  0.2037 -0.0993 -0.3250
 5668SOL    HW222438   1.673   2.499   1.995 -0.0937  1.0480  0.0141
 5668SOL    HW322439   1.559   2.441   2.076  0.9101 -2.7886 -1.1216
 5668SOL    MW422440   1.642   2.467   2.070  0.0986 -0.1881  0.3338
 5669SOL     OW22441   3.372   1.493   4.359  0.1569 -1.0270  0.1439
 5669SOL    HW222442   3.368   1.558   4.429  1.1437 -1.9476  1.0904
 5669SOL    HW322443   3.354   1.543   4.279 -0.3530  0.1621  0.9758
 5669SOL    MW422444   3.369   1.508   4.357  0.6541  0.5914 -0.3004
 5670SOL     OW22445   4.796   2.687   3.425  0.4959 -0.2027  0.2814
 5670SOL    HW222446   4.751   2.602   3.422 -0.3096  0.1655  1.2097
 5670SOL    HW322447   4.804   2.713   3.333  2.0754 -1.9252 -0.1389
 5670SOL    MW422448   4.791   2.679   3.412 -0.6513 -0.1518  0.1510
 5671SOL     OW22449   5.331   4.970   4.135  0.0766  0.1032 -0.1358
 5671SOL    HW222450   5.417   4.942   4.167 -0.2135 -0.3196  0.2722
 5671SOL    HW322451   5.344   5.062   4.111  0.1353  0.6292  1.7726
 5671SOL    MW422452   5.344   4.979   4.136 -0.1371 -0.2655 -0.3477
 5672SOL     OW22453   5.822   2.727   0.739  0.2002 -0.0723 -0.1170
 5672SOL    HW222454   5.755   2.658   0.732  1.2138 -0.9626 -1.5689
 5672SOL    HW322455   5.887   2.691   0.799  0.2594  0.0299 -0.1212
 5672SOL    MW422456   5.822   2.713   0.746  0.6078  0.0381 -0.5983
 5673SOL     OW22457   4.728   2.290   4.386 -0.0745  0.4298  0.1542
 5673SOL    HW222458   4.757   2.216   4.439 -0.3798  0.1818 -0.0248
 5673SOL    HW322459   4.784   2.288   4.309 -1.4331 -0.8600 -0.8372
 5673SOL    MW422460   4.739   2.280   4.383 -0.4358  0.0546 -0.0701
 5674SOL     OW22461   2.781   3.564   4.069 -0.6168 -0.2620  0.1981
 5674SOL    HW222462   2.862   3.603   4.038 -1.0631  0.6781  0.1790
 5674SOL    HW322463   2.788   3.472   4.045 -0.0240  0.0198 -0.7835
 5674SOL    MW422464   2.792   3.557   4.062 -0.3170  0.3804 -0.8352
 5675SOL     OW22465   2.458   3.246   3.250  0.2467  0.4416 -0.3201
 5675SOL    HW222466   2.532   3.286   3.205  0.7894 -2.2804 -2.0669
 5675SOL    HW322467   2.385   3.257   3.189 -0.5272  1.9345  0.8153
 5675SOL    MW422468   2.458   3.253   3.236 -0.7421 -0.1563  0.0798
 5676SOL     OW22469   3.456   5.052   5.307  0.4708  0.0681  0.6750
 5676SOL    HW222470   3.529   5.021   5.254 -1.7761 -1.4654 -1.7295
 5676SOL    HW322471   3.424   5.129   5.261 -1.6047 -1.3719 -0.4167
 5676SOL    MW422472   3.462   5.058   5.294 -0.4935  0.8138 -0.1841
 5677SOL     OW22473   2.473   3.887   4.062  0.2584 -0.0450 -0.2120
 5677SOL    HW222474   2.449   3.964   4.010  0.5824 -0.9864 -1.8254
 5677SOL    HW322475   2.392   3.863   4.107  0.3198  1.6200  0.8868
 5677SOL    MW422476   2.459   3.894   4.061 -0.2801 -0.3737  0.3769
 5678SOL     OW22477   0.465   5.076   2.938 -0.0411  0.3753  0.3609
 5678SOL    HW222478   0.453   5.159   2.893  0.8913  0.3633  0.0688
 5678SOL    HW322479   0.379   5.057   2.977 -0.7195  0.6440 -0.9616
 5678SOL    MW422480   0.452   5.084   2.938 -0.6268 -0.3763  0.5792
 5679SOL     OW22481   4.154   4.702   0.587 -0.0544  0.0037 -0.4009
 5679SOL    HW222482   4.155   4.754   0.668  0.6316 -0.0682 -0.3633
 5679SOL    HW322483   4.104   4.624   0.610  0.6939 -0.3277  0.1504
 5679SOL    MW422484   4.147   4.699   0.601  0.0397 -0.3304 -0.0661
 5680SOL     OW22485   1.266   4.875   0.788  0.4288  0.4086  0.3401
 5680SOL    HW222486   1.217   4.805   0.830 -0.3270  2.1287  2.5307
 5680SOL    HW322487   1.237   4.873   0.696  0.7755 -2.3374  0.2000
 5680SOL    MW422488   1.256   4.866   0.781 -0.2153  0.5067  0.4063
 5681SOL     OW22489   4.895   0.969   3.724  0.5445 -0.1101 -0.2157
 5681SOL    HW222490   4.934   0.911   3.659 -0.1733  1.1065 -1.7814
 5681SOL    HW322491   4.803   0.975   3.699  0.2249  0.3175  0.9829
 5681SOL    MW422492   4.888   0.962   3.712  0.5233 -0.8203 -0.3634
 5682SOL     OW22493   4.375   1.287   4.382  0.0429 -0.4224 -0.1821
 5682SOL    HW222494   4.340   1.364   4.428  1.3060  0.2249 -0.2725
 5682SOL    HW322495   4.349   1.300   4.291  3.1052  1.7502 -0.9237
 5682SOL    MW422496   4.367   1.299   4.376  0.2858 -0.2930 -0.3378
 5683SOL     OW22497   2.837   3.257   5.903  0.2222 -0.2687 -0.0487
 5683SOL    HW222498   2.856   3.181   5.959  1.2465 -0.7487 -1.0116
 5683SOL    HW322499   2.756   3.234   5.858  0.3522 -0.6628 -0.0897
 5683SOL    MW422500   2.829   3.244   5.905  0.0349  0.0927 -0.1487
 5684SOL     OW22501   6.335   5.999   2.594 -0.2602 -0.5621 -0.4503
 5684SOL    HW222502   6.252   5.995   2.546 -0.0873 -1.7015 -0.6848
 5684SOL    HW322503   6.387   5.928   2.557  0.6851 -0.0986 -0.0400
 5684SOL    MW422504   6.331   5.989   2.583 -0.1626  0.1665  0.4559
 5685SOL     OW22505   5.132   4.917   0.023 -0.2390  0.3947 -0.0226
 5685SOL    HW222506   5.067   4.849   0.038  1.3799 -0.9537  1.3224
 5685SOL    HW322507   5.193   4.878  -0.041  1.1041  0.2220  1.3038
 5685SOL    MW422508   5.132   4.903   0.016 -0.1409  0.5898 -0.2362
 5686SOL     OW22509   0.226   1.273   3.714  0.9124 -0.3774  0.6367
 5686SOL    HW222510   0.300   1.271   3.776  1.2161  2.1143  0.4484
 5686SOL    HW322511   0.249   1.342   3.652 -0.9440 -0.5367 -0.2887
 5686SOL    MW422512   0.239   1.282   3.714 -0.0260 -0.3456  0.4700
 5687SOL     OW22513   4.324   5.463   4.220  0.1884 -0.7295  0.0554
 5687SOL    HW222514   4.302   5.538   4.165 -1.7499 -0.3519  1.2530
 5687SOL    HW322515   4.412   5.481   4.252 -0.3863  1.2860  0.6566
 5687SOL    MW422516   4.332   5.475   4.217 -0.7372  0.1822  0.0916
 5688SOL     OW22517   1.926   5.220   2.533  0.1043 -0.2637  0.3368
 5688SOL    HW222518   1.965   5.136   2.509  1.0254  0.0569  0.6483
 5688SOL    HW322519   1.889   5.206   2.620  1.7634  0.0909  1.1343
 5688SOL    MW422520   1.926   5.207   2.541  0.3079  0.0863 -0.2172
 5689SOL     OW22521   0.856   5.229   6.387  0.1646  0.1746 -0.2590
 5689SOL    HW222522   0.846   5.272   6.302  0.1042 -1.4766 -1.1317
 5689SOL    HW322523   0.817   5.290   6.450 -1.2767  0.7107 -1.6153
 5689SOL    MW422524   0.849   5.243   6.384  0.2202  0.6672  0.2361
 5690SOL     OW22525   0.696   1.474   1.060  0.5619  0.3535  0.3273
 5690SOL    HW222526   0.654   1.498   1.142 -1.9228  0.8809 -1.0199
 5690SOL    HW322527   0.642   1.404   1.024  0.7278  1.1251 -1.5455
 5690SOL    MW422528   0.683   1.468   1.066  0.0992  0.2205 -0.2040
 5691SOL     OW22529   4.946   4.105   1.465 -0.5265  0.4041  0.3872
 5691SOL    HW222530   4.973   4.128   1.554  0.4944  1.1456 -0.0971
 5691SOL    HW322531   5.029   4.093   1.418 -1.0560  1.0494 -0.7189
 5691SOL    MW422532   4.961   4.107   1.471 -0.7264  0.6674 -0.2825
 5692SOL     OW22533   4.391   0.799   3.774 -0.4987  0.2429  0.0266
 5692SOL    HW222534   4.358   0.712   3.797 -0.4474  0.2220  0.0212
 5692SOL    HW322535   4.339   0.859   3.827  1.4178  0.0597  2.3064
 5692SOL    MW422536   4.380   0.796   3.784  0.0797  0.5657  0.2472
 5693SOL     OW22537   5.705   1.316   1.379 -0.5417 -0.0553  0.7785
 5693SOL    HW222538   5.714   1.238   1.324  1.4164 -0.5547  1.7044
 5693SOL    HW322539   5.710   1.390   1.318  1.5248 -0.6010  0.2121
 5693SOL    MW422540   5.707   1.316   1.364  0.5553 -0.6531  0.5352
 5694SOL     OW22541   3.431   1.714   0.678  0.2631  0.1563  0.3976
 5694SOL    HW222542   3.445   1.799   0.637 -0.2684  0.6987  1.3132
 5694SOL    HW322543   3.500   1.707   0.744  0.7932 -0.4845 -0.2044
 5694SOL    MW422544   3.442   1.724   0.681 -0.3704 -0.3277  0.3212
 5695SOL     OW22545   1.522   5.993   0.124 -0.8915 -0.2578  0.0269
 5695SOL    HW222546   1.516   6.026   0.035 -0.4626  0.1744  0.1539
 5695SOL    HW322547   1.487   5.904   0.119 -1.5322  0.0112 -0.4305
 5695SOL    MW422548   1.516   5.985   0.112 -0.2379 -0.0606 -0.4907
 5696SOL     OW22549   1.630   0.254   1.280 -0.2345  0.5100  0.1430
 5696SOL    HW222550   1.651   0.172   1.236  0.2281  0.4263  0.5129
 5696SOL    HW322551   1.649   0.237   1.372  0.1963  1.1463  0.1713
 5696SOL    MW422552   1.635   0.241   1.287  0.6185 -0.0343  0.2760
 5697SOL     OW22553   3.524   1.371   5.754  0.1253  0.4990  0.4146
 5697SOL    HW222554   3.496   1.460   5.777 -3.1453 -0.0698 -0.7866
 5697SOL    HW322555   3.554   1.378   5.664 -2.2502  0.1254 -0.4792
 5697SOL    MW422556   3.524   1.384   5.745  0.5234 -0.1990 -0.4887
 5698SOL     OW22557   4.910   2.688   5.628 -0.2926 -0.4123  0.6696
 5698SOL    HW222558   4.905   2.714   5.720 -3.1030 -1.8503  1.0317
 5698SOL    HW322559   4.830   2.722   5.589 -0.6659 -2.4266 -0.4529
 5698SOL    MW422560   4.899   2.696   5.635 -0.3273  0.3721 -0.8224
 5699SOL     OW22561   2.066   4.449   3.480  0.1168 -0.1740  0.9758
 5699SOL    HW222562   1.975   4.470   3.462  1.0272  3.2812 -0.4094
 5699SOL    HW322563   2.067   4.419   3.571 -2.2209  1.0491  1.4671
 5699SOL    MW422564   2.054   4.448   3.489  0.0285 -0.5657  0.4187
 5700SOL     OW22565   4.733   1.622   3.572  0.3116  0.1678 -0.4998
 5700SOL    HW222566   4.758   1.532   3.592 -1.8115 -0.3339  0.1200
 5700SOL    HW322567   4.762   1.634   3.481  1.7009 -0.6992 -0.2108
 5700SOL    MW422568   4.740   1.611   3.562  0.3049  0.8024  0.5610
 5701SOL     OW22569   3.471   2.057   4.567 -0.5226 -0.3458  0.1926
 5701SOL    HW222570   3.543   2.067   4.629  0.9573  3.1807 -1.8370
 5701SOL    HW322571   3.509   2.008   4.494 -0.7150 -0.0250 -0.1240
 5701SOL    MW422572   3.486   2.052   4.565  0.1093  0.2695 -0.5806
 5702SOL     OW22573   0.831   4.415   2.908  0.1566 -0.1574  0.2218
 5702SOL    HW222574   0.768   4.464   2.961  1.6608  1.2139  0.8415
 5702SOL    HW322575   0.874   4.482   2.854 -0.4112 -1.3479 -1.8178
 5702SOL    MW422576   0.828   4.431   2.908 -0.3612  0.1435 -0.1793
 5703SOL     OW22577   5.168   3.456   3.173 -0.3758 -0.7165  0.5633
 5703SOL    HW222578   5.158   3.375   3.222  2.6825 -1.5773 -0.0112
 5703SOL    HW322579   5.248   3.496   3.206  0.6249 -0.2193 -2.1331
 5703SOL    MW422580   5.177   3.451   3.184 -0.3158  0.1648  0.3179
 5704SOL     OW22581   3.280   2.463   2.848  0.2051  0.0031  0.4023
 5704SOL    HW222582   3.304   2.496   2.934  1.4686  2.4075 -0.7612
 5704SOL    HW322583   3.184   2.473   2.844  0.3156  1.4493  0.9559
 5704SOL    MW422584   3.270   2.469   2.859 -0.1247 -0.5091 -0.0289
 5705SOL     OW22585   1.654   3.833   2.541  0.2291  0.1527 -0.2792
 5705SOL    HW222586   1.566   3.843   2.576  0.0014 -0.5567 -0.6245
 5705SOL    HW322587   1.642   3.825   2.446  0.7357  0.8691 -0.4050
 5705SOL    MW422588   1.641   3.833   2.533 -0.4756 -0.5166 -0.3721
 5706SOL     OW22589   4.806   5.366   2.419 -0.3591  0.2004  0.1443
 5706SOL    HW222590   4.807   5.364   2.323 -2.3622  1.7906  0.0233
 5706SOL    HW322591   4.779   5.277   2.444  0.8685 -0.4435 -0.7002
 5706SOL    MW422592   4.803   5.354   2.410  0.5990  0.9348 -0.5321
 5707SOL     OW22593   3.334   3.579   4.553  0.5344 -0.3574 -0.6852
 5707SOL    HW222594   3.371   3.627   4.479 -0.0551 -0.5381 -1.1065
 5707SOL    HW322595   3.246   3.616   4.563  0.1964 -1.1053 -0.7993
 5707SOL    MW422596   3.327   3.590   4.544 -0.1057  0.1123 -0.3271
 5708SOL     OW22597   2.077   0.662   2.635 -0.0787 -0.7246 -0.8223
 5708SOL    HW222598   2.011   0.729   2.616  1.3785  1.2783  0.6517
 5708SOL    HW322599   2.103   0.629   2.549  0.5994  2.1382 -1.8361
 5708SOL    MW422600   2.072   0.667   2.621  0.5041 -0.1538 -0.2173
 5709SOL     OW22601   3.154   5.704   3.846 -0.1141  0.2588 -0.0478
 5709SOL    HW222602   3.156   5.796   3.818  0.3338 -0.0802 -1.1683
 5709SOL    HW322603   3.067   5.693   3.885 -0.2225  1.1141 -0.0290
 5709SOL    MW422604   3.143   5.715   3.848 -0.1097  0.7385  0.0118
 5710SOL     OW22605   3.987   1.243   0.911  1.2480  0.0953  0.0641
 5710SOL    HW222606   3.965   1.179   0.978  2.4915 -0.2681  0.1489
 5710SOL    HW322607   3.903   1.284   0.888  0.6635 -0.4941  1.0890
 5710SOL    MW422608   3.973   1.240   0.917 -0.1395  0.4539 -0.0693
 5711SOL     OW22609   0.834   1.027   4.979 -0.4122  0.1742 -0.8119
 5711SOL    HW222610   0.822   1.076   4.898  0.3723  2.4425  0.3579
 5711SOL    HW322611   0.928   1.007   4.981 -0.2920  0.7441 -0.1784
 5711SOL    MW422612   0.845   1.031   4.969 -0.0101 -0.8002 -0.7187
 5712SOL     OW22613   6.150   4.298   2.308 -0.5599  0.3280 -0.0127
 5712SOL    HW222614   6.164   4.235   2.237  1.2954  0.3905  0.2233
 5712SOL    HW322615   6.092   4.253   2.369  0.5995 -1.1436  0.0744
 5712SOL    MW422616   6.144   4.284   2.307 -0.5276 -0.0887 -0.1594
 5713SOL     OW22617   4.655   2.118   0.118 -0.1239 -0.4746  0.0515
 5713SOL    HW222618   4.699   2.033   0.121  1.0761  0.1294 -0.2002
 5713SOL    HW322619   4.619   2.130   0.206 -0.8519 -1.5119 -0.0812
 5713SOL    MW422620   4.656   2.108   0.130 -0.1504 -0.5303  0.5951
 5714SOL     OW22621   4.050   6.389   1.071 -0.1616  0.1706  0.2237
 5714SOL    HW222622   3.995   6.365   1.145 -0.0221 -0.6517  0.0640
 5714SOL    HW322623   4.005   6.353   0.995 -0.5622  1.4288 -0.1675
 5714SOL    MW422624   4.037   6.381   1.071 -0.0567 -0.2973 -0.0929
 5715SOL     OW22625   1.696   5.042   4.394  0.3674  0.3155 -0.2990
 5715SOL    HW222626   1.731   5.110   4.337  1.8563 -0.4413 -0.3411
 5715SOL    HW322627   1.662   4.975   4.334  1.9752 -0.5020 -0.3569
 5715SOL    MW422628   1.696   5.042   4.379  0.1485  0.3678 -0.3339
 5716SOL     OW22629   5.266   3.700   1.551  0.8793 -0.1002 -0.3191
 5716SOL    HW222630   5.280   3.795   1.551 -0.7861  0.1933 -1.9260
 5716SOL    HW322631   5.182   3.688   1.507 -0.1906 -2.1756  2.0543
 5716SOL    MW422632   5.257   3.711   1.545  0.2684  0.2314  0.8125
 5717SOL     OW22633   6.024   5.490   4.577 -0.8793 -0.3270  0.6723
 5717SOL    HW222634   6.077   5.569   4.566 -0.4500 -0.4506  1.6836
 5717SOL    HW322635   6.003   5.463   4.488 -0.5384  0.5948  0.2934
 5717SOL    MW422636   6.028   5.497   4.564  0.0769  0.4671 -0.1896
 5718SOL     OW22637   5.791   2.796   5.867 -0.0713  0.4187 -0.3064
 5718SOL    HW222638   5.855   2.853   5.823  1.4382 -1.9452 -1.3992
 5718SOL    HW322639   5.716   2.793   5.807  1.1407 -1.1590 -1.8391
 5718SOL    MW422640   5.790   2.803   5.853  0.0570  0.0012  0.2368
 5719SOL     OW22641   5.206   1.144   4.277 -0.3674  0.2287 -1.0611
 5719SOL    HW222642   5.208   1.048   4.275  0.0781  0.2022  0.0345
 5719SOL    HW322643   5.151   1.165   4.352 -0.3935  0.8441 -1.2490
 5719SOL    MW422644   5.199   1.134   4.286  0.1285  0.6827  0.3609
 5720SOL     OW22645   4.457   1.668   4.447 -0.0876  0.5625 -0.5882
 5720SOL    HW222646   4.398   1.608   4.492 -1.9783  1.7206 -1.4138
 5720SOL    HW322647   4.540   1.620   4.442 -1.3606 -1.7699 -0.7768
 5720SOL    MW422648   4.460   1.653   4.452  0.0507  0.1463  0.2740
 5721SOL     OW22649   5.449   1.367   1.491 -0.3188  0.1928 -0.1036
 5721SOL    HW222650   5.387   1.294   1.488 -0.3087  0.2159 -1.3097
 5721SOL    HW322651   5.533   1.329   1.464 -0.4057  0.7130 -1.1933
 5721SOL    MW422652   5.452   1.352   1.487 -0.0894 -0.3348  0.1282
 5722SOL     OW22653   1.137   1.456   5.662  0.3760 -0.7063 -0.8353
 5722SOL    HW222654   1.180   1.522   5.717 -0.6764 -0.7064  0.0308
 5722SOL    HW322655   1.171   1.373   5.694  2.6223 -0.6114 -2.7201
 5722SOL    MW422656   1.147   1.454   5.674  0.0929  0.1022  0.5094
 5723SOL     OW22657   1.102   2.142   0.641 -1.0178  0.1651 -0.0142
 5723SOL    HW222658   1.061   2.136   0.555  0.6140 -0.1834 -0.8028
 5723SOL    HW322659   1.127   2.234   0.650  0.4452 -0.1318 -0.7386
 5723SOL    MW422660   1.100   2.153   0.631 -0.0469  0.1843 -0.6619
 5724SOL     OW22661   3.968   6.026   5.758  0.5486  0.4477 -0.7551
 5724SOL    HW222662   3.896   5.996   5.813  0.6539  1.7039  0.1080
 5724SOL    HW322663   4.044   5.975   5.788  0.3042  0.1121 -0.7079
 5724SOL    MW422664   3.969   6.015   5.769 -0.3677 -0.2216  0.3702
 5725SOL     OW22665   5.438   5.060   6.066  0.0702 -0.1078  0.2058
 5725SOL    HW222666   5.517   5.094   6.109 -0.3380  0.1326  0.7898
 5725SOL    HW322667   5.419   4.978   6.112 -1.1175  0.7972  1.4330
 5725SOL    MW422668   5.446   5.054   6.078 -0.2806  0.4452  0.2104
 5726SOL     OW22669   4.852   1.541   3.935 -0.4465 -0.2152 -0.2842
 5726SOL    HW222670   4.892   1.558   4.020 -1.1807  0.6178 -0.1004
 5726SOL    HW322671   4.779   1.482   3.954 -2.6581  2.4565  0.1930
 5726SOL    MW422672   4.848   1.535   3.948 -0.7465  0.2539  0.2729
 5727SOL     OW22673   2.390   1.643   3.498 -0.2677  0.5217 -0.5795
 5727SOL    HW222674   2.375   1.574   3.433 -0.7266  1.4672 -1.5283
 5727SOL    HW322675   2.396   1.597   3.581  0.9692 -0.8027 -1.3534
 5727SOL    MW422676   2.389   1.628   3.500  0.2481 -0.1973 -0.2632
 5728SOL     OW22677   5.096   2.362   2.356  0.3638  0.1430 -0.2442
 5728SOL    HW222678   5.027   2.396   2.414  1.1439  0.1095  0.7429
 5728SOL    HW322679   5.118   2.276   2.393  1.9925  0.7968  0.4233
 5728SOL    MW422680   5.090   2.355   2.369 -0.2369  0.5623  0.5280
 5729SOL     OW22681   2.201   6.192   2.754 -0.0355  0.2994 -0.2086
 5729SOL    HW222682   2.198   6.242   2.673  0.9645  1.1530  0.2523
 5729SOL    HW322683   2.294   6.171   2.764  0.0225  1.1790  1.2830
 5729SOL    MW422684   2.213   6.195   2.744  0.0138  0.0252 -0.2797
 5730SOL     OW22685   2.600   5.334   1.069 -0.5370 -0.0268 -0.8289
 5730SOL    HW222686   2.629   5.422   1.045  1.0998 -0.3712 -0.2755
 5730SOL    HW322687   2.513   5.326   1.031 -0.9620  2.0310 -0.4375
 5730SOL    MW422688   2.592   5.345   1.061  0.5686  0.0354 -0.3409
 5731SOL     OW22689   2.529   3.831   1.664 -0.2738 -0.6597  0.5104
 5731SOL    HW222690   2.611   3.881   1.669 -0.8198  0.2546  0.4976
 5731SOL    HW322691   2.499   3.842   1.574 -1.7967  1.2990  1.1974
 5731SOL    MW422692   2.536   3.839   1.653  0.4155  0.0699  0.0028
 5732SOL     OW22693   1.658   4.333   1.172  0.2860  0.6017  0.4896
 5732SOL    HW222694   1.722   4.399   1.198 -1.8162  2.4955  1.1014
 5732SOL    HW322695   1.650   4.343   1.077  0.1967  1.0095  0.5406
 5732SOL    MW422696   1.665   4.343   1.163  0.4645  0.0550  0.2748
 5733SOL     OW22697   5.640   1.547   5.735 -0.5730 -0.1183 -0.2558
 5733SOL    HW222698   5.647   1.485   5.662  0.4497  0.4600 -0.6728
 5733SOL    HW322699   5.590   1.500   5.801 -2.4291 -0.2907 -1.6937
 5733SOL    MW422700   5.634   1.532   5.734 -0.1170 -0.2911 -0.4051
 5734SOL     OW22701   0.507   3.339   1.947  0.1947 -0.2483 -0.5022
 5734SOL    HW222702   0.453   3.260   1.950  0.3432 -0.3350 -0.0204
 5734SOL    HW322703   0.557   3.330   1.865  0.1659 -0.6225 -0.4828
 5734SOL    MW422704   0.507   3.327   1.936 -0.5598  0.3389  0.0415
 5735SOL     OW22705   4.911   1.114   6.262  0.6081 -0.2885 -0.0495
 5735SOL    HW222706   4.913   1.152   6.174  0.6145  1.1358  0.5267
 5735SOL    HW322707   4.828   1.066   6.266  0.1282  0.4691 -0.5277
 5735SOL    MW422708   4.900   1.113   6.251 -0.2044  0.4536 -0.2910
 5736SOL     OW22709   2.579   6.098   2.223 -0.0758  0.2517  0.1191
 5736SOL    HW222710   2.610   6.091   2.133  1.6322  2.3913  0.4771
 5736SOL    HW322711   2.519   6.173   2.223  1.3997  1.4999  1.0636
 5736SOL    MW422712   2.575   6.107   2.211  0.5816  0.2148 -0.6966
 5737SOL     OW22713   3.431   5.437   0.397  0.8439 -0.2715  0.0799
 5737SOL    HW222714   3.386   5.360   0.360 -1.2567 -0.2419  2.3182
 5737SOL    HW322715   3.481   5.402   0.470  2.2627  0.1261 -0.6758
 5737SOL    MW422716   3.432   5.422   0.402 -0.1005 -0.3854  0.7299
 5738SOL     OW22717   1.482   1.964   2.236  0.3061 -0.2063 -0.3429
 5738SOL    HW222718   1.455   2.019   2.310 -1.1053 -0.3838 -0.7058
 5738SOL    HW322719   1.436   1.881   2.249 -1.0576  0.2106 -2.1087
 5738SOL    MW422720   1.473   1.961   2.248  0.2391 -0.4426  0.1396
 5739SOL     OW22721   1.811   1.391   3.716 -0.1997 -0.5525 -0.7124
 5739SOL    HW222722   1.879   1.374   3.782 -0.7635  0.8384  0.2875
 5739SOL    HW322723   1.766   1.307   3.706  0.7776 -1.1362 -0.3571
 5739SOL    MW422724   1.814   1.378   3.724  0.1253  0.7591  0.5333
 5740SOL     OW22725   5.328   3.009   4.772 -0.4500 -0.1647  0.5726
 5740SOL    HW222726   5.331   3.034   4.680 -0.6645  1.5091  0.9835
 5740SOL    HW322727   5.237   2.984   4.787 -0.7066  0.7239  0.5858
 5740SOL    MW422728   5.316   3.009   4.762 -0.1048  0.1810 -0.2419
 5741SOL     OW22729   6.196   4.021   1.040 -0.0156 -0.0868  0.9557
 5741SOL    HW222730   6.277   4.062   1.072  0.1343  1.1528 -0.8156
 5741SOL    HW322731   6.126   4.070   1.082  0.1763  1.0833 -0.0361
 5741SOL    MW422732   6.198   4.033   1.050 -0.2870  0.0445 -0.7752
 5742SOL     OW22733   3.421   2.812   3.516 -0.3502 -0.1103  0.4040
 5742SOL    HW222734   3.372   2.832   3.596  0.6338 -0.8594  1.2154
 5742SOL    HW322735   3.513   2.820   3.541 -0.0247 -0.4174 -0.6428
 5742SOL    MW422736   3.426   2.816   3.529  0.5175  0.0881  0.2272
 5743SOL     OW22737   5.269   1.297   2.662 -0.8932 -0.1013 -0.2325
 5743SOL    HW222738   5.270   1.367   2.597 -0.5847  0.1803  0.0690
 5743SOL    HW322739   5.309   1.223   2.617 -2.6511 -0.5778 -1.0737
 5743SOL    MW422740   5.274   1.297   2.647  0.1841  0.6270 -0.1820
 5744SOL     OW22741   0.285   0.494   0.312 -0.2788  0.6926  0.3113
 5744SOL    HW222742   0.276   0.549   0.235 -0.6580 -0.0527 -0.1788
 5744SOL    HW322743   0.211   0.433   0.308  1.1611 -1.1208 -0.2086
 5744SOL    MW422744   0.274   0.493   0.302  0.0904 -0.2849  0.3925
 5745SOL     OW22745   0.194   6.195   4.141 -0.1031 -0.3276  0.3084
 5745SOL    HW222746   0.105   6.158   4.144 -0.1404 -0.2105  0.6831
 5745SOL    HW322747   0.244   6.131   4.090 -0.2940 -0.6319  0.4969
 5745SOL    MW422748   0.189   6.181   4.135  0.0574  0.3555 -0.2912
 5746SOL     OW22749   1.443   2.528   4.799 -0.1369 -0.4396  0.1495
 5746SOL    HW222750   1.389   2.532   4.720  0.1650 -4.1710 -0.4190
 5746SOL    HW322751   1.382   2.544   4.871 -1.2362 -0.9774 -0.6472
 5746SOL    MW422752   1.428   2.531   4.798 -0.1716  0.2703  0.7815
 5747SOL     OW22753   5.671   5.916   3.105 -0.0837 -0.9785 -0.0943
 5747SOL    HW222754   5.650   5.910   3.012  0.1590 -0.4378 -0.1844
 5747SOL    HW322755   5.762   5.944   3.108 -0.5300  0.5022  0.3014
 5747SOL    MW422756   5.680   5.919   3.093 -0.0380 -0.1458  0.2919
 5748SOL     OW22757   3.396   6.328   0.680  0.5350 -0.0552 -0.1477
 5748SOL    HW222758   3.366   6.355   0.767  0.1097 -0.1555 -0.2592
 5748SOL    HW322759   3.486   6.299   0.694  1.1942  1.8977 -0.1200
 5748SOL    MW422760   3.404   6.328   0.693 -0.4479 -0.1550  0.4827
 5749SOL     OW22761   0.691   3.839   2.790 -0.6237  0.8032 -0.1167
 5749SOL    HW222762   0.756   3.898   2.753 -0.9572  1.2535  0.0012
 5749SOL    HW322763   0.608   3.866   2.750 -1.1712  2.0103  1.7266
 5749SOL    MW422764   0.689   3.850   2.780  0.1906  0.4516  0.0012
 5750SOL     OW22765   3.811   1.767   0.205 -0.0485  0.4432  0.1271
 5750SOL    HW222766   3.820   1.754   0.110 -0.7312 -2.2006  0.3545
 5750SOL    HW322767   3.898   1.750   0.240 -0.3694 -1.3283  0.1685
 5750SOL    MW422768   3.823   1.763   0.197  0.7468  0.0323 -0.4250
 5751SOL     OW22769   1.518   2.499   6.026 -0.1362 -0.0514  0.3899
 5751SOL    HW222770   1.437   2.460   5.993  0.0950 -0.0648 -0.1744
 5751SOL    HW322771   1.529   2.579   5.975 -0.1685  0.3290  0.9661
 5751SOL    MW422772   1.508   2.504   6.015  0.2215 -0.6850 -0.4100
 5752SOL     OW22773   0.824   4.477   0.494  0.0654  0.1132 -0.6197
 5752SOL    HW222774   0.811   4.557   0.545  0.2657 -0.0715 -0.2811
 5752SOL    HW322775   0.910   4.488   0.454 -0.1673  0.3417 -1.0815
 5752SOL    MW422776   0.833   4.489   0.495 -0.1410  0.1236 -0.0085
 5753SOL     OW22777   2.691   3.395   0.348 -0.0906  0.1098 -0.2159
 5753SOL    HW222778   2.762   3.363   0.292  0.8317 -0.2039  1.0948
 5753SOL    HW322779   2.700   3.346   0.429 -1.8712  0.0180 -0.0293
 5753SOL    MW422780   2.701   3.385   0.351 -0.3311  0.0755 -0.6795
 5754SOL     OW22781   4.072   1.252   4.975 -0.2184  0.3266 -0.7924
 5754SOL    HW222782   4.111   1.181   4.925 -1.6258 -1.7522  0.8439
 5754SOL    HW322783   3.981   1.224   4.989 -0.0400  0.8989  2.4443
 5754SOL    MW422784   4.065   1.239   4.970  0.4427 -0.4632  0.0410
 5755SOL     OW22785   1.677   5.451   1.042  0.3634  0.6368  0.0406
 5755SOL    HW222786   1.631   5.417   0.965  1.1587  0.3906 -0.3490
 5755SOL    HW322787   1.659   5.387   1.111  0.9863 -0.0548 -0.4033
 5755SOL    MW422788   1.669   5.438   1.041 -0.0623  0.0726 -0.1127
 5756SOL     OW22789   1.262   4.407   4.540 -0.6306 -0.3412  0.3887
 5756SOL    HW222790   1.274   4.314   4.558 -0.8961 -0.3246  0.6578
 5756SOL    HW322791   1.349   4.438   4.515 -0.4949 -0.6115  0.5248
 5756SOL    MW422792   1.275   4.399   4.539 -0.5534 -0.2313 -0.6937
 5757SOL     OW22793   4.771   5.017   4.366 -0.2940  0.2215 -0.3598
 5757SOL    HW222794   4.695   5.073   4.348  0.7654  2.3885  1.4587
 5757SOL    HW322795   4.846   5.077   4.364  0.9748 -1.2470  1.0728
 5757SOL    MW422796   4.771   5.032   4.363  0.0380  0.8555 -0.4344
 5758SOL     OW22797   0.144   0.426   1.149 -0.6359  0.8417  0.2828
 5758SOL    HW222798   0.178   0.338   1.136  0.6258  1.0336  1.9103
 5758SOL    HW322799   0.062   0.414   1.198  0.5804  0.5899  2.3855
 5758SOL    MW422800   0.138   0.413   1.154 -0.2311  0.5719 -0.0237
 5759SOL     OW22801   5.545   2.807   5.764 -0.0216  0.0830  0.4127
 5759SOL    HW222802   5.511   2.728   5.723 -1.6667  0.7715  0.3464
 5759SOL    HW322803   5.485   2.876   5.734  0.2261  1.0221  1.9959
 5759SOL    MW422804   5.532   2.806   5.754  0.7912 -0.0200  0.1605
 5760SOL     OW22805   1.345   1.495   0.097 -0.1343  0.0529  0.4376
 5760SOL    HW222806   1.420   1.496   0.037  1.9143 -2.1224  2.7112
 5760SOL    HW322807   1.379   1.532   0.179 -2.1723  0.8731  0.9647
 5760SOL    MW422808   1.360   1.500   0.100 -0.5207  0.2589  0.7122
 5761SOL     OW22809   2.949   2.490   4.338 -0.0798 -0.6137 -0.3179
 5761SOL    HW222810   3.026   2.514   4.286  0.2985  1.7561  1.1973
 5761SOL    HW322811   2.979   2.417   4.392  1.0575  0.0950  0.0589
 5761SOL    MW422812   2.963   2.483   4.338 -0.3960  0.4255  0.6436
 5762SOL     OW22813   6.150   3.679   5.711 -0.3987  0.0103  0.8758
 5762SOL    HW222814   6.121   3.694   5.801  0.5273  0.8251  1.0422
 5762SOL    HW322815   6.223   3.618   5.720  0.9285  1.5529  0.8534
 5762SOL    MW422816   6.156   3.673   5.724 -0.1426 -0.0783 -0.6588
 5763SOL     OW22817   0.670   5.355   4.829 -0.0107  0.0663 -0.0379
 5763SOL    HW222818   0.632   5.299   4.897 -0.1685  0.6924  0.3998
 5763SOL    HW322819   0.661   5.304   4.748  1.3406 -1.2273  0.5859
 5763SOL    MW422820   0.664   5.341   4.827  0.6852  0.1328  0.0236
 5764SOL     OW22821   3.613   3.125   3.174  0.4313  0.1724 -0.2580
 5764SOL    HW222822   3.700   3.124   3.213  0.7144 -0.6347 -0.9087
 5764SOL    HW322823   3.628   3.128   3.080 -0.2533  1.7653 -0.3499
 5764SOL    MW422824   3.626   3.125   3.167 -0.0804 -0.2026  0.2849
 5765SOL     OW22825   0.977   1.762   2.871 -0.5532 -0.2996  0.3197
 5765SOL    HW222826   0.976   1.760   2.967 -0.5468 -0.6971  0.3126
 5765SOL    HW322827   0.961   1.672   2.845 -1.4075 -0.0546 -0.0598
 5765SOL    MW422828   0.975   1.750   2.880 -0.3137  0.2564 -0.1507
 5766SOL     OW22829   6.365   0.160   4.275  0.0460 -0.3246 -0.4337
 5766SOL    HW222830   6.275   0.127   4.283 -1.1628  1.2670 -4.6635
 5766SOL    HW322831   6.357   0.255   4.283  1.4560 -0.1920 -0.2990
 5766SOL    MW422832   6.352   0.168   4.277  0.0907  0.4315 -0.3191
 5767SOL     OW22833   2.309   0.998   6.309  0.9129  0.2790 -0.6893
 5767SOL    HW222834   2.386   0.949   6.283  1.0741 -0.1080  0.4605
 5767SOL    HW322835   2.284   1.048   6.231  3.2336  1.6357 -0.6485
 5767SOL    MW422836   2.316   0.998   6.295 -0.0779  0.3009 -0.6397
 5768SOL     OW22837   4.200   4.445   2.122 -0.3284  0.6927  0.4672
 5768SOL    HW222838   4.149   4.390   2.182 -0.8750  2.0761  1.3130
 5768SOL    HW322839   4.181   4.410   2.035  0.9677 -1.7707  1.0570
 5768SOL    MW422840   4.191   4.433   2.118 -0.1986  0.6889  0.3104
 5769SOL     OW22841   0.895   6.294   3.755 -0.1168 -0.4619  0.1208
 5769SOL    HW222842   0.947   6.287   3.834 -0.5390  3.3834  0.9492
 5769SOL    HW322843   0.812   6.251   3.777  0.4406 -1.0828  1.0726
 5769SOL    MW422844   0.891   6.287   3.768 -0.6114  0.1159 -0.1922
 5770SOL     OW22845   2.275   6.336   5.415 -0.1672  0.8202  0.0270
 5770SOL    HW222846   2.356   6.309   5.371 -1.0115 -0.1657 -0.9722
 5770SOL    HW322847   2.274   6.432   5.406  0.0236  0.7061 -1.5375
 5770SOL    MW422848   2.286   6.345   5.408  0.0403  0.6927 -0.0663
 5771SOL     OW22849   4.301   0.346   5.270  0.2932  1.1534 -0.5633
 5771SOL    HW222850   4.301   0.381   5.181 -0.1440  0.5053 -0.8211
 5771SOL    HW322851   4.366   0.276   5.268 -0.1298  0.7573 -0.5285
 5771SOL    MW422852   4.310   0.342   5.258 -0.2832  0.4721  0.4350
 5772SOL     OW22853   3.955   4.948   2.009 -0.0544  0.4742 -0.1571
 5772SOL    HW222854   4.019   4.879   1.992  0.9413  0.7387  2.2059
 5772SOL    HW322855   3.999   5.029   1.981 -0.8488  0.3210 -2.0063
 5772SOL    MW422856   3.969   4.950   2.003 -0.6690 -0.2838  0.3141
 5773SOL     OW22857   2.859   5.360   4.697  0.3499 -0.4035  0.1729
 5773SOL    HW222858   2.836   5.269   4.679 -2.3507  0.1145  0.6128
 5773SOL    HW322859   2.797   5.411   4.646  1.2627  1.2027  0.6050
 5773SOL    MW422860   2.848   5.355   4.688 -0.4442 -0.0685  0.5439
 5774SOL     OW22861   4.310   5.520   1.519 -0.5309  0.1536 -0.5475
 5774SOL    HW222862   4.240   5.502   1.582  0.1318 -3.0680 -0.6031
 5774SOL    HW322863   4.374   5.571   1.569 -1.0888 -0.3164  0.6836
 5774SOL    MW422864   4.309   5.525   1.534  0.9059  0.2028  0.4664
 5775SOL     OW22865   2.253   2.654   5.086  0.2825  0.5947  0.5185
 5775SOL    HW222866   2.179   2.674   5.143 -0.5855 -2.2977  0.5549
 5775SOL    HW322867   2.330   2.679   5.137 -0.5650  0.8373  1.7222
 5775SOL    MW422868   2.253   2.660   5.100 -0.5932 -0.1446  0.4645
 5776SOL     OW22869   2.612   1.105   5.384 -0.3609  0.9690 -0.2181
 5776SOL    HW222870   2.598   1.019   5.343  0.0949  0.7816  0.0106
 5776SOL    HW322871   2.590   1.090   5.476 -2.4017  1.6449 -0.5556
 5776SOL    MW422872   2.607   1.091   5.391  0.0763  0.5886  0.4012
 5777SOL     OW22873   0.794   4.801   5.129  0.6261  0.0054 -0.5075
 5777SOL    HW222874   0.819   4.850   5.207  0.7452  0.9128 -1.1044
 5777SOL    HW322875   0.786   4.710   5.159  1.7982  0.1564  0.3043
 5777SOL    MW422876   0.796   4.795   5.143  0.2863 -0.4700  0.0467
 5778SOL     OW22877   2.216   6.117   5.108 -0.6331  0.2918 -0.3086
 5778SOL    HW222878   2.286   6.072   5.157 -0.4699 -0.6312 -1.3583
 5778SOL    HW322879   2.240   6.105   5.016  0.1557  3.7068 -0.6709
 5778SOL    MW422880   2.229   6.109   5.102 -0.0311  0.0052  0.1095
 5779SOL     OW22881   6.117   1.465   0.784  0.2793  0.0177 -0.3317
 5779SOL    HW222882   6.065   1.395   0.822  1.0728 -0.2691  0.2549
 5779SOL    HW322883   6.201   1.461   0.831  0.1990  1.6190  0.0160
 5779SOL    MW422884   6.122   1.455   0.796 -0.0778  0.1460 -0.6709
 5780SOL     OW22885   4.687   4.925   5.815 -0.5695 -1.0774  0.4680
 5780SOL    HW222886   4.656   5.005   5.773  0.1478 -0.3071  1.3660
 5780SOL    HW322887   4.702   4.864   5.743 -0.9012 -0.3296 -0.2472
 5780SOL    MW422888   4.685   4.928   5.800  0.7148  0.2267 -0.5479
 5781SOL     OW22889   5.201   4.010   1.998 -0.3606  0.7827 -0.6039
 5781SOL    HW222890   5.260   3.959   2.053 -0.9897  1.5918  0.8851
 5781SOL    HW322891   5.133   3.948   1.971 -1.6729  0.9349  1.9948
 5781SOL    MW422892   5.200   3.995   2.002 -0.2725 -0.2702 -0.2810
 5782SOL     OW22893   1.485   1.937   0.958 -0.3005  0.4300 -0.3159
 5782SOL    HW222894   1.401   1.948   0.915  0.6158  0.2089 -2.2657
 5782SOL    HW322895   1.472   1.974   1.046 -1.9566  1.8507 -1.1023
 5782SOL    MW422896   1.472   1.944   0.964 -0.2610 -0.6343 -0.1335
 5783SOL     OW22897   4.487   1.568   6.227 -0.3820 -0.0578 -0.3767
 5783SOL    HW222898   4.581   1.554   6.217 -0.4832 -0.5195 -0.7127
 5783SOL    HW322899   4.455   1.579   6.138 -0.6922 -0.1974 -0.2829
 5783SOL    MW422900   4.495   1.567   6.214  0.5990 -0.0520 -0.1992
 5784SOL     OW22901   5.125   5.782   0.956 -0.0519 -0.5252  0.3477
 5784SOL    HW222902   5.165   5.869   0.960 -0.2100 -0.2933 -1.8209
 5784SOL    HW322903   5.199   5.722   0.948  0.0033 -0.3249 -0.8927
 5784SOL    MW422904   5.140   5.786   0.956  0.1507  0.0980  0.5343
 5785SOL     OW22905   1.549   5.634   4.824 -0.6375 -0.4532  0.0965
 5785SOL    HW222906   1.602   5.678   4.757  0.1769  0.6572  1.4258
 5785SOL    HW322907   1.534   5.547   4.788  0.8674 -0.3093 -0.9951
 5785SOL    MW422908   1.554   5.628   4.810 -0.4194 -0.2105  0.2452
 5786SOL     OW22909   5.706   4.998   5.166  0.4774  1.1907  0.1994
 5786SOL    HW222910   5.742   4.942   5.097 -0.5350 -1.2921  1.5824
 5786SOL    HW322911   5.616   5.016   5.137  0.3206  0.8308  0.4513
 5786SOL    MW422912   5.699   4.993   5.153  0.4750  0.2309 -0.0112
 5787SOL     OW22913   2.708   4.466   1.951 -0.3086  0.0875 -0.0845
 5787SOL    HW222914   2.722   4.478   1.857  1.2585 -0.7644  0.0077
 5787SOL    HW322915   2.646   4.534   1.975  0.6267  1.4621 -1.3988
 5787SOL    MW422916   2.702   4.476   1.942 -0.4839  0.1287  0.5346
 5788SOL     OW22917   0.888   4.934   5.348  0.5080 -0.0787  0.8333
 5788SOL    HW222918   0.845   4.882   5.416  2.3217 -0.4483  1.7795
 5788SOL    HW322919   0.863   5.024   5.368  1.3355 -0.1352  2.3044
 5788SOL    MW422920   0.879   4.939   5.360 -0.5209  0.2183  0.9054
 5789SOL     OW22921   1.157   2.430   2.425 -0.3326 -0.5199  0.0301
 5789SOL    HW222922   1.184   2.383   2.346  0.8063 -0.5139  0.3926
 5789SOL    HW322923   1.110   2.507   2.392  0.8425 -0.0753 -0.6966
 5789SOL    MW422924   1.155   2.434   2.410 -0.6431  0.0041  0.1445
 5790SOL     OW22925   6.155   5.626   4.821  0.1853  0.2218  0.5000
 5790SOL    HW222926   6.072   5.591   4.790  1.0637 -0.8837 -0.7256
 5790SOL    HW322927   6.145   5.721   4.816 -0.7165  0.0851 -0.4260
 5790SOL    MW422928   6.143   5.634   4.816  0.0353  0.2810 -0.7205
 5791SOL     OW22929   2.884   3.084   6.103 -0.0047  0.4567  0.0113
 5791SOL    HW222930   2.821   3.139   6.150 -1.2554  0.3495 -1.4729
 5791SOL    HW322931   2.841   3.000   6.093  0.8682 -0.0091  0.0132
 5791SOL    MW422932   2.870   3.081   6.108  0.2890 -0.0662 -0.2539
 5792SOL     OW22933   5.601   2.050   4.789 -0.2857 -0.1895  0.0344
 5792SOL    HW222934   5.553   2.019   4.866 -3.6891 -0.9866 -2.2075
 5792SOL    HW322935   5.667   1.982   4.774 -0.8361 -0.9946  1.1126
 5792SOL    MW422936   5.604   2.037   4.797 -0.5703 -0.0203  0.2628
 5793SOL     OW22937   0.091   4.943   4.103 -0.1088  0.4046  0.1917
 5793SOL    HW222938   0.011   4.891   4.110 -0.2967  0.5661 -0.6574
 5793SOL    HW322939   0.158   4.880   4.076  0.2262  0.1262  1.5946
 5793SOL    MW422940   0.089   4.928   4.100  0.5834 -0.4816  0.2245
 5794SOL     OW22941   0.385   5.721   4.373 -0.2864 -0.1293 -0.2779
 5794SOL    HW222942   0.405   5.772   4.451  0.3800 -1.0079  0.1459
 5794SOL    HW322943   0.418   5.774   4.300 -0.7028  0.5881  0.0461
 5794SOL    MW422944   0.392   5.735   4.373  0.5853 -0.0619  0.3872
 5795SOL     OW22945   4.768   5.649   3.305  0.4393  0.3565 -0.0756
 5795SOL    HW222946   4.757   5.554   3.300  0.8120  0.2819  0.4192
 5795SOL    HW322947   4.678   5.683   3.314  0.4075 -0.1034  1.8638
 5795SOL    MW422948   4.754   5.641   3.306 -0.4588 -0.1277 -0.0153
 5796SOL     OW22949   4.206   0.175   1.645  0.1822  0.1577 -0.3782
 5796SOL    HW222950   4.154   0.252   1.670 -0.3431 -1.2965  3.8135
 5796SOL    HW322951   4.286   0.183   1.696 -0.0398 -2.1610  0.4362
 5796SOL    MW422952   4.210   0.186   1.655 -0.1634 -0.0660 -0.2667
 5797SOL     OW22953   1.074   2.236   3.378  0.3896 -0.6417  0.1531
 5797SOL    HW222954   1.129   2.219   3.302 -1.0609 -0.4956 -0.9737
 5797SOL    HW322955   1.008   2.166   3.376 -1.6833  1.2416 -0.7053
 5797SOL    MW422956   1.072   2.224   3.368  0.0398 -0.2077  0.5025
 5798SOL     OW22957   3.721   4.518   4.404 -0.0634 -0.2121  0.3387
 5798SOL    HW222958   3.644   4.566   4.375 -0.2393 -1.9391 -2.4307
 5798SOL    HW322959   3.694   4.477   4.486 -1.4073  0.7444  0.4109
 5798SOL    MW422960   3.708   4.519   4.411 -0.8056  0.1993  0.2293
 5799SOL     OW22961   0.783   3.537   2.737 -0.2108 -0.0287 -0.5481
 5799SOL    HW222962   0.742   3.522   2.822  0.8831  0.6981  0.1275
 5799SOL    HW322963   0.746   3.468   2.681 -0.5360 -0.8670  0.6419
 5799SOL    MW422964   0.772   3.526   2.741 -0.0121 -0.3601 -0.1127
 5800SOL     OW22965   0.997   3.415   2.906  0.1118  0.3045  0.2800
 5800SOL    HW222966   0.935   3.442   2.838  0.0511 -0.9619 -0.1969
 5800SOL    HW322967   1.083   3.423   2.865  0.0590 -0.7156 -0.0656
 5800SOL    MW422968   1.000   3.420   2.892  0.3357 -0.2003 -0.1738
 5801SOL     OW22969   6.015   5.201   5.763  0.6146 -0.0462 -0.8552
 5801SOL    HW222970   6.048   5.222   5.851 -0.5608 -0.9842 -0.1585
 5801SOL    HW322971   6.043   5.111   5.748 -0.2898 -0.3399 -0.8720
 5801SOL    MW422972   6.023   5.192   5.773 -0.1200 -0.1503  0.4575
 5802SOL     OW22973   4.792   5.518   0.076 -0.0008  0.0708 -0.6444
 5802SOL    HW222974   4.788   5.448   0.140 -1.3461  0.6449 -0.0529
 5802SOL    HW322975   4.774   5.598   0.125  0.2466  0.6872 -1.5140
 5802SOL    MW422976   4.789   5.519   0.091 -0.0998 -0.6648 -0.2416
 5803SOL     OW22977   4.869   5.231   1.267  0.4694  0.0017  0.3455
 5803SOL    HW222978   4.835   5.265   1.350  2.1168  0.4135  0.8890
 5803SOL    HW322979   4.898   5.309   1.219 -0.1961 -0.2575 -0.5080
 5803SOL    MW422980   4.868   5.246   1.272 -0.9121  0.3293 -0.8125
 5804SOL     OW22981   4.990   4.523   3.635  0.4273  0.0690 -0.4243
 5804SOL    HW222982   4.942   4.442   3.616 -0.6465  0.6222 -0.1229
 5804SOL    HW322983   5.053   4.530   3.563  0.7388 -1.1816 -0.2948
 5804SOL    MW422984   4.992   4.513   3.623  0.1991 -0.2544 -0.7288
 5805SOL     OW22985   2.328   3.432   4.527  0.1782 -0.3516 -0.2082
 5805SOL    HW222986   2.283   3.506   4.566  1.7800  0.2409  0.5947
 5805SOL    HW322987   2.380   3.469   4.456  1.5346 -0.5519  0.6409
 5805SOL    MW422988   2.329   3.446   4.523  0.0540  0.3278  0.2184
 5806SOL     OW22989   5.800   4.613   1.415 -0.3164 -0.2093 -0.5422
 5806SOL    HW222990   5.808   4.519   1.432  3.5545  0.3132  1.6190
 5806SOL    HW322991   5.750   4.646   1.490  3.7923  0.0741  2.3892
 5806SOL    MW422992   5.794   4.605   1.428 -0.4777 -0.2320 -0.5886
 5807SOL     OW22993   2.004   2.945   0.013  0.6496  0.3044  0.4968
 5807SOL    HW222994   1.990   3.039   0.024  2.3111  0.8480 -1.3197
 5807SOL    HW322995   1.956   2.923  -0.067  0.0417 -0.4839  1.0626
 5807SOL    MW422996   1.996   2.955   0.003 -0.2780  0.2802  0.2512
 5808SOL     OW22997   2.475   4.839   1.600 -0.5556  0.0382  0.1023
 5808SOL    HW222998   2.437   4.889   1.672  0.1168 -1.6111  1.6983
 5808SOL    HW322999   2.532   4.901   1.554 -1.5335  1.3000  0.5536
 5808SOL    MW423000   2.478   4.854   1.603 -0.3178  0.6895 -0.0254
 5809SOL     OW23001   5.826   0.652   1.387  0.1531 -0.2570 -0.1901
 5809SOL    HW223002   5.757   0.655   1.320 -0.6960  0.7341  0.7035
 5809SOL    HW323003   5.842   0.744   1.409 -0.6143 -0.6048  1.9972
 5809SOL    MW423004   5.819   0.664   1.381  0.2270  0.3979 -0.1713
 5810SOL     OW23005   1.843   1.065   0.267  0.2461 -0.3195  0.6342
 5810SOL    HW223006   1.893   1.045   0.345  0.8972 -0.5793  0.1612
 5810SOL    HW323007   1.909   1.083   0.200 -0.2981  1.0641  0.4297
 5810SOL    MW423008   1.858   1.065   0.268 -0.2310  0.0436 -0.1365
 5811SOL     OW23009   4.646   4.244   6.141  0.3787 -0.5591  0.0421
 5811SOL    HW223010   4.645   4.300   6.218 -0.0729 -0.7639  0.1871
 5811SOL    HW323011   4.574   4.277   6.087 -0.5612 -1.6335  0.5910
 5811SOL    MW423012   4.636   4.256   6.144 -0.7002  0.7254  0.4171
 5812SOL     OW23013   3.753   5.551   1.651  0.0557 -0.3121  0.6271
 5812SOL    HW223014   3.804   5.622   1.690 -0.2303  0.8368 -0.9951
 5812SOL    HW323015   3.662   5.572   1.672 -0.0491 -0.0492 -0.0601
 5812SOL    MW423016   3.748   5.563   1.659  0.1249 -0.5330  0.1407
 5813SOL     OW23017   5.133   3.448   2.465  0.0791 -0.2378 -0.0294
 5813SOL    HW223018   5.082   3.517   2.508 -0.4252 -1.0943  0.7904
 5813SOL    HW323019   5.179   3.492   2.394 -0.0525  0.9847  0.6240
 5813SOL    MW423020   5.132   3.463   2.462  0.1652  0.5196  0.2003
 5814SOL     OW23021   1.473   6.292   1.172  0.0692 -0.2254 -0.1445
 5814SOL    HW223022   1.488   6.214   1.119  1.5781  1.1828 -1.9058
 5814SOL    HW323023   1.513   6.363   1.123  0.1639  1.4364  2.1720
 5814SOL    MW423024   1.480   6.291   1.159 -0.4358 -0.1883  0.0187
 5815SOL     OW23025   1.317   5.864   5.210  0.3186  0.1617 -0.2516
 5815SOL    HW223026   1.332   5.948   5.253 -0.3747  0.2021 -0.0688
 5815SOL    HW323027   1.361   5.871   5.126  0.3400  0.6766 -0.2003
 5815SOL    MW423028   1.324   5.876   5.205 -0.1262 -0.1550 -0.2551
 5816SOL     OW23029   2.812   2.500   3.538 -0.1360  0.0415  0.3680
 5816SOL    HW223030   2.838   2.408   3.528  0.5733  0.1544  1.1064
 5816SOL    HW323031   2.821   2.537   3.450  1.5565 -0.1095  0.4434
 5816SOL    MW423032   2.817   2.493   3.525  0.2498  0.4255  0.5138
 5817SOL     OW23033   3.129   1.220   2.552 -0.5175 -0.1319 -1.0642
 5817SOL    HW223034   3.121   1.167   2.631  1.5056 -0.6354 -1.1408
 5817SOL    HW323035   3.042   1.216   2.511 -1.7704  0.5639  1.3459
 5817SOL    MW423036   3.116   1.212   2.557 -0.2252 -0.2053 -0.2031
 5818SOL     OW23037   0.650   5.998   6.026 -0.2233  0.5360 -0.3076
 5818SOL    HW223038   0.648   6.023   5.933  0.9967 -0.6053 -0.6830
 5818SOL    HW323039   0.640   6.080   6.073 -3.2653  0.9257 -1.3956
 5818SOL    MW423040   0.648   6.012   6.020  0.3125 -0.7786  0.4863
 5819SOL     OW23041   0.565   6.164   4.238 -0.2779  0.0939 -0.5689
 5819SOL    HW223042   0.530   6.252   4.223  0.1700 -0.0494 -2.7552
 5819SOL    HW323043   0.582   6.161   4.332  0.2087  2.5409 -0.5035
 5819SOL    MW423044   0.563   6.175   4.248 -0.0096  0.3021 -0.9409
 5820SOL     OW23045   3.056   5.796   1.465 -0.3832 -0.1828  0.4358
 5820SOL    HW223046   2.983   5.822   1.521 -0.9237  1.1977 -0.8556
 5820SOL    HW323047   3.071   5.871   1.408  2.6014 -0.0575  1.1926
 5820SOL    MW423048   3.048   5.809   1.465  0.1198  0.8003  0.5236
 5821SOL     OW23049   3.320   5.702   1.279 -0.0387  0.2267 -0.4882
 5821SOL    HW223050   3.266   5.661   1.347 -2.0402  0.7266 -1.6818
 5821SOL    HW323051   3.357   5.779   1.321 -2.1846  1.1779 -0.1997
 5821SOL    MW423052   3.318   5.706   1.293  0.6268  0.3995  0.0599
 5822SOL     OW23053   6.173   5.112   3.051  0.3382 -0.1543  0.1251
 5822SOL    HW223054   6.080   5.095   3.065  0.4496 -0.0605  1.0277
 5822SOL    HW323055   6.176   5.158   2.967 -0.2291 -2.0017 -0.9662
 5822SOL    MW423056   6.161   5.116   3.042  0.3553  0.5622 -0.4452
 5823SOL     OW23057   0.901   0.687   6.423  0.6387 -0.1856  0.6310
 5823SOL    HW223058   0.920   0.624   6.353 -0.2539 -0.5187  0.6739
 5823SOL    HW323059   0.970   0.673   6.488  1.9743  0.6867 -0.5211
 5823SOL    MW423060   0.913   0.677   6.422 -0.6889 -0.8902  0.0393
 5824SOL     OW23061   5.145   1.552   0.329  0.9142 -1.4502 -0.1675
 5824SOL    HW223062   5.146   1.646   0.311 -2.9721 -1.2618 -0.2667
 5824SOL    HW323063   5.217   1.517   0.276  1.3962  1.2521 -1.4821
 5824SOL    MW423064   5.155   1.560   0.320 -0.3020 -0.0234  0.3322
 5825SOL     OW23065   0.981   4.711   2.425 -0.4480  0.4046  0.1436
 5825SOL    HW223066   1.033   4.697   2.346  1.5169  0.8726  1.2777
 5825SOL    HW323067   0.906   4.652   2.415  1.3663 -1.9037 -0.6424
 5825SOL    MW423068   0.978   4.702   2.413 -0.3741  0.1915  0.4722
 5826SOL     OW23069   0.428   5.807   4.092 -0.1778  0.2551  0.3479
 5826SOL    HW223070   0.511   5.802   4.046 -0.2129  0.9824  0.1856
 5826SOL    HW323071   0.411   5.901   4.101 -1.2343  0.1264 -0.0920
 5826SOL    MW423072   0.437   5.819   4.088  0.3138 -0.0028 -0.0871
 5827SOL     OW23073   0.728   2.199   5.557  0.4360 -0.4957  0.0568
 5827SOL    HW223074   0.674   2.277   5.545  1.3607 -0.0756 -1.7355
 5827SOL    HW323075   0.812   2.232   5.589  0.2135 -0.9859  1.2187
 5827SOL    MW423076   0.732   2.214   5.560  0.0280  0.2399  0.2912
 5828SOL     OW23077   3.156   5.469   2.278  0.4488  0.3936  0.0696
 5828SOL    HW223078   3.229   5.478   2.216  0.8752  0.5212  0.5834
 5828SOL    HW323079   3.197   5.476   2.364 -0.3451  1.8306  0.3574
 5828SOL    MW423080   3.171   5.471   2.281 -0.0302  0.4313 -0.2969
 5829SOL     OW23081   5.451   0.418   1.186 -0.3625  0.2157  0.2591
 5829SOL    HW223082   5.511   0.492   1.200 -0.0401  0.3429 -1.5343
 5829SOL    HW323083   5.498   0.342   1.220  0.3783  0.4886 -0.1149
 5829SOL    MW423084   5.465   0.418   1.192 -0.0275  0.0839  0.0369
 5830SOL     OW23085   1.682   5.218   3.958 -0.0918 -0.5270  0.5659
 5830SOL    HW223086   1.631   5.264   4.025 -0.1303 -0.3032  0.3840
 5830SOL    HW323087   1.620   5.204   3.886  0.1685 -0.0333  0.2412
 5830SOL    MW423088   1.667   5.222   3.957 -0.4511 -0.4615  0.2870
 5831SOL     OW23089   5.801   0.098   1.816  0.1830  0.5763 -0.0395
 5831SOL    HW223090   5.762   0.039   1.751  3.3359 -1.1252 -0.6399
 5831SOL    HW323091   5.731   0.115   1.879 -1.6695 -1.5876 -1.3480
 5831SOL    MW423092   5.787   0.092   1.816 -0.5124  0.4519 -0.0469
 5832SOL     OW23093   0.801   5.433   0.147  0.2699 -0.0418  0.1980
 5832SOL    HW223094   0.729   5.480   0.104  0.6171 -0.8407 -1.3312
 5832SOL    HW323095   0.878   5.488   0.133  0.2479  0.0569  0.4604
 5832SOL    MW423096   0.801   5.447   0.140  0.8050  0.4417 -0.0556
 5833SOL     OW23097   3.376   3.313   0.129  0.7671 -0.5430  0.0603
 5833SOL    HW223098   3.431   3.235   0.125  0.9322 -0.4538  0.5202
 5833SOL    HW323099   3.406   3.367   0.055  1.5120 -0.3603  0.4793
 5833SOL    MW423100   3.387   3.310   0.118  0.5308  0.5927  0.5252
 5834SOL     OW23101   3.615   0.336   4.397 -0.5944 -0.3344  0.0704
 5834SOL    HW223102   3.581   0.401   4.335 -0.3061 -1.5270 -1.3688
 5834SOL    HW323103   3.666   0.388   4.460  1.2133  0.7122 -2.1178
 5834SOL    MW423104   3.618   0.352   4.397 -0.4761  0.0099 -0.1891
 5835SOL     OW23105   1.741   4.075   1.198 -0.3183  0.0209  0.3969
 5835SOL    HW223106   1.698   4.030   1.125  2.6959 -1.4224 -0.6654
 5835SOL    HW323107   1.733   4.168   1.177 -0.0941 -0.3312 -1.5168
 5835SOL    MW423108   1.734   4.081   1.185  0.2326 -0.3407  0.1559
 5836SOL     OW23109   6.046   3.109   2.520 -0.6694 -0.2770  0.4697
 5836SOL    HW223110   6.003   3.192   2.498 -2.0708 -1.1066 -0.0106
 5836SOL    HW323111   6.069   3.071   2.436  0.5459 -0.1015  0.7103
 5836SOL    MW423112   6.043   3.115   2.506 -0.2480  0.3117 -0.4199
 5837SOL     OW23113   0.751   2.036   4.563 -0.3353  0.0814  0.1829
 5837SOL    HW223114   0.793   1.954   4.590  0.2836  0.1255 -0.5969
 5837SOL    HW323115   0.775   2.098   4.631 -0.2164 -0.2124  0.4129
 5837SOL    MW423116   0.760   2.033   4.575 -0.7552  0.4293  0.6220
 5838SOL     OW23117   0.958   4.896   0.072 -0.0168 -0.4615  0.1933
 5838SOL    HW223118   1.045   4.922   0.041  1.3370 -0.7776  3.3197
 5838SOL    HW323119   0.898   4.925   0.003  2.4447  0.7555 -1.5873
 5838SOL    MW423120   0.962   4.903   0.059 -0.0923  1.0385  0.0771
 5839SOL     OW23121   2.815   1.657   4.581  0.7082 -0.6291 -0.1416
 5839SOL    HW223122   2.723   1.681   4.571  0.8050 -0.4924 -0.7228
 5839SOL    HW323123   2.848   1.715   4.649  0.7485  0.3781 -0.9986
 5839SOL    MW423124   2.808   1.668   4.589  0.0233 -0.1866  0.1512
 5840SOL     OW23125   5.145   3.481   2.839  0.1348 -0.1870 -0.3249
 5840SOL    HW223126   5.160   3.387   2.834 -1.9354 -0.5581 -0.5407
 5840SOL    HW323127   5.119   3.496   2.930  0.8755  0.2533 -0.1830
 5840SOL    MW423128   5.143   3.470   2.851  0.4026 -0.3333 -0.5743
 5841SOL     OW23129   2.778   3.918   3.067 -0.6085 -0.5223 -0.0672
 5841SOL    HW223130   2.840   3.870   3.012  0.2434 -0.0010  0.4247
 5841SOL    HW323131   2.709   3.947   3.006 -0.4130 -1.1677 -0.6028
 5841SOL    MW423132   2.777   3.916   3.051  0.0797  0.0335  0.5699
 5842SOL     OW23133   0.828   3.679   0.378 -0.1075 -0.3861  0.1917
 5842SOL    HW223134   0.806   3.748   0.441 -0.1393  0.8428 -1.1240
 5842SOL    HW323135   0.915   3.702   0.346 -1.9478  2.0185 -3.9220
 5842SOL    MW423136   0.837   3.691   0.382  0.0914 -0.2217  0.0808
 5843SOL     OW23137   2.982   0.255   2.536  0.4308  0.1265 -0.0254
 5843SOL    HW223138   2.909   0.209   2.494  2.0241 -0.9705 -1.8199
 5843SOL    HW323139   2.984   0.340   2.494 -0.5172  0.6373  0.9168
 5843SOL    MW423140   2.973   0.260   2.525  0.3186 -0.5709 -0.4428
 5844SOL     OW23141   1.843   2.035   0.993 -0.1104 -0.0042 -0.0338
 5844SOL    HW223142   1.805   2.001   0.912  0.2312 -1.9989  0.5855
 5844SOL    HW323143   1.770   2.036   1.055  0.2708 -1.5325  0.4832
 5844SOL    MW423144   1.828   2.030   0.990  0.8190  0.3235  0.1567
 5845SOL     OW23145   2.265   1.710   0.825  0.5614 -0.3303 -0.1043
 5845SOL    HW223146   2.307   1.735   0.907 -0.6773  1.7176 -0.0062
 5845SOL    HW323147   2.276   1.787   0.769 -3.2701  0.5608  0.0930
 5845SOL    MW423148   2.272   1.724   0.829  0.2890  0.3045 -0.8253
 5846SOL     OW23149   5.695   1.332   2.223  0.1835 -0.4840 -0.0760
 5846SOL    HW223150   5.605   1.338   2.256  0.0143 -1.9606 -0.1796
 5846SOL    HW323151   5.685   1.317   2.129  0.5868  0.5739 -0.3017
 5846SOL    MW423152   5.682   1.331   2.215  0.0201  0.1920 -0.0986
 5847SOL     OW23153   5.777   5.353   5.728  0.0790 -0.6172 -0.9552
 5847SOL    HW223154   5.849   5.295   5.752 -1.0791 -1.4134  0.8495
 5847SOL    HW323155   5.818   5.424   5.679  2.3769 -0.2036  1.3521
 5847SOL    MW423156   5.792   5.355   5.725 -0.5166  0.1259 -0.3060
 5848SOL     OW23157   4.826   5.917   5.168 -0.6636 -0.0612 -0.2751
 5848SOL    HW223158   4.900   5.974   5.145  1.5369 -2.2001  0.9949
 5848SOL    HW323159   4.815   5.861   5.092 -0.1418 -0.5210 -0.0210
 5848SOL    MW423160   4.834   5.917   5.155  0.5630 -0.1349 -0.3903
 5849SOL     OW23161   3.951   0.696   4.081  0.0716 -0.7606  0.1026
 5849SOL    HW223162   3.858   0.707   4.064 -0.2649 -0.7848  1.8313
 5849SOL    HW323163   3.974   0.767   4.140  1.2722 -0.4750 -0.6740
 5849SOL    MW423164   3.942   0.707   4.086  0.5464  0.3580 -0.0451
 5850SOL     OW23165   2.985   2.740   5.745 -0.0966  0.3555  0.4408
 5850SOL    HW223166   3.039   2.669   5.709  0.6856  1.0201  0.2819
 5850SOL    HW323167   3.016   2.818   5.699 -0.3819  0.9265  1.2174
 5850SOL    MW423168   2.996   2.741   5.734 -0.0414 -0.8363  0.3883
 5851SOL     OW23169   4.596   0.881   5.106  0.3904  0.3444  0.0253
 5851SOL    HW223170   4.664   0.823   5.072 -0.9317 -1.0926 -0.2472
 5851SOL    HW323171   4.616   0.889   5.200  0.7455 -0.3026  0.0058
 5851SOL    MW423172   4.608   0.875   5.114 -0.2192  0.4358 -0.0466
 5852SOL     OW23173   5.017   2.806   3.124  0.1366 -0.5326  0.0016
 5852SOL    HW223174   5.065   2.730   3.092 -0.8590 -1.5520  0.8301
 5852SOL    HW323175   5.070   2.838   3.197  0.4596 -0.5491 -0.2226
 5852SOL    MW423176   5.030   2.800   3.130 -0.3401 -0.1991 -0.2886
 5853SOL     OW23177   3.559   4.523   5.203 -0.0434 -0.2670 -0.1404
 5853SOL    HW223178   3.512   4.439   5.211  1.0727 -1.2388 -2.5853
 5853SOL    HW323179   3.535   4.555   5.116  2.5130 -0.0159 -0.8411
 5853SOL    MW423180   3.550   4.516   5.192  0.3037 -0.0053  0.2910
 5854SOL     OW23181   3.604   3.909   1.020  0.5575  0.3169 -0.1358
 5854SOL    HW223182   3.548   3.836   0.992 -0.0118  0.5214  0.4353
 5854SOL    HW323183   3.693   3.874   1.015  0.1928 -1.1196  2.0609
 5854SOL    MW423184   3.608   3.894   1.016 -0.0582  0.0153 -1.0530
 5855SOL     OW23185   1.241   3.517   4.187 -0.6452 -0.5456 -0.2610
 5855SOL    HW223186   1.326   3.504   4.229 -0.1116  1.0403 -0.7823
 5855SOL    HW323187   1.183   3.542   4.259 -0.6840 -1.5926  0.0899
 5855SOL    MW423188   1.245   3.519   4.202  0.3685 -0.1476  0.1575
 5856SOL     OW23189   0.056   0.103   4.572  0.1700 -0.0073 -0.0249
 5856SOL    HW223190   0.029   0.106   4.480  0.6974 -0.1724 -0.1880
 5856SOL    HW323191  -0.023   0.128   4.621  0.0071  0.5014 -0.5397
 5856SOL    MW423192   0.042   0.107   4.566  0.0058 -0.3553 -0.3527
 5857SOL     OW23193   5.805   0.102   6.273 -0.3103  0.4061 -0.7604
 5857SOL    HW223194   5.774   0.014   6.255  1.7258 -0.5083  0.0050
 5857SOL    HW323195   5.896   0.103   6.244 -0.1550  2.1365 -0.3779
 5857SOL    MW423196   5.812   0.091   6.266  0.1720 -0.4695  0.3889
 5858SOL     OW23197   1.216   3.885   0.933 -0.8418 -0.2313  0.0969
 5858SOL    HW223198   1.139   3.897   0.988 -1.5223 -2.2754 -0.3462
 5858SOL    HW323199   1.278   3.837   0.987  0.5283  2.0609  0.7252
 5858SOL    MW423200   1.214   3.880   0.947  0.0949 -0.1471  0.3564
 5859SOL     OW23201   0.185   0.103   5.971 -0.2459 -0.1006  0.7183
 5859SOL    HW223202   0.280   0.098   5.959 -0.2807  1.2780 -0.3930
 5859SOL    HW323203   0.150   0.033   5.916  0.0999 -0.5776  1.0899
 5859SOL    MW423204   0.193   0.093   5.962  0.0819  0.3623 -0.2733
 5860SOL     OW23205   5.770   0.712   0.297 -0.0986 -0.3066 -0.2252
 5860SOL    HW223206   5.777   0.702   0.392 -0.8397 -1.6162 -0.2817
 5860SOL    HW323207   5.689   0.763   0.284  0.6158  0.8884 -0.1359
 5860SOL    MW423208   5.760   0.718   0.308  0.3286 -0.1553  0.2776
 5861SOL     OW23209   5.300   0.574   5.603  0.0162 -0.2286  0.3013
 5861SOL    HW223210   5.302   0.584   5.699  2.5325 -1.7513  0.5040
 5861SOL    HW323211   5.386   0.606   5.575 -0.9858  0.9817 -1.6028
 5861SOL    MW423212   5.312   0.580   5.612  0.0556  0.5425 -0.4946
 5862SOL     OW23213   0.456   6.409   1.870  0.4957 -0.1343  0.1535
 5862SOL    HW223214   0.438   6.359   1.791 -0.8832  0.4242  0.1000
 5862SOL    HW323215   0.501   6.488   1.839  0.5036 -0.2007 -0.0037
 5862SOL    MW423216   0.460   6.413   1.856 -0.0550  0.1134 -0.1994
 5863SOL     OW23217   0.031   6.308   3.273 -0.1257 -0.5362  0.5845
 5863SOL    HW223218   0.060   6.228   3.317 -1.6613 -0.8882  1.0439
 5863SOL    HW323219  -0.011   6.359   3.342 -0.8985 -0.2444 -0.0867
 5863SOL    MW423220   0.029   6.304   3.288 -0.5427 -0.0279  0.0678
 5864SOL     OW23221   3.893   3.097   0.194  0.1760 -0.2114  0.0738
 5864SOL    HW223222   3.971   3.136   0.234 -0.3227 -0.0461  0.9207
 5864SOL    HW323223   3.820   3.130   0.246 -0.4528 -0.4909 -0.6056
 5864SOL    MW423224   3.894   3.106   0.206  0.9326 -0.4838 -0.5890
 5865SOL     OW23225   3.830   4.279   0.892 -0.3273 -0.1665 -0.1950
 5865SOL    HW223226   3.770   4.241   0.829 -1.1800 -1.0192  1.0752
 5865SOL    HW323227   3.825   4.373   0.876 -2.7691 -0.1091  0.4675
 5865SOL    MW423228   3.821   4.287   0.882 -0.3869 -0.1636  0.2900
 5866SOL     OW23229   3.223   3.331   2.528  0.1596 -0.0234  0.3284
 5866SOL    HW223230   3.155   3.392   2.558  1.7438  1.2112  1.5579
 5866SOL    HW323231   3.199   3.247   2.567  0.4325  0.8580  2.5428
 5866SOL    MW423232   3.211   3.328   2.537  0.1600  0.3551  0.2125
 5867SOL     OW23233   2.076   3.475   1.693 -0.3173  0.4648 -0.0986
 5867SOL    HW223234   2.141   3.484   1.763  0.1138  1.7437 -0.6409
 5867SOL    HW323235   2.128   3.474   1.612 -0.7155 -1.9952 -0.4201
 5867SOL    MW423236   2.092   3.476   1.691 -0.2134 -0.1826 -0.1356
 5868SOL     OW23237   4.582   4.791   2.581  0.0412  0.2380 -0.2101
 5868SOL    HW223238   4.506   4.734   2.589 -0.6468  1.0697 -0.6023
 5868SOL    HW323239   4.555   4.873   2.623  1.1090  0.1938  0.6113
 5868SOL    MW423240   4.569   4.794   2.588  0.4037  0.3735  0.2524
 5869SOL     OW23241   3.830   5.430   2.648  0.1777 -0.6662 -0.4269
 5869SOL    HW223242   3.846   5.369   2.576  5.0215  1.4049 -1.4888
 5869SOL    HW323243   3.821   5.516   2.605  1.4983  0.3951  1.3069
 5869SOL    MW423244   3.831   5.433   2.633 -0.2201  0.5098 -0.1998
 5870SOL     OW23245   0.909   5.962   5.920 -0.0132 -0.2134 -0.1432
 5870SOL    HW223246   0.928   5.884   5.869 -0.6800 -0.7267  0.3735
 5870SOL    HW323247   0.818   5.952   5.947 -0.5864  1.4515 -1.2937
 5870SOL    MW423248   0.900   5.950   5.917 -0.1712  0.0536  0.8882
 5871SOL     OW23249   4.270   2.286   6.354  0.0439 -0.3738  0.2951
 5871SOL    HW223250   4.195   2.344   6.370 -0.7490 -1.3987  0.4190
 5871SOL    HW323251   4.345   2.333   6.390  0.0126  2.0315 -2.4458
 5871SOL    MW423252   4.270   2.300   6.361 -0.1835 -0.0806 -0.1012
 5872SOL     OW23253   4.984   4.895   1.083 -0.0958 -0.4669  0.1191
 5872SOL    HW223254   4.982   4.828   1.015 -0.2023 -0.5021  0.1572
 5872SOL    HW323255   4.948   4.852   1.160  1.2104 -0.8255  0.5527
 5872SOL    MW423256   4.979   4.881   1.084  0.4069 -0.2586 -0.5015
 5873SOL     OW23257   0.703   1.940   2.817 -0.4441  0.1776  0.5307
 5873SOL    HW223258   0.671   1.854   2.842 -1.3576  0.6795  1.1468
 5873SOL    HW323259   0.703   1.940   2.722  0.1937 -0.7231  0.5205
 5873SOL    MW423260   0.699   1.929   2.808  0.1911 -0.4855  0.1245
 5874SOL     OW23261   3.123   3.777   1.279 -0.3358  0.1147  0.0366
 5874SOL    HW223262   3.051   3.772   1.216 -0.3380 -0.1850  0.0650
 5874SOL    HW323263   3.164   3.862   1.261 -0.6800  0.2758  0.0058
 5874SOL    MW423264   3.119   3.788   1.268 -0.0432 -0.1438  0.4732
 5875SOL     OW23265   1.026   0.763   1.191  0.1490  0.1528 -0.1111
 5875SOL    HW223266   1.055   0.772   1.100  0.1021  0.7638 -0.0693
 5875SOL    HW323267   1.019   0.669   1.205  4.0325 -0.2402  0.4630
 5875SOL    MW423268   1.029   0.752   1.181 -0.2763  0.5390  0.4164
 5876SOL     OW23269   3.635   1.758   0.904 -0.0074  0.5416 -0.0608
 5876SOL    HW223270   3.578   1.834   0.916 -2.7360 -1.4252  0.2113
 5876SOL    HW323271   3.694   1.761   0.980 -1.2030  1.4616  0.8811
 5876SOL    MW423272   3.636   1.768   0.916 -0.1508  0.1364  0.2441
 5877SOL     OW23273   1.061   2.055   4.447  1.1097  0.4481  0.0286
 5877SOL    HW223274   1.087   1.974   4.403  1.3125 -0.4075  1.6508
 5877SOL    HW323275   0.970   2.040   4.474  1.0918  0.8240  0.1862
 5877SOL    MW423276   1.052   2.042   4.445  0.0783 -0.0019  0.6446
 5878SOL     OW23277   4.774   5.275   1.530  0.3970  0.6992 -0.1232
 5878SOL    HW223278   4.770   5.370   1.543  1.1806  0.6567  0.4567
 5878SOL    HW323279   4.777   5.238   1.618  0.6707  0.1598 -0.3538
 5878SOL    MW423280   4.774   5.283   1.543 -0.2292  0.3738  0.0135
 5879SOL     OW23281   3.578   5.771   5.155  0.4191 -0.6966  0.1846
 5879SOL    HW223282   3.650   5.825   5.187  1.5049 -2.3083  0.5879
 5879SOL    HW323283   3.569   5.702   5.220  0.1251 -1.8936 -1.0902
 5879SOL    MW423284   3.586   5.769   5.168  0.0753 -0.3611  0.2587
 5880SOL     OW23285   3.450   2.590   3.367 -0.4168  0.4794  0.2375
 5880SOL    HW223286   3.477   2.541   3.445 -0.3118  0.9196  0.4828
 5880SOL    HW323287   3.459   2.682   3.392 -0.5766  0.6269 -0.2287
 5880SOL    MW423288   3.454   2.596   3.381 -0.2442  0.5260  0.8301
 5881SOL     OW23289   6.060   5.450   5.098 -0.1731 -0.6331  0.3305
 5881SOL    HW223290   6.040   5.372   5.149  1.5530 -0.3612  1.5121
 5881SOL    HW323291   6.145   5.433   5.058  0.1558  0.5510  0.4640
 5881SOL    MW423292   6.069   5.438   5.099  0.0594  0.9268 -0.0108
 5882SOL     OW23293   0.304   5.643   0.235 -0.4209 -0.1358 -0.0339
 5882SOL    HW223294   0.366   5.706   0.273  0.5579 -0.6969 -0.6754
 5882SOL    HW323295   0.305   5.662   0.141  0.3785 -1.4985 -0.3332
 5882SOL    MW423296   0.312   5.654   0.228  0.1989  0.3874 -0.3586
 5883SOL     OW23297   4.317   2.747   6.353  0.3693 -0.7063 -0.3866
 5883SOL    HW223298   4.377   2.689   6.400  1.3948  0.7013  0.1080
 5883SOL    HW323299   4.357   2.758   6.267  1.0501  0.5194  0.0651
 5883SOL    MW423300   4.330   2.741   6.348 -0.2403 -0.3936  0.0087
 5884SOL     OW23301   5.297   5.874   2.558 -0.4517  0.0423  0.5863
 5884SOL    HW223302   5.290   5.874   2.462 -0.7540  0.4927  0.6070
 5884SOL    HW323303   5.238   5.805   2.587 -2.7544  1.9128  0.6080
 5884SOL    MW423304   5.289   5.865   2.549 -0.6922  0.0898  0.0160
 5885SOL     OW23305   5.449   5.852   1.777 -0.1007 -0.0817  0.2789
 5885SOL    HW223306   5.415   5.936   1.747 -0.3347 -0.1976  0.2217
 5885SOL    HW323307   5.396   5.787   1.731  1.5818 -0.2914 -1.5126
 5885SOL    MW423308   5.438   5.855   1.767  0.5000 -0.8194 -0.2985
 5886SOL     OW23309   5.475   6.012   2.212  0.0787 -0.6265  0.0977
 5886SOL    HW223310   5.424   5.960   2.149  0.6610 -0.5126 -0.4879
 5886SOL    HW323311   5.531   5.949   2.256  1.0230 -0.4949 -0.8441
 5886SOL    MW423312   5.476   5.997   2.209  0.2114  0.9116  0.4338
 5887SOL     OW23313   3.902   0.572   3.521  0.2448 -0.4290  0.2924
 5887SOL    HW223314   3.930   0.660   3.545 -0.1521 -0.3872  0.5946
 5887SOL    HW323315   3.935   0.516   3.591  0.9316 -0.5959 -0.1490
 5887SOL    MW423316   3.910   0.576   3.533 -0.0832  0.1362  0.2419
 5888SOL     OW23317   1.366   4.353   0.039  0.4016 -0.3050 -0.3831
 5888SOL    HW223318   1.432   4.285   0.034 -0.3053 -0.9685 -0.9501
 5888SOL    HW323319   1.288   4.309   0.072  0.4177  0.6132  0.9675
 5888SOL    MW423320   1.364   4.338   0.042  0.3812  0.3749 -0.6252
 5889SOL     OW23321   3.068   3.966   0.624 -0.4229 -0.1119 -0.6107
 5889SOL    HW223322   3.091   3.873   0.621 -1.0993 -0.3785  1.2580
 5889SOL    HW323323   3.091   3.999   0.537  0.3941 -1.8827 -1.1154
 5889SOL    MW423324   3.074   3.958   0.613 -0.1590 -0.9900 -0.0949
 5890SOL     OW23325   1.096   1.552   4.158 -0.2932 -0.0796  0.3557
 5890SOL    HW223326   1.119   1.634   4.116  1.1583 -0.6103  0.0577
 5890SOL    HW323327   1.001   1.555   4.168 -0.6136  0.3756 -2.2899
 5890SOL    MW423328   1.086   1.563   4.154  0.0587  0.3684  0.2505
 5891SOL     OW23329   5.996   5.314   6.037  0.2371  0.1107 -0.8488
 5891SOL    HW223330   5.961   5.293   6.124  1.3306 -0.4786 -0.5378
 5891SOL    HW323331   5.951   5.395   6.013  0.8011  0.9758  0.8114
 5891SOL    MW423332   5.985   5.322   6.045 -0.2505  0.0244 -0.2345
 5892SOL     OW23333   3.353   2.683   1.035 -0.4321 -0.3022  0.1300
 5892SOL    HW223334   3.438   2.659   1.072 -0.2172 -0.1913 -0.2864
 5892SOL    HW323335   3.362   2.666   0.941  0.0719  2.3156 -0.3773
 5892SOL    MW423336   3.366   2.677   1.027 -0.4973 -0.1014  0.6724
 5893SOL     OW23337   0.052   3.422   1.951 -0.0654  0.2104 -0.6060
 5893SOL    HW223338  -0.041   3.434   1.967 -0.0447  0.2362 -0.5072
 5893SOL    HW323339   0.082   3.366   2.022 -0.2240 -0.6878 -1.2292
 5893SOL    MW423340   0.044   3.416   1.962  0.4593  0.1494  0.7246
 5894SOL     OW23341   3.689   3.502   5.505 -0.3374 -0.0419  0.3608
 5894SOL    HW223342   3.631   3.547   5.567  0.5167  0.0538  1.1161
 5894SOL    HW323343   3.641   3.423   5.481 -0.7345 -0.0312  1.0741
 5894SOL    MW423344   3.675   3.498   5.510  0.0088 -0.4525 -0.5990
 5895SOL     OW23345   4.590   4.192   1.059  0.4482 -0.3790  0.0468
 5895SOL    HW223346   4.539   4.190   0.977  0.9217 -1.5928 -0.2474
 5895SOL    HW323347   4.556   4.267   1.107 -1.6328 -1.1317 -0.1475
 5895SOL    MW423348   4.579   4.201   1.054 -0.3459  0.4857 -0.3946
 5896SOL     OW23349   5.355   5.603   2.373  0.4987  0.3318  0.0831
 5896SOL    HW223350   5.353   5.552   2.454  2.1381  0.5176  0.2758
 5896SOL    HW323351   5.273   5.581   2.328  1.1498 -2.4889  0.1352
 5896SOL    MW423352   5.344   5.593   2.378 -0.4097 -0.2352  0.2219
 5897SOL     OW23353   0.310   1.593   2.161  0.1182 -0.0473 -0.5861
 5897SOL    HW223354   0.350   1.653   2.098 -1.3227  2.9061  1.1212
 5897SOL    HW323355   0.345   1.507   2.137  3.5168  1.5955 -2.2307
 5897SOL    MW423356   0.320   1.589   2.149  0.5250 -0.3025  0.4298
 5898SOL     OW23357   3.859   0.383   5.995  0.1396 -0.2700 -0.1908
 5898SOL    HW223358   3.867   0.425   5.910 -0.5239  0.7166  0.2015
 5898SOL    HW323359   3.892   0.449   6.057  1.8050 -1.4453  0.2336
 5898SOL    MW423360   3.864   0.397   5.992 -0.1659  0.0953 -0.0674
 5899SOL     OW23361   0.540   4.158   4.492 -0.0921 -0.0677  0.3399
 5899SOL    HW223362   0.555   4.194   4.405 -0.2400  0.7601  0.6514
 5899SOL    HW323363   0.625   4.123   4.518  0.0271 -0.0427 -0.0061
 5899SOL    MW423364   0.553   4.158   4.484 -0.5452 -0.5772 -0.5421
 5900SOL     OW23365   1.669   4.686   5.273 -0.5707 -0.0481 -0.3530
 5900SOL    HW223366   1.608   4.725   5.210 -0.3382  0.1088 -0.4848
 5900SOL    HW323367   1.672   4.593   5.249  0.4342  0.2126 -1.3621
 5900SOL    MW423368   1.661   4.679   5.261  0.1787 -0.0391 -0.5194
 5901SOL     OW23369   1.585   2.498   1.717  0.3832  0.3002 -0.2321
 5901SOL    HW223370   1.656   2.539   1.768  1.5606 -2.9882  1.0212
 5901SOL    HW323371   1.612   2.509   1.626  2.0167  0.0398  0.1810
 5901SOL    MW423372   1.598   2.505   1.712  0.5420  0.6234 -0.8229
 5902SOL     OW23373   4.950   6.139   5.433 -0.4252 -0.4675  0.8348
 5902SOL    HW223374   5.019   6.189   5.477  0.3711 -0.8340  0.0346
 5902SOL    HW323375   4.903   6.095   5.504 -1.4370  1.7244  1.6100
 5902SOL    MW423376   4.953   6.140   5.448 -0.2226 -0.8863  0.0307
 5903SOL     OW23377   4.710   4.877   1.897  0.0330  0.1111 -0.7560
 5903SOL    HW223378   4.799   4.842   1.895  0.3577  0.9615 -1.3466
 5903SOL    HW323379   4.709   4.939   1.970 -0.7302 -1.5360  0.7281
 5903SOL    MW423380   4.721   4.880   1.907  0.3583  0.5542 -0.9447
 5904SOL     OW23381   2.729   5.167   5.324  0.6992  0.1256 -0.1670
 5904SOL    HW223382   2.805   5.185   5.270  0.4322  1.0462 -0.2515
 5904SOL    HW323383   2.658   5.151   5.261  0.4576  0.8952 -0.0956
 5904SOL    MW423384   2.729   5.167   5.308 -0.2343  0.1241  1.0353
 5905SOL     OW23385   4.272   2.549   3.858  0.1081  0.5561 -0.6748
 5905SOL    HW223386   4.273   2.508   3.944 -0.2112  0.8053 -0.5506
 5905SOL    HW323387   4.230   2.484   3.801  0.5361  0.2924 -0.6993
 5905SOL    MW423388   4.267   2.535   3.861  0.1348  0.1013 -0.1410
 5906SOL     OW23389   1.297   0.940   3.129  0.1662 -0.1069  0.5261
 5906SOL    HW223390   1.343   0.943   3.213  0.0052  0.4905  0.6034
 5906SOL    HW323391   1.360   0.902   3.068  0.8282  0.8255  0.6036
 5906SOL    MW423392   1.312   0.936   3.132 -0.5234 -0.1012  0.1530
 5907SOL     OW23393   1.187   4.916   0.522 -0.2850  0.4120 -0.1773
 5907SOL    HW223394   1.238   4.855   0.469 -0.5839  0.4684 -0.5337
 5907SOL    HW323395   1.136   4.967   0.459 -2.3287 -0.9998  0.2430
 5907SOL    MW423396   1.187   4.915   0.507 -0.1054 -0.4745 -0.1876
 5908SOL     OW23397   0.411   1.878   6.238  0.3301 -0.1354 -0.1036
 5908SOL    HW223398   0.376   1.847   6.321  0.0702  1.7090  0.5255
 5908SOL    HW323399   0.451   1.962   6.259  1.7388 -0.3984 -1.5463
 5908SOL    MW423400   0.412   1.885   6.252  0.2696  0.1350  0.0780
 5909SOL     OW23401   2.453   4.455   5.656  0.3418  0.0893 -0.1066
 5909SOL    HW223402   2.410   4.436   5.572 -0.3497 -2.9002  0.7822
 5909SOL    HW323403   2.538   4.412   5.649  0.5799  0.4759  0.4348
 5909SOL    MW423404   2.459   4.447   5.644 -0.6673 -0.0401  0.1747
 5910SOL     OW23405   2.515   0.603   5.558  0.6089 -0.3896  0.4118
 5910SOL    HW223406   2.486   0.541   5.625 -0.5244  0.3829  0.6525
 5910SOL    HW323407   2.454   0.676   5.564 -0.9481 -1.2298 -2.9533
 5910SOL    MW423408   2.503   0.604   5.568  0.0459  0.9412  0.2868
 5911SOL     OW23409   4.614   0.095   2.317 -0.2431  0.0926 -0.3212
 5911SOL    HW223410   4.540   0.155   2.315  0.9206  1.7389  1.7798
 5911SOL    HW323411   4.688   0.149   2.345  1.3562 -1.8814 -0.4982
 5911SOL    MW423412   4.614   0.110   2.321 -0.4342 -0.3348 -0.1237
 5912SOL     OW23413   5.243   3.990   0.507  0.1355 -0.0104 -0.1112
 5912SOL    HW223414   5.159   4.000   0.463 -0.1709  1.5832  0.7698
 5912SOL    HW323415   5.264   4.077   0.539  0.9721 -0.8470  1.7632
 5912SOL    MW423416   5.235   4.003   0.505  0.4798 -0.9539  0.0634
 5913SOL     OW23417   3.219   3.668   2.973 -0.2660 -0.1620 -0.4755
 5913SOL    HW223418   3.287   3.645   3.037 -0.4984 -0.5641 -0.3712
 5913SOL    HW323419   3.264   3.724   2.910  0.4824 -1.4342 -1.1145
 5913SOL    MW423420   3.234   3.673   2.973 -0.1835 -0.3927 -0.3549
 5914SOL     OW23421   0.166   3.286   1.735  0.5804 -0.2772 -0.1898
 5914SOL    HW223422   0.107   3.215   1.712  1.2396 -1.4299  1.4749
 5914SOL    HW323423   0.134   3.317   1.820  1.0827  0.5421 -0.2868
 5914SOL    MW423424   0.154   3.281   1.743  0.1511 -0.1578  0.0111
 5915SOL     OW23425   0.750   0.382   0.935 -0.4093 -0.1309 -0.7591
 5915SOL    HW223426   0.768   0.293   0.965 -3.6271 -0.2969  1.1494
 5915SOL    HW323427   0.689   0.371   0.862 -1.7793  0.4379  0.2497
 5915SOL    MW423428   0.744   0.369   0.930  0.2375  0.1008 -0.0586
 5916SOL     OW23429   6.292   1.528   0.368 -0.2452  0.3426 -0.2482
 5916SOL    HW223430   6.363   1.463   0.368 -0.0740  0.5163  0.7577
 5916SOL    HW323431   6.218   1.482   0.407  0.1887  1.0580  1.4923
 5916SOL    MW423432   6.292   1.513   0.373  0.3185 -0.0191  0.5415
 5917SOL     OW23433   2.565   2.931   4.073 -1.0247  0.3235 -0.1981
 5917SOL    HW223434   2.656   2.921   4.102 -1.2986  0.0645  0.6260
 5917SOL    HW323435   2.545   2.849   4.027 -0.7204  0.5450 -0.7242
 5917SOL    MW423436   2.574   2.919   4.071 -0.3761 -0.3018 -0.0800
 5918SOL     OW23437   2.850   5.315   6.331  0.0803 -0.1290  0.2927
 5918SOL    HW223438   2.920   5.299   6.393  0.5862 -0.0886 -0.2581
 5918SOL    HW323439   2.892   5.359   6.257 -0.0484 -2.1684 -1.0836
 5918SOL    MW423440   2.865   5.319   6.329  0.0614  0.0405  0.3613
 5919SOL     OW23441   1.722   0.676   1.022  0.7829  0.0059  0.2940
 5919SOL    HW223442   1.627   0.683   1.027  0.7704 -0.8419  1.8336
 5919SOL    HW323443   1.746   0.621   1.096  2.4605 -0.0149 -0.2213
 5919SOL    MW423444   1.713   0.669   1.032  0.0207  0.4679 -0.4820
 5920SOL     OW23445   6.412   4.640   5.809  0.3292  0.0107 -0.3266
 5920SOL    HW223446   6.503   4.632   5.782 -0.1189 -0.5867 -1.7257
 5920SOL    HW323447   6.392   4.734   5.800  0.4878 -0.0268 -1.1261
 5920SOL    MW423448   6.421   4.652   5.804 -0.3194 -0.1864 -0.9062
 5921SOL     OW23449   2.237   3.790   6.236  0.2500 -0.0858  0.5266
 5921SOL    HW223450   2.255   3.857   6.302 -0.0923  0.9758 -0.4373
 5921SOL    HW323451   2.192   3.836   6.165  2.5777 -0.6739 -1.4976
 5921SOL    MW423452   2.234   3.805   6.235  0.0036 -0.2095  0.1039
 5922SOL     OW23453   6.132   1.373   0.529  0.0768 -0.4997 -0.0708
 5922SOL    HW223454   6.141   1.280   0.509 -0.0384 -0.2003 -1.6432
 5922SOL    HW323455   6.145   1.379   0.623  0.4543 -2.0598 -0.0028
 5922SOL    MW423456   6.135   1.362   0.538  0.0962 -0.4481 -0.1515
 5923SOL     OW23457   3.555   5.498   3.997  0.2511  0.4112 -0.0810
 5923SOL    HW223458   3.613   5.527   4.068  0.2926  0.8359 -0.2862
 5923SOL    HW323459   3.539   5.577   3.946  1.3755 -0.1719 -1.3850
 5923SOL    MW423460   3.560   5.512   4.000 -0.3447 -0.0470  0.0394
 5924SOL     OW23461   1.964   1.632   3.021 -0.2244 -0.2157 -0.3673
 5924SOL    HW223462   1.879   1.595   2.997 -0.2483 -1.5995  1.6044
 5924SOL    HW323463   1.979   1.601   3.110  2.4340 -0.1440 -0.7163
 5924SOL    MW423464   1.955   1.623   3.030  0.1367  0.3220 -0.3795
 5925SOL     OW23465   6.176   0.775   6.395  0.1773  0.0051  0.1999
 5925SOL    HW223466   6.124   0.703   6.360 -1.5903  2.2659 -2.2901
 5925SOL    HW323467   6.122   0.812   6.465 -0.7364  1.0534 -0.9865
 5925SOL    MW423468   6.162   0.771   6.400 -0.5503 -0.3859 -0.3623
 5926SOL     OW23469   2.143   2.524   3.137  0.1351 -0.2793  0.3618
 5926SOL    HW223470   2.098   2.508   3.220  0.5022  1.3934  0.9172
 5926SOL    HW323471   2.236   2.517   3.159  0.2226 -0.6042 -0.0936
 5926SOL    MW423472   2.150   2.521   3.151  0.1983 -0.5533  0.3549
 5927SOL     OW23473   2.093   1.600   1.660 -0.3042  0.2626 -0.2595
 5927SOL    HW223474   2.106   1.612   1.754 -0.9764  1.1777 -0.2640
 5927SOL    HW323475   2.099   1.506   1.646  1.1451  0.2205  0.4838
 5927SOL    MW423476   2.095   1.589   1.670 -0.4270 -0.1113  0.8384
 5928SOL     OW23477   3.520   1.592   2.570  0.1125  0.0083  0.2315
 5928SOL    HW223478   3.467   1.519   2.538 -1.5168  0.3583  1.8946
 5928SOL    HW323479   3.497   1.665   2.512  0.6430 -0.4293 -0.5433
 5928SOL    MW423480   3.510   1.592   2.558  0.4838 -0.2996 -0.5308
 5929SOL     OW23481   5.337   4.964   0.192  0.1300 -0.1093  0.1123
 5929SOL    HW223482   5.265   4.941   0.134 -0.7995  0.6988  0.9094
 5929SOL    HW323483   5.325   5.057   0.209  0.5432 -0.2743  1.3787
 5929SOL    MW423484   5.326   4.973   0.186  0.1741  0.5504  0.4689
 5930SOL     OW23485   6.192   4.386   3.023  0.1976 -0.7311 -0.2822
 5930SOL    HW223486   6.272   4.347   2.987  0.1723 -0.7197 -0.3514
 5930SOL    HW323487   6.138   4.405   2.946 -0.3500 -1.7912 -0.1720
 5930SOL    MW423488   6.196   4.383   3.008  0.1945  0.3089 -0.1680
 5931SOL     OW23489   4.471   4.333   2.155  0.2546 -0.4406 -0.0413
 5931SOL    HW223490   4.483   4.256   2.100 -0.5937  0.0090 -0.8664
 5931SOL    HW323491   4.385   4.366   2.132 -0.6745 -0.9374  2.4502
 5931SOL    MW423492   4.461   4.327   2.145  0.0739 -0.3427  0.1605
 5932SOL     OW23493   4.672   3.114   4.799 -0.3675 -0.2883  0.2421
 5932SOL    HW223494   4.664   3.053   4.725 -0.2908 -0.1425  0.1136
 5932SOL    HW323495   4.690   3.199   4.758  1.7874 -0.5750  0.5243
 5932SOL    MW423496   4.673   3.117   4.784  0.0835 -0.2391  0.3388
 5933SOL     OW23497   4.575   3.183   3.928  0.8607  0.3367 -0.1693
 5933SOL    HW223498   4.581   3.090   3.907  2.9579  0.9943 -3.1046
 5933SOL    HW323499   4.598   3.189   4.020 -0.0422 -2.0811  0.2779
 5933SOL    MW423500   4.579   3.172   3.937  0.2107  0.1535  0.4747
 5934SOL     OW23501   3.106   2.029   0.841 -0.6860  0.9670 -0.5250
 5934SOL    HW223502   3.150   2.018   0.925  0.1006 -3.5917 -1.2619
 5934SOL    HW323503   3.013   2.022   0.861 -0.5328  0.5599  0.0741
 5934SOL    MW423504   3.100   2.026   0.854  0.4212 -0.1259 -0.1456
 5935SOL     OW23505   6.142   4.554   2.146  0.3363  0.3895 -0.2053
 5935SOL    HW223506   6.161   4.485   2.209  0.6959 -0.1741 -0.9064
 5935SOL    HW323507   6.212   4.545   2.080  0.0751  1.0730 -0.5804
 5935SOL    MW423508   6.154   4.544   2.145 -0.2204 -0.4967  0.3075
 5936SOL     OW23509   3.531   5.340   5.651 -0.6449  0.1849  0.2272
 5936SOL    HW223510   3.554   5.251   5.679  0.2739  0.4971  0.4653
 5936SOL    HW323511   3.614   5.385   5.641 -1.1630  1.7451  2.4138
 5936SOL    MW423512   3.545   5.334   5.653  0.3840 -0.1834 -0.4436
 5937SOL     OW23513   2.775   0.828   1.384 -0.4890 -0.1256  0.1159
 5937SOL    HW223514   2.715   0.829   1.458  0.2502  0.7370  0.7194
 5937SOL    HW323515   2.820   0.744   1.391 -0.9977 -0.3969  0.1633
 5937SOL    MW423516   2.773   0.817   1.395 -0.2086  0.5242  0.1818
 5938SOL     OW23517   3.065   0.465   2.362  0.1439 -0.0593  0.6425
 5938SOL    HW223518   3.152   0.499   2.339  0.0993  0.2721  0.9579
 5938SOL    HW323519   3.023   0.449   2.277  0.0269  1.0317  0.4672
 5938SOL    MW423520   3.071   0.468   2.347  0.0282 -0.0515 -0.4273
 5939SOL     OW23521   4.494   5.216   0.793 -0.4895  0.0686 -0.1819
 5939SOL    HW223522   4.435   5.186   0.723 -0.8549 -1.0367  0.5626
 5939SOL    HW323523   4.455   5.297   0.825 -1.3834 -0.4301  0.0135
 5939SOL    MW423524   4.481   5.222   0.788 -0.1190  0.3828  0.0835
 5940SOL     OW23525   5.003   3.237   4.767 -0.5135 -0.0381  0.4523
 5940SOL    HW223526   5.084   3.260   4.721 -0.1972 -0.0438  0.9920
 5940SOL    HW323527   5.008   3.287   4.849 -1.0162 -0.1061  0.5243
 5940SOL    MW423528   5.014   3.247   4.772 -0.1716  0.1231 -0.0430
 5941SOL     OW23529   0.152   3.925   2.592 -0.0698  0.3405 -0.0741
 5941SOL    HW223530   0.075   3.874   2.565  0.1445 -0.3895  0.6513
 5941SOL    HW323531   0.188   3.876   2.666  0.6775  1.0680  0.0541
 5941SOL    MW423532   0.147   3.912   2.598  1.0930  0.1900 -0.2535
 5942SOL     OW23533   0.792   1.586   0.419 -0.2668 -0.3883 -0.0136
 5942SOL    HW223534   0.804   1.677   0.446  1.2745 -1.1591  2.2036
 5942SOL    HW323535   0.698   1.577   0.406 -0.8179  0.8659  2.4766
 5942SOL    MW423536   0.781   1.597   0.421  0.6931 -0.2833  0.3578
 5943SOL     OW23537   3.078   2.376   1.503  0.0125 -0.1987  0.0035
 5943SOL    HW223538   3.079   2.327   1.421  1.0779  0.7662 -0.6021
 5943SOL    HW323539   3.144   2.334   1.558  0.5787  0.2222 -0.3335
 5943SOL    MW423540   3.087   2.364   1.499 -0.1021  0.8074 -0.3542
 5944SOL     OW23541   6.222   2.204   5.701  0.1775  0.3910  0.7012
 5944SOL    HW223542   6.158   2.218   5.771 -0.8464  0.4668 -0.2363
 5944SOL    HW323543   6.182   2.240   5.623  1.0603 -0.2216 -0.0635
 5944SOL    MW423544   6.209   2.211   5.700  0.5814 -0.0296  0.7523
 5945SOL     OW23545   2.328   1.407   3.349  0.4224  0.5477  0.5200
 5945SOL    HW223546   2.300   1.369   3.433  0.1156 -0.1439  0.1197
 5945SOL    HW323547   2.390   1.343   3.313 -0.6041  0.0627 -0.4738
 5945SOL    MW423548   2.332   1.393   3.355  0.1178 -0.0173 -0.4931
 5946SOL     OW23549   4.067   1.135   5.712 -0.1134  0.7001 -0.0462
 5946SOL    HW223550   4.068   1.215   5.766 -0.1286  1.2458 -0.8439
 5946SOL    HW323551   4.109   1.161   5.630 -0.8235  0.0887 -0.6129
 5946SOL    MW423552   4.073   1.149   5.709  0.5175  0.1045 -0.0725
 5947SOL     OW23553   1.775   0.926   4.400 -0.3748  0.0827  0.4549
 5947SOL    HW223554   1.727   0.850   4.367 -0.6776  0.3459  0.2856
 5947SOL    HW323555   1.851   0.933   4.341  0.1078 -0.5882  0.9826
 5947SOL    MW423556   1.779   0.917   4.388 -0.3665  0.3058  0.3322
 5948SOL     OW23557   4.290   0.513   1.752 -0.1691 -0.0599  0.6080
 5948SOL    HW223558   4.341   0.446   1.798 -0.3731 -0.0792  0.8089
 5948SOL    HW323559   4.332   0.520   1.666 -0.4084 -0.7662  0.4242
 5948SOL    MW423560   4.302   0.505   1.747  0.3645 -0.4077  0.4041
 5949SOL     OW23561   2.693   2.310   5.084 -0.1176  0.4587 -0.0876
 5949SOL    HW223562   2.601   2.312   5.056 -0.2403 -2.3537 -0.1526
 5949SOL    HW323563   2.728   2.395   5.055 -2.2315  0.9002 -1.6433
 5949SOL    MW423564   2.685   2.322   5.076 -0.4553 -0.0875  0.3529
 5950SOL     OW23565   0.634   2.548   3.081 -0.0254  0.1533  0.1035
 5950SOL    HW223566   0.625   2.631   3.129  1.0610 -0.2889  1.1403
 5950SOL    HW323567   0.708   2.562   3.022  0.1226 -0.0507  0.2374
 5950SOL    MW423568   0.643   2.561   3.080 -0.5881 -0.5372 -0.2031
 5951SOL     OW23569   4.854   4.281   3.527  0.2535 -0.3191 -0.6854
 5951SOL    HW223570   4.884   4.313   3.441  1.4337 -1.1664 -0.6068
 5951SOL    HW323571   4.900   4.198   3.539 -0.5888 -0.6441  0.3805
 5951SOL    MW423572   4.864   4.274   3.517  0.0457  0.2280 -0.2446
 5952SOL     OW23573   2.843   4.906   2.075 -0.6191  0.2184  0.3890
 5952SOL    HW223574   2.885   4.964   2.138  3.0496 -1.8638  0.1230
 5952SOL    HW323575   2.860   4.818   2.107 -1.7421 -0.8318 -1.6717
 5952SOL    MW423576   2.851   4.902   2.087 -0.0844  0.3525  0.0138
 5953SOL     OW23577   6.010   4.298   4.083  0.5781  0.1120  0.4235
 5953SOL    HW223578   6.103   4.316   4.073  0.4066  1.7145  1.3415
 5953SOL    HW323579   5.985   4.343   4.164 -1.2617  0.9236 -0.5211
 5953SOL    MW423580   6.019   4.306   4.092  0.4011  0.0807 -0.3343
 5954SOL     OW23581   2.307   3.959   4.948 -0.7655 -0.1126  0.1368
 5954SOL    HW223582   2.300   3.927   5.038 -1.9669 -1.0345 -0.2593
 5954SOL    HW323583   2.338   3.883   4.898  3.1261  1.1894  0.1960
 5954SOL    MW423584   2.310   3.944   4.953  0.0071 -0.0056  0.4675
 5955SOL     OW23585   3.014   3.509   2.574 -0.0709  0.5041  0.0477
 5955SOL    HW223586   3.057   3.579   2.525  1.3360 -0.2639  0.1350
 5955SOL    HW323587   2.968   3.458   2.507  0.0583  0.6982 -0.1917
 5955SOL    MW423588   3.013   3.512   2.558  0.1679  0.1314 -0.0329
 5956SOL     OW23589   3.045   5.973   5.334 -0.6617 -0.5284 -0.4019
 5956SOL    HW223590   3.136   5.945   5.333 -0.5449 -0.1375 -0.6971
 5956SOL    HW323591   2.995   5.891   5.338 -0.2877 -0.7172  0.5898
 5956SOL    MW423592   3.050   5.958   5.335  1.2312 -0.2683 -0.2175
 5957SOL     OW23593   2.841   5.804   1.665 -0.4102 -0.2445  0.3612
 5957SOL    HW223594   2.772   5.862   1.634 -1.3449 -1.4180  0.1604
 5957SOL    HW323595   2.815   5.717   1.633  0.2048 -0.9999  1.8218
 5957SOL    MW423596   2.829   5.800   1.657  0.7175  0.2151  0.2062
 5958SOL     OW23597   4.307   5.049   0.655 -0.6561 -0.5118  0.5475
 5958SOL    HW223598   4.294   5.086   0.568 -1.0533 -1.5170  0.1631
 5958SOL    HW323599   4.219   5.038   0.690 -0.5554 -1.2959  0.5632
 5958SOL    MW423600   4.294   5.052   0.648 -0.0785 -0.4663 -0.1155
 5959SOL     OW23601   5.112   2.370   5.870 -0.2924 -0.3909  0.0050
 5959SOL    HW223602   5.121   2.452   5.919 -0.6658 -0.2660 -0.1306
 5959SOL    HW323603   5.019   2.349   5.877 -0.3662 -0.3217 -0.7322
 5959SOL    MW423604   5.101   2.378   5.878 -0.1353  0.8680 -0.4585
 5960SOL     OW23605   4.719   3.530   3.834 -0.3303  0.3030  0.3219
 5960SOL    HW223606   4.636   3.511   3.791 -0.2809 -0.3386  0.5017
 5960SOL    HW323607   4.729   3.625   3.827 -0.8887  0.3358 -0.0417
 5960SOL    MW423608   4.709   3.540   3.827 -0.0305 -0.5491  0.1246
 5961SOL     OW23609   3.015   3.302   1.572  0.0451  0.2746  0.1978
 5961SOL    HW223610   3.036   3.371   1.509  1.9095  0.9853  1.5220
 5961SOL    HW323611   3.008   3.223   1.519  1.2987  0.8966 -0.9508
 5961SOL    MW423612   3.017   3.301   1.557  0.2398  0.0813 -0.0469
 5962SOL     OW23613   4.119   1.501   4.816  0.2374  0.6513  0.3378
 5962SOL    HW223614   4.034   1.542   4.804  0.3286  0.5003 -1.0864
 5962SOL    HW323615   4.100   1.411   4.842 -0.0274  0.7114  0.3505
 5962SOL    MW423616   4.106   1.495   4.818  0.6374 -0.5942 -0.5049
 5963SOL     OW23617   2.044   2.273   3.738  0.1948  0.3169  0.1644
 5963SOL    HW223618   2.099   2.324   3.678  0.8606  1.5099  1.7156
 5963SOL    HW323619   1.990   2.219   3.681  1.3800  0.7876 -1.4758
 5963SOL    MW423620   2.044   2.273   3.723 -0.2979 -0.2612 -0.1618
 5964SOL     OW23621   0.969   5.584   2.313  0.6583 -0.3361  0.2136
 5964SOL    HW223622   0.936   5.556   2.399  0.1985  0.9931  0.4883
 5964SOL    HW323623   1.040   5.646   2.333 -0.6216  1.3712 -0.3094
 5964SOL    MW423624   0.974   5.588   2.327  0.3625 -0.4774 -0.1651
 5965SOL     OW23625   0.212   0.260   0.665  0.3977  0.2462  0.4452
 5965SOL    HW223626   0.223   0.250   0.570  0.3264 -0.3465  0.4978
 5965SOL    HW323627   0.274   0.329   0.689  0.7913  0.0341  0.0506
 5965SOL    MW423628   0.221   0.268   0.656  0.2079  0.8576 -0.1246
 5966SOL     OW23629   2.758   3.765   0.351 -0.0719 -0.0987 -0.4245
 5966SOL    HW223630   2.693   3.732   0.412  0.8877  1.0212  1.3081
 5966SOL    HW323631   2.707   3.800   0.278 -1.2567 -1.5581 -0.3335
 5966SOL    MW423632   2.743   3.765   0.350  0.0685  0.2493  0.0248
 5967SOL     OW23633   1.475   3.858   0.319 -0.1939  0.0883  0.0469
 5967SOL    HW223634   1.506   3.772   0.348  2.1546  0.7535 -0.2722
 5967SOL    HW323635   1.428   3.840   0.237 -1.8094 -1.1090  1.1707
 5967SOL    MW423636   1.473   3.844   0.312  0.5134 -0.3597  0.2831
 5968SOL     OW23637   2.375   5.339   1.375  0.7295 -0.3207 -0.3764
 5968SOL    HW223638   2.358   5.274   1.306 -1.2713  1.7724 -2.0020
 5968SOL    HW323639   2.308   5.320   1.441 -0.1720  0.3231 -1.0753
 5968SOL    MW423640   2.364   5.328   1.374  0.3730 -0.0728  0.1439
 5969SOL     OW23641   5.341   3.081   5.731 -0.6605  0.4148  0.5074
 5969SOL    HW223642   5.261   3.033   5.756 -0.6725 -0.6137 -1.2739
 5969SOL    HW323643   5.316   3.128   5.651  0.7728 -0.8361 -0.7474
 5969SOL    MW423644   5.327   3.081   5.723 -0.6397 -0.0311 -0.2958
 5970SOL     OW23645   5.470   2.935   1.424  0.8499 -0.3611 -0.0790
 5970SOL    HW223646   5.422   2.927   1.341 -1.3417 -0.7654  1.1582
 5970SOL    HW323647   5.518   3.017   1.415 -0.5155  0.3662 -1.2064
 5970SOL    MW423648   5.470   2.945   1.412  0.1373  0.1307  0.3427
 5971SOL     OW23649   5.911   5.337   2.182  0.6147 -0.0160  0.2157
 5971SOL    HW223650   5.974   5.266   2.197  0.3220 -0.6763 -1.4838
 5971SOL    HW323651   5.956   5.396   2.121 -0.5063 -0.7202 -1.3649
 5971SOL    MW423652   5.925   5.335   2.176  0.3128 -0.1394 -0.0976
 5972SOL     OW23653   5.682   5.111   0.744 -0.0944 -0.7137  0.5190
 5972SOL    HW223654   5.633   5.175   0.796 -0.4781 -0.2095 -0.4347
 5972SOL    HW323655   5.623   5.088   0.673  0.1942 -1.8527  0.6288
 5972SOL    MW423656   5.668   5.117   0.742  0.2989 -0.1487 -0.2612
 5973SOL     OW23657   0.522   1.751   3.169  0.3311 -0.3856 -0.0209
 5973SOL    HW223658   0.445   1.806   3.152  0.4193 -0.3502 -0.3038
 5973SOL    HW323659   0.501   1.667   3.129  0.5493 -0.2926 -0.3356
 5973SOL    MW423660   0.509   1.747   3.161 -0.5349 -0.1482 -0.1150
 5974SOL     OW23661   2.138   4.180   2.883 -0.0448 -0.0482  0.0394
 5974SOL    HW223662   2.084   4.166   2.961 -0.9240  0.4888 -0.4610
 5974SOL    HW323663   2.082   4.228   2.822  0.7168 -0.2168 -0.8295
 5974SOL    MW423664   2.124   4.184   2.885 -0.5840  0.1089  0.5651
 5975SOL     OW23665   2.553   1.177   4.860  0.2760 -0.0243 -0.5129
 5975SOL    HW223666   2.589   1.156   4.946 -1.5312 -0.1061  0.2570
 5975SOL    HW323667   2.559   1.272   4.854  0.1830  0.0012 -0.1960
 5975SOL    MW423668   2.559   1.187   4.870  0.5009  0.1179  0.6238
 5976SOL     OW23669   4.210   3.879   3.388  0.4142  0.1342  0.0579
 5976SOL    HW223670   4.272   3.948   3.412  0.5580  0.1941 -0.4616
 5976SOL    HW323671   4.125   3.913   3.416  0.6961 -0.2659  1.4321
 5976SOL    MW423672   4.207   3.893   3.395  0.4062 -0.3571 -0.5733
 5977SOL     OW23673   4.384   0.139   3.703 -0.2578  0.6225 -0.0692
 5977SOL    HW223674   4.330   0.212   3.673 -2.0561 -0.5771  0.1609
 5977SOL    HW323675   4.368   0.134   3.797 -0.4528 -0.3113 -0.1480
 5977SOL    MW423676   4.375   0.148   3.711  0.4236 -0.3922 -0.2533
 5978SOL     OW23677   2.161   4.356   5.785  0.2980  0.1766  0.3860
 5978SOL    HW223678   2.096   4.303   5.830 -0.0696  0.7669  0.5672
 5978SOL    HW323679   2.116   4.439   5.768  0.8817  0.4512  0.1674
 5978SOL    MW423680   2.146   4.360   5.789 -0.4511 -0.0299  0.3421
 5979SOL     OW23681   5.564   5.322   3.342 -0.7515  0.5680  0.5641
 5979SOL    HW223682   5.510   5.390   3.381  0.4549  1.9421 -0.0610
 5979SOL    HW323683   5.560   5.339   3.248  0.7017  0.6620  0.4986
 5979SOL    MW423684   5.557   5.333   3.334 -0.3282 -0.3069 -0.4750
 5980SOL     OW23685   1.471   4.548   2.655  0.6490  0.0211  0.2397
 5980SOL    HW223686   1.526   4.471   2.639  1.3747  0.3019  1.2397
 5980SOL    HW323687   1.531   4.612   2.694 -0.1658  0.7235  0.3697
 5980SOL    MW423688   1.487   4.547   2.658  0.1741 -0.2869  0.0396
 5981SOL     OW23689   2.643   5.514   1.826  0.3190 -0.2053 -0.1611
 5981SOL    HW223690   2.693   5.512   1.744  1.2569 -1.6917  0.4094
 5981SOL    HW323691   2.693   5.572   1.883  0.4288 -0.2703 -0.1895
 5981SOL    MW423692   2.656   5.521   1.823  0.3410  0.0960  0.1881
 5982SOL     OW23693   0.164   0.193   0.359  0.3335  0.2093  0.1571
 5982SOL    HW223694   0.243   0.161   0.316  0.2862  0.1017  0.1497
 5982SOL    HW323695   0.092   0.153   0.311  0.2466  1.0486 -0.4240
 5982SOL    MW423696   0.165   0.184   0.347 -0.3993 -0.3628  0.0795
 5983SOL     OW23697   5.654   3.950   1.665  0.2337  0.9257 -0.2439
 5983SOL    HW223698   5.689   3.929   1.578  0.2873  0.9969 -0.2400
 5983SOL    HW323699   5.560   3.955   1.652  0.2177  0.6462 -0.2367
 5983SOL    MW423700   5.646   3.948   1.652 -0.1409  0.6240  0.0308
 5984SOL     OW23701   2.059   0.388   2.206  0.1229  0.0016 -0.9686
 5984SOL    HW223702   2.029   0.429   2.125 -0.1266  0.6636 -0.5484
 5984SOL    HW323703   2.020   0.441   2.276  0.5808 -0.3787 -0.4160
 5984SOL    MW423704   2.050   0.400   2.204 -0.0890 -0.0109  0.3719
 5985SOL     OW23705   5.346   5.525   4.943 -0.3993 -0.1493 -0.5629
 5985SOL    HW223706   5.417   5.553   4.886 -1.1955  1.4304 -0.8525
 5985SOL    HW323707   5.388   5.470   5.009  1.0892  0.7304 -0.7261
 5985SOL    MW423708   5.361   5.521   4.944 -0.0434  0.4423  0.2096
 5986SOL     OW23709   0.707   1.010   4.380  0.4189  0.1926 -0.2380
 5986SOL    HW223710   0.657   1.069   4.323  1.8244  1.4539 -0.2427
 5986SOL    HW323711   0.659   1.009   4.463  0.6489  1.8646 -0.0421
 5986SOL    MW423712   0.694   1.018   4.384 -0.1709 -0.8878 -0.6606
 5987SOL     OW23713   3.074   5.803   6.264  0.4496 -0.2017 -0.0110
 5987SOL    HW223714   2.979   5.810   6.252  0.5792 -0.7079 -1.5003
 5987SOL    HW323715   3.094   5.712   6.239  1.3707  0.0172 -0.0826
 5987SOL    MW423716   3.064   5.792   6.259  0.2593  0.0518 -0.5404
 5988SOL     OW23717   1.675   4.464   1.598  0.0135  0.2198  0.3634
 5988SOL    HW223718   1.693   4.493   1.688 -0.9531  0.3835  0.5113
 5988SOL    HW323719   1.582   4.483   1.584  0.1797  0.3217 -0.7233
 5988SOL    MW423720   1.665   4.471   1.608  0.1196 -0.9270 -0.3498
 5989SOL     OW23721   0.297   2.036   6.037  0.0729  0.2335 -0.1250
 5989SOL    HW223722   0.334   1.989   6.112 -0.8095 -0.7440 -0.2968
 5989SOL    HW323723   0.268   2.120   6.074 -0.6653 -0.3755  0.6958
 5989SOL    MW423724   0.298   2.041   6.052  0.4522  0.4020 -0.2075
 5990SOL     OW23725   6.376   2.095   0.536 -0.0930 -0.0615  0.1232
 5990SOL    HW223726   6.398   2.017   0.486  0.2129  0.8169 -1.1545
 5990SOL    HW323727   6.300   2.070   0.589 -1.0166 -0.7470 -1.4709
 5990SOL    MW423728   6.369   2.082   0.537  0.0342 -0.2739 -0.4505
 5991SOL     OW23729   1.322   1.744   0.545 -0.3745 -0.0622  0.9189
 5991SOL    HW223730   1.407   1.723   0.584  0.6100 -0.4862 -1.3337
 5991SOL    HW323731   1.330   1.835   0.517  0.4317 -0.9215 -1.8627
 5991SOL    MW423732   1.334   1.753   0.547  0.4332  0.0907 -0.2631
 5992SOL     OW23733   4.811   3.202   0.429  0.2748  0.0107  0.5007
 5992SOL    HW223734   4.763   3.121   0.413  0.5267 -0.3915  1.6427
 5992SOL    HW323735   4.763   3.269   0.380 -1.2309 -0.4370  1.2940
 5992SOL    MW423736   4.799   3.200   0.420  0.2664 -0.1359 -0.3655
 5993SOL     OW23737   6.160   4.294   1.345 -0.1091 -0.7646  0.4750
 5993SOL    HW223738   6.154   4.388   1.330  0.8374 -0.8789 -0.7723
 5993SOL    HW323739   6.098   4.256   1.283  0.4934 -1.0153  0.0151
 5993SOL    MW423740   6.151   4.302   1.335 -0.1173 -0.2228 -0.0732
 5994SOL     OW23741   2.167   1.260   5.707  0.3076 -0.1514 -0.2633
 5994SOL    HW223742   2.106   1.294   5.642  0.6928 -0.6035 -0.8705
 5994SOL    HW323743   2.211   1.338   5.742 -2.0494  0.4214  1.7144
 5994SOL    MW423744   2.164   1.275   5.703  0.9303 -0.1915 -0.2041
 5995SOL     OW23745   4.864   4.513   1.741  0.4449  0.2353 -0.3310
 5995SOL    HW223746   4.892   4.476   1.657  1.5508 -0.0209  0.1286
 5995SOL    HW323747   4.774   4.481   1.752  0.2397  0.3816 -1.4690
 5995SOL    MW423748   4.856   4.504   1.731  0.5168 -0.2707 -0.3236
 5996SOL     OW23749   1.955   2.354   4.617  0.1596  0.1277  0.3119
 5996SOL    HW223750   1.968   2.260   4.606  1.2204  0.2675  0.1845
 5996SOL    HW323751   2.013   2.377   4.690 -0.1878  0.6552  0.4227
 5996SOL    MW423752   1.965   2.345   4.625 -0.4078  0.0582  0.5243
 5997SOL     OW23753   0.026   0.774   0.036  0.3113  0.1510 -0.0486
 5997SOL    HW223754  -0.068   0.788   0.023  0.2248 -1.1638 -1.0073
 5997SOL    HW323755   0.039   0.680   0.024  2.0763  0.5851 -2.1744
 5997SOL    MW423756   0.015   0.763   0.033  0.3523 -0.6882  0.7025
 5998SOL     OW23757   4.640   1.701   1.512 -0.3836  0.3090 -0.2856
 5998SOL    HW223758   4.558   1.657   1.531  1.2213 -2.3027  1.1369
 5998SOL    HW323759   4.637   1.781   1.565 -1.0761 -0.9311  1.6486
 5998SOL    MW423760   4.629   1.706   1.522 -0.2233 -0.1932 -0.5187
 5999SOL     OW23761   2.388   4.327   1.348 -0.2616 -0.0009  0.6351
 5999SOL    HW223762   2.366   4.420   1.359 -0.4774  0.0519 -0.1893
 5999SOL    HW323763   2.305   4.285   1.326 -0.5018 -0.6985  2.7093
 5999SOL    MW423764   2.375   4.334   1.346  0.0127 -0.3243  0.2642
 6000SOL     OW23765   3.753   3.446   6.263 -0.1986  0.3906 -0.6570
 6000SOL    HW223766   3.734   3.391   6.187  0.6743 -1.3940  0.3701
 6000SOL    HW323767   3.742   3.389   6.338  1.5416  1.3737  0.4142
 6000SOL    MW423768   3.749   3.431   6.263  0.2218  0.1512 -0.4379
 6001SOL     OW23769   2.129   6.017   3.855  0.3661 -0.7074 -0.6634
 6001SOL    HW223770   2.052   6.045   3.905 -0.0985 -1.4087 -0.9634
 6001SOL    HW323771   2.191   6.089   3.865 -0.1310 -0.3497  0.0103
 6001SOL    MW423772   2.127   6.030   3.863 -0.2456  0.2722 -0.3433
 6002SOL     OW23773   3.109   5.964   3.736 -0.0417  0.0590 -0.6073
 6002SOL    HW223774   3.127   6.046   3.782  0.1055  0.8436 -1.9910
 6002SOL    HW323775   3.176   5.960   3.668 -1.8125  0.3676 -2.4968
 6002SOL    MW423776   3.120   5.975   3.733 -0.0930  0.0892 -0.0191
 6003SOL     OW23777   3.569   4.561   2.551  0.5256  0.3825 -0.1845
 6003SOL    HW223778   3.630   4.547   2.623 -0.5494  1.4406  1.0032
 6003SOL    HW323779   3.565   4.656   2.541 -0.1496  0.2883 -0.9242
 6003SOL    MW423780   3.576   4.572   2.559 -0.3687  0.4804  0.7010
 6004SOL     OW23781   5.365   5.151   3.022 -0.0265 -0.2749 -0.7406
 6004SOL    HW223782   5.300   5.183   2.959  2.8120  1.8631 -2.8681
 6004SOL    HW323783   5.396   5.069   2.984  0.7822  0.3737 -1.5297
 6004SOL    MW423784   5.361   5.144   3.009  0.1107 -0.2102  0.1062
 6005SOL     OW23785   0.132   1.749   4.416  0.1927  0.2416 -0.4877
 6005SOL    HW223786   0.055   1.804   4.398  0.7886  0.8704 -1.1809
 6005SOL    HW323787   0.200   1.810   4.443  0.6084 -0.2497 -0.4019
 6005SOL    MW423788   0.131   1.764   4.417  0.1343 -0.3269  0.3998
 6006SOL     OW23789   4.237   1.573   3.346 -0.0376 -0.0891 -0.1801
 6006SOL    HW223790   4.290   1.494   3.358  0.0711  0.0837  0.5165
 6006SOL    HW323791   4.212   1.598   3.434 -1.3635 -0.2081 -0.5068
 6006SOL    MW423792   4.241   1.566   3.359 -0.1723  0.2127  0.1693
 6007SOL     OW23793   5.105   0.555   0.964 -1.1621 -0.6485 -0.2816
 6007SOL    HW223794   5.184   0.501   0.968 -0.0920  0.8792 -0.1652
 6007SOL    HW323795   5.069   0.552   1.053  1.0871  1.9506  0.8246
 6007SOL    MW423796   5.111   0.547   0.976 -0.1395  0.0806  0.2537
 6008SOL     OW23797   3.311   3.854   1.703  0.0123 -0.2194  0.1190
 6008SOL    HW223798   3.317   3.803   1.783 -0.6728 -0.6345 -0.0750
 6008SOL    HW323799   3.397   3.894   1.692  0.5541 -1.2822  0.3199
 6008SOL    MW423800   3.323   3.852   1.712  0.2652  0.4740  0.3936
 6009SOL     OW23801   3.054   5.159   0.336 -0.6694  0.6612 -0.0183
 6009SOL    HW223802   3.005   5.081   0.359  0.2146  0.1759  0.2848
 6009SOL    HW323803   2.991   5.217   0.294 -1.1798 -0.5022 -0.8751
 6009SOL    MW423804   3.039   5.157   0.333  0.4382 -0.6447  0.5690
 6010SOL     OW23805   2.636   0.225   5.600 -0.0214  0.5453 -0.2399
 6010SOL    HW223806   2.596   0.221   5.513  2.7016 -0.3206 -1.5456
 6010SOL    HW323807   2.692   0.303   5.597 -0.5501  0.9984  1.0696
 6010SOL    MW423808   2.638   0.235   5.588  0.3012 -0.2787  0.2430
 6011SOL     OW23809   3.860   1.274   4.026  0.0341  0.1401  0.1578
 6011SOL    HW223810   3.776   1.255   4.067 -0.3079  0.5067 -0.3629
 6011SOL    HW323811   3.914   1.307   4.098 -0.2996 -0.0044  0.4778
 6011SOL    MW423812   3.856   1.276   4.041 -0.2159  0.2584 -0.8052
 6012SOL     OW23813   0.488   1.173   2.743  0.0857  0.6491 -0.4828
 6012SOL    HW223814   0.443   1.257   2.755 -0.2496  0.1729  2.4016
 6012SOL    HW323815   0.580   1.197   2.728 -0.3797  1.5249 -2.2968
 6012SOL    MW423816   0.494   1.187   2.743  0.1055  0.3089  0.3320
 6013SOL     OW23817   3.634   2.741   4.469 -0.2263  0.2198 -0.4997
 6013SOL    HW223818   3.666   2.748   4.558  0.3777  1.3264 -0.7954
 6013SOL    HW323819   3.550   2.694   4.477  0.4581 -0.8764  0.4830
 6013SOL    MW423820   3.627   2.736   4.481 -0.4220 -0.3259 -0.6210
 6014SOL     OW23821   4.652   5.531   2.884  0.4523 -0.3066  0.6999
 6014SOL    HW223822   4.728   5.569   2.929 -0.4460  1.0761  1.1172
 6014SOL    HW323823   4.687   5.453   2.841  1.7649 -0.6462  2.2382
 6014SOL    MW423824   4.667   5.525   2.884  0.4699  0.1879  0.2454
 6015SOL     OW23825   5.223   0.640   2.250 -0.4646  0.0457 -0.3752
 6015SOL    HW223826   5.280   0.563   2.248 -0.7804 -0.1722 -1.4186
 6015SOL    HW323827   5.280   0.712   2.222  0.0649  0.3778  1.4335
 6015SOL    MW423828   5.238   0.639   2.246 -0.3272 -0.2486 -0.0120
 6016SOL     OW23829   4.651   0.623   2.538 -0.0676  0.4789 -0.0011
 6016SOL    HW223830   4.596   0.639   2.461 -0.5163  0.6697  0.3602
 6016SOL    HW323831   4.640   0.530   2.556 -2.0807  0.9483  1.4404
 6016SOL    MW423832   4.643   0.613   2.530  0.6801  0.4000  0.4173
 6017SOL     OW23833   2.158   3.524   5.975  0.9353 -0.3389  0.0026
 6017SOL    HW223834   2.186   3.512   6.066 -1.2215 -0.2813  0.7286
 6017SOL    HW323835   2.177   3.616   5.956  2.9193 -0.7537 -0.2048
 6017SOL    MW423836   2.164   3.535   5.985  0.5462  0.0772  0.6586
 6018SOL     OW23837   2.682   1.266   1.997 -0.1252 -0.4087  0.0109
 6018SOL    HW223838   2.724   1.348   1.971  1.2534 -1.4120 -1.1606
 6018SOL    HW323839   2.634   1.238   1.919  1.1398 -1.7096 -0.3483
 6018SOL    MW423840   2.682   1.273   1.983 -0.2852 -0.0209 -0.1003
 6019SOL     OW23841   2.477   2.942   2.520  0.2936  0.5107 -0.9197
 6019SOL    HW223842   2.531   3.021   2.523  0.2215  0.6439 -2.3406
 6019SOL    HW323843   2.508   2.888   2.592 -0.0438  2.0707  0.4365
 6019SOL    MW423844   2.488   2.945   2.530 -0.5066  0.5683  0.1690
 6020SOL     OW23845   5.351   6.033   3.660 -0.5931  0.2304 -0.0424
 6020SOL    HW223846   5.361   6.113   3.712 -1.2087 -0.2286  0.8043
 6020SOL    HW323847   5.358   6.063   3.569  0.5286  1.0437  0.2846
 6020SOL    MW423848   5.353   6.047   3.655  0.2930 -0.0473 -0.4843
 6021SOL     OW23849   3.101   2.844   2.088 -0.4757 -0.5751 -0.3029
 6021SOL    HW223850   3.098   2.884   2.175 -2.1837 -1.0253 -0.1256
 6021SOL    HW323851   3.134   2.756   2.103  0.8259 -0.1182 -0.3564
 6021SOL    MW423852   3.105   2.838   2.102 -0.0046 -0.1673  0.4764
 6022SOL     OW23853   6.062   2.649   5.218 -0.3938 -0.2400 -0.6001
 6022SOL    HW223854   6.092   2.737   5.196 -0.8582  0.1700  0.3183
 6022SOL    HW323855   6.037   2.610   5.135  2.2542 -0.4813 -1.3808
 6022SOL    MW423856   6.063   2.656   5.204  0.0906  0.3292  0.3190
 6023SOL     OW23857   2.509   0.288   4.346  0.0272 -0.0065  0.0542
 6023SOL    HW223858   2.449   0.363   4.340  1.7048  1.2623 -3.3879
 6023SOL    HW323859   2.586   0.316   4.298  1.9538 -2.9356  1.2106
 6023SOL    MW423860   2.511   0.302   4.339 -0.3732 -0.5096  0.2719
 6024SOL     OW23861   0.847   4.037   1.935 -0.6994 -0.1579  0.5263
 6024SOL    HW223862   0.896   4.116   1.962  0.0285 -0.7944  1.1224
 6024SOL    HW323863   0.884   4.015   1.850 -0.6622 -0.0573  0.5152
 6024SOL    MW423864   0.859   4.045   1.927 -0.6175 -0.3359 -0.3066
 6025SOL     OW23865   6.244   4.892   4.795 -0.1635  0.2275 -0.1002
 6025SOL    HW223866   6.322   4.867   4.746 -0.0700 -1.6813  0.9064
 6025SOL    HW323867   6.171   4.879   4.734 -0.0256 -1.8459  0.1165
 6025SOL    MW423868   6.245   4.887   4.781  0.1423  0.2733  0.0700
 6026SOL     OW23869   4.517   6.055   1.350  0.2042 -0.3298 -0.0599
 6026SOL    HW223870   4.433   6.099   1.364  0.2817  0.1483 -1.0624
 6026SOL    HW323871   4.568   6.076   1.429 -0.8652 -1.2554  0.9192
 6026SOL    MW423872   4.512   6.063   1.363  0.0914 -0.1903  0.3016
 6027SOL     OW23873   4.681   4.588   2.882  0.0083  0.4681  0.6516
 6027SOL    HW223874   4.591   4.619   2.877 -1.0336 -2.2378  0.9364
 6027SOL    HW323875   4.683   4.511   2.825  1.5049 -0.9088  2.4500
 6027SOL    MW423876   4.669   4.582   2.874 -0.5934 -0.0276  0.8126
 6028SOL     OW23877   1.222   2.847   2.406 -0.8564 -0.0467  0.6278
 6028SOL    HW223878   1.144   2.876   2.453 -1.8230 -1.3601 -0.1095
 6028SOL    HW323879   1.189   2.792   2.335  0.7231 -0.3457  0.0779
 6028SOL    MW423880   1.207   2.843   2.403 -0.5921 -0.2292  0.2372
 6029SOL     OW23881   4.886   3.603   1.172 -0.1456 -0.2569 -0.2174
 6029SOL    HW223882   4.938   3.652   1.236  1.9038 -1.4840 -0.8588
 6029SOL    HW323883   4.897   3.652   1.090 -1.4088  0.3833 -0.0388
 6029SOL    MW423884   4.894   3.616   1.170 -0.1723  0.4834  0.3233
 6030SOL     OW23885   3.007   4.990   4.725 -0.2101 -0.5621  0.0492
 6030SOL    HW223886   3.052   5.040   4.793  0.2127  0.0622 -0.6581
 6030SOL    HW323887   3.053   4.907   4.721  0.4479 -0.1929 -0.1911
 6030SOL    MW423888   3.019   4.986   4.733 -0.1648  0.1855 -0.4581
 6031SOL     OW23889   1.954   5.124   4.577 -0.2747 -0.9929 -0.4283
 6031SOL    HW223890   1.886   5.184   4.606  0.7438  0.0172 -0.0607
 6031SOL    HW323891   1.970   5.067   4.653 -0.7505 -1.2911 -0.5446
 6031SOL    MW423892   1.947   5.124   4.591 -0.2395 -0.5981  0.2152
 6032SOL     OW23893   4.408   3.996   6.102 -0.2355  0.2176 -0.6616
 6032SOL    HW223894   4.427   4.076   6.151 -1.2001  0.9763 -1.4671
 6032SOL    HW323895   4.468   3.999   6.028 -1.4458  1.1387 -1.6506
 6032SOL    MW423896   4.419   4.007   6.099 -0.8816  0.5959  0.1563
 6033SOL     OW23897   5.627   3.870   3.932  0.6894  0.8092 -0.3110
 6033SOL    HW223898   5.570   3.942   3.962 -0.1374  0.7278 -1.6192
 6033SOL    HW323899   5.701   3.914   3.891  0.6097  0.9167 -0.3411
 6033SOL    MW423900   5.629   3.886   3.931  0.3675  0.3302 -0.2485
 6034SOL     OW23901   6.407   4.487   2.209  0.0739  0.0556 -0.5546
 6034SOL    HW223902   6.466   4.467   2.282 -0.5235 -0.8971 -0.3094
 6034SOL    HW323903   6.421   4.415   2.147 -0.0769  0.3827 -0.9681
 6034SOL    MW423904   6.417   4.475   2.210 -0.6133 -0.1261  0.3629
 6035SOL     OW23905   1.377   2.958   3.521 -0.0250  0.0004 -0.0535
 6035SOL    HW223906   1.443   2.932   3.456 -1.0886 -2.0822 -0.4045
 6035SOL    HW323907   1.424   2.958   3.604  0.4962 -1.2768 -0.3198
 6035SOL    MW423908   1.392   2.954   3.523  0.0212  0.1671 -0.1328
 6036SOL     OW23909   4.720   5.729   4.147 -0.9892 -0.1355 -0.2342
 6036SOL    HW223910   4.735   5.689   4.233 -1.5220 -0.8928 -0.4813
 6036SOL    HW323911   4.801   5.713   4.099 -1.1906 -0.9567 -0.3310
 6036SOL    MW423912   4.733   5.721   4.152 -1.1099  0.7217  0.8572
 6037SOL     OW23913   3.768   0.128   3.019 -0.1942 -0.5593 -0.2022
 6037SOL    HW223914   3.741   0.085   3.100 -2.5879  1.2203  0.0512
 6037SOL    HW323915   3.826   0.198   3.048  0.8080 -1.3347 -0.2832
 6037SOL    MW423916   3.772   0.132   3.034 -0.2414 -0.3519 -0.3464
 6038SOL     OW23917   1.226   0.070   1.502  0.4378 -0.0834  0.1435
 6038SOL    HW223918   1.205   0.129   1.429  2.4249  0.9027  0.3235
 6038SOL    HW323919   1.141   0.034   1.528 -0.5712  1.1054 -1.3234
 6038SOL    MW423920   1.212   0.073   1.496 -0.0518  0.3439  0.2565
 6039SOL     OW23921   5.952   2.637   1.110  0.8350  0.0602  0.6251
 6039SOL    HW223922   5.893   2.701   1.151  1.1427  0.7241  0.0603
 6039SOL    HW323923   5.906   2.611   1.030  1.7416  1.3701 -0.3618
 6039SOL    MW423924   5.938   2.642   1.105  0.4907  0.2763 -0.1826
 6040SOL     OW23925   2.191   0.362   1.482  0.3391 -0.2744  0.6708
 6040SOL    HW223926   2.226   0.282   1.443  2.7156  0.6592  0.7331
 6040SOL    HW323927   2.264   0.423   1.481 -2.0402  2.9309 -1.9819
 6040SOL    MW423928   2.205   0.360   1.477 -0.1119  0.1209  0.4263
 6041SOL     OW23929   5.529   1.838   3.410 -0.6083  0.0606 -0.6857
 6041SOL    HW223930   5.564   1.756   3.447 -1.5008  0.0151  0.0777
 6041SOL    HW323931   5.540   1.902   3.480 -1.8535  0.0949 -0.5126
 6041SOL    MW423932   5.535   1.835   3.424  0.2817  0.0861  0.3729
 6042SOL     OW23933   5.880   1.008   0.058  0.0017  0.3821  0.1677
 6042SOL    HW223934   5.874   0.919   0.023 -1.6586  0.2944  0.5888
 6042SOL    HW323935   5.878   1.064  -0.019 -2.2856  0.1353 -0.0366
 6042SOL    MW423936   5.879   1.004   0.043 -0.1094  0.1690 -0.0376
 6043SOL     OW23937   4.301   2.562   0.577  0.7208 -0.1222  0.8238
 6043SOL    HW223938   4.340   2.521   0.500 -1.2404  1.1919 -0.9877
 6043SOL    HW323939   4.311   2.497   0.647  0.2191 -2.5185 -1.1950
 6043SOL    MW423940   4.308   2.548   0.576 -0.1314  0.3590  0.0155
 6044SOL     OW23941   1.611   0.699   3.167 -0.5697 -0.3486  0.3257
 6044SOL    HW223942   1.620   0.683   3.073  0.1484 -0.4002  0.3933
 6044SOL    HW323943   1.584   0.614   3.204 -1.0395 -0.2795  0.1475
 6044SOL    MW423944   1.609   0.686   3.160 -0.5159  0.5311  0.4399
 6045SOL     OW23945   0.485   0.504   2.486 -0.5910 -0.1204 -0.3858
 6045SOL    HW223946   0.502   0.529   2.577 -0.9738 -3.0150  0.5776
 6045SOL    HW323947   0.565   0.530   2.440  0.0770  0.3998  0.9845
 6045SOL    MW423948   0.498   0.511   2.492  0.1291  0.0677 -0.2552
 6046SOL     OW23949   5.622   4.736   5.955  0.4360  0.0241 -0.0883
 6046SOL    HW223950   5.683   4.809   5.962  0.6253  0.0444 -1.5852
 6046SOL    HW323951   5.597   4.716   6.045  0.1827  2.1047  0.3339
 6046SOL    MW423952   5.627   4.743   5.968 -0.1435 -0.2571 -0.6495
 6047SOL     OW23953   5.685   4.117   2.462  0.0065 -0.2356 -0.1073
 6047SOL    HW223954   5.617   4.057   2.433 -0.7721 -0.2113  1.5685
 6047SOL    HW323955   5.637   4.195   2.492  0.8522  0.2984 -0.1160
 6047SOL    MW423956   5.670   4.120   2.462  0.3065  0.0350 -0.5330
 6048SOL     OW23957   5.667   6.245   4.817  0.0870 -0.2401  0.0410
 6048SOL    HW223958   5.621   6.162   4.815 -1.7385  0.7301 -0.1512
 6048SOL    HW323959   5.744   6.229   4.872  0.3523 -2.2978 -0.8523
 6048SOL    MW423960   5.671   6.232   4.824  0.0760  0.2077 -0.8392
 6049SOL     OW23961   0.236   0.160   1.056  0.5467 -0.8052  0.5778
 6049SOL    HW223962   0.283   0.109   1.122  1.9322 -0.7872 -0.3534
 6049SOL    HW323963   0.303   0.216   1.017 -0.3408 -0.4773 -0.5115
 6049SOL    MW423964   0.251   0.161   1.060 -0.2962 -0.4247 -0.4354
 6050SOL     OW23965   2.770   5.491   2.409 -0.4690  0.5504 -0.3378
 6050SOL    HW223966   2.789   5.413   2.357 -0.5407  0.7060 -0.6016
 6050SOL    HW323967   2.852   5.511   2.454 -0.2445  0.7343 -0.8202
 6050SOL    MW423968   2.783   5.484   2.408 -0.5795  0.0943 -0.2607
 6051SOL     OW23969   5.707   0.159   1.077  0.4499 -0.5419  0.2808
 6051SOL    HW223970   5.783   0.217   1.085 -1.1717  1.5217  1.4471
 6051SOL    HW323971   5.652   0.181   1.151 -2.2864 -0.4724 -1.6391
 6051SOL    MW423972   5.710   0.170   1.087  0.8570  1.3499 -0.5869
 6052SOL     OW23973   0.947   0.413   1.644 -0.2374  0.1644  0.1424
 6052SOL    HW223974   0.995   0.369   1.714  1.1556  0.3051 -0.6992
 6052SOL    HW323975   1.009   0.475   1.608 -1.1545  0.5497 -0.7999
 6052SOL    MW423976   0.962   0.415   1.649 -0.0537  0.0174  0.0834
 6053SOL     OW23977   4.824   0.099   6.285  0.1021 -0.1433  0.2709
 6053SOL    HW223978   4.875   0.072   6.208 -0.8048 -0.7686 -0.1254
 6053SOL    HW323979   4.868   0.056   6.359 -0.7986 -2.0658 -0.2502
 6053SOL    MW423980   4.837   0.090   6.285 -0.7169  0.0832  0.5621
 6054SOL     OW23981   0.958   0.119   4.344 -0.3842  0.0191 -0.4135
 6054SOL    HW223982   0.966   0.211   4.318  1.6726 -0.0824 -0.3079
 6054SOL    HW323983   0.952   0.071   4.261  0.7845  0.1039 -0.5646
 6054SOL    MW423984   0.958   0.125   4.330  0.4797 -0.4105  0.2320
 6055SOL     OW23985   4.084   5.030   0.053  0.5875 -0.3399 -0.2523
 6055SOL    HW223986   4.029   5.061   0.125 -1.0656  1.1792 -2.0544
 6055SOL    HW323987   4.142   5.104   0.034  1.2832 -0.8745 -0.2382
 6055SOL    MW423988   4.084   5.044   0.060  0.3568  0.1383  0.1027
 6056SOL     OW23989   2.879   3.226   4.345  0.0342 -0.2651  0.2171
 6056SOL    HW223990   2.925   3.155   4.299  1.6652  1.7367 -1.4612
 6056SOL    HW323991   2.928   3.238   4.426 -0.3252 -1.1117  0.5670
 6056SOL    MW423992   2.892   3.218   4.349  0.0509 -0.0274  0.4890
 6057SOL     OW23993   0.525   0.893   0.966  0.2193 -0.4406  0.1216
 6057SOL    HW223994   0.563   0.806   0.956 -0.1322 -0.5645 -0.1452
 6057SOL    HW323995   0.599   0.949   0.990  0.3293 -0.9438  0.9925
 6057SOL    MW423996   0.540   0.889   0.968  0.4177 -0.0952  0.0443
 6058SOL     OW23997   6.210   2.263   3.665  0.0431 -0.1602 -0.1343
 6058SOL    HW223998   6.175   2.291   3.750 -1.3680  0.6660 -0.9491
 6058SOL    HW323999   6.301   2.293   3.665  0.4599 -1.2754  1.5684
 6058SOL    MW424000   6.217   2.270   3.676 -0.0257  0.5202 -0.2818
 6059SOL     OW24001   1.063   2.838   5.812  0.0274 -0.0605  0.3560
 6059SOL    HW224002   1.028   2.878   5.892  0.4324  0.7384  0.1432
 6059SOL    HW324003   1.076   2.912   5.752  2.0002 -0.3124  0.3998
 6059SOL    MW424004   1.060   2.853   5.815 -0.7397  0.1625  0.1774
 6060SOL     OW24005   6.377   0.555   6.164  0.0777 -0.0432 -0.6834
 6060SOL    HW224006   6.293   0.509   6.167  0.2695 -0.3834 -0.4316
 6060SOL    HW324007   6.360   0.634   6.113 -0.2659 -0.3781 -1.0927
 6060SOL    MW424008   6.364   0.559   6.158  0.4657 -0.5163  0.2979
 6061SOL     OW24009   1.400   1.584   1.155  0.2916 -0.1427 -0.1469
 6061SOL    HW224010   1.307   1.566   1.170 -0.0810  1.4895 -0.2113
 6061SOL    HW324011   1.446   1.525   1.215 -0.7846 -0.9434 -0.0766
 6061SOL    MW424012   1.394   1.574   1.165 -0.1371  0.6109  0.7013
 6062SOL     OW24013   1.604   1.627   2.404  0.1222  0.3361 -0.4967
 6062SOL    HW224014   1.685   1.666   2.371  0.1580  0.6634 -0.0448
 6062SOL    HW324015   1.542   1.636   2.333  0.8775 -1.2624 -1.4096
 6062SOL    MW424016   1.607   1.634   2.390  0.2651  0.7002  0.0037
 6063SOL     OW24017   5.630   3.438   5.760 -0.0865 -0.6533  0.3208
 6063SOL    HW224018   5.584   3.415   5.680  0.1638 -0.2067  0.0420
 6063SOL    HW324019   5.718   3.462   5.731  0.2277 -1.2101  0.8142
 6063SOL    MW424020   5.635   3.438   5.746 -0.1929  0.3216 -0.4860
 6064SOL     OW24021   5.761   5.503   5.425 -0.2689 -0.3917 -0.1330
 6064SOL    HW224022   5.741   5.517   5.332 -0.7032  3.1177  0.3263
 6064SOL    HW324023   5.693   5.552   5.471  1.8667  0.9142  1.8725
 6064SOL    MW424024   5.750   5.511   5.419  0.4085  0.8257  0.0360
 6065SOL     OW24025   4.305   6.222   1.359  0.0016  0.1309 -0.0698
 6065SOL    HW224026   4.295   6.232   1.264 -0.6404  1.3783  0.0966
 6065SOL    HW324027   4.362   6.294   1.385 -0.3342  0.1828  0.5607
 6065SOL    MW424028   4.311   6.233   1.350  0.4354  0.7629  0.3413
 6066SOL     OW24029   1.856   5.379   3.807 -0.5005  0.1810  0.2814
 6066SOL    HW224030   1.799   5.327   3.864  0.7186 -0.6549  0.7759
 6066SOL    HW324031   1.935   5.326   3.797  0.1339  1.2367 -0.5366
 6066SOL    MW424032   1.859   5.365   3.813 -0.3792 -0.4188  0.4367
 6067SOL     OW24033   5.636   0.083   3.247 -0.5539 -0.0393  0.3723
 6067SOL    HW224034   5.599   0.042   3.169  0.8570 -0.2002 -0.2466
 6067SOL    HW324035   5.593   0.169   3.251  0.1862  0.4546 -1.2858
 6067SOL    MW424036   5.626   0.089   3.237  0.3396  0.6978 -0.0194
 6068SOL     OW24037   6.100   3.528   1.218  0.2190 -0.1704  0.5033
 6068SOL    HW224038   6.067   3.553   1.305 -0.7230 -1.2935  0.4907
 6068SOL    HW324039   6.123   3.612   1.177  0.3390  0.4121  1.6848
 6068SOL    MW424040   6.099   3.543   1.224  0.2964  0.1244  0.2418
 6069SOL     OW24041   2.249   1.661   4.561  0.3178 -0.1806 -0.5204
 6069SOL    HW224042   2.335   1.674   4.600  0.3212 -0.2467 -0.5061
 6069SOL    HW324043   2.218   1.577   4.596 -0.2270  0.3658  0.3265
 6069SOL    MW424044   2.256   1.652   4.571  0.2142 -0.2272 -0.0189
 6070SOL     OW24045   1.610   1.062   4.849 -0.2019 -0.4792  0.1047
 6070SOL    HW224046   1.577   0.998   4.787 -1.4184 -0.0285  0.2473
 6070SOL    HW324047   1.694   1.090   4.813 -0.2096 -1.2773 -0.5665
 6070SOL    MW424048   1.617   1.057   4.836 -0.1561 -0.1387 -0.0494
 6071SOL     OW24049   1.535   2.623   0.050 -0.0274 -0.3552 -0.0841
 6071SOL    HW224050   1.579   2.621  -0.035 -1.5959  1.1151 -1.0195
 6071SOL    HW324051   1.574   2.697   0.096  1.7672 -1.9464  1.1156
 6071SOL    MW424052   1.546   2.633   0.045  0.1552  0.1804  0.0898
 6072SOL     OW24053   0.631   1.112   0.737 -0.5737 -0.2219 -0.0682
 6072SOL    HW224054   0.717   1.152   0.742 -0.4969 -0.4214  0.2581
 6072SOL    HW324055   0.648   1.018   0.745 -0.8694 -0.2237  0.5880
 6072SOL    MW424056   0.644   1.105   0.739  0.0772  0.0950 -0.9376
 6073SOL     OW24057   5.228   4.709   4.917 -0.4068 -0.1869  0.4243
 6073SOL    HW224058   5.274   4.630   4.888 -0.4277  0.3907 -1.2982
 6073SOL    HW324059   5.211   4.758   4.836 -0.3538  1.6105  1.4464
 6073SOL    MW424060   5.232   4.705   4.903 -0.8827 -0.1627 -0.1008
 6074SOL     OW24061   5.802   4.314   3.459 -0.0805  0.1444  0.2637
 6074SOL    HW224062   5.892   4.283   3.461  0.1102  0.7005  2.3188
 6074SOL    HW324063   5.749   4.235   3.471  0.0899 -0.1805 -0.9362
 6074SOL    MW424064   5.807   4.299   3.461  0.2150 -0.2280  0.3114
 6075SOL     OW24065   3.118   5.600   0.334 -0.2180  0.7427 -0.1652
 6075SOL    HW224066   3.140   5.576   0.244 -0.7954  0.4536 -0.2331
 6075SOL    HW324067   3.023   5.613   0.334 -0.4477 -0.6885  0.7083
 6075SOL    MW424068   3.108   5.598   0.322  0.3245 -0.7318 -0.1307
 6076SOL     OW24069   2.286   4.570   6.213  0.1314 -0.2508  0.4875
 6076SOL    HW224070   2.244   4.490   6.244  0.1525  0.1555  1.6154
 6076SOL    HW324071   2.234   4.597   6.137 -0.9955 -0.3373  1.2058
 6076SOL    MW424072   2.274   4.563   6.207  0.0181 -0.0430  0.3147
 6077SOL     OW24073   5.824   3.242   1.041  0.3458 -0.1361 -0.3113
 6077SOL    HW224074   5.752   3.245   1.103  1.0161  1.4717  0.4506
 6077SOL    HW324075   5.860   3.154   1.049  0.5064  0.0828  1.7080
 6077SOL    MW424076   5.819   3.231   1.050 -0.2733  0.0718  0.6683
 6078SOL     OW24077   5.367   3.250   5.985  0.1882 -0.2620 -0.5292
 6078SOL    HW224078   5.349   3.194   5.910  1.4140 -2.1790  0.5069
 6078SOL    HW324079   5.376   3.338   5.949 -0.1193 -0.9911 -2.4789
 6078SOL    MW424080   5.366   3.254   5.970  0.6815 -0.3530  0.4111
 6079SOL     OW24081   3.175   2.693   1.666 -0.3973  0.1081 -0.2868
 6079SOL    HW224082   3.174   2.687   1.570 -1.0726  1.5517 -0.3877
 6079SOL    HW324083   3.138   2.779   1.685 -2.4648 -1.0477  1.3495
 6079SOL    MW424084   3.170   2.703   1.655 -0.1548  0.2403 -0.0032
 6080SOL     OW24085   4.655   1.800   5.645  0.0793 -0.7606 -0.2615
 6080SOL    HW224086   4.612   1.842   5.570  2.4069 -0.0125 -1.2536
 6080SOL    HW324087   4.628   1.852   5.721 -1.1704 -0.6662 -0.7383
 6080SOL    MW424088   4.645   1.812   5.645  0.3311  0.8401 -0.5363
 6081SOL     OW24089   4.206   0.887   0.622 -0.6203 -0.5596  0.3196
 6081SOL    HW224090   4.111   0.880   0.630 -0.7489  2.0179  2.3538
 6081SOL    HW324091   4.232   0.947   0.692  2.5263 -1.1342 -0.1940
 6081SOL    MW424092   4.197   0.894   0.632  0.5474 -0.7562 -0.1477
 6082SOL     OW24093   4.149   2.764   2.160 -0.0556  0.0013  0.2342
 6082SOL    HW224094   4.170   2.854   2.135  1.9786 -0.6547 -0.6575
 6082SOL    HW324095   4.177   2.757   2.252  0.6358  0.0622  0.0365
 6082SOL    MW424096   4.156   2.775   2.169  0.2300 -0.5237 -0.4845
 6083SOL     OW24097   3.548   5.195   1.751  0.0615  0.7377 -0.0404
 6083SOL    HW224098   3.557   5.235   1.837  0.5866  0.7001 -0.0772
 6083SOL    HW324099   3.637   5.172   1.725 -0.3098 -1.5838  0.5202
 6083SOL    MW424100   3.561   5.197   1.759 -0.8686 -0.2263  0.1809
 6084SOL     OW24101   5.809   0.881   5.833  0.1193  0.4075  0.4098
 6084SOL    HW224102   5.884   0.829   5.862  0.0135  0.7573  1.3444
 6084SOL    HW324103   5.792   0.942   5.905 -0.0024  1.4851 -0.4878
 6084SOL    MW424104   5.817   0.882   5.846  0.0147  0.5333  0.0961
 6085SOL     OW24105   3.621   1.292   2.358 -0.0049  0.3531 -0.0806
 6085SOL    HW224106   3.674   1.319   2.432  1.0526  0.3851 -0.8221
 6085SOL    HW324107   3.619   1.196   2.364 -0.2341  0.3702  0.1792
 6085SOL    MW424108   3.628   1.283   2.368  0.3817  0.2682 -0.2425
 6086SOL     OW24109   2.163   1.502   2.674  0.5556  0.3281  0.1698
 6086SOL    HW224110   2.224   1.437   2.639  0.3326  0.1867  0.0403
 6086SOL    HW324111   2.082   1.487   2.626  1.5423  3.3236 -2.8082
 6086SOL    MW424112   2.160   1.491   2.663  0.3164  0.5726  0.2600
 6087SOL     OW24113   5.021   3.494   3.796 -0.3669  0.3900  0.1912
 6087SOL    HW224114   4.938   3.521   3.756  0.0377 -0.5685 -1.3664
 6087SOL    HW324115   5.026   3.400   3.778  0.1817  0.0499  1.9293
 6087SOL    MW424116   5.011   3.485   3.788 -0.0252 -0.6913  0.0156
 6088SOL     OW24117   0.530   2.023   2.315  0.3374  0.0303 -0.0651
 6088SOL    HW224118   0.585   1.946   2.303 -2.9795 -2.8011  1.0327
 6088SOL    HW324119   0.483   2.033   2.232 -1.9461 -1.6574  0.9093
 6088SOL    MW424120   0.531   2.014   2.303  0.4712  0.2824 -0.9089
 6089SOL     OW24121   1.115   4.311   3.870  0.0137 -0.7035 -0.0086
 6089SOL    HW224122   1.143   4.378   3.807  0.4107 -0.5209  0.3597
 6089SOL    HW324123   1.025   4.290   3.843 -0.8166  1.2965  0.9443
 6089SOL    MW424124   1.107   4.317   3.858 -0.1961  0.1668 -0.7203
 6090SOL     OW24125   0.927   3.818   2.066 -0.1678 -0.4002  0.4298
 6090SOL    HW224126   0.908   3.896   2.013  1.2079 -0.7740 -0.6789
 6090SOL    HW324127   0.861   3.754   2.039 -0.5907  0.0057  0.4915
 6090SOL    MW424128   0.916   3.820   2.055 -0.0785 -0.5678 -0.0621
 6091SOL     OW24129   0.954   4.244   4.997 -0.2105 -0.1321  0.4832
 6091SOL    HW224130   0.886   4.222   4.932  0.1574 -2.1643  0.7087
 6091SOL    HW324131   0.906   4.257   5.079 -0.5044  0.6165  0.2039
 6091SOL    MW424132   0.939   4.243   4.999  0.1015 -0.3552 -0.4633
 6092SOL     OW24133   4.545   1.389   2.608  0.4455  0.5946 -0.0058
 6092SOL    HW224134   4.470   1.333   2.586 -0.1731  1.2214  0.4642
 6092SOL    HW324135   4.507   1.461   2.659  1.3044  1.1671 -0.1576
 6092SOL    MW424136   4.530   1.391   2.612 -0.3942  0.6023 -0.1303
 6093SOL     OW24137   5.314   3.774   0.176  0.0184 -0.7623 -0.6452
 6093SOL    HW224138   5.287   3.752   0.087 -1.3932 -1.1031 -0.1592
 6093SOL    HW324139   5.333   3.689   0.216 -0.4874 -0.7073 -0.2824
 6093SOL    MW424140   5.313   3.760   0.169  0.6309 -0.0739  0.3208
 6094SOL     OW24141   4.415   3.141   5.385  0.1758  0.5846 -0.1241
 6094SOL    HW224142   4.509   3.155   5.392  0.3629 -0.8086  0.5796
 6094SOL    HW324143   4.378   3.229   5.374  1.6643  1.0443 -2.1489
 6094SOL    MW424144   4.422   3.154   5.384 -0.0054  0.0291 -0.4915
 6095SOL     OW24145   2.126   5.541   5.473 -0.3061  0.5014 -0.5764
 6095SOL    HW224146   2.156   5.504   5.390  1.2536  0.1626  0.0983
 6095SOL    HW324147   2.155   5.632   5.471 -0.9886  0.7203 -0.7363
 6095SOL    MW424148   2.134   5.548   5.462 -1.0303  0.2514  0.7206
 6096SOL     OW24149   1.940   2.460   4.345  0.0525 -0.0744  0.2660
 6096SOL    HW224150   1.974   2.549   4.349  1.6153 -0.6388  0.2615
 6096SOL    HW324151   1.952   2.425   4.434  1.7335 -1.0547 -0.3137
 6096SOL    MW424152   1.946   2.467   4.357  0.4794 -0.5834  0.3543
 6097SOL     OW24153   2.832   5.097   4.573  0.2368  0.4106  0.0057
 6097SOL    HW224154   2.896   5.061   4.634  1.0605 -0.1036 -1.1130
 6097SOL    HW324155   2.885   5.144   4.508 -0.3186 -1.3919 -1.8822
 6097SOL    MW424156   2.847   5.098   4.572  0.1434  0.5831  0.1315
 6098SOL     OW24157   3.495   5.154   6.270  0.0746 -0.0912 -0.1087
 6098SOL    HW224158   3.400   5.157   6.285  0.1055 -0.4597  0.1830
 6098SOL    HW324159   3.533   5.191   6.349  0.2412 -2.1709  0.8497
 6098SOL    MW424160   3.487   5.159   6.282  0.4584  0.8195 -0.0264
 6099SOL     OW24161   6.251   1.474   4.509  0.2425 -0.3967  0.2188
 6099SOL    HW224162   6.320   1.517   4.559  0.4286  1.0976 -1.2477
 6099SOL    HW324163   6.293   1.448   4.427 -1.2681  2.4639 -1.6507
 6099SOL    MW424164   6.265   1.476   4.505 -0.7471 -0.0122 -0.5588
 6100SOL     OW24165   1.396   0.356   1.196 -0.7870  0.6445 -0.0163
 6100SOL    HW224166   1.481   0.312   1.198 -0.4709  1.1696 -0.9313
 6100SOL    HW324167   1.400   0.418   1.269 -1.6291 -1.4563  1.9181
 6100SOL    MW424168   1.408   0.359   1.206 -0.5542  0.3364 -0.0677
 6101SOL     OW24169   0.672   3.641   1.116 -0.3078 -0.3150 -0.3960
 6101SOL    HW224170   0.590   3.661   1.161 -0.0959 -4.4206  2.3809
 6101SOL    HW324171   0.648   3.636   1.023 -2.6276  0.8329  0.0682
 6101SOL    MW424172   0.658   3.643   1.109 -0.4733 -0.3224 -0.0098
 6102SOL     OW24173   5.799   4.124   4.674 -0.5570 -0.0148 -0.2486
 6102SOL    HW224174   5.865   4.139   4.606 -1.1806 -2.4047 -1.5309
 6102SOL    HW324175   5.849   4.115   4.755  0.3109  1.8085 -0.5461
 6102SOL    MW424176   5.815   4.125   4.676  0.3039  0.0268 -0.0696
 6103SOL     OW24177   0.075   2.183   5.728  0.2730  0.0507  0.3542
 6103SOL    HW224178   0.088   2.107   5.786 -0.9014  0.1754  0.8051
 6103SOL    HW324179  -0.020   2.193   5.723  0.4144  1.5414  0.3536
 6103SOL    MW424180   0.064   2.174   5.735 -0.1708 -0.4225  0.2409
 6104SOL     OW24181   4.385   2.566   1.371 -0.4389 -0.2052 -0.6486
 6104SOL    HW224182   4.431   2.483   1.365 -0.9343 -0.4879 -0.6068
 6104SOL    HW324183   4.308   2.555   1.314 -1.7977 -0.6472  1.1894
 6104SOL    MW424184   4.381   2.554   1.362 -0.1964 -0.1396  0.0652
 6105SOL     OW24185   5.518   0.328   5.927  0.7696  0.5334  0.0003
 6105SOL    HW224186   5.536   0.325   6.021  0.9234 -0.1269 -0.0465
 6105SOL    HW324187   5.424   0.312   5.920  0.7611  0.5655  0.0385
 6105SOL    MW424188   5.508   0.326   5.939  0.0606 -0.0313 -0.5466
 6106SOL     OW24189   2.086   5.445   2.491  0.2851 -0.4939  0.3833
 6106SOL    HW224190   2.077   5.468   2.584 -0.2820  0.5555  0.0862
 6106SOL    HW324191   2.022   5.375   2.478  0.0545 -0.3465  0.6905
 6106SOL    MW424192   2.077   5.439   2.502  0.0611  0.0330 -0.1431
 6107SOL     OW24193   0.644   5.780   5.015 -0.5761 -0.3197  0.2774
 6107SOL    HW224194   0.655   5.700   5.068 -0.3863 -0.0403  0.6671
 6107SOL    HW324195   0.550   5.782   4.995 -0.3065 -1.5912 -1.2752
 6107SOL    MW424196   0.633   5.769   5.020  0.5283 -0.1321  0.2110
 6108SOL     OW24197   0.912   2.541   4.579  0.3773 -0.1040  0.1761
 6108SOL    HW224198   0.930   2.571   4.489  1.1844 -0.5118  0.1969
 6108SOL    HW324199   0.838   2.594   4.607  0.8752  0.8683 -0.3058
 6108SOL    MW424200   0.905   2.552   4.571 -0.0966  0.6201  0.3627
 6109SOL     OW24201   5.701   1.479   6.133  0.1258 -0.2605 -0.0466
 6109SOL    HW224202   5.678   1.563   6.095  0.8965 -0.1699 -0.3424
 6109SOL    HW324203   5.652   1.475   6.215  0.5290  0.7475  0.2653
 6109SOL    MW424204   5.692   1.490   6.139  0.4901 -0.3683  0.1502
 6110SOL     OW24205   0.995   3.282   1.351  0.0111  1.4096  0.8154
 6110SOL    HW224206   1.053   3.320   1.417  2.5429 -2.5910  1.2344
 6110SOL    HW324207   0.944   3.217   1.399 -1.4045  1.5005 -0.4698
 6110SOL    MW424208   0.996   3.278   1.366 -0.1783 -0.8465  0.3399
 6111SOL     OW24209   2.623   3.686   5.228  0.2907  0.1428 -0.3411
 6111SOL    HW224210   2.639   3.634   5.149 -0.2330 -0.0696 -0.3127
 6111SOL    HW324211   2.668   3.769   5.211  0.6440 -0.1033 -0.6286
 6111SOL    MW424212   2.631   3.690   5.215 -0.3653 -0.0786 -0.2701
 6112SOL     OW24213   4.059   1.383   4.179  0.0662  0.3179 -0.1361
 6112SOL    HW224214   4.090   1.294   4.163 -1.6961 -0.3292 -0.0759
 6112SOL    HW324215   4.100   1.435   4.110  1.2526 -0.4802 -0.0732
 6112SOL    MW424216   4.069   1.378   4.168 -0.3116 -0.0621 -0.8018
 6113SOL     OW24217   3.892   4.437   2.422  0.0675  0.1519  0.2853
 6113SOL    HW224218   3.899   4.529   2.396  0.5181  0.1172  0.2683
 6113SOL    HW324219   3.953   4.392   2.364  0.2848 -0.0747  0.6895
 6113SOL    MW424220   3.901   4.443   2.411  0.6656 -0.1071  0.5395
 6114SOL     OW24221   0.555   1.777   1.004 -0.0324  0.1524  0.2318
 6114SOL    HW224222   0.575   1.814   1.090  0.1458 -1.2189  0.8118
 6114SOL    HW324223   0.640   1.747   0.970 -0.5000 -2.5855  1.2026
 6114SOL    MW424224   0.569   1.778   1.011 -0.0383 -0.4737  0.7151
 6115SOL     OW24225   5.299   3.247   1.557 -0.1559  0.0036 -0.1897
 6115SOL    HW224226   5.214   3.277   1.526 -0.5514  0.7522  1.4850
 6115SOL    HW324227   5.333   3.321   1.608  0.8811 -0.7832  0.2985
 6115SOL    MW424228   5.293   3.261   1.560 -0.5997  0.5131 -0.1998
 6116SOL     OW24229   1.533   4.688   2.148  0.3029 -0.1504  0.0968
 6116SOL    HW224230   1.609   4.743   2.166 -0.3457  0.0834  2.4688
 6116SOL    HW324231   1.521   4.637   2.228 -2.3688  0.2596  0.0529
 6116SOL    MW424232   1.542   4.688   2.161 -0.0889 -0.1817 -0.0957
 6117SOL     OW24233   3.885   2.102   4.970 -1.1802 -0.2907 -0.5529
 6117SOL    HW224234   3.879   2.069   5.060  0.7374  2.5606  0.7821
 6117SOL    HW324235   3.885   2.198   4.980  1.6520  0.1719 -3.2883
 6117SOL    MW424236   3.884   2.111   4.983  0.3781 -0.2450 -0.0817
 6118SOL     OW24237   4.439   4.251   0.795  0.3060 -0.2395  0.3635
 6118SOL    HW224238   4.493   4.225   0.720 -1.3583 -2.0350 -0.2671
 6118SOL    HW324239   4.434   4.347   0.788 -1.3434 -0.4243 -2.9927
 6118SOL    MW424240   4.446   4.260   0.784  0.6242 -0.4897  0.7601
 6119SOL     OW24241   5.919   3.507   5.712 -0.2880 -0.4680 -0.2341
 6119SOL    HW224242   5.980   3.579   5.695 -1.1507  0.2159 -0.4534
 6119SOL    HW324243   5.968   3.448   5.771 -0.0909  1.0326  1.1852
 6119SOL    MW424244   5.934   3.508   5.718  0.2964 -0.2787  0.3602
 6120SOL     OW24245   5.819   5.740   4.897  0.1514 -0.5572 -0.6119
 6120SOL    HW224246   5.748   5.799   4.922 -0.5529 -1.2148 -1.0160
 6120SOL    HW324247   5.809   5.664   4.955 -0.1088 -1.0947 -1.3414
 6120SOL    MW424248   5.809   5.738   4.908  0.3314  0.8290 -0.9218
 6121SOL     OW24249   4.731   1.235   3.822  0.2291  0.1405 -0.1665
 6121SOL    HW224250   4.755   1.275   3.738 -0.0987  1.7155  0.4530
 6121SOL    HW324251   4.667   1.168   3.799  0.8068 -0.0651 -1.2562
 6121SOL    MW424252   4.726   1.232   3.808 -0.5171 -0.1615 -0.2958
 6122SOL     OW24253   0.760   4.797   5.564  0.2519 -0.0562 -0.4755
 6122SOL    HW224254   0.685   4.851   5.590 -0.4372 -1.1461 -0.1165
 6122SOL    HW324255   0.721   4.714   5.536  1.2110 -0.0492 -1.9543
 6122SOL    MW424256   0.745   4.793   5.564 -0.0624 -0.1248  0.0007
 6123SOL     OW24257   4.713   4.001   6.265  0.0666 -0.2830 -0.6780
 6123SOL    HW224258   4.673   4.069   6.212  0.8471 -0.4314 -1.4758
 6123SOL    HW324259   4.704   4.031   6.356 -2.4221 -0.6155 -0.7577
 6123SOL    MW424260   4.707   4.014   6.270 -0.0151 -0.7069  0.4199
 6124SOL     OW24261   4.652   3.783   4.933  0.3256  0.0422 -0.1329
 6124SOL    HW224262   4.692   3.870   4.927  1.1284 -0.4026 -2.4771
 6124SOL    HW324263   4.579   3.787   4.872  0.3384 -0.9056 -0.2194
 6124SOL    MW424264   4.648   3.795   4.924 -0.1084  0.1560 -0.4111
 6125SOL     OW24265   2.406   4.677   2.594  0.8332 -0.6257  0.4288
 6125SOL    HW224266   2.481   4.667   2.653  1.9804  1.9347 -0.4330
 6125SOL    HW324267   2.399   4.772   2.580  0.7496 -1.0498 -3.6283
 6125SOL    MW424268   2.415   4.688   2.600  0.1908  0.0678 -0.0676
 6126SOL     OW24269   0.819   2.461   4.120 -0.1874  0.7970 -0.3521
 6126SOL    HW224270   0.873   2.478   4.042 -0.2366  2.1625 -0.1180
 6126SOL    HW324271   0.883   2.438   4.188  0.0908  1.8489 -0.2263
 6126SOL    MW424272   0.835   2.460   4.119  0.6197 -0.0474  0.0079
 6127SOL     OW24273   5.831   3.659   3.074 -0.2609 -0.2145  0.1622
 6127SOL    HW224274   5.912   3.609   3.068  0.2495  0.5340  0.7157
 6127SOL    HW324275   5.851   3.742   3.030 -0.9742 -0.3335 -0.4012
 6127SOL    MW424276   5.844   3.664   3.067  0.0777  0.6451  0.3531
 6128SOL     OW24277   4.281   4.433   1.474 -0.2561 -0.3040 -0.4004
 6128SOL    HW224278   4.297   4.342   1.449 -1.0898 -0.4288 -0.4981
 6128SOL    HW324279   4.276   4.480   1.390  0.6148 -0.0810 -0.3396
 6128SOL    MW424280   4.283   4.427   1.460 -0.4813  0.6133 -0.3716
 6129SOL     OW24281   4.663   4.649   4.144 -0.4642  0.2674 -0.1526
 6129SOL    HW224282   4.697   4.644   4.233 -1.6789 -0.0423  0.3165
 6129SOL    HW324283   4.573   4.681   4.155 -0.6970  0.0218 -1.2491
 6129SOL    MW424284   4.655   4.653   4.157 -0.4782  0.6184 -0.2467
 6130SOL     OW24285   3.913   0.099   0.234  0.8642  0.2280  0.4276
 6130SOL    HW224286   4.008   0.091   0.234  0.7318 -1.6576  0.5816
 6130SOL    HW324287   3.882   0.030   0.293 -0.7077 -1.0328 -1.7211
 6130SOL    MW424288   3.921   0.089   0.242 -0.9459 -0.1646  0.2313
 6131SOL     OW24289   2.764   5.057   5.000 -0.6595  0.1722 -0.0126
 6131SOL    HW224290   2.801   4.970   5.012 -2.4245 -0.4251  1.5304
 6131SOL    HW324291   2.723   5.054   4.914 -0.9465 -0.6161  0.1436
 6131SOL    MW424292   2.764   5.045   4.990 -0.5899  0.1250 -0.0270
 6132SOL     OW24293   1.356   1.583   3.875  0.2385  0.0676  0.2787
 6132SOL    HW224294   1.375   1.611   3.786 -1.6115 -1.2430 -0.6077
 6132SOL    HW324295   1.358   1.663   3.927  1.9181  0.7702 -0.8041
 6132SOL    MW424296   1.358   1.597   3.871 -0.5360  0.0772  0.8068
 6133SOL     OW24297   1.499   4.254   3.458  0.0008 -0.0693 -0.1577
 6133SOL    HW224298   1.562   4.258   3.386  1.1156 -1.6429  0.6566
 6133SOL    HW324299   1.453   4.338   3.455  1.7015  0.8786 -1.1777
 6133SOL    MW424300   1.501   4.265   3.448  0.3074  0.2153  0.1584
 6134SOL     OW24301   4.638   5.036   3.708  0.6357  0.3855 -0.2578
 6134SOL    HW224302   4.695   5.111   3.725  0.8961  0.3010 -0.7501
 6134SOL    HW324303   4.687   4.961   3.740 -0.4529  0.6012  2.1237
 6134SOL    MW424304   4.652   5.036   3.714 -0.3246 -0.0188 -0.7886
 6135SOL     OW24305   5.581   2.026   6.101  0.0891 -0.1376  0.5850
 6135SOL    HW224306   5.522   2.000   6.030  1.3942 -0.1915 -0.5111
 6135SOL    HW324307   5.637   1.950   6.115  0.4356  0.2007  1.0658
 6135SOL    MW424308   5.580   2.012   6.094 -0.0393 -0.0364 -0.6931
 6136SOL     OW24309   4.730   1.297   2.259  0.1735 -0.4510 -0.1412
 6136SOL    HW224310   4.671   1.231   2.221 -0.7390 -0.1152  0.6530
 6136SOL    HW324311   4.742   1.269   2.350 -1.3733  1.1906  0.6331
 6136SOL    MW424312   4.724   1.285   2.266 -0.0793 -0.3037 -0.0264
 6137SOL     OW24313   6.048   1.474   5.296  0.0712 -0.2372  0.5693
 6137SOL    HW224314   6.139   1.462   5.323  0.8270  0.9160 -1.3107
 6137SOL    HW324315   6.033   1.568   5.304  0.2820  0.1788 -2.5628
 6137SOL    MW424316   6.058   1.485   5.301 -0.2208  0.7920 -0.6262
 6138SOL     OW24317   3.553   6.126   5.810  0.4507  0.0195 -0.5739
 6138SOL    HW224318   3.632   6.075   5.826  0.2128 -0.9901 -2.3232
 6138SOL    HW324319   3.492   6.098   5.878  1.6321  0.9462  0.9037
 6138SOL    MW424320   3.556   6.115   5.821 -0.3418 -0.2470 -0.1023
 6139SOL     OW24321   1.132   4.495   2.240  0.1384  0.5297 -0.2942
 6139SOL    HW224322   1.095   4.414   2.204 -0.8994  0.2342  1.3236
 6139SOL    HW324323   1.190   4.527   2.172  0.6409 -1.6191 -0.9493
 6139SOL    MW424324   1.135   4.489   2.227 -0.3057 -0.2864  0.3134
 6140SOL     OW24325   3.252   0.778   6.035  0.0718  0.3110 -0.0911
 6140SOL    HW224326   3.338   0.775   6.076  0.4939 -0.9226 -0.9762
 6140SOL    HW324327   3.260   0.721   5.958 -0.7080  2.4100 -1.8335
 6140SOL    MW424328   3.264   0.770   6.030 -0.4491  0.0623  0.0239
 6141SOL     OW24329   5.318   5.116   0.831  0.0952  0.4687 -0.6334
 6141SOL    HW224330   5.278   5.070   0.757  0.5676 -0.7343 -0.1745
 6141SOL    HW324331   5.393   5.062   0.855 -0.1585  0.7304  0.8440
 6141SOL    MW424332   5.323   5.103   0.824  0.7307 -0.7800 -0.0472
 6142SOL     OW24333   5.491   4.321   3.797  0.5808 -0.0711  0.0659
 6142SOL    HW224334   5.448   4.251   3.746  0.4799  0.7873 -1.0685
 6142SOL    HW324335   5.447   4.319   3.882  0.3776 -1.1897 -0.0392
 6142SOL    MW424336   5.480   4.311   3.801  0.1509  0.1742  0.3404
 6143SOL     OW24337   1.618   0.421   1.896 -0.4091 -0.0424  0.5808
 6143SOL    HW224338   1.572   0.343   1.927  1.4743 -0.5153  2.4527
 6143SOL    HW324339   1.659   0.394   1.814  0.8814 -1.3594  1.6011
 6143SOL    MW424340   1.617   0.407   1.889  0.7276 -0.6885  0.4243
 6144SOL     OW24341   1.133   5.934   0.760  0.4601 -0.2149 -0.6267
 6144SOL    HW224342   1.222   5.932   0.795 -0.0535  0.3913  0.7952
 6144SOL    HW324343   1.135   6.004   0.695  0.6769  0.8086  0.4531
 6144SOL    MW424344   1.145   5.943   0.756  0.2697  0.2174  0.2183
 6145SOL     OW24345   4.481   1.771   3.257  0.1334  0.3763 -0.2245
 6145SOL    HW224346   4.425   1.695   3.271  0.3427  0.2745  0.0549
 6145SOL    HW324347   4.489   1.812   3.343 -0.4190  1.0282 -0.4656
 6145SOL    MW424348   4.474   1.766   3.270  0.1762 -0.3731  0.5569
 6146SOL     OW24349   1.937   6.326   2.565  0.6189  0.0925  0.0591
 6146SOL    HW224350   1.984   6.351   2.485 -0.0793  0.6803 -0.1800
 6146SOL    HW324351   1.888   6.405   2.590 -2.3981 -1.2279 -1.2329
 6146SOL    MW424352   1.937   6.340   2.558  0.3628 -0.8684  0.3126
 6147SOL     OW24353   1.204   4.690   4.069  0.2949 -0.1948  0.8359
 6147SOL    HW224354   1.129   4.631   4.065 -0.7874  1.1715 -0.7618
 6147SOL    HW324355   1.265   4.649   4.131 -1.2434 -1.9417  1.2656
 6147SOL    MW424356   1.202   4.677   4.077 -0.0987 -0.4222  1.2539
 6148SOL     OW24357   0.313   2.704   3.773  0.5827  0.5917 -0.5592
 6148SOL    HW224358   0.254   2.663   3.836  1.5903 -0.1331 -0.0463
 6148SOL    HW324359   0.305   2.798   3.790  0.3390  0.4439  0.1997
 6148SOL    MW424360   0.304   2.711   3.784 -0.0680  0.0810 -0.0142
 6149SOL     OW24361   4.206   1.166   0.750 -0.0811 -0.1542 -0.1224
 6149SOL    HW224362   4.127   1.175   0.804 -0.0439  0.3520 -0.1561
 6149SOL    HW324363   4.178   1.194   0.663  0.3545  0.8378  0.0478
 6149SOL    MW424364   4.192   1.171   0.746  0.1369  0.0783  0.3954
 6150SOL     OW24365   0.955   0.483   1.241 -0.3108  0.3292 -0.4395
 6150SOL    HW224366   0.954   0.484   1.145 -0.5730  2.3209 -0.4715
 6150SOL    HW324367   0.864   0.471   1.266 -0.1468 -0.9652 -0.4027
 6150SOL    MW424368   0.943   0.482   1.231  0.3559  0.4852  0.2587
 6151SOL     OW24369   2.036   2.385   0.504 -0.3548 -0.1548 -0.2895
 6151SOL    HW224370   1.958   2.434   0.477 -0.4983 -0.6907 -0.8986
 6151SOL    HW324371   2.104   2.415   0.444 -0.1201  0.2168  0.1575
 6151SOL    MW424372   2.034   2.395   0.492  0.2148 -0.2142  0.0634
 6152SOL     OW24373   2.761   3.321   1.664  0.1169  0.2103  0.1564
 6152SOL    HW224374   2.754   3.392   1.728  1.4344 -0.1734  0.7694
 6152SOL    HW324375   2.854   3.302   1.659 -0.0617 -0.4370 -1.1720
 6152SOL    MW424376   2.772   3.328   1.672 -0.0886  0.4549  0.4254
 6153SOL     OW24377   6.094   1.282   3.594  0.2925  0.0253 -0.1136
 6153SOL    HW224378   6.128   1.367   3.566  1.0886 -0.8881 -2.0555
 6153SOL    HW324379   6.007   1.276   3.554 -0.3461  0.4579  1.1453
 6153SOL    MW424380   6.087   1.292   3.585  0.3206  0.0620  0.1628
 6154SOL     OW24381   5.468   5.315   5.093  0.2838  0.0187  0.5729
 6154SOL    HW224382   5.513   5.263   5.027  1.9649  1.6647  0.3262
 6154SOL    HW324383   5.411   5.253   5.138 -0.1812 -1.3472 -1.7440
 6154SOL    MW424384   5.466   5.300   5.090 -0.0126 -0.5630 -0.4308
 6155SOL     OW24385   4.523   1.134   6.163 -0.2522 -0.0642 -0.8385
 6155SOL    HW224386   4.512   1.204   6.227 -2.5277 -1.1060  0.0316
 6155SOL    HW324387   4.461   1.155   6.093 -1.8559 -1.7025 -0.0055
 6155SOL    MW424388   4.513   1.146   6.162  0.0468 -0.7210 -0.5590
 6156SOL     OW24389   0.205   0.499   6.019 -0.0911  0.1061 -0.1113
 6156SOL    HW224390   0.130   0.508   6.079 -0.2279 -0.5629 -0.1725
 6156SOL    HW324391   0.273   0.458   6.073  0.5043  1.4314  0.1599
 6156SOL    MW424392   0.204   0.494   6.034  0.1498  0.5104  0.2981
 6157SOL     OW24393   5.216   2.260   0.293  0.0133  0.1760 -0.0955
 6157SOL    HW224394   5.293   2.274   0.237  1.5723  0.1984  1.9194
 6157SOL    HW324395   5.244   2.190   0.353 -1.0584  1.0698  1.5042
 6157SOL    MW424396   5.230   2.252   0.294  0.9025  0.6376 -0.3951
 6158SOL     OW24397   4.629   1.234   4.266 -0.3777 -0.0689 -0.6086
 6158SOL    HW224398   4.554   1.247   4.324 -0.6280 -2.8247 -0.1795
 6158SOL    HW324399   4.704   1.265   4.316 -0.8521 -0.3432  0.2959
 6158SOL    MW424400   4.629   1.240   4.280 -0.9474  0.1543 -0.2055
 6159SOL     OW24401   2.514   4.334   2.841  0.4620 -0.3437 -0.0610
 6159SOL    HW224402   2.540   4.422   2.812  2.4093 -0.1876  1.8902
 6159SOL    HW324403   2.597   4.288   2.853 -0.5074 -2.2181 -0.2981
 6159SOL    MW424404   2.528   4.340   2.838  0.2370  0.5142 -0.3483
 6160SOL     OW24405   4.686   1.287   3.009  0.0908  0.4562 -0.6946
 6160SOL    HW224406   4.708   1.367   2.960 -0.6891 -0.3052 -2.3895
 6160SOL    HW324407   4.610   1.252   2.963 -0.0859 -0.8443  0.5239
 6160SOL    MW424408   4.679   1.293   2.996  0.1001 -1.0513 -0.1559
 6161SOL     OW24409   4.250   3.546   2.007 -0.2224  0.4388  0.1071
 6161SOL    HW224410   4.328   3.578   2.052 -0.0214 -1.6510  1.3488
 6161SOL    HW324411   4.282   3.475   1.951 -0.9752  0.8350 -0.8650
 6161SOL    MW424412   4.265   3.541   2.005  0.0674  0.0385 -0.0113
 6162SOL     OW24413   0.664   0.958   2.207  0.2030 -0.0279 -0.0419
 6162SOL    HW224414   0.576   0.934   2.176  0.1707  3.7709 -3.7429
 6162SOL    HW324415   0.654   0.965   2.302 -2.8852 -1.7916 -0.0855
 6162SOL    MW424416   0.651   0.956   2.215 -0.1596  0.9091 -0.7147
 6163SOL     OW24417   4.567   0.418   2.851  0.0232  0.0974 -0.6676
 6163SOL    HW224418   4.508   0.358   2.898  0.2134 -0.4893 -1.1679
 6163SOL    HW324419   4.564   0.389   2.760  0.5881  0.4677 -0.8114
 6163SOL    MW424420   4.559   0.406   2.845  0.4937  0.5159  0.3408
 6164SOL     OW24421   0.907   0.036   6.090  0.1738 -0.5417 -0.3235
 6164SOL    HW224422   0.923   0.058   6.182 -1.6029  0.1574 -0.1507
 6164SOL    HW324423   0.877  -0.055   6.092 -1.0869 -0.1300 -0.0587
 6164SOL    MW424424   0.905   0.027   6.103 -0.2681  0.9608 -0.2214
 6165SOL     OW24425   1.430   3.237   4.786 -0.0355  0.0457 -0.6767
 6165SOL    HW224426   1.375   3.278   4.854  0.6114  1.0625 -0.7485
 6165SOL    HW324427   1.374   3.237   4.708  0.4005  2.1294 -1.0585
 6165SOL    MW424428   1.415   3.243   4.785 -0.2227  0.0828 -0.4042
 6166SOL     OW24429   0.590   4.815   1.781 -0.1691 -0.5053  0.4789
 6166SOL    HW224430   0.654   4.881   1.810 -1.4389  0.5223  1.0123
 6166SOL    HW324431   0.505   4.858   1.791 -0.9789 -1.9776  0.1250
 6166SOL    MW424432   0.588   4.829   1.786 -0.3019 -0.3391  0.1943
 6167SOL     OW24433   3.554   5.580   5.339 -0.1064  0.6619  0.1043
 6167SOL    HW224434   3.474   5.548   5.296 -0.9184  1.9765  0.5780
 6167SOL    HW324435   3.522   5.629   5.415  1.0125  2.9975 -0.8432
 6167SOL    MW424436   3.539   5.582   5.344 -0.9266  0.2043  0.4738
 6168SOL     OW24437   3.159   3.859   0.947  0.4174  0.1876 -0.4734
 6168SOL    HW224438   3.238   3.806   0.962  0.7781  0.3296 -1.7395
 6168SOL    HW324439   3.176   3.940   0.995  0.1748 -0.5421  0.8815
 6168SOL    MW424440   3.172   3.863   0.955  0.1225 -0.8737  0.0320
 6169SOL     OW24441   0.812   1.874   4.159  0.4103 -0.0576  0.5703
 6169SOL    HW224442   0.812   1.778   4.156 -0.0178 -0.0338 -1.0107
 6169SOL    HW324443   0.720   1.898   4.169  0.5075  0.2071  0.8655
 6169SOL    MW424444   0.800   1.864   4.160 -0.6413 -0.5215 -0.1676
 6170SOL     OW24445   5.364   5.343   5.367 -0.4300  0.0893 -0.6581
 6170SOL    HW224446   5.418   5.333   5.446 -0.3862  0.2375 -0.6676
 6170SOL    HW324447   5.343   5.437   5.365  3.3545  1.1325 -3.2424
 6170SOL    MW424448   5.369   5.354   5.377  0.1106  0.8966 -0.7479
 6171SOL     OW24449   5.283   3.280   3.560  0.1273 -0.1322  0.3919
 6171SOL    HW224450   5.227   3.268   3.637 -1.8239 -1.2581 -1.0932
 6171SOL    HW324451   5.341   3.204   3.560  0.0448 -0.1962  0.6654
 6171SOL    MW424452   5.283   3.268   3.570  0.2438  0.6988 -0.4286
 6172SOL     OW24453   4.156   5.211   3.011  0.5666  0.4410 -0.2566
 6172SOL    HW224454   4.094   5.198   2.940  0.8834 -1.1272 -0.2720
 6172SOL    HW324455   4.137   5.299   3.043 -1.0294  0.3503 -0.8626
 6172SOL    MW424456   4.145   5.221   3.006  0.4795  0.6004  0.1899
 6173SOL     OW24457   4.161   3.120   3.708  0.0114  0.4326 -0.1522
 6173SOL    HW224458   4.163   3.028   3.735 -2.2151  0.3754 -0.0116
 6173SOL    HW324459   4.234   3.160   3.754  0.0767 -0.9605  1.0169
 6173SOL    MW424460   4.171   3.113   3.718 -0.5754 -0.1002  0.5420
 6174SOL     OW24461   6.029   3.354   4.991 -0.2282  0.4337 -0.0320
 6174SOL    HW224462   5.986   3.430   4.951 -0.0671  0.4748 -0.1283
 6174SOL    HW324463   5.957   3.298   5.020 -0.3683  1.0456  0.8528
 6174SOL    MW424464   6.014   3.357   4.990 -0.0268 -0.2478 -0.3109
 6175SOL     OW24465   6.081   2.412   4.284 -0.0311 -0.2473 -0.0877
 6175SOL    HW224466   6.154   2.409   4.222 -0.0382 -0.5904 -0.0820
 6175SOL    HW324467   6.031   2.490   4.259 -0.4438 -0.7885 -0.9864
 6175SOL    MW424468   6.084   2.422   4.273 -0.0438  0.2281 -0.3269
 6176SOL     OW24469   1.852   5.486   4.689 -0.7861 -0.3832  0.3573
 6176SOL    HW224470   1.887   5.462   4.775  0.0161 -1.7368 -0.3175
 6176SOL    HW324471   1.825   5.578   4.699  1.6300  0.3053  1.3403
 6176SOL    MW424472   1.853   5.495   4.702 -0.1534  0.1062  0.2869
 6177SOL     OW24473   2.796   0.825   4.644 -0.1685 -0.5453  0.7569
 6177SOL    HW224474   2.820   0.917   4.660  1.2850 -0.9555  1.1072
 6177SOL    HW324475   2.816   0.781   4.726 -1.4405 -1.0858  0.7862
 6177SOL    MW424476   2.802   0.832   4.657  0.1404  0.1451 -0.5072
 6178SOL     OW24477   2.298   3.400   2.289  0.1332 -0.6110  0.4941
 6178SOL    HW224478   2.222   3.360   2.247 -0.2403 -0.9548  1.4676
 6178SOL    HW324479   2.272   3.411   2.380  0.9796 -0.0247  0.6787
 6178SOL    MW424480   2.285   3.396   2.296 -0.1838 -0.0666 -0.4725
 6179SOL     OW24481   3.807   4.278   5.012 -0.0690 -0.2937 -0.0088
 6179SOL    HW224482   3.716   4.250   4.998  0.0707 -1.4393  1.1454
 6179SOL    HW324483   3.859   4.201   4.990  0.5632  0.0621  0.2233
 6179SOL    MW424484   3.802   4.264   5.008 -0.0811  0.4984  0.2200
 6180SOL     OW24485   4.065   0.287   5.411 -0.1385 -0.0792  0.4762
 6180SOL    HW224486   4.141   0.316   5.360 -0.8490  1.1082  0.0474
 6180SOL    HW324487   3.991   0.295   5.350 -1.0506  1.6314  1.7291
 6180SOL    MW424488   4.066   0.292   5.396 -0.8052  0.0475  0.0124
 6181SOL     OW24489   5.079   6.395   0.969  0.4244  0.5453  0.4099
 6181SOL    HW224490   5.057   6.483   0.938 -1.7236 -0.0919 -0.0786
 6181SOL    HW324491   5.108   6.348   0.891  0.3672  0.4829  0.4261
 6181SOL    MW424492   5.080   6.401   0.955  0.5039  0.2218 -0.1501
 6182SOL     OW24493   4.721   0.763   3.449  0.1590 -0.1547  0.1238
 6182SOL    HW224494   4.750   0.854   3.451 -0.8645  0.1836  1.2288
 6182SOL    HW324495   4.642   0.764   3.394  0.2712 -0.4082 -0.0433
 6182SOL    MW424496   4.714   0.775   3.442  0.0990 -0.2180  0.0188
 6183SOL     OW24497   2.100   4.636   3.964 -0.5363  0.1851 -0.8194
 6183SOL    HW224498   2.040   4.571   3.927  0.8631 -1.4747 -0.3437
 6183SOL    HW324499   2.133   4.595   4.044  1.2133  1.0178 -1.0561
 6183SOL    MW424500   2.097   4.622   3.970 -0.2383 -0.1260  0.4684
 6184SOL     OW24501   5.800   2.810   4.400  0.6528 -0.2727 -0.7424
 6184SOL    HW224502   5.773   2.834   4.488 -2.9674 -0.9620 -1.5119
 6184SOL    HW324503   5.787   2.889   4.348 -0.1547 -0.6792 -1.1777
 6184SOL    MW424504   5.795   2.823   4.404 -0.2874  0.2753  0.1372
 6185SOL     OW24505   5.291   6.207   4.450 -0.1362  0.1621  1.1013
 6185SOL    HW224506   5.373   6.214   4.401 -0.6679  0.4569  0.2504
 6185SOL    HW324507   5.292   6.283   4.508 -0.2573  0.6939  0.4115
 6185SOL    MW424508   5.302   6.218   4.451 -0.2309  0.6314 -0.4456
 6186SOL     OW24509   5.821   2.435   5.551 -0.8949  0.0872 -0.1411
 6186SOL    HW224510   5.783   2.410   5.466  0.7701 -0.8923 -0.6491
 6186SOL    HW324511   5.765   2.392   5.616 -1.4696 -0.1563 -0.7804
 6186SOL    MW424512   5.808   2.426   5.548 -0.2304 -0.5159  0.4672
 6187SOL     OW24513   5.990   1.086   2.044 -0.4988  0.3223 -0.1253
 6187SOL    HW224514   6.049   1.095   1.970 -1.0958 -0.8861 -0.7827
 6187SOL    HW324515   5.938   1.007   2.025  0.8524 -1.4051  2.6069
 6187SOL    MW424516   5.991   1.077   2.032 -0.0593  0.2036  0.2649
 6188SOL     OW24517   0.613   5.267   0.795  0.5700 -0.2031  0.1547
 6188SOL    HW224518   0.677   5.205   0.831  0.0833 -0.6517  0.2725
 6188SOL    HW324519   0.562   5.295   0.871 -0.9692 -1.7455 -0.2255
 6188SOL    MW424520   0.615   5.262   0.810  0.5651 -0.0080  0.1167
 6189SOL     OW24521   5.980   4.386   5.875  0.1436  0.1697 -0.0672
 6189SOL    HW224522   5.893   4.425   5.872  0.0796  0.3835  2.1988
 6189SOL    HW324523   5.964   4.291   5.882  0.2050 -0.0227 -1.9876
 6189SOL    MW424524   5.967   4.378   5.876 -0.1200 -0.6026 -0.1878
 6190SOL     OW24525   1.234   1.449   2.267 -0.4741  0.1728  0.3850
 6190SOL    HW224526   1.265   1.358   2.272  0.1251  0.3209 -0.5837
 6190SOL    HW324527   1.142   1.443   2.292 -0.0511 -0.4591  1.9690
 6190SOL    MW424528   1.226   1.436   2.271 -0.1883  0.0824  0.3856
 6191SOL     OW24529   5.709   2.764   2.226 -0.4326 -0.1669 -0.3455
 6191SOL    HW224530   5.681   2.796   2.312 -0.4374  1.5615 -0.9559
 6191SOL    HW324531   5.669   2.824   2.164  1.0171 -0.3120 -1.4699
 6191SOL    MW424532   5.700   2.776   2.229 -0.0789  0.0484  0.3458
 6192SOL     OW24533   5.562   3.619   4.031  0.2206  0.6633 -0.2455
 6192SOL    HW224534   5.466   3.621   4.035  0.1826 -0.3822 -0.2869
 6192SOL    HW324535   5.587   3.708   4.010 -0.6491  1.3962  1.5844
 6192SOL    MW424536   5.552   3.631   4.029  0.2959  0.2188  0.0079
 6193SOL     OW24537   1.647   3.717   1.794  0.1256 -0.0363  0.2367
 6193SOL    HW224538   1.709   3.661   1.748 -0.2138 -0.5544  0.4006
 6193SOL    HW324539   1.603   3.766   1.725 -1.6818 -2.1396 -0.1853
 6193SOL    MW424540   1.649   3.716   1.779  0.1978 -0.1378 -0.0425
 6194SOL     OW24541   1.647   1.556   2.040  0.2161  0.8514  0.0905
 6194SOL    HW224542   1.559   1.519   2.047  0.2292  0.6107 -0.9356
 6194SOL    HW324543   1.643   1.614   1.965  0.8757  1.0109  0.1720
 6194SOL    MW424544   1.635   1.558   2.031  0.1649  0.5041  0.6263
 6195SOL     OW24545   3.650   3.001   0.998  1.1574  0.2239  0.2246
 6195SOL    HW224546   3.564   2.978   0.962  2.0488 -1.0701 -1.1856
 6195SOL    HW324547   3.634   3.013   1.092 -0.2621 -1.7766  0.3096
 6195SOL    MW424548   3.636   3.000   1.006 -0.6048 -0.4887  0.7545
 6196SOL     OW24549   2.414   5.201   2.608  0.1985  0.1969  0.2953
 6196SOL    HW224550   2.471   5.272   2.638 -1.0114  0.9263  0.9575
 6196SOL    HW324551   2.413   5.210   2.513  2.3992 -0.8231  0.1027
 6196SOL    MW424552   2.422   5.211   2.599 -0.3530 -0.1736 -0.5152
 6197SOL     OW24553   0.562   4.128   5.110  0.3318  0.2394 -0.9538
 6197SOL    HW224554   0.499   4.063   5.079  0.3774  0.4079 -1.4189
 6197SOL    HW324555   0.641   4.078   5.128 -0.4233 -0.2400  1.2743
 6197SOL    MW424556   0.564   4.113   5.108 -0.2195  0.3161 -0.2018
 6198SOL     OW24557   5.945   4.226   2.495 -0.1583 -0.2246  0.2193
 6198SOL    HW224558   5.969   4.181   2.576 -1.1346 -1.3043 -0.0726
 6198SOL    HW324559   5.865   4.182   2.466  0.4749 -0.2187 -1.6337
 6198SOL    MW424560   5.938   4.214   2.502  0.5933  0.4465 -0.3128
 6199SOL     OW24561   0.239   3.166   3.575 -0.0915 -0.0341  0.8195
 6199SOL    HW224562   0.227   3.231   3.645  0.6293 -0.5434  1.4256
 6199SOL    HW324563   0.152   3.128   3.562 -0.6414  1.3852  0.1080
 6199SOL    MW424564   0.226   3.170   3.582 -0.2194  0.2663  0.1691
 6200SOL     OW24565   6.430   4.733   2.111 -0.2182  0.1686  0.0848
 6200SOL    HW224566   6.423   4.644   2.145 -0.6268 -0.9527 -2.6997
 6200SOL    HW324567   6.522   4.742   2.086 -0.2854  0.3632 -0.0934
 6200SOL    MW424568   6.441   4.722   2.112 -0.6153  0.0787 -0.1636
 6201SOL     OW24569   4.690   1.219   0.722 -0.1645  0.0045  0.5166
 6201SOL    HW224570   4.659   1.163   0.651  0.4106  1.0546 -0.5940
 6201SOL    HW324571   4.700   1.159   0.796 -1.6081 -0.9547 -0.0131
 6201SOL    MW424572   4.687   1.204   0.723 -0.2047  0.0419  0.2126
 6202SOL     OW24573   1.704   1.291   1.995 -0.2415  0.1812  0.4193
 6202SOL    HW224574   1.709   1.383   2.020  1.6241  0.0185  0.8334
 6202SOL    HW324575   1.728   1.289   1.902  2.7168 -0.0939  1.0950
 6202SOL    MW424576   1.708   1.303   1.986 -0.1570 -0.4731 -0.0657
 6203SOL     OW24577   3.588   0.328   5.223  0.1516 -0.0135 -0.4690
 6203SOL    HW224578   3.540   0.257   5.182 -1.1343  0.2212  0.5855
 6203SOL    HW324579   3.600   0.392   5.152 -2.6828  0.7214 -0.3851
 6203SOL    MW424580   3.583   0.327   5.208  0.4221 -0.0447  0.2616
 6204SOL     OW24581   3.804   2.154   1.946 -0.2474 -0.2403  0.3521
 6204SOL    HW224582   3.862   2.231   1.941 -0.9396  0.2097 -2.9615
 6204SOL    HW324583   3.722   2.188   1.980  0.2007 -0.0580  1.2760
 6204SOL    MW424584   3.801   2.169   1.950  0.2788 -0.1655 -0.2118
 6205SOL     OW24585   5.988   5.999   0.825 -0.5157 -0.0719  0.2562
 6205SOL    HW224586   6.018   5.985   0.736  0.4113 -0.8932  0.6776
 6205SOL    HW324587   5.924   6.070   0.818 -0.5099 -0.1727 -1.0590
 6205SOL    MW424588   5.983   6.007   0.813 -0.2304 -0.4405 -0.3100
 6206SOL     OW24589   0.598   2.568   1.557 -0.7903  0.2060 -0.1743
 6206SOL    HW224590   0.674   2.553   1.501 -0.1389  3.1641 -0.2396
 6206SOL    HW324591   0.555   2.482   1.563  1.8989 -1.3114 -1.0486
 6206SOL    MW424592   0.602   2.555   1.551 -0.6389  0.1515  0.0234
 6207SOL     OW24593   5.018   3.797   1.929 -0.9570 -0.2427 -0.1086
 6207SOL    HW224594   4.967   3.776   2.007 -1.1339 -0.7490 -0.3566
 6207SOL    HW324595   5.082   3.727   1.922  1.1230  1.3935  1.3137
 6207SOL    MW424596   5.020   3.785   1.938 -0.5295 -0.3638  0.3057
 6208SOL     OW24597   4.400   1.856   0.977  0.0446 -0.2566  0.2716
 6208SOL    HW224598   4.368   1.828   1.062 -0.7971 -1.5490 -0.4438
 6208SOL    HW324599   4.330   1.833   0.916  0.8684  0.1233 -0.8515
 6208SOL    MW424600   4.387   1.849   0.980  0.2182 -0.4196  0.2035
 6209SOL     OW24601   0.511   1.296   1.627  0.2356  0.7546  0.0377
 6209SOL    HW224602   0.513   1.390   1.609  0.7711  0.6490 -0.4834
 6209SOL    HW324603   0.425   1.281   1.666 -0.5510  1.1916 -1.4411
 6209SOL    MW424604   0.500   1.306   1.630  0.0256  0.1404 -0.1890
 6210SOL     OW24605   1.191   4.887   4.791 -0.8543 -0.4431  0.4285
 6210SOL    HW224606   1.178   4.948   4.719 -1.0944 -1.2917 -0.2757
 6210SOL    HW324607   1.140   4.923   4.863 -1.7565 -0.2812 -0.2654
 6210SOL    MW424608   1.182   4.900   4.791 -0.3725 -0.4330 -0.4697
 6211SOL     OW24609   1.545   4.995   6.093 -0.6797 -0.3151 -0.0625
 6211SOL    HW224610   1.517   5.024   6.006 -3.6011 -0.7168  0.6162
 6211SOL    HW324611   1.463   4.971   6.138  0.8476 -1.6619  2.2548
 6211SOL    MW424612   1.530   4.996   6.088  0.0278 -0.3488  0.0690
 6212SOL     OW24613   0.953   3.066   1.518 -0.1680 -0.9721 -0.7682
 6212SOL    HW224614   0.884   3.001   1.503 -0.7084 -0.7735  0.6539
 6212SOL    HW324615   0.992   3.039   1.601 -1.3160  1.2499  0.5887
 6212SOL    MW424616   0.949   3.054   1.527  0.1249 -0.8086  0.3028
 6213SOL     OW24617   4.217   2.672   0.298 -0.3716  0.1208 -0.7555
 6213SOL    HW224618   4.185   2.703   0.382  0.8177 -1.6893  0.4567
 6213SOL    HW324619   4.292   2.728   0.278  0.6377 -0.7098  0.4979
 6213SOL    MW424620   4.223   2.683   0.306  0.8347  0.0699  0.1726
 6214SOL     OW24621   1.713   1.145   3.666  0.3847 -0.4722 -0.1640
 6214SOL    HW224622   1.707   1.101   3.581 -1.9481 -2.8798  1.0948
 6214SOL    HW324623   1.790   1.106   3.708  0.7601 -0.2549 -0.6394
 6214SOL    MW424624   1.722   1.134   3.661  0.0601  0.0357 -0.2822
 6215SOL     OW24625   0.951   5.023   5.779  0.5412  0.5410  0.7389
 6215SOL    HW224626   1.022   5.053   5.836  2.0512 -1.9004  0.3088
 6215SOL    HW324627   0.930   4.936   5.812 -0.5785  0.2584 -0.6608
 6215SOL    MW424628   0.958   5.016   5.791  0.6396  0.0298 -0.3749
 6216SOL     OW24629   4.846   5.397   3.329 -0.0438  0.7978 -0.2214
 6216SOL    HW224630   4.940   5.403   3.344 -0.3342  1.5642  1.5445
 6216SOL    HW324631   4.835   5.317   3.277  1.3773 -0.6655  1.6054
 6216SOL    MW424632   4.857   5.387   3.324  0.2419  0.4923 -0.2203
 6217SOL     OW24633   2.310   0.851   4.696 -0.0638  0.2938  0.6132
 6217SOL    HW224634   2.383   0.882   4.642 -2.2316  0.6188 -2.3222
 6217SOL    HW324635   2.258   0.796   4.638 -2.1022 -0.0605  2.6417
 6217SOL    MW424636   2.313   0.848   4.681  0.4508 -0.3750  0.6870
 6218SOL     OW24637   2.180   3.216   4.443 -0.2298 -0.4395  0.2731
 6218SOL    HW224638   2.249   3.280   4.457  0.3411 -0.6929 -1.1655
 6218SOL    HW324639   2.163   3.220   4.349 -1.4470 -1.1353  0.4406
 6218SOL    MW424640   2.187   3.225   4.432 -0.1854  0.7044 -0.0062
 6219SOL     OW24641   4.567   3.951   5.300 -0.4650 -0.5799 -0.1597
 6219SOL    HW224642   4.558   3.867   5.254  0.7932 -1.6748  1.4793
 6219SOL    HW324643   4.651   3.986   5.269 -0.0801 -0.8593  0.5388
 6219SOL    MW424644   4.577   3.945   5.290  0.3730  0.1398  0.4893
 6220SOL     OW24645   4.627   4.823   3.514  0.1117  0.4357 -0.2312
 6220SOL    HW224646   4.718   4.813   3.542  0.1108 -1.7621 -0.8520
 6220SOL    HW324647   4.616   4.918   3.502  1.8963  0.8639  1.1313
 6220SOL    MW424648   4.638   4.834   3.516  0.1388 -0.6133  0.1867
 6221SOL     OW24649   6.185   5.747   5.967 -0.3985  0.2431 -0.2329
 6221SOL    HW224650   6.261   5.731   6.022 -0.4008  1.0698  0.0224
 6221SOL    HW324651   6.196   5.688   5.892 -0.4379 -0.9551  0.6812
 6221SOL    MW424652   6.196   5.737   5.964 -0.2211  0.1389  0.1528
 6222SOL     OW24653   5.009   0.026   4.294  0.1394 -0.0430 -0.0040
 6222SOL    HW224654   4.920   0.044   4.264 -0.4581 -0.5184  1.4100
 6222SOL    HW324655   5.030  -0.060   4.258 -0.0499 -0.0254 -0.1602
 6222SOL    MW424656   5.000   0.017   4.285  0.5168  0.3942 -0.6162
 6223SOL     OW24657   6.004   1.346   2.556  0.1807  0.5431  0.1545
 6223SOL    HW224658   6.040   1.262   2.584  1.8282  0.8831 -0.7930
 6223SOL    HW324659   5.950   1.324   2.480 -0.3081  0.2226  0.5863
 6223SOL    MW424660   6.001   1.332   2.550  0.8709  0.4479  0.1615
 6224SOL     OW24661   0.435   1.347   6.045 -0.4597 -0.2974 -0.4156
 6224SOL    HW224662   0.383   1.268   6.054  0.0579 -0.7367 -1.1646
 6224SOL    HW324663   0.391   1.396   5.975 -0.0378 -0.5426 -0.8600
 6224SOL    MW424664   0.422   1.343   6.037  0.0608  0.5782  0.4795
 6225SOL     OW24665   4.189   0.051   4.802  0.0581 -0.0150  0.2074
 6225SOL    HW224666   4.112   0.006   4.837 -0.1851  1.0154  1.0350
 6225SOL    HW324667   4.256   0.042   4.870  0.3538 -0.0381 -0.0826
 6225SOL    MW424668   4.188   0.044   4.815 -0.3272  0.1329 -0.1493
 6226SOL     OW24669   6.154   1.674   4.917 -0.5516  0.1220  0.0365
 6226SOL    HW224670   6.238   1.719   4.924  0.6168 -1.7443 -1.0046
 6226SOL    HW324671   6.171   1.587   4.953 -1.1151 -1.3188 -2.8923
 6226SOL    MW424672   6.168   1.668   4.922 -0.2572 -0.6705 -0.6178
 6227SOL     OW24673   4.177   3.658   5.753 -0.6228 -0.2571 -0.3894
 6227SOL    HW224674   4.145   3.748   5.744 -2.7950 -1.0501 -1.1110
 6227SOL    HW324675   4.204   3.652   5.845 -3.0148  0.4093  0.4497
 6227SOL    MW424676   4.176   3.669   5.764 -0.0137 -0.0218 -0.2406
 6228SOL     OW24677   0.230   4.785   5.891  0.3315 -0.5566  0.1776
 6228SOL    HW224678   0.243   4.841   5.968 -3.3427  0.0578  0.5426
 6228SOL    HW324679   0.280   4.828   5.822 -1.1985  2.5385  0.7898
 6228SOL    MW424680   0.238   4.798   5.892  0.3960 -0.0922  0.0901
 6229SOL     OW24681   2.617   2.023   5.789 -0.4523 -0.3976  0.2959
 6229SOL    HW224682   2.693   1.983   5.832 -1.1443 -0.5881  1.3866
 6229SOL    HW324683   2.650   2.106   5.755  0.3833 -0.7389  0.2371
 6229SOL    MW424684   2.632   2.028   5.790  0.1743 -0.6417  0.0198
 6230SOL     OW24685   2.113   2.723   1.439  0.7295 -0.0718  0.6722
 6230SOL    HW224686   2.170   2.758   1.508  2.8402  0.5394 -1.2596
 6230SOL    HW324687   2.129   2.628   1.441 -0.9714 -0.3842  2.4375
 6230SOL    MW424688   2.123   2.715   1.448 -0.0667  0.3946 -0.4499
 6231SOL     OW24689   2.425   6.031   1.409  0.3223  0.0401  0.4790
 6231SOL    HW224690   2.377   5.996   1.484 -1.1102 -1.1579 -0.9084
 6231SOL    HW324691   2.413   6.126   1.415  0.3464 -0.0225  1.8068
 6231SOL    MW424692   2.417   6.039   1.420  0.0373  0.1313 -0.1472
 6232SOL     OW24693   2.157   1.149   0.697  0.5358  0.1695 -0.3630
 6232SOL    HW224694   2.154   1.133   0.791  0.8226  0.2183 -0.3451
 6232SOL    HW324695   2.124   1.238   0.686 -1.4241 -0.5211 -0.4949
 6232SOL    MW424696   2.153   1.158   0.708 -1.0580 -0.1912  0.4499
 6233SOL     OW24697   4.523   6.219   1.033 -0.3422 -0.1809  0.1184
 6233SOL    HW224698   4.550   6.309   1.054  1.8184  0.2780 -3.7625
 6233SOL    HW324699   4.600   6.166   1.056  0.1172 -0.3335 -1.6633
 6233SOL    MW424700   4.537   6.224   1.039  0.3304  0.1375  0.6350
 6234SOL     OW24701   4.813   2.419   0.017 -0.3834  0.1613 -0.1436
 6234SOL    HW224702   4.857   2.418  -0.068 -0.4681 -0.2237 -0.1840
 6234SOL    HW324703   4.813   2.327   0.045 -0.2745  0.2981  0.3149
 6234SOL    MW424704   4.819   2.407   0.010 -0.4334 -0.3429  0.3549
 6235SOL     OW24705   6.310   2.313   1.596  0.2244 -0.4837  0.3347
 6235SOL    HW224706   6.277   2.363   1.670  1.4291  0.4692  0.2545
 6235SOL    HW324707   6.232   2.270   1.560 -1.0713  2.1040 -0.2006
 6235SOL    MW424708   6.295   2.314   1.601  0.0538  0.4168  0.4069
 6236SOL     OW24709   1.219   5.624   4.918 -0.3384  0.5659  0.2264
 6236SOL    HW224710   1.209   5.583   4.833  0.6611  3.1268 -1.2606
 6236SOL    HW324711   1.132   5.661   4.938 -0.7588 -0.6422  0.7038
 6236SOL    MW424712   1.206   5.624   4.910  0.5738 -0.0341 -0.0777
 6237SOL     OW24713   1.416   0.473   5.728  0.3918 -0.4542 -0.5058
 6237SOL    HW224714   1.323   0.494   5.717  0.8716  1.7375 -0.8056
 6237SOL    HW324715   1.448   0.540   5.789  1.3406 -2.4965  1.3823
 6237SOL    MW424716   1.408   0.484   5.735  0.3598 -0.4590 -0.3053
 6238SOL     OW24717   2.012   6.113   0.505  0.1016 -0.1928  0.1570
 6238SOL    HW224718   2.104   6.134   0.523  0.3765 -1.2149  0.0326
 6238SOL    HW324719   1.966   6.197   0.513  0.9444  0.2254  0.8396
 6238SOL    MW424720   2.018   6.127   0.508  0.4259  0.2577  0.1078
 6239SOL     OW24721   2.488   4.811   1.292  0.0135  0.4236  0.1562
 6239SOL    HW224722   2.577   4.782   1.310 -0.4780 -0.1547  1.9027
 6239SOL    HW324723   2.459   4.757   1.218  0.4976 -0.6888  0.7584
 6239SOL    MW424724   2.496   4.800   1.285  0.5583  0.5020  0.1209
 6240SOL     OW24725   5.507   2.736   4.416 -0.3958 -0.4519 -0.5125
 6240SOL    HW224726   5.588   2.786   4.406 -1.8127  1.8006 -1.4170
 6240SOL    HW324727   5.504   2.679   4.340  0.1837 -0.3219 -0.6357
 6240SOL    MW424728   5.517   2.735   4.405  0.4754  0.1084  0.0535
 6241SOL     OW24729   6.324   1.128   5.473 -0.1695  0.0861 -0.1030
 6241SOL    HW224730   6.264   1.157   5.542 -1.2392  0.2178 -1.0595
 6241SOL    HW324731   6.274   1.063   5.424 -0.7870  2.4615 -2.8908
 6241SOL    MW424732   6.309   1.123   5.476  0.3542  0.0882 -0.5358
 6242SOL     OW24733   1.021   3.038   0.046  0.1657 -0.1062 -0.3352
 6242SOL    HW224734   1.000   3.130   0.066  2.1477 -0.0406  2.0022
 6242SOL    HW324735   1.044   3.038  -0.047 -0.4850  1.6271 -0.5353
 6242SOL    MW424736   1.021   3.050   0.037 -0.3567  1.0802 -0.1425
 6243SOL     OW24737   2.145   0.663   0.560  0.0719 -0.0207  0.3730
 6243SOL    HW224738   2.113   0.734   0.616  0.6297  0.6459 -0.1319
 6243SOL    HW324739   2.239   0.662   0.573  0.0809 -0.5983  0.2848
 6243SOL    MW424740   2.153   0.672   0.569 -1.0100  0.2973 -0.3006
 6244SOL     OW24741   4.968   1.015   5.384  0.1350 -0.0867 -0.5024
 6244SOL    HW224742   4.981   1.047   5.294 -2.1820  0.0001 -0.8743
 6244SOL    HW324743   4.928   0.929   5.374 -3.2890  1.2635  0.2958
 6244SOL    MW424744   4.964   1.008   5.371 -0.0325 -0.0671  0.1603
 6245SOL     OW24745   1.491   1.571   3.606 -0.5561 -0.0239 -0.2532
 6245SOL    HW224746   1.496   1.635   3.535 -0.6182  0.1737 -0.0800
 6245SOL    HW324747   1.570   1.518   3.597 -0.9174 -0.4653 -0.9126
 6245SOL    MW424748   1.502   1.573   3.596 -0.4885 -0.0255 -0.3409
 6246SOL     OW24749   1.325   5.428   5.677  0.0086  0.5041  0.1455
 6246SOL    HW224750   1.415   5.398   5.665  0.1751  0.7914  0.6308
 6246SOL    HW324751   1.304   5.475   5.597 -0.4079 -1.2341 -0.8221
 6246SOL    MW424752   1.334   5.430   5.665  0.9527 -0.1408  0.3320
 6247SOL     OW24753   3.727   0.030   3.670  0.2912  0.3473 -0.4777
 6247SOL    HW224754   3.779  -0.042   3.706  1.5124  1.8073  0.8515
 6247SOL    HW324755   3.638  -0.004   3.665  0.8245 -1.2176  0.1603
 6247SOL    MW424756   3.722   0.016   3.674 -0.2719  0.2859  0.2407
 6248SOL     OW24757   4.136   2.128   2.613 -0.3889 -0.3849  0.0850
 6248SOL    HW224758   4.100   2.071   2.681 -1.4226 -0.7650 -0.7563
 6248SOL    HW324759   4.078   2.115   2.538  0.9865 -0.3300 -1.0327
 6248SOL    MW424760   4.124   2.118   2.612 -0.1745 -0.4415 -0.0531
 6249SOL     OW24761   4.957   5.683   4.016 -1.0668 -0.3749 -0.1001
 6249SOL    HW224762   4.997   5.600   4.041 -0.9826 -0.5558 -0.8093
 6249SOL    HW324763   5.028   5.732   3.974 -0.9922  0.2523  0.7361
 6249SOL    MW424764   4.971   5.679   4.014  0.1764  0.0205  0.0767
 6250SOL     OW24765   5.308   4.467   5.739  0.3388 -0.5161  0.2523
 6250SOL    HW224766   5.285   4.479   5.832  1.4598  0.2390  0.4546
 6250SOL    HW324767   5.380   4.529   5.724 -0.5310  0.1611 -1.4028
 6250SOL    MW424768   5.314   4.477   5.750  0.3704  0.4262 -0.0006
 6251SOL     OW24769   1.201   0.295   4.058 -0.1950  0.1926  0.9586
 6251SOL    HW224770   1.250   0.233   4.112  0.5770 -1.4609 -1.4692
 6251SOL    HW324771   1.269   0.338   4.005 -1.1337 -0.8083 -1.1649
 6251SOL    MW424772   1.217   0.292   4.058  0.3902  0.6470 -0.2408
 6252SOL     OW24773   1.957   2.412   5.337 -0.4635  0.1176 -0.1035
 6252SOL    HW224774   2.021   2.422   5.267  1.1240 -1.8967  0.9359
 6252SOL    HW324775   1.925   2.322   5.327 -1.5398  0.3907  0.7069
 6252SOL    MW424776   1.961   2.401   5.326 -0.5809 -0.6967 -0.5727
 6253SOL     OW24777   2.637   2.263   2.916  0.5552 -0.3183  0.3583
 6253SOL    HW224778   2.699   2.211   2.967  0.7861 -0.4368 -0.0437
 6253SOL    HW324779   2.555   2.213   2.921  0.6556 -0.4858  0.3636
 6253SOL    MW424780   2.634   2.249   2.924 -0.0395  0.3859 -0.4438
 6254SOL     OW24781   5.588   0.268   6.195  0.5730 -0.1882  0.5200
 6254SOL    HW224782   5.672   0.221   6.196  0.3807 -0.5687 -0.1858
 6254SOL    HW324783   5.522   0.199   6.186  0.2936  0.2056 -0.7294
 6254SOL    MW424784   5.591   0.253   6.194 -0.7460  0.7416 -0.2358
 6255SOL     OW24785   1.251   4.204   5.046 -0.5082  0.2347  0.3435
 6255SOL    HW224786   1.158   4.226   5.055 -1.0922 -0.8187 -2.1257
 6255SOL    HW324787   1.283   4.263   4.978  0.6704  0.5934  1.1799
 6255SOL    MW424788   1.243   4.215   5.038  0.3671  0.1297  0.1238
 6256SOL     OW24789   1.376   1.744   4.123 -0.6050 -0.0330 -0.2733
 6256SOL    HW224790   1.376   1.679   4.193 -1.2583  1.3448  1.0535
 6256SOL    HW324791   1.467   1.771   4.114 -0.3705 -0.9075 -0.6552
 6256SOL    MW424792   1.388   1.739   4.131  0.4754 -0.1701  0.2021
 6257SOL     OW24793   0.387   4.429   3.388 -0.4000  0.0802 -1.0981
 6257SOL    HW224794   0.384   4.337   3.415  2.8227  0.0922 -0.2503
 6257SOL    HW324795   0.389   4.477   3.471  0.5097  0.7119 -1.4710
 6257SOL    MW424796   0.387   4.423   3.403  0.0896  0.3426 -0.1993
 6258SOL     OW24797   2.535   0.966   1.032 -0.4373  0.4750  0.0671
 6258SOL    HW224798   2.618   1.014   1.024 -0.2446  0.4020  1.4647
 6258SOL    HW324799   2.468   1.031   1.012 -0.0886  0.7691 -0.1740
 6258SOL    MW424800   2.537   0.981   1.028 -0.3352  0.1508  0.0128
 6259SOL     OW24801   1.063   1.506   6.193  0.3605 -0.0090  1.1893
 6259SOL    HW224802   0.968   1.504   6.209 -0.1615 -0.2279 -1.4404
 6259SOL    HW324803   1.102   1.482   6.277 -1.9858 -1.9218  1.8548
 6259SOL    MW424804   1.055   1.502   6.206  0.6903 -0.2915  0.1862
 6260SOL     OW24805   5.931   2.976   3.118 -0.2045 -0.2409 -0.0163
 6260SOL    HW224806   6.015   3.015   3.094  0.2369 -1.5836 -0.7553
 6260SOL    HW324807   5.949   2.931   3.200 -0.2051 -0.5375 -0.1808
 6260SOL    MW424808   5.945   2.976   3.125 -0.8122 -0.2046 -0.6850
 6261SOL     OW24809   4.591   1.923   5.879 -0.9170 -0.6020 -0.5204
 6261SOL    HW224810   4.613   2.006   5.922  0.6599 -0.5491 -1.3619
 6261SOL    HW324811   4.615   1.856   5.942  1.2007 -0.5158 -1.1466
 6261SOL    MW424812   4.597   1.925   5.893  0.0666  0.4071  0.4608
 6262SOL     OW24813   6.215   4.506   0.222 -0.1606 -0.0570 -0.2541
 6262SOL    HW224814   6.305   4.512   0.255 -0.8094  1.0827  1.4693
 6262SOL    HW324815   6.179   4.429   0.266 -0.2144 -0.1574 -0.4745
 6262SOL    MW424816   6.222   4.497   0.232 -0.3322 -0.6163 -0.4402
 6263SOL     OW24817   0.312   2.839   0.748 -0.3878  0.1579  0.1921
 6263SOL    HW224818   0.246   2.909   0.750 -1.0249 -0.4542  1.0607
 6263SOL    HW324819   0.346   2.835   0.838 -0.4605 -0.7449  0.1888
 6263SOL    MW424820   0.308   2.848   0.760 -0.4390  1.7130 -0.9679
 6264SOL     OW24821   5.423   5.618   3.700  0.2341 -0.2423  0.1266
 6264SOL    HW224822   5.409   5.694   3.756 -1.5997  0.2286 -0.8694
 6264SOL    HW324823   5.473   5.652   3.626 -2.8511  0.7828 -1.6789
 6264SOL    MW424824   5.427   5.633   3.697 -0.1218  0.3047 -0.3246
 6265SOL     OW24825   1.604   2.755   3.926 -0.1350  0.2464  0.1547
 6265SOL    HW224826   1.700   2.755   3.928 -0.1355  0.1326  0.1667
 6265SOL    HW324827   1.578   2.697   3.997 -0.1877 -1.0778 -0.9098
 6265SOL    MW424828   1.614   2.748   3.935 -0.3551  0.4416  0.7227
 6266SOL     OW24829   2.267   3.468   1.514 -0.1973  0.4132 -0.3359
 6266SOL    HW224830   2.289   3.428   1.431 -0.3234  0.1613 -0.2500
 6266SOL    HW324831   2.347   3.512   1.543  0.0237 -0.0112 -0.2965
 6266SOL    MW424832   2.280   3.469   1.507 -0.0933 -0.0504 -0.4629
 6267SOL     OW24833   6.398   5.857   3.057  0.8253  0.5036 -0.5166
 6267SOL    HW224834   6.386   5.903   2.974 -1.3642  1.4206  0.2233
 6267SOL    HW324835   6.404   5.765   3.032  1.3722  0.8547 -1.7639
 6267SOL    MW424836   6.397   5.851   3.042  0.0206 -0.9748 -0.1556
 6268SOL     OW24837   3.473   3.188   2.343 -0.3134 -0.6560  0.2534
 6268SOL    HW224838   3.547   3.151   2.296 -1.6507 -2.7624 -0.3537
 6268SOL    HW324839   3.406   3.201   2.275 -1.2738 -0.9472  1.1263
 6268SOL    MW424840   3.474   3.185   2.328  0.2306  0.8151  0.3438
 6269SOL     OW24841   3.477   3.821   5.347  0.0054  0.0050 -0.0637
 6269SOL    HW224842   3.500   3.889   5.410 -1.3980 -0.0127  0.5071
 6269SOL    HW324843   3.382   3.810   5.357  0.3427 -2.9490  0.7768
 6269SOL    MW424844   3.467   3.829   5.357  0.0569  0.0233 -0.2408
 6270SOL     OW24845   3.481   4.517   4.129  0.5130  0.1406  0.6016
 6270SOL    HW224846   3.409   4.537   4.069 -0.5770 -0.6722  1.5852
 6270SOL    HW324847   3.560   4.527   4.076 -0.4721 -2.2816 -1.5247
 6270SOL    MW424848   3.482   4.521   4.114  0.5710  0.0123  0.3015
 6271SOL     OW24849   4.061   3.417   2.186  0.0249  0.5660 -0.2543
 6271SOL    HW224850   4.038   3.485   2.249  1.1481  1.5308 -0.8439
 6271SOL    HW324851   4.101   3.464   2.113  0.8812 -0.7262 -0.6560
 6271SOL    MW424852   4.063   3.432   2.185 -0.2898  0.4835  0.3766
 6272SOL     OW24853   2.909   0.153   1.047  0.3513  0.2229  0.0025
 6272SOL    HW224854   2.958   0.182   0.970 -1.0124  0.6198 -0.7556
 6272SOL    HW324855   2.897   0.233   1.099  0.7488  0.0733  0.3225
 6272SOL    MW424856   2.914   0.168   1.043  0.4221 -0.0718  0.9240
 6273SOL     OW24857   0.563   2.017   4.121 -0.0276 -0.0959  0.5085
 6273SOL    HW224858   0.560   2.027   4.025 -0.3454 -0.7400  0.4490
 6273SOL    HW324859   0.595   2.102   4.152  0.3959  0.0091 -0.1888
 6273SOL    MW424860   0.567   2.030   4.112  0.1943  0.3623  0.1557
 6274SOL     OW24861   4.829   4.386   4.777  0.4101  0.2929 -0.4336
 6274SOL    HW224862   4.775   4.427   4.709 -1.2179  0.6142  1.0047
 6274SOL    HW324863   4.767   4.344   4.836  1.8849 -1.8675 -0.2838
 6274SOL    MW424864   4.814   4.386   4.776  0.6074 -0.9695 -0.3716
 6275SOL     OW24865   1.345   0.937   6.330  0.5749 -0.0756  0.5317
 6275SOL    HW224866   1.272   0.997   6.345 -0.7906 -1.5354 -0.0276
 6275SOL    HW324867   1.394   0.976   6.258  0.0363  0.6474  0.5495
 6275SOL    MW424868   1.342   0.950   6.322 -0.1842 -0.3098 -0.7298
 6276SOL     OW24869   3.418   4.244   1.970 -0.2852 -0.1165  0.1198
 6276SOL    HW224870   3.375   4.174   1.920 -0.7782  0.4397 -0.2525
 6276SOL    HW324871   3.354   4.268   2.037  0.4524 -0.9939  1.1723
 6276SOL    MW424872   3.404   4.238   1.972  0.1242 -0.3803  0.1180
 6277SOL     OW24873   4.945   4.920   5.460 -0.5277 -0.6743 -0.3115
 6277SOL    HW224874   5.033   4.939   5.429 -0.3582  0.4325  0.7589
 6277SOL    HW324875   4.888   4.974   5.405 -0.3061  0.5853  0.6657
 6277SOL    MW424876   4.949   4.929   5.449  0.5751  0.1764 -0.0828
 6278SOL     OW24877   0.876   1.556   1.842  0.3010 -0.5533 -0.1785
 6278SOL    HW224878   0.889   1.540   1.749  0.3293 -0.8624 -0.1235
 6278SOL    HW324879   0.933   1.630   1.862  0.3944 -0.5707 -0.3801
 6278SOL    MW424880   0.886   1.563   1.832  0.2279  0.2098  0.0244
 6279SOL     OW24881   0.436   3.677   2.074 -0.5153  0.5295 -0.4274
 6279SOL    HW224882   0.389   3.625   2.009 -0.2962 -0.6584  0.3225
 6279SOL    HW324883   0.435   3.766   2.040  0.5668 -0.2214 -2.6348
 6279SOL    MW424884   0.430   3.682   2.061  0.7052  0.1525 -0.3280
 6280SOL     OW24885   6.331   3.159   2.337 -0.2888  0.0029  0.3579
 6280SOL    HW224886   6.398   3.116   2.391  1.1185  1.4512 -0.1229
 6280SOL    HW324887   6.305   3.235   2.389  0.1636  0.7167 -0.4263
 6280SOL    MW424888   6.337   3.164   2.351  0.1474 -0.2536 -0.8708
 6281SOL     OW24889   2.641   3.145   4.465 -0.2492  0.2828  0.1851
 6281SOL    HW224890   2.569   3.141   4.402 -1.4591 -2.4252  1.5525
 6281SOL    HW324891   2.718   3.164   4.412 -1.4366 -0.3223 -1.9052
 6281SOL    MW424892   2.641   3.147   4.450 -0.1604 -0.5218  0.2792
 6282SOL     OW24893   5.220   4.566   3.455  0.1806 -0.8176  0.3530
 6282SOL    HW224894   5.293   4.527   3.504 -0.0680 -1.8900 -0.0894
 6282SOL    HW324895   5.211   4.511   3.377 -0.1639  0.1860 -0.3290
 6282SOL    MW424896   5.228   4.553   3.451 -0.5717 -0.2868 -0.7629
 6283SOL     OW24897   2.364   3.790   5.173 -0.5205  0.5368 -0.0600
 6283SOL    HW224898   2.457   3.774   5.189 -0.1009  2.2701 -0.5284
 6283SOL    HW324899   2.338   3.851   5.241 -1.5600 -0.5466  0.5610
 6283SOL    MW424900   2.373   3.796   5.184 -0.4927  0.1422  0.2658
 6284SOL     OW24901   1.617   1.855   4.989  0.1664 -0.4820  0.7543
 6284SOL    HW224902   1.549   1.916   4.961  1.3316  0.4114 -0.2641
 6284SOL    HW324903   1.649   1.815   4.908 -0.0247 -1.8746  1.3379
 6284SOL    MW424904   1.612   1.858   4.975 -0.1292 -0.0170 -0.1151
 6285SOL     OW24905   4.264   0.806   3.472 -0.5724 -0.3731  0.2746
 6285SOL    HW224906   4.211   0.877   3.508 -1.6667 -1.4526  0.8861
 6285SOL    HW324907   4.315   0.774   3.546 -1.8029 -1.6937  0.6087
 6285SOL    MW424908   4.263   0.811   3.486 -0.8148 -0.2212  0.2046
 6286SOL     OW24909   3.616   3.926   5.111 -0.7478 -0.1370 -0.6159
 6286SOL    HW224910   3.563   3.888   5.181  0.6761  0.9219  1.0873
 6286SOL    HW324911   3.569   4.005   5.086 -0.1739  0.6339  0.6761
 6286SOL    MW424912   3.603   3.931   5.117  0.0868 -0.1315  0.0374
 6287SOL     OW24913   2.320   4.575   4.447  0.6777 -0.6531 -0.3366
 6287SOL    HW224914   2.328   4.510   4.517  1.4400  0.5079  0.6868
 6287SOL    HW324915   2.407   4.581   4.409  0.6959  0.0049 -0.2057
 6287SOL    MW424916   2.332   4.567   4.451 -0.1183  0.1318 -0.0982
 6288SOL     OW24917   0.323   3.185   2.373 -0.5408  0.3637 -0.3700
 6288SOL    HW224918   0.282   3.103   2.401 -0.4943  0.5278  0.1793
 6288SOL    HW324919   0.266   3.216   2.302 -0.7110  0.0001 -0.3992
 6288SOL    MW424920   0.310   3.178   2.367  0.2233 -0.2028 -0.8337
 6289SOL     OW24921   0.444   4.269   0.636 -0.0359 -0.4107 -0.0654
 6289SOL    HW224922   0.436   4.177   0.611 -1.3251 -0.0830 -0.9862
 6289SOL    HW324923   0.474   4.313   0.556 -0.0267  0.0414  0.1852
 6289SOL    MW424924   0.447   4.263   0.622 -0.2624  0.8350 -0.5982
 6290SOL     OW24925   3.681   5.074   2.806 -0.0746  0.2017  0.0314
 6290SOL    HW224926   3.773   5.097   2.793 -0.0590  0.7216  0.9419
 6290SOL    HW324927   3.660   5.109   2.893 -0.8381 -0.8517  0.2911
 6290SOL    MW424928   3.690   5.082   2.816  0.1720 -0.1752 -0.6785
 6291SOL     OW24929   3.286   3.521   5.257  0.2255  0.4331 -0.2423
 6291SOL    HW224930   3.377   3.528   5.286  0.9407 -1.8757 -1.6080
 6291SOL    HW324931   3.292   3.515   5.161 -1.3640  0.1616 -0.3530
 6291SOL    MW424932   3.299   3.521   5.248  0.6463 -0.1945 -0.8429
 6292SOL     OW24933   2.806   1.285   2.569 -0.0824 -0.8933  0.5063
 6292SOL    HW224934   2.866   1.331   2.628  1.6481 -0.5313 -1.4219
 6292SOL    HW324935   2.803   1.196   2.604 -1.1201 -0.1301  2.5574
 6292SOL    MW424936   2.814   1.279   2.582 -0.3022  0.4125 -0.0130
 6293SOL     OW24937   4.949   0.523   3.041 -0.5916 -0.1971  0.3935
 6293SOL    HW224938   4.902   0.464   2.981 -2.1598  0.7202  0.6674
 6293SOL    HW324939   5.028   0.474   3.065 -0.4556 -1.0324 -1.5571
 6293SOL    MW424940   4.953   0.508   3.036  0.2554 -0.4510 -0.0999
 6294SOL     OW24941   1.108   3.872   2.581 -0.1060 -0.3449 -0.0305
 6294SOL    HW224942   1.067   3.806   2.525 -0.4441 -0.1201 -0.0543
 6294SOL    HW324943   1.084   3.846   2.670  2.1977 -1.9221  0.2036
 6294SOL    MW424944   1.099   3.860   2.586 -0.1392 -0.7033  0.2032
 6295SOL     OW24945   0.926   0.110   2.334  0.2224  0.2774  0.2219
 6295SOL    HW224946   0.865   0.151   2.395 -0.7386  0.3519 -0.7558
 6295SOL    HW324947   0.871   0.075   2.264  1.1930 -0.9208  0.0177
 6295SOL    MW424948   0.911   0.111   2.333 -0.1039  0.5572 -0.1055
 6296SOL     OW24949   2.309   0.476   4.414  0.0924  0.1982  0.0441
 6296SOL    HW224950   2.274   0.409   4.473 -1.1659  3.2467  3.1157
 6296SOL    HW324951   2.240   0.491   4.350 -0.5571  0.1360  0.7267
 6296SOL    MW424952   2.296   0.469   4.413 -0.1881 -0.0392  0.9650
 6297SOL     OW24953   5.536   4.435   5.438 -0.2229 -0.2224  0.3235
 6297SOL    HW224954   5.492   4.515   5.467 -0.2952  0.3400 -1.2556
 6297SOL    HW324955   5.608   4.425   5.499 -0.3645  0.9083  0.7125
 6297SOL    MW424956   5.539   4.444   5.450  0.0317 -0.8693 -0.4033
 6298SOL     OW24957   0.159   1.294   0.080  0.1139 -0.1953 -0.3841
 6298SOL    HW224958   0.217   1.219   0.096  0.4631  0.1395 -0.0763
 6298SOL    HW324959   0.205   1.369   0.117 -1.0947 -0.1135  1.0223
 6298SOL    MW424960   0.173   1.294   0.087 -1.0880  0.3891 -0.3842
 6299SOL     OW24961   3.879   6.168   3.034 -0.2668  0.0344 -0.1879
 6299SOL    HW224962   3.915   6.244   3.080 -2.5147  1.4724 -0.6309
 6299SOL    HW324963   3.784   6.176   3.046 -0.6812 -1.6894 -1.8479
 6299SOL    MW424964   3.871   6.179   3.042 -0.3212  0.0141  0.3666
 6300SOL     OW24965   2.226   5.780   4.182 -0.1933  0.0712 -0.6689
 6300SOL    HW224966   2.319   5.773   4.204 -0.3951 -0.8718 -0.0595
 6300SOL    HW324967   2.205   5.697   4.138 -1.2488 -0.7260  1.2108
 6300SOL    MW424968   2.235   5.768   4.179  0.2033  0.6799 -0.6618
 6301SOL     OW24969   6.212   3.097   0.995  0.0382 -0.7419 -0.3477
 6301SOL    HW224970   6.244   3.043   0.922  1.6537  1.7309 -1.5807
 6301SOL    HW324971   6.212   3.186   0.961  1.8550  0.6786  2.9575
 6301SOL    MW424972   6.216   3.101   0.981 -0.1098  0.0695  0.7904
 6302SOL     OW24973   1.548   2.609   5.472 -0.0050  0.4532 -0.4984
 6302SOL    HW224974   1.455   2.628   5.463  0.0868  0.2361 -2.6276
 6302SOL    HW324975   1.557   2.520   5.438  0.7942 -0.0727  1.0250
 6302SOL    MW424976   1.537   2.600   5.466  0.5279  0.2574  0.4924
 6303SOL     OW24977   4.243   0.358   0.284  0.3391  0.7022  0.1799
 6303SOL    HW224978   4.204   0.394   0.205 -0.8134  0.0324  0.4257
 6303SOL    HW324979   4.324   0.408   0.296  0.5171  0.8371 -1.3937
 6303SOL    MW424980   4.249   0.369   0.276  0.0275  0.3020 -0.2422
 6304SOL     OW24981   2.780   5.224   3.472  0.5100 -0.2916  0.3221
 6304SOL    HW224982   2.807   5.239   3.381 -1.6104 -1.0006 -0.4943
 6304SOL    HW324983   2.801   5.306   3.517 -1.9327  1.6346 -1.7431
 6304SOL    MW424984   2.787   5.237   3.466  0.9434  0.3692 -0.3099
 6305SOL     OW24985   6.285   2.166   0.926  0.1782  0.3199  0.5296
 6305SOL    HW224986   6.239   2.113   0.861  0.5144 -0.2447  0.7507
 6305SOL    HW324987   6.300   2.250   0.881  0.2274  0.0076 -0.0487
 6305SOL    MW424988   6.281   2.170   0.912  0.0851 -0.9591 -0.1184
 6306SOL     OW24989   4.206   4.404   3.472  0.1227 -0.4193 -0.2339
 6306SOL    HW224990   4.246   4.469   3.531 -0.1910 -0.5146  0.0847
 6306SOL    HW324991   4.253   4.415   3.390 -0.4833  0.7970 -0.4474
 6306SOL    MW424992   4.218   4.414   3.469  0.1790  0.6336 -0.2825
 6307SOL     OW24993   1.172   0.602   5.699 -0.1857  0.0014 -0.2494
 6307SOL    HW224994   1.100   0.627   5.642 -0.4995  0.8360  0.4938
 6307SOL    HW324995   1.187   0.679   5.754  0.8450 -0.3930  0.0376
 6307SOL    MW424996   1.164   0.615   5.699 -0.6288  0.5542 -0.4124
 6308SOL     OW24997   0.639   2.710   0.183  0.2247 -0.1420  0.0877
 6308SOL    HW224998   0.635   2.724   0.278 -1.4732 -0.9152  0.1807
 6308SOL    HW324999   0.732   2.704   0.163  0.6771  1.3985  1.4840
 6308SOL    MW425000   0.650   2.711   0.193  0.2546  0.2102  0.5215
 6309SOL     OW25001   5.750   3.624   3.345  0.5805  0.2176  0.0253
 6309SOL    HW225002   5.696   3.545   3.344  1.7168 -0.5704 -0.1495
 6309SOL    HW325003   5.770   3.641   3.253 -0.9258  1.6399 -0.1019
 6309SOL    MW425004   5.745   3.616   3.333 -0.0722 -0.0404 -0.1813
 6310SOL     OW25005   5.352   0.300   1.957  0.7813 -0.6782  0.1716
 6310SOL    HW225006   5.340   0.371   1.893 -0.9111 -0.2689  0.8827
 6310SOL    HW325007   5.290   0.233   1.930 -0.5249 -0.1834  1.7605
 6310SOL    MW425008   5.342   0.301   1.945 -0.2612  0.4248  1.0095
 6311SOL     OW25009   5.331   1.855   4.736  0.0636 -0.7153 -0.4692
 6311SOL    HW225010   5.389   1.895   4.671  1.1417 -0.6513  0.5073
 6311SOL    HW325011   5.268   1.804   4.684  1.1916 -1.0522 -1.5407
 6311SOL    MW425012   5.330   1.853   4.721 -0.0359  0.0786 -0.2368
 6312SOL     OW25013   3.309   3.876   5.720 -0.0200 -0.0945  0.1876
 6312SOL    HW225014   3.251   3.803   5.698 -0.5097 -0.3166  2.0201
 6312SOL    HW325015   3.330   3.863   5.812  1.6386  0.9097 -0.0024
 6312SOL    MW425016   3.304   3.865   5.729  0.4105  0.0001 -0.3782
 6313SOL     OW25017   1.683   0.598   2.201  1.0292 -0.5162 -0.2895
 6313SOL    HW225018   1.714   0.617   2.112  1.3469 -1.2888 -0.3565
 6313SOL    HW325019   1.758   0.559   2.245  0.5317 -1.2358 -0.0516
 6313SOL    MW425020   1.697   0.595   2.195 -0.0334  0.0244  0.2606
 6314SOL     OW25021   2.229   6.140   1.945  0.0090  0.1725 -0.1481
 6314SOL    HW225022   2.256   6.108   2.031  0.9981  0.3866 -0.3702
 6314SOL    HW325023   2.168   6.073   1.913  2.1695 -1.6349 -0.6906
 6314SOL    MW425024   2.224   6.127   1.952  0.2788 -0.8734 -0.2546
 6315SOL     OW25025   0.148   3.470   0.003 -0.4204 -0.2731 -0.4072
 6315SOL    HW225026   0.118   3.561   0.002 -0.0362 -0.1431  0.0111
 6315SOL    HW325027   0.129   3.440   0.092 -2.4220 -1.2376 -1.0911
 6315SOL    MW425028   0.141   3.478   0.014  0.0945 -0.5956  0.1930
 6316SOL     OW25029   1.034   4.890   2.669  0.1286 -0.1634 -0.2796
 6316SOL    HW225030   1.002   4.904   2.580  0.4686 -0.7521 -0.4929
 6316SOL    HW325031   1.013   4.799   2.688 -1.2346  0.3249  0.7727
 6316SOL    MW425032   1.027   4.880   2.660  0.1679  0.2462  0.5563
 6317SOL     OW25033   3.255   4.387   5.547  0.9535 -0.2278  0.1866
 6317SOL    HW225034   3.278   4.452   5.481  0.4411 -1.4722 -1.2863
 6317SOL    HW325035   3.335   4.376   5.599  1.9142 -0.3962 -1.2671
 6317SOL    MW425036   3.269   4.394   5.545  0.3202 -0.0320  0.1496
 6318SOL     OW25037   0.830   2.433   1.810 -0.5318  0.2618 -0.3980
 6318SOL    HW225038   0.774   2.496   1.765  0.3332  0.8744 -0.6258
 6318SOL    HW325039   0.870   2.482   1.881 -1.6423 -0.6257  0.8802
 6318SOL    MW425040   0.828   2.448   1.813  0.0300  0.2191 -0.1738
 6319SOL     OW25041   1.322   5.265   4.897  0.1075 -0.1571 -0.1919
 6319SOL    HW225042   1.348   5.173   4.887  1.2164  0.1735 -0.4459
 6319SOL    HW325043   1.404   5.313   4.905 -0.4547  0.8432 -0.2201
 6319SOL    MW425044   1.336   5.259   4.897 -0.0919  0.1933  0.6860
 6320SOL     OW25045   4.121   1.517   0.928 -0.4568 -0.1622  0.3187
 6320SOL    HW225046   4.067   1.439   0.918  0.6617 -1.0011  0.6909
 6320SOL    HW325047   4.211   1.485   0.930  0.0968  1.2166 -0.4382
 6320SOL    MW425048   4.126   1.503   0.927  0.2867  0.0939  0.3892
 6321SOL     OW25049   4.809   5.597   4.644  0.4695  0.1512  0.0814
 6321SOL    HW225050   4.892   5.645   4.648  2.1081 -2.4216 -0.4935
 6321SOL    HW325051   4.789   5.590   4.551 -0.1235  0.2968  0.1918
 6321SOL    MW425052   4.817   5.602   4.632 -0.4125  0.2998  0.0434
 6322SOL     OW25053   4.825   3.456   3.040  0.8081  0.2650 -0.4370
 6322SOL    HW225054   4.730   3.457   3.032  0.6741  1.3498  0.8746
 6322SOL    HW325055   4.852   3.545   3.016  1.2912  0.4951  0.8546
 6322SOL    MW425056   4.816   3.468   3.036 -0.0199  0.8025 -0.2984
 6323SOL     OW25057   4.347   4.613   5.095 -0.1419  0.5630  0.5082
 6323SOL    HW225058   4.429   4.647   5.059  1.4838 -0.5348  2.9286
 6323SOL    HW325059   4.314   4.684   5.150  0.9896 -0.1489  2.1619
 6323SOL    MW425060   4.354   4.627   5.097  0.6458 -0.5748 -0.0420
 6324SOL     OW25061   0.426   5.445   5.872 -0.1611 -0.2517 -0.3054
 6324SOL    HW225062   0.391   5.481   5.953  0.2390 -1.2188  0.3261
 6324SOL    HW325063   0.436   5.520   5.813  2.6996  1.0937  1.6708
 6324SOL    MW425064   0.423   5.459   5.875 -0.0108  0.3133  0.1944
 6325SOL     OW25065   3.203   1.192   1.058 -0.5036 -0.0242 -0.3998
 6325SOL    HW225066   3.153   1.239   1.125  0.0493  0.1913 -0.1403
 6325SOL    HW325067   3.294   1.208   1.079 -0.3121 -0.6931 -0.6864
 6325SOL    MW425068   3.208   1.201   1.070  0.0675 -0.6998 -0.3319
 6326SOL     OW25069   3.015   0.219   3.778 -0.1585  0.3852 -0.0231
 6326SOL    HW225070   3.087   0.274   3.746  0.6927 -0.2465  0.7341
 6326SOL    HW325071   3.033   0.133   3.741  0.2194 -0.0834  1.2141
 6326SOL    MW425072   3.027   0.215   3.769 -0.0050 -0.3585  0.3655
 6327SOL     OW25073   4.318   3.438   3.204  0.2676 -0.0248 -0.0460
 6327SOL    HW225074   4.237   3.407   3.243 -0.1910  0.2202 -0.7789
 6327SOL    HW325075   4.314   3.534   3.213  0.7325 -0.0421  0.4001
 6327SOL    MW425076   4.307   3.447   3.210  0.1551  0.1719  0.6348
 6328SOL     OW25077   6.289   4.657   4.507  0.0036 -0.3361 -0.3601
 6328SOL    HW225078   6.215   4.608   4.472 -1.1378  0.0624  1.3602
 6328SOL    HW325079   6.266   4.749   4.494  0.3302 -0.2148 -0.0928
 6328SOL    MW425080   6.276   4.662   4.501  0.6831 -0.5192  0.5985
 6329SOL     OW25081   5.095   5.111   1.440  0.2279  0.0048 -0.0117
 6329SOL    HW225082   5.149   5.047   1.393 -0.7747 -0.6851 -0.2606
 6329SOL    HW325083   5.033   5.143   1.374  0.5409  1.0600  0.1792
 6329SOL    MW425084   5.094   5.107   1.425 -0.0232  0.6612  0.3577
 6330SOL     OW25085   4.067   1.696   1.138  0.7499 -0.6248 -0.5888
 6330SOL    HW225086   4.095   1.633   1.072  0.2572 -0.6356 -0.7892
 6330SOL    HW325087   4.149   1.728   1.176  0.9726 -2.7387  0.8219
 6330SOL    MW425088   4.082   1.692   1.134 -0.5003  0.4647 -0.3471
 6331SOL     OW25089   2.686   4.421   3.880 -0.1808 -0.1029 -0.3246
 6331SOL    HW225090   2.699   4.423   3.975  0.3304 -0.9274 -0.3700
 6331SOL    HW325091   2.592   4.437   3.869 -0.4864 -1.2766  0.4033
 6331SOL    MW425092   2.675   4.423   3.891  0.5673 -0.3021  0.4390
 6332SOL     OW25093   4.509   0.453   3.430  0.1479 -0.1793  0.0250
 6332SOL    HW225094   4.547   0.369   3.455 -0.6083 -0.1774  1.2237
 6332SOL    HW325095   4.543   0.468   3.341 -0.0933 -1.9781 -0.4257
 6332SOL    MW425096   4.518   0.444   3.421  0.4206  0.1528  0.0463
 6333SOL     OW25097   4.741   1.152   3.341 -0.3258 -0.4176 -0.3481
 6333SOL    HW225098   4.703   1.143   3.253  1.2058 -0.6881 -1.0222
 6333SOL    HW325099   4.824   1.104   3.336  0.8800  1.4479  0.5343
 6333SOL    MW425100   4.747   1.145   3.328  0.2169 -0.1217 -0.0646
 6334SOL     OW25101   3.530   3.024   1.260 -0.0735  0.3345  0.5340
 6334SOL    HW225102   3.566   3.011   1.348 -1.5820 -0.7249  1.0263
 6334SOL    HW325103   3.465   2.954   1.249  0.8553 -0.2774 -1.8639
 6334SOL    MW425104   3.526   3.013   1.270 -0.9150  0.0905  0.3179
 6335SOL     OW25105   0.608   1.378   5.148 -0.2595  0.7431  0.4132
 6335SOL    HW225106   0.658   1.424   5.080 -0.5606  0.2869 -0.1174
 6335SOL    HW325107   0.520   1.367   5.111 -0.3384  0.2067  0.7453
 6335SOL    MW425108   0.603   1.383   5.134 -0.2624 -0.2051  0.1253
 6336SOL     OW25109   4.042   0.398   1.673  0.6148  0.3508 -0.1217
 6336SOL    HW225110   4.107   0.450   1.721 -0.3942  1.5773 -0.0385
 6336SOL    HW325111   3.958   0.427   1.708  0.0266 -1.6929  0.2553
 6336SOL    MW425112   4.039   0.409   1.684 -0.3567 -0.2054 -0.4533
 6337SOL     OW25113   2.760   3.288   4.858 -0.5452  0.0694  0.2127
 6337SOL    HW225114   2.744   3.345   4.933  0.1610 -1.2299  1.3809
 6337SOL    HW325115   2.688   3.309   4.797 -2.1344 -0.0361  1.9540
 6337SOL    MW425116   2.748   3.298   4.860 -0.0963 -0.2812 -0.6539
 6338SOL     OW25117   2.361   0.196   2.511  0.4676  0.1171 -0.0925
 6338SOL    HW225118   2.444   0.235   2.537  0.1638  1.3434 -0.9187
 6338SOL    HW325119   2.334   0.244   2.433 -1.1119 -0.1328  0.2531
 6338SOL    MW425120   2.368   0.207   2.504 -0.4116 -0.1256  0.1712
 6339SOL     OW25121   4.044   0.981   2.161 -0.1189  0.2322 -0.2226
 6339SOL    HW225122   4.014   1.050   2.221 -0.3007 -0.6372  0.7201
 6339SOL    HW325123   4.132   0.960   2.192 -0.9586 -1.6633  1.1336
 6339SOL    MW425124   4.052   0.987   2.173 -0.5633  0.4467  0.1474
 6340SOL     OW25125   4.726   2.244   5.535 -0.3384 -0.5334 -0.0477
 6340SOL    HW225126   4.654   2.182   5.530 -0.7798 -0.2967  2.1354
 6340SOL    HW325127   4.719   2.297   5.456 -1.2339 -1.8954 -0.9102
 6340SOL    MW425128   4.716   2.243   5.524  0.3808 -0.2560 -0.3589
 6341SOL     OW25129   5.804   3.029   5.549 -0.2297 -0.0378 -0.0465
 6341SOL    HW225130   5.847   3.026   5.464  0.8319 -0.5891  0.5007
 6341SOL    HW325131   5.716   2.994   5.532 -0.1675  0.2110 -0.9750
 6341SOL    MW425132   5.798   3.024   5.535  0.3957 -0.1804  0.0718
 6342SOL     OW25133   4.644   5.626   2.473 -0.0790 -0.0873 -0.0354
 6342SOL    HW225134   4.722   5.571   2.462 -0.2172 -0.7118  1.8233
 6342SOL    HW325135   4.571   5.567   2.461 -0.2670  0.2711 -0.6900
 6342SOL    MW425136   4.645   5.611   2.470  0.1026 -0.2314 -0.1977
 6343SOL     OW25137   3.562   5.988   4.713 -0.3530 -0.3790 -0.3828
 6343SOL    HW225138   3.590   6.018   4.627 -1.8423  0.9830 -0.4337
 6343SOL    HW325139   3.466   5.991   4.710 -0.4602  1.0174  1.7239
 6343SOL    MW425140   3.553   5.992   4.701 -0.5187 -0.2727 -0.1610
 6344SOL     OW25141   3.892   0.204   2.077  0.3596 -0.0908  0.2684
 6344SOL    HW225142   3.971   0.242   2.039  0.3067  0.4113  0.6379
 6344SOL    HW325143   3.923   0.163   2.158  0.1301  0.8030  0.8264
 6344SOL    MW425144   3.907   0.203   2.083 -0.2576 -0.2758  0.1268
 6345SOL     OW25145   3.101   3.734   4.524  0.8560  0.0672 -0.3244
 6345SOL    HW225146   3.045   3.670   4.567 -1.1552  1.0838 -1.2798
 6345SOL    HW325147   3.106   3.808   4.585  0.2249  0.4233 -0.6972
 6345SOL    MW425148   3.095   3.736   4.538 -0.3112 -0.2439 -0.1979
 6346SOL     OW25149   0.962   1.972   3.686 -0.0008 -0.6797 -0.1286
 6346SOL    HW225150   0.935   1.970   3.594  0.6294 -0.7503 -0.3153
 6346SOL    HW325151   1.028   1.903   3.694  1.7864  0.9400 -0.2164
 6346SOL    MW425152   0.967   1.963   3.675 -0.7878  0.4590  0.4391
 6347SOL     OW25153   0.791   1.354   3.518  0.2252  0.2075 -0.7634
 6347SOL    HW225154   0.788   1.349   3.614  0.5551 -1.3785 -0.7956
 6347SOL    HW325155   0.730   1.424   3.495 -1.3348 -0.6646  0.5299
 6347SOL    MW425156   0.782   1.362   3.528  0.3446 -0.4133 -0.1231
 6348SOL     OW25157   5.701   5.216   2.058  0.1696 -0.1264 -0.3124
 6348SOL    HW225158   5.726   5.126   2.077 -1.8653 -1.2496 -2.3662
 6348SOL    HW325159   5.775   5.269   2.087  1.0194 -2.3322  1.8580
 6348SOL    MW425160   5.714   5.211   2.064  0.2651 -0.3553  0.2593
 6349SOL     OW25161   3.182   6.247   3.811 -0.3046 -0.2109 -0.0436
 6349SOL    HW225162   3.273   6.250   3.840  0.3138  0.9973 -1.9292
 6349SOL    HW325163   3.171   6.326   3.757 -1.5174 -1.9485 -2.5188
 6349SOL    MW425164   3.192   6.258   3.808 -0.1831  0.5187  0.1671
 6350SOL     OW25165   4.435   0.680   0.004  0.7382 -0.0119 -0.2092
 6350SOL    HW225166   4.356   0.694   0.056  0.1604 -0.9167 -0.8205
 6350SOL    HW325167   4.489   0.622   0.058  0.6564 -0.0094 -0.1237
 6350SOL    MW425168   4.432   0.674   0.018  0.4115  0.3390 -0.0913
 6351SOL     OW25169   5.236   0.396   2.631 -0.1026  0.0564 -0.0488
 6351SOL    HW225170   5.309   0.430   2.579  0.9711 -0.7475  0.8880
 6351SOL    HW325171   5.275   0.328   2.686 -1.3542  0.3162  1.2188
 6351SOL    MW425172   5.251   0.392   2.631  0.6665 -0.1944  0.2062
 6352SOL     OW25173   5.893   0.375   5.705 -0.3143 -1.4700  0.4783
 6352SOL    HW225174   5.903   0.322   5.626 -0.4801 -0.7187 -0.0651
 6352SOL    HW325175   5.804   0.409   5.700  0.5141  0.8200 -0.4907
 6352SOL    MW425176   5.883   0.373   5.694 -0.1611  0.7107  0.0475
 6353SOL     OW25177   1.176   0.735   6.216  0.2966  0.4532 -0.3726
 6353SOL    HW225178   1.096   0.702   6.257 -0.0797 -1.6697 -2.6352
 6353SOL    HW325179   1.212   0.797   6.281 -2.9517  1.2524  0.8570
 6353SOL    MW425180   1.170   0.739   6.230 -0.1541 -0.7684  0.2945
 6354SOL     OW25181   0.950   3.882   3.304  0.1565  0.4135 -0.0170
 6354SOL    HW225182   0.877   3.855   3.359 -0.5936  0.6913 -0.8481
 6354SOL    HW325183   1.027   3.843   3.345 -0.4000  0.4581  1.1110
 6354SOL    MW425184   0.950   3.874   3.317  0.7110 -0.1463 -0.7359
 6355SOL     OW25185   3.546   0.039   2.188 -0.0921 -0.2974  0.4767
 6355SOL    HW225186   3.579   0.111   2.241  2.7743  0.0860 -1.5789
 6355SOL    HW325187   3.617  -0.025   2.188 -0.4557 -0.7897 -1.8512
 6355SOL    MW425188   3.559   0.040   2.195  0.1475 -0.4652  0.5239
 6356SOL     OW25189   0.495   4.525   2.687  0.2763  0.3949 -0.4906
 6356SOL    HW225190   0.547   4.456   2.727 -0.0154 -1.1780 -2.6814
 6356SOL    HW325191   0.426   4.543   2.752  1.8106  0.4820  1.1948
 6356SOL    MW425192   0.493   4.518   2.701 -0.0285  0.0623  0.2251
 6357SOL     OW25193   4.945   0.871   1.290  0.2256  0.5413 -0.1474
 6357SOL    HW225194   4.994   0.923   1.354 -0.3056  1.6728 -0.6221
 6357SOL    HW325195   4.882   0.933   1.252 -1.5631 -0.8305  0.4258
 6357SOL    MW425196   4.943   0.886   1.293  0.1063  0.5410  0.6954
 6358SOL     OW25197   5.941   2.470   5.022 -0.2060  0.0930  0.2236
 6358SOL    HW225198   5.882   2.542   5.003  0.1871 -0.1487 -2.2041
 6358SOL    HW325199   5.893   2.392   4.997  0.1634 -0.3411  0.8227
 6358SOL    MW425200   5.927   2.469   5.016 -0.6732 -0.0413  0.4082
 6359SOL     OW25201   3.359   0.035   0.213  0.1024  0.4606 -0.0963
 6359SOL    HW225202   3.356  -0.059   0.194  0.1653 -0.0852  2.3217
 6359SOL    HW325203   3.450   0.060   0.201  0.4726 -0.2473  1.1052
 6359SOL    MW425204   3.370   0.026   0.209  0.0813  0.2244  0.0314
 6360SOL     OW25205   3.308   3.665   3.952  0.4650  1.0032 -0.2791
 6360SOL    HW225206   3.322   3.653   3.858  0.6068 -1.4327 -0.0240
 6360SOL    HW325207   3.358   3.594   3.992 -1.4588  0.5282  1.4728
 6360SOL    MW425208   3.316   3.654   3.945 -0.1178  0.2026 -0.0323
 6361SOL     OW25209   5.113   3.214   0.274  0.4393  0.0522  0.5472
 6361SOL    HW225210   5.037   3.210   0.332  1.0758  1.5558  1.5532
 6361SOL    HW325211   5.081   3.180   0.190 -1.6476  1.5572  0.6369
 6361SOL    MW425212   5.099   3.209   0.270 -0.2821  0.0439 -0.3833
 6362SOL     OW25213   2.244   4.693   2.021 -0.0326 -0.8487  0.8093
 6362SOL    HW225214   2.320   4.688   1.962  0.2553 -1.2826  1.2136
 6362SOL    HW325215   2.250   4.615   2.075 -0.9588 -1.0631  0.6221
 6362SOL    MW425216   2.255   4.682   2.020 -0.0384 -0.1472  0.2217
 6363SOL     OW25217   4.112   3.037   3.003 -0.1952 -0.0987  0.0970
 6363SOL    HW225218   4.086   3.125   3.032 -0.8970 -0.5762  0.9730
 6363SOL    HW325219   4.107   3.042   2.907  0.1461  0.9172  0.1132
 6363SOL    MW425220   4.108   3.050   2.994  0.4463 -0.4395  0.4511
 6364SOL     OW25221   6.156   4.068   1.533 -0.0905  0.0790  0.5292
 6364SOL    HW225222   6.146   4.159   1.503 -0.1579 -0.1612 -0.2161
 6364SOL    HW325223   6.227   4.034   1.478  0.7134  0.0049  1.5853
 6364SOL    MW425224   6.164   4.076   1.522  0.7541 -0.4256  0.5534
 6365SOL     OW25225   0.360   6.355   6.378 -0.3310 -0.3304 -0.0177
 6365SOL    HW225226   0.413   6.431   6.355  0.4618 -0.0662  2.4133
 6365SOL    HW325227   0.412   6.280   6.351  1.0341 -0.0594  1.7240
 6365SOL    MW425228   0.374   6.355   6.371  0.1705 -0.4286  0.0315
 6366SOL     OW25229   1.349   1.718   2.279  0.1713  0.1474 -0.1605
 6366SOL    HW225230   1.337   1.624   2.276  1.3273 -0.1687  2.2717
 6366SOL    HW325231   1.316   1.744   2.365  4.0015  1.1571  1.2259
 6366SOL    MW425232   1.343   1.709   2.290  0.2343 -0.0171 -0.0576
 6367SOL     OW25233   2.548   1.946   1.374  0.0086 -0.1758  0.3410
 6367SOL    HW225234   2.569   1.853   1.359 -0.5348 -0.0884 -1.1118
 6367SOL    HW325235   2.511   1.948   1.462  1.5705 -1.0697  1.0513
 6367SOL    MW425236   2.546   1.934   1.383  0.0373  0.5704 -0.5852
 6368SOL     OW25237   2.497   1.517   6.106  0.1789 -0.2916 -0.5126
 6368SOL    HW225238   2.458   1.439   6.067 -1.3480 -0.4594  1.1925
 6368SOL    HW325239   2.422   1.569   6.134  1.1854  0.7023  0.4471
 6368SOL    MW425240   2.482   1.514   6.105 -0.0201 -0.4159  0.4736
 6369SOL     OW25241   1.292   5.983   6.075 -0.0983  0.6312  0.4628
 6369SOL    HW225242   1.336   6.006   6.157 -0.7167 -1.1698  1.3333
 6369SOL    HW325243   1.215   5.933   6.101 -0.7770  0.7358 -1.1936
 6369SOL    MW425244   1.288   5.979   6.089  0.1211 -0.0574 -0.4637
 6370SOL     OW25245   4.193   0.085   0.232 -0.1570  0.2649 -0.3118
 6370SOL    HW225246   4.220   0.045   0.315 -1.5556 -0.0870  0.0028
 6370SOL    HW325247   4.224   0.175   0.238 -0.7869  0.4223  0.8887
 6370SOL    MW425248   4.201   0.092   0.244 -0.0036  0.4756 -0.2093
 6371SOL     OW25249   0.508   0.213   4.560  0.4863  0.0828 -0.1706
 6371SOL    HW225250   0.452   0.135   4.553  1.8271 -0.9372 -0.1096
 6371SOL    HW325251   0.448   0.287   4.558 -1.1021 -1.0047  2.3708
 6371SOL    MW425252   0.493   0.212   4.559 -0.5295 -0.0888 -0.0199
 6372SOL     OW25253   2.250   1.144   6.036  0.1939 -0.0684  0.3846
 6372SOL    HW225254   2.183   1.210   6.018  0.2112 -0.0000  0.5624
 6372SOL    HW325255   2.244   1.082   5.963  1.2786  0.9976 -0.6441
 6372SOL    MW425256   2.241   1.144   6.024  0.2015  0.1169 -0.3080
 6373SOL     OW25257   4.741   3.636   4.363  0.7033  0.0661 -0.2843
 6373SOL    HW225258   4.807   3.673   4.305  0.3931 -1.9373 -2.0256
 6373SOL    HW325259   4.658   3.665   4.325  0.5235 -0.1161 -0.0309
 6373SOL    MW425260   4.739   3.645   4.350 -0.4351  0.1386  0.3793
 6374SOL     OW25261   2.629   2.967   0.721  0.4549  0.0986 -0.2221
 6374SOL    HW225262   2.599   2.907   0.789 -1.0397 -0.5157 -1.3612
 6374SOL    HW325263   2.613   3.054   0.757  0.6112 -0.2022  0.5941
 6374SOL    MW425264   2.623   2.970   0.735  0.7474  0.5470  0.1159
 6375SOL     OW25265   0.489   4.593   0.572  0.0952 -0.3704 -0.1784
 6375SOL    HW225266   0.569   4.642   0.592  0.4214 -0.8601 -0.2452
 6375SOL    HW325267   0.513   4.538   0.497  0.0383 -1.3421  0.4995
 6375SOL    MW425268   0.503   4.592   0.564  0.2647  0.5671  0.0017
 6376SOL     OW25269   1.201   3.476   2.345  0.5332  0.1066 -0.3136
 6376SOL    HW225270   1.224   3.425   2.268 -0.4826  0.5819 -0.9618
 6376SOL    HW325271   1.144   3.546   2.311 -1.2393 -0.5744  1.0540
 6376SOL    MW425272   1.196   3.479   2.330  0.5743  0.0423 -0.0633
 6377SOL     OW25273   4.081   0.803   4.516  0.0868  0.2190  0.2029
 6377SOL    HW225274   4.039   0.726   4.556  1.5591 -1.3857 -1.1717
 6377SOL    HW325275   4.044   0.878   4.563 -0.5371 -1.3795  2.4337
 6377SOL    MW425276   4.071   0.803   4.528  0.1047 -0.0554 -0.2310
 6378SOL     OW25277   6.073   4.910   5.779  0.1194  0.2965  0.0601
 6378SOL    HW225278   6.028   4.833   5.743 -1.3762  2.1000 -2.1760
 6378SOL    HW325279   6.165   4.897   5.756 -0.0071 -1.0447  0.2050
 6378SOL    MW425280   6.079   4.898   5.771 -0.7863 -0.0206 -0.0469
 6379SOL     OW25281   1.529   0.625   1.621  0.0338  0.6467  0.0208
 6379SOL    HW225282   1.610   0.574   1.634 -1.0907 -0.8207  1.7576
 6379SOL    HW325283   1.481   0.615   1.703 -2.1739  1.0291 -1.1428
 6379SOL    MW425284   1.534   0.617   1.634  0.1960 -0.0072  0.1606
 6380SOL     OW25285   0.951   4.734   3.739 -0.0957  0.0379  0.2980
 6380SOL    HW225286   0.880   4.735   3.676 -0.7318  2.2700  0.9638
 6380SOL    HW325287   0.958   4.824   3.770  1.6347 -0.5335  1.8166
 6380SOL    MW425288   0.943   4.746   3.735  0.2433 -0.4294  0.7355
 6381SOL     OW25289   4.913   4.363   4.295 -0.3978 -0.0065 -0.1960
 6381SOL    HW225290   4.960   4.439   4.329  0.8408 -0.7129 -0.2442
 6381SOL    HW325291   4.952   4.288   4.342 -0.9741 -0.6841 -0.7709
 6381SOL    MW425292   4.924   4.363   4.305 -0.2783 -0.2995 -0.4262
 6382SOL     OW25293   4.783   2.301   2.068 -0.1284 -0.6706  0.0672
 6382SOL    HW225294   4.875   2.312   2.043 -0.4354 -3.7975 -3.3250
 6382SOL    HW325295   4.734   2.319   1.988 -2.0645 -2.9122  0.6280
 6382SOL    MW425296   4.789   2.305   2.054 -0.2229 -0.1942 -0.6876
 6383SOL     OW25297   1.219   0.190   2.292  0.0402  0.0180  0.0759
 6383SOL    HW225298   1.203   0.134   2.215 -1.7346  0.5194  0.0395
 6383SOL    HW325299   1.133   0.198   2.334  0.8882  0.1470  1.8634
 6383SOL    MW425300   1.206   0.183   2.287 -0.4139 -0.1695 -0.7186
 6384SOL     OW25301   5.642   5.784   0.789 -0.3785 -0.1500  0.0964
 6384SOL    HW225302   5.643   5.879   0.780  1.7307 -0.2942 -2.1291
 6384SOL    HW325303   5.598   5.752   0.711  0.7078 -1.0277 -0.1857
 6384SOL    MW425304   5.636   5.792   0.778 -0.5763  0.4019  0.4208
 6385SOL     OW25305   5.427   3.487   2.806 -0.6601  0.0690  0.1701
 6385SOL    HW225306   5.451   3.419   2.870  0.2098  1.1369  1.0117
 6385SOL    HW325307   5.333   3.497   2.817 -0.4211  0.8233  1.9311
 6385SOL    MW425308   5.418   3.479   2.816 -0.0090  0.0340  0.3066
 6386SOL     OW25309   0.587   2.426   0.128 -0.2058  0.2651 -0.2748
 6386SOL    HW225310   0.547   2.471   0.053  2.7062 -0.2074 -2.2847
 6386SOL    HW325311   0.657   2.485   0.156  0.4573 -0.7901  0.3411
 6386SOL    MW425312   0.591   2.440   0.122 -0.8615  0.0917 -0.9335
 6387SOL     OW25313   4.485   1.035   3.449  0.3494 -0.0127 -0.0864
 6387SOL    HW225314   4.555   1.060   3.389  0.7541 -0.9517 -0.0291
 6387SOL    HW325315   4.475   0.940   3.436  0.3405 -0.2118  1.1931
 6387SOL    MW425316   4.493   1.025   3.440 -0.6013 -0.1047  0.3904
 6388SOL     OW25317   5.730   3.791   1.116 -0.5028  0.5134 -0.3946
 6388SOL    HW225318   5.795   3.840   1.066 -0.2903 -0.4438 -1.0881
 6388SOL    HW325319   5.764   3.702   1.120 -1.8316 -0.0617 -0.9352
 6388SOL    MW425320   5.743   3.786   1.110 -0.4771  0.6933 -0.2192
 6389SOL     OW25321   1.504   3.161   1.968 -0.0763 -0.3490  1.0057
 6389SOL    HW225322   1.449   3.127   1.898 -0.5811  0.1983  1.1291
 6389SOL    HW325323   1.471   3.249   1.984  2.7936  1.3094 -1.1141
 6389SOL    MW425324   1.493   3.168   1.961 -0.8049 -0.0915 -0.0561
 6390SOL     OW25325   2.890   2.569   4.045 -0.1170  0.6324 -0.0628
 6390SOL    HW225326   2.920   2.547   3.957  1.8165  1.8697  0.2152
 6390SOL    HW325327   2.853   2.488   4.079  2.4727 -0.9706 -0.7378
 6390SOL    MW425328   2.889   2.556   4.038  0.0091 -0.2534 -0.6827
 6391SOL     OW25329   0.068   4.803   3.454 -0.1300 -0.4784  0.4383
 6391SOL    HW225330   0.141   4.778   3.510  0.6853  1.0742  0.1169
 6391SOL    HW325331   0.051   4.895   3.476 -1.4361 -0.5757 -0.0897
 6391SOL    MW425332   0.075   4.812   3.464 -0.4800  0.8634  0.4742
 6392SOL     OW25333   3.508   1.124   0.902  0.4652 -0.0353 -0.2585
 6392SOL    HW225334   3.486   1.124   0.995 -1.6311  0.3222 -0.7044
 6392SOL    HW325335   3.581   1.185   0.895  1.3331 -0.8390  1.2748
 6392SOL    MW425336   3.514   1.132   0.913 -0.1826 -0.1670 -0.4868
 6393SOL     OW25337   3.697   5.806   2.967 -0.2419  0.4360 -0.0521
 6393SOL    HW225338   3.772   5.844   3.014 -0.3676 -0.7534  1.1701
 6393SOL    HW325339   3.720   5.714   2.958 -3.0272 -0.8509  3.6227
 6393SOL    MW425340   3.710   5.799   2.972 -0.3290 -0.3617 -0.5588
 6394SOL     OW25341   3.631   3.649   4.686 -0.4013 -0.1487 -0.4872
 6394SOL    HW225342   3.592   3.583   4.743  2.4993 -1.2776  0.3855
 6394SOL    HW325343   3.646   3.724   4.743 -0.7483  0.0461 -0.6547
 6394SOL    MW425344   3.628   3.650   4.701  0.7258 -0.2557  0.7396
 6395SOL     OW25345   4.510   2.415   2.090  0.0281  0.0140 -0.5627
 6395SOL    HW225346   4.460   2.497   2.096 -1.8328 -1.1775  1.1634
 6395SOL    HW325347   4.597   2.438   2.121 -0.6636  1.2182  0.6006
 6395SOL    MW425348   4.514   2.429   2.095  0.3155  0.4655 -0.3416
 6396SOL     OW25349   4.640   0.230   5.586 -0.3236 -0.2793  0.4883
 6396SOL    HW225350   4.614   0.208   5.675 -0.4931 -0.9670  0.2755
 6396SOL    HW325351   4.716   0.175   5.569  0.0709  0.2816  0.4110
 6396SOL    MW425352   4.646   0.220   5.595 -0.1691 -0.2011 -0.3031
 6397SOL     OW25353   0.343   3.995   6.401  0.2761 -0.2631 -0.2338
 6397SOL    HW225354   0.284   4.023   6.331 -0.0769  0.4432  0.3342
 6397SOL    HW325355   0.368   3.905   6.378 -2.8206 -1.4820  0.6582
 6397SOL    MW425356   0.339   3.987   6.389 -0.6195  0.3286 -0.0436
 6398SOL     OW25357   2.303   3.427   1.864 -0.0708 -0.0289 -0.5274
 6398SOL    HW225358   2.361   3.454   1.793  1.0788  1.9603  1.0421
 6398SOL    HW325359   2.328   3.484   1.937 -2.2839 -0.8935  0.9888
 6398SOL    MW425360   2.314   3.438   1.864  0.2633  0.8051  0.1207
 6399SOL     OW25361   0.304   4.529   2.900 -0.2366 -0.0202 -0.1534
 6399SOL    HW225362   0.255   4.493   2.974 -1.7643 -0.5761 -1.3789
 6399SOL    HW325363   0.282   4.622   2.900  0.4209  0.1471  0.5500
 6399SOL    MW425364   0.295   4.537   2.910  0.5169 -0.2560 -0.3050
 6400SOL     OW25365   3.006   0.723   2.442  0.4831  0.6650 -0.2735
 6400SOL    HW225366   3.022   0.629   2.437 -2.3752  0.0712  0.1411
 6400SOL    HW325367   2.977   0.747   2.354 -0.3281  0.7979  0.0183
 6400SOL    MW425368   3.005   0.714   2.430  0.1400  0.5949  0.0612
 6401SOL     OW25369   2.396   3.949   3.166  0.0680  0.3128 -0.1068
 6401SOL    HW225370   2.422   3.983   3.081  0.5493 -0.5315 -0.3052
 6401SOL    HW325371   2.444   3.867   3.175  0.4337  0.6565  1.2152
 6401SOL    MW425372   2.406   3.943   3.156  0.7352  0.3963  0.2238
 6402SOL     OW25373   2.373   3.919   0.737 -0.1121  0.1882  0.3996
 6402SOL    HW225374   2.440   3.850   0.733 -0.1005  0.2107  0.1866
 6402SOL    HW325375   2.422   4.000   0.720 -0.4563  0.0444 -1.5716
 6402SOL    MW425376   2.388   3.921   0.734 -0.0038  0.8740  0.6597
 6403SOL     OW25377   0.497   2.512   4.057 -0.6424  0.3916  0.6574
 6403SOL    HW225378   0.505   2.424   4.095 -0.3453  1.0747  2.2703
 6403SOL    HW325379   0.403   2.522   4.041 -0.8113  0.1547  1.4454
 6403SOL    MW425380   0.485   2.501   4.060 -0.3326 -0.2058  0.3556
 6404SOL     OW25381   3.287   5.823   0.040 -0.0719 -0.4239  0.3258
 6404SOL    HW225382   3.266   5.901   0.090  1.0124 -0.7168  1.2851
 6404SOL    HW325383   3.205   5.799  -0.003 -0.9177  0.1152  1.5813
 6404SOL    MW425384   3.273   5.830   0.041 -0.3871  0.1109 -0.5543
 6405SOL     OW25385   1.721   0.762   1.378 -0.2743 -0.1715  0.0657
 6405SOL    HW225386   1.717   0.687   1.318 -2.0268  0.3004 -0.4557
 6405SOL    HW325387   1.634   0.799   1.375  0.0770  0.8467  1.7027
 6405SOL    MW425388   1.709   0.757   1.370 -0.1561  0.3813 -0.1848
 6406SOL     OW25389   1.518   6.421   0.929  0.3871  0.0336 -0.2109
 6406SOL    HW225390   1.550   6.510   0.946  0.5472  0.1926 -1.2772
 6406SOL    HW325391   1.520   6.413   0.833 -1.6564 -0.3761 -0.2449
 6406SOL    MW425392   1.523   6.431   0.918 -0.3233  0.2057  0.1105
 6407SOL     OW25393   0.202   5.842   5.635 -0.0214 -0.2431  0.1038
 6407SOL    HW225394   0.199   5.840   5.539  2.5560  0.0744 -0.0682
 6407SOL    HW325395   0.118   5.880   5.661 -0.6962 -0.1348 -2.0356
 6407SOL    MW425396   0.191   5.847   5.625  0.1492 -0.0303  0.2970
 6408SOL     OW25397   2.678   4.745   3.595 -0.4221 -0.0931 -0.0078
 6408SOL    HW225398   2.675   4.810   3.525 -0.7319 -0.2652 -0.1518
 6408SOL    HW325399   2.590   4.744   3.631 -0.5264 -0.7203 -0.2660
 6408SOL    MW425400   2.666   4.753   3.591  0.2193 -0.3629 -0.0498
 6409SOL     OW25401   4.817   2.874   4.297 -0.4333 -0.5138  0.4585
 6409SOL    HW225402   4.763   2.883   4.375  1.4173 -0.1843  1.7814
 6409SOL    HW325403   4.906   2.862   4.331  0.5294  0.2523 -1.6091
 6409SOL    MW425404   4.822   2.873   4.312 -0.4440  0.2207 -0.3685
 6410SOL     OW25405   4.524   0.986   1.391  0.7683  0.1781 -0.2022
 6410SOL    HW225406   4.515   1.067   1.441  0.1662  0.6476 -1.0441
 6410SOL    HW325407   4.437   0.970   1.354  0.3528 -1.8910  1.4699
 6410SOL    MW425408   4.511   0.994   1.393 -0.1698  0.5522  0.3594
 6411SOL     OW25409   5.780   1.204   4.676 -0.0077  0.2550 -0.4049
 6411SOL    HW225410   5.742   1.126   4.635 -0.7371 -0.0400  0.7849
 6411SOL    HW325411   5.849   1.170   4.733  1.5667  0.7275 -1.9578
 6411SOL    MW425412   5.784   1.189   4.678 -0.0452 -0.1726  0.0960
 6412SOL     OW25413   4.610   5.399   1.194 -0.0080  0.4132 -0.0450
 6412SOL    HW225414   4.643   5.428   1.109  0.5811  1.0160  0.3771
 6412SOL    HW325415   4.525   5.441   1.202 -0.0027  0.4722 -0.2763
 6412SOL    MW425416   4.603   5.408   1.184 -0.1100 -0.7411  0.3733
 6413SOL     OW25417   0.101   2.359   0.174  0.0929  0.1145 -0.0147
 6413SOL    HW225418   0.179   2.364   0.229  0.1851 -0.8292 -0.0457
 6413SOL    HW325419   0.097   2.267   0.147 -0.6626  0.2991 -0.5463
 6413SOL    MW425420   0.111   2.347   0.177  0.3959  0.7749  0.1874
 6414SOL     OW25421   4.769   3.531   4.929 -0.2488  0.4516  0.2593
 6414SOL    HW225422   4.743   3.622   4.940  0.1359  0.6806 -0.6356
 6414SOL    HW325423   4.690   3.487   4.897 -0.5167  0.3980  0.9666
 6414SOL    MW425424   4.755   3.537   4.927  0.5653  0.0014 -0.7909
 6415SOL     OW25425   0.054   2.096   5.183  0.2681  0.4834 -0.0579
 6415SOL    HW225426   0.057   2.192   5.174  1.0378  0.4122 -0.7021
 6415SOL    HW325427   0.034   2.081   5.275 -0.5665  1.2685 -0.0998
 6415SOL    MW425428   0.052   2.107   5.194 -0.6413 -0.3949  0.3048
 6416SOL     OW25429   1.913   0.619   0.405  0.2660  0.4092 -0.2221
 6416SOL    HW225430   1.994   0.652   0.444 -0.8469  2.2247  0.6668
 6416SOL    HW325431   1.910   0.660   0.318  0.5401 -0.0872 -0.4727
 6416SOL    MW425432   1.923   0.629   0.398  0.4382  0.1774  0.3896
 6417SOL     OW25433   5.522   5.879   6.144 -0.2603  0.1600 -0.0534
 6417SOL    HW225434   5.518   5.785   6.159  0.5514  0.0356 -0.5498
 6417SOL    HW325435   5.434   5.902   6.112 -0.7927 -0.2309  1.0984
 6417SOL    MW425436   5.510   5.870   6.142 -0.7956 -0.0687  0.0754
 6418SOL     OW25437   4.134   5.094   1.607  0.1071 -0.3213 -0.1455
 6418SOL    HW225438   4.148   5.000   1.601 -1.9118 -0.7471  0.9614
 6418SOL    HW325439   4.080   5.116   1.531  1.4418  0.1843 -0.9922
 6418SOL    MW425440   4.129   5.085   1.596 -0.2116 -0.5813 -0.1418
 6419SOL     OW25441   1.415   2.507   1.388 -0.0895  0.0851 -0.2561
 6419SOL    HW225442   1.449   2.501   1.299 -0.4201 -0.8564 -0.3363
 6419SOL    HW325443   1.448   2.428   1.431 -0.8657 -0.0468  0.1158
 6419SOL    MW425444   1.424   2.496   1.382 -0.0509 -0.4524 -0.2517
 6420SOL     OW25445   4.394   0.006   0.054 -0.1675  0.9765 -0.0658
 6420SOL    HW225446   4.414   0.071  -0.013 -0.6916  0.6188 -0.5851
 6420SOL    HW325447   4.315   0.040   0.096 -0.2598  0.8395 -0.1270
 6420SOL    MW425448   4.386   0.019   0.050 -0.7325  0.2984  0.8975
 6421SOL     OW25449   1.068   5.234   2.364  0.0742 -0.1541  0.0558
 6421SOL    HW225450   1.016   5.156   2.382 -2.4994  1.5607  0.6194
 6421SOL    HW325451   1.022   5.277   2.292  1.5961  0.7434 -0.4210
 6421SOL    MW425452   1.055   5.229   2.357 -0.1027 -0.0132  0.5179
 6422SOL     OW25453   5.335   4.861   6.251 -0.2107 -0.0933  0.3759
 6422SOL    HW225454   5.381   4.778   6.243  0.1420  0.1503 -0.1737
 6422SOL    HW325455   5.273   4.862   6.178  0.0830  0.3106  0.1291
 6422SOL    MW425456   5.333   4.850   6.240  0.2074 -0.5464  0.0230
 6423SOL     OW25457   2.222   1.842   5.265 -0.1761  0.2967 -0.5264
 6423SOL    HW225458   2.200   1.920   5.214  0.9727 -0.6446 -2.5682
 6423SOL    HW325459   2.216   1.871   5.356 -2.2756  2.0601 -1.1465
 6423SOL    MW425460   2.219   1.856   5.270 -0.0965  0.4459  0.1944
 6424SOL     OW25461   1.786   0.071   3.461 -0.0564 -0.2003 -0.1422
 6424SOL    HW225462   1.856   0.060   3.397 -0.7054 -1.6843 -0.6419
 6424SOL    HW325463   1.794   0.162   3.491  3.3129 -0.8196  1.2953
 6424SOL    MW425464   1.796   0.082   3.457 -0.6636 -0.0168  0.4153
 6425SOL     OW25465   4.531   2.046   5.504  0.2290  0.2138 -0.3971
 6425SOL    HW225466   4.466   2.116   5.499  0.8956  0.8221 -0.8091
 6425SOL    HW325467   4.547   2.022   5.412  0.4391 -0.0648 -0.2879
 6425SOL    MW425468   4.524   2.052   5.491 -0.1991  0.1112 -0.1388
 6426SOL     OW25469   6.151   2.956   2.294  0.1002  0.4936  0.1459
 6426SOL    HW225470   6.208   3.033   2.287  1.8736 -0.7596  0.3076
 6426SOL    HW325471   6.202   2.893   2.344 -1.9068 -0.2878  1.3084
 6426SOL    MW425472   6.165   2.958   2.299  0.0666  0.6757 -0.0363
 6427SOL     OW25473   0.967   5.536   3.144 -0.0533 -0.5888 -0.1752
 6427SOL    HW225474   0.895   5.476   3.162  0.7102 -2.4557 -2.7950
 6427SOL    HW325475   0.929   5.604   3.088  0.0195 -1.1869 -0.9729
 6427SOL    MW425476   0.952   5.537   3.139  0.6453 -0.3345 -0.0677
 6428SOL     OW25477   1.921   1.486   4.542 -0.1853 -0.3181 -0.3487
 6428SOL    HW225478   1.840   1.516   4.500 -0.2513 -0.3963 -0.2767
 6428SOL    HW325479   1.925   1.392   4.521  0.5382 -0.0686 -1.4455
 6428SOL    MW425480   1.911   1.477   4.533 -0.6617  0.0018  0.1483
 6429SOL     OW25481   0.406   3.480   0.586 -0.1482  0.0966  0.3921
 6429SOL    HW225482   0.438   3.570   0.594  0.7362 -0.3325  2.2772
 6429SOL    HW325483   0.485   3.427   0.574 -0.5642 -0.5310  0.3581
 6429SOL    MW425484   0.420   3.485   0.586  0.0230  0.4980  0.2410
 6430SOL     OW25485   2.038   2.751   1.168  0.2064  0.2118  0.4589
 6430SOL    HW225486   2.113   2.705   1.132 -0.4438 -1.2224  0.8584
 6430SOL    HW325487   2.062   2.767   1.260  0.1252 -0.0545  0.5291
 6430SOL    MW425488   2.051   2.747   1.176 -0.0342 -1.0163  0.1134
 6431SOL     OW25489   3.352   3.481   5.844 -0.0481  0.5075  0.2272
 6431SOL    HW225490   3.259   3.481   5.820  0.0522  1.2905 -0.1830
 6431SOL    HW325491   3.388   3.404   5.799 -0.8062 -0.7702  1.7007
 6431SOL    MW425492   3.344   3.470   5.835 -0.3241 -0.1436  0.2942
 6432SOL     OW25493   2.697   5.855   4.136  0.0282 -0.4729 -0.5494
 6432SOL    HW225494   2.717   5.944   4.107 -1.3683 -0.1122 -0.4957
 6432SOL    HW325495   2.781   5.808   4.131  0.9212  0.9953 -0.0030
 6432SOL    MW425496   2.711   5.861   4.132 -0.3656 -0.2542  0.0874
 6433SOL     OW25497   5.657   3.451   1.351  0.3259  0.0073  0.8376
 6433SOL    HW225498   5.585   3.513   1.337  3.5345  4.3330  1.1043
 6433SOL    HW325499   5.717   3.468   1.278  1.1997 -3.4343  0.5726
 6433SOL    MW425500   5.656   3.462   1.339  0.1517 -0.1973  0.1238
 6434SOL     OW25501   3.796   0.577   5.309  0.2941  0.1840 -0.2176
 6434SOL    HW225502   3.773   0.571   5.216  0.6764 -0.7476 -0.2600
 6434SOL    HW325503   3.892   0.577   5.310  0.3388 -1.7995  0.2515
 6434SOL    MW425504   3.806   0.576   5.297 -0.1957  0.7147 -0.7778
 6435SOL     OW25505   0.734   2.877   5.709  0.1462  0.1102 -0.4853
 6435SOL    HW225506   0.776   2.796   5.739  1.1563  0.3305 -1.2081
 6435SOL    HW325507   0.648   2.850   5.678 -0.3748 -0.3234  1.2816
 6435SOL    MW425508   0.728   2.863   5.709 -0.2624  0.1939  0.3923
 6436SOL     OW25509   0.760   5.876   6.285  0.2864 -0.1549 -0.2489
 6436SOL    HW225510   0.748   5.905   6.375  0.6551 -1.5327  0.2785
 6436SOL    HW325511   0.771   5.956   6.234  0.0162  0.6389  0.9244
 6436SOL    MW425512   0.760   5.890   6.290  0.3888 -1.0218  0.0156
 6437SOL     OW25513   1.009   5.339   3.398 -0.1459 -0.6688 -0.0584
 6437SOL    HW225514   1.039   5.256   3.360  0.2202 -1.4785  1.8766
 6437SOL    HW325515   0.924   5.355   3.356  0.6986 -0.9132 -1.9695
 6437SOL    MW425516   1.002   5.330   3.387 -0.0046  0.0870  0.1328
 6438SOL     OW25517   3.426   5.188   3.310  0.0369  0.6187 -0.0515
 6438SOL    HW225518   3.516   5.174   3.340  0.0884 -0.6834 -0.7293
 6438SOL    HW325519   3.373   5.128   3.363 -0.2076  0.1820 -0.7764
 6438SOL    MW425520   3.431   5.178   3.321  0.8455 -0.4233  0.4136
 6439SOL     OW25521   2.821   0.549   6.208  0.0115 -0.0720  0.3892
 6439SOL    HW225522   2.818   0.457   6.234  1.2033  0.1906  1.5843
 6439SOL    HW325523   2.771   0.594   6.276 -0.8553  0.1400 -0.3767
 6439SOL    MW425524   2.814   0.543   6.221  0.1403  0.3094  0.4029
 6440SOL     OW25525   5.839   3.862   0.437  0.4786  0.6252 -0.3608
 6440SOL    HW225526   5.760   3.905   0.404  0.9408  1.0887 -0.8830
 6440SOL    HW325527   5.863   3.799   0.369 -0.1989 -0.4919  0.4059
 6440SOL    MW425528   5.832   3.859   0.424  0.5709  0.0147 -0.6551
 6441SOL     OW25529   3.930   4.353   4.731 -0.1536 -0.7561  0.1820
 6441SOL    HW225530   3.891   4.335   4.816  0.5022 -0.5975  0.5163
 6441SOL    HW325531   3.872   4.308   4.669 -0.6422 -0.8593  0.7027
 6441SOL    MW425532   3.917   4.345   4.734  0.5624 -0.4014  0.0316
 6442SOL     OW25533   1.645   5.983   1.964  0.4443 -0.3651  0.2492
 6442SOL    HW225534   1.709   5.971   2.035 -1.4719 -0.3695  2.0596
 6442SOL    HW325535   1.560   5.977   2.007 -0.8072  1.1675 -1.8310
 6442SOL    MW425536   1.643   5.980   1.979  0.2279  0.0239 -0.4553
 6443SOL     OW25537   4.073   2.749   2.668  0.5450 -0.4121  0.0283
 6443SOL    HW225538   3.982   2.775   2.683  0.6187 -0.7339  1.1069
 6443SOL    HW325539   4.090   2.683   2.736  0.7523 -2.3545 -1.7974
 6443SOL    MW425540   4.063   2.744   2.679  0.2667  0.3113  0.0549
 6444SOL     OW25541   2.580   2.695   3.902 -0.3846 -0.0100 -0.4605
 6444SOL    HW225542   2.649   2.664   3.843 -2.8242 -2.3398 -2.2707
 6444SOL    HW325543   2.578   2.630   3.973  1.5804  2.0318  1.6846
 6444SOL    MW425544   2.589   2.682   3.904 -0.3900 -0.4030  0.4821
 6445SOL     OW25545   2.892   4.951   0.441 -0.5756 -0.2375 -0.3595
 6445SOL    HW225546   2.847   4.908   0.368 -1.0397 -0.6261  0.1396
 6445SOL    HW325547   2.824   4.961   0.508  0.1745 -1.2421  0.5887
 6445SOL    MW425548   2.877   4.947   0.440 -0.2506  0.5977 -0.3812
 6446SOL     OW25549   4.942   0.807   3.110 -0.6766  0.3517  0.2617
 6446SOL    HW225550   4.919   0.714   3.104  0.0779  0.2215 -0.8518
 6446SOL    HW325551   4.995   0.824   3.033 -0.3414  1.5910  0.7381
 6446SOL    MW425552   4.946   0.797   3.099  0.4598  0.6161 -0.6092
 6447SOL     OW25553   1.184   5.432   3.988 -0.0223  0.1820  0.4279
 6447SOL    HW225554   1.157   5.379   3.913  0.2723 -1.5795  1.4929
 6447SOL    HW325555   1.149   5.519   3.971 -2.2538 -0.8276 -0.4862
 6447SOL    MW425556   1.176   5.436   3.976 -0.3039 -0.0806  0.0901
 6448SOL     OW25557   0.254   4.762   0.276 -0.5632  0.0398  0.7026
 6448SOL    HW225558   0.194   4.706   0.325 -2.3321  0.2656 -1.0891
 6448SOL    HW325559   0.263   4.841   0.330  1.8686 -1.7657  3.2025
 6448SOL    MW425560   0.248   4.765   0.290 -0.4792  0.9600 -0.1168
 6449SOL     OW25561   2.890   3.899   2.143 -0.6917  0.0079 -0.1340
 6449SOL    HW225562   2.801   3.896   2.108 -0.8718 -0.0930  0.3308
 6449SOL    HW325563   2.894   3.982   2.190 -1.2502 -0.9480  1.6996
 6449SOL    MW425564   2.879   3.910   2.145  0.0360 -0.1944  0.1750
 6450SOL     OW25565   1.521   5.069   0.578 -0.1333  0.4989 -0.5680
 6450SOL    HW225566   1.478   5.079   0.663 -0.7273  1.9796 -1.0057
 6450SOL    HW325567   1.611   5.046   0.600 -0.6836 -0.8686  0.4039
 6450SOL    MW425568   1.527   5.068   0.592  0.5818 -0.4819  0.0760
 6451SOL     OW25569   5.916   4.379   3.159  0.3146 -0.8817 -0.0781
 6451SOL    HW225570   5.919   4.347   3.249  0.7506  1.8640  0.9849
 6451SOL    HW325571   6.008   4.394   3.136  0.1162  0.1389 -0.2730
 6451SOL    MW425572   5.929   4.377   3.168  0.1500  0.3063  0.3416
 6452SOL     OW25573   2.996   4.172   0.815  0.4005  0.4164 -0.0895
 6452SOL    HW225574   3.057   4.244   0.824  1.0276 -0.1776  0.5601
 6452SOL    HW325575   3.045   4.105   0.768 -0.3486  0.6010 -1.1600
 6452SOL    MW425576   3.010   4.172   0.810  0.1453 -0.0227 -0.0382
 6453SOL     OW25577   4.321   0.961   5.058  0.2467 -0.4226  0.2138
 6453SOL    HW225578   4.315   1.008   5.141  0.4158  2.2208 -1.1748
 6453SOL    HW325579   4.405   0.916   5.062  0.5390  0.1815  1.2217
 6453SOL    MW425580   4.331   0.961   5.069 -0.5058 -0.3519  0.4661
 6454SOL     OW25581   4.557   2.903   3.863  0.6673 -0.4130 -0.0403
 6454SOL    HW225582   4.564   2.907   3.768  0.5463 -1.0736 -0.0824
 6454SOL    HW325583   4.466   2.876   3.879  0.7136 -0.3947  0.2562
 6454SOL    MW425584   4.546   2.900   3.853 -0.2822  0.5106 -0.9054
 6455SOL     OW25585   3.539   1.974   2.660 -0.0267  0.3483 -0.4816
 6455SOL    HW225586   3.564   1.984   2.752 -0.3656 -0.8410 -0.2398
 6455SOL    HW325587   3.471   1.907   2.661  0.8727 -0.6360 -1.7393
 6455SOL    MW425588   3.533   1.966   2.672 -0.5522  0.1402  0.3798
 6456SOL     OW25589   5.282   2.763   1.658  0.0674 -0.4033 -0.2183
 6456SOL    HW225590   5.325   2.711   1.726 -0.5130 -0.9447 -0.2500
 6456SOL    HW325591   5.326   2.737   1.577 -0.0019 -0.6089 -0.1917
 6456SOL    MW425592   5.293   2.753   1.656 -0.4424  0.0197  0.5805
 6457SOL     OW25593   2.381   5.994   4.078  0.2295 -0.2071 -0.0782
 6457SOL    HW225594   2.436   6.007   4.155 -1.4177  2.0441  0.8275
 6457SOL    HW325595   2.303   5.951   4.111  0.2613 -0.8880 -0.8551
 6457SOL    MW425596   2.378   5.990   4.092 -0.6723  0.0121 -0.1546
 6458SOL     OW25597   0.921   6.392   1.469 -0.0142 -0.2288  0.8682
 6458SOL    HW225598   0.949   6.301   1.457  0.0262 -0.2922  1.4136
 6458SOL    HW325599   0.927   6.430   1.382 -0.6775 -0.9301  0.5065
 6458SOL    MW425600   0.926   6.385   1.456 -0.7753  0.4695  0.3183
 6459SOL     OW25601   1.931   0.664   4.829 -0.3835  0.1462 -0.3061
 6459SOL    HW225602   1.849   0.614   4.821 -0.6723  0.6174 -0.2978
 6459SOL    HW325603   1.926   0.729   4.759 -1.9006  2.8366  2.1313
 6459SOL    MW425604   1.919   0.666   4.819 -0.4667  0.0756 -0.7333
 6460SOL     OW25605   3.316   5.398   4.084  0.9959  0.4133 -0.6277
 6460SOL    HW225606   3.393   5.445   4.054  0.9452  0.9016 -0.0241
 6460SOL    HW325607   3.252   5.467   4.105  0.9169  0.0926  0.2513
 6460SOL    MW425608   3.317   5.414   4.083 -0.4487  0.5517  1.1934
 6461SOL     OW25609   2.699   4.926   4.389  0.2527 -0.5450 -0.1803
 6461SOL    HW225610   2.756   4.970   4.452  0.2741 -0.5314 -0.2092
 6461SOL    HW325611   2.675   4.995   4.326 -0.8671 -0.2080  0.5713
 6461SOL    MW425612   2.703   4.941   4.389  0.3388 -0.2683  0.2051
 6462SOL     OW25613   6.158   1.721   2.279 -0.3368  0.3822  0.4379
 6462SOL    HW225614   6.144   1.789   2.345  0.7309  0.2754  0.7839
 6462SOL    HW325615   6.089   1.736   2.214 -2.5191 -0.5610  2.4101
 6462SOL    MW425616   6.147   1.732   2.279  0.2036 -0.8378 -0.1936
 6463SOL     OW25617   0.722   1.233   3.765 -0.0630 -0.0854 -0.6795
 6463SOL    HW225618   0.760   1.262   3.848  0.5961 -1.5766 -0.4251
 6463SOL    HW325619   0.744   1.140   3.760 -0.0242 -0.0178 -2.5579
 6463SOL    MW425620   0.730   1.224   3.775  0.4894 -0.0155  0.1480
 6464SOL     OW25621   4.326   1.255   2.224 -0.2457  0.5261 -0.0606
 6464SOL    HW225622   4.381   1.329   2.196  0.4238  0.3486  0.7400
 6464SOL    HW325623   4.331   1.257   2.319 -0.5997 -0.2706 -0.0217
 6464SOL    MW425624   4.334   1.265   2.233 -0.3526  0.2912  0.5209
 6465SOL     OW25625   0.705   6.089   0.635  0.6335 -0.0900 -0.1633
 6465SOL    HW225626   0.713   5.993   0.640  1.3219 -0.0691 -0.6971
 6465SOL    HW325627   0.619   6.104   0.596  1.6096 -0.5739 -2.6813
 6465SOL    MW425628   0.695   6.078   0.631  0.1450 -0.4456  0.1500
 6466SOL     OW25629   3.202   1.732   5.353  0.5400 -0.1456  1.1629
 6466SOL    HW225630   3.202   1.828   5.361  1.5289 -0.0200 -0.0334
 6466SOL    HW325631   3.223   1.701   5.441  0.5851  0.7483  1.4815
 6466SOL    MW425632   3.205   1.741   5.366  0.7183 -0.0107 -0.4751
 6467SOL     OW25633   1.662   3.087   2.739 -0.1337 -0.1064  0.2993
 6467SOL    HW225634   1.733   3.098   2.803 -0.3354  1.4597  0.2926
 6467SOL    HW325635   1.685   3.007   2.692  1.9692  0.6704 -0.1124
 6467SOL    MW425636   1.675   3.078   2.741 -0.1188 -0.3366  0.3981
 6468SOL     OW25637   5.786   2.461   2.388 -0.1508 -0.6310  0.4314
 6468SOL    HW225638   5.711   2.495   2.340  0.1569  1.6254  1.4260
 6468SOL    HW325639   5.749   2.431   2.471 -0.4912 -3.3727 -0.5981
 6468SOL    MW425640   5.771   2.462   2.393 -0.1201 -0.1055  0.1764
 6469SOL     OW25641   5.728   5.109   2.779 -0.1602 -0.0158 -0.3739
 6469SOL    HW225642   5.749   5.160   2.857 -0.4632 -0.2249 -0.1515
 6469SOL    HW325643   5.762   5.022   2.797  0.4986  0.1372 -0.8184
 6469SOL    MW425644   5.735   5.104   2.791 -0.1539  0.3742 -0.0034
 6470SOL     OW25645   1.263   3.224   0.109  0.0203  0.6144 -0.7035
 6470SOL    HW225646   1.319   3.149   0.126  0.5868  1.0421 -0.6383
 6470SOL    HW325647   1.323   3.292   0.078 -0.5249  0.9416 -1.0678
 6470SOL    MW425648   1.278   3.223   0.107 -0.2074  0.1012  0.5562
 6471SOL     OW25649   2.726   5.585   1.051  0.1027 -0.1363  0.3053
 6471SOL    HW225650   2.679   5.663   1.024  0.5003 -0.6961 -2.3062
 6471SOL    HW325651   2.811   5.592   1.007 -0.1831 -2.4159 -0.7754
 6471SOL    MW425652   2.731   5.596   1.042 -0.1863  0.3466 -0.4969
 6472SOL     OW25653   1.020   2.333   4.303 -0.2541 -0.1938  0.5463
 6472SOL    HW225654   1.088   2.310   4.367  1.0932 -0.6346 -0.9740
 6472SOL    HW325655   0.995   2.250   4.264 -2.4765 -0.1702  1.7883
 6472SOL    MW425656   1.026   2.319   4.306 -0.0825 -0.1191 -0.0396
 6473SOL     OW25657   2.757   5.776   0.113  0.1855 -0.2341  1.0468
 6473SOL    HW225658   2.751   5.856   0.164 -0.1863 -0.0418  0.7037
 6473SOL    HW325659   2.667   5.744   0.106  0.5211 -1.6259  2.6598
 6473SOL    MW425660   2.745   5.782   0.119  0.2812 -0.4878  0.9469
 6474SOL     OW25661   6.269   5.695   4.247  0.5514  0.6995  0.2293
 6474SOL    HW225662   6.351   5.690   4.295  1.6668  2.2319 -1.3734
 6474SOL    HW325663   6.279   5.772   4.191 -2.0163  0.9566  0.0138
 6474SOL    MW425664   6.281   5.704   4.246  0.1256  0.0126 -0.0177
 6475SOL     OW25665   4.004   5.932   0.175  0.3642  0.1326 -0.0507
 6475SOL    HW225666   4.054   6.013   0.163  1.2366 -0.2423  0.8378
 6475SOL    HW325667   3.967   5.940   0.263  0.9386 -0.6660  0.2769
 6475SOL    MW425668   4.006   5.943   0.185 -0.8708 -0.2563 -0.3036
 6476SOL     OW25669   4.485   3.690   4.248  0.4109  0.0120  0.6999
 6476SOL    HW225670   4.514   3.621   4.188 -2.6452 -2.1433  1.4496
 6476SOL    HW325671   4.427   3.745   4.196  0.4496  0.1985  0.8511
 6476SOL    MW425672   4.481   3.688   4.234 -0.0078 -0.6954  0.1225
 6477SOL     OW25673   4.908   4.715   0.080 -0.6583  0.4816  0.0884
 6477SOL    HW225674   4.901   4.737  -0.013 -1.5259 -2.3407 -0.6181
 6477SOL    HW325675   4.848   4.775   0.124 -0.7719  1.3954 -1.2595
 6477SOL    MW425676   4.899   4.726   0.073  0.2877 -0.1924  0.1356
 6478SOL     OW25677   0.800   0.960   2.921  0.0417 -0.4662 -0.3607
 6478SOL    HW225678   0.728   0.928   2.975 -1.5506  0.4968 -1.8222
 6478SOL    HW325679   0.815   0.891   2.857 -0.0381 -0.3745 -0.4778
 6478SOL    MW425680   0.793   0.947   2.920 -0.7909 -0.9037 -0.0800
 6479SOL     OW25681   1.945   0.445   1.942  0.0415 -0.3322 -0.0372
 6479SOL    HW225682   1.984   0.463   1.856  0.5850 -2.4427 -0.2968
 6479SOL    HW325683   1.895   0.524   1.963  2.1533  1.3818 -0.9946
 6479SOL    MW425684   1.944   0.458   1.933 -0.0220 -0.7599 -0.2878
 6480SOL     OW25685   5.261   0.870   4.269  0.3389  0.1685 -0.2544
 6480SOL    HW225686   5.250   0.875   4.174 -0.7699  0.2231 -0.1443
 6480SOL    HW325687   5.214   0.791   4.294  0.1596  0.4476  0.3045
 6480SOL    MW425688   5.253   0.860   4.260  0.2710  0.3531 -0.1407
 6481SOL     OW25689   0.301   5.948   0.124 -0.0776 -0.4598  0.8146
 6481SOL    HW225690   0.390   5.941   0.158  0.6748 -0.8300 -1.0885
 6481SOL    HW325691   0.309   5.925   0.031 -1.8526  1.2900  0.1702
 6481SOL    MW425692   0.313   5.944   0.116 -0.3153  0.2370 -0.0177
 6482SOL     OW25693   2.571   3.900   2.374 -0.2396  0.5666 -0.4288
 6482SOL    HW225694   2.607   3.987   2.388  0.2931  0.1361  1.0978
 6482SOL    HW325695   2.647   3.842   2.376 -0.7547 -0.1128  0.4760
 6482SOL    MW425696   2.586   3.904   2.376  0.4322 -0.2398  0.1197
 6483SOL     OW25697   4.940   0.718   4.614 -0.3374 -0.0503  0.0854
 6483SOL    HW225698   4.849   0.689   4.619 -0.2649 -0.4512 -0.7216
 6483SOL    HW325699   4.935   0.812   4.599 -0.7113 -0.3668 -2.3262
 6483SOL    MW425700   4.927   0.726   4.612  0.4732 -0.2121  0.2163
 6484SOL     OW25701   6.139   3.691   1.951 -0.6117 -0.3101  0.0159
 6484SOL    HW225702   6.165   3.601   1.970  0.3676  0.0101  0.2320
 6484SOL    HW325703   6.220   3.742   1.959 -1.3611  0.7790  1.0992
 6484SOL    MW425704   6.153   3.686   1.955 -0.0982  0.3559 -0.4485
 6485SOL     OW25705   0.737   0.866   3.392 -0.3240  0.3863 -0.2070
 6485SOL    HW225706   0.792   0.941   3.415 -1.1919  0.9310  0.1450
 6485SOL    HW325707   0.786   0.790   3.422  0.7613  0.7647 -0.9235
 6485SOL    MW425708   0.751   0.866   3.399  0.1976  0.7471 -0.0189
 6486SOL     OW25709   0.707   2.403   3.637 -0.4660  0.2550  0.0673
 6486SOL    HW225710   0.631   2.348   3.619 -0.1604  0.1732 -1.0539
 6486SOL    HW325711   0.671   2.480   3.680 -1.6484  1.6585 -3.1782
 6486SOL    MW425712   0.692   2.406   3.640  0.0085 -1.1499 -0.0627
 6487SOL     OW25713   3.892   1.006   4.576  0.2631  0.1824 -0.0275
 6487SOL    HW225714   3.958   1.073   4.558 -0.1098  0.8532  1.0332
 6487SOL    HW325715   3.885   1.004   4.672 -0.4089 -0.7071 -0.0837
 6487SOL    MW425716   3.900   1.014   4.586 -0.3540 -0.3831  0.0654
 6488SOL     OW25717   1.510   1.003   0.813  0.2337  0.6340  0.0194
 6488SOL    HW225718   1.579   1.042   0.759 -0.6436  1.1603 -0.7622
 6488SOL    HW325719   1.526   0.909   0.809  1.7063  0.8145  0.9846
 6488SOL    MW425720   1.521   0.996   0.805  0.5108 -0.4703  0.7770
 6489SOL     OW25721   0.549   4.390   1.893 -0.1376 -0.0302  0.3273
 6489SOL    HW225722   0.567   4.339   1.814  1.0458 -0.8969  1.1335
 6489SOL    HW325723   0.606   4.466   1.886 -0.5463  0.2534  0.0222
 6489SOL    MW425724   0.559   4.393   1.882  0.6732 -0.1801 -0.1325
 6490SOL     OW25725   6.250   0.274   5.615  0.1493  0.4364 -0.1780
 6490SOL    HW225726   6.260   0.358   5.660  0.7966  0.4884 -0.4141
 6490SOL    HW325727   6.233   0.211   5.685 -1.9727  1.0018 -0.1238
 6490SOL    MW425728   6.249   0.276   5.630 -0.0316  0.0014 -0.1205
 6491SOL     OW25729   2.903   4.818   1.213 -0.0490  0.2048  0.6147
 6491SOL    HW225730   2.921   4.894   1.158  1.8150  0.0719  0.9745
 6491SOL    HW325731   2.875   4.750   1.152  3.2517 -0.3612 -0.4601
 6491SOL    MW425732   2.902   4.819   1.198 -0.5344  0.1199  0.3348
 6492SOL     OW25733   2.356   4.321   3.615 -0.4552  0.3427 -0.1346
 6492SOL    HW225734   2.353   4.226   3.600 -0.1983  0.1185  1.1096
 6492SOL    HW325735   2.423   4.353   3.555 -0.2972 -0.3200 -0.3186
 6492SOL    MW425736   2.365   4.313   3.605 -0.4014 -0.1839 -0.0854
 6493SOL     OW25737   2.275   1.197   5.095 -0.1986 -0.2341  0.1657
 6493SOL    HW225738   2.284   1.154   5.010  0.5421  0.6099 -0.1996
 6493SOL    HW325739   2.301   1.130   5.159 -0.1123 -0.6616 -0.3116
 6493SOL    MW425740   2.280   1.183   5.092  0.3157 -0.1629 -0.2353
 6494SOL     OW25741   2.033   5.999   5.258  0.3029 -0.1106 -0.2723
 6494SOL    HW225742   2.096   6.059   5.218 -0.7110  0.4077 -1.1438
 6494SOL    HW325743   2.029   5.925   5.197 -1.0651  0.5698 -1.0407
 6494SOL    MW425744   2.041   5.997   5.245  0.0764 -0.2663 -0.2203
 6495SOL     OW25745   1.871   4.360   2.287 -0.1394 -0.8524 -0.0625
 6495SOL    HW225746   1.949   4.350   2.341  0.5461  1.4263 -0.5189
 6495SOL    HW325747   1.822   4.431   2.327 -0.2213  0.0857 -1.7126
 6495SOL    MW425748   1.875   4.368   2.299 -0.2891  0.1702 -0.5914
 6496SOL     OW25749   5.262   4.287   0.491 -0.3245 -0.4766 -0.1634
 6496SOL    HW225750   5.202   4.325   0.556 -0.0611  1.0467 -0.7798
 6496SOL    HW325751   5.348   4.295   0.531 -0.1615  0.4672 -0.6978
 6496SOL    MW425752   5.265   4.293   0.505  0.3270  0.0101  0.3336
 6497SOL     OW25753   1.853   5.509   5.429 -0.1180  0.1119 -0.8435
 6497SOL    HW225754   1.936   5.539   5.467 -0.7015 -0.7042  1.2029
 6497SOL    HW325755   1.870   5.504   5.335  2.2158 -0.2167 -0.4630
 6497SOL    MW425756   1.866   5.512   5.422 -0.5148  0.1986 -0.9892
 6498SOL     OW25757   4.934   6.092   3.949  0.1720 -0.4687  0.6631
 6498SOL    HW225758   4.936   6.100   3.854 -0.1629 -0.8318  0.6205
 6498SOL    HW325759   4.850   6.050   3.967 -1.7443  3.2309  1.4183
 6498SOL    MW425760   4.923   6.087   3.939 -0.0640  0.2809  0.4552
 6499SOL     OW25761   5.430   0.077   2.406 -0.1305  0.1707  0.1315
 6499SOL    HW225762   5.416  -0.017   2.393  1.0612  0.2699 -2.5408
 6499SOL    HW325763   5.523   0.090   2.388 -0.2232  1.8508  0.7298
 6499SOL    MW425764   5.440   0.066   2.402 -0.3297 -0.1988 -0.1884
 6500SOL     OW25765   3.585   1.409   0.106 -0.4165 -0.6207  0.0274
 6500SOL    HW225766   3.509   1.467   0.098  0.6439  0.6467 -1.4557
 6500SOL    HW325767   3.602   1.407   0.200 -2.1067 -0.7254  0.3665
 6500SOL    MW425768   3.577   1.417   0.118 -0.2495 -0.0207  0.9344
 6501SOL     OW25769   2.265   1.912   4.834  0.1457 -0.4604  0.1817
 6501SOL    HW225770   2.325   1.838   4.821 -1.1923 -1.5827  0.2123
 6501SOL    HW325771   2.184   1.885   4.791 -0.4951  0.8413  0.5275
 6501SOL    MW425772   2.262   1.898   4.827 -0.1383 -0.2053  0.3588
 6502SOL     OW25773   5.017   3.499   4.310  0.6353  0.1802  0.2547
 6502SOL    HW225774   5.026   3.540   4.224 -1.0234 -1.4617 -0.8086
 6502SOL    HW325775   4.955   3.427   4.295  0.6356 -0.4334  2.7507
 6502SOL    MW425776   5.010   3.495   4.296  0.3619 -0.1027 -0.0924
 6503SOL     OW25777   0.750   0.069   5.257  0.8432  0.1542  0.1209
 6503SOL    HW225778   0.832   0.022   5.239  0.8241 -0.7483  2.0410
 6503SOL    HW325779   0.683   0.020   5.210  1.0530 -0.8527  0.8231
 6503SOL    MW425780   0.752   0.056   5.249  0.7569  0.4802 -0.2845
 6504SOL     OW25781   0.306   3.219   5.001 -0.0190 -0.1925 -0.0274
 6504SOL    HW225782   0.297   3.303   4.954 -1.1176 -1.6139 -2.6008
 6504SOL    HW325783   0.220   3.204   5.040 -0.3349 -0.8237 -0.9322
 6504SOL    MW425784   0.293   3.228   5.000 -0.2125  0.1015 -0.1079
 6505SOL     OW25785   1.445   2.277   2.682  0.1837 -0.2573 -0.4208
 6505SOL    HW225786   1.431   2.371   2.674  0.0796 -0.1462  0.9269
 6505SOL    HW325787   1.449   2.261   2.776  0.1188 -1.6137 -0.6308
 6505SOL    MW425788   1.444   2.287   2.693  0.0974  0.1592  0.1167
 6506SOL     OW25789   5.891   0.215   3.350  0.6793 -0.2251 -0.2773
 6506SOL    HW225790   5.865   0.280   3.416 -0.0846 -1.1467  0.3630
 6506SOL    HW325791   5.808   0.176   3.322  1.1006 -0.6323 -0.9637
 6506SOL    MW425792   5.876   0.219   3.355  0.8896  0.1015  0.0323
 6507SOL     OW25793   0.805   4.066   4.561  0.4224  0.6809 -0.1367
 6507SOL    HW225794   0.787   3.995   4.500  0.1620  1.2840 -0.7896
 6507SOL    HW325795   0.881   4.111   4.524 -0.4891  1.7957 -0.7157
 6507SOL    MW425796   0.813   4.063   4.548  0.5355 -0.5926 -0.2861
 6508SOL     OW25797   5.639   3.808   2.665  0.7390  0.5384 -0.2562
 6508SOL    HW225798   5.640   3.750   2.741  3.1058 -0.0043 -0.6241
 6508SOL    HW325799   5.719   3.860   2.674  0.1216  1.7620 -1.4378
 6508SOL    MW425800   5.650   3.807   2.677 -0.6211  0.0795 -0.1002
 6509SOL     OW25801   1.093   5.436   2.546  0.5182 -0.2977  0.2331
 6509SOL    HW225802   1.105   5.371   2.477 -0.0253 -0.7096  0.5202
 6509SOL    HW325803   1.094   5.385   2.627 -0.3306 -0.0036  0.4358
 6509SOL    MW425804   1.095   5.420   2.548  0.4231  0.1938 -0.4924
 6510SOL     OW25805   1.794   1.009   1.576 -0.2142  0.2214 -0.8354
 6510SOL    HW225806   1.725   0.956   1.616  0.0174  0.6856  0.1876
 6510SOL    HW325807   1.871   0.992   1.629  0.3877 -0.0046 -1.7550
 6510SOL    MW425808   1.795   1.000   1.588  0.2320 -0.4394  0.2982
 6511SOL     OW25809   5.882   3.240   6.404 -0.0362 -0.2840 -0.8752
 6511SOL    HW225810   5.956   3.292   6.372  1.0681 -1.4993 -0.4034
 6511SOL    HW325811   5.881   3.163   6.348 -0.0314 -0.9536  0.0337
 6511SOL    MW425812   5.892   3.237   6.393 -0.1098 -0.3747 -0.8057
 6512SOL     OW25813   2.489   1.536   1.726 -0.4588  0.0055  0.5791
 6512SOL    HW225814   2.477   1.542   1.821 -1.8734 -0.8945  0.4846
 6512SOL    HW325815   2.422   1.475   1.697  1.7381 -1.9996 -0.6643
 6512SOL    MW425816   2.479   1.529   1.735  0.0325  0.4916  0.1038
 6513SOL     OW25817   6.107   1.338   1.754 -0.3407 -0.4240  0.2244
 6513SOL    HW225818   6.106   1.356   1.849 -0.5925  0.9341 -0.0102
 6513SOL    HW325819   6.080   1.421   1.714  3.1656  0.1946 -1.2183
 6513SOL    MW425820   6.103   1.351   1.762  0.2415  0.1708  0.3686
 6514SOL     OW25821   3.994   4.520   0.761 -0.0662 -0.1636  0.4517
 6514SOL    HW225822   3.940   4.590   0.798 -0.1680  0.7403 -1.2592
 6514SOL    HW325823   4.066   4.510   0.823 -1.6104 -0.6682  2.2538
 6514SOL    MW425824   3.997   4.528   0.774  0.6681 -0.0824 -0.2184
 6515SOL     OW25825   4.038   4.285   2.268  0.0828  0.1576  0.1031
 6515SOL    HW225826   4.004   4.200   2.240 -1.1922  0.8297 -0.4658
 6515SOL    HW325827   4.074   4.269   2.355 -1.1844 -0.7394  0.4996
 6515SOL    MW425828   4.038   4.272   2.276  0.0451  0.0573  0.1533
 6516SOL     OW25829   4.071   3.334   4.894 -0.0182 -0.1610 -0.1546
 6516SOL    HW225830   4.009   3.334   4.822 -0.5574 -3.3137  0.1816
 6516SOL    HW325831   4.150   3.374   4.858 -1.1376  0.8922 -1.5733
 6516SOL    MW425832   4.073   3.339   4.880  0.2244 -0.4898  0.3877
 6517SOL     OW25833   3.215   6.247   4.177 -0.8351  0.3916 -0.1975
 6517SOL    HW225834   3.143   6.257   4.114  0.0477 -0.1382 -1.3088
 6517SOL    HW325835   3.267   6.326   4.166  0.2457 -0.4514 -1.3576
 6517SOL    MW425836   3.212   6.259   4.168 -0.2995 -0.3748 -0.1669
 6518SOL     OW25837   5.450   2.251   3.526  0.0789  0.0132  0.5291
 6518SOL    HW225838   5.514   2.239   3.455  0.2513 -1.1613  0.8525
 6518SOL    HW325839   5.373   2.289   3.484  0.2435 -0.5097 -0.2542
 6518SOL    MW425840   5.448   2.254   3.511 -0.6981 -0.3248 -0.0345
 6519SOL     OW25841   0.251   0.013   2.995  0.1421 -0.0495 -0.4833
 6519SOL    HW225842   0.320  -0.037   2.953  1.5844  2.9212 -1.9695
 6519SOL    HW325843   0.170  -0.031   2.969  1.3146 -2.1501 -0.8010
 6519SOL    MW425844   0.249   0.001   2.986 -0.4363  0.1181 -0.0429
 6520SOL     OW25845   0.814   2.306   2.847 -0.5598  0.3512 -0.0408
 6520SOL    HW225846   0.862   2.230   2.880  0.2203 -0.5852 -3.0284
 6520SOL    HW325847   0.724   2.293   2.878  0.1646 -0.1213  2.0393
 6520SOL    MW425848   0.808   2.295   2.856 -0.9244  0.5906 -1.0064
 6521SOL     OW25849   4.942   2.854   4.977  0.0068  0.0328 -0.2855
 6521SOL    HW225850   4.855   2.840   4.939 -0.2798  0.0085  0.3542
 6521SOL    HW325851   4.996   2.885   4.905 -0.2455 -1.0377 -0.9463
 6521SOL    MW425852   4.938   2.856   4.963 -0.1147  0.3079 -0.6593
 6522SOL     OW25853   1.976   1.028   4.235  0.8760  0.2598  0.0210
 6522SOL    HW225854   1.921   1.063   4.165 -0.8747  0.0876  1.2536
 6522SOL    HW325855   2.041   0.975   4.189  0.0320  0.4740 -1.5078
 6522SOL    MW425856   1.977   1.026   4.220  0.5697 -0.4619 -0.0115
 6523SOL     OW25857   1.460   2.196   5.207  0.1122 -0.6746 -0.4540
 6523SOL    HW225858   1.450   2.116   5.259 -1.0435 -0.6368 -0.5786
 6523SOL    HW325859   1.445   2.168   5.116 -0.8342 -0.2513 -0.4470
 6523SOL    MW425860   1.457   2.182   5.202 -0.1813 -0.4061 -0.3487
 6524SOL     OW25861   3.267   1.181   1.586 -0.0131  0.2874 -0.0833
 6524SOL    HW225862   3.336   1.126   1.622  1.2574  1.6233 -0.3697
 6524SOL    HW325863   3.272   1.166   1.491  0.1439  0.6617 -0.1360
 6524SOL    MW425864   3.277   1.172   1.578 -0.1586 -0.1485 -0.0309
 6525SOL     OW25865   2.136   3.193   4.164  0.1450 -0.6436  0.4537
 6525SOL    HW225866   2.086   3.275   4.155 -1.5095 -1.7070 -0.6402
 6525SOL    HW325867   2.227   3.218   4.146 -0.4779  0.7747 -0.9017
 6525SOL    MW425868   2.141   3.207   4.161 -0.1511  0.2574  0.4715
 6526SOL     OW25869   3.779   3.049   6.160 -0.5399  0.0022 -0.2895
 6526SOL    HW225870   3.777   2.953   6.171  1.1171  0.0966  1.3882
 6526SOL    HW325871   3.859   3.065   6.110 -0.9590  0.5136 -0.8081
 6526SOL    MW425872   3.789   3.038   6.155 -0.3195  0.0173  0.0724
 6527SOL     OW25873   4.976   1.278   0.067 -0.0032 -0.2891  0.3668
 6527SOL    HW225874   4.939   1.226  -0.005  0.1644  1.6189 -1.2039
 6527SOL    HW325875   5.060   1.237   0.086 -0.2607 -1.1079 -0.2174
 6527SOL    MW425876   4.982   1.266   0.060 -1.0734  0.0185  0.6041
 6528SOL     OW25877   0.986   4.293   2.115  0.0909  0.3869 -0.3717
 6528SOL    HW225878   0.984   4.206   2.154  0.6664  0.5257 -0.0248
 6528SOL    HW325879   0.895   4.323   2.118  0.0709  0.2644  0.5651
 6528SOL    MW425880   0.974   4.285   2.120  0.9683  0.3266 -0.1338
 6529SOL     OW25881   5.209   4.952   4.417 -0.1282  0.2307  0.4688
 6529SOL    HW225882   5.176   5.037   4.447 -1.6984 -0.0765 -0.2939
 6529SOL    HW325883   5.225   4.965   4.323 -1.0048 -0.4900  0.2108
 6529SOL    MW425884   5.207   4.965   4.408  0.0591 -0.2691 -0.1825
 6530SOL     OW25885   6.006   1.839   5.930 -0.5610 -0.5771  0.1506
 6530SOL    HW225886   6.082   1.876   5.975  0.2842 -0.0085 -1.6239
 6530SOL    HW325887   6.016   1.869   5.839 -4.4879  2.1330  0.3406
 6530SOL    MW425888   6.017   1.848   5.924 -0.2793 -0.1226 -0.3195
 6531SOL     OW25889   2.432   1.465   3.721  0.2649  0.0358  0.3859
 6531SOL    HW225890   2.411   1.373   3.707  1.3351 -0.2048  0.2929
 6531SOL    HW325891   2.402   1.483   3.810 -0.7990 -0.1430  0.0743
 6531SOL    MW425892   2.425   1.455   3.731 -0.6445 -0.4776 -0.0222
 6532SOL     OW25893   3.324   6.257   2.794  0.1227  0.4712 -0.3171
 6532SOL    HW225894   3.293   6.315   2.864  2.3378 -0.2388  1.3639
 6532SOL    HW325895   3.278   6.175   2.811  1.8916 -0.2412  1.4999
 6532SOL    MW425896   3.314   6.254   2.806  0.5053  0.5699  0.4016
 6533SOL     OW25897   4.771   5.419   5.427  0.2004  0.3868  0.0049
 6533SOL    HW225898   4.736   5.426   5.516  0.1409  0.1947 -0.0031
 6533SOL    HW325899   4.716   5.478   5.375 -1.3543 -1.3161 -0.3772
 6533SOL    MW425900   4.759   5.428   5.432  0.2409  0.2882 -0.2586
 6534SOL     OW25901   3.182   2.262   3.455 -0.5053  0.5171 -0.8007
 6534SOL    HW225902   3.151   2.242   3.543  2.1715 -1.0972 -0.1204
 6534SOL    HW325903   3.238   2.339   3.466 -3.0182  2.6391 -1.8081
 6534SOL    MW425904   3.185   2.269   3.468 -0.1420  0.1285  0.1674
 6535SOL     OW25905   1.179   2.612   2.788  0.4988 -0.2534  0.3418
 6535SOL    HW225906   1.211   2.689   2.834 -2.0065  1.5759 -0.7175
 6535SOL    HW325907   1.230   2.609   2.707  0.4641  0.4774  0.2858
 6535SOL    MW425908   1.190   2.622   2.783 -0.2472  0.0301 -0.3765
 6536SOL     OW25909   0.165   6.187   2.671  0.0333  0.0406 -0.1864
 6536SOL    HW225910   0.114   6.179   2.591  2.2843 -2.3687 -1.5441
 6536SOL    HW325911   0.180   6.281   2.682  0.4910  0.4088 -3.1804
 6536SOL    MW425912   0.160   6.198   2.662  0.0965 -0.2330  0.5170
 6537SOL     OW25913   2.038   3.910   5.361 -0.0044 -0.4588 -0.6225
 6537SOL    HW225914   2.105   3.955   5.310  0.4583 -0.6712 -0.2076
 6537SOL    HW325915   1.980   3.871   5.295  0.8928 -1.1890 -1.0039
 6537SOL    MW425916   2.039   3.910   5.346  0.3467 -0.2377 -0.3208
 6538SOL     OW25917   4.862   5.931   2.105  0.3361  0.4140 -0.0597
 6538SOL    HW225918   4.801   5.909   2.034 -1.4961  0.1946  1.5135
 6538SOL    HW325919   4.817   5.999   2.155  0.4456 -1.1541  2.3105
 6538SOL    MW425920   4.848   5.937   2.102 -0.0023  0.5836 -1.0145
 6539SOL     OW25921   2.668   6.069   4.433 -0.0875  0.2753  0.0529
 6539SOL    HW225922   2.667   6.067   4.529 -0.9714  1.5569  0.1086
 6539SOL    HW325923   2.741   6.127   4.411 -1.3202  1.9384  0.0814
 6539SOL    MW425924   2.677   6.077   4.443 -0.3024 -0.1913 -0.4967
 6540SOL     OW25925   2.890   0.146   4.016 -0.1044  0.2603 -0.0293
 6540SOL    HW225926   2.802   0.123   3.986 -0.4895  1.5781  0.0229
 6540SOL    HW325927   2.929   0.191   3.941 -0.6458  2.5272  0.9735
 6540SOL    MW425928   2.884   0.149   4.002  0.2460  0.2087 -0.1725
 6541SOL     OW25929   0.416   2.545   2.333  0.3779 -0.3289 -0.3057
 6541SOL    HW225930   0.510   2.526   2.331  0.0541 -2.0512 -0.4639
 6541SOL    HW325931   0.395   2.574   2.244  0.8515  0.6684 -0.1098
 6541SOL    MW425932   0.426   2.546   2.321  0.4963  0.0264 -0.0575
 6542SOL     OW25933   1.224   1.209   5.733 -0.0826  0.1129 -0.3073
 6542SOL    HW225934   1.229   1.141   5.801  0.9171 -0.8970 -1.3486
 6542SOL    HW325935   1.163   1.173   5.668 -0.5046  0.7788 -0.2971
 6542SOL    MW425936   1.216   1.195   5.734  0.2924  0.4473  0.3940
 6543SOL     OW25937   0.274   0.931   4.541  0.4173  0.1679 -0.0971
 6543SOL    HW225938   0.265   0.924   4.636 -0.6429  0.6992 -0.1468
 6543SOL    HW325939   0.192   0.972   4.512  0.7965  0.1569 -1.2213
 6543SOL    MW425940   0.262   0.936   4.550 -0.5372  0.1351 -0.0550
 6544SOL     OW25941   2.614   5.938   1.605  0.3789  0.5578  0.5716
 6544SOL    HW225942   2.550   5.893   1.659  0.7355  0.8189  1.2335
 6544SOL    HW325943   2.563   5.977   1.534 -0.1204  0.3333  0.8029
 6544SOL    MW425944   2.599   5.937   1.603 -0.1198  0.0898 -0.5256
 6545SOL     OW25945   3.448   1.196   5.093  0.6678  0.3318 -0.1149
 6545SOL    HW225946   3.485   1.277   5.127 -0.0664  0.7502 -0.2914
 6545SOL    HW325947   3.490   1.183   5.009  1.9905 -0.3439  0.6239
 6545SOL    MW425948   3.458   1.205   5.086 -1.0082 -0.2672 -0.1730
 6546SOL     OW25949   3.334   0.141   1.289 -0.0438 -0.8785  0.0394
 6546SOL    HW225950   3.253   0.099   1.260 -0.3295  0.4237 -1.1968
 6546SOL    HW325951   3.401   0.074   1.279 -0.5009 -1.1261 -1.7445
 6546SOL    MW425952   3.332   0.127   1.284 -0.2068  0.1836 -0.4568
 6547SOL     OW25953   2.082   5.605   0.455 -0.4870 -0.2529  0.4923
 6547SOL    HW225954   2.044   5.680   0.501  0.0033  0.8640 -0.8551
 6547SOL    HW325955   2.170   5.597   0.490 -0.4180  0.0260  0.3807
 6547SOL    MW425956   2.088   5.614   0.466 -0.3736 -0.0737 -0.0700
 6548SOL     OW25957   4.353   5.240   1.481 -0.6204 -0.0324  0.1618
 6548SOL    HW225958   4.273   5.194   1.508 -0.7292  0.3250  0.4667
 6548SOL    HW325959   4.332   5.333   1.492  0.6041  0.0369  2.5310
 6548SOL    MW425960   4.339   5.246   1.486  0.3078 -0.0402  0.4541
 6549SOL     OW25961   3.252   6.014   2.425 -0.1582 -0.1320  0.5534
 6549SOL    HW225962   3.238   6.107   2.442 -0.0353  0.1668 -0.8033
 6549SOL    HW325963   3.318   6.013   2.355 -2.3002 -1.0921 -1.6201
 6549SOL    MW425964   3.259   6.026   2.418 -0.3848 -0.4157  0.3590
 6550SOL     OW25965   6.129   2.066   4.139 -0.3609 -0.1972 -0.2481
 6550SOL    HW225966   6.176   2.135   4.187  0.1662 -0.8038  0.1242
 6550SOL    HW325967   6.074   2.113   4.077  0.5663  0.5379 -0.5282
 6550SOL    MW425968   6.128   2.081   4.137  0.0339 -0.1889 -0.4556
 6551SOL     OW25969   6.291   1.659   5.613  0.5156  0.2278 -0.3797
 6551SOL    HW225970   6.293   1.616   5.699 -0.3208 -1.7512 -1.2842
 6551SOL    HW325971   6.282   1.587   5.551  0.6324  1.6501 -2.1185
 6551SOL    MW425972   6.290   1.644   5.616 -0.0521  0.0862 -0.2095
 6552SOL     OW25973   1.283   1.669   6.136  0.3451  0.3300 -0.5991
 6552SOL    HW225974   1.209   1.609   6.138 -1.2742  2.2025 -0.7701
 6552SOL    HW325975   1.308   1.674   6.044  0.9526 -0.5681 -0.4975
 6552SOL    MW425976   1.276   1.662   6.124  0.1572  0.2541  0.5077
 6553SOL     OW25977   3.205   5.206   1.421 -0.5157 -0.6942  0.5055
 6553SOL    HW225978   3.291   5.248   1.423 -0.4343 -0.8794  1.2213
 6553SOL    HW325979   3.154   5.259   1.360  0.3639 -1.0955 -0.6043
 6553SOL    MW425980   3.210   5.219   1.413  0.2965 -0.1254  0.6705
 6554SOL     OW25981   0.475   0.062   6.007  0.0634 -0.7943  0.3419
 6554SOL    HW225982   0.459   0.006   5.932  0.7997  1.2972 -1.4826
 6554SOL    HW325983   0.551   0.115   5.982  0.1523  0.1793  2.4439
 6554SOL    MW425984   0.483   0.062   5.994  0.4717 -0.1258  0.2394
 6555SOL     OW25985   5.319   3.814   2.190  0.7433  0.3425  0.5850
 6555SOL    HW225986   5.388   3.766   2.143 -0.7539 -0.0482 -1.3370
 6555SOL    HW325987   5.366   3.879   2.242  2.5416  0.8058 -1.4726
 6555SOL    MW425988   5.334   3.816   2.191  0.2252 -0.0143  0.0738
 6556SOL     OW25989   2.854   1.969   0.365  0.2847  0.2639  0.0734
 6556SOL    HW225990   2.904   2.050   0.356  2.0216 -0.7907 -0.1886
 6556SOL    HW325991   2.877   1.936   0.451  1.9316 -1.3942 -0.9337
 6556SOL    MW425992   2.864   1.976   0.375  0.1468  0.0817 -0.2237
 6557SOL     OW25993   4.438   3.358   5.626  0.0453  0.3251  0.4760
 6557SOL    HW225994   4.387   3.277   5.630 -2.0575  1.4389 -1.5191
 6557SOL    HW325995   4.460   3.377   5.718 -1.1367 -1.4370  1.1753
 6557SOL    MW425996   4.434   3.350   5.639  0.0103 -0.3092 -0.1008
 6558SOL     OW25997   5.840   4.217   2.180 -0.3202  0.1648  0.3183
 6558SOL    HW225998   5.869   4.237   2.092  0.5137  0.8808  0.7391
 6558SOL    HW325999   5.750   4.187   2.170 -0.0144 -0.4202 -0.8382
 6558SOL    MW426000   5.832   4.216   2.167 -1.1662  0.4557  0.8233
 6559SOL     OW26001   1.552   0.521   2.690  0.1418 -0.6493 -0.0968
 6559SOL    HW226002   1.482   0.529   2.626 -1.1642  0.4516  1.3832
 6559SOL    HW326003   1.507   0.519   2.775  1.8866  1.3674  0.9949
 6559SOL    MW426004   1.537   0.522   2.693  0.6580  0.3737  0.1736
 6560SOL     OW26005   3.702   4.579   6.102 -0.0807  0.4832 -0.0618
 6560SOL    HW226006   3.628   4.530   6.137 -0.5829  1.5535  0.4021
 6560SOL    HW326007   3.683   4.588   6.009  1.4346 -2.6848 -0.8265
 6560SOL    MW426008   3.690   4.574   6.094 -1.0152 -0.0829  0.6559
 6561SOL     OW26009   4.622   1.877   1.737  1.0398 -0.0891 -0.1409
 6561SOL    HW226010   4.631   1.802   1.795 -0.9095  1.0098  1.7215
 6561SOL    HW326011   4.561   1.936   1.782 -0.7839  0.7671 -3.3559
 6561SOL    MW426012   4.615   1.875   1.750  0.8460  0.7438  0.6321
 6562SOL     OW26013   5.716   0.427   4.354  0.4617  0.4112 -0.4523
 6562SOL    HW226014   5.637   0.384   4.322  1.1369  0.3156 -2.0606
 6562SOL    HW326015   5.743   0.375   4.430  0.1004 -0.7513 -1.1015
 6562SOL    MW426016   5.709   0.415   4.360 -0.4848  0.7077  0.0101
 6563SOL     OW26017   5.346   0.032   4.639  0.3838 -0.6709 -0.7166
 6563SOL    HW226018   5.304   0.027   4.725  0.6077 -0.6877 -0.6093
 6563SOL    HW326019   5.297   0.101   4.594  1.2805  0.4864 -0.0036
 6563SOL    MW426020   5.334   0.041   4.645 -0.1934  0.7921 -0.1695
 6564SOL     OW26021   5.796   5.790   2.866  0.1309  0.6351 -0.1898
 6564SOL    HW226022   5.871   5.828   2.911  0.8435 -0.4863 -0.3859
 6564SOL    HW326023   5.796   5.698   2.894 -0.5931  0.3964 -0.9443
 6564SOL    MW426024   5.806   5.783   2.876  0.5029 -0.1585 -0.2540
 6565SOL     OW26025   0.383   1.867   4.528  0.3123  0.1842 -0.9829
 6565SOL    HW226026   0.412   1.955   4.504 -0.1581  0.8391  0.7218
 6565SOL    HW326027   0.430   1.847   4.608  1.0760 -1.5181 -1.8014
 6565SOL    MW426028   0.393   1.876   4.535  0.0236 -0.5507 -0.2893
 6566SOL     OW26029   3.525   0.390   5.822 -0.4185  0.0647 -0.1007
 6566SOL    HW226030   3.598   0.329   5.837  1.2452  1.7364 -0.9200
 6566SOL    HW326031   3.453   0.335   5.794 -0.1897 -1.9253  2.7393
 6566SOL    MW426032   3.525   0.374   5.820 -0.1983  0.0386  0.6421
 6567SOL     OW26033   4.050   3.307   3.063 -0.3309  0.1581  0.1457
 6567SOL    HW226034   4.078   3.383   3.012  0.4291  0.4955  1.0409
 6567SOL    HW326035   4.054   3.336   3.154 -1.2261 -0.5749  0.4336
 6567SOL    MW426036   4.054   3.321   3.068  0.2291  0.8789  0.1379
 6568SOL     OW26037   6.366   3.351   5.558  0.1254 -0.1187 -0.1561
 6568SOL    HW226038   6.427   3.406   5.509 -0.1696  0.9002  0.5922
 6568SOL    HW326039   6.289   3.343   5.502  0.7985 -1.1455 -0.9697
 6568SOL    MW426040   6.364   3.357   5.544 -0.3395  0.1875  0.3748
 6569SOL     OW26041   5.877   1.894   0.324 -0.0428 -0.2604 -0.6483
 6569SOL    HW226042   5.832   1.824   0.371 -1.4322  0.6145 -0.5964
 6569SOL    HW326043   5.924   1.942   0.393 -1.7764  0.7995 -0.1187
 6569SOL    MW426044   5.877   1.891   0.340  0.0035 -0.1909 -0.2458
 6570SOL     OW26045   4.343   3.340   1.817  0.3029 -0.7383 -0.5355
 6570SOL    HW226046   4.359   3.387   1.735 -1.7543 -1.8050 -1.6126
 6570SOL    HW326047   4.312   3.254   1.790  0.8997 -1.6100  1.4023
 6570SOL    MW426048   4.341   3.335   1.803  0.2435  0.6268 -0.0243
 6571SOL     OW26049   4.966   4.829   4.490 -0.2426 -0.2943 -0.1530
 6571SOL    HW226050   4.965   4.793   4.579 -0.9184  0.3544  0.1124
 6571SOL    HW326051   5.052   4.871   4.482  0.0051 -0.7562  0.0192
 6571SOL    MW426052   4.978   4.829   4.501 -0.4555 -0.9150  0.3402
 6572SOL     OW26053   2.443   5.869   1.865  0.2422  0.2438  0.1606
 6572SOL    HW226054   2.515   5.904   1.916 -0.6096 -0.0943  1.6637
 6572SOL    HW326055   2.411   5.795   1.916  0.2328 -1.0200 -1.5772
 6572SOL    MW426056   2.448   5.864   1.878 -0.0271  0.3335  0.5711
 6573SOL     OW26057   3.084   3.391   5.774  0.1705  0.0906 -0.1313
 6573SOL    HW226058   3.056   3.342   5.852 -0.9666 -1.1407 -1.2443
 6573SOL    HW326059   3.012   3.378   5.712  0.2521  2.4841 -0.7982
 6573SOL    MW426060   3.071   3.383   5.776  0.1379  0.0177  0.2017
 6574SOL     OW26061   0.180   0.372   5.403  0.1886 -0.0325 -0.3801
 6574SOL    HW226062   0.089   0.366   5.374  0.5890  0.2508 -1.7812
 6574SOL    HW326063   0.188   0.308   5.473 -1.2975  0.5144  0.3254
 6574SOL    MW426064   0.169   0.363   5.408 -0.0970  0.0483  0.0530
 6575SOL     OW26065   5.171   0.369   0.187 -0.8791  0.2773  0.5273
 6575SOL    HW226066   5.101   0.393   0.127 -1.6816  0.5400  1.5413
 6575SOL    HW326067   5.126   0.336   0.265  0.1438 -1.8967  0.2902
 6575SOL    MW426068   5.156   0.368   0.190 -0.4096  0.1327 -0.3506
 6576SOL     OW26069   0.309   0.002   4.589 -0.0517  0.6425  0.6798
 6576SOL    HW226070   0.303  -0.032   4.678 -0.5895  0.9166  0.7518
 6576SOL    HW326071   0.220   0.032   4.569 -0.0938 -0.0018 -0.1820
 6576SOL    MW426072   0.296   0.001   4.598 -0.4239  0.4649  0.6946
 6577SOL     OW26073   1.121   3.520   1.786 -0.2328 -0.3667 -0.1178
 6577SOL    HW226074   1.198   3.464   1.787 -0.9937 -1.4702  1.2623
 6577SOL    HW326075   1.137   3.583   1.857 -0.7976 -0.9424  0.5452
 6577SOL    MW426076   1.133   3.521   1.796 -1.1577 -0.0036 -0.0157
 6578SOL     OW26077   5.635   1.630   2.895 -0.0473  0.3775 -0.5691
 6578SOL    HW226078   5.561   1.684   2.867 -1.1004 -1.3166 -1.2498
 6578SOL    HW326079   5.602   1.540   2.889  0.9391 -0.2920  2.5336
 6578SOL    MW426080   5.621   1.625   2.890 -0.0168 -0.2726  0.4291
 6579SOL     OW26081   3.364   2.292   3.880  0.0241  0.2309 -0.4338
 6579SOL    HW226082   3.353   2.387   3.876  1.6020  0.4338 -0.6081
 6579SOL    HW326083   3.454   2.279   3.908 -0.2160 -1.2297 -0.2265
 6579SOL    MW426084   3.374   2.303   3.883 -0.1355 -0.1787  0.1157
 6580SOL     OW26085   0.340   0.963   3.209  0.0863 -0.1617 -0.1814
 6580SOL    HW226086   0.425   0.924   3.187  0.7740  0.9855  0.2862
 6580SOL    HW326087   0.305   0.992   3.125  0.5481  0.0805 -0.2980
 6580SOL    MW426088   0.347   0.962   3.195 -0.3202 -0.4052  0.7706
 6581SOL     OW26089   4.201   2.850   2.462  0.7570  0.8293 -0.7961
 6581SOL    HW226090   4.158   2.805   2.535 -0.6077  0.7802 -1.6014
 6581SOL    HW326091   4.285   2.877   2.498  0.5401 -0.0810  0.4934
 6581SOL    MW426092   4.206   2.848   2.477  0.0984 -0.1003  0.1616
 6582SOL     OW26093   0.263   3.850   2.825 -0.2791 -0.2194  0.4862
 6582SOL    HW226094   0.336   3.809   2.871 -0.3367  0.9249  1.6741
 6582SOL    HW326095   0.228   3.913   2.888 -1.5887  0.0412 -0.4647
 6582SOL    MW426096   0.268   3.853   2.839 -0.5937 -0.0502 -0.2715
 6583SOL     OW26097   2.299   0.618   6.060 -0.1525  0.1661 -0.0065
 6583SOL    HW226098   2.339   0.536   6.034 -0.9330 -0.7756  1.5830
 6583SOL    HW326099   2.264   0.601   6.148 -0.3618  2.1826  0.3598
 6583SOL    MW426100   2.300   0.605   6.068 -0.4013 -0.5860  0.2690
 6584SOL     OW26101   2.052   2.959   0.824  0.0270  0.3926 -0.5862
 6584SOL    HW226102   2.118   2.891   0.834  2.0314  2.1797 -1.0907
 6584SOL    HW326103   1.998   2.951   0.903  0.9614 -0.9827 -0.0471
 6584SOL    MW426104   2.053   2.949   0.836  0.2826 -0.3414  0.2970
 6585SOL     OW26105   6.183   3.981   5.678  0.1233 -0.0120 -0.1405
 6585SOL    HW226106   6.218   3.895   5.699 -0.6069 -0.3751 -0.3871
 6585SOL    HW326107   6.089   3.967   5.665 -0.3479  1.1071  1.5727
 6585SOL    MW426108   6.175   3.968   5.679 -0.5331 -0.0097 -0.5925
 6586SOL     OW26109   3.300   1.490   2.804 -0.3579 -0.1313 -0.6427
 6586SOL    HW226110   3.386   1.452   2.822 -1.1997 -2.5403 -1.3938
 6586SOL    HW326111   3.283   1.472   2.712 -0.7642  2.3454 -1.1436
 6586SOL    MW426112   3.309   1.483   2.794  0.3198  0.0022  0.2562
 6587SOL     OW26113   5.060   1.878   3.994 -0.1991  0.5507 -0.0708
 6587SOL    HW226114   4.984   1.840   3.949  0.3125 -2.3330  1.2897
 6587SOL    HW326115   5.023   1.921   4.071 -0.6321  1.4631 -0.7590
 6587SOL    MW426116   5.045   1.879   3.998  0.2380 -0.1924  0.1762
 6588SOL     OW26117   5.655   3.287   2.567 -0.6053  0.3936  0.0382
 6588SOL    HW226118   5.561   3.299   2.554 -0.4845 -0.2234 -1.6762
 6588SOL    HW326119   5.664   3.194   2.587 -0.3512  0.4243  0.0609
 6588SOL    MW426120   5.644   3.276   2.568  0.1168 -0.0346  0.5202
 6589SOL     OW26121   4.565   4.711   4.899  0.3188 -0.3800  0.1091
 6589SOL    HW226122   4.563   4.790   4.846  1.9410 -0.3399  0.0704
 6589SOL    HW326123   4.627   4.730   4.969 -0.9311 -0.8432  1.3953
 6589SOL    MW426124   4.573   4.724   4.901  0.6261 -0.0343 -0.2989
 6590SOL     OW26125   1.122   4.523   1.963  0.7132  0.4609 -0.5214
 6590SOL    HW226126   1.216   4.515   1.943  0.8914 -0.3348  0.5250
 6590SOL    HW326127   1.104   4.448   2.020 -0.1436  1.5972  0.7445
 6590SOL    MW426128   1.132   4.512   1.968  0.8216 -0.1400  1.1075
 6591SOL     OW26129   5.369   3.908   5.918  0.1200  0.4412  0.2414
 6591SOL    HW226130   5.342   3.869   6.001 -0.4857 -2.1781 -1.0899
 6591SOL    HW326131   5.295   3.964   5.892 -0.5374 -0.2890  0.5256
 6591SOL    MW426132   5.356   3.911   5.925 -0.2943  0.4076 -0.5162
 6592SOL     OW26133   3.189   2.580   6.201  0.4097  0.1440 -0.9074
 6592SOL    HW226134   3.227   2.632   6.272  0.7769 -0.5607 -0.5804
 6592SOL    HW326135   3.103   2.553   6.235  0.7090 -0.4444 -0.6005
 6592SOL    MW426136   3.183   2.584   6.215 -0.1646 -0.2157 -0.6114
 6593SOL     OW26137   5.317   2.354   4.192 -0.1951  0.1726  0.1353
 6593SOL    HW226138   5.293   2.306   4.272 -2.6354  1.5744  0.3246
 6593SOL    HW326139   5.339   2.285   4.129  0.8760 -0.9955  1.6941
 6593SOL    MW426140   5.317   2.338   4.194  0.3206 -0.6280  0.1559
 6594SOL     OW26141   1.671   5.141   5.713  0.4918  0.3173  0.1546
 6594SOL    HW226142   1.702   5.129   5.623  0.1125  0.0598  0.0575
 6594SOL    HW326143   1.721   5.077   5.764 -0.7618 -1.0032 -0.1994
 6594SOL    MW426144   1.682   5.131   5.708  0.1840 -0.0994 -0.5762
 6595SOL     OW26145   0.441   3.429   4.327  0.7477 -0.5105  0.6944
 6595SOL    HW226146   0.372   3.495   4.330  1.3044  0.0474  1.9699
 6595SOL    HW326147   0.517   3.473   4.366  2.1276 -0.7753 -1.5418
 6595SOL    MW426148   0.442   3.444   4.332  0.0074  0.1247 -0.5923
 6596SOL     OW26149   5.489   4.688   5.693  0.0688  0.0905  0.0813
 6596SOL    HW226150   5.526   4.714   5.778 -2.0781 -0.5647  1.2983
 6596SOL    HW326151   5.529   4.748   5.631  1.3193  0.9525  1.6304
 6596SOL    MW426152   5.499   4.700   5.696 -0.0260  0.1537 -0.2059
 6597SOL     OW26153   3.280   5.532   1.517 -0.7149  0.4763 -0.0780
 6597SOL    HW226154   3.202   5.511   1.568 -0.1556 -0.8222  0.2947
 6597SOL    HW326155   3.324   5.447   1.506  0.2125  1.0587 -0.9877
 6597SOL    MW426156   3.275   5.518   1.522  0.2983  0.1775  0.2495
 6598SOL     OW26157   6.003   3.126   2.006 -0.3076  0.1863 -0.1286
 6598SOL    HW226158   5.957   3.067   2.066  1.0223  0.4377  1.1952
 6598SOL    HW326159   5.957   3.209   2.016 -0.7401 -0.0355 -0.2460
 6598SOL    MW426160   5.991   3.129   2.015 -0.1711  0.1362  0.1541
 6599SOL     OW26161   5.040   2.722   1.822 -0.4873  0.0049 -0.3512
 6599SOL    HW226162   5.107   2.681   1.877 -1.4751 -1.6192 -0.2868
 6599SOL    HW326163   4.965   2.663   1.828 -1.4443  1.0416 -1.5477
 6599SOL    MW426164   5.039   2.709   1.830  0.0014 -0.6971  0.1930
 6600SOL     OW26165   5.889   3.967   2.235  0.3160  0.1873  0.2394
 6600SOL    HW226166   5.823   3.954   2.303  0.6343  0.7135  0.6627
 6600SOL    HW326167   5.885   4.061   2.217 -1.3660 -0.2532 -2.1274
 6600SOL    MW426168   5.880   3.978   2.242  0.7692 -0.0846  0.2563
 6601SOL     OW26169   3.387   1.312   3.104  0.3252  0.3266  0.5054
 6601SOL    HW226170   3.464   1.256   3.095 -0.5739 -0.6614 -2.1773
 6601SOL    HW326171   3.409   1.392   3.058 -0.4787 -0.3151 -1.0887
 6601SOL    MW426172   3.400   1.315   3.097  0.0859 -0.0958 -0.6823
 6602SOL     OW26173   5.471   5.598   6.128 -0.3330 -0.3963 -0.1497
 6602SOL    HW226174   5.404   5.582   6.061 -1.1456 -1.3990  0.8547
 6602SOL    HW326175   5.457   5.528   6.192  0.5389  0.4297  0.9770
 6602SOL    MW426176   5.460   5.586   6.127  0.2850 -0.1984 -0.1666
 6603SOL     OW26177   5.209   5.008   0.578  0.2505  0.1393  0.5861
 6603SOL    HW226178   5.135   5.067   0.594 -0.0868 -0.3643  0.9309
 6603SOL    HW326179   5.173   4.940   0.521  0.5008  0.0036  0.5922
 6603SOL    MW426180   5.194   5.007   0.573  0.2179  0.8800 -0.0846
 6604SOL     OW26181   3.791   1.844   2.196  0.0828 -0.7448  0.1826
 6604SOL    HW226182   3.858   1.776   2.200 -0.6126 -1.4001  1.5383
 6604SOL    HW326183   3.840   1.926   2.195  1.1161 -0.9829  5.0648
 6604SOL    MW426184   3.806   1.846   2.197 -0.0794 -0.2711 -0.1141
 6605SOL     OW26185   6.420   2.309   2.066  0.0655 -0.5081  0.3824
 6605SOL    HW226186   6.385   2.285   2.152  1.1559 -2.0840  0.4329
 6605SOL    HW326187   6.404   2.232   2.011 -1.0980  0.6662 -1.0165
 6605SOL    MW426188   6.413   2.296   2.070  0.1365 -0.1062 -0.8036
 6606SOL     OW26189   2.661   1.701   5.962  0.8008 -0.1885 -0.4218
 6606SOL    HW226190   2.632   1.686   5.872  0.2884  1.0805 -0.4780
 6606SOL    HW326191   2.607   1.641   6.015  0.9850 -0.8082 -0.9201
 6606SOL    MW426192   2.650   1.691   5.957  0.3074 -0.1833 -0.1030
 6607SOL     OW26193   1.163   5.534   1.391 -0.4070  0.4486 -0.1234
 6607SOL    HW226194   1.125   5.571   1.311 -0.2554 -0.2664 -0.5334
 6607SOL    HW326195   1.252   5.568   1.394 -0.6394  1.0624  0.1393
 6607SOL    MW426196   1.169   5.543   1.381  0.0156  0.0712  0.5887
 6608SOL     OW26197   2.982   5.943   2.009 -0.3415 -0.6384 -0.3442
 6608SOL    HW226198   3.034   5.957   1.930 -0.8528  0.5890 -0.4859
 6608SOL    HW326199   3.029   5.875   2.057  0.9304 -0.1558 -0.8684
 6608SOL    MW426200   2.995   5.936   2.005  0.1528 -0.2031 -0.4909
 6609SOL     OW26201   1.851   6.247   4.612 -0.2363 -0.4514  0.0060
 6609SOL    HW226202   1.826   6.304   4.685  0.8460  1.5748 -1.0880
 6609SOL    HW326203   1.944   6.228   4.628 -0.7136 -2.4093  0.6274
 6609SOL    MW426204   1.860   6.252   4.624 -0.6347 -0.0407  0.8755
 6610SOL     OW26205   1.862   5.714   4.323 -0.3070 -0.0200  0.1848
 6610SOL    HW226206   1.859   5.619   4.310 -1.6070 -0.0375  0.4700
 6610SOL    HW326207   1.945   5.730   4.368  1.0605 -0.7286 -1.9321
 6610SOL    MW426208   1.872   5.704   4.327  0.0702 -0.1926 -0.8396
 6611SOL     OW26209   6.346   4.248   4.350  0.0164  0.2722 -0.5858
 6611SOL    HW226210   6.429   4.209   4.376 -0.0311  1.0072  0.7521
 6611SOL    HW326211   6.330   4.316   4.416 -1.8871 -0.2020 -0.5060
 6611SOL    MW426212   6.355   4.252   4.362  0.2705 -0.2012 -0.6853
 6612SOL     OW26213   4.008   1.955   3.907 -0.3080  0.1654 -0.3351
 6612SOL    HW226214   3.992   2.043   3.940 -2.1859  0.3966 -1.7106
 6612SOL    HW326215   4.094   1.960   3.866 -0.3036  1.3036 -0.2216
 6612SOL    MW426216   4.017   1.967   3.906  0.0450  0.0273  0.0599
 6613SOL     OW26217   1.877   0.539   2.401 -0.5434 -0.3211  0.3758
 6613SOL    HW226218   1.872   0.616   2.458  0.5479 -0.3312  0.5094
 6613SOL    HW326219   1.866   0.464   2.459 -1.0170 -0.2823  0.3350
 6613SOL    MW426220   1.875   0.539   2.416  0.3336 -0.8472 -0.3032
 6614SOL     OW26221   4.001   3.349   3.821  0.6586 -0.3014 -0.2289
 6614SOL    HW226222   4.053   3.425   3.797 -0.8872  0.4542 -1.3680
 6614SOL    HW326223   4.045   3.275   3.779  0.6619  0.3689 -1.4481
 6614SOL    MW426224   4.013   3.349   3.812 -0.6490  0.4765  0.0867
 6615SOL     OW26225   2.681   3.571   1.451  0.5888  0.0534 -0.2299
 6615SOL    HW226226   2.677   3.636   1.381  0.7872 -0.4914 -0.7500
 6615SOL    HW326227   2.766   3.586   1.493  0.4154  0.4633 -0.0084
 6615SOL    MW426228   2.692   3.582   1.448 -0.0065  0.0571 -0.3074
 6616SOL     OW26229   2.924   5.843   3.320 -0.4603  0.2377  0.3973
 6616SOL    HW226230   2.999   5.785   3.305 -0.0824  0.6248  0.7519
 6616SOL    HW326231   2.849   5.794   3.287  0.1179  0.4051 -1.2802
 6616SOL    MW426232   2.924   5.829   3.313 -0.3275 -0.1406  0.0572
 6617SOL     OW26233   1.136   5.512   1.890 -0.0183  0.2708  0.0405
 6617SOL    HW226234   1.060   5.550   1.935 -0.3271 -0.1096 -0.1547
 6617SOL    HW326235   1.174   5.585   1.842 -0.0840  0.5308  0.3771
 6617SOL    MW426236   1.131   5.526   1.890  0.0706  0.2142  0.4111
 6618SOL     OW26237   1.488   4.898   5.544 -0.0038 -0.3991  0.4524
 6618SOL    HW226238   1.453   4.871   5.459 -2.6576  0.7913  1.0726
 6618SOL    HW326239   1.562   4.954   5.522 -1.1150  0.5315 -1.1533
 6618SOL    MW426240   1.493   4.902   5.530 -0.1550  0.0934  0.4857
 6619SOL     OW26241   4.400   6.342   2.592 -0.0179 -0.2396 -0.0618
 6619SOL    HW226242   4.338   6.413   2.575  0.1121  0.1811  1.1519
 6619SOL    HW326243   4.367   6.299   2.671 -0.5715 -2.1004 -1.2140
 6619SOL    MW426244   4.388   6.345   2.600 -0.9343 -0.0940 -0.1865
 6620SOL     OW26245   0.995   6.355   4.977  0.2366  0.2406 -0.0338
 6620SOL    HW226246   0.997   6.263   5.005 -0.4999  0.0360 -0.6163
 6620SOL    HW326247   0.902   6.376   4.971  0.3744  0.5556 -1.3942
 6620SOL    MW426248   0.983   6.345   4.980  0.7089  0.0872  0.1385
 6621SOL     OW26249   4.289   6.390   0.832  0.2840  0.5908 -0.1598
 6621SOL    HW226250   4.342   6.383   0.752  0.0048  0.2173 -0.3155
 6621SOL    HW326251   4.220   6.325   0.820  0.2680  0.5016  0.4090
 6621SOL    MW426252   4.287   6.380   0.820 -0.1547  0.0952  0.1259
 6622SOL     OW26253   5.203   5.442   3.698  0.2678 -0.3587 -0.2030
 6622SOL    HW226254   5.127   5.500   3.695  0.0720 -0.5488  0.8283
 6622SOL    HW326255   5.277   5.499   3.717  0.0670 -0.4355  0.8637
 6622SOL    MW426256   5.203   5.457   3.700  0.6249  0.1154 -0.1500
 6623SOL     OW26257   5.739   4.722   0.860  0.1488 -0.0910  0.2120
 6623SOL    HW226258   5.792   4.690   0.786 -1.5673 -0.4236 -0.9255
 6623SOL    HW326259   5.768   4.813   0.872  2.0238 -0.6959  0.6450
 6623SOL    MW426260   5.750   4.730   0.852 -0.3151  0.0987  1.0316
 6624SOL     OW26261   0.135   4.742   3.190  0.4190  0.3481 -0.3102
 6624SOL    HW226262   0.111   4.768   3.279 -1.2649  3.0630 -1.4219
 6624SOL    HW326263   0.054   4.706   3.153  0.2480  1.8708 -1.5465
 6624SOL    MW426264   0.121   4.741   3.197 -0.0244  0.0713  0.5922
 6625SOL     OW26265   3.926   2.408   3.422 -0.3207  0.2859 -0.2452
 6625SOL    HW226266   3.840   2.409   3.379 -0.8876  0.9925  0.8526
 6625SOL    HW326267   3.908   2.375   3.510  0.7886 -0.9361 -0.4422
 6625SOL    MW426268   3.912   2.404   3.428 -0.2518 -0.1857  0.2793
 6626SOL     OW26269   5.288   5.957   4.639  0.4481  0.6684  0.3174
 6626SOL    HW226270   5.324   5.968   4.727 -0.9022 -1.3588  1.1743
 6626SOL    HW326271   5.273   6.047   4.609 -0.2607  1.4080  2.6660
 6626SOL    MW426272   5.291   5.971   4.646 -0.1836  0.2463 -0.4155
 6627SOL     OW26273   0.906   1.486   5.513  0.0807 -0.1823  0.0295
 6627SOL    HW226274   0.979   1.481   5.575 -0.8675 -0.6330  1.1444
 6627SOL    HW326275   0.875   1.396   5.505 -1.8581  0.2863  1.4515
 6627SOL    MW426276   0.911   1.473   5.520  0.6155 -0.1537 -0.4005
 6628SOL     OW26277   0.760   0.994   1.066  0.1683  0.1286  0.2318
 6628SOL    HW226278   0.829   0.956   1.012  0.6899 -0.4075  1.2356
 6628SOL    HW326279   0.799   1.073   1.104 -0.4024  0.8505 -0.6352
 6628SOL    MW426280   0.774   0.999   1.064 -0.3921  0.1273 -0.3677
 6629SOL     OW26281   6.071   4.444   4.594 -0.1008 -0.0963 -0.3907
 6629SOL    HW226282   6.101   4.437   4.684 -3.2338 -1.4972  0.6603
 6629SOL    HW326283   6.080   4.356   4.559 -2.1492 -0.4107 -0.2471
 6629SOL    MW426284   6.076   4.432   4.601  0.9399 -0.7414 -0.3322
 6630SOL     OW26285   3.791   4.116   4.030  0.5163 -0.4574 -0.0606
 6630SOL    HW226286   3.727   4.046   4.038 -0.3481  0.2254 -0.8302
 6630SOL    HW326287   3.786   4.143   3.938  1.1759  0.2942  0.1115
 6630SOL    MW426288   3.782   4.110   4.019  0.1993  0.2370  0.2200
 6631SOL     OW26289   1.410   2.504   0.639 -0.3986 -0.1911  0.2304
 6631SOL    HW226290   1.433   2.555   0.561  0.0837 -0.0929  0.4325
 6631SOL    HW326291   1.318   2.482   0.627 -0.2629 -0.3978 -0.4938
 6631SOL    MW426292   1.401   2.508   0.627  0.0899  0.1298 -0.5804
 6632SOL     OW26293   3.406   0.237   4.826 -0.0653 -0.5917  0.3820
 6632SOL    HW226294   3.394   0.316   4.879 -0.3538  0.7899 -1.5917
 6632SOL    HW326295   3.318   0.199   4.819 -0.2240 -0.1760  0.0509
 6632SOL    MW426296   3.393   0.243   4.832  0.2041 -0.0495 -0.5581
 6633SOL     OW26297   5.034   3.215   2.346  0.0417 -0.2593  0.0144
 6633SOL    HW226298   4.945   3.226   2.312  1.1557 -0.4872 -3.3955
 6633SOL    HW326299   5.063   3.303   2.367 -0.6424 -0.0637  0.1530
 6633SOL    MW426300   5.026   3.228   2.344  0.2068  0.0102 -0.3912
 6634SOL     OW26301   0.907   1.558   2.626 -0.1840  0.4315  0.1757
 6634SOL    HW226302   0.919   1.633   2.568 -0.6201 -1.6608 -2.9038
 6634SOL    HW326303   0.815   1.562   2.652 -1.6414 -1.3474 -3.8863
 6634SOL    MW426304   0.896   1.568   2.622 -0.1256  0.0642  0.4211
 6635SOL     OW26305   3.885   4.058   5.436  0.3789 -0.1708 -0.1245
 6635SOL    HW226306   3.975   4.083   5.416  0.2403  0.2303 -0.2689
 6635SOL    HW326307   3.832   4.130   5.401  0.0219 -0.2662  0.2135
 6635SOL    MW426308   3.889   4.071   5.429 -0.1549  0.1276 -0.2708
 6636SOL     OW26309   5.505   0.001   0.049 -0.3171 -0.0603  0.3708
 6636SOL    HW226310   5.522  -0.024  -0.042 -1.5428  0.0243  0.1094
 6636SOL    HW326311   5.472   0.091   0.044 -0.1783  0.0280  0.9279
 6636SOL    MW426312   5.503   0.010   0.037 -0.8382  0.2333  0.2561
 6637SOL     OW26313   0.140   3.332   4.092 -0.0534  0.5950  0.1373
 6637SOL    HW226314   0.155   3.247   4.051  1.5898  1.1085 -0.4145
 6637SOL    HW326315   0.073   3.373   4.037  1.7416  1.0682 -1.8659
 6637SOL    MW426316   0.133   3.327   4.079 -0.1690 -0.4289 -0.3413
 6638SOL     OW26317   5.005   0.059   2.520  0.3319  0.1791 -0.1013
 6638SOL    HW226318   4.937  -0.007   2.530  0.1960  0.3671  0.2593
 6638SOL    HW326319   5.064   0.044   2.593  1.2341 -0.6146 -0.9656
 6638SOL    MW426320   5.003   0.048   2.531 -0.7761 -0.2116  0.2437
 6639SOL     OW26321   2.601   5.147   0.490 -0.5304  0.1239 -0.0368
 6639SOL    HW226322   2.603   5.232   0.533  1.2895 -0.4362  1.1001
 6639SOL    HW326323   2.552   5.090   0.551 -1.5813  0.2782 -0.7072
 6639SOL    MW426324   2.595   5.151   0.504  0.4115 -0.0760  0.1160
 6640SOL     OW26325   1.362   4.887   3.962 -0.3791  0.2228  0.5948
 6640SOL    HW226326   1.336   4.939   4.038 -0.6145 -0.9006  1.3007
 6640SOL    HW326327   1.323   4.801   3.977  1.7880 -0.8349  0.5366
 6640SOL    MW426328   1.354   4.883   3.974 -0.4895 -0.5927 -0.2892
 6641SOL     OW26329   4.298   1.044   5.316  0.5174 -0.1945 -0.2468
 6641SOL    HW226330   4.264   1.112   5.374  0.9645 -0.7877  0.7190
 6641SOL    HW326331   4.388   1.030   5.345  0.4815 -1.0784 -0.5506
 6641SOL    MW426332   4.305   1.052   5.327 -0.0137 -0.6048 -0.1341
 6642SOL     OW26333   5.313   0.362   0.930  0.5516  0.0043  0.5400
 6642SOL    HW226334   5.363   0.378   1.011  2.7241 -0.2062 -0.6965
 6642SOL    HW326335   5.352   0.283   0.893 -0.9630 -0.3625 -0.3467
 6642SOL    MW426336   5.325   0.354   0.936 -0.3132  0.2427  0.5710
 6643SOL     OW26337   3.502   2.341   5.077  0.1260  0.0606  0.2581
 6643SOL    HW226338   3.547   2.283   5.140 -1.0076 -0.0940  0.9589
 6643SOL    HW326339   3.566   2.410   5.060  1.2467 -0.9962 -0.0408
 6643SOL    MW426340   3.517   2.342   5.083  0.1116 -0.2491  0.4310
 6644SOL     OW26341   3.858   0.252   5.202 -0.0539  0.2026  0.0658
 6644SOL    HW226342   3.854   0.175   5.259 -0.5627 -0.1087 -0.3857
 6644SOL    HW326343   3.771   0.292   5.211 -0.3379 -0.1723 -0.9400
 6644SOL    MW426344   3.846   0.247   5.211 -0.0379 -0.3518  0.3545
 6645SOL     OW26345   4.356   1.071   1.669  0.0338  0.3881  0.1900
 6645SOL    HW226346   4.331   1.082   1.760 -0.1903 -0.5045  0.2466
 6645SOL    HW326347   4.315   0.989   1.642  0.9653  0.0884 -0.4030
 6645SOL    MW426348   4.348   1.062   1.677  0.0831 -0.1170 -0.0912
 6646SOL     OW26349   2.752   0.505   2.517  0.1324  0.1011  0.6324
 6646SOL    HW226350   2.828   0.540   2.563  1.0413 -0.6467 -0.2636
 6646SOL    HW326351   2.751   0.552   2.433 -1.7941  1.8100  1.5120
 6646SOL    MW426352   2.762   0.516   2.512  0.6475 -0.6480  0.2847
 6647SOL     OW26353   0.838   1.664   1.398  0.0364 -0.2133 -0.5506
 6647SOL    HW226354   0.874   1.615   1.472 -1.2553 -1.5549 -0.7770
 6647SOL    HW326355   0.900   1.648   1.326  0.3083 -0.4211 -0.2717
 6647SOL    MW426356   0.851   1.655   1.398  0.5989 -0.1800 -0.0055
 6648SOL     OW26357   6.018   3.487   0.755 -0.0781 -0.1624  0.4724
 6648SOL    HW226358   5.994   3.579   0.750 -1.1680 -0.2793  2.3547
 6648SOL    HW326359   5.936   3.440   0.741  0.6599 -0.9199 -1.5856
 6648SOL    MW426360   6.004   3.493   0.753  0.4317 -0.0919  0.9200
 6649SOL     OW26361   5.685   0.454   2.308  0.6015 -0.1528 -0.3511
 6649SOL    HW226362   5.756   0.476   2.369  0.8300 -0.2870 -0.5688
 6649SOL    HW326363   5.691   0.359   2.298  0.2455 -0.1937 -0.1925
 6649SOL    MW426364   5.696   0.444   2.315 -0.4070 -1.2183  0.0435
 6650SOL     OW26365   3.482   1.539   1.510  0.2220  0.4712  0.1486
 6650SOL    HW226366   3.440   1.487   1.442  0.3006  1.2179 -0.4866
 6650SOL    HW326367   3.444   1.507   1.592 -0.5150  0.1470 -0.3097
 6650SOL    MW426368   3.471   1.528   1.512  0.7656 -0.1800 -0.0941
 6651SOL     OW26369   1.387   5.805   2.149 -0.0707 -0.3630  0.5121
 6651SOL    HW226370   1.307   5.853   2.168 -0.6020 -0.8459 -0.4804
 6651SOL    HW326371   1.398   5.747   2.225 -0.4988 -0.1054  0.7779
 6651SOL    MW426372   1.378   5.804   2.162 -0.6562 -0.2031 -0.1828
 6652SOL     OW26373   3.944   2.449   2.816  0.2867  0.9986 -0.4463
 6652SOL    HW226374   3.981   2.445   2.904  1.5164 -2.9574 -0.9351
 6652SOL    HW326375   4.018   2.429   2.758 -1.2287 -0.3256 -2.0307
 6652SOL    MW426376   3.958   2.446   2.820 -0.5773 -0.0064 -0.6726
 6653SOL     OW26377   0.792   5.192   5.410 -0.0247  0.3688 -0.4157
 6653SOL    HW226378   0.881   5.221   5.391 -0.0468  0.1169 -0.9175
 6653SOL    HW326379   0.785   5.198   5.506  0.1413  1.5060 -0.4619
 6653SOL    MW426380   0.803   5.197   5.420 -0.0141  0.3656  0.1382
 6654SOL     OW26381   1.330   3.958   3.845  0.3591 -0.2138 -0.4533
 6654SOL    HW226382   1.266   3.987   3.911 -1.3515 -1.5355 -1.4563
 6654SOL    HW326383   1.351   3.868   3.870  0.5038 -0.3700 -1.1267
 6654SOL    MW426384   1.324   3.950   3.857  0.5460  0.4962 -0.2751
 6655SOL     OW26385   0.751   2.291   0.475  0.3528  0.1592  0.1229
 6655SOL    HW226386   0.759   2.341   0.556  0.0028  1.6713 -0.7448
 6655SOL    HW326387   0.661   2.257   0.477  0.5955 -0.4831  0.7175
 6655SOL    MW426388   0.740   2.293   0.486 -0.2237  0.4930  0.0069
 6656SOL     OW26389   1.539   1.354   3.916  0.1123 -0.3018 -0.0355
 6656SOL    HW226390   1.624   1.358   3.874  0.3724 -0.5370  0.4583
 6656SOL    HW326391   1.505   1.443   3.911 -0.1825 -0.4660 -1.3822
 6656SOL    MW426392   1.545   1.366   3.910 -0.2072 -0.1503  0.3355
 6657SOL     OW26393   6.021   5.898   5.808  0.6952 -0.4286 -0.0745
 6657SOL    HW226394   5.939   5.849   5.800 -0.9575  1.7647  1.9601
 6657SOL    HW326395   6.069   5.854   5.877  0.0921 -0.3358  0.4124
 6657SOL    MW426396   6.016   5.886   5.816  0.3534 -0.1288  0.4480
 6658SOL     OW26397   1.874   3.997   3.545 -0.3674  0.3811  0.7720
 6658SOL    HW226398   1.831   4.070   3.589  0.3182  1.4623 -0.3046
 6658SOL    HW326399   1.944   3.971   3.605 -0.4855  0.7316  1.0687
 6658SOL    MW426400   1.878   4.003   3.559 -0.0966 -0.1730  0.8265
 6659SOL     OW26401   0.489   6.070   3.104  0.4898  0.2400 -0.0813
 6659SOL    HW226402   0.403   6.035   3.127 -0.1311  2.1520  0.6285
 6659SOL    HW326403   0.509   6.030   3.019 -0.5866 -1.0653  0.2566
 6659SOL    MW426404   0.480   6.060   3.096 -0.5064  0.2652  0.4935
 6660SOL     OW26405   5.807   2.175   5.884 -0.3975  0.0591 -0.4031
 6660SOL    HW226406   5.776   2.086   5.867  0.1215 -0.1073 -0.4895
 6660SOL    HW326407   5.801   2.185   5.979  0.8347 -0.5579 -0.2457
 6660SOL    MW426408   5.802   2.165   5.895 -0.0283 -0.1361  0.4073
 6661SOL     OW26409   5.495   2.065   1.660 -0.5098 -0.2940 -0.4829
 6661SOL    HW226410   5.542   2.001   1.607 -1.5540 -1.4112 -0.0978
 6661SOL    HW326411   5.406   2.031   1.666 -0.8777  0.7632  0.4567
 6661SOL    MW426412   5.489   2.052   1.654 -0.1547  0.0274  0.1951
 6662SOL     OW26413   5.500   5.500   2.002  0.4645  0.2800  0.2863
 6662SOL    HW226414   5.542   5.524   2.085  1.4318  0.3170 -0.1944
 6662SOL    HW326415   5.481   5.406   2.011 -1.7968  0.7859  1.5162
 6662SOL    MW426416   5.503   5.490   2.014 -1.3009 -0.2178 -0.6822
 6663SOL     OW26417   5.454   1.316   3.494 -0.4708 -0.2702  0.3736
 6663SOL    HW226418   5.420   1.232   3.465  0.4457 -1.1291  1.6685
 6663SOL    HW326419   5.393   1.380   3.458 -1.3025 -1.4954 -0.4734
 6663SOL    MW426420   5.441   1.314   3.486 -0.2737  0.0292 -0.5067
 6664SOL     OW26421   2.138   4.208   5.176 -0.1976 -0.3186 -0.1348
 6664SOL    HW226422   2.169   4.294   5.206 -0.6238 -0.0199 -0.5399
 6664SOL    HW326423   2.111   4.222   5.085 -0.4867 -0.8275 -0.1321
 6664SOL    MW426424   2.139   4.221   5.168 -0.8167  0.2217 -0.1816
 6665SOL     OW26425   2.388   4.043   5.829 -0.4121  0.6864 -0.1670
 6665SOL    HW226426   2.440   4.086   5.896  0.1645 -0.1312 -0.0723
 6665SOL    HW326427   2.305   4.022   5.873  0.0389 -0.0350  0.3737
 6665SOL    MW426428   2.384   4.046   5.844 -0.5326  0.0691 -0.3699
 6666SOL     OW26429   3.152   4.574   1.784  0.1948  0.2121 -0.7617
 6666SOL    HW226430   3.102   4.501   1.746  0.3805 -1.0310  1.2120
 6666SOL    HW326431   3.126   4.650   1.732 -3.4074 -0.4408 -0.2149
 6666SOL    MW426432   3.142   4.574   1.772 -0.2164  0.0297 -0.0655
 6667SOL     OW26433   0.810   4.918   0.503 -0.4130  0.1607 -0.1851
 6667SOL    HW226434   0.754   4.994   0.520 -0.1321  0.7592 -1.8312
 6667SOL    HW326435   0.877   4.950   0.444 -0.2605 -1.3626 -0.8762
 6667SOL    MW426436   0.811   4.932   0.498 -0.4053  0.0441  0.1163
 6668SOL     OW26437   1.291   4.613   5.500 -0.1494 -0.5920 -0.3255
 6668SOL    HW226438   1.215   4.667   5.522  1.3361  1.7329 -0.4740
 6668SOL    HW326439   1.278   4.589   5.408  0.5457  2.2190 -1.2664
 6668SOL    MW426440   1.279   4.617   5.491  0.4073  0.4353  0.2594
 6669SOL     OW26441   4.192   2.422   2.650  0.1146 -0.6200 -0.9554
 6669SOL    HW226442   4.200   2.326   2.646  0.7431 -0.6719  0.6989
 6669SOL    HW326443   4.267   2.450   2.702 -2.0639  0.3974  1.9201
 6669SOL    MW426444   4.203   2.413   2.656 -0.0022 -0.2910 -0.0589
 6670SOL     OW26445   1.277   5.239   0.311  0.3316  0.1497 -0.7328
 6670SOL    HW226446   1.292   5.333   0.303 -0.0561  0.4216  1.1696
 6670SOL    HW326447   1.339   5.199   0.250  1.2061  1.6087 -0.8358
 6670SOL    MW426448   1.287   5.246   0.302  0.7777  0.0820  0.6815
 6671SOL     OW26449   4.053   4.122   0.967 -0.4073  0.4481 -0.4159
 6671SOL    HW226450   3.978   4.178   0.950 -0.6254  0.8936  1.7405
 6671SOL    HW326451   4.095   4.111   0.881 -2.3144  1.0375 -1.4757
 6671SOL    MW426452   4.049   4.128   0.953 -0.4760  0.4283  0.7689
 6672SOL     OW26453   5.596   1.771   1.154  0.0708  0.1127  0.5841
 6672SOL    HW226454   5.544   1.801   1.228 -1.4239 -3.1852  1.0379
 6672SOL    HW326455   5.540   1.709   1.108  2.2674 -0.7195 -1.1852
 6672SOL    MW426456   5.582   1.767   1.158  0.0235  0.7328 -0.5029
 6673SOL     OW26457   1.305   1.960   2.838 -0.5414  0.1420  0.2036
 6673SOL    HW226458   1.273   2.047   2.861 -0.6624 -0.0631  0.8272
 6673SOL    HW326459   1.301   1.911   2.920  1.2365  0.0668  0.2730
 6673SOL    MW426460   1.300   1.965   2.852  0.3659 -0.1032  0.7829
 6674SOL     OW26461   5.120   1.919   2.191 -0.5502  0.1415  0.5863
 6674SOL    HW226462   5.187   1.854   2.210 -0.3615 -0.1100 -0.8213
 6674SOL    HW326463   5.037   1.876   2.215 -0.2949  0.0349  1.2789
 6674SOL    MW426464   5.118   1.904   2.197  0.7461 -0.8830  0.1091
 6675SOL     OW26465   6.273   5.309   6.107  0.3364 -0.3444 -0.6689
 6675SOL    HW226466   6.178   5.312   6.109  0.3392 -0.5952 -0.0815
 6675SOL    HW326467   6.301   5.373   6.173  0.5819  0.1246 -1.2196
 6675SOL    MW426468   6.264   5.318   6.116  0.0715  0.1386  0.7835
 6676SOL     OW26469   6.218   6.046   3.352  0.5077  0.2125 -0.5168
 6676SOL    HW226470   6.183   5.973   3.404  0.3820 -0.1528 -1.0980
 6676SOL    HW326471   6.310   6.050   3.375  1.0867 -1.6942 -2.2227
 6676SOL    MW426472   6.225   6.037   3.362 -0.3026  0.4390 -0.4088
 6677SOL     OW26473   6.217   5.195   0.100 -0.4319  0.3587 -0.0779
 6677SOL    HW226474   6.190   5.166   0.013 -2.2810  1.9084 -0.0712
 6677SOL    HW326475   6.154   5.156   0.160  0.6203 -0.4090  0.5821
 6677SOL    MW426476   6.205   5.186   0.096 -0.4264 -0.7537 -0.0960
 6678SOL     OW26477   2.783   1.097   6.005 -0.0606  0.1374 -0.4839
 6678SOL    HW226478   2.815   1.059   6.087 -0.4793 -1.7563 -1.1397
 6678SOL    HW326479   2.756   1.021   5.953 -0.8851  1.3689 -1.9208
 6678SOL    MW426480   2.783   1.082   6.009 -0.9432  0.4069  0.9003
 6679SOL     OW26481   3.349   0.743   2.739 -0.2303 -0.3042  0.2842
 6679SOL    HW226482   3.271   0.768   2.688  0.4827 -1.2637 -1.3891
 6679SOL    HW326483   3.416   0.729   2.672  0.8238 -1.4227  1.5424
 6679SOL    MW426484   3.347   0.744   2.723 -0.0469 -1.0148 -0.6776
 6680SOL     OW26485   0.678   6.404   5.511  0.5351 -0.1086  0.5024
 6680SOL    HW226486   0.724   6.450   5.440  0.4360  0.0675  0.5505
 6680SOL    HW326487   0.603   6.460   5.531 -0.6034 -1.1729 -0.6450
 6680SOL    MW426488   0.675   6.418   5.505 -0.1373 -0.0173  0.6357
 6681SOL     OW26489   2.541   4.494   6.395 -0.4279 -0.0583  0.0313
 6681SOL    HW226490   2.523   4.523   6.305  0.6570  0.0704 -0.1617
 6681SOL    HW326491   2.504   4.563   6.450  2.3949  2.0213 -0.4258
 6681SOL    MW426492   2.534   4.507   6.390 -0.0685  0.5380 -0.2913
 6682SOL     OW26493   4.930   5.878   0.472  0.1828 -0.1926  0.0389
 6682SOL    HW226494   4.860   5.833   0.424  1.3043 -1.3168 -0.6105
 6682SOL    HW326495   4.941   5.826   0.552  2.3091 -1.9370 -1.2668
 6682SOL    MW426496   4.922   5.865   0.476 -0.1919  0.2634 -0.1969
 6683SOL     OW26497   1.566   0.800   2.461  0.2453  0.3484 -0.8566
 6683SOL    HW226498   1.619   0.830   2.387  1.3957 -2.0241 -1.0837
 6683SOL    HW326499   1.541   0.711   2.438 -0.1144 -0.1373  1.2269
 6683SOL    MW426500   1.569   0.792   2.448 -0.9009 -0.1893  0.0097
 6684SOL     OW26501   0.834   6.123   4.164  0.5531  0.0405  0.3206
 6684SOL    HW226502   0.874   6.207   4.142 -1.3949  0.4871 -1.9451
 6684SOL    HW326503   0.745   6.146   4.191 -0.0804 -1.2742 -0.5675
 6684SOL    MW426504   0.828   6.137   4.165 -0.1064 -0.2989  0.5444
 6685SOL     OW26505   3.565   2.373   0.176 -0.3951  0.0381  0.3339
 6685SOL    HW226506   3.558   2.429   0.099  1.5134  1.8820  1.3702
 6685SOL    HW326507   3.516   2.419   0.244 -0.9161 -0.8665  0.5889
 6685SOL    MW426508   3.558   2.387   0.175 -0.3963 -0.2162 -0.3038
 6686SOL     OW26509   0.335   4.334   2.473 -0.4972 -0.2030 -0.3096
 6686SOL    HW226510   0.407   4.359   2.531 -2.2159  0.4326  1.7083
 6686SOL    HW326511   0.374   4.272   2.412  1.2558 -1.8890  2.2819
 6686SOL    MW426512   0.350   4.329   2.473 -0.1461 -0.1773  0.2068
 6687SOL     OW26513   1.274   3.418   4.961  0.1445 -0.0885  0.1373
 6687SOL    HW226514   1.352   3.450   5.006 -0.2060 -0.5717  1.1018
 6687SOL    HW326515   1.251   3.337   5.006  0.3723 -1.1383 -1.5668
 6687SOL    MW426516   1.281   3.412   4.973  0.4803 -0.0027  0.1015
 6688SOL     OW26517   6.029   1.578   2.736 -0.4315 -0.0045 -0.2566
 6688SOL    HW226518   5.995   1.522   2.806 -2.1263 -0.1983 -1.1680
 6688SOL    HW326519   6.057   1.518   2.667 -2.0140  0.1914 -1.1313
 6688SOL    MW426520   6.028   1.563   2.736  0.4491  0.1683 -0.1757
 6689SOL     OW26521   5.478   1.869   2.374 -0.0681 -0.0107  0.3920
 6689SOL    HW226522   5.570   1.873   2.348  0.1066  0.8138  1.1057
 6689SOL    HW326523   5.436   1.818   2.305  1.0654 -1.1121  0.4827
 6689SOL    MW426524   5.485   1.863   2.361  0.2499  0.4182 -0.3499
 6690SOL     OW26525   5.723   1.963   1.503  0.0898 -0.0495 -0.0175
 6690SOL    HW226526   5.717   1.868   1.505  0.7501 -0.0890  0.6194
 6690SOL    HW326527   5.787   1.982   1.435 -0.1533 -0.0546 -0.2471
 6690SOL    MW426528   5.731   1.953   1.495 -0.1011 -0.4765 -0.0436
 6691SOL     OW26529   3.532   1.049   2.021  0.1684 -0.0119  0.0009
 6691SOL    HW226530   3.614   1.086   2.052 -0.0015 -0.3339  0.8514
 6691SOL    HW326531   3.535   0.957   2.048  0.4826 -0.5896 -1.8584
 6691SOL    MW426532   3.543   1.041   2.028 -0.1222  0.1971 -0.4570
 6692SOL     OW26533   5.218   1.828   6.094 -0.4224  0.1882 -0.0048
 6692SOL    HW226534   5.126   1.810   6.111  0.0919 -0.0224  3.0742
 6692SOL    HW326535   5.224   1.924   6.093 -0.5042  0.2169  1.1217
 6692SOL    MW426536   5.207   1.839   6.096  0.7197  0.6274  0.2155
 6693SOL     OW26537   2.583   0.481   0.697 -0.3227  0.1979  0.2151
 6693SOL    HW226538   2.664   0.517   0.662 -0.2650 -0.6762 -0.5963
 6693SOL    HW326539   2.552   0.421   0.629 -1.1805 -0.1551  0.8968
 6693SOL    MW426540   2.589   0.478   0.684 -0.4810 -0.3658  0.3900
 6694SOL     OW26541   1.507   6.160   2.227  0.0180 -0.9333  0.2172
 6694SOL    HW226542   1.568   6.112   2.283 -1.9271 -2.5483  1.0528
 6694SOL    HW326543   1.468   6.225   2.284  1.2534  0.4529 -0.4474
 6694SOL    MW426544   1.510   6.162   2.242 -0.5388 -0.0887 -0.6504
 6695SOL     OW26545   3.935   4.675   5.641  0.2768  0.3439 -0.2320
 6695SOL    HW226546   3.849   4.660   5.602 -0.5264  1.1554  1.1467
 6695SOL    HW326547   3.960   4.590   5.678 -1.1087  0.6401  1.5415
 6695SOL    MW426548   3.927   4.662   5.641 -0.1648  0.4347 -0.2567
 6696SOL     OW26549   2.969   4.381   3.731 -0.4751  0.0707 -0.6360
 6696SOL    HW226550   2.913   4.459   3.732 -0.5561  0.0456  1.5255
 6696SOL    HW326551   2.941   4.333   3.653 -0.6593  1.9968 -1.8339
 6696SOL    MW426552   2.958   4.385   3.721  0.4609  0.0974 -0.0354
 6697SOL     OW26553   2.911   1.947   3.568  0.1834  0.1255 -0.6340
 6697SOL    HW226554   2.828   1.934   3.615  1.8940 -0.4844  2.5234
 6697SOL    HW326555   2.908   2.038   3.540 -2.9494 -0.7437 -3.8319
 6697SOL    MW426556   2.899   1.957   3.571  0.0734  0.5241 -0.7305
 6698SOL     OW26557   0.679   3.396   5.305 -0.2304 -0.8833  0.3309
 6698SOL    HW226558   0.603   3.411   5.249 -0.7594  0.0079  1.2627
 6698SOL    HW326559   0.714   3.483   5.322 -0.0780 -1.1372  1.3706
 6698SOL    MW426560   0.674   3.409   5.300 -0.2611  0.0159 -0.2356
 6699SOL     OW26561   5.164   1.105   2.227 -0.2789 -0.2284 -1.0797
 6699SOL    HW226562   5.142   1.106   2.320  0.1201  1.4186 -0.9543
 6699SOL    HW326563   5.097   1.051   2.186  0.4602 -2.3271  0.3478
 6699SOL    MW426564   5.153   1.098   2.234  0.0950  0.1456  0.5061
 6700SOL     OW26565   5.853   2.261   0.354 -0.2034 -0.0352 -0.4642
 6700SOL    HW226566   5.760   2.274   0.374 -0.4358  0.0272 -1.5227
 6700SOL    HW326567   5.854   2.231   0.263  0.7679 -0.8123 -0.2153
 6700SOL    MW426568   5.840   2.259   0.344  0.4582 -0.1541  0.9089
 6701SOL     OW26569   2.722   2.387   4.234 -0.2688 -0.6052  0.0126
 6701SOL    HW226570   2.719   2.292   4.245  1.0555 -0.7358 -0.6092
 6701SOL    HW326571   2.803   2.414   4.275 -0.1887  0.1413 -0.6128
 6701SOL    MW426572   2.732   2.378   4.241 -0.2450  0.1292  0.1252
 6702SOL     OW26573   5.553   0.748   5.868  0.1483  0.0607 -0.4349
 6702SOL    HW226574   5.628   0.804   5.847  0.1444  0.3856  0.3787
 6702SOL    HW326575   5.537   0.763   5.961 -1.1050  0.2080 -0.6507
 6702SOL    MW426576   5.561   0.758   5.878 -0.1025 -0.5553  0.5061
 6703SOL     OW26577   2.861   1.869   5.877  0.0905 -0.5995  0.1158
 6703SOL    HW226578   2.891   1.827   5.797  0.2156  0.5046 -0.4370
 6703SOL    HW326579   2.797   1.809   5.913 -0.2117 -0.9598 -0.9891
 6703SOL    MW426580   2.857   1.856   5.871  0.1319 -0.5808  0.6163
 6704SOL     OW26581   3.366   0.309   1.753  0.3266  0.1408  0.5792
 6704SOL    HW226582   3.391   0.349   1.669 -0.2209 -0.6354  0.0268
 6704SOL    HW326583   3.274   0.332   1.764  0.8671  1.8224  1.9225
 6704SOL    MW426584   3.358   0.317   1.743 -0.2191 -0.7089 -0.3130
 6705SOL     OW26585   2.956   5.535   2.843  0.1384 -0.0474 -0.4201
 6705SOL    HW226586   2.977   5.608   2.784  0.3821 -0.5256 -0.9399
 6705SOL    HW326587   2.861   5.536   2.849  0.1477  0.4314 -0.2652
 6705SOL    MW426588   2.946   5.545   2.836 -0.1898 -0.4217  0.2965
 6706SOL     OW26589   4.566   2.973   3.593  0.1982 -0.2153 -0.2805
 6706SOL    HW226590   4.653   3.011   3.597  0.0806  0.2306  4.6341
 6706SOL    HW326591   4.507   3.048   3.595 -0.1264 -0.4635  1.3090
 6706SOL    MW426592   4.570   2.988   3.594 -0.1919 -0.0307  0.2801
 6707SOL     OW26593   1.880   1.015   5.447 -0.0903  0.0132  0.4513
 6707SOL    HW226594   1.820   1.080   5.485 -0.1267 -0.0603  0.5201
 6707SOL    HW326595   1.963   1.062   5.440 -0.4871  0.5490 -0.9337
 6707SOL    MW426596   1.883   1.030   5.451  0.3287  0.2958 -0.2208
 6708SOL     OW26597   2.499   3.792   6.013  0.0678 -0.0312  0.2352
 6708SOL    HW226598   2.415   3.816   5.973  0.2957  2.5167  1.0896
 6708SOL    HW326599   2.565   3.820   5.950  0.3469 -2.2693 -0.5532
 6708SOL    MW426600   2.496   3.799   6.000 -0.3060 -0.0755  0.3093
 6709SOL     OW26601   6.112   4.052   1.825  0.4640  0.1921 -0.2885
 6709SOL    HW226602   6.088   3.960   1.812  1.2469 -0.0903  0.1700
 6709SOL    HW326603   6.123   4.087   1.737  1.0997 -0.4218 -0.4629
 6709SOL    MW426604   6.110   4.045   1.812 -0.3304  0.6681 -0.1271
 6710SOL     OW26605   5.077   5.613   2.675 -0.9853  0.3077 -0.5772
 6710SOL    HW226606   5.017   5.538   2.683 -1.5753  0.7865 -0.4458
 6710SOL    HW326607   5.158   5.582   2.715 -0.7713 -0.7439 -1.7607
 6710SOL    MW426608   5.079   5.599   2.681  0.4905 -0.4648  0.1438
 6711SOL     OW26609   1.210   5.928   2.619 -0.0600  0.3455 -0.2115
 6711SOL    HW226610   1.201   5.845   2.666  2.0850  0.5946  0.7408
 6711SOL    HW326611   1.143   5.985   2.656 -1.2332 -0.7829 -0.5325
 6711SOL    MW426612   1.200   5.924   2.630 -0.1275  0.7278 -0.4852
 6712SOL     OW26613   0.152   2.174   1.690 -0.3863 -0.2339 -0.2092
 6712SOL    HW226614   0.062   2.198   1.710 -0.9216 -1.4661 -1.0560
 6712SOL    HW326615   0.158   2.081   1.712  0.3328 -0.4596 -1.2763
 6712SOL    MW426616   0.141   2.165   1.696 -0.2872 -0.6298 -0.3050
 6713SOL     OW26617   2.516   2.433   3.334  0.2070  0.0201  0.4412
 6713SOL    HW226618   2.457   2.476   3.396  0.9157  0.2606  0.9592
 6713SOL    HW326619   2.552   2.359   3.383 -0.4576 -0.7664 -0.2130
 6713SOL    MW426620   2.513   2.429   3.348  0.5978 -0.2802  0.2537
 6714SOL     OW26621   2.785   6.377   3.569  0.4695  0.7738  0.2907
 6714SOL    HW226622   2.749   6.317   3.504 -0.8358 -0.2406  1.8754
 6714SOL    HW326623   2.769   6.464   3.533  0.0530  0.2323 -0.8736
 6714SOL    MW426624   2.778   6.381   3.555 -0.3833  1.0392  0.4236
 6715SOL     OW26625   5.526   4.459   2.126 -0.9966 -0.4567  0.1520
 6715SOL    HW226626   5.539   4.507   2.208 -1.6422  1.2372 -0.6923
 6715SOL    HW326627   5.596   4.491   2.069 -0.5435 -1.6396  0.0201
 6715SOL    MW426628   5.537   4.470   2.130  0.5505  0.6352  0.4518
 6716SOL     OW26629   1.878   6.071   6.417  0.1105 -0.0130  0.1216
 6716SOL    HW226630   1.917   6.049   6.501  1.5425  0.9379 -0.2647
 6716SOL    HW326631   1.947   6.052   6.353 -0.3480  0.9069 -0.6699
 6716SOL    MW426632   1.893   6.065   6.420  0.0256 -0.1923 -0.3214
 6717SOL     OW26633   2.316   2.729   1.092 -0.4838  0.2315  0.1466
 6717SOL    HW226634   2.327   2.802   1.153  1.6802  0.3341 -0.2769
 6717SOL    HW326635   2.347   2.653   1.141 -0.4639  0.0012 -0.2246
 6717SOL    MW426636   2.322   2.729   1.107 -0.1001 -0.3171 -1.0691
 6718SOL     OW26637   0.957   6.033   2.704  0.0654 -0.2490 -0.1992
 6718SOL    HW226638   0.905   6.067   2.630 -1.0034 -0.0720  0.6052
 6718SOL    HW326639   0.908   6.060   2.781  0.3551 -1.7350  0.5400
 6718SOL    MW426640   0.944   6.041   2.704  0.2319  0.2079 -0.1202
 6719SOL     OW26641   1.928   2.710   2.118  0.0768  0.7890  0.4919
 6719SOL    HW226642   1.924   2.717   2.213 -1.0830  1.9044  0.3965
 6719SOL    HW326643   1.952   2.798   2.088  1.4266  0.2070 -0.2233
 6719SOL    MW426644   1.931   2.723   2.126  0.1143 -0.3617 -0.0029
 6720SOL     OW26645   5.637   1.241   1.932 -0.5517 -0.0110 -0.4664
 6720SOL    HW226646   5.561   1.264   1.879  0.5482  2.4076 -1.1438
 6720SOL    HW326647   5.711   1.253   1.873  0.4429 -1.6575  0.3797
 6720SOL    MW426648   5.637   1.246   1.917 -0.3915 -0.5270  0.1057
 6721SOL     OW26649   3.819   1.229   5.379  0.3949 -0.0717 -1.1627
 6721SOL    HW226650   3.813   1.143   5.421  1.0486  0.6333  0.4724
 6721SOL    HW326651   3.729   1.260   5.375  0.0238 -1.2355 -2.7260
 6721SOL    MW426652   3.807   1.222   5.384 -0.1297 -0.2951 -0.2013
 6722SOL     OW26653   4.491   4.824   1.586 -0.1390 -0.3577 -0.1138
 6722SOL    HW226654   4.431   4.860   1.650  0.2094  0.5812 -0.2979
 6722SOL    HW326655   4.577   4.856   1.612  0.2458 -1.3952 -0.0540
 6722SOL    MW426656   4.494   4.833   1.598 -0.0506 -0.0592  0.1892
 6723SOL     OW26657   5.037   5.180   3.539  1.0426 -0.1768 -0.0208
 6723SOL    HW226658   4.985   5.202   3.616  0.2826 -1.2206 -0.2210
 6723SOL    HW326659   5.085   5.261   3.519  1.6603 -0.0238  1.8343
 6723SOL    MW426660   5.037   5.194   3.547 -0.2305 -0.2394 -0.3065
 6724SOL     OW26661   2.315   2.835   4.649  0.1131 -0.3425  0.4337
 6724SOL    HW226662   2.352   2.829   4.561  0.4886  0.2858  0.5449
 6724SOL    HW326663   2.385   2.805   4.707 -0.0625 -0.5583  0.5359
 6724SOL    MW426664   2.329   2.830   4.645  0.0404  0.3176  0.1715
 6725SOL     OW26665   5.831   2.113   5.302  0.2869  0.6238 -0.2431
 6725SOL    HW226666   5.915   2.113   5.349  0.8689 -0.9421 -1.2246
 6725SOL    HW326667   5.813   2.206   5.287  2.8080  0.9828 -1.6539
 6725SOL    MW426668   5.840   2.125   5.306 -0.3545 -0.4733 -0.4846
 6726SOL     OW26669   3.247   1.937   4.938  0.6301 -0.1696  0.0585
 6726SOL    HW226670   3.191   1.866   4.970  1.2463 -0.9087 -0.4563
 6726SOL    HW326671   3.243   2.003   5.007  0.4457 -0.9335  0.8062
 6726SOL    MW426672   3.239   1.936   4.952 -0.8630 -0.3403  0.1060
 6727SOL     OW26673   6.308   5.681   1.494  0.3561  0.8363 -0.5047
 6727SOL    HW226674   6.355   5.660   1.413  0.8809 -0.8545  0.2059
 6727SOL    HW326675   6.376   5.690   1.560 -0.0923  1.9173 -0.1617
 6727SOL    MW426676   6.323   5.680   1.492  0.0561 -0.0092 -0.3076
 6728SOL     OW26677   0.161   3.045   3.973  0.3125 -1.0600 -0.0915
 6728SOL    HW226678   0.243   3.037   3.924  0.0763 -2.2722 -0.3168
 6728SOL    HW326679   0.150   2.960   4.015 -0.7606 -0.8624  0.0467
 6728SOL    MW426680   0.170   3.033   3.972  0.8357  0.4469 -0.1360
 6729SOL     OW26681   6.153   2.891   5.944  0.6372 -0.1037  0.0208
 6729SOL    HW226682   6.094   2.853   5.879  2.0089 -0.7174 -0.9079
 6729SOL    HW326683   6.118   2.979   5.960  0.1933  0.0105 -1.4540
 6729SOL    MW426684   6.141   2.898   5.937  0.2697  0.1527 -0.4619
 6730SOL     OW26685   2.221   4.189   4.139  0.2079 -0.4620  0.1772
 6730SOL    HW226686   2.284   4.193   4.067  0.1458  2.5148  0.1801
 6730SOL    HW326687   2.275   4.182   4.218  0.5102  0.6172  0.0822
 6730SOL    MW426688   2.236   4.188   4.140 -0.3929  0.0853 -0.3443
 6731SOL     OW26689   2.223   3.048   4.929  0.2293  0.6884  0.4939
 6731SOL    HW226690   2.189   3.032   4.841 -0.3062  1.9524  0.4498
 6731SOL    HW326691   2.317   3.032   4.922  0.7660  3.8302 -1.1528
 6731SOL    MW426692   2.231   3.043   4.917 -0.1357  0.2641 -0.5526
 6732SOL     OW26693   3.802   2.335   4.756  0.0427  0.2520 -0.2142
 6732SOL    HW226694   3.827   2.282   4.680 -0.7358 -0.0409 -0.2810
 6732SOL    HW326695   3.735   2.395   4.723  1.0735  1.4514 -0.1866
 6732SOL    MW426696   3.796   2.336   4.742 -0.1308 -0.0387 -0.0572
 6733SOL     OW26697   0.802   2.027   5.189  0.1161 -0.1826  0.2511
 6733SOL    HW226698   0.857   1.948   5.182  1.0082  0.5033 -0.7187
 6733SOL    HW326699   0.794   2.042   5.284  2.2055  0.0887  0.4379
 6733SOL    MW426700   0.808   2.018   5.201 -0.0007 -0.1376  0.3283
 6734SOL     OW26701   1.853   2.598   1.027  0.6844  0.3691  0.2004
 6734SOL    HW226702   1.925   2.652   1.061  2.7477 -0.3203 -2.6729
 6734SOL    HW326703   1.832   2.638   0.942 -0.4729 -1.0795 -0.2327
 6734SOL    MW426704   1.859   2.611   1.020  0.0934  0.0838  0.0184
 6735SOL     OW26705   3.485   3.411   0.601  0.0738 -0.0903  0.1299
 6735SOL    HW226706   3.458   3.404   0.510 -0.7980 -0.9462  0.4416
 6735SOL    HW326707   3.581   3.402   0.599  0.0878  0.2128 -0.7190
 6735SOL    MW426708   3.494   3.409   0.589  0.0820  0.3841  0.4868
 6736SOL     OW26709   3.245   1.603   5.599 -0.7283  0.3503  0.0787
 6736SOL    HW226710   3.180   1.627   5.665  0.0663 -2.5703  2.0830
 6736SOL    HW326711   3.225   1.512   5.576  1.8269 -0.2212 -0.2124
 6736SOL    MW426712   3.234   1.594   5.604 -0.7081  1.0359 -0.4904
 6737SOL     OW26713   4.647   3.507   1.944  0.3466 -0.0611  0.3161
 6737SOL    HW226714   4.584   3.556   1.998  0.2574 -2.2463  2.4097
 6737SOL    HW326715   4.611   3.509   1.856 -1.9934 -0.1190  1.2096
 6737SOL    MW426716   4.634   3.514   1.940 -0.2874  0.5124  0.2530
 6738SOL     OW26717   3.376   5.143   2.579 -0.5313 -0.5271  0.0699
 6738SOL    HW226718   3.362   5.079   2.648  0.1248  0.9618  1.6395
 6738SOL    HW326719   3.446   5.200   2.612 -0.5718  0.5642 -1.5867
 6738SOL    MW426720   3.384   5.142   2.592 -0.5841 -0.3434  0.0699
 6739SOL     OW26721   5.544   3.823   4.890  0.2021 -0.1663 -0.6766
 6739SOL    HW226722   5.532   3.907   4.935 -0.1270 -0.9107  0.6730
 6739SOL    HW326723   5.626   3.834   4.841  1.0961  0.3599  0.8764
 6739SOL    MW426724   5.553   3.836   4.889  0.5767  0.4317  0.2557
 6740SOL     OW26725   3.170   1.633   5.910 -0.0645  0.4415 -0.0863
 6740SOL    HW226726   3.166   1.541   5.885  2.3927  0.3216 -0.3437
 6740SOL    HW326727   3.092   1.672   5.872 -1.3898 -1.5947  0.4102
 6740SOL    MW426728   3.159   1.626   5.902  0.2454 -0.3403  0.3340
 6741SOL     OW26729   4.699   4.636   0.886 -0.3317  0.5321 -0.0392
 6741SOL    HW226730   4.653   4.694   0.826  0.2954 -0.4096 -1.4800
 6741SOL    HW326731   4.783   4.678   0.901  0.2101 -0.0641 -1.2589
 6741SOL    MW426732   4.704   4.649   0.880 -0.1877 -0.5839  0.0779
 6742SOL     OW26733   4.930   1.693   1.502 -0.3911  0.1846 -0.3064
 6742SOL    HW226734   4.975   1.712   1.584 -0.0233  0.3077 -0.5308
 6742SOL    HW326735   4.837   1.698   1.523 -0.2987  0.0138  0.1458
 6742SOL    MW426736   4.924   1.697   1.516  0.7158  0.3633 -0.3119
 6743SOL     OW26737   1.558   4.069   0.761 -0.2146  0.3110  0.7076
 6743SOL    HW226738   1.557   3.976   0.740 -0.8488  0.4069  0.2685
 6743SOL    HW326739   1.648   4.088   0.786 -0.3179 -0.6833  1.9757
 6743SOL    MW426740   1.569   4.060   0.762 -0.1172 -0.3734  0.2256
 6744SOL     OW26741   2.076   2.110   0.577 -0.0372 -0.1371  0.1849
 6744SOL    HW226742   2.165   2.085   0.552 -0.2942  0.0763 -1.0224
 6744SOL    HW326743   2.067   2.200   0.546 -0.2632  0.2875  1.4255
 6744SOL    MW426744   2.086   2.119   0.570 -0.5387  0.1274 -0.2290
 6745SOL     OW26745   4.974   0.373   0.004 -0.0023 -0.0838  0.1847
 6745SOL    HW226746   4.944   0.379  -0.086 -0.9071 -1.4536  0.3685
 6745SOL    HW326747   4.904   0.326   0.050  1.2194 -0.9765  1.2131
 6745SOL    MW426748   4.961   0.368  -0.002  0.7523  0.4302 -0.1757
 6746SOL     OW26749   0.502   2.865   2.382 -0.2528 -0.0211 -0.3765
 6746SOL    HW226750   0.461   2.892   2.300 -2.2467 -1.2877  0.1276
 6746SOL    HW326751   0.436   2.881   2.449 -0.1999 -2.6124  0.4118
 6746SOL    MW426752   0.488   2.871   2.380  0.0105 -0.5362 -0.1754
 6747SOL     OW26753   0.520   3.852   3.762  0.8372  0.0480  0.1584
 6747SOL    HW226754   0.589   3.891   3.709 -0.2557  0.9405 -0.6625
 6747SOL    HW326755   0.441   3.860   3.708 -0.0045 -0.4746  1.2710
 6747SOL    MW426756   0.518   3.858   3.748  0.3090 -0.2534  0.3239
 6748SOL     OW26757   6.047   5.460   3.630  0.2885 -0.6787  0.5020
 6748SOL    HW226758   5.986   5.400   3.587 -3.7455  2.1351  1.6763
 6748SOL    HW326759   6.104   5.491   3.560 -1.0507 -1.8328 -1.1952
 6748SOL    MW426760   6.046   5.456   3.615  0.3793 -0.4314 -0.0540
 6749SOL     OW26761   4.936   4.170   0.842  0.3520  0.1898 -0.2965
 6749SOL    HW226762   4.891   4.122   0.772  0.9143 -1.7104  0.5990
 6749SOL    HW326763   5.009   4.114   0.867 -0.0206  0.6505  2.0397
 6749SOL    MW426764   4.939   4.157   0.836  0.0619 -0.7634  0.0115
 6750SOL     OW26765   4.551   3.282   2.602 -0.3039 -0.4565 -0.3034
 6750SOL    HW226766   4.463   3.286   2.637  0.0212  0.5531  0.4421
 6750SOL    HW326767   4.598   3.223   2.661  0.0903  0.7824  0.6589
 6750SOL    MW426768   4.546   3.275   2.614 -0.4716 -0.2909 -0.2830
 6751SOL     OW26769   2.732   0.276   0.843  0.0839 -0.8871 -0.5040
 6751SOL    HW226770   2.680   0.346   0.803 -0.9917 -0.5881  1.3051
 6751SOL    HW326771   2.771   0.230   0.768  0.8049  1.5751 -1.7458
 6751SOL    MW426772   2.730   0.279   0.828 -0.6622  0.2686 -0.2544
 6752SOL     OW26773   5.738   3.427   4.112 -0.2428  0.4465  0.8262
 6752SOL    HW226774   5.715   3.423   4.205 -0.3252  1.7398  0.8874
 6752SOL    HW326775   5.689   3.503   4.079 -0.7408 -0.3947 -0.4283
 6752SOL    MW426776   5.729   3.437   4.119 -0.0787  0.0755  0.4215
 6753SOL     OW26777   3.083   0.631   3.053 -0.3473 -0.4770 -0.3330
 6753SOL    HW226778   3.104   0.599   2.965  0.8191 -1.0884  0.1302
 6753SOL    HW326779   3.167   0.628   3.100 -0.5324  1.7063  0.2529
 6753SOL    MW426780   3.097   0.626   3.048  0.4466 -0.4777 -0.4717
 6754SOL     OW26781   0.702   6.028   1.519 -0.1479 -0.1900 -0.1294
 6754SOL    HW226782   0.694   6.091   1.448  1.2530  0.7652  0.5277
 6754SOL    HW326783   0.644   5.956   1.494 -0.9272  0.8540 -1.4304
 6754SOL    MW426784   0.693   6.027   1.506  0.1295 -0.3434 -0.0004
 6755SOL     OW26785   1.071   3.745   2.832 -0.3599  0.1036 -0.7553
 6755SOL    HW226786   1.118   3.793   2.900  0.5007 -1.4452 -0.1964
 6755SOL    HW326787   1.009   3.690   2.880 -0.8234  0.1206 -1.3264
 6755SOL    MW426788   1.069   3.744   2.848 -0.2396  0.1439 -0.1468
 6756SOL     OW26789   5.982   2.748   4.716  0.1414 -0.4149 -0.1523
 6756SOL    HW226790   6.022   2.665   4.690  0.6559 -0.9426  2.1183
 6756SOL    HW326791   6.036   2.779   4.788 -1.1477  0.9524  0.2750
 6756SOL    MW426792   5.994   2.741   4.722  0.5003 -0.2480  0.4514
 6757SOL     OW26793   0.828   5.223   1.324  0.1409  0.0982 -0.2439
 6757SOL    HW226794   0.824   5.271   1.407 -0.4248 -0.4281  0.0474
 6757SOL    HW326795   0.870   5.283   1.263 -0.4389  0.9126  0.1382
 6757SOL    MW426796   0.833   5.237   1.327  0.7507 -0.0721  0.1875
 6758SOL     OW26797   5.742   2.547   4.033 -0.0757  0.0918 -0.4581
 6758SOL    HW226798   5.756   2.606   3.959  0.1225 -0.7625 -1.1177
 6758SOL    HW326799   5.807   2.574   4.098  0.6259  0.0091 -1.1204
 6758SOL    MW426800   5.752   2.559   4.032 -0.5887  0.0563  0.1014
 6759SOL     OW26801   4.270   5.158   1.118 -0.5743  0.1089  0.4184
 6759SOL    HW226802   4.353   5.161   1.165 -0.4580  0.6123  0.1937
 6759SOL    HW326803   4.219   5.229   1.156  0.0734  1.5084 -1.1810
 6759SOL    MW426804   4.275   5.168   1.129 -0.7691  0.1308 -0.8374
 6760SOL     OW26805   1.496   6.174   3.944 -0.5381 -0.0837  0.1367
 6760SOL    HW226806   1.462   6.248   3.994  0.8041  0.7766 -0.1709
 6760SOL    HW326807   1.580   6.204   3.910  0.2014 -1.8566  0.2505
 6760SOL    MW426808   1.503   6.188   3.946  0.4158  0.1626 -0.0473
 6761SOL     OW26809   5.130   4.602   5.321 -0.1995 -0.3309 -0.1644
 6761SOL    HW226810   5.076   4.634   5.249 -0.9425 -1.4950 -0.1692
 6761SOL    HW326811   5.215   4.642   5.308 -0.8513  0.9578 -0.6038
 6761SOL    MW426812   5.134   4.611   5.310  0.0616 -0.3050  0.4262
 6762SOL     OW26813   4.991   4.411   6.383 -0.7685  0.0388 -0.0705
 6762SOL    HW226814   4.951   4.441   6.465 -1.9658  0.5275 -0.8102
 6762SOL    HW326815   5.027   4.325   6.405  0.6564  0.9771  1.4705
 6762SOL    MW426816   4.990   4.404   6.397  0.3340  1.0456 -0.4041
 6763SOL     OW26817   6.403   3.521   5.818  0.0453 -0.1307 -0.8203
 6763SOL    HW226818   6.423   3.451   5.756  0.1238 -0.1578 -0.7642
 6763SOL    HW326819   6.372   3.475   5.896  2.1753 -0.2209  0.0335
 6763SOL    MW426820   6.401   3.505   5.820 -0.2226 -0.4301 -0.1879
 6764SOL     OW26821   4.631   4.643   5.365  0.1598  0.4434 -0.1660
 6764SOL    HW226822   4.691   4.675   5.433  1.2718 -2.0897  0.1592
 6764SOL    HW326823   4.583   4.572   5.408 -2.3793  1.6940 -0.7630
 6764SOL    MW426824   4.633   4.638   5.380 -0.3137 -0.2840 -0.5029
 6765SOL     OW26825   0.103   3.029   0.986  0.2646  0.8651  0.2256
 6765SOL    HW226826   0.093   3.110   0.937 -1.8425 -0.0515 -1.0410
 6765SOL    HW326827   0.048   3.041   1.064 -0.0861  0.6555  0.0137
 6765SOL    MW426828   0.094   3.041   0.990  0.1593  0.2993 -0.0194
 6766SOL     OW26829   1.946   0.508   2.829  0.2384 -0.5208 -0.2622
 6766SOL    HW226830   2.004   0.439   2.863  0.8138 -0.9376 -1.9732
 6766SOL    HW326831   2.003   0.564   2.776 -0.5563  0.2362 -0.3402
 6766SOL    MW426832   1.961   0.506   2.826 -0.0065 -0.1278 -0.4825
 6767SOL     OW26833   3.812   4.409   0.015  0.0577  0.2283 -0.6246
 6767SOL    HW226834   3.870   4.417   0.091 -1.0699  0.3468  0.2546
 6767SOL    HW326835   3.853   4.463  -0.052  1.0247  0.2147 -0.0626
 6767SOL    MW426836   3.825   4.417   0.016 -0.4430  0.6937  0.1768
 6768SOL     OW26837   1.760   3.857   2.005  0.4298 -0.6825 -0.1492
 6768SOL    HW226838   1.704   3.844   1.928 -0.4058  0.2098  0.2815
 6768SOL    HW326839   1.756   3.773   2.051 -0.3151 -0.7317 -0.2867
 6768SOL    MW426840   1.752   3.844   2.001  0.3981  0.2022 -0.1899
 6769SOL     OW26841   5.242   2.640   1.996 -0.3529 -0.0954 -0.4610
 6769SOL    HW226842   5.242   2.564   2.055 -0.1922  0.2559 -0.0026
 6769SOL    HW326843   5.252   2.716   2.055 -0.6667  0.2881 -0.9012
 6769SOL    MW426844   5.244   2.640   2.012  0.0550 -0.6894 -0.2420
 6770SOL     OW26845   3.294   2.242   4.793  0.1036  0.1546  0.0149
 6770SOL    HW226846   3.275   2.336   4.789 -0.0952  0.1276  0.3405
 6770SOL    HW326847   3.383   2.235   4.759  0.2179  0.4880  0.2405
 6770SOL    MW426848   3.303   2.254   4.788 -0.5512  0.0621 -0.0779
 6771SOL     OW26849   0.042   4.269   3.194 -0.2100 -0.0541  0.5463
 6771SOL    HW226850   0.096   4.347   3.198 -1.0830  0.7179 -1.5323
 6771SOL    HW326851   0.054   4.235   3.105 -1.9837 -0.6906  0.5071
 6771SOL    MW426852   0.050   4.275   3.183  0.2814 -0.1894  0.0709
 6772SOL     OW26853   4.947   2.856   1.043  0.3682  0.2612 -0.2525
 6772SOL    HW226854   4.965   2.948   1.022 -1.2206  1.0156  1.4069
 6772SOL    HW326855   4.882   2.829   0.978 -0.0826  0.7176 -0.0020
 6772SOL    MW426856   4.940   2.864   1.032 -0.0626 -0.1186 -0.0352
 6773SOL     OW26857   4.039   3.590   6.423  0.3892 -0.7699  0.0680
 6773SOL    HW226858   4.014   3.676   6.390 -1.2273 -1.0698  0.4496
 6773SOL    HW326859   4.060   3.540   6.343  1.9964  0.1206 -0.1230
 6773SOL    MW426860   4.039   3.595   6.408  0.2237  0.3817 -0.3065
 6774SOL     OW26861   2.543   0.896   4.525 -0.2481 -0.4216 -0.0696
 6774SOL    HW226862   2.618   0.872   4.579 -0.5815  2.4690  1.8610
 6774SOL    HW326863   2.565   0.982   4.490 -3.0716  1.1302  1.5963
 6774SOL    MW426864   2.556   0.904   4.527  0.2085  0.1660 -0.2191
 6775SOL     OW26865   5.167   0.331   3.094 -0.2101  0.2004 -0.0900
 6775SOL    HW226866   5.198   0.382   3.169  1.1145 -1.0507  0.2586
 6775SOL    HW326867   5.242   0.329   3.034 -0.6019 -0.4329 -0.5680
 6775SOL    MW426868   5.181   0.337   3.096 -0.3144 -1.0507  0.0479
 6776SOL     OW26869   2.626   5.069   1.709  0.3881 -0.0812 -0.0292
 6776SOL    HW226870   2.670   5.134   1.765  0.4073 -1.7976  2.0846
 6776SOL    HW326871   2.541   5.056   1.750 -0.9205  0.8907 -2.2907
 6776SOL    MW426872   2.621   5.076   1.722 -0.2228  0.1436  0.3330
 6777SOL     OW26873   2.303   5.303   1.806 -0.4958  0.0199  0.2925
 6777SOL    HW226874   2.335   5.389   1.778 -0.3926 -0.0378  0.2311
 6777SOL    HW326875   2.286   5.312   1.899 -0.4461  0.0961  0.2938
 6777SOL    MW426876   2.305   5.315   1.814 -0.1443  0.3073  0.2410
 6778SOL     OW26877   5.821   5.028   4.289 -0.0918  0.6308 -0.4520
 6778SOL    HW226878   5.752   5.042   4.224 -0.3006  0.7410 -0.2095
 6778SOL    HW326879   5.837   4.934   4.287 -0.4832  0.5613 -0.2719
 6778SOL    MW426880   5.814   5.018   4.280  0.2131 -0.0420  0.7364
 6779SOL     OW26881   0.611   3.221   3.281  0.2081 -0.2382  0.0433
 6779SOL    HW226882   0.638   3.130   3.264 -0.0034 -0.1217 -0.9875
 6779SOL    HW326883   0.686   3.274   3.254 -0.2510 -0.0278 -0.8462
 6779SOL    MW426884   0.624   3.216   3.275  0.5707 -1.1520 -0.3836
 6780SOL     OW26885   0.045   5.272   3.915 -0.1044 -0.3854  0.1025
 6780SOL    HW226886   0.096   5.352   3.906 -0.4458 -0.3588 -2.4670
 6780SOL    HW326887   0.006   5.277   4.002  2.7965  0.4292  1.4790
 6780SOL    MW426888   0.046   5.283   3.925 -0.2640 -0.6114  0.2623
 6781SOL     OW26889   6.110   4.181   6.188  0.5711 -0.2563  0.4142
 6781SOL    HW226890   6.185   4.222   6.231 -1.1624  2.9285  0.6746
 6781SOL    HW326891   6.046   4.168   6.258 -0.4539  0.4789 -0.3462
 6781SOL    MW426892   6.111   4.185   6.203 -0.4614 -0.1321  0.8296
 6782SOL     OW26893   0.897   5.337   4.386 -0.2376  0.4180  0.7764
 6782SOL    HW226894   0.878   5.261   4.330 -2.1602  0.9195  0.6594
 6782SOL    HW326895   0.901   5.302   4.474 -0.2871  0.0475  0.6336
 6782SOL    MW426896   0.895   5.322   4.390 -0.6147  0.5006  0.3688
 6783SOL     OW26897   1.144   1.076   3.797 -0.2351 -0.1184  0.1560
 6783SOL    HW226898   1.126   1.118   3.881  0.9982  0.8977 -0.0585
 6783SOL    HW326899   1.233   1.043   3.806 -1.2976 -3.1936  0.4741
 6783SOL    MW426900   1.153   1.077   3.810  0.0796 -0.3548  0.7750
 6784SOL     OW26901   5.675   6.089   3.526 -0.2497  0.1636 -0.2712
 6784SOL    HW226902   5.687   6.175   3.486  1.3356 -1.0362 -2.6077
 6784SOL    HW326903   5.628   6.038   3.459  2.6463 -1.9784 -0.8877
 6784SOL    MW426904   5.670   6.093   3.512 -0.4576 -0.3787  0.5128
 6785SOL     OW26905   5.574   1.096   5.601  0.1562  0.2200 -0.0418
 6785SOL    HW226906   5.552   1.032   5.533  0.3632 -2.0552  1.8967
 6785SOL    HW326907   5.670   1.091   5.608  0.3745  2.1646 -1.1142
 6785SOL    MW426908   5.584   1.087   5.593  0.3193  0.9245  0.0902
 6786SOL     OW26909   2.725   3.276   0.993 -0.2536  0.1487 -0.0825
 6786SOL    HW226910   2.659   3.340   0.965 -1.9138 -1.3008  0.2819
 6786SOL    HW326911   2.771   3.319   1.065  0.2018  1.7483 -1.2681
 6786SOL    MW426912   2.722   3.290   0.998  0.2161 -0.4899  0.0236
 6787SOL     OW26913   3.554   1.291   2.847  0.5434  0.3683 -0.6423
 6787SOL    HW226914   3.622   1.253   2.793  1.5761 -0.0497  0.9071
 6787SOL    HW326915   3.596   1.366   2.889 -0.3880  0.9794 -0.7625
 6787SOL    MW426916   3.568   1.296   2.845  0.3363  0.5886  0.4200
 6788SOL     OW26917   2.224   2.865   4.256  0.4184  0.4474 -0.6767
 6788SOL    HW226918   2.199   2.957   4.249 -0.6743  0.2607  0.3369
 6788SOL    HW326919   2.315   2.866   4.285 -0.2014  1.2556  1.3916
 6788SOL    MW426920   2.232   2.877   4.259 -0.2203 -0.0103 -0.2635
 6789SOL     OW26921   4.196   5.150   0.399  0.2300  0.0984 -0.4946
 6789SOL    HW226922   4.189   5.242   0.376  1.4429  0.4611  0.4713
 6789SOL    HW326923   4.115   5.110   0.367  0.3464  1.1958 -2.2671
 6789SOL    MW426924   4.184   5.157   0.391 -0.0988  0.9523 -0.2920
 6790SOL     OW26925   4.387   2.768   4.426  1.0807 -0.8402  0.2387
 6790SOL    HW226926   4.404   2.676   4.447 -0.4188 -0.7333  2.1604
 6790SOL    HW326927   4.329   2.798   4.496  0.6405  1.2777 -0.9697
 6790SOL    MW426928   4.382   2.760   4.438 -0.4457  0.0031 -0.2994
 6791SOL     OW26929   4.788   6.392   5.793 -0.2504 -0.2578 -0.0193
 6791SOL    HW226930   4.777   6.334   5.868 -0.6746 -0.1281  0.0231
 6791SOL    HW326931   4.879   6.380   5.766 -0.4940 -1.3837 -0.3708
 6791SOL    MW426932   4.798   6.383   5.799 -0.2169  0.6197  0.4388
 6792SOL     OW26933   4.306   0.371   5.756 -0.2833 -0.1392  0.1033
 6792SOL    HW226934   4.362   0.304   5.795 -0.4338 -0.5986 -0.4597
 6792SOL    HW326935   4.224   0.325   5.735  0.3549 -0.3251 -2.2377
 6792SOL    MW426936   4.302   0.356   5.759  0.2385  0.0716  0.2105
 6793SOL     OW26937   1.491   5.713   0.961 -0.0989 -0.2993 -0.4009
 6793SOL    HW226938   1.434   5.638   0.978 -0.2413 -0.3586 -1.0982
 6793SOL    HW326939   1.571   5.694   1.010 -0.1201 -0.9210 -0.5996
 6793SOL    MW426940   1.494   5.700   0.970 -0.5069 -0.0308  0.1685
 6794SOL     OW26941   0.378   1.762   3.423 -0.2376  0.5635 -0.0371
 6794SOL    HW226942   0.304   1.756   3.363 -0.4351  1.6012  0.0826
 6794SOL    HW326943   0.453   1.730   3.373 -0.7306 -0.3719 -0.2003
 6794SOL    MW426944   0.378   1.757   3.409  0.4634 -0.0937  0.9396
 6795SOL     OW26945   5.510   0.974   1.960  0.1033  0.3775  0.5539
 6795SOL    HW226946   5.565   1.052   1.972  2.9356 -1.5007  0.5176
 6795SOL    HW326947   5.474   0.956   2.047 -1.3044  2.1377  0.3985
 6795SOL    MW426948   5.512   0.982   1.973 -0.1545 -0.7649  0.0918
 6796SOL     OW26949   2.977   4.883   3.098 -0.0769 -0.1519  0.2292
 6796SOL    HW226950   2.937   4.908   3.015 -0.9397  0.0934  0.7122
 6796SOL    HW326951   2.909   4.836   3.145 -0.2775  1.4648  1.6334
 6796SOL    MW426952   2.963   4.880   3.093 -0.1345  0.1890 -0.0534
 6797SOL     OW26953   5.388   4.719   3.212  0.3069  0.0420  0.8561
 6797SOL    HW226954   5.330   4.771   3.267 -1.2380  1.6824 -2.0864
 6797SOL    HW326955   5.329   4.662   3.162  1.6420 -1.4354  0.8799
 6797SOL    MW426956   5.372   4.718   3.212 -0.1284  0.4777 -0.2645
 6798SOL     OW26957   5.307   4.274   4.335  0.2811  0.3548  0.4789
 6798SOL    HW226958   5.355   4.195   4.360  2.1261  1.9358  2.2476
 6798SOL    HW326959   5.321   4.280   4.240 -1.8757 -2.5807 -0.1947
 6798SOL    MW426960   5.315   4.264   4.325 -0.3252 -0.0855  0.7319
 6799SOL     OW26961   0.652   3.139   4.502  0.1658 -0.1067 -0.5827
 6799SOL    HW226962   0.571   3.165   4.459  0.3318  0.2680 -0.6697
 6799SOL    HW326963   0.624   3.101   4.586  0.0101  1.6425  0.1840
 6799SOL    MW426964   0.638   3.137   4.507 -0.5215  0.6417  0.6576
 6800SOL     OW26965   1.529   2.557   3.454  0.6386 -0.1992 -0.2453
 6800SOL    HW226966   1.546   2.570   3.547  0.6850 -0.1989 -0.2540
 6800SOL    HW326967   1.442   2.518   3.452  0.3199  0.4891 -0.2407
 6800SOL    MW426968   1.520   2.554   3.466 -0.1914 -0.5162 -0.2253
 6801SOL     OW26969   1.146   5.692   2.761 -0.9289  0.0585  0.2066
 6801SOL    HW226970   1.147   5.600   2.732 -0.4547  0.4177 -0.9676
 6801SOL    HW326971   1.072   5.696   2.822 -1.8792 -0.7849 -0.8383
 6801SOL    MW426972   1.136   5.680   2.765  0.6974 -0.1557  0.5340
 6802SOL     OW26973   1.705   4.577   1.879  0.1410 -0.3651  0.1768
 6802SOL    HW226974   1.621   4.552   1.918 -0.6184 -1.2832 -1.8894
 6802SOL    HW326975   1.767   4.576   1.952 -1.8126  1.4009  1.9647
 6802SOL    MW426976   1.702   4.573   1.894 -0.4331 -0.0702  0.1298
 6803SOL     OW26977   4.350   5.973   3.574  0.0130  0.4245 -0.3928
 6803SOL    HW226978   4.374   5.880   3.574  0.7201  0.5851 -1.2747
 6803SOL    HW326979   4.428   6.017   3.540  0.6689  1.6241  2.4038
 6803SOL    MW426980   4.364   5.967   3.569 -0.1281  0.3396  1.0117
 6804SOL     OW26981   4.468   0.668   2.761  0.0850  0.1111  0.0706
 6804SOL    HW226982   4.483   0.587   2.810 -0.3740  0.2906  0.5195
 6804SOL    HW326983   4.533   0.666   2.692  0.5223 -0.3160  0.4823
 6804SOL    MW426984   4.478   0.657   2.759  0.4476  0.1789  0.6051
 6805SOL     OW26985   1.354   3.126   2.391 -0.3330  0.0325 -0.2584
 6805SOL    HW226986   1.446   3.147   2.405 -0.4974  0.3830  0.3542
 6805SOL    HW326987   1.351   3.031   2.383  0.3329  0.1335 -2.3143
 6805SOL    MW426988   1.366   3.116   2.392 -0.5212 -0.0736 -0.1568
 6806SOL     OW26989   3.428   0.844   4.920 -0.5049  0.1586  0.0977
 6806SOL    HW226990   3.453   0.864   5.010  1.1957 -0.2275 -0.2570
 6806SOL    HW326991   3.412   0.930   4.880 -1.0127  0.3448  0.6871
 6806SOL    MW426992   3.429   0.858   4.927 -0.8299  0.2523  0.1476
 6807SOL     OW26993   2.350   1.380   0.771 -0.4227  0.7140  0.5110
 6807SOL    HW226994   2.420   1.428   0.816  0.1825  1.4780 -1.1638
 6807SOL    HW326995   2.394   1.339   0.696 -2.0302  2.8867 -1.7764
 6807SOL    MW426996   2.365   1.381   0.767  0.1670 -0.4424  0.2685
 6808SOL     OW26997   0.967   2.809   1.937  0.2292  0.1068  0.0440
 6808SOL    HW226998   1.002   2.720   1.932  2.5354  0.9332  0.4216
 6808SOL    HW326999   0.874   2.799   1.917  0.3452 -2.4224  0.4386
 6808SOL    MW427000   0.959   2.796   1.934  0.1780  0.3070 -0.0639
 6809SOL     OW27001   0.659   5.745   1.509 -0.1854  0.0988 -0.0888
 6809SOL    HW227002   0.725   5.702   1.563 -0.4698 -0.0226  0.1629
 6809SOL    HW327003   0.606   5.674   1.473 -2.6412  0.2889  2.8315
 6809SOL    MW427004   0.661   5.730   1.511 -0.4945  0.1673 -0.5925
 6810SOL     OW27005   0.043   0.920   5.052  0.1965  0.7791  0.6412
 6810SOL    HW227006   0.091   0.937   4.971  2.6627 -1.5785  1.4434
 6810SOL    HW327007  -0.046   0.899   5.024  1.0038 -0.0093 -1.4951
 6810SOL    MW427008   0.037   0.919   5.038 -0.0072  0.3433  0.0060
 6811SOL     OW27009   5.922   4.272   1.914 -0.2178 -0.1291 -0.2748
 6811SOL    HW227010   5.860   4.205   1.883 -0.6630  0.3182 -0.3696
 6811SOL    HW327011   6.007   4.228   1.914 -0.4009 -0.5078 -0.9568
 6811SOL    MW427012   5.925   4.257   1.910 -0.5121  0.1753 -0.6310
 6812SOL     OW27013   5.727   2.988   0.742 -0.5425 -0.6116 -0.4213
 6812SOL    HW227014   5.737   2.895   0.717 -2.1058 -0.8736 -0.1668
 6812SOL    HW327015   5.678   3.026   0.670  0.0579  0.0311 -0.5010
 6812SOL    MW427016   5.722   2.980   0.729 -0.1906  0.2674  0.6735
 6813SOL     OW27017   4.515   5.110   1.288  0.2968 -0.0679  0.7202
 6813SOL    HW227018   4.565   5.186   1.260 -1.1904  0.9381  0.7022
 6813SOL    HW327019   4.464   5.140   1.364 -0.9225 -0.7938  0.2256
 6813SOL    MW427020   4.514   5.124   1.295 -0.0181  0.3881 -0.9756
 6814SOL     OW27021   3.954   4.086   0.161  1.0020 -0.1321  0.6172
 6814SOL    HW227022   4.018   4.048   0.101  0.0083 -0.4411 -0.2585
 6814SOL    HW327023   3.953   4.180   0.139  0.9312 -0.1784  0.4229
 6814SOL    MW427024   3.962   4.094   0.150 -0.3558  0.1140  0.2161
 6815SOL     OW27025   2.307   3.472   4.839 -0.0861 -0.2992  0.0512
 6815SOL    HW227026   2.223   3.431   4.863 -0.2978  1.1221  1.9094
 6815SOL    HW327027   2.355   3.401   4.796 -2.3869 -1.0382 -1.5595
 6815SOL    MW427028   2.302   3.457   4.836 -0.7564 -0.2573  0.1826
 6816SOL     OW27029   5.396   0.509   5.273 -0.0647  0.0357 -0.2305
 6816SOL    HW227030   5.438   0.565   5.208  1.1271 -2.0665 -1.3717
 6816SOL    HW327031   5.460   0.502   5.344  0.2247 -0.7061 -0.5637
 6816SOL    MW427032   5.410   0.516   5.274  0.2418  0.1698  0.0247
 6817SOL     OW27033   1.310   4.500   0.669 -0.3053  0.6595 -0.6956
 6817SOL    HW227034   1.273   4.542   0.747 -1.0906  2.4698 -1.9730
 6817SOL    HW327035   1.248   4.522   0.599  1.0369  0.1764 -2.0753
 6817SOL    MW427036   1.297   4.509   0.670  0.1435 -0.4863  0.3445
 6818SOL     OW27037   3.172   1.929   3.676 -0.1176 -0.2634 -0.4292
 6818SOL    HW227038   3.084   1.916   3.641  0.1936 -1.4484 -0.8164
 6818SOL    HW327039   3.175   2.022   3.699 -1.0729  0.0478 -1.4864
 6818SOL    MW427040   3.161   1.939   3.675 -0.4031 -0.2927  0.0439
 6819SOL     OW27041   2.019   1.943   2.178 -0.7323 -0.0345 -0.7455
 6819SOL    HW227042   2.040   2.015   2.119  0.2692  1.9747  1.8643
 6819SOL    HW327043   2.095   1.885   2.173 -1.4387 -0.8652 -2.6806
 6819SOL    MW427044   2.032   1.945   2.170 -0.3761  0.7339  0.4531
 6820SOL     OW27045   5.246   4.084   1.386  0.0452  0.2501 -0.5830
 6820SOL    HW227046   5.306   4.038   1.444  0.1292 -0.7000 -1.3924
 6820SOL    HW327047   5.228   4.167   1.430  0.1692 -0.4120  0.7428
 6820SOL    MW427048   5.252   4.089   1.399 -0.0114  0.3432  0.5389
 6821SOL     OW27049   3.477   0.769   2.085 -0.5252  0.6721  0.2432
 6821SOL    HW227050   3.447   0.736   2.000  0.8168 -1.5400  0.5524
 6821SOL    HW327051   3.563   0.728   2.097 -0.1162  1.9742  2.0929
 6821SOL    MW427052   3.484   0.759   2.075  0.2792 -0.1949  0.2959
 6822SOL     OW27053   6.215   2.746   1.114 -0.3679  0.2612 -0.5171
 6822SOL    HW227054   6.282   2.734   1.047  0.0876  0.7731 -0.1635
 6822SOL    HW327055   6.133   2.723   1.070 -0.0033 -0.0610 -1.0477
 6822SOL    MW427056   6.213   2.741   1.099  0.1291 -0.1180 -0.3713
 6823SOL     OW27057   1.512   3.841   1.590 -0.7639 -0.2378 -0.3093
 6823SOL    HW227058   1.568   3.919   1.594  0.5546 -1.1892  1.6500
 6823SOL    HW327059   1.536   3.798   1.508  0.8143 -0.1976  0.1045
 6823SOL    MW427060   1.523   3.846   1.580 -0.0054 -0.1476 -0.0513
 6824SOL     OW27061   5.196   2.506   4.728  0.5692  0.4030 -0.1193
 6824SOL    HW227062   5.257   2.435   4.747  0.0250 -0.2811 -0.8472
 6824SOL    HW327063   5.175   2.544   4.813 -1.0358 -1.9097  0.6132
 6824SOL    MW427064   5.201   2.501   4.742  0.1950  0.6086  0.0573
 6825SOL     OW27065   2.187   2.698   0.843  0.0460  0.9831  0.5794
 6825SOL    HW227066   2.128   2.624   0.830  0.0266  1.0502  0.2682
 6825SOL    HW327067   2.228   2.682   0.928  0.3291  0.4173  0.3361
 6825SOL    MW427068   2.184   2.686   0.853 -0.4394  0.1184 -0.1539
 6826SOL     OW27069   5.296   4.369   0.926  0.2092  0.1933  0.0643
 6826SOL    HW227070   5.267   4.347   0.838 -0.8492 -1.4162  0.7712
 6826SOL    HW327071   5.359   4.301   0.949 -1.3218 -0.8619  1.4038
 6826SOL    MW427072   5.300   4.357   0.918  0.1662  0.2413 -0.0028
 6827SOL     OW27073   5.049   5.694   4.851  0.5412 -0.4773 -0.4369
 6827SOL    HW227074   5.119   5.733   4.903  1.0433 -1.1040 -0.6397
 6827SOL    HW327075   4.969   5.716   4.898  0.9545 -0.6343  0.3472
 6827SOL    MW427076   5.047   5.702   4.864 -0.7519  0.1303  0.7553
 6828SOL     OW27077   6.347   6.119   4.127  0.1535  0.5064  0.3345
 6828SOL    HW227078   6.270   6.175   4.139  0.5128  1.5381 -1.6481
 6828SOL    HW327079   6.312   6.036   4.095 -0.2601  0.2381  1.4611
 6828SOL    MW427080   6.333   6.116   4.124  0.9958 -0.5720  0.2119
 6829SOL     OW27081   2.942   3.634   1.508 -0.9477  0.4356  0.2146
 6829SOL    HW227082   2.914   3.623   1.599 -0.4163 -0.5011  0.2792
 6829SOL    HW327083   3.009   3.702   1.512 -0.6959  0.1699  0.5729
 6829SOL    MW427084   2.947   3.641   1.520  0.1655  0.0562 -0.7648
 6830SOL     OW27085   6.293   0.972   1.561  0.2026  0.1053 -0.3422
 6830SOL    HW227086   6.287   1.056   1.515  0.1601 -0.4389 -1.3451
 6830SOL    HW327087   6.235   0.914   1.513  0.9375 -0.7551 -0.2072
 6830SOL    MW427088   6.285   0.976   1.549 -0.5842  0.1936  0.8081
 6831SOL     OW27089   3.168   5.676   4.906 -0.2609 -0.2610 -0.0400
 6831SOL    HW227090   3.094   5.736   4.906 -0.0544  0.0094 -1.0137
 6831SOL    HW327091   3.241   5.729   4.939 -0.4912 -0.5340  0.9421
 6831SOL    MW427092   3.168   5.691   4.910 -0.2512 -0.5019 -0.3590
 6832SOL     OW27093   3.038   3.476   2.176 -0.2243 -0.0913  0.4592
 6832SOL    HW227094   3.060   3.480   2.083  0.5933  0.4501  0.6655
 6832SOL    HW327095   2.944   3.492   2.179 -0.0334  1.3301 -0.1782
 6832SOL    MW427096   3.029   3.479   2.164  0.3315 -0.0444  0.5630
 6833SOL     OW27097   5.609   5.456   4.566 -1.2696  0.2993 -0.0431
 6833SOL    HW227098   5.604   5.519   4.495 -3.6542  0.7076  0.3938
 6833SOL    HW327099   5.581   5.374   4.527 -0.6035  0.0523 -0.0196
 6833SOL    MW427100   5.605   5.454   4.552 -0.1755 -0.3672  0.4109
 6834SOL     OW27101   1.986   4.530   5.055  0.0090 -0.1893  0.1369
 6834SOL    HW227102   1.925   4.476   5.104 -1.9870  0.3480 -1.6415
 6834SOL    HW327103   2.069   4.481   5.057 -0.7496 -1.4674  1.6756
 6834SOL    MW427104   1.989   4.516   5.061 -0.4767  0.0991  0.2560
 6835SOL     OW27105   2.024   1.920   3.128 -0.2663  0.2899 -0.9876
 6835SOL    HW227106   1.965   1.848   3.105  0.0520 -0.8327  1.4082
 6835SOL    HW327107   2.112   1.886   3.107 -0.1495  0.1172 -0.2517
 6835SOL    MW427108   2.028   1.906   3.122  0.2450  0.9435  0.3412
 6836SOL     OW27109   3.063   5.746   2.229  0.1924  0.1130 -0.4465
 6836SOL    HW227110   3.094   5.660   2.258  1.0705  0.8167  0.7817
 6836SOL    HW327111   2.968   5.743   2.245  0.3159 -0.3838  0.2321
 6836SOL    MW427112   3.054   5.734   2.235 -1.0093 -0.2890  0.1747
 6837SOL     OW27113   3.701   2.518   1.492  0.5697  0.0156  0.4306
 6837SOL    HW227114   3.699   2.436   1.541  1.9222 -0.4387 -0.2370
 6837SOL    HW327115   3.612   2.526   1.456  0.5855 -1.4826 -0.0102
 6837SOL    MW427116   3.689   2.509   1.494  0.4360 -0.1255 -0.2999
 6838SOL     OW27117   0.619   3.722   0.213 -0.2246  0.1136  0.1257
 6838SOL    HW227118   0.587   3.635   0.190  0.0587  0.6280 -2.5050
 6838SOL    HW327119   0.698   3.706   0.264 -0.7838 -1.1464  0.6413
 6838SOL    MW427120   0.625   3.708   0.217 -0.5505  0.2053  0.4515
 6839SOL     OW27121   4.830   2.694   5.895  0.5206  0.0723 -0.3224
 6839SOL    HW227122   4.762   2.642   5.852 -0.3649  0.3584  0.6951
 6839SOL    HW327123   4.837   2.657   5.983  1.6623  0.0800 -0.3989
 6839SOL    MW427124   4.822   2.682   5.901 -0.2973 -0.2426 -1.0475
 6840SOL     OW27125   4.529   2.348   1.296  0.3549 -0.6338  0.1280
 6840SOL    HW227126   4.539   2.385   1.208 -0.4852 -1.5308 -0.3665
 6840SOL    HW327127   4.487   2.263   1.281  0.9782 -1.1672  1.3370
 6840SOL    MW427128   4.525   2.341   1.282  0.2767  0.3662  0.0653
 6841SOL     OW27129   0.201   5.319   1.205  0.1244 -0.3761 -0.0681
 6841SOL    HW227130   0.121   5.273   1.232  0.1269  0.0906  0.7625
 6841SOL    HW327131   0.267   5.293   1.270  0.2652  0.3602  0.0938
 6841SOL    MW427132   0.199   5.310   1.217 -0.3686 -0.0797 -0.3680
 6842SOL     OW27133   0.447   2.469   6.009 -0.4258 -0.0209  0.2645
 6842SOL    HW227134   0.378   2.528   5.979 -0.2785  0.3490  0.6544
 6842SOL    HW327135   0.455   2.404   5.939 -0.0414  0.8653 -0.5261
 6842SOL    MW427136   0.439   2.468   5.996 -0.4668  0.5918 -0.4719
 6843SOL     OW27137   0.460   3.297   3.504 -0.4957 -0.4039 -0.2059
 6843SOL    HW227138   0.409   3.217   3.518 -0.8227 -0.2855 -0.6706
 6843SOL    HW327139   0.520   3.276   3.433  1.6873 -1.2468  1.7484
 6843SOL    MW427140   0.461   3.284   3.496  0.7655 -0.3029 -0.0307
 6844SOL     OW27141   0.198   3.770   0.912  0.1132 -0.6851 -0.2671
 6844SOL    HW227142   0.187   3.786   1.006  0.9434 -2.2798  0.1350
 6844SOL    HW327143   0.288   3.796   0.894  0.0249 -0.5957 -0.5794
 6844SOL    MW427144   0.208   3.776   0.922  0.0209  0.5245  0.3688
 6845SOL     OW27145   5.845   0.271   0.414  0.0553  0.3883 -0.1730
 6845SOL    HW227146   5.910   0.246   0.348  0.4703 -0.7958  0.6683
 6845SOL    HW327147   5.761   0.250   0.373  0.2351  0.9074 -0.8331
 6845SOL    MW427148   5.842   0.265   0.400  0.1404  0.1233  0.0786
 6846SOL     OW27149   1.318   2.818   0.216  0.4892 -0.4304  0.0223
 6846SOL    HW227150   1.275   2.759   0.153  0.8509 -0.2221 -0.4261
 6846SOL    HW327151   1.248   2.844   0.275  0.1033 -0.5006 -0.3955
 6846SOL    MW427152   1.303   2.813   0.215  0.6299 -0.3103  0.1706
 6847SOL     OW27153   3.103   0.010   5.508 -0.3642 -0.3673  0.2088
 6847SOL    HW227154   3.128  -0.061   5.568  0.2587  0.8970  1.4832
 6847SOL    HW327155   3.186   0.044   5.475 -0.6209  0.2210  0.1563
 6847SOL    MW427156   3.117   0.005   5.512  0.0206 -0.4893  0.1251
 6848SOL     OW27157   5.706   3.764   5.232 -0.0859  0.4887  0.1989
 6848SOL    HW227158   5.658   3.820   5.170 -0.6702  1.0661  1.1404
 6848SOL    HW327159   5.797   3.788   5.220 -0.3284  1.6705  0.5880
 6848SOL    MW427160   5.711   3.775   5.222 -0.4167  0.6728 -0.0207
 6849SOL     OW27161   5.018   1.946   4.612  0.1710  0.7252 -0.5547
 6849SOL    HW227162   5.042   1.924   4.523 -1.1342  1.8446 -1.2325
 6849SOL    HW327163   4.986   1.865   4.650  0.3259  0.3397 -1.2434
 6849SOL    MW427164   5.017   1.933   4.606  0.4082  0.0859 -0.5488
 6850SOL     OW27165   0.540   1.750   4.291  0.0496  0.4187 -0.2258
 6850SOL    HW227166   0.491   1.674   4.322 -0.8620  1.0303 -0.0947
 6850SOL    HW327167   0.497   1.824   4.334 -0.3975  1.1745 -1.8936
 6850SOL    MW427168   0.528   1.750   4.301 -1.0651  0.6972  0.0322
 6851SOL     OW27169   2.533   2.826   6.413  0.1334  0.5077  0.2306
 6851SOL    HW227170   2.441   2.834   6.439 -0.1144  1.2685 -0.8202
 6851SOL    HW327171   2.575   2.904   6.449  0.2868  0.3662  0.3607
 6851SOL    MW427172   2.526   2.837   6.422 -0.6892 -1.0975  0.3509
 6852SOL     OW27173   5.900   3.317   2.394 -0.0135  0.1580  0.7296
 6852SOL    HW227174   5.851   3.286   2.318 -0.5451  1.7129  0.3907
 6852SOL    HW327175   5.833   3.331   2.461  0.3107 -0.1252  1.1141
 6852SOL    MW427176   5.885   3.315   2.393  0.4429 -0.0539 -0.1041
 6853SOL     OW27177   4.504   6.122   2.938  0.3118 -0.5484  0.2156
 6853SOL    HW227178   4.541   6.184   3.001 -0.7041  0.1205  0.1774
 6853SOL    HW327179   4.431   6.170   2.898  0.7492 -1.0581 -1.2600
 6853SOL    MW427180   4.500   6.137   2.941 -0.0444 -0.4567  0.9319
 6854SOL     OW27181   0.621   0.670   4.695  0.3806 -0.0133 -0.4294
 6854SOL    HW227182   0.590   0.612   4.765  1.8680  1.1067  1.2353
 6854SOL    HW327183   0.647   0.611   4.624 -1.8236 -1.1489 -0.3924
 6854SOL    MW427184   0.620   0.655   4.695  0.3919 -0.0045 -0.2049
 6855SOL     OW27185   1.577   1.643   0.657  0.3176  0.0398  0.4239
 6855SOL    HW227186   1.557   1.635   0.750 -0.5929  1.2508  0.3599
 6855SOL    HW327187   1.581   1.553   0.625 -1.5336 -0.3596  1.1954
 6855SOL    MW427188   1.575   1.630   0.665  0.2580 -0.5035 -0.3485
 6856SOL     OW27189   4.809   6.129   0.468  0.4692  0.0309 -0.6882
 6856SOL    HW227190   4.872   6.057   0.464 -0.4365 -0.7814 -0.5419
 6856SOL    HW327191   4.828   6.173   0.551  1.8039  0.7093 -1.3147
 6856SOL    MW427192   4.820   6.125   0.478  0.6366 -0.0828 -0.1095
 6857SOL     OW27193   1.032   3.576   4.431 -0.3308  0.8983 -0.3013
 6857SOL    HW227194   1.038   3.662   4.473 -0.2708  1.0035 -0.5238
 6857SOL    HW327195   0.973   3.591   4.357  1.0897  1.1768 -1.4247
 6857SOL    MW427196   1.025   3.590   4.427 -0.6776 -0.0935 -0.0540
 6858SOL     OW27197   5.526   4.209   0.534  0.1460 -0.4087  0.1227
 6858SOL    HW227198   5.559   4.143   0.473  0.7359  0.4761 -0.5545
 6858SOL    HW327199   5.564   4.185   0.618  0.5579 -0.7965 -0.1642
 6858SOL    MW427200   5.536   4.197   0.537 -0.0421  0.1294  0.2212
 6859SOL     OW27201   0.094   5.479   2.176  0.4526  0.4325  0.3916
 6859SOL    HW227202   0.021   5.420   2.159  0.3496  0.6941 -0.0802
 6859SOL    HW327203   0.168   5.440   2.129  0.9253 -0.4600  1.7993
 6859SOL    MW427204   0.094   5.466   2.168  0.0740  0.2383 -0.0327
 6860SOL     OW27205   5.419   1.676   1.623 -0.0653 -0.1563 -0.4183
 6860SOL    HW227206   5.373   1.592   1.615 -0.1383 -0.0707 -0.9101
 6860SOL    HW327207   5.422   1.693   1.717  3.6197 -2.8006  0.2027
 6860SOL    MW427208   5.413   1.667   1.634 -0.4379  0.5119 -0.5535
 6861SOL     OW27209   3.790   2.302   2.610 -0.7302 -0.4995 -0.0387
 6861SOL    HW227210   3.858   2.367   2.591 -0.7876 -0.2144  0.6891
 6861SOL    HW327211   3.754   2.279   2.525  0.2687 -0.6391 -0.4323
 6861SOL    MW427212   3.794   2.308   2.596 -0.0189  0.3588 -0.6196
 6862SOL     OW27213   3.677   5.939   1.423  0.6749 -0.3580 -0.5198
 6862SOL    HW227214   3.731   5.986   1.486  2.7988 -1.3647 -1.4971
 6862SOL    HW327215   3.587   5.953   1.454  1.6052 -1.9585  3.6030
 6862SOL    MW427216   3.672   5.947   1.436 -0.0080  0.0942  0.2445
 6863SOL     OW27217   0.041   2.625   0.399  0.1636 -0.7599  0.8976
 6863SOL    HW227218   0.064   2.538   0.432  1.8736 -0.7250 -0.0822
 6863SOL    HW327219   0.125   2.663   0.373 -0.6102  1.0150  0.8854
 6863SOL    MW427220   0.055   2.618   0.400 -0.5650 -0.3219  0.3780
 6864SOL     OW27221   5.332   3.430   0.821  0.4048 -0.5335 -0.8515
 6864SOL    HW227222   5.406   3.377   0.789  0.6586 -2.6931  2.7256
 6864SOL    HW327223   5.369   3.517   0.833  1.6867 -0.9584 -1.4489
 6864SOL    MW427224   5.347   3.434   0.818  0.2704  0.1813  0.6295
 6865SOL     OW27225   3.872   5.670   4.497 -0.2894  0.1540 -0.2976
 6865SOL    HW227226   3.919   5.604   4.447 -1.3980 -0.2425 -0.8322
 6865SOL    HW327227   3.781   5.642   4.496 -0.4935  0.6641  1.1037
 6865SOL    MW427228   3.866   5.658   4.491 -0.7435  0.1824 -0.1742
 6866SOL     OW27229   3.275   3.904   4.084  0.5180  0.3412 -0.3927
 6866SOL    HW227230   3.269   3.821   4.037 -0.4495 -1.0405  1.9693
 6866SOL    HW327231   3.267   3.971   4.016 -2.3116 -1.4816 -2.0781
 6866SOL    MW427232   3.273   3.902   4.069  0.8577  0.3701 -0.1951
 6867SOL     OW27233   0.869   5.035   4.780  0.4972 -0.4582 -0.1153
 6867SOL    HW227234   0.784   5.003   4.811  0.6292 -0.9930 -0.2996
 6867SOL    HW327235   0.926   5.027   4.856  0.5740 -0.8363 -0.2100
 6867SOL    MW427236   0.865   5.029   4.794 -0.7210 -0.5097 -0.3224
 6868SOL     OW27237   4.761   3.022   1.834 -0.5418  0.6074  0.0800
 6868SOL    HW227238   4.687   2.972   1.799 -0.3672  1.2652 -1.2965
 6868SOL    HW327239   4.835   3.000   1.777 -0.0087  0.9979  0.6050
 6868SOL    MW427240   4.761   3.012   1.822  0.7699  0.0160 -0.6997
 6869SOL     OW27241   5.052   5.587   0.014 -0.4259  0.0962 -0.1663
 6869SOL    HW227242   4.967   5.543   0.017  0.8296 -2.4442  1.7941
 6869SOL    HW327243   5.048   5.652   0.084 -0.6527 -0.2125  0.1071
 6869SOL    MW427244   5.040   5.590   0.024 -0.4016  0.0869  0.0757
 6870SOL     OW27245   5.848   0.961   1.378 -0.2116  0.1946  0.0696
 6870SOL    HW227246   5.930   0.919   1.406  0.0415 -0.0496 -0.9924
 6870SOL    HW327247   5.788   0.946   1.451  0.1907 -1.1033  0.1682
 6870SOL    MW427248   5.851   0.953   1.392 -0.3503 -0.4230 -0.0009
 6871SOL     OW27249   5.155   5.557   2.176 -0.4400  0.7486  0.9562
 6871SOL    HW227250   5.178   5.565   2.083 -1.1238 -2.1526  0.4436
 6871SOL    HW327251   5.183   5.469   2.200 -1.0270  1.1446  3.3071
 6871SOL    MW427252   5.162   5.547   2.167 -0.3234 -0.1413  0.8422
 6872SOL     OW27253   0.687   2.379   4.459  0.0727  0.1395  0.0288
 6872SOL    HW227254   0.627   2.370   4.533  0.1004  0.2758  0.0696
 6872SOL    HW327255   0.773   2.391   4.500  0.3087 -1.2001 -0.0349
 6872SOL    MW427256   0.690   2.380   4.474 -0.1139 -0.6669  0.3187
 6873SOL     OW27257   1.067   0.271   1.884  0.2925  0.3466 -0.3130
 6873SOL    HW227258   1.015   0.305   1.957 -0.9755  2.1210 -1.9384
 6873SOL    HW327259   1.031   0.185   1.867 -0.2830  0.4522  0.3183
 6873SOL    MW427260   1.055   0.264   1.892 -0.5404  0.5889 -0.0042
 6874SOL     OW27261   3.375   5.081   3.051  0.5359 -0.9515  0.4553
 6874SOL    HW227262   3.443   5.132   3.005  3.3262 -2.0876  2.9819
 6874SOL    HW327263   3.370   5.121   3.138 -0.1445 -2.5078  1.1655
 6874SOL    MW427264   3.383   5.093   3.056 -0.7684  0.4019  0.3157
 6875SOL     OW27265   2.039   4.197   3.923  0.0134 -0.1895  0.0770
 6875SOL    HW227266   2.092   4.209   4.002  1.6180 -0.8720 -0.8394
 6875SOL    HW327267   1.951   4.182   3.956 -0.4987  4.5284  1.6147
 6875SOL    MW427268   2.035   4.197   3.938 -0.7863 -0.5173  0.2685
 6876SOL     OW27269   5.518   3.954   2.983  0.3883 -0.2516  0.1699
 6876SOL    HW227270   5.483   3.877   3.029  0.9935  0.2394  1.5105
 6876SOL    HW327271   5.457   3.969   2.911  1.2386 -3.0966 -1.2912
 6876SOL    MW427272   5.506   3.946   2.979  0.2925 -0.2150 -0.0314
 6877SOL     OW27273   0.100   1.312   6.220  0.1950  0.5215  0.1901
 6877SOL    HW227274   0.164   1.374   6.185  1.5134 -0.1853  1.2597
 6877SOL    HW327275   0.118   1.309   6.314 -0.3903 -0.8461  0.2826
 6877SOL    MW427276   0.110   1.320   6.227 -0.6281 -0.2700  0.0957
 6878SOL     OW27277   4.897   2.508   3.706  0.0948 -0.0052 -0.1391
 6878SOL    HW227278   4.970   2.563   3.675 -1.2124  1.0080 -1.5801
 6878SOL    HW327279   4.940   2.431   3.744  1.9359  1.0284  0.0281
 6878SOL    MW427280   4.913   2.505   3.707  0.3057 -0.4414  0.3276
 6879SOL     OW27281   2.004   4.643   0.772  0.2697  0.2090 -1.1025
 6879SOL    HW227282   2.069   4.707   0.798  0.9084 -1.0141  0.4503
 6879SOL    HW327283   2.012   4.573   0.836 -0.9407 -1.0719 -2.2798
 6879SOL    MW427284   2.013   4.642   0.784 -0.0633  0.2689 -0.2371
 6880SOL     OW27285   2.481   6.213   1.030  0.5277 -0.3101 -0.4426
 6880SOL    HW227286   2.513   6.299   1.003  1.0307 -1.1218 -2.6967
 6880SOL    HW327287   2.557   6.169   1.068  0.1238  0.4060  1.2718
 6880SOL    MW427288   2.495   6.218   1.031  0.5229 -0.1434 -0.3407
 6881SOL     OW27289   2.336   4.611   1.458  0.1753  0.1918 -0.2366
 6881SOL    HW227290   2.402   4.662   1.411  0.5265 -0.9488 -1.0177
 6881SOL    HW327291   2.372   4.601   1.546  0.8628 -0.0573 -0.5378
 6881SOL    MW427292   2.349   4.616   1.464 -0.1848  0.0089 -0.3179
 6882SOL     OW27293   4.229   3.662   1.210  0.3973  0.0179 -0.6102
 6882SOL    HW227294   4.265   3.721   1.275  0.1884  3.4642 -3.3258
 6882SOL    HW327295   4.303   3.639   1.154  0.2213 -1.3451 -0.3245
 6882SOL    MW427296   4.243   3.667   1.211  0.0585  0.6536 -0.2184
 6883SOL     OW27297   4.430   1.908   4.588  0.7491  0.3623 -0.8617
 6883SOL    HW227298   4.445   1.826   4.541  0.6540 -0.7479  0.9499
 6883SOL    HW327299   4.507   1.918   4.644 -0.5688 -0.1298  1.1458
 6883SOL    MW427300   4.442   1.898   4.589 -0.2878  0.3818 -0.2452
 6884SOL     OW27301   0.195   1.916   1.720  0.5482 -0.3874  0.2699
 6884SOL    HW227302   0.100   1.916   1.716  0.5356  0.0139  0.5403
 6884SOL    HW327303   0.219   1.823   1.720  0.1273 -0.5008  0.8194
 6884SOL    MW427304   0.186   1.903   1.720 -0.4298  0.3643  0.4644
 6885SOL     OW27305   2.851   3.703   6.414 -0.2887 -0.0430  0.3877
 6885SOL    HW227306   2.896   3.692   6.330  0.3033 -1.8002  0.9103
 6885SOL    HW327307   2.827   3.796   6.415  0.6782  0.2735 -1.2197
 6885SOL    MW427308   2.854   3.714   6.403  0.1250 -0.1486  0.6300
 6886SOL     OW27309   0.539   2.982   3.557  0.4227 -0.3683 -0.9189
 6886SOL    HW227310   0.601   3.025   3.615  0.4697  0.2120 -1.3847
 6886SOL    HW327311   0.588   2.910   3.518  0.4616 -0.6083 -0.4324
 6886SOL    MW427312   0.553   2.978   3.559  0.0506 -0.3385 -0.6264
 6887SOL     OW27313   4.407   2.501   4.770  0.0723  0.2248 -0.0745
 6887SOL    HW227314   4.392   2.498   4.676  1.7620 -1.0749 -0.3518
 6887SOL    HW327315   4.476   2.568   4.780  0.0147  0.2394  0.2250
 6887SOL    MW427316   4.414   2.510   4.759  0.5377  0.3302  0.0885
 6888SOL     OW27317   4.997   4.452   2.609  0.0675  0.2448  0.1361
 6888SOL    HW227318   5.091   4.466   2.619  0.0349 -0.0895  1.0875
 6888SOL    HW327319   4.958   4.535   2.634  0.0861  0.1145  0.6218
 6888SOL    MW427320   5.004   4.465   2.614  0.0024 -0.8499 -0.3364
 6889SOL     OW27321   1.815   2.597   4.975  0.0498  0.5429 -0.3995
 6889SOL    HW227322   1.820   2.614   5.069  1.5036 -2.0201  0.0941
 6889SOL    HW327323   1.883   2.653   4.937  0.5600  0.4185  0.3095
 6889SOL    MW427324   1.825   2.607   4.982  0.5152 -0.1972 -0.4396
 6890SOL     OW27325   2.993   5.589   0.960  0.0057  0.0846  0.1844
 6890SOL    HW227326   3.018   5.626   1.044 -1.3907  0.0814  0.6254
 6890SOL    HW327327   3.013   5.658   0.896  2.0567 -0.3004  0.3371
 6890SOL    MW427328   2.999   5.603   0.963 -0.2157 -0.2638 -0.0537
 6891SOL     OW27329   5.232   3.228   5.503  0.1568  0.1090  0.2447
 6891SOL    HW227330   5.224   3.262   5.415 -0.9113 -1.2680 -0.2268
 6891SOL    HW327331   5.154   3.173   5.515  0.7161 -0.4179  1.7171
 6891SOL    MW427332   5.221   3.225   5.493  0.1248  0.6199 -0.5447
 6892SOL     OW27333   0.155   1.342   2.944  0.0528 -0.5913  0.0516
 6892SOL    HW227334   0.069   1.355   2.982  0.1289  1.3822 -0.3102
 6892SOL    HW327335   0.140   1.344   2.849  0.4964 -0.1714 -0.0149
 6892SOL    MW427336   0.142   1.344   2.936  0.0061 -0.3925  0.2535
 6893SOL     OW27337   4.639   4.621   6.202  0.5213 -0.6131 -0.3315
 6893SOL    HW227338   4.604   4.603   6.114  0.0344 -0.3721 -0.1944
 6893SOL    HW327339   4.720   4.669   6.186  1.2227 -1.8719 -0.6746
 6893SOL    MW427340   4.645   4.625   6.188 -0.3857  0.7327  0.3379
 6894SOL     OW27341   3.982   4.149   5.717  0.2438  0.1757 -0.2141
 6894SOL    HW227342   4.007   4.197   5.638 -0.3906  0.4662 -0.2471
 6894SOL    HW327343   4.045   4.177   5.783 -0.4630  1.5204 -0.0709
 6894SOL    MW427344   3.994   4.159   5.715 -0.2338 -0.7300  0.4398
 6895SOL     OW27345   3.528   4.236   5.409 -0.5593 -0.1836 -0.3551
 6895SOL    HW227346   3.534   4.166   5.475  1.3109  0.7971  0.5832
 6895SOL    HW327347   3.609   4.229   5.359 -0.3970  1.2436 -0.3154
 6895SOL    MW427348   3.539   4.226   5.411 -0.0902  0.1790 -0.4882
 6896SOL     OW27349   5.372   2.284   1.797  0.4816  0.2460 -0.0020
 6896SOL    HW227350   5.297   2.314   1.746 -1.7364 -2.0355  1.6040
 6896SOL    HW327351   5.420   2.226   1.738 -0.1128  0.2840 -0.5338
 6896SOL    MW427352   5.369   2.280   1.783  0.2798 -0.2961 -0.1363
 6897SOL     OW27353   6.220   4.331   2.654  0.0870  0.4479 -0.0027
 6897SOL    HW227354   6.161   4.362   2.585 -1.6393  1.0766  1.6673
 6897SOL    HW327355   6.192   4.241   2.670  0.2327  0.4287  0.1453
 6897SOL    MW427356   6.209   4.323   2.647 -0.3543 -1.0259  0.3435
 6898SOL     OW27357   1.317   0.820   2.604  0.4190 -0.4920 -0.3747
 6898SOL    HW227358   1.401   0.788   2.573  0.8687  0.5008 -0.2308
 6898SOL    HW327359   1.313   0.911   2.573 -0.5887 -0.5179 -0.3664
 6898SOL    MW427360   1.327   0.828   2.596 -0.3979  0.1915 -0.0538
 6899SOL     OW27361   2.268   2.480   0.382  0.0759  0.4083 -0.0073
 6899SOL    HW227362   2.308   2.507   0.465 -0.4966 -1.1183  0.8018
 6899SOL    HW327363   2.252   2.562   0.336  1.4042  1.2235  0.9175
 6899SOL    MW427364   2.271   2.495   0.387  0.2840 -0.0566  0.1470
 6900SOL     OW27365   4.829   3.936   1.061  0.0710  0.5458  0.5221
 6900SOL    HW227366   4.768   3.998   1.023 -0.0028  0.5354  0.6238
 6900SOL    HW327367   4.909   3.946   1.009 -0.5789 -0.7180 -0.8062
 6900SOL    MW427368   4.832   3.945   1.049 -0.2187 -0.9358 -0.6463
 6901SOL     OW27369   4.486   2.221   3.768  0.7349 -0.4715  0.1748
 6901SOL    HW227370   4.488   2.317   3.761  0.9769 -0.5103 -0.3250
 6901SOL    HW327371   4.545   2.191   3.699  0.3228 -0.9950  0.0434
 6901SOL    MW427372   4.494   2.230   3.758 -0.2187  0.2562  0.2359
 6902SOL     OW27373   3.678   0.791   2.365  0.0719  0.0023 -0.4178
 6902SOL    HW227374   3.687   0.754   2.277 -1.5354 -1.1445 -0.1427
 6902SOL    HW327375   3.622   0.867   2.353  0.9566  0.6586 -0.5457
 6902SOL    MW427376   3.672   0.796   2.352  0.5735  0.1815  0.6636
 6903SOL     OW27377   1.910   5.600   3.979  0.0550 -0.0886 -0.8505
 6903SOL    HW227378   1.885   5.569   4.066 -0.0139  0.2612 -0.7420
 6903SOL    HW327379   1.885   5.529   3.919 -0.4952 -0.0605 -0.6547
 6903SOL    MW427380   1.903   5.586   3.982 -0.0900  0.2289  0.0317
 6904SOL     OW27381   2.530   2.072   4.108 -0.4859 -0.1842  0.1507
 6904SOL    HW227382   2.620   2.079   4.141  1.0533 -1.9816 -3.1913
 6904SOL    HW327383   2.519   2.149   4.052 -0.4233 -0.7511 -0.6584
 6904SOL    MW427384   2.540   2.083   4.105 -0.1596 -0.1460  0.2756
 6905SOL     OW27385   1.004   0.882   2.371  0.1255 -0.5499 -0.0388
 6905SOL    HW227386   1.000   0.962   2.318 -1.1543 -0.0733  0.7462
 6905SOL    HW327387   0.981   0.910   2.459  0.2030 -1.6984  0.3597
 6905SOL    MW427388   1.001   0.896   2.375  0.4332  0.0501 -0.1323
 6906SOL     OW27389   4.758   1.274   5.552 -0.1670  0.1165 -0.3518
 6906SOL    HW227390   4.738   1.354   5.600 -1.2023 -0.3640  0.0388
 6906SOL    HW327391   4.736   1.295   5.461  1.1186  0.7899 -0.5386
 6906SOL    MW427392   4.753   1.287   5.546 -0.1431 -0.1938 -0.6250
 6907SOL     OW27393   2.425   1.541   4.286 -0.8543 -0.4695 -0.5356
 6907SOL    HW227394   2.346   1.492   4.261  0.1585 -1.5589 -1.7672
 6907SOL    HW327395   2.493   1.508   4.227  1.1811 -1.5224  2.1905
 6907SOL    MW427396   2.423   1.530   4.275 -0.4658 -0.3012 -0.0421
 6908SOL     OW27397   0.987   4.477   4.850  0.0884  0.0081 -0.2115
 6908SOL    HW227398   0.899   4.488   4.814  0.6084 -1.4330 -2.1189
 6908SOL    HW327399   0.983   4.393   4.897  0.5242 -0.2460 -0.6195
 6908SOL    MW427400   0.975   4.467   4.852  0.1646  0.5126 -0.8497
 6909SOL     OW27401   6.367   6.031   4.968 -0.5216  0.2650 -0.2336
 6909SOL    HW227402   6.380   6.124   4.987  2.8867  0.6784 -3.4489
 6909SOL    HW327403   6.301   6.029   4.900 -0.4859  0.3412 -0.2703
 6909SOL    MW427404   6.360   6.043   4.962 -0.0823  0.1611  0.1230
 6910SOL     OW27405   0.508   3.819   2.342  0.1359 -0.1412  0.0468
 6910SOL    HW227406   0.455   3.772   2.278  1.9455 -1.3380 -0.6310
 6910SOL    HW327407   0.538   3.751   2.403 -0.3786  0.7651  1.3693
 6910SOL    MW427408   0.505   3.804   2.342 -0.7420  0.3652  0.3853
 6911SOL     OW27409   2.383   5.722   5.590 -0.3582  0.2907  0.2547
 6911SOL    HW227410   2.303   5.772   5.570 -0.4888  0.6521  1.5476
 6911SOL    HW327411   2.446   5.789   5.618  0.3552 -0.0110 -0.5870
 6911SOL    MW427412   2.381   5.738   5.591 -0.0945 -0.2354  0.1625
 6912SOL     OW27413   0.024   3.994   5.971 -0.1674  0.3728 -0.3608
 6912SOL    HW227414   0.074   4.074   5.957  0.7234 -0.1078 -0.0296
 6912SOL    HW327415   0.050   3.936   5.899  0.4875 -0.2119  0.3162
 6912SOL    MW427416   0.034   3.997   5.960  0.3958 -1.2948 -0.2803
 6913SOL     OW27417   4.803   0.628   0.753 -0.3136  0.0636  0.0101
 6913SOL    HW227418   4.872   0.562   0.740  0.7838  0.8322  1.6527
 6913SOL    HW327419   4.722   0.580   0.738  0.5091 -1.3006 -0.2983
 6913SOL    MW427420   4.802   0.613   0.749  0.1054  0.3367 -0.8709
 6914SOL     OW27421   0.158   3.114   5.606 -0.1867  0.6873 -0.0645
 6914SOL    HW227422   0.145   3.170   5.529  0.8312 -0.4643 -1.1044
 6914SOL    HW327423   0.249   3.128   5.632 -0.5788  1.2302  1.0968
 6914SOL    MW427424   0.168   3.123   5.599 -0.0676  0.2281  0.2510
 6915SOL     OW27425   5.533   1.159   3.175  0.1718 -0.4544 -0.5051
 6915SOL    HW227426   5.505   1.250   3.168 -0.9990 -0.7199  0.4725
 6915SOL    HW327427   5.597   1.158   3.246 -2.3217 -0.8780  1.9058
 6915SOL    MW427428   5.538   1.171   3.183  0.4732  0.3810 -0.4163
 6916SOL     OW27429   4.677   6.042   5.409  0.2239  0.4000  0.3000
 6916SOL    HW227430   4.715   6.040   5.321  0.0800  0.7739  0.2295
 6916SOL    HW327431   4.682   5.951   5.439  2.3768  0.6297  0.8107
 6916SOL    MW427432   4.683   6.029   5.401 -0.0120 -0.5911  0.1229
 6917SOL     OW27433   0.268   4.076   1.305  0.1284 -0.5375 -0.2021
 6917SOL    HW227434   0.279   4.164   1.269  1.4287 -0.6044 -0.0250
 6917SOL    HW327435   0.233   4.090   1.393  1.7543 -0.0766  0.4192
 6917SOL    MW427436   0.265   4.090   1.312 -0.1091 -0.7033 -0.2534
 6918SOL     OW27437   1.564   4.386   5.197  0.5145  0.0449  0.0398
 6918SOL    HW227438   1.485   4.344   5.230  0.4938  0.8187  1.0194
 6918SOL    HW327439   1.577   4.348   5.110 -1.9374  1.1649 -0.9051
 6918SOL    MW427440   1.555   4.375   5.190 -0.9287 -0.2483  0.0066
 6919SOL     OW27441   2.866   5.460   4.348  0.1286 -0.2542  0.6909
 6919SOL    HW227442   2.776   5.439   4.371  0.4860 -2.1543  0.4684
 6919SOL    HW327443   2.916   5.382   4.371  1.8223  0.9255  1.2488
 6919SOL    MW427444   2.861   5.447   4.354 -0.3687 -0.5810  0.3834
 6920SOL     OW27445   4.943   2.832   2.195 -0.1239 -0.1067  0.0153
 6920SOL    HW227446   4.892   2.897   2.147 -0.7086 -0.9602 -0.5618
 6920SOL    HW327447   4.893   2.750   2.184  0.2645 -0.5226  1.2362
 6920SOL    MW427448   4.930   2.830   2.187 -0.3112  0.1859 -0.5606
 6921SOL     OW27449   0.887   3.725   3.921 -0.6619  0.2243 -0.2290
 6921SOL    HW227450   0.878   3.636   3.889  0.9031  0.9344 -2.9284
 6921SOL    HW327451   0.888   3.716   4.016 -1.1238 -2.5370 -0.3987
 6921SOL    MW427452   0.886   3.712   3.929 -0.1625  0.2510  0.2370
 6922SOL     OW27453   4.314   1.207   2.516 -0.0323  0.1966  0.2345
 6922SOL    HW227454   4.251   1.262   2.563 -0.9548 -0.3714 -0.2960
 6922SOL    HW327455   4.288   1.118   2.537  0.7500 -0.0478  0.1811
 6922SOL    MW427456   4.302   1.203   2.525 -0.3295 -0.2796  0.2335
 6923SOL     OW27457   1.402   0.450   2.901  0.2596 -0.0075  0.0593
 6923SOL    HW227458   1.362   0.394   2.834  1.7281  1.4772 -2.2398
 6923SOL    HW327459   1.334   0.512   2.925 -0.0883 -0.1156 -0.6257
 6923SOL    MW427460   1.388   0.451   2.895  0.0263  0.0372 -0.0651
 6924SOL     OW27461   0.987   1.694   4.461 -0.3118 -0.1206  0.5738
 6924SOL    HW227462   1.021   1.607   4.479 -3.6412 -1.5519  0.6527
 6924SOL    HW327463   0.951   1.724   4.545  0.7794  1.3861  0.5506
 6924SOL    MW427464   0.987   1.687   4.475 -0.2706  0.0790 -0.1094
 6925SOL     OW27465   2.461   4.604   4.136 -0.0513  0.0506 -0.4246
 6925SOL    HW227466   2.456   4.699   4.125  1.0662  0.3347  1.2202
 6925SOL    HW327467   2.412   4.569   4.061 -1.1236  1.9189 -0.6712
 6925SOL    MW427468   2.454   4.612   4.125  0.0550  0.1009  0.9050
 6926SOL     OW27469   6.430   3.692   2.561 -0.1312 -0.5567  0.1804
 6926SOL    HW227470   6.438   3.644   2.479  0.4482  0.6058 -0.4624
 6926SOL    HW327471   6.440   3.625   2.629 -2.8792 -1.9360 -0.6328
 6926SOL    MW427472   6.432   3.677   2.559  0.0540 -0.2181 -0.0017
 6927SOL     OW27473   0.540   5.488   2.383 -0.3368  0.0857  0.3608
 6927SOL    HW227474   0.593   5.546   2.438  0.7176 -0.2153 -0.3078
 6927SOL    HW327475   0.566   5.509   2.294 -0.9354 -0.4705  0.0454
 6927SOL    MW427476   0.550   5.498   2.379 -0.2397 -0.1106 -0.0354
 6928SOL     OW27477   1.005   2.147   5.729 -0.5940  0.4590 -0.5398
 6928SOL    HW227478   0.945   2.177   5.797  0.1905  1.1112 -0.1141
 6928SOL    HW327479   1.087   2.131   5.775 -0.2949  0.0630 -1.1947
 6928SOL    MW427480   1.008   2.148   5.744  0.6137 -0.1978 -0.0464
 6929SOL     OW27481   5.821   3.427   2.773  0.4608  0.3259  1.0081
 6929SOL    HW227482   5.774   3.382   2.703  1.2815  0.5934  0.2670
 6929SOL    HW327483   5.762   3.496   2.802 -1.0424 -1.4919  2.5150
 6929SOL    MW427484   5.807   3.430   2.768  0.3863  0.3373 -0.4201
 6930SOL     OW27485   1.112   0.127   5.859 -0.0101  0.4770 -0.0600
 6930SOL    HW227486   1.062   0.208   5.867 -0.3620  0.2541  0.0452
 6930SOL    HW327487   1.083   0.074   5.934  0.7915  0.5657  0.3140
 6930SOL    MW427488   1.101   0.131   5.870  0.1481 -0.4964 -0.2113
 6931SOL     OW27489   2.615   5.083   3.897 -0.2816  0.3768 -0.0555
 6931SOL    HW227490   2.556   5.154   3.871  0.0139  0.3604 -0.8124
 6931SOL    HW327491   2.684   5.084   3.830  1.1794  1.1053  1.4030
 6931SOL    MW427492   2.617   5.092   3.884  0.1252 -0.5565 -0.4057
 6932SOL     OW27493   1.708   3.252   5.035  0.0161 -0.0336 -0.1077
 6932SOL    HW227494   1.766   3.318   4.997 -1.3187  1.4879  0.4064
 6932SOL    HW327495   1.714   3.266   5.129 -2.3956  1.3199 -0.0722
 6932SOL    MW427496   1.716   3.262   5.042 -0.2122 -0.0282  0.2685
 6933SOL     OW27497   0.683   1.266   2.100  0.4934  0.0379  0.0944
 6933SOL    HW227498   0.692   1.267   2.196 -1.6462  1.6219  0.3446
 6933SOL    HW327499   0.667   1.174   2.079 -0.3373 -0.1692  1.4421
 6933SOL    MW427500   0.682   1.254   2.110  0.2896  0.6576  0.3519
 6934SOL     OW27501   0.107   6.104   6.097  0.1680 -0.0370 -0.6784
 6934SOL    HW227502   0.107   6.043   6.170  0.3708 -0.6841 -1.2132
 6934SOL    HW327503   0.033   6.162   6.114  0.9108  0.5594  0.6393
 6934SOL    MW427504   0.097   6.104   6.109  0.0166 -0.1795  0.1592
 6935SOL     OW27505   4.566   2.279   0.848  0.0416 -0.2665  0.0199
 6935SOL    HW227506   4.527   2.219   0.911  0.0158 -0.2589  0.0114
 6935SOL    HW327507   4.588   2.224   0.773  0.5004 -0.3584  0.2166
 6935SOL    MW427508   4.564   2.264   0.846 -0.6979 -0.1311  0.1293
 6936SOL     OW27509   3.259   2.474   0.623  0.6764 -0.6928  0.4164
 6936SOL    HW227510   3.308   2.490   0.542 -0.4034  2.1307  0.2428
 6936SOL    HW327511   3.305   2.525   0.690  0.8684 -2.0673  1.3844
 6936SOL    MW427512   3.272   2.483   0.621 -0.8852 -0.7300  0.0969
 6937SOL     OW27513   2.163   2.475   5.891 -0.2005  0.6196 -0.2354
 6937SOL    HW227514   2.230   2.542   5.898  0.2950  0.2440 -1.1858
 6937SOL    HW327515   2.188   2.424   5.814 -1.6300  0.5308 -0.6712
 6937SOL    MW427516   2.175   2.477   5.882 -0.3209 -0.2925  0.2179
 6938SOL     OW27517   0.600   1.391   4.340 -0.2394 -0.3931 -0.4796
 6938SOL    HW227518   0.670   1.448   4.308  0.9463 -1.2101  0.5994
 6938SOL    HW327519   0.603   1.315   4.282  0.1418 -0.6856 -0.0731
 6938SOL    MW427520   0.609   1.388   4.328 -0.3698  0.5101  0.1642
 6939SOL     OW27521   1.292   2.132   4.201  0.0569 -0.1065 -0.5364
 6939SOL    HW227522   1.232   2.057   4.197 -0.0022 -0.0004 -2.6099
 6939SOL    HW327523   1.380   2.092   4.197  0.0259 -0.0954 -3.4319
 6939SOL    MW427524   1.296   2.117   4.200  0.0232 -0.0918  0.0766
 6940SOL     OW27525   5.734   0.854   4.158  0.5645 -0.2129  0.0974
 6940SOL    HW227526   5.798   0.782   4.160  1.2518  0.3622 -0.5340
 6940SOL    HW327527   5.678   0.839   4.235 -0.2501 -2.2560 -0.8358
 6940SOL    MW427528   5.735   0.843   4.169  0.0752  0.6202  0.6394
 6941SOL     OW27529   1.757   0.660   1.952 -0.2666 -0.0461  0.2206
 6941SOL    HW227530   1.706   0.739   1.935  1.0981  0.4128 -2.1241
 6941SOL    HW327531   1.702   0.589   1.917 -0.4953  0.1155  0.2463
 6941SOL    MW427532   1.743   0.661   1.945  0.0142 -0.1467  0.0533
 6942SOL     OW27533   5.356   5.800   1.265 -0.3015  0.3010 -0.5321
 6942SOL    HW227534   5.335   5.707   1.269 -0.0916  0.2854  0.3384
 6942SOL    HW327535   5.435   5.809   1.318  0.6891  0.7025 -2.0041
 6942SOL    MW427536   5.364   5.789   1.273 -0.4906 -0.0731  0.2446
 6943SOL     OW27537   1.938   3.347   2.669  0.2588 -0.1720  0.2030
 6943SOL    HW227538   1.936   3.352   2.573  2.8681 -2.6316 -0.1156
 6943SOL    HW327539   1.847   3.360   2.696 -0.6045  0.2738 -2.6242
 6943SOL    MW427540   1.925   3.349   2.660 -0.1739  0.5280  0.5138
 6944SOL     OW27541   4.107   3.021   6.360  0.2199 -0.8214  0.2030
 6944SOL    HW227542   4.101   2.968   6.280 -1.3206 -0.4681  0.0644
 6944SOL    HW327543   4.090   2.959   6.431 -0.2805 -0.7771  0.1257
 6944SOL    MW427544   4.104   3.006   6.359  0.2885 -0.2739  0.1634
 6945SOL     OW27545   2.791   2.641   0.184  0.2183  0.3192 -0.3685
 6945SOL    HW227546   2.885   2.631   0.172  0.1053 -0.1457 -0.8820
 6945SOL    HW327547   2.751   2.595   0.110 -0.4716 -2.0700  1.3609
 6945SOL    MW427548   2.798   2.634   0.173 -0.3279  0.1448  0.0418
 6946SOL     OW27549   2.668   4.160   3.839 -0.0924 -0.1716  0.1257
 6946SOL    HW227550   2.692   4.239   3.888  0.5526 -0.8526  0.9356
 6946SOL    HW327551   2.708   4.172   3.753 -2.2403  1.5960 -0.7379
 6946SOL    MW427552   2.677   4.172   3.834  0.2961  0.0720  0.0809
 6947SOL     OW27553   3.234   4.485   4.339  0.4816  0.4155  0.1984
 6947SOL    HW227554   3.292   4.561   4.333  3.0064 -1.4028  0.0618
 6947SOL    HW327555   3.270   4.432   4.410  0.0521 -1.6222 -1.0175
 6947SOL    MW427556   3.246   4.488   4.348  0.1819  0.2816 -0.0538
 6948SOL     OW27557   4.750   1.495   6.177 -0.1187  0.7085  0.1523
 6948SOL    HW227558   4.808   1.434   6.133  0.2915 -1.2636  3.1401
 6948SOL    HW327559   4.805   1.538   6.243 -1.2315  1.4983  0.6118
 6948SOL    MW427560   4.765   1.493   6.180  0.3625  0.3317 -0.1139
 6949SOL     OW27561   2.714   1.260   0.432 -0.1187 -0.3360  0.0745
 6949SOL    HW227562   2.619   1.264   0.418 -0.1664 -2.6723 -0.6850
 6949SOL    HW327563   2.730   1.316   0.508 -1.7710  1.8234 -1.0344
 6949SOL    MW427564   2.704   1.268   0.440  0.2155 -0.2289 -0.2617
 6950SOL     OW27565   4.766   1.077   1.209  0.3811 -0.3883  0.0397
 6950SOL    HW227566   4.783   1.159   1.256 -0.6677  0.3543 -0.8123
 6950SOL    HW327567   4.688   1.042   1.252  1.1125 -1.2205  0.7251
 6950SOL    MW427568   4.758   1.083   1.221 -0.8004 -0.8118  0.3342
 6951SOL     OW27569   4.157   3.596   3.751  0.0461  0.1322  0.1018
 6951SOL    HW227570   4.172   3.641   3.834 -0.1365 -0.4666  0.4628
 6951SOL    HW327571   4.104   3.658   3.700 -1.0330 -0.0556  0.9672
 6951SOL    MW427572   4.152   3.610   3.755  0.6041  0.1669  0.1590
 6952SOL     OW27573   5.269   0.795   6.039 -0.2584 -0.0161  0.1148
 6952SOL    HW227574   5.221   0.826   6.116  0.4925 -0.5472  0.8074
 6952SOL    HW327575   5.359   0.820   6.055 -0.4073  1.8138 -1.6305
 6952SOL    MW427576   5.274   0.802   6.051 -0.6208  0.1833 -0.1049
 6953SOL     OW27577   2.798   3.491   4.328 -0.0000 -0.0265 -0.6588
 6953SOL    HW227578   2.772   3.516   4.240 -0.6207 -0.0126 -0.4768
 6953SOL    HW327579   2.827   3.400   4.320  0.2392  0.0734 -0.9322
 6953SOL    MW427580   2.798   3.483   4.316 -0.3573 -0.2685 -0.5913
 6954SOL     OW27581   3.985   6.397   3.184 -0.8834 -0.1015 -0.4696
 6954SOL    HW227582   4.075   6.427   3.198 -1.1082  0.8331 -0.9607
 6954SOL    HW327583   3.937   6.431   3.260 -1.1910  1.0571 -1.1575
 6954SOL    MW427584   3.991   6.406   3.196 -0.1548 -0.2601  0.8042
 6955SOL     OW27585   5.882   5.157   4.931  0.5109 -0.4776  0.1310
 6955SOL    HW227586   5.953   5.178   4.870  1.4294  0.9636  1.6327
 6955SOL    HW327587   5.924   5.147   5.016 -1.1654  1.5764  1.3101
 6955SOL    MW427588   5.897   5.158   4.934  0.2215  0.0811 -0.0373
 6956SOL     OW27589   0.891   2.160   6.001 -0.3741 -0.0080  0.4397
 6956SOL    HW227590   0.808   2.206   6.015 -1.5406 -1.2293 -1.7357
 6956SOL    HW327591   0.864   2.072   5.972  1.6836 -0.3671 -0.5620
 6956SOL    MW427592   0.876   2.154   5.999  0.9963  0.1204  0.0989
 6957SOL     OW27593   5.325   3.180   4.122 -0.0267  0.5597 -0.0327
 6957SOL    HW227594   5.302   3.272   4.135  0.6450  0.8479 -0.8082
 6957SOL    HW327595   5.245   3.131   4.144 -0.0314  1.2296  1.6181
 6957SOL    MW427596   5.312   3.186   4.127  0.1478 -0.0304 -0.2574
 6958SOL     OW27597   4.620   0.562   3.157  0.2310  0.1594  0.6471
 6958SOL    HW227598   4.539   0.562   3.106  0.8421  0.1002 -0.3518
 6958SOL    HW327599   4.687   0.532   3.096  1.1084  0.7228  1.3024
 6958SOL    MW427600   4.619   0.558   3.142 -0.5130 -0.2054  0.6421
 6959SOL     OW27601   1.418   5.018   4.862 -0.1435 -0.0133  0.5820
 6959SOL    HW227602   1.475   5.002   4.786 -0.9907 -0.1362 -0.0427
 6959SOL    HW327603   1.343   4.961   4.848 -0.0761 -0.4240  1.7965
 6959SOL    MW427604   1.416   5.008   4.850 -0.5247  0.8231 -0.1105
 6960SOL     OW27605   1.368   0.524   0.222  0.5526  0.8312  0.7707
 6960SOL    HW227606   1.402   0.434   0.228  0.7262  0.9036  0.8932
 6960SOL    HW327607   1.387   0.562   0.308 -0.0950  0.7827  0.9333
 6960SOL    MW427608   1.375   0.517   0.234  0.2816 -0.3724  0.2044
 6961SOL     OW27609   1.295   4.420   6.078  0.5615 -0.5999  0.0525
 6961SOL    HW227610   1.298   4.327   6.100  0.7857 -0.6787 -0.3151
 6961SOL    HW327611   1.248   4.423   5.995  2.0325 -0.5442 -0.8100
 6961SOL    MW427612   1.289   4.408   6.070 -0.0805 -0.1098  0.7241
 6962SOL     OW27613   4.385   4.773   1.056 -0.4429 -0.3053 -0.1030
 6962SOL    HW227614   4.306   4.822   1.082 -0.4142 -0.2246 -0.1678
 6962SOL    HW327615   4.448   4.841   1.032 -1.2418 -0.3880 -2.7027
 6962SOL    MW427616   4.383   4.789   1.056  0.5549  0.6042  0.5115
 6963SOL     OW27617   5.904   6.116   4.992 -0.5732 -0.1250  0.4197
 6963SOL    HW227618   5.953   6.038   4.966 -0.6978 -0.5954  1.5439
 6963SOL    HW327619   5.941   6.141   5.076 -0.5693  1.0185  0.0914
 6963SOL    MW427620   5.915   6.109   5.000 -0.4312 -0.0865 -0.5126
 6964SOL     OW27621   0.936   0.345   2.109 -0.2779  0.4787  0.0402
 6964SOL    HW227622   0.931   0.440   2.117 -0.8250  0.3856  0.9713
 6964SOL    HW327623   0.963   0.316   2.196  1.4559 -0.1219 -0.6548
 6964SOL    MW427624   0.939   0.354   2.122  0.2732  0.1647  0.0804
 6965SOL     OW27625   4.683   2.960   0.377  0.2352 -0.3286 -0.8111
 6965SOL    HW227626   4.683   2.883   0.435 -0.1564 -2.3745 -3.3443
 6965SOL    HW327627   4.614   2.941   0.313 -1.3719  3.1876 -0.3460
 6965SOL    MW427628   4.674   2.947   0.376  0.7912  0.7134  0.6558
 6966SOL     OW27629   3.127   4.992   0.704 -0.8121  0.8893 -0.4764
 6966SOL    HW227630   3.032   4.998   0.702 -0.8327  1.2042  0.7243
 6966SOL    HW327631   3.146   4.920   0.764 -0.2963  1.9686  0.7078
 6966SOL    MW427632   3.117   4.984   0.711  0.7129  0.0818 -0.5165
 6967SOL     OW27633   4.520   4.400   5.203 -0.0330 -0.0717 -0.5784
 6967SOL    HW227634   4.472   4.320   5.225 -0.9154 -0.0890 -2.4239
 6967SOL    HW327635   4.452   4.467   5.194  0.6493  0.7824  0.3788
 6967SOL    MW427636   4.505   4.398   5.205 -0.0192  0.2304  0.0453
 6968SOL     OW27637   2.773   2.869   3.436  0.9001  0.2218  0.7083
 6968SOL    HW227638   2.810   2.817   3.365  0.1702  0.1638  0.3674
 6968SOL    HW327639   2.679   2.864   3.424  0.7413  3.9333 -1.0665
 6968SOL    MW427640   2.766   2.862   3.425  0.3888 -0.1865 -0.0141
 6969SOL     OW27641   3.194   5.614   5.499 -0.6551 -0.3731  0.6626
 6969SOL    HW227642   3.245   5.682   5.456 -0.5077 -0.2606  1.0093
 6969SOL    HW327643   3.252   5.538   5.502  0.3266  0.3781  2.9752
 6969SOL    MW427644   3.208   5.613   5.494 -0.5921  0.0464  0.4188
 6970SOL     OW27645   4.763   2.745   1.530  0.2303  0.5283 -0.6728
 6970SOL    HW227646   4.713   2.672   1.568 -1.6144  0.9102 -2.2387
 6970SOL    HW327647   4.854   2.725   1.553 -0.4697 -0.9117  1.1286
 6970SOL    MW427648   4.768   2.732   1.538 -0.5233  0.0298  0.1547
 6971SOL     OW27649   4.765   5.044   4.653  0.1894  0.2963 -0.4722
 6971SOL    HW227650   4.784   5.137   4.642 -0.9757  0.4233 -1.5701
 6971SOL    HW327651   4.798   5.003   4.574 -0.6224 -0.0084 -0.6598
 6971SOL    MW427652   4.772   5.051   4.641  0.7912  0.3281 -0.1850
 6972SOL     OW27653   1.244   2.114   5.850  0.1586 -0.1838 -0.5441
 6972SOL    HW227654   1.247   2.070   5.935  0.4538  0.5710 -0.1518
 6972SOL    HW327655   1.276   2.050   5.788 -3.2140 -1.9904 -0.6607
 6972SOL    MW427656   1.248   2.100   5.853 -0.0151  0.3035  0.2395
 6973SOL     OW27657   4.637   2.555   5.436  0.4121 -0.1677 -0.7134
 6973SOL    HW227658   4.546   2.527   5.429  0.3248 -0.2049  0.4312
 6973SOL    HW327659   4.685   2.497   5.377 -0.1586 -0.8423 -0.5152
 6973SOL    MW427660   4.631   2.544   5.427  0.7480 -0.3616  0.2544
 6974SOL     OW27661   4.165   1.105   2.791 -0.2057  0.3094  0.0740
 6974SOL    HW227662   4.245   1.157   2.801 -1.2949  2.1258 -0.1379
 6974SOL    HW327663   4.169   1.041   2.862  2.0908 -0.5901 -0.8039
 6974SOL    MW427664   4.176   1.104   2.802 -0.0205  0.4577  0.7457
 6975SOL     OW27665   2.917   1.613   5.249 -0.5241 -0.6815  0.0999
 6975SOL    HW227666   2.998   1.631   5.297 -1.6704 -0.1081  1.9314
 6975SOL    HW327667   2.848   1.640   5.309 -2.0968 -1.8144 -1.1335
 6975SOL    MW427668   2.919   1.619   5.263  0.3314  0.0825 -0.4978
 6976SOL     OW27669   5.588   2.422   1.886 -0.4556  0.1659 -0.0770
 6976SOL    HW227670   5.507   2.371   1.878 -0.5331 -0.0443  1.5971
 6976SOL    HW327671   5.560   2.513   1.881 -0.2693  0.1663 -3.5204
 6976SOL    MW427672   5.574   2.427   1.885  0.4904 -0.4496 -0.1588
 6977SOL     OW27673   1.598   5.933   3.712 -0.2014 -0.2606  0.7823
 6977SOL    HW227674   1.584   5.872   3.785  0.4501 -0.8916  0.3936
 6977SOL    HW327675   1.680   5.976   3.732 -0.4803  0.2349  0.8693
 6977SOL    MW427676   1.607   5.930   3.724  0.3004 -0.1260 -0.0443
 6978SOL     OW27677   5.169   1.635   4.639  0.1229  0.3843 -0.3790
 6978SOL    HW227678   5.125   1.631   4.555 -0.8492 -0.4187  0.1531
 6978SOL    HW327679   5.101   1.661   4.701  0.6075  0.0466  0.3079
 6978SOL    MW427680   5.154   1.638   4.636 -0.1774 -0.3444 -0.1895
 6979SOL     OW27681   0.302   4.804   0.701 -1.0608  0.8132  0.0056
 6979SOL    HW227682   0.233   4.778   0.763 -0.9457  2.5650  0.9540
 6979SOL    HW327683   0.325   4.724   0.655 -2.1779 -0.2604  1.2350
 6979SOL    MW427684   0.296   4.790   0.703  0.1492  0.0620  0.4284
 6980SOL     OW27685   2.037   3.964   2.736 -0.2288  0.2426  0.4176
 6980SOL    HW227686   2.078   4.041   2.775 -0.2079  0.0715  0.7374
 6980SOL    HW327687   2.041   3.979   2.642  1.8965 -0.4530  0.3620
 6980SOL    MW427688   2.043   3.976   2.729 -0.2128 -0.1245  0.5609
 6981SOL     OW27689   4.256   3.842   2.055  0.3497 -0.1592  0.4219
 6981SOL    HW227690   4.174   3.848   2.008 -0.1307 -1.4524  1.0448
 6981SOL    HW327691   4.295   3.929   2.047 -0.5983  0.1848 -0.7165
 6981SOL    MW427692   4.250   3.854   2.048 -0.1857  0.0316  0.3285
 6982SOL     OW27693   1.119   2.496   3.225 -0.4967 -0.4169  0.3700
 6982SOL    HW227694   1.044   2.437   3.212 -0.1899 -0.6928 -0.1924
 6982SOL    HW327695   1.140   2.488   3.318 -0.3328 -1.3522  0.2595
 6982SOL    MW427696   1.112   2.487   3.235  0.2323  0.0080  0.1464
 6983SOL     OW27697   0.750   5.555   4.396  0.4098  0.1763  0.7292
 6983SOL    HW227698   0.660   5.541   4.369 -0.1236  1.8147  1.5447
 6983SOL    HW327699   0.797   5.477   4.365 -1.3351 -0.8785  0.6308
 6983SOL    MW427700   0.745   5.543   4.388  0.1024 -0.1093  0.1926
 6984SOL     OW27701   2.068   5.062   1.925 -0.4788 -0.1846 -0.5770
 6984SOL    HW227702   2.046   5.151   1.954  0.1208  0.4789 -2.0402
 6984SOL    HW327703   2.091   5.016   2.005  0.3390  1.3303  0.1133
 6984SOL    MW427704   2.068   5.068   1.939  0.3086  0.2202  0.1056
 6985SOL     OW27705   6.086   0.742   0.273  0.4258  0.1021  0.0756
 6985SOL    HW227706   6.035   0.806   0.323  0.9018  0.3357  0.2629
 6985SOL    HW327707   6.051   0.657   0.300  0.1946  0.2590  0.2735
 6985SOL    MW427708   6.075   0.740   0.283  0.4617 -0.0558 -0.2569
 6986SOL     OW27709   1.132   0.749   3.257  0.0073  0.0654  0.1587
 6986SOL    HW227710   1.184   0.671   3.276  0.1308  0.4416  1.4482
 6986SOL    HW327711   1.191   0.805   3.206  0.3223 -0.1801  0.2489
 6986SOL    MW427712   1.147   0.746   3.253  0.0216  0.1747  0.2159
 6987SOL     OW27713   0.106   3.424   0.291  0.3134  0.2207 -0.0805
 6987SOL    HW227714   0.133   3.343   0.334 -0.5573 -0.2538 -0.4167
 6987SOL    HW327715   0.082   3.482   0.364  0.9632  0.1911  0.1614
 6987SOL    MW427716   0.106   3.421   0.306 -0.4068  0.5575 -0.8841
 6988SOL     OW27717   6.386   1.841   2.098  0.3130 -0.3497 -0.3896
 6988SOL    HW227718   6.405   1.780   2.027 -0.1471 -0.3904 -0.4790
 6988SOL    HW327719   6.315   1.799   2.147  1.6983 -1.1125  1.0715
 6988SOL    MW427720   6.379   1.827   2.095 -0.1065 -0.4800  0.2292
 6989SOL     OW27721   1.719   1.193   5.593  0.9294 -0.1444  0.6358
 6989SOL    HW227722   1.729   1.193   5.689 -0.0702  0.4726  0.7505
 6989SOL    HW327723   1.628   1.217   5.578  1.3840  0.9696 -0.5039
 6989SOL    MW427724   1.709   1.196   5.604  0.0225  0.4930 -0.3495
 6990SOL     OW27725   6.067   6.117   5.615  0.0207  0.5073 -0.1403
 6990SOL    HW227726   6.056   6.040   5.672 -1.4852  1.2997  0.6900
 6990SOL    HW327727   6.141   6.094   5.558  0.7738 -0.8270  1.2895
 6990SOL    MW427728   6.075   6.104   5.615 -0.5213 -0.0682  0.1126
 6991SOL     OW27729   5.047   3.343   1.478  0.2460  0.1432  0.1163
 6991SOL    HW227730   5.092   3.366   1.396 -0.6151 -0.5672 -0.5823
 6991SOL    HW327731   4.970   3.293   1.450 -1.0183  1.3524  1.2652
 6991SOL    MW427732   5.042   3.340   1.463  0.3489  0.2317 -0.0964
 6992SOL     OW27733   4.455   1.203   1.110  0.0971 -0.3997 -0.1093
 6992SOL    HW227734   4.463   1.236   1.020  1.1360 -1.0671 -0.2700
 6992SOL    HW327735   4.378   1.249   1.145 -0.2627 -0.0567 -1.2977
 6992SOL    MW427736   4.446   1.214   1.103 -0.1401  0.7022  1.0294
 6993SOL     OW27737   0.193   3.848   6.137  0.2229  0.4000 -0.1349
 6993SOL    HW227738   0.200   3.767   6.087 -0.7723 -0.4783  1.0654
 6993SOL    HW327739   0.151   3.910   6.078 -0.3075 -0.4055 -0.6257
 6993SOL    MW427740   0.188   3.845   6.123 -0.0624  0.0975  0.4447
 6994SOL     OW27741   3.413   5.903   1.458  0.6352 -0.0781 -0.3127
 6994SOL    HW227742   3.368   5.984   1.436  0.4208 -0.3114 -0.7374
 6994SOL    HW327743   3.412   5.901   1.554  0.1237  0.1310 -0.3077
 6994SOL    MW427744   3.407   5.914   1.468 -0.7461 -0.4704 -0.3840
 6995SOL     OW27745   3.067   2.399   1.025  0.2826 -0.3285 -0.1529
 6995SOL    HW227746   3.015   2.329   0.986 -0.0811  0.7162 -1.6216
 6995SOL    HW327747   3.153   2.392   0.983  0.6914 -0.7208  0.7102
 6995SOL    MW427748   3.072   2.389   1.014  0.1416  0.1740 -0.3771
 6996SOL     OW27749   0.774   1.507   4.971  0.1601 -0.0409  0.0685
 6996SOL    HW227750   0.868   1.520   4.981  0.4338 -1.3914 -0.4530
 6996SOL    HW327751   0.766   1.427   4.918 -1.2736  0.7225 -0.9403
 6996SOL    MW427752   0.785   1.498   4.965 -0.8340  0.5953  0.6381
 6997SOL     OW27753   1.732   5.148   5.184 -0.3635 -0.4595 -0.0805
 6997SOL    HW227754   1.773   5.083   5.126  0.7278  0.4689 -0.3909
 6997SOL    HW327755   1.698   5.096   5.257  2.2176 -1.2509  0.6794
 6997SOL    MW427756   1.733   5.132   5.186 -0.1243 -0.2622  0.7955
 6998SOL     OW27757   0.509   1.045   0.453  0.5739 -0.1412 -0.1304
 6998SOL    HW227758   0.514   1.124   0.399  1.1503  0.2738  0.5167
 6998SOL    HW327759   0.538   1.073   0.539  1.9421 -1.3259 -0.1744
 6998SOL    MW427760   0.513   1.059   0.457 -0.0614 -0.2180  0.4958
 6999SOL     OW27761   5.622   4.372   1.740 -0.5096  0.0317  0.2951
 6999SOL    HW227762   5.639   4.399   1.649 -3.7778  0.5554 -0.2793
 6999SOL    HW327763   5.639   4.450   1.792  0.2914  0.0547  0.0169
 6999SOL    MW427764   5.626   4.386   1.735 -0.3252  0.3047 -0.0309
 7000SOL     OW27765   6.037   4.672   0.538  0.1995 -0.0325  0.3726
 7000SOL    HW227766   6.106   4.607   0.528  0.1750 -0.0100  0.0572
 7000SOL    HW327767   6.021   4.704   0.449 -0.2670 -0.0876  0.4387
 7000SOL    MW427768   6.044   4.668   0.525 -0.0670  0.2881  0.2650
 7001SOL     OW27769   5.306   1.777   5.707  0.4950  0.1104 -0.5260
 7001SOL    HW227770   5.362   1.768   5.630  2.5453  1.0113  0.7694
 7001SOL    HW327771   5.321   1.697   5.757  0.0574  0.0354 -0.5133
 7001SOL    MW427772   5.315   1.765   5.703  0.5480  0.3754 -0.1079
 7002SOL     OW27773   4.262   4.313   5.748  0.1951 -0.0024  0.4989
 7002SOL    HW227774   4.293   4.366   5.674 -0.3928 -0.0887  0.1849
 7002SOL    HW327775   4.328   4.326   5.816  1.2674 -0.7017 -0.3754
 7002SOL    MW427776   4.275   4.322   5.747  0.0841  0.7903 -0.4545
 7003SOL     OW27777   4.841   1.222   1.640  0.2561  0.4091  0.4195
 7003SOL    HW227778   4.756   1.221   1.683 -0.3079  1.7064 -0.5921
 7003SOL    HW327779   4.889   1.149   1.679 -1.2605 -0.2499  1.1155
 7003SOL    MW427780   4.836   1.212   1.651 -0.2390  0.2982  0.1388
 7004SOL     OW27781   4.154   2.050   0.074  0.6125 -0.6259  0.7672
 7004SOL    HW227782   4.191   1.966   0.046 -0.3520 -1.0016  0.5721
 7004SOL    HW327783   4.203   2.116   0.025  1.0727 -1.1056  0.5787
 7004SOL    MW427784   4.165   2.048   0.064 -0.2353  0.0680 -0.2590
 7005SOL     OW27785   2.162   2.386   1.118 -0.2289  0.6439 -0.0183
 7005SOL    HW227786   2.068   2.377   1.103 -0.2692  1.9590 -0.7051
 7005SOL    HW327787   2.175   2.356   1.208 -1.0492 -0.9713 -0.3915
 7005SOL    MW427788   2.151   2.381   1.128 -0.0677 -0.0067  0.0047
 7006SOL     OW27789   3.378   4.251   3.431  0.2752 -0.4411  0.5050
 7006SOL    HW227790   3.414   4.339   3.417  0.5364 -0.5231  0.6388
 7006SOL    HW327791   3.319   4.261   3.505 -0.1255 -0.2663  0.1642
 7006SOL    MW427792   3.375   4.264   3.439 -0.1841 -0.2504  0.5998
 7007SOL     OW27793   1.299   0.049   2.880 -0.1769 -0.3080  0.1672
 7007SOL    HW227794   1.295  -0.018   2.811 -1.6802 -0.2293  0.1473
 7007SOL    HW327795   1.209   0.056   2.911 -0.0888  1.8380  0.0601
 7007SOL    MW427796   1.287   0.041   2.875  0.4219 -0.4597 -0.1990
 7008SOL     OW27797   2.741   1.827   4.264  0.3641  0.0497  0.2227
 7008SOL    HW227798   2.725   1.772   4.341  0.7520  0.8873  0.9063
 7008SOL    HW327799   2.830   1.805   4.237  0.0525 -0.6126 -0.3061
 7008SOL    MW427800   2.751   1.817   4.271 -0.2436 -0.4484 -0.7460
 7009SOL     OW27801   5.990   3.052   4.619  0.0570  0.0209 -0.1951
 7009SOL    HW227802   5.961   2.992   4.689 -1.7315  1.2972  0.2377
 7009SOL    HW327803   6.048   3.114   4.663 -0.3387  0.2775 -0.0307
 7009SOL    MW427804   5.994   3.052   4.634  0.6418 -0.1578 -0.3329
 7010SOL     OW27805   5.325   5.738   3.318 -0.2381 -0.8697  0.3761
 7010SOL    HW227806   5.334   5.657   3.368  1.5977 -0.0121  1.5199
 7010SOL    HW327807   5.392   5.796   3.353 -1.5049  1.1821 -0.4079
 7010SOL    MW427808   5.335   5.735   3.329  0.3142  0.4560 -0.1966
 7011SOL     OW27809   4.836   0.054   3.900 -0.5436  0.2861 -0.3722
 7011SOL    HW227810   4.928   0.029   3.901 -0.6419 -0.2055 -1.9159
 7011SOL    HW327811   4.837   0.150   3.902 -0.0335  0.2742  0.3071
 7011SOL    MW427812   4.848   0.064   3.901 -0.1186  0.1405 -0.2542
 7012SOL     OW27813   6.253   1.773   0.142 -0.2542 -0.2785 -0.0757
 7012SOL    HW227814   6.168   1.800   0.108 -0.1511 -2.0663 -1.9170
 7012SOL    HW327815   6.233   1.724   0.221 -1.0393 -1.3513 -0.9106
 7012SOL    MW427816   6.239   1.770   0.148 -0.2566  0.0338 -0.2640
 7013SOL     OW27817   3.185   3.118   3.390  0.6941  0.5294  0.2870
 7013SOL    HW227818   3.255   3.069   3.346  0.2844  0.0740  0.1385
 7013SOL    HW327819   3.209   3.115   3.483 -0.7115 -2.3249  0.6548
 7013SOL    MW427820   3.198   3.111   3.396 -0.3968  0.2045 -0.3182
 7014SOL     OW27821   1.034   1.391   4.922  0.3682  0.1244  0.1765
 7014SOL    HW227822   1.116   1.417   4.882  0.2840 -0.0179 -0.0924
 7014SOL    HW327823   0.988   1.342   4.854 -0.1436  0.6008  0.1648
 7014SOL    MW427824   1.039   1.388   4.908 -0.0793  0.3208  0.3906
 7015SOL     OW27825   1.295   6.120   1.960  0.6591  0.1573 -0.2976
 7015SOL    HW227826   1.339   6.204   1.952  0.0600  0.4869 -0.1485
 7015SOL    HW327827   1.278   6.110   2.054 -0.3375  0.4278 -0.4384
 7015SOL    MW427828   1.298   6.130   1.971  0.4373  0.5315 -0.3362
 7016SOL     OW27829   4.490   6.137   0.764 -0.7178 -0.0081 -0.2778
 7016SOL    HW227830   4.506   6.215   0.711  0.0008 -0.6369 -1.0038
 7016SOL    HW327831   4.500   6.168   0.854  3.3125  0.0529 -0.5702
 7016SOL    MW427832   4.493   6.152   0.769 -0.2991 -0.6224 -0.5087
 7017SOL     OW27833   0.008   3.965   5.213 -0.0152  0.4386 -0.0054
 7017SOL    HW227834   0.028   4.053   5.180 -0.9185  0.2392 -1.1433
 7017SOL    HW327835   0.054   3.960   5.297  1.9948  1.1426 -1.0064
 7017SOL    MW427836   0.017   3.976   5.220  0.1845  0.3863  1.0524
 7018SOL     OW27837   2.087   1.340   6.418 -0.1674  0.1227  0.0357
 7018SOL    HW227838   2.077   1.389   6.500  0.1854 -0.0083  0.1573
 7018SOL    HW327839   2.181   1.337   6.404 -0.2188 -0.0465 -0.2622
 7018SOL    MW427840   2.098   1.346   6.427  0.0378  0.2063 -0.2374
 7019SOL     OW27841   3.589   4.091   4.365 -0.3476  0.0923  0.1890
 7019SOL    HW227842   3.594   4.004   4.406  0.0669  0.5992  1.2567
 7019SOL    HW327843   3.620   4.151   4.433  0.7837  0.9351 -1.0259
 7019SOL    MW427844   3.594   4.087   4.380  0.1929  0.2062 -0.4518
 7020SOL     OW27845   5.139   6.428   3.973 -0.3039 -0.1670 -0.1113
 7020SOL    HW227846   5.109   6.357   4.031 -0.6340 -0.2039 -0.3198
 7020SOL    HW327847   5.127   6.508   4.025 -1.7593 -0.0745 -0.5452
 7020SOL    MW427848   5.133   6.429   3.988  0.2417 -0.2473 -0.3283
 7021SOL     OW27849   4.019   2.748   5.181 -0.0615  0.1454  0.4180
 7021SOL    HW227850   3.988   2.836   5.204 -0.4158  0.3157 -0.6627
 7021SOL    HW327851   4.083   2.762   5.112  0.1504 -0.4229  0.4933
 7021SOL    MW427852   4.023   2.761   5.175 -0.8824  0.2226 -0.1166
 7022SOL     OW27853   5.921   1.467   2.317 -0.3344  0.2705  0.2373
 7022SOL    HW227854   5.832   1.446   2.289 -0.1972  0.0228 -0.0120
 7022SOL    HW327855   5.974   1.461   2.237 -0.2925  1.5690  0.1389
 7022SOL    MW427856   5.917   1.464   2.302  0.6258  0.4953 -0.6902
 7023SOL     OW27857   0.733   2.159   1.908 -0.0369 -0.2326  0.4557
 7023SOL    HW227858   0.713   2.175   2.001  0.0059  1.6372  0.1893
 7023SOL    HW327859   0.770   2.242   1.878  2.1078 -1.5375 -0.6804
 7023SOL    MW427860   0.735   2.172   1.916  0.2055  0.1542 -0.3916
 7024SOL     OW27861   3.180   4.846   5.783  0.4245 -0.1275  0.1300
 7024SOL    HW227862   3.129   4.828   5.704  1.4212  1.5441 -0.9716
 7024SOL    HW327863   3.266   4.807   5.766  0.3636 -0.5547  0.7860
 7024SOL    MW427864   3.185   4.839   5.770  0.2352 -0.0350  0.2211
 7025SOL     OW27865   3.705   4.775   0.640  0.2136  0.1424  0.3053
 7025SOL    HW227866   3.787   4.797   0.595 -0.4470  1.3147 -0.3722
 7025SOL    HW327867   3.670   4.700   0.591  1.1110 -0.6967  0.9113
 7025SOL    MW427868   3.711   4.768   0.627  0.2025 -0.0318  0.4983
 7026SOL     OW27869   1.311   0.478   4.247 -0.4978  0.0757 -0.6084
 7026SOL    HW227870   1.295   0.528   4.167 -0.6770  0.1150 -0.5502
 7026SOL    HW327871   1.289   0.388   4.224 -1.1663  0.1833 -0.4291
 7026SOL    MW427872   1.306   0.473   4.233  0.1442  0.4206  0.0700
 7027SOL     OW27873   3.915   5.244   4.109 -0.2896 -0.1032 -0.7308
 7027SOL    HW227874   3.958   5.160   4.123  0.9636  0.2538 -2.2013
 7027SOL    HW327875   3.893   5.274   4.197  1.9173 -0.6056  0.0577
 7027SOL    MW427876   3.917   5.237   4.122  0.4836 -0.5374 -0.7639
 7028SOL     OW27877   1.935   0.065   5.883 -0.0746 -0.5675  0.0330
 7028SOL    HW227878   1.912   0.067   5.976 -0.7975 -2.0983 -0.0971
 7028SOL    HW327879   1.965  -0.024   5.867  1.0646 -0.0282 -0.9829
 7028SOL    MW427880   1.936   0.054   5.893  0.3686  0.1690  0.3177
 7029SOL     OW27881   4.270   0.573   2.472 -0.1015  0.0303 -0.1997
 7029SOL    HW227882   4.184   0.576   2.430 -0.0635 -1.2879 -0.4203
 7029SOL    HW327883   4.251   0.561   2.565 -0.1561  0.8343 -0.0988
 7029SOL    MW427884   4.256   0.572   2.479 -0.2192 -0.0142  0.2819
 7030SOL     OW27885   3.733   3.550   4.987 -0.3938 -0.1815  0.4701
 7030SOL    HW227886   3.729   3.458   4.962 -0.9745  0.0693 -0.4075
 7030SOL    HW327887   3.673   3.558   5.062 -1.4159 -0.2705 -0.3096
 7030SOL    MW427888   3.724   3.539   4.994  0.0789  0.3685  0.0401
 7031SOL     OW27889   2.318   6.417   1.149  0.2428 -0.1021  0.3059
 7031SOL    HW227890   2.261   6.428   1.073  2.0513  1.4105 -0.9159
 7031SOL    HW327891   2.380   6.349   1.122  1.6977  1.3562 -0.1188
 7031SOL    MW427892   2.319   6.409   1.136  0.2190 -0.1380 -0.0398
 7032SOL     OW27893   1.447   0.710   1.043 -0.2536  0.4734 -0.3805
 7032SOL    HW227894   1.391   0.720   0.966 -2.1597 -0.7326  0.7577
 7032SOL    HW327895   1.418   0.629   1.084  2.2530 -0.1239  0.4172
 7032SOL    MW427896   1.436   0.701   1.038  0.1722 -0.0035 -0.7410
 7033SOL     OW27897   5.476   2.654   3.117 -0.6730  0.2156  0.0499
 7033SOL    HW227898   5.463   2.749   3.125 -1.4400  0.1859 -0.7279
 7033SOL    HW327899   5.408   2.616   3.173  0.8839  0.1090  1.9926
 7033SOL    MW427900   5.466   2.662   3.126 -0.1066 -0.1527 -0.5502
 7034SOL     OW27901   4.175   4.704   2.241 -0.0399  0.7291  1.0563
 7034SOL    HW227902   4.163   4.613   2.214  0.5111  0.2006  2.4944
 7034SOL    HW327903   4.267   4.722   2.224  0.2231  0.5068  2.1772
 7034SOL    MW427904   4.185   4.694   2.235  0.1620  0.1783 -0.2779
 7035SOL     OW27905   5.501   1.457   4.653  0.4409 -0.6657  0.2234
 7035SOL    HW227906   5.452   1.469   4.734  0.7820  2.2755  0.0885
 7035SOL    HW327907   5.592   1.474   4.676  0.8545 -1.9185 -0.3813
 7035SOL    MW427908   5.506   1.461   4.667 -0.0666 -0.2928 -0.5846
 7036SOL     OW27909   2.669   6.150   3.413 -0.2826  0.2496 -0.0467
 7036SOL    HW227910   2.677   6.099   3.494  0.7482 -0.9023 -0.8342
 7036SOL    HW327911   2.576   6.167   3.404 -1.2650 -4.5055 -1.4913
 7036SOL    MW427912   2.658   6.145   3.422  0.2002  0.4239  0.1587
 7037SOL     OW27913   4.672   0.794   0.345  0.1404 -0.0551 -0.1500
 7037SOL    HW227914   4.750   0.751   0.377  0.4394 -2.1381 -3.2563
 7037SOL    HW327915   4.704   0.865   0.289 -0.2782  0.8474  0.7237
 7037SOL    MW427916   4.686   0.798   0.342  0.6829 -0.3421  0.0252
 7038SOL     OW27917   0.020   0.717   4.192 -0.0525 -0.1983  0.3392
 7038SOL    HW227918  -0.066   0.711   4.150  0.3696 -1.4225 -0.3918
 7038SOL    HW327919   0.057   0.799   4.160  0.6255 -1.4799 -2.4868
 7038SOL    MW427920   0.013   0.727   4.182  0.2412  0.5470 -0.2168
 7039SOL     OW27921   1.999   1.353   4.830  0.0141 -0.4248 -0.5366
 7039SOL    HW227922   2.068   1.375   4.766  0.3196 -0.3731 -0.1948
 7039SOL    HW327923   2.047   1.340   4.912 -0.2489 -1.5355 -0.5434
 7039SOL    MW427924   2.015   1.354   4.832  0.1211 -0.0025  0.4016
 7040SOL     OW27925   3.196   2.039   2.419 -0.1581 -0.5166 -0.2294
 7040SOL    HW227926   3.248   1.985   2.359 -1.5569 -1.3316 -0.7403
 7040SOL    HW327927   3.164   1.977   2.485 -0.4256 -0.0088  0.1181
 7040SOL    MW427928   3.199   2.024   2.419  0.2219  0.1896 -0.5920
 7041SOL     OW27929   6.292   0.471   1.293  0.4241 -0.3002  0.5773
 7041SOL    HW227930   6.262   0.494   1.204  0.1276 -0.0146  0.7478
 7041SOL    HW327931   6.211   0.465   1.344  0.5370 -1.1888  0.6668
 7041SOL    MW427932   6.277   0.473   1.288 -0.0646  0.9628  0.2382
 7042SOL     OW27933   1.003   6.031   3.942  0.6348 -0.0138 -0.8067
 7042SOL    HW227934   1.096   6.023   3.963  0.4153 -2.9895 -0.5123
 7042SOL    HW327935   0.959   6.031   4.027  0.3194  0.5714 -0.9650
 7042SOL    MW427936   1.009   6.030   3.956 -0.1387 -0.1732 -0.0689
 7043SOL     OW27937   3.968   2.262   4.258  0.2648 -0.0075  0.2983
 7043SOL    HW227938   3.991   2.350   4.228 -1.2775  0.0600 -0.8199
 7043SOL    HW327939   4.049   2.212   4.252  0.5831  0.6655 -1.7196
 7043SOL    MW427940   3.981   2.267   4.253  0.6582 -0.2785  0.4011
 7044SOL     OW27941   2.084   0.801   3.111 -0.0394 -0.2317 -0.1570
 7044SOL    HW227942   2.033   0.726   3.081  2.5646 -1.6104 -1.5506
 7044SOL    HW327943   2.145   0.765   3.175  1.1163  0.7083 -0.6811
 7044SOL    MW427944   2.086   0.787   3.115  0.0586  0.1110 -0.0240
 7045SOL     OW27945   4.196   3.727   0.182  0.1579  0.3429 -0.1259
 7045SOL    HW227946   4.139   3.687   0.116  0.0380 -1.4725  1.0078
 7045SOL    HW327947   4.235   3.653   0.228  1.1992  1.5611  1.0358
 7045SOL    MW427948   4.193   3.712   0.180 -0.0820 -0.2397 -0.3776
 7046SOL     OW27949   3.376   3.238   1.289  0.0438  0.3376 -0.1481
 7046SOL    HW227950   3.357   3.281   1.206 -1.1012  0.1681 -0.0015
 7046SOL    HW327951   3.443   3.174   1.269 -1.5392 -1.0306 -1.3877
 7046SOL    MW427952   3.382   3.235   1.276 -0.4912  0.8401 -0.3586
 7047SOL     OW27953   0.932   5.719   4.953  0.3704  0.0696  0.2858
 7047SOL    HW227954   0.940   5.791   4.890 -0.0928 -1.2674 -1.3693
 7047SOL    HW327955   0.839   5.720   4.977  0.1642 -0.5198 -0.4474
 7047SOL    MW427956   0.921   5.729   4.948  0.1376  0.6768 -0.5744
 7048SOL     OW27957   2.800   5.524   1.551  0.0765  0.3141  0.2628
 7048SOL    HW227958   2.762   5.483   1.473 -2.2962 -0.2999  1.6516
 7048SOL    HW327959   2.890   5.491   1.553 -0.6394 -1.9333 -0.6953
 7048SOL    MW427960   2.807   5.514   1.541  0.3644  0.1240  0.0800
 7049SOL     OW27961   4.027   2.250   5.986 -0.2606 -0.9905  0.1037
 7049SOL    HW227962   4.093   2.209   6.042  0.6692 -1.3958 -1.2325
 7049SOL    HW327963   3.945   2.239   6.033  0.5257 -1.0465  1.5161
 7049SOL    MW427964   4.025   2.243   5.999 -0.1775 -0.5610 -0.0113
 7050SOL     OW27965   4.876   0.351   2.833  0.6813 -0.1383 -0.0910
 7050SOL    HW227966   4.892   0.387   2.746 -0.9163  1.4525  0.1942
 7050SOL    HW327967   4.781   0.343   2.838  0.3772  3.0949  2.6230
 7050SOL    MW427968   4.866   0.355   2.822 -0.4312 -0.0526  0.2131
 7051SOL     OW27969   4.273   6.145   5.996 -0.0491  0.0893  0.3067
 7051SOL    HW227970   4.271   6.061   5.951  4.0809 -0.9807  1.7380
 7051SOL    HW327971   4.329   6.200   5.942 -1.3131  1.4296  0.2880
 7051SOL    MW427972   4.280   6.141   5.983 -0.3728  0.0447  0.3767
 7052SOL     OW27973   1.853   3.289   3.801  0.0327 -0.5228  0.5097
 7052SOL    HW227974   1.886   3.368   3.758  0.2073 -1.2318 -0.7368
 7052SOL    HW327975   1.862   3.306   3.894  1.0686  0.5048  0.2448
 7052SOL    MW427976   1.859   3.302   3.807  0.2194 -0.6558 -0.6467
 7053SOL     OW27977   5.754   1.846   4.167 -0.2529 -0.2179  0.1391
 7053SOL    HW227978   5.781   1.833   4.076  0.4531 -1.0483  0.4529
 7053SOL    HW327979   5.668   1.805   4.172  0.0847 -0.9480  0.0541
 7053SOL    MW427980   5.746   1.839   4.156 -0.3353 -0.1547  0.1756
 7054SOL     OW27981   3.750   1.115   0.661  0.2840 -0.0138 -0.5915
 7054SOL    HW227982   3.817   1.046   0.664  0.3236 -0.2645 -3.7849
 7054SOL    HW327983   3.754   1.156   0.747  2.5806 -1.8462  0.2829
 7054SOL    MW427984   3.760   1.112   0.672  0.4349  0.3656 -0.0373
 7055SOL     OW27985   1.850   1.120   4.729  0.5594 -0.2828  0.0717
 7055SOL    HW227986   1.921   1.077   4.681  2.0793  1.6971  0.3927
 7055SOL    HW327987   1.884   1.208   4.748 -3.1048  2.0194 -2.5211
 7055SOL    MW427988   1.864   1.126   4.725 -0.2341  0.4775  0.1593
 7056SOL     OW27989   5.652   4.457   0.475 -0.2360  0.4534 -0.5934
 7056SOL    HW227990   5.586   4.525   0.486  0.3645  1.0860 -0.7726
 7056SOL    HW327991   5.605   4.375   0.489 -0.8909  0.9187  0.0560
 7056SOL    MW427992   5.637   4.455   0.478 -0.1117 -0.0881  0.5152
 7057SOL     OW27993   3.937   3.647   6.015 -0.0273  0.6581 -0.0010
 7057SOL    HW227994   3.890   3.639   5.932 -0.3409  1.1846  0.1211
 7057SOL    HW327995   3.972   3.736   6.014  1.0491  0.2517 -0.1263
 7057SOL    MW427996   3.935   3.658   6.003  0.0506 -0.4134  0.1646
 7058SOL     OW27997   6.057   4.175   5.351 -0.4080 -0.6474 -0.1318
 7058SOL    HW227998   5.971   4.174   5.309 -0.6095 -0.4851  0.2635
 7058SOL    HW327999   6.038   4.190   5.444  0.0608 -0.3717 -0.0750
 7058SOL    MW428000   6.043   4.177   5.358  0.0927  0.2659 -0.8446
 7059SOL     OW28001   5.175   0.862   4.008  0.6554  0.7026 -0.5970
 7059SOL    HW228002   5.161   0.937   3.951 -0.8579  0.0944 -1.0977
 7059SOL    HW328003   5.098   0.807   3.994  1.8193 -1.0663 -0.4315
 7059SOL    MW428004   5.163   0.864   3.999 -0.0012 -0.3763 -0.0879
 7060SOL     OW28005   3.365   2.040   2.001 -0.0166 -0.0145  0.0018
 7060SOL    HW228006   3.404   1.954   1.986 -2.1139 -1.0956  0.2761
 7060SOL    HW328007   3.281   2.036   1.955 -0.7200  1.3979  1.0978
 7060SOL    MW428008   3.359   2.028   1.993 -0.1437 -0.1943 -0.2617
 7061SOL     OW28009   0.009   4.293   3.475 -0.3370 -0.2811  0.3489
 7061SOL    HW228010   0.028   4.283   3.382 -0.1152  0.7506  0.2691
 7061SOL    HW328011  -0.024   4.383   3.483  0.5661 -0.0238  1.4129
 7061SOL    MW428012   0.007   4.304   3.464 -0.0692 -0.0047  0.4403
 7062SOL     OW28013   0.793   4.973   1.857 -0.3893 -0.2228 -0.1401
 7062SOL    HW228014   0.840   4.985   1.939  0.2846  1.4193 -0.7347
 7062SOL    HW328015   0.859   4.985   1.789 -1.0027 -1.2366 -0.9608
 7062SOL    MW428016   0.808   4.976   1.859  0.4482  0.1237  0.1101
 7063SOL     OW28017   3.743   5.819   0.127 -0.3373  0.3480 -0.2982
 7063SOL    HW228018   3.693   5.860   0.198  0.2612 -0.7130  0.7616
 7063SOL    HW328019   3.813   5.882   0.108  0.6449 -0.1551  1.3952
 7063SOL    MW428020   3.746   5.833   0.134 -0.2279 -0.0857  0.2587
 7064SOL     OW28021   5.683   2.451   6.205 -0.6860  0.8563 -0.3255
 7064SOL    HW228022   5.623   2.377   6.204 -0.8460  0.9874 -1.0762
 7064SOL    HW328023   5.693   2.476   6.113 -0.4835  1.6425 -0.1052
 7064SOL    MW428024   5.677   2.445   6.192  0.2962 -0.4841 -1.1264
 7065SOL     OW28025   1.384   3.581   4.440  0.2571  0.3891  0.0453
 7065SOL    HW228026   1.459   3.522   4.445  0.7855  0.9607 -0.8122
 7065SOL    HW328027   1.323   3.549   4.507  0.5278 -1.1190 -0.3922
 7065SOL    MW428028   1.385   3.569   4.449 -0.4546 -0.1697 -0.1122
 7066SOL     OW28029   5.619   3.775   6.078 -0.1425  0.9828  0.6478
 7066SOL    HW228030   5.703   3.820   6.087 -0.9697  2.7684 -0.1699
 7066SOL    HW328031   5.601   3.775   5.984 -0.2385 -0.9938  0.6322
 7066SOL    MW428032   5.627   3.781   6.067 -0.1323 -0.0811  0.0273
 7067SOL     OW28033   1.768   0.113   2.953  0.0895  0.2792 -0.4494
 7067SOL    HW228034   1.747   0.040   3.010 -0.1881 -0.1721 -1.1170
 7067SOL    HW328035   1.708   0.183   2.980 -0.4176 -0.1105 -0.5453
 7067SOL    MW428036   1.757   0.113   2.964 -0.1429  0.2003  0.1124
 7068SOL     OW28037   2.484   5.460   5.622  0.3719  0.0803  0.0149
 7068SOL    HW228038   2.569   5.449   5.581 -0.0368 -1.4855 -0.4489
 7068SOL    HW328039   2.453   5.546   5.592  1.3795  0.2600 -0.5214
 7068SOL    MW428040   2.491   5.470   5.613  0.0468 -0.1422  0.2111
 7069SOL     OW28041   2.527   2.789   0.905 -0.2561 -0.1734 -0.1762
 7069SOL    HW228042   2.455   2.754   0.959  0.9169 -1.9018  0.3350
 7069SOL    HW328043   2.549   2.719   0.845  1.0611  0.3014 -0.2820
 7069SOL    MW428044   2.520   2.775   0.904 -0.2110  0.4498 -0.0316
 7070SOL     OW28045   5.312   5.185   3.351 -0.5693 -0.2953 -0.2786
 7070SOL    HW228046   5.328   5.120   3.419  0.9213  0.9557  0.6450
 7070SOL    HW328047   5.399   5.208   3.319 -1.2395 -0.9734 -2.7885
 7070SOL    MW428048   5.326   5.180   3.356 -0.2587 -0.4673 -0.0490
 7071SOL     OW28049   1.915   4.949   0.386  0.0355 -0.2693  0.0739
 7071SOL    HW228050   2.011   4.949   0.392  0.1170 -2.1029 -0.6243
 7071SOL    HW328051   1.895   5.027   0.333  1.0106  0.9674  1.4491
 7071SOL    MW428052   1.925   4.960   0.379 -0.3779 -0.4624 -0.1386
 7072SOL     OW28053   4.931   1.288   6.025 -0.0461  0.3001 -0.0703
 7072SOL    HW228054   4.863   1.245   5.972 -2.5960  3.6611  0.1062
 7072SOL    HW328055   4.967   1.356   5.968  2.0853 -0.3492  0.4085
 7072SOL    MW428056   4.927   1.291   6.010 -0.1569 -0.0831 -0.1105
 7073SOL     OW28057   2.349   3.665   5.715  0.3270 -0.4830  0.3726
 7073SOL    HW228058   2.313   3.672   5.627 -0.2649 -0.6344  0.5975
 7073SOL    HW328059   2.441   3.690   5.706  0.2561 -0.4526 -0.2763
 7073SOL    MW428060   2.356   3.669   5.702  0.1515 -0.5142 -0.2961
 7074SOL     OW28061   1.179   3.133   3.937 -0.3590 -0.1350  0.3181
 7074SOL    HW228062   1.176   3.042   3.967  0.6884  0.7788  3.5696
 7074SOL    HW328063   1.271   3.156   3.941 -0.7238  1.3604  0.4307
 7074SOL    MW428064   1.191   3.124   3.941  0.7993 -0.6278 -0.4236
 7075SOL     OW28065   4.331   4.031   2.420 -0.4640  0.1904 -0.9640
 7075SOL    HW228066   4.413   4.023   2.371  0.4137 -1.0826  0.5780
 7075SOL    HW328067   4.280   3.955   2.392  0.2114 -0.7815  0.2773
 7075SOL    MW428068   4.335   4.020   2.410 -0.3492 -0.2078 -0.0155
 7076SOL     OW28069   0.967   0.615   5.505  0.6281  0.5211  0.3661
 7076SOL    HW228070   0.894   0.568   5.546 -0.3646  4.0469  3.1667
 7076SOL    HW328071   0.925   0.668   5.437  1.3428 -0.6141 -1.0090
 7076SOL    MW428072   0.952   0.616   5.501  0.4207  0.0887  0.0966
 7077SOL     OW28073   1.502   6.426   0.646 -0.2541  0.8249  0.9092
 7077SOL    HW228074   1.410   6.400   0.646 -0.0118 -0.1505 -0.4098
 7077SOL    HW328075   1.542   6.372   0.578  1.4137  0.8495  1.8191
 7077SOL    MW428076   1.496   6.416   0.637 -0.4916 -0.0857  0.1362
 7078SOL     OW28077   1.533   1.686   0.940  0.4916  0.0878 -0.1263
 7078SOL    HW228078   1.510   1.779   0.943 -0.7203 -0.2320  1.8945
 7078SOL    HW328079   1.477   1.645   1.006  1.6489 -1.9467 -0.3355
 7078SOL    MW428080   1.522   1.693   0.949  0.0106  1.0707  0.4575
 7079SOL     OW28081   1.074   5.075   2.853  0.8793  0.0372  0.6148
 7079SOL    HW228082   1.053   5.033   2.936 -0.0683  0.3336  0.5383
 7079SOL    HW328083   1.079   5.003   2.790  2.6082 -0.3082  1.0803
 7079SOL    MW428084   1.072   5.060   2.855  0.1004 -0.4843 -0.3127
 7080SOL     OW28085   4.253   4.464   4.526  0.4446  0.2212  0.0283
 7080SOL    HW228086   4.197   4.541   4.530 -1.1179 -0.9410  1.2393
 7080SOL    HW328087   4.312   4.473   4.601 -0.6264 -0.3961  0.9682
 7080SOL    MW428088   4.254   4.475   4.536 -0.4789 -0.0401  0.4424
 7081SOL     OW28089   2.567   4.380   3.417  0.6121 -0.1131 -0.3462
 7081SOL    HW228090   2.569   4.315   3.347  0.4947  1.0970 -1.4971
 7081SOL    HW328091   2.646   4.432   3.404 -0.5191  1.5109 -0.9633
 7081SOL    MW428092   2.578   4.378   3.406  0.0375 -0.4441  0.2117
 7082SOL     OW28093   2.508   4.102   5.458  0.4151 -0.0364 -0.7902
 7082SOL    HW228094   2.528   4.173   5.396  1.1013 -0.5021 -1.1090
 7082SOL    HW328095   2.436   4.136   5.511  0.2092  0.5976 -1.4646
 7082SOL    MW428096   2.501   4.116   5.457  0.2687  0.5901 -0.1665
 7083SOL     OW28097   5.865   2.182   0.103 -0.7441  0.7623  0.1528
 7083SOL    HW228098   5.957   2.161   0.119 -0.1214  1.6184 -1.8494
 7083SOL    HW328099   5.841   2.127   0.029 -2.4196 -0.7063  1.7167
 7083SOL    MW428100   5.874   2.172   0.095 -0.1198 -0.2239  0.1057
 7084SOL     OW28101   4.393   1.330   1.449 -0.6141 -0.1128  1.0378
 7084SOL    HW228102   4.366   1.384   1.374  1.3765  0.3897  0.6318
 7084SOL    HW328103   4.316   1.277   1.469 -1.9978  1.4899  0.2017
 7084SOL    MW428104   4.379   1.330   1.442  0.3550  0.0261 -0.3664
 7085SOL     OW28105   0.696   6.293   2.653 -0.2790 -0.4111 -0.1547
 7085SOL    HW228106   0.647   6.277   2.572  2.3385  1.9298 -2.4131
 7085SOL    HW328107   0.663   6.378   2.684 -0.4303 -0.7376  0.5969
 7085SOL    MW428108   0.685   6.302   2.646 -0.4810 -0.1037 -0.2225
 7086SOL     OW28109   0.538   0.992   1.448 -0.1880  0.0364  0.3091
 7086SOL    HW228110   0.565   0.978   1.539  1.3862  0.5632 -0.0526
 7086SOL    HW328111   0.483   1.070   1.452  0.5349  0.5340  0.6993
 7086SOL    MW428112   0.534   1.000   1.461  0.0324 -0.3760 -0.0676
 7087SOL     OW28113   3.574   6.400   3.233 -0.1340  0.2241 -0.2295
 7087SOL    HW228114   3.496   6.448   3.206  0.1153  1.2491  0.7946
 7087SOL    HW328115   3.540   6.324   3.280 -0.5451  0.8240  0.4839
 7087SOL    MW428116   3.559   6.396   3.236 -0.1420 -0.3603 -0.1917
 7088SOL     OW28117   3.127   6.268   5.704 -0.4090 -0.0385 -0.4168
 7088SOL    HW228118   3.066   6.303   5.769 -1.2992  0.6958 -1.6074
 7088SOL    HW328119   3.081   6.194   5.666  1.7054 -3.1521  2.5233
 7088SOL    MW428120   3.113   6.263   5.708 -0.3192 -0.0608  0.3439
 7089SOL     OW28121   3.920   5.432   5.914  0.2738  0.3798  0.5753
 7089SOL    HW228122   3.931   5.502   5.851  0.9913 -0.0376  0.2342
 7089SOL    HW328123   3.947   5.352   5.868  0.8444  0.0742  1.4080
 7089SOL    MW428124   3.925   5.430   5.900  0.0553 -0.4502 -0.8258
 7090SOL     OW28125   6.050   5.982   2.519  0.0411 -0.7325  0.2491
 7090SOL    HW228126   6.067   5.888   2.529  0.3083 -0.6420  0.6855
 7090SOL    HW328127   5.969   5.996   2.569 -0.5535 -0.9073 -0.6495
 7090SOL    MW428128   6.041   5.971   2.527  0.1714 -0.1109 -0.6813
 7091SOL     OW28129   3.720   4.049   0.716  0.0075 -0.5820  0.2440
 7091SOL    HW228130   3.640   3.996   0.717 -0.9287  0.7635 -0.3793
 7091SOL    HW328131   3.778   4.002   0.656 -1.5812  0.0891 -1.9585
 7091SOL    MW428132   3.717   4.035   0.708  0.4370 -0.8016 -0.1215
 7092SOL     OW28133   1.859   5.144   2.812 -0.3000  0.5833 -0.2044
 7092SOL    HW228134   1.838   5.220   2.866  0.1005  0.0196  0.7736
 7092SOL    HW328135   1.936   5.106   2.853  0.3970  0.4819 -1.5509
 7092SOL    MW428136   1.866   5.149   2.824  0.2346  0.2315 -0.1586
 7093SOL     OW28137   1.089   0.490   4.568 -0.3605 -0.1082  0.0922
 7093SOL    HW228138   1.034   0.519   4.495 -0.4630 -1.0860 -0.2386
 7093SOL    HW328139   1.039   0.418   4.608 -0.5239  0.7113  1.4219
 7093SOL    MW428140   1.075   0.484   4.564  0.5459  0.0701 -0.1078
 7094SOL     OW28141   5.002   1.461   1.082  0.2900 -0.0441 -0.8297
 7094SOL    HW228142   5.079   1.473   1.028 -0.0901 -0.7121 -1.5350
 7094SOL    HW328143   4.936   1.425   1.023 -1.0120  1.7702 -0.5933
 7094SOL    MW428144   5.003   1.458   1.067  0.6041 -0.1913  0.4159
 7095SOL     OW28145   4.907   1.621   0.699 -0.9253  0.3731  0.0365
 7095SOL    HW228146   4.863   1.592   0.780  0.6240  0.1403  0.8315
 7095SOL    HW328147   4.913   1.541   0.646  0.8438 -0.2047  1.0449
 7095SOL    MW428148   4.902   1.606   0.703  0.5300 -0.5105  0.0853
 7096SOL     OW28149   2.694   5.962   1.993  0.0217  0.5640  0.4708
 7096SOL    HW228150   2.677   6.034   1.931 -0.7296  0.6957  0.8199
 7096SOL    HW328151   2.786   5.974   2.018  0.0829  1.0332  0.0534
 7096SOL    MW428152   2.704   5.973   1.988 -0.4410 -0.3962 -0.0109
 7097SOL     OW28153   2.320   5.632   5.263 -0.5140 -0.2028 -0.5314
 7097SOL    HW228154   2.263   5.620   5.187 -1.2217 -1.5875  0.1820
 7097SOL    HW328155   2.378   5.555   5.262  0.4067  0.4697 -0.4370
 7097SOL    MW428156   2.320   5.620   5.253 -0.1654  0.0568 -0.1379
 7098SOL     OW28157   0.788   1.588   4.281  0.7747 -0.7295  0.1661
 7098SOL    HW228158   0.862   1.620   4.332  1.1639 -1.6937  0.2332
 7098SOL    HW328159   0.715   1.645   4.306  1.1139 -0.7790  1.3194
 7098SOL    MW428160   0.788   1.600   4.291 -0.4633 -0.2090 -0.1036
 7099SOL     OW28161   4.605   2.547   1.658 -0.2075  0.4220 -0.2533
 7099SOL    HW228162   4.516   2.582   1.665  0.0412  1.1346 -0.5564
 7099SOL    HW328163   4.602   2.465   1.707 -1.3012 -0.1051 -1.1794
 7099SOL    MW428164   4.593   2.541   1.666 -0.2608 -0.0095  0.1638
 7100SOL     OW28165   4.826   5.538   0.816  0.4725 -0.1050  0.1814
 7100SOL    HW228166   4.804   5.445   0.809  0.1378 -0.1820  1.8621
 7100SOL    HW328167   4.760   5.582   0.764 -0.5431 -0.6988  0.9317
 7100SOL    MW428168   4.815   5.532   0.808  0.1356  0.0118  0.4904
 7101SOL     OW28169   2.780   3.298   4.031  0.1011  0.0514  0.1979
 7101SOL    HW228170   2.833   3.220   4.048 -0.6032 -0.1738  1.5655
 7101SOL    HW328171   2.737   3.281   3.947  1.1194 -0.3640 -0.2473
 7101SOL    MW428172   2.781   3.286   4.022  0.0324  0.6003 -0.2854
 7102SOL     OW28173   2.275   1.192   4.530 -0.0306  0.4663  0.4983
 7102SOL    HW228174   2.276   1.157   4.619  1.9292 -1.4811 -0.2014
 7102SOL    HW328175   2.343   1.259   4.530  1.4400 -0.9583  0.0246
 7102SOL    MW428176   2.284   1.196   4.542  0.5490 -0.3104  0.2555
 7103SOL     OW28177   0.231   2.941   1.373 -0.4972 -0.1254  0.1128
 7103SOL    HW228178   0.284   2.881   1.425  1.6029 -1.0550 -2.8533
 7103SOL    HW328179   0.143   2.905   1.377 -0.0828 -1.0488  1.6810
 7103SOL    MW428180   0.227   2.928   1.380  0.0345  0.1455 -0.4838
 7104SOL     OW28181   1.446   4.455   2.926 -0.1584  0.0429  0.2665
 7104SOL    HW228182   1.393   4.513   2.981 -0.1906  0.2908 -0.0238
 7104SOL    HW328183   1.431   4.487   2.837 -1.3000 -1.2963 -0.0502
 7104SOL    MW428184   1.437   4.467   2.922 -0.0295  0.3320 -0.4191
 7105SOL     OW28185   0.334   0.298   3.801  0.2334  0.2275  0.5152
 7105SOL    HW228186   0.355   0.390   3.821  0.5478  0.2088  0.2870
 7105SOL    HW328187   0.278   0.270   3.873  0.6286  0.4230  0.9043
 7105SOL    MW428188   0.330   0.307   3.813 -0.4167  0.1207  0.5176
 7106SOL     OW28189   0.728   0.345   2.981 -0.5424 -0.0909 -0.1348
 7106SOL    HW228190   0.755   0.350   2.890 -0.4294 -0.0846 -0.1022
 7106SOL    HW328191   0.681   0.427   2.997  1.8404  1.2379  0.5641
 7106SOL    MW428192   0.725   0.356   2.971  0.3300 -0.0437 -0.3149
 7107SOL     OW28193   5.141   2.071   2.427  0.2145  0.0167 -0.6061
 7107SOL    HW228194   5.234   2.094   2.433 -0.1304  1.5146 -0.5354
 7107SOL    HW328195   5.132   2.030   2.341  0.7193  1.0696 -1.1802
 7107SOL    MW428196   5.152   2.069   2.416 -0.3913 -0.1721 -0.8531
 7108SOL     OW28197   1.702   1.161   2.898 -0.4768  0.0970  0.4128
 7108SOL    HW228198   1.713   1.206   2.814 -0.3538 -0.6326  0.0328
 7108SOL    HW328199   1.610   1.132   2.897 -0.1197 -1.0545 -0.0527
 7108SOL    MW428200   1.691   1.163   2.887 -0.4157  0.0973  0.4307
 7109SOL     OW28201   0.240   1.627   1.758 -0.4561  0.4839 -0.8064
 7109SOL    HW228202   0.152   1.627   1.796 -0.4368  1.1239 -0.7446
 7109SOL    HW328203   0.297   1.659   1.828 -0.2371  0.4654 -0.9743
 7109SOL    MW428204   0.236   1.631   1.772 -0.4608 -0.2552  0.2294
 7110SOL     OW28205   1.406   4.519   1.614  0.6221  0.1620  0.7777
 7110SOL    HW228206   1.415   4.609   1.646 -0.9716  1.4707 -2.1010
 7110SOL    HW328207   1.326   4.519   1.563  2.9427 -1.5490 -3.3397
 7110SOL    MW428208   1.397   4.531   1.612 -0.1426 -0.2249 -0.2086
 7111SOL     OW28209   6.344   3.126   6.362 -0.4821  0.1080  0.0601
 7111SOL    HW228210   6.307   3.211   6.386  1.0017  0.6974  0.4098
 7111SOL    HW328211   6.366   3.085   6.446 -0.4653 -0.2827 -0.1323
 7111SOL    MW428212   6.342   3.132   6.376  0.1063 -0.4173 -0.2012
 7112SOL     OW28213   2.162   4.788   3.262 -0.8303 -0.7021 -0.1011
 7112SOL    HW228214   2.196   4.703   3.291  2.0138  0.6012  0.7901
 7112SOL    HW328215   2.146   4.776   3.168  0.0525 -2.0913 -0.1048
 7112SOL    MW428216   2.165   4.775   3.253 -0.0257 -0.1553 -0.7618
 7113SOL     OW28217   2.854   5.614   0.311 -0.5780 -0.4806 -0.2650
 7113SOL    HW228218   2.806   5.653   0.238 -0.9263 -0.9249 -0.2786
 7113SOL    HW328219   2.842   5.519   0.300  0.0535 -0.5811 -0.0960
 7113SOL    MW428220   2.846   5.606   0.300  0.1150 -0.2065  0.2351
 7114SOL     OW28221   2.486   6.337   1.939  0.2776 -0.4479 -0.0200
 7114SOL    HW228222   2.476   6.416   1.991 -1.6961 -1.8677  1.9609
 7114SOL    HW328223   2.418   6.345   1.871  1.3390  0.3722 -1.0125
 7114SOL    MW428224   2.475   6.349   1.937  0.0888 -0.6548 -0.5701
 7115SOL     OW28225   4.186   3.010   5.322  0.4042  0.1741 -0.5554
 7115SOL    HW228226   4.276   3.031   5.348 -0.1356  1.0091  0.7779
 7115SOL    HW328227   4.177   3.046   5.234  1.6262 -0.7004 -1.0689
 7115SOL    MW428228   4.196   3.018   5.314  0.7794  0.0454  0.4042
 7116SOL     OW28229   4.334   1.540   3.014  0.3793 -0.2393  0.0550
 7116SOL    HW228230   4.269   1.610   3.023  0.2266 -0.5390  1.4905
 7116SOL    HW328231   4.366   1.549   2.924 -0.3340  1.0555 -0.0980
 7116SOL    MW428232   4.330   1.551   3.003  0.2140  0.1022 -0.5025
 7117SOL     OW28233   0.467   4.736   3.498  0.2879  0.4543  0.1819
 7117SOL    HW228234   0.395   4.707   3.553  0.7927 -0.5222  0.3533
 7117SOL    HW328235   0.438   4.820   3.461 -1.9816 -1.0149 -1.6669
 7117SOL    MW428236   0.454   4.743   3.500 -0.5481 -0.0676  0.1210
 7118SOL     OW28237   5.874   5.939   3.387 -0.2235 -0.4999  0.4259
 7118SOL    HW228238   5.830   6.004   3.440 -0.2141  0.2266 -0.4366
 7118SOL    HW328239   5.904   5.987   3.310  2.6094 -0.8171  1.2352
 7118SOL    MW428240   5.872   5.954   3.384  0.1507 -0.0333 -0.0084
 7119SOL     OW28241   0.001   5.935   4.332  0.0627 -0.1107  0.1825
 7119SOL    HW228242  -0.018   6.009   4.276 -1.5159  0.3713  1.2966
 7119SOL    HW328243   0.096   5.939   4.346  0.2321  0.7181 -1.0800
 7119SOL    MW428244   0.011   5.945   4.327  0.6401  0.5067 -0.3044
 7120SOL     OW28245   1.906   1.621   0.429 -0.1296 -0.1417  0.0403
 7120SOL    HW228246   1.950   1.632   0.513  1.2289  0.2039 -0.6892
 7120SOL    HW328247   1.887   1.710   0.400  1.7208 -0.1027 -1.1755
 7120SOL    MW428248   1.909   1.634   0.436  0.2891 -0.5558  0.0788
 7121SOL     OW28249   1.996   3.487   5.522  0.1478  0.1750  0.1958
 7121SOL    HW228250   2.024   3.398   5.504 -3.5465 -0.8050 -1.7480
 7121SOL    HW328251   1.977   3.487   5.616  0.3027 -1.0785  0.2491
 7121SOL    MW428252   1.997   3.475   5.532  0.1032  0.5000  0.3254
 7122SOL     OW28253   0.906   4.329   6.285  0.4538  0.0243  0.1900
 7122SOL    HW228254   0.986   4.284   6.314  0.7860  0.9292  0.7190
 7122SOL    HW328255   0.878   4.379   6.362 -0.7202 -0.4109  0.0531
 7122SOL    MW428256   0.913   4.330   6.299 -0.0061  0.2461  0.0183
 7123SOL     OW28257   1.048   6.175   3.240  0.3813 -0.4312  0.0565
 7123SOL    HW228258   1.073   6.263   3.212 -2.1493  0.3287 -0.0464
 7123SOL    HW328259   0.992   6.189   3.316  0.4880 -2.0128  0.4668
 7123SOL    MW428260   1.044   6.188   3.246 -0.1248 -0.2960 -0.3094
 7124SOL     OW28261   3.667   3.309   4.876 -0.0187 -0.0383  0.8770
 7124SOL    HW228262   3.597   3.328   4.814  2.0352  0.6169 -1.3991
 7124SOL    HW328263   3.642   3.225   4.915 -1.8634 -0.0114 -0.1155
 7124SOL    MW428264   3.655   3.300   4.873  0.3055  0.1421 -0.4701
 7125SOL     OW28265   3.533   5.067   0.459 -0.1270 -0.8696  0.4599
 7125SOL    HW228266   3.530   5.024   0.545 -3.0783 -2.3203 -0.2453
 7125SOL    HW328267   3.554   4.996   0.398 -1.9439 -0.7296 -0.3902
 7125SOL    MW428268   3.535   5.052   0.462 -0.2400 -0.1750  0.0403
 7126SOL     OW28269   1.118   2.401   4.730  0.3067  0.0021 -0.1440
 7126SOL    HW228270   1.066   2.336   4.777  0.2466  1.4031  1.8607
 7126SOL    HW328271   1.053   2.452   4.681 -0.0449  0.5749  0.8800
 7126SOL    MW428272   1.102   2.399   4.729 -0.4937  0.2285 -0.4139
 7127SOL     OW28273   1.651   4.152   2.909 -0.2660  0.5250 -0.4419
 7127SOL    HW228274   1.584   4.168   2.975 -0.7805 -1.3192 -0.4440
 7127SOL    HW328275   1.697   4.235   2.901 -0.4588  0.9538  1.9236
 7127SOL    MW428276   1.648   4.165   2.917  0.0160 -0.0197 -0.1945
 7128SOL     OW28277   2.521   3.456   3.650  0.5507 -0.3272  0.3827
 7128SOL    HW228278   2.498   3.522   3.717  2.6513 -1.1722  2.0560
 7128SOL    HW328279   2.547   3.508   3.574  1.0563  0.7595  1.2678
 7128SOL    MW428280   2.521   3.472   3.649  0.3470  0.2807 -0.1017
 7129SOL     OW28281   4.828   6.225   0.752  0.2031  0.4234  0.9184
 7129SOL    HW228282   4.789   6.160   0.810 -4.1142 -0.4894 -2.4672
 7129SOL    HW328283   4.774   6.303   0.765  0.9761  1.0994  0.1567
 7129SOL    MW428284   4.816   6.227   0.762 -0.4310 -0.4062  0.2797
 7130SOL     OW28285   4.921   5.133   0.089 -0.0340 -0.4043  0.4721
 7130SOL    HW228286   5.001   5.088   0.062  0.6598  0.0071  1.7271
 7130SOL    HW328287   4.865   5.133   0.012  2.8246  3.0341 -1.8845
 7130SOL    MW428288   4.924   5.127   0.076  0.0129 -0.1073  0.5712
 7131SOL     OW28289   0.169   2.099   3.985  0.0486  0.0192  0.0412
 7131SOL    HW228290   0.097   2.039   3.965  0.5781 -0.5072 -0.3607
 7131SOL    HW328291   0.216   2.057   4.057  0.5758 -0.1956 -0.4166
 7131SOL    MW428292   0.166   2.085   3.992  0.2295 -0.0435 -0.1373
 7132SOL     OW28293   4.351   4.814   1.351 -0.2704 -0.2303 -0.0471
 7132SOL    HW228294   4.411   4.839   1.421  0.4267 -1.3757 -0.1950
 7132SOL    HW328295   4.385   4.859   1.274 -0.6565  0.5238  0.2219
 7132SOL    MW428296   4.364   4.823   1.350 -0.4176  0.2924 -0.2654
 7133SOL     OW28297   3.204   2.314   5.546 -0.4604 -0.3223  0.3367
 7133SOL    HW228298   3.175   2.277   5.463 -0.0911 -2.9696  1.2960
 7133SOL    HW328299   3.271   2.253   5.578  0.2403  1.2405  2.0320
 7133SOL    MW428300   3.209   2.301   5.539 -0.7048 -0.1029  0.4196
 7134SOL     OW28301   4.320   0.323   4.988  0.0547  0.5480  0.0741
 7134SOL    HW228302   4.325   0.402   4.935 -0.5828 -1.4449 -3.2279
 7134SOL    HW328303   4.394   0.270   4.959 -0.0460 -0.4601  1.5625
 7134SOL    MW428304   4.330   0.326   4.977  0.1601  0.0642  0.2353
 7135SOL     OW28305   2.517   2.757   5.232 -0.3512 -0.3860  0.4836
 7135SOL    HW228306   2.512   2.853   5.231 -1.8597 -0.4291  0.9792
 7135SOL    HW328307   2.581   2.736   5.164  1.8432  1.0381  1.9646
 7135SOL    MW428308   2.525   2.767   5.223 -0.0590 -0.3080  0.5716
 7136SOL     OW28309   1.516   2.852   5.047  0.3232 -0.2774 -0.2407
 7136SOL    HW228310   1.484   2.874   4.960 -2.4557 -1.7504  0.2916
 7136SOL    HW328311   1.442   2.870   5.105  1.8348 -0.0930  1.7282
 7136SOL    MW428312   1.502   2.857   5.043 -0.0807 -0.8005 -0.0192
 7137SOL     OW28313   5.661   5.712   3.917 -0.7301  0.0498 -1.2180
 7137SOL    HW228314   5.583   5.718   3.972 -1.2423  0.0301 -1.9391
 7137SOL    HW328315   5.650   5.632   3.867 -1.1091  0.9369 -2.6075
 7137SOL    MW428316   5.649   5.703   3.918 -0.1249 -0.0814  0.6261
 7138SOL     OW28317   5.760   1.579   3.958  0.1730 -0.1307  0.1233
 7138SOL    HW228318   5.824   1.579   3.886  0.4660  0.3483  0.3729
 7138SOL    HW328319   5.676   1.590   3.914  0.5031  2.3084 -0.0725
 7138SOL    MW428320   5.758   1.581   3.942 -0.1758 -0.2644  0.0871
 7139SOL     OW28321   4.730   5.062   2.115 -0.1496 -0.3143 -0.0327
 7139SOL    HW228322   4.807   5.053   2.171 -0.4890  0.5994  0.5985
 7139SOL    HW328323   4.724   5.155   2.095 -1.6784 -0.1861  0.8124
 7139SOL    MW428324   4.739   5.073   2.120 -0.1465 -0.5798  0.5664
 7140SOL     OW28325   3.074   0.497   4.066 -0.0367 -0.0728 -0.2083
 7140SOL    HW228326   3.127   0.542   4.001  1.1109 -1.3590 -0.2119
 7140SOL    HW328327   2.985   0.499   4.030 -0.1945  2.7504  0.1427
 7140SOL    MW428328   3.069   0.503   4.053  0.2369 -0.0929  0.0586
 7141SOL     OW28329   0.529   1.702   2.820  0.6396  0.1548 -0.2086
 7141SOL    HW228330   0.437   1.716   2.796  0.9098  0.2904 -1.2218
 7141SOL    HW328331   0.547   1.612   2.795  0.4574 -0.2703  1.1291
 7141SOL    MW428332   0.519   1.692   2.813 -0.9469 -0.2715 -0.3571
 7142SOL     OW28333   5.106   1.376   3.188  0.2090 -0.6321  0.0651
 7142SOL    HW228334   5.087   1.469   3.180 -1.8008 -0.8446  1.6213
 7142SOL    HW328335   5.095   1.342   3.100  1.2710  0.6010 -0.5894
 7142SOL    MW428336   5.102   1.384   3.175  0.1261  0.1669  0.2392
 7143SOL     OW28337   1.615   2.288   2.476  0.4105  0.1715 -0.1262
 7143SOL    HW228338   1.580   2.368   2.437  0.6518  0.8947  1.0967
 7143SOL    HW328339   1.564   2.275   2.556  0.9581 -0.4138  0.1425
 7143SOL    MW428340   1.604   2.297   2.481  0.2194 -0.3049  0.5163
 7144SOL     OW28341   3.666   3.875   6.034  0.6606  0.3738 -0.0527
 7144SOL    HW228342   3.698   3.812   5.970 -0.7533  0.5789 -1.0112
 7144SOL    HW328343   3.680   3.833   6.119  2.9859  0.2965 -0.4248
 7144SOL    MW428344   3.672   3.861   6.037  0.0287  0.1827  0.0895
 7145SOL     OW28345   1.896   3.665   1.343  0.7149 -0.1554  0.0694
 7145SOL    HW228346   1.949   3.745   1.339  0.4178  0.0098 -0.8540
 7145SOL    HW328347   1.806   3.695   1.326  0.0278 -0.2164  2.9806
 7145SOL    MW428348   1.891   3.679   1.340 -0.5091  0.5477 -0.0278
 7146SOL     OW28349   3.342   2.591   4.429 -0.3623 -0.2714  0.2871
 7146SOL    HW228350   3.393   2.513   4.408  1.2871  0.8384 -0.0593
 7146SOL    HW328351   3.275   2.595   4.361  1.3695  0.1782 -1.4964
 7146SOL    MW428352   3.340   2.581   4.417 -0.4734  0.6672 -0.3872
 7147SOL     OW28353   6.266   1.093   0.517 -0.0775  0.8910  0.4567
 7147SOL    HW228354   6.318   1.070   0.594  1.5432  1.2937 -0.4667
 7147SOL    HW328355   6.286   1.026   0.452  2.4890  3.0818 -1.2687
 7147SOL    MW428356   6.275   1.081   0.519  0.4680 -0.0365 -0.2828
 7148SOL     OW28357   1.071   4.258   2.451  0.1186 -0.6844  0.0373
 7148SOL    HW228358   1.067   4.210   2.534 -0.2022 -0.0941  0.3766
 7148SOL    HW328359   0.979   4.270   2.427  0.2138 -0.9491 -0.4655
 7148SOL    MW428360   1.058   4.253   2.459  0.0525 -0.1135  0.2223
 7149SOL     OW28361   0.721   3.182   4.947  0.2987 -0.0431  0.0296
 7149SOL    HW228362   0.672   3.136   5.016 -0.0595 -1.1826 -0.9483
 7149SOL    HW328363   0.745   3.114   4.885  2.0494  0.7063 -0.1763
 7149SOL    MW428364   0.717   3.167   4.948  0.5057  0.5968 -0.0600
 7150SOL     OW28365   4.760   4.548   1.330 -0.4661  0.2490 -0.4714
 7150SOL    HW228366   4.696   4.572   1.396 -0.0262 -1.1012  0.4805
 7150SOL    HW328367   4.708   4.532   1.251 -1.3819 -1.0401  0.3400
 7150SOL    MW428368   4.745   4.549   1.328 -0.0444  0.4370  0.0437
 7151SOL     OW28369   3.543   4.041   2.409 -0.3371 -0.4599 -0.4318
 7151SOL    HW228370   3.532   4.021   2.316  0.2199  0.7701 -0.7769
 7151SOL    HW328371   3.620   4.097   2.413  1.4935 -2.8640  1.1131
 7151SOL    MW428372   3.551   4.046   2.397  0.0622 -0.0491 -0.1401
 7152SOL     OW28373   0.850   0.318   5.631  0.8822 -0.0244 -0.0741
 7152SOL    HW228374   0.789   0.392   5.630  0.2359 -0.5345  0.9371
 7152SOL    HW328375   0.805   0.250   5.680  2.0125 -0.6317  0.1459
 7152SOL    MW428376   0.836   0.319   5.637 -0.5779  0.3200  0.0368
 7153SOL     OW28377   2.340   3.327   5.845  0.0591 -0.3825  0.3858
 7153SOL    HW228378   2.365   3.303   5.934 -0.3717 -1.4414  0.2360
 7153SOL    HW328379   2.256   3.372   5.854  0.6426  0.7098  0.6204
 7153SOL    MW428380   2.332   3.330   5.858 -0.2034  0.5535 -0.4903
 7154SOL     OW28381   3.435   1.900   0.056  0.2444  0.3737 -0.4806
 7154SOL    HW228382   3.496   1.881   0.127  1.9832  0.2307 -1.9472
 7154SOL    HW328383   3.385   1.975   0.087 -0.7517 -1.1233  1.8537
 7154SOL    MW428384   3.436   1.907   0.069  0.1943 -0.2095 -0.0228
 7155SOL     OW28385   0.233   4.542   1.408 -0.5718  0.0553  0.0583
 7155SOL    HW228386   0.221   4.625   1.453  1.7780  0.8285 -0.5569
 7155SOL    HW328387   0.189   4.477   1.463  1.6632  0.9958  3.2418
 7155SOL    MW428388   0.226   4.544   1.421 -0.3807 -0.6406 -0.7035
 7156SOL     OW28389   6.196   3.412   2.025  0.1509  0.1823  0.5328
 7156SOL    HW228390   6.206   3.372   2.111  1.2758 -3.1750 -0.9858
 7156SOL    HW328391   6.102   3.407   2.007  0.0340 -0.0081  1.1745
 7156SOL    MW428392   6.185   3.406   2.034  0.2902 -0.1074  0.1264
 7157SOL     OW28393   1.302   6.081   2.907 -0.2989 -0.1567 -0.3360
 7157SOL    HW228394   1.382   6.083   2.855  0.1300  0.9267  0.3321
 7157SOL    HW328395   1.331   6.099   2.996 -1.2519 -0.0562 -0.0375
 7157SOL    MW428396   1.316   6.083   2.912 -0.8420 -0.2199  0.4000
 7158SOL     OW28397   0.899   0.775   0.917  0.5787  0.3298  0.3717
 7158SOL    HW228398   0.881   0.800   0.826  0.8953 -2.2156 -0.4737
 7158SOL    HW328399   0.815   0.743   0.950  1.1373 -1.9095 -0.2032
 7158SOL    MW428400   0.885   0.774   0.910  0.2193 -0.2639  0.1507
 7159SOL     OW28401   1.040   0.796   3.811  0.2582 -1.1112  0.4787
 7159SOL    HW228402   1.084   0.881   3.808  1.0791 -1.5209  0.5666
 7159SOL    HW328403   1.026   0.779   3.905 -1.1545 -0.4624  0.4112
 7159SOL    MW428404   1.044   0.805   3.823  0.1761  0.0191 -0.1591
 7160SOL     OW28405   1.162   2.444   6.207  0.2874 -0.5446 -0.1212
 7160SOL    HW228406   1.210   2.416   6.130 -0.5137  1.1550 -1.3111
 7160SOL    HW328407   1.070   2.440   6.181  0.0438  0.9608  0.3980
 7160SOL    MW428408   1.156   2.440   6.194  0.1243  1.2208 -0.0098
 7161SOL     OW28409   0.509   0.860   3.543  0.2918 -0.0280 -0.3303
 7161SOL    HW228410   0.494   0.954   3.547  0.0175 -0.1160  1.6584
 7161SOL    HW328411   0.588   0.850   3.489 -0.4130  1.2104 -1.6584
 7161SOL    MW428412   0.518   0.871   3.536 -0.0343 -0.3242  0.2879
 7162SOL     OW28413   5.222   2.117   2.854 -0.4693  0.1245 -0.4041
 7162SOL    HW228414   5.253   2.034   2.891 -0.7858  0.1191 -0.1530
 7162SOL    HW328415   5.139   2.134   2.898  0.4601  1.5165  0.9739
 7162SOL    MW428416   5.215   2.108   2.865  0.4598  0.0693  0.2606
 7163SOL     OW28417   1.752   2.151   5.494 -0.2422 -0.1913 -0.7431
 7163SOL    HW228418   1.677   2.124   5.548  0.1691  1.7110  0.8846
 7163SOL    HW328419   1.828   2.139   5.551  0.4028  0.2388 -1.4999
 7163SOL    MW428420   1.752   2.146   5.509  0.6043  0.0284 -0.1572
 7164SOL     OW28421   2.282   2.982   3.740 -0.0458 -0.6011 -0.3016
 7164SOL    HW228422   2.196   3.023   3.741  0.0797 -0.3239 -0.5235
 7164SOL    HW328423   2.333   3.032   3.803  0.0168 -0.6181 -0.3381
 7164SOL    MW428424   2.277   2.994   3.748 -0.4802 -0.1378 -0.8278
 7165SOL     OW28425   1.073   1.045   4.158  0.4173  0.5077  0.0266
 7165SOL    HW228426   1.158   1.060   4.199  0.6488 -0.5607 -0.0289
 7165SOL    HW328427   1.031   1.131   4.157  0.6705  0.7055  1.9150
 7165SOL    MW428428   1.079   1.058   4.164 -0.4796 -0.5276 -0.5313
 7166SOL     OW28429   3.390   1.610   0.017 -0.2021 -0.0776  0.2136
 7166SOL    HW228430   3.308   1.590   0.062 -0.8295 -1.1670 -1.3204
 7166SOL    HW328431   3.402   1.704   0.030 -1.1378 -0.0957  1.3476
 7166SOL    MW428432   3.381   1.620   0.025 -0.6139 -0.2018 -0.3030
 7167SOL     OW28433   6.166   4.847   1.052  0.2795  0.2085  0.0953
 7167SOL    HW228434   6.181   4.941   1.041 -2.2722  0.6507 -0.1623
 7167SOL    HW328435   6.147   4.815   0.964 -1.6137  0.0514  0.5202
 7167SOL    MW428436   6.165   4.856   1.039 -0.5319 -0.2216 -0.2047
 7168SOL     OW28437   3.072   3.155   3.947 -0.0519 -0.4104 -0.5171
 7168SOL    HW228438   3.092   3.080   3.890  3.4893 -0.3172  0.3408
 7168SOL    HW328439   3.098   3.126   4.034 -0.4436  1.1921  0.1599
 7168SOL    MW428440   3.078   3.141   3.951  0.1740  0.1299 -0.2229
 7169SOL     OW28441   6.390   5.623   5.003 -0.6946  0.4743  0.2972
 7169SOL    HW228442   6.315   5.593   4.952 -0.3356  0.8742 -0.4864
 7169SOL    HW328443   6.463   5.625   4.941  0.0276 -0.0895  1.0822
 7169SOL    MW428444   6.390   5.619   4.988  0.1837  0.1744  0.1853
 7170SOL     OW28445   2.278   1.555   3.106 -0.3070  0.4585  0.0883
 7170SOL    HW228446   2.217   1.505   3.053 -2.2309  1.6915  1.0118
 7170SOL    HW328447   2.290   1.503   3.185  0.5668 -0.1848 -0.4445
 7170SOL    MW428448   2.271   1.542   3.110 -0.1519  0.0534  0.2803
 7171SOL     OW28449   4.773   3.029   2.121 -0.3201  0.3517  0.0410
 7171SOL    HW228450   4.759   3.033   2.026 -3.9657  2.1333  0.4842
 7171SOL    HW328451   4.825   3.107   2.140  2.2709 -1.0965 -0.5824
 7171SOL    MW428452   4.778   3.040   2.111 -0.7705  0.0499  0.0708
 7172SOL     OW28453   6.123   4.575   1.361  0.1527 -0.7545  0.4487
 7172SOL    HW228454   6.167   4.652   1.325  1.2085 -1.1438  0.8760
 7172SOL    HW328455   6.120   4.591   1.455  0.1487 -1.1184  0.5128
 7172SOL    MW428456   6.129   4.587   1.369 -0.3860  0.3477  0.5546
 7173SOL     OW28457   3.996   2.770   1.198 -1.0386  0.2655  0.5907
 7173SOL    HW228458   3.944   2.751   1.119  3.0427  0.6471 -2.5223
 7173SOL    HW328459   4.045   2.690   1.214 -0.7580  0.6826  1.9517
 7173SOL    MW428460   3.995   2.757   1.190 -0.4562 -0.1074 -0.5217
 7174SOL     OW28461   6.048   1.361   2.078 -0.0473  0.1005  0.0357
 7174SOL    HW228462   6.017   1.272   2.093  0.2911  0.0203  0.2593
 7174SOL    HW328463   5.981   1.400   2.022 -1.6298  0.5930  2.1396
 7174SOL    MW428464   6.035   1.355   2.072 -0.7896 -0.0117 -0.8029
 7175SOL     OW28465   1.067   0.359   0.052  0.5457  0.1425  0.0815
 7175SOL    HW228466   1.045   0.421  -0.018 -2.1251 -0.6071  0.1403
 7175SOL    HW328467   1.101   0.283   0.006  0.5459  0.3435 -0.2595
 7175SOL    MW428468   1.068   0.357   0.037 -0.6347 -0.2045  0.3652
 7176SOL     OW28469   1.579   3.599   0.410 -0.4673 -0.2833  0.3238
 7176SOL    HW228470   1.532   3.538   0.468  1.1827 -1.2425  0.7270
 7176SOL    HW328471   1.621   3.542   0.345  0.6019  0.4779  0.3256
 7176SOL    MW428472   1.578   3.583   0.409  0.2849 -0.4040 -0.0287
 7177SOL     OW28473   3.611   4.841   2.644 -0.2390 -0.1938  0.4586
 7177SOL    HW228474   3.625   4.932   2.671  2.4194 -1.1066  2.6299
 7177SOL    HW328475   3.543   4.846   2.577 -0.7398  3.2883  1.0336
 7177SOL    MW428476   3.604   4.854   2.639  0.1615 -0.4558 -0.6009
 7178SOL     OW28477   2.861   1.240   5.782  0.3248 -0.3698 -0.6388
 7178SOL    HW228478   2.842   1.203   5.869 -3.1400  2.8191  0.2715
 7178SOL    HW328479   2.944   1.287   5.794  0.3271 -0.6630  0.7358
 7178SOL    MW428480   2.869   1.241   5.795  0.4724 -0.1233 -0.6755
 7179SOL     OW28481   3.329   4.507   6.338  0.1323  0.1708  0.6024
 7179SOL    HW228482   3.340   4.463   6.253  1.7066  0.6605  0.5242
 7179SOL    HW328483   3.402   4.476   6.391  0.4345  1.5637  1.0367
 7179SOL    MW428484   3.340   4.497   6.334  0.3128 -0.0122 -0.1033
 7180SOL     OW28485   3.467   3.989   2.150  0.1371  0.3408  0.0605
 7180SOL    HW228486   3.372   3.987   2.142  0.1884 -0.6373 -0.5822
 7180SOL    HW328487   3.495   4.053   2.084  0.0482 -1.5248 -1.9404
 7180SOL    MW428488   3.458   3.997   2.140 -0.3408  0.3258  0.2312
 7181SOL     OW28489   4.404   4.811   0.518 -0.1471  0.4369  0.2713
 7181SOL    HW228490   4.337   4.748   0.546 -0.1741  0.2672 -0.1614
 7181SOL    HW328491   4.374   4.895   0.555 -0.2555  0.2482  0.6216
 7181SOL    MW428492   4.391   4.814   0.527 -0.0002  0.3876 -0.4883
 7182SOL     OW28493   3.770   1.704   1.143 -0.1010  0.0232 -0.0075
 7182SOL    HW228494   3.750   1.744   1.228  1.1357  1.7792 -0.4687
 7182SOL    HW328495   3.865   1.712   1.135 -0.3545  2.0652 -2.4842
 7182SOL    MW428496   3.780   1.711   1.154  0.1783 -0.3270  0.0302
 7183SOL     OW28497   3.936   0.840   2.516 -0.1004 -0.0974 -0.6622
 7183SOL    HW228498   3.913   0.764   2.569 -0.9800  0.3581 -0.3679
 7183SOL    HW328499   3.858   0.856   2.463 -0.0325  0.7763 -0.5090
 7183SOL    MW428500   3.923   0.832   2.516  0.0206 -0.1888 -0.4603
 7184SOL     OW28501   3.497   5.599   4.936 -0.4722 -0.6904  0.5292
 7184SOL    HW228502   3.538   5.613   4.851  2.1505 -2.5719  1.3168
 7184SOL    HW328503   3.540   5.662   4.994  0.4387 -1.7804  1.0959
 7184SOL    MW428504   3.508   5.609   4.933 -0.3914 -0.6765  0.2212
 7185SOL     OW28505   4.348   2.233   5.959 -0.2953 -0.1792 -0.0708
 7185SOL    HW228506   4.441   2.240   5.978 -0.8040  2.6821  1.9995
 7185SOL    HW328507   4.310   2.189   6.035 -0.8385  0.2670 -0.0737
 7185SOL    MW428508   4.355   2.229   5.971 -0.1548 -0.0461  0.1982
 7186SOL     OW28509   0.877   0.274   3.420 -0.1773 -0.3736  0.2326
 7186SOL    HW228510   0.849   0.186   3.393 -0.1830 -0.5667  0.8571
 7186SOL    HW328511   0.971   0.275   3.407 -0.3245 -0.0650 -0.9089
 7186SOL    MW428512   0.885   0.263   3.415 -0.2932  0.2829  0.2506
 7187SOL     OW28513   3.384   4.726   6.049  0.2531 -0.6173  0.1728
 7187SOL    HW228514   3.290   4.737   6.064  0.1413 -1.7345  0.4331
 7187SOL    HW328515   3.423   4.731   6.136  0.2455 -1.6063  0.2528
 7187SOL    MW428516   3.377   4.728   6.063 -0.7605 -0.2575 -0.2606
 7188SOL     OW28517   5.501   3.181   2.309 -0.1487 -0.0679 -0.1172
 7188SOL    HW228518   5.500   3.109   2.371  1.5321  0.7043  0.8541
 7188SOL    HW328519   5.590   3.184   2.275  0.0397  1.9797  0.4048
 7188SOL    MW428520   5.512   3.172   2.313 -0.1377  0.1669 -0.6342
 7189SOL     OW28521   1.729   1.716   6.225  0.6280 -0.6114 -0.0980
 7189SOL    HW228522   1.681   1.795   6.201  0.5156 -0.7706 -0.4057
 7189SOL    HW328523   1.662   1.655   6.256  0.7161 -0.5813  0.1540
 7189SOL    MW428524   1.714   1.718   6.226  0.4028 -0.8631 -0.5648
 7190SOL     OW28525   2.647   5.369   2.652  1.0513  0.0556 -0.2338
 7190SOL    HW228526   2.704   5.393   2.578  1.8043  0.9884  0.6249
 7190SOL    HW328527   2.632   5.452   2.698 -1.2486 -0.1131 -0.5913
 7190SOL    MW428528   2.653   5.383   2.648  0.1594  0.1075  0.3021
 7191SOL     OW28529   1.924   0.032   4.000 -0.2110 -0.4521  0.0518
 7191SOL    HW228530   1.917   0.036   3.905 -2.0613  0.1848  0.1833
 7191SOL    HW328531   1.923   0.123   4.029 -1.2184 -0.6661  0.7570
 7191SOL    MW428532   1.923   0.044   3.992 -0.0966  0.1249 -0.3562
 7192SOL     OW28533   4.310   2.448   4.124  0.6773 -0.1905  0.1809
 7192SOL    HW228534   4.369   2.386   4.167  1.2658 -0.1190 -0.5112
 7192SOL    HW328535   4.356   2.531   4.128  0.4628 -0.0589 -0.0497
 7192SOL    MW428536   4.324   2.451   4.130  0.1205  0.3544  0.4275
 7193SOL     OW28537   1.030   4.315   0.846 -0.3003  0.1615 -0.2390
 7193SOL    HW228538   1.067   4.234   0.812 -0.8236 -0.3874  0.4816
 7193SOL    HW328539   0.959   4.288   0.903  1.2091  0.9368  2.2025
 7193SOL    MW428540   1.026   4.301   0.849  0.3316  0.6419  0.6037
 7194SOL     OW28541   5.560   5.233   4.386 -0.5585 -0.0979  0.3365
 7194SOL    HW228542   5.480   5.249   4.337 -0.4111  2.1938  0.7616
 7194SOL    HW328543   5.630   5.238   4.320 -0.6111 -0.3973  0.2535
 7194SOL    MW428544   5.559   5.236   4.371  0.1440  0.1982  0.6222
 7195SOL     OW28545   3.709   1.325   0.887  0.2344 -0.1558  0.0256
 7195SOL    HW228546   3.663   1.385   0.828  0.9647 -0.8740 -1.3261
 7195SOL    HW328547   3.713   1.371   0.970 -2.6908  0.0432  0.1637
 7195SOL    MW428548   3.703   1.339   0.890  0.2751 -0.0499  0.1641
 7196SOL     OW28549   6.304   3.950   2.825 -0.0633 -0.5702 -0.3177
 7196SOL    HW228550   6.299   3.957   2.730  0.5031  1.6302 -0.2407
 7196SOL    HW328551   6.221   3.987   2.856  0.5567  0.5429  0.0623
 7196SOL    MW428552   6.292   3.956   2.816  0.3891 -0.4626 -0.3034
 7197SOL     OW28553   0.496   2.158   0.498 -0.0262 -0.1751 -0.2463
 7197SOL    HW228554   0.470   2.111   0.578 -0.4489  0.2332 -0.1372
 7197SOL    HW328555   0.426   2.138   0.436  0.5617 -0.9168 -0.6950
 7197SOL    MW428556   0.483   2.149   0.501 -0.4253 -0.0015  0.2345
 7198SOL     OW28557   5.072   3.455   0.939 -0.0266 -0.0151 -0.5736
 7198SOL    HW228558   5.011   3.444   0.867  0.3486  1.6271 -1.1842
 7198SOL    HW328559   5.155   3.477   0.897 -0.3782  3.6135  0.3146
 7198SOL    MW428560   5.075   3.456   0.924 -0.0597  0.4716 -0.2632
 7199SOL     OW28561   6.123   0.810   4.410  0.1748 -0.0010 -0.0599
 7199SOL    HW228562   6.079   0.866   4.474 -0.0845 -0.5836  0.2827
 7199SOL    HW328563   6.097   0.721   4.435 -0.2758 -0.2170 -1.2321
 7199SOL    MW428564   6.113   0.805   4.422  0.4376  0.6066  0.1228
 7200SOL     OW28565   5.200   4.181   3.395 -0.4812  0.0902  0.1318
 7200SOL    HW228566   5.196   4.260   3.341 -0.5005  0.6866  0.9829
 7200SOL    HW328567   5.108   4.165   3.420 -0.2236  1.5248  2.3420
 7200SOL    MW428568   5.187   4.190   3.392 -0.6587 -0.0738  0.7234
 7201SOL     OW28569   6.281   0.335   2.666  0.1849 -0.9223  0.0458
 7201SOL    HW228570   6.363   0.384   2.655  0.3239 -1.2209 -0.2556
 7201SOL    HW328571   6.219   0.400   2.700  0.7946 -0.9174  1.2048
 7201SOL    MW428572   6.284   0.350   2.669  0.4366 -0.2650 -0.0476
 7202SOL     OW28573   0.492   3.978   2.037  0.3750  0.1026 -0.3407
 7202SOL    HW228574   0.427   3.995   1.969 -1.5931 -0.8537  1.2067
 7202SOL    HW328575   0.455   4.017   2.116  1.1393 -1.4375  0.8362
 7202SOL    MW428576   0.479   3.985   2.039  0.6013 -0.0842  0.4966
 7203SOL     OW28577   4.650   5.731   1.013 -0.0212 -0.6894 -0.0959
 7203SOL    HW228578   4.713   5.779   0.960  1.7334 -1.6921  0.9905
 7203SOL    HW328579   4.565   5.750   0.973  1.0240  0.1731 -2.0070
 7203SOL    MW428580   4.647   5.740   1.001 -0.3286  0.0819  0.0064
 7204SOL     OW28581   3.958   2.825   3.927  0.0250 -0.4107  0.3273
 7204SOL    HW228582   3.955   2.730   3.937  1.6529 -0.4366  1.0138
 7204SOL    HW328583   3.874   2.856   3.962 -0.6735 -1.5969 -0.2483
 7204SOL    MW428584   3.947   2.817   3.933 -0.7732  0.2397 -0.0446
 7205SOL     OW28585   2.005   4.179   3.126 -0.1857 -0.0917  0.2114
 7205SOL    HW228586   1.951   4.109   3.162 -0.2765 -0.1851 -0.1048
 7205SOL    HW328587   2.079   4.185   3.187 -1.2165  0.9594  1.4347
 7205SOL    MW428588   2.007   4.171   3.139  0.5664 -0.3211 -0.3674
 7206SOL     OW28589   0.080   3.999   4.628  0.1884 -0.1566  0.0943
 7206SOL    HW228590   0.124   4.051   4.561 -2.5029  1.7600 -0.3373
 7206SOL    HW328591   0.109   4.038   4.711  1.1210 -0.5207 -0.0410
 7206SOL    MW428592   0.090   4.011   4.630 -0.0948  0.3321  0.6378
 7207SOL     OW28593   4.429   1.206   2.890 -0.1773 -0.4426  0.1218
 7207SOL    HW228594   4.446   1.147   2.963 -0.2809  1.4515  1.7722
 7207SOL    HW328595   4.451   1.155   2.812  3.6858 -1.3612  1.5792
 7207SOL    MW428596   4.434   1.191   2.890 -0.0826  0.9577 -0.6509
 7208SOL     OW28597   3.638   1.514   3.664 -0.0048  0.0372 -0.4379
 7208SOL    HW228598   3.716   1.460   3.679 -0.8552 -0.9565  0.5855
 7208SOL    HW328599   3.631   1.521   3.569  1.1975 -0.0351 -0.5471
 7208SOL    MW428600   3.648   1.508   3.654 -0.4170  0.5383  0.2396
 7209SOL     OW28601   0.546   5.600   6.316 -0.2843 -0.5578  0.2967
 7209SOL    HW228602   0.571   5.625   6.227 -0.5660  0.9835  0.6237
 7209SOL    HW328603   0.542   5.504   6.314 -0.8564 -0.5296 -1.4990
 7209SOL    MW428604   0.549   5.590   6.304 -0.5117 -0.7152 -0.1430
 7210SOL     OW28605   0.894   5.966   4.404 -0.2020 -0.0331 -0.2875
 7210SOL    HW228606   0.866   6.007   4.323  0.1846  0.1184 -0.3470
 7210SOL    HW328607   0.987   5.949   4.391  0.0556  0.7549  0.4347
 7210SOL    MW428608   0.902   5.970   4.392  0.7414 -0.2255 -0.1016
 7211SOL     OW28609   4.954   1.719   4.787 -0.1881  0.0906 -0.2811
 7211SOL    HW228610   4.874   1.686   4.747 -0.8735  0.5296  0.6993
 7211SOL    HW328611   4.930   1.739   4.877  0.6859  1.4431 -0.3135
 7211SOL    MW428612   4.941   1.718   4.793 -0.6735 -0.6926 -0.4213
 7212SOL     OW28613   0.768   1.229   2.801 -0.0842 -0.0569  0.2523
 7212SOL    HW228614   0.758   1.134   2.816 -1.2105  0.2655  1.8937
 7212SOL    HW328615   0.808   1.261   2.882 -0.2645  0.9524 -0.0536
 7212SOL    MW428616   0.772   1.220   2.814  0.1577  0.0102 -0.0272
 7213SOL     OW28617   3.481   2.436   5.445 -0.2273 -0.1457  0.1206
 7213SOL    HW228618   3.533   2.359   5.420 -1.3895 -1.1272  0.6090
 7213SOL    HW328619   3.486   2.438   5.541 -0.4933  0.1698  0.1275
 7213SOL    MW428620   3.489   2.426   5.454 -0.3644  0.2584 -0.3177
 7214SOL     OW28621   5.165   4.676   2.993 -0.5738 -0.0769 -0.3023
 7214SOL    HW228622   5.117   4.601   2.958 -1.5942  0.0619  0.7031
 7214SOL    HW328623   5.101   4.719   3.051 -0.1963  1.8678 -1.2508
 7214SOL    MW428624   5.150   4.672   2.996 -0.4981  0.2210 -0.1509
 7215SOL     OW28625   6.072   1.382   0.152 -0.8733 -0.0457  0.1394
 7215SOL    HW228626   6.099   1.302   0.197  0.3626  0.1111 -0.2864
 7215SOL    HW328627   6.147   1.406   0.097 -1.4984  1.0020 -0.3001
 7215SOL    MW428628   6.085   1.375   0.151  0.2601  0.6543  0.4030
 7216SOL     OW28629   0.176   3.548   1.630  0.2992  0.1263  1.2467
 7216SOL    HW228630   0.226   3.533   1.550  0.0696 -1.6318  1.3885
 7216SOL    HW328631   0.181   3.465   1.677  0.0144  0.9712  2.8293
 7216SOL    MW428632   0.183   3.535   1.626 -0.1895  0.2057  0.0909
 7217SOL     OW28633   6.113   3.798   1.196  0.5981  0.0062 -0.1007
 7217SOL    HW228634   6.111   3.841   1.281  0.1110 -0.9263  0.3778
 7217SOL    HW328635   6.127   3.869   1.133 -0.9826  0.9583  0.5760
 7217SOL    MW428636   6.115   3.813   1.199 -0.2638  0.4286 -0.1878
 7218SOL     OW28637   1.960   1.172   2.073  0.0850 -0.2266 -0.0660
 7218SOL    HW228638   1.977   1.250   2.126  1.7398 -0.6880  0.1382
 7218SOL    HW328639   1.873   1.187   2.035  0.1379  1.4542  0.4052
 7218SOL    MW428640   1.950   1.184   2.075 -0.0830 -0.2468  0.1273
 7219SOL     OW28641   0.478   3.012   4.768  0.1661 -0.3341 -0.5347
 7219SOL    HW228642   0.420   2.965   4.708 -2.5029  0.9730  0.8558
 7219SOL    HW328643   0.436   3.096   4.781  0.3219 -0.6792  3.4832
 7219SOL    MW428644   0.465   3.017   4.762 -0.2927 -0.2323  0.1229
 7220SOL     OW28645   4.840   3.767   3.723 -0.1281  0.3571 -0.1044
 7220SOL    HW228646   4.778   3.805   3.660  1.2500  0.3843 -1.5068
 7220SOL    HW328647   4.905   3.722   3.669  1.3766  0.7685  1.2796
 7220SOL    MW428648   4.840   3.766   3.708 -0.4137  0.3143  0.0241
 7221SOL     OW28649   2.647   3.910   2.008 -0.0860 -0.0229 -0.4882
 7221SOL    HW228650   2.669   3.976   1.942  0.3587 -1.1149 -1.4597
 7221SOL    HW328651   2.645   3.828   1.960 -2.3740 -0.5304  0.3284
 7221SOL    MW428652   2.649   3.908   1.993  0.1588  0.2760  0.3667
 7222SOL     OW28653   1.075   4.741   1.552  0.3610  0.1068 -0.2655
 7222SOL    HW228654   1.026   4.815   1.587  2.3875  0.8890  1.0494
 7222SOL    HW328655   1.051   4.668   1.608  0.5195  0.4262  0.2234
 7222SOL    MW428656   1.065   4.741   1.564 -0.2994  0.2346 -0.0224
 7223SOL     OW28657   3.197   2.296   3.162 -0.1183 -0.1413 -0.1225
 7223SOL    HW228658   3.216   2.390   3.170  2.2400 -0.6145  0.6188
 7223SOL    HW328659   3.194   2.265   3.253 -2.7977 -0.5280 -0.2573
 7223SOL    MW428660   3.199   2.305   3.175 -0.2237  0.1913 -0.3198
 7224SOL     OW28661   4.152   2.147   5.344  0.1348 -0.1019  0.2202
 7224SOL    HW228662   4.072   2.097   5.329  0.0228  0.0428  0.3368
 7224SOL    HW328663   4.128   2.238   5.327  0.3029 -0.0700  0.1447
 7224SOL    MW428664   4.138   2.153   5.340 -0.3306 -0.3362  0.4602
 7225SOL     OW28665   3.873   4.728   0.916  0.2651  0.4090  0.3475
 7225SOL    HW228666   3.781   4.700   0.909  0.4167  0.0349 -0.2084
 7225SOL    HW328667   3.905   4.684   0.995  0.5986 -1.3063 -0.6992
 7225SOL    MW428668   3.865   4.719   0.926  0.2007  0.1439  0.0686
 7226SOL     OW28669   3.862   4.345   1.266 -0.6277  0.2710 -0.6461
 7226SOL    HW228670   3.819   4.274   1.219  0.8311 -0.5972 -0.7433
 7226SOL    HW328671   3.865   4.316   1.357 -0.2174  0.2938 -0.6485
 7226SOL    MW428672   3.857   4.332   1.272 -0.6019  0.2388 -0.0666
 7227SOL     OW28673   5.537   4.236   4.772 -0.0815  0.5938  0.6748
 7227SOL    HW228674   5.453   4.210   4.735 -0.3323  3.5950 -1.1885
 7227SOL    HW328675   5.600   4.172   4.738 -1.5127 -1.7038  2.1096
 7227SOL    MW428676   5.535   4.224   4.763  0.2374 -0.4956 -0.5504
 7228SOL     OW28677   3.169   2.090   6.156  0.7740  0.7210  0.4124
 7228SOL    HW228678   3.214   2.008   6.172  0.2314  0.1510 -0.8353
 7228SOL    HW328679   3.227   2.157   6.194  0.4424 -0.3083  2.9067
 7228SOL    MW428680   3.183   2.088   6.163  0.3255 -0.1746  0.8383
 7229SOL     OW28681   4.297   5.206   4.134  0.1025  0.7643  0.1510
 7229SOL    HW228682   4.317   5.295   4.162  0.5874  0.9711 -0.8156
 7229SOL    HW328683   4.283   5.212   4.039  0.2622 -0.1963  0.0485
 7229SOL    MW428684   4.298   5.218   4.125 -0.3144 -0.2374  0.2549
 7230SOL     OW28685   6.139   0.883   5.611  0.3985  0.0936  0.2153
 7230SOL    HW228686   6.161   0.905   5.702 -0.7763  0.0119  0.5414
 7230SOL    HW328687   6.072   0.815   5.619  0.1286  0.2415 -0.7045
 7230SOL    MW428688   6.133   0.877   5.624  0.6144  0.1726 -0.5915
 7231SOL     OW28689   2.345   1.125   0.178 -0.1782  0.1407  0.3196
 7231SOL    HW228690   2.367   1.214   0.206  0.2679 -0.0060  0.4499
 7231SOL    HW328691   2.253   1.130   0.154 -0.4183  0.4135  1.2498
 7231SOL    MW428692   2.336   1.138   0.179 -0.2140 -0.6274 -0.4831
 7232SOL     OW28693   2.703   1.974   2.017  0.7425  0.3255  0.1547
 7232SOL    HW228694   2.616   1.992   1.980  0.9114  1.8691  0.4561
 7232SOL    HW328695   2.685   1.955   2.110  0.6093 -0.7221 -0.0708
 7232SOL    MW428696   2.689   1.974   2.025 -0.2217  0.4831 -0.1597
 7233SOL     OW28697   0.679   5.007   3.667  0.1596  0.1541  0.8176
 7233SOL    HW228698   0.712   4.945   3.601  1.7516  1.2275  0.5567
 7233SOL    HW328699   0.754   5.024   3.723  0.0413  2.5586  0.3287
 7233SOL    MW428700   0.693   5.001   3.666  0.4569  0.6989 -0.7545
 7234SOL     OW28701   5.720   1.407   5.507 -0.6780  0.5030 -0.3803
 7234SOL    HW228702   5.667   1.410   5.428 -2.4995  0.6277  0.7840
 7234SOL    HW328703   5.781   1.335   5.492 -0.7292  0.7721 -2.0298
 7234SOL    MW428704   5.721   1.398   5.495 -0.2096 -0.0163  0.3496
 7235SOL     OW28705   2.738   2.223   0.125  0.1234  0.7186  0.3125
 7235SOL    HW228706   2.691   2.141   0.138  1.2395  0.1666  0.9681
 7235SOL    HW328707   2.797   2.207   0.052 -0.6972  1.4229 -0.5295
 7235SOL    MW428708   2.739   2.210   0.117  0.9854 -0.0020  0.0129
 7236SOL     OW28709   4.365   5.053   4.974 -0.3732 -0.0242 -0.3323
 7236SOL    HW228710   4.293   5.099   4.930 -0.9330  2.1007  2.4290
 7236SOL    HW328711   4.338   5.051   5.066  2.9969  0.7969  0.8289
 7236SOL    MW428712   4.352   5.059   4.980  0.6133  0.0075  0.0993
 7237SOL     OW28713   6.187   0.611   4.132  0.1748  0.3056  0.2025
 7237SOL    HW228714   6.168   0.695   4.089  1.2400 -0.2104 -1.3985
 7237SOL    HW328715   6.184   0.547   4.061 -0.8166 -1.0725  1.4301
 7237SOL    MW428716   6.184   0.614   4.117 -0.0076  0.1312  0.4019
 7238SOL     OW28717   1.482   3.379   2.911  0.7013 -0.3868  1.0534
 7238SOL    HW228718   1.556   3.425   2.950 -0.1162  0.3523  1.7770
 7238SOL    HW328719   1.404   3.425   2.944 -0.0448  0.1666 -1.3213
 7238SOL    MW428720   1.481   3.391   2.921  0.2432 -0.2690  0.5377
 7239SOL     OW28721   1.987   1.259   5.901 -0.2977  0.1796 -0.2379
 7239SOL    HW228722   1.962   1.351   5.904 -0.1624  0.1947  1.0531
 7239SOL    HW328723   2.049   1.253   5.829  0.3542  1.2761  0.2156
 7239SOL    MW428724   1.992   1.270   5.892 -0.0618  0.3382 -0.5341
 7240SOL     OW28725   6.361   6.165   1.553  0.0878 -0.0180  0.6358
 7240SOL    HW228726   6.387   6.255   1.532  0.2248 -0.3779 -0.8868
 7240SOL    HW328727   6.369   6.158   1.648  0.6970  1.3837  0.6998
 7240SOL    MW428728   6.365   6.176   1.563  0.1818 -0.5754 -0.1013
 7241SOL     OW28729   0.716   1.271   2.367  0.1318  0.0936 -0.2159
 7241SOL    HW228730   0.700   1.205   2.433 -0.6813  1.5826  1.1500
 7241SOL    HW328731   0.812   1.278   2.362  0.2088 -0.7537  0.0329
 7241SOL    MW428732   0.727   1.263   2.375  0.3117  0.0170 -0.3634
 7242SOL     OW28733   0.921   2.573   2.391  0.8234  0.7247  0.0842
 7242SOL    HW228734   0.916   2.668   2.380  1.1480  0.7620  0.2372
 7242SOL    HW328735   0.913   2.559   2.486 -1.3548  0.4473 -0.0900
 7242SOL    MW428736   0.919   2.584   2.402 -0.4597 -0.4067  0.2228
 7243SOL     OW28737   5.050   6.421   5.249  0.4104 -0.1255  0.1056
 7243SOL    HW228738   4.995   6.393   5.176  1.2543  1.3437 -1.1364
 7243SOL    HW328739   4.992   6.415   5.326 -1.6950  1.8736 -1.2100
 7243SOL    MW428740   5.035   6.416   5.250  0.3063 -0.2692  0.1482
 7244SOL     OW28741   6.079   0.105   6.225  0.2143  0.0318 -0.0417
 7244SOL    HW228742   6.142   0.128   6.157  0.4350 -1.6035 -0.4253
 7244SOL    HW328743   6.072   0.010   6.220 -0.8765  0.0186  1.2545
 7244SOL    MW428744   6.086   0.096   6.215 -0.5166 -0.1970 -0.1726
 7245SOL     OW28745   4.591   1.018   5.373 -0.3800 -0.7735 -0.1588
 7245SOL    HW228746   4.636   1.073   5.309 -1.9224  1.5192  0.5927
 7245SOL    HW328747   4.662   0.977   5.423  0.8436 -0.4073 -1.5158
 7245SOL    MW428748   4.606   1.020   5.372 -0.5812 -0.3402 -0.3519
 7246SOL     OW28749   4.719   2.671   4.151 -0.1685 -0.3391 -0.5645
 7246SOL    HW228750   4.759   2.752   4.181  0.8988 -0.4441 -1.6559
 7246SOL    HW328751   4.722   2.676   4.055 -2.3232 -0.5828 -0.7003
 7246SOL    MW428752   4.725   2.682   4.142 -0.4037 -0.0878 -0.0416
 7247SOL     OW28753   2.420   2.390   2.494 -0.1047 -0.0117  0.3594
 7247SOL    HW228754   2.497   2.404   2.439  0.2761 -0.3063  0.8111
 7247SOL    HW328755   2.347   2.428   2.443  0.1893 -0.5175 -0.4598
 7247SOL    MW428756   2.420   2.397   2.480  0.2769  0.0512 -0.0583
 7248SOL     OW28757   6.121   0.765   1.166 -0.1796 -0.2105  0.2190
 7248SOL    HW228758   6.094   0.687   1.118 -0.4179 -0.4448  0.7254
 7248SOL    HW328759   6.216   0.769   1.155 -0.0403 -1.1087  0.9763
 7248SOL    MW428760   6.130   0.756   1.159 -0.0639 -0.0619 -0.4495
 7249SOL     OW28761   0.291   4.420   0.035  0.0571  0.2358 -0.1237
 7249SOL    HW228762   0.296   4.464  -0.050  0.4460  1.3109  0.4424
 7249SOL    HW328763   0.215   4.459   0.078 -0.1352 -0.3045  0.0379
 7249SOL    MW428764   0.282   4.431   0.029 -0.0251 -0.1266  0.0250
 7250SOL     OW28765   0.506   1.836   5.655 -0.5451  0.0551  0.5466
 7250SOL    HW228766   0.525   1.901   5.722  1.1936  4.1797 -3.3897
 7250SOL    HW328767   0.585   1.782   5.651  0.6328  1.7501 -0.0604
 7250SOL    MW428768   0.519   1.837   5.663  0.4712 -0.4511  0.2731
 7251SOL     OW28769   2.417   2.205   1.711  0.0571 -0.0305  0.1971
 7251SOL    HW228770   2.465   2.122   1.715  0.4814  0.2468  1.7963
 7251SOL    HW328771   2.484   2.270   1.691  0.0022  0.1099  0.4634
 7251SOL    MW428772   2.432   2.202   1.709 -0.5991  0.8017 -0.2470
 7252SOL     OW28773   0.672   4.261   1.276  0.4376 -0.0787  0.6786
 7252SOL    HW228774   0.642   4.349   1.298  1.2004  0.4370 -0.2874
 7252SOL    HW328775   0.676   4.260   1.181  1.4709 -0.8014  0.7215
 7252SOL    MW428776   0.668   4.272   1.266  0.0843  0.6297 -0.1714
 7253SOL     OW28777   5.527   5.681   0.569  0.4943  0.2721 -0.0811
 7253SOL    HW228778   5.436   5.707   0.585  0.5845  0.9420 -0.5823
 7253SOL    HW328779   5.557   5.741   0.500  2.0386  1.6550  1.6880
 7253SOL    MW428780   5.519   5.692   0.562  0.1334  0.3811  0.1889
 7254SOL     OW28781   5.075   0.321   1.746 -0.0190 -0.6090  0.4178
 7254SOL    HW228782   5.170   0.317   1.737  0.4272 -3.0921  3.9473
 7254SOL    HW328783   5.057   0.413   1.768  1.3503  0.1165 -1.2463
 7254SOL    MW428784   5.085   0.333   1.748  0.8294 -0.3211  0.4276
 7255SOL     OW28785   1.775   4.420   2.899 -0.2494  0.7412 -0.5080
 7255SOL    HW228786   1.817   4.440   2.983 -0.7720 -0.8046  0.1784
 7255SOL    HW328787   1.717   4.494   2.882 -1.3022  0.4011  1.3177
 7255SOL    MW428788   1.773   4.432   2.908 -0.3369  0.5306 -0.0152
 7256SOL     OW28789   5.749   4.728   3.797 -0.3224 -0.0246  0.2628
 7256SOL    HW228790   5.656   4.708   3.784 -0.3846  1.0275 -1.1872
 7256SOL    HW328791   5.756   4.822   3.778  1.1992 -0.2905 -0.6377
 7256SOL    MW428792   5.737   4.738   3.793  0.0014  0.1282 -0.6490
 7257SOL     OW28793   0.905   2.746   6.275  0.4603  0.3106 -0.0121
 7257SOL    HW228794   0.996   2.769   6.256  1.2710 -1.3014  1.5870
 7257SOL    HW328795   0.890   2.665   6.226  0.2981 -0.0723  0.6508
 7257SOL    MW428796   0.915   2.738   6.266 -0.0034  0.5920 -0.1488
 7258SOL     OW28797   3.960   2.060   2.345 -0.4791 -0.5776 -0.0765
 7258SOL    HW228798   3.924   2.133   2.295 -2.0207 -0.1711  1.5415
 7258SOL    HW328799   3.885   2.021   2.389  0.6321 -1.7381  0.8880
 7258SOL    MW428800   3.945   2.064   2.344  0.3959 -0.7280  0.0897
 7259SOL     OW28801   4.767   5.082   1.056  0.1350 -0.3216  0.4783
 7259SOL    HW228802   4.789   5.146   1.124 -0.9590  0.7968 -0.1736
 7259SOL    HW328803   4.831   5.012   1.067  2.0626  1.3588  0.5860
 7259SOL    MW428804   4.779   5.081   1.066  0.0413  0.9442  0.1548
 7260SOL     OW28805   3.583   5.009   1.354  0.4215 -0.0016  0.3163
 7260SOL    HW228806   3.606   4.975   1.268 -1.7192 -0.4468 -0.1182
 7260SOL    HW328807   3.530   4.941   1.394 -0.2173  0.9862  1.2182
 7260SOL    MW428808   3.579   4.996   1.348  0.4034  0.5524 -0.2150
 7261SOL     OW28809   0.239   4.701   3.653  1.0632 -0.2040 -0.1702
 7261SOL    HW228810   0.245   4.628   3.715  0.3427 -1.7665 -1.8636
 7261SOL    HW328811   0.247   4.779   3.708 -1.0435 -1.4523  2.1533
 7261SOL    MW428812   0.241   4.702   3.669 -0.3929 -0.1201 -0.3154
 7262SOL     OW28813   1.169   3.224   4.628 -0.6540  0.4195 -0.0024
 7262SOL    HW228814   1.152   3.163   4.557 -0.0514 -0.3591  0.5056
 7262SOL    HW328815   1.132   3.307   4.598  0.7367  0.4429 -1.8051
 7262SOL    MW428816   1.162   3.227   4.615  0.6111 -0.5513  0.2848
 7263SOL     OW28817   4.445   0.012   5.548 -0.8252 -0.2480 -0.0439
 7263SOL    HW228818   4.490   0.097   5.551 -2.4592  0.6544 -0.1068
 7263SOL    HW328819   4.514  -0.051   5.527  0.6593  0.8877  1.2167
 7263SOL    MW428820   4.460   0.015   5.546 -0.0299  0.2429 -0.4102
 7264SOL     OW28821   1.985   6.351   2.867  0.0768 -0.6700  0.0639
 7264SOL    HW228822   2.041   6.299   2.809  0.3777 -0.8976  0.5513
 7264SOL    HW328823   1.903   6.303   2.870 -0.0491 -0.4869 -0.4275
 7264SOL    MW428824   1.982   6.338   2.860  0.0680 -0.5121  0.2338
 7265SOL     OW28825   4.967   3.083   0.068 -0.2996 -0.1509 -0.1144
 7265SOL    HW228826   5.005   3.037  -0.007 -0.1387 -0.5923  0.2276
 7265SOL    HW328827   4.961   3.015   0.136  3.5259  1.0814  1.7383
 7265SOL    MW428828   4.972   3.068   0.067 -1.1553  0.2141  0.9348
 7266SOL     OW28829   3.783   0.991   5.157 -0.1321 -0.3446  0.5624
 7266SOL    HW228830   3.801   0.993   5.063 -1.0353 -0.5027  0.3803
 7266SOL    HW328831   3.858   0.945   5.195  0.1533 -0.4346 -0.1024
 7266SOL    MW428832   3.795   0.985   5.150  0.2107 -0.2741 -0.5148
 7267SOL     OW28833   5.722   5.542   5.938 -0.0794  0.1579  0.6584
 7267SOL    HW228834   5.633   5.542   5.972  0.0098 -2.9975  1.1927
 7267SOL    HW328835   5.728   5.463   5.884  1.9400  1.1642 -0.7472
 7267SOL    MW428836   5.711   5.532   5.935  0.5490  0.0853 -0.0600
 7268SOL     OW28837   5.909   3.411   1.994  0.2226  0.5812 -0.1013
 7268SOL    HW228838   5.871   3.410   1.906 -1.6810 -0.6744  0.6566
 7268SOL    HW328839   5.843   3.454   2.048  0.6224 -0.1202  0.9831
 7268SOL    MW428840   5.895   3.417   1.990 -0.4000 -0.3822  0.4035
 7269SOL     OW28841   1.228   0.605   4.024  0.2635 -0.1155 -0.6639
 7269SOL    HW228842   1.265   0.692   4.038 -1.4435  0.4024  0.9533
 7269SOL    HW328843   1.143   0.607   4.068  0.9959 -3.2140  1.2095
 7269SOL    MW428844   1.222   0.617   4.032 -0.2558  0.3261 -0.2729
 7270SOL     OW28845   2.171   5.240   3.135  0.8274 -0.2352  0.2269
 7270SOL    HW228846   2.128   5.309   3.185  1.9779 -0.4238  1.5511
 7270SOL    HW328847   2.196   5.175   3.201 -0.6459 -2.2020 -1.0285
 7270SOL    MW428848   2.169   5.240   3.150 -0.5438  0.4877  0.5581
 7271SOL     OW28849   6.033   2.029   4.789  0.1392 -0.1940 -1.0846
 7271SOL    HW228850   6.127   2.046   4.799 -0.1126  1.0400 -0.6680
 7271SOL    HW328851   5.996   2.045   4.876 -0.7556  1.5163 -1.7267
 7271SOL    MW428852   6.041   2.033   4.802  0.3080 -0.2456 -0.5255
 7272SOL     OW28853   3.797   6.309   0.399 -0.0480  0.1459  0.2194
 7272SOL    HW228854   3.885   6.273   0.412 -0.5402 -0.7880  1.1473
 7272SOL    HW328855   3.785   6.368   0.474 -1.0304 -1.4481  1.3788
 7272SOL    MW428856   3.807   6.312   0.411 -0.4034  0.0157 -0.3531
 7273SOL     OW28857   4.043   1.569   0.535  0.0457 -0.2152 -0.0883
 7273SOL    HW228858   3.986   1.607   0.602  0.5468 -1.9785  1.4196
 7273SOL    HW328859   4.026   1.475   0.540  1.0517 -0.5084 -1.5660
 7273SOL    MW428860   4.033   1.562   0.544 -0.0666 -0.1713 -0.3633
 7274SOL     OW28861   2.549   3.611   3.889 -0.5668 -0.3927 -0.4688
 7274SOL    HW228862   2.631   3.604   3.938 -1.5874 -2.0671  1.1904
 7274SOL    HW328863   2.483   3.576   3.950 -2.0340 -1.9620 -2.8117
 7274SOL    MW428864   2.551   3.605   3.904  0.1189 -0.2962  0.2041
 7275SOL     OW28865   2.461   2.379   5.963 -0.5587  0.4191  0.5700
 7275SOL    HW228866   2.460   2.441   6.036  0.2559 -0.5148  1.4213
 7275SOL    HW328867   2.552   2.376   5.935 -0.3579 -1.1672  1.2768
 7275SOL    MW428868   2.473   2.386   5.969  0.2268 -0.2168  0.3604
 7276SOL     OW28869   4.965   2.158   5.173 -0.7055  0.0573 -0.3447
 7276SOL    HW228870   4.957   2.203   5.257 -3.1323  0.0641 -0.5087
 7276SOL    HW328871   4.952   2.227   5.108 -2.3274 -0.4631 -0.6266
 7276SOL    MW428872   4.962   2.173   5.175 -0.2089 -0.6412 -0.0126
 7277SOL     OW28873   1.634   2.763   1.054 -0.0263  0.5120  0.2520
 7277SOL    HW228874   1.690   2.687   1.041 -0.5015  0.2970 -0.5804
 7277SOL    HW328875   1.551   2.727   1.086 -0.2747  0.6665 -0.2064
 7277SOL    MW428876   1.630   2.749   1.057  0.1362 -0.2803  0.3559
 7278SOL     OW28877   2.964   0.582   5.772 -0.1988 -0.0565 -0.0288
 7278SOL    HW228878   2.990   0.504   5.821 -1.3279  0.1759  0.9764
 7278SOL    HW328879   3.036   0.596   5.710  0.4425 -1.3658  0.3793
 7278SOL    MW428880   2.977   0.574   5.770  0.3445 -0.1423  0.2965
 7279SOL     OW28881   3.029   1.687   3.889  0.0547  0.1022 -0.0043
 7279SOL    HW228882   3.054   1.728   3.972 -0.0085  0.8000 -0.3232
 7279SOL    HW328883   2.938   1.713   3.876  0.2987  0.6365 -0.6727
 7279SOL    MW428884   3.021   1.696   3.898 -0.0449 -0.1204 -0.6716
 7280SOL     OW28885   5.261   2.487   3.187 -0.7148  0.2248 -0.3629
 7280SOL    HW228886   5.262   2.393   3.175 -3.0118  0.1264 -0.2070
 7280SOL    HW328887   5.239   2.522   3.100 -1.7931  0.4563 -0.0182
 7280SOL    MW428888   5.258   2.480   3.174 -0.0536 -0.6602 -0.0019
 7281SOL     OW28889   0.846   3.489   2.357  0.6047  0.0129  0.4627
 7281SOL    HW228890   0.773   3.474   2.297  1.4480 -0.0571 -0.5752
 7281SOL    HW328891   0.810   3.547   2.424 -0.2477  0.4309 -0.3351
 7281SOL    MW428892   0.832   3.495   2.358 -0.1193  0.0193  0.0977
 7282SOL     OW28893   6.347   5.953   1.202 -0.3011 -0.0550 -0.4179
 7282SOL    HW228894   6.332   6.021   1.137 -0.7458  0.8213  0.5743
 7282SOL    HW328895   6.262   5.910   1.212  0.2655 -1.6913 -2.0053
 7282SOL    MW428896   6.334   5.956   1.195  0.6700  0.1666  0.0805
 7283SOL     OW28897   6.123   3.294   0.568  0.4088  0.6633  0.1216
 7283SOL    HW228898   6.117   3.382   0.604 -2.7270  0.1199  1.2749
 7283SOL    HW328899   6.074   3.240   0.630  1.2645 -1.7002 -1.1513
 7283SOL    MW428900   6.115   3.298   0.581  0.5349  0.6416 -0.1939
 7284SOL     OW28901   6.202   2.608   4.567 -0.0425 -0.1078  0.0375
 7284SOL    HW228902   6.144   2.558   4.510 -1.6277  0.7538  0.8465
 7284SOL    HW328903   6.202   2.559   4.650  1.1377 -0.5898 -0.2184
 7284SOL    MW428904   6.194   2.595   4.571  0.6554 -0.0249  0.3209
 7285SOL     OW28905   4.487   1.494   3.533  0.6608 -0.0582  0.3834
 7285SOL    HW228906   4.562   1.553   3.530  0.8656 -0.3400 -0.2100
 7285SOL    HW328907   4.469   1.481   3.626  0.5370  1.0325  0.5235
 7285SOL    MW428908   4.494   1.500   3.545  0.2085  0.2296 -0.4715
 7286SOL     OW28909   2.222   1.562   5.256  0.4945  0.0169  0.2797
 7286SOL    HW228910   2.152   1.529   5.200 -0.1840 -0.8739  1.5962
 7286SOL    HW328911   2.212   1.657   5.254 -0.8623 -0.1056  0.5511
 7286SOL    MW428912   2.211   1.570   5.248 -0.0770 -0.7549  0.2783
 7287SOL     OW28913   6.029   5.572   1.298 -0.3220 -0.5901 -0.1685
 7287SOL    HW228914   5.941   5.606   1.285  1.1303  2.7334 -2.6306
 7287SOL    HW328915   6.043   5.511   1.225 -0.6695 -1.4605  0.4723
 7287SOL    MW428916   6.019   5.569   1.287  0.2794 -0.0249 -0.2039
 7288SOL     OW28917   2.998   1.351   2.275 -0.4165  0.6130 -0.7187
 7288SOL    HW228918   3.080   1.401   2.272 -0.8185  1.3667  0.3102
 7288SOL    HW328919   2.931   1.416   2.295 -1.1271 -0.1559 -0.5515
 7288SOL    MW428920   3.000   1.367   2.277  0.4120 -0.0357 -0.1869
 7289SOL     OW28921   4.130   5.542   6.361 -0.2162 -0.2576 -0.0568
 7289SOL    HW228922   4.144   5.616   6.420 -1.1415 -0.2177  0.1249
 7289SOL    HW328923   4.056   5.569   6.306  1.5364  0.3161 -2.2455
 7289SOL    MW428924   4.122   5.555   6.362 -0.6412 -0.1617  0.0529
 7290SOL     OW28925   2.181   6.185   5.642  0.5353 -0.4434 -0.2679
 7290SOL    HW228926   2.203   6.257   5.583 -0.5752  0.2835  0.1885
 7290SOL    HW328927   2.112   6.137   5.596 -1.0598  0.7131  0.8355
 7290SOL    MW428928   2.175   6.188   5.628 -0.1773  0.3000 -0.4648
 7291SOL     OW28929   1.309   6.276   4.165 -0.0715  0.2611 -0.5927
 7291SOL    HW228930   1.315   6.361   4.208 -0.0919  0.8283 -1.6928
 7291SOL    HW328931   1.356   6.217   4.224  0.7929  1.2153 -0.2881
 7291SOL    MW428932   1.316   6.279   4.179 -0.1706 -0.3639 -0.0891
 7292SOL     OW28933   0.583   5.201   1.197 -0.6526 -0.5609 -0.2796
 7292SOL    HW228934   0.665   5.205   1.246  0.8072  0.7488 -2.6533
 7292SOL    HW328935   0.588   5.119   1.148  0.0819  0.3268 -1.7349
 7292SOL    MW428936   0.594   5.190   1.197  0.5438 -0.0453  0.0290
 7293SOL     OW28937   6.378   3.042   1.236  0.3255 -0.2391  0.3793
 7293SOL    HW228938   6.376   2.948   1.254  0.4244 -0.2010  0.5954
 7293SOL    HW328939   6.299   3.058   1.185  1.2831 -0.7695 -1.3534
 7293SOL    MW428940   6.367   3.032   1.232  0.0568 -0.0965 -0.4117
 7294SOL     OW28941   1.508   1.524   6.279 -0.0589  0.3051  0.1731
 7294SOL    HW228942   1.543   1.469   6.209 -0.6611  0.1716 -0.0305
 7294SOL    HW328943   1.432   1.567   6.240 -2.2147 -1.9650  1.5180
 7294SOL    MW428944   1.502   1.522   6.265 -0.1373 -0.8820 -0.4250
 7295SOL     OW28945   5.258   0.199   0.615  0.1082 -0.6583 -0.1011
 7295SOL    HW228946   5.164   0.183   0.616  0.1228 -0.8138 -0.8212
 7295SOL    HW328947   5.267   0.293   0.604  0.0378 -0.4313  1.5707
 7295SOL    MW428948   5.247   0.209   0.614  0.4209 -0.0948  0.4091
 7296SOL     OW28949   0.113   4.083   1.556 -0.3668 -0.1458 -0.3825
 7296SOL    HW228950   0.039   4.029   1.529 -1.3702  1.5118 -1.0961
 7296SOL    HW328951   0.109   4.083   1.652 -1.1252 -0.3213 -0.4053
 7296SOL    MW428952   0.103   4.076   1.565 -0.1226 -0.8756 -0.3777
 7297SOL     OW28953   4.293   5.566   3.865  0.1850  0.0393  0.0612
 7297SOL    HW228954   4.343   5.618   3.929 -0.9009 -0.7892  1.6726
 7297SOL    HW328955   4.236   5.629   3.822 -1.1352  0.2823  2.0010
 7297SOL    MW428956   4.292   5.581   3.868 -0.1383  0.8466 -0.0156
 7298SOL     OW28957   2.051   2.459   0.783  0.4537  0.3816 -0.2923
 7298SOL    HW228958   2.121   2.397   0.801  0.6264  1.2915  2.6225
 7298SOL    HW328959   2.041   2.457   0.688  2.8869 -1.4142 -0.5923
 7298SOL    MW428960   2.059   2.451   0.773  0.2460  0.3697  0.1230
 7299SOL     OW28961   2.732   5.256   0.830 -0.2540 -0.5838 -0.8810
 7299SOL    HW228962   2.815   5.269   0.877  0.4198 -0.4622 -2.0760
 7299SOL    HW328963   2.665   5.267   0.898  0.6603  0.2055 -0.0634
 7299SOL    MW428964   2.734   5.259   0.845  0.8044 -0.4292 -0.4187
 7300SOL     OW28965   0.417   3.281   4.678  0.1251 -0.0520  0.2251
 7300SOL    HW228966   0.393   3.285   4.586 -1.0663 -0.5016  0.4943
 7300SOL    HW328967   0.350   3.333   4.723  0.9691  0.5726  0.7962
 7300SOL    MW428968   0.405   3.288   4.672 -0.5440 -0.3204 -0.9002
 7301SOL     OW28969   0.775   1.856   0.520 -0.4083  0.0527 -0.2004
 7301SOL    HW228970   0.839   1.913   0.478 -0.8124  0.5713 -0.1175
 7301SOL    HW328971   0.777   1.882   0.612  0.5959 -1.1896  0.1527
 7301SOL    MW428972   0.784   1.867   0.527  0.5635 -0.6492  0.1299
 7302SOL     OW28973   0.907   2.769   0.114  0.0936 -0.0464  0.3530
 7302SOL    HW228974   0.948   2.855   0.125  1.6450 -0.6980 -0.2294
 7302SOL    HW328975   0.894   2.760   0.020 -1.4902  0.1637  0.5213
 7302SOL    MW428976   0.910   2.779   0.103 -0.0057 -0.1611 -0.4027
 7303SOL     OW28977   2.661   1.284   2.310 -0.5881 -0.0801  0.0862
 7303SOL    HW228978   2.738   1.289   2.367 -0.3715  0.4767 -0.2524
 7303SOL    HW328979   2.684   1.336   2.233 -1.1992 -0.1363 -0.1407
 7303SOL    MW428980   2.674   1.291   2.307 -0.0406  0.2935  0.0101
 7304SOL     OW28981   4.793   0.216   1.767  0.3954  0.3908  0.0159
 7304SOL    HW228982   4.749   0.203   1.851 -1.0922  1.8082 -0.5042
 7304SOL    HW328983   4.861   0.281   1.785  1.7656 -1.1347  0.6184
 7304SOL    MW428984   4.796   0.222   1.780 -0.4391  0.1688 -0.2249
 7305SOL     OW28985   5.819   5.117   4.592  0.0364 -0.2314 -0.3241
 7305SOL    HW228986   5.838   5.200   4.634  2.4075 -1.5464  1.4374
 7305SOL    HW328987   5.834   5.133   4.499 -0.8178  1.5895 -0.1908
 7305SOL    MW428988   5.824   5.130   4.585  0.1288  0.0350  0.0876
 7306SOL     OW28989   6.277   3.680   3.491 -0.6927 -0.4661  0.0361
 7306SOL    HW228990   6.258   3.668   3.584  0.0082  0.0820  0.2563
 7306SOL    HW328991   6.225   3.757   3.467 -0.0341  0.0550  0.2479
 7306SOL    MW428992   6.267   3.689   3.500  0.2165 -0.1301  0.2979
 7307SOL     OW28993   5.188   1.075   0.368  0.3142  0.0642 -0.3561
 7307SOL    HW228994   5.206   1.104   0.279 -0.0355  1.0380 -0.1227
 7307SOL    HW328995   5.240   1.133   0.423  2.1078 -1.7888  0.0328
 7307SOL    MW428996   5.197   1.086   0.364  0.3184 -0.0581  0.1614
 7308SOL     OW28997   3.715   5.177   3.391 -0.0315  0.1108  0.3298
 7308SOL    HW228998   3.776   5.222   3.333  0.0865 -0.3275  0.1086
 7308SOL    HW328999   3.721   5.224   3.474 -0.7156  1.1754 -0.2003
 7308SOL    MW429000   3.724   5.189   3.394 -0.0309  0.0461  0.5611
 7309SOL     OW29001   3.763   5.194   4.870  0.0465  1.0637  0.2096
 7309SOL    HW229002   3.743   5.149   4.952  1.9126 -0.3868 -0.0407
 7309SOL    HW329003   3.788   5.282   4.896  1.1290  0.4708  1.3058
 7309SOL    MW429004   3.764   5.199   4.884 -0.2334  0.2760 -0.1486
 7310SOL     OW29005   3.584   5.635   2.417 -0.2161 -0.2780 -0.3927
 7310SOL    HW229006   3.522   5.662   2.485 -0.2081  1.1909 -0.9257
 7310SOL    HW329007   3.553   5.678   2.338  0.3622 -1.1362 -1.1142
 7310SOL    MW429008   3.572   5.644   2.415  0.2170 -0.5169  0.4101
 7311SOL     OW29009   1.882   1.989   5.296  0.5282  0.0648  0.2862
 7311SOL    HW229010   1.829   2.038   5.359  0.8063  0.2230  0.3957
 7311SOL    HW329011   1.853   2.021   5.210 -0.8576 -1.1496  0.2608
 7311SOL    MW429012   1.871   2.000   5.293 -0.3348  0.3311 -0.5128
 7312SOL     OW29013   2.281   3.727   0.489 -0.4375  0.0444 -0.5856
 7312SOL    HW229014   2.244   3.673   0.419 -0.2952 -2.1206  0.9080
 7312SOL    HW329015   2.231   3.702   0.567 -0.3736  2.1383  0.1834
 7312SOL    MW429016   2.269   3.716   0.490 -0.0098 -0.3956  0.0935
 7313SOL     OW29017   4.413   4.472   3.274  0.1161 -0.4472 -0.2663
 7313SOL    HW229018   4.458   4.454   3.356  1.4846 -0.3717 -0.9570
 7313SOL    HW329019   4.446   4.405   3.214  0.6658  0.6798 -1.2686
 7313SOL    MW429020   4.423   4.460   3.277 -0.3412 -0.6263 -0.2464
 7314SOL     OW29021   1.124   5.442   4.266 -0.1245 -0.6081  0.2123
 7314SOL    HW229022   1.135   5.439   4.171 -1.1104  1.4390 -0.0153
 7314SOL    HW329023   1.035   5.408   4.280 -0.7065  0.7952  0.1697
 7314SOL    MW429024   1.113   5.437   4.255  0.0746 -0.4429  0.0306
 7315SOL     OW29025   6.014   0.055   3.579  0.3702 -0.2009 -0.1783
 7315SOL    HW229026   5.955   0.091   3.512 -0.6567  0.9297  1.2479
 7315SOL    HW329027   6.052  -0.023   3.538  0.2883  0.7875 -2.2869
 7315SOL    MW429028   6.011   0.049   3.565  0.0666 -0.5924 -0.0442
 7316SOL     OW29029   4.975   5.763   0.738  0.1764 -0.2511 -0.1248
 7316SOL    HW229030   4.940   5.680   0.770 -0.9245  0.5260  0.7815
 7316SOL    HW329031   5.050   5.781   0.795  0.0681 -0.3524  0.0507
 7316SOL    MW429032   4.980   5.755   0.750 -0.6935 -0.0585 -0.9465
 7317SOL     OW29033   4.361   3.937   0.570 -0.3263  0.0495  0.3953
 7317SOL    HW229034   4.425   4.003   0.545 -0.9132  0.7609  0.7044
 7317SOL    HW329035   4.407   3.854   0.562  0.2671  0.4557 -0.5199
 7317SOL    MW429036   4.375   3.935   0.566 -0.3065  0.2628  0.7744
 7318SOL     OW29037   5.487   4.195   1.035 -0.0536  0.3213 -0.1660
 7318SOL    HW229038   5.419   4.136   1.065  0.4779  0.6128  1.7122
 7318SOL    HW329039   5.516   4.158   0.951  0.2159 -2.0498  0.9063
 7318SOL    MW429040   5.482   4.182   1.028  0.3145  0.3088  0.1531
 7319SOL     OW29041   5.445   5.060   5.445  0.4269  0.0317  0.2862
 7319SOL    HW229042   5.431   5.111   5.365  0.1052  0.3771  0.5620
 7319SOL    HW329043   5.474   5.124   5.510  0.6857 -0.2462  0.4506
 7319SOL    MW429044   5.447   5.075   5.443  0.1464 -0.3800  0.3907
 7320SOL     OW29045   5.103   3.171   3.780  0.6147  0.4043 -0.7416
 7320SOL    HW229046   5.124   3.079   3.796 -0.2891  0.1934 -0.7386
 7320SOL    HW329047   5.008   3.176   3.788  0.4353  0.9441 -2.7727
 7320SOL    MW429048   5.093   3.160   3.783  0.3428 -0.4668 -0.1871
 7321SOL     OW29049   4.904   4.778   1.319 -0.2207  0.0074  0.3079
 7321SOL    HW229050   4.845   4.703   1.330 -1.5935  1.2204  1.6096
 7321SOL    HW329051   4.888   4.833   1.396  0.8408  1.5851 -0.5490
 7321SOL    MW429052   4.894   4.775   1.331  0.1870 -0.5831  0.3168
 7322SOL     OW29053   3.438   1.229   6.201 -0.6172 -0.2296 -0.3914
 7322SOL    HW229054   3.446   1.230   6.105 -2.4599  0.6250 -0.5883
 7322SOL    HW329055   3.371   1.163   6.219 -0.4969 -0.1713  0.2803
 7322SOL    MW429056   3.430   1.221   6.191 -0.0298 -0.0856  0.1182
 7323SOL     OW29057   2.174   0.738   5.197  0.3678 -0.5012 -0.4752
 7323SOL    HW229058   2.225   0.727   5.117 -1.7787 -0.6742 -1.8816
 7323SOL    HW329059   2.085   0.753   5.167 -0.1442  1.6861  1.8378
 7323SOL    MW429060   2.169   0.738   5.182 -0.3589 -0.1442  0.6117
 7324SOL     OW29061   5.988   0.912   0.508 -0.2818 -0.0889 -0.1728
 7324SOL    HW229062   6.059   0.897   0.570  0.4251 -1.0562 -1.1698
 7324SOL    HW329063   5.926   0.969   0.554  2.3434  2.9946 -0.1242
 7324SOL    MW429064   5.989   0.918   0.522 -0.0338  1.0658 -0.3198
 7325SOL     OW29065   1.463   4.821   5.084 -0.5391  0.4380 -0.0971
 7325SOL    HW229066   1.455   4.889   5.151 -0.9830  0.6780 -0.3929
 7325SOL    HW329067   1.481   4.868   5.003 -2.1111  0.3046 -0.5461
 7325SOL    MW429068   1.464   4.836   5.082  0.1058  0.3406 -0.1257
 7326SOL     OW29069   4.469   4.710   2.285  0.0825 -0.9631  0.0386
 7326SOL    HW229070   4.489   4.713   2.191 -3.3908  0.8495 -0.7826
 7326SOL    HW329071   4.480   4.800   2.315 -0.4825 -1.1990  0.9990
 7326SOL    MW429072   4.473   4.722   2.276  0.0870  0.6518 -0.2380
 7327SOL     OW29073   4.273   6.275   3.930 -0.3107 -0.1308 -0.3562
 7327SOL    HW229074   4.204   6.239   3.985 -0.9011  0.1835 -0.8863
 7327SOL    HW329075   4.314   6.198   3.889 -0.9977 -0.2556 -0.8128
 7327SOL    MW429076   4.269   6.260   3.932 -0.7394  0.0135  0.3411
 7328SOL     OW29077   4.827   3.703   4.640  0.2688  0.0375  1.2016
 7328SOL    HW229078   4.766   3.770   4.671  1.3613  1.1365  1.0803
 7328SOL    HW329079   4.804   3.690   4.548 -0.3217 -0.1947  1.3762
 7328SOL    MW429080   4.816   3.710   4.632 -0.8219 -0.1527 -0.5965
 7329SOL     OW29081   4.395   0.725   5.798  0.3644  0.5654  0.1149
 7329SOL    HW229082   4.454   0.664   5.754  0.3037  0.6230 -0.0514
 7329SOL    HW329083   4.453   0.788   5.841  0.4353  1.0386 -0.6365
 7329SOL    MW429084   4.411   0.725   5.798 -0.2843  0.3987  0.0600
 7330SOL     OW29085   1.945   3.706   2.841  0.7473  0.5972  0.2571
 7330SOL    HW229086   1.957   3.794   2.804 -2.4873  1.4868  0.9162
 7330SOL    HW329087   1.863   3.676   2.803  1.2803 -1.7520  0.8434
 7330SOL    MW429088   1.936   3.714   2.831 -0.2347 -0.7009 -0.4439
 7331SOL     OW29089   0.434   6.037   2.627 -0.1651  0.0735 -0.0564
 7331SOL    HW229090   0.358   6.094   2.643 -0.8863 -0.3712 -1.6841
 7331SOL    HW329091   0.501   6.096   2.594  0.3443  0.5155  1.6395
 7331SOL    MW429092   0.433   6.052   2.625 -0.1760  0.3232 -0.2888
 7332SOL     OW29093   4.924   1.996   0.368  0.3008 -0.1358  0.3502
 7332SOL    HW229094   4.866   2.067   0.395 -0.3162 -1.1613  1.7984
 7332SOL    HW329095   4.962   1.963   0.449  0.6750 -1.3825 -0.3097
 7332SOL    MW429096   4.921   2.001   0.382 -0.9637  0.2801  0.0008
 7333SOL     OW29097   3.837   4.314   1.537 -0.1380 -0.2745 -0.3767
 7333SOL    HW229098   3.749   4.350   1.552  0.1338  0.5008 -0.6432
 7333SOL    HW329099   3.847   4.249   1.606 -0.5256  0.3498  0.2865
 7333SOL    MW429100   3.826   4.310   1.548 -0.4796 -0.8719 -0.1436
 7334SOL     OW29101   2.119   3.963   3.771  0.0957  0.1783 -0.2447
 7334SOL    HW229102   2.188   3.990   3.711  0.7111  1.1708  0.8587
 7334SOL    HW329103   2.104   4.040   3.827 -1.9490  0.0236 -0.4875
 7334SOL    MW429104   2.126   3.977   3.771 -0.1982 -0.0784 -0.1441
 7335SOL     OW29105   1.501   6.427   5.750  0.4060 -0.3637  0.3947
 7335SOL    HW229106   1.527   6.351   5.802  0.4729 -0.7225 -0.1498
 7335SOL    HW329107   1.583   6.467   5.723  0.3911  0.9430  2.1310
 7335SOL    MW429108   1.515   6.422   5.753 -0.5865 -0.6158  0.2707
 7336SOL     OW29109   5.051   0.169   3.617 -0.1167 -0.5073  0.8094
 7336SOL    HW229110   5.006   0.247   3.648 -0.8847 -1.3091  1.7789
 7336SOL    HW329111   4.985   0.120   3.569  0.4389 -0.4454 -0.0517
 7336SOL    MW429112   5.036   0.173   3.614  0.6348  0.9340  0.0963
 7337SOL     OW29113   6.043   2.469   0.352 -0.0225 -0.1802  0.2646
 7337SOL    HW229114   5.968   2.410   0.359 -0.2555  0.0477 -0.2507
 7337SOL    HW329115   6.118   2.411   0.340 -0.1355 -0.4034  0.6298
 7337SOL    MW429116   6.043   2.454   0.351  0.3050 -0.1190  0.0174
 7338SOL     OW29117   0.041   0.300   2.041  0.2727  0.2038 -0.6932
 7338SOL    HW229118   0.073   0.356   2.112 -2.7137  1.5254 -0.2398
 7338SOL    HW329119  -0.030   0.249   2.081 -0.3983 -0.2019 -2.3244
 7338SOL    MW429120   0.036   0.301   2.056  0.1312  0.1338  0.4024
 7339SOL     OW29121   2.128   2.413   5.119 -0.2590 -0.3581  0.0735
 7339SOL    HW229122   2.184   2.485   5.090 -1.8247  1.2793  0.8682
 7339SOL    HW329123   2.091   2.377   5.038  1.5340 -1.1752 -0.4248
 7339SOL    MW429124   2.130   2.418   5.105 -0.1745 -0.4018  0.2057
 7340SOL     OW29125   3.598   3.074   5.008 -0.4378  0.2723 -0.1195
 7340SOL    HW229126   3.579   3.021   4.931  0.2131 -0.0185 -0.0868
 7340SOL    HW329127   3.513   3.111   5.033 -0.6265  0.4723 -1.0427
 7340SOL    MW429128   3.584   3.072   5.001 -0.3539 -0.1341  0.0841
 7341SOL     OW29129   3.171   4.828   3.750 -0.1761  0.2910  0.4070
 7341SOL    HW229130   3.238   4.759   3.748 -0.1008  0.3450  1.0412
 7341SOL    HW329131   3.092   4.783   3.780 -0.8375 -0.1075 -1.7108
 7341SOL    MW429132   3.169   4.813   3.753  0.2359 -0.2808  0.0889
 7342SOL     OW29133   5.313   2.410   0.764  0.4119 -0.2307 -0.4416
 7342SOL    HW229134   5.326   2.354   0.840 -2.1289  1.2774  1.2669
 7342SOL    HW329135   5.225   2.389   0.732 -0.4665  2.3357  0.0085
 7342SOL    MW429136   5.303   2.400   0.770 -0.3007  0.4811  0.5397
 7343SOL     OW29137   0.435   3.574   3.814 -0.2186 -0.1592 -0.1930
 7343SOL    HW229138   0.473   3.661   3.823 -0.3872  0.1265 -1.8866
 7343SOL    HW329139   0.426   3.542   3.904  0.3298  1.3517  0.4301
 7343SOL    MW429140   0.439   3.581   3.827  0.8454  0.4588  0.1888
 7344SOL     OW29141   4.636   4.272   4.985 -0.4806 -0.2562 -0.4424
 7344SOL    HW229142   4.614   4.327   5.060  0.6617 -0.3201 -0.0453
 7344SOL    HW329143   4.552   4.258   4.941 -0.8466  1.5850 -0.4209
 7344SOL    MW429144   4.622   4.277   4.989 -0.1267 -0.4763 -0.2309
 7345SOL     OW29145   6.192   1.223   5.710  0.2063 -0.3192 -0.3207
 7345SOL    HW229146   6.272   1.272   5.729 -1.2642  1.5585  1.4768
 7345SOL    HW329147   6.208   1.137   5.749  1.1058  0.2520  0.6271
 7345SOL    MW429148   6.205   1.218   5.718 -0.3880 -0.6686 -0.7338
 7346SOL     OW29149   3.578   1.267   3.397 -0.3895 -0.4005  0.2239
 7346SOL    HW229150   3.605   1.227   3.315 -0.5098 -0.1731  0.0718
 7346SOL    HW329151   3.499   1.219   3.422 -0.3869 -0.4300  0.1752
 7346SOL    MW429152   3.571   1.255   3.389  0.0413  0.0907 -0.3128
 7347SOL     OW29153   1.095   2.936   5.464 -0.1762 -0.7553  0.0325
 7347SOL    HW229154   1.156   2.982   5.521  0.5696 -0.8316 -0.6856
 7347SOL    HW329155   1.008   2.960   5.497  0.2352 -0.6953  1.1048
 7347SOL    MW429156   1.091   2.945   5.476  0.0572  0.1651  0.1995
 7348SOL     OW29157   0.045   3.052   2.011 -0.5291 -0.0802 -0.2533
 7348SOL    HW229158  -0.034   3.076   1.963 -0.5811 -0.4547 -0.3619
 7348SOL    HW329159   0.037   2.957   2.023 -0.6220  0.0352  0.6829
 7348SOL    MW429160   0.034   3.043   2.006  0.1398  0.5113 -1.2082
 7349SOL     OW29161   4.323   1.741   1.220 -0.5437 -0.0144  0.4249
 7349SOL    HW229162   4.416   1.718   1.220 -0.2847  0.6707 -2.4971
 7349SOL    HW329163   4.298   1.737   1.313  2.4080 -0.0348  1.3378
 7349SOL    MW429164   4.332   1.737   1.233 -0.3375  0.3008  0.6652
 7350SOL     OW29165   5.939   4.842   1.228  0.6820  0.0766 -0.2652
 7350SOL    HW229166   5.895   4.763   1.260 -0.2688  0.9191  0.5919
 7350SOL    HW329167   6.018   4.810   1.184  0.6682 -1.3038  0.6630
 7350SOL    MW429168   5.944   4.827   1.227 -0.1938 -0.6423 -0.2010
 7351SOL     OW29169   5.560   4.152   3.193 -0.0762 -0.2773 -0.3383
 7351SOL    HW229170   5.563   4.247   3.176  2.2590 -0.3441 -0.5846
 7351SOL    HW329171   5.540   4.114   3.107 -1.4947 -0.0373 -0.1509
 7351SOL    MW429172   5.558   4.160   3.179 -0.1935 -0.0964 -0.2839
 7352SOL     OW29173   3.480   0.237   3.590  0.3478 -0.0069  0.6049
 7352SOL    HW229174   3.555   0.291   3.616  1.8543 -1.7474  0.0577
 7352SOL    HW329175   3.511   0.147   3.600 -1.0178 -0.7737 -1.4948
 7352SOL    MW429176   3.494   0.232   3.595  0.4643 -0.1430  0.4942
 7353SOL     OW29177   6.071   0.014   3.841  0.1935 -0.0335  0.1367
 7353SOL    HW229178   6.053   0.038   3.750 -0.7437 -0.4734  0.1957
 7353SOL    HW329179   6.115   0.091   3.878 -1.3584  0.9919 -0.0951
 7353SOL    MW429180   6.075   0.028   3.834 -0.8556 -0.4980 -0.1918
 7354SOL     OW29181   2.093   6.065   6.223  0.1002  0.2674 -0.3431
 7354SOL    HW229182   2.152   5.998   6.257 -0.5248  0.4311  1.1604
 7354SOL    HW329183   2.080   6.041   6.132  0.2765 -1.3896  0.0217
 7354SOL    MW429184   2.099   6.053   6.216  0.2705  0.1118  0.0413
 7355SOL     OW29185   5.236   2.392   2.117 -0.3365  0.0229 -0.6172
 7355SOL    HW229186   5.190   2.384   2.201  1.9129 -0.0068  0.7086
 7355SOL    HW329187   5.329   2.390   2.141  0.3899  1.5682 -2.9805
 7355SOL    MW429188   5.242   2.391   2.132 -0.8016 -0.1573  0.3216
 7356SOL     OW29189   2.378   1.552   3.977  0.2830 -0.2125  0.0805
 7356SOL    HW229190   2.336   1.481   4.026  1.9959 -1.3712 -0.0383
 7356SOL    HW329191   2.349   1.632   4.021 -1.1122 -1.0105  0.6851
 7356SOL    MW429192   2.369   1.553   3.989 -0.8324 -0.6639  0.7912
 7357SOL     OW29193   0.845   2.565   1.422  0.0111 -0.8342  0.1955
 7357SOL    HW229194   0.893   2.617   1.486 -0.3086  0.1823 -0.3666
 7357SOL    HW329195   0.877   2.596   1.337 -0.8862 -0.8587 -0.1636
 7357SOL    MW429196   0.856   2.576   1.419 -0.3922  0.1981 -0.5374
 7358SOL     OW29197   1.569   5.268   1.247 -0.3347 -0.0598 -0.1073
 7358SOL    HW229198   1.547   5.192   1.194 -0.0336  0.3540 -0.8549
 7358SOL    HW329199   1.485   5.305   1.273 -0.4925 -0.0263 -0.6607
 7358SOL    MW429200   1.555   5.263   1.243  0.5552  0.0014  0.4473
 7359SOL     OW29201   3.128   5.893   0.940 -0.7117 -0.1999 -0.3627
 7359SOL    HW229202   3.127   5.878   0.845  0.0585 -0.2486 -0.3728
 7359SOL    HW329203   3.198   5.957   0.953  0.5129 -1.6293  0.3678
 7359SOL    MW429204   3.137   5.900   0.929  0.2145  0.0043  0.0442
 7360SOL     OW29205   4.059   0.624   5.237  0.0993 -0.1979  0.4146
 7360SOL    HW229206   4.058   0.701   5.180  1.6918 -1.0407 -0.8024
 7360SOL    HW329207   4.145   0.625   5.278  0.0881 -1.2663  0.4928
 7360SOL    MW429208   4.070   0.634   5.235  0.2784 -0.0404  0.1927
 7361SOL     OW29209   4.485   6.083   1.804  0.3176  0.1958  0.9733
 7361SOL    HW229210   4.444   5.998   1.791 -2.2479  1.0074  2.8666
 7361SOL    HW329211   4.520   6.079   1.894  1.2386  0.7693  0.6547
 7361SOL    MW429212   4.484   6.071   1.815  0.7519  0.4216 -0.1631
 7362SOL     OW29213   5.566   3.156   1.090  0.6350 -1.1362 -0.3547
 7362SOL    HW229214   5.563   3.148   1.186  1.1241 -0.2210 -0.2560
 7362SOL    HW329215   5.566   3.066   1.059  0.0078 -1.4486  0.4902
 7362SOL    MW429216   5.565   3.143   1.099 -0.2064 -0.0324  0.5828
 7363SOL     OW29217   0.609   2.702   0.459 -0.5900 -0.5532 -0.3559
 7363SOL    HW229218   0.571   2.622   0.494  0.3918 -0.5482  0.7831
 7363SOL    HW329219   0.556   2.772   0.497  0.5526 -0.5398  1.3202
 7363SOL    MW429220   0.597   2.701   0.468  0.3500  0.3691  0.2965
 7364SOL     OW29221   4.639   5.923   0.621  0.1065 -0.7150  0.2191
 7364SOL    HW229222   4.566   5.984   0.604  0.2239 -0.4953  0.5100
 7364SOL    HW329223   4.709   5.955   0.564  0.0215 -0.8487  0.0362
 7364SOL    MW429224   4.638   5.936   0.611  0.0350  0.7984  0.0205
 7365SOL     OW29225   5.756   3.373   3.602  0.4332  0.5565  0.0352
 7365SOL    HW229226   5.848   3.393   3.624 -0.0870  1.9043  1.1962
 7365SOL    HW329227   5.707   3.443   3.645 -1.4160 -1.9270  2.3128
 7365SOL    MW429228   5.762   3.385   3.611  0.2451 -0.3677  0.0283
 7366SOL     OW29229   4.754   1.807   0.246  0.4540 -0.6058 -0.0542
 7366SOL    HW229230   4.810   1.865   0.296  2.0495 -2.1780  0.1056
 7366SOL    HW329231   4.795   1.721   0.255 -0.8965 -1.4694 -1.5942
 7366SOL    MW429232   4.767   1.803   0.254 -0.5100 -0.2223 -0.0558
 7367SOL     OW29233   5.194   5.337   2.837  0.1711  0.2256  0.2725
 7367SOL    HW229234   5.110   5.321   2.793  0.4526 -1.1442  0.1738
 7367SOL    HW329235   5.257   5.347   2.766  0.6123 -1.9065  0.2882
 7367SOL    MW429236   5.191   5.336   2.822  0.6047 -0.2624 -0.3126
 7368SOL     OW29237   3.620   5.323   0.569 -0.2099 -0.0932  0.4613
 7368SOL    HW229238   3.570   5.324   0.651 -0.7359 -0.9313  0.1593
 7368SOL    HW329239   3.601   5.238   0.530 -1.4129  0.9892 -1.4347
 7368SOL    MW429240   3.611   5.312   0.575 -0.2089  0.5574 -0.1907
 7369SOL     OW29241   1.126   0.596   3.639  0.1044  0.1542 -0.4254
 7369SOL    HW229242   1.114   0.513   3.685  1.6963  0.6098  0.8953
 7369SOL    HW329243   1.109   0.663   3.706  2.3455  0.8282 -0.4627
 7369SOL    MW429244   1.122   0.594   3.654 -0.1144 -0.0296  0.4407
 7370SOL     OW29245   5.966   5.956   4.521 -0.1556 -0.0697 -0.6001
 7370SOL    HW229246   6.045   5.915   4.556 -0.8128 -1.4919 -0.7042
 7370SOL    HW329247   5.936   5.895   4.453 -0.7280  1.0037 -1.3353
 7370SOL    MW429248   5.972   5.942   4.517  0.0268 -0.2090 -0.1934
 7371SOL     OW29249   1.967   3.398   2.937  0.1999  0.4140  0.1526
 7371SOL    HW229250   1.991   3.396   2.845  0.9447 -0.6194  0.3576
 7371SOL    HW329251   2.046   3.428   2.982 -0.3600  1.5745  0.4203
 7371SOL    MW429252   1.981   3.402   2.931 -0.0878 -0.2703 -0.2051
 7372SOL     OW29253   2.626   0.590   3.017  0.6185 -0.2920 -0.5089
 7372SOL    HW229254   2.619   0.661   2.953  0.1658  0.2130  0.0996
 7372SOL    HW329255   2.564   0.613   3.086  1.8223 -0.3132  0.6179
 7372SOL    MW429256   2.617   0.602   3.017  0.8088 -0.7008  0.3419
 7373SOL     OW29257   5.802   3.088   3.677 -0.5169 -0.0068  0.3778
 7373SOL    HW229258   5.790   3.143   3.754 -2.1225  1.4173 -0.8009
 7373SOL    HW329259   5.804   3.149   3.604 -1.4469 -1.4395 -0.9202
 7373SOL    MW429260   5.800   3.103   3.677  0.6969  0.0948 -0.1293
 7374SOL     OW29261   2.192   2.075   3.885  0.3748 -0.5187 -0.7328
 7374SOL    HW229262   2.125   2.010   3.866 -0.0392 -0.5413  0.6785
 7374SOL    HW329263   2.158   2.157   3.849 -1.2253 -0.1834  1.3392
 7374SOL    MW429264   2.179   2.078   3.878  0.0406  0.0176  0.4312
 7375SOL     OW29265   0.237   0.545   4.833  0.2530  0.0786 -0.9192
 7375SOL    HW229266   0.179   0.619   4.814  1.4200  0.7707 -1.9640
 7375SOL    HW329267   0.210   0.477   4.772 -0.6817 -0.3161 -0.1015
 7375SOL    MW429268   0.226   0.546   4.823 -0.3455  0.8841  0.2823
 7376SOL     OW29269   0.916   5.444   4.924 -0.0090  0.5649  0.1344
 7376SOL    HW229270   0.822   5.428   4.916  0.3113 -0.6138 -2.6001
 7376SOL    HW329271   0.926   5.539   4.920 -1.0144  0.6368 -1.8344
 7376SOL    MW429272   0.905   5.454   4.923 -0.0423 -0.7526  0.1085
 7377SOL     OW29273   2.923   1.646   0.673 -0.8092 -0.3068  0.2200
 7377SOL    HW229274   2.875   1.668   0.753  0.4720  1.8844  0.4430
 7377SOL    HW329275   3.011   1.624   0.703 -0.2266  0.8272 -0.5725
 7377SOL    MW429276   2.928   1.646   0.688 -0.5586  0.6722 -0.1921
 7378SOL     OW29277   2.174   1.029   5.524 -0.3503 -0.2985  0.4512
 7378SOL    HW229278   2.219   0.959   5.571 -0.8181  0.2236  1.7478
 7378SOL    HW329279   2.195   1.108   5.574 -0.7218  0.3170 -0.3428
 7378SOL    MW429280   2.183   1.030   5.537  0.2280 -0.1684  0.3590
 7379SOL     OW29281   1.033   2.584   0.433  0.0411  0.2827  0.1187
 7379SOL    HW229282   0.942   2.565   0.408 -0.0580 -1.0033  1.3146
 7379SOL    HW329283   1.086   2.534   0.371 -0.0753  0.6632 -0.2905
 7379SOL    MW429284   1.028   2.575   0.422  0.5829 -0.3250  0.4017
 7380SOL     OW29285   5.363   6.232   2.357  0.3431  0.0773 -1.0927
 7380SOL    HW229286   5.380   6.152   2.307  0.7569 -0.6659  0.2049
 7380SOL    HW329287   5.303   6.204   2.426  0.7843  0.8004 -0.4080
 7380SOL    MW429288   5.357   6.218   2.359  0.5483 -0.3961  0.2329
 7381SOL     OW29289   1.244   1.614   3.306  0.0152  0.1171 -0.4817
 7381SOL    HW229290   1.214   1.597   3.396  2.2821  2.8776  0.9689
 7381SOL    HW329291   1.317   1.554   3.294  0.7194  0.8264  0.1691
 7381SOL    MW429292   1.249   1.604   3.317  0.7318  0.3414  0.4505
 7382SOL     OW29293   1.757   5.251   1.454 -0.1789  0.9254  0.4352
 7382SOL    HW229294   1.796   5.164   1.443  1.6689  1.5197  1.6947
 7382SOL    HW329295   1.694   5.259   1.383  0.0777 -1.1920 -0.0917
 7382SOL    MW429296   1.754   5.241   1.444 -0.2559  0.2612 -0.0521
 7383SOL     OW29297   3.802   3.708   2.525 -1.0613  0.7256 -0.0817
 7383SOL    HW229298   3.786   3.647   2.597  0.9988  0.0889 -0.1054
 7383SOL    HW329299   3.761   3.666   2.449  0.2379 -0.6398 -0.0804
 7383SOL    MW429300   3.794   3.694   2.524 -0.3219  0.2281 -0.6166
 7384SOL     OW29301   0.525   3.130   0.746  0.2461 -0.2055  0.6345
 7384SOL    HW229302   0.540   3.038   0.769 -0.1366 -0.7268 -1.0655
 7384SOL    HW329303   0.478   3.166   0.821  1.5683 -1.0259  1.9067
 7384SOL    MW429304   0.521   3.123   0.759 -0.0123 -0.3637  0.1348
 7385SOL     OW29305   3.226   4.725   1.106  0.6845 -0.4879 -0.0574
 7385SOL    HW229306   3.312   4.688   1.126  0.0810 -0.4214  3.2164
 7385SOL    HW329307   3.231   4.816   1.137 -0.6086 -0.5600  0.4390
 7385SOL    MW429308   3.238   4.733   1.113  0.2802  0.6090  0.0828
 7386SOL     OW29309   5.363   1.665   1.064  0.6101  0.1533  0.4134
 7386SOL    HW229310   5.346   1.606   1.137  1.0346 -0.2383  0.2025
 7386SOL    HW329311   5.300   1.639   0.996 -1.4800  2.1059  1.4786
 7386SOL    MW429312   5.353   1.654   1.064 -0.0863  0.3961  0.0754
 7387SOL     OW29313   3.925   4.599   6.241  0.2242  0.1719 -0.0297
 7387SOL    HW229314   3.972   4.679   6.217 -1.7038  1.2759 -0.2959
 7387SOL    HW329315   3.843   4.603   6.191 -0.2828 -1.5686  0.5828
 7387SOL    MW429316   3.920   4.610   6.231  0.1955  0.5950  0.6655
 7388SOL     OW29317   3.096   0.382   1.840  0.2529 -0.5068 -0.0967
 7388SOL    HW229318   3.003   0.369   1.822  0.0383  0.7152  0.0197
 7388SOL    HW329319   3.115   0.322   1.912 -0.6386 -0.2186  0.3899
 7388SOL    MW429320   3.086   0.373   1.847  0.2178  0.3797  0.0463
 7389SOL     OW29321   5.741   3.618  -0.001 -0.3256 -0.4130  0.1120
 7389SOL    HW229322   5.712   3.528  -0.012  0.2809 -0.4957 -0.8707
 7389SOL    HW329323   5.821   3.625  -0.053 -1.0268  1.0142 -0.8507
 7389SOL    MW429324   5.748   3.607  -0.009 -0.0951  0.2005  0.8495
 7390SOL     OW29325   1.737   2.399   2.865 -0.3999 -0.2282  0.1493
 7390SOL    HW229326   1.693   2.315   2.882 -1.4744  0.1899 -0.4524
 7390SOL    HW329327   1.773   2.389   2.777 -0.8708  0.0654 -0.0833
 7390SOL    MW429328   1.736   2.387   2.855 -0.3355  0.5655 -0.4015
 7391SOL     OW29329   3.462   5.302   2.903  0.2937 -0.1692 -0.4860
 7391SOL    HW229330   3.512   5.311   2.821 -0.0947 -0.1499 -0.7246
 7391SOL    HW329331   3.396   5.370   2.897  1.3824  1.0426  0.6861
 7391SOL    MW429332   3.460   5.312   2.891 -0.2961 -0.1100  0.0618
 7392SOL     OW29333   3.267   6.186   6.341  0.5089 -0.0490 -0.0193
 7392SOL    HW229334   3.295   6.177   6.432 -1.6595 -1.9119  0.5628
 7392SOL    HW329335   3.345   6.164   6.290  1.3967 -0.3688  1.4029
 7392SOL    MW429336   3.281   6.182   6.346  0.1062  0.3770 -0.5512
 7393SOL     OW29337   6.321   0.208   1.395 -0.0064 -0.1411 -0.0813
 7393SOL    HW229338   6.253   0.146   1.367  0.6707 -0.9540  0.0290
 7393SOL    HW329339   6.293   0.292   1.359 -1.3084 -0.3661  0.3654
 7393SOL    MW429340   6.308   0.211   1.386 -0.2059 -0.9783  0.3890
 7394SOL     OW29341   5.974   5.306   4.340 -0.1035  0.0010  0.2254
 7394SOL    HW229342   6.036   5.360   4.291  1.1388  0.1066  1.8352
 7394SOL    HW329343   5.993   5.216   4.313 -0.8231  0.1768 -0.9621
 7394SOL    MW429344   5.984   5.301   4.330 -0.5461  0.4544  0.2421
 7395SOL     OW29345   3.226   6.226   2.090  0.0231  0.0479 -0.3397
 7395SOL    HW229346   3.224   6.200   1.998  0.4606 -0.7920 -0.1214
 7395SOL    HW329347   3.135   6.216   2.120  0.1804 -1.2968 -0.2556
 7395SOL    MW429348   3.213   6.221   2.082  0.7219 -0.5592  0.3816
 7396SOL     OW29349   1.422   0.443   5.421 -0.2182  0.2126 -0.1647
 7396SOL    HW229350   1.426   0.434   5.516  0.3906 -0.3356 -0.2339
 7396SOL    HW329351   1.365   0.372   5.393  1.2808 -0.9516 -0.3705
 7396SOL    MW429352   1.415   0.433   5.430  0.4251 -0.2904 -0.3376
 7397SOL     OW29353   6.244   4.422   5.894 -0.1228  0.2312 -0.2382
 7397SOL    HW229354   6.274   4.510   5.870  0.6019  0.9806  2.9811
 7397SOL    HW329355   6.149   4.425   5.880  0.0754  0.9450 -1.6658
 7397SOL    MW429356   6.235   4.434   5.889 -0.0864 -0.1832 -0.4665
 7398SOL     OW29357   0.729   0.338   5.203  0.3522  0.2045 -0.0086
 7398SOL    HW229358   0.808   0.365   5.249 -0.6909  0.0693  1.9954
 7398SOL    HW329359   0.730   0.242   5.208 -0.1495  0.2172  0.4570
 7398SOL    MW429360   0.739   0.329   5.210 -0.1919  0.3621 -0.3883
 7399SOL     OW29361   4.352   0.580   4.867 -0.1724  0.3997 -0.1100
 7399SOL    HW229362   4.341   0.612   4.778 -0.7492  0.8034  0.1062
 7399SOL    HW329363   4.446   0.590   4.884 -0.4503  2.9840  0.3131
 7399SOL    MW429364   4.363   0.586   4.857 -0.5336 -0.0355 -0.2199
 7400SOL     OW29365   3.793   2.444   1.195 -0.4317 -0.4415  0.5954
 7400SOL    HW229366   3.774   2.458   1.288 -1.9780  0.7948  0.1432
 7400SOL    HW329367   3.725   2.493   1.149 -0.0357 -1.4739 -1.2034
 7400SOL    MW429368   3.781   2.452   1.201 -0.4049  0.3152  0.5223
 7401SOL     OW29369   1.329   0.169   3.552 -0.4131  0.8985 -0.0438
 7401SOL    HW229370   1.362   0.132   3.634  1.1197  2.1354 -0.0518
 7401SOL    HW329371   1.398   0.153   3.488 -1.5352  0.0629 -1.1128
 7401SOL    MW429372   1.342   0.162   3.554  0.7173 -0.4109  0.4235
 7402SOL     OW29373   2.844   3.305   1.963 -0.0892  0.0369 -0.1454
 7402SOL    HW229374   2.850   3.389   1.917  1.1155 -0.5973 -1.2154
 7402SOL    HW329375   2.750   3.284   1.963 -0.2664  0.7782 -0.9786
 7402SOL    MW429376   2.832   3.313   1.957 -0.0556  0.0728  0.4231
 7403SOL     OW29377   4.927   6.388   1.422  0.1366  0.5246  0.1313
 7403SOL    HW229378   4.922   6.373   1.328 -0.9580  0.4827  0.1791
 7403SOL    HW329379   4.967   6.474   1.431  1.0974  0.1343 -0.3371
 7403SOL    MW429380   4.931   6.397   1.411 -0.3086  0.2163  0.2699
 7404SOL     OW29381   5.465   4.987   5.776 -0.1629 -0.1211  0.0210
 7404SOL    HW229382   5.385   5.025   5.740  0.1264 -0.1748 -0.6750
 7404SOL    HW329383   5.460   5.007   5.870 -1.2797 -0.6491  0.0808
 7404SOL    MW429384   5.454   4.995   5.784 -0.1263  0.2951  0.9110
 7405SOL     OW29385   4.564   5.672   0.685  0.6418 -0.2429  0.2876
 7405SOL    HW229386   4.566   5.766   0.669  2.9685 -0.3155 -0.0981
 7405SOL    HW329387   4.577   5.633   0.598 -0.2769 -0.9588  0.4453
 7405SOL    MW429388   4.566   5.679   0.671 -0.5444  0.3180 -0.0517
 7406SOL     OW29389   0.817   1.327   4.015 -0.0507 -0.0527  0.4107
 7406SOL    HW229390   0.806   1.415   3.979 -0.1389 -0.3623 -0.3424
 7406SOL    HW329391   0.909   1.307   4.002 -0.4547 -0.8864 -1.3736
 7406SOL    MW429392   0.827   1.336   4.009  0.5089 -0.2172  0.4981
 7407SOL     OW29393   3.281   2.141   5.120 -0.2528  0.3099  0.1566
 7407SOL    HW229394   3.340   2.192   5.065  0.7679 -0.7227  0.2590
 7407SOL    HW329395   3.206   2.198   5.134  0.1774  1.1938 -0.9855
 7407SOL    MW429396   3.279   2.155   5.115 -0.6907 -0.5231 -0.0522
 7408SOL     OW29397   4.649   0.344   1.173 -0.8200 -0.1780  0.0304
 7408SOL    HW229398   4.567   0.349   1.223  0.1097  1.1468  1.5172
 7408SOL    HW329399   4.657   0.431   1.133  0.4646  0.1151  0.9020
 7408SOL    MW429400   4.639   0.356   1.174  0.4862  0.4955 -0.3464
 7409SOL     OW29401   1.947   4.587   6.243  0.1144 -0.5898 -0.4617
 7409SOL    HW229402   1.984   4.650   6.182  2.7908 -1.5359  0.0510
 7409SOL    HW329403   1.936   4.636   6.324 -2.2308  0.3302 -1.2542
 7409SOL    MW429404   1.951   4.601   6.246 -0.0846 -0.4296 -0.1287
 7410SOL     OW29405   0.656   3.352   4.076  0.1086 -0.6795 -0.1600
 7410SOL    HW229406   0.574   3.394   4.101 -0.0941 -0.7145 -0.7479
 7410SOL    HW329407   0.636   3.258   4.077 -0.1445 -0.6560 -1.2291
 7410SOL    MW429408   0.642   3.345   4.079  0.0300 -0.0440 -0.1204
 7411SOL     OW29409   5.299   3.754   6.162  0.7063  0.3601 -0.1817
 7411SOL    HW229410   5.224   3.696   6.150  1.0736 -0.9248  2.8764
 7411SOL    HW329411   5.267   3.823   6.221  1.0366  1.8550 -1.6548
 7411SOL    MW429412   5.285   3.756   6.168 -0.5255  0.4031  0.7358
 7412SOL     OW29413   0.608   4.294   4.876  0.1555 -0.8176  0.3541
 7412SOL    HW229414   0.540   4.269   4.813 -1.4912 -0.2967  1.8513
 7412SOL    HW329415   0.587   4.245   4.955  0.8117  0.2503  1.2201
 7412SOL    MW429416   0.596   4.284   4.878 -0.8618  0.2011  0.5700
 7413SOL     OW29417   0.540   5.697   5.379 -0.4791  0.4459 -0.3730
 7413SOL    HW229418   0.469   5.651   5.333 -1.0858  1.3670 -0.3860
 7413SOL    HW329419   0.523   5.790   5.363 -1.0920  0.8534  2.2063
 7413SOL    MW429420   0.528   5.703   5.371  0.1724  0.1001  0.6438
 7414SOL     OW29421   4.078   6.182   2.526 -0.5111 -0.0683 -0.3755
 7414SOL    HW229422   4.038   6.186   2.613 -0.7089 -0.9212 -0.4183
 7414SOL    HW329423   4.108   6.271   2.509 -2.6835  0.7039 -0.4747
 7414SOL    MW429424   4.076   6.194   2.535  0.4730 -0.3519  1.1460
 7415SOL     OW29425   1.955   1.915   3.861  0.0181  0.5393  0.1934
 7415SOL    HW229426   1.901   1.854   3.811  0.5019 -0.1981  0.5487
 7415SOL    HW329427   1.910   1.923   3.945  1.2499 -1.3410  1.1000
 7415SOL    MW429428   1.942   1.908   3.866  0.3700 -0.5629 -0.2055
 7416SOL     OW29429   5.366   3.579   3.313 -0.6605 -0.3556  0.0022
 7416SOL    HW229430   5.429   3.522   3.357 -1.9394 -1.1651  0.8666
 7416SOL    HW329431   5.338   3.640   3.381 -0.1164  0.6110 -0.6284
 7416SOL    MW429432   5.371   3.579   3.328 -0.6045  0.0884 -0.2435
 7417SOL     OW29433   2.237   0.314   1.107  0.4282  0.0065  0.4529
 7417SOL    HW229434   2.163   0.354   1.153 -1.8379 -1.1878 -1.9147
 7417SOL    HW329435   2.232   0.221   1.129  0.1537 -0.3551 -1.0389
 7417SOL    MW429436   2.227   0.307   1.116 -0.3722  0.2109  0.0796
 7418SOL     OW29437   6.294   0.073   6.375  0.4712  0.1036  0.3912
 7418SOL    HW229438   6.207   0.093   6.342  0.4640 -0.6564 -0.0618
 7418SOL    HW329439   6.352   0.130   6.323  0.1115  2.1480  2.0913
 7418SOL    MW429440   6.291   0.083   6.364  0.2760  0.0614  0.1594
 7419SOL     OW29441   4.245   3.022   0.527  0.8319 -0.4514 -0.1840
 7419SOL    HW229442   4.311   2.965   0.567 -0.0499 -0.7013  0.9751
 7419SOL    HW329443   4.262   3.108   0.565 -0.3981 -0.8150  1.2950
 7419SOL    MW429444   4.256   3.026   0.538 -0.0265 -0.4847 -0.1578
 7420SOL     OW29445   0.971   1.503   1.575 -0.1823  0.3443 -0.2626
 7420SOL    HW229446   0.978   1.417   1.533 -0.6321 -0.5119  1.3368
 7420SOL    HW329447   1.061   1.523   1.602  0.3868  1.5580 -2.7424
 7420SOL    MW429448   0.984   1.495   1.573  0.3704 -0.1461  0.4668
 7421SOL     OW29449   6.293   2.540   1.316  0.2176  0.0137  0.8034
 7421SOL    HW229450   6.223   2.579   1.263 -0.2079 -2.3132 -0.5052
 7421SOL    HW329451   6.263   2.548   1.406 -3.2659 -3.3107  0.2044
 7421SOL    MW429452   6.280   2.546   1.321 -0.8349 -0.3181  0.6248
 7422SOL     OW29453   6.152   3.563   0.150  0.2003  0.3699  0.0068
 7422SOL    HW229454   6.079   3.621   0.174  1.5661  1.7688  0.9321
 7422SOL    HW329455   6.134   3.482   0.196 -0.5905  0.8267  0.5242
 7422SOL    MW429456   6.140   3.560   0.159 -0.0984  0.5202 -0.2211
 7423SOL     OW29457   2.380   5.163   0.300 -0.1069  0.2623  0.3091
 7423SOL    HW229458   2.447   5.168   0.369  0.2330 -1.9524  0.2091
 7423SOL    HW329459   2.326   5.240   0.314  1.7939  1.5341  1.1053
 7423SOL    MW429460   2.382   5.174   0.311 -0.6234 -0.2657  0.0478
 7424SOL     OW29461   3.259   1.431   2.237 -0.1430  0.5924 -1.3464
 7424SOL    HW229462   3.308   1.377   2.174  0.5448 -0.2459 -0.1376
 7424SOL    HW329463   3.293   1.405   2.322 -2.2413  0.4648 -0.4907
 7424SOL    MW429464   3.270   1.420   2.240  0.6040 -0.0875  0.4406
 7425SOL     OW29465   3.189   3.914   2.467  0.2638  0.0247 -0.0844
 7425SOL    HW229466   3.284   3.921   2.456  0.5355  0.4417  2.0489
 7425SOL    HW329467   3.166   3.831   2.424  1.5952 -0.0986 -0.6111
 7425SOL    MW429468   3.199   3.904   2.460  0.4021 -0.6159  0.0807
 7426SOL     OW29469   1.557   3.773   4.828 -0.6954  0.2528  0.6206
 7426SOL    HW229470   1.533   3.842   4.889  0.5465  0.4028  0.9645
 7426SOL    HW329471   1.476   3.755   4.779 -1.9867 -0.4972  2.8730
 7426SOL    MW429472   1.543   3.780   4.830  0.0319 -0.1271 -0.1761
 7427SOL     OW29473   4.087   4.528   1.849 -0.1105 -0.1773  0.0904
 7427SOL    HW229474   4.131   4.446   1.869  1.7394  0.9250  0.7623
 7427SOL    HW329475   4.062   4.520   1.757  1.1782 -1.0148 -0.2101
 7427SOL    MW429476   4.089   4.516   1.840  0.7099 -0.2558 -0.1539
 7428SOL     OW29477   2.461   0.680   6.379  0.4453 -0.4970  0.1662
 7428SOL    HW229478   2.439   0.734   6.456  1.2358  0.1710 -0.0592
 7428SOL    HW329479   2.378   0.641   6.353 -0.3784  1.3979 -0.2385
 7428SOL    MW429480   2.447   0.682   6.386  0.0080  0.1718  0.1175
 7429SOL     OW29481   5.625   0.351   3.707  0.0053 -0.2000  0.8386
 7429SOL    HW229482   5.564   0.281   3.686  1.1744 -1.4725  1.5289
 7429SOL    HW329483   5.578   0.432   3.684 -1.3196 -1.1969 -0.0890
 7429SOL    MW429484   5.611   0.353   3.701 -0.2534  0.3140  0.2743
 7430SOL     OW29485   4.294   0.223   1.369 -0.2638 -0.8393  0.7916
 7430SOL    HW229486   4.235   0.224   1.444  0.2500 -1.3200  1.2072
 7430SOL    HW329487   4.361   0.158   1.391  2.0295  1.6132  1.5628
 7430SOL    MW429488   4.295   0.214   1.382  0.4958 -0.2668 -0.0237
 7431SOL     OW29489   4.073   0.687   3.130 -0.4881 -0.0530  0.2170
 7431SOL    HW229490   4.093   0.641   3.212 -1.6373  0.5935  0.8912
 7431SOL    HW329491   3.986   0.724   3.144 -0.4439  0.5977 -1.0737
 7431SOL    MW429492   4.065   0.686   3.143 -0.0927 -0.5833  0.0722
 7432SOL     OW29493   0.047   3.091   2.553  0.4085 -0.3354 -0.1196
 7432SOL    HW229494   0.137   3.060   2.564  1.0659  1.1471 -0.8960
 7432SOL    HW329495   0.021   3.120   2.640  0.3852 -1.4893  0.2681
 7432SOL    MW429496   0.055   3.091   2.566 -0.1585  0.0225 -0.2341
 7433SOL     OW29497   4.635   5.049   3.324  0.0529 -0.0421 -0.0610
 7433SOL    HW229498   4.727   5.071   3.309 -0.0907  0.3760 -0.3434
 7433SOL    HW329499   4.604   5.019   3.238 -0.2693  0.5248 -0.1429
 7433SOL    MW429500   4.643   5.048   3.310 -0.0396  0.3867 -0.4008
 7434SOL     OW29501   0.665   5.750   5.644 -0.1063  0.3115  0.4672
 7434SOL    HW229502   0.646   5.730   5.553  2.1152  1.1564 -0.2615
 7434SOL    HW329503   0.741   5.695   5.665  0.6558  1.5691  1.1350
 7434SOL    MW429504   0.673   5.740   5.635  0.2131 -0.1154  0.4081
 7435SOL     OW29505   0.495   3.623   2.777  0.4607 -0.3372 -0.2178
 7435SOL    HW229506   0.458   3.682   2.710 -0.0476 -1.4805 -0.9692
 7435SOL    HW329507   0.582   3.659   2.794 -0.2594  1.3190  0.2113
 7435SOL    MW429508   0.501   3.636   2.770  0.2416  0.1489  0.4943
 7436SOL     OW29509   0.067   2.356   4.395  0.2161  0.0492 -0.0961
 7436SOL    HW229510   0.044   2.409   4.471  1.3645  1.4951 -0.6959
 7436SOL    HW329511   0.160   2.337   4.406 -0.2436 -2.2465  0.2876
 7436SOL    MW429512   0.076   2.360   4.406 -0.0005  0.1772  0.5308
 7437SOL     OW29513   2.541   1.605   0.684  0.3770  0.3258 -0.3364
 7437SOL    HW229514   2.589   1.675   0.639  1.5001 -0.0001  0.2984
 7437SOL    HW329515   2.452   1.639   0.694  0.8055  1.5156 -0.3732
 7437SOL    MW429516   2.536   1.619   0.679  0.4015  0.3664  0.0118
 7438SOL     OW29517   2.461   6.416   2.679  0.5189  0.4436 -0.2419
 7438SOL    HW229518   2.431   6.450   2.764 -0.6811 -1.3220  0.1015
 7438SOL    HW329519   2.426   6.477   2.615 -1.7225 -0.1316  0.3469
 7438SOL    MW429520   2.452   6.428   2.682  0.0885  0.1831 -0.2967
 7439SOL     OW29521   4.088   1.978   4.796 -0.4405  0.1139 -0.5705
 7439SOL    HW229522   4.026   2.025   4.853 -0.6870  0.5485 -1.1833
 7439SOL    HW329523   4.048   1.892   4.784 -0.0117 -0.2621  0.5166
 7439SOL    MW429524   4.074   1.973   4.802 -0.1628 -0.1187 -0.0033
 7440SOL     OW29525   5.265   2.044   5.171 -0.3465 -0.1140 -0.2228
 7440SOL    HW229526   5.231   2.049   5.082 -1.4569 -0.7769  0.1461
 7440SOL    HW329527   5.210   1.979   5.214 -0.9223  1.3843  1.4223
 7440SOL    MW429528   5.253   2.036   5.165 -0.1503  0.1768 -0.3191
 7441SOL     OW29529   3.818   1.896   5.508 -0.0330 -0.3617  0.1303
 7441SOL    HW229530   3.913   1.882   5.516  0.5432  2.3734 -0.9307
 7441SOL    HW329531   3.791   1.923   5.596  0.0311 -1.6192  0.5633
 7441SOL    MW429532   3.827   1.897   5.521  0.1057  0.9203  0.0149
 7442SOL     OW29533   3.803   0.991   3.027  0.8090  0.3110  0.5156
 7442SOL    HW229534   3.844   1.074   3.005 -0.4830  1.3142  1.7379
 7442SOL    HW329535   3.857   0.956   3.098 -0.0260  1.3387  1.7060
 7442SOL    MW429536   3.815   0.997   3.034  0.7298  0.7962 -0.0793
 7443SOL     OW29537   1.040   1.448   3.435  0.0446  0.0811 -0.2772
 7443SOL    HW229538   1.089   1.366   3.429 -0.0935 -0.1730  1.3916
 7443SOL    HW329539   0.953   1.422   3.467 -0.0941  0.8384 -0.0188
 7443SOL    MW429540   1.035   1.434   3.439  0.0653  0.0302 -0.3388
 7444SOL     OW29541   5.377   3.371   2.572 -0.2117 -0.2866 -0.7253
 7444SOL    HW229542   5.406   3.412   2.653 -1.3015  0.7225 -0.8096
 7444SOL    HW329543   5.282   3.387   2.570 -0.5622 -2.1577 -1.1507
 7444SOL    MW429544   5.368   3.378   2.582 -0.4222  0.5247 -0.6242
 7445SOL     OW29545   3.320   5.621   4.358  0.6664 -0.3989 -0.6892
 7445SOL    HW229546   3.273   5.695   4.398  0.3630 -1.4358  0.9600
 7445SOL    HW329547   3.297   5.626   4.265 -3.6612 -1.4071  0.0816
 7445SOL    MW429548   3.311   5.632   4.351 -0.1178 -0.2517  0.8562
 7446SOL     OW29549   4.229   0.986   0.335 -0.2132 -0.1246  0.2374
 7446SOL    HW229550   4.204   0.957   0.423 -0.6706  0.0279  0.1599
 7446SOL    HW329551   4.161   1.048   0.310 -0.5753 -0.8272 -0.5801
 7446SOL    MW429552   4.217   0.991   0.344 -0.5986  0.2484 -0.1401
 7447SOL     OW29553   1.982   0.326   4.039  0.0353  0.2605  0.6200
 7447SOL    HW229554   2.055   0.314   3.979 -0.3501 -0.7216  0.3207
 7447SOL    HW329555   2.021   0.321   4.126  0.5402  1.2986  0.4669
 7447SOL    MW429556   1.997   0.324   4.043  0.4641 -0.0380 -0.1636
 7448SOL     OW29557   3.687   2.814   5.819  0.1703  0.1285  0.1568
 7448SOL    HW229558   3.748   2.873   5.775  0.3729 -0.9031 -1.0101
 7448SOL    HW329559   3.734   2.731   5.825 -1.4322 -0.9972 -1.7083
 7448SOL    MW429560   3.701   2.810   5.814  0.3238 -0.1773  0.0231
 7449SOL     OW29561   1.799   4.899   5.853  0.2764  0.0362 -0.4559
 7449SOL    HW229562   1.774   4.833   5.789 -0.3785 -0.0244 -0.1457
 7449SOL    HW329563   1.895   4.900   5.851  0.2987 -1.0129 -0.3776
 7449SOL    MW429564   1.808   4.891   5.844  0.7496  0.9362  0.3251
 7450SOL     OW29565   0.308   0.731   3.691 -0.0872  0.1488  0.1266
 7450SOL    HW229566   0.377   0.762   3.632 -0.2562 -3.4891 -2.2778
 7450SOL    HW329567   0.355   0.683   3.758 -0.1509  0.2567  0.2489
 7450SOL    MW429568   0.323   0.729   3.692  0.7949 -0.5382  0.0219
 7451SOL     OW29569   6.034   3.367   3.320  0.1851 -0.4702  0.4534
 7451SOL    HW229570   5.949   3.339   3.286 -0.2021  0.6925  0.4283
 7451SOL    HW329571   6.013   3.426   3.393  0.9988 -2.3605  2.3123
 7451SOL    MW429572   6.020   3.371   3.325  0.6518  0.4026  0.2558
 7452SOL     OW29573   0.229   4.308   5.467 -0.5446  0.6105 -0.4681
 7452SOL    HW229574   0.209   4.346   5.553 -0.2842 -0.1605 -0.0540
 7452SOL    HW329575   0.170   4.233   5.460  0.7601 -0.4889 -0.1073
 7452SOL    MW429576   0.219   4.303   5.478 -0.2408  0.1699  0.2128
 7453SOL     OW29577   4.373   6.342   1.751  0.0323  0.2041  0.0785
 7453SOL    HW229578   4.278   6.333   1.749  0.0540  0.0257 -0.5342
 7453SOL    HW329579   4.405   6.252   1.759  0.1477  0.2476  0.0965
 7453SOL    MW429580   4.365   6.329   1.752 -0.0833 -0.2801 -0.3165
 7454SOL     OW29581   4.755   1.636   4.403 -0.2487 -0.0762  0.3375
 7454SOL    HW229582   4.746   1.639   4.498  2.7390  0.0355  0.7056
 7454SOL    HW329583   4.847   1.653   4.387 -0.7465  0.3488 -2.6410
 7454SOL    MW429584   4.766   1.638   4.414  0.3820  0.3748 -0.7371
 7455SOL     OW29585   6.151   1.499   1.097  0.2978  0.3959 -0.0036
 7455SOL    HW229586   6.229   1.548   1.069  0.9619 -0.5936  0.0723
 7455SOL    HW329587   6.099   1.563   1.146  1.9413  0.6310  1.5450
 7455SOL    MW429588   6.155   1.514   1.100  0.0380 -0.1486 -0.2400
 7456SOL     OW29589   0.034   0.507   6.417  0.1484 -0.0215 -0.2416
 7456SOL    HW229590  -0.001   0.524   6.329  0.8791 -1.2074 -0.7827
 7456SOL    HW329591   0.087   0.428   6.407 -0.6087 -0.7894  1.5021
 7456SOL    MW429592   0.037   0.499   6.404 -0.4418 -0.6438  0.0099
 7457SOL     OW29593   3.167   3.124   0.588  0.1796 -0.1782 -0.3906
 7457SOL    HW229594   3.096   3.062   0.601 -1.1866  1.7440  2.1170
 7457SOL    HW329595   3.160   3.151   0.496  0.4971 -3.1849 -1.4064
 7457SOL    MW429596   3.157   3.120   0.578  0.1680  0.1958  0.5046
 7458SOL     OW29597   4.222   3.070   1.762 -0.8381 -0.5373 -0.2245
 7458SOL    HW229598   4.251   3.023   1.684  0.3530 -0.5239  0.1888
 7458SOL    HW329599   4.258   3.020   1.835 -2.7493 -1.1020  0.3919
 7458SOL    MW429600   4.231   3.058   1.761 -0.6026 -0.3964 -0.2488
 7459SOL     OW29601   3.764   4.184   2.540  0.3540 -0.0123 -0.7790
 7459SOL    HW229602   3.720   4.222   2.616  1.4598  1.1184 -0.6792
 7459SOL    HW329603   3.786   4.259   2.485  1.0849 -0.6683 -1.4021
 7459SOL    MW429604   3.761   4.199   2.542 -0.0051  0.5726 -0.0795
 7460SOL     OW29605   4.279   5.813   1.171 -0.0624  0.2248 -0.0088
 7460SOL    HW229606   4.308   5.857   1.091  0.4498  0.0355  0.0669
 7460SOL    HW329607   4.352   5.823   1.232  0.7774 -2.1158 -0.5270
 7460SOL    MW429608   4.292   5.820   1.169 -0.4328  0.3246  0.2028
 7461SOL     OW29609   2.613   0.102   6.315  0.3643  0.1751 -0.2650
 7461SOL    HW229610   2.599   0.046   6.391 -1.6422  0.8301 -0.0935
 7461SOL    HW329611   2.563   0.062   6.244  1.3197  0.1714 -0.9678
 7461SOL    MW429612   2.605   0.089   6.316 -0.2476 -0.0378 -0.4160
 7462SOL     OW29613   4.814   0.626   3.741  0.4192 -0.4650  0.1865
 7462SOL    HW229614   4.763   0.664   3.669  1.2334 -0.2457 -0.2969
 7462SOL    HW329615   4.752   0.617   3.813 -0.1062  0.5785 -0.1133
 7462SOL    MW429616   4.799   0.630   3.741  0.0809  0.3234  0.4972
 7463SOL     OW29617   1.325   5.249   4.292  0.0954  0.3310  0.1892
 7463SOL    HW229618   1.261   5.319   4.278 -1.1892 -1.2299 -2.6627
 7463SOL    HW329619   1.313   5.223   4.383 -1.4869  1.8328  0.4624
 7463SOL    MW429620   1.315   5.255   4.302 -0.2482  0.1051  0.0322
 7464SOL     OW29621   2.492   4.975   5.534 -0.5604  0.1276  0.5202
 7464SOL    HW229622   2.572   4.970   5.482 -0.8801  1.0860 -0.0730
 7464SOL    HW329623   2.500   4.902   5.596  0.5072 -0.1279  0.1069
 7464SOL    MW429624   2.504   4.965   5.535  0.4187 -0.6037  0.0612
 7465SOL     OW29625   3.050   5.439   1.689 -0.6942  0.4448 -0.0547
 7465SOL    HW229626   3.067   5.501   1.760 -2.1300  1.3048 -0.4037
 7465SOL    HW329627   3.003   5.367   1.730 -0.2426  0.2544  0.1220
 7465SOL    MW429628   3.046   5.438   1.703  0.2694  0.5705 -0.3752
 7466SOL     OW29629   0.378   5.184  -0.001  0.8347  0.0146  0.1399
 7466SOL    HW229630   0.355   5.093  -0.017  1.4680 -0.0669 -0.3401
 7466SOL    HW329631   0.411   5.186   0.088  0.7786 -0.2130  0.1660
 7466SOL    MW429632   0.379   5.172   0.009 -0.0532 -0.0936  0.0934
 7467SOL     OW29633   1.126   3.266   4.191 -0.4377  0.3844 -0.2640
 7467SOL    HW229634   1.152   3.357   4.175 -1.2526  0.5985 -0.3969
 7467SOL    HW329635   1.085   3.237   4.110 -0.6306  0.0564 -0.0535
 7467SOL    MW429636   1.124   3.274   4.178 -0.5107  0.3539 -0.6276
 7468SOL     OW29637   2.340   5.638   0.560  0.2778 -0.7929 -0.1247
 7468SOL    HW229638   2.361   5.546   0.574 -0.9947 -1.1993 -0.7117
 7468SOL    HW329639   2.328   5.674   0.648  0.2413 -1.3215  0.0869
 7468SOL    MW429640   2.341   5.631   0.574  0.2826  0.0034 -0.1140
 7469SOL     OW29641   4.279   0.084   2.958 -0.0704  0.0919 -0.0105
 7469SOL    HW229642   4.361   0.132   2.951  0.1287 -0.2104  0.2393
 7469SOL    HW329643   4.256   0.088   3.051 -0.5312  0.4914 -0.1373
 7469SOL    MW429644   4.287   0.091   2.969  0.0077  0.2939 -0.0912
 7470SOL     OW29645   5.148   2.618   3.741  0.3183  0.1657 -0.0574
 7470SOL    HW229646   5.163   2.679   3.668 -0.6789 -1.0122 -1.2923
 7470SOL    HW329647   5.229   2.566   3.745 -0.0884 -0.5937 -1.1807
 7470SOL    MW429648   5.161   2.619   3.732 -0.4297 -0.0331  1.1786
 7471SOL     OW29649   0.987   3.454   4.776  0.1876  0.0740 -0.0346
 7471SOL    HW229650   0.959   3.546   4.779  1.6352  0.6629 -2.4327
 7471SOL    HW329651   0.935   3.416   4.706  0.8916 -0.4614 -0.2665
 7471SOL    MW429652   0.976   3.461   4.767 -0.1634  0.3385  0.0700
 7472SOL     OW29653   2.650   4.980   3.419 -0.5339 -0.6947  0.1452
 7472SOL    HW229654   2.573   4.977   3.362 -1.7157  2.6254  1.3274
 7472SOL    HW329655   2.671   5.073   3.425  2.1758 -1.3196  1.7360
 7472SOL    MW429656   2.642   4.992   3.412  0.2973  0.0607  0.0178
 7473SOL     OW29657   5.112   3.290   1.942  0.3968  0.3722  0.5173
 7473SOL    HW229658   5.042   3.352   1.959  1.3952  1.8220 -0.4766
 7473SOL    HW329659   5.072   3.204   1.958 -1.7232  1.1147 -0.4120
 7473SOL    MW429660   5.098   3.287   1.947 -0.0415  0.6765 -0.4720
 7474SOL     OW29661   2.146   0.494   4.690  0.1318  0.3623  0.7790
 7474SOL    HW229662   2.084   0.520   4.758 -0.5211  0.7519  0.0530
 7474SOL    HW329663   2.103   0.421   4.646 -1.0926  2.2380 -1.4101
 7474SOL    MW429664   2.132   0.488   4.693 -0.1269  0.2701 -0.1008
 7475SOL     OW29665   2.617   6.377   5.689 -0.1037  0.0293 -0.1384
 7475SOL    HW229666   2.659   6.347   5.770 -1.3387  0.2993  0.6294
 7475SOL    HW329667   2.653   6.465   5.676 -2.9290  1.7947  2.5183
 7475SOL    MW429668   2.628   6.385   5.698  0.0218 -0.5152  0.6582
 7476SOL     OW29669   5.148   0.011   6.304 -0.5931  0.6557  0.4142
 7476SOL    HW229670   5.087   0.018   6.378  0.2350  0.8736  1.1033
 7476SOL    HW329671   5.099  -0.035   6.236 -1.1010 -0.3640  1.4344
 7476SOL    MW429672   5.133   0.006   6.305 -0.8255 -0.1978  0.2004
 7477SOL     OW29673   6.038   6.261   6.170  0.0793 -0.7070 -0.1237
 7477SOL    HW229674   6.074   6.197   6.231  0.8043  0.9217  1.2469
 7477SOL    HW329675   6.005   6.209   6.096  2.7700 -2.4828 -0.1974
 7477SOL    MW429676   6.038   6.246   6.168 -0.2193  0.1983 -0.0928
 7478SOL     OW29677   4.019   4.509   1.595 -0.0548  0.3220 -0.3803
 7478SOL    HW229678   4.102   4.468   1.570  0.4243  1.0991 -0.0764
 7478SOL    HW329679   3.953   4.443   1.572  0.6620 -0.4460 -0.3152
 7478SOL    MW429680   4.021   4.495   1.589 -0.1747 -0.1532 -0.3745
 7479SOL     OW29681   5.063   2.072   1.406 -0.4315 -0.3497  0.2899
 7479SOL    HW229682   5.081   1.996   1.351 -0.2045  0.0010 -0.1321
 7479SOL    HW329683   4.972   2.061   1.434 -0.9848  0.0885 -1.2007
 7479SOL    MW429684   5.053   2.061   1.402  0.8017  0.0729  0.6742
 7480SOL     OW29685   3.428   3.929   0.728 -0.2605 -0.0213  0.7272
 7480SOL    HW229686   3.375   3.870   0.782  0.2271 -0.6150  0.5758
 7480SOL    HW329687   3.439   3.882   0.646 -1.6911  1.2254 -0.2304
 7480SOL    MW429688   3.422   3.915   0.725 -0.6935  0.5938 -0.0510
 7481SOL     OW29689   4.760   2.730   3.130  0.1543 -0.3371 -0.1891
 7481SOL    HW229690   4.848   2.765   3.123  0.5986 -1.3223  0.3250
 7481SOL    HW329691   4.761   2.651   3.076  0.2891 -1.6460  1.6451
 7481SOL    MW429692   4.771   2.725   3.122  0.5809  0.3992 -0.0796
 7482SOL     OW29693   1.269   5.591   4.450 -0.6712  0.0922  0.4621
 7482SOL    HW229694   1.241   5.524   4.386  0.5188  1.2639 -1.3989
 7482SOL    HW329695   1.187   5.630   4.481 -1.3469  1.1795 -2.3098
 7482SOL    MW429696   1.254   5.587   4.445 -0.0399  0.2087 -0.2529
 7483SOL     OW29697   3.452   3.574   3.416  0.3253 -0.0471 -0.0108
 7483SOL    HW229698   3.402   3.493   3.411 -0.6263  0.4933  0.6313
 7483SOL    HW329699   3.462   3.602   3.325  0.6394 -0.8584 -0.2338
 7483SOL    MW429700   3.447   3.567   3.403  0.1367  0.3676 -0.9912
 7484SOL     OW29701   2.914   4.248   3.273 -0.3208  0.2871  0.2825
 7484SOL    HW229702   3.005   4.247   3.243 -0.4915  0.3951 -0.2495
 7484SOL    HW329703   2.882   4.335   3.250 -0.8157 -0.0471 -0.3441
 7484SOL    MW429704   2.922   4.259   3.266 -0.0240 -0.3973 -0.4069
 7485SOL     OW29705   5.309   4.748   4.600  0.4317 -0.7093  0.1060
 7485SOL    HW229706   5.301   4.772   4.507  1.0331 -1.8069 -0.2548
 7485SOL    HW329707   5.340   4.828   4.643 -0.3239 -0.0459 -0.5478
 7485SOL    MW429708   5.312   4.762   4.593  0.1622 -0.0851  0.0721
 7486SOL     OW29709   5.285   0.590   6.244  0.2678 -0.4198 -0.2255
 7486SOL    HW229710   5.297   0.620   6.154  0.5681 -0.1637 -0.0990
 7486SOL    HW329711   5.282   0.494   6.236 -0.2781 -0.3807 -0.5740
 7486SOL    MW429712   5.286   0.581   6.231 -0.1616 -0.2322  0.0883
 7487SOL     OW29713   3.255   4.879   4.039  0.0446 -0.2972  0.1452
 7487SOL    HW229714   3.231   4.892   3.947 -2.3006 -4.7393 -0.1214
 7487SOL    HW329715   3.349   4.901   4.042 -0.2535  2.0240 -2.7099
 7487SOL    MW429716   3.264   4.883   4.027  0.0974  0.1573 -0.7286
 7488SOL     OW29717   1.412   1.982   5.356 -0.6504  0.0270 -0.0454
 7488SOL    HW229718   1.448   1.895   5.341  1.7456  0.9363  0.0346
 7488SOL    HW329719   1.321   1.976   5.326  0.2635 -1.7171 -2.8303
 7488SOL    MW429720   1.405   1.970   5.350  0.1704  0.2578  0.1854
 7489SOL     OW29721   1.433   4.570   2.371  0.5398 -0.2783  0.3391
 7489SOL    HW229722   1.428   4.571   2.467 -0.0019 -1.1750  0.3379
 7489SOL    HW329723   1.360   4.513   2.345 -0.0543  0.9038 -0.6604
 7489SOL    MW429724   1.423   4.562   2.381  0.1278 -0.3362  0.4459
 7490SOL     OW29725   0.829   0.027   0.409 -0.1608 -0.1642 -0.1580
 7490SOL    HW229726   0.867   0.059   0.491 -0.2437  3.0021 -1.2465
 7490SOL    HW329727   0.843   0.097   0.346 -3.0360 -1.0737 -2.0367
 7490SOL    MW429728   0.836   0.040   0.412  0.1062  0.2739 -0.0667
 7491SOL     OW29729   0.470   2.612   2.846  0.2026  0.2228  0.8262
 7491SOL    HW229730   0.523   2.605   2.925  1.5741 -1.5151 -0.1506
 7491SOL    HW329731   0.531   2.647   2.780 -0.4899  0.2392  0.1912
 7491SOL    MW429732   0.485   2.616   2.848 -0.2670 -0.7046  0.1650
 7492SOL     OW29733   5.632   1.390   5.174  0.1259 -0.3678  0.2427
 7492SOL    HW229734   5.566   1.326   5.147 -0.3278  0.7267 -1.4174
 7492SOL    HW329735   5.654   1.436   5.093 -0.1876  2.1209  1.4876
 7492SOL    MW429736   5.626   1.387   5.160  0.4004 -0.2766  0.0936
 7493SOL     OW29737   4.830   0.367   3.631 -0.3095 -0.1539 -0.1043
 7493SOL    HW229738   4.833   0.451   3.676  0.4657 -0.5569  0.6178
 7493SOL    HW329739   4.813   0.389   3.539 -0.2124  0.7796  0.0981
 7493SOL    MW429740   4.828   0.381   3.625  0.3867 -0.2312 -0.5279
 7494SOL     OW29741   5.473   4.309   0.157  0.8886  0.2283 -0.0936
 7494SOL    HW229742   5.413   4.246   0.196  0.0788  2.8708  3.4282
 7494SOL    HW329743   5.552   4.304   0.212  0.9718  1.8638 -0.0007
 7494SOL    MW429744   5.476   4.300   0.170 -0.4642 -0.2728  0.0515
 7495SOL     OW29745   2.977   3.098   5.201  0.3895 -0.3568  0.0306
 7495SOL    HW229746   2.967   3.047   5.281 -0.6237 -0.5453 -0.1976
 7495SOL    HW329747   2.899   3.077   5.150  1.2013 -0.5452 -1.1780
 7495SOL    MW429748   2.966   3.089   5.205  0.3063 -0.1695  0.5253
 7496SOL     OW29749   2.221   2.115   5.776 -0.5812 -0.0914 -0.5098
 7496SOL    HW229750   2.132   2.112   5.741 -1.2306 -0.4863  1.1002
 7496SOL    HW329751   2.254   2.202   5.750 -1.8952  0.5637 -0.0871
 7496SOL    MW429752   2.214   2.126   5.768 -0.2560 -0.2617 -0.2115
 7497SOL     OW29753   2.123   0.907   4.029 -0.0370 -0.3161  0.4629
 7497SOL    HW229754   2.211   0.877   4.051  0.4912 -0.3874 -1.5238
 7497SOL    HW329755   2.075   0.827   4.008 -0.0752 -0.1575 -0.0696
 7497SOL    MW429756   2.129   0.893   4.029 -0.3637  0.1607  0.7443
 7498SOL     OW29757   6.147   6.166   2.868  0.8075  0.0268 -0.3367
 7498SOL    HW229758   6.165   6.171   2.962 -0.0759 -0.0708 -0.1513
 7498SOL    HW329759   6.222   6.208   2.827  1.5959 -0.6383  0.3717
 7498SOL    MW429760   6.159   6.172   2.875  0.6442 -0.8875 -0.1909
 7499SOL     OW29761   0.090   3.013   1.732 -0.3595 -0.0583 -0.1523
 7499SOL    HW229762   0.063   3.024   1.823 -0.1434  0.9017 -0.1953
 7499SOL    HW329763   0.072   2.921   1.713 -0.9847 -0.1186  0.6655
 7499SOL    MW429764   0.084   3.002   1.742  0.0414  0.0225 -0.4537
 7500SOL     OW29765   2.523   5.253   3.065 -0.3190 -0.3911  0.3444
 7500SOL    HW229766   2.508   5.181   3.005 -0.7104  0.7763 -1.0032
 7500SOL    HW329767   2.459   5.319   3.040 -0.0250  0.4043  1.5989
 7500SOL    MW429768   2.513   5.252   3.054  0.1927 -0.6921 -0.5281
 7501SOL     OW29769   4.930   1.864   6.114 -0.1771  0.6337 -0.4336
 7501SOL    HW229770   4.913   1.901   6.201  0.4314  0.9980 -0.4616
 7501SOL    HW329771   4.957   1.939   6.061  0.1823  0.2964 -0.7359
 7501SOL    MW429772   4.932   1.879   6.118  0.3395 -0.1883  0.5778
 7502SOL     OW29773   1.545   1.859   2.556  0.7105 -0.2721  0.4729
 7502SOL    HW229774   1.629   1.894   2.588  0.4073 -0.9250  2.0336
 7502SOL    HW329775   1.569   1.776   2.515  1.0515  0.4175 -0.8162
 7502SOL    MW429776   1.559   1.853   2.555  0.2151  0.2894  0.6666
 7503SOL     OW29777   4.550   2.214   0.366 -0.3406  0.0419 -0.1850
 7503SOL    HW229778   4.551   2.309   0.351 -0.4558  0.1817  0.6202
 7503SOL    HW329779   4.459   2.188   0.351 -0.3952  0.1345 -0.0283
 7503SOL    MW429780   4.538   2.223   0.362 -0.4785  0.1319  0.5830
 7504SOL     OW29781   2.317   5.096   4.156  0.0206 -0.2712 -0.4265
 7504SOL    HW229782   2.321   5.095   4.252 -3.5972  1.1755 -0.0976
 7504SOL    HW329783   2.270   5.016   4.133 -1.7353  0.7859 -0.6797
 7504SOL    MW429784   2.312   5.085   4.166 -0.4507  0.8991 -0.3310
 7505SOL     OW29785   5.443   0.141   2.684 -0.5508 -0.6636  0.0110
 7505SOL    HW229786   5.430   0.108   2.595  0.3791 -2.4381  0.4821
 7505SOL    HW329787   5.498   0.075   2.726  1.7154  1.6675  0.9840
 7505SOL    MW429788   5.449   0.128   2.678  0.2115 -0.5082 -0.7907
 7506SOL     OW29789   5.490   1.533   3.897  0.5978 -0.7271 -0.3256
 7506SOL    HW229790   5.413   1.552   3.844  0.4198  0.5125  0.3384
 7506SOL    HW329791   5.457   1.480   3.970  0.2352  0.3617  0.3186
 7506SOL    MW429792   5.475   1.528   3.900  0.1213  0.2213  0.4720
 7507SOL     OW29793   2.328   5.645   3.588  0.6259  0.0996  0.1833
 7507SOL    HW229794   2.373   5.712   3.537 -1.7008  0.2843 -1.8035
 7507SOL    HW329795   2.314   5.685   3.673  2.4452  0.7248  0.2418
 7507SOL    MW429796   2.332   5.659   3.592  0.0384 -0.1489 -0.3070
 7508SOL     OW29797   4.964   5.582   3.676 -0.4551  0.7132 -0.2042
 7508SOL    HW229798   4.908   5.632   3.736 -1.5785  0.3866 -0.9377
 7508SOL    HW329799   4.960   5.631   3.594 -0.7335 -0.0089 -0.6342
 7508SOL    MW429800   4.956   5.595   3.673  0.5350 -0.4517  0.3897
 7509SOL     OW29801   5.995   3.878   1.451 -0.4013 -0.7380  0.3041
 7509SOL    HW229802   6.052   3.940   1.495 -0.8066  0.1686 -0.4261
 7509SOL    HW329803   5.992   3.802   1.509  1.3262 -0.7008  0.4719
 7509SOL    MW429804   6.002   3.876   1.464  0.2975 -0.3566 -0.0922
 7510SOL     OW29805   5.072   5.691   1.218  0.1810  0.0831 -0.0842
 7510SOL    HW229806   5.011   5.642   1.163  0.8121  0.2629 -0.9534
 7510SOL    HW329807   5.095   5.768   1.167  0.2031  0.6418  0.7402
 7510SOL    MW429808   5.067   5.694   1.204 -0.1559  0.1462 -0.7623
 7511SOL     OW29809   0.067   4.424   5.271 -0.2159 -0.5414  0.8044
 7511SOL    HW229810   0.133   4.411   5.340  0.3810 -1.3013  0.1056
 7511SOL    HW329811  -0.014   4.391   5.310  0.0989 -0.9006  1.1705
 7511SOL    MW429812   0.065   4.418   5.285 -0.2656 -0.0673  0.3981
 7512SOL     OW29813   1.603   3.687   3.132 -0.2510 -0.1662 -0.3368
 7512SOL    HW229814   1.540   3.728   3.073  0.1377  1.0487  0.0773
 7512SOL    HW329815   1.580   3.719   3.219  0.5918 -0.1412 -0.1150
 7512SOL    MW429816   1.592   3.696   3.136  0.1753  0.5439 -0.1758
 7513SOL     OW29817   1.968   5.755   3.697 -0.0923  0.1681  0.3766
 7513SOL    HW229818   1.927   5.736   3.781 -0.3484 -1.0554 -0.0130
 7513SOL    HW329819   2.013   5.675   3.673  0.9831  0.8904 -0.1045
 7513SOL    MW429820   1.968   5.742   3.705  0.4479  0.0014  0.0760
 7514SOL     OW29821   1.969   4.884   4.305  0.3768 -0.2188  0.0061
 7514SOL    HW229822   1.911   4.941   4.355  0.2317 -0.4073  0.0528
 7514SOL    HW329823   1.957   4.911   4.214  0.4718 -0.0293  0.0479
 7514SOL    MW429824   1.960   4.895   4.299 -0.2215 -0.0979 -0.3667
 7515SOL     OW29825   3.867   3.786   2.103 -0.4629 -0.5885  0.1183
 7515SOL    HW229826   3.774   3.778   2.121 -1.0234  2.6281 -0.6362
 7515SOL    HW329827   3.886   3.879   2.116  2.4079 -0.9336 -0.8101
 7515SOL    MW429828   3.857   3.797   2.107 -0.3210 -0.0701  0.2274
 7516SOL     OW29829   3.075   0.786   4.179  1.1605  0.0114  0.0621
 7516SOL    HW229830   3.049   0.792   4.271 -0.0780  0.3976 -0.3019
 7516SOL    HW329831   3.019   0.717   4.143  2.7186 -1.2687 -0.0661
 7516SOL    MW429832   3.064   0.778   4.187 -0.4219 -0.6442 -0.3654
 7517SOL     OW29833   2.334   0.208   3.393  0.4094  0.0223 -0.3829
 7517SOL    HW229834   2.341   0.120   3.431 -2.6238  0.0501  0.4590
 7517SOL    HW329835   2.315   0.193   3.300  3.0122 -0.0881 -0.9757
 7517SOL    MW429836   2.333   0.194   3.386 -0.2850  0.0774  0.5445
 7518SOL     OW29837   4.900   3.720   2.194 -0.4097 -0.1917 -0.1719
 7518SOL    HW229838   4.815   3.715   2.238 -0.0071 -1.5861  0.5159
 7518SOL    HW329839   4.963   3.725   2.266  0.1844 -1.0244 -0.6291
 7518SOL    MW429840   4.897   3.720   2.209 -0.0791  0.5673  0.5992
 7519SOL     OW29841   4.109   4.216   6.059  0.3365  0.0574  0.5364
 7519SOL    HW229842   4.083   4.186   6.146 -0.6250 -0.7502 -0.0076
 7519SOL    HW329843   4.032   4.261   6.025  0.6623  0.2543  0.0393
 7519SOL    MW429844   4.095   4.218   6.066  0.2431 -0.0908  0.6444
 7520SOL     OW29845   0.650   5.395   2.688 -0.9974 -0.2271 -0.5996
 7520SOL    HW229846   0.715   5.457   2.654 -0.9756 -1.1456 -2.3323
 7520SOL    HW329847   0.566   5.441   2.679 -0.7176  0.7128  1.0551
 7520SOL    MW429848   0.647   5.409   2.682 -0.3466 -0.8241  0.2278
 7521SOL     OW29849   1.176   4.109   0.717 -0.1818 -0.0646 -0.5749
 7521SOL    HW229850   1.214   4.046   0.778 -1.3523 -2.3835 -2.1026
 7521SOL    HW329851   1.252   4.154   0.679  0.6645 -0.1786  0.8970
 7521SOL    MW429852   1.191   4.107   0.720  0.2144  0.2255  0.3812
 7522SOL     OW29853   3.081   3.115   1.950 -0.0253  0.3687 -0.2690
 7522SOL    HW229854   3.000   3.163   1.968  1.0796  1.7924  1.3281
 7522SOL    HW329855   3.069   3.031   1.994 -0.9198  0.2381 -0.7330
 7522SOL    MW429856   3.069   3.110   1.958 -0.4118  0.1785  0.3627
 7523SOL     OW29857   0.451   3.735   0.439 -0.9095  0.4497  0.4431
 7523SOL    HW229858   0.367   3.763   0.404 -0.4617  0.9331 -0.2693
 7523SOL    HW329859   0.510   3.734   0.363 -0.8921 -2.5269  0.3623
 7523SOL    MW429860   0.448   3.739   0.424  0.0457 -0.0637 -0.0805
 7524SOL     OW29861   2.858   4.538   0.743 -0.6196 -0.2025 -0.0088
 7524SOL    HW229862   2.779   4.483   0.748 -0.7152 -0.3468 -2.1022
 7524SOL    HW329863   2.930   4.480   0.768 -1.1233 -0.0608  1.9653
 7524SOL    MW429864   2.857   4.523   0.747 -0.9120 -0.2503  0.3167
 7525SOL     OW29865   3.981   0.812   3.641 -0.0319  0.4352  0.4381
 7525SOL    HW229866   4.028   0.895   3.641  0.5002  0.1521  1.6001
 7525SOL    HW329867   3.894   0.832   3.676 -0.4644  0.7659 -0.7515
 7525SOL    MW429868   3.976   0.825   3.645 -0.1551 -0.3804  0.2683
 7526SOL     OW29869   3.705   2.227   2.336 -0.4875 -0.0220 -0.5152
 7526SOL    HW229870   3.674   2.264   2.253  0.8727 -0.4637 -1.2547
 7526SOL    HW329871   3.638   2.164   2.361 -0.8807  0.0648 -1.3288
 7526SOL    MW429872   3.692   2.223   2.328 -0.1153 -0.3611 -0.0166
 7527SOL     OW29873   4.230   0.626   6.254  0.0820  0.0115  0.8449
 7527SOL    HW229874   4.310   0.617   6.306  1.0812  0.2266 -0.6067
 7527SOL    HW329875   4.254   0.592   6.167 -1.1718  0.7822  0.1798
 7527SOL    MW429876   4.244   0.620   6.249 -0.0243 -0.5050 -0.2617
 7528SOL     OW29877   1.571   4.813   6.361  0.7582  0.1003  0.7874
 7528SOL    HW229878   1.491   4.821   6.412  0.7296 -1.4674  1.0323
 7528SOL    HW329879   1.559   4.734   6.309  1.9157  0.1427  0.4190
 7528SOL    MW429880   1.559   4.804   6.361 -0.5598  0.0861 -0.0235
 7529SOL     OW29881   1.981   6.366   3.305  0.8292  0.0104 -0.3197
 7529SOL    HW229882   1.902   6.313   3.306  0.0826  1.0790 -0.7572
 7529SOL    HW329883   2.027   6.343   3.385 -0.1979 -0.2226  0.2170
 7529SOL    MW429884   1.977   6.356   3.316 -0.2672 -0.2974  0.3632
 7530SOL     OW29885   1.640   1.361   6.115  0.0134  0.4052  0.0894
 7530SOL    HW229886   1.707   1.423   6.087 -0.2476  0.3373 -0.7201
 7530SOL    HW329887   1.590   1.342   6.035  1.0267 -2.0318 -0.0529
 7530SOL    MW429888   1.642   1.366   6.100  0.0994 -0.6664  0.6633
 7531SOL     OW29889   0.441   3.754   1.694  0.3288  0.0328 -0.4085
 7531SOL    HW229890   0.418   3.755   1.601 -0.8605  1.1859 -0.1411
 7531SOL    HW329891   0.388   3.683   1.731  2.1727 -1.6546 -0.8878
 7531SOL    MW429892   0.431   3.745   1.687 -0.8693 -0.6796 -0.1550
 7532SOL     OW29893   2.009   3.449   4.506  0.0491 -0.3869 -0.2220
 7532SOL    HW229894   2.060   3.389   4.451  2.7681  1.9362 -0.4565
 7532SOL    HW329895   2.049   3.535   4.491 -3.8442  1.6306 -0.1519
 7532SOL    MW429896   2.021   3.452   4.497  0.4845  0.0725  0.3746
 7533SOL     OW29897   4.425   0.871   4.401  0.2453  0.4033 -0.3179
 7533SOL    HW229898   4.418   0.802   4.467 -2.7704 -0.3127 -1.2117
 7533SOL    HW329899   4.515   0.865   4.369  0.2283 -2.9680 -0.1410
 7533SOL    MW429900   4.436   0.861   4.406  0.5368  0.5460  0.1446
 7534SOL     OW29901   3.215   1.947   1.411  0.3242 -0.4911  0.2702
 7534SOL    HW229902   3.282   1.879   1.413  0.7918 -0.1187 -1.0464
 7534SOL    HW329903   3.262   2.027   1.438  0.6539 -0.0774 -1.4056
 7534SOL    MW429904   3.230   1.949   1.415 -0.1286  0.0790 -0.2354
 7535SOL     OW29905   3.805   0.945   1.377 -0.5474 -0.1217 -0.4201
 7535SOL    HW229906   3.843   0.994   1.304  0.7770  0.7349  0.7828
 7535SOL    HW329907   3.732   0.896   1.338  0.7620 -0.5203 -2.4964
 7535SOL    MW429908   3.800   0.945   1.362  0.0397 -0.0463 -0.1034
 7536SOL     OW29909   4.921   4.011   3.512  0.4469 -0.3700 -0.1731
 7536SOL    HW229910   4.984   3.942   3.535  0.5080  0.4168  2.3966
 7536SOL    HW329911   4.840   3.965   3.493  0.9420 -1.2254 -0.2623
 7536SOL    MW429912   4.919   3.996   3.513 -0.4147 -0.0950  0.7460
 7537SOL     OW29913   1.701   4.205   3.650  0.5950  0.2164  0.4225
 7537SOL    HW229914   1.675   4.147   3.722 -0.1148  1.4675  1.2123
 7537SOL    HW329915   1.627   4.204   3.591  1.0582 -0.5785 -0.1577
 7537SOL    MW429916   1.688   4.197   3.652  0.3066 -0.0135 -0.4748
 7538SOL     OW29917   6.107   4.826   2.234 -0.1228  0.0069 -0.4828
 7538SOL    HW229918   6.018   4.806   2.264 -0.2666  1.2411 -0.0293
 7538SOL    HW329919   6.145   4.741   2.213 -1.1297 -0.6080  0.1160
 7538SOL    MW429920   6.100   4.812   2.235 -0.9847 -0.9620 -0.6485
 7539SOL     OW29921   3.984   5.010   6.065 -0.1170  0.0290 -0.2950
 7539SOL    HW229922   3.935   5.048   6.138 -2.5481  1.3299 -2.4659
 7539SOL    HW329923   3.922   4.954   6.020  1.2143 -0.4704 -1.6000
 7539SOL    MW429924   3.970   5.007   6.069  0.3925  0.0244  0.3198
 7540SOL     OW29925   5.851   1.272   5.266 -1.1169  0.4592  0.7972
 7540SOL    HW229926   5.914   1.344   5.276  0.9858 -0.8811 -1.7145
 7540SOL    HW329927   5.775   1.313   5.225  0.3453  1.2044 -1.3358
 7540SOL    MW429928   5.849   1.287   5.262 -0.0337  0.0148  0.2007
 7541SOL     OW29929   5.483   1.859   2.825 -0.0788  0.0020 -0.1318
 7541SOL    HW229930   5.501   1.880   2.916 -0.1899 -0.6358  0.0457
 7541SOL    HW329931   5.497   1.941   2.778 -4.4576  1.7002  1.0098
 7541SOL    MW429932   5.487   1.872   2.831  0.3163 -0.6460 -0.3958
 7542SOL     OW29933   0.056   4.825   4.650 -0.0760 -0.1134  0.1555
 7542SOL    HW229934   0.011   4.777   4.580 -1.2398  1.0642  0.0569
 7542SOL    HW329935   0.144   4.841   4.615 -0.0832 -1.0419 -0.3212
 7542SOL    MW429936   0.061   4.821   4.636  0.3729 -0.1523  0.4196
 7543SOL     OW29937   1.687   6.069   0.315  0.3402  0.4650 -0.2501
 7543SOL    HW229938   1.631   6.064   0.238 -0.2683 -0.2431  0.2250
 7543SOL    HW329939   1.775   6.084   0.280  0.1741 -0.4626 -1.1183
 7543SOL    MW429940   1.691   6.070   0.300  0.1965  0.3059  0.0891
 7544SOL     OW29941   1.004   3.895   6.187  0.1843  0.1194 -0.3387
 7544SOL    HW229942   0.955   3.949   6.249  1.6318  0.0528  0.9241
 7544SOL    HW329943   0.964   3.913   6.102 -0.6211  1.6698  0.3323
 7544SOL    MW429944   0.992   3.904   6.184 -0.0634  0.0123  0.0087
 7545SOL     OW29945   2.283   3.179   1.049  0.0830  0.3202 -0.0206
 7545SOL    HW229946   2.200   3.204   1.088 -0.4280 -0.3852 -0.6160
 7545SOL    HW329947   2.297   3.089   1.077  0.9421  0.6216  0.5463
 7545SOL    MW429948   2.274   3.171   1.058  0.1930  0.1597  0.8507
 7546SOL     OW29949   3.972   0.571   1.478  0.0791 -0.4899  1.0142
 7546SOL    HW229950   4.014   0.510   1.539  3.1167  0.0925 -0.3147
 7546SOL    HW329951   3.978   0.656   1.521  1.4283 -0.2154  0.3105
 7546SOL    MW429952   3.978   0.574   1.492  0.1997  0.4030 -0.2792
 7547SOL     OW29953   2.455   3.079   4.275  0.0285  0.6420  0.4746
 7547SOL    HW229954   2.419   3.159   4.236  0.5538  0.4983 -0.3271
 7547SOL    HW329955   2.497   3.034   4.202  1.7010  0.7260  1.3500
 7547SOL    MW429956   2.456   3.083   4.261  0.4041 -0.3755  0.1625
 7548SOL     OW29957   5.822   5.183   5.448  0.0202  0.2992 -0.3057
 7548SOL    HW229958   5.755   5.246   5.473 -0.7856 -0.0490 -1.5111
 7548SOL    HW329959   5.904   5.220   5.482 -0.3944  2.1178 -1.2102
 7548SOL    MW429960   5.824   5.196   5.456  0.3199 -0.5997  0.2248
 7549SOL     OW29961   0.562   3.598   4.984 -0.0099  0.0108 -0.3211
 7549SOL    HW229962   0.561   3.515   4.935 -1.7075 -0.2415  0.0684
 7549SOL    HW329963   0.482   3.595   5.037 -0.4888  2.2287 -0.8352
 7549SOL    MW429964   0.552   3.586   4.985  0.2661 -0.5378 -0.5822
 7550SOL     OW29965   3.604   3.211   2.588  0.7010 -0.7579 -0.3042
 7550SOL    HW229966   3.562   3.137   2.631 -0.1520  0.7447  1.6381
 7550SOL    HW329967   3.559   3.219   2.504 -1.7871 -0.3001  0.9659
 7550SOL    MW429968   3.593   3.203   2.583 -0.5271 -0.3668 -0.8146
 7551SOL     OW29969   0.657   6.363   4.002  0.2780  0.0734 -0.1608
 7551SOL    HW229970   0.713   6.441   4.001 -1.1055  1.1139  0.1069
 7551SOL    HW329971   0.569   6.397   4.019 -0.1741 -1.6878  1.3922
 7551SOL    MW429972   0.652   6.378   4.004 -0.0122  0.2021 -0.1235
 7552SOL     OW29973   1.690   3.351   4.691 -0.2695  0.3420 -0.2139
 7552SOL    HW229974   1.735   3.272   4.660 -0.8409 -0.0167 -0.1356
 7552SOL    HW329975   1.612   3.319   4.735  0.2929  0.8693  1.2203
 7552SOL    MW429976   1.686   3.336   4.693  0.2451  0.0633 -0.1785
 7553SOL     OW29977   2.283   4.399   2.974 -0.2730  0.3861  0.2854
 7553SOL    HW229978   2.367   4.395   2.929 -0.1456  0.1665  0.5399
 7553SOL    HW329979   2.229   4.335   2.929 -0.6587  1.2903 -0.5862
 7553SOL    MW429980   2.287   4.390   2.962 -0.4935  0.5664  0.1485
 7554SOL     OW29981   5.748   3.860   2.021 -0.8970  0.0770  0.1807
 7554SOL    HW229982   5.706   3.938   1.986 -1.4334 -0.4436 -0.3641
 7554SOL    HW329983   5.801   3.892   2.095  1.0100  1.3428 -1.6365
 7554SOL    MW429984   5.750   3.874   2.026 -0.5704  0.1123 -0.2333
 7555SOL     OW29985   2.298   1.476   4.979  0.1305 -0.6161 -0.2561
 7555SOL    HW229986   2.305   1.395   5.030  1.5784  0.3489  1.1859
 7555SOL    HW329987   2.297   1.545   5.045 -2.5044  0.5484 -1.3840
 7555SOL    MW429988   2.299   1.474   4.995 -0.2770  0.1347  0.0266
 7556SOL     OW29989   3.817   0.029   5.359 -0.5031 -0.2301 -0.1728
 7556SOL    HW229990   3.908   0.008   5.376 -0.9504 -2.1319  0.0739
 7556SOL    HW329991   3.788   0.075   5.438 -0.7424 -3.0375  1.4982
 7556SOL    MW429992   3.825   0.032   5.371  0.0852 -0.2838  0.0246
 7557SOL     OW29993   3.674   2.646   5.376  0.4201  0.7718  0.2131
 7557SOL    HW229994   3.624   2.574   5.412  2.6451 -2.3873 -2.4056
 7557SOL    HW329995   3.609   2.711   5.351 -1.8906 -1.1008  1.0230
 7557SOL    MW429996   3.659   2.645   5.378 -0.3744 -0.1064  0.8296
 7558SOL     OW29997   0.056   1.951   5.892  0.2566  0.1119 -0.2116
 7558SOL    HW229998   0.076   1.897   5.816 -0.1377 -0.0803 -0.1811
 7558SOL    HW329999   0.140   1.961   5.937  0.1978 -1.1250  0.1986
 7558SOL    MW430000   0.070   1.945   5.888  0.2036  0.3538 -0.7852
 7559SOL     OW30001   0.028   2.377   5.082 -0.1465 -0.0731 -0.5708
 7559SOL    HW230002   0.011   2.449   5.143  0.9405  0.3580 -0.7531
 7559SOL    HW330003   0.121   2.385   5.061  0.5907 -2.8600  1.1361
 7559SOL    MW430004   0.038   2.388   5.087  0.0519  0.0869 -0.5648
 7560SOL     OW30005   5.749   3.819   5.510  0.1716  0.4308 -0.6853
 7560SOL    HW230006   5.690   3.789   5.578  1.6932 -0.3756  0.3355
 7560SOL    HW330007   5.721   3.772   5.431 -0.4925  0.0143 -0.2085
 7560SOL    MW430008   5.738   3.809   5.508 -0.4529  0.1146 -0.1170
 7561SOL     OW30009   5.744   3.557   2.151  0.0678 -0.8227  0.2812
 7561SOL    HW230010   5.780   3.629   2.203  0.9489 -0.8985 -0.1969
 7561SOL    HW330011   5.683   3.513   2.210  1.1897 -1.0318  1.3348
 7561SOL    MW430012   5.741   3.560   2.166 -0.2889 -0.6870 -0.4841
 7562SOL     OW30013   0.200   0.987   1.302  0.4339 -0.2769 -0.4401
 7562SOL    HW230014   0.136   0.938   1.250  0.6251 -2.1492  0.9812
 7562SOL    HW330015   0.279   0.933   1.301  0.8066  0.2075  0.8134
 7562SOL    MW430016   0.202   0.973   1.295 -0.1721  0.6662  0.4809
 7563SOL     OW30017   1.084   5.703   4.631 -0.1278  0.3645  0.1147
 7563SOL    HW230018   1.088   5.784   4.682  0.8343  0.9044 -0.7638
 7563SOL    HW330019   0.996   5.668   4.647 -1.5922  2.9881 -1.5544
 7563SOL    MW430020   1.073   5.709   4.640  0.7107  0.0034  0.2659
 7564SOL     OW30021   2.245   5.252   5.893 -0.1422  0.0991  0.4173
 7564SOL    HW230022   2.298   5.180   5.927 -0.8346 -0.0868  1.1603
 7564SOL    HW330023   2.287   5.331   5.927  0.3153  0.0167  0.0423
 7564SOL    MW430024   2.257   5.253   5.902 -0.8959 -0.1776 -0.4002
 7565SOL     OW30025   1.092   4.808   6.127 -0.1355 -0.0878 -0.3327
 7565SOL    HW230026   1.091   4.730   6.182 -0.2499 -0.6562 -1.1161
 7565SOL    HW330027   1.146   4.784   6.052  0.1498  0.7242 -0.4007
 7565SOL    MW430028   1.099   4.795   6.124 -0.2792 -0.1055  0.0755
 7566SOL     OW30029   5.388   1.091   4.657 -0.0243 -0.1988  0.1489
 7566SOL    HW230030   5.430   1.133   4.582 -3.3917  0.8833 -1.2768
 7566SOL    HW330031   5.377   1.000   4.630 -1.8379  0.3311 -1.0573
 7566SOL    MW430032   5.392   1.084   4.644 -0.0038 -0.3833  0.8300
 7567SOL     OW30033   0.455   6.099   0.540 -0.1042  0.4535 -0.3768
 7567SOL    HW230034   0.384   6.162   0.532  0.1193  0.9050  0.9216
 7567SOL    HW330035   0.420   6.031   0.598  0.6458  0.9013  0.6305
 7567SOL    MW430036   0.441   6.098   0.547  0.3488  0.4409  0.5656
 7568SOL     OW30037   0.543   0.276   4.016  0.3501  0.2911  0.0628
 7568SOL    HW230038   0.505   0.310   3.934 -0.5677 -0.8444 -0.0155
 7568SOL    HW330039   0.564   0.354   4.067 -1.2658  1.0002 -0.2917
 7568SOL    MW430040   0.541   0.290   4.012  0.0288  0.2503  0.9889
 7569SOL     OW30041   5.699   2.174   0.717 -0.3218 -0.0276 -0.2329
 7569SOL    HW230042   5.667   2.098   0.766 -0.8918 -0.4570 -1.2461
 7569SOL    HW330043   5.660   2.165   0.630  1.5593  0.1255 -1.1309
 7569SOL    MW430044   5.690   2.163   0.712  0.3681  0.3022 -0.1516
 7570SOL     OW30045   3.173   1.545   0.732 -0.2383  0.6828 -0.0479
 7570SOL    HW230046   3.217   1.460   0.730 -0.8938  0.3472 -1.1132
 7570SOL    HW330047   3.243   1.608   0.716  0.2378  0.3433  0.6618
 7570SOL    MW430048   3.188   1.542   0.729 -0.5189 -0.3029  0.3304
 7571SOL     OW30049   2.678   2.391   1.325 -0.4240  0.1871 -0.2544
 7571SOL    HW230050   2.758   2.444   1.329  0.1737 -0.7595  1.2415
 7571SOL    HW330051   2.608   2.455   1.314  0.5773  0.9656 -2.7625
 7571SOL    MW430052   2.679   2.407   1.324 -0.2170 -0.1634 -0.3401
 7572SOL     OW30053   3.884   3.550   5.231  0.2131 -0.0119 -0.1943
 7572SOL    HW230054   3.846   3.635   5.257 -0.1428 -0.9572  2.8023
 7572SOL    HW330055   3.875   3.548   5.136  0.5082  3.4143 -0.4220
 7572SOL    MW430056   3.878   3.561   5.222 -0.0538 -0.2020  0.2675
 7573SOL     OW30057   0.755   1.505   0.682  0.0178 -0.4249  0.3353
 7573SOL    HW230058   0.779   1.528   0.592  1.5667 -3.4679 -0.1670
 7573SOL    HW330059   0.752   1.589   0.728 -0.3628  1.1930 -2.4175
 7573SOL    MW430060   0.758   1.519   0.676  0.1487 -0.2050  0.2856
 7574SOL     OW30061   3.111   2.840   0.779  0.6885 -0.2869 -0.2628
 7574SOL    HW230062   3.071   2.900   0.716  1.9558  0.9001  0.0115
 7574SOL    HW330063   3.050   2.766   0.783  0.3731 -0.2464 -2.5880
 7574SOL    MW430064   3.098   2.839   0.771  0.0376 -0.4194  0.1908
 7575SOL     OW30065   3.270   1.555   5.029 -0.0106  0.4452  0.2408
 7575SOL    HW230066   3.279   1.492   5.100 -0.0238  1.4594  1.1618
 7575SOL    HW330067   3.351   1.605   5.031  0.9331 -0.8908 -1.8579
 7575SOL    MW430068   3.282   1.553   5.039  0.2869  0.0328 -0.4780
 7576SOL     OW30069   5.864   3.938   6.133 -0.0024  0.0664  0.1918
 7576SOL    HW230070   5.868   3.983   6.217 -1.0833  1.7795 -0.6131
 7576SOL    HW330071   5.874   4.008   6.067  1.3934 -1.2892 -1.1308
 7576SOL    MW430072   5.866   3.953   6.135 -0.0784 -0.0697  0.1396
 7577SOL     OW30073   2.272   6.251   2.463  0.3328  0.6368 -0.0929
 7577SOL    HW230074   2.252   6.169   2.418  2.9330  1.0151 -2.2165
 7577SOL    HW330075   2.213   6.316   2.424  0.2800  0.3089 -0.5614
 7577SOL    MW430076   2.262   6.249   2.452  0.2893 -0.2172 -0.2996
 7578SOL     OW30077   2.291   1.346   4.135  0.4092 -0.1318  0.0390
 7578SOL    HW230078   2.343   1.266   4.135  0.0668 -0.4671 -3.2389
 7578SOL    HW330079   2.204   1.317   4.163  0.0888 -1.1118 -1.8537
 7578SOL    MW430080   2.286   1.332   4.139 -0.0337 -0.1133 -0.0204
 7579SOL     OW30081   4.612   0.579   5.702  0.4206 -1.0982 -0.1303
 7579SOL    HW230082   4.575   0.532   5.628  0.6339 -1.8413  0.2321
 7579SOL    HW330083   4.668   0.646   5.662 -0.6701 -0.4642 -0.6703
 7579SOL    MW430084   4.614   0.582   5.687 -0.3476 -0.0201  0.2301
 7580SOL     OW30085   3.341   2.174   0.099  0.1779  0.2522 -0.2635
 7580SOL    HW230086   3.310   2.221   0.021  2.0581  1.2274 -0.4585
 7580SOL    HW330087   3.420   2.220   0.126  0.3954 -0.9807  1.3649
 7580SOL    MW430088   3.347   2.186   0.092  0.3612 -0.4995  0.0545
 7581SOL     OW30089   0.355   5.907   0.702  0.1648 -0.4066 -0.2653
 7581SOL    HW230090   0.416   5.835   0.716  0.3691 -0.2435 -0.3071
 7581SOL    HW330091   0.339   5.943   0.789 -0.2284 -0.7363 -0.1989
 7581SOL    MW430092   0.361   5.902   0.715 -0.7323  0.1600  0.1116
 7582SOL     OW30093   0.265   1.558   4.645  0.4449 -0.0246 -0.4777
 7582SOL    HW230094   0.307   1.591   4.565  0.6744  1.3897  0.2076
 7582SOL    HW330095   0.171   1.566   4.628  0.4932  0.2736 -0.6071
 7582SOL    MW430096   0.258   1.563   4.632  0.3057 -0.1247 -0.3032
 7583SOL     OW30097   0.343   4.125   4.123  0.4826  0.3011  0.0141
 7583SOL    HW230098   0.404   4.057   4.093  0.1868 -0.2894  0.7252
 7583SOL    HW330099   0.346   4.191   4.054  1.3942 -0.0489 -0.3052
 7583SOL    MW430100   0.352   4.124   4.110  0.7476  0.0006 -0.0772
 7584SOL     OW30101   4.074   1.801   5.125 -0.0025 -0.5197 -0.1160
 7584SOL    HW230102   4.146   1.828   5.068 -0.9437  2.4545 -0.0544
 7584SOL    HW330103   4.116   1.780   5.208  1.1621 -2.9691 -1.2219
 7584SOL    MW430104   4.089   1.801   5.128 -0.2330  0.0877  0.0299
 7585SOL     OW30105   3.271   3.738   1.948  0.2776 -0.3506  0.6070
 7585SOL    HW230106   3.320   3.680   2.007 -1.3799  0.8468  3.3546
 7585SOL    HW330107   3.275   3.823   1.991  0.1935  0.9645 -1.8400
 7585SOL    MW430108   3.278   3.741   1.962 -0.8327 -0.2030  0.6159
 7586SOL     OW30109   4.841   0.754   5.317 -0.3885 -0.1410  0.3204
 7586SOL    HW230110   4.899   0.704   5.259  0.0696 -1.0491  1.5175
 7586SOL    HW330111   4.760   0.703   5.319 -0.4860  0.0131  0.2976
 7586SOL    MW430112   4.838   0.740   5.309 -0.4384 -0.1873 -0.0687
 7587SOL     OW30113   1.374   5.945   1.741  0.0242  0.2407 -0.6618
 7587SOL    HW230114   1.352   6.004   1.813  2.7963  0.6447 -0.0463
 7587SOL    HW330115   1.395   6.004   1.667 -0.1174 -0.0793 -0.9595
 7587SOL    MW430116   1.374   5.961   1.740 -0.4011  0.0233  0.3091
 7588SOL     OW30117   0.908   3.946   0.184 -0.4505 -1.0958  0.0058
 7588SOL    HW230118   0.997   3.941   0.219 -0.6188 -1.1467  0.4321
 7588SOL    HW330119   0.901   3.871   0.125  0.0882 -0.5723 -0.7327
 7588SOL    MW430120   0.918   3.936   0.181  0.5175 -0.0449 -0.2751
 7589SOL     OW30121   0.454   2.149   3.317 -0.6152 -0.5733 -0.3284
 7589SOL    HW230122   0.470   2.171   3.409  0.1167  0.8714 -0.7596
 7589SOL    HW330123   0.435   2.234   3.276 -1.9023 -1.3134 -1.3352
 7589SOL    MW430124   0.454   2.163   3.324  0.5662  0.3871  0.0017
 7590SOL     OW30125   3.556   6.381   2.670 -0.0070 -0.6825  0.0243
 7590SOL    HW230126   3.610   6.311   2.634  0.9217  0.3094 -0.5461
 7590SOL    HW330127   3.491   6.335   2.725  1.6593 -1.8839  1.0982
 7590SOL    MW430128   3.555   6.366   2.673 -0.2642 -0.1478 -0.0655
 7591SOL     OW30129   4.083   5.153   3.424 -0.3584 -0.3908 -0.6797
 7591SOL    HW230130   4.045   5.109   3.501  1.7038  0.2507  0.7858
 7591SOL    HW330131   4.151   5.094   3.394  0.7043  0.5997 -0.2792
 7591SOL    MW430132   4.087   5.139   3.430 -0.3779 -0.1805 -0.0500
 7592SOL     OW30133   5.436   4.421   1.306 -0.3689  0.4182 -0.2699
 7592SOL    HW230134   5.450   4.508   1.343  0.1900 -0.3027  1.2939
 7592SOL    HW330135   5.504   4.413   1.238  1.8867 -0.0289  1.8898
 7592SOL    MW430136   5.447   4.431   1.302  0.6942 -0.0337 -0.2930
 7593SOL     OW30137   2.219   2.254   3.422 -0.2771  0.4023 -0.1762
 7593SOL    HW230138   2.208   2.170   3.378 -0.9956 -0.3876  1.4346
 7593SOL    HW330139   2.137   2.301   3.404 -1.2359 -0.5327  1.5167
 7593SOL    MW430140   2.207   2.250   3.414  0.3765 -0.2067 -0.1478
 7594SOL     OW30141   2.671   0.045   1.170 -0.7808 -0.4456 -0.4986
 7594SOL    HW230142   2.739   0.079   1.112 -0.2759  0.5603  0.6531
 7594SOL    HW330143   2.589   0.082   1.136 -0.7540 -1.4168 -1.7006
 7594SOL    MW430144   2.669   0.054   1.158  0.0778  0.0582  0.4265
 7595SOL     OW30145   1.636   0.006   4.101 -0.4369 -0.0423  0.0571
 7595SOL    HW230146   1.719   0.004   4.052 -0.1441 -0.2201  0.5614
 7595SOL    HW330147   1.659  -0.025   4.188 -0.7556  1.2154  0.6114
 7595SOL    MW430148   1.650   0.002   4.106  0.4334 -0.0725  0.5141
 7596SOL     OW30149   5.623   3.867   0.689  0.4844  0.3689 -0.3960
 7596SOL    HW230150   5.661   3.787   0.724 -0.6810  0.5131  1.3389
 7596SOL    HW330151   5.575   3.840   0.611  0.4823 -0.5480 -0.0812
 7596SOL    MW430152   5.622   3.853   0.683 -0.2563  0.0582  0.1748
 7597SOL     OW30153   0.614   4.910   4.775 -0.2738 -0.1700  0.4182
 7597SOL    HW230154   0.554   4.896   4.849 -1.7804 -0.0346 -0.7397
 7597SOL    HW330155   0.582   4.988   4.732  0.6941 -0.1534 -0.3066
 7597SOL    MW430156   0.602   4.918   4.779  0.8312  0.2526 -0.2759
 7598SOL     OW30157   4.365   4.468   0.609  0.1972 -0.2330  0.0725
 7598SOL    HW230158   4.282   4.426   0.587  0.7039 -1.4573  0.4129
 7598SOL    HW330159   4.349   4.508   0.695 -0.4997  0.8846 -0.5692
 7598SOL    MW430160   4.352   4.467   0.618  0.4579  0.3046  0.0695
 7599SOL     OW30161   2.098   6.396   0.981 -0.2288 -0.1959 -0.3126
 7599SOL    HW230162   2.104   6.300   0.982 -0.7538 -0.2355 -0.4493
 7599SOL    HW330163   2.094   6.418   0.888 -0.1612 -0.0462 -0.2790
 7599SOL    MW430164   2.098   6.386   0.969 -0.6420  0.3399 -0.5232
 7600SOL     OW30165   3.474   6.366   3.600  0.2564  0.4994  0.1790
 7600SOL    HW230166   3.482   6.294   3.537 -0.4298  1.4326 -1.0293
 7600SOL    HW330167   3.458   6.323   3.684  0.9634 -0.7770 -0.3208
 7600SOL    MW430168   3.473   6.351   3.603  0.3370 -0.2309  0.3393
 7601SOL     OW30169   6.211   3.597   3.774 -0.6035  0.4492 -0.0310
 7601SOL    HW230170   6.184   3.516   3.730 -0.3598  0.4488 -0.1859
 7601SOL    HW330171   6.130   3.642   3.794 -0.8935 -0.8567  2.0515
 7601SOL    MW430172   6.197   3.592   3.770 -0.0679  0.3523 -0.5287
 7602SOL     OW30173   3.002   3.680   6.148  0.3647  0.3121  0.0458
 7602SOL    HW230174   2.949   3.607   6.117  0.7206  0.3720 -0.7311
 7602SOL    HW330175   2.991   3.748   6.081  0.9951  0.5213  0.1489
 7602SOL    MW430176   2.993   3.680   6.135 -0.3108 -1.0302  0.5601
 7603SOL     OW30177   5.319   4.015   1.126  0.4003 -0.3743  0.2293
 7603SOL    HW230178   5.347   3.925   1.141 -0.9057 -0.8786 -0.1811
 7603SOL    HW330179   5.289   4.045   1.212 -0.6439 -0.8949  0.0641
 7603SOL    MW430180   5.318   4.007   1.139 -0.2370 -0.5889  0.0269
 7604SOL     OW30181   1.935   3.555   2.024  0.0060  0.2977  0.2772
 7604SOL    HW230182   1.848   3.576   2.057  0.1577 -0.9470  1.5393
 7604SOL    HW330183   1.990   3.627   2.054 -0.7051  1.5945 -1.3356
 7604SOL    MW430184   1.931   3.567   2.032  0.1766  0.4515  0.3915
 7605SOL     OW30185   1.115   5.145   0.032  0.0479 -0.1490  0.0784
 7605SOL    HW230186   1.032   5.177  -0.001  0.4077 -0.8427 -1.6491
 7605SOL    HW330187   1.172   5.222   0.034 -0.6505  0.3423  1.3572
 7605SOL    MW430188   1.112   5.159   0.028  0.3834  0.1922 -0.4186
 7606SOL     OW30189   1.808   4.411   4.439 -0.4857  0.5595  0.1966
 7606SOL    HW230190   1.789   4.357   4.362  0.1676  0.4892  0.0789
 7606SOL    HW330191   1.838   4.494   4.402 -1.3874  0.9752  0.3759
 7606SOL    MW430192   1.809   4.415   4.424  0.4981  0.0410 -0.3528
 7607SOL     OW30193   6.102   3.750   4.547  0.5053 -0.1852  0.3349
 7607SOL    HW230194   6.131   3.667   4.586 -0.5021 -0.4938  0.4731
 7607SOL    HW330195   6.147   3.754   4.463  0.9190 -0.6545  0.5293
 7607SOL    MW430196   6.112   3.739   4.541  0.4555  0.1592  0.1362
 7608SOL     OW30197   3.879   6.293   0.884  0.0435 -0.2830 -0.2538
 7608SOL    HW230198   3.956   6.270   0.832 -0.0734 -1.0162 -0.1247
 7608SOL    HW330199   3.854   6.210   0.926 -0.7242 -0.0176 -0.1797
 7608SOL    MW430200   3.886   6.279   0.883  0.0272  0.2843 -0.7129
 7609SOL     OW30201   4.049   0.921   5.325  0.4543 -0.1301 -0.4279
 7609SOL    HW230202   4.028   0.905   5.417 -1.3497  0.0073 -0.7676
 7609SOL    HW330203   4.132   0.969   5.327  0.2416  0.2316  1.1474
 7609SOL    MW430204   4.057   0.925   5.337  0.0312  0.0675 -0.1184
 7610SOL     OW30205   2.607   1.945   4.850  0.2045  0.2661 -0.2673
 7610SOL    HW230206   2.698   1.934   4.880 -0.8197 -2.7300  2.3242
 7610SOL    HW330207   2.570   2.008   4.911  0.3630  1.0212 -0.9417
 7610SOL    MW430208   2.614   1.952   4.862  0.0106  0.6700  1.1725
 7611SOL     OW30209   5.457   2.434   0.526 -0.2079  0.1646 -0.0480
 7611SOL    HW230210   5.395   2.423   0.598 -0.3211 -1.2017 -0.3207
 7611SOL    HW330211   5.425   2.510   0.478 -1.8799 -0.7054 -0.3675
 7611SOL    MW430212   5.445   2.443   0.529  0.1082  0.1333  0.0097
 7612SOL     OW30213   0.275   4.637   6.212 -0.2760 -0.3440  0.0380
 7612SOL    HW230214   0.251   4.677   6.296  0.0750 -1.4998  0.7122
 7612SOL    HW330215   0.197   4.649   6.157 -0.8396 -0.3448  0.8146
 7612SOL    MW430216   0.261   4.644   6.216  0.4723  0.0501 -0.3698
 7613SOL     OW30217   1.311   5.175   2.228  0.2449 -0.0810 -0.5259
 7613SOL    HW230218   1.342   5.090   2.196  0.6690  0.4301 -1.5397
 7613SOL    HW330219   1.232   5.155   2.279  0.8585 -1.1605  0.0140
 7613SOL    MW430220   1.304   5.161   2.230 -0.0540  0.0829  0.1114
 7614SOL     OW30221   5.446   4.509   3.613  0.3791  0.3700  0.3309
 7614SOL    HW230222   5.509   4.499   3.542  1.0877  0.8908  0.8677
 7614SOL    HW330223   5.467   4.440   3.675 -0.2491 -0.0950  0.0364
 7614SOL    MW430224   5.457   4.499   3.612  0.0130 -0.0573  0.0061
 7615SOL     OW30225   5.420   1.220   5.072  0.1292 -0.1868  0.4873
 7615SOL    HW230226   5.426   1.149   5.136  2.5142 -0.4909  0.0188
 7615SOL    HW330227   5.467   1.187   4.996 -1.6055  0.6425 -1.0102
 7615SOL    MW430228   5.427   1.206   5.071 -0.2272  0.5481 -0.1449
 7616SOL     OW30229   1.666   4.671   2.846  0.5502  0.6666  0.5545
 7616SOL    HW230230   1.675   4.757   2.804  0.3275  1.0058  1.1978
 7616SOL    HW330231   1.629   4.690   2.932 -0.5985 -0.1773  0.2597
 7616SOL    MW430232   1.663   4.685   2.852  0.1239 -0.3493 -0.0575
 7617SOL     OW30233   2.738   3.949   5.502 -0.0673  0.1346  0.7260
 7617SOL    HW230234   2.800   4.017   5.528 -1.7746  1.4395  1.6357
 7617SOL    HW330235   2.657   3.997   5.482 -1.4006 -1.6275  1.5951
 7617SOL    MW430236   2.736   3.964   5.503 -0.3180  0.3067 -0.3075
 7618SOL     OW30237   3.282   3.886   3.174  1.1089 -0.3623  0.4332
 7618SOL    HW230238   3.262   3.888   3.268 -0.6686 -0.7657  0.1117
 7618SOL    HW330239   3.230   3.813   3.141  1.6846 -0.1946 -0.8682
 7618SOL    MW430240   3.272   3.877   3.182  0.5011 -0.0685  0.1356
 7619SOL     OW30241   0.959   0.041   1.192 -0.5989 -0.5234  0.5206
 7619SOL    HW230242   1.028  -0.024   1.181 -1.2113 -1.1276  0.1702
 7619SOL    HW330243   1.005   0.124   1.203  0.1793 -0.9179  0.2690
 7619SOL    MW430244   0.974   0.043   1.192  0.0146 -0.2366 -0.4086
 7620SOL     OW30245   2.371   2.502   4.511 -0.1158 -0.2347  0.5001
 7620SOL    HW230246   2.299   2.512   4.574 -0.1167  1.8202  0.2568
 7620SOL    HW330247   2.339   2.542   4.431  0.0210 -2.5217 -0.7596
 7620SOL    MW430248   2.358   2.509   4.509  0.9785  0.1439  0.1067
 7621SOL     OW30249   2.214   4.634   1.131 -0.1012  0.2331  0.4876
 7621SOL    HW230250   2.165   4.588   1.199  0.3018 -0.2211  0.4730
 7621SOL    HW330251   2.167   4.717   1.120 -2.2182 -1.0620 -1.0614
 7621SOL    MW430252   2.201   4.639   1.138  0.0153  0.3921  0.6441
 7622SOL     OW30253   2.421   1.399   1.350 -0.6066  0.5944  0.7609
 7622SOL    HW230254   2.430   1.494   1.360  1.3682  0.5906 -0.5231
 7622SOL    HW330255   2.505   1.363   1.378 -0.3079 -0.5112 -1.3723
 7622SOL    MW430256   2.433   1.407   1.355 -0.1155  0.2154 -0.2023
 7623SOL     OW30257   0.164   0.983   0.393 -0.1419 -0.2539 -0.0640
 7623SOL    HW230258   0.077   0.945   0.383 -0.7929  1.3667 -0.9405
 7623SOL    HW330259   0.170   1.006   0.485 -0.9646  0.3559 -0.1574
 7623SOL    MW430260   0.153   0.981   0.404  0.2821  0.2807  0.4756
 7624SOL     OW30261   4.193   4.264   1.897 -0.2735 -0.2830  0.1565
 7624SOL    HW230262   4.264   4.225   1.847 -0.5029  0.4131 -0.7345
 7624SOL    HW330263   4.126   4.196   1.900 -0.4572 -0.1662 -0.9261
 7624SOL    MW430264   4.193   4.250   1.891  0.2955  0.3283 -0.0395
 7625SOL     OW30265   1.964   1.296   3.976 -0.4697 -0.0006  0.2671
 7625SOL    HW230266   1.968   1.349   4.055 -1.2068  0.8744 -0.2603
 7625SOL    HW330267   1.898   1.230   3.994  0.1382 -0.4906  0.7651
 7625SOL    MW430268   1.956   1.294   3.989 -0.2678  0.2423  0.4221
 7626SOL     OW30269   5.919   4.483   1.175 -0.1983 -0.2214 -0.2062
 7626SOL    HW230270   5.827   4.508   1.164  0.2419  1.3291 -0.7121
 7626SOL    HW330271   5.947   4.532   1.253  0.2964 -0.3683 -0.2907
 7626SOL    MW430272   5.910   4.493   1.184 -0.2252  0.1461  0.0162
 7627SOL     OW30273   2.486   4.751   5.727  0.4264 -0.1965 -0.0567
 7627SOL    HW230274   2.460   4.663   5.700 -0.5963  0.1762 -0.3427
 7627SOL    HW330275   2.435   4.768   5.806  1.1730 -0.1306  0.4243
 7627SOL    MW430276   2.476   4.742   5.734  0.0231 -0.7694 -0.5534
 7628SOL     OW30277   1.344   4.501   3.437  0.2438 -0.0547 -0.3630
 7628SOL    HW230278   1.372   4.561   3.506  0.3765  3.0153 -2.8344
 7628SOL    HW330279   1.249   4.493   3.448  0.3779 -0.3956  0.6804
 7628SOL    MW430280   1.335   4.508   3.448 -0.1675  0.4242  0.1925
 7629SOL     OW30281   0.829   0.200   0.170 -0.2127  0.4979  0.1092
 7629SOL    HW230282   0.772   0.274   0.192 -0.6515  0.8026 -1.9214
 7629SOL    HW330283   0.918   0.237   0.176 -0.3857  0.9311  0.0488
 7629SOL    MW430284   0.833   0.215   0.174  0.2938 -0.5314  0.2998
 7630SOL     OW30285   3.390   2.494   0.370 -0.0779  0.2842  0.5253
 7630SOL    HW230286   3.370   2.587   0.361  0.6448  0.3920 -0.0422
 7630SOL    HW330287   3.323   2.450   0.317 -0.7090  0.4413  1.1791
 7630SOL    MW430288   3.378   2.500   0.362  0.0797 -0.2034 -0.0368
 7631SOL     OW30289   4.299   2.058   1.430  1.2682  0.2876  0.0522
 7631SOL    HW230290   4.272   1.982   1.481  0.1278 -0.6053 -1.7361
 7631SOL    HW330291   4.383   2.033   1.391  0.6408 -0.3201 -0.9617
 7631SOL    MW430292   4.306   2.045   1.431  0.0520 -0.1261  0.2839
 7632SOL     OW30293   3.184   4.257   2.125  0.2718 -0.0607  0.4270
 7632SOL    HW230294   3.154   4.340   2.088 -0.5774 -1.4916 -2.3786
 7632SOL    HW330295   3.192   4.274   2.219 -2.3803  2.4442  0.3215
 7632SOL    MW430296   3.181   4.271   2.132 -0.4374  0.0799 -0.3195
 7633SOL     OW30297   2.728   5.685   3.192  0.6398  0.2842  0.4135
 7633SOL    HW230298   2.800   5.632   3.158  0.0556 -0.9285  0.9933
 7633SOL    HW330299   2.669   5.621   3.233 -0.7289  1.2501  0.0149
 7633SOL    MW430300   2.730   5.669   3.193 -0.0239 -0.0259  0.3063
 7634SOL     OW30301   5.661   6.001   5.944 -0.1641  0.6359  0.0771
 7634SOL    HW230302   5.621   5.944   6.010 -0.7514 -0.6998 -1.3748
 7634SOL    HW330303   5.612   6.083   5.951 -0.7177  0.2537  0.7995
 7634SOL    MW430304   5.649   6.004   5.954 -0.4968  0.1281  0.0870
 7635SOL     OW30305   5.265   0.620   0.288 -0.0649  0.3860 -1.0743
 7635SOL    HW230306   5.196   0.682   0.308  0.0238  0.5146 -1.1664
 7635SOL    HW330307   5.219   0.541   0.259 -0.2711 -0.3645  1.0831
 7635SOL    MW430308   5.250   0.617   0.287  0.3520  0.5166 -0.0656
 7636SOL     OW30309   5.185   0.759   4.880  0.1762  0.1875 -0.6316
 7636SOL    HW230310   5.123   0.832   4.872  0.1195 -0.0127 -2.5926
 7636SOL    HW330311   5.135   0.683   4.850  0.0801 -0.7963  1.8713
 7636SOL    MW430312   5.170   0.759   4.875 -0.6084 -0.1190  0.2770
 7637SOL     OW30313   0.579   3.575   5.911  0.4529 -0.2918  0.0475
 7637SOL    HW230314   0.535   3.526   5.981 -2.5407  1.9160 -0.0775
 7637SOL    HW330315   0.636   3.637   5.956  0.0188 -0.1840  0.4532
 7637SOL    MW430316   0.580   3.577   5.926 -0.4444  0.3455  0.8087
 7638SOL     OW30317   3.903   0.896   0.588 -0.2498 -0.1443 -0.0486
 7638SOL    HW230318   3.873   0.808   0.608 -4.2168  1.2641  1.1871
 7638SOL    HW330319   3.893   0.904   0.493  4.6916 -2.2691 -1.0519
 7638SOL    MW430320   3.898   0.886   0.578 -0.2247 -0.1696  0.2005
 7639SOL     OW30321   2.597   5.564   6.273 -0.4265  0.5610 -0.0923
 7639SOL    HW230322   2.524   5.504   6.257  0.4350 -0.0717 -2.0205
 7639SOL    HW330323   2.607   5.566   6.368 -2.6444  0.3357  0.2023
 7639SOL    MW430324   2.588   5.557   6.283  0.6977  1.0029  0.5543
 7640SOL     OW30325   1.145   2.634   0.076  0.4448 -0.1774  0.4485
 7640SOL    HW230326   1.062   2.673   0.101 -0.4500 -0.9548 -1.1499
 7640SOL    HW330327   1.143   2.631  -0.020  2.4496  0.0517  0.3458
 7640SOL    MW430328   1.134   2.639   0.066 -0.4760  0.0350  0.1769
 7641SOL     OW30329   0.935   3.262   3.967  0.4709  0.4366 -0.0138
 7641SOL    HW230330   0.856   3.209   3.959  0.3850  0.5895 -0.1786
 7641SOL    HW330331   1.004   3.206   3.930  0.8352 -0.5457  2.0248
 7641SOL    MW430332   0.934   3.248   3.961  0.3094 -0.3336  0.4374
 7642SOL     OW30333   3.703   2.633   3.746  0.3938 -0.0129 -0.3526
 7642SOL    HW230334   3.726   2.598   3.832 -1.3207  0.3154  0.2896
 7642SOL    HW330335   3.639   2.570   3.711 -0.6273  0.9934 -0.3765
 7642SOL    MW430336   3.697   2.620   3.752  0.3027  0.6356 -0.2449
 7643SOL     OW30337   6.266   2.688   3.903  0.3593 -0.3484 -0.2640
 7643SOL    HW230338   6.213   2.680   3.824  0.1604  0.8227 -0.2632
 7643SOL    HW330339   6.316   2.769   3.891 -0.8842  0.7404  1.4886
 7643SOL    MW430340   6.266   2.698   3.891 -0.2267  0.0630 -0.3229
 7644SOL     OW30341   1.409   1.097   4.491 -0.4393  0.4422 -0.3422
 7644SOL    HW230342   1.493   1.138   4.511  0.6103 -0.8933 -1.8378
 7644SOL    HW330343   1.407   1.018   4.546  0.3772 -0.7553 -1.9375
 7644SOL    MW430344   1.419   1.092   4.501 -0.6298 -0.1384  0.2957
 7645SOL     OW30345   2.151   6.325   6.132  0.0265  0.3231  0.4295
 7645SOL    HW230346   2.063   6.360   6.148 -1.3962 -2.6844 -0.0411
 7645SOL    HW330347   2.157   6.249   6.189  2.5135  0.6237  0.6823
 7645SOL    MW430348   2.140   6.319   6.141 -0.1924 -0.2880  0.3462
 7646SOL     OW30349   1.610   1.932   5.965 -0.0438 -0.3101 -0.2179
 7646SOL    HW230350   1.581   1.997   5.901 -0.0418  0.2279  0.3289
 7646SOL    HW330351   1.705   1.940   5.965 -0.1208  0.7694  0.9771
 7646SOL    MW430352   1.619   1.942   5.956  0.2053  0.0249 -0.2356
 7647SOL     OW30353   0.943   6.093   5.498 -0.1568 -0.9370  0.7104
 7647SOL    HW230354   0.950   6.121   5.590 -1.5232  0.5552  0.4030
 7647SOL    HW330355   1.032   6.102   5.463  0.6580 -2.7113  2.1699
 7647SOL    MW430356   0.956   6.098   5.506 -0.5342 -0.2157  0.4449
 7648SOL     OW30357   4.787   3.797   4.001 -0.2155  0.3729  0.0185
 7648SOL    HW230358   4.694   3.794   3.982 -0.0565  0.1991 -0.7439
 7648SOL    HW330359   4.825   3.847   3.929  0.5559 -1.3273 -0.7960
 7648SOL    MW430360   4.780   3.803   3.989  0.4652  0.2232 -0.0476
 7649SOL     OW30361   5.042   0.801   0.138  0.6145 -0.6291  0.1313
 7649SOL    HW230362   4.970   0.864   0.145 -0.6657 -2.1423  1.6878
 7649SOL    HW330363   5.075   0.812   0.049 -3.2716 -1.5500 -1.6906
 7649SOL    MW430364   5.037   0.811   0.127 -0.2471  0.1120  0.3545
 7650SOL     OW30365   5.263   5.775   0.576  0.6569  0.5999 -0.3432
 7650SOL    HW230366   5.247   5.854   0.523  0.2595  1.1716  0.6015
 7650SOL    HW330367   5.214   5.706   0.531  0.9701  0.8936 -1.1537
 7650SOL    MW430368   5.254   5.776   0.563  0.1977  0.2148  0.5613
 7651SOL     OW30369   1.101   0.640   0.162 -0.3640 -0.5640 -0.2240
 7651SOL    HW230370   1.135   0.729   0.169 -0.8260 -0.4029  0.0121
 7651SOL    HW330371   1.179   0.584   0.161 -0.0532 -0.1266 -0.9206
 7651SOL    MW430372   1.116   0.644   0.163  0.4916  0.1608  0.1609
 7652SOL     OW30373   5.832   5.636   0.908  0.9616  0.1679  0.0159
 7652SOL    HW230374   5.906   5.688   0.942  0.7618 -0.1871  1.0266
 7652SOL    HW330375   5.777   5.700   0.863  0.6205  0.8942  1.4098
 7652SOL    MW430376   5.835   5.651   0.907 -0.0039  0.0567 -0.0355
 7653SOL     OW30377   0.951   5.038   3.784  0.0902  0.8143 -0.3122
 7653SOL    HW230378   1.032   5.085   3.766 -0.1844  1.4103  0.0091
 7653SOL    HW330379   0.963   5.003   3.873  0.9238 -1.0509 -1.1058
 7653SOL    MW430380   0.964   5.039   3.794 -0.0425  0.7597  0.0017
 7654SOL     OW30381   0.487   2.616   4.596 -0.4075  0.3607 -0.3530
 7654SOL    HW230382   0.426   2.689   4.586 -3.6420 -1.9536  0.9722
 7654SOL    HW330383   0.463   2.555   4.526 -0.2410 -1.0042  0.7446
 7654SOL    MW430384   0.476   2.618   4.585  0.0072 -0.4748 -0.4227
 7655SOL     OW30385   2.012   6.220   5.894 -0.0666 -0.3531 -0.0236
 7655SOL    HW230386   2.084   6.210   5.831 -1.0738  1.2155 -1.5390
 7655SOL    HW330387   2.055   6.238   5.977  1.3070 -0.5192 -0.6663
 7655SOL    MW430388   2.027   6.221   5.896 -0.3436  0.0697 -0.5115
 7656SOL     OW30389   1.696   1.957   3.131  0.0135 -0.0815  0.4595
 7656SOL    HW230390   1.643   2.013   3.187  0.2028 -0.3708  0.9391
 7656SOL    HW330391   1.656   1.963   3.045 -1.3020 -0.9487  0.9851
 7656SOL    MW430392   1.684   1.965   3.127 -0.3119 -0.6416 -0.3929
 7657SOL     OW30393   1.731   0.431   5.751 -0.4943  0.1928 -0.2801
 7657SOL    HW230394   1.744   0.413   5.844 -1.4361  1.1402  0.0530
 7657SOL    HW330395   1.696   0.520   5.748  0.4080  0.5486 -1.6133
 7657SOL    MW430396   1.728   0.440   5.763 -0.3062 -0.3657 -0.0236
 7658SOL     OW30397   6.116   5.391   1.104  0.2056  0.2144  0.1350
 7658SOL    HW230398   6.054   5.382   1.032  1.6273 -1.7924 -0.9490
 7658SOL    HW330399   6.188   5.442   1.066  1.7878 -2.3574 -0.5830
 7658SOL    MW430400   6.117   5.396   1.089  0.7238  0.8577  0.3136
 7659SOL     OW30401   6.405   5.192   1.892 -0.2595 -0.1886 -0.5717
 7659SOL    HW230402   6.374   5.279   1.918 -0.4917 -0.4775  0.1443
 7659SOL    HW330403   6.495   5.207   1.863 -0.1411  0.2278 -0.0207
 7659SOL    MW430404   6.413   5.205   1.892  0.4346 -0.2267  0.5450
 7660SOL     OW30405   6.351   1.983   4.679 -0.3158 -0.2357 -0.1660
 7660SOL    HW230406   6.327   1.965   4.770 -1.6797 -1.9170 -0.8036
 7660SOL    HW330407   6.440   1.950   4.670 -0.1218  0.0738  0.5832
 7660SOL    MW430408   6.359   1.976   4.690 -0.5944 -0.2964  0.4352
 7661SOL     OW30409   1.714   2.104   0.675  0.2151 -0.7004  0.2663
 7661SOL    HW230410   1.724   2.116   0.581  0.1140 -0.5232  0.2794
 7661SOL    HW330411   1.717   2.009   0.687  0.1367 -0.7270  0.0750
 7661SOL    MW430412   1.716   2.093   0.664 -0.0349 -0.3285  0.3777
 7662SOL     OW30413   4.428   0.457   4.537 -0.0022  0.2274 -0.3435
 7662SOL    HW230414   4.401   0.462   4.446 -2.4339 -0.1561  0.2755
 7662SOL    HW330415   4.360   0.404   4.579  0.6843  0.9514  1.8032
 7662SOL    MW430416   4.415   0.451   4.531  0.2899  0.3935  0.0515
 7663SOL     OW30417   6.089   1.106   2.642  0.2430  0.0355  0.4192
 7663SOL    HW230418   6.019   1.041   2.647  1.4008 -1.2391  0.6793
 7663SOL    HW330419   6.122   1.114   2.731  0.9763  0.0030  0.1575
 7663SOL    MW430420   6.084   1.099   2.654  0.3874 -0.2704 -0.0577
 7664SOL     OW30421   1.797   4.141   4.020 -0.2045 -0.2894 -0.3233
 7664SOL    HW230422   1.725   4.105   3.968  0.0674 -1.2518 -0.0524
 7664SOL    HW330423   1.756   4.211   4.071 -1.1299 -1.3049  0.3803
 7664SOL    MW430424   1.782   4.146   4.020 -0.5936  0.3376 -0.6838
 7665SOL     OW30425   0.228   4.797   2.800 -0.1893  0.4437 -0.5605
 7665SOL    HW230426   0.197   4.854   2.870 -1.5103  0.5193 -1.1717
 7665SOL    HW330427   0.323   4.808   2.800 -0.1748  0.5530  1.1078
 7665SOL    MW430428   0.236   4.806   2.809  0.0259  0.2449  1.1314
 7666SOL     OW30429   0.048   3.542   5.387  0.3688 -0.2474 -0.5761
 7666SOL    HW230430  -0.034   3.590   5.399  0.2694 -0.9274  1.9409
 7666SOL    HW330431   0.114   3.611   5.371 -0.4968  0.3582 -1.7037
 7666SOL    MW430432   0.046   3.558   5.387 -0.7516 -0.3039 -0.3193
 7667SOL     OW30433   5.055   1.445   1.452 -0.0952 -0.6662 -0.2237
 7667SOL    HW230434   4.975   1.394   1.441 -0.1224 -0.9921  1.3098
 7667SOL    HW330435   5.025   1.535   1.462 -0.3896 -0.9315  1.5500
 7667SOL    MW430436   5.041   1.450   1.452 -0.6389  0.2838  0.8642
 7668SOL     OW30437   6.305   0.854   3.220  0.2561 -0.2397  0.2697
 7668SOL    HW230438   6.393   0.818   3.216 -0.3624 -1.8093 -0.0974
 7668SOL    HW330439   6.272   0.828   3.306 -0.3576 -0.9833 -0.1722
 7668SOL    MW430440   6.312   0.846   3.231 -0.2600  0.1064  0.2282
 7669SOL     OW30441   4.279   2.958   1.117  0.6898  0.3749  0.3805
 7669SOL    HW230442   4.361   2.936   1.160  0.8151 -0.3361 -0.1945
 7669SOL    HW330443   4.211   2.931   1.179  0.8710 -0.4213  0.2445
 7669SOL    MW430444   4.281   2.951   1.131 -0.7412 -0.0722 -0.3691
 7670SOL     OW30445   1.375   5.691   6.189  0.0097  0.1476 -0.0475
 7670SOL    HW230446   1.427   5.631   6.243 -0.7154  0.1325  0.6530
 7670SOL    HW330447   1.430   5.708   6.112  1.6217  1.1960  1.2810
 7670SOL    MW430448   1.389   5.685   6.186  0.1858  0.5063 -0.0525
 7671SOL     OW30449   3.730   1.473   0.334 -0.7043  0.1508  0.0474
 7671SOL    HW230450   3.818   1.446   0.307 -1.5380 -1.6245 -1.0993
 7671SOL    HW330451   3.726   1.566   0.310  0.7308  0.1757 -0.2099
 7671SOL    MW430452   3.741   1.482   0.327 -0.5477 -0.4249  0.3196
 7672SOL     OW30453   5.626   0.210   2.012  0.1980 -0.1979  0.2988
 7672SOL    HW230454   5.533   0.204   1.990  0.1978  1.1086 -0.1831
 7672SOL    HW330455   5.646   0.304   2.005  1.5050 -0.4337  0.5848
 7672SOL    MW430456   5.616   0.222   2.008 -0.4598  0.0839 -0.0555
 7673SOL     OW30457   6.391   5.410   0.918 -0.1840 -0.2265 -0.1661
 7673SOL    HW230458   6.328   5.456   0.862  1.5122  0.8972 -1.2391
 7673SOL    HW330459   6.452   5.478   0.947  0.8855 -1.3673  0.3657
 7673SOL    MW430460   6.391   5.425   0.915 -0.2218 -0.4655 -0.1051
 7674SOL     OW30461   3.616   3.422   1.932  1.0202 -0.1745  0.1339
 7674SOL    HW230462   3.671   3.458   1.863 -0.7595  1.3785 -0.5449
 7674SOL    HW330463   3.677   3.401   2.003  2.6675 -0.2292 -1.2501
 7674SOL    MW430464   3.631   3.424   1.932  0.6524 -0.3636  0.2238
 7675SOL     OW30465   0.834   3.264   5.972 -0.2519 -0.0436  0.3572
 7675SOL    HW230466   0.748   3.272   5.931  0.2763 -1.0564 -1.0405
 7675SOL    HW330467   0.890   3.323   5.922 -0.2563  1.1978  1.7442
 7675SOL    MW430468   0.830   3.273   5.960  0.2495  0.0132  0.1432
 7676SOL     OW30469   4.262   5.361   3.549 -0.0868  0.9948 -0.4296
 7676SOL    HW230470   4.211   5.284   3.523  0.2400 -0.1564  2.0813
 7676SOL    HW330471   4.347   5.348   3.508 -0.0079 -0.0528  0.0372
 7676SOL    MW430472   4.266   5.349   3.540  0.0380 -0.0295 -0.3688
 7677SOL     OW30473   3.992   0.889   5.594  0.1963  0.0453 -0.3500
 7677SOL    HW230474   4.010   0.967   5.646 -2.0924 -1.0789  2.3825
 7677SOL    HW330475   3.991   0.818   5.657  0.6501 -2.0040 -2.5167
 7677SOL    MW430476   3.994   0.890   5.609 -0.3135  0.5523  0.3352
 7678SOL     OW30477   1.455   3.168   3.950  0.0721  0.0679 -0.5058
 7678SOL    HW230478   1.458   3.190   4.043 -0.5346  0.0591 -0.4802
 7678SOL    HW330479   1.472   3.251   3.906  0.5163  0.0410 -0.3866
 7678SOL    MW430480   1.457   3.182   3.956  0.6338  0.3696  0.3265
 7679SOL     OW30481   1.955   4.109   1.380 -0.0867  0.8354  0.0779
 7679SOL    HW230482   1.886   4.091   1.317 -1.4112 -1.3872  1.9774
 7679SOL    HW330483   1.912   4.157   1.451  0.2681 -0.4961  1.2456
 7679SOL    MW430484   1.940   4.113   1.381  0.3311  0.1791 -0.4232
 7680SOL     OW30485   4.705   1.330   3.553  0.0578 -0.0944  0.3472
 7680SOL    HW230486   4.617   1.364   3.540  0.1546  0.1071  0.2161
 7680SOL    HW330487   4.733   1.301   3.466  0.0886 -0.2391  0.4045
 7680SOL    MW430488   4.697   1.330   3.540  0.3315  0.2186  0.0545
 7681SOL     OW30489   4.032   3.770   1.556  0.2171  0.1471 -0.1472
 7681SOL    HW230490   4.097   3.828   1.595  0.1530 -0.9625  1.8034
 7681SOL    HW330491   3.978   3.826   1.501  0.8451  1.6972  0.7640
 7681SOL    MW430492   4.033   3.785   1.554 -0.0018 -0.4573 -0.1544
 7682SOL     OW30493   5.009   3.121   0.975 -0.6483  0.1228 -0.0431
 7682SOL    HW230494   5.101   3.146   0.961 -0.0347 -2.3831 -1.2014
 7682SOL    HW330495   4.967   3.136   0.890 -1.2627  0.9550  0.3943
 7682SOL    MW430496   5.016   3.126   0.962 -0.1235 -0.2799 -0.1194
 7683SOL     OW30497   4.269   3.929   1.618  0.3531 -0.0132 -0.4404
 7683SOL    HW230498   4.300   3.894   1.535  0.8032 -1.8786  0.4701
 7683SOL    HW330499   4.277   3.857   1.680 -0.8759  1.0315  1.0306
 7683SOL    MW430500   4.274   3.915   1.615 -0.1046  0.1191 -0.1758
 7684SOL     OW30501   4.422   5.058   6.363 -0.3113 -0.0420  0.2775
 7684SOL    HW230502   4.514   5.082   6.356  0.4330 -2.8044 -1.2425
 7684SOL    HW330503   4.402   5.016   6.279 -2.7071 -0.2810  0.8868
 7684SOL    MW430504   4.431   5.055   6.351 -0.0955  0.1288  0.4759
 7685SOL     OW30505   4.469   4.476   2.414 -0.2210 -0.4079  0.0284
 7685SOL    HW230506   4.478   4.551   2.355  1.1808 -0.6159 -0.0586
 7685SOL    HW330507   4.461   4.401   2.356  1.4532 -0.6459  0.0671
 7685SOL    MW430508   4.469   4.476   2.399  0.3000 -0.0788 -0.1389
 7686SOL     OW30509   5.525   5.007   6.417 -1.2506 -0.0058  0.6294
 7686SOL    HW230510   5.465   4.955   6.364 -1.8391  0.9357  0.3521
 7686SOL    HW330511   5.486   5.007   6.505 -0.5615 -1.1043  0.9602
 7686SOL    MW430512   5.512   5.000   6.422  0.7640  0.1987  0.4177
 7687SOL     OW30513   0.114   5.760   2.792  0.1013 -0.2212 -0.2354
 7687SOL    HW230514   0.087   5.849   2.815 -0.3830 -0.3354 -0.3353
 7687SOL    HW330515   0.155   5.768   2.706  0.4243 -0.0361 -0.0649
 7687SOL    MW430516   0.116   5.773   2.784  0.1423 -0.2269 -0.2514
 7688SOL     OW30517   3.650   3.499   0.975  0.4276  0.0967 -0.0691
 7688SOL    HW230518   3.684   3.549   1.050  0.8032  0.0634 -0.2160
 7688SOL    HW330519   3.651   3.562   0.903 -3.0104  1.1910  0.6164
 7688SOL    MW430520   3.654   3.514   0.976 -0.1947  0.2121  0.7117
 7689SOL     OW30521   5.028   4.829   3.187  0.0192  0.1541  0.2447
 7689SOL    HW230522   5.011   4.860   3.276  1.4258  1.1222  0.2184
 7689SOL    HW330523   5.059   4.907   3.141  1.9486 -0.8837 -0.3189
 7689SOL    MW430524   5.030   4.843   3.193  0.1352  0.0145 -0.0617
 7690SOL     OW30525   0.861   3.385   4.270 -0.5341 -0.0646 -0.0716
 7690SOL    HW230526   0.802   3.365   4.197 -0.7949 -1.9338  0.5717
 7690SOL    HW330527   0.941   3.338   4.250 -0.5110 -0.3694  0.6933
 7690SOL    MW430528   0.864   3.376   4.258  0.3954  0.6887  0.5100
 7691SOL     OW30529   5.529   6.253   5.952  0.2851  0.0560  0.0523
 7691SOL    HW230530   5.436   6.239   5.933  0.6878 -1.7209 -0.8854
 7691SOL    HW330531   5.555   6.325   5.894 -0.3215  0.0026 -0.2917
 7691SOL    MW430532   5.520   6.261   5.941 -0.1561 -0.5072  0.4428
 7692SOL     OW30533   5.236   0.490   0.664 -0.0777  0.0373  0.3237
 7692SOL    HW230534   5.328   0.510   0.646 -0.2648  0.7534  0.1069
 7692SOL    HW330535   5.233   0.471   0.758  0.3208 -0.1765  0.2931
 7692SOL    MW430536   5.248   0.490   0.674  0.3355 -0.3174 -0.1471
 7693SOL     OW30537   3.976   2.588   1.508 -0.3254  0.3150  0.0363
 7693SOL    HW230538   3.883   2.564   1.509 -0.4580  0.7987  1.1874
 7693SOL    HW330539   4.020   2.515   1.551  0.3483 -1.6248 -3.5559
 7693SOL    MW430540   3.969   2.575   1.514 -0.5094  0.1567  0.3847
 7694SOL     OW30541   4.814   1.992   2.723  0.3635  0.0319  0.4328
 7694SOL    HW230542   4.752   1.919   2.715  1.2218 -0.8485  1.5083
 7694SOL    HW330543   4.848   2.004   2.634 -0.3581 -0.3638  0.0943
 7694SOL    MW430544   4.810   1.984   2.710  0.1196 -0.1962 -0.2614
 7695SOL     OW30545   2.590   5.318   0.169 -0.3617  0.3481 -0.5432
 7695SOL    HW230546   2.615   5.289   0.082  2.0656  0.9472 -0.1240
 7695SOL    HW330547   2.519   5.259   0.195  1.1542 -2.1187 -1.5939
 7695SOL    MW430548   2.584   5.306   0.161  0.0109  0.4014  0.1678
 7696SOL     OW30549   6.332   6.287   6.178  0.0739 -0.1296  0.1602
 7696SOL    HW230550   6.338   6.367   6.231 -0.5150 -0.9921  1.5910
 7696SOL    HW330551   6.243   6.288   6.143 -0.0787 -0.3725  0.5387
 7696SOL    MW430552   6.321   6.298   6.181 -0.1685  0.3775  0.5060
 7697SOL     OW30553   4.120   3.116   2.235 -0.0312 -0.0503 -0.4400
 7697SOL    HW230554   4.103   3.210   2.235 -0.9391 -0.1609  1.6085
 7697SOL    HW330555   4.198   3.105   2.289  0.0211 -0.5022 -0.5976
 7697SOL    MW430556   4.128   3.127   2.242  0.7223 -0.2709 -0.1293
 7698SOL     OW30557   3.722   2.143   4.306 -0.4242 -0.0244  0.3327
 7698SOL    HW230558   3.809   2.180   4.290 -0.8085 -0.1656 -2.4968
 7698SOL    HW330559   3.715   2.069   4.245 -1.9880 -0.9700  1.5658
 7698SOL    MW430560   3.733   2.138   4.296  0.2080 -0.5443 -0.6341
 7699SOL     OW30561   4.129   5.405   0.345  0.5252  0.3623  0.3102
 7699SOL    HW230562   4.137   5.418   0.439  0.2305  0.4484  0.3240
 7699SOL    HW330563   4.218   5.416   0.312  0.6572  0.1749  0.5961
 7699SOL    MW430564   4.142   5.408   0.353  0.4968 -0.0604 -0.6775
 7700SOL     OW30565   1.624   6.269   1.909 -0.1182 -0.1526 -0.1451
 7700SOL    HW230566   1.714   6.296   1.931 -0.5004  0.2978  0.9409
 7700SOL    HW330567   1.625   6.174   1.919  0.0136 -0.0634  0.7811
 7700SOL    MW430568   1.636   6.260   1.914  0.6654  0.0432 -0.2258
 7701SOL     OW30569   3.426   4.795   1.503 -0.1341 -0.5816 -0.3640
 7701SOL    HW230570   3.396   4.847   1.578  1.3722 -0.8901  0.5004
 7701SOL    HW330571   3.363   4.723   1.497 -0.9440  0.0922 -0.1565
 7701SOL    MW430572   3.414   4.792   1.512  0.2631  0.8977  0.8298
 7702SOL     OW30573   3.203   0.161   0.740 -0.4496 -0.3134 -0.0873
 7702SOL    HW230574   3.269   0.226   0.765  1.4206 -2.8541  2.2687
 7702SOL    HW330575   3.235   0.125   0.657  0.3344 -0.4320  0.2534
 7702SOL    MW430576   3.216   0.165   0.733  1.2100 -0.3342 -0.0801
 7703SOL     OW30577   2.147   4.928   2.166 -0.3713 -0.2219 -0.3265
 7703SOL    HW230578   2.171   4.840   2.137 -1.7655 -0.5828 -0.4522
 7703SOL    HW330579   2.231   4.973   2.179  0.3948 -1.8937  0.8068
 7703SOL    MW430580   2.161   4.922   2.164 -0.4674  0.1974  0.1229
 7704SOL     OW30581   5.542   1.639   5.286 -0.1388  0.0041 -0.2399
 7704SOL    HW230582   5.612   1.679   5.234  0.8560 -1.9221 -0.5010
 7704SOL    HW330583   5.542   1.547   5.258 -3.7521  0.1689 -1.2556
 7704SOL    MW430584   5.551   1.632   5.275 -0.2089  0.0514 -0.2160
 7705SOL     OW30585   0.531   4.805   2.099  0.4591 -0.4705 -0.0642
 7705SOL    HW230586   0.603   4.760   2.055  0.2917  0.0743 -0.9120
 7705SOL    HW330587   0.467   4.821   2.030  0.4958  1.0323  0.2275
 7705SOL    MW430588   0.532   4.801   2.084 -0.4200  0.2983 -0.2401
 7706SOL     OW30589   2.645   3.998   2.767  0.0552  0.3265  0.2325
 7706SOL    HW230590   2.614   3.911   2.741 -0.5281  1.1941 -2.2405
 7706SOL    HW330591   2.574   4.033   2.821 -2.3755  1.2772 -3.2418
 7706SOL    MW430592   2.631   3.991   2.771  0.5370 -0.1108 -0.3459
 7707SOL     OW30593   6.139   5.104   3.372 -0.1560  0.0368 -0.1332
 7707SOL    HW230594   6.203   5.161   3.417  1.3512 -2.2371  0.7703
 7707SOL    HW330595   6.163   5.110   3.280  0.5084  0.2685  0.0423
 7707SOL    MW430596   6.151   5.113   3.366  0.4812  0.4041  0.0117
 7708SOL     OW30597   2.536   5.609   0.138 -0.1792 -0.8846  0.0910
 7708SOL    HW230598   2.453   5.609   0.092  0.4115 -0.1867 -1.0186
 7708SOL    HW330599   2.559   5.517   0.146 -0.8118 -1.0599 -0.0520
 7708SOL    MW430600   2.528   5.597   0.133 -0.1380 -0.3977  0.1990
 7709SOL     OW30601   4.956   0.440   4.181 -0.3350 -0.5088 -0.3971
 7709SOL    HW230602   4.953   0.439   4.277 -0.5806 -0.9464 -0.4083
 7709SOL    HW330603   4.969   0.532   4.159 -2.0989 -0.1221  0.0068
 7709SOL    MW430604   4.958   0.452   4.191  0.2421  0.6771 -0.0369
 7710SOL     OW30605   0.850   5.822   1.964 -0.2270 -0.0517  0.1946
 7710SOL    HW230606   0.847   5.892   1.899  1.3773  2.8439  2.9216
 7710SOL    HW330607   0.861   5.742   1.913  1.2674  2.0022 -3.0746
 7710SOL    MW430608   0.851   5.821   1.949 -0.1972  0.1681  0.4764
 7711SOL     OW30609   4.133   3.401   0.914 -0.3077  0.1392  0.5331
 7711SOL    HW230610   4.190   3.356   0.976 -0.7029  0.6834  1.2983
 7711SOL    HW330611   4.076   3.332   0.878 -1.1168  0.0544  1.9222
 7711SOL    MW430612   4.133   3.386   0.917 -0.2258 -0.0544 -0.3639
 7712SOL     OW30613   1.962   4.259   2.676 -0.0207  0.8729 -0.5652
 7712SOL    HW230614   1.912   4.181   2.652  1.6272 -0.7155  0.9092
 7712SOL    HW330615   2.029   4.266   2.607  1.0120 -0.1816  0.2972
 7712SOL    MW430616   1.964   4.250   2.663  0.3876 -0.5027  0.2570
 7713SOL     OW30617   5.571   3.407   3.386 -0.1086 -0.0487  0.3080
 7713SOL    HW230618   5.614   3.363   3.459 -0.4004  2.0111  1.8416
 7713SOL    HW330619   5.565   3.341   3.317  0.8142 -1.8812  1.8927
 7713SOL    MW430620   5.576   3.393   3.387  0.4902 -0.2627  0.0172
 7714SOL     OW30621   3.084   1.272   4.964 -0.5850  0.4980 -0.3415
 7714SOL    HW230622   3.135   1.301   5.040  0.1579 -0.8621 -0.2904
 7714SOL    HW330623   3.044   1.189   4.993  1.6405 -1.3413 -2.1431
 7714SOL    MW430624   3.086   1.265   4.978  0.2733 -0.2389 -0.5381
 7715SOL     OW30625   1.858   0.375   0.750 -0.2839 -0.0125 -0.0366
 7715SOL    HW230626   1.942   0.389   0.707 -0.5374 -1.0478 -0.8922
 7715SOL    HW330627   1.880   0.357   0.841  0.3151  1.2353  0.0831
 7715SOL    MW430628   1.872   0.374   0.756 -0.6207 -0.1551 -0.6568
 7716SOL     OW30629   3.348   3.198   2.064  0.6937  0.3867  0.3797
 7716SOL    HW230630   3.263   3.167   2.033  1.1316  0.2615 -0.7306
 7716SOL    HW330631   3.338   3.294   2.068  0.7102  0.4293 -0.4296
 7716SOL    MW430632   3.335   3.207   2.061 -0.1867  0.0698 -0.2148
 7717SOL     OW30633   5.064   5.083   6.111 -0.0383  0.0148 -0.0191
 7717SOL    HW230634   5.126   5.025   6.067  0.8112 -0.6057  1.8676
 7717SOL    HW330635   5.063   5.163   6.058  2.3809  0.0395 -0.1404
 7717SOL    MW430636   5.072   5.086   6.098 -0.4190 -0.2595 -0.0162
 7718SOL     OW30637   6.266   4.653   2.554  0.1027  0.0371  0.0449
 7718SOL    HW230638   6.290   4.723   2.493  0.1967 -1.2146 -1.4430
 7718SOL    HW330639   6.347   4.604   2.567  0.5804  1.3871  2.8159
 7718SOL    MW430640   6.280   4.656   2.547 -0.0752 -0.0086 -0.3018
 7719SOL     OW30641   5.608   6.368   0.464  0.4815 -0.0545  0.2695
 7719SOL    HW230642   5.581   6.276   0.468  0.8701 -0.2654 -1.3467
 7719SOL    HW330643   5.529   6.415   0.436  1.0202 -0.3145 -1.8052
 7719SOL    MW430644   5.594   6.362   0.461 -0.3444 -0.2606 -0.0817
 7720SOL     OW30645   1.274   0.405   6.159 -0.2954  0.0956 -0.3352
 7720SOL    HW230646   1.342   0.381   6.222  1.4282  1.1429 -1.6813
 7720SOL    HW330647   1.294   0.352   6.082 -1.7814 -0.4719 -0.3451
 7720SOL    MW430648   1.286   0.395   6.157  0.8489  0.4506  0.4695
 7721SOL     OW30649   3.378   4.363   0.770 -0.2490  0.2208  0.1057
 7721SOL    HW230650   3.385   4.325   0.682  1.0179  0.2744  0.1639
 7721SOL    HW330651   3.393   4.290   0.829 -2.3572 -0.0781  0.3401
 7721SOL    MW430652   3.381   4.349   0.766  0.1624 -0.6484  0.0524
 7722SOL     OW30653   5.441   4.021   4.040  0.1870 -0.4653  0.4007
 7722SOL    HW230654   5.414   3.985   4.124  0.0616 -1.7585 -0.1617
 7722SOL    HW330655   5.380   3.982   3.977  0.4066  0.3190 -0.3173
 7722SOL    MW430656   5.429   4.011   4.043  0.2630 -0.0690 -0.1944
 7723SOL     OW30657   6.250   0.132   2.141 -0.1536 -0.4795  0.3307
 7723SOL    HW230658   6.232   0.180   2.221  0.7397 -0.9230  0.8130
 7723SOL    HW330659   6.165   0.128   2.096 -0.8433 -0.8847  1.6147
 7723SOL    MW430660   6.236   0.138   2.145 -0.1467  0.0047 -0.4130
 7724SOL     OW30661   0.326   4.307   1.184  0.2377 -0.0604  0.1831
 7724SOL    HW230662   0.331   4.279   1.092  0.3089 -1.2591  0.5345
 7724SOL    HW330663   0.350   4.399   1.182  0.1446 -0.0405 -1.0201
 7724SOL    MW430664   0.330   4.315   1.171 -0.0764 -0.3546 -0.0841
 7725SOL     OW30665   2.500   3.013   4.907  0.1287 -0.4463  0.1055
 7725SOL    HW230666   2.563   3.019   4.979 -0.0838 -0.8716  0.3322
 7725SOL    HW330667   2.491   2.920   4.890  1.3617 -0.3061 -1.5559
 7725SOL    MW430668   2.507   3.002   4.915  0.2940  0.1044  0.0967
 7726SOL     OW30669   5.457   4.516   4.820 -0.6757  0.3961 -0.3864
 7726SOL    HW230670   5.520   4.486   4.753  0.5941  2.6769 -0.3087
 7726SOL    HW330671   5.430   4.436   4.864  0.4317 -0.9141 -1.9416
 7726SOL    MW430672   5.462   4.501   4.817 -0.3990 -0.4301  0.8971
 7727SOL     OW30673   4.955   0.014   0.089  0.1021  0.3976  0.0147
 7727SOL    HW230674   4.918   0.093   0.129  0.3656  0.1582  0.7411
 7727SOL    HW330675   4.903  -0.058   0.124 -0.1637  0.2446 -0.6790
 7727SOL    MW430676   4.943   0.015   0.099  0.8055  0.0681 -0.0379
 7728SOL     OW30677   1.617   6.290   0.444  0.8393 -0.5238 -0.1115
 7728SOL    HW230678   1.602   6.353   0.373 -0.1536 -1.5163 -0.8135
 7728SOL    HW330679   1.636   6.208   0.400  0.2049 -1.1611  0.7706
 7728SOL    MW430680   1.617   6.288   0.429  0.0560 -0.1574  0.3040
 7729SOL     OW30681   5.671   5.552   1.781 -0.6681  0.5019  0.0569
 7729SOL    HW230682   5.748   5.590   1.824  0.3249 -1.0933 -0.2297
 7729SOL    HW330683   5.604   5.552   1.849  0.1234  0.3143  0.8625
 7729SOL    MW430684   5.673   5.557   1.796  0.1321  0.7125 -0.4067
 7730SOL     OW30685   5.218   6.296   2.103 -0.1791 -0.1438 -0.2645
 7730SOL    HW230686   5.270   6.316   2.180  0.0132  1.1942 -0.7107
 7730SOL    HW330687   5.130   6.327   2.124 -0.6123 -1.5494  0.1318
 7730SOL    MW430688   5.213   6.302   2.116  0.4671  0.3734  0.1635
 7731SOL     OW30689   6.136   2.180   0.107  0.2475  0.4839 -0.1925
 7731SOL    HW230690   6.186   2.114   0.155  0.0484  0.2665 -0.2794
 7731SOL    HW330691   6.189   2.260   0.113 -0.9469  1.1766  2.6014
 7731SOL    MW430692   6.150   2.182   0.114  0.4930  0.5907 -0.5984
 7732SOL     OW30693   2.609   2.423   2.305 -0.1006 -0.0103 -0.3582
 7732SOL    HW230694   2.653   2.487   2.361 -0.8832 -1.2049  1.6955
 7732SOL    HW330695   2.592   2.471   2.224  0.6371  1.9291  0.5652
 7732SOL    MW430696   2.613   2.438   2.301 -0.3184  0.0272 -0.5955
 7733SOL     OW30697   6.269   3.462   6.058 -0.1515  0.1536  0.1353
 7733SOL    HW230698   6.174   3.461   6.072 -0.4027 -1.1876 -1.3630
 7733SOL    HW330699   6.298   3.373   6.082  0.8106  0.6644  0.9583
 7733SOL    MW430700   6.260   3.450   6.063 -0.0971  0.1478 -0.2046
 7734SOL     OW30701   1.550   4.089   6.382  0.3577 -0.0559  0.5919
 7734SOL    HW230702   1.623   4.143   6.350  0.0262  0.4606  0.6988
 7734SOL    HW330703   1.588   4.041   6.456  1.4471 -2.1028 -1.1844
 7734SOL    MW430704   1.565   4.090   6.387  0.4132 -0.1267 -0.2633
 7735SOL     OW30705   2.457   1.579   1.996 -0.7510  0.5507  0.1981
 7735SOL    HW230706   2.519   1.613   2.060  0.3228 -0.9971  0.0302
 7735SOL    HW330707   2.405   1.515   2.045 -1.2230  0.7678 -0.0160
 7735SOL    MW430708   2.458   1.575   2.010 -0.6257 -0.0419  0.3278
 7736SOL     OW30709   2.460   6.149   2.746 -0.0693  0.1832  0.6621
 7736SOL    HW230710   2.474   6.235   2.706 -0.0062 -0.9936 -2.0347
 7736SOL    HW330711   2.498   6.157   2.834  1.2660  2.4570 -0.0398
 7736SOL    MW430712   2.467   6.161   2.752 -0.3187 -0.3854  0.2862
 7737SOL     OW30713   4.097   3.942   3.097  0.2255  0.3865  0.7912
 7737SOL    HW230714   4.021   3.933   3.154 -1.2690  0.0281 -1.1755
 7737SOL    HW330715   4.144   3.859   3.106 -0.5406 -0.0548  0.7335
 7737SOL    MW430716   4.093   3.930   3.106 -0.1034 -0.3309 -0.7108
 7738SOL     OW30717   4.674   0.093   2.780 -0.1344  0.5746 -0.1934
 7738SOL    HW230718   4.651   0.146   2.704  1.2588  0.1524 -0.9407
 7738SOL    HW330719   4.678   0.003   2.748  0.5103  0.3926  0.3490
 7738SOL    MW430720   4.672   0.088   2.766  0.1835  0.0865  0.0348
 7739SOL     OW30721   3.851   2.318   3.662 -0.0596  0.2709 -0.0233
 7739SOL    HW230722   3.900   2.280   3.734 -1.7201 -0.9897  0.4972
 7739SOL    HW330723   3.761   2.326   3.695 -1.2132 -1.6730 -2.3442
 7739SOL    MW430724   3.846   2.314   3.676  0.2607  0.0614  0.0179
 7740SOL     OW30725   0.888   1.816   4.721  0.0788 -0.2384  0.0213
 7740SOL    HW230726   0.812   1.758   4.727  0.6032 -1.0088 -0.6767
 7740SOL    HW330727   0.914   1.830   4.813 -1.2452  0.5208  0.3088
 7740SOL    MW430728   0.882   1.811   4.734 -0.2937  0.6280 -0.2287
 7741SOL     OW30729   1.259   2.074   4.734 -0.0846 -0.5795  0.2842
 7741SOL    HW230730   1.258   2.159   4.691  0.5067 -0.0010  1.3411
 7741SOL    HW330731   1.318   2.021   4.681 -0.7911 -0.4794 -0.6230
 7741SOL    MW430732   1.267   2.078   4.722  0.1583 -0.0907  0.1770
 7742SOL     OW30733   0.040   5.210   0.198  0.2935 -0.1734  0.4019
 7742SOL    HW230734   0.066   5.297   0.227  0.3610  0.1074 -0.4909
 7742SOL    HW330735  -0.056   5.214   0.191  0.3426 -0.0103 -0.1629
 7742SOL    MW430736   0.031   5.222   0.201  0.3241  0.3807  0.1109
 7743SOL     OW30737   1.427   6.079   1.511 -0.7136  0.1785 -0.2458
 7743SOL    HW230738   1.440   6.162   1.464 -0.4398 -0.0135 -0.5086
 7743SOL    HW330739   1.509   6.032   1.501 -0.4920  0.3068  0.7795
 7743SOL    MW430740   1.439   6.084   1.504  0.4268 -0.5367  0.0526
 7744SOL     OW30741   0.721   4.538   5.230 -0.0893 -0.4969  0.1362
 7744SOL    HW230742   0.684   4.523   5.143  1.8946  1.9913 -1.3043
 7744SOL    HW330743   0.781   4.465   5.244 -0.8433 -1.2102 -0.3426
 7744SOL    MW430744   0.724   4.527   5.220 -0.1838 -0.1256  0.1151
 7745SOL     OW30745   5.279   1.216   0.591 -0.5781  0.3244 -0.4714
 7745SOL    HW230746   5.308   1.143   0.646  0.5818 -0.3356 -1.8851
 7745SOL    HW330747   5.235   1.276   0.652  0.0301 -0.6966  1.0398
 7745SOL    MW430748   5.277   1.215   0.607  0.2063 -0.2339 -0.4434
 7746SOL     OW30749   3.024   5.646   5.718  0.2297  0.3413  0.2641
 7746SOL    HW230750   3.081   5.644   5.642 -0.4931  0.1728 -0.2879
 7746SOL    HW330751   3.044   5.567   5.766 -0.7165 -0.5996 -0.8262
 7746SOL    MW430752   3.034   5.636   5.714 -0.6007 -0.1224 -0.1496
 7747SOL     OW30753   1.689   4.844   1.816 -0.1764 -0.1833  0.4643
 7747SOL    HW230754   1.681   4.751   1.839 -0.8403 -0.4289 -0.6631
 7747SOL    HW330755   1.751   4.845   1.743 -0.5794  0.1968  0.1243
 7747SOL    MW430756   1.696   4.831   1.809 -0.0502 -0.3473 -0.5626
 7748SOL     OW30757   2.676   5.615   2.801  0.3486  0.3074 -0.2450
 7748SOL    HW230758   2.720   5.688   2.758  1.3816 -1.7107 -2.8499
 7748SOL    HW330759   2.599   5.654   2.843  2.1952  3.2386  0.6838
 7748SOL    MW430760   2.672   5.630   2.801 -0.0771 -0.6191 -0.4457
 7749SOL     OW30761   0.384   5.590   5.169 -0.3819 -0.2474 -0.3780
 7749SOL    HW230762   0.405   5.516   5.111  4.5723  1.6650 -1.5056
 7749SOL    HW330763   0.325   5.645   5.117 -1.7415 -1.8773 -0.6672
 7749SOL    MW430764   0.379   5.587   5.154  0.0397 -0.6748 -0.1389
 7750SOL     OW30765   5.712   6.087   4.552 -0.3368  0.4197 -0.0585
 7750SOL    HW230766   5.651   6.017   4.575 -1.0572  1.5454  1.6596
 7750SOL    HW330767   5.793   6.042   4.529 -1.2176 -1.0212 -0.4651
 7750SOL    MW430768   5.714   6.072   4.552  0.2585  0.0490  0.0154
 7751SOL     OW30769   4.956   1.123   0.935 -0.6372 -0.3415 -0.1093
 7751SOL    HW230770   4.862   1.106   0.940 -0.5770 -0.3660  1.3856
 7751SOL    HW330771   4.990   1.054   0.878 -1.1615 -2.0420  1.5623
 7751SOL    MW430772   4.948   1.112   0.928 -0.6039 -0.2016  0.2813
 7752SOL     OW30773   0.383   5.368   4.976  0.1330  0.1481 -0.7818
 7752SOL    HW230774   0.292   5.340   4.970  0.1944 -1.0296  2.2004
 7752SOL    HW330775   0.433   5.287   4.987  1.5901  0.7669 -2.4471
 7752SOL    MW430776   0.377   5.354   4.977 -0.3622 -0.6702 -0.2428
 7753SOL     OW30777   1.845   5.543   0.235  0.2600  0.0482  0.1879
 7753SOL    HW230778   1.854   5.480   0.307  0.5384 -0.6716 -0.4609
 7753SOL    HW330779   1.857   5.628   0.276 -1.2697 -0.2317  1.2850
 7753SOL    MW430780   1.848   5.546   0.250  0.0810  0.4523  0.2322
 7754SOL     OW30781   0.351   2.365   0.290 -0.3421 -0.4863  0.1151
 7754SOL    HW230782   0.340   2.451   0.329 -0.5351 -0.0037 -0.9557
 7754SOL    HW330783   0.436   2.369   0.245 -0.6541 -0.6019 -0.5067
 7754SOL    MW430784   0.361   2.377   0.289  0.7788 -0.2036 -0.3135
 7755SOL     OW30785   2.947   2.613   0.739 -0.7125 -0.2525  0.4753
 7755SOL    HW230786   2.868   2.638   0.691  0.8151  1.4192 -1.3518
 7755SOL    HW330787   2.926   2.527   0.776 -2.2848 -1.4492 -2.7449
 7755SOL    MW430788   2.934   2.605   0.737  0.6387 -0.2293 -0.1009
 7756SOL     OW30789   3.665   2.371   4.116 -0.1127 -0.1991 -0.0607
 7756SOL    HW230790   3.662   2.300   4.180 -1.6452 -0.9664 -0.9459
 7756SOL    HW330791   3.720   2.438   4.158 -1.6739 -0.3412  2.4063
 7756SOL    MW430792   3.672   2.371   4.130 -0.4290 -0.1909 -0.0163
 7757SOL     OW30793   5.517   1.142   3.743  0.2108  0.0438  0.3834
 7757SOL    HW230794   5.526   1.214   3.681  1.3903 -1.1186 -0.8451
 7757SOL    HW330795   5.422   1.133   3.755 -0.1063 -0.1582 -1.8381
 7757SOL    MW430796   5.506   1.150   3.737 -0.1193  0.4295  0.5032
 7758SOL     OW30797   4.372   4.037   3.002 -0.0982 -0.0690  0.2033
 7758SOL    HW230798   4.357   4.044   2.908  0.7367  0.7286  0.1142
 7758SOL    HW330799   4.438   4.103   3.021 -0.1801 -0.2866  1.3395
 7758SOL    MW430800   4.379   4.046   2.992  0.0416  0.0230 -0.4710
 7759SOL     OW30801   2.844   4.237   0.536 -0.3717  0.1237 -0.6866
 7759SOL    HW230802   2.888   4.243   0.620  1.9778 -0.6357 -1.7717
 7759SOL    HW330803   2.813   4.147   0.531  0.2369 -0.0726 -0.9691
 7759SOL    MW430804   2.845   4.226   0.546  0.5134  0.1030  0.0173
 7760SOL     OW30805   5.908   6.305   3.183 -0.7417  0.1287  0.1712
 7760SOL    HW230806   5.881   6.317   3.092 -1.2637  1.9837  0.5285
 7760SOL    HW330807   6.002   6.325   3.183 -0.2978 -1.7047 -0.2352
 7760SOL    MW430808   5.917   6.309   3.171  0.3607 -0.1909 -0.3771
 7761SOL     OW30809   1.143   6.409   3.512  0.4035  0.0377 -0.0603
 7761SOL    HW230810   1.065   6.441   3.557 -0.1153  0.4421 -1.1862
 7761SOL    HW330811   1.208   6.478   3.524 -0.5865  1.4499 -2.1454
 7761SOL    MW430812   1.141   6.422   3.519 -0.1954  0.2573 -0.2183
 7762SOL     OW30813   2.391   3.287   4.104  0.2320 -0.2557  0.2179
 7762SOL    HW230814   2.435   3.258   4.024  0.1209 -0.1863  0.1307
 7762SOL    HW330815   2.441   3.363   4.133 -0.4490  0.4786 -0.4686
 7762SOL    MW430816   2.403   3.293   4.097 -0.5200 -0.7081  0.0029
 7763SOL     OW30817   2.746   0.756   5.584  0.2800  0.0898 -0.1187
 7763SOL    HW230818   2.810   0.692   5.615  0.0079  0.5088  1.3811
 7763SOL    HW330819   2.671   0.702   5.555  0.3200 -0.3066  0.4923
 7763SOL    MW430820   2.744   0.740   5.584 -0.3169 -0.0839  0.0761
 7764SOL     OW30821   3.016   2.815   4.804 -1.1088 -0.1130 -0.3706
 7764SOL    HW230822   3.031   2.861   4.721  0.6259 -1.4899 -0.8925
 7764SOL    HW330823   3.042   2.725   4.786 -2.4730 -0.8600  1.1820
 7764SOL    MW430824   3.021   2.810   4.791 -0.3938 -0.4010 -0.5559
 7765SOL     OW30825   3.328   6.196   0.181  0.0191  0.2733  0.0215
 7765SOL    HW230826   3.271   6.207   0.257 -1.0688 -0.4727 -0.6430
 7765SOL    HW330827   3.407   6.154   0.215 -0.1443  0.6228  0.8450
 7765SOL    MW430828   3.331   6.192   0.195  0.7693 -0.2336 -0.1761
 7766SOL     OW30829   4.288   6.282   2.210 -0.4833 -0.2173  0.2505
 7766SOL    HW230830   4.344   6.327   2.147  0.7476 -0.5434  1.0852
 7766SOL    HW330831   4.217   6.246   2.157  0.3159 -0.1593 -0.9027
 7766SOL    MW430832   4.286   6.283   2.195 -0.1668 -0.8855 -0.2188
 7767SOL     OW30833   0.488   6.002   1.168  0.5574  0.0275 -1.1700
 7767SOL    HW230834   0.551   5.931   1.155  3.6623  1.9573  1.6584
 7767SOL    HW330835   0.444   5.981   1.250 -0.2576  0.2878 -1.5222
 7767SOL    MW430836   0.490   5.990   1.177 -0.5957 -0.0811  0.1588
 7768SOL     OW30837   3.727   0.526   1.371 -0.4574 -0.0059 -0.3437
 7768SOL    HW230838   3.662   0.483   1.426 -0.5654 -0.7426 -1.0240
 7768SOL    HW330839   3.804   0.537   1.427 -0.7100 -0.3513  0.0717
 7768SOL    MW430840   3.729   0.522   1.385 -0.1647  0.1706 -0.2958
 7769SOL     OW30841   3.639   3.812   4.426 -0.2122 -0.5897 -0.3838
 7769SOL    HW230842   3.635   3.780   4.516 -2.1347 -0.4960 -0.3999
 7769SOL    HW330843   3.582   3.752   4.377 -0.6522  0.4442 -1.1709
 7769SOL    MW430844   3.631   3.800   4.431  0.1880  0.0802  0.2201
 7770SOL     OW30845   0.890   2.379   3.126  0.1745 -0.6913 -0.0895
 7770SOL    HW230846   0.887   2.370   3.031 -0.6657 -1.7981  0.0200
 7770SOL    HW330847   0.820   2.441   3.147  1.3853  0.7865 -0.2973
 7770SOL    MW430848   0.881   2.386   3.116  0.0838  0.1865 -0.0116
 7771SOL     OW30849   3.008   0.133   6.119 -0.4263  0.4792  0.0250
 7771SOL    HW230850   2.922   0.162   6.150 -1.8350 -1.8602 -1.3475
 7771SOL    HW330851   3.052   0.100   6.197 -0.2223  2.7958  0.9621
 7771SOL    MW430852   3.002   0.133   6.133 -0.0678 -0.2511 -0.0811
 7772SOL     OW30853   1.365   2.550   4.524  0.0153 -0.2169 -0.1288
 7772SOL    HW230854   1.297   2.618   4.527 -0.2175 -0.3952 -1.1024
 7772SOL    HW330855   1.352   2.507   4.440  1.7504  0.1477 -0.6154
 7772SOL    MW430856   1.354   2.553   4.513 -0.1432  0.7947 -0.6591
 7773SOL     OW30857   2.875   1.166   4.323  0.0523 -0.1048  0.4858
 7773SOL    HW230858   2.840   1.244   4.280  0.1055 -0.2615  0.1546
 7773SOL    HW330859   2.869   1.098   4.257 -1.6256 -0.8273  1.3356
 7773SOL    MW430860   2.870   1.168   4.309 -0.2781  0.4083  0.5098
 7774SOL     OW30861   5.868   1.782   2.814  0.2655  0.5205 -0.3810
 7774SOL    HW230862   5.788   1.732   2.830 -0.9656  2.4769 -0.0904
 7774SOL    HW330863   5.937   1.716   2.810 -0.7934 -1.0109  2.8472
 7774SOL    MW430864   5.866   1.767   2.816  0.3119  0.3065  0.3139
 7775SOL     OW30865   1.572   6.407   2.554  0.3695  0.0256  0.0082
 7775SOL    HW230866   1.525   6.483   2.521  0.1085 -0.7681 -1.5237
 7775SOL    HW330867   1.655   6.442   2.587  0.6776  0.8853 -1.5678
 7775SOL    MW430868   1.577   6.422   2.554  0.5223  0.4762 -0.0594
 7776SOL     OW30869   0.435   3.413   5.190 -0.0831  0.1843  0.1175
 7776SOL    HW230870   0.411   3.335   5.140 -0.5631 -0.8508  1.8511
 7776SOL    HW330871   0.351   3.458   5.204 -0.0555  0.1085  0.5371
 7776SOL    MW430872   0.421   3.409   5.185  0.0643 -0.0401 -0.3365
 7777SOL     OW30873   5.839   5.723   1.922  0.2427 -0.2300  0.0992
 7777SOL    HW230874   5.788   5.804   1.921 -0.4188 -0.6258  0.8301
 7777SOL    HW330875   5.886   5.724   1.838  0.8290  1.2571  0.4088
 7777SOL    MW430876   5.838   5.734   1.911 -0.0225  0.7541  0.4893
 7778SOL     OW30877   3.629   4.180   5.932  0.0413 -0.6337 -0.1731
 7778SOL    HW230878   3.644   4.102   5.985 -0.1927 -0.5033  0.0883
 7778SOL    HW330879   3.708   4.232   5.943 -0.1463 -0.4479  0.3298
 7778SOL    MW430880   3.641   4.176   5.940  0.4065  0.4041 -0.0915
 7779SOL     OW30881   0.283   1.500   3.554  0.7021  0.3835 -0.3752
 7779SOL    HW230882   0.216   1.551   3.600 -0.6407 -0.0582 -1.7314
 7779SOL    HW330883   0.361   1.556   3.555  0.6950  0.4561  2.2014
 7779SOL    MW430884   0.284   1.514   3.560 -0.3994  0.6184  0.0756
 7780SOL     OW30885   3.376   1.665   4.585  0.0494  0.2675  0.3782
 7780SOL    HW230886   3.439   1.621   4.642 -0.5291  0.1243  0.9145
 7780SOL    HW330887   3.351   1.744   4.633 -0.0755  0.4011  0.1006
 7780SOL    MW430888   3.381   1.670   4.599  0.6517  0.0969 -0.5249
 7781SOL     OW30889   4.286   4.054   4.355 -0.1619  0.1989  0.1778
 7781SOL    HW230890   4.243   3.994   4.294  2.3285  0.0067 -1.5660
 7781SOL    HW330891   4.239   4.137   4.345  0.0329  0.1090 -1.8855
 7781SOL    MW430892   4.274   4.057   4.346  0.6241  0.3998  0.1606
 7782SOL     OW30893   4.646   4.677   3.264 -0.2638  0.1106 -0.3572
 7782SOL    HW230894   4.631   4.732   3.340  0.2720 -0.4698  0.1846
 7782SOL    HW330895   4.570   4.618   3.260  0.1384 -0.4654  0.2790
 7782SOL    MW430896   4.634   4.676   3.273 -0.0952  0.6260  0.0870
 7783SOL     OW30897   0.191   4.950   3.739 -0.2360 -0.3978 -0.3504
 7783SOL    HW230898   0.150   5.001   3.669  0.2182 -1.5268 -1.4814
 7783SOL    HW330899   0.228   5.015   3.798  0.9736  0.6085 -2.1290
 7783SOL    MW430900   0.190   4.965   3.738  0.4029 -0.0952 -0.1285
 7784SOL     OW30901   3.395   2.201   1.415 -0.3105  0.0978  0.1574
 7784SOL    HW230902   3.409   2.283   1.461 -0.3418 -0.2081  0.7316
 7784SOL    HW330903   3.407   2.222   1.323 -1.0949  0.9158  0.2238
 7784SOL    MW430904   3.398   2.214   1.409 -0.4699 -0.0653  0.0300
 7785SOL     OW30905   3.750   5.947   1.753  0.0759  0.6946  0.0728
 7785SOL    HW230906   3.828   5.905   1.790 -0.2760  0.3413  0.4204
 7785SOL    HW330907   3.779   6.036   1.731  1.2169 -0.1091 -1.9359
 7785SOL    MW430908   3.764   5.953   1.755  0.1172  0.3562  0.3915
 7786SOL     OW30909   3.239   1.339   5.210  0.2222 -0.2747  0.1027
 7786SOL    HW230910   3.187   1.292   5.275  0.1641  2.4624  2.1670
 7786SOL    HW330911   3.300   1.273   5.177 -2.0751 -2.6501  0.2610
 7786SOL    MW430912   3.240   1.324   5.214 -0.2476 -0.2470  0.3690
 7787SOL     OW30913   3.649   5.263   2.094  0.5471  0.2466 -0.2734
 7787SOL    HW230914   3.665   5.170   2.105 -0.1810 -0.0917 -1.8350
 7787SOL    HW330915   3.586   5.285   2.163  1.1087 -0.2767  0.4263
 7787SOL    MW430916   3.643   5.254   2.105 -0.0193  0.0042  0.5329
 7788SOL     OW30917   4.940   1.876   2.992  0.4299  0.4118 -0.5166
 7788SOL    HW230918   4.944   1.847   2.901 -3.1670  0.4660 -0.8342
 7788SOL    HW330919   4.905   1.965   2.987  1.7208  1.0403  0.8962
 7788SOL    MW430920   4.936   1.884   2.979  0.1061 -0.5236 -0.4453
 7789SOL     OW30921   4.840   0.765   5.604  0.0015 -0.3293 -0.3038
 7789SOL    HW230922   4.845   0.763   5.509 -2.1881  0.9624 -0.5222
 7789SOL    HW330923   4.811   0.854   5.625  0.4436 -0.5816  1.5725
 7789SOL    MW430924   4.836   0.776   5.594 -0.1298 -0.4370  0.3462
 7790SOL     OW30925   2.750   5.374   5.510 -0.2564 -0.5000 -0.4462
 7790SOL    HW230926   2.826   5.419   5.472  0.5524 -1.3410  0.1136
 7790SOL    HW330927   2.739   5.296   5.454  2.1237 -2.7771  1.9643
 7790SOL    MW430928   2.759   5.369   5.497  0.0307 -0.1745  0.0298
 7791SOL     OW30929   2.092   2.121   4.144  0.0717 -0.3775  0.0096
 7791SOL    HW230930   2.008   2.164   4.132 -0.8310 -1.7458  1.0124
 7791SOL    HW330931   2.127   2.110   4.056  0.2505  2.1003 -0.3006
 7791SOL    MW430932   2.086   2.125   4.131  0.1135 -0.2412 -0.2984
 7792SOL     OW30933   4.591   2.514   2.518 -1.2225  0.4135 -0.4497
 7792SOL    HW230934   4.607   2.603   2.486  1.6183  0.3987  0.6344
 7792SOL    HW330935   4.535   2.526   2.595 -2.0630  1.0772 -1.1357
 7792SOL    MW430936   4.586   2.527   2.524 -0.4349  0.1851  0.5148
 7793SOL     OW30937   4.603   2.220   2.588 -0.4875 -0.0774 -0.5788
 7793SOL    HW230938   4.675   2.169   2.552 -1.0451 -0.2580 -1.4719
 7793SOL    HW330939   4.611   2.306   2.546  0.0400  0.3682  0.3998
 7793SOL    MW430940   4.613   2.225   2.578 -0.4669  0.1382 -0.3346
 7794SOL     OW30941   2.744   4.901   5.779  0.0213 -0.5774  0.2490
 7794SOL    HW230942   2.760   4.931   5.689 -0.9414 -0.0347  0.2411
 7794SOL    HW330943   2.667   4.844   5.772 -0.8626  0.4813  0.8803
 7794SOL    MW430944   2.736   4.898   5.766 -0.3475 -0.5175  0.7918
 7795SOL     OW30945   0.808   1.105   1.408  0.3191 -0.3188  0.2321
 7795SOL    HW230946   0.729   1.052   1.396 -0.2163  0.3414  0.7727
 7795SOL    HW330947   0.817   1.153   1.326  0.9508 -1.4083 -0.3623
 7795SOL    MW430948   0.799   1.104   1.396 -0.2422 -0.2515 -0.0400
 7796SOL     OW30949   3.878   3.264   4.697 -0.2323  0.0939 -0.0682
 7796SOL    HW230950   3.806   3.276   4.758 -1.0926  1.2574 -1.2674
 7796SOL    HW330951   3.880   3.169   4.682  0.5731 -0.3490  2.3640
 7796SOL    MW430952   3.869   3.253   4.703 -0.2776  0.3287  0.0497
 7797SOL     OW30953   1.204   2.137   3.855 -0.3170  0.7466  0.4171
 7797SOL    HW230954   1.240   2.050   3.872 -0.1962  0.4716 -1.1117
 7797SOL    HW330955   1.156   2.159   3.934  1.9683  0.5024  1.9542
 7797SOL    MW430956   1.203   2.128   3.867  0.3671 -0.0190 -0.2839
 7798SOL     OW30957   3.254   6.008   0.590 -0.1057 -0.0165  0.0914
 7798SOL    HW230958   3.274   5.947   0.519 -0.3927  0.8472 -0.7515
 7798SOL    HW330959   3.328   6.000   0.650  0.6025 -0.1070 -0.7672
 7798SOL    MW430960   3.266   5.999   0.589  0.3059 -0.7724 -0.1266
 7799SOL     OW30961   5.638   0.045   4.637 -0.4174 -0.4245 -0.0636
 7799SOL    HW230962   5.545   0.049   4.659 -0.1805 -0.5061  1.0090
 7799SOL    HW330963   5.673  -0.022   4.695  0.4267  0.0315 -0.0328
 7799SOL    MW430964   5.630   0.037   4.647 -0.3498 -0.2759 -0.2427
 7800SOL     OW30965   5.960   2.663   5.483  0.2876 -0.0289 -0.1457
 7800SOL    HW230966   6.009   2.646   5.402 -0.3933  0.9885 -0.7837
 7800SOL    HW330967   5.919   2.579   5.504  2.0192 -0.8260  0.2272
 7800SOL    MW430968   5.961   2.650   5.475  0.0867 -0.5062  0.0902
 7801SOL     OW30969   2.417   0.734   2.154  0.4698 -0.4200  0.1828
 7801SOL    HW230970   2.513   0.733   2.151  0.5321 -0.1220  1.3110
 7801SOL    HW330971   2.394   0.660   2.210  0.0119 -0.7986 -0.5026
 7801SOL    MW430972   2.427   0.724   2.161  0.1434  0.2173 -0.5040
 7802SOL     OW30973   1.247   4.090   2.223 -0.0271  0.3510  0.1438
 7802SOL    HW230974   1.251   3.996   2.206 -0.0832  0.4891 -0.6693
 7802SOL    HW330975   1.160   4.104   2.261  0.6995 -0.2004  2.1086
 7802SOL    MW430976   1.236   4.080   2.226  0.3609  0.1820 -0.3330
 7803SOL     OW30977   2.803   6.090   2.405  0.1426 -0.3561 -0.2329
 7803SOL    HW230978   2.731   6.126   2.354  1.5621  2.9977 -0.1199
 7803SOL    HW330979   2.761   6.039   2.474 -1.9008 -2.7334 -2.9481
 7803SOL    MW430980   2.788   6.088   2.407  0.3572 -0.2787  0.0038
 7804SOL     OW30981   0.653   0.358   0.683  0.2505 -0.1778  0.3381
 7804SOL    HW230982   0.596   0.369   0.607 -2.2305 -3.2002  1.5482
 7804SOL    HW330983   0.714   0.288   0.656 -1.5679 -2.3049  1.4634
 7804SOL    MW430984   0.654   0.350   0.669 -0.9316  0.4189  0.4114
 7805SOL     OW30985   4.791   4.738   5.588  0.3895 -0.0031 -0.2046
 7805SOL    HW230986   4.852   4.807   5.563  0.6538  0.2337  1.0425
 7805SOL    HW330987   4.838   4.685   5.652 -0.5262 -0.1023  0.4137
 7805SOL    MW430988   4.805   4.740   5.593 -0.2684  0.3594  0.4969
 7806SOL     OW30989   4.736   4.933   4.078  0.2034 -0.2363 -0.0132
 7806SOL    HW230990   4.789   4.938   4.157  1.1955  1.6554 -0.7345
 7806SOL    HW330991   4.719   4.839   4.066  1.1159 -0.6603  1.7095
 7806SOL    MW430992   4.741   4.921   4.087  0.9703 -0.1330  0.3499
 7807SOL     OW30993   3.740   4.579   4.699 -0.3263 -0.3243 -0.0218
 7807SOL    HW230994   3.814   4.532   4.737 -1.5151 -1.1248  1.4303
 7807SOL    HW330995   3.776   4.664   4.673  1.4016 -1.2283 -0.7426
 7807SOL    MW430996   3.755   4.584   4.701  0.6063  0.3061 -0.4100
 7808SOL     OW30997   4.792   4.808   2.987  0.0788  1.0640  0.6189
 7808SOL    HW230998   4.755   4.726   2.954  0.7882  0.9362  0.1365
 7808SOL    HW330999   4.830   4.785   3.071  0.7511  0.7688  0.2448
 7808SOL    MW431000   4.792   4.794   2.993 -0.3315  0.0722  0.0297
 7809SOL     OW31001   0.019   0.730   2.154  0.2585 -0.1911  0.3568
 7809SOL    HW231002  -0.038   0.767   2.086  0.4535 -2.4607 -1.1533
 7809SOL    HW331003   0.102   0.776   2.144 -0.6187  1.6866  1.2001
 7809SOL    MW431004   0.022   0.741   2.144  0.7966  0.3088  0.4475
 7810SOL     OW31005   0.772   3.935   4.312  0.4812  0.0329  0.0653
 7810SOL    HW231006   0.689   3.887   4.316 -0.7650  1.9521 -0.6894
 7810SOL    HW331007   0.757   4.001   4.244  1.6322  2.1917  1.7803
 7810SOL    MW431008   0.759   3.938   4.304 -0.0464  0.1963  0.4237
 7811SOL     OW31009   2.330   5.396   2.356  0.3146 -0.4935  0.0072
 7811SOL    HW231010   2.252   5.402   2.411 -0.2586  0.4005 -0.8770
 7811SOL    HW331011   2.386   5.467   2.387  0.6445 -0.9366  0.4313
 7811SOL    MW431012   2.327   5.406   2.367 -0.6476 -0.0509 -0.1913
 7812SOL     OW31013   5.421   4.552   4.340 -0.1165  0.0274  0.5001
 7812SOL    HW231014   5.511   4.519   4.333  0.1684  0.8053  0.3684
 7812SOL    HW331015   5.371   4.478   4.374  0.6965 -0.2329  1.1838
 7812SOL    MW431016   5.427   4.538   4.344 -0.0028  0.0664 -0.1786
 7813SOL     OW31017   3.722   3.733   6.261  0.1914 -0.3552  0.0523
 7813SOL    HW231018   3.695   3.736   6.353  0.4459 -1.9090  0.1965
 7813SOL    HW331019   3.736   3.640   6.242  0.8891  0.0003 -1.3500
 7813SOL    MW431020   3.720   3.721   6.270 -0.7697  0.4269  0.2268
 7814SOL     OW31021   6.297   1.104   0.952  0.0400 -0.3835  0.4699
 7814SOL    HW231022   6.267   1.165   1.019  0.3396  1.0989 -0.6872
 7814SOL    HW331023   6.218   1.079   0.905  0.0208 -0.2601  0.4369
 7814SOL    MW431024   6.283   1.109   0.955 -0.1330  0.3599  0.4576
 7815SOL     OW31025   4.460   5.795   1.369  0.6371 -0.8066 -0.0745
 7815SOL    HW231026   4.486   5.887   1.378  0.1250 -0.8348  2.4360
 7815SOL    HW331027   4.536   5.752   1.329  1.4311  0.4498  0.0351
 7815SOL    MW431028   4.474   5.802   1.365  0.8532 -0.4148  0.4180
 7816SOL     OW31029   2.093   3.601   0.710 -0.6364  0.0857 -0.1171
 7816SOL    HW231030   2.011   3.552   0.718 -0.3421 -0.4792 -0.5022
 7816SOL    HW331031   2.153   3.558   0.772 -0.2097 -0.4022 -0.8545
 7816SOL    MW431032   2.090   3.589   0.719 -0.0123  0.1912  0.1277
 7817SOL     OW31033   2.600   0.796   4.981 -0.3351  0.4470 -0.1313
 7817SOL    HW231034   2.518   0.758   4.950 -0.4409  1.1640 -0.7478
 7817SOL    HW331035   2.586   0.809   5.075 -0.5234 -0.4249 -0.0236
 7817SOL    MW431036   2.587   0.792   4.990 -0.0499 -0.0607  0.0248
 7818SOL     OW31037   2.462   3.200   3.831 -0.0107  0.2858  0.2912
 7818SOL    HW231038   2.427   3.244   3.754 -0.3114  1.7572  1.2049
 7818SOL    HW331039   2.511   3.126   3.797 -1.2418  0.1179 -1.2150
 7818SOL    MW431040   2.464   3.196   3.817 -0.2068 -0.2374 -0.0481
 7819SOL     OW31041   6.193   5.922   0.287  1.0715 -0.1248 -0.0205
 7819SOL    HW231042   6.269   5.899   0.234  1.1535 -1.7586  0.7380
 7819SOL    HW331043   6.126   5.945   0.223  1.9594  0.5729 -0.7250
 7819SOL    MW431044   6.194   5.922   0.271 -0.2490  0.0561 -0.3850
 7820SOL     OW31045   1.469   0.871   1.343 -0.2287 -0.0033  0.1160
 7820SOL    HW231046   1.398   0.902   1.399  0.4608 -0.5245  1.3317
 7820SOL    HW331047   1.464   0.926   1.264 -1.7969  0.1329  0.2846
 7820SOL    MW431048   1.459   0.883   1.340  0.3916 -0.3632 -0.1961
 7821SOL     OW31049   6.078   0.677   2.529  0.4610  0.2929  0.1611
 7821SOL    HW231050   6.167   0.693   2.499  0.2346  0.3983 -0.4736
 7821SOL    HW331051   6.087   0.655   2.622  1.0924  0.8172  0.2289
 7821SOL    MW431052   6.091   0.676   2.538  0.7541  0.9750 -0.1221
 7822SOL     OW31053   6.386   5.864   2.044  0.2149  0.2673 -0.0311
 7822SOL    HW231054   6.342   5.940   2.005 -0.8224 -0.9880 -1.4147
 7822SOL    HW331055   6.323   5.830   2.108  0.5794  0.4127  0.4135
 7822SOL    MW431056   6.372   5.869   2.048  0.1220  0.4793  0.1239
 7823SOL     OW31057   1.890   4.583   4.804 -0.1114 -0.1902  0.2608
 7823SOL    HW231058   1.926   4.554   4.887  0.5252 -1.2410 -0.3658
 7823SOL    HW331059   1.918   4.517   4.741 -1.7028 -0.1163 -0.5602
 7823SOL    MW431060   1.899   4.571   4.806 -0.2470 -0.5030  0.7703
 7824SOL     OW31061   5.401   6.244   1.892 -0.2953 -0.4804  0.2685
 7824SOL    HW231062   5.351   6.251   1.973 -0.8261 -0.2742 -0.0702
 7824SOL    HW331063   5.342   6.200   1.831  0.4944 -1.6445  0.3083
 7824SOL    MW431064   5.386   6.239   1.895  0.2840 -0.0277 -0.5043
 7825SOL     OW31065   5.148   3.206   2.830  0.2214 -0.4772 -0.2453
 7825SOL    HW231066   5.192   3.150   2.766  0.6307  2.5243 -2.8878
 7825SOL    HW331067   5.055   3.184   2.822  0.4151 -1.1161 -0.8492
 7825SOL    MW431068   5.142   3.196   2.820  0.4216 -0.3183 -0.2169
 7826SOL     OW31069   4.440   2.692   4.130  0.8444  0.2969 -0.4567
 7826SOL    HW231070   4.535   2.691   4.129  0.8832 -1.2458  0.4403
 7826SOL    HW331071   4.417   2.720   4.219  0.5522 -1.6607  0.1397
 7826SOL    MW431072   4.449   2.695   4.142 -0.5050 -0.2924  0.2682
 7827SOL     OW31073   6.256   2.503   2.582 -0.3478 -0.0804  0.1635
 7827SOL    HW231074   6.325   2.570   2.591 -1.5189  1.0391  1.2158
 7827SOL    HW331075   6.190   2.544   2.526 -0.3423 -1.0107 -0.5469
 7827SOL    MW431076   6.257   2.517   2.575 -0.6046 -0.5728  0.3153
 7828SOL     OW31077   5.825   6.314   5.725  0.1711  0.0069 -0.1499
 7828SOL    HW231078   5.882   6.254   5.773  1.6989  1.4882  0.0240
 7828SOL    HW331079   5.747   6.322   5.779 -0.0856 -1.8112 -0.2047
 7828SOL    MW431080   5.822   6.307   5.739  0.1135  0.0394  0.2291
 7829SOL     OW31081   1.870   3.249   6.070  0.4415 -0.4784 -0.2204
 7829SOL    HW231082   1.806   3.319   6.086 -0.5167 -1.1061 -1.1758
 7829SOL    HW331083   1.832   3.173   6.113  1.5690 -0.3939  0.9677
 7829SOL    MW431084   1.856   3.248   6.078 -0.3471 -0.0324  0.6548
 7830SOL     OW31085   4.633   1.044   4.081 -0.6231  0.4523 -0.2514
 7830SOL    HW231086   4.607   1.111   4.143 -0.8739  0.3745 -0.2703
 7830SOL    HW331087   4.646   0.965   4.134 -1.5357  0.2005 -0.3790
 7830SOL    MW431088   4.631   1.042   4.096  1.0152  0.0721  0.0281
 7831SOL     OW31089   3.267   4.100   6.152  0.3203 -0.4596 -0.2231
 7831SOL    HW231090   3.230   4.155   6.082 -0.8474 -0.9745 -0.0304
 7831SOL    HW331091   3.344   4.148   6.181 -0.9784  1.4286  0.3477
 7831SOL    MW431092   3.272   4.114   6.146 -0.2494  0.8274  0.2501
 7832SOL     OW31093   2.754   4.761   4.044  0.0495 -0.0354 -0.2081
 7832SOL    HW231094   2.669   4.756   4.000  0.4356 -2.0664 -0.8508
 7832SOL    HW331095   2.779   4.853   4.038 -0.6986  0.0881 -2.7509
 7832SOL    MW431096   2.746   4.772   4.038 -0.0705 -0.3108 -0.3705
 7833SOL     OW31097   2.054   3.984   6.121 -0.3886 -0.0496 -0.9127
 7833SOL    HW231098   2.039   3.993   6.215 -2.5094 -2.9243 -0.8518
 7833SOL    HW331099   1.967   3.994   6.082  0.4607  1.1184 -2.6382
 7833SOL    MW431100   2.040   3.987   6.129 -0.6609 -0.1014  0.0723
 7834SOL     OW31101   4.709   4.488   4.548  0.1325  0.0734  0.1722
 7834SOL    HW231102   4.718   4.567   4.495 -1.8485  0.3647  0.2081
 7834SOL    HW331103   4.675   4.422   4.487  1.5843 -0.7246  0.1876
 7834SOL    MW431104   4.706   4.490   4.533 -0.4614 -0.2097  0.3819
 7835SOL     OW31105   3.338   0.970   0.335 -0.1059 -0.0004  0.7101
 7835SOL    HW231106   3.333   0.948   0.428 -1.8311  0.3666  0.7520
 7835SOL    HW331107   3.421   1.016   0.325 -0.5773  1.3139  2.4012
 7835SOL    MW431108   3.348   0.973   0.346  0.1095 -0.5814 -0.1457
 7836SOL     OW31109   3.700   3.700   4.105 -0.1594  0.3297 -0.8236
 7836SOL    HW231110   3.765   3.712   4.036  1.9874  1.1814  1.2129
 7836SOL    HW331111   3.653   3.784   4.109 -0.2814  0.2818 -1.2134
 7836SOL    MW431112   3.702   3.713   4.097  0.0319 -0.5558 -0.7525
 7837SOL     OW31113   0.346   4.062   5.729 -0.3135  0.3293 -0.3733
 7837SOL    HW231114   0.312   4.143   5.768 -1.1482  1.0875 -2.5378
 7837SOL    HW331115   0.441   4.066   5.745 -0.4946  1.0894  0.6378
 7837SOL    MW431116   0.354   4.073   5.736  0.5143 -0.2610 -0.4601
 7838SOL     OW31117   2.738   0.221   3.478 -0.4942 -0.6240 -0.0742
 7838SOL    HW231118   2.815   0.264   3.441  0.2043  0.4662  2.4191
 7838SOL    HW331119   2.664   0.263   3.435  0.2487  1.1181  0.2892
 7838SOL    MW431120   2.739   0.232   3.468 -0.4302  0.2269 -0.5951
 7839SOL     OW31121   2.809   0.939   0.665  0.4170 -0.0623  0.4463
 7839SOL    HW231122   2.826   0.846   0.680 -0.1449 -0.4017 -0.9146
 7839SOL    HW331123   2.833   0.954   0.573 -1.8909  0.5283 -0.1252
 7839SOL    MW431124   2.815   0.929   0.655  0.2069  0.2532 -0.0771
 7840SOL     OW31125   4.251   6.160   1.088 -0.1608 -0.1135 -0.4306
 7840SOL    HW231126   4.344   6.145   1.070  0.4015 -0.4356  2.3163
 7840SOL    HW331127   4.232   6.245   1.047  1.4893  0.2175 -0.5650
 7840SOL    MW431128   4.261   6.170   1.080 -0.8069 -0.1986  0.0482
 7841SOL     OW31129   3.264   2.737   0.006 -0.4407  0.6238  0.0006
 7841SOL    HW231130   3.294   2.827  -0.009 -1.8419  1.0362 -0.4214
 7841SOL    HW331131   3.345   2.687   0.020  0.4645  1.6413 -1.3574
 7841SOL    MW431132   3.279   2.742   0.006 -0.3479  0.1712  0.4359
 7842SOL     OW31133   2.071   2.146   1.968 -0.1162  0.2649 -0.4217
 7842SOL    HW231134   2.133   2.203   2.013  1.2531 -0.2230 -1.5854
 7842SOL    HW331135   2.030   2.202   1.902  0.9077  0.0366 -1.2748
 7842SOL    MW431136   2.074   2.161   1.965 -0.6457  0.0659 -0.0546
 7843SOL     OW31137   3.873   2.597   4.856  0.6759  0.0827 -0.6889
 7843SOL    HW231138   3.862   2.506   4.828  1.2714 -0.4190  0.6478
 7843SOL    HW331139   3.967   2.614   4.846  0.7324  0.2120  0.0108
 7843SOL    MW431140   3.884   2.587   4.851 -0.5088  0.5851 -0.2973
 7844SOL     OW31141   0.021   4.073   1.163  0.0529 -0.2555  0.2486
 7844SOL    HW231142   0.111   4.046   1.183  0.0292 -1.2715 -0.9275
 7844SOL    HW331143   0.015   4.162   1.198  0.8100 -0.9469  2.2864
 7844SOL    MW431144   0.032   4.082   1.170  0.0534  0.2625 -0.2972
 7845SOL     OW31145   5.176   3.595   1.825  0.2176 -0.3754 -0.7973
 7845SOL    HW231146   5.220   3.527   1.876  1.6741  1.5929  0.7314
 7845SOL    HW331147   5.238   3.617   1.755 -0.4781 -0.9539 -1.6151
 7845SOL    MW431148   5.190   3.589   1.822 -0.2195  0.4719  0.7468
 7846SOL     OW31149   5.353   0.901   1.485 -0.3744 -0.0514 -0.9401
 7846SOL    HW231150   5.325   0.949   1.563  2.9571 -0.0244  0.4111
 7846SOL    HW331151   5.347   0.809   1.511 -1.3844 -0.1650 -1.5150
 7846SOL    MW431152   5.348   0.895   1.499 -0.4508  0.1746  0.5462
 7847SOL     OW31153   0.690   4.508   3.286 -0.6993 -0.3233 -0.2444
 7847SOL    HW231154   0.783   4.529   3.294 -0.5359 -0.2836 -1.8659
 7847SOL    HW331155   0.688   4.412   3.279 -0.7407 -0.3019 -0.5460
 7847SOL    MW431156   0.702   4.498   3.286  0.0738  0.1451 -0.1298
 7848SOL     OW31157   1.292   5.253   1.677  0.3867 -0.9794  0.3047
 7848SOL    HW231158   1.205   5.262   1.715  1.4888  2.6882  2.4436
 7848SOL    HW331159   1.332   5.181   1.726 -0.5565 -0.9436  1.1482
 7848SOL    MW431160   1.286   5.245   1.688 -0.2256 -0.0160  0.3368
 7849SOL     OW31161   0.183   6.366   1.736  0.6807 -0.1138  0.4527
 7849SOL    HW231162   0.225   6.448   1.762  1.1779 -0.6288  1.3144
 7849SOL    HW331163   0.124   6.346   1.809 -0.5602  0.2285 -0.4194
 7849SOL    MW431164   0.181   6.374   1.749 -0.1929 -0.1018  0.6061
 7850SOL     OW31165   2.625   2.345   0.536 -0.4309 -0.2177 -0.2337
 7850SOL    HW231166   2.705   2.300   0.564 -0.4102 -1.5989 -2.3287
 7850SOL    HW331167   2.656   2.431   0.507 -0.1881  0.4626  1.8635
 7850SOL    MW431168   2.640   2.350   0.536  0.0786 -0.7785  0.4670
 7851SOL     OW31169   3.988   5.011   4.772  0.0620  0.2931  0.0007
 7851SOL    HW231170   4.007   5.035   4.863  1.0794  1.3049 -0.4599
 7851SOL    HW331171   3.918   5.072   4.746  0.9069  1.1075 -0.3924
 7851SOL    MW431172   3.981   5.023   4.780 -0.1134 -0.5551  0.1742
 7852SOL     OW31173   2.070   5.476   3.311  0.0554 -0.1761  0.2205
 7852SOL    HW231174   2.068   5.477   3.406  1.0309 -2.9659  0.3588
 7852SOL    HW331175   2.154   5.515   3.288  0.0771 -0.0420  0.5264
 7852SOL    MW431176   2.081   5.481   3.320  0.8977  0.7748 -0.4284
 7853SOL     OW31177   5.458   5.374   6.293  0.0237  0.2090 -0.1826
 7853SOL    HW231178   5.376   5.327   6.310  0.3858  0.6159  3.2301
 7853SOL    HW331179   5.516   5.308   6.255 -0.4802 -1.3134  1.5930
 7853SOL    MW431180   5.454   5.359   6.290 -0.3969 -0.3521  0.1428
 7854SOL     OW31181   5.488   2.482   0.101  0.1491  0.0302  0.2200
 7854SOL    HW231182   5.502   2.545   0.172  0.0688  0.8250 -0.4561
 7854SOL    HW331183   5.547   2.410   0.121 -0.6919 -0.2807  1.6983
 7854SOL    MW431184   5.498   2.481   0.113  0.5390  0.3764 -0.2269
 7855SOL     OW31185   3.802   1.510   4.881  0.2430  0.3338  0.0586
 7855SOL    HW231186   3.813   1.599   4.915 -1.2378  0.3590  0.5461
 7855SOL    HW331187   3.795   1.455   4.958  1.5238 -0.2822 -0.2420
 7855SOL    MW431188   3.803   1.514   4.895 -0.5165  0.1274 -0.4869
 7856SOL     OW31189   2.270   0.522   5.308  0.2401  0.0277 -0.0887
 7856SOL    HW231190   2.248   0.610   5.277 -0.3990 -1.0177 -2.9288
 7856SOL    HW331191   2.255   0.525   5.403 -3.4100  1.9809 -0.5447
 7856SOL    MW431192   2.265   0.534   5.316 -0.1225  0.2388  0.1385
 7857SOL     OW31193   4.708   3.396   5.526 -0.8969  0.7508 -0.2662
 7857SOL    HW231194   4.745   3.475   5.565 -1.2951  1.4962 -1.3451
 7857SOL    HW331195   4.627   3.381   5.575  0.0697 -0.0801  1.1630
 7857SOL    MW431196   4.702   3.405   5.538 -0.2730 -0.4142 -0.2962
 7858SOL     OW31197   5.951   0.613   4.515  0.5911 -0.1897 -0.3340
 7858SOL    HW231198   5.896   0.648   4.585  1.5539  0.0457  0.3235
 7858SOL    HW331199   5.890   0.593   4.444 -0.1744  1.3845 -0.1598
 7858SOL    MW431200   5.936   0.615   4.515  0.6875  0.1640 -0.1709
 7859SOL     OW31201   3.056   5.409   3.392  0.4361 -0.1710  0.3984
 7859SOL    HW231202   3.022   5.454   3.315 -0.0712  0.3882  0.9333
 7859SOL    HW331203   3.126   5.465   3.424  2.6828 -1.8399 -1.3098
 7859SOL    MW431204   3.061   5.422   3.386  0.0711  0.4327 -0.7000
 7860SOL     OW31205   1.924   0.783   3.560  0.1475 -0.3279 -0.7710
 7860SOL    HW231206   2.001   0.737   3.591 -0.3766 -0.7795 -0.1015
 7860SOL    HW331207   1.929   0.869   3.602  0.8063  0.0163 -1.5352
 7860SOL    MW431208   1.934   0.788   3.570 -0.0465 -0.2486  0.5771
 7861SOL     OW31209   5.995   4.140   2.767 -0.0110  0.0569  0.5474
 7861SOL    HW231210   5.964   4.050   2.756  0.2181  0.0160  0.2286
 7861SOL    HW331211   5.921   4.187   2.805  0.0432 -0.3926  1.2315
 7861SOL    MW431212   5.981   4.134   2.771  0.0098  0.3096  0.0682
 7862SOL     OW31213   2.547   5.513   4.195 -0.5240  0.4414 -0.1184
 7862SOL    HW231214   2.510   5.459   4.264 -1.9024  1.6624  0.1619
 7862SOL    HW331215   2.526   5.603   4.220  2.7797  1.3010  0.0981
 7862SOL    MW431216   2.539   5.518   4.207  0.0999  0.2704  0.1054
 7863SOL     OW31217   5.171   3.785   2.925 -0.3704  0.3106  0.4029
 7863SOL    HW231218   5.245   3.746   2.973 -0.5900 -2.0474 -1.0164
 7863SOL    HW331219   5.192   3.772   2.833 -1.7590  1.1772 -0.0688
 7863SOL    MW431220   5.183   3.778   2.919 -0.6971  0.4782 -0.1652
 7864SOL     OW31221   2.960   1.705   0.048 -0.7417 -0.4505  0.1994
 7864SOL    HW231222   2.964   1.711  -0.047 -1.3813  0.8122  0.2307
 7864SOL    HW331223   3.021   1.635   0.070  0.8229  0.4610 -1.0059
 7864SOL    MW431224   2.969   1.697   0.038 -0.0477 -0.1731 -0.5294
 7865SOL     OW31225   2.681   2.291   1.576 -0.1577  0.2291 -0.2051
 7865SOL    HW231226   2.687   2.327   1.488  0.1880  1.1015  0.1592
 7865SOL    HW331227   2.751   2.334   1.625 -0.6902  0.1909  0.6342
 7865SOL    MW431228   2.691   2.302   1.571 -0.3163  0.1154  0.0019
 7866SOL     OW31229   5.261   3.302   5.228  0.7984  0.5890 -0.4993
 7866SOL    HW231230   5.193   3.331   5.167  2.0081  1.5516 -1.4541
 7866SOL    HW331231   5.258   3.207   5.224 -1.0607  0.5809  0.1571
 7866SOL    MW431232   5.252   3.294   5.219  0.7742  0.8983 -0.4685
 7867SOL     OW31233   5.741   3.961   4.190 -0.3924 -0.7425  0.4581
 7867SOL    HW231234   5.832   3.988   4.200 -0.3373 -0.4408 -0.6869
 7867SOL    HW331235   5.737   3.921   4.102 -1.3529 -0.7654  0.5006
 7867SOL    MW431236   5.752   3.959   4.179  0.0059  0.3070 -0.1497
 7868SOL     OW31237   0.221   0.520   3.353  0.3354  0.2069 -0.4541
 7868SOL    HW231238   0.208   0.520   3.448  0.0463  0.1806 -0.4922
 7868SOL    HW331239   0.179   0.601   3.324 -0.3911 -0.2294 -0.6629
 7868SOL    MW431240   0.214   0.531   3.362  0.0126  0.0637  0.1912
 7869SOL     OW31241   0.609   1.527   3.417  0.2980  0.0566 -0.3219
 7869SOL    HW231242   0.665   1.599   3.390  1.4113 -0.5425  0.2983
 7869SOL    HW331243   0.608   1.467   3.343  1.0368 -0.2400 -0.1032
 7869SOL    MW431244   0.616   1.529   3.404 -0.9084  0.4484  0.3986
 7870SOL     OW31245   2.973   5.651   1.229  0.0297  0.0703  0.5084
 7870SOL    HW231246   3.009   5.695   1.306  2.0088 -0.6315  0.0335
 7870SOL    HW331247   2.974   5.558   1.251 -0.2476 -0.0705 -0.0380
 7870SOL    MW431248   2.978   5.644   1.242 -0.1628 -0.1534  0.3754
 7871SOL     OW31249   5.727   0.188   2.870 -0.3285  0.4373 -0.0619
 7871SOL    HW231250   5.658   0.135   2.912  0.3201 -0.9906 -0.7103
 7871SOL    HW331251   5.771   0.231   2.942 -0.4017 -0.5273  0.5862
 7871SOL    MW431252   5.723   0.186   2.885  0.6952 -0.5380 -0.4598
 7872SOL     OW31253   3.135   3.126   0.022 -0.0155 -0.6702 -0.1386
 7872SOL    HW231254   3.196   3.073  -0.030  1.7757  1.3417 -0.2723
 7872SOL    HW331255   3.142   3.214  -0.015  0.5225  0.6428  2.7414
 7872SOL    MW431256   3.144   3.130   0.010 -0.0873 -0.2481  0.3642
 7873SOL     OW31257   5.258   1.649   2.898 -0.5926  0.3450  0.0681
 7873SOL    HW231258   5.252   1.591   2.973  1.6201  1.3081  1.0774
 7873SOL    HW331259   5.261   1.737   2.935 -1.0792  0.9595 -1.2632
 7873SOL    MW431260   5.258   1.653   2.913  0.1985  0.0298 -0.0701
 7874SOL     OW31261   1.327   1.681   5.064  0.0527 -0.0389 -0.4128
 7874SOL    HW231262   1.391   1.724   5.122 -0.7574 -0.8467  1.1502
 7874SOL    HW331263   1.353   1.589   5.065 -1.1776 -0.3937  0.3274
 7874SOL    MW431264   1.339   1.675   5.072 -0.1390  0.6929 -0.2545
 7875SOL     OW31265   0.263   3.837   1.174 -0.2167 -0.3367  0.2383
 7875SOL    HW231266   0.320   3.767   1.206 -1.4137 -0.4982  2.1581
 7875SOL    HW331267   0.313   3.917   1.189  0.5960 -0.6502 -0.6831
 7875SOL    MW431268   0.278   3.838   1.181  0.8439 -0.0166 -0.8088
 7876SOL     OW31269   0.887   4.959   1.600 -0.2600  0.1507  0.5331
 7876SOL    HW231270   0.932   4.997   1.525  0.8936 -1.6203  0.2774
 7876SOL    HW331271   0.804   4.928   1.565 -0.4157  0.7606  0.3497
 7876SOL    MW431272   0.882   4.960   1.586  0.1248 -0.6308  0.0992
 7877SOL     OW31273   0.336   3.191   1.202 -0.1121  0.1640 -0.8236
 7877SOL    HW231274   0.253   3.227   1.232  0.9370  1.9331  0.0731
 7877SOL    HW331275   0.349   3.113   1.256 -1.1958 -0.1799 -1.0279
 7877SOL    MW431276   0.327   3.185   1.213  0.8029  0.3802  0.5871
 7878SOL     OW31277   0.968   0.886   2.017  0.4868  0.1780  0.2306
 7878SOL    HW231278   0.994   0.944   2.088 -1.1687 -0.5464  1.4858
 7878SOL    HW331279   0.920   0.943   1.956 -0.5583  0.2862  1.1289
 7878SOL    MW431280   0.965   0.901   2.018 -0.5575  0.0024  0.5652
 7879SOL     OW31281   0.699   4.409   0.778  0.1304 -0.1577 -0.5070
 7879SOL    HW231282   0.753   4.435   0.703  0.1957  0.0990 -0.3730
 7879SOL    HW331283   0.609   4.416   0.746  0.1700 -2.7592 -1.4577
 7879SOL    MW431284   0.694   4.413   0.764  0.3196  0.0495  0.0803
 7880SOL     OW31285   4.663   2.327   1.815 -0.0207  0.7015 -0.1479
 7880SOL    HW231286   4.577   2.292   1.836  0.4988 -0.0237  0.8948
 7880SOL    HW331287   4.716   2.250   1.794  0.2765  1.1743 -1.2231
 7880SOL    MW431288   4.659   2.312   1.815  0.1846 -0.0872 -0.1090
 7881SOL     OW31289   1.697   4.922   2.696  0.3791 -0.1657  0.3634
 7881SOL    HW231290   1.650   4.953   2.619 -0.0648 -0.3591  0.5526
 7881SOL    HW331291   1.726   5.002   2.741 -0.2107 -0.0347  0.5153
 7881SOL    MW431292   1.695   4.937   2.692  0.8427 -0.0964 -0.0366
 7882SOL     OW31293   4.973   6.088   2.892 -0.4835  0.6306  0.3478
 7882SOL    HW231294   4.906   6.155   2.879 -2.4156 -1.4947 -1.5006
 7882SOL    HW331295   4.968   6.033   2.813  1.7879 -1.0284  1.2487
 7882SOL    MW431296   4.963   6.089   2.880  0.3477 -0.0203  0.6249
 7883SOL     OW31297   1.924   6.236   5.060  0.1743  0.0367  0.1265
 7883SOL    HW231298   1.990   6.263   5.125 -0.3940 -2.5473  1.9334
 7883SOL    HW331299   1.840   6.260   5.099 -0.1017  2.6212 -1.8291
 7883SOL    MW431300   1.922   6.243   5.073  0.1846 -0.2584  0.1161
 7884SOL     OW31301   3.614   5.717   4.701 -0.4011  0.1109 -0.7830
 7884SOL    HW231302   3.569   5.800   4.711 -1.1250 -0.4586  1.0372
 7884SOL    HW331303   3.703   5.734   4.731 -0.1381  0.5563 -1.7755
 7884SOL    MW431304   3.620   5.730   4.706 -0.4907 -0.1978  0.0208
 7885SOL     OW31305   1.206   1.951   0.892  0.5491  0.0456 -0.6042
 7885SOL    HW231306   1.162   1.996   0.820 -0.9466 -1.2681 -0.5577
 7885SOL    HW331307   1.137   1.903   0.936  1.1843  1.7655  2.5128
 7885SOL    MW431308   1.191   1.951   0.888 -0.9314  0.1677  0.6503
 7886SOL     OW31309   0.059   2.343   3.684  0.1803  0.8128 -0.2726
 7886SOL    HW231310   0.092   2.275   3.625  1.6000  2.5932 -1.6490
 7886SOL    HW331311   0.023   2.410   3.626 -0.8069  1.4662  1.0282
 7886SOL    MW431312   0.058   2.343   3.668 -0.5820 -0.2936  0.1720
 7887SOL     OW31313   1.570   0.174   2.085  0.4989 -0.1295 -0.4486
 7887SOL    HW231314   1.488   0.176   2.035  0.9607 -0.3430 -1.2350
 7887SOL    HW331315   1.563   0.248   2.145 -1.1992 -1.3949  1.0206
 7887SOL    MW431316   1.558   0.184   2.086  0.1878 -0.2377  0.2342
 7888SOL     OW31317   0.941   0.558   5.063 -0.2116  0.0690  0.3965
 7888SOL    HW231318   0.928   0.609   4.983  1.1708  0.3667  0.3304
 7888SOL    HW331319   0.897   0.475   5.047 -1.2599  0.7012 -0.0652
 7888SOL    MW431320   0.934   0.554   5.050  0.1632 -0.3508  0.0250
 7889SOL     OW31321   4.118   0.442   0.030  0.3539 -0.1290 -0.0586
 7889SOL    HW231322   4.134   0.528  -0.009  0.7449 -0.4284 -0.5689
 7889SOL    HW331323   4.153   0.379  -0.034 -2.7336 -0.8470 -1.2176
 7889SOL    MW431324   4.125   0.445   0.017 -0.1390  0.6130  0.5616
 7890SOL     OW31325   0.479   1.150   3.594 -0.5178 -0.1503 -0.1789
 7890SOL    HW231326   0.569   1.182   3.600 -1.0036  1.4034 -0.5941
 7890SOL    HW331327   0.453   1.168   3.503 -1.7996  1.0854  0.3915
 7890SOL    MW431328   0.488   1.157   3.583  0.2921  0.3805 -0.3302
 7891SOL     OW31329   4.286   1.112   4.828 -0.0239  0.0173 -0.4300
 7891SOL    HW231330   4.310   1.075   4.913  1.0046 -0.1384 -0.7823
 7891SOL    HW331331   4.355   1.085   4.769 -0.8925 -0.1401 -1.4040
 7891SOL    MW431332   4.298   1.104   4.832 -0.0824  0.8336 -0.2147
 7892SOL     OW31333   2.566   4.908   1.979 -0.0728 -0.2872 -0.0090
 7892SOL    HW231334   2.652   4.919   2.019 -0.2321 -0.5584  0.4121
 7892SOL    HW331335   2.580   4.845   1.909 -0.1487 -1.2315  0.8035
 7892SOL    MW431336   2.579   4.901   1.975 -0.7017  0.2663 -0.1847
 7893SOL     OW31337   0.584   2.432   5.220  0.8093  0.3587  0.2930
 7893SOL    HW231338   0.675   2.409   5.205  0.4417 -0.4211 -0.9112
 7893SOL    HW331339   0.577   2.522   5.188  0.7914 -0.1805 -1.3699
 7893SOL    MW431340   0.595   2.441   5.214  0.5283  0.3343 -0.5369
 7894SOL     OW31341   0.400   4.626   4.762  0.0637 -0.5868 -0.0401
 7894SOL    HW231342   0.345   4.559   4.723 -2.0247  1.5565 -1.0247
 7894SOL    HW331343   0.455   4.657   4.690  2.2568 -2.2542  0.7883
 7894SOL    MW431344   0.400   4.621   4.748  0.0495  0.1915  0.2332
 7895SOL     OW31345   5.544   5.608   5.594 -0.3181 -0.8532 -0.6979
 7895SOL    HW231346   5.512   5.564   5.672  0.3407 -0.3898 -0.1555
 7895SOL    HW331347   5.474   5.598   5.530 -1.8392  0.6555  0.6243
 7895SOL    MW431348   5.531   5.601   5.596 -0.0979  0.2633  0.6510
 7896SOL     OW31349   3.000   6.424   0.510  0.0726  0.2387  0.3675
 7896SOL    HW231350   2.953   6.373   0.576  1.9402  0.4574  1.9444
 7896SOL    HW331351   2.980   6.515   0.530  0.9447  0.3202  0.8690
 7896SOL    MW431352   2.991   6.429   0.521 -0.0276  0.5510  0.3632
 7897SOL     OW31353   0.859   0.688   2.820 -0.6442  0.0862  0.2161
 7897SOL    HW231354   0.871   0.683   2.915  0.2444  0.2576  0.1250
 7897SOL    HW331355   0.930   0.746   2.791 -3.1827  3.3302 -0.1009
 7897SOL    MW431356   0.870   0.695   2.829  0.6027  0.5257  0.1624
 7898SOL     OW31357   0.320   1.190   0.714  0.0147  0.4189 -0.0994
 7898SOL    HW231358   0.398   1.241   0.736 -0.5431  0.7282  1.2677
 7898SOL    HW331359   0.255   1.255   0.687  0.4464  0.1021 -2.0633
 7898SOL    MW431360   0.321   1.205   0.713  0.0657 -0.1618 -0.0306
 7899SOL     OW31361   0.254   5.181   1.848 -0.2662  0.1947 -0.1818
 7899SOL    HW231362   0.316   5.220   1.786  0.1423 -0.0786  0.0490
 7899SOL    HW331363   0.283   5.214   1.934  1.0624 -1.8101  0.2167
 7899SOL    MW431364   0.266   5.191   1.851  0.4338  1.0338 -0.4860
 7900SOL     OW31365   1.375   6.383   1.905  0.0931 -0.3407  0.3373
 7900SOL    HW231366   1.355   6.430   1.825 -2.6242 -2.0609 -0.1283
 7900SOL    HW331367   1.468   6.363   1.899  0.4732  1.6165 -1.1975
 7900SOL    MW431368   1.384   6.386   1.894 -0.0483 -0.1202 -0.1560
 7901SOL     OW31369   5.791   6.029   1.971  0.8340  0.1233  0.3044
 7901SOL    HW231370   5.721   6.091   1.990 -1.2409 -2.0276  0.0377
 7901SOL    HW331371   5.871   6.077   1.993 -0.6468  2.7318  0.4802
 7901SOL    MW431372   5.792   6.044   1.976 -0.4864  0.4824 -0.2351
 7902SOL     OW31373   5.734   1.689   0.480  0.4836 -0.7667  0.5377
 7902SOL    HW231374   5.702   1.689   0.570 -1.2192  2.4131  0.0755
 7902SOL    HW331375   5.658   1.664   0.428  0.9246 -0.7349 -0.1379
 7902SOL    MW431376   5.720   1.685   0.485  0.9641  0.0258 -0.3832
 7903SOL     OW31377   3.344   6.053   5.959  0.0706  0.5696 -0.4487
 7903SOL    HW231378   3.289   5.989   5.914 -3.4398  2.2199  1.1080
 7903SOL    HW331379   3.342   6.026   6.051  1.3673  1.0530 -0.2665
 7903SOL    MW431380   3.336   6.041   5.965 -0.3182  0.4439  0.1233
 7904SOL     OW31381   4.341   2.695   5.752 -0.2691  0.1853 -0.0748
 7904SOL    HW231382   4.364   2.603   5.769 -0.7216  0.4378  2.3584
 7904SOL    HW331383   4.424   2.741   5.761 -0.5399  0.3549  2.2923
 7904SOL    MW431384   4.355   2.689   5.756  0.5928  0.5806  0.3472
 7905SOL     OW31385   6.177   0.621   4.818  0.2142 -0.1763 -0.0560
 7905SOL    HW231386   6.219   0.554   4.872  1.2240  0.7506  0.3339
 7905SOL    HW331387   6.181   0.585   4.729  0.8634 -0.5787  0.1273
 7905SOL    MW431388   6.183   0.607   4.813 -0.2908 -0.0748 -0.4026
 7906SOL     OW31389   4.078   5.292   5.558  0.0862  0.2245 -0.0317
 7906SOL    HW231390   4.129   5.340   5.623 -1.1265  1.8385 -0.2283
 7906SOL    HW331391   4.041   5.218   5.607  0.3964  0.5671  0.7474
 7906SOL    MW431392   4.080   5.289   5.573  0.0547 -0.5502  0.4982
 7907SOL     OW31393   3.408   3.922   4.727  0.1387 -0.5613  0.0356
 7907SOL    HW231394   3.313   3.937   4.721  0.1624 -0.2963  0.2922
 7907SOL    HW331395   3.417   3.829   4.747 -0.1793 -0.1084  2.6858
 7907SOL    MW431396   3.397   3.912   4.729 -0.7190 -0.6380 -0.1563
 7908SOL     OW31397   0.268   1.249   1.755  0.0808 -0.1013  0.5801
 7908SOL    HW231398   0.200   1.316   1.749  0.5092  0.2801 -0.0622
 7908SOL    HW331399   0.232   1.174   1.708  0.1581  0.1453  0.1239
 7908SOL    MW431400   0.254   1.248   1.748 -0.2505  0.5653 -0.7777
 7909SOL     OW31401   4.090   4.870   0.802  0.1448  0.6589  0.4696
 7909SOL    HW231402   4.149   4.848   0.874  0.4662 -1.5999 -0.3940
 7909SOL    HW331403   4.009   4.821   0.821  0.1437  0.2426 -0.5265
 7909SOL    MW431404   4.087   4.860   0.814 -0.2114  0.0852  0.0594
 7910SOL     OW31405   2.383   0.813   1.643 -0.2428 -0.3011  0.6830
 7910SOL    HW231406   2.352   0.795   1.731  1.7362 -0.5142  1.3880
 7910SOL    HW331407   2.384   0.727   1.599 -1.7535 -0.1158  0.2372
 7910SOL    MW431408   2.379   0.799   1.649  0.1393 -0.2080 -0.1635
 7911SOL     OW31409   4.342   2.468   3.072  0.1398  0.3099  0.1944
 7911SOL    HW231410   4.262   2.418   3.088  0.8891 -1.0005  0.0044
 7911SOL    HW331411   4.343   2.535   3.140 -0.1318 -0.8905  1.4187
 7911SOL    MW431412   4.331   2.470   3.083 -0.4267  0.0887 -0.3671
 7912SOL     OW31413   0.291   5.368   6.149 -0.1356  0.1238  0.3787
 7912SOL    HW231414   0.381   5.341   6.165 -0.2165 -0.8272 -0.6949
 7912SOL    HW331415   0.251   5.296   6.101 -0.2438  2.2188 -3.0155
 7912SOL    MW431416   0.297   5.355   6.145  0.1303 -0.0643  0.2999
 7913SOL     OW31417   2.888   5.888   3.581  0.4747  0.3322 -0.5108
 7913SOL    HW231418   2.915   5.893   3.489  2.1339  0.4353 -0.0484
 7913SOL    HW331419   2.969   5.901   3.631 -0.2313 -0.6373  0.9677
 7913SOL    MW431420   2.902   5.891   3.576 -0.6166 -0.7318 -0.5678
 7914SOL     OW31421   3.328   5.602   1.016 -0.3776 -0.3221 -0.1709
 7914SOL    HW231422   3.269   5.643   0.953 -0.5493  0.2962  0.3848
 7914SOL    HW331423   3.307   5.643   1.100 -0.0706 -1.0478  0.2778
 7914SOL    MW431424   3.317   5.613   1.019 -0.3124 -0.3705  0.8223
 7915SOL     OW31425   5.848   2.297   4.005 -0.7852 -0.6328 -0.3286
 7915SOL    HW231426   5.792   2.374   4.016 -0.7450 -0.4637 -1.2098
 7915SOL    HW331427   5.811   2.231   4.064 -2.3185 -0.7244 -1.3371
 7915SOL    MW431428   5.836   2.298   4.014 -0.6386 -0.1313  0.3379
 7916SOL     OW31429   2.136   1.386   6.155 -0.6883  0.1502  1.0335
 7916SOL    HW231430   2.100   1.339   6.230 -0.8354  0.8390  1.3983
 7916SOL    HW331431   2.229   1.364   6.154 -0.8650 -0.6047  0.8581
 7916SOL    MW431432   2.143   1.377   6.165 -0.3644  0.5913  0.3151
 7917SOL     OW31433   6.155   1.170   3.858 -0.2064  0.3005 -0.1055
 7917SOL    HW231434   6.113   1.202   3.778 -0.9453 -0.0172  0.1406
 7917SOL    HW331435   6.165   1.249   3.912  0.4677  0.5448 -0.5792
 7917SOL    MW431436   6.151   1.185   3.855  0.0732 -0.4262  0.4624
 7918SOL     OW31437   2.311   2.992   2.161  0.0710  0.5586 -0.0723
 7918SOL    HW231438   2.382   3.038   2.206 -0.7624  0.7683  1.0762
 7918SOL    HW331439   2.289   3.049   2.088 -0.0493  1.3368  0.5553
 7918SOL    MW431440   2.318   3.006   2.157 -0.2126 -0.2070 -0.1187
 7919SOL     OW31441   0.298   1.931   2.723 -0.5620  0.0232 -0.4127
 7919SOL    HW231442   0.362   1.869   2.688 -1.2387  0.2783 -2.2093
 7919SOL    HW331443   0.311   2.011   2.671 -3.3916 -0.4441 -2.0053
 7919SOL    MW431444   0.308   1.934   2.711  0.2654  0.1633  0.0966
 7920SOL     OW31445   1.778   2.191   6.232  0.1381  0.6898 -0.1056
 7920SOL    HW231446   1.725   2.213   6.155 -1.1155  0.6648  0.7313
 7920SOL    HW331447   1.805   2.275   6.267 -0.8030  0.7687  0.4515
 7920SOL    MW431448   1.775   2.205   6.226  0.1352 -0.2803 -0.4657
 7921SOL     OW31449   2.090   6.426   2.346 -0.2593  0.3552  0.2013
 7921SOL    HW231450   2.131   6.410   2.260  0.1604  0.0627  0.4505
 7921SOL    HW331451   2.036   6.504   2.332 -0.2647  0.2581 -0.3543
 7921SOL    MW431452   2.089   6.434   2.333  0.4031 -0.6440 -0.5149
 7922SOL     OW31453   2.471   3.046   5.229  0.0008  0.0466  0.1569
 7922SOL    HW231454   2.379   3.074   5.226  0.0679  0.1982 -0.9261
 7922SOL    HW331455   2.520   3.128   5.236  0.0749  0.0020  0.1582
 7922SOL    MW431456   2.465   3.061   5.230 -0.3058  0.0088  0.3742
 7923SOL     OW31457   6.319   1.485   5.399 -0.6409  0.0782 -0.8111
 7923SOL    HW231458   6.392   1.424   5.414 -0.3336  0.5943 -0.1577
 7923SOL    HW331459   6.361   1.563   5.364 -0.3856  1.6269  2.5886
 7923SOL    MW431460   6.334   1.487   5.396  0.7057 -0.6047 -0.1395
 7924SOL     OW31461   2.362   3.423   2.909  0.8151 -0.0154  0.5577
 7924SOL    HW231462   2.430   3.362   2.881  0.4194 -0.9144  1.5250
 7924SOL    HW331463   2.295   3.417   2.840  0.9596 -0.3709  0.4468
 7924SOL    MW431464   2.362   3.415   2.896 -0.1525 -0.0897  1.2582
 7925SOL     OW31465   0.855   1.651   5.300  0.7109 -0.1210 -0.9471
 7925SOL    HW231466   0.902   1.612   5.227  1.4769 -1.4741  0.2323
 7925SOL    HW331467   0.851   1.582   5.366  0.4029  1.1946  0.4606
 7925SOL    MW431468   0.861   1.637   5.299  0.4147  0.0936  0.0228
 7926SOL     OW31469   0.383   3.184   0.500 -0.0661 -0.3340  0.3404
 7926SOL    HW231470   0.436   3.209   0.424 -1.1817  0.6719 -0.1552
 7926SOL    HW331471   0.443   3.185   0.574  0.8847 -0.5880 -0.4123
 7926SOL    MW431472   0.398   3.188   0.499  0.0313 -0.0796 -0.2112
 7927SOL     OW31473   6.011   6.241   1.700  0.0047  0.3375  0.1565
 7927SOL    HW231474   5.922   6.274   1.689 -0.0441  0.2451  0.2718
 7927SOL    HW331475   6.029   6.195   1.618  0.3309  1.2408 -0.2900
 7927SOL    MW431476   6.001   6.239   1.687  0.3849  0.2052 -0.1299
 7928SOL     OW31477   2.856   5.260   3.188  0.0684 -0.6470  0.2897
 7928SOL    HW231478   2.935   5.209   3.205  1.3540  0.8985 -0.8256
 7928SOL    HW331479   2.836   5.244   3.096  0.5541  0.8722 -0.1118
 7928SOL    MW431480   2.864   5.251   3.178 -0.5562 -0.7059  0.2788
 7929SOL     OW31481   0.234   3.650   5.151  0.1608  0.4562  1.0199
 7929SOL    HW231482   0.220   3.689   5.064 -0.0358  0.7413  1.1766
 7929SOL    HW331483   0.234   3.725   5.210  0.3998  0.2720  1.2558
 7929SOL    MW431484   0.232   3.665   5.147  0.2505  0.1248  0.2034
 7930SOL     OW31485   5.475   1.104   2.828 -0.5356 -0.5799  0.2475
 7930SOL    HW231486   5.396   1.053   2.842 -0.2338 -1.2099 -0.2884
 7930SOL    HW331487   5.518   1.062   2.753 -0.4174  0.6189 -0.3898
 7930SOL    MW431488   5.470   1.092   2.820 -0.7417 -0.0565  0.2944
 7931SOL     OW31489   0.895   0.116   0.662  0.1759 -0.2344 -0.2088
 7931SOL    HW231490   0.888   0.095   0.755  1.5803  0.0883 -0.0117
 7931SOL    HW331491   0.956   0.190   0.659 -0.6503  0.4188 -1.3062
 7931SOL    MW431492   0.902   0.123   0.674 -0.1016  0.1734 -0.4109
 7932SOL     OW31493   1.588   2.467   3.179  0.0086 -0.2494 -0.5086
 7932SOL    HW231494   1.656   2.409   3.145  0.6219  0.8274 -1.1972
 7932SOL    HW331495   1.507   2.437   3.138  0.6497  0.6999 -2.5871
 7932SOL    MW431496   1.587   2.456   3.169 -0.0143  0.3065  0.2251
 7933SOL     OW31497   2.184   3.771   3.117  0.1136  0.5452  0.1572
 7933SOL    HW231498   2.266   3.821   3.116 -0.3208  1.2571 -0.0541
 7933SOL    HW331499   2.148   3.785   3.204  0.5273 -0.3095  0.4869
 7933SOL    MW431500   2.190   3.779   3.128  0.1597 -0.0289 -0.2382
 7934SOL     OW31501   5.888   0.609   4.212 -0.9499 -0.0885 -0.3695
 7934SOL    HW231502   5.958   0.566   4.161 -0.9372 -0.3019 -0.1764
 7934SOL    HW331503   5.830   0.537   4.238 -0.8730 -0.0026  0.0481
 7934SOL    MW431504   5.890   0.594   4.209 -0.5860  0.7125 -0.2424
 7935SOL     OW31505   4.992   5.108   1.840 -0.5397 -0.4759  0.0019
 7935SOL    HW231506   4.897   5.100   1.838 -0.4729 -1.2124 -1.1862
 7935SOL    HW331507   5.013   5.114   1.934 -1.7551 -0.0630  0.2712
 7935SOL    MW431508   4.982   5.107   1.852  0.2799  0.0056  0.3376
 7936SOL     OW31509   6.065   1.587   5.981 -0.4722  0.0619 -0.7673
 7936SOL    HW231510   6.000   1.563   5.914 -0.6740 -0.6810 -0.3192
 7936SOL    HW331511   6.070   1.682   5.976 -2.0660  0.2041 -0.4054
 7936SOL    MW431512   6.057   1.596   5.972  0.2038  0.2495 -0.0823
 7937SOL     OW31513   5.900   0.323   3.098  0.1996 -0.0285 -0.2815
 7937SOL    HW231514   5.883   0.315   3.192  1.8225  0.2287  0.0651
 7937SOL    HW331515   5.894   0.416   3.080 -0.5931 -0.1262 -0.5413
 7937SOL    MW431516   5.897   0.334   3.108  0.0265  0.1433 -0.7543
 7938SOL     OW31517   2.697   1.501   3.536 -0.4522 -0.0278 -0.2933
 7938SOL    HW231518   2.658   1.417   3.559 -0.5767  0.5554  1.8140
 7938SOL    HW331519   2.790   1.491   3.558 -0.0989 -0.1787 -1.7521
 7938SOL    MW431520   2.704   1.489   3.542 -0.4124  0.0120  0.5666
 7939SOL     OW31521   3.451   2.462   2.379 -0.2241 -0.4737 -0.4061
 7939SOL    HW231522   3.440   2.369   2.401  0.8978 -0.2745  1.1658
 7939SOL    HW331523   3.527   2.490   2.430 -0.2458  1.2071 -1.2231
 7939SOL    MW431524   3.460   2.453   2.388  0.0517  0.4062  0.2605
 7940SOL     OW31525   0.744   4.759   0.269 -0.6352  0.8044 -0.5643
 7940SOL    HW231526   0.751   4.825   0.338  1.8645 -0.9624  1.0540
 7940SOL    HW331527   0.809   4.784   0.204 -0.0270  0.2738 -0.1827
 7940SOL    MW431528   0.754   4.771   0.270  0.7810 -0.1210  0.4926
 7941SOL     OW31529   0.223   2.894   5.933  0.3049 -0.0446 -0.4826
 7941SOL    HW231530   0.294   2.920   5.992  0.9140 -1.3991 -0.5987
 7941SOL    HW331531   0.258   2.821   5.883 -1.2032 -0.8376 -0.4526
 7941SOL    MW431532   0.237   2.888   5.934 -0.6048 -0.5042  0.1159
 7942SOL     OW31533   1.317   1.308   3.714 -0.0562  0.7380  0.1394
 7942SOL    HW231534   1.376   1.329   3.787  0.9842  1.0366 -0.7611
 7942SOL    HW331535   1.281   1.222   3.736 -0.9704  1.4891  1.7483
 7942SOL    MW431536   1.320   1.299   3.727 -0.1859  0.6857 -0.3503
 7943SOL     OW31537   2.460   2.832   4.417 -0.2935  0.2018  0.1371
 7943SOL    HW231538   2.490   2.916   4.381  1.4955  0.7566  2.6406
 7943SOL    HW331539   2.534   2.773   4.406 -1.0134 -0.6554 -0.2626
 7943SOL    MW431540   2.474   2.836   4.411  0.1994 -0.0333  0.1460
 7944SOL     OW31541   2.702   3.590   4.961  1.0790 -0.2913  0.3092
 7944SOL    HW231542   2.792   3.619   4.978  1.6224 -1.7158  0.0004
 7944SOL    HW331543   2.664   3.660   4.909  2.2929 -0.0562 -0.3053
 7944SOL    MW431544   2.709   3.603   4.956  0.5438 -0.0349  0.1291
 7945SOL     OW31545   5.711   0.681   0.938  0.6190  0.1762  0.0703
 7945SOL    HW231546   5.643   0.650   0.877 -1.4443  0.0854  2.2720
 7945SOL    HW331547   5.699   0.776   0.940  2.7049  0.5645 -1.8374
 7945SOL    MW431548   5.701   0.689   0.930  0.3698  0.8335  0.4692
 7946SOL     OW31549   4.626   6.426   1.209 -0.2120  0.4008 -0.1455
 7946SOL    HW231550   4.716   6.396   1.203 -0.6082 -1.3331  1.6046
 7946SOL    HW331551   4.623   6.504   1.153  1.5016 -1.4351 -3.0877
 7946SOL    MW431552   4.637   6.432   1.201 -0.3143  0.2406  0.3891
 7947SOL     OW31553   5.046   2.450   5.581  0.1869 -0.2612 -0.1687
 7947SOL    HW231554   4.991   2.525   5.605 -0.0875 -0.6800  0.5497
 7947SOL    HW331555   5.078   2.417   5.665 -0.5435 -1.5804 -0.3849
 7947SOL    MW431556   5.043   2.455   5.595 -0.2990  0.0449  0.2870
 7948SOL     OW31557   0.406   5.541   2.658 -0.6227  0.6240 -0.0080
 7948SOL    HW231558   0.445   5.628   2.654  1.1761 -0.1355 -0.3330
 7948SOL    HW331559   0.332   5.544   2.597  0.7961  1.3103 -1.8075
 7948SOL    MW431560   0.401   5.553   2.649 -0.1365 -0.1144  0.2087
 7949SOL     OW31561   4.282   2.913   1.515 -0.0484 -0.4889  0.1568
 7949SOL    HW231562   4.370   2.945   1.497 -0.6023 -0.5921 -3.2841
 7949SOL    HW331563   4.227   2.956   1.451 -2.1368 -2.2304  0.6655
 7949SOL    MW431564   4.287   2.923   1.504  0.3676 -0.5136  0.0608
 7950SOL     OW31565   1.167   2.003   2.094  0.0803  0.3255 -0.2022
 7950SOL    HW231566   1.108   1.951   2.039  0.6833  0.6494 -1.1711
 7950SOL    HW331567   1.134   1.990   2.183 -0.0737 -1.3313 -0.4731
 7950SOL    MW431568   1.155   1.994   2.099 -0.5610 -0.4597  0.2689
 7951SOL     OW31569   0.927   1.074   3.166  0.0149  0.9171  0.0329
 7951SOL    HW231570   0.886   0.989   3.148  2.7304 -0.2729 -1.0904
 7951SOL    HW331571   0.930   1.078   3.262  0.8359 -0.8650  0.1430
 7951SOL    MW431572   0.922   1.063   3.177  0.2682 -0.1599  0.0225
 7952SOL     OW31573   1.450   0.198   2.454  0.3194 -0.0742 -0.0800
 7952SOL    HW231574   1.499   0.258   2.397  0.0849  0.0683 -0.1345
 7952SOL    HW331575   1.369   0.181   2.406 -0.1236  0.4785  0.4493
 7952SOL    MW431576   1.446   0.204   2.440 -0.3990 -0.3469  0.0664
 7953SOL     OW31577   5.868   0.209   0.689  0.4635  0.0971  0.0441
 7953SOL    HW231578   5.870   0.223   0.594  0.7448  1.5352  0.2356
 7953SOL    HW331579   5.942   0.151   0.706 -1.9491 -3.6145 -1.0455
 7953SOL    MW431580   5.878   0.203   0.678 -0.5155 -0.2550  0.2624
 7954SOL     OW31581   2.994   4.514   5.545  0.1662  0.0726 -0.3012
 7954SOL    HW231582   2.977   4.468   5.462  1.8387  2.5297 -2.1488
 7954SOL    HW331583   3.075   4.475   5.578  1.6292  1.5730 -1.9070
 7954SOL    MW431584   3.002   4.503   5.538 -0.5066 -0.6601  0.0698
 7955SOL     OW31585   4.452   2.123   1.025  0.4377 -0.2066  0.2088
 7955SOL    HW231586   4.371   2.172   1.039 -0.3326 -1.3677 -0.0369
 7955SOL    HW331587   4.424   2.041   0.983  1.7880 -0.4323 -0.3116
 7955SOL    MW431588   4.437   2.118   1.021  0.4956  0.4647  0.1932
 7956SOL     OW31589   1.297   4.821   4.431  0.0608  0.1375  0.1356
 7956SOL    HW231590   1.231   4.885   4.459 -1.2075 -0.6731 -0.8799
 7956SOL    HW331591   1.327   4.781   4.513  0.5605  1.6847  0.7528
 7956SOL    MW431592   1.292   4.824   4.445 -0.3493  0.0092  0.4961
 7957SOL     OW31593   0.687   1.560   2.057 -0.3226 -0.3722  0.1426
 7957SOL    HW231594   0.742   1.574   1.980 -1.7939  0.4608 -0.8037
 7957SOL    HW331595   0.696   1.466   2.076  2.6783 -0.0218  1.0703
 7957SOL    MW431596   0.696   1.549   2.050 -0.6911 -0.3169 -0.0316
 7958SOL     OW31597   3.886   6.314   1.301  0.1963  0.2086  0.1817
 7958SOL    HW231598   3.905   6.366   1.378  0.4362  0.5294 -0.0891
 7958SOL    HW331599   3.922   6.227   1.321  0.0483  0.2285  0.5205
 7958SOL    MW431600   3.894   6.309   1.314  0.6247 -0.2246 -0.3698
 7959SOL     OW31601   5.840   6.354   2.183 -0.2829 -0.0438 -0.0638
 7959SOL    HW231602   5.764   6.311   2.145 -1.3104  0.1585  1.6196
 7959SOL    HW331603   5.881   6.287   2.238 -1.0611  0.6388  1.4313
 7959SOL    MW431604   5.835   6.340   2.185 -0.6844  0.5659  0.2126
 7960SOL     OW31605   0.207   1.709   0.380 -0.2617  0.3861 -0.0055
 7960SOL    HW231606   0.252   1.751   0.453  1.1263  0.7427 -1.0112
 7960SOL    HW331607   0.114   1.721   0.399 -0.0207 -1.1371  2.6101
 7960SOL    MW431608   0.201   1.716   0.392  0.3666 -0.3108  0.7476
 7961SOL     OW31609   6.408   5.097   2.809  0.5664  0.2900  0.0441
 7961SOL    HW231610   6.344   5.157   2.770  1.0594  1.2209  0.6226
 7961SOL    HW331611   6.453   5.059   2.734  1.9097  2.4987 -0.3587
 7961SOL    MW431612   6.405   5.100   2.794  0.1223 -0.0602  0.0674
 7962SOL     OW31613   2.124   2.048   0.868  0.1664 -0.4905 -0.3271
 7962SOL    HW231614   2.096   2.069   0.779 -0.2423  2.9221  0.4546
 7962SOL    HW331615   2.045   2.017   0.912 -0.9168  2.3852 -0.0064
 7962SOL    MW431616   2.110   2.047   0.862  0.1692  0.1683 -0.3706
 7963SOL     OW31617   5.266   2.886   0.875  0.1642  0.3866 -0.1759
 7963SOL    HW231618   5.353   2.847   0.876 -0.4832 -1.1097 -0.4162
 7963SOL    HW331619   5.279   2.974   0.910  1.5379 -0.3009  1.1407
 7963SOL    MW431620   5.279   2.893   0.879 -0.3311  0.1348  0.0543
 7964SOL     OW31621   0.168   4.770   0.016  0.0184 -0.5081  0.1520
 7964SOL    HW231622   0.134   4.852  -0.020 -0.3087 -0.0611  1.4194
 7964SOL    HW331623   0.208   4.796   0.099  4.6410 -0.7268 -1.6662
 7964SOL    MW431624   0.169   4.784   0.022 -0.4296  0.9021  0.1544
 7965SOL     OW31625   4.292   0.836   1.999 -0.3814  0.2933 -0.0686
 7965SOL    HW231626   4.284   0.932   1.999  1.3584  0.4795 -0.2381
 7965SOL    HW331627   4.316   0.815   2.089  0.5279  0.1628 -0.3367
 7965SOL    MW431628   4.294   0.846   2.011  0.3992  0.7212 -0.4277
 7966SOL     OW31629   3.237   3.481   4.249  0.4685  0.7999  0.6298
 7966SOL    HW231630   3.159   3.529   4.221  0.4630  2.4085  3.1392
 7966SOL    HW331631   3.204   3.413   4.307  0.8763  0.9185  1.0002
 7966SOL    MW431632   3.222   3.479   4.253  0.1741 -0.4964 -0.2559
 7967SOL     OW31633   2.563   2.539   0.797  0.4292  0.4369 -0.1603
 7967SOL    HW231634   2.502   2.491   0.740  0.2415  1.1966 -0.6283
 7967SOL    HW331635   2.526   2.529   0.885  0.0284  0.2769 -0.3406
 7967SOL    MW431636   2.550   2.531   0.801  0.1591  0.0821  1.0166
 7968SOL     OW31637   4.167   3.977   4.741 -0.6423 -0.0959 -0.0938
 7968SOL    HW231638   4.189   4.064   4.707 -0.7556 -0.1234 -0.2377
 7968SOL    HW331639   4.251   3.938   4.764 -0.6551  0.4145  0.8585
 7968SOL    MW431640   4.181   3.983   4.739  0.4811  0.2210  0.2101
 7969SOL     OW31641   4.958   3.921   5.369  0.6869 -0.0516  0.2455
 7969SOL    HW231642   5.038   3.931   5.318 -0.3645  0.1747 -1.4621
 7969SOL    HW331643   4.984   3.870   5.445  2.9399  2.0694  1.0194
 7969SOL    MW431644   4.972   3.916   5.372  0.0658  0.1249 -0.7034
 7970SOL     OW31645   5.575   3.168   5.145  0.3678 -0.3116 -1.1198
 7970SOL    HW231646   5.550   3.250   5.102  0.1123 -0.6909 -1.7106
 7970SOL    HW331647   5.546   3.178   5.235  0.5358  0.3342 -1.1363
 7970SOL    MW431648   5.568   3.180   5.151 -0.8277  0.1655  0.5069
 7971SOL     OW31649   2.120   4.314   2.408 -0.3646 -0.4329 -0.4536
 7971SOL    HW231650   2.148   4.375   2.477 -1.2117 -0.8607  0.2896
 7971SOL    HW331651   2.191   4.251   2.401  0.4422  0.5090 -1.1031
 7971SOL    MW431652   2.133   4.314   2.416 -0.0309  0.4326  0.5316
 7972SOL     OW31653   1.400   6.113   3.152  0.1203 -0.0956 -0.1904
 7972SOL    HW231654   1.485   6.074   3.175 -0.2411 -1.2946 -0.7533
 7972SOL    HW331655   1.340   6.081   3.219 -0.1451 -0.3901 -0.5599
 7972SOL    MW431656   1.404   6.103   3.164  0.9449  0.0989 -0.0032
 7973SOL     OW31657   5.403   5.273   1.714  0.0086 -0.7838 -0.1116
 7973SOL    HW231658   5.445   5.188   1.703 -0.1105 -0.8308 -0.2030
 7973SOL    HW331659   5.335   5.276   1.646  2.4199  0.9253 -2.6439
 7973SOL    MW431660   5.399   5.262   1.704 -0.0647 -0.0009 -0.1013
 7974SOL     OW31661   5.006   5.363   4.010  0.2629 -0.2214 -0.1901
 7974SOL    HW231662   4.969   5.295   3.954 -0.2482  0.0879 -0.2343
 7974SOL    HW331663   4.994   5.329   4.099  1.9839 -1.1714 -0.2772
 7974SOL    MW431664   5.000   5.349   4.015  0.1962  0.2433  0.8588
 7975SOL     OW31665   1.339   4.145   6.194 -0.2411  0.3953  0.0654
 7975SOL    HW231666   1.393   4.124   6.117 -0.0162 -0.1988  0.3807
 7975SOL    HW331667   1.398   4.134   6.268 -0.7366 -0.0416  0.4007
 7975SOL    MW431668   1.354   4.141   6.193  0.6165  0.0943 -0.3177
 7976SOL     OW31669   1.437   2.969   4.809 -0.5196  0.2117 -0.1796
 7976SOL    HW231670   1.434   3.064   4.814  1.5428  0.2694  1.5426
 7976SOL    HW331671   1.516   2.950   4.757 -1.2780 -0.5909 -1.0895
 7976SOL    MW431672   1.447   2.979   4.803  0.2787 -0.0157  0.0208
 7977SOL     OW31673   3.294   0.604   2.296 -0.5693  0.6458  0.4523
 7977SOL    HW231674   3.364   0.576   2.238 -2.5488  1.7811 -2.7157
 7977SOL    HW331675   3.339   0.641   2.372  2.1501 -1.2563 -0.0760
 7977SOL    MW431676   3.309   0.605   2.298 -0.3682 -0.1047  0.3421
 7978SOL     OW31677   3.762   1.075   0.163  0.4107  0.5438  0.3379
 7978SOL    HW231678   3.687   1.093   0.220  0.1862 -0.5679  0.4195
 7978SOL    HW331679   3.743   1.123   0.083 -0.7978 -0.3189  0.0657
 7978SOL    MW431680   3.749   1.083   0.160 -0.1168  0.3025  1.1203
 7979SOL     OW31681   3.175   0.575   5.578 -0.0131  0.5213 -0.1208
 7979SOL    HW231682   3.254   0.532   5.544 -0.6044 -0.3282 -0.4492
 7979SOL    HW331683   3.199   0.667   5.583  1.3213  0.1647  0.6788
 7979SOL    MW431684   3.189   0.581   5.574  0.2845 -0.2282 -0.5288
 7980SOL     OW31685   5.634   3.148   1.390 -0.3064 -0.1987  0.2154
 7980SOL    HW231686   5.622   3.243   1.392 -0.5762 -0.2080 -0.6838
 7980SOL    HW331687   5.729   3.136   1.384 -0.2429 -0.0009  0.7303
 7980SOL    MW431688   5.645   3.159   1.389  0.1435 -0.1818  0.5571
 7981SOL     OW31689   5.310   0.062   5.352 -0.2738 -0.3568  0.3189
 7981SOL    HW231690   5.228   0.019   5.324  0.3986 -1.1357 -0.5469
 7981SOL    HW331691   5.287   0.154   5.360 -1.3932 -0.6479  0.7027
 7981SOL    MW431692   5.296   0.068   5.349  0.2406  0.0342  0.2360
 7982SOL     OW31693   3.821   3.073   3.666 -0.2422 -0.0320  0.1677
 7982SOL    HW231694   3.784   2.993   3.629  1.6234 -0.2086 -1.4607
 7982SOL    HW331695   3.914   3.069   3.645  0.3481  1.4466  2.1421
 7982SOL    MW431696   3.829   3.062   3.659 -0.3661  0.0653 -0.2207
 7983SOL     OW31697   5.671   4.435   4.635 -0.0329  0.2897 -0.3292
 7983SOL    HW231698   5.645   4.424   4.543 -0.0459  1.2786 -0.4604
 7983SOL    HW331699   5.655   4.350   4.675  1.6799 -0.7469 -1.6501
 7983SOL    MW431700   5.666   4.422   4.628  0.2436 -0.1239  0.7345
 7984SOL     OW31701   0.415   3.554   3.199 -0.0253  0.2016  0.1158
 7984SOL    HW231702   0.388   3.643   3.175  0.8713  0.2320 -0.8473
 7984SOL    HW331703   0.369   3.498   3.136  2.0560  0.2573 -1.5990
 7984SOL    MW431704   0.405   3.558   3.187 -0.5456  0.4020  0.3571
 7985SOL     OW31705   3.351   3.189   5.061 -0.1846 -0.8064  0.6947
 7985SOL    HW231706   3.336   3.220   5.150 -3.0196  1.1389 -0.2973
 7985SOL    HW331707   3.285   3.121   5.047  0.1359 -0.9961  0.0610
 7985SOL    MW431708   3.340   3.184   5.071  0.3036  0.5110  0.2241
 7986SOL     OW31709   3.577   1.816   3.117 -0.0747  0.5915 -0.2461
 7986SOL    HW231710   3.620   1.785   3.197  0.2403 -1.1717 -1.0618
 7986SOL    HW331711   3.491   1.844   3.146 -0.4063 -1.1395  0.5647
 7986SOL    MW431712   3.572   1.816   3.132  0.1669 -0.2759  0.2315
 7987SOL     OW31713   2.543   1.654   3.055  0.4818 -0.2922 -0.5520
 7987SOL    HW231714   2.462   1.612   3.083  1.1116  0.0365  1.9909
 7987SOL    HW331715   2.605   1.634   3.125  1.6923  2.1785 -0.8290
 7987SOL    MW431716   2.541   1.646   3.068  0.1498  0.3900 -0.4413
 7988SOL     OW31717   3.982   5.417   3.907  0.3224  0.0883  0.0125
 7988SOL    HW231718   4.045   5.365   3.857 -0.8149 -1.6011  0.2336
 7988SOL    HW331719   3.962   5.362   3.983  0.7560  1.8728  1.4886
 7988SOL    MW431720   3.988   5.403   3.911  0.2925  0.0896 -0.0090
 7989SOL     OW31721   3.433   5.047   0.946  0.1866 -0.5743  0.4292
 7989SOL    HW231722   3.444   5.013   0.858  2.4305  2.0202 -0.4150
 7989SOL    HW331723   3.486   4.990   1.001  4.0588  1.3625 -0.9721
 7989SOL    MW431724   3.441   5.035   0.942 -0.5464 -0.2713  0.1329
 7990SOL     OW31725   5.899   2.205   3.190 -0.2434  0.1688  0.3836
 7990SOL    HW231726   5.877   2.260   3.114 -1.4809  1.9621  1.9316
 7990SOL    HW331727   5.891   2.115   3.158 -1.2490  0.8697 -1.4734
 7990SOL    MW431728   5.895   2.200   3.176  0.1831 -0.2734  0.7015
 7991SOL     OW31729   6.408   3.988   0.369 -0.0662  0.3422  0.3797
 7991SOL    HW231730   6.403   4.031   0.283 -1.2975  1.9480  1.2027
 7991SOL    HW331731   6.404   3.895   0.349 -2.0479  0.7006 -1.2685
 7991SOL    MW431732   6.407   3.982   0.355  0.2002 -0.3183 -0.4784
 7992SOL     OW31733   2.199   1.069   3.357  0.0860  0.0395  0.1921
 7992SOL    HW231734   2.112   1.032   3.341  0.1445  0.9099 -2.5216
 7992SOL    HW331735   2.183   1.159   3.383  0.0911 -0.8605  3.8438
 7992SOL    MW431736   2.186   1.076   3.358 -0.3280  0.2123  0.4696
 7993SOL     OW31737   4.577   1.103   2.160 -0.3188  0.3666 -0.7933
 7993SOL    HW231738   4.585   1.020   2.208  2.0153  0.1556 -1.4113
 7993SOL    HW331739   4.639   1.094   2.087 -0.9818  2.1592 -1.6235
 7993SOL    MW431740   4.586   1.091   2.157 -0.6029  0.0907 -0.3779
 7994SOL     OW31741   2.857   3.560   1.777  0.2727  0.1214  0.4929
 7994SOL    HW231742   2.942   3.565   1.820  0.0020  3.5979  0.9113
 7994SOL    HW331743   2.798   3.608   1.836 -1.1016  1.0479 -1.5159
 7994SOL    MW431744   2.860   3.567   1.791 -0.0427 -0.0585 -0.2901
 7995SOL     OW31745   4.743   1.538   5.048  1.0185  0.0078 -0.2657
 7995SOL    HW231746   4.777   1.627   5.041 -0.4391  0.6643  0.6102
 7995SOL    HW331747   4.788   1.501   5.124  1.6779 -0.0530 -0.6745
 7995SOL    MW431748   4.754   1.545   5.057  0.1782  0.2701 -0.5723
 7996SOL     OW31749   1.007   0.054   2.966  0.7603  0.0038 -0.2051
 7996SOL    HW231750   0.989   0.048   2.872 -0.8018 -0.4251  0.0867
 7996SOL    HW331751   0.990   0.145   2.988  1.8910  0.2845 -0.4727
 7996SOL    MW431752   1.002   0.065   2.956  0.5510 -0.0545  0.1755
 7997SOL     OW31753   3.143   6.249   2.531 -0.2350  0.4357 -0.3689
 7997SOL    HW231754   3.180   6.284   2.612  2.0752 -0.6065 -0.8846
 7997SOL    HW331755   3.174   6.308   2.463  1.2290 -0.8631 -0.8993
 7997SOL    MW431756   3.152   6.261   2.532 -0.3576 -0.5568 -0.0208
 7998SOL     OW31757   3.084   5.273   0.071 -0.8827  0.0205  0.1400
 7998SOL    HW231758   3.136   5.219   0.012 -0.9607  0.3552 -0.2326
 7998SOL    HW331759   3.098   5.233   0.158 -0.4277 -0.2058 -0.0356
 7998SOL    MW431760   3.093   5.260   0.075  0.4259 -0.8262  0.9650
 7999SOL     OW31761   3.148   3.214   0.322 -0.1409 -0.3641 -0.0475
 7999SOL    HW231762   3.224   3.240   0.270  0.6368 -2.0063  0.2134
 7999SOL    HW331763   3.074   3.255   0.277  0.7492  0.2306 -1.0344
 7999SOL    MW431764   3.148   3.223   0.309 -0.3098 -0.0102 -0.1478
 8000SOL     OW31765   1.618   6.009   6.071  0.1188  0.2340  0.2797
 8000SOL    HW231766   1.706   6.030   6.039 -0.5827  0.5043 -1.5688
 8000SOL    HW331767   1.597   5.926   6.030 -1.4077  1.3336 -1.3170
 8000SOL    MW431768   1.627   6.001   6.061 -0.3547  0.1031  0.5437
 8001SOL     OW31769   0.050   1.166   5.227 -0.6294 -0.0805  0.4190
 8001SOL    HW231770  -0.004   1.151   5.305 -1.1489 -0.0455  0.0668
 8001SOL    HW331771   0.044   1.085   5.177  1.0322 -0.7443  1.1825
 8001SOL    MW431772   0.042   1.154   5.231 -0.1170  0.0855 -0.4194
 8002SOL     OW31773   0.788   1.258   1.632 -0.1988 -0.2815  0.1628
 8002SOL    HW231774   0.693   1.263   1.643 -0.1966 -0.4685  0.2612
 8002SOL    HW331775   0.800   1.197   1.560 -0.1318 -0.6549  0.4908
 8002SOL    MW431776   0.777   1.251   1.624  0.5442 -0.1087  0.2272
 8003SOL     OW31777   4.283   1.494   5.253  0.1382  0.2573 -0.3698
 8003SOL    HW231778   4.198   1.453   5.270  0.1377  1.0340  1.7983
 8003SOL    HW331779   4.347   1.429   5.282  0.1581  1.0813  1.6350
 8003SOL    MW431780   4.280   1.480   5.259  0.1545  0.0511  0.1972
 8004SOL     OW31781   6.349   0.698   2.434  0.2400  0.2798  0.5288
 8004SOL    HW231782   6.375   0.780   2.476 -1.0464  0.5729  0.8002
 8004SOL    HW331783   6.380   0.706   2.344  1.6812  0.2942  1.0060
 8004SOL    MW431784   6.356   0.710   2.428  0.1946 -0.0059  0.4889
 8005SOL     OW31785   3.215   3.086   1.474 -0.2087  0.7842 -0.1806
 8005SOL    HW231786   3.276   3.142   1.427 -0.3439  1.2277  0.1633
 8005SOL    HW331787   3.168   3.038   1.406  1.6796 -0.8432 -0.4310
 8005SOL    MW431788   3.217   3.087   1.459 -0.0991 -0.5297  0.2304
 8006SOL     OW31789   6.242   1.016   4.194 -0.7033 -0.4886 -0.3652
 8006SOL    HW231790   6.195   0.965   4.260 -1.2392 -0.9077 -1.0554
 8006SOL    HW331791   6.176   1.036   4.127 -0.2846  0.3359 -0.5462
 8006SOL    MW431792   6.227   1.012   4.194  0.0194  0.7499 -0.3622
 8007SOL     OW31793   3.683   5.740   5.766 -0.2997  0.3673 -0.1944
 8007SOL    HW231794   3.708   5.805   5.831 -0.2027 -1.0972  1.3104
 8007SOL    HW331795   3.667   5.660   5.817 -0.6544 -0.7279 -1.9297
 8007SOL    MW431796   3.684   5.738   5.781  0.3518  0.4504  0.0743
 8008SOL     OW31797   1.578   4.268   4.935 -0.1009 -0.5942  0.3093
 8008SOL    HW231798   1.640   4.276   4.863 -0.3669 -1.5108 -0.0343
 8008SOL    HW331799   1.492   4.279   4.894 -0.1758  1.4259  0.8945
 8008SOL    MW431800   1.575   4.271   4.920  0.5073 -0.3419 -0.1686
 8009SOL     OW31801   4.538   3.414   4.855  0.0193  0.2524 -0.3685
 8009SOL    HW231802   4.500   3.409   4.767  0.9138  1.0172 -0.8118
 8009SOL    HW331803   4.469   3.380   4.913 -0.5507 -0.3350 -1.3626
 8009SOL    MW431804   4.524   3.409   4.851  0.3267 -0.4155 -0.4075
 8010SOL     OW31805   5.261   5.793   4.989 -0.0995  0.1605  0.3367
 8010SOL    HW231806   5.318   5.717   4.975  1.8673  1.0526  2.8851
 8010SOL    HW331807   5.305   5.864   4.943 -0.9097  0.2048 -0.3924
 8010SOL    MW431808   5.274   5.792   4.981  0.3919  0.3730  0.0702
 8011SOL     OW31809   5.503   4.935   0.987 -0.0835  0.7515 -0.5446
 8011SOL    HW231810   5.589   4.946   0.947  1.3822 -1.5536  1.6611
 8011SOL    HW331811   5.472   4.851   0.955  0.3716 -0.3346  1.6853
 8011SOL    MW431812   5.510   4.926   0.978 -0.4627 -0.3131  0.6059
 8012SOL     OW31813   5.053   5.672   1.512  0.0076  0.3379 -0.6788
 8012SOL    HW231814   5.064   5.739   1.579 -0.4723 -0.7409  0.5185
 8012SOL    HW331815   5.066   5.719   1.429 -0.2163  1.8758  0.1150
 8012SOL    MW431816   5.056   5.687   1.510  0.1376 -0.2180  0.1441
 8013SOL     OW31817   1.900   1.911   4.152  0.3450  0.3380  0.0346
 8013SOL    HW231818   1.866   1.876   4.234 -2.8187  1.1187 -0.8037
 8013SOL    HW331819   1.967   1.975   4.178  0.7434 -0.7517  1.8633
 8013SOL    MW431820   1.905   1.915   4.166 -0.6165  0.4312 -0.0321
 8014SOL     OW31821   3.734   1.015   5.559 -0.1437  0.2130 -0.3043
 8014SOL    HW231822   3.786   0.935   5.564  0.1266  0.3636 -0.6530
 8014SOL    HW331823   3.653   0.988   5.516 -0.6216 -0.1524  0.7994
 8014SOL    MW431824   3.730   1.001   5.554 -0.2741  0.6892  0.5831
 8015SOL     OW31825   5.288   3.033   5.246  0.2341 -0.5123 -0.3234
 8015SOL    HW231826   5.332   2.987   5.175  0.3286 -0.7984 -0.0760
 8015SOL    HW331827   5.199   2.998   5.246 -0.1674  0.4275 -1.1591
 8015SOL    MW431828   5.282   3.022   5.236  0.6113 -0.3359  0.2392
 8016SOL     OW31829   5.686   0.799   3.686 -0.5498 -0.4092  0.7052
 8016SOL    HW231830   5.619   0.831   3.746 -0.9371 -0.5574  0.3538
 8016SOL    HW331831   5.699   0.871   3.624 -0.3359 -0.3558  0.8100
 8016SOL    MW431832   5.679   0.813   3.686 -0.1568  0.1441 -0.0774
 8017SOL     OW31833   4.508   0.841   2.964 -0.3449 -0.2000 -0.5030
 8017SOL    HW231834   4.599   0.871   2.960 -1.2136  2.6471 -2.1113
 8017SOL    HW331835   4.502   0.772   2.898  0.6837 -0.5127 -0.2771
 8017SOL    MW431836   4.519   0.836   2.955 -0.0053  0.5818  0.3953
 8018SOL     OW31837   3.850   3.424   1.326 -0.3676  0.0268  0.1249
 8018SOL    HW231838   3.775   3.388   1.374 -2.3564  0.1653 -2.5963
 8018SOL    HW331839   3.883   3.350   1.275  1.5164 -0.0530  1.3660
 8018SOL    MW431840   3.844   3.409   1.325 -0.7481 -0.2883  0.1468
 8019SOL     OW31841   6.148   1.598   3.641  0.6541 -0.4881  0.5029
 8019SOL    HW231842   6.157   1.681   3.688 -2.2953  0.7088 -0.8022
 8019SOL    HW331843   6.059   1.569   3.661  0.1619 -1.1763 -2.3371
 8019SOL    MW431844   6.137   1.605   3.650 -0.2523 -0.2898 -0.2928
 8020SOL     OW31845   4.467   2.870   1.811  0.4709 -0.2718  0.5949
 8020SOL    HW231846   4.451   2.877   1.905  0.7403  0.3765  0.5991
 8020SOL    HW331847   4.421   2.790   1.785 -2.4454  1.2600  0.6752
 8020SOL    MW431848   4.459   2.860   1.820  0.0425  0.5549  0.4532
 8021SOL     OW31849   5.255   0.482   4.990 -0.1131 -0.2632  0.4643
 8021SOL    HW231850   5.273   0.390   4.973  1.4657  0.1432 -0.3072
 8021SOL    HW331851   5.180   0.502   4.935 -1.6400 -1.4886  2.0056
 8021SOL    MW431852   5.248   0.473   4.980  0.5445  0.1702  0.0692
 8022SOL     OW31853   4.986   0.794   2.567 -0.5615 -0.3624 -0.1470
 8022SOL    HW231854   5.072   0.829   2.545 -1.2355  1.7930  0.4109
 8022SOL    HW331855   4.992   0.772   2.660 -0.5409 -0.4520 -0.1694
 8022SOL    MW431856   4.998   0.796   2.576  0.4904 -0.4591  0.2902
 8023SOL     OW31857   1.371   5.898   1.304 -0.2007  0.2201 -0.3854
 8023SOL    HW231858   1.353   5.946   1.385 -0.3057 -0.5317  0.0434
 8023SOL    HW331859   1.363   5.806   1.329  1.9708 -0.0960 -0.7275
 8023SOL    MW431860   1.367   5.892   1.318  0.1432  0.4805 -0.4312
 8024SOL     OW31861   0.381   5.211   4.314 -0.1412 -0.4870  0.2977
 8024SOL    HW231862   0.419   5.196   4.227 -0.8819 -0.5449 -0.0270
 8024SOL    HW331863   0.446   5.177   4.375  0.4725 -0.2772 -0.2253
 8024SOL    MW431864   0.395   5.205   4.311 -0.0023  0.1291 -0.4861
 8025SOL     OW31865   0.421   2.375   1.630 -0.0364  0.1397 -0.5222
 8025SOL    HW231866   0.338   2.408   1.665  0.9155  0.7604  1.2616
 8025SOL    HW331867   0.434   2.291   1.675  1.3670  1.1040  0.9701
 8025SOL    MW431868   0.412   2.368   1.641 -0.0329 -0.6182  0.0340
 8026SOL     OW31869   5.103   5.501   5.760 -0.0249  0.0665  0.4156
 8026SOL    HW231870   5.017   5.531   5.788 -0.1875  0.8467 -0.8378
 8026SOL    HW331871   5.103   5.511   5.665  2.1039  1.9140  0.5235
 8026SOL    MW431872   5.092   5.506   5.752  0.2459  0.1502 -0.0575
 8027SOL     OW31873   2.095   2.036   5.451  0.1988 -0.1940  0.0169
 8027SOL    HW231874   2.061   2.046   5.540  0.8459 -2.5620  0.6112
 8027SOL    HW331875   2.019   2.017   5.398 -0.2694  1.7611 -0.1107
 8027SOL    MW431876   2.081   2.035   5.456  1.1628 -0.0121  0.1003
 8028SOL     OW31877   3.972   4.086   1.924  0.4847 -0.2309  0.0295
 8028SOL    HW231878   3.989   3.993   1.910 -1.8292 -0.4529 -2.2389
 8028SOL    HW331879   3.921   4.089   2.004  1.7483 -0.7113  0.8873
 8028SOL    MW431880   3.968   4.074   1.932 -0.3800 -0.0366 -0.2569
 8029SOL     OW31881   4.790   0.848   4.877 -0.3208 -0.0217 -0.3318
 8029SOL    HW231882   4.726   0.878   4.812  0.0469 -0.0998 -0.7398
 8029SOL    HW331883   4.794   0.754   4.865 -1.0449 -0.1785  0.5522
 8029SOL    MW431884   4.782   0.840   4.867 -0.5189 -0.3572 -0.1751
 8030SOL     OW31885   1.716   0.424   0.374 -0.0905 -0.1677  0.2405
 8030SOL    HW231886   1.774   0.488   0.415 -0.9880 -0.4320  2.0421
 8030SOL    HW331887   1.687   0.369   0.447 -0.5658 -1.6628 -1.0201
 8030SOL    MW431888   1.720   0.425   0.389  0.4942  0.4486  0.0263
 8031SOL     OW31889   3.093   2.971   1.717 -0.0366  0.0092  0.4503
 8031SOL    HW231890   3.085   3.048   1.773 -2.8780  1.6498 -1.9507
 8031SOL    HW331891   3.138   3.002   1.639 -1.5857 -0.5840 -0.7294
 8031SOL    MW431892   3.098   2.985   1.714  0.3056  0.5434  0.0788
 8032SOL     OW31893   2.863   0.828   2.225  0.2262  0.9278 -0.4118
 8032SOL    HW231894   2.790   0.889   2.237  1.3561  2.4965 -1.1834
 8032SOL    HW331895   2.903   0.854   2.142  0.8487 -0.8055 -0.7072
 8032SOL    MW431896   2.859   0.839   2.215 -0.2241 -0.2785 -0.2851
 8033SOL     OW31897   1.757   4.091   2.629  0.1522 -0.4163  0.0313
 8033SOL    HW231898   1.737   3.998   2.624 -1.0521 -0.2996  1.7873
 8033SOL    HW331899   1.740   4.114   2.720  0.7004  1.4721 -0.3030
 8033SOL    MW431900   1.752   4.082   2.640 -0.7908  0.2206 -0.0965
 8034SOL     OW31901   3.930   3.021   2.431 -0.2813 -0.1634 -0.3983
 8034SOL    HW231902   3.921   3.087   2.500  0.5710 -0.3675 -0.0776
 8034SOL    HW331903   4.009   3.046   2.384  0.5432 -1.4031  0.2564
 8034SOL    MW431904   3.939   3.033   2.434 -0.6902  0.5586 -0.3859
 8035SOL     OW31905   1.426   4.208   3.049 -0.0831  0.2554  0.3552
 8035SOL    HW231906   1.426   4.291   3.002 -0.1008 -0.2963 -0.6448
 8035SOL    HW331907   1.475   4.226   3.130  0.5169  1.0528 -0.1714
 8035SOL    MW431908   1.432   4.222   3.054  0.0611 -0.3141 -0.2456
 8036SOL     OW31909   5.163   4.679   1.269 -0.6004  0.2256 -0.2534
 8036SOL    HW231910   5.164   4.622   1.192 -1.0507 -0.1175 -0.0026
 8036SOL    HW331911   5.071   4.688   1.291 -0.4240 -0.3306  0.7380
 8036SOL    MW431912   5.151   4.673   1.262 -0.2616 -0.2270 -0.5694
 8037SOL     OW31913   0.103   5.655   1.951 -0.3979 -0.0435 -0.1131
 8037SOL    HW231914   0.047   5.727   1.983 -1.2468 -1.0565  0.7816
 8037SOL    HW331915   0.120   5.602   2.029 -0.4392 -1.2320 -0.8824
 8037SOL    MW431916   0.098   5.658   1.966  0.1181 -0.1875 -0.0717
 8038SOL     OW31917   3.615   2.192   5.807  0.3503 -0.3731 -0.0448
 8038SOL    HW231918   3.532   2.150   5.788  0.3681 -0.8322  0.8724
 8038SOL    HW331919   3.681   2.127   5.784  0.3780 -0.8681  1.3653
 8038SOL    MW431920   3.613   2.178   5.801  0.4011  0.0386 -0.5254
 8039SOL     OW31921   3.687   0.435   5.562 -0.1638 -0.1271 -0.4424
 8039SOL    HW231922   3.684   0.340   5.575 -0.1027 -0.2557 -1.3415
 8039SOL    HW331923   3.717   0.446   5.472 -0.5679  0.7383 -0.4761
 8039SOL    MW431924   3.690   0.424   5.552 -0.6681 -0.4760 -0.7307
 8040SOL     OW31925   0.453   4.976   5.311 -0.1557  0.4490  0.1365
 8040SOL    HW231926   0.362   4.962   5.341  0.7674 -0.7538  2.7287
 8040SOL    HW331927   0.482   5.053   5.360 -0.2305  1.9280 -2.0076
 8040SOL    MW431928   0.445   4.984   5.322  0.0197 -0.0620 -0.1896
 8041SOL     OW31929   5.431   1.299   1.758 -0.0496 -0.6096  0.6823
 8041SOL    HW231930   5.466   1.327   1.673  0.4380 -1.9063  0.4306
 8041SOL    HW331931   5.339   1.322   1.756 -0.4103 -2.0135 -0.8566
 8041SOL    MW431932   5.424   1.306   1.747 -0.4730 -0.2533  0.1072
 8042SOL     OW31933   0.001   5.722   6.104  0.7684  0.4883 -0.1293
 8042SOL    HW231934   0.080   5.696   6.058  0.1837 -1.0839 -0.3027
 8042SOL    HW331935  -0.014   5.652   6.168 -1.4441 -0.2525 -1.3311
 8042SOL    MW431936   0.009   5.709   6.107  0.0872 -0.2270 -0.1873
 8043SOL     OW31937   0.942   1.326   1.984 -0.4837 -0.2350 -0.1195
 8043SOL    HW231938   0.855   1.288   1.995 -0.7969  0.6947  0.7270
 8043SOL    HW331939   0.929   1.401   1.926 -0.4971  0.7084  1.0673
 8043SOL    MW431940   0.929   1.331   1.978 -0.4840 -0.5572 -0.2152
 8044SOL     OW31941   3.550   1.764   4.189 -0.0236 -0.0020 -0.0112
 8044SOL    HW231942   3.577   1.702   4.121  0.2365 -0.4234  0.4737
 8044SOL    HW331943   3.486   1.821   4.145  0.9453  0.4356 -0.9170
 8044SOL    MW431944   3.545   1.764   4.174 -0.0964  0.2610 -1.0437
 8045SOL     OW31945   3.692   5.219   5.365 -0.1599  0.0378  0.0079
 8045SOL    HW231946   3.610   5.179   5.334 -0.3520 -1.5804  2.3882
 8045SOL    HW331947   3.667   5.306   5.394 -0.1219  1.3093 -3.3575
 8045SOL    MW431948   3.678   5.225   5.364 -0.5655 -0.1916  0.4777
 8046SOL     OW31949   4.782   2.616   4.555  0.7265  0.0879 -0.1718
 8046SOL    HW231950   4.795   2.531   4.596 -1.3480 -0.4184 -0.4157
 8046SOL    HW331951   4.735   2.597   4.474  0.8446  1.4126 -0.5768
 8046SOL    MW431952   4.777   2.603   4.550 -0.2686  0.5259 -0.1262
 8047SOL     OW31953   3.011   2.505   4.764 -0.1390 -0.1330 -0.5952
 8047SOL    HW231954   2.937   2.489   4.706 -0.1668  2.6675 -1.4691
 8047SOL    HW331955   2.973   2.502   4.852 -0.6591 -1.6501 -0.8451
 8047SOL    MW431956   2.996   2.503   4.768 -0.1564 -0.7341  0.1877
 8048SOL     OW31957   3.961   0.826   1.595 -0.6649  0.5201 -0.2793
 8048SOL    HW231958   3.928   0.877   1.521 -2.1135  1.0512  0.6761
 8048SOL    HW331959   4.055   0.822   1.582 -0.9303  0.2656 -2.3395
 8048SOL    MW431960   3.969   0.833   1.584  0.2745 -0.2177  0.1671
 8049SOL     OW31961   2.978   2.130   4.078  0.4238  0.1607 -0.3156
 8049SOL    HW231962   3.047   2.193   4.099 -0.1139  0.3504  0.9322
 8049SOL    HW331963   2.954   2.151   3.987  1.5855  0.4728 -0.5734
 8049SOL    MW431964   2.984   2.141   4.069  0.1331 -0.8019  0.1792
 8050SOL     OW31965   3.092   3.538   1.900  0.2834 -0.2360  0.0221
 8050SOL    HW231966   3.140   3.616   1.928 -1.7169  0.6127  1.3263
 8050SOL    HW331967   3.160   3.475   1.876  2.0874  0.6375  2.4211
 8050SOL    MW431968   3.107   3.540   1.901 -0.1451  0.2847 -0.3291
 8051SOL     OW31969   0.025   2.784   2.045 -0.8901  0.2836  0.6073
 8051SOL    HW231970  -0.026   2.738   1.979  0.2858  1.0692 -0.9061
 8051SOL    HW331971  -0.019   2.763   2.128 -2.0867 -1.1623 -0.3343
 8051SOL    MW431972   0.012   2.775   2.048  0.3926 -0.2096 -0.2218
 8052SOL     OW31973   2.283   5.148   4.967 -0.4151 -0.0910 -0.8807
 8052SOL    HW231974   2.300   5.216   4.901 -0.9897 -0.1496 -1.0932
 8052SOL    HW331975   2.362   5.147   5.021 -0.4558  0.8523 -0.7859
 8052SOL    MW431976   2.296   5.157   4.965 -0.5712 -0.0477 -0.0885
 8053SOL     OW31977   0.240   4.455   0.669 -0.1966 -0.0238  0.1570
 8053SOL    HW231978   0.301   4.383   0.679  1.1811  1.0883  0.0776
 8053SOL    HW331979   0.228   4.489   0.758 -1.7312 -1.0139  0.3649
 8053SOL    MW431980   0.247   4.450   0.682  0.0561 -0.2728 -0.9891
 8054SOL     OW31981   3.697   2.838   3.547 -0.2747 -0.1892 -0.0324
 8054SOL    HW231982   3.707   2.780   3.622 -0.1982 -1.1582 -0.7694
 8054SOL    HW331983   3.768   2.814   3.488 -0.5595  0.2933 -0.5861
 8054SOL    MW431984   3.708   2.827   3.549  0.3820 -0.2878 -0.2070
 8055SOL     OW31985   3.227   6.256   0.424  0.3722 -0.3526 -0.8982
 8055SOL    HW231986   3.166   6.316   0.466 -0.0075  0.6891 -2.8226
 8055SOL    HW331987   3.261   6.203   0.496  0.5890  2.0087  0.8795
 8055SOL    MW431988   3.224   6.257   0.439 -0.6635 -0.0554  0.4037
 8056SOL     OW31989   3.995   1.202   2.316 -0.5574  0.6078 -0.9757
 8056SOL    HW231990   3.941   1.280   2.328  0.7724  1.3435  0.6304
 8056SOL    HW331991   3.999   1.161   2.402  1.9133  0.9622 -0.8282
 8056SOL    MW431992   3.988   1.207   2.329 -0.3011 -0.2213 -0.2318
 8057SOL     OW31993   2.634   3.636   1.912 -0.6179  0.5640 -0.0171
 8057SOL    HW231994   2.608   3.568   1.974  0.0538  2.2095  2.1613
 8057SOL    HW331995   2.581   3.619   1.834 -1.1901 -1.8148  0.8158
 8057SOL    MW431996   2.624   3.625   1.910  0.6247 -0.0588  0.3957
 8058SOL     OW31997   6.330   5.335   5.836 -0.1438  0.1129 -0.3155
 8058SOL    HW231998   6.287   5.417   5.813  0.1772  0.2316 -0.4956
 8058SOL    HW331999   6.316   5.326   5.931  2.5351  2.0171  0.3798
 8058SOL    MW432000   6.322   5.344   5.846 -0.2631  0.0512  0.1218
 8059SOL     OW32001   0.378   5.737   2.006 -0.2296  0.6132  0.0561
 8059SOL    HW232002   0.429   5.798   1.953  0.5449  1.2925  1.5119
 8059SOL    HW332003   0.288   5.747   1.974  0.2085  0.9427 -1.1364
 8059SOL    MW432004   0.373   5.747   1.995 -0.2339 -0.6853 -0.1533
 8060SOL     OW32005   2.590   3.982   4.379  0.0328 -0.0289  0.7031
 8060SOL    HW232006   2.673   4.002   4.336 -0.7751  1.5745 -0.2116
 8060SOL    HW332007   2.570   3.893   4.353  0.1137  0.5323 -1.4332
 8060SOL    MW432008   2.598   3.973   4.370  0.2980 -0.2569 -0.1405
 8061SOL     OW32009   2.624   2.566   2.052  0.4862 -0.2557  0.3419
 8061SOL    HW232010   2.563   2.632   2.019  0.4694 -1.1038 -1.4602
 8061SOL    HW332011   2.705   2.615   2.069  0.8290  0.1434 -1.9856
 8061SOL    MW432012   2.626   2.581   2.050  0.2341  0.2944  0.1153
 8062SOL     OW32013   0.512   5.743   6.058  0.3418 -0.4260  0.6409
 8062SOL    HW232014   0.553   5.824   6.025 -0.5971  0.1954  0.9470
 8062SOL    HW332015   0.440   5.727   5.997 -0.8894  0.2607  1.8541
 8062SOL    MW432016   0.508   5.752   6.045  0.0363 -0.3901 -0.4711
 8063SOL     OW32017   3.637   0.162   5.590  0.2594 -0.0475  0.1919
 8063SOL    HW232018   3.562   0.119   5.551 -0.3313  1.3513 -0.2644
 8063SOL    HW332019   3.644   0.123   5.677  1.2668 -2.8145 -1.0098
 8063SOL    MW432020   3.628   0.152   5.596 -0.3314  0.0507  0.6457
 8064SOL     OW32021   2.399   2.118   2.975  0.6644 -0.1840  0.9859
 8064SOL    HW232022   2.387   2.055   2.904  2.1440 -0.6840  1.1225
 8064SOL    HW332023   2.438   2.066   3.046  3.5476  1.1202  0.5112
 8064SOL    MW432024   2.403   2.103   2.975  0.2659 -0.2058  0.6309
 8065SOL     OW32025   0.493   2.123   1.738 -0.5363  0.1953  0.0013
 8065SOL    HW232026   0.464   2.033   1.755  0.0987  0.0694  0.4839
 8065SOL    HW332027   0.575   2.131   1.788 -0.5842  1.0388 -0.0420
 8065SOL    MW432028   0.500   2.112   1.747  0.1325 -0.1593 -0.4729
 8066SOL     OW32029   4.015   1.340   1.267 -0.4759 -0.7021  1.0053
 8066SOL    HW232030   4.022   1.378   1.354  0.7924  0.3265  0.4841
 8066SOL    HW332031   3.946   1.391   1.224  0.8178  0.6918  0.5027
 8066SOL    MW432032   4.007   1.352   1.273 -0.2566 -0.0792 -0.3370
 8067SOL     OW32033   5.412   1.707   2.599  0.2853 -0.2556 -0.0576
 8067SOL    HW232034   5.466   1.769   2.550  0.3797 -0.2109  0.1000
 8067SOL    HW332035   5.413   1.741   2.689 -1.1320  0.5138 -0.3129
 8067SOL    MW432036   5.419   1.720   2.604  1.0100 -0.2940 -0.0354
 8068SOL     OW32037   5.501   1.104   4.043  0.0635 -0.4053  0.5919
 8068SOL    HW232038   5.492   1.009   4.047  2.1425 -0.6200  1.3754
 8068SOL    HW332039   5.508   1.123   3.950 -2.0038 -0.7849  0.3061
 8068SOL    MW432040   5.501   1.094   4.031 -0.1755 -0.1102  0.3942
 8069SOL     OW32041   0.112   3.650   3.576 -0.3353  0.6627  0.1790
 8069SOL    HW232042   0.150   3.604   3.500  0.5675  2.1459 -0.3124
 8069SOL    HW332043   0.022   3.668   3.550 -1.0031 -1.5661  0.7438
 8069SOL    MW432044   0.105   3.646   3.562  0.0194  0.0038 -0.6393
 8070SOL     OW32045   3.467   6.430   6.148 -0.0041 -0.2162  0.0155
 8070SOL    HW232046   3.502   6.343   6.167 -0.8095 -0.6612 -0.4642
 8070SOL    HW332047   3.533   6.472   6.093  0.8538 -0.1324  1.0935
 8070SOL    MW432048   3.480   6.424   6.143  0.4951  0.2413  0.8392
 8071SOL     OW32049   0.446   2.625   3.378 -0.0997  0.4307  0.7135
 8071SOL    HW232050   0.512   2.619   3.447  0.4387  0.8026  0.2308
 8071SOL    HW332051   0.363   2.636   3.426  0.3945  1.9207  1.2914
 8071SOL    MW432052   0.444   2.626   3.394 -0.3435  0.3187  0.4583
 8072SOL     OW32053   5.255   1.003   2.934  0.1403 -0.1419  0.3089
 8072SOL    HW232054   5.288   0.977   3.020 -0.2087  0.5280  0.6447
 8072SOL    HW332055   5.215   1.088   2.947  0.0782 -0.0304 -0.5201
 8072SOL    MW432056   5.254   1.011   2.947  0.0781 -0.1634  0.5982
 8073SOL     OW32057   1.688   1.986   6.392 -0.1414 -0.4903  0.0443
 8073SOL    HW232058   1.602   1.972   6.351 -0.1623 -0.5215  0.0979
 8073SOL    HW332059   1.731   2.051   6.337 -0.6600  0.4163  0.6813
 8073SOL    MW432060   1.682   1.992   6.379  0.4224  0.4572 -0.2159
 8074SOL     OW32061   6.237   5.136   1.038  0.3049  0.3717  0.1665
 8074SOL    HW232062   6.188   5.216   1.054  0.7121  0.1542  3.0810
 8074SOL    HW332063   6.308   5.138   1.102  0.3616 -2.2680  0.2915
 8074SOL    MW432064   6.240   5.147   1.048 -0.0944  0.5331  0.1628
 8075SOL     OW32065   2.379   1.073   2.485  0.8611 -0.0958  0.3735
 8075SOL    HW232066   2.466   1.034   2.479  1.2248  0.5974  0.9703
 8075SOL    HW332067   2.342   1.063   2.397  1.6051 -0.2519  0.0698
 8075SOL    MW432068   2.385   1.066   2.473 -0.7018  0.3365  0.4244
 8076SOL     OW32069   0.545   2.004   5.894  0.3193  0.7244  0.5284
 8076SOL    HW232070   0.457   2.012   5.930  0.6305  0.6802  1.3285
 8076SOL    HW332071   0.591   1.947   5.955 -0.2882 -3.0172 -2.1554
 8076SOL    MW432072   0.540   1.998   5.907  0.1040 -0.0319 -0.6648
 8077SOL     OW32073   1.838   3.358   1.854  0.3842 -0.3309 -0.3842
 8077SOL    HW232074   1.862   3.297   1.924 -0.4862  0.4385  0.6101
 8077SOL    HW332075   1.885   3.439   1.876 -1.2650  0.4874  0.3534
 8077SOL    MW432076   1.848   3.361   1.867 -0.3866 -0.1253  0.1069
 8078SOL     OW32077   2.498   0.301   0.502 -0.0948  0.1226 -0.0151
 8078SOL    HW232078   2.529   0.218   0.467 -2.1192 -0.8450  0.3373
 8078SOL    HW332079   2.461   0.347   0.427 -0.9675 -0.2700  0.1703
 8078SOL    MW432080   2.498   0.296   0.488  0.2734 -0.2421  0.4534
 8079SOL     OW32081   5.605   3.673   1.769  0.3300 -0.0112 -0.4450
 8079SOL    HW232082   5.558   3.685   1.852  0.4536 -0.8996 -0.2424
 8079SOL    HW332083   5.628   3.762   1.743  0.3551  0.2805  0.5168
 8079SOL    MW432084   5.602   3.687   1.777 -0.0240 -0.1729 -0.4444
 8080SOL     OW32085   0.985   2.495   3.899 -0.1062  0.1794 -0.3675
 8080SOL    HW232086   0.969   2.565   3.836  0.3324 -0.8415 -1.6832
 8080SOL    HW332087   0.980   2.415   3.847 -2.7896 -0.9949  1.4649
 8080SOL    MW432088   0.982   2.494   3.884  0.0284 -0.5219 -0.8404
 8081SOL     OW32089   0.783   0.070   0.943 -0.3194 -0.5506  0.6571
 8081SOL    HW232090   0.693   0.039   0.956  0.4358 -3.9419 -1.0025
 8081SOL    HW332091   0.823   0.066   1.029 -1.6281  0.7229  1.3643
 8081SOL    MW432092   0.776   0.065   0.956  0.6280  0.4149  0.0962
 8082SOL     OW32093   5.740   2.453   0.658  0.1931  0.3496 -0.2274
 8082SOL    HW232094   5.660   2.490   0.621  1.7908  0.4643 -4.0008
 8082SOL    HW332095   5.731   2.359   0.647  0.1340  0.2647  0.4614
 8082SOL    MW432096   5.729   2.446   0.652  0.6871  0.0171  0.0150
 8083SOL     OW32097   0.036   1.184   2.629  0.0983 -0.3849 -0.0445
 8083SOL    HW232098   0.026   1.228   2.545 -0.5449  2.1445  1.2459
 8083SOL    HW332099   0.117   1.133   2.620 -0.3149 -0.7231 -2.3748
 8083SOL    MW432100   0.046   1.183   2.617  0.3856  0.0585  0.0469
 8084SOL     OW32101   6.041   0.145   5.259 -0.3113  0.3657 -0.0221
 8084SOL    HW232102   6.125   0.099   5.265  0.6411  1.8118 -1.5626
 8084SOL    HW332103   5.993   0.098   5.190 -0.8961 -0.6016  1.0156
 8084SOL    MW432104   6.046   0.133   5.250  0.2442  0.8282 -0.0491
 8085SOL     OW32105   3.540   0.110   1.027 -0.0867 -0.5071  0.2984
 8085SOL    HW232106   3.593   0.162   1.088  0.0674 -0.2739 -0.0276
 8085SOL    HW332107   3.591   0.110   0.946  0.1824 -1.6403  0.4589
 8085SOL    MW432108   3.554   0.117   1.024  0.4988  0.2115  0.5636
 8086SOL     OW32109   3.111   3.114   2.634  0.1024  0.2407 -0.1707
 8086SOL    HW232110   3.138   3.135   2.724  0.7981  0.7006 -0.4839
 8086SOL    HW332111   3.135   3.022   2.623  0.1471  0.2215  0.0673
 8086SOL    MW432112   3.118   3.105   2.645  0.1795 -0.3958 -0.4511
 8087SOL     OW32113   2.145   4.359   1.883 -0.1249  0.6134 -0.1375
 8087SOL    HW232114   2.128   4.451   1.862 -1.4232  0.2633 -0.7820
 8087SOL    HW332115   2.061   4.327   1.916  0.4214 -0.2502  0.4542
 8087SOL    MW432116   2.131   4.367   1.885  0.6547  0.0737 -0.4977
 8088SOL     OW32117   4.648   5.165   5.670  0.0204 -0.0378  0.5741
 8088SOL    HW232118   4.641   5.260   5.675 -2.0543 -0.1498  0.7806
 8088SOL    HW332119   4.684   5.148   5.584 -0.8796  0.9208 -0.0197
 8088SOL    MW432120   4.652   5.175   5.660 -0.5482  0.2515  0.0969
 8089SOL     OW32121   2.287   3.402   2.568  0.3081 -0.4747  0.1002
 8089SOL    HW232122   2.232   3.465   2.616  1.0134 -0.2009  0.5659
 8089SOL    HW332123   2.268   3.318   2.610  2.7140  0.0857  2.6061
 8089SOL    MW432124   2.277   3.399   2.580  0.3819  0.1410 -0.1746
 8090SOL     OW32125   0.071   2.107   2.863 -0.5534 -1.1039 -0.2975
 8090SOL    HW232126   0.018   2.118   2.784 -2.1920 -2.4773  0.5215
 8090SOL    HW332127   0.148   2.058   2.834  0.3545  0.9189 -1.5167
 8090SOL    MW432128   0.074   2.102   2.849  0.3870  0.0496 -0.2290
 8091SOL     OW32129   3.194   2.064   1.113  0.1408 -0.8323  0.1391
 8091SOL    HW232130   3.270   2.070   1.171 -0.9289  1.4549  1.4843
 8091SOL    HW332131   3.125   2.112   1.160 -1.9552 -2.2577 -1.3068
 8091SOL    MW432132   3.195   2.071   1.127 -0.1934  0.3511 -0.2175
 8092SOL     OW32133   2.612   1.007   3.964 -0.4437  0.3039 -0.2225
 8092SOL    HW232134   2.658   1.017   3.880  0.0777  2.7287  0.2519
 8092SOL    HW332135   2.679   0.974   4.024 -0.6305 -0.7765 -0.6044
 8092SOL    MW432136   2.627   1.004   3.961  0.5540  0.1622  0.0837
 8093SOL     OW32137   2.464   1.403   4.547 -0.2258  0.2007 -0.5193
 8093SOL    HW232138   2.446   1.455   4.469  0.8919 -1.8319 -2.2030
 8093SOL    HW332139   2.560   1.407   4.556 -0.4199  2.0686  2.0288
 8093SOL    MW432140   2.474   1.411   4.538  0.3089  0.5617  0.4898
 8094SOL     OW32141   6.043   4.211   3.397 -0.1935  0.3754 -0.5562
 8094SOL    HW232142   6.111   4.183   3.336 -0.5290  1.5768 -1.5241
 8094SOL    HW332143   5.983   4.136   3.402  2.0374 -1.4642  1.7469
 8094SOL    MW432144   6.044   4.197   3.390 -0.2516  0.2046 -0.1927
 8095SOL     OW32145   5.625   3.267   6.123  1.1473  0.0598  0.7927
 8095SOL    HW232146   5.656   3.177   6.115  0.3201 -0.2919  1.4884
 8095SOL    HW332147   5.534   3.264   6.094  1.0245  0.6194  1.1105
 8095SOL    MW432148   5.617   3.255   6.118  0.1191  0.5432  0.5933
 8096SOL     OW32149   4.635   1.795   3.026  0.1559  0.3184  0.8300
 8096SOL    HW232150   4.695   1.859   3.063  0.3716  1.0001 -0.6358
 8096SOL    HW332151   4.568   1.783   3.093  0.9104  0.9587  1.7213
 8096SOL    MW432152   4.634   1.802   3.039  0.0256  0.2772  0.5643
 8097SOL     OW32153   1.383   1.153   0.135 -0.0107 -0.4605 -0.2768
 8097SOL    HW232154   1.435   1.104   0.070 -1.8735 -1.6591 -0.9390
 8097SOL    HW332155   1.445   1.215   0.173  1.5805 -0.9220 -1.9634
 8097SOL    MW432156   1.398   1.155   0.131 -0.6364  0.3534  0.2748
 8098SOL     OW32157   2.653   2.021   2.626  0.2750  0.2401  0.2224
 8098SOL    HW232158   2.640   1.974   2.709 -0.1328 -0.7288 -0.3772
 8098SOL    HW332159   2.564   2.039   2.595  0.4013 -0.6547 -0.6964
 8098SOL    MW432160   2.640   2.017   2.633 -0.1464 -0.7194  0.7632
 8099SOL     OW32161   0.464   0.162   5.517 -0.0527  0.1682 -0.3228
 8099SOL    HW232162   0.371   0.165   5.539 -0.1263  0.4952 -0.6707
 8099SOL    HW332163   0.479   0.242   5.467  0.7352  0.8765  1.0046
 8099SOL    MW432164   0.454   0.173   5.513 -0.2409  0.2434  0.2194
 8100SOL     OW32165   2.172   5.220   1.551 -0.0050 -0.1506 -0.1230
 8100SOL    HW232166   2.180   5.125   1.539 -0.9204 -0.1489 -0.8567
 8100SOL    HW332167   2.210   5.237   1.638 -0.3682 -1.2612  0.2614
 8100SOL    MW432168   2.178   5.210   1.561 -0.1731  0.0183  0.0885
 8101SOL     OW32169   0.416   4.251   3.621 -0.8195 -0.3267  0.2305
 8101SOL    HW232170   0.343   4.204   3.580  1.4537 -1.1501 -3.2369
 8101SOL    HW332171   0.488   4.188   3.621  0.0415  0.4734  3.5278
 8101SOL    MW432172   0.416   4.236   3.616  0.2901 -0.7497  0.0930
 8102SOL     OW32173   0.504   4.742   0.150  0.0932  0.0677 -0.0461
 8102SOL    HW232174   0.585   4.742   0.201  0.3903  0.3830 -0.5122
 8102SOL    HW332175   0.435   4.738   0.216  0.4811 -0.0528  0.3620
 8102SOL    MW432176   0.506   4.741   0.166  0.0484  0.2825  0.7611
 8103SOL     OW32177   6.046   5.668   3.343  0.5485 -0.0500 -0.7695
 8103SOL    HW232178   6.084   5.724   3.410  2.3333 -0.0233 -1.7415
 8103SOL    HW332179   5.953   5.691   3.342  0.9560  1.7831 -0.0818
 8103SOL    MW432180   6.039   5.678   3.351  0.0835 -0.4054 -0.6953
 8104SOL     OW32181   4.023   5.687   1.543 -0.4652 -0.3490 -0.2941
 8104SOL    HW232182   4.100   5.740   1.521 -1.0050  0.0916 -1.1680
 8104SOL    HW332183   3.990   5.657   1.458  0.2883 -2.7832  0.1865
 8104SOL    MW432184   4.029   5.690   1.529  0.2975  0.0958 -0.2244
 8105SOL     OW32185   1.786   0.121   5.661 -0.1141  0.4695  0.3239
 8105SOL    HW232186   1.853   0.105   5.728  0.3891  3.3584  0.6364
 8105SOL    HW332187   1.761   0.212   5.674 -1.0180  0.7246 -2.5611
 8105SOL    MW432188   1.792   0.131   5.672 -0.0129 -0.3560  0.4629
 8106SOL     OW32189   1.053   2.898   0.799 -0.5536  0.1700 -0.1437
 8106SOL    HW232190   1.122   2.957   0.770 -0.5526 -0.0946 -0.6893
 8106SOL    HW332191   1.000   2.951   0.859 -0.1918  0.5322 -0.1383
 8106SOL    MW432192   1.055   2.913   0.803  0.1211 -0.2763  0.1810
 8107SOL     OW32193   5.540   0.831   0.562 -0.3192  0.0071  1.0887
 8107SOL    HW232194   5.520   0.741   0.588  0.5854 -0.1325  1.3351
 8107SOL    HW332195   5.534   0.830   0.466  0.3549 -0.4929  1.0418
 8107SOL    MW432196   5.537   0.819   0.553  0.1928  0.5318 -0.3714
 8108SOL     OW32197   2.929   3.787   5.338 -0.0524  0.8729 -0.1882
 8108SOL    HW232198   3.022   3.799   5.359 -0.0898 -0.8557  1.2092
 8108SOL    HW332199   2.883   3.824   5.412 -0.3513 -1.0211  0.6164
 8108SOL    MW432200   2.935   3.794   5.350  0.5776  0.5985  0.1409
 8109SOL     OW32201   3.704   1.877   3.371 -0.5129 -0.1258 -0.5364
 8109SOL    HW232202   3.708   1.970   3.391 -1.4114 -0.2157  0.1642
 8109SOL    HW332203   3.691   1.835   3.456  0.3053 -0.9297 -0.7920
 8109SOL    MW432204   3.702   1.883   3.385  0.1673  0.2823 -0.1459
 8110SOL     OW32205   0.807   3.471   3.845  0.3209 -0.1817  0.2436
 8110SOL    HW232206   0.751   3.444   3.918  0.1521 -1.6649 -0.3937
 8110SOL    HW332207   0.876   3.405   3.842 -0.3756 -0.8843 -1.6822
 8110SOL    MW432208   0.808   3.459   3.854 -0.3444 -0.4274 -0.3852
 8111SOL     OW32209   3.815   1.222   6.035  0.7638 -0.0808  0.0137
 8111SOL    HW232210   3.757   1.183   5.969 -0.3017  0.0244  0.8635
 8111SOL    HW332211   3.775   1.197   6.118  1.9870 -0.0489  0.6193
 8111SOL    MW432212   3.802   1.213   6.037 -0.6624 -0.0111  0.8627
 8112SOL     OW32213   5.423   0.690   5.056  0.6141  0.2532  0.4444
 8112SOL    HW232214   5.456   0.727   4.974  1.7449 -2.0605 -0.2249
 8112SOL    HW332215   5.366   0.618   5.029  0.2099  0.0830  1.6830
 8112SOL    MW432216   5.420   0.685   5.042  0.1025  0.1474  0.0719
 8113SOL     OW32217   3.950   2.954   4.662  0.1039  0.6030 -0.2600
 8113SOL    HW232218   4.028   2.929   4.712 -0.1654  0.3913  0.0589
 8113SOL    HW332219   3.981   2.962   4.572  0.9097  2.4108  0.1392
 8113SOL    MW432220   3.964   2.952   4.657 -0.4622  0.4400 -0.2756
 8114SOL     OW32221   2.695   4.285   2.159  0.4627  0.1627  0.2456
 8114SOL    HW232222   2.703   4.326   2.073  0.1174 -0.2772 -0.0027
 8114SOL    HW332223   2.629   4.216   2.147  0.1290  0.3409  0.9479
 8114SOL    MW432224   2.687   4.282   2.146 -0.4977 -0.6102  0.0549
 8115SOL     OW32225   1.646   4.215   2.209 -0.1797  0.7963  0.5588
 8115SOL    HW232226   1.730   4.258   2.228 -0.1833  0.6493  0.9013
 8115SOL    HW332227   1.615   4.258   2.129  1.3688 -0.7332 -0.9751
 8115SOL    MW432228   1.653   4.226   2.201 -0.4969 -0.0037 -0.5561
 8116SOL     OW32229   0.890   5.789   3.016  0.2446 -0.2037 -0.6855
 8116SOL    HW232230   0.973   5.834   3.032  0.7511 -1.3322  0.0452
 8116SOL    HW332231   0.826   5.836   3.069  0.6606 -0.0429 -0.3208
 8116SOL    MW432232   0.893   5.801   3.025 -0.2934  0.1468  0.0297
 8117SOL     OW32233   0.350   2.099   5.335  0.2997  0.1132 -0.5085
 8117SOL    HW232234   0.369   2.140   5.251 -0.1510 -0.2523 -0.7968
 8117SOL    HW332235   0.436   2.072   5.369  0.4620  0.0582 -0.9573
 8117SOL    MW432236   0.364   2.101   5.328 -0.2278  0.2534  0.1367
 8118SOL     OW32237   0.490   0.468   3.357  0.3854 -0.2325  0.1201
 8118SOL    HW232238   0.406   0.503   3.328  0.4843  0.9470  1.1883
 8118SOL    HW332239   0.483   0.374   3.341 -0.4063  0.0814 -1.5483
 8118SOL    MW432240   0.478   0.460   3.351  0.2378  0.2321  0.1980
 8119SOL     OW32241   3.140   1.492   1.877 -0.6406  0.5726  0.5647
 8119SOL    HW232242   3.162   1.561   1.939  0.0810 -0.4326  1.4516
 8119SOL    HW332243   3.144   1.411   1.927 -0.7069 -0.2065 -0.6355
 8119SOL    MW432244   3.143   1.490   1.892  0.2588 -0.1372 -0.3692
 8120SOL     OW32245   1.559   5.385   5.414 -0.1328  0.2053 -0.1767
 8120SOL    HW232246   1.580   5.407   5.505  1.5256  1.0775 -0.7415
 8120SOL    HW332247   1.643   5.367   5.373 -0.8715 -0.3262 -1.5222
 8120SOL    MW432248   1.573   5.385   5.421  0.2854 -0.8595  0.3781
 8121SOL     OW32249   4.035   0.668   1.218 -0.9639  0.2771  0.3033
 8121SOL    HW232250   4.125   0.700   1.223 -0.4798 -0.9471 -0.1504
 8121SOL    HW332251   4.022   0.621   1.301  0.6994 -4.0730 -1.5938
 8121SOL    MW432252   4.045   0.666   1.230  0.4720  0.0851  0.4273
 8122SOL     OW32253   2.021   0.747   1.895 -0.0107  0.2597  1.2242
 8122SOL    HW232254   1.935   0.708   1.884  0.8211 -1.1895 -0.7396
 8122SOL    HW332255   2.022   0.819   1.832  0.5079 -0.3202  0.5512
 8122SOL    MW432256   2.010   0.751   1.885  0.3127  0.0254 -0.5324
 8123SOL     OW32257   2.938   2.139   6.378 -0.0289 -0.3943  0.1736
 8123SOL    HW232258   2.890   2.083   6.317 -1.9013  0.3231  0.9250
 8123SOL    HW332259   2.983   2.078   6.436  1.3792 -1.0853 -1.5436
 8123SOL    MW432260   2.938   2.124   6.378 -0.2243  0.1748 -0.3391
 8124SOL     OW32261   3.482   0.690   3.804  0.0414  0.6375  0.2410
 8124SOL    HW232262   3.400   0.648   3.832 -0.7125  0.2959 -2.2546
 8124SOL    HW332263   3.533   0.619   3.766  1.3559  0.9306  1.4015
 8124SOL    MW432264   3.478   0.675   3.803 -0.3180  1.1658 -0.2172
 8125SOL     OW32265   3.259   5.447   2.525  0.7504 -0.1459  0.3260
 8125SOL    HW232266   3.280   5.365   2.570  1.7703  0.3361  0.7497
 8125SOL    HW332267   3.311   5.513   2.569 -1.0985  1.0083  0.8938
 8125SOL    MW432268   3.269   5.445   2.537 -0.3567 -0.6305  0.4161
 8126SOL     OW32269   5.083   5.610   0.427  0.5488  0.3250  0.0850
 8126SOL    HW232270   5.045   5.694   0.401  1.8479  1.3089  1.2509
 8126SOL    HW332271   5.109   5.569   0.344 -0.7402  0.7198 -0.5493
 8126SOL    MW432272   5.081   5.615   0.413 -0.0608 -0.0464 -0.6085
 8127SOL     OW32273   1.917   4.796   2.569  0.2956  0.8248 -0.0163
 8127SOL    HW232274   1.870   4.744   2.504  1.2712  0.4234 -0.4168
 8127SOL    HW332275   1.855   4.864   2.595 -0.2242  0.8012 -1.1330
 8127SOL    MW432276   1.903   4.798   2.564  0.1177  0.8195 -0.0023
 8128SOL     OW32277   5.630   0.770   1.809 -0.3459  0.1082  0.3041
 8128SOL    HW232278   5.551   0.803   1.853  0.6480  1.8848  0.8251
 8128SOL    HW332279   5.702   0.792   1.868  0.7867  0.5214 -1.1558
 8128SOL    MW432280   5.629   0.777   1.822 -0.0302  0.0491  0.2176
 8129SOL     OW32281   0.071   5.239   6.351 -0.1170  0.7618 -0.3510
 8129SOL    HW232282   0.024   5.249   6.434 -1.4122 -2.5317 -0.5388
 8129SOL    HW332283   0.162   5.258   6.373 -0.5491  0.7775  1.6339
 8129SOL    MW432284   0.077   5.243   6.365 -0.1674  0.0434 -0.0266
 8130SOL     OW32285   2.207   5.198   4.425  0.3616 -0.8589 -0.1998
 8130SOL    HW232286   2.175   5.146   4.499  2.3537  0.4406  1.6866
 8130SOL    HW332287   2.161   5.282   4.434  0.0941 -0.9240 -0.8910
 8130SOL    MW432288   2.197   5.203   4.436  0.3350 -0.4467  0.7823
 8131SOL     OW32289   3.990   1.118   1.876  0.4796  0.2885 -0.3884
 8131SOL    HW232290   3.997   1.061   1.953 -0.5512  0.2993 -0.2671
 8131SOL    HW332291   3.983   1.206   1.913 -0.4781  0.2566 -0.4487
 8131SOL    MW432292   3.990   1.122   1.891 -0.0358  0.2404  0.4502
 8132SOL     OW32293   3.737   5.352   3.840  0.1082  0.8060  1.1428
 8132SOL    HW232294   3.690   5.417   3.892  1.5248  1.1518  2.0552
 8132SOL    HW332295   3.828   5.362   3.866  0.7141  0.1997 -0.6019
 8132SOL    MW432296   3.743   5.362   3.851 -0.2969  0.0329 -0.2133
 8133SOL     OW32297   3.907   4.583   1.150  0.2318  0.2559  0.2531
 8133SOL    HW232298   3.901   4.488   1.159 -0.2219  0.3608  1.2620
 8133SOL    HW332299   3.879   4.617   1.236 -0.2069  1.3089 -0.2799
 8133SOL    MW432300   3.902   4.575   1.162 -1.0232 -0.0129  0.1100
 8134SOL     OW32301   4.404   3.796   4.796 -0.4956 -0.2794  0.3174
 8134SOL    HW232302   4.362   3.711   4.813 -1.4985  0.3364  1.0213
 8134SOL    HW332303   4.398   3.806   4.701 -3.3334  0.4228  0.4778
 8134SOL    MW432304   4.398   3.786   4.785 -0.0318 -0.2164 -0.5706
 8135SOL     OW32305   2.276   5.980   1.655 -0.0156  0.2440  0.2259
 8135SOL    HW232306   2.210   6.048   1.662 -0.7314 -0.5498  1.4437
 8135SOL    HW332307   2.309   5.968   1.744  1.1691  0.0196 -0.2153
 8135SOL    MW432308   2.272   5.988   1.667  0.2465 -0.1396 -0.5304
 8136SOL     OW32309   5.233   1.539   5.460 -0.1880 -0.1314  0.6369
 8136SOL    HW232310   5.293   1.468   5.438  0.3594  0.2531  0.8763
 8136SOL    HW332311   5.156   1.495   5.498 -0.3365 -0.6672 -0.2566
 8136SOL    MW432312   5.230   1.524   5.462  1.2211 -0.3887  0.4461
 8137SOL     OW32313   4.621   4.860   0.705 -0.3299  0.1277  0.1252
 8137SOL    HW232314   4.541   4.830   0.662  0.0437 -0.5351 -0.1295
 8137SOL    HW332315   4.591   4.897   0.788 -0.7298 -2.0775  1.0332
 8137SOL    MW432316   4.606   4.861   0.710  0.5145 -0.5290 -0.2413
 8138SOL     OW32317   5.896   2.632   2.072  0.0164 -0.8221  0.2003
 8138SOL    HW232318   5.855   2.657   1.988 -0.8247 -2.2959  0.1303
 8138SOL    HW332319   5.840   2.673   2.138  0.4355 -0.0093  0.0722
 8138SOL    MW432320   5.883   2.641   2.069  0.5129  0.0393 -0.5445
 8139SOL     OW32321   5.299   4.077   4.983  0.5520 -0.3719 -0.1022
 8139SOL    HW232322   5.229   4.048   4.925 -0.2727 -2.5674  1.8182
 8139SOL    HW332323   5.307   4.171   4.966 -0.0443 -0.7869 -3.2309
 8139SOL    MW432324   5.291   4.086   4.973  0.2805  0.5560  0.6203
 8140SOL     OW32325   6.111   0.031   4.341  0.0249 -0.0744  1.0222
 8140SOL    HW232326   6.097   0.087   4.418  2.0770  1.9959  0.0150
 8140SOL    HW332327   6.183  -0.026   4.367 -1.3688 -1.6221  1.6706
 8140SOL    MW432328   6.119   0.031   4.355  0.9198  0.3676 -0.4824
 8141SOL     OW32329   1.563   0.875   1.934  0.3595  0.1980  0.1461
 8141SOL    HW232330   1.505   0.800   1.922  0.3842  0.1950  0.0497
 8141SOL    HW332331   1.512   0.935   1.990  0.2499  0.2092  0.0357
 8141SOL    MW432332   1.548   0.873   1.940 -0.6838 -0.6765 -0.0772
 8142SOL     OW32333   2.348   0.933   3.548 -0.3923  0.4405  0.1440
 8142SOL    HW232334   2.421   0.887   3.508 -1.6676 -1.9449  0.4130
 8142SOL    HW332335   2.312   0.987   3.478 -0.0217 -0.4269 -0.7270
 8142SOL    MW432336   2.353   0.934   3.534 -0.0091  0.3808 -0.1924
 8143SOL     OW32337   4.059   3.148   5.531  0.4679 -0.2488  0.0788
 8143SOL    HW232338   4.087   3.089   5.461 -0.1803 -1.9834  1.2298
 8143SOL    HW332339   4.052   3.234   5.488  0.4515 -1.1721 -1.8800
 8143SOL    MW432340   4.062   3.152   5.516  0.1900 -0.6192  0.3341
 8144SOL     OW32341   0.310   4.390   4.340  0.1201  0.1365  0.8260
 8144SOL    HW232342   0.270   4.454   4.282  0.2624 -0.0927  0.4713
 8144SOL    HW332343   0.398   4.378   4.305 -0.3803 -1.3326  0.0107
 8144SOL    MW432344   0.316   4.397   4.328 -0.4110 -0.2080 -0.4753
 8145SOL     OW32345   0.989   2.255   2.109 -0.1577  0.3322 -0.6323
 8145SOL    HW232346   0.899   2.240   2.137 -0.1685  1.0323 -0.2923
 8145SOL    HW332347   1.013   2.175   2.062 -0.4491 -0.4814  0.5638
 8145SOL    MW432348   0.981   2.242   2.107 -0.1987 -0.0131 -0.0561
 8146SOL     OW32349   4.665   6.126   1.581  0.4330 -0.0228  0.1069
 8146SOL    HW232350   4.619   6.112   1.664 -0.8356 -0.4135 -0.6437
 8146SOL    HW332351   4.683   6.220   1.579  0.8644 -0.0780  1.0107
 8146SOL    MW432352   4.661   6.137   1.592 -0.2312  0.0265 -0.3198
 8147SOL     OW32353   3.732   5.609   4.193  0.1922 -0.3208  0.3904
 8147SOL    HW232354   3.680   5.608   4.274  0.1485 -1.8905  0.3781
 8147SOL    HW332355   3.813   5.564   4.217  0.6957  0.2991 -0.1336
 8147SOL    MW432356   3.736   5.603   4.207 -1.1554 -0.4415 -0.4841
 8148SOL     OW32357   0.290   2.907   3.447 -0.0657 -0.0622  0.1805
 8148SOL    HW232358   0.375   2.940   3.474 -0.2563  1.3248 -0.8366
 8148SOL    HW332359   0.242   2.984   3.417 -1.3415 -0.9529 -0.1671
 8148SOL    MW432360   0.295   2.921   3.447 -0.2040  0.3875 -0.2713
 8149SOL     OW32361   3.230   5.973   4.065 -0.5372 -0.2654  0.3692
 8149SOL    HW232362   3.182   5.924   4.132  0.9636 -1.0035  0.9637
 8149SOL    HW332363   3.253   6.056   4.107  1.5687 -1.2570  1.3307
 8149SOL    MW432364   3.227   5.977   4.079 -0.0969 -0.6950 -0.2353
 8150SOL     OW32365   1.144   4.222   1.178 -0.2386  0.0313  0.0299
 8150SOL    HW232366   1.106   4.137   1.157 -0.5509 -0.1822  1.3541
 8150SOL    HW332367   1.227   4.201   1.221  0.2570  0.4392 -0.7077
 8150SOL    MW432368   1.150   4.208   1.181 -0.4714 -0.8144  0.0343
 8151SOL     OW32369   0.880   2.522   6.121  0.1540  0.1000 -0.4461
 8151SOL    HW232370   0.807   2.460   6.131 -0.2896  0.6149 -0.4166
 8151SOL    HW332371   0.878   2.547   6.029 -0.7869  1.3817 -0.1212
 8151SOL    MW432372   0.870   2.517   6.110 -0.1748 -0.0230  0.2241
 8152SOL     OW32373   0.023   2.763   1.622  0.1475  0.1168  0.4382
 8152SOL    HW232374  -0.058   2.747   1.670 -0.8659 -1.1169 -1.5688
 8152SOL    HW332375   0.060   2.676   1.608  1.1270  0.5677  0.1729
 8152SOL    MW432376   0.017   2.750   1.627  0.2606  0.3175 -0.5501
 8153SOL     OW32377   4.227   1.058   3.252  0.0248  0.2632 -0.4175
 8153SOL    HW232378   4.230   1.018   3.339 -1.6327  1.4400  0.2241
 8153SOL    HW332379   4.184   0.993   3.196  1.7013 -0.7763 -0.5653
 8153SOL    MW432380   4.222   1.044   3.256  0.5216  0.0510  0.2375
 8154SOL     OW32381   1.954   5.430   1.490 -0.8604 -0.0791 -0.7570
 8154SOL    HW232382   2.019   5.360   1.492  0.1536  0.8347  0.0798
 8154SOL    HW332383   1.870   5.385   1.482 -0.2871 -1.4239  0.3288
 8154SOL    MW432384   1.952   5.415   1.489 -0.3228  0.3495  0.2744
 8155SOL     OW32385   2.360   5.137   1.188 -0.1556 -0.2624 -0.0775
 8155SOL    HW232386   2.302   5.070   1.224  0.2231  0.2023  1.4781
 8155SOL    HW332387   2.407   5.093   1.118  0.6446 -1.8757  1.3991
 8155SOL    MW432388   2.358   5.122   1.183  0.0428  0.3964 -0.0799
 8156SOL     OW32389   4.088   0.393   1.995 -0.0427  0.1690 -0.2374
 8156SOL    HW232390   4.027   0.452   1.950 -0.9472 -0.7362 -0.2146
 8156SOL    HW332391   4.170   0.443   1.999 -1.0183  1.7972  0.5828
 8156SOL    MW432392   4.091   0.408   1.989 -0.1593  0.1493 -0.1420
 8157SOL     OW32393   1.502   2.854   1.694  0.0147 -0.3830  0.4642
 8157SOL    HW232394   1.435   2.826   1.631 -1.5105 -0.7342  2.1571
 8157SOL    HW332395   1.471   2.939   1.725  0.7076 -0.2453  0.7911
 8157SOL    MW432396   1.489   2.861   1.690  0.3717  0.0749 -0.2852
 8158SOL     OW32397   5.851   2.244   6.164  0.1297 -0.3221  0.2969
 8158SOL    HW232398   5.855   2.172   6.227  0.7819  0.9748  1.7753
 8158SOL    HW332399   5.780   2.300   6.195 -3.0378 -2.0766 -2.9170
 8158SOL    MW432400   5.842   2.242   6.176 -0.2320 -0.0112  0.6966
 8159SOL     OW32401   0.085   1.665   2.531  1.1670  0.1225 -0.9156
 8159SOL    HW232402   0.044   1.619   2.457  0.1097  0.3510 -0.4923
 8159SOL    HW332403   0.011   1.691   2.586  1.9979 -1.2286  0.9294
 8159SOL    MW432404   0.070   1.662   2.529  0.5876  0.2751 -0.1019
 8160SOL     OW32405   2.921   6.371   3.037  0.9515 -0.5451 -0.3381
 8160SOL    HW232406   2.869   6.368   2.956  0.0778  0.8948  0.1238
 8160SOL    HW332407   2.916   6.283   3.072 -2.9437 -0.1059  0.6939
 8160SOL    MW432408   2.914   6.359   3.031  0.2811 -0.4078  0.2151
 8161SOL     OW32409   6.055   6.202   2.325 -0.2755  0.5101  0.3071
 8161SOL    HW232410   6.104   6.261   2.382 -3.2519  1.7693  1.8424
 8161SOL    HW332411   6.051   6.120   2.375 -0.3324  0.6407  0.5209
 8161SOL    MW432412   6.061   6.199   2.339  0.4845 -0.0869  0.2887
 8162SOL     OW32413   3.931   3.979   2.493  0.0966 -0.2186 -0.3941
 8162SOL    HW232414   3.880   4.051   2.529  3.0039  1.5315  0.5625
 8162SOL    HW332415   3.876   3.901   2.507 -1.7230  1.3126  1.6661
 8162SOL    MW432416   3.917   3.978   2.499  0.1781  0.1253 -0.1383
 8163SOL     OW32417   1.182   3.726   3.450  0.3631  0.4192  0.2460
 8163SOL    HW232418   1.183   3.804   3.505  2.3085 -0.4323  1.5050
 8163SOL    HW332419   1.211   3.655   3.507 -0.1093 -1.0110 -1.2087
 8163SOL    MW432420   1.186   3.727   3.464  0.0716  0.1545  0.0003
 8164SOL     OW32421   0.666   2.952   2.731 -0.2572 -0.6103  0.2444
 8164SOL    HW232422   0.749   2.953   2.779  0.2385 -0.9459 -0.5764
 8164SOL    HW332423   0.655   2.861   2.704  0.6751 -0.0772 -2.2349
 8164SOL    MW432424   0.675   2.940   2.734 -0.0800 -0.0732  0.0274
 8165SOL     OW32425   5.840   5.736   0.134  0.0449 -0.2435  0.4501
 8165SOL    HW232426   5.768   5.683   0.099 -0.3084  0.4458  0.0867
 8165SOL    HW332427   5.907   5.673   0.159 -0.3249 -0.8530 -0.0483
 8165SOL    MW432428   5.839   5.721   0.133  0.4504 -0.2303  0.2789
 8166SOL     OW32429   3.460   2.817   1.519 -0.2922  0.4768 -0.2470
 8166SOL    HW232430   3.455   2.745   1.582  0.7327  0.0038 -0.6699
 8166SOL    HW332431   3.523   2.878   1.557  1.4603 -0.5061 -1.4276
 8166SOL    MW432432   3.468   2.815   1.532 -0.4160 -0.4519 -0.3116
 8167SOL     OW32433   1.928   4.242   1.976 -0.0180  0.2304 -0.9502
 8167SOL    HW232434   1.926   4.162   1.924  2.0972 -1.1945  0.9815
 8167SOL    HW332435   1.838   4.254   2.006 -0.7544 -0.2872 -2.8449
 8167SOL    MW432436   1.916   4.233   1.973 -0.3002 -0.1053  0.0396
 8168SOL     OW32437   3.446   1.147   0.096 -0.1135 -0.2497 -0.2048
 8168SOL    HW232438   3.361   1.182   0.122 -0.6252 -0.4675 -1.5148
 8168SOL    HW332439   3.496   1.224   0.068 -0.1403 -0.2029 -0.1225
 8168SOL    MW432440   3.441   1.162   0.096  0.2461  0.7289  0.6821
 8169SOL     OW32441   2.968   5.879   4.891 -0.0154 -0.4273 -0.4379
 8169SOL    HW232442   2.977   5.943   4.962  0.4567  0.5070 -1.3176
 8169SOL    HW332443   2.883   5.838   4.907 -0.3738  0.4849  0.0897
 8169SOL    MW432444   2.958   5.882   4.903 -0.1699 -0.5891  0.0290
 8170SOL     OW32445   1.313   4.497   4.263 -0.0409  0.3772 -0.0213
 8170SOL    HW232446   1.392   4.508   4.316  0.8835  0.0841 -1.2884
 8170SOL    HW332447   1.242   4.487   4.326  0.9104  0.8220  1.1442
 8170SOL    MW432448   1.314   4.497   4.278  0.2229  0.1021 -0.2656
 8171SOL     OW32449   0.348   2.634   5.139  0.1654  0.0108  0.1885
 8171SOL    HW232450   0.364   2.708   5.080  2.8401 -0.4195  0.2572
 8171SOL    HW332451   0.377   2.664   5.225 -0.5809 -0.4803  0.6245
 8171SOL    MW432452   0.354   2.648   5.142  0.3742 -0.1612 -0.3895
 8172SOL     OW32453   2.698   1.140   5.102  0.3368  0.4786 -0.1784
 8172SOL    HW232454   2.676   1.143   5.195 -0.4082 -1.0480 -0.2811
 8172SOL    HW332455   2.753   1.217   5.088  1.3215  0.1820  1.7467
 8172SOL    MW432456   2.702   1.151   5.112 -0.4363 -0.7580 -0.5054
 8173SOL     OW32457   3.245   0.551   5.883  0.1424 -0.2287  0.1716
 8173SOL    HW232458   3.203   0.468   5.904  0.1813 -0.4845 -0.7057
 8173SOL    HW332459   3.333   0.528   5.856  0.1372  0.0901 -0.1296
 8173SOL    MW432460   3.251   0.537   5.882  0.5070 -0.2232  0.7308
 8174SOL     OW32461   3.283   3.791   0.380 -0.2196  0.2690  0.2293
 8174SOL    HW232462   3.223   3.778   0.454  1.7649  0.6926  1.9923
 8174SOL    HW332463   3.316   3.704   0.360 -0.7392  0.1575 -0.1794
 8174SOL    MW432464   3.279   3.778   0.387  0.1209  0.1702 -0.2114
 8175SOL     OW32465   3.845   2.168   1.191  0.3839  0.3225 -0.3252
 8175SOL    HW232466   3.830   2.263   1.201 -0.1053  0.3341 -1.0966
 8175SOL    HW332467   3.926   2.152   1.239 -1.3574  0.4941  2.9937
 8175SOL    MW432468   3.854   2.179   1.199 -0.6173  0.1530  0.0399
 8176SOL     OW32469   0.408   6.072   4.789  0.1120 -0.1926 -0.5230
 8176SOL    HW232470   0.482   6.121   4.751  0.7990 -1.8756 -1.4625
 8176SOL    HW332471   0.386   6.008   4.722 -2.0211  0.0558 -0.1070
 8176SOL    MW432472   0.415   6.070   4.775  0.1870 -0.7723  0.1000
 8177SOL     OW32473   6.390   5.595   3.006  0.1449 -0.3651  0.0494
 8177SOL    HW232474   6.433   5.614   2.923 -0.4407  2.5324  0.3250
 8177SOL    HW332475   6.304   5.559   2.981  0.3178 -0.3491 -0.5828
 8177SOL    MW432476   6.384   5.592   2.992 -0.1716 -0.3551 -0.3401
 8178SOL     OW32477   3.900   0.064   2.318 -0.1611 -0.8206  0.1644
 8178SOL    HW232478   3.869  -0.026   2.320 -0.2152 -0.7898  1.5967
 8178SOL    HW332479   3.869   0.102   2.400  1.1265  0.0576  0.2778
 8178SOL    MW432480   3.892   0.057   2.329  0.1172  0.1567  0.4045
 8179SOL     OW32481   0.141   6.033   5.193 -0.0067  0.2036 -0.1997
 8179SOL    HW232482   0.120   6.078   5.274  0.0769  1.9295 -1.0966
 8179SOL    HW332483   0.057   6.023   5.148 -0.0206 -0.5310 -0.0243
 8179SOL    MW432484   0.127   6.038   5.198 -0.3277  0.4651 -0.3999
 8180SOL     OW32485   5.145   2.625   4.974 -0.6909  0.5860 -0.4472
 8180SOL    HW232486   5.158   2.589   5.062  2.2120  0.5848 -0.7705
 8180SOL    HW332487   5.090   2.702   4.987 -0.5349  0.4401  1.3392
 8180SOL    MW432488   5.140   2.630   4.988 -0.1517  0.1161  0.2087
 8181SOL     OW32489   3.844   0.643   0.984 -0.3437  0.4850 -0.6868
 8181SOL    HW232490   3.879   0.631   1.073  2.1710 -0.3956 -1.7145
 8181SOL    HW332491   3.788   0.566   0.970  0.0974  0.0711 -0.2329
 8181SOL    MW432492   3.841   0.631   0.994  0.2934 -0.5010  0.1260
 8182SOL     OW32493   0.402   0.048   0.675  0.6757 -0.3000  0.4902
 8182SOL    HW232494   0.354   0.130   0.687  0.5473 -0.2564 -0.2451
 8182SOL    HW332495   0.340  -0.010   0.632  0.5458 -1.0253  1.6059
 8182SOL    MW432496   0.388   0.051   0.671  0.2409 -0.3355  0.2443
 8183SOL     OW32497   5.574   6.204   3.080  0.4868 -0.0019  0.7864
 8183SOL    HW232498   5.507   6.135   3.078  0.7639 -0.2632  0.1452
 8183SOL    HW332499   5.657   6.156   3.074  0.8229  0.2259  2.7360
 8183SOL    MW432500   5.577   6.188   3.079 -0.1516  0.4490  0.6164
 8184SOL     OW32501   4.149   3.987   3.730 -0.1231 -0.1771 -0.1786
 8184SOL    HW232502   4.112   4.057   3.675  0.0924  0.3888  0.3896
 8184SOL    HW332503   4.123   4.010   3.819  1.8971  0.4528  0.2965
 8184SOL    MW432504   4.141   3.999   3.734  0.7519 -0.2069 -0.3028
 8185SOL     OW32505   2.175   0.075   1.805  0.0638  0.1726 -0.1348
 8185SOL    HW232506   2.192   0.026   1.886 -3.6149 -1.0616  0.1185
 8185SOL    HW332507   2.222   0.027   1.737  2.8994  1.0023  1.1302
 8185SOL    MW432508   2.183   0.062   1.807 -0.4464 -0.7515  0.1232
 8186SOL     OW32509   4.956   5.861   2.711  0.2337 -0.4966 -0.8317
 8186SOL    HW232510   4.995   5.777   2.690  0.7955 -0.4157 -0.1480
 8186SOL    HW332511   4.871   5.860   2.667  0.2922 -1.3615 -0.9328
 8186SOL    MW432512   4.950   5.850   2.703  0.3946 -0.3683  0.6952
 8187SOL     OW32513   5.112   0.865   6.300 -0.1341 -0.3832  0.0118
 8187SOL    HW232514   5.181   0.908   6.351 -0.2768 -1.1333  0.8615
 8187SOL    HW332515   5.050   0.935   6.280  0.8933  0.3294 -0.8403
 8187SOL    MW432516   5.113   0.880   6.304 -0.6389  0.6097  0.1368
 8188SOL     OW32517   2.648   0.707   1.167 -0.2894  0.2193  0.1442
 8188SOL    HW232518   2.693   0.758   1.235 -1.5498 -0.1754  1.3159
 8188SOL    HW332519   2.639   0.768   1.093 -0.2559  1.1472  0.8892
 8188SOL    MW432520   2.653   0.722   1.166  0.5722 -0.2430  0.1671
 8189SOL     OW32521   2.763   1.827   2.419 -0.1351 -0.4867 -0.1691
 8189SOL    HW232522   2.746   1.761   2.486 -1.0025 -2.2829 -2.0503
 8189SOL    HW332523   2.718   1.905   2.450 -0.6557 -1.3126  1.2359
 8189SOL    MW432524   2.755   1.829   2.432  0.0753 -0.0976  0.5030
 8190SOL     OW32525   4.700   6.284   3.725 -0.3594  0.1117 -0.4243
 8190SOL    HW232526   4.735   6.348   3.786  1.3760 -1.9366  0.9024
 8190SOL    HW332527   4.756   6.290   3.648  0.7096 -0.6904  0.2562
 8190SOL    MW432528   4.712   6.293   3.723  0.2615  0.5134  0.0397
 8191SOL     OW32529   3.107   5.051   1.627 -0.4316  0.1804  0.5609
 8191SOL    HW232530   3.141   5.113   1.562  1.1388 -0.0610  1.1106
 8191SOL    HW332531   3.185   5.017   1.671 -1.4589  0.7608  2.9691
 8191SOL    MW432532   3.122   5.055   1.624  1.0131  0.0017  0.5994
 8192SOL     OW32533   4.519   1.718   0.364 -0.2010  0.3119  0.6213
 8192SOL    HW232534   4.601   1.765   0.349  0.1989 -0.7450 -0.6494
 8192SOL    HW332535   4.544   1.626   0.364 -0.8390  0.0249  3.8541
 8192SOL    MW432536   4.533   1.712   0.362  0.3148  0.7686  0.3184
 8193SOL     OW32537   3.624   0.085   4.948 -0.3447  0.1924 -0.3186
 8193SOL    HW232538   3.587   0.018   5.006 -0.4893  0.7957  0.3023
 8193SOL    HW332539   3.552   0.110   4.891 -0.1177 -0.6276 -0.9822
 8193SOL    MW432540   3.610   0.080   4.948 -0.5973  0.3992  0.0431
 8194SOL     OW32541   4.883   0.310   5.203  0.2080  0.4457 -0.3133
 8194SOL    HW232542   4.839   0.259   5.136  0.7928  1.0612 -1.1900
 8194SOL    HW332543   4.976   0.286   5.195  0.5143  1.7170 -0.8313
 8194SOL    MW432544   4.890   0.300   5.193  0.2041  0.1234  0.2613
 8195SOL     OW32545   3.418   6.424   4.070  0.3255  0.0630  0.1939
 8195SOL    HW232546   3.470   6.490   4.117 -0.8647 -1.1829  3.6071
 8195SOL    HW332547   3.361   6.475   4.013  1.0655  1.8306  0.9301
 8195SOL    MW432548   3.417   6.440   4.069 -0.3075  0.0924 -0.4846
 8196SOL     OW32549   1.084   0.346   3.763 -0.4833 -0.3201  0.4666
 8196SOL    HW232550   1.043   0.265   3.731 -2.4530  0.3876  1.0448
 8196SOL    HW332551   1.177   0.333   3.748 -0.8887 -2.0378 -0.9479
 8196SOL    MW432552   1.091   0.333   3.757  0.4613 -0.1876 -0.3845
 8197SOL     OW32553   5.903   3.535   4.769  0.5789  0.0275 -0.0267
 8197SOL    HW232554   5.836   3.493   4.715  0.2194  0.0918  0.3576
 8197SOL    HW332555   5.985   3.518   4.724  0.3144 -0.1446 -0.4522
 8197SOL    MW432556   5.905   3.527   4.756 -0.6102 -0.0215  0.3269
 8198SOL     OW32557   5.789   3.054   2.620 -0.3914  0.4692 -0.1815
 8198SOL    HW232558   5.871   3.041   2.572 -1.0213 -0.3555 -1.1057
 8198SOL    HW332559   5.808   3.027   2.709  0.6378  1.3886 -0.1073
 8198SOL    MW432560   5.802   3.048   2.625  0.8385  0.3371 -0.7075
 8199SOL     OW32561   2.337   6.186   3.191  0.4382  0.1872  0.4834
 8199SOL    HW232562   2.396   6.184   3.116  0.6361 -0.5270  0.6494
 8199SOL    HW332563   2.250   6.195   3.152  0.6416  1.2165  0.2367
 8199SOL    MW432564   2.333   6.187   3.176 -0.7578  0.3399  0.3913
 8200SOL     OW32565   2.307   0.710   1.887  0.8282 -0.1515  0.4374
 8200SOL    HW232566   2.338   0.748   1.969 -1.5699  1.2663  0.7752
 8200SOL    HW332567   2.219   0.680   1.906 -0.5545  1.9284 -2.0227
 8200SOL    MW432568   2.300   0.711   1.900 -0.5103  0.1861  0.1729
 8201SOL     OW32569   1.542   3.343   4.405  0.1551  0.3227 -0.8594
 8201SOL    HW232570   1.588   3.312   4.484  0.3811 -0.1836 -1.1843
 8201SOL    HW332571   1.519   3.263   4.358 -2.0119  0.4959 -0.2020
 8201SOL    MW432572   1.545   3.329   4.409  0.2964 -0.1410 -0.4296
 8202SOL     OW32573   2.205   5.623   4.993  0.0177  0.5440 -0.3461
 8202SOL    HW232574   2.289   5.590   4.962  0.4116  2.1551 -1.0833
 8202SOL    HW332575   2.144   5.550   4.978  1.1744 -0.4782 -0.2191
 8202SOL    MW432576   2.208   5.609   4.987  0.8640 -0.5299  0.5499
 8203SOL     OW32577   5.934   0.308   6.423 -0.6942 -0.0151 -0.3616
 8203SOL    HW232578   5.876   0.246   6.377  0.1107 -3.1664  2.4963
 8203SOL    HW332579   5.876   0.356   6.481 -0.8743 -1.1898  0.4736
 8203SOL    MW432580   5.918   0.306   6.424 -0.3781 -0.0957 -0.4247
 8204SOL     OW32581   3.910   4.238   0.387 -0.4452 -0.4181  0.2374
 8204SOL    HW232582   3.930   4.172   0.320  1.1978  0.8026 -0.5571
 8204SOL    HW332583   3.983   4.232   0.449 -0.9815 -0.2556  0.8890
 8204SOL    MW432584   3.922   4.228   0.386 -0.0291 -0.1120 -0.2989
 8205SOL     OW32585   2.327   2.248   4.250  0.2951  0.0963 -0.1143
 8205SOL    HW232586   2.249   2.210   4.209 -0.0619  1.8719 -1.1958
 8205SOL    HW332587   2.400   2.198   4.214 -0.2347 -0.5534 -0.3132
 8205SOL    MW432588   2.326   2.237   4.240  0.2238 -0.2463 -0.1590
 8206SOL     OW32589   0.440   3.623   1.268 -0.1123  0.8099  0.1976
 8206SOL    HW232590   0.416   3.540   1.311 -1.3656  0.2698 -1.4247
 8206SOL    HW332591   0.440   3.687   1.339 -0.7558 -0.2813  1.2373
 8206SOL    MW432592   0.437   3.620   1.283  0.4675 -0.1501  1.1366
 8207SOL     OW32593   4.832   1.420   1.880 -0.1105  0.2216  0.3649
 8207SOL    HW232594   4.774   1.344   1.883  1.4723 -1.0257  1.5265
 8207SOL    HW332595   4.896   1.398   1.812  0.1399  0.6961  0.4455
 8207SOL    MW432596   4.833   1.407   1.872  0.7735 -0.6561  0.3499
 8208SOL     OW32597   4.413   4.151   1.724  0.1554  0.0106 -0.1787
 8208SOL    HW232598   4.364   4.080   1.681  0.5929 -0.8348  0.6734
 8208SOL    HW332599   4.505   4.132   1.705  0.5448 -1.5730  2.7191
 8208SOL    MW432600   4.418   4.139   1.716  0.7405  0.0613  0.4796
 8209SOL     OW32601   2.190   4.500   2.606  0.3612  0.3228 -0.1200
 8209SOL    HW232602   2.273   4.541   2.631  0.1529  0.7801 -0.1688
 8209SOL    HW332603   2.125   4.538   2.665  0.1454  0.1418 -0.2373
 8209SOL    MW432604   2.192   4.510   2.617 -0.2474 -0.0969 -0.3446
 8210SOL     OW32605   5.151   0.276   4.053 -0.1755  0.6175  0.1915
 8210SOL    HW232606   5.089   0.324   4.108  0.4185  2.7888 -0.9197
 8210SOL    HW332607   5.237   0.301   4.087  0.1683  1.0013 -0.9150
 8210SOL    MW432608   5.154   0.285   4.065  0.1592  0.0470  0.6683
 8211SOL     OW32609   2.960   5.504   3.134 -0.0033  0.2293  0.1001
 8211SOL    HW232610   2.908   5.425   3.151 -2.3063  1.8703  1.2960
 8211SOL    HW332611   2.966   5.507   3.039 -0.1069 -1.2266  0.0100
 8211SOL    MW432612   2.954   5.494   3.124 -0.3221 -0.3645  0.3432
 8212SOL     OW32613   3.939   5.655   2.239  0.4039 -0.0710 -0.8787
 8212SOL    HW232614   3.919   5.562   2.225 -0.4970  0.0815 -0.6862
 8212SOL    HW332615   4.018   5.655   2.292  0.1413 -0.7465 -0.4727
 8212SOL    MW432616   3.947   5.643   2.244 -0.1544  0.0841 -0.1235
 8213SOL     OW32617   3.674   4.295   2.781 -0.7089 -0.0929 -0.3572
 8213SOL    HW232618   3.719   4.255   2.855 -1.0355 -1.6326 -0.9567
 8213SOL    HW332619   3.694   4.389   2.788  0.4791 -0.4118  0.8148
 8213SOL    MW432620   3.683   4.302   2.792  0.1164  0.7848  0.2047
 8214SOL     OW32621   0.058   6.287   1.992 -0.0971 -0.0096 -0.1057
 8214SOL    HW232622  -0.029   6.295   2.032  0.2947 -0.6534  0.9159
 8214SOL    HW332623   0.110   6.241   2.058  0.9880  0.2599 -0.7589
 8214SOL    MW432624   0.053   6.282   2.006  0.5483  0.4299 -0.1316
 8215SOL     OW32625   1.555   5.771   5.955  0.0227 -0.7082 -0.0952
 8215SOL    HW232626   1.510   5.752   5.872 -0.2407 -2.5652  0.4136
 8215SOL    HW332627   1.628   5.709   5.957  0.0307 -0.6824  1.0563
 8215SOL    MW432628   1.559   5.760   5.944  0.0583 -0.3408  0.7762
 8216SOL     OW32629   0.203   4.213   2.688 -0.0375 -0.3755  0.0562
 8216SOL    HW232630   0.178   4.125   2.661 -2.2056  0.4107 -0.7538
 8216SOL    HW332631   0.241   4.252   2.610  0.0806 -0.3079  0.1472
 8216SOL    MW432632   0.205   4.207   2.674  0.1535  0.2589 -0.4252
 8217SOL     OW32633   2.914   2.559   1.371  0.0883  0.0873 -0.1234
 8217SOL    HW232634   2.945   2.621   1.305  0.7489  0.1278  0.2195
 8217SOL    HW332635   2.991   2.509   1.396 -0.3076 -0.4253  0.0904
 8217SOL    MW432636   2.928   2.561   1.366  0.6427 -0.8482  0.3789
 8218SOL     OW32637   4.268   5.647   2.969  0.2221  0.2842  0.1673
 8218SOL    HW232638   4.255   5.674   2.878 -3.7516 -2.6573 -0.3947
 8218SOL    HW332639   4.324   5.569   2.962 -0.5200 -0.2581  0.1207
 8218SOL    MW432640   4.274   5.640   2.956 -0.2520  0.3585 -0.3871
 8219SOL     OW32641   3.757   4.310   1.927 -0.1281  0.8275 -0.0634
 8219SOL    HW232642   3.778   4.403   1.933 -1.9951  1.2043  2.7465
 8219SOL    HW332643   3.679   4.307   1.871  0.4002  0.8318 -0.8109
 8219SOL    MW432644   3.749   4.321   1.920 -0.1660  0.1444 -0.2479
 8220SOL     OW32645   3.956   3.537   2.718 -0.1611  0.1981 -0.5190
 8220SOL    HW232646   4.029   3.497   2.671  0.6251 -0.7006  1.3470
 8220SOL    HW332647   3.997   3.587   2.789 -1.3154  0.5154 -0.0473
 8220SOL    MW432648   3.971   3.538   2.721 -1.0722 -0.3806  0.3708
 8221SOL     OW32649   3.352   4.320   5.195 -0.4492  0.6701 -0.3145
 8221SOL    HW232650   3.258   4.331   5.181 -0.6493  0.4515  0.7209
 8221SOL    HW332651   3.362   4.331   5.290  0.2035 -1.8604 -0.0346
 8221SOL    MW432652   3.341   4.323   5.206 -0.3022  0.0417 -0.1136
 8222SOL     OW32653   3.276   3.217   5.317 -0.1941 -0.0536  0.0216
 8222SOL    HW232654   3.206   3.155   5.296 -2.0775  1.9243  0.1052
 8222SOL    HW332655   3.264   3.236   5.410  0.3204  0.4689 -0.0135
 8222SOL    MW432656   3.265   3.212   5.327  0.1115 -0.0105  0.0642
 8223SOL     OW32657   4.142   4.837   3.937  0.6878  0.9794 -0.2537
 8223SOL    HW232658   4.125   4.764   3.877  1.5486  0.3176  0.2866
 8223SOL    HW332659   4.186   4.902   3.883  1.3093  0.4553 -0.3929
 8223SOL    MW432660   4.145   4.836   3.922  0.0006 -0.3333 -0.6261
 8224SOL     OW32661   3.640   6.218   0.026 -0.1266  0.3265  0.3163
 8224SOL    HW232662   3.600   6.156   0.086  0.0609  1.2436  1.4132
 8224SOL    HW332663   3.699   6.270   0.080  2.9446 -1.2177 -1.2893
 8224SOL    MW432664   3.642   6.217   0.041 -0.3309  0.2369  0.3855
 8225SOL     OW32665   0.923   2.004   1.233 -0.4764 -0.4228 -0.3208
 8225SOL    HW232666   0.983   1.964   1.296  0.0225  1.2918  0.3380
 8225SOL    HW332667   0.978   2.065   1.183 -1.3830  0.1123 -0.6802
 8225SOL    MW432668   0.938   2.007   1.235 -0.2913  0.0047 -1.1178
 8226SOL     OW32669   5.635   4.212   4.142  0.6909  0.2289 -0.2761
 8226SOL    HW232670   5.554   4.185   4.098  0.9680 -0.0406 -0.6276
 8226SOL    HW332671   5.672   4.130   4.176  0.3089  0.4726  0.7607
 8226SOL    MW432672   5.629   4.197   4.141  0.1165 -1.1075 -0.8213
 8227SOL     OW32673   3.067   4.229   5.361  0.3764 -0.0539  0.3104
 8227SOL    HW232674   3.002   4.207   5.428  0.4607  0.5800  0.6091
 8227SOL    HW332675   3.144   4.257   5.411  0.7734 -0.5017 -0.0421
 8227SOL    MW432676   3.068   4.230   5.377 -0.2817 -0.5636  0.3740
 8228SOL     OW32677   2.107   0.837   2.369  0.0730 -0.4370  0.7033
 8228SOL    HW232678   2.014   0.844   2.345 -0.1162 -2.7382  0.4937
 8228SOL    HW332679   2.113   0.878   2.455 -0.8919  0.8036  0.2012
 8228SOL    MW432680   2.095   0.843   2.377  0.7835  0.2692 -0.4694
 8229SOL     OW32681   4.305   4.455   5.504  0.0383 -0.4144  0.2357
 8229SOL    HW232682   4.301   4.545   5.535  0.1935 -0.3193 -0.0181
 8229SOL    HW332683   4.279   4.459   5.412 -0.8035 -0.7532  0.4479
 8229SOL    MW432684   4.301   4.467   5.496 -0.0850 -0.5809  0.1121
 8230SOL     OW32685   1.784   5.948   5.696 -0.1494  0.1405  0.0073
 8230SOL    HW232686   1.844   6.009   5.654 -0.4198 -0.4114 -1.2070
 8230SOL    HW332687   1.807   5.952   5.789 -0.9133  2.9320  0.1666
 8230SOL    MW432688   1.795   5.956   5.703  0.0431  0.7016  0.1249
 8231SOL     OW32689   1.069   5.609   1.126  0.1473  0.1175 -0.4952
 8231SOL    HW232690   1.148   5.615   1.072 -0.9435 -1.3351 -2.4160
 8231SOL    HW332691   1.058   5.697   1.162  1.1928  1.0808 -2.3317
 8231SOL    MW432692   1.078   5.621   1.123  0.6390 -0.7486  0.1954
 8232SOL     OW32693   5.352   4.946   1.755  0.0879 -0.2095 -0.5107
 8232SOL    HW232694   5.426   4.973   1.701  0.0189  1.4221  0.1574
 8232SOL    HW332695   5.277   4.945   1.695  0.7040 -2.6740 -1.3869
 8232SOL    MW432696   5.352   4.949   1.740 -0.5233  0.1693  0.2770
 8233SOL     OW32697   0.814   1.154   5.258 -0.2272  0.3610  0.0203
 8233SOL    HW232698   0.751   1.083   5.272 -0.4101  0.7897  1.5360
 8233SOL    HW332699   0.831   1.152   5.164  0.7980 -2.5718  0.1640
 8233SOL    MW432700   0.808   1.144   5.248  0.2908 -0.0510 -0.1359
 8234SOL     OW32701   3.003   0.686   5.091  0.2189 -0.6981  0.0828
 8234SOL    HW232702   3.055   0.719   5.164  1.2635 -0.9446 -0.5345
 8234SOL    HW332703   2.952   0.615   5.128  0.4827 -0.5946  0.6502
 8234SOL    MW432704   3.003   0.681   5.105  0.3686  0.7290 -0.3548
 8235SOL     OW32705   4.431   3.872   0.119  0.1204 -0.2431 -0.1343
 8235SOL    HW232706   4.424   3.953   0.168  0.3266 -0.3547  0.0811
 8235SOL    HW332707   4.360   3.817   0.152 -1.6833  0.7635 -2.0591
 8235SOL    MW432708   4.421   3.875   0.130 -0.0006  0.1138 -0.8094
 8236SOL     OW32709   4.248   0.080   3.243 -0.0026  0.4460 -0.2938
 8236SOL    HW232710   4.290   0.010   3.291  0.3672  0.7196 -0.2165
 8236SOL    HW332711   4.193   0.124   3.308 -1.5365 -0.7792 -0.6994
 8236SOL    MW432712   4.246   0.077   3.258 -0.4803 -0.3384  0.6703
 8237SOL     OW32713   0.782   5.266   6.092  0.1788 -0.3131 -0.1946
 8237SOL    HW232714   0.757   5.314   6.013 -0.1924 -1.2314 -0.6412
 8237SOL    HW332715   0.738   5.182   6.085  0.5104 -0.5851  0.7732
 8237SOL    MW432716   0.773   5.262   6.081 -0.5894  0.5964 -0.4190
 8238SOL     OW32717   4.293   3.698   2.690 -0.4037  0.1736  0.1225
 8238SOL    HW232718   4.210   3.745   2.681  0.0835  0.8651 -0.9689
 8238SOL    HW332719   4.355   3.764   2.718 -0.0040 -0.1127 -0.0755
 8238SOL    MW432720   4.290   3.713   2.692 -0.0507 -0.0334 -0.1916
 8239SOL     OW32721   5.210   4.570   6.287  0.4289  1.2131 -0.1294
 8239SOL    HW232722   5.287   4.562   6.343 -0.0578  0.7517  0.5013
 8239SOL    HW332723   5.154   4.497   6.315 -0.1268  1.4014 -0.7433
 8239SOL    MW432724   5.213   4.559   6.298  0.3141  0.0847  0.1344
 8240SOL     OW32725   4.550   4.459   0.392 -0.6217  0.0518 -0.4593
 8240SOL    HW232726   4.478   4.477   0.453 -1.3657  1.2292 -1.6475
 8240SOL    HW332727   4.516   4.485   0.307  1.4432  1.2315 -0.9638
 8240SOL    MW432728   4.536   4.465   0.389 -0.3247 -0.9215  0.4025
 8241SOL     OW32729   4.036   2.406   0.020 -0.0815 -0.4045  0.0458
 8241SOL    HW232730   3.976   2.331   0.014 -0.2225 -0.3549  0.7896
 8241SOL    HW332731   4.003   2.468  -0.045 -2.1425  0.5192  1.8390
 8241SOL    MW432732   4.023   2.404   0.011  0.0847  0.2034 -0.4015
 8242SOL     OW32733   0.349   0.603   5.335 -0.1021  0.1215  0.2852
 8242SOL    HW232734   0.303   0.648   5.264  1.2340  0.9251 -0.1030
 8242SOL    HW332735   0.286   0.538   5.367 -0.8949  0.0435 -1.3376
 8242SOL    MW432736   0.335   0.600   5.330  0.3504  0.1262 -0.1924
 8243SOL     OW32737   1.298   2.426   5.204  0.2516 -0.2754 -0.7270
 8243SOL    HW232738   1.375   2.481   5.189  0.7169 -0.6944 -0.0093
 8243SOL    HW332739   1.334   2.337   5.207 -0.5225 -0.6595 -2.1527
 8243SOL    MW432740   1.313   2.421   5.203  0.4053  0.0127 -0.7819
 8244SOL     OW32741   3.752   1.189   2.133 -0.0325 -0.1923 -0.3191
 8244SOL    HW232742   3.710   1.259   2.183  1.0938  1.9420 -2.2129
 8244SOL    HW332743   3.841   1.183   2.170  0.2567  0.2182 -0.9400
 8244SOL    MW432744   3.758   1.197   2.145  0.0267  0.1954 -0.0815
 8245SOL     OW32745   1.373   0.394   3.806  0.1881 -0.3271 -0.8327
 8245SOL    HW232746   1.420   0.477   3.809 -0.0448 -0.1166 -2.0770
 8245SOL    HW332747   1.422   0.336   3.864  0.3467  0.6756  0.0635
 8245SOL    MW432748   1.386   0.397   3.814  0.0041 -0.0821 -0.1119
 8246SOL     OW32749   3.404   2.976   3.283  0.1639  0.5871  0.4483
 8246SOL    HW232750   3.488   3.016   3.260  0.6869 -0.9221 -0.4064
 8246SOL    HW332751   3.421   2.931   3.366 -0.4668  2.2100  1.4920
 8246SOL    MW432752   3.417   2.975   3.291 -1.1826  0.4993 -0.1248
 8247SOL     OW32753   5.354   0.743   0.047  0.1157 -0.1030  0.0517
 8247SOL    HW232754   5.326   0.676   0.109  2.1649 -1.4742 -0.3985
 8247SOL    HW332755   5.351   0.700  -0.038  2.0797  0.0926 -0.1712
 8247SOL    MW432756   5.350   0.729   0.044 -0.8071  0.5617  0.0050
 8248SOL     OW32757   4.108   4.116   2.869  0.1832 -0.1907  0.1737
 8248SOL    HW232758   4.123   4.066   2.949 -0.5297  0.7656  0.9312
 8248SOL    HW332759   4.108   4.051   2.799  0.7819 -1.0428  0.9506
 8248SOL    MW432760   4.110   4.101   2.870 -0.3774 -0.0882  0.0992
 8249SOL     OW32761   4.418   4.083   3.455 -0.1130 -0.4035 -0.0290
 8249SOL    HW232762   4.447   4.157   3.509  1.2571 -0.2670 -0.9024
 8249SOL    HW332763   4.367   4.124   3.385  1.0534 -0.2096 -0.7869
 8249SOL    MW432764   4.415   4.098   3.453  0.0040  0.2502  0.6867
 8250SOL     OW32765   4.211   5.767   0.075 -0.2939  0.0609  0.1027
 8250SOL    HW232766   4.240   5.803  -0.008  2.0465  0.4565  1.0207
 8250SOL    HW332767   4.131   5.816   0.097  0.2094  1.3678 -0.9097
 8250SOL    MW432768   4.204   5.778   0.067  0.2939  0.0214  0.2788
 8251SOL     OW32769   4.313   4.166   1.382 -0.2178  0.0975 -1.0313
 8251SOL    HW232770   4.406   4.165   1.402 -0.3155 -2.3004 -0.3385
 8251SOL    HW332771   4.305   4.117   1.300 -1.0631 -2.6074  0.5346
 8251SOL    MW432772   4.324   4.159   1.374 -0.1323 -0.1094  0.4087
 8252SOL     OW32773   3.003   1.458   3.531 -0.5666  0.3791 -0.1021
 8252SOL    HW232774   3.024   1.413   3.613 -0.3582 -0.4991 -0.6246
 8252SOL    HW332775   3.041   1.545   3.541 -0.9346  0.4276  0.9080
 8252SOL    MW432776   3.011   1.463   3.543 -0.6190  0.4648 -0.2723
 8253SOL     OW32777   0.250   1.662   5.684 -0.3961 -0.0824  0.0506
 8253SOL    HW232778   0.316   1.701   5.627 -0.3387 -0.2397  0.0101
 8253SOL    HW332779   0.172   1.715   5.669 -0.4594 -0.3005 -0.3807
 8253SOL    MW432780   0.249   1.674   5.675 -0.3236  0.1761 -0.1388
 8254SOL     OW32781   1.309   3.175   1.466  0.0772  0.0436  0.2878
 8254SOL    HW232782   1.265   3.255   1.495 -0.4159  0.9620 -2.6698
 8254SOL    HW332783   1.362   3.203   1.391  2.2973 -1.8744  1.0276
 8254SOL    MW432784   1.310   3.189   1.460  0.4116  0.7377  0.1389
 8255SOL     OW32785   3.726   4.213   4.574  0.4617 -0.0616  0.9290
 8255SOL    HW232786   3.661   4.196   4.642 -0.9715 -0.7712 -0.5759
 8255SOL    HW332787   3.779   4.133   4.571  0.7957  0.1273  1.4475
 8255SOL    MW432788   3.725   4.200   4.583 -0.1694  0.0855 -0.0273
 8256SOL     OW32789   4.008   1.166   0.307 -0.5699  0.1006  0.4510
 8256SOL    HW232790   3.919   1.142   0.279 -0.5103  0.4793 -0.0662
 8256SOL    HW332791   4.024   1.251   0.265  0.3058 -0.2953 -0.0298
 8256SOL    MW432792   3.998   1.174   0.298 -0.7106  0.0798 -0.0447
 8257SOL     OW32793   1.428   2.014   6.337  0.4488  0.4998 -0.4551
 8257SOL    HW232794   1.395   2.100   6.360  1.2548  0.7916 -0.3583
 8257SOL    HW332795   1.387   1.955   6.400  1.7718  1.1435  1.0870
 8257SOL    MW432796   1.418   2.017   6.349  0.0680  0.2279 -0.0360
 8258SOL     OW32797   3.844   3.865   1.332  0.4850  0.4669  0.1042
 8258SOL    HW232798   3.902   3.897   1.264  0.0654 -0.6293 -0.7878
 8258SOL    HW332799   3.826   3.774   1.309  0.0457  0.1689  1.4826
 8258SOL    MW432800   3.849   3.857   1.320 -0.0995  0.3691  0.0629
 8259SOL     OW32801   4.245   4.961   2.526  0.0332 -0.5419  0.1906
 8259SOL    HW232802   4.150   4.961   2.520  0.1050 -0.6167 -1.3146
 8259SOL    HW332803   4.271   4.878   2.485  0.8425  0.6284 -1.7772
 8259SOL    MW432804   4.236   4.950   2.520  0.6654  0.6667 -0.3099
 8260SOL     OW32805   1.750   0.578   5.235  0.0503 -0.4564 -0.1724
 8260SOL    HW232806   1.755   0.643   5.305 -0.7443  0.3162 -0.8210
 8260SOL    HW332807   1.835   0.535   5.236  0.4727  0.3745  0.4725
 8260SOL    MW432808   1.762   0.581   5.245  0.1162  0.5677 -0.4409
 8261SOL     OW32809   1.780   3.185   0.000 -0.2551 -0.2868  0.1002
 8261SOL    HW232810   1.727   3.246  -0.052  0.0320  1.0412  1.3057
 8261SOL    HW332811   1.839   3.241   0.050 -0.5527 -1.4962  1.8935
 8261SOL    MW432812   1.781   3.200   0.000 -0.5197  0.4425  0.8809
 8262SOL     OW32813   1.161   0.055   4.795 -0.4370  0.4991  0.3015
 8262SOL    HW232814   1.176  -0.017   4.734 -0.4733  1.1860 -0.5261
 8262SOL    HW332815   1.123   0.013   4.872  1.5793 -0.6725  0.7162
 8262SOL    MW432816   1.158   0.040   4.797 -0.0970  0.2055  0.0497
 8263SOL     OW32817   0.622   1.026   2.492 -0.1691  0.2730 -0.4829
 8263SOL    HW232818   0.708   1.010   2.530 -0.2947  0.7957  0.0445
 8263SOL    HW332819   0.562   0.973   2.545 -0.1252 -0.4313 -1.1247
 8263SOL    MW432820   0.625   1.017   2.504  0.6544  0.7079  0.2091
 8264SOL     OW32821   5.024   1.071   1.458  1.2327 -0.2179  0.3575
 8264SOL    HW232822   5.113   1.107   1.458  0.9192  0.7084 -1.8336
 8264SOL    HW332823   4.969   1.144   1.429 -0.1970 -0.9265  1.1724
 8264SOL    MW432824   5.028   1.085   1.454  0.0870  0.3426 -0.4776
 8265SOL     OW32825   1.897   3.632   3.391  0.4966 -0.0994 -0.0284
 8265SOL    HW232826   1.824   3.681   3.428  0.3725  0.3336 -0.8259
 8265SOL    HW332827   1.897   3.655   3.298  0.2945 -1.7939 -0.4795
 8265SOL    MW432828   1.888   3.642   3.383 -0.4069 -0.3548  0.0097
 8266SOL     OW32829   2.348   0.745   0.292 -0.2128 -0.0160 -0.1353
 8266SOL    HW232830   2.305   0.797   0.361  0.4768 -0.2960  0.5188
 8266SOL    HW332831   2.412   0.805   0.253  1.0990 -0.5491  1.1092
 8266SOL    MW432832   2.351   0.760   0.296 -0.1532  0.6957 -0.0177
 8267SOL     OW32833   4.117   2.537   1.253  0.1357  0.4060  0.3159
 8267SOL    HW232834   4.087   2.457   1.211 -0.3992  0.0482  1.3302
 8267SOL    HW332835   4.069   2.540   1.336  0.5522  1.4949  0.5433
 8267SOL    MW432836   4.106   2.527   1.259 -0.1790 -0.3782 -0.3222
 8268SOL     OW32837   3.511   5.833   3.176 -0.0650  0.1257  0.0185
 8268SOL    HW232838   3.441   5.896   3.161  0.8833  1.1127 -0.3966
 8268SOL    HW332839   3.549   5.818   3.090 -0.1651 -0.8889  0.1423
 8268SOL    MW432840   3.507   5.839   3.163  0.2917 -0.4550  0.2396
 8269SOL     OW32841   2.228   5.324   5.256  0.0726 -0.0115  0.4145
 8269SOL    HW232842   2.176   5.249   5.229  2.9544 -1.9924 -0.0809
 8269SOL    HW332843   2.263   5.300   5.342  0.1628  1.2775  0.7619
 8269SOL    MW432844   2.226   5.311   5.264  0.4750  0.7283  0.4918
 8270SOL     OW32845   6.300   5.575   3.556 -0.5384  0.2285  0.7805
 8270SOL    HW232846   6.383   5.555   3.512 -0.0104  1.1572  1.3275
 8270SOL    HW332847   6.322   5.575   3.649 -1.0156  1.0802  0.9037
 8270SOL    MW432848   6.314   5.572   3.563  0.2155  0.2082  0.1199
 8271SOL     OW32849   5.169   4.224   2.152 -0.6526 -0.3078 -0.2555
 8271SOL    HW232850   5.112   4.269   2.089  0.8920  0.7014 -0.9841
 8271SOL    HW332851   5.179   4.136   2.116 -1.7831 -0.5335 -0.0745
 8271SOL    MW432852   5.163   4.218   2.139 -0.1926  0.1235  0.1487
 8272SOL     OW32853   2.637   1.791   0.483  0.4230 -0.4072 -0.5875
 8272SOL    HW232854   2.597   1.877   0.473  0.2076 -0.4827 -0.3908
 8272SOL    HW332855   2.667   1.768   0.395  1.7867  0.4998 -0.3951
 8272SOL    MW432856   2.636   1.799   0.470 -0.4929  0.1294 -0.9142
 8273SOL     OW32857   2.007   4.634   2.783 -0.3621 -0.0540 -0.3558
 8273SOL    HW232858   1.937   4.570   2.768 -1.1459  0.7899 -0.3517
 8273SOL    HW332859   1.986   4.706   2.724 -0.7234  1.1778  1.2529
 8273SOL    MW432860   1.995   4.635   2.773 -0.3590  0.0443 -0.6299
 8274SOL     OW32861   6.000   4.887   1.942 -0.0241  0.0805  0.1229
 8274SOL    HW232862   5.934   4.933   1.994  0.4192 -1.6612  2.4072
 8274SOL    HW332863   6.083   4.909   1.985  0.2762 -2.0284  0.7034
 8274SOL    MW432864   6.003   4.896   1.954 -0.0109  0.2548 -0.5682
 8275SOL     OW32865   2.530   4.830   5.051 -0.0331  1.0748  0.0665
 8275SOL    HW232866   2.435   4.829   5.056 -0.0420  2.3845  0.6749
 8275SOL    HW332867   2.551   4.794   4.965 -1.0500  0.3804  0.1029
 8275SOL    MW432868   2.521   4.825   5.040  0.5116 -0.0091 -0.5695
 8276SOL     OW32869   1.383   2.343   5.587  0.6094 -0.5995  0.6333
 8276SOL    HW232870   1.432   2.336   5.505 -0.7692 -0.8976 -0.1910
 8276SOL    HW332871   1.292   2.326   5.563  0.4318 -3.0369  2.5821
 8276SOL    MW432872   1.377   2.340   5.573 -0.8366 -0.5555  0.2390
 8277SOL     OW32873   1.466   3.174   0.502 -0.0443 -0.0047  0.2681
 8277SOL    HW232874   1.538   3.163   0.440 -1.9575 -2.2511 -1.6888
 8277SOL    HW332875   1.497   3.132   0.583  0.9435 -0.6991 -0.4534
 8277SOL    MW432876   1.480   3.167   0.505 -0.1689 -0.0527 -0.0185
 8278SOL     OW32877   0.302   0.757   5.954  0.0162 -0.4066 -0.9185
 8278SOL    HW232878   0.266   0.674   5.984 -1.7069  1.0387  1.3266
 8278SOL    HW332879   0.388   0.762   5.996 -0.0019 -0.9103 -0.8124
 8278SOL    MW432880   0.309   0.747   5.963  0.2230 -0.1270  0.0853
 8279SOL     OW32881   5.118   5.219   5.448 -0.0229  0.0310  0.1238
 8279SOL    HW232882   5.203   5.237   5.408 -0.8938  2.7892 -0.7634
 8279SOL    HW332883   5.059   5.204   5.374 -0.3899 -1.5766  0.7142
 8279SOL    MW432884   5.121   5.220   5.433 -0.0805  0.4958 -0.3354
 8280SOL     OW32885   3.767   1.531   1.550  0.1731  0.2614  0.2580
 8280SOL    HW232886   3.787   1.564   1.638  0.0788  0.7535  0.0981
 8280SOL    HW332887   3.672   1.523   1.548 -0.0276  2.1433 -0.4350
 8280SOL    MW432888   3.757   1.534   1.561  0.5005 -0.3869 -0.1773
 8281SOL     OW32889   5.372   0.975   6.356 -0.4579  0.5992 -0.4864
 8281SOL    HW232890   5.360   0.892   6.403 -3.1942 -0.5068 -2.8268
 8281SOL    HW332891   5.430   0.952   6.283 -0.3423  1.0250 -0.5280
 8281SOL    MW432892   5.378   0.961   6.353  1.0256 -0.2433  0.3756
 8282SOL     OW32893   2.847   2.500   6.105 -0.1143  0.2640 -0.8294
 8282SOL    HW232894   2.811   2.417   6.074 -0.1662  0.6549 -1.8376
 8282SOL    HW332895   2.779   2.537   6.160  0.4518 -1.0185  0.8516
 8282SOL    MW432896   2.833   2.494   6.108  0.3259  0.3471  1.1305
 8283SOL     OW32897   1.059   5.865   6.151  0.1929 -0.2560 -0.5104
 8283SOL    HW232898   1.011   5.888   6.071  1.3914  2.0105 -0.6625
 8283SOL    HW332899   1.035   5.932   6.214  0.4283 -1.1545  0.5756
 8283SOL    MW432900   1.050   5.877   6.149  0.6695 -0.1383  0.1478
 8284SOL     OW32901   2.960   3.513   4.610 -0.0194  0.1825 -0.0325
 8284SOL    HW232902   2.994   3.524   4.699  0.6541 -2.6344  0.1695
 8284SOL    HW332903   2.866   3.530   4.619  0.0293 -0.0832  1.2544
 8284SOL    MW432904   2.952   3.517   4.623 -0.4622  0.5514 -0.4718
 8285SOL     OW32905   5.003   0.521   2.119 -0.1276 -0.3608  0.3092
 8285SOL    HW232906   5.088   0.556   2.144  0.6783 -0.9120 -1.5088
 8285SOL    HW332907   5.020   0.429   2.099 -1.1838 -0.5103  0.0305
 8285SOL    MW432908   5.016   0.513   2.120 -0.3450  0.5826  0.1993
 8286SOL     OW32909   5.167   1.191   3.359 -0.6016  0.3909  0.1278
 8286SOL    HW232910   5.139   1.260   3.299 -2.3106 -0.9109 -0.6681
 8286SOL    HW332911   5.134   1.218   3.444 -0.4945  0.9696 -0.0107
 8286SOL    MW432912   5.159   1.204   3.362  0.2074 -0.3066  0.3377
 8287SOL     OW32913   2.757   2.616   0.469  0.5462  0.7436  0.6982
 8287SOL    HW232914   2.738   2.613   0.376 -1.2603 -1.3526  1.0518
 8287SOL    HW332915   2.852   2.606   0.475  0.6055  0.1085 -0.8977
 8287SOL    MW432916   2.767   2.614   0.458 -0.2456 -0.3364 -0.3897
 8288SOL     OW32917   0.471   6.271   2.910  0.3115 -0.2158 -0.3425
 8288SOL    HW232918   0.473   6.211   2.985  2.3907 -1.4021 -1.2606
 8288SOL    HW332919   0.536   6.337   2.931 -0.8278  0.8729 -0.0761
 8288SOL    MW432920   0.480   6.272   2.923  0.6551  0.2939  0.0292
 8289SOL     OW32921   0.066   6.423   1.475 -0.4938  0.5062  0.3638
 8289SOL    HW232922   0.021   6.505   1.453 -2.1456  0.2427  2.4106
 8289SOL    HW332923   0.075   6.425   1.570  2.0614 -0.4472  0.2289
 8289SOL    MW432924   0.061   6.434   1.485  0.0977 -0.2184 -0.5409
 8290SOL     OW32925   3.646   1.414   4.396  0.4737  0.2336  0.0619
 8290SOL    HW232926   3.564   1.457   4.372  0.8286 -0.0549 -1.8704
 8290SOL    HW332927   3.627   1.371   4.480 -1.1522  0.6693 -0.0447
 8290SOL    MW432928   3.633   1.414   4.404  0.0991 -0.3738 -0.2069
 8291SOL     OW32929   3.313   0.649   3.225  0.0026  0.0334  0.1695
 8291SOL    HW232930   3.351   0.725   3.271  0.3789  0.2905 -0.5487
 8291SOL    HW332931   3.384   0.584   3.225  0.5351  0.5876 -1.3528
 8291SOL    MW432932   3.328   0.651   3.231 -0.3352 -0.3013 -0.3474
 8292SOL     OW32933   0.412   6.425   4.088 -0.0541 -0.1159 -0.1142
 8292SOL    HW232934   0.322   6.403   4.111  0.0276 -0.4834 -0.1335
 8292SOL    HW332935   0.415   6.520   4.091 -0.1245 -0.1334  1.1253
 8292SOL    MW432936   0.401   6.434   4.092 -0.1455 -0.2675  0.4919
 8293SOL     OW32937   1.941   2.745   2.796  0.7898 -0.1882 -0.6096
 8293SOL    HW232938   1.857   2.761   2.752 -0.3902  1.7387  2.0172
 8293SOL    HW332939   1.920   2.681   2.864  1.0914  1.1307  0.7912
 8293SOL    MW432940   1.927   2.739   2.799  0.3225  0.4688 -0.6611
 8294SOL     OW32941   0.548   5.317   6.251 -0.2262  0.2483 -0.7454
 8294SOL    HW232942   0.636   5.279   6.242  0.4510  1.4624  0.3286
 8294SOL    HW332943   0.506   5.264   6.318 -0.2927 -0.3096 -1.2281
 8294SOL    MW432944   0.554   5.305   6.259 -0.2433 -0.0365  0.3466
 8295SOL     OW32945   2.600   3.613   6.353 -0.1275  0.2404  0.6250
 8295SOL    HW232946   2.567   3.566   6.430  0.4224 -1.9783 -0.4021
 8295SOL    HW332947   2.690   3.636   6.376 -0.6408  1.5317  1.4242
 8295SOL    MW432948   2.607   3.610   6.366  0.0494 -0.2129  0.1312
 8296SOL     OW32949   2.277   6.052   4.439 -0.2838  0.5261  0.5267
 8296SOL    HW232950   2.342   6.117   4.413  0.9946 -1.2853 -1.1619
 8296SOL    HW332951   2.205   6.064   4.377  0.1482  0.0690 -0.0748
 8296SOL    MW432952   2.276   6.062   4.428  0.1969  0.4710 -0.4525
 8297SOL     OW32953   3.436   4.738   1.887 -0.1408  0.3621 -0.6760
 8297SOL    HW232954   3.454   4.647   1.862 -0.6212  0.0995 -0.1004
 8297SOL    HW332955   3.361   4.732   1.946 -0.6701  1.2078 -1.2385
 8297SOL    MW432956   3.428   4.725   1.892 -0.1679  0.1812  0.3410
 8298SOL     OW32957   0.804   3.945   0.554 -0.2629  0.1804  0.3617
 8298SOL    HW232958   0.880   3.987   0.514 -0.1190 -1.2912 -1.0238
 8298SOL    HW332959   0.730   4.001   0.528 -0.0719 -0.3009 -1.3810
 8298SOL    MW432960   0.804   3.958   0.545 -0.5461  0.1351 -0.5899
 8299SOL     OW32961   0.891   1.255   4.268  0.6049 -0.1923  0.2825
 8299SOL    HW232962   0.848   1.174   4.295  0.0663  0.0552  0.1852
 8299SOL    HW332963   0.831   1.292   4.203  1.0515  0.0750  0.0220
 8299SOL    MW432964   0.877   1.249   4.263  0.0682 -0.2524 -0.0334
 8300SOL     OW32965   1.141   4.223   5.494  0.1637 -0.2649  0.4162
 8300SOL    HW232966   1.068   4.168   5.464 -0.7474  0.1937  1.7291
 8300SOL    HW332967   1.198   4.162   5.542 -0.6429 -0.1627  1.5292
 8300SOL    MW432968   1.139   4.207   5.496 -0.5091  0.0322  0.4689
 8301SOL     OW32969   5.811   3.945   2.977  0.5093  0.3248 -0.3334
 8301SOL    HW232970   5.720   3.934   2.952  0.4399  0.4383 -0.1383
 8301SOL    HW332971   5.808   3.959   3.072  0.9326 -2.6943  0.2549
 8301SOL    MW432972   5.798   3.945   2.987  0.0416 -0.4246 -0.4747
 8302SOL     OW32973   2.567   1.800   4.529 -0.3223  0.1905 -0.1075
 8302SOL    HW232974   2.595   1.891   4.542  1.8797 -0.3507 -0.5338
 8302SOL    HW332975   2.524   1.776   4.611 -2.3478  2.0321 -0.5379
 8302SOL    MW432976   2.565   1.809   4.541  0.0635  0.3820 -0.4255
 8303SOL     OW32977   1.047   3.321   3.705  0.0623  0.8063 -0.1198
 8303SOL    HW232978   1.058   3.356   3.794 -1.1669  0.8129  0.0493
 8303SOL    HW332979   1.097   3.381   3.650 -1.5260  2.5933  0.2404
 8303SOL    MW432980   1.055   3.334   3.709 -0.1606 -0.4366  0.0960
 8304SOL     OW32981   2.963   1.662   1.643 -0.1399 -0.1126  0.5205
 8304SOL    HW232982   2.979   1.619   1.727 -0.4892  0.3176  0.8131
 8304SOL    HW332983   2.975   1.756   1.661 -1.1605  0.0700  0.3312
 8304SOL    MW432984   2.967   1.669   1.657  0.2735  0.5232  0.2642
 8305SOL     OW32985   2.930   0.517   0.816  0.4763 -0.0321  0.0718
 8305SOL    HW232986   2.890   0.430   0.811 -1.2880  0.7636 -3.1757
 8305SOL    HW332987   2.899   0.554   0.898  2.2194 -2.7650  2.1297
 8305SOL    MW432988   2.921   0.511   0.826  0.0338 -0.0361  0.8596
 8306SOL     OW32989   4.446   4.704   5.705 -0.2283  0.1847  0.2433
 8306SOL    HW232990   4.352   4.697   5.724 -0.4078  0.8593 -0.3719
 8306SOL    HW332991   4.454   4.784   5.653  0.5638 -0.4010 -0.5426
 8306SOL    MW432992   4.435   4.714   5.701  0.1743 -0.6605  0.2959
 8307SOL     OW32993   1.705   5.689   1.380 -0.3367  0.0597  0.4714
 8307SOL    HW232994   1.712   5.784   1.393 -0.6317  0.0780  0.5150
 8307SOL    HW332995   1.794   5.661   1.359 -0.2270  0.3308  0.5618
 8307SOL    MW432996   1.718   5.698   1.379 -0.2317  0.1626 -0.3154
 8308SOL     OW32997   4.554   3.144   6.241  0.2616  0.6677  0.4632
 8308SOL    HW232998   4.647   3.149   6.263  0.6921 -0.9141 -0.8180
 8308SOL    HW332999   4.509   3.138   6.325  1.4056  0.4223  1.0655
 8308SOL    MW433000   4.560   3.144   6.255 -0.1786 -0.8148 -0.3554
 8309SOL     OW33001   5.121   3.540   6.066  0.3329  0.1847  0.0631
 8309SOL    HW233002   5.031   3.572   6.065  0.4878  0.6276 -1.6545
 8309SOL    HW333003   5.114   3.450   6.098 -0.6106  0.4865  0.7483
 8309SOL    MW433004   5.108   3.532   6.070  0.5408 -0.5885 -0.2791
 8310SOL     OW33005   2.819   1.000   2.623  0.3933 -0.2627  0.1040
 8310SOL    HW233006   2.878   1.002   2.547 -0.4176  0.9174 -0.5199
 8310SOL    HW333007   2.853   0.929   2.677  2.2129  0.1954 -0.3695
 8310SOL    MW433008   2.832   0.991   2.620 -0.2514 -0.3374  0.2742
 8311SOL     OW33009   1.935   0.401   4.441 -0.5728 -0.6795 -0.0597
 8311SOL    HW233010   1.960   0.456   4.368  0.2849 -0.0803  0.6601
 8311SOL    HW333011   1.872   0.453   4.491 -0.1277 -0.5293  0.3576
 8311SOL    MW433012   1.930   0.415   4.438  0.6570 -0.3366 -0.0765
 8312SOL     OW33013   1.934   5.148   0.943 -0.2316  0.0172  0.7179
 8312SOL    HW233014   1.923   5.242   0.927  1.0698  0.4788  2.3267
 8312SOL    HW333015   1.845   5.112   0.932 -0.4289  1.0464 -1.9022
 8312SOL    MW433016   1.921   5.156   0.940  0.0793 -0.3995  0.0461
 8313SOL     OW33017   2.307   5.764   0.810  0.4858  0.4795  0.2886
 8313SOL    HW233018   2.212   5.773   0.819  0.6043  0.8597  1.1668
 8313SOL    HW333019   2.332   5.702   0.878  0.9343  0.7203  0.3423
 8313SOL    MW433020   2.297   5.757   0.820 -0.0786  0.2572 -0.1072
 8314SOL     OW33021   1.068   5.233   5.055  0.0049 -0.1461 -0.1670
 8314SOL    HW233022   1.034   5.306   5.003  2.1485  0.2762 -1.0351
 8314SOL    HW333023   1.158   5.221   5.025 -0.1807 -2.9758  0.1720
 8314SOL    MW433024   1.075   5.241   5.044 -0.1147  0.2327  0.2315
 8315SOL     OW33025   0.499   4.198   6.059  0.3603 -0.8872 -0.4630
 8315SOL    HW233026   0.461   4.111   6.065 -0.3317 -0.5153  1.1202
 8315SOL    HW333027   0.549   4.198   5.978  0.9171 -2.9606 -0.1567
 8315SOL    MW433028   0.500   4.187   6.049 -0.5527  0.2935 -0.1391
 8316SOL     OW33029   3.889   4.735   0.210 -0.6780 -0.1444 -0.0140
 8316SOL    HW233030   3.837   4.758   0.133 -0.2105  0.1559 -0.2498
 8316SOL    HW333031   3.917   4.645   0.194 -1.2054 -0.3396  0.1613
 8316SOL    MW433032   3.886   4.726   0.197  0.2059  0.1051 -0.4802
 8317SOL     OW33033   0.705   2.237   2.169  0.3234  0.0904  0.0487
 8317SOL    HW233034   0.682   2.164   2.227  0.6701 -0.7761 -0.8789
 8317SOL    HW333035   0.674   2.315   2.215 -1.0715 -0.7254  0.5539
 8317SOL    MW433036   0.698   2.237   2.183  0.2274 -0.1507 -0.5425
 8318SOL     OW33037   4.710   1.203   5.203  0.1424 -0.2323  0.6663
 8318SOL    HW233038   4.777   1.271   5.201 -1.7079  1.7520 -2.6368
 8318SOL    HW333039   4.702   1.175   5.112 -2.2298 -1.7381  1.2603
 8318SOL    MW433040   4.718   1.208   5.191  0.0046  0.3435 -0.1239
 8319SOL     OW33041   1.856   3.742   4.489  0.2443 -0.2053  0.4368
 8319SOL    HW233042   1.951   3.735   4.481  0.6027  2.4633  1.4307
 8319SOL    HW333043   1.837   3.705   4.575  0.6851  1.0366  1.0951
 8319SOL    MW433044   1.866   3.736   4.499  0.3431  0.5498  0.1708
 8320SOL     OW33045   4.946   5.148   5.725  0.4486  0.0468  0.0771
 8320SOL    HW233046   4.967   5.138   5.633 -0.8236  2.7649 -0.6122
 8320SOL    HW333047   4.867   5.095   5.738  1.1400 -1.0605 -0.1302
 8320SOL    MW433048   4.938   5.140   5.715  0.0562 -0.6695 -0.1759
 8321SOL     OW33049   5.729   5.845   3.673  0.1225 -0.0622 -0.2256
 8321SOL    HW233050   5.666   5.849   3.744 -1.5248 -1.2329 -1.5485
 8321SOL    HW333051   5.723   5.930   3.630 -0.0827  0.0488  0.0238
 8321SOL    MW433052   5.720   5.857   3.676  0.3124 -0.5688 -0.0816
 8322SOL     OW33053   5.354   6.078   1.639  0.4101 -0.0478 -0.2105
 8322SOL    HW233054   5.336   6.157   1.589 -1.6103 -0.5951 -0.4236
 8322SOL    HW333055   5.272   6.028   1.637  0.7188 -0.8365  2.3171
 8322SOL    MW433056   5.341   6.082   1.632 -0.7290  0.2150  0.4052
 8323SOL     OW33057   5.659   6.043   4.227 -0.1645  0.1631 -0.0100
 8323SOL    HW233058   5.643   6.015   4.137  0.6436  0.5128 -0.2652
 8323SOL    HW333059   5.688   6.134   4.219 -1.1285  0.5503  0.6848
 8323SOL    MW433060   5.660   6.051   4.214  0.1626  0.2645 -0.3585
 8324SOL     OW33061   0.280   0.132   2.111 -0.0714  0.7411  0.0040
 8324SOL    HW233062   0.200   0.181   2.094 -0.8845 -0.1345  1.0903
 8324SOL    HW333063   0.294   0.080   2.033 -1.0679  0.2681  0.1190
 8324SOL    MW433064   0.271   0.132   2.099  0.1751  0.6808 -0.0049
 8325SOL     OW33065   0.285   2.722   0.308 -0.2293 -0.1285 -0.4413
 8325SOL    HW233066   0.333   2.791   0.355  1.4225 -1.6705  0.2519
 8325SOL    HW333067   0.317   2.727   0.218  0.4099 -0.4207 -0.2346
 8325SOL    MW433068   0.295   2.732   0.302 -0.3405 -0.5355  0.2115
 8326SOL     OW33069   2.488   2.153   1.185  0.3521 -0.2630  0.1543
 8326SOL    HW233070   2.520   2.086   1.245  0.1786 -0.3017  0.2047
 8326SOL    HW333071   2.410   2.188   1.228  0.2106 -0.3101 -0.0626
 8326SOL    MW433072   2.482   2.149   1.199 -0.0630 -0.8203 -0.1043
 8327SOL     OW33073   4.995   4.819   5.789  1.1337  0.6827 -0.5921
 8327SOL    HW233074   5.047   4.767   5.727  3.1126  1.3919  0.3806
 8327SOL    HW333075   5.009   4.909   5.761  0.4617  0.8909 -0.2632
 8327SOL    MW433076   5.004   4.824   5.777 -0.5176  0.1078 -0.0406
 8328SOL     OW33077   3.435   5.927   1.055 -0.1270 -0.3139  0.3482
 8328SOL    HW233078   3.464   5.988   1.122  0.9020 -1.7925  1.3199
 8328SOL    HW333079   3.511   5.871   1.039 -0.1387  0.3248 -2.5050
 8328SOL    MW433080   3.449   5.928   1.061  0.7402  0.5165 -0.4621
 8329SOL     OW33081   6.148   3.237   5.384 -0.1128 -0.7568 -0.1234
 8329SOL    HW233082   6.153   3.164   5.446 -1.9665 -1.4465 -0.7265
 8329SOL    HW333083   6.072   3.287   5.411  2.2674  2.3007  1.5705
 8329SOL    MW433084   6.139   3.234   5.396  0.2741 -0.0718 -0.0871
 8330SOL     OW33085   4.036   2.259   3.915 -0.4533  0.3129 -0.2541
 8330SOL    HW233086   4.111   2.233   3.863  0.0119  0.3592  0.3829
 8330SOL    HW333087   4.065   2.248   4.006 -1.9025 -1.7905  0.0372
 8330SOL    MW433088   4.049   2.254   3.920  0.0144  0.4582  0.2792
 8331SOL     OW33089   0.032   2.541   4.578 -0.5481  0.2986  0.5407
 8331SOL    HW233090   0.087   2.599   4.527  0.1951 -1.1377 -0.3587
 8331SOL    HW333091  -0.057   2.571   4.561 -0.2341  0.6017 -0.6367
 8331SOL    MW433092   0.027   2.552   4.569 -0.1489  0.2334  0.6985
 8332SOL     OW33093   2.486   5.569   4.961 -0.3968 -0.2765 -0.0098
 8332SOL    HW233094   2.519   5.504   4.898  1.0704 -0.1511  0.5766
 8332SOL    HW333095   2.507   5.531   5.047 -1.7002 -0.1091  0.4025
 8332SOL    MW433096   2.493   5.555   4.964  0.0816 -0.6097 -0.4411
 8333SOL     OW33097   1.951   0.896   6.314  0.5075  0.0179  0.8630
 8333SOL    HW233098   1.935   0.953   6.239  2.9254  1.8832  1.6039
 8333SOL    HW333099   1.941   0.807   6.280 -0.3608  0.8321 -1.1460
 8333SOL    MW433100   1.948   0.892   6.300  0.0062 -0.0357  0.6986
 8334SOL     OW33101   4.631   5.736   2.195 -0.4536  0.2096 -0.0713
 8334SOL    HW233102   4.701   5.686   2.154  0.0663  0.7096  0.1937
 8334SOL    HW333103   4.635   5.712   2.287 -0.0863  0.8610  0.0900
 8334SOL    MW433104   4.640   5.726   2.202 -0.0947 -0.2149  0.1216
 8335SOL     OW33105   5.880   1.285   6.033  0.4220  0.0236  0.0652
 8335SOL    HW233106   5.801   1.335   6.052  0.6988  0.4994 -0.0355
 8335SOL    HW333107   5.889   1.288   5.938  1.4430  1.3471  0.1751
 8335SOL    MW433108   5.871   1.292   6.023  0.1629 -0.2328  0.5205
 8336SOL     OW33109   3.256   0.733   1.037 -0.1032  0.1312 -0.3730
 8336SOL    HW233110   3.351   0.741   1.032  0.1092 -2.2400 -2.3375
 8336SOL    HW333111   3.233   0.680   0.961 -2.8032 -0.8052  0.9756
 8336SOL    MW433112   3.265   0.727   1.026 -0.3680  0.5804  0.4459
 8337SOL     OW33113   3.543   4.891   3.164 -0.4154 -0.7036 -0.1090
 8337SOL    HW233114   3.581   4.830   3.101 -0.4615 -0.7644 -0.0775
 8337SOL    HW333115   3.483   4.945   3.111 -2.3094 -2.3028  0.2773
 8337SOL    MW433116   3.540   4.890   3.148  0.1990 -0.2481  0.1665
 8338SOL     OW33117   0.854   0.307   4.930  0.2438 -0.5782  0.0205
 8338SOL    HW233118   0.761   0.292   4.912  1.0269 -4.7751 -1.6293
 8338SOL    HW333119   0.897   0.296   4.845  2.3421  1.1767  0.7549
 8338SOL    MW433120   0.848   0.303   4.917 -0.4688  0.0978  0.5781
 8339SOL     OW33121   6.415   3.413   4.816 -0.4734  0.1964 -0.2497
 8339SOL    HW233122   6.393   3.320   4.820 -1.3638  0.2980 -1.9390
 8339SOL    HW333123   6.394   3.447   4.903 -0.6746 -1.0536  0.2111
 8339SOL    MW433124   6.410   3.405   4.828 -0.8842 -0.7565  0.0072
 8340SOL     OW33125   1.634   5.645   4.466  0.3334  0.3933 -0.0280
 8340SOL    HW233126   1.611   5.596   4.387 -0.2669  2.8376 -1.4752
 8340SOL    HW333127   1.712   5.694   4.442  0.7481  0.3932  1.2562
 8340SOL    MW433128   1.641   5.645   4.453 -0.2151 -0.2720  0.0809
 8341SOL     OW33129   5.459   0.611   3.095  0.1111 -0.2042 -0.4978
 8341SOL    HW233130   5.532   0.666   3.065  0.3928 -0.0733  0.4122
 8341SOL    HW333131   5.425   0.655   3.172  0.1051 -1.1195  0.0364
 8341SOL    MW433132   5.464   0.624   3.101  0.0227  0.3390  0.2427
 8342SOL     OW33133   0.449   5.115   2.224 -0.3786 -0.4169  0.3089
 8342SOL    HW233134   0.479   5.029   2.194 -0.2950 -0.6633  1.0892
 8342SOL    HW333135   0.529   5.169   2.227 -0.3369 -0.4843  0.4038
 8342SOL    MW433136   0.464   5.111   2.220  0.2841 -0.3021  0.3061
 8343SOL     OW33137   2.678   1.480   5.127 -0.1234 -0.1723  0.7716
 8343SOL    HW233138   2.745   1.545   5.110  0.3413 -0.3898  1.6966
 8343SOL    HW333139   2.615   1.525   5.183 -0.7316  0.0099 -0.0331
 8343SOL    MW433140   2.678   1.494   5.132  0.1223 -0.2777 -0.1043
 8344SOL     OW33141   2.986   1.971   5.555 -0.1422 -0.2234 -0.3399
 8344SOL    HW233142   3.074   2.007   5.541 -0.1317 -0.1481 -0.0805
 8344SOL    HW333143   2.946   1.972   5.468  0.0393 -0.0614 -0.4218
 8344SOL    MW433144   2.993   1.976   5.541  0.2236  0.2574  0.0693
 8345SOL     OW33145   6.143   1.644   4.099 -0.2442 -0.2449  0.1160
 8345SOL    HW233146   6.099   1.560   4.085 -2.5484  1.0535 -1.0429
 8345SOL    HW333147   6.116   1.671   4.186  0.3337 -0.5887  0.4078
 8345SOL    MW433148   6.133   1.636   4.109 -0.5360  0.0964  0.0247
 8346SOL     OW33149   3.965   0.567   4.904 -0.0616  0.3829  0.4741
 8346SOL    HW233150   4.030   0.620   4.948  2.2953 -0.4088 -1.7942
 8346SOL    HW333151   3.993   0.477   4.919  1.2068  0.0758 -2.8653
 8346SOL    MW433152   3.977   0.562   4.912 -0.0629  0.0084 -0.1308
 8347SOL     OW33153   0.640   4.493   3.583 -0.6109 -0.5428  0.0617
 8347SOL    HW233154   0.567   4.430   3.591  0.5030 -2.2190 -1.8366
 8347SOL    HW333155   0.636   4.522   3.492  0.0959  0.6548  0.3918
 8347SOL    MW433156   0.630   4.488   3.572 -0.7274  0.4490  0.9030
 8348SOL     OW33157   5.008   3.616   4.065 -0.1611  0.0450 -0.1427
 8348SOL    HW233158   5.026   3.584   3.977  1.1916  0.3787 -0.0050
 8348SOL    HW333159   4.931   3.672   4.055  0.0469  0.1714 -1.1301
 8348SOL    MW433160   5.000   3.619   4.052  0.3206  0.4579 -0.5362
 8349SOL     OW33161   1.197   2.599   4.936  0.0611 -0.1586  0.2386
 8349SOL    HW233162   1.194   2.517   4.887 -0.7517 -0.0563  0.1043
 8349SOL    HW333163   1.173   2.573   5.026  0.9928 -0.2552  0.4689
 8349SOL    MW433164   1.194   2.584   4.942  0.6555 -0.3633  0.0446
 8350SOL     OW33165   3.605   3.755   0.509  0.2181  0.3485  0.1124
 8350SOL    HW233166   3.583   3.838   0.466  1.3321  0.5477 -0.1083
 8350SOL    HW333167   3.636   3.699   0.437 -0.1371 -0.1258  0.3223
 8350SOL    MW433168   3.606   3.759   0.494 -0.0342 -0.2394  0.1222
 8351SOL     OW33169   3.239   3.394   3.342 -0.1554  0.3990  0.4619
 8351SOL    HW233170   3.281   3.382   3.258 -2.1947  1.2089 -0.7500
 8351SOL    HW333171   3.220   3.305   3.373 -0.2332  0.1078 -0.4025
 8351SOL    MW433172   3.242   3.381   3.335 -0.0189 -0.3349 -0.4239
 8352SOL     OW33173   5.826   1.470   1.653  0.9158  0.2875 -0.2212
 8352SOL    HW233174   5.806   1.379   1.675 -1.4556  0.6032 -0.8103
 8352SOL    HW333175   5.847   1.468   1.560  0.3796  0.3934 -0.3478
 8352SOL    MW433176   5.826   1.457   1.644 -0.3219  1.1576 -0.5205
 8353SOL     OW33177   1.844   0.153   0.210  0.2049 -0.1665  0.7182
 8353SOL    HW233178   1.936   0.129   0.217 -0.3476 -2.3429  1.2778
 8353SOL    HW333179   1.844   0.249   0.207  2.5228 -0.1499 -0.2908
 8353SOL    MW433180   1.856   0.163   0.211  0.3382  0.5478  0.2878
 8354SOL     OW33181   2.151   4.374   1.560 -0.0799 -0.4000  0.0891
 8354SOL    HW233182   2.108   4.417   1.486  0.4497 -0.6359 -0.3584
 8354SOL    HW333183   2.080   4.358   1.622 -0.2889  1.1234  0.2838
 8354SOL    MW433184   2.136   4.377   1.558  0.4084  0.6357 -0.3126
 8355SOL     OW33185   5.264   3.180   3.094 -0.4284  0.0096 -0.3070
 8355SOL    HW233186   5.200   3.157   3.027 -1.2312 -0.2524  0.5200
 8355SOL    HW333187   5.340   3.211   3.046 -0.6127 -1.0963 -1.3645
 8355SOL    MW433188   5.265   3.181   3.079 -0.1112  0.0979  0.0075
 8356SOL     OW33189   5.444   0.594   4.449  0.0770 -0.5677 -0.4545
 8356SOL    HW233190   5.488   0.651   4.386  0.0022 -0.7998 -0.7169
 8356SOL    HW333191   5.515   0.545   4.492  0.1613 -0.1006 -0.0520
 8356SOL    MW433192   5.459   0.595   4.447 -0.1684  0.5371  0.5023
 8357SOL     OW33193   4.652   3.196   4.192 -0.8188  0.0634  0.1722
 8357SOL    HW233194   4.688   3.250   4.263 -0.0553  0.5872 -0.5970
 8357SOL    HW333195   4.569   3.164   4.227 -0.9692  1.1858  0.9117
 8357SOL    MW433196   4.646   3.199   4.206  0.1929 -0.2830 -0.2212
 8358SOL     OW33197   6.309   6.276   4.464 -0.0272  0.0526  0.1295
 8358SOL    HW233198   6.252   6.285   4.540  1.1911  0.1953  1.0688
 8358SOL    HW333199   6.397   6.270   4.501  0.7922  1.8560 -1.3333
 8358SOL    MW433200   6.313   6.276   4.479  0.6586 -0.0406 -0.0542
 8359SOL     OW33201   1.183   4.627   0.903  0.2098  0.2780  0.1948
 8359SOL    HW233202   1.197   4.557   0.967  0.1712 -0.1074 -0.2131
 8359SOL    HW333203   1.090   4.622   0.883  0.1995  0.4749  0.1971
 8359SOL    MW433204   1.173   4.617   0.909 -0.1256  0.3473 -0.6040
 8360SOL     OW33205   5.940   5.323   3.229 -0.3548  0.3753 -0.3168
 8360SOL    HW233206   6.031   5.345   3.249  0.3635 -0.3521 -2.4271
 8360SOL    HW333207   5.890   5.353   3.305  1.5727  1.2614  0.6715
 8360SOL    MW433208   5.946   5.330   3.242 -0.0342  0.0496 -0.0760
 8361SOL     OW33209   6.050   5.946   0.534 -0.6172 -0.0258 -0.6814
 8361SOL    HW233210   6.023   5.858   0.559 -0.0211  0.1217  0.5600
 8361SOL    HW333211   6.066   5.941   0.440 -1.1779 -1.0801 -0.7343
 8361SOL    MW433212   6.049   5.934   0.525 -0.1083 -0.4110 -0.4473
 8362SOL     OW33213   0.228   4.976   3.066  0.6665  0.2573 -0.0600
 8362SOL    HW233214   0.139   5.009   3.054  0.6107  0.5897  1.1132
 8362SOL    HW333215   0.217   4.890   3.107  0.8783  0.3061  0.1055
 8362SOL    MW433216   0.215   4.969   3.070 -0.1780 -0.0782  0.5782
 8363SOL     OW33217   1.895   2.889   1.554  0.7413 -0.0553 -0.7379
 8363SOL    HW233218   1.821   2.857   1.503 -0.8504  0.1620  1.3138
 8363SOL    HW333219   1.961   2.819   1.547 -1.1294 -2.0549  0.4127
 8363SOL    MW433220   1.894   2.875   1.547  0.0561  0.4598 -0.4190
 8364SOL     OW33221   5.792   5.401   2.430  1.0076  0.2897 -0.5782
 8364SOL    HW233222   5.833   5.341   2.492  1.1327  1.3366  0.3913
 8364SOL    HW333223   5.845   5.393   2.350  1.4009 -0.4071 -0.2595
 8364SOL    MW433224   5.805   5.392   2.428  0.0437 -0.1926  0.3991
 8365SOL     OW33225   5.707   4.366   5.680  0.5472  0.0228 -0.2755
 8365SOL    HW233226   5.767   4.294   5.699  2.2325  0.9409 -1.7543
 8365SOL    HW333227   5.703   4.416   5.761  1.6709 -0.1541 -0.0974
 8365SOL    MW433228   5.714   4.363   5.693 -0.3369  0.2683  0.1488
 8366SOL     OW33229   2.105   2.002   3.394 -0.3459  0.1927  0.0789
 8366SOL    HW233230   2.069   1.930   3.446  0.7912  0.3604  1.1338
 8366SOL    HW333231   2.093   1.974   3.303 -1.3611 -0.6047  0.4329
 8366SOL    MW433232   2.099   1.989   3.389 -0.1136  0.2202 -0.6652
 8367SOL     OW33233   2.257   4.862   4.953 -0.4631 -0.3941 -0.7954
 8367SOL    HW233234   2.266   4.956   4.934 -1.1208 -0.5249 -1.8397
 8367SOL    HW333235   2.238   4.822   4.868  2.8141 -1.9093 -0.9635
 8367SOL    MW433236   2.256   4.869   4.939  0.5587  0.1506 -0.3307
 8368SOL     OW33237   1.703   4.494   3.260 -0.0226 -0.1109 -0.0880
 8368SOL    HW233238   1.638   4.542   3.209  1.3499  3.2812  1.0858
 8368SOL    HW333239   1.784   4.502   3.209  0.7912  1.1441  1.3197
 8368SOL    MW433240   1.705   4.501   3.246 -0.0416  0.2458 -0.3684
 8369SOL     OW33241   1.887   5.983   5.964 -0.0049  0.2995 -0.0458
 8369SOL    HW233242   1.942   6.054   5.930 -0.8637  0.4613 -1.1584
 8369SOL    HW333243   1.949   5.922   6.004  0.7610  1.6701  0.9783
 8369SOL    MW433244   1.902   5.985   5.965 -0.6105 -0.9731  0.1039
 8370SOL     OW33245   5.903   1.487   3.717 -0.1149  0.1621  0.1406
 8370SOL    HW233246   5.944   1.400   3.716 -1.6859 -0.6079 -0.1210
 8370SOL    HW333247   5.830   1.480   3.655  0.4012  2.0254 -0.7419
 8370SOL    MW433248   5.899   1.474   3.709 -0.2366  0.3790 -0.2566
 8371SOL     OW33249   4.358   5.520   1.231 -0.3040  0.0628  0.1414
 8371SOL    HW233250   4.332   5.607   1.202 -2.0865 -0.9811 -1.6761
 8371SOL    HW333251   4.344   5.521   1.326 -0.5373  1.6717  0.1169
 8371SOL    MW433252   4.352   5.531   1.240  0.6260  0.0383 -0.0410
 8372SOL     OW33253   2.954   1.022   4.092 -0.4131  0.0495  0.3901
 8372SOL    HW233254   2.986   0.946   4.140 -1.2307  0.2862  1.3657
 8372SOL    HW333255   3.032   1.060   4.052  0.1864 -0.6048  0.9071
 8372SOL    MW433256   2.969   1.017   4.093  0.3743  0.8442 -0.4425
 8373SOL     OW33257   6.111   6.075   5.244  0.0659 -0.6386  0.3983
 8373SOL    HW233258   6.143   6.158   5.280 -0.2619  0.8333 -2.3611
 8373SOL    HW333259   6.190   6.026   5.222  0.3065 -0.2100  0.2999
 8373SOL    MW433260   6.125   6.080   5.246 -0.6943 -0.0216  0.2485
 8374SOL     OW33261   1.272   2.706   5.485  0.0122  0.5362  0.1894
 8374SOL    HW233262   1.275   2.692   5.580 -0.6830  0.2063  0.1670
 8374SOL    HW333263   1.215   2.781   5.473  1.0192  1.3059  0.0918
 8374SOL    MW433264   1.265   2.714   5.496  0.3509 -0.1238  0.4289
 8375SOL     OW33265   3.413   4.901   2.443  0.9308 -0.1752  0.4115
 8375SOL    HW233266   3.325   4.896   2.405  0.9151 -1.2998  0.5684
 8375SOL    HW333267   3.421   4.992   2.472 -0.0144  0.0517  0.0028
 8375SOL    MW433268   3.402   4.912   2.442 -0.0001  0.0252  0.2966
 8376SOL     OW33269   2.369   6.426   3.610  0.1704 -0.5314 -0.3329
 8376SOL    HW233270   2.407   6.402   3.695  0.3053  0.4473 -0.0979
 8376SOL    HW333271   2.434   6.396   3.546  0.6516 -0.2037 -0.0132
 8376SOL    MW433272   2.383   6.419   3.613  0.1115  0.0087  0.0373
 8377SOL     OW33273   6.305   1.208   1.416  0.1582  0.0596 -0.5433
 8377SOL    HW233274   6.348   1.259   1.348  0.3252  1.1248  0.3267
 8377SOL    HW333275   6.221   1.252   1.430 -0.5193 -1.0224 -1.0661
 8377SOL    MW433276   6.300   1.221   1.409 -0.4380 -0.0359  0.1308
 8378SOL     OW33277   4.749   2.812   0.848  0.5102  0.2490  0.2322
 8378SOL    HW233278   4.761   2.787   0.757  0.0591 -0.7630  0.4366
 8378SOL    HW333279   4.675   2.760   0.878  1.1603 -0.0456  1.4034
 8378SOL    MW433280   4.741   2.802   0.840 -0.0138  0.2141  0.3082
 8379SOL     OW33281   2.641   0.165   5.995  0.0986 -0.0527 -0.2358
 8379SOL    HW233282   2.584   0.238   6.021  1.3522  0.8828 -0.0468
 8379SOL    HW333283   2.583   0.089   5.997 -1.7064  1.1562 -2.1449
 8379SOL    MW433284   2.626   0.165   5.999  0.6202  0.4502  0.5134
 8380SOL     OW33285   0.448   4.715   3.192 -0.0052 -0.6844 -0.5031
 8380SOL    HW233286   0.467   4.693   3.283  0.9892 -0.0914 -0.5562
 8380SOL    HW333287   0.364   4.762   3.196  0.5478  0.2772  0.2484
 8380SOL    MW433288   0.439   4.718   3.205  0.0538 -0.1866  0.0427
 8381SOL     OW33289   0.922   0.886   5.842  0.4033  0.3521  0.5814
 8381SOL    HW233290   0.835   0.852   5.821  0.9921 -0.8681 -0.0118
 8381SOL    HW333291   0.905   0.968   5.888 -1.0889 -0.3454  1.3782
 8381SOL    MW433292   0.908   0.892   5.846  0.2114 -0.3480 -0.0687
 8382SOL     OW33293   3.011   3.196   2.252  0.4331 -0.7629 -0.8736
 8382SOL    HW233294   2.930   3.166   2.210  0.6029 -0.1901 -1.6475
 8382SOL    HW333295   3.019   3.287   2.223  1.4362 -0.8643 -0.9205
 8382SOL    MW433296   3.001   3.204   2.242  0.5537 -0.5951 -0.2178
 8383SOL     OW33297   6.307   0.206   3.015 -0.5693  0.3874  0.4702
 8383SOL    HW233298   6.230   0.205   2.959 -0.3095 -0.7263  0.1140
 8383SOL    HW333299   6.274   0.185   3.102 -0.5261 -1.3902  0.0892
 8383SOL    MW433300   6.293   0.204   3.019  0.5392 -0.0409  0.3990
 8384SOL     OW33301   3.984   1.850   4.224  0.1428  0.2266  0.0233
 8384SOL    HW233302   3.960   1.766   4.263 -0.2710 -0.3270 -1.3598
 8384SOL    HW333303   4.016   1.903   4.297 -2.3377 -0.0851  1.4236
 8384SOL    MW433304   3.985   1.846   4.239 -0.3414 -0.5155 -0.5785
 8385SOL     OW33305   3.921   0.919   4.885  0.0190  0.1220 -0.3515
 8385SOL    HW233306   3.992   0.880   4.936  1.3237 -0.0265 -2.2065
 8385SOL    HW333307   3.866   0.844   4.860  1.6080 -0.4104 -2.4986
 8385SOL    MW433308   3.923   0.904   4.889  0.3084 -0.0551  0.4519
 8386SOL     OW33309   0.317   4.286   1.712 -0.0697  0.1158  0.2059
 8386SOL    HW233310   0.325   4.191   1.721 -1.1122  0.1317  1.6106
 8386SOL    HW333311   0.349   4.305   1.624  2.1863 -1.2804  0.6579
 8386SOL    MW433312   0.322   4.276   1.702  0.3188 -0.8616 -0.1812
 8387SOL     OW33313   5.280   0.654   1.614  0.5554  0.1735 -0.2219
 8387SOL    HW233314   5.304   0.611   1.697  1.8531  0.9875 -0.1501
 8387SOL    HW333315   5.292   0.586   1.548  0.6200 -0.1500  0.1148
 8387SOL    MW433316   5.285   0.639   1.617 -0.4376 -0.1318 -0.0820
 8388SOL     OW33317   0.735   5.859   4.055  0.0285  0.0910  0.1246
 8388SOL    HW233318   0.741   5.953   4.073 -1.0520 -0.0212  1.2378
 8388SOL    HW333319   0.806   5.820   4.107 -1.4545  0.0300  2.2225
 8388SOL    MW433320   0.745   5.866   4.064  0.7416 -0.3228  0.0043
 8389SOL     OW33321   2.294   0.965   2.198 -0.3446  0.1144  0.5908
 8389SOL    HW233322   2.222   0.921   2.244  0.3460 -0.2991  1.2998
 8389SOL    HW333323   2.352   0.894   2.171  0.0620  0.4784  0.4939
 8389SOL    MW433324   2.292   0.950   2.201 -0.1809  0.4385  0.3533
 8390SOL     OW33325   5.279   2.298   5.279  0.3926 -0.1485  0.8695
 8390SOL    HW233326   5.275   2.207   5.248  0.3532  0.2915 -0.4871
 8390SOL    HW333327   5.324   2.292   5.363  0.0561 -1.4622  0.9903
 8390SOL    MW433328   5.284   2.285   5.286 -0.3397  0.1900  0.3710
 8391SOL     OW33329   2.174   4.841   0.874 -0.1250  0.2219  0.3413
 8391SOL    HW233330   2.250   4.784   0.871  0.2690  0.6933  1.0741
 8391SOL    HW333331   2.199   4.917   0.821 -1.2541 -0.9416 -2.0373
 8391SOL    MW433332   2.187   4.844   0.867  0.3146  0.0091 -0.3501
 8392SOL     OW33333   1.135   0.673   1.814  0.0349 -0.2420 -0.4062
 8392SOL    HW233334   1.068   0.720   1.764 -0.7714  1.0013  1.6913
 8392SOL    HW333335   1.092   0.654   1.898  2.3209  0.6908  1.0604
 8392SOL    MW433336   1.120   0.677   1.819  0.0743  0.2414  0.4518
 8393SOL     OW33337   0.927   3.028   0.990 -0.1122 -0.3841 -0.3642
 8393SOL    HW233338   0.986   3.095   1.025  0.5640 -0.8752 -0.5357
 8393SOL    HW333339   0.856   3.022   1.054  0.9677 -1.0813  0.8137
 8393SOL    MW433340   0.925   3.036   1.003  0.1232  0.3266 -0.2221
 8394SOL     OW33341   1.836   2.448   6.279 -0.7007  0.1239  0.6266
 8394SOL    HW233342   1.920   2.453   6.324 -0.4354  1.0139  0.0700
 8394SOL    HW333343   1.848   2.501   6.200 -1.1836 -1.3058 -0.4392
 8394SOL    MW433344   1.848   2.456   6.274 -0.3745 -0.2680  0.0918
 8395SOL     OW33345   3.237   0.605   3.879  0.1266 -0.3191 -0.3184
 8395SOL    HW233346   3.225   0.531   3.819 -1.5605  0.2327 -0.6954
 8395SOL    HW333347   3.189   0.677   3.838 -0.2062  0.3502  1.2028
 8395SOL    MW433348   3.229   0.605   3.866 -0.1796  0.2182 -0.4186
 8396SOL     OW33349   5.035   3.819   5.623 -0.3868  0.3368  0.0569
 8396SOL    HW233350   4.968   3.867   5.672 -0.0144  1.3838 -0.4145
 8396SOL    HW333351   4.998   3.732   5.610 -0.4401 -0.0113  2.2572
 8396SOL    MW433352   5.021   3.814   5.628  0.4187 -0.8436  0.0754
 8397SOL     OW33353   1.583   1.673   5.899 -0.3773  0.0071  0.3133
 8397SOL    HW233354   1.664   1.621   5.907 -0.5668 -0.4888 -0.7464
 8397SOL    HW333355   1.604   1.757   5.939 -0.1582 -0.9672  2.3618
 8397SOL    MW433356   1.597   1.677   5.905 -0.6688  0.2863  0.1841
 8398SOL     OW33357   2.403   0.680   0.667 -0.0830 -0.3496  0.3623
 8398SOL    HW233358   2.366   0.713   0.749  0.8028 -0.9463  1.0335
 8398SOL    HW333359   2.448   0.599   0.693 -2.2077 -2.1733 -1.1891
 8398SOL    MW433360   2.404   0.673   0.681  0.0085 -0.1943 -0.5140
 8399SOL     OW33361   0.366   0.463   3.053  0.4786 -0.2788 -0.1979
 8399SOL    HW233362   0.305   0.443   3.124  1.9085 -1.3019  0.8173
 8399SOL    HW333363   0.338   0.406   2.981 -1.1377  0.9482 -0.6034
 8399SOL    MW433364   0.354   0.453   3.053  0.3379 -0.1457  0.0517
 8400SOL     OW33365   2.373   1.818   0.235  0.2205 -0.0689  0.9790
 8400SOL    HW233366   2.401   1.734   0.201  1.3068  0.8035 -0.3921
 8400SOL    HW333367   2.447   1.877   0.220 -1.8512  2.1182 -1.9249
 8400SOL    MW433368   2.386   1.815   0.228 -0.1609 -0.3036  0.2807
 8401SOL     OW33369   1.372   4.346   4.021  0.5058  0.4414  0.4994
 8401SOL    HW233370   1.331   4.386   4.098  1.8463  2.3872  0.2598
 8401SOL    HW333371   1.303   4.344   3.955 -0.0183  0.9175  1.0251
 8401SOL    MW433372   1.357   4.351   4.023 -0.2618  0.0005  0.1196
 8402SOL     OW33373   5.731   4.129   1.181  0.3260  0.7306  0.2984
 8402SOL    HW233374   5.716   4.069   1.254 -0.5336  0.7304  0.1307
 8402SOL    HW333375   5.646   4.136   1.138  0.8190  0.7294 -0.7113
 8402SOL    MW433376   5.718   4.122   1.185 -0.1649 -0.1636 -0.0724
 8403SOL     OW33377   1.976   2.599   1.691  0.3270 -0.7733  0.6278
 8403SOL    HW233378   2.061   2.575   1.728  0.4306 -1.2358  0.0871
 8403SOL    HW333379   1.994   2.624   1.601  0.0896  0.4850  0.9081
 8403SOL    MW433380   1.989   2.599   1.684 -0.2390 -0.1126  1.0935
 8404SOL     OW33381   0.062   2.107   0.040 -0.5109  0.3531  0.1325
 8404SOL    HW233382  -0.005   2.053   0.081 -0.2537  0.1803  0.3267
 8404SOL    HW333383   0.024   2.133  -0.044 -1.5905  1.8167  1.0282
 8404SOL    MW433384   0.048   2.103   0.034 -0.1595 -0.3365 -0.9250
 8405SOL     OW33385   5.471   5.049   0.551 -0.1961  0.3907  0.1695
 8405SOL    HW233386   5.378   5.067   0.565 -0.0761  1.2694 -0.0901
 8405SOL    HW333387   5.488   4.969   0.600 -1.4626 -0.7196 -1.1515
 8405SOL    MW433388   5.461   5.041   0.560 -0.4313  0.6434 -0.1526
 8406SOL     OW33389   6.366   5.042   6.088  0.0994 -0.6793  0.3683
 8406SOL    HW233390   6.339   5.134   6.097 -2.3620 -1.4371  1.5578
 8406SOL    HW333391   6.395   5.017   6.176  1.2447 -0.9438 -0.0631
 8406SOL    MW433392   6.366   5.051   6.101  0.0285  0.0419 -0.6789
 8407SOL     OW33393   2.982   0.878   0.112 -0.1983  0.1838 -0.6412
 8407SOL    HW233394   3.008   0.965   0.143  1.5943 -1.3570  2.7255
 8407SOL    HW333395   3.060   0.845   0.067  0.4398 -0.8715  1.1259
 8407SOL    MW433396   2.996   0.885   0.111 -0.5004 -0.1452 -0.1540
 8408SOL     OW33397   2.365   0.050   5.691  0.3239  0.0553 -0.4115
 8408SOL    HW233398   2.450   0.007   5.684  0.5597  0.5207 -0.4563
 8408SOL    HW333399   2.357   0.100   5.610  0.5158  0.9217  0.1001
 8408SOL    MW433400   2.375   0.051   5.679 -0.3344 -0.1607  0.1249
 8409SOL     OW33401   3.766   5.492   4.943  0.1398  0.4366 -0.3144
 8409SOL    HW233402   3.802   5.478   5.031 -1.8570 -3.2026  0.1363
 8409SOL    HW333403   3.678   5.526   4.958  0.3852  1.4327 -1.0297
 8409SOL    MW433404   3.759   5.494   4.957 -0.3352  0.8070  0.2915
 8410SOL     OW33405   1.446   6.373   5.203  0.3211 -0.3646  0.2163
 8410SOL    HW233406   1.389   6.319   5.148 -0.8024  1.0852 -0.1115
 8410SOL    HW333407   1.525   6.320   5.215  0.0355 -1.2980 -1.6479
 8410SOL    MW433408   1.449   6.359   5.197 -0.1062 -0.5852 -0.1631
 8411SOL     OW33409   5.383   0.095   0.388 -0.2726  0.8131  0.2850
 8411SOL    HW233410   5.339   0.133   0.463  0.1605 -0.0811  1.0082
 8411SOL    HW333411   5.313   0.055   0.336 -0.4666  0.5430  0.7487
 8411SOL    MW433412   5.368   0.094   0.391 -0.4882  0.0972 -0.1472
 8412SOL     OW33413   6.300   3.235   1.458  0.1411 -0.1680 -0.2597
 8412SOL    HW233414   6.389   3.236   1.421  0.2057 -1.0656 -0.1553
 8412SOL    HW333415   6.242   3.240   1.382  0.2543  1.3640 -0.2886
 8412SOL    MW433416   6.304   3.236   1.443  1.0922  0.0376  0.2704
 8413SOL     OW33417   3.188   5.123   5.859 -0.1808  0.5069  0.1925
 8413SOL    HW233418   3.199   5.028   5.855  0.1197  0.5209  0.6649
 8413SOL    HW333419   3.153   5.146   5.773 -0.0558 -0.0049 -0.0014
 8413SOL    MW433420   3.185   5.113   5.847 -0.3223  0.6077  0.0346
 8414SOL     OW33421   1.223   6.190   3.655  0.3546  0.1878 -1.0064
 8414SOL    HW233422   1.176   6.244   3.592 -1.7159 -1.5412 -1.0497
 8414SOL    HW333423   1.213   6.236   3.739 -0.9888  0.1491 -1.1205
 8414SOL    MW433424   1.216   6.203   3.658  0.1103  0.0305  0.3754
 8415SOL     OW33425   2.638   6.147   0.577 -0.5236 -0.2322  0.0328
 8415SOL    HW233426   2.681   6.216   0.628  0.3229 -0.1690 -0.7457
 8415SOL    HW333427   2.606   6.085   0.643 -1.2952  0.8802  0.7489
 8415SOL    MW433428   2.639   6.148   0.593 -0.6805 -0.0610 -0.3223
 8416SOL     OW33429   4.655   3.854   0.632  0.0673 -0.4126 -0.0935
 8416SOL    HW233430   4.659   3.791   0.560  0.1154  0.3137 -0.7344
 8416SOL    HW333431   4.701   3.931   0.599 -0.8820  0.3394  0.3033
 8416SOL    MW433432   4.662   3.856   0.618  0.1582 -0.5444 -0.3741
 8417SOL     OW33433   5.828   3.526   1.137 -0.1622  0.6765 -0.4053
 8417SOL    HW233434   5.919   3.555   1.145 -0.0177  0.8910 -2.3885
 8417SOL    HW333435   5.833   3.439   1.097 -0.8296  1.3778 -2.1346
 8417SOL    MW433436   5.840   3.519   1.133  0.3765  0.3965 -0.1086
 8418SOL     OW33437   2.680   1.993   6.291 -0.3964  0.8508 -0.2686
 8418SOL    HW233438   2.737   1.969   6.218 -0.9118 -0.6271 -0.2128
 8418SOL    HW333439   2.632   2.069   6.259  0.1911  0.9162 -1.0398
 8418SOL    MW433440   2.681   2.000   6.277 -0.7729  0.0646  0.1905
 8419SOL     OW33441   3.377   1.151   4.169  0.6306  0.5885  0.0652
 8419SOL    HW233442   3.380   1.135   4.263  1.1609  3.0690  0.5184
 8419SOL    HW333443   3.309   1.217   4.157  1.2706  1.0581 -1.1610
 8419SOL    MW433444   3.368   1.157   4.179  0.0306  0.5404 -0.8590
 8420SOL     OW33445   5.892   2.674   1.439  0.1001 -0.5938  1.0093
 8420SOL    HW233446   5.858   2.584   1.442 -1.9156 -0.0853 -1.9929
 8420SOL    HW333447   5.841   2.720   1.506 -0.4364 -1.2359  1.0642
 8420SOL    MW433448   5.881   2.668   1.448 -0.0130  0.0938  0.3572
 8421SOL     OW33449   1.971   0.872   1.287  0.6273  0.3408  0.0046
 8421SOL    HW233450   1.982   0.938   1.355 -0.6373  0.5964 -0.0185
 8421SOL    HW333451   1.888   0.830   1.307  1.0679 -0.7699 -0.3990
 8421SOL    MW433452   1.962   0.875   1.299 -0.3137 -0.4586 -0.0144
 8422SOL     OW33453   1.032   5.348   2.835  0.1076 -0.3424 -0.2751
 8422SOL    HW233454   1.106   5.382   2.885 -0.6241 -1.4125  1.6488
 8422SOL    HW333455   1.040   5.253   2.842  0.6555 -0.6115 -3.3285
 8422SOL    MW433456   1.043   5.340   2.842  0.3240  0.0937 -0.2117
 8423SOL     OW33457   2.275   3.241   3.566  0.5503  0.5879  0.8422
 8423SOL    HW233458   2.276   3.300   3.491  1.9149  0.8446  1.0389
 8423SOL    HW333459   2.196   3.187   3.553  0.2538  1.2550 -0.2618
 8423SOL    MW433460   2.264   3.242   3.555 -0.0440 -0.0833 -0.1197
 8424SOL     OW33461   3.090   1.167   0.598  0.2985  0.0705 -0.1951
 8424SOL    HW233462   3.049   1.097   0.547 -1.4216  1.0729 -0.2463
 8424SOL    HW333463   3.047   1.163   0.683  0.0076  1.1970 -0.2727
 8424SOL    MW433464   3.079   1.157   0.602  0.0971 -0.4842 -0.2220
 8425SOL     OW33465   3.795   6.236   2.338  0.4861 -0.1926 -0.1143
 8425SOL    HW233466   3.785   6.194   2.423 -0.6791 -1.0724 -0.6687
 8425SOL    HW333467   3.841   6.171   2.285  0.2185 -0.0818 -0.4821
 8425SOL    MW433468   3.800   6.222   2.342  0.1528 -0.1647 -0.0198
 8426SOL     OW33469   2.185   4.721   4.659 -0.2856 -0.5692 -0.1467
 8426SOL    HW233470   2.244   4.697   4.588 -0.8441 -2.4501 -0.0246
 8426SOL    HW333471   2.127   4.646   4.669 -0.1851 -0.4174  2.3567
 8426SOL    MW433472   2.185   4.708   4.651  0.6407  0.0836 -0.3982
 8427SOL     OW33473   1.220   6.287   2.688 -0.1219 -0.2430 -0.3680
 8427SOL    HW233474   1.183   6.218   2.743 -1.3071 -0.3465 -1.2581
 8427SOL    HW333475   1.176   6.277   2.604  0.5918  0.8260 -0.8948
 8427SOL    MW433476   1.210   6.277   2.684  0.2405  0.0177 -0.5886
 8428SOL     OW33477   2.602   6.046   0.011  0.3099  0.4405 -0.6002
 8428SOL    HW233478   2.515   6.057   0.049  0.0963  1.2553 -1.2913
 8428SOL    HW333479   2.586   6.033  -0.082  0.9400  0.9517 -0.7879
 8428SOL    MW433480   2.588   6.046   0.004  0.2738 -0.1856  0.0950
 8429SOL     OW33481   6.161   2.142   3.280 -0.0129 -0.0802 -0.4158
 8429SOL    HW233482   6.082   2.174   3.238  0.7241  0.6795 -1.2619
 8429SOL    HW333483   6.211   2.099   3.211  0.2697 -0.6537  0.1284
 8429SOL    MW433484   6.157   2.140   3.266 -0.1968  0.2278  0.8890
 8430SOL     OW33485   2.029   4.693   1.589 -0.0619 -0.4406  0.0177
 8430SOL    HW233486   1.938   4.716   1.575  0.0889  0.5611  0.5863
 8430SOL    HW333487   2.033   4.664   1.680  0.6072  1.9532  0.8250
 8430SOL    MW433488   2.018   4.692   1.599  1.1342 -0.5611  0.2215
 8431SOL     OW33489   2.772   5.681   5.008  0.2123 -0.5436 -0.1731
 8431SOL    HW233490   2.686   5.722   5.011  0.0256 -0.9546  0.8596
 8431SOL    HW333491   2.755   5.592   4.977  0.5824  0.0476 -2.1726
 8431SOL    MW433492   2.759   5.675   5.004  0.9741 -0.4555  0.0288
 8432SOL     OW33493   0.029   2.615   2.778  0.0422  0.3169  0.1636
 8432SOL    HW233494   0.028   2.591   2.871  0.8737  0.2254  0.1509
 8432SOL    HW333495   0.104   2.568   2.741  0.5140  1.4007 -0.2747
 8432SOL    MW433496   0.039   2.605   2.785 -0.3906 -0.1254 -0.0289
 8433SOL     OW33497   5.136   6.239   0.489 -0.0422  0.1610  0.2226
 8433SOL    HW233498   5.138   6.233   0.585  2.5774 -1.8480  0.1295
 8433SOL    HW333499   5.120   6.150   0.460 -2.8228  1.0308 -1.3131
 8433SOL    MW433500   5.134   6.227   0.498 -0.0852  1.1599 -0.5978
 8434SOL     OW33501   2.865   1.276   6.379 -0.3659  0.2856  0.4857
 8434SOL    HW233502   2.814   1.204   6.341 -0.9080  1.1859 -0.5371
 8434SOL    HW333503   2.838   1.278   6.470 -1.2094 -0.0855  0.2587
 8434SOL    MW433504   2.855   1.266   6.386 -0.4005 -0.7508  0.0221
 8435SOL     OW33505   4.106   5.879   0.869  0.1684  0.0498  0.2197
 8435SOL    HW233506   4.151   5.865   0.786  0.1954  0.5389  0.1483
 8435SOL    HW333507   4.014   5.892   0.844  0.2739  0.8169  0.2047
 8435SOL    MW433508   4.100   5.879   0.855 -0.0960  0.6688 -0.7771
 8436SOL     OW33509   2.084   6.235   3.096  0.0017  0.4320  0.2139
 8436SOL    HW233510   2.047   6.281   3.172 -0.3466 -0.2051  0.4401
 8436SOL    HW333511   2.061   6.290   3.021 -1.0400  0.2705  0.4011
 8436SOL    MW433512   2.076   6.248   3.096  0.0738  0.4852  0.0985
 8437SOL     OW33513   4.255   3.668   6.029  0.0717 -0.0510 -0.4752
 8437SOL    HW233514   4.351   3.666   6.040 -0.0154 -1.7202  0.3131
 8437SOL    HW333515   4.223   3.602   6.090 -1.4905 -0.5812 -1.8098
 8437SOL    MW433516   4.264   3.659   6.039  0.6776  0.2545  0.0199
 8438SOL     OW33517   4.289   3.026   0.857  0.4971 -0.6743 -0.0072
 8438SOL    HW233518   4.383   3.046   0.854  0.5732 -1.0726 -0.3969
 8438SOL    HW333519   4.274   2.998   0.947  0.8087 -0.8695 -0.0146
 8438SOL    MW433520   4.300   3.025   0.869  0.0517 -0.4178  0.0983
 8439SOL     OW33521   3.447   4.366   2.907  0.1375 -0.7374 -0.4188
 8439SOL    HW233522   3.469   4.366   3.000  0.2051 -2.6397 -0.3914
 8439SOL    HW333523   3.528   4.342   2.862  0.9203  2.9122 -1.3035
 8439SOL    MW433524   3.460   4.363   2.913 -0.6744  0.1787  0.3584
 8440SOL     OW33525   5.563   0.295   0.316  0.0086  0.3419 -0.4565
 8440SOL    HW233526   5.573   0.329   0.228  0.5285 -2.1008 -1.4319
 8440SOL    HW333527   5.513   0.214   0.306 -0.4870  0.3211  1.5798
 8440SOL    MW433528   5.558   0.289   0.303 -0.8089 -0.0694  0.2988
 8441SOL     OW33529   5.696   5.040   3.151 -0.5258  0.5017 -0.2119
 8441SOL    HW233530   5.694   5.024   3.246  0.3800  2.3597  0.1606
 8441SOL    HW333531   5.788   5.034   3.128 -0.9106 -2.1367 -1.4658
 8441SOL    MW433532   5.708   5.037   3.161  0.1701  0.0789  0.6260
 8442SOL     OW33533   3.423   0.585   0.310 -0.5761 -0.0413 -0.5986
 8442SOL    HW233534   3.430   0.658   0.248  1.8789  0.4105  0.0696
 8442SOL    HW333535   3.488   0.522   0.279 -1.5413 -1.2396 -0.2420
 8442SOL    MW433536   3.433   0.586   0.298 -0.8851  0.4370 -0.0091
 8443SOL     OW33537   3.440   5.989   0.770 -0.3742  0.3098  0.6134
 8443SOL    HW233538   3.438   5.947   0.856 -0.1383  0.6015  0.7621
 8443SOL    HW333539   3.513   6.051   0.775 -1.8472  2.1045  1.0542
 8443SOL    MW433540   3.449   5.992   0.782  0.0950  0.4753  0.3366
 8444SOL     OW33541   2.128   6.290   3.540  0.3522  0.3860  0.2997
 8444SOL    HW233542   2.135   6.195   3.549 -1.2092  0.2497  0.2548
 8444SOL    HW333543   2.216   6.322   3.560  0.4550 -0.9189  2.1788
 8444SOL    MW433544   2.141   6.282   3.544 -0.2820  0.5537  0.3579
 8445SOL     OW33545   2.687   6.093   4.715 -0.1440 -0.4100  0.0304
 8445SOL    HW233546   2.715   6.184   4.723  1.4032 -0.9856  1.6891
 8445SOL    HW333547   2.625   6.079   4.786 -0.0752 -0.7642  0.0259
 8445SOL    MW433548   2.682   6.103   4.725 -0.2956 -0.0223 -0.7880
 8446SOL     OW33549   5.457   0.239   4.337 -0.2480 -0.0553  0.9006
 8446SOL    HW233550   5.469   0.155   4.292 -1.7678 -0.1108  0.5202
 8446SOL    HW333551   5.430   0.299   4.268 -0.6357  0.3668  1.4075
 8446SOL    MW433552   5.455   0.236   4.322 -0.0344 -0.0789  0.0320
 8447SOL     OW33553   3.698   4.180   1.112  0.3261  0.3549 -0.6116
 8447SOL    HW233554   3.744   4.201   1.031 -1.3237  0.8129 -1.4888
 8447SOL    HW333555   3.654   4.097   1.094 -0.3775  0.6580 -0.3380
 8447SOL    MW433556   3.698   4.172   1.099 -0.8051  0.0863  0.2846
 8448SOL     OW33557   4.966   4.964   2.266 -0.9482 -0.2204  0.6762
 8448SOL    HW233558   4.940   4.960   2.357 -0.5836 -0.1947  0.7858
 8448SOL    HW333559   4.942   4.879   2.230 -0.1183 -0.6433  1.0743
 8448SOL    MW433560   4.960   4.952   2.273  0.1953 -0.2349  0.1124
 8449SOL     OW33561   4.680   4.138   3.335 -0.6830 -0.1839  0.4359
 8449SOL    HW233562   4.614   4.102   3.395  1.7278 -0.7381  2.9348
 8449SOL    HW333563   4.716   4.213   3.381  1.1399 -0.5224 -0.3450
 8449SOL    MW433564   4.676   4.143   3.349  0.3485 -1.1876  0.3609
 8450SOL     OW33565   1.278   0.357   2.063 -0.5793  0.8240 -0.3803
 8450SOL    HW233566   1.224   0.316   1.995  0.1616 -1.4757  0.3387
 8450SOL    HW333567   1.249   0.317   2.145 -1.1320  3.1965  0.6718
 8450SOL    MW433568   1.267   0.346   2.065 -0.0257 -0.3224 -0.7371
 8451SOL     OW33569   4.542   4.252   3.117  0.6564 -0.0407 -0.9031
 8451SOL    HW233570   4.603   4.310   3.072  0.9121  1.4621  1.2081
 8451SOL    HW333571   4.596   4.208   3.183 -0.2061  0.0304 -0.1314
 8451SOL    MW433572   4.557   4.254   3.120 -1.0793 -0.0119 -0.1612
 8452SOL     OW33573   4.220   3.796   2.322 -0.2806  0.6272 -0.1073
 8452SOL    HW233574   4.143   3.743   2.342  0.9639 -1.1189  0.2554
 8452SOL    HW333575   4.213   3.814   2.228 -1.7038  1.5048  0.1371
 8452SOL    MW433576   4.209   3.791   2.312  0.5868  0.7955 -0.5096
 8453SOL     OW33577   0.494   5.665   0.769 -0.4095 -0.5709 -0.3882
 8453SOL    HW233578   0.423   5.608   0.739 -1.6419  0.7756 -0.1517
 8453SOL    HW333579   0.475   5.680   0.861 -0.5436  0.7824 -0.6102
 8453SOL    MW433580   0.482   5.659   0.777 -0.2729 -0.2081 -0.2912
 8454SOL     OW33581   4.704   1.150   5.908  0.8774 -0.0414  0.5463
 8454SOL    HW233582   4.722   1.110   5.823 -0.0718 -0.3950  0.4994
 8454SOL    HW333583   4.711   1.077   5.970 -1.0772 -0.3906  0.4344
 8454SOL    MW433584   4.707   1.135   5.905 -0.2517  0.0539 -0.1135
 8455SOL     OW33585   2.876   4.650   2.182  0.0513  0.2251 -0.0197
 8455SOL    HW233586   2.783   4.643   2.159  0.0201  1.3526 -0.3301
 8455SOL    HW333587   2.877   4.641   2.278 -0.7603  2.9527  0.3410
 8455SOL    MW433588   2.864   4.648   2.192 -0.0395  0.1274  0.1037
 8456SOL     OW33589   4.534   3.076   5.020 -0.0067 -0.1373 -0.0771
 8456SOL    HW233590   4.574   3.095   4.935  0.9385 -0.2580  0.3364
 8456SOL    HW333591   4.489   3.157   5.044  1.3383  0.5685  0.1871
 8456SOL    MW433592   4.533   3.089   5.012 -0.3495  0.3796 -0.6002
 8457SOL     OW33593   6.214   4.853   5.516 -0.1505 -0.8069 -0.2248
 8457SOL    HW233594   6.141   4.897   5.473  0.2145  0.3364  0.3134
 8457SOL    HW333595   6.180   4.765   5.534 -2.0085  0.1722  1.5087
 8457SOL    MW433596   6.199   4.847   5.513  0.3474 -0.2956  0.3145
 8458SOL     OW33597   3.266   4.112   1.782  0.0084  0.0074 -0.3715
 8458SOL    HW233598   3.307   4.154   1.706  0.6070  0.8412  0.3914
 8458SOL    HW333599   3.258   4.020   1.757  0.6150  0.1866 -1.2754
 8458SOL    MW433600   3.270   4.105   1.769 -0.0659 -0.3497 -0.2870
 8459SOL     OW33601   0.797   0.620   0.607  0.5209  0.1754 -0.0224
 8459SOL    HW233602   0.827   0.591   0.520  0.5957 -0.5567  0.2392
 8459SOL    HW333603   0.747   0.545   0.641 -0.1785  0.7556  0.2450
 8459SOL    MW433604   0.795   0.606   0.600 -0.3543 -0.7221  0.1924
 8460SOL     OW33605   2.338   0.805   0.912  0.0669  0.1217  0.2717
 8460SOL    HW233606   2.424   0.837   0.940 -0.1789  0.2707  0.8723
 8460SOL    HW333607   2.277   0.848   0.971 -0.3657 -0.5623  0.3314
 8460SOL    MW433608   2.341   0.815   0.924  0.0857  0.3251 -0.1869
 8461SOL     OW33609   3.529   2.685   6.130  0.0310  0.2129  0.9213
 8461SOL    HW233610   3.586   2.614   6.099  0.6587  0.9851  0.2369
 8461SOL    HW333611   3.588   2.760   6.140 -0.4952  0.4636  2.3050
 8461SOL    MW433612   3.545   2.685   6.127  0.9658  0.1973  0.1872
 8462SOL     OW33613   5.214   4.862   5.993  0.3447 -0.1609 -0.0934
 8462SOL    HW233614   5.178   4.886   5.908  0.2920 -0.2898 -0.1086
 8462SOL    HW333615   5.163   4.785   6.019 -1.0617  1.0504  0.9804
 8462SOL    MW433616   5.202   4.855   5.985  0.1140  0.0697  0.1694
 8463SOL     OW33617   2.850   4.604   5.782 -0.0088  0.0008  0.0854
 8463SOL    HW233618   2.896   4.600   5.698 -1.1173  0.5213 -0.5596
 8463SOL    HW333619   2.840   4.698   5.799 -1.1130 -0.1044  0.0539
 8463SOL    MW433620   2.855   4.616   5.773  0.5517 -0.4711 -0.9977
 8464SOL     OW33621   5.378   6.218   0.129 -0.3363 -0.4774 -0.0400
 8464SOL    HW233622   5.302   6.257   0.173 -0.0562 -0.4817  0.4555
 8464SOL    HW333623   5.428   6.293   0.097  0.9885 -0.3183  2.2239
 8464SOL    MW433624   5.374   6.233   0.131  0.0752  0.4529  0.0710
 8465SOL     OW33625   3.188   5.115   1.051 -0.1796  0.8864 -0.2826
 8465SOL    HW233626   3.236   5.097   0.970  0.5806  0.7299  0.1978
 8465SOL    HW333627   3.248   5.089   1.121  0.0822  3.0863  0.3868
 8465SOL    MW433628   3.202   5.109   1.049  0.3263 -0.1988 -0.3462
 8466SOL     OW33629   2.689   0.514   5.955  0.2753  1.0623  0.1286
 8466SOL    HW233630   2.737   0.550   6.029  0.2067 -0.4489  0.9613
 8466SOL    HW333631   2.749   0.449   5.918 -0.7269 -0.1971  0.6302
 8466SOL    MW433632   2.703   0.510   5.960  0.2471 -0.4509 -0.0941
 8467SOL     OW33633   0.288   3.864   3.634 -0.1317 -0.0497  0.5379
 8467SOL    HW233634   0.229   3.795   3.602  0.2166  0.0516 -0.3430
 8467SOL    HW333635   0.245   3.946   3.609 -0.2483  0.0526  1.0542
 8467SOL    MW433636   0.275   3.866   3.627  0.1841  0.6485  0.6136
 8468SOL     OW33637   5.507   3.181   5.442 -0.0605 -0.1001  0.9017
 8468SOL    HW233638   5.532   3.269   5.469 -2.7429  0.4891  1.7981
 8468SOL    HW333639   5.411   3.181   5.445 -0.2429 -2.4368 -1.0920
 8468SOL    MW433640   5.497   3.192   5.446 -0.6841  0.0547 -0.0228
 8469SOL     OW33641   0.062   3.779   2.199 -0.0389  0.0879 -0.3270
 8469SOL    HW233642   0.025   3.810   2.116 -0.9612 -0.5050 -0.1539
 8469SOL    HW333643   0.101   3.857   2.238  2.4180 -0.0115 -2.3005
 8469SOL    MW433644   0.062   3.793   2.193  0.8420 -0.1615 -0.6003
 8470SOL     OW33645   3.217   1.640   3.704 -0.1796 -0.1585 -0.4846
 8470SOL    HW233646   3.147   1.658   3.767 -1.8274  0.1575 -2.3122
 8470SOL    HW333647   3.213   1.713   3.642  1.5544 -0.3319 -0.8458
 8470SOL    MW433648   3.207   1.652   3.704 -0.0362  0.5098  0.0222
 8471SOL     OW33649   4.358   1.041   3.968  0.2670  0.3241  0.0174
 8471SOL    HW233650   4.453   1.049   3.962  0.2992 -0.5440 -1.1895
 8471SOL    HW333651   4.324   1.106   3.906  0.1289 -0.1444 -0.4092
 8471SOL    MW433652   4.366   1.050   3.959  0.5567 -0.0237 -0.3738
 8472SOL     OW33653   1.015   0.422   5.833  0.4101 -0.1335  0.0829
 8472SOL    HW233654   1.077   0.481   5.790 -2.5499  1.8498 -1.8620
 8472SOL    HW333655   0.960   0.389   5.761 -0.3976 -2.3234  1.6062
 8472SOL    MW433656   1.016   0.426   5.818  0.1498 -1.0121  0.6336
 8473SOL     OW33657   6.239   1.280   4.225  0.0805 -0.1186  0.1108
 8473SOL    HW233658   6.242   1.186   4.245 -0.2329 -0.1879 -0.1608
 8473SOL    HW333659   6.323   1.298   4.183 -0.3727 -0.5609 -1.0332
 8473SOL    MW433660   6.251   1.270   4.222 -0.4300 -0.1149 -0.7734
 8474SOL     OW33661   2.765   0.615   3.427 -0.3507  0.2591 -0.3259
 8474SOL    HW233662   2.827   0.568   3.371  0.7907  0.3682  0.8098
 8474SOL    HW333663   2.804   0.613   3.514 -1.4105  1.3125  0.2079
 8474SOL    MW433664   2.778   0.608   3.431 -0.2542 -0.0197  0.4752
 8475SOL     OW33665   3.286   5.328   5.467  0.1015  0.3620  0.7535
 8475SOL    HW233666   3.354   5.309   5.532 -1.3187 -0.0432  2.1929
 8475SOL    HW333667   3.319   5.290   5.386  2.7974  2.4649  0.6826
 8475SOL    MW433668   3.299   5.321   5.465 -0.0027  0.0192  0.0802
 8476SOL     OW33669   1.312   1.909   5.669 -0.0615  0.2528  0.2027
 8476SOL    HW233670   1.319   1.953   5.584 -0.4536 -0.6382 -0.3130
 8476SOL    HW333671   1.395   1.861   5.677 -0.7099 -1.0323 -0.4948
 8476SOL    MW433672   1.324   1.908   5.659 -0.0424  0.9238 -0.0622
 8477SOL     OW33673   4.975   6.117   4.388 -0.2125 -0.1353  0.0292
 8477SOL    HW233674   4.951   6.172   4.313 -0.3337 -0.7147 -0.3623
 8477SOL    HW333675   4.963   6.174   4.463 -0.3007  0.3916 -0.3747
 8477SOL    MW433676   4.970   6.132   4.388  0.3336 -0.4058  0.3725
 8478SOL     OW33677   4.839   6.032   5.708 -0.3697  0.6845  0.5850
 8478SOL    HW233678   4.876   5.957   5.662 -1.5464 -0.8771  2.0587
 8478SOL    HW333679   4.909   6.060   5.767 -0.4138 -0.2430  1.1026
 8478SOL    MW433680   4.853   6.026   5.710 -0.5060  0.5524  0.3176
 8479SOL     OW33681   3.054   2.778   3.397 -0.3254  0.3247  0.1339
 8479SOL    HW233682   3.001   2.803   3.473  1.4943 -0.6780  1.8179
 8479SOL    HW333683   3.000   2.715   3.350 -1.7056  1.3687  0.2580
 8479SOL    MW433684   3.040   2.773   3.401 -0.0496 -0.0220 -0.5937
 8480SOL     OW33685   0.708   2.725   2.137 -0.0876 -0.4248  0.0740
 8480SOL    HW233686   0.616   2.748   2.151 -0.2023 -0.7272 -0.1611
 8480SOL    HW333687   0.752   2.748   2.219 -0.6088 -1.5118  0.6808
 8480SOL    MW433688   0.702   2.731   2.150 -0.2009  0.2789 -0.4261
 8481SOL     OW33689   5.187   6.124   2.584  0.3354  0.3424  0.0216
 8481SOL    HW233690   5.094   6.120   2.560  0.7087  1.7725 -1.8997
 8481SOL    HW333691   5.213   6.032   2.591 -0.5885 -0.1570 -2.1991
 8481SOL    MW433692   5.178   6.111   2.582 -0.0894  0.5213  0.1612
 8482SOL     OW33693   2.211   3.484   3.719 -0.2828  0.8025  0.2806
 8482SOL    HW233694   2.229   3.397   3.684  0.2375  0.4952  1.2586
 8482SOL    HW333695   2.244   3.545   3.653  0.2284  0.2506  0.0230
 8482SOL    MW433696   2.218   3.481   3.706 -0.3695 -0.2438 -0.4492
 8483SOL     OW33697   2.924   5.016   1.030 -0.1942  0.2675  0.0433
 8483SOL    HW233698   2.859   5.071   1.073 -0.6457 -0.9942  1.0691
 8483SOL    HW333699   3.008   5.054   1.056 -0.3974 -0.9546  2.9557
 8483SOL    MW433700   2.927   5.028   1.039 -0.2758  0.2865 -0.1054
 8484SOL     OW33701   4.731   2.605   5.003  0.1401 -0.4363  0.0429
 8484SOL    HW233702   4.765   2.516   5.005 -0.1117 -0.5383  2.0497
 8484SOL    HW333703   4.775   2.650   5.075 -0.4442  0.7857 -0.3241
 8484SOL    MW433704   4.741   2.599   5.013 -0.2645  0.1965  1.0267
 8485SOL     OW33705   3.557   5.669   6.411  0.0853  0.5336  0.0341
 8485SOL    HW233706   3.617   5.732   6.452  0.3452  1.1030 -1.1842
 8485SOL    HW333707   3.477   5.719   6.394 -0.0981  0.2457  0.0384
 8485SOL    MW433708   3.555   5.684   6.414  0.2639  0.9230  0.4041
 8486SOL     OW33709   2.511   3.422   0.117  0.3777 -0.5542 -0.0803
 8486SOL    HW233710   2.536   3.426   0.209 -0.7523 -1.4454  0.2872
 8486SOL    HW333711   2.553   3.343   0.084  2.0430  0.5537 -0.7702
 8486SOL    MW433712   2.520   3.412   0.125  0.4303  0.0852  0.3813
 8487SOL     OW33713   1.325   2.013   0.466  0.6058  0.1138 -0.1049
 8487SOL    HW233714   1.395   2.077   0.451  0.6290  0.1805  0.2792
 8487SOL    HW333715   1.263   2.058   0.523  0.1251  0.1400 -0.6491
 8487SOL    MW433716   1.326   2.027   0.472 -0.2317  0.2284  0.4024
 8488SOL     OW33717   1.086   3.020   1.775  0.5457  0.2876  0.5035
 8488SOL    HW233718   1.051   2.934   1.795  0.9341  0.0737  0.2740
 8488SOL    HW333719   1.017   3.081   1.801 -0.0829 -0.1366 -0.1528
 8488SOL    MW433720   1.073   3.017   1.781  0.0522 -0.5218  0.8366
 8489SOL     OW33721   0.588   4.925   1.059 -0.5388  0.2035 -0.4070
 8489SOL    HW233722   0.592   4.885   0.972  0.5418  0.5934 -0.5552
 8489SOL    HW333723   0.505   4.896   1.095 -0.1601 -1.5450 -0.8217
 8489SOL    MW433724   0.578   4.916   1.052 -0.1250 -1.1107 -0.3052
 8490SOL     OW33725   1.518   0.457   3.246  0.1001  0.4576  0.0651
 8490SOL    HW233726   1.540   0.366   3.227 -1.6767 -0.3899  1.6931
 8490SOL    HW333727   1.431   0.469   3.208 -0.4737  0.8701  1.4490
 8490SOL    MW433728   1.509   0.447   3.238  0.2500  0.1731 -0.0835
 8491SOL     OW33729   5.642   0.919   1.564 -0.2902  0.3537 -0.0984
 8491SOL    HW233730   5.655   0.870   1.646 -0.3467  0.6638  0.0977
 8491SOL    HW333731   5.547   0.919   1.551 -0.2119 -0.8232 -0.8636
 8491SOL    MW433732   5.631   0.912   1.573  0.3293  0.4071 -0.2143
 8492SOL     OW33733   3.483   5.741   5.588 -0.1103 -0.2529  0.2005
 8492SOL    HW233734   3.570   5.752   5.626 -0.4737  0.9188  0.7396
 8492SOL    HW333735   3.438   5.679   5.645  0.0031  0.0026  0.5689
 8492SOL    MW433736   3.488   5.734   5.600  0.3284  0.4689 -0.3276
 8493SOL     OW33737   2.098   3.126   0.366 -0.2354 -0.2011  0.5881
 8493SOL    HW233738   2.068   3.160   0.450 -0.5533 -1.9815  1.2527
 8493SOL    HW333739   2.096   3.031   0.377 -2.0468 -0.5811 -2.0376
 8493SOL    MW433740   2.094   3.118   0.378  0.6466  0.2926  0.2194
 8494SOL     OW33741   4.476   3.246   3.555 -0.0519 -0.4368  0.4812
 8494SOL    HW233742   4.524   3.316   3.599  0.3838 -0.9868  0.9100
 8494SOL    HW333743   4.510   3.245   3.466 -0.9517  0.6998  0.0907
 8494SOL    MW433744   4.487   3.255   3.549  0.2223 -0.1733 -0.0953
 8495SOL     OW33745   3.581   3.920   2.653 -0.1278 -0.2701  0.2910
 8495SOL    HW233746   3.576   3.825   2.653 -2.1931 -0.2393  1.6518
 8495SOL    HW333747   3.588   3.944   2.561  0.4689 -1.7223 -0.0663
 8495SOL    MW433748   3.581   3.911   2.641  0.1496 -0.0385 -0.3514
 8496SOL     OW33749   0.843   3.614   5.039  0.1717  0.0213 -0.2645
 8496SOL    HW233750   0.762   3.640   4.994  0.3939 -0.2262 -0.8111
 8496SOL    HW333751   0.841   3.518   5.037  1.6116 -0.0061 -2.3441
 8496SOL    MW433752   0.832   3.605   5.033 -0.0531 -0.2741 -0.8145
 8497SOL     OW33753   0.754   3.922   1.165 -0.2872 -0.6701  0.1232
 8497SOL    HW233754   0.666   3.956   1.183 -0.3117 -0.6402 -0.0558
 8497SOL    HW333755   0.740   3.828   1.151 -0.1989 -0.7831  0.7736
 8497SOL    MW433756   0.741   3.914   1.166 -0.2458 -0.5368 -0.1968
 8498SOL     OW33757   3.894   4.954   1.230 -0.3175 -0.0416  0.4770
 8498SOL    HW233758   3.897   4.896   1.306 -0.1545 -1.0540 -0.2949
 8498SOL    HW333759   3.917   5.040   1.266  1.4690 -0.8084  1.2868
 8498SOL    MW433760   3.897   4.958   1.245  0.1923 -0.3990  0.4363
 8499SOL     OW33761   1.986   2.407   3.331 -0.2428 -0.0363  0.0479
 8499SOL    HW233762   1.942   2.450   3.404 -1.3640 -0.2171 -0.4923
 8499SOL    HW333763   1.915   2.369   3.279  0.4473  0.8090 -1.5936
 8499SOL    MW433764   1.971   2.408   3.334 -0.0321  0.3900 -0.2327
 8500SOL     OW33765   2.030   5.214   0.039 -0.1747  0.2285  0.1166
 8500SOL    HW233766   1.986   5.205   0.123  1.5576 -1.0627  0.9491
 8500SOL    HW333767   2.030   5.309   0.022 -1.2941  0.4323  1.1421
 8500SOL    MW433768   2.024   5.226   0.048  0.2116  0.6764  0.2493
 8501SOL     OW33769   1.343   3.398   5.926 -0.0395 -0.0377  0.2640
 8501SOL    HW233770   1.381   3.329   5.872 -1.2257 -1.6270  1.3692
 8501SOL    HW333771   1.372   3.378   6.015 -0.2253  1.0311  0.5813
 8501SOL    MW433772   1.352   3.386   5.931  0.7861  0.0534 -0.1119
 8502SOL     OW33773   0.741   4.985   6.028  0.4582  0.0953  0.1024
 8502SOL    HW233774   0.671   4.927   5.998  0.3251  1.0825 -1.6363
 8502SOL    HW333775   0.818   4.956   5.979  0.7987  0.2795  0.5272
 8502SOL    MW433776   0.742   4.973   6.018  0.1571  0.0520 -1.0895
 8503SOL     OW33777   2.207   3.263   5.488  0.3619 -0.0266  0.0638
 8503SOL    HW233778   2.281   3.323   5.487  0.7285 -0.3644  2.0792
 8503SOL    HW333779   2.232   3.193   5.427  0.9351  0.7105 -0.5610
 8503SOL    MW433780   2.220   3.262   5.480 -0.7604 -0.8043  0.4006
 8504SOL     OW33781   0.384   6.272   5.475  0.0828 -0.4324  0.4499
 8504SOL    HW233782   0.389   6.353   5.425 -0.0164  0.9141  2.5031
 8504SOL    HW333783   0.472   6.236   5.473 -0.3031 -1.4507 -2.2034
 8504SOL    MW433784   0.396   6.278   5.469  0.0442 -0.0396  0.0503
 8505SOL     OW33785   1.185   5.945   3.298  0.2175  0.1121 -0.0324
 8505SOL    HW233786   1.190   5.926   3.392  2.4855 -1.9255 -0.4512
 8505SOL    HW333787   1.118   6.013   3.291  0.2971  0.6928  3.0979
 8505SOL    MW433788   1.177   5.952   3.310 -0.2261  0.0985 -0.0425
 8506SOL     OW33789   4.991   4.444   5.611 -0.2157 -0.5757  0.6873
 8506SOL    HW233790   5.021   4.355   5.589  0.4804 -0.5555  1.5226
 8506SOL    HW333791   5.063   4.501   5.584 -1.4439 -0.0143 -1.7057
 8506SOL    MW433792   5.004   4.439   5.604  0.4010  0.2644  0.6924
 8507SOL     OW33793   0.634   2.722   1.182  0.1727 -0.2213 -0.1922
 8507SOL    HW233794   0.687   2.667   1.125  0.9860  0.6980 -0.3563
 8507SOL    HW333795   0.550   2.677   1.189  0.2555 -0.6394 -1.6493
 8507SOL    MW433796   0.630   2.709   1.175  0.4467 -0.0706 -0.2301
 8508SOL     OW33797   5.157   1.822   0.253  0.2542  0.2165  0.0453
 8508SOL    HW233798   5.247   1.842   0.278  0.7218 -0.2608 -1.1795
 8508SOL    HW333799   5.104   1.883   0.304  0.9604 -1.8925  3.6640
 8508SOL    MW433800   5.162   1.833   0.263  0.2892 -0.1792  0.4118
 8509SOL     OW33801   1.518   4.107   1.733  0.4030  0.3927 -0.5037
 8509SOL    HW233802   1.453   4.037   1.731  1.6637 -0.7953 -1.4064
 8509SOL    HW333803   1.512   4.148   1.646  1.5837 -0.4529 -1.0158
 8509SOL    MW433804   1.509   4.103   1.721 -0.1464  0.7860  0.4538
 8510SOL     OW33805   0.961   1.879   5.680  0.6354 -0.0406 -0.3712
 8510SOL    HW233806   0.987   1.838   5.763  2.4684 -0.5216 -1.1373
 8510SOL    HW333807   0.991   1.969   5.688  1.2917 -0.2282 -0.7192
 8510SOL    MW433808   0.968   1.885   5.692  0.5728  0.1506  0.2973
 8511SOL     OW33809   1.851   1.673   0.057  0.7343 -0.0544 -0.0767
 8511SOL    HW233810   1.829   1.711  -0.028  1.1795 -1.7661 -1.0061
 8511SOL    HW333811   1.879   1.748   0.110  4.1729  0.7095 -2.6218
 8511SOL    MW433812   1.851   1.688   0.053  0.4522 -0.5844 -0.1170
 8512SOL     OW33813   5.661   1.971   5.764 -0.3744 -0.1926  0.4102
 8512SOL    HW233814   5.666   2.032   5.690 -1.4460 -1.0684 -0.4282
 8512SOL    HW333815   5.570   1.974   5.792  0.2343  0.8940  2.4154
 8512SOL    MW433816   5.650   1.979   5.758  0.1189 -0.4738  0.5643
 8513SOL     OW33817   0.718   6.381   4.935 -0.0185  0.0117  0.7825
 8513SOL    HW233818   0.709   6.473   4.910  1.8895  0.1890  0.6240
 8513SOL    HW333819   0.654   6.369   5.005 -1.5728  0.9512 -0.4127
 8513SOL    MW433820   0.708   6.392   4.941  0.2451 -0.7330  0.0171
 8514SOL     OW33821   5.846   4.146   5.195  0.2159 -0.3243 -0.1832
 8514SOL    HW233822   5.827   4.188   5.111 -1.7010 -0.7310 -0.0039
 8514SOL    HW333823   5.884   4.061   5.172 -1.0487 -0.7796 -0.7056
 8514SOL    MW433824   5.848   4.140   5.181 -0.1335 -0.3092 -0.4653
 8515SOL     OW33825   0.213   1.002   4.822  0.2914  0.9680 -0.9507
 8515SOL    HW233826   0.298   1.046   4.824  0.0073  1.4986  0.0382
 8515SOL    HW333827   0.149   1.073   4.816 -0.2098  0.7791  1.4191
 8515SOL    MW433828   0.216   1.017   4.821 -0.7747  0.1190 -0.3248
 8516SOL     OW33829   5.951   2.811   3.328  0.4873 -0.6488 -0.3013
 8516SOL    HW233830   5.865   2.775   3.305  0.4730  0.8266 -2.9723
 8516SOL    HW333831   5.944   2.829   3.422 -2.2055 -0.4661 -0.4322
 8516SOL    MW433832   5.938   2.809   3.337  0.0570 -0.1711  0.0693
 8517SOL     OW33833   0.771   0.498   3.254 -0.6079  0.3659 -0.2586
 8517SOL    HW233834   0.790   0.411   3.287 -0.2165  0.4556 -0.2463
 8517SOL    HW333835   0.675   0.504   3.257 -0.6146  0.0977  0.1414
 8517SOL    MW433836   0.761   0.488   3.259  0.3299 -0.4139 -0.5464
 8518SOL     OW33837   5.452   5.947   1.030 -0.2661  0.2818  0.3352
 8518SOL    HW233838   5.483   6.034   1.055 -0.2051  1.1076 -2.2941
 8518SOL    HW333839   5.415   5.911   1.110  0.4767  2.3726  1.7137
 8518SOL    MW433840   5.451   5.954   1.044  0.3018  0.1444 -0.5810
 8519SOL     OW33841   1.494   2.733   5.874  0.3278  0.2989 -0.5789
 8519SOL    HW233842   1.544   2.808   5.843 -0.0007  0.2423 -1.2846
 8519SOL    HW333843   1.419   2.770   5.920  1.0220  0.3836  0.5106
 8519SOL    MW433844   1.490   2.747   5.876  0.1345 -0.6956  0.3742
 8520SOL     OW33845   1.798   0.102   2.673 -0.7652  0.0933  0.2866
 8520SOL    HW233846   1.803   0.114   2.768  2.3860  0.5706  0.1716
 8520SOL    HW333847   1.811   0.190   2.638  1.1633 -0.4594 -0.5231
 8520SOL    MW433848   1.801   0.115   2.681  0.0633  0.1163 -0.2790
 8521SOL     OW33849   2.175   2.841   5.467 -0.1802 -0.4318 -0.1636
 8521SOL    HW233850   2.144   2.778   5.402 -1.0133  0.5370 -0.7352
 8521SOL    HW333851   2.106   2.843   5.533 -0.2241 -0.0279 -0.2164
 8521SOL    MW433852   2.162   2.833   5.467 -0.0286  0.3955  0.0918
 8522SOL     OW33853   1.180   0.755   5.344  0.2927 -0.6987  0.0584
 8522SOL    HW233854   1.116   0.753   5.416 -0.0275  0.3307 -0.1726
 8522SOL    HW333855   1.249   0.813   5.376  1.4703 -2.3298  0.5728
 8522SOL    MW433856   1.181   0.762   5.358  0.6436 -0.1434  0.4912
 8523SOL     OW33857   0.942   6.146   4.613 -0.4158  0.2846 -0.1076
 8523SOL    HW233858   0.860   6.171   4.654 -0.3473  0.1583  0.1112
 8523SOL    HW333859   0.919   6.075   4.552 -0.6030  0.8453 -0.7022
 8523SOL    MW433860   0.928   6.140   4.610 -0.4836  1.2709  0.0062
 8524SOL     OW33861   0.019   6.253   0.720  0.5418  0.4155 -0.1130
 8524SOL    HW233862   0.026   6.339   0.762  1.8151  1.1259 -1.6297
 8524SOL    HW333863  -0.052   6.263   0.656  0.3296  0.1711  0.0844
 8524SOL    MW433864   0.011   6.266   0.717  0.2394  1.0711 -0.4354
 8525SOL     OW33865   4.173   2.381   3.665 -0.3457 -0.3111 -0.1123
 8525SOL    HW233866   4.211   2.333   3.591  0.2156 -0.7621  0.4517
 8525SOL    HW333867   4.098   2.427   3.628  0.6360  0.4535 -1.2200
 8525SOL    MW433868   4.168   2.381   3.650 -0.0883  0.4888  0.0629
 8526SOL     OW33869   6.384   1.731   3.456  0.3838  0.7149  0.4190
 8526SOL    HW233870   6.340   1.811   3.485  1.9424  1.2639  1.4552
 8526SOL    HW333871   6.442   1.709   3.529  1.5920 -0.1231 -0.7483
 8526SOL    MW433872   6.386   1.738   3.470 -0.0937  0.3575 -0.3401
 8527SOL     OW33873   2.731   0.759   1.910  0.1680 -0.5852  0.0194
 8527SOL    HW233874   2.709   0.666   1.911 -0.1985 -0.5004  0.6220
 8527SOL    HW333875   2.826   0.761   1.917  0.1579 -0.9136  0.2981
 8527SOL    MW433876   2.741   0.747   1.911  0.0882  0.0670  0.2041
 8528SOL     OW33877   0.483   1.833   4.793  0.4281  0.4057 -0.0754
 8528SOL    HW233878   0.525   1.888   4.859  1.6939  1.9260 -2.0520
 8528SOL    HW333879   0.543   1.760   4.779 -0.1283 -0.2514  0.8298
 8528SOL    MW433880   0.496   1.831   4.800  0.0918  0.4855  0.0763
 8529SOL     OW33881   2.121   2.836   0.420 -0.1890 -0.4026  0.0625
 8529SOL    HW233882   2.211   2.823   0.451 -0.4724 -1.7096  0.4184
 8529SOL    HW333883   2.066   2.816   0.496 -0.7733  1.5070  0.1790
 8529SOL    MW433884   2.126   2.831   0.434  0.1709  0.2779  0.4689
 8530SOL     OW33885   4.243   1.474   4.522 -0.2870  0.1967  0.2809
 8530SOL    HW233886   4.173   1.515   4.471 -1.0675 -0.4113  0.8303
 8530SOL    HW333887   4.226   1.501   4.613  1.5294  1.8967  0.1712
 8530SOL    MW433888   4.232   1.483   4.528 -0.0849 -0.5575  0.0390
 8531SOL     OW33889   4.511   0.534   0.718  0.2112 -0.0300 -0.1078
 8531SOL    HW233890   4.452   0.511   0.790  0.0726 -1.9538 -0.7920
 8531SOL    HW333891   4.537   0.451   0.680  1.5500  0.8798 -1.3073
 8531SOL    MW433892   4.507   0.520   0.723  0.1344  0.2366  0.0272
 8532SOL     OW33893   5.804   3.342   1.743 -0.3976 -0.4514  0.2975
 8532SOL    HW233894   5.796   3.417   1.684 -1.1706 -0.3202  0.5563
 8532SOL    HW333895   5.855   3.278   1.694 -2.6037 -1.1031 -1.2750
 8532SOL    MW433896   5.810   3.343   1.729  0.3444 -0.2339  0.0486
 8533SOL     OW33897   6.263   2.656   6.069  0.4386  0.4578  0.1020
 8533SOL    HW233898   6.214   2.731   6.033  0.7549  0.2811 -0.7285
 8533SOL    HW333899   6.197   2.589   6.085  0.3560  0.3238 -0.7405
 8533SOL    MW433900   6.248   2.657   6.066  0.3338 -0.2652 -1.0249
 8534SOL     OW33901   3.098   4.153   0.412  0.3594  0.2467 -0.4258
 8534SOL    HW233902   3.014   4.199   0.416  0.2375 -0.0709  1.1657
 8534SOL    HW333903   3.091   4.096   0.335 -1.1781 -0.3128  0.0936
 8534SOL    MW433904   3.086   4.152   0.402 -0.2495  0.3418 -0.1417
 8535SOL     OW33905   1.770   4.569   3.525  0.4357 -0.4063 -0.1231
 8535SOL    HW233906   1.742   4.565   3.434 -1.6291  0.0427  0.4358
 8535SOL    HW333907   1.692   4.544   3.575  0.8237  1.5838  1.5982
 8535SOL    MW433908   1.756   4.565   3.520 -0.0615 -0.5528  0.7270
 8536SOL     OW33909   5.357   6.213   4.074 -0.2519  0.4977  0.0131
 8536SOL    HW233910   5.423   6.150   4.044 -0.2313  1.3739 -1.9236
 8536SOL    HW333911   5.408   6.285   4.112 -0.1415  0.7053 -0.5288
 8536SOL    MW433912   5.373   6.214   4.075 -0.3470  0.3503 -0.8537
 8537SOL     OW33913   2.851   6.395   5.459 -0.3917  0.4269 -0.2395
 8537SOL    HW233914   2.939   6.424   5.482 -0.4072  0.9200 -0.7854
 8537SOL    HW333915   2.805   6.389   5.542  0.1341  0.2380  0.0440
 8537SOL    MW433916   2.857   6.398   5.473 -0.0894  0.1208  0.3056
 8538SOL     OW33917   4.621   0.958   3.687 -0.5603  0.5207  0.1776
 8538SOL    HW233918   4.558   0.905   3.736 -0.2057 -0.1466 -0.0687
 8538SOL    HW333919   4.582   0.966   3.600 -1.0625  1.4753  0.4860
 8538SOL    MW433920   4.608   0.952   3.682  0.3413 -0.4237  0.3457
 8539SOL     OW33921   5.626   0.163   5.537 -0.3135  0.6897  0.0884
 8539SOL    HW233922   5.662   0.233   5.483  1.1296 -0.1620 -0.1228
 8539SOL    HW333923   5.648   0.083   5.490  0.1517 -0.0217  1.4531
 8539SOL    MW433924   5.634   0.162   5.524  0.6502  0.5016  0.3428
 8540SOL     OW33925   1.473   1.443   3.212 -0.3367  0.1311  0.3291
 8540SOL    HW233926   1.409   1.386   3.170  1.1821 -2.0088  0.7620
 8540SOL    HW333927   1.535   1.465   3.142  0.2260 -0.4908  0.6228
 8540SOL    MW433928   1.473   1.438   3.197  0.4825 -0.0212 -0.6287
 8541SOL     OW33929   0.793   1.212   5.550  0.9390  0.2423 -0.2804
 8541SOL    HW233930   0.712   1.203   5.602  0.2036  3.7500 -0.5800
 8541SOL    HW333931   0.763   1.208   5.459  1.0507  1.5990 -0.3904
 8541SOL    MW433932   0.778   1.210   5.545  0.1535 -0.2760  0.4096
 8542SOL     OW33933   5.868   2.165   3.523 -0.6584 -0.4829 -0.0712
 8542SOL    HW233934   5.881   2.076   3.491 -0.4643 -0.8045  0.8814
 8542SOL    HW333935   5.905   2.221   3.454  1.5471 -1.2124  0.4441
 8542SOL    MW433936   5.875   2.160   3.510  0.2150  0.5676 -0.2458
 8543SOL     OW33937   0.686   4.251   2.090  0.0661  0.5595 -0.3998
 8543SOL    HW233938   0.685   4.164   2.050  1.3235 -0.1258  0.9147
 8543SOL    HW333939   0.642   4.308   2.027 -1.2187 -1.1096 -1.0858
 8543SOL    MW433940   0.680   4.247   2.077  0.1686 -0.2077 -0.3851
 8544SOL     OW33941   1.972   0.279   4.929  0.3561 -0.4496  0.7888
 8544SOL    HW233942   1.925   0.198   4.909  1.5841 -0.6087 -1.7843
 8544SOL    HW333943   2.048   0.251   4.980 -0.9114 -0.4510  2.8232
 8544SOL    MW433944   1.976   0.265   4.933  0.5501 -0.0384  0.4858
 8545SOL     OW33945   2.469   4.913   4.581 -0.1585 -0.8831  0.2083
 8545SOL    HW233946   2.387   4.927   4.533  0.4650  1.1068 -0.3653
 8545SOL    HW333947   2.538   4.919   4.515  0.7196  2.0569  1.2154
 8545SOL    MW433948   2.467   4.916   4.566  0.2555 -0.2684  0.2054
 8546SOL     OW33949   5.970   2.923   0.426 -0.4128 -0.6617 -0.0892
 8546SOL    HW233950   6.010   2.841   0.456  1.7918  0.3816 -0.0510
 8546SOL    HW333951   6.036   2.965   0.372 -1.8447  0.6909 -0.8885
 8546SOL    MW433952   5.984   2.918   0.423  0.1387  0.5796 -0.0720
 8547SOL     OW33953   1.141   0.987   0.551  0.2183  0.0586  0.1582
 8547SOL    HW233954   1.217   1.033   0.515 -0.3307  1.2920  0.5273
 8547SOL    HW333955   1.070   1.008   0.491 -0.1711  0.1860  0.6581
 8547SOL    MW433956   1.142   0.996   0.538 -0.5004  0.3749  0.0742
 8548SOL     OW33957   1.343   4.783   1.126 -0.1371 -0.1456  0.5465
 8548SOL    HW233958   1.407   4.712   1.134 -0.8152 -0.7823  0.4265
 8548SOL    HW333959   1.274   4.748   1.070 -0.4780  0.6154  0.4706
 8548SOL    MW433960   1.342   4.769   1.120 -0.1373  0.3296  0.6143
 8549SOL     OW33961   1.437   3.138   3.177  0.1979 -0.4713 -0.0966
 8549SOL    HW233962   1.354   3.106   3.212 -0.1901  1.5742  1.0115
 8549SOL    HW333963   1.437   3.109   3.086 -0.7806 -2.2216  0.4170
 8549SOL    MW433964   1.426   3.130   3.170  0.3615  0.9083  0.1617
 8550SOL     OW33965   1.831   4.845   3.293  0.0626 -0.5974  0.2759
 8550SOL    HW233966   1.880   4.909   3.345  0.1033 -2.3808  2.6176
 8550SOL    HW333967   1.898   4.801   3.241  0.7098 -1.5936  1.8825
 8550SOL    MW433968   1.846   4.848   3.293 -0.5114  0.0067  0.1353
 8551SOL     OW33969   5.372   0.302   2.901  0.4857  0.0923  1.3234
 8551SOL    HW233970   5.405   0.217   2.875  0.3607  0.3337  0.3453
 8551SOL    HW333971   5.441   0.363   2.878 -0.5836  0.6045 -0.7587
 8551SOL    MW433972   5.385   0.299   2.895 -0.2325 -0.1406  0.3340
 8552SOL     OW33973   6.428   0.342   3.401 -0.1745 -0.0492  0.2620
 8552SOL    HW233974   6.457   0.308   3.316 -0.4888  0.1686  0.0650
 8552SOL    HW333975   6.499   0.399   3.430 -1.1388  1.9155 -1.0516
 8552SOL    MW433976   6.441   0.345   3.393  0.4013 -0.5081  0.0726
 8553SOL     OW33977   2.781   0.167   1.390 -0.3988  0.7710 -0.3074
 8553SOL    HW233978   2.738   0.121   1.318 -0.0179 -0.7614  0.4230
 8553SOL    HW333979   2.710   0.195   1.447 -0.5260 -0.9979  0.4481
 8553SOL    MW433980   2.766   0.165   1.388 -0.0511  0.0613  0.1064
 8554SOL     OW33981   0.351   2.036   2.116  0.4833 -0.2034 -0.0778
 8554SOL    HW233982   0.273   2.018   2.169  1.1892 -1.5841  0.5355
 8554SOL    HW333983   0.322   2.103   2.053 -1.1700 -0.6412  0.1714
 8554SOL    MW433984   0.337   2.043   2.115  0.4012 -0.1633 -0.1946
 8555SOL     OW33985   2.382   3.536   6.204  0.5622 -0.4808 -0.0260
 8555SOL    HW233986   2.460   3.554   6.257 -0.0104 -1.0780  1.0488
 8555SOL    HW333987   2.329   3.615   6.213  1.2226  0.1130 -1.1306
 8555SOL    MW433988   2.385   3.549   6.212  0.2238  0.5285  0.4209
 8556SOL     OW33989   3.159   5.371   0.513  0.3544  0.4745  0.0266
 8556SOL    HW233990   3.096   5.307   0.481  0.5390  0.4801 -0.3472
 8556SOL    HW333991   3.151   5.445   0.453 -0.7782  1.3498  1.1844
 8556SOL    MW433992   3.149   5.372   0.501  0.0807  0.7970 -0.2952
 8557SOL     OW33993   4.102   3.717   5.365  0.0493 -0.1902 -0.0689
 8557SOL    HW233994   4.033   3.658   5.334 -1.1064  0.7202  0.6787
 8557SOL    HW333995   4.173   3.659   5.393 -0.0514 -1.1127 -1.6451
 8557SOL    MW433996   4.102   3.702   5.365 -0.6620 -0.5341 -0.2072
 8558SOL     OW33997   2.020   3.611   6.277  0.3130  0.2712  0.0560
 8558SOL    HW233998   2.053   3.522   6.265  2.6272  1.2062 -1.2540
 8558SOL    HW333999   2.098   3.664   6.291 -1.0172  2.0878  1.0869
 8558SOL    MW434000   2.035   3.607   6.277  0.2588 -0.1039  0.0077
 8559SOL     OW34001   4.872   2.124   3.660  0.0476  0.2424 -0.4430
 8559SOL    HW234002   4.939   2.056   3.652  0.7369  0.8933 -0.3324
 8559SOL    HW334003   4.909   2.187   3.723 -0.4796  0.8333 -0.7106
 8559SOL    MW434004   4.886   2.123   3.667  0.3327 -0.0402  0.5903
 8560SOL     OW34005   2.073   2.737   2.559  0.0354 -0.2291 -0.0211
 8560SOL    HW234006   2.117   2.821   2.550  1.3388 -0.7007  1.4024
 8560SOL    HW334007   2.042   2.736   2.650  1.0229 -1.7021  0.3382
 8560SOL    MW434008   2.075   2.748   2.570  0.2867  0.0989 -0.2163
 8561SOL     OW34009   3.313   5.889   5.050  0.0085 -0.3499  0.1914
 8561SOL    HW234010   3.408   5.882   5.054  0.1435  1.3996  1.2838
 8561SOL    HW334011   3.293   5.967   5.102 -2.1159 -1.3159  0.9218
 8561SOL    MW434012   3.323   5.898   5.057 -0.1290  0.3025  0.2781
 8562SOL     OW34013   4.291   3.710   1.777 -0.6458 -0.2834  0.4967
 8562SOL    HW234014   4.277   3.654   1.853 -0.4779 -0.8307  0.1282
 8562SOL    HW334015   4.286   3.651   1.702  1.4060 -0.1820  0.2070
 8562SOL    MW434016   4.289   3.695   1.777 -0.0652 -0.5862 -0.2000
 8563SOL     OW34017   5.827   0.837   2.379 -0.6171  0.0979  0.8967
 8563SOL    HW234018   5.892   0.812   2.444  0.9435  0.4387 -0.4531
 8563SOL    HW334019   5.845   0.780   2.304 -1.9735  0.1069  0.5389
 8563SOL    MW434020   5.838   0.826   2.377 -0.4299  0.9744  0.0053
 8564SOL     OW34021   3.244   4.896   6.420  0.0186  0.2483  0.4853
 8564SOL    HW234022   3.267   4.858   6.505 -1.8769 -2.0770  0.0582
 8564SOL    HW334023   3.155   4.866   6.403  0.1504  1.0597 -2.1178
 8564SOL    MW434024   3.235   4.887   6.429 -0.5010  0.4316 -0.0540
 8565SOL     OW34025   2.072   1.766   2.789  0.1131  0.4859  0.8611
 8565SOL    HW234026   2.033   1.730   2.868 -1.2193  0.2760  0.1265
 8565SOL    HW334027   2.128   1.696   2.755 -2.3385 -0.9482 -0.4726
 8565SOL    MW434028   2.074   1.752   2.795 -0.5505 -0.7043  0.1691
 8566SOL     OW34029   1.595   5.743   2.832 -0.3286 -0.1732  0.0497
 8566SOL    HW234030   1.566   5.822   2.787  1.3603 -0.8890 -2.4978
 8566SOL    HW334031   1.533   5.733   2.905 -1.7564  2.3802 -0.6861
 8566SOL    MW434032   1.583   5.752   2.836  0.7746  0.0868  0.2820
 8567SOL     OW34033   5.669   5.654   4.332 -0.5301  0.2057  0.0662
 8567SOL    HW234034   5.622   5.669   4.250  0.9112 -1.4536 -1.1668
 8567SOL    HW334035   5.739   5.719   4.332 -1.2495  0.9867  0.5959
 8567SOL    MW434036   5.672   5.664   4.321 -0.2478  0.1903  0.3128
 8568SOL     OW34037   1.369   1.144   0.488 -0.6096  0.0855 -0.2341
 8568SOL    HW234038   1.438   1.090   0.450 -0.2104 -0.7854  1.5871
 8568SOL    HW334039   1.338   1.198   0.416  0.7073 -0.8105 -1.5353
 8568SOL    MW434040   1.374   1.144   0.474 -0.1850  0.2297  0.3605
 8569SOL     OW34041   0.683   0.518   5.619 -0.1334  0.2770 -1.1033
 8569SOL    HW234042   0.669   0.601   5.664  1.3165  0.4148 -0.8606
 8569SOL    HW334043   0.622   0.520   5.545 -1.5313  0.6772 -0.0103
 8569SOL    MW434044   0.673   0.529   5.615 -0.0354 -0.1321  0.2120
 8570SOL     OW34045   1.349   1.686   4.771  0.4473  0.4396 -0.5187
 8570SOL    HW234046   1.369   1.764   4.719 -1.9181  1.6785  0.3289
 8570SOL    HW334047   1.341   1.718   4.860 -0.6867 -0.7355 -0.1733
 8570SOL    MW434048   1.351   1.700   4.776  0.4040  0.0889 -0.1278
 8571SOL     OW34049   1.379   5.036   2.920  0.0753  0.5680  0.6456
 8571SOL    HW234050   1.309   5.061   2.860  0.6066  1.1491  0.2496
 8571SOL    HW334051   1.449   5.100   2.903  0.9134 -0.3233  0.6377
 8571SOL    MW434052   1.379   5.048   2.910 -0.2316  0.0065 -0.6392
 8572SOL     OW34053   0.218   2.564   4.009 -0.2856 -0.1231  0.5107
 8572SOL    HW234054   0.167   2.491   3.973 -0.0896  0.7843 -1.7930
 8572SOL    HW334055   0.154   2.630   4.031 -0.2839  0.1239 -0.1971
 8572SOL    MW434056   0.203   2.563   4.007  0.4259  0.3691  0.0740
 8573SOL     OW34057   6.238   1.743   0.799 -0.2074  0.1065  0.2034
 8573SOL    HW234058   6.325   1.706   0.784 -0.7471 -1.6938  1.2782
 8573SOL    HW334059   6.177   1.677   0.765 -1.1938  0.6607  0.8306
 8573SOL    MW434060   6.241   1.730   0.792  0.8746 -0.3944  0.2589
 8574SOL     OW34061   5.652   1.521   2.558  0.4065  0.0414 -0.2560
 8574SOL    HW234062   5.571   1.555   2.598  1.0579  0.1021  1.0490
 8574SOL    HW334063   5.710   1.597   2.554  0.2768  0.0977 -1.5963
 8574SOL    MW434064   5.649   1.536   2.563 -0.1328 -0.0978  0.3759
 8575SOL     OW34065   0.735   4.699   0.642 -0.1160  0.7998  0.5795
 8575SOL    HW234066   0.793   4.672   0.714  1.3191  1.5349 -0.2624
 8575SOL    HW334067   0.767   4.785   0.616 -1.5859  1.2228  0.0367
 8575SOL    MW434068   0.747   4.707   0.648  0.5380 -0.2235  0.7264
 8576SOL     OW34069   3.897   5.677   1.266  0.5448 -0.0476  0.0451
 8576SOL    HW234070   3.897   5.614   1.194 -0.0931  0.3103 -0.2768
 8576SOL    HW334071   3.815   5.660   1.312  0.6458  0.1557  0.2979
 8576SOL    MW434072   3.886   5.666   1.262 -0.1192 -0.6787 -0.7170
 8577SOL     OW34073   5.930   2.985   5.286  0.5431  0.3766 -0.1424
 8577SOL    HW234074   6.017   2.977   5.249  0.2488  0.9439 -0.9856
 8577SOL    HW334075   5.883   2.908   5.255  0.4557  0.5767 -0.5088
 8577SOL    MW434076   5.935   2.974   5.277 -0.4317 -0.3602 -0.0309
 8578SOL     OW34077   3.980   4.481   0.217 -0.0544 -0.8627 -0.4097
 8578SOL    HW234078   3.953   4.416   0.282  0.5874 -1.8375 -1.0858
 8578SOL    HW334079   4.072   4.498   0.236  0.4988 -2.0778 -1.7645
 8578SOL    MW434080   3.988   4.475   0.228  0.0593  0.0850 -0.3373
 8579SOL     OW34081   4.338   3.182   4.559 -0.4218 -0.3292 -0.4687
 8579SOL    HW234082   4.250   3.217   4.547 -1.3636 -2.7275 -1.2331
 8579SOL    HW334083   4.364   3.154   4.471  1.4829  1.0612 -0.4043
 8579SOL    MW434084   4.330   3.183   4.546  0.0466  0.2121 -0.1231
 8580SOL     OW34085   5.008   1.653   2.773 -0.3791  0.2415  0.1683
 8580SOL    HW234086   5.078   1.610   2.822  0.4676 -0.6353 -1.7074
 8580SOL    HW334087   5.053   1.708   2.709 -1.4376  1.1156  0.1316
 8580SOL    MW434088   5.023   1.655   2.771 -0.2606 -0.4511  0.1998
 8581SOL     OW34089   0.533   4.329   0.116 -0.2530 -0.9263  0.0039
 8581SOL    HW234090   0.548   4.263   0.048 -0.7788 -0.9252 -0.1182
 8581SOL    HW334091   0.442   4.357   0.103 -0.1300 -0.3984  0.2517
 8581SOL    MW434092   0.523   4.324   0.105  0.5030  0.1875  0.2261
 8582SOL     OW34093   0.819   5.064   0.780  0.7279  0.0026  0.0038
 8582SOL    HW234094   0.760   5.002   0.736  2.3495 -2.9065  1.6384
 8582SOL    HW334095   0.872   5.101   0.709 -0.8897  0.2950 -1.1136
 8582SOL    MW434096   0.818   5.061   0.765  0.4785 -0.0655  0.0920
 8583SOL     OW34097   4.040   1.326   2.042  0.3205 -0.0537  0.1743
 8583SOL    HW234098   4.098   1.379   1.987 -1.3457  0.0614 -1.6213
 8583SOL    HW334099   3.971   1.387   2.069  0.2851 -0.4932  1.1041
 8583SOL    MW434100   4.039   1.341   2.038  0.6891 -0.4107  0.5612
 8584SOL     OW34101   3.381   0.156   3.156 -0.3569  0.3347  0.4098
 8584SOL    HW234102   3.290   0.137   3.176 -1.4266  2.2741 -2.0502
 8584SOL    HW334103   3.399   0.237   3.205  0.0535 -0.0131  0.8448
 8584SOL    MW434104   3.371   0.164   3.165  0.6628 -0.4179  0.7234
 8585SOL     OW34105   0.209   3.628   5.625  0.0026  0.2145 -0.5845
 8585SOL    HW234106   0.201   3.532   5.623 -0.8611  0.2765 -2.7136
 8585SOL    HW334107   0.280   3.644   5.687 -1.2922 -1.6684  1.5293
 8585SOL    MW434108   0.218   3.617   5.633  0.0275  0.4913 -0.2515
 8586SOL     OW34109   0.972   4.044   2.262 -0.3810 -0.0428  0.3018
 8586SOL    HW234110   0.901   3.994   2.222  0.4390 -0.3635 -0.7970
 8586SOL    HW334111   0.955   4.039   2.356 -2.4108  0.8100  0.0149
 8586SOL    MW434112   0.961   4.036   2.269  0.1401  0.4483 -0.5555
 8587SOL     OW34113   1.002   2.914   2.808 -0.7341 -0.2329  0.0908
 8587SOL    HW234114   1.012   2.954   2.722  0.4757 -0.3176  0.1755
 8587SOL    HW334115   0.966   2.983   2.863  2.2241  1.1344  0.4793
 8587SOL    MW434116   0.998   2.928   2.804 -0.6585 -0.2235  0.1387
 8588SOL     OW34117   4.044   3.079   5.085  0.7964  0.0798 -0.5515
 8588SOL    HW234118   3.996   3.088   5.168 -0.0915  0.4568 -1.0893
 8588SOL    HW334119   4.038   3.166   5.044 -0.8901 -0.7034 -2.1129
 8588SOL    MW434120   4.036   3.092   5.090 -0.1425 -0.4025 -0.2897
 8589SOL     OW34121   2.257   5.328   2.078 -0.2413  0.1977  0.0414
 8589SOL    HW234122   2.164   5.314   2.056 -0.0069  0.3459 -1.1193
 8589SOL    HW334123   2.256   5.352   2.171 -1.4051  0.5639 -0.0431
 8589SOL    MW434124   2.244   5.329   2.087 -0.2838 -0.5977  0.1558
 8590SOL     OW34125   1.771   2.961   5.016 -0.1340  0.0321 -0.1109
 8590SOL    HW234126   1.697   2.905   5.041 -0.3610 -0.3563 -1.6019
 8590SOL    HW334127   1.734   3.050   5.019 -1.3525 -0.2821 -2.9143
 8590SOL    MW434128   1.756   2.965   5.020 -0.3906  0.1150  0.1629
 8591SOL     OW34129   2.388   1.691   1.087  0.3091 -0.3559  0.2498
 8591SOL    HW234130   2.478   1.660   1.073  1.2507  1.6320  1.4625
 8591SOL    HW334131   2.396   1.787   1.089 -1.9741 -0.1001 -0.3639
 8591SOL    MW434132   2.401   1.700   1.085 -0.5226  0.2048  0.0690
 8592SOL     OW34133   1.273   1.137   1.354 -0.6709 -0.3375  0.4048
 8592SOL    HW234134   1.193   1.085   1.350 -0.6960 -0.2777  0.0801
 8592SOL    HW334135   1.325   1.107   1.279 -0.5550 -0.1083  0.3922
 8592SOL    MW434136   1.269   1.126   1.344  0.1739 -0.1410 -0.0744
 8593SOL     OW34137   5.110   5.805   1.875  0.2365 -0.1105 -0.0383
 8593SOL    HW234138   5.157   5.723   1.886 -0.1292 -0.2090  0.8140
 8593SOL    HW334139   5.153   5.867   1.934 -0.3129 -0.0398  0.2956
 8593SOL    MW434140   5.122   5.803   1.884  0.3400 -0.1613  0.2878
 8594SOL     OW34141   5.892   5.616   6.144  0.2292 -0.0908  0.0280
 8594SOL    HW234142   5.897   5.708   6.169  0.2555 -0.5378  1.8220
 8594SOL    HW334143   5.828   5.613   6.073 -0.8933  1.1209  0.9604
 8594SOL    MW434144   5.885   5.627   6.138  0.2434  0.0193 -0.2729
 8595SOL     OW34145   5.727   5.229   1.074 -0.2023 -0.1967 -0.4288
 8595SOL    HW234146   5.778   5.230   1.155  0.1402 -0.0832 -0.6445
 8595SOL    HW334147   5.787   5.263   1.007 -1.3883  2.7521 -0.1741
 8595SOL    MW434148   5.741   5.234   1.076  0.3274  0.4697 -0.1010
 8596SOL     OW34149   5.383   1.108   2.496  0.1742  0.5030  0.2355
 8596SOL    HW234150   5.473   1.090   2.523  0.0386  0.9317  0.9997
 8596SOL    HW334151   5.343   1.021   2.487  0.7628  0.2951 -0.5022
 8596SOL    MW434152   5.390   1.094   2.498 -0.3893 -0.0143  0.4004
 8597SOL     OW34153   3.441   1.765   1.373  0.0023  0.5021  0.1190
 8597SOL    HW234154   3.443   1.687   1.428 -1.4253  1.2083  1.2347
 8597SOL    HW334155   3.533   1.790   1.363  0.3477 -0.0932  1.5382
 8597SOL    MW434156   3.453   1.758   1.379 -0.5419  0.1933 -0.8360
 8598SOL     OW34157   5.719   2.857   0.043 -0.3017  0.5843 -0.0898
 8598SOL    HW234158   5.655   2.786   0.034 -1.5580  1.7720 -0.9729
 8598SOL    HW334159   5.764   2.859  -0.042 -0.1641  0.7577 -0.0127
 8598SOL    MW434160   5.717   2.848   0.031  0.1734  0.2210  0.0577
 8599SOL     OW34161   5.140   4.695   5.613 -0.0789 -0.5857 -0.3157
 8599SOL    HW234162   5.232   4.686   5.637 -0.2613  1.6674  1.6399
 8599SOL    HW334163   5.136   4.671   5.521  2.0238 -2.9260  0.1229
 8599SOL    MW434164   5.151   4.691   5.604  0.1144 -0.3407 -0.4905
 8600SOL     OW34165   1.096   0.256   5.087 -0.0279  0.3918 -0.4604
 8600SOL    HW234166   1.077   0.286   5.176  1.3875 -0.5800  0.2023
 8600SOL    HW334167   1.010   0.245   5.046 -0.8044 -0.8535  1.3736
 8600SOL    MW434168   1.082   0.259   5.093  0.3303  0.3361 -0.1030
 8601SOL     OW34169   0.396   3.428   1.457 -0.6414  0.0686  0.5545
 8601SOL    HW234170   0.386   3.334   1.440 -1.7605  0.1869  0.4872
 8601SOL    HW334171   0.486   3.437   1.490 -0.1686 -0.8817 -0.4010
 8601SOL    MW434172   0.407   3.416   1.459  0.3085 -0.7978 -0.1349
 8602SOL     OW34173   0.246   6.269   0.556 -0.1696 -0.4392 -0.0928
 8602SOL    HW234174   0.219   6.269   0.464 -0.0544  2.0159 -0.2039
 8602SOL    HW334175   0.169   6.238   0.603  0.2945 -3.3350 -1.0549
 8602SOL    MW434176   0.232   6.265   0.550  0.6209 -0.2328  0.3283
 8603SOL     OW34177   0.815   5.796   2.743  0.1569  0.1394  0.0513
 8603SOL    HW234178   0.877   5.865   2.719 -1.9289  2.5357  1.0925
 8603SOL    HW334179   0.810   5.801   2.838 -1.2735 -0.2924  0.0138
 8603SOL    MW434180   0.823   5.806   2.752 -1.0597 -0.2951 -0.2449
 8604SOL     OW34181   4.945   1.683   1.221 -0.0935  0.3090 -0.0369
 8604SOL    HW234182   4.964   1.656   1.311 -2.8348 -0.5178  0.4086
 8604SOL    HW334183   4.952   1.603   1.170  3.6531  1.1480 -1.1236
 8604SOL    MW434184   4.948   1.669   1.226  0.0920  0.4781  0.6479
 8605SOL     OW34185   5.479   5.357   0.827  0.3287  0.6830 -0.0808
 8605SOL    HW234186   5.430   5.275   0.832  2.0571 -0.3954  0.1209
 8605SOL    HW334187   5.487   5.386   0.918 -1.5258  1.9090 -0.2546
 8605SOL    MW434188   5.474   5.350   0.840  0.4083  0.3865  0.2741
 8606SOL     OW34189   6.242   3.911   2.288  0.1125  0.4337  1.0016
 8606SOL    HW234190   6.317   3.856   2.265 -0.8966 -0.2597 -0.9475
 8606SOL    HW334191   6.171   3.849   2.304 -0.8792  1.0817 -0.5655
 8606SOL    MW434192   6.242   3.895   2.287 -1.0145 -0.1521  0.1659
 8607SOL     OW34193   3.024   3.358   3.760 -0.1141 -0.3139  0.7049
 8607SOL    HW234194   3.040   3.287   3.821 -0.6331 -1.9663 -0.9860
 8607SOL    HW334195   2.929   3.356   3.745 -0.1342  0.7351  0.6151
 8607SOL    MW434196   3.014   3.349   3.766 -0.3919 -0.3724  0.0356
 8608SOL     OW34197   6.373   2.659   4.911 -0.2201  0.2656  0.0408
 8608SOL    HW234198   6.420   2.653   4.994 -0.2452  0.4722  0.0692
 8608SOL    HW334199   6.340   2.570   4.896  2.3272 -0.5800 -1.2607
 8608SOL    MW434200   6.375   2.646   4.920  0.2127 -0.2156 -0.2499
 8609SOL     OW34201   2.994   0.762   4.456  0.2210  0.0086 -0.1350
 8609SOL    HW234202   2.955   0.684   4.415 -4.0678  2.5460 -1.5829
 8609SOL    HW334203   2.930   0.788   4.522  1.0943  2.7202 -0.2657
 8609SOL    MW434204   2.980   0.755   4.459 -0.4230  0.3655  0.0795
 8610SOL     OW34205   2.481   3.459   0.823  0.1122 -0.6886  0.5507
 8610SOL    HW234206   2.477   3.490   0.914 -1.8344  2.0816 -0.3289
 8610SOL    HW334207   2.533   3.526   0.778 -1.0513 -0.6656 -0.8088
 8610SOL    MW434208   2.487   3.472   0.829  0.4457 -0.4783 -0.0854
 8611SOL     OW34209   1.925   5.384   0.446 -0.1122 -0.9792 -0.4589
 8611SOL    HW234210   1.990   5.454   0.457 -1.2647  0.2453 -1.1908
 8611SOL    HW334211   1.882   5.378   0.531 -3.0192  2.3683 -1.4580
 8611SOL    MW434212   1.928   5.393   0.459 -0.5245 -0.7077  0.3188
 8612SOL     OW34213   5.469   5.979   0.303  0.0512  0.0075  0.0578
 8612SOL    HW234214   5.479   6.035   0.226 -0.6463 -0.4947 -0.4138
 8612SOL    HW334215   5.550   5.929   0.308 -0.6150 -1.3374 -1.5027
 8612SOL    MW434216   5.481   5.980   0.294 -0.2666 -0.2171  0.0013
 8613SOL     OW34217   2.651   2.868   2.939 -0.5079  0.2517 -0.2050
 8613SOL    HW234218   2.603   2.948   2.962  1.5839  1.6040 -0.2933
 8613SOL    HW334219   2.609   2.837   2.859 -1.4978  1.1247 -0.0511
 8613SOL    MW434220   2.639   2.874   2.932 -0.4533  0.4438 -0.8000
 8614SOL     OW34221   0.048   5.124   4.527 -0.1435  0.3042  0.0862
 8614SOL    HW234222   0.069   5.134   4.434 -3.2623 -0.3053 -0.8022
 8614SOL    HW334223  -0.027   5.182   4.540 -0.5567 -0.5879  1.8919
 8614SOL    MW434224   0.041   5.133   4.516  0.1863  0.1485 -0.4964
 8615SOL     OW34225   1.145   6.104   0.529 -0.1975  0.6928  0.3317
 8615SOL    HW234226   1.190   6.029   0.490  0.7656  1.5399 -0.2422
 8615SOL    HW334227   1.066   6.116   0.475  0.5558  1.1632 -0.6995
 8615SOL    MW434228   1.140   6.096   0.517  0.1308 -0.2362 -0.4028
 8616SOL     OW34229   1.055   5.943   4.806 -0.5087  0.0717 -0.3361
 8616SOL    HW234230   1.148   5.923   4.814 -0.5463  0.3403  0.9496
 8616SOL    HW334231   1.051   6.017   4.746 -0.0870 -1.2641 -2.1115
 8616SOL    MW434232   1.066   5.950   4.799  0.4746  0.5582 -0.0473
 8617SOL     OW34233   0.799   2.722   2.886 -0.0439 -0.3018  0.1397
 8617SOL    HW234234   0.872   2.747   2.942 -1.1849 -0.9017  1.9729
 8617SOL    HW334235   0.838   2.661   2.823  0.6453 -2.7690  2.7398
 8617SOL    MW434236   0.814   2.717   2.885 -0.0618  0.3866  0.1460
 8618SOL     OW34237   5.814   3.304   0.751  0.3710 -0.1377  0.2484
 8618SOL    HW234238   5.818   3.291   0.846 -0.3183  0.8510  0.4220
 8618SOL    HW334239   5.838   3.218   0.715  2.8430  0.0150  1.2799
 8618SOL    MW434240   5.818   3.291   0.759  0.4423  0.2618 -0.3334
 8619SOL     OW34241   3.976   3.835   6.328 -0.2223  0.2506 -0.1314
 8619SOL    HW234242   4.031   3.858   6.253  0.5712 -2.3080 -0.4416
 8619SOL    HW334243   3.888   3.828   6.292 -0.1819  0.9149 -0.3819
 8619SOL    MW434244   3.972   3.837   6.313 -0.5247 -0.7909  0.1369
 8620SOL     OW34245   0.393   4.244   4.722  0.1685 -0.2585 -0.0182
 8620SOL    HW234246   0.435   4.198   4.650 -0.2828 -1.7385  0.6224
 8620SOL    HW334247   0.349   4.319   4.681  1.6023  0.0931 -0.9740
 8620SOL    MW434248   0.392   4.248   4.707 -0.2140  0.2089  0.0641
 8621SOL     OW34249   0.025   0.962   6.265  0.0318 -0.3702  0.2649
 8621SOL    HW234250   0.108   0.998   6.234  0.1732 -0.7555  0.1910
 8621SOL    HW334251   0.051   0.899   6.333 -0.1977 -0.5542  0.1794
 8621SOL    MW434252   0.039   0.959   6.270 -0.9632  0.0966  0.0853
 8622SOL     OW34253   5.531   0.838   4.328  0.2389 -0.0333  0.0094
 8622SOL    HW234254   5.441   0.854   4.299  0.7451  0.0955 -1.6080
 8622SOL    HW334255   5.541   0.892   4.406 -1.3962 -0.8585  0.8544
 8622SOL    MW434256   5.520   0.847   4.334 -0.0266  0.0773  0.0088
 8623SOL     OW34257   2.531   6.310   4.987 -0.0222 -0.3635 -0.4024
 8623SOL    HW234258   2.503   6.224   4.955 -2.3155  0.0421  0.3445
 8623SOL    HW334259   2.544   6.297   5.081  0.3424 -0.0374 -0.4055
 8623SOL    MW434260   2.529   6.297   4.995 -0.4477  0.4816  0.7558
 8624SOL     OW34261   1.315   2.491   3.046  0.5763 -0.1969 -0.5608
 8624SOL    HW234262   1.275   2.510   2.961  0.3316  0.8118 -0.2242
 8624SOL    HW334263   1.244   2.499   3.109  0.1621 -3.2950 -0.4504
 8624SOL    MW434264   1.301   2.494   3.043 -0.3735  0.2297 -0.1613
 8625SOL     OW34265   3.388   0.860   2.987 -0.1702  0.0177 -0.2743
 8625SOL    HW234266   3.342   0.809   3.053  0.4705 -0.4228 -0.1536
 8625SOL    HW334267   3.379   0.809   2.906 -1.2944  0.7508 -0.6394
 8625SOL    MW434268   3.381   0.846   2.985  0.3360  0.1700 -0.3077
 8626SOL     OW34269   4.767   2.085   3.112 -0.4326  0.1180  0.3196
 8626SOL    HW234270   4.677   2.119   3.110 -0.5306 -0.1400  0.3556
 8626SOL    HW334271   4.771   2.033   3.192 -0.1869  0.2977  0.4261
 8626SOL    MW434272   4.755   2.083   3.122  0.2657  0.2230  0.4262
 8627SOL     OW34273   4.176   2.405   0.276  0.2305  0.4030 -0.2587
 8627SOL    HW234274   4.195   2.497   0.291 -0.4496  0.3612  0.9998
 8627SOL    HW334275   4.126   2.403   0.195 -1.0603  1.3115  0.4940
 8627SOL    MW434276   4.172   2.417   0.267 -0.0452 -0.2525  0.6737
 8628SOL     OW34277   4.651   0.482   1.856 -0.2143  0.2281  0.3798
 8628SOL    HW234278   4.620   0.450   1.772  0.8268 -0.3967  0.2125
 8628SOL    HW334279   4.746   0.483   1.847 -0.1282  0.9414  1.2691
 8628SOL    MW434280   4.659   0.478   1.844  0.0826 -0.6051 -0.1564
 8629SOL     OW34281   2.816   4.486   3.107 -0.0670 -0.5353  0.1954
 8629SOL    HW234282   2.742   4.544   3.086 -0.3307 -0.6598  0.7751
 8629SOL    HW334283   2.889   4.523   3.057 -0.2031  0.3723  0.6352
 8629SOL    MW434284   2.816   4.499   3.097 -0.5168 -0.0167 -0.0551
 8630SOL     OW34285   4.431   4.865   5.355  0.1275 -0.3430  0.4599
 8630SOL    HW234286   4.426   4.890   5.448 -0.9682 -1.2005  0.6425
 8630SOL    HW334287   4.484   4.785   5.355  0.8442  0.1193  0.2366
 8630SOL    MW434288   4.438   4.858   5.367  0.1834 -0.5285 -0.2101
 8631SOL     OW34289   6.197   1.872   1.056 -0.3041  0.0697  0.2024
 8631SOL    HW234290   6.213   1.824   0.974 -0.8617 -0.0139  0.1373
 8631SOL    HW334291   6.216   1.963   1.034 -2.8838  0.4538 -0.7743
 8631SOL    MW434292   6.201   1.877   1.042 -0.3119  0.0811 -0.2419
 8632SOL     OW34293   0.931   1.757   2.446  0.6691  0.9023  0.5024
 8632SOL    HW234294   0.983   1.810   2.385  1.6571  2.7390  2.8064
 8632SOL    HW334295   0.882   1.820   2.497  0.9427 -0.4426  2.5523
 8632SOL    MW434296   0.932   1.772   2.445  0.6265 -0.3947  0.4232
 8633SOL     OW34297   3.359   5.715   5.980  0.2176  0.4046  0.3287
 8633SOL    HW234298   3.392   5.787   6.034 -2.9023  1.6842  0.7640
 8633SOL    HW334299   3.282   5.751   5.937 -0.5586 -2.2278 -0.7016
 8633SOL    MW434300   3.353   5.729   5.982 -0.1030  0.0958  0.0436
 8634SOL     OW34301   4.382   3.520   1.591  0.2452  0.3758  0.0438
 8634SOL    HW234302   4.472   3.553   1.587  0.6096 -0.5608  0.2060
 8634SOL    HW334303   4.364   3.488   1.502 -0.4023  1.7049 -0.3389
 8634SOL    MW434304   4.391   3.520   1.579 -0.1636  0.1707  0.1268
 8635SOL     OW34305   0.191   0.467   2.238 -0.4965  0.4121  0.1429
 8635SOL    HW234306   0.238   0.543   2.273 -0.7702  0.9340 -0.5978
 8635SOL    HW334307   0.138   0.436   2.311  1.8695 -0.9553  1.4137
 8635SOL    MW434308   0.190   0.473   2.252  0.2713  0.3513 -0.1113
 8636SOL     OW34309   4.747   5.671   6.135  0.2541 -0.7168  0.3828
 8636SOL    HW234310   4.758   5.583   6.172 -1.2122 -1.3776 -0.6459
 8636SOL    HW334311   4.664   5.702   6.170  0.9273  0.4285  1.0058
 8636SOL    MW434312   4.738   5.663   6.144 -0.0771  0.1492  0.0660
 8637SOL     OW34313   0.613   0.855   3.133 -0.4722 -0.0552 -0.4183
 8637SOL    HW234314   0.593   0.767   3.100 -0.7167  0.2764 -1.1832
 8637SOL    HW334315   0.661   0.840   3.214 -0.2180 -0.9018 -0.7149
 8637SOL    MW434316   0.617   0.841   3.139 -0.0785 -0.0114  0.2761
 8638SOL     OW34317   5.919   2.014   1.717  1.0508  0.2537  0.1298
 8638SOL    HW234318   5.935   2.107   1.737 -0.7657  0.4000  1.1204
 8638SOL    HW334319   5.866   2.016   1.638  1.5807  0.0087 -0.2387
 8638SOL    MW434320   5.914   2.027   1.709  0.1264  0.0001 -0.2399
 8639SOL     OW34321   3.821   1.743   5.035 -0.0306  0.1818  0.2283
 8639SOL    HW234322   3.912   1.772   5.028 -0.6181  1.9570 -0.8989
 8639SOL    HW334323   3.822   1.675   5.102  2.0837  0.3193  0.3950
 8639SOL    MW434324   3.833   1.738   5.043 -0.8129  0.5079 -0.0093
 8640SOL     OW34325   0.702   5.834   4.541  0.0700 -0.3611 -0.4104
 8640SOL    HW234326   0.725   5.750   4.580 -0.0593  0.6007  1.9583
 8640SOL    HW334327   0.777   5.856   4.485  1.4569 -0.7934  1.1772
 8640SOL    MW434328   0.715   5.826   4.539 -0.0470  0.2239  0.0344
 8641SOL     OW34329   1.629   1.802   4.031  0.1329 -0.0145 -0.1058
 8641SOL    HW234330   1.649   1.895   4.021 -0.1735  0.0547 -0.0888
 8641SOL    HW334331   1.682   1.759   3.964  1.2689  0.0411  0.7459
 8641SOL    MW434332   1.638   1.808   4.021 -0.0177 -0.2606 -0.5354
 8642SOL     OW34333   3.011   4.377   1.655  0.2318 -0.1542  0.1076
 8642SOL    HW234334   2.930   4.427   1.645  0.3281  0.1866  0.9488
 8642SOL    HW334335   2.993   4.315   1.726  0.2468 -1.0585 -0.6535
 8642SOL    MW434336   2.998   4.375   1.663  0.1966 -0.3587 -0.4490
 8643SOL     OW34337   2.808   0.049   4.552 -0.7569 -0.5736 -0.1368
 8643SOL    HW234338   2.836   0.034   4.462  0.2438  0.8469 -0.0759
 8643SOL    HW334339   2.837   0.137   4.573  0.2828 -1.3497  2.0518
 8643SOL    MW434340   2.815   0.058   4.543  0.5351  0.3182  0.2878
 8644SOL     OW34341   1.322   4.093   2.765 -0.4073 -0.0461 -0.1415
 8644SOL    HW234342   1.412   4.103   2.795 -0.8376 -0.1398  1.2319
 8644SOL    HW334343   1.325   4.022   2.701  0.4518 -0.2100  0.0782
 8644SOL    MW434344   1.334   4.085   2.760 -0.0962 -0.1764  0.2099
 8645SOL     OW34345   5.334   0.951   0.676 -0.3097 -0.0609 -0.3248
 8645SOL    HW234346   5.409   0.899   0.645 -1.4059 -0.8171 -1.8472
 8645SOL    HW334347   5.270   0.886   0.705 -0.6965  0.5382  0.1784
 8645SOL    MW434348   5.335   0.935   0.675  0.0739  0.5326  0.2255
 8646SOL     OW34349   6.049   3.383   3.664  0.4739  0.0426 -0.4953
 8646SOL    HW234350   6.019   3.389   3.755  0.3749 -0.5797 -0.4833
 8646SOL    HW334351   6.087   3.295   3.657  1.6938  0.5744 -0.6957
 8646SOL    MW434352   6.050   3.372   3.675  0.3111 -0.1407  0.2109
 8647SOL     OW34353   3.528   4.377   3.157 -0.0012 -0.3882  0.2788
 8647SOL    HW234354   3.588   4.450   3.175 -0.2085 -0.4813  1.4680
 8647SOL    HW334355   3.565   4.304   3.206 -0.6281 -0.6703  0.3380
 8647SOL    MW434356   3.541   4.377   3.166  0.3235  0.3527  0.4964
 8648SOL     OW34357   3.375   5.558   5.759 -0.6591 -0.3446 -0.6654
 8648SOL    HW234358   3.441   5.489   5.761 -1.5409 -1.2775 -2.0564
 8648SOL    HW334359   3.390   5.608   5.839  2.2774  0.0190 -1.3109
 8648SOL    MW434360   3.386   5.556   5.770  0.0018 -0.4393 -0.3422
 8649SOL     OW34361   2.666   3.363   3.084  0.3071  0.2315 -0.2469
 8649SOL    HW234362   2.681   3.413   3.004  2.9060 -2.5275 -1.7222
 8649SOL    HW334363   2.752   3.357   3.126 -0.2829 -1.2684  0.8774
 8649SOL    MW434364   2.679   3.369   3.079  0.2348  0.5195 -0.6668
 8650SOL     OW34365   1.394   4.235   0.592 -0.0951 -0.5079 -0.0025
 8650SOL    HW234366   1.385   4.324   0.628  2.2889  0.6183 -1.8920
 8650SOL    HW334367   1.446   4.189   0.658  0.2819  0.0891  0.1293
 8650SOL    MW434368   1.400   4.241   0.606  0.2746  0.3902 -0.0784
 8651SOL     OW34369   6.298   3.163   6.097  0.0571  0.1298  0.4517
 8651SOL    HW234370   6.326   3.133   6.183 -0.5838 -0.1115  0.5858
 8651SOL    HW334371   6.367   3.135   6.037  0.7698  0.7823  0.9626
 8651SOL    MW434372   6.310   3.155   6.100 -0.5537  0.4641  0.2651
 8652SOL     OW34373   0.847   2.942   4.426  0.2831  0.0921 -0.2778
 8652SOL    HW234374   0.927   2.993   4.430 -0.5289  1.4950 -1.0873
 8652SOL    HW334375   0.777   3.006   4.441 -0.7651 -0.7975 -1.1911
 8652SOL    MW434376   0.848   2.957   4.429 -0.2390  0.2537 -0.9738
 8653SOL     OW34377   0.618   1.786   5.250  0.3114  0.1019 -0.5987
 8653SOL    HW234378   0.701   1.741   5.265  0.6420  0.9983  0.4130
 8653SOL    HW334379   0.617   1.857   5.314 -1.0937  0.3078 -0.8033
 8653SOL    MW434380   0.629   1.789   5.261  0.5715 -0.0275 -0.2075
 8654SOL     OW34381   3.238   2.757   0.400  0.2271  0.4627  0.4081
 8654SOL    HW234382   3.165   2.707   0.437  0.3180  0.3737  0.4655
 8654SOL    HW334383   3.196   2.828   0.353  0.1067  0.4976  0.5670
 8654SOL    MW434384   3.223   2.760   0.399  0.1615 -0.4331  0.0359
 8655SOL     OW34385   3.166   0.524   3.480  0.6320  0.0104 -0.3194
 8655SOL    HW234386   3.098   0.457   3.470  0.1072  0.5583 -0.4280
 8655SOL    HW334387   3.200   0.538   3.392  0.0790  0.5770 -0.4455
 8655SOL    MW434388   3.161   0.517   3.467  0.0159 -0.1895 -0.1185
 8656SOL     OW34389   4.133   0.214   3.463  0.1516 -0.1776  0.1370
 8656SOL    HW234390   4.094   0.175   3.541 -0.5380  0.1118 -0.0513
 8656SOL    HW334391   4.060   0.260   3.420  0.5977 -0.0303 -0.4833
 8656SOL    MW434392   4.118   0.215   3.467  0.0102 -0.8228 -0.4724
 8657SOL     OW34393   5.859   3.679   4.422 -0.5487  0.2990  0.2251
 8657SOL    HW234394   5.930   3.721   4.470 -0.2987 -0.6701  0.7325
 8657SOL    HW334395   5.787   3.743   4.423 -0.3537  0.5132  1.4114
 8657SOL    MW434396   5.859   3.693   4.429  0.0101  0.4640  0.0925
 8658SOL     OW34397   3.744   3.949   0.272 -0.0413 -0.0237  0.5546
 8658SOL    HW234398   3.687   4.022   0.298 -0.0715  0.6455 -1.1879
 8658SOL    HW334399   3.812   3.990   0.218 -0.0587 -1.2655 -0.4766
 8658SOL    MW434400   3.745   3.964   0.268  0.1395  0.4050  0.2762
 8659SOL     OW34401   3.955   0.060   2.785  0.0567 -0.1825 -0.3921
 8659SOL    HW234402   3.891   0.065   2.856 -0.0455  0.4981 -0.5149
 8659SOL    HW334403   3.904   0.082   2.706 -0.1184 -2.1943 -0.8774
 8659SOL    MW434404   3.940   0.064   2.784  0.4702 -0.4744 -0.2094
 8660SOL     OW34405   1.867   2.713   2.387 -1.0183  0.4498 -0.7187
 8660SOL    HW234406   1.935   2.722   2.453 -1.4120 -2.4739  0.2643
 8660SOL    HW334407   1.822   2.797   2.387  0.1979  1.1889  1.3572
 8660SOL    MW434408   1.870   2.725   2.396 -0.4660 -0.3530  0.4040
 8661SOL     OW34409   5.976   0.510   0.419  0.0144 -0.9193  0.3081
 8661SOL    HW234410   5.934   0.429   0.390 -1.1736 -0.2983  0.2651
 8661SOL    HW334411   5.924   0.540   0.493 -0.9630  0.9805 -1.0482
 8661SOL    MW434412   5.964   0.503   0.425 -0.4327 -0.5766 -0.1691
 8662SOL     OW34413   4.040   2.138   1.361  0.3132  0.0096  0.2765
 8662SOL    HW234414   4.048   2.215   1.417  0.9454  0.8705 -0.9425
 8662SOL    HW334415   4.127   2.098   1.362  0.3605  0.0956 -0.1754
 8662SOL    MW434416   4.053   2.143   1.369 -0.4917 -0.2067 -0.3061
 8663SOL     OW34417   5.818   5.381   6.302 -0.4158  0.4069  0.2271
 8663SOL    HW234418   5.804   5.467   6.263 -0.9610  1.1264  1.8943
 8663SOL    HW334419   5.882   5.397   6.372  0.1001 -0.7034  0.0243
 8663SOL    MW434420   5.825   5.394   6.306 -0.3643 -0.0572  0.3475
 8664SOL     OW34421   3.497   3.301   5.697  0.2370  0.3581 -0.0044
 8664SOL    HW234422   3.500   3.309   5.602 -1.3686 -0.0394 -0.1176
 8664SOL    HW334423   3.586   3.277   5.722  0.4211 -0.6814 -1.5204
 8664SOL    MW434424   3.509   3.299   5.688 -0.4867  0.0717  0.6816
 8665SOL     OW34425   5.709   6.020   1.702  0.5584 -0.1822  0.0533
 8665SOL    HW234426   5.624   6.005   1.743  0.9779 -0.9205  0.6756
 8665SOL    HW334427   5.770   6.028   1.776  0.9513  0.8537 -0.3686
 8665SOL    MW434428   5.706   6.019   1.717  0.1885  0.2532 -0.5746
 8666SOL     OW34429   1.160   3.305   6.265 -0.3388 -0.0088  0.1719
 8666SOL    HW234430   1.248   3.311   6.229 -0.1281 -2.3989  0.1552
 8666SOL    HW334431   1.171   3.261   6.349 -1.5059 -0.2842  0.1967
 8666SOL    MW434432   1.173   3.300   6.272 -0.0546  0.2890  0.6020
 8667SOL     OW34433   5.731   2.497   3.422  0.2510  0.3956 -0.3352
 8667SOL    HW234434   5.818   2.468   3.447  0.5456 -0.9249 -2.6575
 8667SOL    HW334435   5.691   2.422   3.377 -1.7162  1.2792 -0.2010
 8667SOL    MW434436   5.737   2.484   3.419 -0.3335 -0.4314 -0.0149
 8668SOL     OW34437   3.197   0.641   1.293  0.0036 -0.3378 -0.1805
 8668SOL    HW234438   3.210   0.674   1.204  1.8286  0.3993  0.3155
 8668SOL    HW334439   3.231   0.551   1.290  0.6906 -0.0903 -0.0926
 8668SOL    MW434440   3.203   0.633   1.281  0.1011  0.4669  0.2279
 8669SOL     OW34441   5.760   1.017   6.073 -0.2219 -0.3865 -0.3925
 8669SOL    HW234442   5.833   0.981   6.124 -1.5279 -1.0507  1.0555
 8669SOL    HW334443   5.780   1.110   6.067  0.9017 -0.6024 -0.2806
 8669SOL    MW434444   5.773   1.024   6.079 -0.2176 -0.6966 -0.6246
 8670SOL     OW34445   1.676   6.319   1.617  0.2446 -0.2657  0.1083
 8670SOL    HW234446   1.586   6.331   1.587 -0.6050 -2.7718  1.3428
 8670SOL    HW334447   1.671   6.325   1.713  1.7332  1.2547  0.1343
 8670SOL    MW434448   1.664   6.321   1.626  0.0875  0.3315 -0.2512
 8671SOL     OW34449   0.512   4.227   5.385  0.5995 -0.0479 -0.1252
 8671SOL    HW234450   0.516   4.217   5.290 -0.7209 -0.0907 -0.1933
 8671SOL    HW334451   0.434   4.280   5.400  0.2636 -0.8296  0.9901
 8671SOL    MW434452   0.502   4.233   5.374 -0.4859 -0.1198 -0.3956
 8672SOL     OW34453   0.333   1.960   1.348  0.1452  0.0503 -0.0157
 8672SOL    HW234454   0.240   1.955   1.370  0.8140 -0.6693  3.2620
 8672SOL    HW334455   0.372   2.010   1.420  2.3244  0.3022 -1.2705
 8672SOL    MW434456   0.326   1.966   1.361 -0.0063 -0.3416  0.1151
 8673SOL     OW34457   1.095   5.683   3.975  0.2884  0.3075 -0.5802
 8673SOL    HW234458   1.038   5.693   4.051  0.2384 -0.5598 -0.4941
 8673SOL    HW334459   1.036   5.659   3.903  0.3737  0.8218 -0.8318
 8673SOL    MW434460   1.080   5.681   3.975 -0.0422  0.1386 -0.1220
 8674SOL     OW34461   5.690   0.926   5.101 -0.2176  0.2983  0.0989
 8674SOL    HW234462   5.604   0.966   5.112 -1.1397 -1.7105  0.6936
 8674SOL    HW334463   5.726   0.921   5.190 -1.7515 -3.4428  0.6861
 8674SOL    MW434464   5.684   0.931   5.115  0.2132 -0.3446  0.1659
 8675SOL     OW34465   6.280   1.186   6.317  0.3728  0.1936  0.0663
 8675SOL    HW234466   6.336   1.262   6.326 -0.1825  0.5429  0.6839
 8675SOL    HW334467   6.338   1.115   6.288  1.4106  0.1821  2.0398
 8675SOL    MW434468   6.295   1.186   6.314 -0.4190  0.2453  0.3157
 8676SOL     OW34469   3.654   6.254   1.500 -0.7147 -0.3092 -0.0595
 8676SOL    HW234470   3.629   6.333   1.452 -0.6500 -0.8598 -1.0306
 8676SOL    HW334471   3.617   6.267   1.588 -4.0855 -0.8362 -1.2218
 8676SOL    MW434472   3.646   6.266   1.505  0.1054  0.0419  0.4205
 8677SOL     OW34473   5.129   2.636   5.997  0.0767  0.1516  0.0762
 8677SOL    HW234474   5.044   2.637   6.042 -0.1181 -0.2816 -0.2701
 8677SOL    HW334475   5.188   2.591   6.058  0.1517  0.7838  0.4756
 8677SOL    MW434476   5.126   2.630   6.011 -0.0299 -0.3323 -0.4096
 8678SOL     OW34477   5.431   4.866   2.586  0.6457  0.2961 -0.2695
 8678SOL    HW234478   5.428   4.958   2.561  1.0388 -0.2310 -2.4227
 8678SOL    HW334479   5.352   4.828   2.547  0.8092 -0.4052  0.0601
 8678SOL    MW434480   5.420   4.873   2.578 -0.2817 -0.0557  0.5591
 8679SOL     OW34481   0.180   4.146   4.415 -0.2768  0.6789  0.0139
 8679SOL    HW234482   0.208   4.102   4.334 -3.7743 -1.5233 -0.1884
 8679SOL    HW334483   0.201   4.238   4.399  1.9448 -0.0518 -2.0639
 8679SOL    MW434484   0.187   4.152   4.402  0.4338  0.1579 -0.2305
 8680SOL     OW34485   2.843   0.016   4.267  0.7603  0.3867 -0.1690
 8680SOL    HW234486   2.874   0.066   4.192  1.4802  0.3822  0.1195
 8680SOL    HW334487   2.748   0.014   4.257  0.8937 -0.2447 -1.4731
 8680SOL    MW434488   2.834   0.023   4.256  0.4032  0.1978  0.4487
 8681SOL     OW34489   5.090   6.049   3.259 -0.7133  0.6045 -0.4714
 8681SOL    HW234490   5.024   6.039   3.327  0.3730  0.3513  0.5964
 8681SOL    HW334491   5.071   5.980   3.196 -1.7045  0.7988 -0.4011
 8681SOL    MW434492   5.079   6.039   3.260  0.9623  0.2608 -0.0672
 8682SOL     OW34493   3.166   2.359   0.219  0.2396 -0.1793 -0.4701
 8682SOL    HW234494   3.214   2.292   0.169  0.6381 -1.4448  1.4834
 8682SOL    HW334495   3.146   2.427   0.155 -0.3024 -2.2244 -2.6119
 8682SOL    MW434496   3.170   2.359   0.204  0.2725  0.2881  0.0571
 8683SOL     OW34497   0.652   4.555   6.406  0.4534 -0.1888  0.0890
 8683SOL    HW234498   0.605   4.613   6.466  0.4449  1.1825 -1.2105
 8683SOL    HW334499   0.624   4.467   6.432 -1.9757  0.5098  0.0817
 8683SOL    MW434500   0.643   4.551   6.418  0.5971 -0.2957 -0.1530
 8684SOL     OW34501   3.356   4.718   4.638 -0.0089 -0.0115 -0.1823
 8684SOL    HW234502   3.417   4.782   4.674  0.3302  0.3439 -1.3240
 8684SOL    HW334503   3.389   4.701   4.549 -1.6528  0.3122 -0.8965
 8684SOL    MW434504   3.369   4.724   4.631 -0.0469 -0.0382 -0.1106
 8685SOL     OW34505   5.843   1.166   3.709  0.6414 -0.1738 -0.3749
 8685SOL    HW234506   5.914   1.112   3.672  0.5399  0.3486 -1.3496
 8685SOL    HW334507   5.828   1.128   3.796  1.5130 -0.8497 -0.5002
 8685SOL    MW434508   5.850   1.154   3.716 -0.1019 -0.0691 -0.3529
 8686SOL     OW34509   3.783   1.268   5.048 -0.2449  0.7282  0.1367
 8686SOL    HW234510   3.768   1.215   5.126  1.1698 -0.2436 -0.2025
 8686SOL    HW334511   3.734   1.222   4.979 -1.7025  1.7286  0.4788
 8686SOL    MW434512   3.775   1.255   5.049 -0.2069 -0.2678  0.0194
 8687SOL     OW34513   0.646   4.045   2.326  0.7847  0.2205  0.1748
 8687SOL    HW234514   0.710   4.032   2.395 -0.0265 -1.2478  0.6955
 8687SOL    HW334515   0.610   3.957   2.309 -0.6291  0.8973 -0.5333
 8687SOL    MW434516   0.650   4.031   2.333 -0.5012  0.6347 -0.3658
 8688SOL     OW34517   1.755   5.576   5.995 -0.0410 -0.1744  0.3883
 8688SOL    HW234518   1.812   5.551   5.923 -1.1595  0.6356 -0.8238
 8688SOL    HW334519   1.776   5.514   6.066  0.7577 -1.2703 -0.7718
 8688SOL    MW434520   1.765   5.565   5.995  0.2312 -0.0362 -0.4006
 8689SOL     OW34521   1.409   0.042   3.812 -0.4729 -1.0348  0.4416
 8689SOL    HW234522   1.487  -0.011   3.796  0.0795 -0.2888  0.5882
 8689SOL    HW334523   1.439   0.110   3.873 -1.0524 -0.3198 -0.0512
 8689SOL    MW434524   1.423   0.044   3.818 -0.0946 -0.3174  0.9116
 8690SOL     OW34525   0.320   3.190   4.384 -0.1549  0.0671 -0.0693
 8690SOL    HW234526   0.375   3.263   4.354  0.7316 -0.8914 -0.8873
 8690SOL    HW334527   0.238   3.231   4.412  0.0410  1.3025 -1.2002
 8690SOL    MW434528   0.317   3.205   4.384 -0.4050 -0.1135 -0.4257
 8691SOL     OW34529   1.662   5.705   5.551 -0.1500 -0.1320  0.3635
 8691SOL    HW234530   1.729   5.652   5.507 -1.4862 -2.4798  0.9850
 8691SOL    HW334531   1.712   5.759   5.612  1.4511  0.8395 -1.6801
 8691SOL    MW434532   1.678   5.705   5.553  0.2744 -0.1628  0.9114
 8692SOL     OW34533   1.594   4.322   2.572  0.0295 -0.2432  0.0489
 8692SOL    HW234534   1.628   4.233   2.583 -3.0100 -1.4032  1.0356
 8692SOL    HW334535   1.527   4.314   2.504 -0.0525  1.3903 -0.1022
 8692SOL    MW434536   1.590   4.310   2.564 -0.0109 -0.6098  0.3057
 8693SOL     OW34537   2.869   6.102   3.181  0.5087 -0.2200 -0.1761
 8693SOL    HW234538   2.904   6.022   3.222  1.7467  0.8741  0.9771
 8693SOL    HW334539   2.802   6.133   3.242  0.3077 -0.1497 -0.4288
 8693SOL    MW434540   2.865   6.095   3.195 -0.3116 -0.1645  0.3284
 8694SOL     OW34541   2.219   3.071   5.299 -0.1654  0.4540  0.2153
 8694SOL    HW234542   2.203   2.986   5.340 -0.1787  1.2017  1.8565
 8694SOL    HW334543   2.157   3.076   5.227  1.0535 -1.6549 -1.0779
 8694SOL    MW434544   2.209   3.061   5.295  0.3311  0.1492 -0.2154
 8695SOL     OW34545   4.201   0.615   2.805  1.0140 -0.4095  0.3095
 8695SOL    HW234546   4.289   0.645   2.784  0.2073  0.7075 -1.6641
 8695SOL    HW334547   4.212   0.521   2.822  2.7179 -0.0955  1.2069
 8695SOL    MW434548   4.214   0.606   2.804  0.3927  0.6820  0.7013
 8696SOL     OW34549   0.026   5.386   0.589 -0.1293 -0.1389  0.6100
 8696SOL    HW234550   0.020   5.293   0.565  2.2961  0.4048 -2.9565
 8696SOL    HW334551   0.099   5.390   0.650 -0.1448 -0.5582  0.6599
 8696SOL    MW434552   0.035   5.374   0.594  0.3475 -0.9326 -0.1510
 8697SOL     OW34553   2.097   3.878   0.747  0.5038 -0.4485  0.2378
 8697SOL    HW234554   2.190   3.876   0.722  0.5781 -1.5782  0.5301
 8697SOL    HW334555   2.072   3.785   0.750  0.1933 -0.3602  3.1292
 8697SOL    MW434556   2.106   3.865   0.744  0.4662 -0.0808  0.4009
 8698SOL     OW34557   6.005   0.094   2.022  0.0489 -0.4179  0.0486
 8698SOL    HW234558   5.942   0.051   2.080 -2.5873  3.8170  0.7367
 8698SOL    HW334559   5.954   0.119   1.945  1.1724  1.7801 -0.0792
 8698SOL    MW434560   5.990   0.092   2.020  0.8385 -0.3466 -0.6198
 8699SOL     OW34561   5.542   5.855   4.590 -0.2474  0.7434 -0.2654
 8699SOL    HW234562   5.455   5.891   4.607 -0.8573 -0.9224  0.4455
 8699SOL    HW334563   5.550   5.782   4.652  1.3735  0.4161 -0.8032
 8699SOL    MW434564   5.532   5.850   4.601  0.9241  0.3139  0.3931
 8700SOL     OW34565   2.820   6.356   2.024  0.3338 -0.0682 -0.2928
 8700SOL    HW234566   2.780   6.311   1.950  0.2077  0.1564 -0.3602
 8700SOL    HW334567   2.862   6.286   2.074  0.3661 -0.2289 -0.5415
 8700SOL    MW434568   2.821   6.341   2.021 -0.1254  0.1050 -0.2016
 8701SOL     OW34569   5.099   2.867   0.656 -0.3060  0.2530 -0.3204
 8701SOL    HW234570   5.031   2.930   0.678 -1.5067 -0.9121 -0.5400
 8701SOL    HW334571   5.161   2.872   0.729 -0.0762  2.0332 -0.5939
 8701SOL    MW434572   5.098   2.876   0.668  0.1789  0.6428 -0.3628
 8702SOL     OW34573   2.105   4.630   3.025 -0.4633  0.3415 -1.1801
 8702SOL    HW234574   2.060   4.636   2.941  0.5162  0.6536 -1.7028
 8702SOL    HW334575   2.181   4.574   3.006 -1.4581 -1.5212  0.0526
 8702SOL    MW434576   2.109   4.623   3.011  0.5208  0.0869  0.2310
 8703SOL     OW34577   3.960   3.131   4.315  0.0806  0.2358 -0.1297
 8703SOL    HW234578   3.873   3.169   4.306 -0.7744 -1.1700  1.6397
 8703SOL    HW334579   4.007   3.191   4.372 -0.7670 -0.5142  1.4117
 8703SOL    MW434580   3.955   3.144   4.321 -0.1408 -0.1359 -0.7143
 8704SOL     OW34581   0.517   1.783   2.513  0.0649  0.2906  0.1932
 8704SOL    HW234582   0.540   1.691   2.499  0.0826  0.1778  0.9154
 8704SOL    HW334583   0.444   1.798   2.453  0.6745  0.0815 -0.6226
 8704SOL    MW434584   0.510   1.773   2.503  0.1644 -0.1716  0.4077
 8705SOL     OW34585   4.199   0.899   3.016 -0.0842  0.0452  0.6312
 8705SOL    HW234586   4.291   0.873   3.011 -0.4136 -1.2713  1.0628
 8705SOL    HW334587   4.154   0.821   3.048 -1.3698  0.6468  0.3363
 8705SOL    MW434588   4.205   0.885   3.020  0.4222  0.1415 -0.4135
 8706SOL     OW34589   3.142   6.274   4.460 -0.0850  0.3492  0.4950
 8706SOL    HW234590   3.161   6.368   4.470 -1.1763  0.6718 -0.2174
 8706SOL    HW334591   3.168   6.255   4.370 -1.8917  0.5340 -0.1223
 8706SOL    MW434592   3.148   6.284   4.449  0.4082  0.6205 -0.3789
 8707SOL     OW34593   3.614   0.253   0.490  0.2930 -0.1437 -0.1033
 8707SOL    HW234594   3.631   0.318   0.422 -1.1742  0.5848  0.1730
 8707SOL    HW334595   3.518   0.247   0.492  0.3739 -1.2771  0.8535
 8707SOL    MW434596   3.603   0.261   0.481  0.4380  0.4242  0.0123
 8708SOL     OW34597   5.671   0.381   5.109  0.2438 -0.2668  0.3956
 8708SOL    HW234598   5.718   0.346   5.034 -0.3977 -0.7908  0.2260
 8708SOL    HW334599   5.602   0.316   5.126  1.4134 -1.0577  2.5071
 8708SOL    MW434600   5.668   0.367   5.102  0.0650 -0.0713 -0.1967
 8709SOL     OW34601   2.355   5.617   1.050 -0.0480  0.1163  0.6066
 8709SOL    HW234602   2.371   5.694   1.104  0.9982  0.0231  0.4519
 8709SOL    HW334603   2.415   5.551   1.084 -0.6376 -0.5098  0.4687
 8709SOL    MW434604   2.365   5.618   1.062  0.4726  0.4636 -0.0092
 8710SOL     OW34605   4.365   6.028   3.836 -0.0260 -0.1545  0.1474
 8710SOL    HW234606   4.336   5.948   3.878 -1.2416 -0.6111 -1.4872
 8710SOL    HW334607   4.349   6.014   3.743  2.3915  0.8893 -0.5017
 8710SOL    MW434608   4.359   6.016   3.829 -0.0364 -0.0934  0.5688
 8711SOL     OW34609   4.848   1.289   1.373  0.0954  0.4305 -0.7363
 8711SOL    HW234610   4.815   1.270   1.460 -0.2891  0.0271 -0.9684
 8711SOL    HW334611   4.784   1.350   1.335  0.5005  0.9679 -0.5736
 8711SOL    MW434612   4.835   1.295   1.379 -0.0899 -0.3573  0.1286
 8712SOL     OW34613   5.020   2.601   4.418  0.5775 -0.3701  0.4037
 8712SOL    HW234614   4.941   2.626   4.465  0.5296 -0.4708  0.3779
 8712SOL    HW334615   5.092   2.635   4.471  0.5245 -0.4990  0.5555
 8712SOL    MW434616   5.019   2.609   4.431  0.2094  0.0523 -0.1329
 8713SOL     OW34617   2.452   1.687   4.782 -0.1989  0.1027 -0.0257
 8713SOL    HW234618   2.471   1.611   4.837  2.3845 -0.9189 -2.1364
 8713SOL    HW334619   2.522   1.749   4.802 -0.0750  0.3227 -1.0979
 8713SOL    MW434620   2.464   1.685   4.792  0.5302  0.1252  0.3108
 8714SOL     OW34621   4.411   1.535   1.627 -0.5904  0.2719  0.0981
 8714SOL    HW234622   4.415   1.454   1.576  0.5772  0.9441 -0.9182
 8714SOL    HW334623   4.345   1.588   1.583  0.6185  0.9656 -0.9172
 8714SOL    MW434624   4.403   1.531   1.615  0.7545 -0.6072 -0.2725
 8715SOL     OW34625   2.985   5.280   2.443  0.4587 -0.1953  0.1226
 8715SOL    HW234626   3.016   5.359   2.398 -1.2432  0.0104 -0.7968
 8715SOL    HW334627   2.999   5.298   2.536 -2.1981  2.3621  0.1875
 8715SOL    MW434628   2.991   5.293   2.449  0.0545 -0.1623 -0.0493
 8716SOL     OW34629   3.297   5.517   2.905 -0.5719  0.2225 -0.3411
 8716SOL    HW234630   3.203   5.503   2.905 -0.6392  0.6276 -0.8782
 8716SOL    HW334631   3.318   5.543   2.995 -0.7852 -1.0118  0.0839
 8716SOL    MW434632   3.288   5.519   2.917  0.5796 -0.2575  0.2174
 8717SOL     OW34633   1.152   1.141   6.408 -0.2136  0.0963 -0.2963
 8717SOL    HW234634   1.099   1.064   6.429  2.0945 -1.5131 -0.0180
 8717SOL    HW334635   1.217   1.145   6.478  1.7372  0.3161 -2.0245
 8717SOL    MW434636   1.153   1.131   6.420 -0.2073  0.2910 -0.9440
 8718SOL     OW34637   6.149   2.549   3.325  0.0548  0.7591 -0.0741
 8718SOL    HW234638   6.163   2.512   3.238 -1.1724  1.6194 -0.6779
 8718SOL    HW334639   6.112   2.636   3.308  0.3455  1.1750  1.3120
 8718SOL    MW434640   6.146   2.555   3.311  0.4628  0.2649 -0.4416
 8719SOL     OW34641   5.187   5.541   1.903 -0.3886  0.6740 -0.5054
 8719SOL    HW234642   5.124   5.498   1.844  0.7904 -1.1844 -0.4908
 8719SOL    HW334643   5.273   5.515   1.869  0.3285  0.6161  1.2658
 8719SOL    MW434644   5.190   5.532   1.890  0.1112 -0.4041 -0.5319
 8720SOL     OW34645   5.809   3.368   0.339  0.2789  0.0736 -0.5630
 8720SOL    HW234646   5.901   3.363   0.312  0.8989 -3.5693  1.5726
 8720SOL    HW334647   5.763   3.306   0.282 -0.5831  0.7248 -0.5964
 8720SOL    MW434648   5.815   3.359   0.328 -0.0674  0.2923 -0.1340
 8721SOL     OW34649   4.215   1.447   0.344  0.4283 -0.4684 -0.7290
 8721SOL    HW234650   4.183   1.518   0.401  0.7189  0.2879 -1.4777
 8721SOL    HW334651   4.303   1.429   0.376 -0.0393 -1.2588  0.1523
 8721SOL    MW434652   4.222   1.454   0.356  0.1777  0.2252  0.4457
 8722SOL     OW34653   5.054   2.315   3.808  0.0223 -0.1093  0.7494
 8722SOL    HW234654   5.113   2.268   3.866  1.9214  0.3584 -0.7021
 8722SOL    HW334655   5.109   2.379   3.763 -1.4806  0.0439 -1.0258
 8722SOL    MW434656   5.069   2.318   3.809 -0.0719 -0.5915  0.0472
 8723SOL     OW34657   4.972   3.164   0.700 -0.0036  0.0140  0.7345
 8723SOL    HW234658   4.917   3.153   0.623  0.4442  0.7528  0.2944
 8723SOL    HW334659   5.045   3.219   0.670  1.1469 -1.1971  1.2230
 8723SOL    MW434660   4.974   3.170   0.686 -0.1069 -0.1124  0.0804
 8724SOL     OW34661   3.545   4.929   4.379 -0.1175  0.3328 -0.3253
 8724SOL    HW234662   3.495   4.998   4.335  2.0513  0.9410 -1.9705
 8724SOL    HW334663   3.635   4.963   4.382  0.5737 -1.4702  0.9244
 8724SOL    MW434664   3.550   4.943   4.374  0.1727  0.2908 -0.7997
 8725SOL     OW34665   2.930   5.014   2.314  0.1921 -0.0779  0.0985
 8725SOL    HW234666   3.016   4.972   2.315  1.3549  2.1870  0.4174
 8725SOL    HW334667   2.944   5.101   2.351 -1.8290  1.1103 -1.6509
 8725SOL    MW434668   2.943   5.020   2.319 -0.6957  0.0400 -0.2117
 8726SOL     OW34669   3.698   4.752   0.009 -0.1970  0.5800  0.0828
 8726SOL    HW234670   3.745   4.822  -0.036  1.4089 -1.2603 -1.2809
 8726SOL    HW334671   3.613   4.748  -0.035  0.4820  0.3591 -1.2841
 8726SOL    MW434672   3.693   4.761  -0.003 -0.2743  0.0188  0.1338
 8727SOL     OW34673   0.060   3.530   2.338 -0.0570  0.4654 -0.5459
 8727SOL    HW234674   0.152   3.504   2.346 -0.1654  0.4017  0.7544
 8727SOL    HW334675   0.061   3.604   2.277  0.7949  0.2012 -0.8734
 8727SOL    MW434676   0.073   3.536   2.331  0.0597 -0.4739 -0.3371
 8728SOL     OW34677   0.292   1.432   2.418 -0.2397  0.0972  0.0244
 8728SOL    HW234678   0.364   1.476   2.372  0.6292 -2.0354 -0.8083
 8728SOL    HW334679   0.213   1.462   2.372 -0.1880  3.7049  1.9413
 8728SOL    MW434680   0.291   1.442   2.406 -0.6452 -1.0401 -1.0272
 8729SOL     OW34681   5.028   4.137   1.731  0.0258 -0.2697 -0.2598
 8729SOL    HW234682   5.002   4.185   1.809 -0.7388  2.0493 -1.8297
 8729SOL    HW334683   5.123   4.129   1.737 -0.0744 -0.6578  1.1360
 8729SOL    MW434684   5.037   4.142   1.742  0.0434 -0.1385 -0.0755
 8730SOL     OW34685   0.908   2.736   4.878 -0.2587  0.3562 -0.1885
 8730SOL    HW234686   0.895   2.736   4.783 -0.7253  1.3534 -0.1387
 8730SOL    HW334687   1.001   2.718   4.890  0.2788  2.3435 -0.9304
 8730SOL    MW434688   0.918   2.734   4.867  0.3487  0.2110  0.6058
 8731SOL     OW34689   1.423   0.002   3.126  0.3669  0.1019  0.0011
 8731SOL    HW234690   1.374   0.024   3.047  1.4413  2.1440 -0.1431
 8731SOL    HW334691   1.419  -0.094   3.130 -1.2142  0.0513 -1.5258
 8731SOL    MW434692   1.416  -0.008   3.116 -0.1237  0.1862 -0.0090
 8732SOL     OW34693   4.313   3.511   4.413  0.0690  0.2699  0.0952
 8732SOL    HW234694   4.389   3.545   4.366  1.3447  1.9172  3.0614
 8732SOL    HW334695   4.350   3.467   4.490 -1.9432 -0.3018  0.7995
 8732SOL    MW434696   4.328   3.510   4.417  0.6812  0.3738 -0.2734
 8733SOL     OW34697   5.618   1.815   6.374 -0.1015  0.8078  0.0015
 8733SOL    HW234698   5.636   1.723   6.389  1.1514  0.7301 -1.6586
 8733SOL    HW334699   5.523   1.821   6.370 -0.1761 -0.6503 -1.1359
 8733SOL    MW434700   5.608   1.804   6.376 -0.4175 -0.1359  0.3220
 8734SOL     OW34701   2.456   2.571   6.161  0.0698  0.0462  0.0767
 8734SOL    HW234702   2.434   2.662   6.140 -0.3769 -0.2700 -0.8756
 8734SOL    HW334703   2.389   2.544   6.223 -1.3051 -0.3887 -1.5320
 8734SOL    MW434704   2.445   2.580   6.167  0.1227 -0.3376 -0.5458
 8735SOL     OW34705   1.281   0.965   1.575 -0.0136  0.1575  0.0688
 8735SOL    HW234706   1.372   0.954   1.600 -0.0371 -1.3074 -0.3904
 8735SOL    HW334707   1.279   1.048   1.527  0.5863  1.4403  2.1288
 8735SOL    MW434708   1.292   0.974   1.572  0.3076 -0.2465 -0.7882
 8736SOL     OW34709   3.826   2.967   5.236  0.3310 -0.3126 -0.1534
 8736SOL    HW234710   3.772   2.976   5.313  0.6900  2.6182 -0.1557
 8736SOL    HW334711   3.769   2.991   5.163  0.6941 -0.6250 -0.5495
 8736SOL    MW434712   3.812   2.971   5.236 -0.3892  0.2269 -0.4001
 8737SOL     OW34713   1.849   1.611   0.976 -0.1547  0.1293 -0.2489
 8737SOL    HW234714   1.762   1.641   0.952 -0.4001 -0.6387 -0.3318
 8737SOL    HW334715   1.842   1.516   0.982  0.2021  0.1757  1.6414
 8737SOL    MW434716   1.837   1.602   0.973 -0.1707 -0.2572 -0.1902
 8738SOL     OW34717   0.669   2.448   2.366  0.6978 -0.1053 -0.0854
 8738SOL    HW234718   0.760   2.478   2.369  1.0163 -1.0076 -0.2969
 8738SOL    HW334719   0.662   2.385   2.438  0.0428  0.4711  0.3656
 8738SOL    MW434720   0.680   2.443   2.376 -0.1548 -0.0173 -0.0108
 8739SOL     OW34721   1.264   3.222   2.791 -0.1531 -0.1271 -0.0819
 8739SOL    HW234722   1.348   3.262   2.809  0.3032 -0.1945 -1.8196
 8739SOL    HW334723   1.242   3.253   2.703 -1.5398 -0.7845  0.0071
 8739SOL    MW434724   1.272   3.232   2.781 -0.0325  0.5001 -0.4769
 8740SOL     OW34725   1.614   2.355   5.366 -0.5310  0.0740  0.5804
 8740SOL    HW234726   1.563   2.306   5.301  1.9315  0.1962 -1.5897
 8740SOL    HW334727   1.655   2.287   5.420 -0.6577 -0.0986  0.4643
 8740SOL    MW434728   1.612   2.339   5.365 -0.2246 -0.1618  0.4447
 8741SOL     OW34729   6.352   0.792   6.025 -0.5505  0.3311  0.0184
 8741SOL    HW234730   6.318   0.852   5.959 -2.4718 -0.4646  0.2088
 8741SOL    HW334731   6.376   0.848   6.099 -1.6274  0.9622 -0.0845
 8741SOL    MW434732   6.351   0.807   6.026  0.3150 -0.2669 -0.4076
 8742SOL     OW34733   6.350   0.440   4.328 -0.8306 -0.1823 -0.0781
 8742SOL    HW234734   6.318   0.499   4.259  0.2890  1.1440  0.4841
 8742SOL    HW334735   6.443   0.460   4.335  0.3056 -4.0347 -1.7977
 8742SOL    MW434736   6.358   0.451   4.320 -0.2934  0.1546  0.8064
 8743SOL     OW34737   4.834   2.849   2.464 -0.5114  0.5584 -0.1772
 8743SOL    HW234738   4.779   2.919   2.498 -0.4726 -0.1791  1.5137
 8743SOL    HW334739   4.865   2.881   2.379  0.1377  2.8959  0.8782
 8743SOL    MW434740   4.831   2.862   2.457 -0.1501 -0.2120 -0.6467
 8744SOL     OW34741   3.835   6.081   5.484  0.4784 -0.1576 -0.2877
 8744SOL    HW234742   3.888   6.033   5.546 -0.6307  1.4556  2.0557
 8744SOL    HW334743   3.890   6.155   5.458 -0.5727  1.7469  2.4571
 8744SOL    MW434744   3.849   6.085   5.489 -0.2165  0.0891  0.1003
 8745SOL     OW34745   5.484   5.416   3.088  0.2689  0.2441  0.7314
 8745SOL    HW234746   5.512   5.468   3.013 -2.2593  0.3928 -0.2043
 8745SOL    HW334747   5.466   5.329   3.051 -1.4925  0.4591  1.0013
 8745SOL    MW434748   5.485   5.411   3.073 -0.4665  0.0192 -0.1050
 8746SOL     OW34749   4.944   2.561   1.073 -0.6981  0.3180 -0.0651
 8746SOL    HW234750   4.951   2.652   1.045  1.0901 -0.0281 -0.8128
 8746SOL    HW334751   4.993   2.557   1.155  0.4165 -0.2352 -0.7343
 8746SOL    MW434752   4.951   2.573   1.080  0.0133  0.0988  0.2340
 8747SOL     OW34753   2.598   5.904   3.079  0.1278  0.3270  0.3634
 8747SOL    HW234754   2.641   5.827   3.116 -2.4612 -1.0198  0.7887
 8747SOL    HW334755   2.561   5.874   2.997 -0.1468  1.3864  0.0795
 8747SOL    MW434756   2.599   5.890   3.073 -0.1735  0.4917 -0.7555
 8748SOL     OW34757   5.876   5.452   3.980  0.3409  0.3651 -0.5776
 8748SOL    HW234758   5.806   5.446   3.915 -1.0715 -0.8125  0.9541
 8748SOL    HW334759   5.832   5.442   4.064  2.3588 -0.5877  0.4600
 8748SOL    MW434760   5.861   5.450   3.983 -0.1761  0.0054  0.3367
 8749SOL     OW34761   3.365   4.628   3.762  0.4516  0.1812 -0.0058
 8749SOL    HW234762   3.348   4.618   3.856  1.3459  3.6263  0.6934
 8749SOL    HW334763   3.458   4.649   3.757  0.8763 -1.8678 -1.9475
 8749SOL    MW434764   3.375   4.630   3.774  0.2922  0.0366  0.0491
 8750SOL     OW34765   0.324   2.245   5.557 -0.5545 -0.5462 -0.4570
 8750SOL    HW234766   0.324   2.200   5.472 -1.2534 -1.9584  0.2611
 8750SOL    HW334767   0.255   2.201   5.607  0.7944 -0.7035  1.3430
 8750SOL    MW434768   0.315   2.233   5.552 -0.1292  0.0411  0.2373
 8751SOL     OW34769   0.935   2.064   2.983  0.2260 -0.0965 -0.1565
 8751SOL    HW234770   0.910   2.001   2.916 -0.2840  0.5358 -0.5727
 8751SOL    HW334771   0.862   2.063   3.045  0.2298  0.0682 -0.1502
 8751SOL    MW434772   0.922   2.056   2.982  0.0326  0.0102  0.1327
 8752SOL     OW34773   2.646   0.067   3.925  0.2960 -0.4914  0.1654
 8752SOL    HW234774   2.677   0.121   3.852  2.3950 -1.1811  0.4563
 8752SOL    HW334775   2.603  -0.008   3.883  2.1012 -1.2397 -0.4592
 8752SOL    MW434776   2.645   0.064   3.910  0.0518  0.0241  0.6874
 8753SOL     OW34777   3.651   4.673   3.746  0.3530  0.2475 -0.2615
 8753SOL    HW234778   3.716   4.629   3.691  0.1012  0.1079 -0.4423
 8753SOL    HW334779   3.671   4.642   3.835  1.0440  0.8166 -0.2100
 8753SOL    MW434780   3.663   4.663   3.751 -0.0187  0.2206 -0.3694
 8754SOL     OW34781   1.013   0.460   0.975 -0.2023  0.3520 -0.0138
 8754SOL    HW234782   0.929   0.446   0.932  0.0524  0.5360 -0.5823
 8754SOL    HW334783   1.068   0.388   0.945 -0.4956 -0.4396  1.2773
 8754SOL    MW434784   1.009   0.449   0.965  0.4721  0.0704 -0.1753
 8755SOL     OW34785   0.722   4.315   2.386 -0.2358 -0.0084  0.0928
 8755SOL    HW234786   0.703   4.268   2.305 -1.7690  0.2357  0.2904
 8755SOL    HW334787   0.680   4.264   2.455 -1.0292  1.0499  0.4306
 8755SOL    MW434788   0.714   4.302   2.384 -0.1764  0.3309  0.1441
 8756SOL     OW34789   5.372   4.232   5.318  0.3759 -0.2449 -0.2198
 8756SOL    HW234790   5.427   4.296   5.362  1.0292 -0.9877  0.0514
 8756SOL    HW334791   5.374   4.155   5.374 -0.3095 -0.5571 -0.6037
 8756SOL    MW434792   5.379   4.230   5.331 -0.2968 -0.1837 -0.3537
 8757SOL     OW34793   0.438   3.855   1.413 -0.2292  0.5744 -0.3802
 8757SOL    HW234794   0.503   3.923   1.430 -0.1285  0.1666  1.0413
 8757SOL    HW334795   0.359   3.903   1.389 -0.2296  1.2230  0.8511
 8757SOL    MW434796   0.436   3.870   1.412 -0.4476  0.2272 -0.1898
 8758SOL     OW34797   3.701   4.689   5.436 -0.3061 -0.3232  0.2994
 8758SOL    HW234798   3.781   4.718   5.391 -1.3631  3.7924  0.6803
 8758SOL    HW334799   3.648   4.649   5.368  0.2340  1.1164 -1.0310
 8758SOL    MW434800   3.705   4.688   5.421 -0.2633  0.6888  0.2820
 8759SOL     OW34801   5.218   5.861   2.297 -0.0516 -0.1842 -0.4787
 8759SOL    HW234802   5.213   5.926   2.227  2.0977 -1.6872 -2.1711
 8759SOL    HW334803   5.243   5.780   2.253 -0.5910 -1.6984  1.8098
 8759SOL    MW434804   5.221   5.859   2.282  0.3943 -0.6733 -0.0144
 8760SOL     OW34805   3.620   6.329   5.210  0.2210  0.0629 -0.0742
 8760SOL    HW234806   3.688   6.371   5.262  0.7410 -0.0958 -0.6219
 8760SOL    HW334807   3.667   6.288   5.137 -0.5136  0.3924 -0.7458
 8760SOL    MW434808   3.635   6.329   5.207  0.0599  0.4078 -0.2312
 8761SOL     OW34809   2.431   6.069   0.781  0.2548 -0.0488 -0.0445
 8761SOL    HW234810   2.449   6.094   0.872  0.1618  1.0569 -0.3221
 8761SOL    HW334811   2.420   5.974   0.785 -0.6650  0.0800  1.2548
 8761SOL    MW434812   2.432   6.060   0.794 -0.0224 -0.2699  0.2776
 8762SOL     OW34813   2.007   2.057   4.551  0.0253 -0.0735 -0.1639
 8762SOL    HW234814   2.099   2.073   4.527  0.3104 -0.3973  0.6589
 8762SOL    HW334815   2.012   1.986   4.615 -0.5678  1.5896  1.8298
 8762SOL    MW434816   2.020   2.049   4.556 -0.0953  0.4390  0.2020
 8763SOL     OW34817   0.150   1.004   1.574  0.2732  0.2601 -0.7384
 8763SOL    HW234818   0.169   0.983   1.483 -0.5657  1.9427 -1.3353
 8763SOL    HW334819   0.059   0.978   1.586  0.6014 -0.6521 -0.1434
 8763SOL    MW434820   0.141   0.998   1.564 -0.4853  0.6401 -0.0490
 8764SOL     OW34821   3.447   5.323   1.488 -0.0839 -0.0395  0.4523
 8764SOL    HW234822   3.482   5.295   1.573 -0.3168 -3.4806 -0.4215
 8764SOL    HW334823   3.499   5.275   1.424  0.9890  3.4863 -1.5670
 8764SOL    MW434824   3.458   5.313   1.491 -0.0948 -0.3121 -0.0433
 8765SOL     OW34825   2.150   4.681   0.202 -0.6908 -0.5045 -0.0956
 8765SOL    HW234826   2.125   4.597   0.164 -0.5215 -0.4255 -0.3917
 8765SOL    HW334827   2.133   4.672   0.296 -1.1168 -0.7060 -0.1882
 8765SOL    MW434828   2.144   4.669   0.209 -0.3508  0.6454 -0.3037
 8766SOL     OW34829   6.215   1.508   2.465 -0.3197 -0.7809 -0.2790
 8766SOL    HW234830   6.134   1.457   2.460 -2.5588  2.4535 -0.1829
 8766SOL    HW334831   6.206   1.575   2.397  1.3727  0.8759  1.0145
 8766SOL    MW434832   6.203   1.511   2.455 -0.3983 -0.5198 -0.1245
 8767SOL     OW34833   5.060   4.948   3.824 -0.0878 -0.4191  0.3967
 8767SOL    HW234834   5.009   4.982   3.898 -0.4464  0.4506 -0.2322
 8767SOL    HW334835   5.129   5.012   3.811 -1.2548  0.5773 -1.3312
 8767SOL    MW434836   5.062   4.961   3.832 -0.4272  0.0438  0.3280
 8768SOL     OW34837   1.180   2.677   2.170  0.0615  0.3621 -0.3260
 8768SOL    HW234838   1.208   2.730   2.095 -0.0229  0.2665 -0.4253
 8768SOL    HW334839   1.120   2.612   2.132 -1.5084  1.4915  0.0858
 8768SOL    MW434840   1.175   2.675   2.155  0.7753  0.3513 -0.2050
 8769SOL     OW34841   4.433   5.136   3.005 -0.4271 -0.3333 -0.1726
 8769SOL    HW234842   4.341   5.155   3.023  0.1733  0.6521  2.2774
 8769SOL    HW334843   4.451   5.056   3.056  0.1492 -0.3412 -0.3794
 8769SOL    MW434844   4.424   5.128   3.014 -0.1865  0.5200 -0.2774
 8770SOL     OW34845   0.589   1.156   4.181  0.1338 -0.3046  0.5258
 8770SOL    HW234846   0.496   1.154   4.202 -0.1628  1.1842 -0.5133
 8770SOL    HW334847   0.596   1.107   4.099  0.1456  0.2001  0.2222
 8770SOL    MW434848   0.578   1.149   4.173 -0.4878 -0.2317 -0.1067
 8771SOL     OW34849   0.374   5.434   2.932 -0.1576 -0.3441 -0.5629
 8771SOL    HW234850   0.389   5.482   2.851 -0.4017 -0.8878 -0.9346
 8771SOL    HW334851   0.281   5.409   2.928 -1.0247  2.1386  1.2335
 8771SOL    MW434852   0.364   5.437   2.921  0.1822 -0.1409  0.1480
 8772SOL     OW34853   4.192   2.150   4.124  0.2166 -0.1202  0.1967
 8772SOL    HW234854   4.267   2.161   4.183 -0.5087 -1.4826  1.4383
 8772SOL    HW334855   4.165   2.059   4.138 -1.7602  0.3950 -0.1200
 8772SOL    MW434856   4.199   2.140   4.134 -0.2995  0.2875 -0.2437
 8773SOL     OW34857   0.735   0.684   1.947 -0.2549 -0.1315  0.3036
 8773SOL    HW234858   0.815   0.726   1.979 -0.4621 -0.3544  1.1611
 8773SOL    HW334859   0.685   0.754   1.906  1.2203 -0.3373 -2.0135
 8773SOL    MW434860   0.739   0.698   1.946 -0.4709  0.2377  0.8235
 8774SOL     OW34861   3.163   2.202   3.731 -0.3566 -0.2506 -0.1943
 8774SOL    HW234862   3.081   2.217   3.778  0.3217  0.8952  0.6687
 8774SOL    HW334863   3.231   2.239   3.787  0.5616  0.6422 -1.8101
 8774SOL    MW434864   3.162   2.209   3.744  0.2772 -0.1785  0.6484
 8775SOL     OW34865   2.552   5.437   3.556 -0.0998 -0.3213  0.1148
 8775SOL    HW234866   2.500   5.516   3.574  0.6862  0.1667  0.2950
 8775SOL    HW334867   2.643   5.468   3.558  0.1955 -1.1620 -0.1984
 8775SOL    MW434868   2.557   5.452   3.559 -0.0962  0.2991 -0.1633
 8776SOL     OW34869   0.676   0.244   5.927  0.5457 -0.2404 -0.1735
 8776SOL    HW234870   0.627   0.289   5.859  1.4327  0.6125 -0.2651
 8776SOL    HW334871   0.710   0.166   5.884 -0.4177 -0.6625 -0.2000
 8776SOL    MW434872   0.674   0.239   5.913  0.3433 -0.5031 -0.4658
 8777SOL     OW34873   4.575   4.210   1.450  0.1712 -0.0679  0.5240
 8777SOL    HW234874   4.645   4.172   1.503  1.6847  2.0609  0.1415
 8777SOL    HW334875   4.602   4.300   1.434 -3.4801  1.4644  1.8259
 8777SOL    MW434876   4.588   4.217   1.455  0.6158 -0.6754  0.5096
 8778SOL     OW34877   0.904   4.671   1.113 -0.0108  0.1936 -0.8869
 8778SOL    HW234878   0.979   4.660   1.171  0.2118 -0.6608 -1.3147
 8778SOL    HW334879   0.909   4.762   1.083  1.2265 -0.0243 -1.4089
 8778SOL    MW434880   0.914   4.681   1.116 -0.7535 -0.6005  0.0827
 8779SOL     OW34881   2.754   0.519   0.217 -0.1492 -0.2041 -0.5846
 8779SOL    HW234882   2.799   0.594   0.177 -0.1110  0.1410  0.0936
 8779SOL    HW334883   2.687   0.495   0.153 -2.0722  2.2169  0.3377
 8779SOL    MW434884   2.751   0.526   0.203 -0.0445  0.0531 -0.1657
 8780SOL     OW34885   4.525   1.370   5.360  0.0388 -0.5091  0.2102
 8780SOL    HW234886   4.562   1.308   5.298  0.1781 -0.6965  0.4787
 8780SOL    HW334887   4.546   1.456   5.323 -0.9019 -0.6087 -0.6098
 8780SOL    MW434888   4.532   1.373   5.347 -0.2901  0.0435  0.1781
 8781SOL     OW34889   4.521   3.379   2.291 -0.1383  0.2408 -0.9318
 8781SOL    HW234890   4.503   3.389   2.197 -1.5057 -0.6052 -0.7941
 8781SOL    HW334891   4.477   3.454   2.331  1.2583  1.1421 -1.0154
 8781SOL    MW434892   4.513   3.390   2.284  0.2251 -0.3522 -0.2579
 8782SOL     OW34893   5.336   3.576   5.402  0.3687 -0.1217  0.3862
 8782SOL    HW234894   5.351   3.614   5.315  1.6361 -2.2391 -0.4124
 8782SOL    HW334895   5.253   3.529   5.393 -0.7021  1.5818  1.0753
 8782SOL    MW434896   5.327   3.574   5.389  0.7570 -0.3638  0.2335
 8783SOL     OW34897   2.282   5.151   6.302 -0.3139  0.3409  0.1606
 8783SOL    HW234898   2.374   5.162   6.327  0.0154  0.6084 -1.1023
 8783SOL    HW334899   2.235   5.153   6.385  0.7234  1.1661  0.7643
 8783SOL    MW434900   2.288   5.153   6.316 -0.4797 -0.5220 -0.3725
 8784SOL     OW34901   1.209   3.874   0.097  0.0180 -0.1807 -0.0782
 8784SOL    HW234902   1.193   3.822   0.176 -0.1746 -0.5063 -0.3287
 8784SOL    HW334903   1.273   3.823   0.048  2.2699  1.3162  1.1275
 8784SOL    MW434904   1.215   3.860   0.101  0.0918 -0.3074 -0.2693
 8785SOL     OW34905   2.103   4.295   1.215 -0.0196  0.0612 -0.7701
 8785SOL    HW234906   2.101   4.379   1.263  0.5841  0.5560 -1.5814
 8785SOL    HW334907   2.053   4.235   1.270 -0.5465  0.9832 -0.2155
 8785SOL    MW434908   2.096   4.299   1.228  0.1169  0.3638  0.5597
 8786SOL     OW34909   2.880   5.764   5.286  0.4909  0.1330  0.0804
 8786SOL    HW234910   2.831   5.756   5.204 -1.3429 -0.1607  1.1636
 8786SOL    HW334911   2.817   5.744   5.354  2.2551 -0.7268  1.5461
 8786SOL    MW434912   2.866   5.761   5.284 -0.1484 -0.4088 -0.1418
 8787SOL     OW34913   2.452   6.251   0.331  0.3378  0.0805  0.0203
 8787SOL    HW234914   2.406   6.194   0.270  1.1153 -0.4521 -0.0847
 8787SOL    HW334915   2.532   6.202   0.354 -0.8998 -0.6982  3.1011
 8787SOL    MW434916   2.457   6.237   0.326  0.3310  0.7345  0.0145
 8788SOL     OW34917   4.102   4.457   2.596  0.1885  0.4447  0.0928
 8788SOL    HW234918   4.119   4.364   2.580 -0.7149  0.2451  0.2333
 8788SOL    HW334919   4.019   4.474   2.552  0.4185  1.2228 -0.0481
 8788SOL    MW434920   4.093   4.447   2.588 -0.0787 -0.4475 -0.0181
 8789SOL     OW34921   1.038   1.328   1.353  0.4049 -0.0201 -0.1389
 8789SOL    HW234922   0.982   1.318   1.275  1.5683  1.7731 -1.2927
 8789SOL    HW334923   1.100   1.256   1.347  1.3850  0.8776 -1.7524
 8789SOL    MW434924   1.039   1.317   1.342  0.1655 -0.2366  0.0641
 8790SOL     OW34925   0.021   5.878   0.167 -0.8852  0.4090  0.2503
 8790SOL    HW234926   0.116   5.891   0.173 -0.8189 -0.1632  0.5041
 8790SOL    HW334927   0.010   5.783   0.166 -1.4482  0.4722  0.0491
 8790SOL    MW434928   0.032   5.867   0.168 -0.2477 -0.0610 -0.3581
 8791SOL     OW34929   4.629   2.910   4.531 -0.2309  0.0325 -0.6443
 8791SOL    HW234930   4.671   2.847   4.588 -0.4095 -0.7036 -1.3102
 8791SOL    HW334931   4.560   2.861   4.486 -0.9796  0.9145 -0.5007
 8791SOL    MW434932   4.626   2.895   4.532 -0.7149  0.2018 -0.1620
 8792SOL     OW34933   3.456   3.442   6.295  0.3723  0.0630  0.1301
 8792SOL    HW234934   3.417   3.526   6.268  0.8290  0.6053  1.1191
 8792SOL    HW334935   3.550   3.454   6.281  0.3781 -0.5267 -0.3520
 8792SOL    MW434936   3.463   3.455   6.289  0.1827 -0.2140 -0.0290
 8793SOL     OW34937   1.557   5.355   4.994  0.5073 -0.4070  0.3461
 8793SOL    HW234938   1.549   5.295   5.068  0.5831  0.5580  1.1599
 8793SOL    HW334939   1.613   5.310   4.931  1.1940 -0.8609  1.2763
 8793SOL    MW434940   1.563   5.341   4.995 -0.0683  0.0283 -1.0095
 8794SOL     OW34941   1.455   1.283   3.437 -0.1783  0.2270 -0.4457
 8794SOL    HW234942   1.437   1.344   3.508 -0.6183 -0.0422 -0.3176
 8794SOL    HW334943   1.471   1.339   3.361  0.5632  0.5207 -0.0814
 8794SOL    MW434944   1.455   1.298   3.436  0.0374 -0.1343 -0.1840
 8795SOL     OW34945   2.629   4.696   0.393 -0.3935 -0.6573 -0.3200
 8795SOL    HW234946   2.651   4.716   0.484  0.6465 -1.2305 -0.4367
 8795SOL    HW334947   2.679   4.758   0.341  1.4267 -2.2594 -0.6030
 8795SOL    MW434948   2.638   4.707   0.398 -0.3971 -0.0692  0.4440
 8796SOL     OW34949   2.674   4.373   4.970  0.1529  0.4587  0.1624
 8796SOL    HW234950   2.659   4.283   5.000  0.7405  0.8118  1.5975
 8796SOL    HW334951   2.616   4.427   5.024 -0.8671  0.8800 -1.3140
 8796SOL    MW434952   2.664   4.368   4.981 -0.6435 -0.2736 -0.0131
 8797SOL     OW34953   6.036   3.725   2.207  0.4809 -0.2864 -0.0134
 8797SOL    HW234954   6.009   3.817   2.209  3.2651  0.6521 -0.8273
 8797SOL    HW334955   6.052   3.706   2.114  0.3413 -1.4658  0.1824
 8797SOL    MW434956   6.035   3.735   2.195  0.2146 -0.3639 -0.1051
 8798SOL     OW34957   2.787   1.328   1.161  0.5293 -0.3430 -0.3583
 8798SOL    HW234958   2.855   1.374   1.112  0.4752  0.2804  0.1373
 8798SOL    HW334959   2.805   1.350   1.253 -0.9427  0.6793 -0.2775
 8798SOL    MW434960   2.799   1.337   1.167 -0.1973  0.6771 -0.4070
 8799SOL     OW34961   6.343   2.024   3.076 -0.0614 -0.0194 -0.1067
 8799SOL    HW234962   6.392   2.049   2.997  0.2061 -0.2379 -0.0113
 8799SOL    HW334963   6.298   1.944   3.052  0.1576 -0.1806  0.0146
 8799SOL    MW434964   6.344   2.017   3.062  0.0069 -0.0013 -0.1849
 8800SOL     OW34965   4.733   5.977   4.313 -0.0013 -0.3746  0.4027
 8800SOL    HW234966   4.824   5.981   4.341  0.1221 -0.5349  0.0358
 8800SOL    HW334967   4.730   5.904   4.251 -0.5641 -0.9663  1.0939
 8800SOL    MW434968   4.744   5.968   4.308  0.0971  0.1753  0.2366
 8801SOL     OW34969   6.254   2.421   1.870  0.2793 -0.2667  0.0333
 8801SOL    HW234970   6.163   2.408   1.897  0.0851  1.8342  0.5801
 8801SOL    HW334971   6.306   2.391   1.945 -0.0144 -0.1987  0.2637
 8801SOL    MW434972   6.249   2.415   1.884  0.6463 -0.3193  0.1669
 8802SOL     OW34973   4.463   4.061   2.089 -0.5120 -0.2632  0.5066
 8802SOL    HW234974   4.504   4.033   2.171 -0.7366  1.8158  1.4010
 8802SOL    HW334975   4.488   3.994   2.026  0.6087 -1.3471  2.0145
 8802SOL    MW434976   4.472   4.049   2.092 -0.5104 -0.0199 -0.2221
 8803SOL     OW34977   2.669   5.757   5.454  0.4342 -0.0759 -0.0709
 8803SOL    HW234978   2.696   5.734   5.542  1.2146 -1.2776 -0.5977
 8803SOL    HW334979   2.577   5.730   5.449  0.5259 -0.4480  0.2199
 8803SOL    MW434980   2.661   5.750   5.465 -0.1906 -0.5085  0.2649
 8804SOL     OW34981   0.375   3.208   2.737  0.3494 -0.0463  0.3292
 8804SOL    HW234982   0.338   3.292   2.709 -0.7191  0.1157  2.1173
 8804SOL    HW334983   0.439   3.231   2.804 -1.0949 -0.6874  2.0159
 8804SOL    MW434984   0.379   3.222   2.742 -0.0966  0.3266 -0.4916
 8805SOL     OW34985   0.661   2.637   5.890 -0.1075 -0.3617  0.4660
 8805SOL    HW234986   0.583   2.594   5.924  0.4607 -0.3118  1.8783
 8805SOL    HW334987   0.663   2.722   5.933  0.2239  0.0281 -0.2839
 8805SOL    MW434988   0.651   2.643   5.900  0.1769 -0.4847 -0.4031
 8806SOL     OW34989   4.132   5.378   1.189 -0.1963  0.1168  0.5781
 8806SOL    HW234990   4.064   5.413   1.131  1.2441  1.4906 -0.3627
 8806SOL    HW334991   4.203   5.441   1.183  1.3640 -1.5079  1.1725
 8806SOL    MW434992   4.132   5.391   1.180  0.5278 -0.5375  0.0682
 8807SOL     OW34993   1.093   1.904   1.433  0.4180  0.5234 -0.1374
 8807SOL    HW234994   1.170   1.961   1.435  0.4007  0.5653  2.1326
 8807SOL    HW334995   1.127   1.818   1.457 -0.1814  0.4950  0.6552
 8807SOL    MW434996   1.107   1.900   1.437 -0.1056  0.1189  0.2092
 8808SOL     OW34997   4.408   5.488   2.393  0.0735  0.2982  0.1546
 8808SOL    HW234998   4.427   5.455   2.305 -1.7569 -1.1230  0.2351
 8808SOL    HW334999   4.374   5.412   2.440 -0.2842  1.3674  1.6851
 8808SOL    MW435000   4.406   5.474   2.387  0.0137  0.3025  0.1411
 8809SOL     OW35001   0.380   3.585   0.116 -0.0880 -0.7779  0.2464
 8809SOL    HW235002   0.339   3.636   0.187  1.8901  1.5580 -0.1650
 8809SOL    HW335003   0.307   3.538   0.076 -1.5566 -0.7504  2.6416
 8809SOL    MW435004   0.365   3.586   0.120  0.1481  0.3478 -0.0588
 8810SOL     OW35005   4.269   1.815   4.240  0.4918  0.2955  0.4556
 8810SOL    HW235006   4.173   1.811   4.241  0.5186 -0.7213  1.0940
 8810SOL    HW335007   4.294   1.804   4.332  1.2570 -1.4076  0.0805
 8810SOL    MW435008   4.259   1.813   4.252  0.2150  0.6125 -0.5549
 8811SOL     OW35009   3.660   3.590   0.293 -0.0271 -0.1555 -0.0867
 8811SOL    HW235010   3.654   3.666   0.234  2.3016  0.3452  0.2083
 8811SOL    HW335011   3.744   3.550   0.270 -0.9674 -2.3515  0.1484
 8811SOL    MW435012   3.671   3.595   0.282  0.8838 -0.6384 -0.4645
 8812SOL     OW35013   2.640   0.270   3.091  0.2461 -0.3388 -0.8762
 8812SOL    HW235014   2.717   0.270   3.035  0.0892  0.1759 -1.1016
 8812SOL    HW335015   2.573   0.313   3.038  0.9101  3.0189  0.7986
 8812SOL    MW435016   2.641   0.276   3.076  0.1942 -0.4681  0.3793
 8813SOL     OW35017   2.567   2.531   5.685 -0.0594 -0.4982 -0.1011
 8813SOL    HW235018   2.522   2.603   5.640 -1.7206 -1.3859  0.0461
 8813SOL    HW335019   2.631   2.575   5.742  1.3233  0.7041 -2.4085
 8813SOL    MW435020   2.569   2.547   5.687 -0.0379 -0.5585 -0.1939
 8814SOL     OW35021   1.931   4.387   5.467  0.1983  0.1080 -0.5462
 8814SOL    HW235022   1.892   4.369   5.381 -0.0961 -0.7069 -0.2494
 8814SOL    HW335023   1.958   4.301   5.499 -0.3773  0.3005  0.5013
 8814SOL    MW435024   1.929   4.373   5.460 -0.0870 -0.3274 -0.1762
 8815SOL     OW35025   1.836   3.028   5.410  0.0077 -0.4450 -0.0466
 8815SOL    HW235026   1.848   2.983   5.326 -1.3547 -1.2296  0.1650
 8815SOL    HW335027   1.856   2.961   5.476 -0.0963 -0.1654  0.2685
 8815SOL    MW435028   1.840   3.013   5.407 -0.1787  0.0581 -0.3702
 8816SOL     OW35029   1.455   1.249   5.542 -0.0476  0.1429 -0.3842
 8816SOL    HW235030   1.382   1.259   5.604  0.8057  0.2112  0.6443
 8816SOL    HW335031   1.474   1.339   5.514  0.5711  0.2896  0.4708
 8816SOL    MW435032   1.448   1.262   5.547 -0.2392  0.1037  0.0035
 8817SOL     OW35033   3.940   5.310   2.398  0.0900 -0.1421  0.2430
 8817SOL    HW235034   4.028   5.274   2.404 -0.0643 -0.4112  0.9842
 8817SOL    HW335035   3.936   5.348   2.310  1.3579  0.9656  0.6237
 8817SOL    MW435036   3.951   5.310   2.387  0.1299  0.8023  0.0524
 8818SOL     OW35037   5.688   0.717   3.007  0.3341  0.0663  0.1507
 8818SOL    HW235038   5.670   0.717   2.913 -1.3047 -1.0616  0.4186
 8818SOL    HW335039   5.702   0.809   3.029  3.6204  0.1501 -1.6351
 8818SOL    MW435040   5.687   0.729   2.998 -0.6913  0.2935  0.7614
 8819SOL     OW35041   5.260   4.952   1.286  0.3079 -0.2138  0.1345
 8819SOL    HW235042   5.216   4.869   1.265  1.9810 -1.0505 -0.2756
 8819SOL    HW335043   5.265   4.998   1.202  0.2013 -0.1231  0.1787
 8819SOL    MW435044   5.255   4.947   1.272 -0.3413 -0.1503  0.2643
 8820SOL     OW35045   5.285   3.450   4.195  0.0450 -0.5225 -0.3454
 8820SOL    HW235046   5.219   3.431   4.261  0.4507 -0.0461  0.2177
 8820SOL    HW335047   5.263   3.538   4.162 -1.4381 -1.6026 -2.4526
 8820SOL    MW435048   5.274   3.459   4.199  0.1121 -0.0822 -0.1880
 8821SOL     OW35049   1.475   1.674   2.757 -0.4155  0.2123 -0.1472
 8821SOL    HW235050   1.494   1.754   2.708  2.4042 -0.3545 -0.1824
 8821SOL    HW335051   1.552   1.619   2.741 -0.8648 -1.2519  2.3606
 8821SOL    MW435052   1.488   1.678   2.748 -0.3994 -0.2367 -0.0846
 8822SOL     OW35053   5.624   1.056   2.601  0.1238 -0.4975  0.1978
 8822SOL    HW235054   5.673   1.042   2.520  0.1873  0.8974 -0.0319
 8822SOL    HW335055   5.652   1.142   2.631  0.7570 -1.3558  2.1874
 8822SOL    MW435056   5.634   1.065   2.594  0.4577 -0.3133  0.1714
 8823SOL     OW35057   4.751   1.485   0.944 -0.5784 -0.1423 -0.2461
 8823SOL    HW235058   4.692   1.466   0.871  0.8087 -1.1813 -1.1408
 8823SOL    HW335059   4.728   1.574   0.971 -2.3520 -0.4247 -0.7327
 8823SOL    MW435060   4.740   1.494   0.938  0.4856 -0.2350  0.4069
 8824SOL     OW35061   3.477   4.151   0.160 -0.5142  0.9269 -0.4843
 8824SOL    HW235062   3.456   4.144   0.253  0.8658 -1.3429 -0.2546
 8824SOL    HW335063   3.394   4.134   0.115 -1.1668  1.9186  0.3046
 8824SOL    MW435064   3.464   4.147   0.167 -0.6013 -1.1057  0.5314
 8825SOL     OW35065   5.926   4.681   3.160 -0.1896 -0.1305  0.5674
 8825SOL    HW235066   5.878   4.697   3.242 -2.2496 -2.1485 -0.1512
 8825SOL    HW335067   5.986   4.610   3.181  0.2629  0.2748  0.6588
 8825SOL    MW435068   5.928   4.674   3.174  0.0233 -0.3624  0.3237
 8826SOL     OW35069   3.604   6.092   1.224 -0.7550  0.6588  0.2904
 8826SOL    HW235070   3.636   6.047   1.302  1.1252  0.5940 -0.4654
 8826SOL    HW335071   3.596   6.184   1.250  0.6241  0.7758  0.3775
 8826SOL    MW435072   3.607   6.098   1.238  0.4214 -0.0009 -0.7036
 8827SOL     OW35073   2.601   5.138   4.216  0.1183  0.6263  0.2321
 8827SOL    HW235074   2.540   5.122   4.145 -0.0007 -1.6161  0.7772
 8827SOL    HW335075   2.675   5.184   4.175 -1.1408  1.8265 -0.7594
 8827SOL    MW435076   2.603   5.142   4.201 -0.1870 -0.6206 -0.0609
 8828SOL     OW35077   1.611   2.275   4.789 -0.2172 -0.1254  0.1520
 8828SOL    HW235078   1.553   2.351   4.794 -0.2372 -0.1237 -0.1127
 8828SOL    HW335079   1.693   2.304   4.829 -0.3112 -0.0470  0.2890
 8828SOL    MW435080   1.614   2.289   4.795 -0.3105  0.5751 -0.0677
 8829SOL     OW35081   6.031   0.346   5.458  0.3723  0.3228 -0.2944
 8829SOL    HW235082   6.026   0.274   5.395  0.6712  0.5238 -0.5532
 8829SOL    HW335083   6.109   0.327   5.510 -0.1862 -0.1390  0.3936
 8829SOL    MW435084   6.041   0.334   5.456  0.2520  0.2606  0.1519
 8830SOL     OW35085   1.052   0.012   5.224  0.3544 -0.0271 -0.5260
 8830SOL    HW235086   1.104   0.092   5.214  0.0340  0.1037 -1.2761
 8830SOL    HW335087   1.041  -0.020   5.134  1.6588 -1.6955 -0.1463
 8830SOL    MW435088   1.057   0.019   5.211 -0.1282  0.5620  0.3096
 8831SOL     OW35089   0.727   5.536   1.177  0.2566  0.2952 -0.3476
 8831SOL    HW235090   0.696   5.529   1.087 -2.7474  0.6105  0.5597
 8831SOL    HW335091   0.798   5.471   1.183  0.0798 -0.2005 -2.7185
 8831SOL    MW435092   0.732   5.527   1.166  0.0822 -0.1096 -0.3534
 8832SOL     OW35093   3.393   6.413   5.826  0.1007  0.0587 -0.1961
 8832SOL    HW235094   3.341   6.362   5.889 -0.5037  1.4085  0.4530
 8832SOL    HW335095   3.381   6.368   5.743  0.1820 -1.2589  0.4706
 8832SOL    MW435096   3.384   6.400   5.823 -0.8288 -0.3561 -0.3794
 8833SOL     OW35097   1.083   6.174   1.729  0.1307 -0.0865 -0.2752
 8833SOL    HW235098   1.170   6.157   1.765 -0.9415 -1.0404  2.0490
 8833SOL    HW335099   1.094   6.162   1.635  2.4106 -0.6079 -0.0155
 8833SOL    MW435100   1.096   6.170   1.721 -0.4054  0.0846 -0.2910
 8834SOL     OW35101   5.458   3.459   4.748 -0.3267  0.4067 -0.1697
 8834SOL    HW235102   5.442   3.553   4.750 -0.1472  0.4378 -0.1437
 8834SOL    HW335103   5.441   3.429   4.837 -0.0870  0.4658 -0.1038
 8834SOL    MW435104   5.454   3.467   4.760  0.3944  0.2155 -0.7997
 8835SOL     OW35105   3.981   2.472   2.453 -0.2319 -0.3984 -0.0762
 8835SOL    HW235106   3.972   2.567   2.447 -0.2568 -0.4878 -2.7662
 8835SOL    HW335107   4.068   2.458   2.492 -0.7840  0.6645  1.6384
 8835SOL    MW435108   3.991   2.483   2.457 -0.3339  0.2479 -0.4972
 8836SOL     OW35109   4.618   5.774   5.476 -0.8966 -0.3350  0.1779
 8836SOL    HW235110   4.593   5.750   5.566 -2.9710  1.0171  0.0236
 8836SOL    HW335111   4.610   5.692   5.427 -1.2360 -0.7718  0.9405
 8836SOL    MW435112   4.614   5.760   5.481  0.0335 -0.0416  0.3036
 8837SOL     OW35113   5.883   1.727   5.018  0.0058 -0.0836 -0.8829
 8837SOL    HW235114   5.906   1.717   5.111  0.4517  0.1137 -0.9733
 8837SOL    HW335115   5.962   1.702   4.971 -0.2433 -0.2495 -1.2142
 8837SOL    MW435116   5.896   1.722   5.024  0.1202 -0.4397  0.0456
 8838SOL     OW35117   5.529   3.193   4.332  0.3975 -0.3772  0.1002
 8838SOL    HW235118   5.467   3.197   4.259 -0.7720  1.3677  1.1185
 8838SOL    HW335119   5.550   3.285   4.351  1.8142 -0.8582  1.0473
 8838SOL    MW435120   5.524   3.206   4.325 -0.3268  0.6139  0.0608
 8839SOL     OW35121   6.045   5.038   0.247 -0.1005 -0.1702  0.0501
 8839SOL    HW235122   5.980   5.031   0.177 -1.0563 -1.5145  1.0183
 8839SOL    HW335123   6.101   4.961   0.235  0.4873  0.2490  0.0486
 8839SOL    MW435124   6.044   5.027   0.236 -0.0684 -0.5008  0.4497
 8840SOL     OW35125   6.380   4.557   3.496  0.2226  0.3268  0.7023
 8840SOL    HW235126   6.286   4.559   3.478  0.6828  1.7670 -2.0947
 8840SOL    HW335127   6.412   4.643   3.469  2.2395  0.2022  2.4246
 8840SOL    MW435128   6.372   4.569   3.490  0.8154  0.4831 -0.2983
 8841SOL     OW35129   4.248   3.408   1.374  0.0220 -0.1921  0.1720
 8841SOL    HW235130   4.165   3.401   1.420 -0.1337  0.2756 -0.0333
 8841SOL    HW335131   4.231   3.470   1.302 -0.7215 -3.4266 -2.7186
 8841SOL    MW435132   4.235   3.415   1.370 -0.2812 -0.1527 -0.1369
 8842SOL     OW35133   0.957   6.244   5.883 -1.1122  0.0316  0.0422
 8842SOL    HW235134   0.935   6.151   5.895  0.2322 -0.6404 -2.1527
 8842SOL    HW335135   1.042   6.243   5.839 -0.3627  2.3655  1.2834
 8842SOL    MW435136   0.965   6.232   5.879  0.1904 -0.4277 -0.1876
 8843SOL     OW35137   6.360   2.069   1.942 -0.2276  0.4671  0.5326
 8843SOL    HW235138   6.387   1.995   1.995 -0.1606 -1.3014 -1.8079
 8843SOL    HW335139   6.338   2.031   1.857 -3.0612  2.7389  0.0775
 8843SOL    MW435140   6.360   2.054   1.938 -0.1527  0.3472  0.0265
 8844SOL     OW35141   1.303   3.320   2.151 -0.0296 -0.2426  0.0328
 8844SOL    HW235142   1.213   3.292   2.134  0.3711 -1.1249 -0.6808
 8844SOL    HW335143   1.332   3.266   2.223 -0.9503  1.9278  2.1931
 8844SOL    MW435144   1.295   3.309   2.158 -0.3287 -0.2729 -0.2088
 8845SOL     OW35145   5.255   4.853   3.443 -0.2984  0.0102 -0.3993
 8845SOL    HW235146   5.165   4.886   3.451  0.0437  1.0779 -0.6978
 8845SOL    HW335147   5.250   4.762   3.470 -2.1126 -0.9358 -3.4452
 8845SOL    MW435148   5.242   4.845   3.448  0.7284 -0.1381 -0.5997
 8846SOL     OW35149   5.361   2.507   2.491 -0.2516 -0.3857 -0.0846
 8846SOL    HW235150   5.359   2.448   2.567 -1.0584 -0.9340 -0.5226
 8846SOL    HW335151   5.276   2.495   2.449 -0.3796  0.9992 -0.2663
 8846SOL    MW435152   5.350   2.497   2.496  0.9238 -0.7949  0.4246
 8847SOL     OW35153   0.737   2.987   3.224 -0.1450 -0.1687  0.3297
 8847SOL    HW235154   0.794   2.930   3.277 -0.8361 -0.1120  1.1439
 8847SOL    HW335155   0.657   2.936   3.212 -0.9556  0.7951  1.4635
 8847SOL    MW435156   0.734   2.973   3.230 -0.5554  0.0994  0.0934
 8848SOL     OW35157   5.707   5.853   2.335  0.0151  0.2182 -0.4643
 8848SOL    HW235158   5.787   5.871   2.286 -0.2801 -0.9968 -1.4285
 8848SOL    HW335159   5.678   5.767   2.305  0.1202 -0.8726  2.2642
 8848SOL    MW435160   5.714   5.844   2.325 -0.2337 -0.0121 -0.5697
 8849SOL     OW35161   6.108   2.620   3.682  0.2355 -0.4770 -0.2900
 8849SOL    HW235162   6.037   2.571   3.641  0.2664  0.4367 -1.5072
 8849SOL    HW335163   6.188   2.582   3.644  0.4456 -1.6353  1.2214
 8849SOL    MW435164   6.110   2.609   3.671  0.3507  0.4215 -0.1755
 8850SOL     OW35165   1.610   5.972   4.078 -0.8316 -0.0780  0.0770
 8850SOL    HW235166   1.578   6.040   4.019 -1.4350  0.4942  1.0366
 8850SOL    HW335167   1.602   5.891   4.027 -2.6223  0.2159 -0.1761
 8850SOL    MW435168   1.605   5.970   4.063  0.2697 -0.1454 -0.4526
 8851SOL     OW35169   3.146   4.748   0.840 -0.1306 -0.1174  0.1984
 8851SOL    HW235170   3.158   4.715   0.929 -0.9756 -0.4607  0.1910
 8851SOL    HW335171   3.162   4.672   0.784  1.3488  0.3104 -0.0208
 8851SOL    MW435172   3.150   4.734   0.844 -0.1386  0.5285 -0.1301
 8852SOL     OW35173   6.257   3.265   5.109  0.0913  0.2279  0.1628
 8852SOL    HW235174   6.231   3.262   5.201 -1.7237 -2.0582 -0.3415
 8852SOL    HW335175   6.181   3.300   5.063  1.0095  1.4440 -0.5122
 8852SOL    MW435176   6.244   3.270   5.115  0.2922 -0.1714  0.6734
 8853SOL     OW35177   0.942   4.328   1.347 -0.1474  0.0821  0.1675
 8853SOL    HW235178   0.997   4.282   1.285 -1.2680 -1.0943 -0.0116
 8853SOL    HW335179   0.853   4.302   1.324 -0.6072 -0.3925  2.2338
 8853SOL    MW435180   0.937   4.319   1.336 -0.4679  0.2249  0.1852
 8854SOL     OW35181   2.036   3.095   3.863  0.1225  0.9165 -0.0105
 8854SOL    HW235182   2.040   3.120   3.956  2.0472  0.7744 -0.0248
 8854SOL    HW335183   1.979   3.161   3.823 -0.3922  1.2257  1.1779
 8854SOL    MW435184   2.029   3.107   3.870 -0.1333 -0.2679 -0.0865
 8855SOL     OW35185   1.046   0.978   1.338 -0.1109  0.3829 -0.9768
 8855SOL    HW235186   0.957   0.992   1.370 -0.3692 -0.3395 -1.3544
 8855SOL    HW335187   1.039   0.903   1.280  0.2696  1.8262 -3.0035
 8855SOL    MW435188   1.033   0.970   1.335  0.3314  0.3581  0.6750
 8856SOL     OW35189   1.566   0.700   5.480  0.5944 -0.0083 -0.1420
 8856SOL    HW235190   1.587   0.698   5.574  1.2604  0.8803 -0.2627
 8856SOL    HW335191   1.532   0.613   5.462 -0.1999  0.0136  1.0797
 8856SOL    MW435192   1.564   0.688   5.490  0.1931 -0.0797  0.1632
 8857SOL     OW35193   5.460   2.238   4.615  0.1530 -0.1726 -0.3718
 8857SOL    HW235194   5.529   2.274   4.559  0.8668 -1.5325 -0.4104
 8857SOL    HW335195   5.488   2.148   4.633 -1.4812 -0.6774 -0.1586
 8857SOL    MW435196   5.473   2.231   4.610 -0.3886 -0.0352 -0.5719
 8858SOL     OW35197   3.468   1.174   1.156 -0.2845  0.0322 -0.2164
 8858SOL    HW235198   3.464   1.113   1.230  1.6738 -0.6264 -0.5950
 8858SOL    HW335199   3.459   1.260   1.196  2.1226 -0.2051  1.0541
 8858SOL    MW435200   3.466   1.177   1.171 -0.0563  0.4228 -0.2168
 8859SOL     OW35201   3.470   4.818   3.430 -0.0566 -0.0399 -0.1881
 8859SOL    HW235202   3.441   4.898   3.474 -0.1714  0.3993 -1.0281
 8859SOL    HW335203   3.498   4.848   3.343 -1.0694 -1.0462 -0.8848
 8859SOL    MW435204   3.470   4.832   3.424 -0.0333 -0.0935 -0.2030
 8860SOL     OW35205   5.580   4.684   6.231 -0.1195  0.4466 -0.1829
 8860SOL    HW235206   5.595   4.624   6.304 -0.4577 -1.9092 -1.9401
 8860SOL    HW335207   5.655   4.743   6.234  0.2804 -0.0653  1.5631
 8860SOL    MW435208   5.592   4.684   6.241  0.0344  0.1370 -0.2311
 8861SOL     OW35209   5.682   5.147   6.218  0.0580  0.1274 -0.0273
 8861SOL    HW235210   5.739   5.222   6.238 -0.2918  0.0843  1.1463
 8861SOL    HW335211   5.642   5.124   6.301 -1.6124  0.0825 -0.8129
 8861SOL    MW435212   5.684   5.154   6.231 -0.2291  0.0231  0.7308
 8862SOL     OW35213   0.212   3.788   5.398  0.5080  0.3962 -0.3853
 8862SOL    HW235214   0.275   3.859   5.411 -1.9423  2.4324  1.1547
 8862SOL    HW335215   0.227   3.728   5.471  2.4109 -0.6926 -1.5544
 8862SOL    MW435216   0.223   3.789   5.409 -0.5105 -0.3504 -0.3040
 8863SOL     OW35217   5.185   2.632   2.967 -0.4960  0.2674  0.3790
 8863SOL    HW235218   5.229   2.672   2.892  0.8939 -0.4271  0.7984
 8863SOL    HW335219   5.123   2.570   2.928  1.6165 -1.5938 -0.2708
 8863SOL    MW435220   5.183   2.629   2.952 -0.8725 -0.3066  0.1051
 8864SOL     OW35221   6.089   3.519   3.083 -0.3992 -0.1128 -0.2186
 8864SOL    HW235222   6.108   3.464   3.007  4.6893 -0.4881  0.9977
 8864SOL    HW335223   6.091   3.458   3.157 -4.2389  0.4180  0.5081
 8864SOL    MW435224   6.092   3.503   3.083 -0.3579  0.0429 -0.2984
 8865SOL     OW35225   3.408   5.892   6.204 -0.2234 -0.3026 -0.1671
 8865SOL    HW235226   3.379   5.877   6.294 -0.8793 -2.3659 -0.6734
 8865SOL    HW335227   3.468   5.966   6.211 -0.6203 -0.1019  1.8896
 8865SOL    MW435228   3.412   5.900   6.217  0.3658  0.0593  0.3205
 8866SOL     OW35229   2.014   6.307   1.375  0.1306  0.3584  0.0228
 8866SOL    HW235230   1.923   6.285   1.356  0.0916 -1.4644  1.9801
 8866SOL    HW335231   2.065   6.256   1.313 -0.1163  2.0971 -1.7199
 8866SOL    MW435232   2.009   6.298   1.364 -0.5922 -0.4221  0.1986
 8867SOL     OW35233   0.494   2.143   4.519 -0.3122 -0.1042 -0.2200
 8867SOL    HW235234   0.576   2.096   4.532 -0.6576 -0.9112 -0.9027
 8867SOL    HW335235   0.454   2.146   4.606  0.9176  1.2436  0.3462
 8867SOL    MW435236   0.499   2.138   4.532 -0.1272  0.0860  0.2050
 8868SOL     OW35237   5.416   5.542   5.837 -0.2579 -0.1926  0.2419
 8868SOL    HW235238   5.366   5.624   5.831 -0.6943 -0.4291  0.6351
 8868SOL    HW335239   5.351   5.473   5.825  0.2607 -0.4742 -1.1305
 8868SOL    MW435240   5.401   5.544   5.834 -0.9868  0.2882 -0.3471
 8869SOL     OW35241   0.117   0.497   4.070 -0.2206 -0.0573  0.1240
 8869SOL    HW235242   0.091   0.573   4.124 -1.7086  0.0788 -0.7253
 8869SOL    HW335243   0.040   0.479   4.017  0.3045 -1.8586 -0.0686
 8869SOL    MW435244   0.103   0.505   4.070 -0.1241  0.3737  0.0664
 8870SOL     OW35245   5.301   0.032   5.910 -0.1245  0.3554 -0.2585
 8870SOL    HW235246   5.246  -0.037   5.874 -0.3469  0.1706  0.4280
 8870SOL    HW335247   5.360   0.055   5.838 -3.6873  3.4913 -2.5741
 8870SOL    MW435248   5.302   0.026   5.896  0.3884  0.3524  0.7427
 8871SOL     OW35249   6.205   6.189   0.592  0.0867  0.3010 -0.0306
 8871SOL    HW235250   6.240   6.193   0.503 -0.7486 -0.5689 -0.4140
 8871SOL    HW335251   6.173   6.099   0.601 -0.1378  0.4752  1.0364
 8871SOL    MW435252   6.206   6.178   0.581 -0.3142  0.7067  0.0547
 8872SOL     OW35253   6.277   0.097   0.526  0.2599  0.3714 -0.0026
 8872SOL    HW235254   6.263   0.192   0.525  2.5207  0.7628  0.2093
 8872SOL    HW335255   6.195   0.061   0.559 -0.5663  2.2596  0.1430
 8872SOL    MW435256   6.264   0.105   0.530  0.4258 -0.1372  0.4742
 8873SOL     OW35257   0.357   1.716   0.820 -0.3295  0.2404  0.5943
 8873SOL    HW235258   0.391   1.630   0.797  2.2133  0.9563  1.3210
 8873SOL    HW335259   0.423   1.753   0.878 -1.8484  2.2962  1.1340
 8873SOL    MW435260   0.370   1.710   0.824 -0.2901  0.3040 -0.1661
 8874SOL     OW35261   1.349   0.640   0.480 -0.0897 -0.3849  0.0513
 8874SOL    HW235262   1.379   0.725   0.450  0.8230 -0.0623  1.7403
 8874SOL    HW335263   1.262   0.657   0.517  0.1430 -0.1485  0.4988
 8874SOL    MW435264   1.341   0.653   0.481 -0.4893  0.5435  0.2800
 8875SOL     OW35265   1.590   0.253   0.996 -0.1993 -0.1057  0.3461
 8875SOL    HW235266   1.674   0.261   1.042 -1.4694  0.7753  2.6790
 8875SOL    HW335267   1.576   0.339   0.956  0.4176 -0.5561 -0.9047
 8875SOL    MW435268   1.599   0.265   0.997 -0.4697 -0.5190  0.2137
 8876SOL     OW35269   2.857   1.955   5.299 -0.7582 -0.1702  0.0232
 8876SOL    HW235270   2.767   1.932   5.277 -0.5484  0.5147 -1.7305
 8876SOL    HW335271   2.885   2.014   5.228  0.4051  1.2886  1.6094
 8876SOL    MW435272   2.849   1.960   5.287  0.0858 -0.3780  0.6303
 8877SOL     OW35273   5.399   3.692   0.847 -0.8771  0.6909 -0.0264
 8877SOL    HW235274   5.475   3.737   0.810  0.7268 -2.7470 -1.3410
 8877SOL    HW335275   5.416   3.691   0.941  0.0466  1.0500 -0.1734
 8877SOL    MW435276   5.411   3.698   0.855  0.1563  0.0082 -0.0675
 8878SOL     OW35277   0.905   6.229   3.484 -0.3561 -0.4436  0.2054
 8878SOL    HW235278   0.902   6.232   3.579 -0.2758 -0.2830  0.2032
 8878SOL    HW335279   0.815   6.209   3.458 -0.4775 -0.0438  0.3027
 8878SOL    MW435280   0.893   6.227   3.493  0.0369  0.7095  0.7628
 8879SOL     OW35281   2.178   6.144   1.216 -0.5586 -0.0366  0.1718
 8879SOL    HW235282   2.250   6.205   1.202 -0.6616 -0.0924 -0.6991
 8879SOL    HW335283   2.211   6.081   1.280 -0.6023  1.1517  1.4081
 8879SOL    MW435284   2.192   6.144   1.222  0.6359 -0.4732 -0.0299
 8880SOL     OW35285   0.784   1.781   0.091  0.1580 -0.2186  0.4450
 8880SOL    HW235286   0.799   1.696   0.133 -0.4244 -0.6419 -0.1701
 8880SOL    HW335287   0.868   1.803   0.050  0.2360 -0.6380  0.3732
 8880SOL    MW435288   0.797   1.773   0.091 -0.3490  0.1454 -0.0646
 8881SOL     OW35289   6.122   0.022   1.405 -0.2574  0.5370 -0.0069
 8881SOL    HW235290   6.124  -0.037   1.480 -0.9086 -0.0154 -0.4117
 8881SOL    HW335291   6.050   0.081   1.423  0.2904  1.1172  0.3190
 8881SOL    MW435292   6.113   0.022   1.417  0.3106 -0.4061  0.0631
 8882SOL     OW35293   1.632   5.006   2.035 -0.0032  0.3196  0.2870
 8882SOL    HW235294   1.596   5.094   2.021 -1.4961  0.0465  1.9887
 8882SOL    HW335295   1.643   4.970   1.947 -1.9189  1.2343 -0.3858
 8882SOL    MW435296   1.629   5.013   2.022  0.1219 -0.1591  0.4715
 8883SOL     OW35297   5.728   3.771   2.351  0.0450 -0.2106  0.2473
 8883SOL    HW235298   5.633   3.765   2.344  0.1064  0.3476 -1.4772
 8883SOL    HW335299   5.746   3.755   2.444 -1.7891  0.5970  0.7924
 8883SOL    MW435300   5.718   3.768   2.363 -0.1216 -0.8053  0.1405
 8884SOL     OW35301   4.529   2.360   6.426  0.2090  0.6554 -0.1269
 8884SOL    HW235302   4.563   2.382   6.339 -1.5906 -1.4026 -1.4329
 8884SOL    HW335303   4.602   2.317   6.470  0.9489  1.1649 -0.8241
 8884SOL    MW435304   4.543   2.358   6.421 -0.3560  0.3774 -0.1404
 8885SOL     OW35305   0.661   2.704   2.602 -0.1088 -0.5061  0.4147
 8885SOL    HW235306   0.752   2.673   2.602 -0.7155 -2.4696 -0.6163
 8885SOL    HW335307   0.641   2.718   2.510 -1.1081 -0.9553  0.5535
 8885SOL    MW435308   0.670   2.701   2.590  0.4836 -0.0220  0.0506
 8886NA      NA35309   3.796   6.261   4.692 -0.1958  0.0393  0.0870
 8887NA      NA35310   1.570   2.688   3.266 -0.2156 -0.4577 -0.1495
 8888NA      NA35311   3.252   0.209   0.059  0.5835  0.2334 -0.1456
 8889NA      NA35312   6.090   5.528   1.552  0.1889  0.1028  0.2790
 8890NA      NA35313   3.464   5.518   0.177  0.2724  0.0987 -0.6073
 8891NA      NA35314   5.566   2.465   4.947  0.0108 -0.2725  0.5626
 8892NA      NA35315   4.556   5.078   4.097 -0.0375  0.3490  0.1170
   6.42900   6.42900   6.42900
